/*--------------------------------*- C++ -*----------------------------------*\
  =========                 |
  \\      /  F ield         | OpenFOAM: The Open Source CFD Toolbox
   \\    /   O peration     | Website:  https://openfoam.org
    \\  /    A nd           | Version:  7
     \\/     M anipulation  |
\*---------------------------------------------------------------------------*/
FoamFile
{
    version     2.0;
    format      ascii;
    class       volScalarField;
    location    "0.00139";
    object      T;
}
// * * * * * * * * * * * * * * * * * * * * * * * * * * * * * * * * * * * * * //

dimensions      [0 0 0 1 0 0 0];

internalField   nonuniform List<scalar> 
5000
(
272.48465
272.47675
272.47393
272.46643
272.46268
272.45546
272.45082
272.44417
272.43857
272.43227
272.42608
272.41978
272.41326
272.40679
272.40004
272.39337
272.38641
272.37953
272.37237
272.36529
272.35792
272.35064
272.34307
272.3356
272.32783
272.32015
272.31218
272.30431
272.29615
272.28808
272.27973
272.27147
272.26293
272.25448
272.24575
272.23712
272.22821
272.21939
272.2103
272.20131
272.19204
272.18287
272.17342
272.16407
272.15445
272.14492
272.13513
272.12543
272.11547
272.10561
272.09548
272.08545
272.07516
272.06498
272.05453
272.0442
272.0336
272.02311
272.01236
272.00172
271.99082
271.98004
271.969
271.95807
271.94689
271.93582
271.92449
271.91328
271.90182
271.89047
271.87887
271.86739
271.85565
271.84404
271.83218
271.82044
271.80844
271.79658
271.78446
271.77247
271.76023
271.74812
271.73576
271.72353
271.71106
271.69872
271.68613
271.67368
271.66098
271.64842
271.63561
271.62294
271.61003
271.59726
271.58425
271.57138
271.55826
271.5453
271.53209
271.51902
271.50572
271.49257
271.47918
271.46594
271.45246
271.43913
271.42558
271.41217
271.39854
271.38506
271.37135
271.3578
271.34402
271.3304
271.31656
271.30288
271.28897
271.27523
271.26126
271.24747
271.23345
271.21959
271.20552
271.19162
271.17749
271.16354
271.14937
271.13538
271.12116
271.10712
271.09287
271.07879
271.0645
271.05039
271.03606
271.02191
271.00755
270.99338
270.97899
270.9648
270.95039
270.93617
270.92174
270.9075
270.89305
270.87881
270.86434
270.85009
270.83562
270.82135
270.80687
270.79261
270.77813
270.76386
270.74938
270.73511
270.72064
270.70638
270.69192
270.67767
270.66323
270.649
270.63457
270.62036
270.60596
270.59177
270.5774
270.56325
270.54891
270.53479
270.52048
270.50641
270.49214
270.47811
270.46389
270.44991
270.43573
270.42181
270.40769
270.39382
270.37975
270.36594
270.35194
270.3382
270.32426
270.31058
270.29672
270.28311
270.26933
270.2558
270.24209
270.22864
270.21501
270.20164
270.1881
270.17482
270.16139
270.14818
270.13486
270.12172
270.10853
270.09548
270.08241
270.06944
270.05649
270.04363
270.0308
270.01805
270.00534
269.99271
269.98013
269.96761
269.95516
269.94278
269.93046
269.91821
269.90603
269.89393
269.88189
269.86993
269.85804
269.84622
269.83449
269.82283
269.81125
269.79976
269.78834
269.77701
269.76577
269.75461
269.74354
269.73255
269.72166
269.71085
269.70014
269.68953
269.679
269.66858
269.65825
269.64801
269.63788
269.62785
269.61792
269.60809
269.59837
269.58875
269.57923
269.56982
269.56053
269.55134
269.54226
269.53329
269.52443
269.51569
269.50706
269.49855
269.49016
269.48188
269.47372
269.46568
269.45776
269.44996
269.44229
269.43474
269.42731
269.42001
269.41284
269.40579
269.39887
269.39208
269.38542
269.37889
269.37249
269.36623
269.36009
269.3541
269.34823
269.34251
269.33691
269.33146
269.32614
269.32097
269.31593
269.31103
269.30627
269.30165
269.29718
269.29284
269.28865
269.28461
269.2807
269.27694
269.27333
269.26986
269.26654
269.26336
269.26033
269.25744
269.25471
269.25211
269.24967
269.24737
269.24522
269.24322
269.24137
269.23966
269.2381
269.23668
269.23541
269.23429
269.23332
269.23249
269.2318
269.23126
269.23086
269.23061
269.23052
269.23057
269.23076
269.23109
269.23156
269.23217
269.23292
269.23381
269.23484
269.23601
269.23731
269.23875
269.24032
269.24203
269.24387
269.24584
269.24794
269.25018
269.25254
269.25503
269.25764
269.26038
269.26325
269.26624
269.26935
269.27258
269.27593
269.2794
269.28298
269.28668
269.2905
269.29442
269.29846
269.30261
269.30687
269.31123
269.3157
269.32028
269.32496
269.32973
269.33461
269.33959
269.34467
269.34984
269.3551
269.36046
269.3659
269.37144
269.37707
269.38278
269.38857
269.39445
269.40041
269.40645
269.41257
269.41877
269.42504
269.43138
269.4378
269.44429
269.45085
269.45747
269.46416
269.47092
269.47773
269.48461
269.49155
269.49855
269.5056
269.51272
269.51988
269.5271
269.53437
269.54168
269.54905
269.55646
269.56392
269.57143
269.57898
269.58657
269.5942
269.60187
269.60957
269.61732
269.6251
269.63292
269.64077
269.64865
269.65656
269.66451
269.67249
269.68049
269.68852
269.69658
269.70467
269.71278
269.72091
269.72907
269.73725
269.74545
269.75368
269.76192
269.77018
269.77847
269.78677
269.79508
269.80342
269.81177
269.82014
269.82852
269.83692
269.84533
269.85375
269.86219
269.87064
269.8791
269.88758
269.89606
269.90455
269.91306
269.92157
269.93009
269.93862
269.94716
269.95571
269.96426
269.97283
269.98139
269.98997
269.99855
270.00713
270.01573
270.02432
270.03292
270.04153
270.05014
270.05875
270.06737
270.07599
270.08461
270.09324
270.10187
270.1105
270.11913
270.12776
270.1364
270.14504
270.15368
270.16232
270.17096
270.17961
270.18825
270.1969
270.20554
270.21419
270.22283
270.23148
270.24013
270.24877
270.25742
270.26607
270.27472
270.28336
270.29201
270.30066
270.3093
270.31795
270.3266
270.33524
270.34389
270.35253
270.36118
270.36982
270.37847
270.38711
270.39575
270.4044
270.41304
270.42168
270.43032
270.43896
270.4476
270.45625
270.46489
270.47353
270.48217
270.49081
270.49945
270.50808
270.51672
270.52536
270.534
270.54264
270.55127
270.55991
270.56855
270.57718
270.58582
270.59445
270.60309
270.61172
270.62036
270.62899
270.63762
270.64626
270.65489
270.66352
270.67215
270.68078
270.68941
270.69804
270.70667
270.71529
270.72392
270.73254
270.74117
270.74979
270.75841
270.76704
270.77566
270.78428
270.7929
270.80152
270.81013
270.81875
270.82737
270.83598
270.84459
270.85321
270.86182
270.87043
270.87904
270.88765
270.89626
270.90486
270.91347
270.92208
270.93068
270.93929
270.94789
270.95649
270.9651
270.9737
270.9823
270.9909
270.9995
271.0081
271.0167
271.02529
271.03389
271.04249
271.05108
271.05968
271.06827
271.07687
271.08546
271.09405
271.10265
271.11124
271.11983
271.12842
271.13701
271.1456
271.15419
271.16278
271.17137
271.17996
271.18855
271.19714
271.20572
271.21431
271.22289
271.23148
271.24006
271.24865
271.25723
271.26581
271.27439
271.28297
271.29155
271.30013
271.30871
271.31729
271.32586
271.33444
271.34301
271.35159
271.36016
271.36873
271.3773
271.38587
271.39444
271.403
271.41157
271.42014
271.4287
271.43726
271.44582
271.45438
271.46294
271.4715
271.48006
271.48861
271.49716
271.50572
271.51427
271.52282
271.53136
271.53991
271.54846
271.557
271.56554
271.57408
271.58262
271.59116
271.5997
271.60824
271.61677
271.6253
271.63383
271.64236
271.65089
271.65942
271.66795
271.67647
271.68499
271.69352
271.70204
271.71056
271.71907
271.72759
271.7361
271.74462
271.75313
271.76164
271.77015
271.77866
271.78717
271.79568
271.80418
271.81269
271.82119
271.82969
271.83819
271.84669
271.85519
271.86369
271.87219
271.88068
271.88918
271.89767
271.90616
271.91466
271.92315
271.93164
271.94013
271.94862
271.95711
271.9656
271.97408
271.98257
271.99106
271.99954
272.00802
272.01651
272.02499
272.03347
272.04196
272.05044
272.05892
272.0674
272.07588
272.08436
272.09284
272.10132
272.10979
272.11827
272.12675
272.13523
272.1437
272.15217
272.16065
272.16912
272.1776
272.18607
272.19454
272.20301
272.21148
272.21995
272.22842
272.23689
272.24536
272.25382
272.26229
272.27075
272.27922
272.28768
272.29614
272.3046
272.31307
272.32153
272.32998
272.33844
272.3469
272.35536
272.36381
272.37226
272.38072
272.38917
272.39762
272.40607
272.41452
272.42297
272.43142
272.43986
272.44831
272.45675
272.46519
272.47363
272.48207
272.49051
272.49895
272.50738
272.51582
272.52425
272.53268
272.54112
272.54954
272.55797
272.5664
272.57482
272.58325
272.59167
272.60009
272.60851
272.61693
272.62535
272.63377
272.64218
272.65059
272.659
272.66741
272.67583
272.68423
272.69264
272.70105
272.70945
272.71785
272.72625
272.73465
272.74305
272.75144
272.75984
272.76823
272.77662
272.78502
272.79341
272.80179
272.81018
272.81856
272.82695
272.83533
272.84371
272.85209
272.86047
272.86884
272.87722
272.88559
272.89396
272.90234
272.9107
272.91907
272.92744
272.9358
272.94417
272.95252
272.96089
272.96925
272.9776
272.98596
272.99431
273.00267
273.01102
273.01937
273.02772
273.03607
273.04441
273.05276
273.0611
273.06944
273.07779
273.08612
273.09446
273.1028
273.11113
273.11947
273.1278
273.13613
273.14447
273.15279
273.16113
273.16945
273.17778
273.1861
273.19443
273.20275
273.21107
273.21939
273.22771
273.23603
273.24435
273.25266
273.26098
273.26929
273.27761
273.28592
273.29423
273.30254
273.31085
273.31916
273.32747
273.33578
273.34408
273.35239
273.36069
273.369
273.37731
273.38561
273.39391
273.40221
273.41052
273.41881
273.42711
273.43542
273.44371
273.45201
273.46031
273.46861
273.4769
273.4852
273.49349
273.50178
273.51008
273.51837
273.52667
273.53496
273.54325
273.55154
273.55983
273.56812
273.5764
273.5847
273.59298
273.60127
273.60955
273.61784
273.62613
273.6344
273.64269
273.65097
273.65925
273.66753
273.67581
273.68409
273.69237
273.70065
273.70892
273.7172
273.72548
273.73375
273.74202
273.75029
273.75857
273.76683
273.7751
273.78337
273.79164
273.79991
273.80817
273.81643
273.82469
273.83295
273.84122
273.84947
273.85773
273.86599
273.87425
273.8825
273.89075
273.89901
273.90725
273.91551
273.92375
273.932
273.94025
273.94849
273.95674
273.96498
273.97322
273.98146
273.9897
273.99794
274.00617
274.01441
274.02264
274.03088
274.0391
274.04734
274.05557
274.06379
274.07202
274.08024
274.08847
274.09669
274.10491
274.11313
274.12135
274.12957
274.13777
274.14599
274.1542
274.16242
274.17063
274.17883
274.18704
274.19524
274.20345
274.21165
274.21986
274.22806
274.23625
274.24446
274.25265
274.26085
274.26904
274.27723
274.28543
274.29361
274.30181
274.30999
274.31818
274.32636
274.33454
274.34273
274.35091
274.35909
274.36727
274.37545
274.38363
274.3918
274.39998
274.40815
274.41632
274.42449
274.43266
274.44083
274.449
274.45717
274.46533
274.4735
274.48166
274.48982
274.49799
274.50614
274.51431
274.52246
274.53062
274.53878
274.54694
274.55509
274.56325
274.5714
274.57955
274.5877
274.59586
274.604
274.61216
274.6203
274.62845
274.63659
274.64475
274.65289
274.66104
274.66918
274.67732
274.68546
274.69361
274.70175
274.70989
274.71803
274.72617
274.73431
274.74244
274.75058
274.75872
274.76685
274.77499
274.78312
274.79125
274.79939
274.80752
274.81566
274.82378
274.83192
274.84004
274.84818
274.8563
274.86443
274.87256
274.88068
274.88881
274.89694
274.90506
274.91318
274.92131
274.92943
274.93755
274.94567
274.95379
274.96191
274.97003
274.97814
274.98626
274.99438
275.0025
275.0106
275.01872
275.02683
275.03495
275.04305
275.05117
275.05927
275.06739
275.07549
275.0836
275.0917
275.09981
275.10791
275.11601
275.12412
275.13221
275.14031
275.14841
275.15651
275.1646
275.1727
275.18079
275.18889
275.19698
275.20507
275.21316
275.22125
275.22934
275.23742
275.24551
275.25359
275.26167
275.26976
275.27784
275.28592
275.29399
275.30207
275.31015
275.31822
275.3263
275.33436
275.34244
275.3505
275.35857
275.36664
275.37471
275.38277
275.39083
275.39889
275.40695
275.41501
275.42307
275.43112
275.43918
275.44723
275.45528
275.46333
275.47138
275.47943
275.48747
275.49552
275.50356
275.5116
275.51964
275.52768
275.53572
275.54375
275.55179
275.55982
275.56785
275.57589
275.58391
275.59194
275.59996
275.60798
275.61601
275.62403
275.63205
275.64007
275.64808
275.6561
275.66411
275.67212
275.68014
275.68814
275.69615
275.70416
275.71216
275.72017
275.72817
275.73617
275.74417
275.75217
275.76017
275.76817
275.77616
275.78415
275.79214
275.80013
275.80813
275.81611
275.8241
275.83209
275.84007
275.84805
275.85604
275.86401
275.872
275.87997
275.88795
275.89593
275.9039
275.91188
275.91985
275.92782
275.9358
275.94376
275.95173
275.9597
275.96767
275.97564
275.9836
275.99156
275.99953
276.00749
276.01546
276.02342
276.03138
276.03934
276.0473
276.05526
276.06322
276.07117
276.07913
276.08709
276.09504
276.103
276.11095
276.1189
276.12686
276.13481
276.14276
276.15072
276.15866
276.16661
276.17457
276.18251
276.19046
276.19841
276.20635
276.21431
276.22225
276.2302
276.23814
276.24608
276.25403
276.26198
276.26991
276.27786
276.2858
276.29374
276.30169
276.30962
276.31757
276.32551
276.33344
276.34139
276.34932
276.35725
276.3652
276.37313
276.38106
276.389
276.39693
276.40487
276.4128
276.42073
276.42866
276.43659
276.44452
276.45245
276.46038
276.46831
276.47624
276.48416
276.49209
276.50001
276.50793
276.51586
276.52378
276.5317
276.53963
276.54755
276.55547
276.56338
276.5713
276.57921
276.58714
276.59504
276.60296
276.61088
276.61878
276.6267
276.6346
276.64252
276.65042
276.65834
276.66624
276.67414
276.68205
276.68995
276.69786
276.70575
276.71366
276.72155
276.72945
276.73735
276.74524
276.75315
276.76103
276.76893
276.77682
276.78471
276.7926
276.80049
276.80838
276.81626
276.82416
276.83203
276.83993
276.8478
276.85569
276.86356
276.87145
276.87932
276.8872
276.89507
276.90295
276.91082
276.91869
276.92656
276.93443
276.9423
276.95017
276.95803
276.9659
276.97376
276.98163
276.98948
276.99735
277.0052
277.01307
277.02092
277.02878
277.03663
277.04449
277.05234
277.06019
277.06805
277.07589
277.08374
277.09159
277.09943
277.10728
277.11511
277.12296
277.1308
277.13864
277.14648
277.15432
277.16215
277.16999
277.17782
277.18566
277.19349
277.20131
277.20915
277.21697
277.2248
277.23263
277.24045
277.24827
277.2561
277.26392
277.27174
277.27956
277.28737
277.29519
277.30301
277.31082
277.31863
277.32645
277.33426
277.34206
277.34988
277.35768
277.36549
277.37329
277.3811
277.3889
277.3967
277.4045
277.4123
277.4201
277.4279
277.43569
277.44349
277.45128
277.45907
277.46686
277.47465
277.48244
277.49023
277.49801
277.5058
277.51358
277.52136
277.52915
277.53693
277.5447
277.55248
277.56026
277.56803
277.57581
277.58358
277.59135
277.59912
277.60689
277.61466
277.62242
277.63019
277.63795
277.64571
277.65347
277.66123
277.66899
277.67675
277.6845
277.69225
277.70001
277.70776
277.71551
277.72325
277.731
277.73874
277.74649
277.75423
277.76197
277.76971
277.77744
277.78518
277.79291
277.80064
277.80837
277.8161
277.82383
277.83155
277.83928
277.847
277.85472
277.86244
277.87015
277.87786
277.88557
277.89328
277.901
277.90871
277.91644
277.92418
277.93191
277.93965
277.94738
277.95511
277.96284
277.97057
277.9783
277.98602
277.99375
278.00147
278.00919
278.01691
278.02462
278.03234
278.04005
278.04777
278.05548
278.06319
278.07089
278.0786
278.0863
278.09401
278.10171
278.10941
278.11711
278.12481
278.1325
278.1402
278.14789
278.15558
278.16328
278.17097
278.17865
278.18634
278.19403
278.20171
278.20939
278.21708
278.22476
278.23244
278.24012
278.24779
278.25547
278.26314
278.27082
278.27849
278.28616
278.29383
278.3015
278.30917
278.31684
278.3245
278.33217
278.33983
278.34749
278.35515
278.36281
278.37047
278.37813
278.38578
278.39344
278.40109
278.40875
278.4164
278.42405
278.4317
278.43935
278.44699
278.45464
278.46228
278.46993
278.47757
278.48521
278.49285
278.50049
278.50813
278.51576
278.5234
278.53103
278.53866
278.5463
278.55393
278.56156
278.56918
278.57681
278.58444
278.59206
278.59969
278.60731
278.61493
278.62255
278.63017
278.63778
278.6454
278.65302
278.66063
278.66824
278.67585
278.68346
278.69107
278.69868
278.70629
278.71389
278.7215
278.7291
278.7367
278.7443
278.7519
278.7595
278.7671
278.77469
278.78228
278.78988
278.79747
278.80506
278.81265
278.82024
278.82782
278.83541
278.84299
278.85058
278.85816
278.86574
278.87332
278.8809
278.88847
278.89605
278.90363
278.9112
278.91877
278.92634
278.93391
278.94148
278.94905
278.95661
278.96418
278.97174
278.9793
278.98686
278.99442
279.00198
279.00954
279.01709
279.02465
279.0322
279.03975
279.0473
279.05485
279.0624
279.06995
279.0775
279.08504
279.09259
279.10013
279.10767
279.11521
279.12275
279.13029
279.13783
279.14536
279.1529
279.16043
279.16796
279.17549
279.18302
279.19055
279.19808
279.20561
279.21313
279.22066
279.22818
279.2357
279.24323
279.25075
279.25827
279.26578
279.2733
279.28082
279.28833
279.29585
279.30336
279.31087
279.31839
279.3259
279.33341
279.34091
279.34842
279.35593
279.36343
279.37094
279.37844
279.38594
279.39345
279.40095
279.40845
279.41595
279.42344
279.43094
279.43844
279.44593
279.45343
279.46092
279.46841
279.47591
279.4834
279.49089
279.49838
279.50586
279.51335
279.52084
279.52833
279.53581
279.5433
279.55078
279.55826
279.56574
279.57322
279.5807
279.58818
279.59566
279.60314
279.61061
279.61809
279.62557
279.63304
279.64051
279.64799
279.65546
279.66293
279.6704
279.67787
279.68533
279.6928
279.70027
279.70774
279.7152
279.72267
279.73013
279.7376
279.74506
279.75252
279.75998
279.76744
279.7749
279.78236
279.78982
279.79727
279.80473
279.81218
279.81963
279.82708
279.83453
279.84199
279.84944
279.85689
279.86434
279.87179
279.87924
279.88668
279.89413
279.90158
279.90902
279.91647
279.92391
279.93135
279.93879
279.94623
279.95367
279.96111
279.96855
279.97599
279.98342
279.99086
279.99829
280.00572
280.01316
280.02059
280.02802
280.03546
280.04289
280.05032
280.05775
280.06517
280.0726
280.08002
280.08745
280.09488
280.1023
280.10973
280.11715
280.12457
280.132
280.13942
280.14683
280.15425
280.16167
280.16908
280.1765
280.18391
280.19133
280.19874
280.20616
280.21357
280.22099
280.2284
280.23581
280.24322
280.25063
280.25804
280.26545
280.27285
280.28026
280.28766
280.29507
280.30247
280.30988
280.31728
280.32468
280.33209
280.33949
280.34689
280.35429
280.36168
280.36908
280.37648
280.38387
280.39127
280.39866
280.40605
280.41345
280.42084
280.42823
280.43563
280.44302
280.45041
280.4578
280.46518
280.47257
280.47996
280.48734
280.49473
280.50211
280.5095
280.51688
280.52426
280.53165
280.53903
280.54641
280.55378
280.56116
280.56854
280.57592
280.58329
280.59067
280.59805
280.60542
280.6128
280.62017
280.62754
280.63491
280.64228
280.64965
280.65702
280.66439
280.67176
280.67913
280.68649
280.69386
280.70123
280.70859
280.71595
280.72332
280.73068
280.73804
280.7454
280.75276
280.76012
280.76748
280.77484
280.78219
280.78955
280.7969
280.80426
280.81161
280.81897
280.82632
280.83367
280.84102
280.84837
280.85572
280.86307
280.87042
280.87776
280.88511
280.89246
280.8998
280.90714
280.91449
280.92183
280.92917
280.93651
280.94385
280.95119
280.95853
280.96586
280.9732
280.98054
280.98787
280.99521
281.00254
281.00987
281.01721
281.02454
281.03187
281.0392
281.04653
281.05385
281.06118
281.06851
281.07583
281.08315
281.09048
281.0978
281.10512
281.11244
281.11976
281.12708
281.1344
281.14172
281.14903
281.15635
281.16366
281.17098
281.17829
281.1856
281.19291
281.20022
281.20753
281.21484
281.22215
281.22945
281.23676
281.24406
281.25137
281.25867
281.26597
281.27327
281.28057
281.28787
281.29517
281.30247
281.30977
281.31706
281.32436
281.33165
281.33895
281.34624
281.35353
281.36082
281.36811
281.37539
281.38268
281.38996
281.39725
281.40453
281.41182
281.4191
281.42638
281.43366
281.44094
281.44822
281.4555
281.46277
281.47005
281.47732
281.4846
281.49187
281.49914
281.50641
281.51368
281.52095
281.52822
281.53548
281.54275
281.55001
281.55727
281.56454
281.5718
281.57906
281.58632
281.59358
281.60084
281.60809
281.61535
281.62261
281.62986
281.63711
281.64436
281.65161
281.65886
281.66611
281.67336
281.6806
281.68785
281.69509
281.70234
281.70958
281.71682
281.72406
281.7313
281.73854
281.74578
281.75301
281.76025
281.76748
281.77471
281.78195
281.78918
281.79641
281.80364
281.81086
281.81809
281.82532
281.83254
281.83976
281.84699
281.85421
281.86143
281.86865
281.87587
281.88309
281.89031
281.89752
281.90474
281.91195
281.91917
281.92638
281.93359
281.9408
281.94801
281.95521
281.96242
281.96962
281.97683
281.98403
281.99124
281.99844
282.00564
282.01284
282.02004
282.02724
282.03443
282.04163
282.04882
282.05601
282.06321
282.0704
282.07759
282.08478
282.09196
282.09915
282.10634
282.11352
282.12071
282.12789
282.13507
282.14225
282.14943
282.15661
282.16379
282.17097
282.17814
282.18532
282.19249
282.19967
282.20684
282.21401
282.22118
282.22835
282.23552
282.24268
282.24985
282.25701
282.26418
282.27134
282.2785
282.28567
282.29283
282.29999
282.30714
282.3143
282.32146
282.32861
282.33576
282.34292
282.35007
282.35722
282.36437
282.37152
282.37867
282.38581
282.39296
282.4001
282.40724
282.41439
282.42153
282.42867
282.43581
282.44295
282.45008
282.45722
282.46436
282.47149
282.47863
282.48576
282.49289
282.50002
282.50715
282.51428
282.52141
282.52854
282.53566
282.54278
282.54991
282.55703
282.56415
282.57127
282.57839
282.58551
282.59263
282.59974
282.60686
282.61397
282.62109
282.6282
282.63531
282.64242
282.64953
282.65664
282.66375
282.67086
282.67796
282.68507
282.69217
282.69928
282.70638
282.71348
282.72058
282.72767
282.73477
282.74187
282.74896
282.75606
282.76315
282.77024
282.77733
282.78442
282.79152
282.79861
282.8057
282.81278
282.81987
282.82695
282.83404
282.84112
282.8482
282.85528
282.86236
282.86944
282.87652
282.8836
282.89067
282.89774
282.90482
282.91189
282.91896
282.92603
282.9331
282.94017
282.94724
282.95431
282.96137
282.96844
282.9755
282.98257
282.98963
282.99669
283.00375
283.01081
283.01787
283.02493
283.03198
283.03904
283.04609
283.05315
283.0602
283.06725
283.0743
283.08135
283.0884
283.09544
283.10249
283.10953
283.11658
283.12362
283.13066
283.1377
283.14475
283.15179
283.15882
283.16586
283.1729
283.17994
283.18697
283.194
283.20104
283.20807
283.2151
283.22213
283.22916
283.23619
283.24321
283.25024
283.25726
283.26429
283.27131
283.27833
283.28535
283.29237
283.29939
283.30641
283.31343
283.32044
283.32746
283.33447
283.34148
283.34849
283.35551
283.36252
283.36953
283.37653
283.38354
283.39055
283.39755
283.40455
283.41156
283.41856
283.42556
283.43256
283.43956
283.44656
283.45356
283.46056
283.46755
283.47455
283.48154
283.48854
283.49553
283.50252
283.50951
283.5165
283.52348
283.53047
283.53745
283.54443
283.55141
283.5584
283.56538
283.57236
283.57934
283.58632
283.5933
283.60028
283.60725
283.61423
283.62121
283.62818
283.63515
283.64212
283.64909
283.65606
283.66303
283.66999
283.67695
283.68392
283.69088
283.69784
283.7048
283.71176
283.71872
283.72568
283.73264
283.73959
283.74655
283.75351
283.76046
283.76741
283.77436
283.78131
283.78826
283.79521
283.80215
283.8091
283.81604
283.82298
283.82992
283.83686
283.8438
283.85074
283.85767
283.86461
283.87154
283.87848
283.88541
283.89234
283.89927
283.9062
283.91313
283.92005
283.92698
283.9339
283.94082
283.94774
283.95466
283.96158
283.96849
283.97541
283.98232
283.98923
283.99614
284.00305
284.00996
284.01686
284.02376
284.03067
284.03757
284.04446
284.05136
284.05825
284.06515
284.07204
284.07893
284.08581
284.0927
284.09958
284.10646
284.11334
284.12022
284.12709
284.13396
284.14083
284.1477
284.15457
284.16143
284.16829
284.17515
284.182
284.18885
284.1957
284.20255
284.20939
284.21624
284.22308
284.22991
284.23675
284.24358
284.25041
284.25723
284.26405
284.27087
284.27768
284.28449
284.29129
284.29809
284.30489
284.31168
284.31847
284.32525
284.33203
284.33881
284.34558
284.35235
284.35911
284.36587
284.37262
284.37937
284.38611
284.39284
284.39958
284.4063
284.41302
284.41974
284.42645
284.43315
284.43985
284.44654
284.45322
284.4599
284.46657
284.47323
284.47988
284.48653
284.49317
284.49981
284.50643
284.51305
284.51966
284.52626
284.53285
284.53944
284.54601
284.55258
284.55913
284.56568
284.57222
284.57874
284.58526
284.59177
284.59827
284.60475
284.61123
284.61769
284.62414
284.63058
284.63701
284.64343
284.64983
284.65623
284.6626
284.66897
284.67533
284.68167
284.68799
284.6943
284.7006
284.70689
284.71315
284.71941
284.72565
284.73187
284.73808
284.74427
284.75044
284.7566
284.76274
284.76886
284.77497
284.78106
284.78713
284.79318
284.79921
284.80523
284.81123
284.8172
284.82316
284.8291
284.83502
284.84091
284.84679
284.85264
284.85847
284.86428
284.87007
284.87584
284.88158
284.8873
284.893
284.89867
284.90432
284.90994
284.91554
284.92112
284.92667
284.9322
284.9377
284.94318
284.94863
284.95405
284.95944
284.96481
284.97015
284.97546
284.98074
284.986
284.99122
284.99642
285.00159
285.00673
285.01184
285.01692
285.02197
285.02699
285.03198
285.03694
285.04187
285.04677
285.05164
285.05647
285.06127
285.06605
285.07078
285.07549
285.08016
285.0848
285.08941
285.09398
285.09852
285.10303
285.1075
285.11193
285.11633
285.1207
285.12503
285.12932
285.13358
285.1378
285.14199
285.14614
285.15026
285.15434
285.15839
285.1624
285.16637
285.17031
285.17421
285.17807
285.1819
285.18569
285.18944
285.19316
285.19684
285.20049
285.20409
285.20767
285.2112
285.2147
285.21816
285.22158
285.22497
285.22831
285.23162
285.23489
285.23813
285.24132
285.24449
285.24761
285.2507
285.25375
285.25676
285.25974
285.26268
285.26558
285.26845
285.27128
285.27407
285.27683
285.27955
285.28224
285.28489
285.2875
285.29008
285.29262
285.29513
285.2976
285.30004
285.30244
285.30481
285.30714
285.30944
285.31171
285.31394
285.31614
285.3183
285.32043
285.32253
285.32459
285.32662
285.32862
285.33058
285.33252
285.33442
285.33628
285.33812
285.33993
285.3417
285.34344
285.34515
285.34683
285.34848
285.3501
285.3517
285.35326
285.3548
285.3563
285.35778
285.35923
285.36065
285.36204
285.36341
285.36474
285.36605
285.36733
285.36858
285.36981
285.37101
285.37219
285.37334
285.37447
285.37557
285.37664
285.37769
285.37872
285.37972
285.3807
285.38165
285.38258
285.38348
285.38437
285.38523
285.38606
285.38688
285.38767
285.38843
285.38918
285.3899
285.3906
285.39128
285.39194
285.39257
285.39318
285.39377
285.39434
285.39489
285.39542
285.39593
285.39642
285.39689
285.39734
285.39777
285.39819
285.39858
285.39895
285.3993
285.39963
285.39994
285.40023
285.4005
285.40075
285.40098
285.40118
285.40137
285.40153
285.40167
285.4018
285.4019
285.40198
285.40205
285.40209
285.40211
285.4021
285.40207
285.40202
285.40194
285.40184
285.40171
285.40155
285.40136
285.40115
285.40091
285.40063
285.40033
285.4
285.39964
285.39924
285.39881
285.39834
285.39784
285.39731
285.39675
285.39616
285.39555
285.3949
285.3942
285.39347
285.3927
285.39191
285.39109
285.39025
285.38938
285.3885
285.38759
285.38666
285.3857
285.38472
285.3837
285.38267
285.38165
285.38066
285.37968
285.37871
285.37774
285.37674
285.37572
285.37467
285.37359
285.37249
285.37137
285.37022
285.36905
285.36785
285.36662
285.36536
285.36404
285.36268
285.36127
285.35981
285.35829
285.35671
285.35508
285.35338
285.35163
285.3498
285.34792
285.34597
285.34395
285.3419
285.33978
285.33762
285.33542
285.33318
285.33101
285.32925
285.32834
285.32846
285.3308
285.34146
285.3769
285.48252
285.78593
286.57606
287.66911
288.85151
290.09048
291.34672
292.58164
293.76112
294.85787
295.85254
296.73373
297.49735
298.14539
298.68453
299.12462
299.47734
299.75505
299.96989
300.13325
300.25527
300.34463
300.40886
300.454
300.48443
300.50431
300.51713
300.524
300.52589
300.52579
300.52499
300.52284
300.51929
300.51508
300.51037
300.50538
300.50028
300.49517
300.49008
300.48504
300.48004
300.47506
300.47009
300.46513
300.46017
300.45519
300.4502
300.4452
300.44018
300.43513
300.43006
300.42497
300.41984
300.41469
300.4095
300.40427
300.39899
300.39367
300.38829
300.38286
300.37737
300.37182
300.3662
300.36053
300.3548
300.34902
300.34318
300.3373
300.33138
300.32543
300.31944
300.31343
300.30739
300.30134
300.29526
300.28917
300.28307
300.27695
300.27082
300.26468
300.25853
300.25236
300.24619
300.24
300.2338
300.22758
300.22136
300.21511
300.20885
300.20258
300.19628
300.18997
300.18363
300.17728
300.1709
300.16451
300.15809
300.15166
300.1452
300.13873
300.13223
300.12572
300.11919
300.11263
300.10606
300.09947
300.09286
300.08624
300.07959
300.07292
300.06624
300.05954
300.05282
300.04608
300.03932
300.03255
300.02576
300.01896
300.01214
300.0053
299.99845
299.99158
299.9847
299.97781
299.9709
299.96398
299.95704
299.9501
299.94313
299.93616
299.92917
299.92217
299.91516
299.90813
299.9011
299.89405
299.88698
299.87991
299.87283
299.86573
299.85863
299.85151
299.84439
299.83725
299.83011
299.82296
299.8158
299.80863
299.80145
299.79427
299.78707
299.77987
299.77266
299.76544
299.75822
299.75098
299.74374
299.7365
299.72924
299.72198
299.71472
299.70745
299.70017
299.69288
299.68559
299.67829
299.67099
299.66368
299.65637
299.64905
299.64173
299.6344
299.62707
299.61973
299.61239
299.60505
299.5977
299.59034
299.58298
299.57562
299.56826
299.56089
299.55351
299.54614
299.53876
299.53138
299.52399
299.5166
299.50921
299.50181
299.49441
299.487
299.4796
299.47219
299.46478
299.45737
299.44995
299.44253
299.43511
299.42769
299.42026
299.41284
299.40541
299.39797
299.39054
299.3831
299.37567
299.36823
299.36079
299.35334
299.3459
299.33845
299.331
299.32355
299.3161
299.30864
299.30118
299.29373
299.28627
299.2788
299.27134
299.26387
299.25641
299.24894
299.24147
299.234
299.22653
299.21905
299.21158
299.2041
299.19662
299.18915
299.18167
299.17419
299.1667
299.15922
299.15174
299.14425
299.13677
299.12928
299.12179
299.1143
299.1068
299.09931
299.09181
299.08432
299.07682
299.06932
299.06182
299.05432
299.04682
299.03932
299.03182
299.02431
299.01681
299.0093
299.00179
298.99428
298.98677
298.97926
298.97175
298.96423
298.95672
298.9492
298.94169
298.93417
298.92665
298.91913
298.91161
298.90409
298.89657
298.88905
298.88152
298.87399
298.86647
298.85894
298.85141
298.84388
298.83635
298.82881
298.82128
298.81375
298.80621
298.79868
298.79114
298.78361
298.77607
298.76853
298.76099
298.75344
298.7459
298.73835
298.73081
298.72326
298.71571
298.70816
298.70061
298.69306
298.68551
298.67796
298.6704
298.66285
298.6553
298.64774
298.64018
298.63262
298.62506
298.6175
298.60994
298.60238
298.59481
298.58725
298.57968
298.57212
298.56455
298.55698
298.54941
298.54184
298.53426