/*--------------------------------*- C++ -*----------------------------------*\
| =========                 |                                                 |
| \\      /  F ield         | OpenFOAM: The Open Source CFD Toolbox           |
|  \\    /   O peration     | Version:  4.x                                   |
|   \\  /    A nd           | Web:      www.OpenFOAM.org                      |
|    \\/     M anipulation  |                                                 |
\*---------------------------------------------------------------------------*/
FoamFile
{
    version     2.0;
    format      ascii;
    class       volScalarField;
    location    "0.26";
    object      T;
}
// * * * * * * * * * * * * * * * * * * * * * * * * * * * * * * * * * * * * * //

dimensions      [0 0 0 1 0 0 0];

internalField   nonuniform List<scalar> 
6394
(
300.0000057
300.0000002
299.9999994
299.9999988
299.999998
299.9999962
299.9999946
299.9999959
300.000007
300.0000012
300.0000011
300.0000003
299.9999977
299.9999947
299.9999958
299.9999968
300.0000044
300.0000005
300.0000003
299.9999991
299.9999968
299.999994
299.9999958
299.9999965
300.0000022
300.0000004
299.9999998
299.9999989
299.9999965
299.999996
299.9999957
299.999996
300.0000038
300.0000004
300
299.9999988
299.9999965
299.9999961
299.9999957
299.9999957
300.0000087
300.0000007
300.0000005
299.999999
299.999998
299.9999963
299.9999956
299.9999954
300.0000319
300.0000186
300.0000219
300.0000201
300.000012
300.0000007
299.9999896
299.999981
300.0000379
300.0000251
300.0000286
300.0000259
300.0000144
299.9999978
299.9999778
299.9999693
300.000032
300.0000237
300.000026
300.000023
300.0000114
299.9999918
299.9999691
299.9999617
300.0000266
300.0000237
300.0000232
300.0000184
300.0000037
299.9999774
299.9999638
299.999958
300.0000238
300.0000216
300.0000196
300.0000113
299.999993
299.9999718
299.999958
299.9999528
300.0000207
300.0000155
300.0000137
300.0000024
299.9999832
299.999963
299.9999497
299.9999447
300.0001187
300.0001119
300.0001318
300.0001263
300.000091
300.0000402
299.9999962
299.9999696
300.0001568
300.0001551
300.0001843
300.0001785
300.000123
300.0000412
299.9999732
299.9999235
300.0001461
300.0001504
300.0001734
300.0001648
300.0001069
300.0000174
299.9999339
299.9998931
300.0001219
300.0001365
300.0001511
300.0001323
300.0000646
299.9999706
299.9998863
299.9998623
300.0000837
300.0001046
300.0001167
300.0000839
300.0000034
299.9998975
299.9998301
299.9998153
300.0000505
300.0000644
300.0000715
300.000028
299.9999326
299.9998324
299.9997719
299.9997618
300.0003102
300.0002845
300.0003065
300.0003228
300.0002903
300.0002063
300.0001036
300.0000189
299.9999772
300.0005392
300.0004855
300.0005376
300.0005832
300.0005253
300.000357
300.0001499
299.9999915
299.999921
300.0005558
300.0004683
300.0005327
300.0005831
300.0005186
300.0003321
300.0001
299.9999383
299.999881
300.0004857
300.0003714
300.0004536
300.0005042
300.000425
300.0002202
299.9999934
299.9998612
299.9998331
300.0003491
300.0002286
300.0003243
300.0003746
300.000273
300.0000563
299.9998536
299.9997402
299.9997428
300.0002107
300.0001291
300.0002019
300.0002342
300.0001152
299.9999141
299.9997082
299.9996124
299.999637
300.0004014
300.0004157
300.0004429
300.0004415
300.000386
300.0002772
300.0001551
300.0000609
300.0000162
300.0008108
300.000836
300.0009118
300.0009174
300.0007845
300.000531
300.0002554
300.0000492
299.9999678
300.0008681
300.0008437
300.0009485
300.0009655
300.0008064
300.0005097
300.0001955
299.9999849
299.9999263
300.0007654
300.0006878
300.0008124
300.0008435
300.0006718
300.0003583
300.0000537
299.9998913
299.9998747
300.000578
300.0004922
300.0006179
300.0006421
300.0004506
300.0001356
299.9998687
299.9997446
299.9997692
300.0003687
300.0003217
300.0004363
300.000439
300.0002366
299.9999373
299.9996911
299.9995899
299.9996447
300.0004083
300.0004402
300.0004782
300.0004816
300.0004306
300.0003267
300.0002107
300.0001257
300.0000919
300.0009111
300.0009856
300.0010832
300.0010815
300.0009275
300.0006573
300.0003781
300.0001824
300.0001168
300.0010176
300.0010641
300.0011862
300.0011816
300.0009829
300.0006575
300.0003373
300.0001328
300.0000994
300.0009434
300.0009448
300.0010672
300.0010602
300.0008454
300.0005115
300.0001976
300.0000323
300.0000539
300.000785
300.0007719
300.0008712
300.000841
300.000609
300.0002719
299.9999673
299.9998455
299.9999272
300.000549
300.0005619
300.0006506
300.0006068
300.0003717
300.0000318
299.99975
299.9996549
299.9997686
300.0003353
300.0003416
300.0003932
300.0004531
300.0004771
300.0004486
300.0003707
300.0002753
300.000205
300.0001786
300.0008042
300.0008638
300.0009688
300.0010926
300.0011188
300.0010082
300.0007831
300.0005399
300.0003729
300.0003244
300.0009159
300.0010079
300.0011006
300.0012462
300.0012648
300.0011027
300.0008186
300.0005304
300.0003542
300.0003352
300.0008954
300.0009878
300.0010593
300.0011795
300.0011687
300.0009781
300.0006829
300.0003939
300.0002393
300.0002688
300.0008597
300.0009103
300.0009433
300.0010102
300.0009565
300.0007418
300.0004292
300.0001345
300.0000114
300.0001044
300.0006789
300.0006828
300.0007138
300.0007647
300.0007
300.0004773
300.0001539
299.9998716
299.999777
299.9999092
300.0002547
300.000238
300.000244
300.0002477
300.0003079
300.0003909
300.0004458
300.0004429
300.0003896
300.000317
300.0002612
300.0002364
300.0006596
300.0006249
300.0006317
300.0006657
300.0008265
300.0010165
300.0010963
300.0010351
300.0008771
300.0006847
300.0005459
300.0004988
300.000866
300.0008156
300.0007849
300.0008638
300.0010337
300.0012195
300.0012722
300.0011735
300.0009583
300.0007142
300.0005581
300.0005341
300.0009901
300.0009505
300.000875
300.0009505
300.0010595
300.0011902
300.0012001
300.0010643
300.0008192
300.0005542
300.000407
300.0004266
300.0010376
300.0010333
300.0009467
300.0009411
300.0009838
300.0010428
300.0009969
300.00082
300.000538
300.0002546
300.0001304
300.0002089
300.0007835
300.0007401
300.0007522
300.0007831
300.0007197
300.0005236
300.0002278
299.9999621
299.9998711
299.9999885
300.0002304
300.0002029
300.0001981
300.0001914
300.0002347
300.00031
300.0003784
300.000402
300.0003686
300.0003099
300.0002638
300.0002414
300.0006005
300.0005267
300.0004836
300.0004989
300.0006523
300.0008636
300.0010115
300.0010086
300.0008879
300.0007352
300.0006213
300.0005711
300.0008354
300.0007438
300.0006557
300.0007
300.0008837
300.0011135
300.0012297
300.0011774
300.0010254
300.0008393
300.0007051
300.0006609
300.0010353
300.0009732
300.0008426
300.000866
300.0010028
300.0011479
300.001185
300.0011013
300.0009305
300.0007153
300.0005838
300.0005667
300.0011514
300.0011453
300.000983
300.0009202
300.0009598
300.0010197
300.0009963
300.0008763
300.0006608
300.0004295
300.0003229
300.0003461
300.0008506
300.0007376
300.0007285
300.0007479
300.0007065
300.0005611
300.0003258
300.0001176
300.0000541
300.0001216
300.000198
300.0001827
300.0001785
300.0001609
300.0001685
300.0002102
300.0002646
300.0002942
300.0002792
300.0002415
300.0002133
300.0002009
300.0005181
300.0004687
300.000434
300.0004218
300.0005028
300.0006588
300.0008118
300.0008758
300.0008097
300.0006927
300.0006006
300.0005534
300.0007828
300.0007088
300.0006251
300.0006279
300.0007411
300.000928
300.0010847
300.0011095
300.0010082
300.0008651
300.0007517
300.0006884
300.0010524
300.0009873
300.000843
300.0008245
300.0009036
300.0010267
300.0011083
300.0010916
300.0009983
300.0008571
300.000728
300.0006539
300.001252
300.0012083
300.0009901
300.000881
300.0008881
300.0009421
300.0009732
300.0009425
300.0008378
300.0006878
300.0005657
300.0005019
300.000897
300.0007166
300.0006743
300.0006946
300.0007069
300.0006497
300.0005488
300.0004385
300.0003567
300.0003284
300.0001873
300.0001814
300.0001748
300.000146
300.0001238
300.0001311
300.0001554
300.0001639
300.0001476
300.0001319
300.000136
300.0001504
300.0004639
300.0004477
300.0004319
300.0003916
300.0003883
300.000458
300.00055
300.0005878
300.0005605
300.0005118
300.0004799
300.0004618
300.0007257
300.0006937
300.0006438
300.0006095
300.0006308
300.0007331
300.0008413
300.0008914
300.0008707
300.0008014
300.0007177
300.0006499
300.0010357
300.0009838
300.0008768
300.0008205
300.0008265
300.0008956
300.0009686
300.0010158
300.000991
300.0009027
300.000776
300.0006687
300.0012623
300.0012057
300.0009936
300.0008707
300.0008401
300.0008745
300.000929
300.0009688
300.0009615
300.0008651
300.0007119
300.0005938
300.0009437
300.0007244
300.000666
300.0006892
300.0007367
300.0007891
300.0007992
300.0007251
300.0005798
300.000485
300.0001975
300.0001898
300.0001774
300.0001447
300.0001099
300.0000947
300.000095
300.00009
300.0000804
300.0000899
300.0001224
300.0001534
300.0004547
300.0004509
300.0004434
300.0003865
300.0003296
300.000328
300.0003539
300.0003568
300.0003437
300.0003587
300.0004001
300.0004239
300.0006726
300.0006786
300.0006699
300.000611
300.0005661
300.0005841
300.0006253
300.0006492
300.0006633
300.0006683
300.0006468
300.0006087
300.0009485
300.0009366
300.0008917
300.0008251
300.0007762
300.0007832
300.0008241
300.0008792
300.000921
300.000882
300.0007655
300.0006602
300.0011755
300.0011214
300.0009789
300.0008753
300.0008242
300.0008289
300.0008862
300.0009571
300.0009843
300.0009091
300.0007408
300.0006248
300.000973
300.0007652
300.0006932
300.0007133
300.0007892
300.0008743
300.0009142
300.0008341
300.0006494
300.000548
300.0002137
300.0002021
300.0001883
300.0001591
300.0001226
300.0000988
300.0000912
300.0000864
300.0000884
300.0001171
300.0001692
300.0002111
300.0004769
300.000475
300.0004681
300.0004043
300.0003308
300.0002966
300.0002872
300.000279
300.0002877
300.0003469
300.0004263
300.0004724
300.00065
300.0006758
300.000691
300.0006311
300.0005584
300.0005266
300.0005187
300.0005248
300.000562
300.0006209
300.0006434
300.0006287
300.0008061
300.000854
300.0008932
300.0008419
300.0007667
300.0007245
300.0007243
300.0007647
300.0008159
300.000815
300.0007307
300.0006639
300.00093
300.0009553
300.0009597
300.000898
300.0008292
300.0007989
300.0008376
300.0009092
300.0009419
300.0008702
300.0007118
300.000625
300.0009868
300.0008309
300.000751
300.0007466
300.0007984
300.0008731
300.0009038
300.000811
300.0006267
300.0005475
300.0002476
300.0002315
300.000224
300.000211
300.0001794
300.0001481
300.0001375
300.0001408
300.0001626
300.0002092
300.0002652
300.0002948
300.0005485
300.0005376
300.0005335
300.0004867
300.000403
300.0003414
300.0003182
300.0003147
300.000349
300.0004495
300.0005716
300.0006278
300.000681
300.0007111
300.00075
300.0007078
300.0006131
300.0005474
300.0005179
300.0005174
300.0005664
300.0006523
300.0007123
300.0007291
300.0007772
300.0008516
300.0009294
300.0008999
300.0008021
300.0007261
300.0006906
300.0006953
300.000732
300.0007543
300.0007311
300.0007034
300.0008127
300.0009104
300.0009928
300.0009669
300.0008685
300.0007944
300.0007681
300.0007839
300.0007871
300.0007332
300.0006486
300.0006273
300.0008957
300.0010365
300.0010427
300.0009629
300.0008338
300.0007662
300.000765
300.0007826
300.0007591
300.0006551
300.0005418
300.0005351
300.0000098
300.0000021
300.0000009
299.9999996
299.9999981
299.9999964
299.9999955
299.9999955
300.0000073
300.000002
300.0000006
299.9999989
299.9999981
299.9999965
299.9999957
299.9999959
300.0000049
300.0000017
300.000001
299.999999
299.9999967
299.999996
299.9999957
299.9999956
300.0000026
300.0000019
300.0000017
300.0000002
299.9999976
299.9999953
299.9999945
299.9999936
300.0000034
300.0000021
300.0000021
300.0000004
299.9999978
299.9999957
299.9999944
299.9999927
300.0000039
300.0000017
300.0000014
299.9999992
299.9999968
299.9999949
299.9999928
299.9999916
300.0000053
300.0000017
300.0000003
299.9999976
299.9999951
299.999994
299.9999943
299.9999947
300.0000084
300.0000059
300.0000057
300.0000012
299.9999971
299.999994
299.9999914
299.9999945
299.9999892
300.0000206
300.0000127
300.0000087
299.9999946
299.9999765
299.9999568
299.9999447
299.9999411
300.0000213
300.0000133
300.0000077
299.9999957
299.9999768
299.9999608
299.9999518
299.9999492
300.000018
300.0000157
300.0000135
300.0000073
299.9999953
299.9999778
299.999971
299.9999676
300.000019
300.0000223
300.0000246
300.0000224
300.0000151
300.0000048
299.9999977
299.9999912
300.0000304
300.0000319
300.0000343
300.0000325
300.0000252
300.0000141
300.0000045
299.9999958
300.0000445
300.0000357
300.0000319
300.0000272
300.0000189
300.0000072
299.9999952
299.9999833
300.0000532
300.0000338
300.000017
300.0000025
299.9999948
299.9999845
299.9999688
299.9999579
300.0000552
300.0000393
300.0000079
299.9999689
299.9999585
299.9999499
299.9999438
299.999947
299.9999245
300.000036
300.0000396
300.0000386
299.9999953
299.9998984
299.9998035
299.9997518
299.9997462
300.0000297
300.0000379
300.0000369
300.0000066
299.9999303
299.9998493
299.9998087
299.999802
300.0000321
300.0000585
300.0000749
300.0000675
300.000026
299.9999765
299.9999389
299.9999214
300.0000665
300.0001088
300.0001461
300.0001569
300.0001296
300.000083
300.000043
300.0000118
300.0001393
300.0001769
300.0002103
300.0002201
300.0001903
300.0001344
300.0000826
300.000039
300.0002131
300.0002104
300.0002047
300.0001921
300.0001572
300.0001006
300.0000462
300.0000046
300.0002596
300.0002051
300.0001261
300.0000644
300.0000334
300.000002
299.9999633
299.9999348
300.0002547
300.0001992
300.0000628
299.9999453
299.9998895
299.9998658
299.9998449
299.99987
299.9998145
300.0000691
300.0000713
300.0001172
300.0001329
300.000028
299.9998483
299.9996621
299.9995804
299.999607
299.999919
300.0000366
300.0001019
300.0001349
300.0000705
299.999931
299.9997752
299.9997012
299.9997122
300.0000643
300.0001765
300.0002576
300.0002489
300.0001414
300.0000151
299.999942
299.9999209
300.0001863
300.0003364
300.0004522
300.0004694
300.000379
300.00025
300.0001518
300.00009
300.0003926
300.0005221
300.0006064
300.0006
300.0004949
300.0003517
300.0002403
300.0001624
300.0006002
300.0006366
300.0006103
300.0005288
300.0003996
300.0002627
300.0001614
300.0000904
300.0007654
300.0006722
300.0004566
300.0002518
300.0001164
300.0000292
299.9999734
299.9999459
300.0007797
300.0006503
300.0002927
299.9999873
299.9998362
299.9997881
299.9997819
299.9998467
299.9997931
300.0001196
300.0001677
300.0002779
300.0002899
300.0001225
299.9998619
299.9996378
299.9995484
299.9996054
299.9998777
300.0000672
300.0002209
300.0002845
300.000191
299.9999737
299.9997751
299.999688
299.9997223
300.0000946
300.0003094
300.0004346
300.0004118
300.0002509
300.0000659
299.9999667
299.9999651
300.0002792
300.0005178
300.0006656
300.0006613
300.0005122
300.0003227
300.0002077
300.0001855
300.0005679
300.0007476
300.0008405
300.0007971
300.0006267
300.0004274
300.0003023
300.000264
300.0008413
300.0008958
300.0008431
300.0006941
300.0004887
300.0003066
300.0002061
300.0001815
300.0010588
300.0009556
300.0006743
300.0003571
300.0001277
300.0000164
299.9999755
299.9999938
300.0010774
300.0009119
300.0004692
300.0000353
299.9997984
299.9997288
299.9997575
299.9998625
299.9998272
300.0002003
300.0003026
300.0004206
300.0004153
300.0002324
299.9999358
299.9996801
299.9995913
299.9997013
299.9998663
300.0001126
300.0003052
300.0003704
300.0002685
300.0000365
299.9998088
299.9997182
299.9998148
300.0000909
300.0003573
300.0004924
300.0004557
300.0002741
300.0000722
299.9999829
300.000061
300.0002807
300.0005519
300.0007024
300.0006804
300.0005084
300.0003039
300.000199
300.0002445
300.0005822
300.000775
300.0008605
300.0007967
300.0006014
300.0003885
300.0002789
300.000297
300.0008519
300.0009103
300.0008496
300.0006801
300.0004485
300.0002605
300.0001868
300.0002275
300.0010526
300.0009478
300.0006686
300.000335
300.000074
299.9999536
299.9999689
300.0000649
300.0010549
300.0008777
300.0004464
300.000007
299.9997379
299.9996845
299.9997669
299.9999202
299.999913
300.0002885
300.0002567
300.0003752
300.0004792
300.0004614
300.0002845
300.0000022
299.9997528
299.9996721
299.999816
299.9998811
299.9998166
300.0001117
300.0003143
300.000374
300.0002688
300.000042
299.999831
299.9997633
299.9999131
299.9997415
299.9995875
300.0000139
300.0003289
300.0004609
300.0004095
300.0002215
300.0000311
299.9999811
300.0001236
299.9999054
299.9998082
300.0001779
300.0004804
300.0006179
300.0005675
300.0003709
300.0001817
300.0001387
300.000261
300.0001747
300.0001914
300.0004562
300.0006528
300.0007163
300.0006161
300.000396
300.0002197
300.0001922
300.0002952
300.0004461
300.0005072
300.0006614
300.0007178
300.0006555
300.0004729
300.0002388
300.000116
300.0001413
300.0002549
300.000656
300.0007238
300.0007584
300.0006505
300.000433
300.0001401
299.9999022
299.9998796
299.9999801
300.0001465
300.0006992
300.000739
300.0007001
300.0004987
300.0001774
299.9998325
299.9996232
299.9996725
299.9998124
300.0000357
300.0000519
300.0002967
300.0002766
300.0003768
300.0004679
300.0004455
300.0002787
300.0000291
299.9998118
299.9997493
299.9998917
299.9997553
299.9997592
300.0000657
300.0002618
300.0003002
300.0001908
300.000007
299.9998505
299.9998177
299.9999824
299.9995411
299.9994302
299.9998548
300.0001916
300.0002948
300.0002248
300.0000814
299.9999843
299.9999913
300.0001583
299.9997326
299.9996187
299.9999517
300.0002466
300.0003423
300.0002784
300.0001517
300.0000813
300.0001176
300.0002637
300.0000439
299.9999838
300.0001564
300.0003256
300.0003628
300.0002833
300.0001611
300.0001154
300.0001709
300.0002973
300.0003444
300.0002806
300.0002926
300.0003179
300.0002677
300.0001533
300.0000485
300.0000593
300.0001559
300.0003057
300.0006156
300.0005071
300.0003153
300.0001643
300.0000076
299.9998509
299.999785
299.9998859
300.0000625
300.0002924
300.0006959
300.0005558
300.0002276
299.9999498
299.9997214
299.9995689
299.9995674
299.9997246
299.9999596
300.0002542
300.000307
300.0003297
300.0002756
300.000331
300.0003959
300.0003872
300.0002777
300.0000856
299.9999344
299.9999159
300.0000338
299.9997322
299.9997423
299.9999777
300.0001373
300.0001751
300.0001223
300.0000148
299.9999251
299.9999485
300.000104
299.9994504
299.9993891
299.9997586
300.0000349
300.0001193
300.0001021
300.0000503
300.0000131
300.0000608
300.0002098
299.9995867
299.999534
299.9998259
300.0000678
300.0001447
300.000134
300.0000997
300.0000951
300.0001583
300.000277
299.9998987
299.9998613
299.9999936
300.0001292
300.0001681
300.0001488
300.0001178
300.0001374
300.0002194
300.0003223
300.0002675
300.0001781
300.0001266
300.0001179
300.0000798
300.000039
300.0000298
300.0001068
300.0002496
300.0003905
300.0006228
300.0004466
300.0001455
299.9999363
299.9998
299.9997498
299.9997975
299.9999934
300.000261
300.0004792
300.0007459
300.0005274
300.0000566
299.9996946
299.9994958
299.9994771
299.9996046
299.9999117
300.0002537
300.0005527
300.0006744
300.0004062
300.0002865
300.0003002
300.0003556
300.0003822
300.0003327
300.0002712
300.0002425
300.0002342
300.0002529
299.9997846
299.999774
299.9999596
300.0000932
300.0001518
300.0001514
300.0001393
300.0001761
300.0002339
300.0002772
299.9994752
299.999437
299.9997563
299.9999921
300.0000845
300.0001167
300.0001404
300.0002005
300.00028
300.0003179
299.9995742
299.9995525
299.9998146
300.0000288
300.0001157
300.0001514
300.0001879
300.0002683
300.0003421
300.000349
299.9998707
299.9998602
299.9999756
300.0000991
300.0001538
300.0001785
300.0002204
300.0003275
300.0004089
300.0004118
300.0002819
300.0001982
300.0001248
300.0000975
300.0000713
300.0000744
300.000145
300.0003191
300.0004692
300.0005384
300.0007382
300.0005137
300.000162
299.9999132
299.9997805
299.9997821
299.9999372
300.0002508
300.0005329
300.0007212
300.0009454
300.0006328
300.0000837
299.9996696
299.9994751
299.9995129
299.9997675
300.0002224
300.0006234
300.0008908
300.0010339
300.000576
300.0003517
300.0003218
300.0003721
300.0004313
300.0005122
300.0005918
300.0005896
300.0004958
300.0004349
300.0000228
299.9999288
300.0000106
300.0001188
300.0002035
300.0003218
300.0004814
300.0005551
300.0005129
300.0004578
299.9996831
299.9996599
299.9998424
300.0000276
300.0001424
300.0002846
300.0004766
300.0005981
300.0005898
300.0005054
299.9996888
299.9997015
299.999892
300.0000744
300.0001934
300.0003448
300.0005356
300.000672
300.0006735
300.0005532
299.9999198
299.9999469
300.0000509
300.000164
300.0002569
300.000388
300.0005542
300.0006972
300.0007301
300.0006447
300.0003468
300.0003179
300.0002309
300.0001766
300.0001741
300.0002599
300.0004278
300.0006357
300.0007738
300.0008135
300.0008605
300.0006942
300.000303
299.9999908
299.9998595
299.9999365
300.00019
300.0005498
300.0008545
300.0010108
300.001092
300.0008361
300.0002547
299.9997667
299.9995724
299.9996934
300.0000682
300.0005724
300.0009812
300.001174
300.0012406
300.0007767
300.0005136
300.0004317
300.00047
300.0005713
300.0007012
300.000794
300.0007561
300.0005991
300.0005225
300.0004509
300.0002595
300.0002111
300.0002633
300.0003921
300.0005985
300.000766
300.0007805
300.0006566
300.0005814
300.0001943
300.000096
300.0001214
300.0002034
300.0003583
300.0006088
300.0008245
300.0008869
300.0008029
300.0006993
300.0000786
300.0000779
300.0001594
300.0002699
300.000435
300.0006779
300.0008897
300.0009767
300.0009335
300.0008202
300.0001284
300.0001949
300.0002788
300.0003657
300.0004906
300.0006689
300.0008503
300.0009782
300.0010101
300.0009525
300.0004168
300.0004637
300.0004002
300.0003396
300.0003573
300.0004732
300.0006653
300.0009021
300.0010659
300.0011113
300.0008678
300.0007795
300.0004356
300.0001309
300.0000255
300.0001461
300.0004382
300.000833
300.0011396
300.0012539
300.0010909
300.0009038
300.0004095
299.999966
299.9998102
299.9999815
300.0003728
300.0008692
300.0012133
300.0013212
300.0012698
300.000912
300.0006764
300.0005863
300.0006088
300.0006792
300.0007689
300.0008288
300.0007616
300.0005969
300.0005357
300.0007845
300.0005591
300.0004852
300.0005186
300.0006145
300.0007579
300.0008613
300.0008243
300.0006823
300.0006271
300.0006551
300.0004995
300.0004713
300.0005231
300.0006544
300.0008539
300.0009989
300.0009955
300.0008839
300.0008093
300.0005227
300.0004578
300.0004834
300.0005617
300.0007126
300.0009245
300.0010778
300.0011141
300.001064
300.0009951
300.0004091
300.0004416
300.0004891
300.0005534
300.0006732
300.0008422
300.0010009
300.0011235
300.0011819
300.0011654
300.0004803
300.0005468
300.0004925
300.0004363
300.0004617
300.0005789
300.0007856
300.0010632
300.0012632
300.0013081
300.0008032
300.000776
300.0004877
300.0002073
300.0001272
300.0002635
300.0005969
300.0010429
300.001321
300.0013809
300.0009691
300.0008698
300.0004688
300.0000845
299.9999716
300.0001728
300.0005923
300.001062
300.0013035
300.0013468
300.0012077
300.0009291
300.0010882
300.0010634
300.0009376
300.0007711
300.0006954
300.0006914
300.0007203
300.0007236
300.0006347
300.0005295
300.0005255
300.0009622
300.001063
300.0010129
300.0008644
300.0007026
300.0006442
300.0006616
300.0007388
300.0007914
300.0007256
300.0006148
300.0006024
300.0009448
300.0009956
300.0009187
300.0007951
300.0006972
300.0006707
300.0007276
300.0008791
300.0009832
300.0009403
300.0008323
300.0007916
300.0008273
300.0008607
300.0008088
300.0007394
300.00072
300.0007574
300.0008646
300.0010312
300.0011229
300.0011129
300.0010555
300.0010097
300.0005909
300.0006064
300.0006534
300.0006629
300.0006864
300.0007313
300.0008316
300.0009792
300.0010958
300.00119
300.0012335
300.0012135
300.0004628
300.0004201
300.0005576
300.0006414
300.000608
300.0005423
300.0005756
300.0007256
300.0009527
300.0012167
300.0013494
300.0013478
300.0005621
300.0005416
300.0007304
300.0007746
300.0005735
300.0002855
300.0002296
300.0004697
300.0008643
300.0012303
300.0013823
300.0013708
300.0007045
300.0007195
300.0008264
300.0007993
300.000548
300.0002174
300.0001515
300.0004446
300.0008575
300.001163
300.0012825
300.0012761
300.0010564
299.9999968
299.9999973
299.9999958
299.9999949
299.9999935
299.9999932
299.9999977
299.9999973
299.9999935
299.9999909
299.9999891
299.9999912
299.999997
299.9999964
299.9999921
299.9999903
299.9999895
299.9999926
299.9999964
299.9999961
299.9999923
299.9999906
299.9999909
299.9999941
299.9999962
299.9999964
299.999995
299.999992
299.9999923
299.9999948
299.9999961
299.9999968
299.9999964
299.999994
299.9999925
299.9999944
299.99998
299.9999851
299.9999944
299.9999973
299.9999959
299.9999942
299.9999675
299.9999748
299.99999
299.9999948
299.9999953
299.9999972
299.9999614
299.9999707
299.9999874
299.9999932
299.9999955
299.9999988
299.9999581
299.9999672
299.9999846
299.9999918
299.9999948
299.9999983
299.9999536
299.9999601
299.9999751
299.9999879
299.9999934
299.9999974
299.999946
299.9999508
299.9999609
299.9999778
299.9999896
299.9999952
299.9999662
299.999987
300.0000138
300.0000324
300.0000325
300.0000134
299.9999272
299.9999739
300.0000183
300.000052
300.0000638
300.0000381
299.999913
299.9999686
300.000013
300.000044
300.0000578
300.0000392
299.9998953
299.9999596
300.0000033
300.0000268
300.0000377
300.0000312
299.9998542
299.9999278
299.9999806
300.0000087
300.0000247
300.0000273
299.9998015
299.9998762
299.9999458
299.9999897
300.0000166
300.0000252
299.9999773
300.0000157
300.0000645
300.0000811
300.0000689
300.000028
299.9999338
300.0000138
300.0001199
300.0001743
300.0001657
300.0000757
299.9999182
300.0000103
300.000119
300.0001825
300.0001825
300.0000918
299.9998963
299.9999972
300.000091
300.000149
300.0001634
300.0001003
299.9998365
299.9999514
300.0000429
300.0001052
300.0001469
300.0001078
299.9997507
299.9998827
299.9999895
300.0000751
300.0001413
300.000111
300.0000264
300.0000709
300.000097
300.0000906
300.0000717
300.0000317
300.0000051
300.000128
300.000216
300.0002309
300.0001981
300.0000883
299.9999983
300.0001538
300.0002707
300.0002959
300.0002565
300.0001217
299.9999819
300.0001578
300.0002908
300.0003248
300.0002945
300.0001522
299.9999138
300.0001068
300.0002606
300.000334
300.00033
300.0001718
299.9998128
300.0000201
300.0002053
300.0003207
300.0003417
300.0001746
300.000104
300.0001262
300.0001203
300.0000969
300.0000792
300.0000424
300.0001765
300.0002623
300.0002829
300.0002545
300.0002144
300.0001089
300.0002142
300.0003492
300.0003946
300.0003598
300.0002979
300.0001531
300.0002259
300.000411
300.0004854
300.0004528
300.0003739
300.0001851
300.0001612
300.0003992
300.0005186
300.0005181
300.0004312
300.0001952
300.0000421
300.0003302
300.0004974
300.0005276
300.0004394
300.0001886
300.0001836
300.0001853
300.0001593
300.0001301
300.0001221
300.0000752
300.0003683
300.0004029
300.0003597
300.0003017
300.0002712
300.0001695
300.0004368
300.0005176
300.0004936
300.0004208
300.000366
300.0002166
300.0004364
300.000577
300.0005962
300.000523
300.0004351
300.0002262
300.0003454
300.0005542
300.000632
300.0005864
300.0004655
300.0002063
300.0002031
300.0004814
300.000613
300.0005856
300.0004472
300.0001828
300.0002306
300.0002252
300.0002149
300.0002127
300.0002109
300.0001115
300.0005128
300.0005199
300.0004852
300.0004483
300.0004445
300.0002525
300.0005955
300.0006362
300.000608
300.0005583
300.0005363
300.0002979
300.0005513
300.0006446
300.0006528
300.0006068
300.0005503
300.0002778
300.00041
300.0005782
300.0006442
300.0006088
300.0004975
300.0002236
300.0002498
300.000493
300.0006095
300.0005725
300.0004324
300.0001835
300.0002316
300.0002264
300.0002338
300.0002569
300.0002477
300.0001151
300.0005603
300.000561
300.0005724
300.0006035
300.0005802
300.0002757
300.0006689
300.0006868
300.0007027
300.0007261
300.0006916
300.0003254
300.0006116
300.0006642
300.0007004
300.0007201
300.0006642
300.0002992
300.000446
300.00057
300.0006483
300.0006478
300.0005546
300.0002398
300.0002867
300.0004808
300.0005882
300.0005686
300.0004424
300.000196
300.0001915
300.0001882
300.0002092
300.0002393
300.0002215
300.0000898
300.0005319
300.0005317
300.000567
300.0006185
300.0005723
300.0002386
300.0006665
300.0006762
300.0007179
300.0007718
300.0007057
300.0002971
300.000632
300.0006625
300.0007294
300.0007782
300.0006882
300.0002844
300.0005044
300.0005819
300.0006768
300.0007112
300.0005897
300.000241
300.0003735
300.0005045
300.0006097
300.0006042
300.0004837
300.000214
300.0001514
300.0001451
300.0001579
300.0001777
300.0001569
300.0000638
300.0004378
300.0004328
300.0004822
300.0005305
300.0004601
300.0001855
300.000606
300.0006065
300.0006696
300.0007194
300.0006221
300.0002515
300.0006241
300.000649
300.0007265
300.0007661
300.0006449
300.0002592
300.0005667
300.0006343
300.0007289
300.0007354
300.0005841
300.0002364
300.000496
300.0006003
300.0006895
300.0006674
300.0005195
300.0002253
300.0001575
300.0001429
300.000142
300.0001543
300.0001471
300.000071
300.0004089
300.0003885
300.0004072
300.00044
300.0004056
300.0001939
300.0005691
300.0005601
300.0005981
300.0006305
300.0005631
300.000259
300.0006219
300.0006466
300.0007041
300.000719
300.000609
300.0002661
300.0006146
300.0006856
300.0007452
300.0007275
300.0005748
300.0002419
300.0005796
300.0006742
300.0007277
300.0006865
300.0005372
300.0002305
300.0002102
300.0001785
300.0001675
300.0001861
300.0001942
300.0001013
300.0004578
300.0004179
300.0004221
300.0004651
300.0004673
300.0002509
300.0005944
300.0005749
300.0006007
300.0006396
300.0006065
300.0003081
300.0006417
300.000661
300.0007028
300.0007175
300.0006325
300.0002948
300.0006412
300.0006966
300.0007342
300.0007097
300.000582
300.0002493
300.000602
300.0006772
300.0007126
300.0006731
300.0005371
300.0002262
300.0002736
300.0002326
300.0002233
300.0002476
300.0002446
300.0001136
300.0005876
300.0005231
300.0005243
300.0005921
300.0005927
300.0002834
300.0006924
300.0006551
300.0006776
300.0007431
300.0007206
300.0003367
300.0006983
300.0007025
300.0007298
300.0007636
300.0006984
300.0003093
300.0006611
300.0006927
300.0007073
300.0007069
300.0005995
300.0002493
300.0005968
300.0006361
300.0006449
300.0006318
300.0005275
300.0002147
299.9999965
299.9999971
299.9999965
299.9999936
299.9999909
299.9999928
299.9999965
299.9999965
299.9999948
299.9999897
299.9999883
299.999991
299.9999956
299.9999945
299.99999
299.9999874
299.9999869
299.9999899
299.9999927
299.9999904
299.9999883
299.999987
299.9999863
299.9999895
299.9999909
299.9999888
299.9999878
299.9999868
299.9999861
299.9999899