/*--------------------------------*- C++ -*----------------------------------*\
  =========                 |
  \\      /  F ield         | OpenFOAM: The Open Source CFD Toolbox
   \\    /   O peration     | Website:  https://openfoam.org
    \\  /    A nd           | Version:  7
     \\/     M anipulation  |
\*---------------------------------------------------------------------------*/
FoamFile
{
    version     2.0;
    format      ascii;
    class       volScalarField;
    location    "0.00259";
    object      p;
}
// * * * * * * * * * * * * * * * * * * * * * * * * * * * * * * * * * * * * * //

dimensions      [1 -1 -2 0 0 0 0];

internalField   nonuniform List<scalar> 
5000
(
99788.969
99788.969
99788.97
99788.97
99788.97
99788.97
99788.97
99788.971
99788.971
99788.971
99788.971
99788.972
99788.972
99788.972
99788.972
99788.973
99788.973
99788.973
99788.973
99788.973
99788.974
99788.974
99788.974
99788.974
99788.975
99788.975
99788.975
99788.975
99788.976
99788.976
99788.976
99788.976
99788.977
99788.977
99788.977
99788.977
99788.977
99788.978
99788.978
99788.978
99788.978
99788.979
99788.979
99788.979
99788.979
99788.98
99788.98
99788.98
99788.98
99788.981
99788.981
99788.981
99788.981
99788.982
99788.982
99788.982
99788.982
99788.982
99788.983
99788.983
99788.983
99788.983
99788.984
99788.984
99788.984
99788.984
99788.985
99788.985
99788.985
99788.985
99788.986
99788.986
99788.986
99788.986
99788.987
99788.987
99788.987
99788.987
99788.987
99788.988
99788.988
99788.988
99788.988
99788.989
99788.989
99788.989
99788.989
99788.99
99788.99
99788.99
99788.99
99788.991
99788.991
99788.991
99788.991
99788.992
99788.992
99788.992
99788.992
99788.993
99788.993
99788.993
99788.993
99788.994
99788.994
99788.994
99788.994
99788.994
99788.995
99788.995
99788.995
99788.995
99788.996
99788.996
99788.996
99788.996
99788.997
99788.997
99788.997
99788.997
99788.998
99788.998
99788.998
99788.998
99788.999
99788.999
99788.999
99788.999
99789
99789
99789
99789
99789.001
99789.001
99789.001
99789.001
99789.002
99789.002
99789.002
99789.002
99789.003
99789.003
99789.003
99789.003
99789.004
99789.004
99789.004
99789.004
99789.005
99789.005
99789.005
99789.005
99789.006
99789.006
99789.006
99789.006
99789.007
99789.007
99789.007
99789.007
99789.008
99789.008
99789.008
99789.008
99789.009
99789.009
99789.009
99789.009
99789.01
99789.01
99789.01
99789.01
99789.011
99789.011
99789.011
99789.011
99789.012
99789.012
99789.012
99789.012
99789.013
99789.013
99789.013
99789.013
99789.014
99789.014
99789.014
99789.014
99789.015
99789.015
99789.015
99789.015
99789.016
99789.016
99789.016
99789.017
99789.017
99789.017
99789.017
99789.018
99789.018
99789.018
99789.018
99789.019
99789.019
99789.019
99789.019
99789.02
99789.02
99789.02
99789.02
99789.021
99789.021
99789.021
99789.021
99789.022
99789.022
99789.022
99789.022
99789.023
99789.023
99789.023
99789.023
99789.024
99789.024
99789.024
99789.025
99789.025
99789.025
99789.025
99789.026
99789.026
99789.026
99789.026
99789.027
99789.027
99789.027
99789.027
99789.028
99789.028
99789.028
99789.028
99789.029
99789.029
99789.029
99789.029
99789.03
99789.03
99789.03
99789.03
99789.031
99789.031
99789.031
99789.032
99789.032
99789.032
99789.032
99789.033
99789.033
99789.033
99789.033
99789.034
99789.034
99789.034
99789.034
99789.035
99789.035
99789.035
99789.035
99789.036
99789.036
99789.036
99789.037
99789.037
99789.037
99789.037
99789.038
99789.038
99789.038
99789.038
99789.039
99789.039
99789.039
99789.039
99789.04
99789.04
99789.04
99789.041
99789.041
99789.041
99789.041
99789.042
99789.042
99789.042
99789.042
99789.043
99789.043
99789.043
99789.044
99789.044
99789.044
99789.044
99789.045
99789.045
99789.045
99789.045
99789.046
99789.046
99789.046
99789.046
99789.047
99789.047
99789.047
99789.048
99789.048
99789.048
99789.048
99789.049
99789.049
99789.049
99789.05
99789.05
99789.05
99789.05
99789.051
99789.051
99789.051
99789.051
99789.052
99789.052
99789.052
99789.053
99789.053
99789.053
99789.053
99789.054
99789.054
99789.054
99789.055
99789.055
99789.055
99789.055
99789.056
99789.056
99789.056
99789.056
99789.057
99789.057
99789.057
99789.058
99789.058
99789.058
99789.058
99789.059
99789.059
99789.059
99789.06
99789.06
99789.06
99789.06
99789.061
99789.061
99789.061
99789.062
99789.062
99789.062
99789.062
99789.063
99789.063
99789.063
99789.064
99789.064
99789.064
99789.064
99789.065
99789.065
99789.065
99789.066
99789.066
99789.066
99789.066
99789.067
99789.067
99789.067
99789.068
99789.068
99789.068
99789.069
99789.069
99789.069
99789.069
99789.07
99789.07
99789.07
99789.071
99789.071
99789.071
99789.071
99789.072
99789.072
99789.072
99789.073
99789.073
99789.073
99789.074
99789.074
99789.074
99789.074
99789.075
99789.075
99789.075
99789.076
99789.076
99789.076
99789.077
99789.077
99789.077
99789.077
99789.078
99789.078
99789.078
99789.079
99789.079
99789.079
99789.08
99789.08
99789.08
99789.08
99789.081
99789.081
99789.081
99789.082
99789.082
99789.082
99789.083
99789.083
99789.083
99789.084
99789.084
99789.084
99789.085
99789.085
99789.085
99789.085
99789.086
99789.086
99789.086
99789.087
99789.087
99789.087
99789.088
99789.088
99789.088
99789.089
99789.089
99789.089
99789.09
99789.09
99789.09
99789.091
99789.091
99789.091
99789.092
99789.092
99789.092
99789.093
99789.093
99789.093
99789.093
99789.094
99789.094
99789.094
99789.095
99789.095
99789.095
99789.096
99789.096
99789.096
99789.097
99789.097
99789.097
99789.098
99789.098
99789.098
99789.099
99789.099
99789.099
99789.1
99789.1
99789.1
99789.101
99789.101
99789.101
99789.102
99789.102
99789.103
99789.103
99789.103
99789.104
99789.104
99789.104
99789.105
99789.105
99789.105
99789.106
99789.106
99789.106
99789.107
99789.107
99789.107
99789.108
99789.108
99789.108
99789.109
99789.109
99789.109
99789.11
99789.11
99789.11
99789.111
99789.111
99789.112
99789.112
99789.112
99789.113
99789.113
99789.113
99789.114
99789.114
99789.114
99789.115
99789.115
99789.115
99789.116
99789.116
99789.117
99789.117
99789.117
99789.118
99789.118
99789.118
99789.119
99789.119
99789.12
99789.12
99789.12
99789.121
99789.121
99789.121
99789.122
99789.122
99789.122
99789.123
99789.123
99789.124
99789.124
99789.124
99789.125
99789.125
99789.126
99789.126
99789.126
99789.127
99789.127
99789.127
99789.128
99789.128
99789.129
99789.129
99789.129
99789.13
99789.13
99789.131
99789.131
99789.131
99789.132
99789.132
99789.133
99789.133
99789.133
99789.134
99789.134
99789.135
99789.135
99789.135
99789.136
99789.136
99789.137
99789.137
99789.137
99789.138
99789.138
99789.139
99789.139
99789.139
99789.14
99789.14
99789.141
99789.141
99789.141
99789.142
99789.142
99789.143
99789.143
99789.143
99789.144
99789.144
99789.145
99789.145
99789.145
99789.146
99789.146
99789.147
99789.147
99789.148
99789.148
99789.148
99789.149
99789.149
99789.15
99789.15
99789.151
99789.151
99789.151
99789.152
99789.152
99789.153
99789.153
99789.153
99789.154
99789.154
99789.155
99789.155
99789.156
99789.156
99789.156
99789.157
99789.157
99789.158
99789.158
99789.159
99789.159
99789.16
99789.16
99789.16
99789.161
99789.161
99789.162
99789.162
99789.163
99789.163
99789.163
99789.164
99789.164
99789.165
99789.165
99789.166
99789.166
99789.167
99789.167
99789.168
99789.168
99789.168
99789.169
99789.169
99789.17
99789.17
99789.171
99789.171
99789.172
99789.172
99789.173
99789.173
99789.174
99789.174
99789.174
99789.175
99789.175
99789.176
99789.176
99789.177
99789.177
99789.178
99789.178
99789.179
99789.179
99789.18
99789.18
99789.181
99789.181
99789.182
99789.182
99789.182
99789.183
99789.183
99789.184
99789.184
99789.185
99789.185
99789.186
99789.186
99789.187
99789.187
99789.188
99789.188
99789.189
99789.189
99789.19
99789.19
99789.191
99789.191
99789.192
99789.192
99789.193
99789.193
99789.194
99789.194
99789.195
99789.195
99789.196
99789.196
99789.197
99789.197
99789.198
99789.198
99789.199
99789.199
99789.2
99789.2
99789.201
99789.201
99789.202
99789.202
99789.203
99789.203
99789.204
99789.205
99789.205
99789.206
99789.206
99789.207
99789.207
99789.208
99789.208
99789.209
99789.209
99789.21
99789.21
99789.211
99789.211
99789.212
99789.212
99789.213
99789.214
99789.214
99789.215
99789.215
99789.216
99789.216
99789.217
99789.217
99789.218
99789.218
99789.219
99789.22
99789.22
99789.221
99789.221
99789.222
99789.222
99789.223
99789.223
99789.224
99789.224
99789.225
99789.226
99789.226
99789.227
99789.227
99789.228
99789.228
99789.229
99789.229
99789.23
99789.231
99789.231
99789.232
99789.232
99789.233
99789.233
99789.234
99789.235
99789.235
99789.236
99789.236
99789.237
99789.238
99789.238
99789.239
99789.239
99789.24
99789.24
99789.241
99789.242
99789.242
99789.243
99789.243
99789.244
99789.245
99789.245
99789.246
99789.246
99789.247
99789.248
99789.248
99789.249
99789.249
99789.25
99789.251
99789.251
99789.252
99789.253
99789.253
99789.254
99789.254
99789.255
99789.256
99789.256
99789.257
99789.257
99789.258
99789.259
99789.259
99789.26
99789.261
99789.261
99789.262
99789.263
99789.263
99789.264
99789.264
99789.265
99789.266
99789.266
99789.267
99789.268
99789.268
99789.269
99789.27
99789.27
99789.271
99789.272
99789.272
99789.273
99789.274
99789.274
99789.275
99789.276
99789.276
99789.277
99789.278
99789.278
99789.279
99789.28
99789.28
99789.281
99789.282
99789.283
99789.283
99789.284
99789.285
99789.285
99789.286
99789.287
99789.287
99789.288
99789.289
99789.29
99789.29
99789.291
99789.292
99789.292
99789.293
99789.294
99789.295
99789.295
99789.296
99789.297
99789.298
99789.298
99789.299
99789.3
99789.301
99789.301
99789.302
99789.303
99789.304
99789.304
99789.305
99789.306
99789.307
99789.307
99789.308
99789.309
99789.31
99789.311
99789.311
99789.312
99789.313
99789.314
99789.315
99789.315
99789.316
99789.317
99789.318
99789.319
99789.319
99789.32
99789.321
99789.322
99789.323
99789.324
99789.324
99789.325
99789.326
99789.327
99789.328
99789.329
99789.33
99789.33
99789.331
99789.332
99789.333
99789.334
99789.335
99789.336
99789.337
99789.337
99789.338
99789.339
99789.34
99789.341
99789.342
99789.343
99789.344
99789.345
99789.346
99789.347
99789.348
99789.349
99789.35
99789.35
99789.351
99789.352
99789.353
99789.354
99789.355
99789.356
99789.357
99789.358
99789.359
99789.36
99789.361
99789.362
99789.363
99789.364
99789.365
99789.366
99789.367
99789.369
99789.37
99789.371
99789.372
99789.373
99789.374
99789.375
99789.376
99789.377
99789.378
99789.379
99789.381
99789.382
99789.383
99789.384
99789.385
99789.386
99789.387
99789.389
99789.39
99789.391
99789.392
99789.393
99789.394
99789.396
99789.397
99789.398
99789.399
99789.401
99789.402
99789.403
99789.404
99789.406
99789.407
99789.408
99789.41
99789.411
99789.412
99789.414
99789.415
99789.416
99789.418
99789.419
99789.42
99789.422
99789.423
99789.425
99789.426
99789.427
99789.429
99789.43
99789.432
99789.433
99789.435
99789.436
99789.438
99789.439
99789.441
99789.442
99789.444
99789.445
99789.447
99789.449
99789.45
99789.452
99789.453
99789.455
99789.457
99789.458
99789.46
99789.462
99789.463
99789.465
99789.467
99789.469
99789.47
99789.472
99789.474
99789.476
99789.477
99789.479
99789.481
99789.483
99789.485
99789.487
99789.489
99789.491
99789.492
99789.494
99789.496
99789.498
99789.5
99789.502
99789.504
99789.506
99789.508
99789.511
99789.513
99789.515
99789.517
99789.519
99789.521
99789.523
99789.526
99789.528
99789.53
99789.532
99789.535
99789.537
99789.539
99789.541
99789.544
99789.546
99789.548
99789.551
99789.553
99789.556
99789.558
99789.561
99789.563
99789.566
99789.568
99789.571
99789.573
99789.576
99789.579
99789.581
99789.584
99789.587
99789.589
99789.592
99789.595
99789.598
99789.6
99789.603
99789.606
99789.609
99789.612
99789.615
99789.618
99789.621
99789.623
99789.626
99789.629
99789.633
99789.636
99789.639
99789.642
99789.645
99789.648
99789.651
99789.655
99789.658
99789.661
99789.664
99789.668
99789.671
99789.674
99789.678
99789.681
99789.685
99789.688
99789.692
99789.695
99789.699
99789.702
99789.706
99789.709
99789.713
99789.717
99789.72
99789.724
99789.728
99789.732
99789.736
99789.739
99789.743
99789.747
99789.751
99789.755
99789.759
99789.763
99789.767
99789.771
99789.775
99789.78
99789.784
99789.788
99789.792
99789.796
99789.801
99789.805
99789.809
99789.814
99789.818
99789.823
99789.827
99789.832
99789.836
99789.841
99789.846
99789.85
99789.855
99789.86
99789.864
99789.869
99789.874
99789.879
99789.884
99789.889
99789.894
99789.899
99789.904
99789.909
99789.914
99789.919
99789.924
99789.929
99789.935
99789.94
99789.945
99789.951
99789.956
99789.961
99789.967
99789.972
99789.978
99789.983
99789.989
99789.995
99790.001
99790.006
99790.012
99790.018
99790.024
99790.03
99790.036
99790.042
99790.048
99790.054
99790.06
99790.066
99790.072
99790.079
99790.085
99790.091
99790.098
99790.104
99790.111
99790.117
99790.124
99790.13
99790.137
99790.144
99790.151
99790.157
99790.164
99790.171
99790.178
99790.185
99790.192
99790.199
99790.207
99790.214
99790.221
99790.229
99790.236
99790.244
99790.251
99790.259
99790.266
99790.274
99790.282
99790.29
99790.298
99790.306
99790.314
99790.322
99790.33
99790.338
99790.346
99790.355
99790.363
99790.372
99790.38
99790.389
99790.398
99790.407
99790.416
99790.425
99790.434
99790.443
99790.452
99790.462
99790.471
99790.481
99790.49
99790.5
99790.51
99790.52
99790.53
99790.54
99790.55
99790.561
99790.571
99790.582
99790.593
99790.603
99790.614
99790.626
99790.637
99790.648
99790.66
99790.671
99790.683
99790.695
99790.707
99790.72
99790.732
99790.745
99790.758
99790.771
99790.784
99790.797
99790.811
99790.825
99790.839
99790.853
99790.868
99790.882
99790.897
99790.912
99790.928
99790.944
99790.96
99790.976
99790.993
99791.009
99791.027
99791.044
99791.062
99791.08
99791.099
99791.118
99791.137
99791.157
99791.177
99791.197
99791.218
99791.24
99791.262
99791.284
99791.307
99791.33
99791.354
99791.378
99791.403
99791.429
99791.455
99791.482
99791.509
99791.538
99791.566
99791.596
99791.626
99791.657
99791.689
99791.721
99791.755
99791.789
99791.824
99791.861
99791.898
99791.936
99791.975
99792.015
99792.056
99792.099
99792.142
99792.187
99792.233
99792.28
99792.329
99792.379
99792.43
99792.483
99792.537
99792.593
99792.65
99792.709
99792.77
99792.833
99792.897
99792.963
99793.032
99793.102
99793.174
99793.248
99793.325
99793.403
99793.484
99793.568
99793.653
99793.742
99793.833
99793.926
99794.023
99794.122
99794.224
99794.329
99794.438
99794.549
99794.664
99794.782
99794.904
99795.029
99795.158
99795.291
99795.427
99795.568
99795.713
99795.861
99796.015
99796.173
99796.335
99796.502
99796.674
99796.851
99797.033
99797.22
99797.413
99797.611
99797.815
99798.025
99798.241
99798.463
99798.691
99798.926
99799.167
99799.416
99799.671
99799.933
99800.203
99800.48
99800.765
99801.058
99801.359
99801.669
99801.987
99802.313
99802.649
99802.993
99803.347
99803.711
99804.084
99804.468
99804.861
99805.266
99805.681
99806.107
99806.544
99806.993
99807.453
99807.926
99808.411
99808.908
99809.418
99809.942
99810.478
99811.029
99811.593
99812.172
99812.765
99813.374
99813.997
99814.636
99815.291
99815.962
99816.649
99817.353
99818.075
99818.814
99819.57
99820.345
99821.138
99821.951
99822.782
99823.633
99824.504
99825.396
99826.308
99827.241
99828.196
99829.173
99830.172
99831.194
99832.238
99833.307
99834.399
99835.515
99836.656
99837.823
99839.015
99840.233
99841.477
99842.748
99844.047
99845.373
99846.727
99848.11
99849.522
99850.964
99852.436
99853.938
99855.471
99857.035
99858.632
99860.26
99861.922
99863.616
99865.345
99867.107
99868.904
99870.737
99872.605
99874.51
99876.451
99878.429
99880.444
99882.498
99884.591
99886.723
99888.894
99891.105
99893.357
99895.65
99897.985
99900.362
99902.781
99905.244
99907.75
99910.3
99912.895
99915.535
99918.221
99920.953
99923.731
99926.556
99929.43
99932.351
99935.321
99938.34
99941.408
99944.527
99947.696
99950.916
99954.188
99957.511
99960.888
99964.317
99967.8
99971.336
99974.928
99978.574
99982.275
99986.032
99989.845
99993.715
99997.643
100001.63
100005.67
100009.77
100013.93
100018.15
100022.43
100026.77
100031.17
100035.63
100040.16
100044.74
100049.39
100054.1
100058.87
100063.71
100068.61
100073.57
100078.6
100083.7
100088.86
100094.08
100099.37
100104.73
100110.15
100115.65
100121.2
100126.83
100132.52
100138.29
100144.12
100150.02
100155.99
100162.03
100168.14
100174.31
100180.56
100186.88
100193.27
100199.73
100206.27
100212.87
100219.54
100226.29
100233.11
100240
100246.97
100254
100261.11
100268.3
100275.55
100282.88
100290.29
100297.76
100305.31
100312.94
100320.63
100328.41
100336.25
100344.17
100352.17
100360.24
100368.38
100376.6
100384.9
100393.27
100401.71
100410.23
100418.82
100427.49
100436.23
100445.05
100453.94
100462.91
100471.96
100481.07
100490.27
100499.54
100508.88
100518.3
100527.79
100537.36
100547
100556.72
100566.51
100576.37
100586.31
100596.33
100606.42
100616.58
100626.82
100637.13
100647.51
100657.97
100668.5
100679.11
100689.79
100700.54
100711.36
100722.26
100733.23
100744.27
100755.39
100766.57
100777.83
100789.16
100800.56
100812.04
100823.58
100835.2
100846.88
100858.64
100870.47
100882.36
100894.33
100906.37
100918.47
100930.65
100942.89
100955.2
100967.58
100980.03
100992.55
101005.13
101017.78
101030.5
101043.29
101056.14
101069.06
101082.04
101095.09
101108.2
101121.38
101134.63
101147.94
101161.31
101174.75
101188.25
101201.81
101215.44
101229.13
101242.88
101256.69
101270.57
101284.5
101298.5
101312.56
101326.68
101340.86
101355.1
101369.39
101383.75
101398.16
101412.64
101427.17
101441.76
101456.4
101471.11
101485.87
101500.68
101515.56
101530.48
101545.47
101560.5
101575.6
101590.74
101605.94
101621.2
101636.5
101651.86
101667.27
101682.74
101698.25
101713.82
101729.44
101745.1
101760.82
101776.59
101792.41
101808.27
101824.19
101840.15
101856.16
101872.22
101888.33
101904.48
101920.68
101936.93
101953.22
101969.56
101985.94
102002.37
102018.84
102035.36
102051.92
102068.52
102085.16
102101.85
102118.58
102135.36
102152.17
102169.02
102185.92
102202.86
102219.83
102236.85
102253.9
102271
102288.13
102305.3
102322.51
102339.75
102357.04
102374.36
102391.71
102409.1
102426.53
102444
102461.49
102479.03
102496.6
102514.2
102531.83
102549.5
102567.2
102584.94
102602.7
102620.5
102638.33
102656.19
102674.08
102692
102709.95
102727.94
102745.95
102763.99
102782.06
102800.15
102818.28
102836.43
102854.61
102872.82
102891.06
102909.32
102927.6
102945.92
102964.25
102982.62
103001.01
103019.42
103037.85
103056.31
103074.8
103093.3
103111.83
103130.39
103148.96
103167.55
103186.17
103204.81
103223.47
103242.15
103260.85
103279.57
103298.3
103317.06
103335.84
103354.63
103373.45
103392.28
103411.13
103429.99
103448.88
103467.78
103486.69
103505.63
103524.57
103543.54
103562.51
103581.51
103600.51
103619.54
103638.57
103657.62
103676.68
103695.76
103714.84
103733.94
103753.06
103772.18
103791.31
103810.46
103829.62
103848.78
103867.96
103887.15
103906.34
103925.55
103944.76
103963.99
103983.22
104002.46
104021.7
104040.96
104060.22
104079.49
104098.77
104118.05
104137.33
104156.63
104175.92
104195.23
104214.54
104233.85
104253.16
104272.48
104291.81
104311.14
104330.47
104349.8
104369.13
104388.47
104407.81
104427.15
104446.49
104465.83
104485.18
104504.52
104523.86
104543.21
104562.55
104581.89
104601.23
104620.57
104639.91
104659.24
104678.57
104697.9
104717.23
104736.55
104755.88
104775.19
104794.5
104813.81
104833.11
104852.41
104871.71
104890.99
104910.28
104929.55
104948.82
104968.08
104987.34
105006.58
105025.82
105045.06
105064.28
105083.5
105102.7
105121.9
105141.09
105160.27
105179.43
105198.59
105217.74
105236.88
105256
105275.12
105294.22
105313.31
105332.38
105351.45
105370.5
105389.54
105408.57
105427.58
105446.57
105465.56
105484.53
105503.48
105522.42
105541.34
105560.24
105579.13
105598.01
105616.86
105635.7
105654.52
105673.33
105692.11
105710.88
105729.63
105748.36
105767.07
105785.76
105804.43
105823.08
105841.71
105860.32
105878.91
105897.48
105916.03
105934.55
105953.05
105971.53
105989.98
106008.42
106026.83
106045.21
106063.57
106081.91
106100.22
106118.51
106136.77
106155
106173.21
106191.39
106209.55
106227.68
106245.78
106263.86
106281.9
106299.92
106317.91
106335.87
106353.81
106371.71
106389.58
106407.42
106425.24
106443.02
106460.77
106478.49
106496.18
106513.83
106531.46
106549.05
106566.61
106584.13
106601.62
106619.08
106636.5
106653.89
106671.25
106688.56
106705.85
106723.1
106740.31
106757.48
106774.62
106791.72
106808.79
106825.81
106842.8
106859.75
106876.67
106893.54
106910.37
106927.17
106943.92
106960.64
106977.31
106993.94
107010.53
107027.09
107043.59
107060.06
107076.49
107092.87
107109.21
107125.5
107141.75
107157.96
107174.13
107190.25
107206.32
107222.35
107238.33
107254.27
107270.16
107286.01
107301.81
107317.56
107333.27
107348.92
107364.53
107380.1
107395.61
107411.07
107426.49
107441.85
107457.17
107472.44
107487.65
107502.82
107517.93
107532.99
107548.01
107562.97
107577.88
107592.73
107607.53
107622.29
107636.98
107651.63
107666.22
107680.75
107695.24
107709.66
107724.04
107738.35
107752.62
107766.82
107780.98
107795.07
107809.11
107823.09
107837.02
107850.88
107864.7
107878.45
107892.14
107905.78
107919.36
107932.88
107946.34
107959.74
107973.09
107986.37
107999.59
108012.76
108025.86
108038.9
108051.88
108064.8
108077.66
108090.46
108103.2
108115.88
108128.49
108141.04
108153.53
108165.95
108178.32
108190.62
108202.86
108215.03
108227.14
108239.19
108251.17
108263.09
108274.95
108286.74
108298.46
108310.13
108321.72
108333.26
108344.72
108356.12
108367.46
108378.73
108389.94
108401.08
108412.15
108423.16
108434.1
108444.98
108455.79
108466.53
108477.21
108487.82
108498.36
108508.84
108519.25
108529.59
108539.87
108550.07
108560.22
108570.29
108580.3
108590.24
108600.11
108609.92
108619.66
108629.33
108638.93
108648.47
108657.93
108667.34
108676.67
108685.94
108695.13
108704.26
108713.33
108722.32
108731.25
108740.11
108748.91
108757.64
108766.3
108774.89
108783.41
108791.87
108800.26
108808.58
108816.84
108825.03
108833.15
108841.21
108849.2
108857.12
108864.98
108872.77
108880.49
108888.15
108895.74
108903.27
108910.73
108918.13
108925.46
108932.72
108939.92
108947.05
108954.12
108961.13
108968.07
108974.94
108981.75
108988.5
108995.18
109001.8
109008.36
109014.85
109021.28
109027.65
109033.96
109040.2
109046.38
109052.5
109058.55
109064.55
109070.48
109076.35
109082.17
109087.92
109093.61
109099.24
109104.81
109110.32
109115.78
109121.17
109126.51
109131.78
109137
109142.16
109147.27
109152.31
109157.3
109162.23
109167.11
109171.93
109176.7
109181.41
109186.06
109190.66
109195.2
109199.7
109204.13
109208.52
109212.85
109217.13
109221.35
109225.53
109229.65
109233.72
109237.74
109241.71
109245.63
109249.5
109253.32
109257.09
109260.81
109264.48
109268.11
109271.68
109275.21
109278.69
109282.13
109285.52
109288.86
109292.16
109295.42
109298.62
109301.79
109304.91
109307.98
109311.02
109314.01
109316.96
109319.86
109322.73
109325.55
109328.33
109331.07
109333.77
109336.43
109339.05
109341.64
109344.18
109346.69
109349.16
109351.59
109353.98
109356.34
109358.66
109360.94
109363.19
109365.4
109367.58
109369.73
109371.84
109373.92
109375.96
109377.97
109379.95
109381.89
109383.81
109385.69
109387.54
109389.37
109391.16
109392.92
109394.65
109396.35
109398.02
109399.67
109401.28
109402.87
109404.44
109405.97
109407.48
109408.96
109410.41
109411.84
109413.25
109414.63
109415.98
109417.31
109418.62
109419.9
109421.16
109422.39
109423.61
109424.8
109425.97
109427.11
109428.24
109429.35
109430.43
109431.49
109432.54
109433.56
109434.56
109435.55
109436.51
109437.46
109438.39
109439.3
109440.19
109441.06
109441.92
109442.76
109443.58
109444.39
109445.18
109445.96
109446.72
109447.46
109448.19
109448.9
109449.6
109450.29
109450.96
109451.61
109452.25
109452.88
109453.5
109454.1
109454.69
109455.27
109455.83
109456.39
109456.93
109457.46
109457.98
109458.48
109458.98
109459.46
109459.94
109460.4
109460.85
109461.3
109461.73
109462.15
109462.57
109462.97
109463.37
109463.76
109464.13
109464.5
109464.86
109465.22
109465.56
109465.9
109466.22
109466.54
109466.86
109467.16
109467.46
109467.75
109468.04
109468.32
109468.59
109468.85
109469.11
109469.36
109469.61
109469.85
109470.08
109470.31
109470.53
109470.75
109470.96
109471.17
109471.37
109471.57
109471.76
109471.95
109472.13
109472.31
109472.48
109472.65
109472.81
109472.97
109473.13
109473.28
109473.43
109473.57
109473.71
109473.85
109473.98
109474.11
109474.24
109474.36
109474.48
109474.6
109474.71
109474.82
109474.93
109475.04
109475.14
109475.24
109475.33
109475.43
109475.52
109475.61
109475.69
109475.78
109475.86
109475.94
109476.02
109476.09
109476.16
109476.23
109476.3
109476.37
109476.44
109476.5
109476.56
109476.62
109476.68
109476.73
109476.79
109476.84
109476.89
109476.94
109476.99
109477.04
109477.09
109477.13
109477.17
109477.22
109477.26
109477.3
109477.33
109477.37
109477.41
109477.44
109477.48
109477.51
109477.54
109477.57
109477.6
109477.63
109477.66
109477.69
109477.71
109477.74
109477.77
109477.79
109477.81
109477.84
109477.86
109477.88
109477.9
109477.92
109477.94
109477.96
109477.98
109477.99
109478.01
109478.03
109478.04
109478.06
109478.07
109478.09
109478.1
109478.12
109478.13
109478.14
109478.15
109478.17
109478.18
109478.19
109478.2
109478.21
109478.22
109478.23
109478.24
109478.25
109478.26
109478.27
109478.27
109478.28
109478.29
109478.3
109478.3
109478.31
109478.32
109478.33
109478.33
109478.34
109478.34
109478.35
109478.35
109478.36
109478.36
109478.37
109478.37
109478.38
109478.38
109478.39
109478.39
109478.4
109478.4
109478.4
109478.41
109478.41
109478.41
109478.42
109478.42
109478.42
109478.43
109478.43
109478.43
109478.43
109478.44
109478.44
109478.44
109478.44
109478.45
109478.45
109478.45
109478.45
109478.45
109478.45
109478.46
109478.46
109478.46
109478.46
109478.46
109478.46
109478.47
109478.47
109478.47
109478.47
109478.47
109478.47
109478.47
109478.47
109478.47
109478.48
109478.48
109478.48
109478.48
109478.48
109478.48
109478.48
109478.48
109478.48
109478.48
109478.48
109478.48
109478.48
109478.49
109478.49
109478.49
109478.49
109478.49
109478.49
109478.49
109478.49
109478.49
109478.49
109478.49
109478.49
109478.49
109478.49
109478.49
109478.49
109478.49
109478.49
109478.49
109478.49
109478.49
109478.49
109478.49
109478.49
109478.49
109478.49
109478.5
109478.5
109478.5
109478.5
109478.5
109478.5
109478.5
109478.5
109478.5
109478.5
109478.5
109478.5
109478.5
109478.5
109478.5
109478.5
109478.5
109478.5
109478.5
109478.5
109478.5
109478.5
109478.5
109478.5
109478.5
109478.5
109478.5
109478.5
109478.5
109478.5
109478.5
109478.5
109478.5
109478.5
109478.5
109478.5
109478.5
109478.5
109478.5
109478.5
109478.5
109478.5
109478.5
109478.5
109478.5
109478.5
109478.5
109478.5
109478.5
109478.5
109478.5
109478.5
109478.5
109478.5
109478.5
109478.5
109478.5
109478.5
109478.5
109478.51
109478.51
109478.51
109478.51
109478.51
109478.51
109478.51
109478.51
109478.51
109478.51
109478.51
109478.51
109478.51
109478.51
109478.51
109478.51
109478.51
109478.51
109478.51
109478.52
109478.52
109478.52
109478.52
109478.52
109478.52
109478.52
109478.52
109478.52
109478.52
109478.53
109478.53
109478.53
109478.53
109478.53
109478.53
109478.53
109478.54
109478.54
109478.54
109478.54
109478.54
109478.55
109478.55
109478.55
109478.55
109478.56
109478.56
109478.56
109478.57
109478.57
109478.57
109478.58
109478.58
109478.59
109478.59
109478.59
109478.6
109478.6
109478.61
109478.61
109478.62
109478.63
109478.63
109478.64
109478.65
109478.65
109478.66
109478.67
109478.68
109478.69
109478.7
109478.7
109478.71
109478.73
109478.74
109478.75
109478.76
109478.77
109478.79
109478.8
109478.81
109478.83
109478.84
109478.86
109478.88
109478.9
109478.92
109478.94
109478.96
109478.98
109479
109479.02
109479.05
109479.08
109479.1
109479.13
109479.16
109479.19
109479.22
109479.26
109479.29
109479.33
109479.37
109479.41
109479.45
109479.5
109479.54
109479.59
109479.64
109479.69
109479.75
109479.8
109479.86
109479.93
109479.99
109480.06
109480.13
109480.21
109480.28
109480.36
109480.45
109480.54
109480.63
109480.73
109480.83
109480.93
109481.04
109481.16
109481.28
109481.4
109481.53
109481.66
109481.8
109481.95
109482.1
109482.25
109482.42
109482.59
109482.77
109482.97
109483.17
109483.4
109483.57
109483.82
109484.06
109484.3
109484.55
109484.81
109485.08
109485.36
109485.65
109485.96
109486.27
109486.6
109486.94
109487.3
109487.67
109488.05
109488.45
109488.86
109489.3
109489.74
109490.21
109490.69
109491.19
109491.72
109492.26
109492.83
109493.42
109494.03
109494.66
109495.32
109496.01
109496.73
109497.47
109498.25
109499.05
109499.89
109500.76
109501.66
109502.6
109503.58
109504.59
109505.65
109506.74
109507.88
109509.07
109510.3
109511.58
109512.91
109514.29
109515.72
109517.22
109518.76
109520.37
109522.04
109523.78
109525.58
109527.45
109529.4
109531.41
109533.51
109535.69
109537.95
109540.29
109542.73
109545.25
109547.88
109550.6
109553.43
109556.36
109559.4
109562.56
109565.84
109569.24
109572.77
109576.43
109580.23
109584.17
109588.25
109592.49
109596.88
109601.44
109606.17
109611.07
109616.15
109621.42
109626.88
109632.54
109638.41
109644.5
109650.8
109657.33
109664.1
109671.12
109678.38
109685.91
109693.71
109701.79
109710.16
109718.82
109727.79
109737.08
109746.7
109756.66
109766.97
109777.63
109788.67
109800.1
109811.92
109824.14
109836.79
109849.88
109863.41
109877.4
109891.86
109906.82
109922.28
109938.25
109954.76
109971.82
109989.44
110007.64
110026.44
110045.84
110065.88
110086.56
110107.91
110129.94
110152.66
110176.1
110200.27
110225.19
110250.88
110277.36
110304.65
110332.76
110361.71
110391.52
110422.21
110453.8
110486.3
110519.74
110554.13
110589.49
110625.83
110663.18
110701.54
110740.95
110781.4
110822.92
110865.52
110909.22
110954.03
110999.95
111047.02
111095.22
111144.58
111195.1
111246.79
111299.66
111353.72
111408.96
111465.39
111523.01
111581.83
111641.84
111703.04
111765.42
111828.98
111893.71
111959.6
112026.64
112094.82
112164.13
112234.54
112306.04
112378.6
112452.22
112526.85
112602.48
112679.08
112756.62
112835.07
112914.39
112994.55
113075.51
113157.24
113239.7
113322.84
113406.63
113491.01
113575.94
113661.39