/*--------------------------------*- C++ -*----------------------------------*\
  =========                 |
  \\      /  F ield         | OpenFOAM: The Open Source CFD Toolbox
   \\    /   O peration     | Website:  https://openfoam.org
    \\  /    A nd           | Version:  7
     \\/     M anipulation  |
\*---------------------------------------------------------------------------*/
FoamFile
{
    version     2.0;
    format      ascii;
    class       volScalarField;
    location    "0.00326";
    object      rho;
}
// * * * * * * * * * * * * * * * * * * * * * * * * * * * * * * * * * * * * * //

dimensions      [1 -3 0 0 0 0 0];

internalField   nonuniform List<scalar> 
5000
(
0.87798115
0.87800879
0.87803828
0.87807769
0.87810762
0.87814693
0.87817695
0.87821621
0.87824619
0.87828541
0.87831536
0.87835454
0.87838447
0.87842363
0.87845354
0.87849268
0.87852257
0.87856168
0.87859155
0.87863064
0.87866049
0.87869954
0.87872938
0.8787684
0.87879821
0.8788372
0.87886698
0.87890593
0.87893569
0.87897461
0.87900433
0.87904322
0.87907292
0.87911176
0.87914143
0.87918024
0.87920988
0.87924865
0.87927826
0.87931699
0.87934657
0.87938526
0.87941481
0.87945346
0.87948298
0.87952159
0.87955109
0.87958966
0.87961912
0.87965765
0.87968708
0.87972557
0.87975497
0.87979343
0.8798228
0.87986121
0.87989055
0.87992892
0.87995823
0.87999657
0.88002585
0.88006414
0.88009339
0.88013165
0.88016087
0.88019909
0.88022828
0.88026645
0.88029562
0.88033375
0.88036288
0.88040098
0.88043009
0.88046815
0.88049722
0.88053524
0.88056428
0.88060226
0.88063127
0.88066922
0.8806982
0.8807361
0.88076505
0.88080292
0.88083184
0.88086966
0.88089856
0.88093634
0.8809652
0.88100295
0.88103179
0.8810695
0.8810983
0.88113597
0.88116474
0.88120237
0.88123112
0.88126871
0.88129742
0.88133498
0.88136366
0.88140118
0.88142983
0.88146731
0.88149594
0.88153338
0.88156197
0.88159937
0.88162794
0.8816653
0.88169384
0.88173116
0.88175967
0.88179695
0.88182543
0.88186268
0.88189113
0.88192834
0.88195676
0.88199393
0.88202232
0.88205945
0.88208781
0.88212491
0.88215324
0.8821903
0.8822186
0.88225562
0.8822839
0.88232088
0.88234911
0.88238606
0.88241432
0.8824511
0.8824795
0.88251604
0.88254467
0.88258087
0.88260979
0.88264561
0.88267488
0.88271026
0.88273992
0.88277482
0.88280491
0.88283929
0.88286987
0.88290367
0.88293478
0.88296795
0.88299965
0.88303214
0.88306449
0.88309624
0.88312928
0.88316024
0.88319403
0.88322417
0.8832587
0.88328806
0.88332327
0.88335194
0.88338769
0.88341585
0.88345195
0.88347979
0.88351603
0.88354375
0.88358
0.88360768
0.88364389
0.88367154
0.88370771
0.88373534
0.88377147
0.88379906
0.88383516
0.88386273
0.88389878
0.88392632
0.88396234
0.88398985
0.88402583
0.88405331
0.88408926
0.88411671
0.88415262
0.88418004
0.88421591
0.8842433
0.88427914
0.8843065
0.8843423
0.88436963
0.88440539
0.8844327
0.88446842
0.8844957
0.88453138
0.88455863
0.88459428
0.8846215
0.8846571
0.8846843
0.88471987
0.88474703
0.88478256
0.8848097
0.8848452
0.8848723
0.88490776
0.88493484
0.88497026
0.88499731
0.88503269
0.88505971
0.88509505
0.88512205
0.88515735
0.88518432
0.88521959
0.88524652
0.88528175
0.88530866
0.88534385
0.88537073
0.88540589
0.88543274
0.88546785
0.88549468
0.88552976
0.88555655
0.88559159
0.88561835
0.88565336
0.88568009
0.88571506
0.88574177
0.8857767
0.88580337
0.88583826
0.88586491
0.88589977
0.88592639
0.8859612
0.88598779
0.88602257
0.88604913
0.88608387
0.88611041
0.88614511
0.88617161
0.88620628
0.88623276
0.88626738
0.88629383
0.88632842
0.88635484
0.88638939
0.88641578
0.88645029
0.88647665
0.88651113
0.88653746
0.8865719
0.88659821
0.88663261
0.88665888
0.88669325
0.88671949
0.88675382
0.88678004
0.88681432
0.88684051
0.88687477
0.88690093
0.88693514
0.88696127
0.88699545
0.88702155
0.88705569
0.88708176
0.88711587
0.88714191
0.88717598
0.88720199
0.88723602
0.88726201
0.887296
0.88732196
0.88735592
0.88738185
0.88741577
0.88744167
0.88747555
0.88750143
0.88753527
0.88756112
0.88759493
0.88762075
0.88765452
0.88768031
0.88771405
0.88773982
0.88777351
0.88779925
0.88783292
0.88785863
0.88789225
0.88791794
0.88795153
0.88797719
0.88801074
0.88803637
0.88806989
0.8880955
0.88812898
0.88815456
0.88818801
0.88821356
0.88824697
0.8882725
0.88830588
0.88833138
0.88836473
0.8883902
0.88842351
0.88844896
0.88848224
0.88850766
0.8885409
0.8885663
0.88859951
0.88862488
0.88865806
0.88868341
0.88871656
0.88874188
0.88877499
0.88880029
0.88883337
0.88885865
0.8888917
0.88891695
0.88894997
0.8889752
0.88900819
0.88903339
0.88906636
0.88909153
0.88912447
0.88914963
0.88918253
0.88920767
0.88924054
0.88926566
0.88929851
0.8893236
0.88935642
0.88938149
0.88941429
0.88943934
0.88947211
0.88949714
0.88952989
0.8895549
0.88958762
0.88961262
0.88964531
0.88967029
0.88970296
0.88972792
0.88976057
0.88978551
0.88981814
0.88984306
0.88987567
0.88990058
0.88993316
0.88995806
0.88999062
0.8900155
0.89004805
0.89007291
0.89010544
0.89013028
0.8901628
0.89018763
0.89022012
0.89024494
0.89027742
0.89030223
0.89033469
0.89035949
0.89039194
0.89041672
0.89044916
0.89047393
0.89050635
0.89053112
0.89056352
0.89058828
0.89062068
0.89064542
0.89067781
0.89070255
0.89073492
0.89075965
0.89079201
0.89081674
0.89084909
0.89087381
0.89090616
0.89093087
0.89096321
0.89098792
0.89102025
0.89104495
0.89107728
0.89110197
0.89113429
0.89115898
0.8911913
0.89121599
0.8912483
0.89127298
0.89130529
0.89132997
0.89136228
0.89138696
0.89141926
0.89144393
0.89147623
0.89150091
0.8915332
0.89155788
0.89159017
0.89161484
0.89164714
0.89167181
0.8917041
0.89172877
0.89176106
0.89178573
0.89181802
0.89184268
0.89187497
0.89189964
0.89193193
0.89195659
0.89198888
0.89201354
0.89204583
0.89207049
0.89210278
0.89212744
0.89215972
0.89218438
0.89221666
0.89224133
0.8922736
0.89229826
0.89233054
0.8923552
0.89238747
0.89241212
0.89244439
0.89246905
0.89250131
0.89252596
0.89255822
0.89258287
0.89261513
0.89263977
0.89267202
0.89269666
0.8927289
0.89275354
0.89278578
0.89281041
0.89284264
0.89286726
0.89289948
0.8929241
0.89295631
0.89298092
0.89301313
0.89303773
0.89306992
0.89309452
0.8931267
0.89315128
0.89318345
0.89320803
0.89324019
0.89326475
0.89329689
0.89332145
0.89335358
0.89337812
0.89341023
0.89343476
0.89346686
0.89349137
0.89352345
0.89354795
0.89358001
0.8936045
0.89363653
0.89366101
0.89369303
0.89371748
0.89374947
0.89377392
0.89380589
0.89383031
0.89386226
0.89388666
0.89391859
0.89394298
0.89397486
0.89399923
0.89403111
0.89405548
0.89408717
0.89411183
0.89414308
0.89416822
0.89419886
0.89422459
0.89425458
0.89428091
0.89431026
0.89433714
0.89436593
0.89439326
0.8944216
0.89444926
0.89447726
0.89450516
0.8945329
0.89456096
0.89458852
0.89461666
0.8946441
0.89467228
0.89469963
0.89472783
0.8947551
0.8947833
0.89481052
0.8948387
0.89486587
0.89489404
0.89492115
0.8949493
0.89497637
0.89500448
0.89503153
0.89505959
0.89508662
0.89511461
0.89514165
0.89516956
0.89519662
0.89522443
0.89525152
0.89527922
0.89530635
0.89533393
0.8953611
0.89538857
0.89541578
0.89544314
0.89547038
0.89549763
0.89552489
0.89555206
0.89557933
0.89560641
0.89563368
0.89566069
0.89568795
0.8957149
0.89574214
0.89576904
0.89579625
0.89582309
0.89585028
0.89587707
0.89590423
0.89593098
0.8959581
0.8959848
0.89601189
0.89603855
0.89606559
0.89609222
0.89611922
0.89614581
0.89617277
0.89619931
0.89622624
0.89625274
0.89627963
0.89630609
0.89633294
0.89635936
0.89638617
0.89641255
0.89643932
0.89646566
0.89649239
0.89651868
0.89654537
0.89657163
0.89659828
0.8966245
0.89665111
0.89667729
0.89670385
0.89672999
0.89675652
0.89678262
0.8968091
0.89683516
0.89686161
0.89688763
0.89691403
0.89694001
0.89696637
0.89699231
0.89701864
0.89704453
0.89707082
0.89709667
0.89712292
0.89714873
0.89717494
0.89720071
0.89722688
0.89725261
0.89727874
0.89730443
0.89733051
0.89735617
0.89738221
0.89740783
0.89743383
0.89745941
0.89748537
0.8975109
0.89753682
0.89756232
0.8975882
0.89761365
0.8976395
0.89766491
0.89769071
0.89771608
0.89774185
0.89776718
0.89779291
0.89781819
0.89784388
0.89786913
0.89789478
0.89791998
0.89794559
0.89797075
0.89799633
0.89802145
0.89804698
0.89807206
0.89809756
0.89812259
0.89814805
0.89817305
0.89819847
0.89822342
0.8982488
0.89827372
0.89829906
0.89832393
0.89834924
0.89837406
0.89839934
0.89842412
0.89844935
0.89847409
0.89849929
0.89852398
0.89854915
0.8985738
0.89859893
0.89862354
0.89864862
0.89867321
0.89869823
0.8987228
0.89874776
0.89877231
0.8987972
0.89882174
0.89884657
0.89887109
0.89889586
0.89892037
0.89894506
0.89896956
0.8989942
0.89901867
0.89904325
0.89906771
0.89909223
0.89911666
0.89914113
0.89916553
0.89918995
0.89921432
0.89923869
0.89926303
0.89928736
0.89931166
0.89933595
0.89936021
0.89938446
0.89940868
0.89943289
0.89945707
0.89948124
0.89950539
0.89952951
0.89955362
0.89957771
0.89960178
0.89962583
0.89964986
0.89967387
0.89969786
0.89972183
0.89974578
0.89976971
0.89979363
0.89981752
0.89984139
0.89986525
0.89988908
0.89991289
0.89993669
0.89996047
0.89998422
0.90000796
0.90003168
0.90005537
0.90007905
0.90010271
0.90012635
0.90014997
0.90017357
0.90019716
0.90022072
0.90024426
0.90026779
0.90029129
0.90031478
0.90033824
0.90036169
0.90038512
0.90040853
0.90043192
0.90045529
0.90047864
0.90050197
0.90052528
0.90054857
0.90057185
0.9005951
0.90061834
0.90064156
0.90066476
0.90068793
0.90071109
0.90073423
0.90075736
0.90078046
0.90080354
0.90082661
0.90084965
0.90087268
0.90089569
0.90091868
0.90094165
0.9009646
0.90098754
0.90101045
0.90103335
0.90105622
0.90107908
0.90110192
0.90112474
0.90114754
0.90117033
0.90119309
0.90121584
0.90123857
0.90126128
0.90128397
0.90130664
0.90132929
0.90135193
0.90137454
0.90139714
0.90141973
0.90144229
0.90146483
0.90148736
0.90150986
0.90153235
0.90155482
0.90157727
0.9015997
0.90162212
0.90164452
0.9016669
0.90168926
0.9017116
0.90173393
0.90175624
0.90177853
0.9018008
0.90182305
0.90184528
0.90186749
0.90188969
0.90191187
0.90193403
0.90195618
0.90197831
0.90200042
0.90202251
0.90204459
0.90206664
0.90208868
0.9021107
0.9021327
0.90215468
0.90217665
0.9021986
0.90222052
0.90224244
0.90226433
0.90228621
0.90230807
0.90232992
0.90235175
0.90237356
0.90239535
0.90241713
0.90243889
0.90246063
0.90248235
0.90250405
0.90252573
0.9025474
0.90256905
0.90259068
0.90261229
0.90263389
0.90265546
0.90267703
0.90269857
0.9027201
0.90274161
0.90276311
0.90278459
0.90280605
0.9028275
0.90284893
0.90287034
0.90289174
0.90291312
0.90293448
0.90295583
0.90297716
0.90299847
0.90301976
0.90304103
0.90306229
0.90308353
0.90310475
0.90312595
0.90314714
0.9031683
0.90318945
0.90321058
0.9032317
0.90325279
0.90327387
0.90329494
0.90331598
0.90333701
0.90335802
0.90337901
0.90339999
0.90342095
0.90344189
0.90346282
0.90348373
0.90350462
0.9035255
0.90354636
0.9035672
0.90358804
0.90360885
0.90362966
0.90365045
0.90367122
0.90369198
0.90371272
0.90373344
0.90375415
0.90377485
0.90379553
0.9038162
0.90383685
0.90385749
0.90387811
0.90389871
0.9039193
0.90393987
0.90396043
0.90398098
0.9040015
0.90402202
0.90404251
0.904063
0.90408346
0.90410391
0.90412435
0.90414477
0.90416517
0.90418556
0.90420593
0.90422629
0.90424663
0.90426696
0.90428726
0.90430755
0.90432783
0.90434808
0.90436833
0.90438855
0.90440876
0.90442896
0.90444914
0.9044693
0.90448944
0.90450957
0.90452968
0.90454977
0.90456984
0.90458989
0.90460992
0.90462994
0.90464994
0.90466992
0.90468988
0.90470982
0.90472975
0.90474966
0.90476955
0.90478942
0.90480927
0.90482911
0.90484893
0.90486873
0.90488851
0.90490827
0.90492801
0.90494774
0.90496744
0.90498713
0.9050068
0.90502645
0.90504608
0.9050657
0.90508529
0.90510487
0.90512443
0.90514397
0.90516349
0.90518299
0.90520247
0.90522194
0.90524139
0.90526081
0.90528023
0.90529962
0.90531899
0.90533834
0.90535768
0.90537699
0.90539629
0.90541557
0.90543482
0.90545406
0.90547328
0.90549249
0.90551167
0.90553083
0.90554998
0.90556911
0.90558822
0.90560731
0.90562638
0.90564544
0.90566447
0.90568349
0.90570249
0.90572147
0.90574043
0.90575937
0.90577829
0.9057972
0.90581608
0.90583495
0.9058538
0.90587263
0.90589145
0.90591024
0.90592902
0.90594778
0.90596651
0.90598523
0.90600393
0.9060226
0.90604126
0.90605991
0.90607854
0.90609715
0.90611574
0.90613432
0.90615287
0.90617141
0.90618993
0.90620843
0.90622691
0.90624537
0.90626381
0.90628224
0.90630065
0.90631904
0.90633742
0.90635578
0.90637412
0.90639244
0.90641074
0.90642903
0.9064473
0.90646554
0.90648378
0.906502
0.9065202
0.90653838
0.90655655
0.9065747
0.90659283
0.90661094
0.90662903
0.90664711
0.90666517
0.90668322
0.90670126
0.90671928
0.90673729
0.90675528
0.90677326
0.90679122
0.90680916
0.90682709
0.906845
0.9068629
0.90688078
0.90689864
0.90691649
0.90693433
0.90695215
0.90696995
0.90698774
0.90700551
0.90702326
0.907041
0.90705872
0.90707643
0.90709412
0.9071118
0.90712947
0.90714712
0.90716476
0.90718239
0.90720001
0.9072176
0.90723519
0.90725275
0.9072703
0.90728783
0.90730534
0.90732284
0.90734032
0.90735778
0.90737523
0.90739267
0.90741009
0.9074275
0.90744489
0.90746227
0.90747963
0.90749698
0.9075143
0.90753162
0.90754891
0.90756619
0.90758345
0.90760069
0.90761792
0.90763513
0.90765233
0.90766952
0.90768668
0.90770384
0.90772097
0.9077381
0.9077552
0.90777229
0.90778937
0.90780643
0.90782347
0.90784049
0.9078575
0.90787449
0.90789146
0.90790841
0.90792535
0.90794227
0.90795917
0.90797606
0.90799293
0.90800978
0.90802662
0.90804343
0.90806024
0.90807702
0.90809379
0.90811054
0.90812727
0.90814398
0.90816069
0.90817737
0.90819404
0.90821069
0.90822733
0.90824395
0.90826056
0.90827714
0.90829371
0.90831026
0.9083268
0.90834331
0.90835981
0.90837629
0.90839276
0.90840922
0.90842566
0.90844208
0.90845848
0.90847487
0.90849124
0.90850759
0.90852393
0.90854024
0.90855654
0.90857281
0.90858907
0.90860532
0.90862154
0.90863776
0.90865396
0.90867014
0.90868631
0.90870246
0.9087186
0.90873471
0.90875081
0.90876689
0.90878294
0.90879898
0.90881501
0.90883101
0.90884701
0.90886298
0.90887895
0.90889489
0.90891082
0.90892673
0.90894262
0.90895849
0.90897434
0.90899017
0.90900598
0.90902178
0.90903756
0.90905333
0.90906908
0.90908481
0.90910053
0.90911623
0.90913192
0.90914758
0.90916323
0.90917885
0.90919446
0.90921005
0.90922563
0.90924118
0.90925672
0.90927225
0.90928776
0.90930325
0.90931873
0.90933419
0.90934963
0.90936505
0.90938046
0.90939585
0.90941122
0.90942657
0.90944191
0.90945723
0.90947253
0.90948782
0.90950309
0.90951835
0.90953359
0.90954881
0.90956402
0.90957921
0.90959439
0.90960954
0.90962469
0.90963981
0.90965492
0.90967002
0.90968509
0.90970016
0.9097152
0.90973024
0.90974525
0.90976025
0.90977524
0.90979021
0.90980516
0.9098201
0.90983503
0.90984993
0.90986483
0.90987971
0.90989457
0.90990942
0.90992425
0.90993908
0.90995388
0.90996868
0.90998344
0.90999821
0.91001295
0.91002769
0.9100424
0.9100571
0.91007179
0.91008645
0.91010111
0.91011574
0.91013038
0.91014497
0.91015958
0.91017414
0.91018873
0.91020325
0.91021781
0.9102323
0.91024683
0.9102613
0.91027579
0.91029023
0.91030469
0.91031911
0.91033353
0.91034792
0.9103623
0.91037667
0.91039102
0.91040536
0.91041966
0.91043398
0.91044825
0.91046254
0.91047678
0.91049104
0.91050525
0.91051948
0.91053366
0.91054785
0.910562
0.91057616
0.91059029
0.91060441
0.91061851
0.9106326
0.91064667
0.91066072
0.91067476
0.91068878
0.9107028
0.91071677
0.91073076
0.91074471
0.91075867
0.91077258
0.91078651
0.9108004
0.91081429
0.91082815
0.910842
0.91085584
0.91086966
0.91088346
0.91089725
0.91091103
0.91092478
0.91093853
0.91095224
0.91096597
0.91097965
0.91099334
0.91100699
0.91102065
0.91103427
0.9110479
0.91106149
0.91107508
0.91108864
0.9111022
0.91111574
0.91112926
0.91114277
0.91115625
0.91116973
0.91118318
0.91119663
0.91121005
0.91122347
0.91123686
0.91125025
0.91126361
0.91127696
0.91129029
0.9113036
0.91131691
0.91133019
0.91134346
0.91135671
0.91136996
0.91138317
0.91139639
0.91140957
0.91142275
0.9114359
0.91144905
0.91146217
0.91147528
0.91148837
0.91150145
0.9115145
0.91152755
0.91154058
0.91155359
0.91156658
0.91157956
0.91159252
0.91160547
0.9116184
0.91163131
0.91164421
0.91165709
0.91166996
0.9116828
0.91169564
0.91170845
0.91172125
0.91173403
0.9117468
0.91175955
0.91177229
0.91178501
0.91179771
0.91181039
0.91182307
0.91183572
0.91184836
0.91186098
0.91187358
0.91188617
0.91189875
0.9119113
0.91192384
0.91193637
0.91194888
0.91196137
0.91197385
0.91198631
0.91199875
0.91201118
0.9120236
0.91203599
0.91204838
0.91206075
0.9120731
0.91208543
0.91209776
0.91211006
0.91212235
0.91213462
0.91214688
0.91215912
0.91217135
0.91218356
0.91219575
0.91220793
0.9122201
0.91223224
0.91224437
0.91225649
0.91226858
0.91228067
0.91229273
0.91230479
0.91231682
0.91232885
0.91234085
0.91235284
0.91236482
0.91237677
0.91238872
0.91240065
0.91241255
0.91242446
0.91243633
0.9124482
0.91246005
0.91247188
0.91248371
0.9124955
0.9125073
0.91251906
0.91253082
0.91254256
0.91255427
0.91256599
0.91257766
0.91258934
0.91260099
0.91261263
0.91262426
0.91263586
0.91264747
0.91265904
0.91267061
0.91268215
0.91269368
0.91270519
0.91271668
0.91272817
0.91273961
0.91275107
0.91276248
0.9127739
0.9127853
0.91279666
0.91280805
0.91281937
0.91283073
0.91284202
0.91285333
0.9128646
0.91287588
0.91288712
0.91289836
0.91290957
0.91292079
0.91293195
0.91294314
0.91295426
0.91296543
0.91297652
0.91298765
0.91299872
0.91300981
0.91302085
0.91303191
0.91304292
0.91305394
0.91306492
0.9130759
0.91308685
0.9130978
0.91310871
0.91311962
0.91313051
0.91314138
0.91315224
0.91316308
0.91317392
0.91318473
0.91319553
0.91320632
0.91321709
0.91322785
0.91323858
0.9132493
0.91326001
0.9132707
0.91328138
0.91329203
0.91330268
0.9133133
0.91332392
0.91333451
0.91334509
0.91335565
0.91336621
0.91337673
0.91338726
0.91339775
0.91340825
0.91341871
0.91342918
0.91343961
0.91345004
0.91346045
0.91347084
0.91348122
0.91349158
0.91350193
0.91351226
0.91352258
0.91353288
0.91354317
0.91355345
0.9135637
0.91357395
0.91358417
0.91359438
0.91360458
0.91361476
0.91362493
0.91363508
0.91364522
0.91365534
0.91366545
0.91367554
0.91368562
0.91369569
0.91370574
0.91371577
0.91372579
0.91373579
0.91374577
0.91375574
0.91376569
0.91377563
0.91378556
0.91379546
0.91380536
0.91381524
0.91382511
0.91383496
0.9138448
0.91385462
0.91386443
0.91387422
0.91388401
0.91389377
0.91390353
0.91391327
0.91392299
0.9139327
0.91394239
0.91395207
0.91396173
0.91397137
0.91398101
0.91399063
0.91400023
0.91400983
0.91401941
0.91402897
0.91403852
0.91404806
0.91405758
0.91406709
0.91407659
0.91408607
0.91409553
0.91410498
0.91411442
0.91412384
0.91413325
0.91414264
0.91415202
0.91416138
0.91417073
0.91418006
0.91418938
0.91419869
0.91420798
0.91421726
0.91422652
0.91423578
0.91424502
0.91425424
0.91426345
0.91427264
0.91428182
0.91429098
0.91430013
0.91430926
0.91431838
0.91432748
0.91433657
0.91434564
0.9143547
0.91436375
0.91437278
0.9143818
0.9143908
0.91439979
0.91440877
0.91441773
0.91442667
0.9144356
0.91444451
0.91445341
0.91446229
0.91447115
0.91448
0.91448884
0.91449766
0.91450647
0.91451526
0.91452404
0.91453281
0.91454156
0.9145503
0.91455902
0.91456772
0.91457641
0.91458508
0.91459374
0.91460238
0.914611
0.91461961
0.91462821
0.91463679
0.91464535
0.91465391
0.91466244
0.91467096
0.91467947
0.91468796
0.91469644
0.9147049
0.91471335
0.91472179
0.9147302
0.91473861
0.914747
0.91475537
0.91476373
0.91477207
0.9147804
0.91478872
0.91479701
0.9148053
0.91481356
0.91482181
0.91483005
0.91483827
0.91484648
0.91485467
0.91486285
0.91487101
0.91487916
0.9148873
0.91489542
0.91490353
0.91491162
0.91491969
0.91492775
0.9149358
0.91494383
0.91495185
0.91495985
0.91496784
0.91497582
0.91498378
0.91499172
0.91499965
0.91500757
0.91501547
0.91502336
0.91503123
0.91503909
0.91504693
0.91505476
0.91506258
0.91507038
0.91507817
0.91508593
0.91509369
0.91510143
0.91510916
0.91511687
0.91512457
0.91513225
0.91513993
0.91514758
0.91515522
0.91516285
0.91517046
0.91517806
0.91518565
0.91519322
0.91520078
0.91520833
0.91521586
0.91522337
0.91523087
0.91523836
0.91524583
0.91525329
0.91526074
0.91526817
0.91527558
0.91528298
0.91529037
0.91529774
0.9153051
0.91531245
0.91531979
0.91532711
0.91533441
0.9153417
0.91534898
0.91535624
0.91536349
0.91537073
0.91537795
0.91538516
0.91539236
0.91539954
0.91540671
0.91541386
0.91542101
0.91542814
0.91543525
0.91544235
0.91544944
0.91545652
0.91546357
0.91547062
0.91547765
0.91548468
0.91549169
0.91549868
0.91550566
0.91551263
0.91551958
0.91552652
0.91553344
0.91554036
0.91554726
0.91555415
0.91556102
0.91556789
0.91557474
0.91558157
0.9155884
0.91559521
0.91560201
0.9156088
0.91561558
0.91562234
0.91562909
0.91563582
0.91564254
0.91564924
0.91565594
0.91566262
0.91566929
0.91567594
0.91568258
0.91568921
0.91569582
0.91570242
0.91570901
0.91571559
0.91572215
0.9157287
0.91573524
0.91574176
0.91574826
0.91575476
0.91576124
0.91576771
0.91577417
0.91578061
0.91578705
0.91579346
0.91579987
0.91580626
0.91581264
0.915819
0.91582535
0.91583168
0.915838
0.9158443
0.91585059
0.91585687
0.91586313
0.91586938
0.91587562
0.91588184
0.91588805
0.91589424
0.91590042
0.91590658
0.91591274
0.91591888
0.915925
0.91593111
0.91593721
0.91594329
0.91594936
0.91595542
0.91596146
0.91596749
0.9159735
0.9159795
0.91598548
0.91599144
0.91599739
0.91600333
0.91600926
0.91601517
0.91602106
0.91602694
0.91603281
0.91603866
0.9160445
0.91605033
0.91605614
0.91606194
0.91606773
0.9160735
0.91607925
0.91608499
0.91609071
0.91609642
0.91610212
0.9161078
0.91611347
0.91611912
0.91612476
0.91613038
0.91613599
0.91614158
0.91614716
0.91615273
0.91615828
0.91616382
0.91616934
0.91617485
0.91618034
0.91618582
0.91619128
0.91619673
0.91620216
0.91620758
0.91621299
0.91621839
0.91622376
0.91622913
0.91623448
0.91623981
0.91624514
0.91625044
0.91625574
0.91626101
0.91626628
0.91627153
0.91627677
0.91628199
0.9162872
0.9162924
0.91629758
0.91630274
0.91630789
0.91631303
0.91631815
0.91632325
0.91632835
0.91633343
0.91633849
0.91634354
0.91634858
0.9163536
0.91635861
0.91636361
0.91636859
0.91637356
0.91637852
0.91638346
0.91638838
0.9163933
0.91639819
0.91640307
0.91640794
0.9164128
0.91641764
0.91642247
0.91642728
0.91643208
0.91643687
0.91644164
0.9164464
0.91645114
0.91645588
0.9164606
0.9164653
0.91646999
0.91647467
0.91647933
0.91648397
0.9164886
0.91649322
0.91649783
0.91650242
0.916507
0.91651157
0.91651613
0.91652067
0.91652519
0.91652971
0.91653421
0.91653869
0.91654316
0.91654763
0.91655207
0.91655651
0.91656093
0.91656534
0.91656973
0.91657411
0.91657848
0.91658283
0.91658717
0.9165915
0.91659581
0.91660011
0.9166044
0.91660868
0.91661294
0.91661719
0.91662143
0.91662566
0.91662987
0.91663407
0.91663826
0.91664243
0.91664659
0.91665074
0.91665487
0.91665899
0.9166631
0.9166672
0.91667129
0.91667536
0.91667942
0.91668347
0.9166875
0.91669152
0.91669552
0.91669952
0.9167035
0.91670747
0.91671142
0.91671536
0.91671929
0.9167232
0.9167271
0.91673099
0.91673487
0.91673873
0.91674258
0.91674642
0.91675024
0.91675405
0.91675785
0.91676163
0.91676541
0.91676917
0.91677291
0.91677665
0.91678037
0.91678408
0.91678777
0.91679145
0.91679512
0.91679877
0.91680241
0.91680604
0.91680965
0.91681325
0.91681684
0.91682041
0.91682397
0.91682752
0.91683105
0.91683457
0.91683808
0.91684157
0.91684505
0.91684851
0.91685196
0.9168554
0.91685882
0.91686223
0.91686562
0.916869
0.91687236
0.91687571
0.91687905
0.91688237
0.91688568
0.91688898
0.91689226
0.91689554
0.91689879
0.91690204
0.91690527
0.91690848
0.91691168
0.91691487
0.91691805
0.9169212
0.91692435
0.91692748
0.91693061
0.91693371
0.9169368
0.91693988
0.91694294
0.91694598
0.91694901
0.91695203
0.91695503
0.91695802
0.91696099
0.91696395
0.91696689
0.91696983
0.91697274
0.91697565
0.91697854
0.91698141
0.91698428
0.91698712
0.91698996
0.91699278
0.91699558
0.91699837
0.91700115
0.91700391
0.91700666
0.9170094
0.91701212
0.91701482
0.91701752
0.91702019
0.91702286
0.9170255
0.91702814
0.91703075
0.91703336
0.91703595
0.91703852
0.91704109
0.91704363
0.91704617
0.91704868
0.91705119
0.91705368
0.91705615
0.91705861
0.91706105
0.91706349
0.9170659
0.9170683
0.91707069
0.91707307
0.91707543
0.91707778
0.91708011
0.91708243
0.91708473
0.91708702
0.9170893
0.91709156
0.9170938
0.91709604
0.91709826
0.91710046
0.91710265
0.91710483
0.917107
0.91710915
0.91711128
0.91711341
0.91711552
0.91711761
0.91711969
0.91712176
0.91712381
0.91712585
0.91712788
0.91712989
0.91713188
0.91713387
0.91713584
0.91713779
0.91713973
0.91714166
0.91714358
0.91714548
0.91714736
0.91714924
0.9171511
0.91715294
0.91715478
0.9171566
0.9171584
0.9171602
0.91716198
0.91716375
0.9171655
0.91716724
0.91716897
0.91717068
0.91717238
0.91717406
0.91717574
0.91717739
0.91717904
0.91718067
0.91718229
0.91718389
0.91718548
0.91718706
0.91718863
0.91719018
0.91719172
0.91719324
0.91719474
0.91719624
0.91719772
0.91719918
0.91720063
0.91720207
0.9172035
0.91720491
0.91720631
0.91720769
0.91720906
0.91721041
0.91721175
0.91721308
0.91721439
0.91721568
0.91721696
0.91721823
0.91721948
0.91722071
0.91722193
0.91722313
0.91722432
0.91722549
0.91722665
0.91722779
0.91722892
0.91723002
0.91723112
0.91723219
0.91723325
0.91723429
0.91723531
0.91723632
0.91723731
0.91723828
0.91723924
0.91724018
0.91724111
0.91724201
0.91724291
0.91724377
0.91724463
0.91724546
0.91724627
0.91724706
0.91724783
0.91724858
0.91724931
0.91725002
0.9172507
0.91725137
0.917252
0.91725262
0.91725321
0.91725378
0.91725433
0.91725485
0.91725535
0.91725582
0.91725627
0.9172567
0.9172571
0.91725747
0.91725782
0.91725814
0.91725843
0.91725869
0.91725893
0.91725913
0.91725931
0.91725945
0.91725956
0.91725964
0.91725969
0.9172597
0.91725967
0.91725961
0.91725951
0.91725938
0.9172592
0.91725899
0.91725873
0.91725844
0.9172581
0.91725772
0.91725729
0.91725682
0.9172563
0.91725574
0.91725512
0.91725446
0.91725375
0.91725299
0.91725217
0.9172513
0.91725037
0.91724939
0.91724835
0.91724725
0.91724609
0.91724487
0.91724358
0.91724222
0.9172408
0.9172393
0.91723774
0.9172361
0.91723439
0.9172326
0.91723073
0.91722879
0.91722676
0.91722465
0.91722245
0.91722017
0.91721779
0.91721533
0.91721277
0.91721011
0.91720736
0.91720451
0.91720156
0.9171985
0.91719534
0.91719207
0.91718869
0.9171852
0.9171816
0.91717788
0.91717403
0.91717007
0.91716598
0.91716176
0.91715742
0.91715294
0.91714833
0.91714359
0.91713871
0.91713368
0.91712852
0.91712321
0.91711775
0.91711214
0.91710638
0.91710047
0.91709439
0.91708816
0.91708177
0.91707521
0.91706848
0.91706159
0.91705453
0.9170473
0.91703989
0.9170323
0.91702454
0.91701659
0.91700847
0.91700015
0.91699166
0.91698297
0.91697409
0.91696502
0.91695576
0.9169463
0.91693665
0.9169268
0.91691675
0.9169065
0.91689605
0.9168854
0.91687455
0.91686349
0.91685222
0.91684075
0.91682908
0.91681719
0.9168051
0.91679279
0.91678028
0.91676756
0.91675463
0.91674149
0.91672814
0.91671458
0.91670081
0.91668684
0.91667266
0.91665827
0.91664368
0.91662889
0.91661389
0.91659869
0.91658329
0.91656769
0.9165519
0.9165359
0.91651972
0.91650334
0.91648677
0.91647001
0.91645307
0.91643594
0.91641863
0.91640113
0.91638346
0.91636562
0.9163476
0.91632942
0.91631107
0.91629257
0.9162739
0.91625508
0.91623612
0.916217
0.91619774
0.91617834
0.91615881
0.91613914
0.91611934
0.91609942
0.91607938
0.91605922
0.91603895
0.91601858
0.91599811
0.91597754
0.91595687
0.91593613
0.9159153
0.91589439
0.91587341
0.91585236
0.91583125
0.91581009
0.91578887
0.9157676
0.91574629
0.91572494
0.91570356
0.91568215
0.91566072
0.91563927
0.91561781
0.91559635
0.91557489
0.91555342
0.91553197
0.91551053
0.91548911
0.91546772
0.91544634
0.91542501
0.9154037
0.91538245
0.91536124
0.91534007
0.91531897
0.91529793
0.91527695
0.91525604
0.9152352
0.91521444
0.91519377
0.91517317
0.91515267
0.91513226
0.91511195
0.91509174
0.91507163
0.91505163
0.91503174
0.91501196
0.91499229
0.91497275
0.91495332
0.91493402
0.91491485
0.9148958
0.91487689
0.91485811
0.91483946
0.91482095
0.91480258
0.91478435
0.91476625
0.91474831
0.91473051
0.91471285
0.91469534
0.91467797
0.91466076
0.91464369
0.91462677
0.91461001
0.91459338
0.91457692
0.9145606
0.91454443
0.91452841
0.91451254
0.91449681
0.91448125
0.91446579
0.91445054
0.91443537
0.91442041
0.91440553
0.91439085
0.91437627
0.91436185
0.91434756
0.91433339
0.91431941
0.91430549
0.91429177
0.91427814
0.91426464
0.9142513
0.91423803
0.91422495
0.91421194
0.91419906
0.91418632
0.91417366
0.91416115
0.91414873
0.91413642
0.91412423
0.91411212
0.91410014
0.91408824
0.91407643
0.91406474
0.91405312
0.91404159
0.91403017
0.9140188
0.91400754
0.91399636
0.91398524
0.91397421
0.91396326
0.91395235
0.91394155
0.91393079
0.91392009
0.91390948
0.91389891
0.9138884
0.91387796
0.91386755
0.9138572
0.91384691
0.91383666
0.91382645
0.9138163
0.91380617
0.9137961
0.91378606
0.91377604
0.91376606
0.91375613
0.9137462
0.91373631
0.91372646
0.91371661
0.9137068
0.91369701
0.91368723
0.91367747
0.91366773
0.913658
0.91364828
0.91363858
0.91362889
0.9136192
0.91360952
0.91359985
0.91359018
0.91358052
0.91357086
0.91356119
0.91355153
0.91354186
0.91353219
0.91352251
0.91351283
0.91350315
0.91349345
0.91348374
0.91347404
0.91346431
0.91345458
0.91344485
0.91343511
0.91342535
0.91341559
0.91340581
0.91339603
0.91338622
0.91337641
0.91336658
0.91335673
0.91334685
0.91333696
0.91332704
0.91331709
0.91330713
0.91329715
0.91328714
0.91327711
0.91326707
0.91325701
0.91324693
0.91323683
0.9132267
0.91321655
0.91320637
0.91319617
0.91318593
0.91317566
0.91316537
0.91315505
0.91314472
0.91313435
0.91312397
0.91311356
0.91310312
0.91309265
0.91308215
0.91307162
0.91306105
0.91305046
0.91303985
0.91302921
0.91301855
0.91300786
0.91299714
0.9129864
0.91297562
0.91296482
0.91295397
0.91294311
0.91293221
0.91292129
0.91291034
0.91289937
0.91288837
0.91287734
0.91286628
0.91285518
0.91284406
0.9128329
0.91282172
0.91281052
0.91279929
0.91278804
0.91277675
0.91276544
0.91275409
0.91274272
0.91273133
0.91271991
0.91270847
0.912697
0.91268551
0.91267398
0.91266243
0.91265085
0.91263925
0.91262762
0.91261597
0.91260429
0.91259258
0.91258084
0.91256908
0.91255728
0.91254546
0.91253361
0.91252174
0.91250984
0.91249791
0.91248595
0.91247397
0.91246196
0.91244992
0.91243786
0.91242577
0.91241366
0.91240153
0.91238936
0.91237717
0.91236496
0.91235273
0.91234047
0.91232819
0.91231588
0.91230355
0.91229121
0.91227884
0.91226644
0.91225402
0.91224159
0.91222913
0.91221665