/*--------------------------------*- C++ -*----------------------------------*\
| =========                 |                                                 |
| \\      /  F ield         | OpenFOAM: The Open Source CFD Toolbox           |
|  \\    /   O peration     | Version:  4.x                                   |
|   \\  /    A nd           | Web:      www.OpenFOAM.org                      |
|    \\/     M anipulation  |                                                 |
\*---------------------------------------------------------------------------*/
FoamFile
{
    version     2.0;
    format      ascii;
    class       surfaceScalarField;
    location    "0.49";
    object      phi;
}
// * * * * * * * * * * * * * * * * * * * * * * * * * * * * * * * * * * * * * //

dimensions      [1 0 -1 0 0 0 0];

internalField   nonuniform List<scalar> 
18092
(
3.543437702e-10
2.800726282e-08
1.459806537e-07
3.873117456e-15
2.800887558e-08
1.459565698e-07
-3.543353826e-10
2.800887376e-08
1.459565693e-07
-7.311439969e-10
2.800726132e-08
1.459806539e-07
-1.159516367e-09
2.800433262e-08
1.460351499e-07
-1.684824208e-09
2.800014187e-08
1.461362797e-07
-2.383260593e-09
2.799739304e-08
1.463121675e-07
2.799237605e-08
1.466248518e-07
-3.389365203e-09
3.491388966e-10
2.232404973e-08
1.796680186e-07
5.543667004e-15
2.232861686e-08
1.796404964e-07
-3.491264273e-10
2.232862161e-08
1.796404976e-07
-7.228317609e-10
2.232405883e-08
1.796680201e-07
-1.153292465e-09
2.231511636e-08
1.797307948e-07
-1.693499051e-09
2.230242562e-08
1.798490531e-07
-2.431766725e-09
2.228789854e-08
1.800588969e-07
2.227561655e-08
1.804424258e-07
-3.546307518e-09
3.854175437e-10
1.359597899e-08
1.827505703e-07
1.012732512e-14
1.359814978e-08
1.827269831e-07
-3.853979809e-10
1.359815356e-08
1.827269825e-07
-7.967943316e-10
1.359599254e-08
1.827505726e-07
-1.267642379e-09
1.359249486e-08
1.828045886e-07
-1.851242967e-09
1.358987466e-08
1.829072811e-07
-2.635478456e-09
1.35912974e-08
1.830919587e-07
1.360471894e-08
1.834343804e-07
-3.787845399e-09
4.052849816e-10
8.365050926e-09
1.792718179e-07
1.402306459e-14
8.36396551e-09
1.792505626e-07
-4.052550694e-10
8.363968109e-09
1.792505623e-07
-8.350265159e-10
8.365059385e-09
1.792718191e-07
-1.321285378e-09
8.368448212e-09
1.793214252e-07
-1.915452919e-09
8.377037009e-09
1.794181248e-07
-2.703572243e-09
8.394718005e-09
1.79595817e-07
8.429344045e-09
1.799289424e-07
-3.846034102e-09
4.123802282e-10
5.370400433e-09
1.770414207e-07
1.695185799e-14
5.36822933e-09
1.770192086e-07
-4.123436791e-10
5.368228937e-09
1.770192078e-07
-8.479952124e-10
5.370395058e-09
1.770414199e-07
-1.337429918e-09
5.375967105e-09
1.770930333e-07
-1.929946526e-09
5.387677435e-09
1.77192988e-07
-2.708747913e-09
5.409097605e-09
1.77375531e-07
5.446191944e-09
1.777157757e-07
-3.830274057e-09
4.115388996e-10
1.757503811e-07
3.664559724e-09
1.670496988e-14
1.757286706e-07
3.662184664e-09
-4.115064553e-10
1.757286712e-07
3.662181669e-09
-8.449375388e-10
1.757503827e-07
3.664553239e-09
-1.329348615e-09
1.758010814e-07
3.670404432e-09
-1.912553055e-09
1.75900105e-07
3.681888706e-09
-2.676397819e-09
1.760823979e-07
3.701649467e-09
1.764250627e-07
3.733372848e-09
-3.777547747e-09
8.814561998e-10
2.819751691e-08
1.186992112e-07
1.475944873e-15
2.820796155e-08
1.186300509e-07
-8.81449372e-10
2.82079626e-08
1.186300525e-07
-1.797528118e-09
2.819751909e-08
1.186992147e-07
-2.789253291e-09
2.817574648e-08
1.188511391e-07
-3.911573932e-09
2.814014515e-08
1.191184687e-07
-5.24676679e-09
2.809095463e-08
1.195564255e-07
2.80152001e-08
1.202783262e-07
-6.915424291e-09
1.315014467e-09
3.063146e-08
1.786029309e-07
1.619052729e-15
3.064349488e-08
1.785199694e-07
-1.315009332e-09
3.064349872e-08
1.785199712e-07
-2.683875067e-09
3.063147527e-08
1.78602937e-07
-4.170295753e-09
3.060693577e-08
1.787860408e-07
-5.860425652e-09
3.056850257e-08
1.791108545e-07
-7.876694121e-09
3.05154952e-08
1.796506511e-07
3.043755205e-08
1.805545602e-07
-1.041116612e-08
1.191070205e-09
2.41669566e-08
1.904583487e-07
-1.022108467e-15
2.417593763e-08
1.903856014e-07
-1.191066588e-09
2.417594291e-08
1.903856029e-07
-2.434331902e-09
2.416697293e-08
1.904583521e-07
-3.792470668e-09
2.414990424e-08
1.906197771e-07
-5.352570096e-09
2.412623088e-08
1.909096689e-07
-7.242779177e-09
2.409745039e-08
1.914002296e-07
2.405428837e-08
1.922468229e-07
-9.671952968e-09
1.170495995e-09
1.752965414e-08
1.871301047e-07
4.507057901e-16
1.753261112e-08
1.870643803e-07
-1.170488713e-09
1.7532614e-08
1.870643782e-07
-2.39145776e-09
1.752966276e-08
1.871300996e-07
-3.723622625e-09
1.752502657e-08
1.872784776e-07
-5.251673109e-09
1.752104205e-08
1.87551375e-07
-7.101907288e-09
1.751969661e-08
1.880238103e-07
1.751641479e-08
1.888533076e-07
-9.488404985e-09
1.168930453e-09
1.26348745e-08
1.831548559e-07
1.514212268e-15
1.263346097e-08
1.83087283e-07
-1.16892394e-09
1.263346399e-08
1.830872812e-07
-2.387565538e-09
1.26348778e-08
1.83154848e-07
-3.716137701e-09
1.26390248e-08
1.833076113e-07
-5.239566202e-09
1.264838948e-08
1.835890746e-07
-7.085170829e-09
1.266503998e-08
1.840757916e-07
1.268661759e-08
1.849283597e-07
-9.467967506e-09
1.170422325e-09
1.802532935e-07
9.35038232e-09
4.143524726e-15
1.801853885e-07
9.347160038e-09
-1.170419025e-09
1.801853859e-07
9.347159854e-09
-2.38883357e-09
1.80253289e-07
9.350384204e-09
-3.714175843e-09
1.804076193e-07
9.35782994e-09
-5.23120734e-09
1.806939215e-07
9.371610674e-09
-7.069596468e-09
1.811923968e-07
9.39342932e-09
1.820708239e-07
9.421811883e-09
-9.450560719e-09
1.17658584e-09
2.494327463e-08
9.496684561e-08
2.522767157e-15
2.495606905e-08
9.485055728e-08
-1.176578689e-09
2.495606914e-08
9.485056073e-08
-2.387496909e-09
2.494327608e-08
9.496685532e-08
-3.672969252e-09
2.491701334e-08
9.521960688e-08
-5.084307034e-09
2.48753351e-08
9.565448606e-08
-6.696452992e-09
2.48204954e-08
9.634809359e-08
2.474648568e-08
9.743848551e-08
-8.603082547e-09
1.698598528e-09
3.283308914e-08
1.724738826e-07
-2.439334793e-16
3.28602782e-08
1.723143453e-07
-1.698595614e-09
3.28602809e-08
1.723143502e-07
-3.459366044e-09
3.283309738e-08
1.724738988e-07
-5.355366249e-09
3.278043279e-08
1.728186361e-07
-7.480903319e-09
3.270528653e-08
1.734064613e-07
-9.964815374e-09
3.261570015e-08
1.743393831e-07
3.253573981e-08
1.758100535e-07
-1.300954021e-08
1.807800912e-09
2.994037094e-08
1.952373952e-07
4.208641351e-15
2.99693128e-08
1.9508436e-07
-1.807790071e-09
2.996931159e-08
1.950843627e-07
-3.694115218e-09
2.994037178e-08
1.952374041e-07
-5.746681252e-09
2.988722202e-08
1.955655667e-07
-8.072821929e-09
2.981855442e-08
1.961225606e-07
-1.08120698e-08
2.974745202e-08
1.970077466e-07
2.97056481e-08
1.984535871e-07
-1.418872711e-08
1.83668214e-09
2.395463516e-08
1.950226422e-07
-2.419887156e-15
2.396651843e-08
1.949038454e-07
-1.836679126e-09
2.396652207e-08
1.949038446e-07
-3.743484219e-09
2.395463989e-08
1.950226398e-07
-5.80242836e-09
2.393421936e-08
1.952904357e-07
-8.121389048e-09
2.391182597e-08
1.957770802e-07
-1.085701347e-08
2.389583574e-08
1.96611066e-07
2.390201955e-08
1.980424614e-07
-1.424252735e-08
1.855602143e-09
1.82955148e-08
1.907339872e-07
-8.196970392e-16
1.829819879e-08
1.906111995e-07
-1.85560395e-09
1.829820078e-08
1.906111952e-07
-3.775614039e-09
1.82955225e-08
1.907339804e-07
-5.836988835e-09
1.82928145e-08
1.910103978e-07
-8.14333898e-09
1.829536334e-08
1.915119013e-07
-1.08508767e-08
1.830918136e-08
1.923699964e-07
1.834155072e-08
1.938299351e-07
-1.419198079e-08
1.869314179e-09
1.864521273e-07
1.40261035e-08
-6.253446811e-16
1.863286375e-07
1.402425748e-08
-1.869311413e-09
1.863286345e-07
1.402425861e-08
-3.798726182e-09
1.864521206e-07
1.402610439e-08
-5.861238106e-09
1.867313505e-07
1.403160517e-08
-8.157079778e-09
1.872407002e-07
1.404444084e-08
-1.084168855e-08
1.881181018e-07
1.406809373e-08
1.896150986e-07
1.410366007e-08
-1.414807232e-08
2.662236925e-09
1.826340498e-08
7.835452488e-08
1.318580606e-09
1.824575719e-08
7.80647244e-08
7.551240837e-17
1.823655515e-08
7.793256829e-08
-1.318580932e-09
1.823655621e-08
7.793257301e-08
-2.662230943e-09
1.824576393e-08
7.806473511e-08
-4.060577895e-09
1.826341283e-08
7.835454419e-08
-5.551253484e-09
1.828902462e-08
7.885614476e-08
-7.183986714e-09
1.832382355e-08
7.965701828e-08
1.836229924e-08
8.088444671e-08
-8.992227054e-09
4.294218091e-09
2.934851617e-08
1.640363687e-07
2.118258778e-09
2.928228658e-08
1.636132995e-07
1.219008018e-14
2.924694758e-08
1.634221822e-07
-2.118230933e-09
2.924695244e-08
1.634221881e-07
-4.29418853e-09
2.928229835e-08
1.636133173e-07
-6.597063592e-09
2.934853107e-08
1.640364003e-07
-9.123589967e-09
2.944209081e-08
1.647799413e-07
-1.201050177e-08
2.955404787e-08
1.659961026e-07
2.960916931e-08
1.679336819e-07
-1.53809659e-08
4.993929997e-09
3.059371896e-08
1.969297429e-07
2.479403834e-09
3.054217123e-08
1.964920308e-07
2.036677697e-14
3.051674909e-08
1.962939321e-07
-2.479363247e-09
3.051675068e-08
1.962939362e-07
-4.993884453e-09
3.054217697e-08
1.964920498e-07
-7.60327824e-09
3.059372462e-08
1.969297786e-07
-1.042045157e-08
3.067928554e-08
1.977025639e-07
-1.364393108e-08
3.080558514e-08
1.989797236e-07
3.088372185e-08
2.010217561e-07
-1.748661923e-08
5.07914752e-09
2.715945913e-08
2.014240921e-07
2.510465217e-09
2.715035409e-08
2.009831385e-07
4.36341595e-14
2.714802636e-08
2.007829825e-07
-2.510376794e-09
2.714802287e-08
2.007829861e-07
-5.079060756e-09
2.715034604e-08
2.009831549e-07
-7.778463064e-09
2.715944939e-08
2.014241269e-07
-1.070614479e-08
2.718489733e-08
2.021991765e-07
-1.400072951e-08
2.723766848e-08
2.034735987e-07
2.730013046e-08
2.055058794e-07
-1.788052837e-08
5.098414807e-09
2.23461203e-08
1.985379835e-07
2.518627568e-09
2.233903622e-08
1.981250796e-07
5.695018148e-14
2.233735563e-08
1.979404219e-07
-2.518511966e-09
2.233735178e-08
1.979404269e-07
-5.098300689e-09
2.233902161e-08
1.981250974e-07
-7.812551077e-09
2.234609394e-08
1.985380196e-07
-1.075884351e-08
2.236509023e-08
1.992780281e-07
-1.407429289e-08
2.240176094e-08
2.005213821e-07
2.244899929e-08
2.02555374e-07
-1.794857817e-08
5.14606063e-09
1.93937128e-07
1.786640012e-08
2.544881324e-09
1.935309124e-07
1.786142816e-08
6.154978985e-14
1.933505099e-07
1.786029706e-08
-2.544759133e-09
1.933505161e-07
1.786028668e-08
-5.145943528e-09
1.93530936e-07
1.786139841e-08
-7.872001051e-09
1.939371706e-07
1.786635372e-08
-1.081710138e-08
1.946715645e-07
1.787935581e-08
-1.411632419e-08
1.959161781e-07
1.790293571e-08
1.979706561e-07
1.793189573e-08
-1.79547526e-08
2.786491522e-09
1.251362485e-08
6.723294619e-08
1.394012194e-09
1.251179333e-08
6.694536552e-08
-2.718607503e-14
1.251289626e-08
6.68136812e-08
-1.394070549e-09
1.251289593e-08
6.681368576e-08
-2.786539197e-09
1.251180041e-08
6.694538153e-08
-4.178613028e-09
1.25136332e-08
6.723297493e-08
-5.575993227e-09
1.252751797e-08
6.77260117e-08
-6.991132829e-09
1.257308948e-08
6.849908392e-08
1.267883182e-08
6.964211765e-08
-8.427612374e-09
5.034653667e-09
2.439352814e-08
1.547654906e-07
2.500734997e-09
2.440688876e-08
1.542520852e-07
-2.256488476e-14
2.441678082e-08
1.540190113e-07
-2.500783041e-09
2.441678122e-08
1.540190191e-07
-5.034704966e-09
2.440689651e-08
1.54252114e-07
-7.643774177e-09
2.439354149e-08
1.547655539e-07
-1.0385133e-08
2.438908684e-08
1.556597464e-07
-1.332339047e-08
2.441252857e-08
1.570949545e-07
2.456406315e-08
1.592687253e-07
-1.654362841e-08
5.788141509e-09
2.88794395e-08
1.954905061e-07
2.865627668e-09
2.887718701e-08
1.94944215e-07
1.610033617e-14
2.887769817e-08
1.94698586e-07
-2.865591139e-09
2.887769801e-08
1.946985978e-07
-5.788109147e-09
2.887718579e-08
1.949442577e-07
-8.834823764e-09
2.88794358e-08
1.954905996e-07
-1.208701001e-08
2.888968241e-08
1.964541744e-07
-1.562109178e-08
2.89108269e-08
1.980155398e-07
2.904212211e-08
2.004140341e-07
-1.949138841e-08
6.13521462e-09
2.782239959e-08
2.056726074e-07
3.04500581e-09
2.782063375e-08
2.051298767e-07
6.229495388e-14
2.78217734e-08
2.048838181e-07
-3.044882751e-09
2.782176602e-08
2.048838369e-07
-6.135102665e-09
2.782061172e-08
2.051299393e-07
-9.326627092e-09
2.782236761e-08
2.056727272e-07
-1.26951027e-08
2.783567267e-08
2.06621687e-07
-1.634424696e-08
2.787481393e-08
2.081588015e-07
2.797208314e-08
2.105563996e-07
-2.03246806e-08
6.261666522e-09
2.457622774e-08
2.050279339e-07
3.110347388e-09
2.458123601e-08
2.045157684e-07
8.278467351e-14
2.458583927e-08
2.04286596e-07
-3.110186642e-09
2.458582684e-08
2.042866185e-07
-6.261518916e-09
2.458120137e-08
2.045158423e-07
-9.505349043e-09
2.457616801e-08
2.050280668e-07
-1.291118687e-08
2.457923451e-08
2.059403508e-07
-1.656579726e-08
2.460200327e-08
2.074488594e-07
2.465517566e-08
2.098340342e-07
-2.052749538e-08
6.376786282e-09
2.011914055e-07
2.060089756e-08
3.172340469e-09
2.007030831e-07
2.061349622e-08
8.605034879e-14
2.004869543e-07
2.062163709e-08
-3.172172434e-09
2.004869799e-07
2.062161953e-08
-6.376639784e-09
2.00703166e-07
2.061344678e-08
-9.655641489e-09
2.011915518e-07
2.06008226e-08
-1.306941846e-08
2.02074259e-07
2.059037877e-08
-1.669601819e-08
2.035558782e-07
2.058897188e-08
2.059266766e-07
2.059575813e-08
-2.059255085e-08
2.79421477e-09
8.319026465e-09
6.023381081e-08
1.412974169e-09
8.326218099e-09
6.00003419e-08
-6.14705619e-14
8.3333844e-09
5.989329207e-08
-1.413094182e-09
8.333383911e-09
5.989329398e-08
-2.794314266e-09
8.326221074e-09
6.000035142e-08
-4.114207622e-09
8.319035783e-09
6.023381596e-08
-5.347254768e-09
8.327122044e-09
6.063193141e-08
-6.474549213e-09
8.379041436e-09
6.124734548e-08
8.509744574e-09
6.212918718e-08
-7.471347099e-09
5.533833694e-09
1.894482417e-08
1.468778482e-07
2.773546338e-09
1.89863193e-08
1.463521555e-07
-1.423038026e-13
1.901494771e-08
1.461110282e-07
-2.773830098e-09
1.901494706e-08
1.461110371e-07
-5.534096013e-09
1.89863252e-08
1.463521903e-07
-8.272312394e-09
1.89448458e-08
1.468779101e-07
-1.098619296e-08
1.892404088e-08
1.477766961e-07
-1.368494419e-08
1.899620009e-08
1.491765646e-07
1.923808455e-08
1.512106179e-07
-1.635515228e-08
6.573770253e-09
2.516076753e-08
1.926147414e-07
3.276495275e-09
2.519891186e-08
1.920287734e-07
-1.084996008e-13
2.522564728e-08
1.917643679e-07
-3.276712568e-09
2.522564984e-08
1.917643845e-07
-6.573975314e-09
2.519892178e-08
1.920288364e-07
-9.914229721e-09
2.516078498e-08
1.926148674e-07
-1.331802406e-08
2.514265627e-08
1.936393516e-07
-1.680296279e-08
2.521257214e-08
1.952841309e-07
2.545330292e-08
1.977376276e-07
-2.034174456e-08
7.038828422e-09
2.638106832e-08
2.080125219e-07
3.513153e-09
2.641339124e-08
2.074409735e-07
-7.011776277e-14
2.643671351e-08
2.071858728e-07
-3.51329656e-09
2.643671428e-08
2.071858978e-07
-7.038969526e-09
2.641339862e-08
2.074410637e-07
-1.059927164e-08
2.638108619e-08
2.080126995e-07
-1.422730321e-08
2.636793735e-08
2.090244541e-07
-1.794296883e-08
2.64197315e-08
2.106673395e-07
2.659437401e-08
2.131637217e-07
-2.169132615e-08
7.28767829e-09
2.499821856e-08
2.100684501e-07
3.642309288e-09
2.503831847e-08
2.095361308e-07
-5.473052997e-14
2.506475476e-08
2.093008463e-07
-3.642420835e-09
2.506475697e-08
2.093008741e-07
-7.287788873e-09
2.503833141e-08
2.095362334e-07
-1.094552147e-08
2.49982395e-08
2.100686486e-07
-1.462986748e-08
2.496829394e-08
2.110243719e-07
-1.834242643e-08
2.49805863e-08
2.126006088e-07
2.506509544e-08
2.150413504e-07
-2.202041493e-08
7.44068732e-09
2.077424778e-07
2.215120886e-08
3.724503425e-09
2.072573836e-07
2.220016945e-08
-5.296149553e-14
2.070464802e-07
2.222974195e-08
-3.72460697e-09
2.070465087e-07
2.222974648e-08
-7.440793517e-09
2.07257486e-07
2.220018452e-08
-1.114489847e-08
2.077426757e-07
2.215124155e-08
-1.483688926e-08
2.086341099e-07
2.210048476e-08
-1.850581904e-08
2.101373284e-07
2.206813429e-08
2.124988343e-07
2.206618267e-08
-2.207899591e-08
3.992003601e-09
5.502493764e-09
5.619967404e-08
2.756736051e-09
5.50002603e-09
5.596900872e-08
1.407446736e-09
5.508819624e-09
5.584079314e-08
-5.977948081e-14
5.516088832e-09
5.578466958e-08
-1.40755513e-09
5.516092918e-09
5.578466279e-08
-2.7568384e-09
5.508830623e-09
5.584077362e-08
-3.99207499e-09
5.500047274e-09
5.596898048e-08
-5.06230815e-09
5.502530668e-09
5.61996205e-08
-5.924337405e-09
5.539215997e-09
5.657015254e-08
5.643651763e-09
5.710195972e-08
-6.54076514e-09
8.47950552e-09
1.421025567e-08
1.416047303e-07
5.758718024e-09
1.421302165e-08
1.408855111e-07
2.911398528e-09
1.423977735e-08
1.404684134e-07
-2.31919122e-13
1.42598685e-08
1.402787596e-07
-2.911853561e-09
1.42598789e-08
1.402787541e-07
-5.759146233e-09
1.423981372e-08
1.404684029e-07
-8.479860022e-09
1.421309553e-08
1.408855115e-07
-1.101575154e-08
1.421035317e-08
1.416047299e-07
-1.330929229e-08
1.428480456e-08
1.427245057e-07
1.451018831e-08
1.443166882e-07
-1.528190352e-08
1.056123985e-08
2.092493391e-08
1.902644247e-07
7.104606736e-09
2.094742642e-08
1.893368341e-07
3.570908619e-09
2.099592229e-08
1.888061722e-07
-3.038247331e-13
2.102843119e-08
1.885668628e-07
-3.571505153e-09
2.102845419e-08
1.885668671e-07
-7.105160739e-09
2.09959923e-08
1.888061996e-07
-1.056171797e-08
2.094753947e-08
1.893369115e-07
-1.390167648e-08
2.092508341e-08
1.902645501e-07
-1.706906403e-08
2.09980805e-08
1.917382435e-07
2.125110627e-08
1.938882854e-07
-1.996063281e-08
1.149389623e-08
2.38761332e-08
2.097323009e-07
7.722016397e-09
2.3918754e-08
2.088129443e-07
3.877897347e-09
2.398320124e-08
2.082976749e-07
-3.18351766e-13
2.402506903e-08
2.080673082e-07
-3.878522419e-09
2.402509854e-08
2.080673188e-07
-7.722595905e-09
2.398329573e-08
2.082977303e-07
-1.149439516e-08
2.391890484e-08
2.088130772e-07
-1.515370508e-08
2.387633321e-08
2.097325103e-07
-1.863648411e-08
2.391344543e-08
2.112347741e-07
2.410065504e-08
2.134922202e-07
-2.181450939e-08
1.196640994e-08
2.408654671e-08
2.145585683e-07
8.061532785e-09
2.416222291e-08
2.137297413e-07
4.055258839e-09
2.424236839e-08
2.132831269e-07
-3.119095453e-13
2.429175094e-08
2.130896144e-07
-4.055867289e-09
2.42917903e-08
2.130896299e-07
-8.06209915e-09
2.424248865e-08
2.132831967e-07
-1.196689389e-08
2.416241988e-08
2.137299035e-07
-1.571179022e-08
2.408680565e-08
2.145588131e-07
-1.921386235e-08
2.405871012e-08
2.159574428e-07
2.413732057e-08
2.181100862e-07
-2.231923812e-08
1.222099773e-08
2.139534876e-07
2.251814049e-08
8.260374862e-09
2.132354985e-07
2.262976206e-08
4.163729497e-09
2.128686443e-07
2.272767655e-08
-2.976148086e-13
2.127177657e-07
2.278440729e-08
-4.164308673e-09
2.127177791e-07
2.278445571e-08
-8.260908861e-09
2.128687063e-07
2.272781937e-08
-1.222145053e-08
2.132356468e-07
2.262999387e-08
-1.597267224e-08
2.139537187e-07
2.25184493e-08
-1.941838618e-08
2.152140323e-07
2.242776043e-08
2.172134133e-07
2.239558382e-08
-2.239119302e-08
5.562360385e-09
3.863424037e-09
5.35688588e-08
4.901670739e-09
3.819522568e-09
5.341137178e-08
3.951499215e-09
3.829040389e-09
5.332077407e-08
2.769837323e-09
3.856920427e-09
5.329376061e-08
1.426636309e-09
3.885072297e-09
5.329890308e-08
-1.763004259e-14
3.902844919e-09
5.330845643e-08
-1.426667698e-09
3.902849876e-09
5.330844113e-08
-2.769864001e-09
3.885083714e-09
5.329885319e-08
-3.951530706e-09
3.856938365e-09
5.329368178e-08
-4.901684958e-09
3.829072748e-09
5.332067918e-08
-5.562378517e-09
3.819566843e-09
5.341126112e-08
3.8634791e-09
5.356874383e-08
-5.892662065e-09
1.261668285e-08
1.095339472e-08
1.38498539e-07
1.077176524e-08
1.084257954e-08
1.375463081e-07
8.48131479e-09
1.08576148e-08
1.368665309e-07
5.849905571e-09
1.091829867e-08
1.364554823e-07
2.985162507e-09
1.098288066e-08
1.362352719e-07
-1.994389344e-13
1.102584564e-08
1.361410265e-07
-2.985553277e-09
1.102585883e-08
1.361409946e-07
-5.850266495e-09
1.098292273e-08
1.362351869e-07
-8.48162965e-09
1.091837705e-08
1.364553661e-07
-1.077200821e-08
1.085772914e-08
1.368664006e-07
-1.26168669e-08
1.084271891e-08
1.375461664e-07
1.09535556e-08
1.384983961e-07
-1.388870321e-08
1.660337383e-08
1.745202306e-08
1.894468081e-07
1.39247592e-08
1.733346018e-08
1.879257409e-07
1.080545594e-08
1.737726096e-08
1.868639856e-07
7.376253483e-09
1.746469813e-08
1.862195298e-07
3.74196762e-09
1.754457497e-08
1.858786368e-07
-3.619978334e-13
1.760405953e-08
1.857308472e-07
-3.742675882e-09
1.760408782e-08
1.857308206e-07
-7.376901407e-09
1.754466277e-08
1.858785793e-07
-1.08060134e-08
1.746484845e-08
1.862194703e-07
-1.392520186e-08
1.73774642e-08
1.868639455e-07
-1.660370255e-08
1.733370165e-08
1.879257191e-07
1.745231236e-08
1.894468005e-07
-1.866101079e-08
1.847099343e-08
2.12672582e-08
2.120281497e-07
1.54321805e-08
2.121346483e-08
2.103932152e-07
1.1922323e-08
2.134587392e-08
2.092734487e-07
8.108914023e-09
2.15382318e-08
2.085527075e-07
4.106984971e-09
2.168328598e-08
2.081607724e-07
-4.503301816e-13
2.17627353e-08
2.080159389e-07
-4.107861195e-09
2.176277849e-08
2.080159169e-07
-8.109711197e-09
2.16834153e-08
2.08160725e-07
-1.192300095e-08
2.153844108e-08
2.085527042e-07
-1.543271677e-08
2.134614812e-08
2.092735094e-07
-1.847137652e-08
2.121382062e-08
2.103933046e-07
2.126768298e-08
2.120282709e-07
-2.082281306e-08
1.925898255e-08
2.191116361e-07
1.616813537e-08
2.175923382e-07
1.254856404e-08
2.287202588e-08
2.166518807e-07
8.576408996e-09
2.314219208e-08
2.160978417e-07
4.353011203e-09
2.335388819e-08
2.158358179e-07
-4.535894547e-13
2.346667723e-08
2.157390214e-07
-4.353892436e-09
2.346673555e-08
2.157390045e-07
-8.57721386e-09
2.335406107e-08
2.15835793e-07
-1.254924864e-08
2.31424658e-08
2.160978677e-07
-1.616866514e-08
2.287238817e-08
2.166519879e-07
-1.925935729e-08
2.266947143e-08
2.175924955e-07
2.25599002e-08
2.191118787e-07
-2.155336476e-08
1.300180404e-08
2.179125893e-07
2.256032538e-08
8.913976306e-09
2.176062316e-07
2.285922611e-08
4.532191063e-09
2.175110465e-07
2.309319491e-08
-4.280988995e-13
2.17497576e-07
2.321940043e-08
-4.533022814e-09
2.174975563e-07
2.32194716e-08
-8.914736008e-09
2.175110143e-07
2.30934092e-08
-1.300244914e-08
2.176062408e-07
2.285956877e-08
-1.664976145e-08
2.179126615e-07
2.256078086e-08
-1.966863673e-08
2.186389753e-07
2.226343359e-08
2.199309756e-07
2.198179774e-08
-2.180808219e-08
5.550497943e-09
2.960128955e-09
5.075130944e-08
5.009814495e-09
3.015085601e-09
5.093697029e-08
4.107949812e-09
3.100889598e-09
5.112175008e-08
2.913051786e-09
3.187902038e-09
5.130075475e-08
1.509895887e-09
3.258843921e-09
5.144320887e-08
3.222953892e-14
3.29586577e-09
5.15224519e-08
-1.509840373e-09
3.29586446e-09
5.152242809e-08
-2.912999632e-09
3.258847037e-09
5.144314504e-08
-4.107906155e-09
3.187908241e-09
5.130065671e-08
-5.009777022e-09
3.100899072e-09
5.112163127e-08
-5.550472803e-09
3.015097936e-09
5.093684001e-08
2.960151244e-09
5.075117868e-08
-5.693080252e-09
1.212191715e-08
8.848897348e-09
1.333193634e-07
1.066046699e-08
8.968348941e-09
1.330544518e-07
8.576734953e-09
9.163469292e-09
1.328876577e-07
6.004582167e-09
9.370789038e-09
1.328447289e-07
3.089479093e-09
9.544292816e-09
1.328648909e-07
-7.282552756e-14
9.633818965e-09
1.328925651e-07
-3.089621142e-09
9.633824742e-09
1.32892511e-07
-6.004716649e-09
9.544316669e-09
1.328647418e-07
-8.576856211e-09
9.370826879e-09
1.328445218e-07
-1.0660565e-08
9.163528548e-09
1.328874218e-07
-1.212198939e-08
8.96842342e-09
1.330542051e-07
8.848985678e-09
1.333191142e-07
-1.283160526e-08
1.600117949e-08
1.494896056e-08
1.846171737e-07
1.383582206e-08
1.515521493e-08
1.839041785e-07
1.100152319e-08
1.545459555e-08
1.834071129e-07
7.650691972e-09
1.578303436e-08
1.831580523e-07
3.919285772e-09
1.609196726e-08
1.830623011e-07
-2.265279587e-13
1.6238259e-08
1.830458294e-07
-3.919725255e-09
1.623827848e-08
1.830457743e-07
-7.651106802e-09
1.609203448e-08
1.830621509e-07
-1.100188184e-08
1.578313025e-08
1.831578587e-07
-1.383611444e-08
1.545473478e-08
1.834069049e-07
-1.600139758e-08
1.515538178e-08
1.839039732e-07
1.494915698e-08
1.84616979e-07
-1.72718156e-08
1.809290836e-08
1.933249276e-08
2.091509808e-07
1.557275204e-08
1.969562685e-08
2.083728953e-07
1.234496818e-08
2.008129818e-08
2.078744699e-07
8.598997562e-09
2.046427113e-08
2.076173807e-07
4.424210212e-09
2.08735474e-08
2.075539052e-07
-2.515346089e-13
2.108895201e-08
2.075896214e-07
-4.424711979e-09
2.108898989e-08
2.075895738e-07
-8.599491381e-09
2.087367351e-08
2.075537777e-07
-1.234542532e-08
2.046445429e-08
2.076172459e-07
-1.557314848e-08
2.00815659e-08
2.078743497e-07
-1.809320409e-08
1.96958865e-08
2.083727941e-07
1.933279879e-08
2.091508989e-07
-1.959954365e-08
1.926737889e-08
2.183213297e-07
1.671924054e-08
2.177735473e-07
1.322477282e-08
2.259682426e-08
2.176307575e-07
9.111516397e-09
2.302301353e-08
2.176522991e-07
4.652346461e-09
2.340128233e-08
2.17767172e-07
-3.421795806e-13
2.361300228e-08
2.178675679e-07
-4.653012301e-09
2.361305565e-08
2.178675257e-07
-9.112132261e-09
2.340144627e-08
2.177670685e-07
-1.322532358e-08
2.302326789e-08
2.176521986e-07
-1.671965846e-08
2.259717565e-08
2.17630682e-07
-1.926765703e-08
2.206283415e-08
2.177735201e-07
2.156948818e-08
2.183213865e-07
-2.071389765e-08
1.382742112e-08
2.210122123e-07
2.303928216e-08
9.588552462e-09
2.21318757e-07
2.354930141e-08
4.906527114e-09
2.216474438e-07
2.394684332e-08
-3.303953208e-13
2.218533516e-07
2.416401086e-08
-4.907166554e-09
2.21853315e-07
2.416407353e-08
-9.58914277e-09
2.216473542e-07
2.394703347e-08
-1.382792819e-08
2.213186658e-07
2.354960667e-08
-1.736993231e-08
2.210121525e-07
2.30396897e-08
-2.000830562e-08
2.208831894e-07
2.24569909e-08
2.209600105e-07
2.191064333e-08
-2.137852954e-08
5.956715545e-09
2.712327851e-09
4.807858625e-08
5.45341784e-09
2.88562536e-09
4.855463968e-08
4.519813257e-09
3.069939894e-09
4.898541971e-08
3.22747991e-09
3.237910621e-09
4.935518958e-08
1.679476938e-09
3.361465276e-09
4.96297645e-08
5.701767702e-14
3.424896551e-09
4.97769721e-08
-1.679364013e-09
3.424891534e-09
4.977694928e-08
-3.227380319e-09
3.361452704e-09
4.962969767e-08
-4.519726517e-09
3.237900711e-09
4.935509644e-08
-5.453346587e-09
3.069929083e-09
4.898531305e-08
-5.956659702e-09
2.885614969e-09
4.855452851e-08
2.712317175e-09
4.807847771e-08
-5.996282393e-09
1.221796209e-08
8.158997174e-09
1.282126632e-07
1.099953817e-08
8.568707654e-09
1.285897821e-07
8.999738578e-09
9.012956406e-09
1.289444395e-07
6.371401514e-09
9.422894584e-09
1.292880852e-07
3.298921977e-09
9.729432682e-09
1.295693791e-07
4.899286882e-14
9.886920853e-09
1.297293714e-07
-3.298824405e-09
9.886921873e-09
1.297293117e-07
-6.371312724e-09
9.729436823e-09
1.295692079e-07
-8.999671692e-09
9.422894965e-09
1.292878416e-07
-1.099948959e-08
9.012951354e-09
1.289441656e-07
-1.221793182e-08
8.568701747e-09
1.285895071e-07
8.158994869e-09
1.282124049e-07
-1.255795048e-08
1.583207631e-08
1.412403512e-08
1.793416354e-07
1.407206886e-08
1.475322542e-08
1.794796393e-07
1.141697342e-08
1.542105113e-08
1.796540892e-07
8.040053039e-09
1.607321787e-08
1.798846306e-07
4.148264273e-09
1.657106401e-08
1.801124266e-07
-4.547777956e-14
1.682507312e-08
1.802559481e-07
-4.148353541e-09
1.68250864e-08
1.802558731e-07
-8.040146935e-09
1.657109961e-08
1.801122167e-07
-1.141706791e-08
1.60732599e-08
1.798843393e-07
-1.407215114e-08
1.542109276e-08
1.796537703e-07
-1.583214308e-08
1.475326334e-08
1.79479329e-07
1.412406917e-08
1.793413493e-07
-1.652166125e-08
1.807172758e-08
1.894654557e-08
2.051919692e-07
1.598453604e-08
1.980417086e-08
2.054091064e-07
1.291781531e-08
2.064307139e-08
2.057191548e-07
9.070706556e-09
2.13878308e-08
2.061498557e-07
4.666129921e-09
2.199532094e-08
2.065341921e-07
-1.23094991e-13
2.23306725e-08
2.067502322e-07
-4.666377825e-09
2.233068999e-08
2.067501624e-07
-9.070960704e-09
2.199537638e-08
2.065340066e-07
-1.291805485e-08
2.138793468e-08
2.061495935e-07
-1.598473801e-08
2.064318458e-08
2.057188704e-07
-1.807188539e-08
1.980427733e-08
2.05408855e-07
1.894663774e-08
2.051917549e-07
-1.893538238e-08
1.9605518e-08
2.163069355e-07
1.737640317e-08
2.169225988e-07
1.405929878e-08
2.396238191e-08
2.17628514e-07
9.862684192e-09
2.483158623e-08
2.184051187e-07
5.079945244e-09
2.551730926e-08
2.190278739e-07
-1.67039402e-13
2.589782583e-08
2.193804735e-07
-5.080276889e-09
2.589784793e-08
2.193804182e-07
-9.863010192e-09
2.55173859e-08
2.190277309e-07
-1.405959471e-08
2.483172833e-08
2.184049398e-07
-1.737664827e-08
2.39625537e-08
2.176283257e-07
-1.960571109e-08
2.288436547e-08
2.169224518e-07
2.186669206e-08
2.16306792e-07
-2.051123142e-08
1.508063947e-08
2.232584443e-07
2.52055209e-08
1.061008197e-08
2.244083179e-07
2.621254805e-08
5.47359395e-09
2.253306716e-07
2.697053056e-08
-1.507197863e-13
2.258445144e-07
2.738036723e-08
-5.473892095e-09
2.258444762e-07
2.738038922e-08
-1.061037343e-08
2.253305731e-07
2.697060627e-08
-1.508089593e-08
2.244082058e-07
2.621268559e-08
-1.857026015e-08
2.232583331e-07
2.520572184e-08
-2.08801191e-08
2.220471091e-07
2.403027583e-08
2.207778255e-07
2.28783812e-08
-2.170966963e-08
6.779989532e-09
2.871474118e-09
4.518352053e-08
6.251880626e-09
3.186150638e-09
4.589659542e-08
5.208958522e-09
3.484001676e-09
4.654434625e-08
3.733691024e-09
3.736037214e-09
4.709443255e-08
1.947997282e-09
3.918336821e-09
4.749713236e-08
6.317923321e-14
4.014542557e-09
4.771037517e-08
-1.947873755e-09
4.014537293e-09
4.771035672e-08
-3.733572348e-09
3.918325129e-09
4.749707958e-08
-5.20885418e-09
3.736022261e-09
4.709435782e-08
-6.251796259e-09
3.483984124e-09
4.654426258e-08
-6.779922926e-09
3.186133457e-09
4.589651774e-08
2.871461227e-09
4.518345564e-08
-6.756365971e-09
1.309536973e-08
8.523505805e-09
1.226793952e-07
1.19555143e-08
9.28906871e-09
1.236267181e-07
9.886793961e-09
1.002420618e-08
1.244729722e-07
7.050472463e-09
1.064993522e-08
1.252105333e-07
3.667622608e-09
1.110596891e-08
1.257646117e-07
1.274911205e-13
1.134864989e-08
1.260627591e-07
-3.667375647e-09
1.134863968e-08
1.260626944e-07
-7.050248413e-09
1.110594322e-08
1.257644346e-07
-9.886611416e-09
1.064989706e-08
1.252102895e-07
-1.195537526e-08
1.002416287e-08
1.244727107e-07
-1.309527046e-08
9.289026265e-09
1.236264778e-07
8.523464662e-09
1.226791917e-07
-1.321409426e-08
1.64615993e-08
1.472496138e-08
1.734633493e-07
1.489844737e-08
1.590203369e-08
1.744298154e-07
1.223812263e-08
1.703103569e-08
1.753075976e-07
8.690963144e-09
1.797508538e-08
1.76106651e-07
4.51083223e-09
1.868367679e-08