/*--------------------------------*- C++ -*----------------------------------*\
  =========                 |
  \\      /  F ield         | OpenFOAM: The Open Source CFD Toolbox
   \\    /   O peration     | Website:  https://openfoam.org
    \\  /    A nd           | Version:  7
     \\/     M anipulation  |
\*---------------------------------------------------------------------------*/
FoamFile
{
    version     2.0;
    format      ascii;
    class       volScalarField;
    location    "0.00204";
    object      Uy;
}
// * * * * * * * * * * * * * * * * * * * * * * * * * * * * * * * * * * * * * //

dimensions      [0 1 -1 0 0 0 0];

internalField   nonuniform List<scalar> 
5000
(
4.2933344e-17
4.3966569e-17
0
0
-2.3058658e-17
2.6229404e-32
2.3082696e-17
0
0
-2.3098665e-17
-4.6201489e-17
2.3102126e-17
2.3102265e-17
-2.3102081e-17
0
-2.3099592e-17
1.7493666e-50
2.3095422e-17
0
2.308998e-17
-2.3086705e-17
-2.3083629e-17
4.6159995e-17
-2.3076696e-17
-2.3072851e-17
-1.9014455e-31
2.3065374e-17
2.3061759e-17
-4.6115297e-17
3.9969163e-31
-4.0289444e-31
2.304595e-17
4.6083393e-17
-4.6075735e-17
3.9933885e-31
-2.0029063e-30
-7.9839565e-31
4.6043217e-17
-4.6034659e-17
-4.6026999e-17
4.6018465e-17
-1.5823246e-30
-4.6002303e-17
2.2997338e-17
6.8979249e-17
-2.2989275e-17
-2.2985026e-17
-1.574129e-30
-4.5953934e-17
0
2.2968884e-17
3.2635306e-33
-2.296078e-17
4.5913908e-17
-8.0239631e-31
-4.5897769e-17
2.2944641e-17
-7.9220202e-31
-2.2936607e-17
0
2.2928555e-17
7.818725e-31
6.5143938e-33
2.2916676e-17
-2.2912424e-17
8.0085586e-31
2.2904384e-17
-2.290059e-17
-2.2896346e-17
2.2892546e-17
2.2888294e-17
-2.2884488e-17
-2.2880232e-17
4.5752856e-17
2.287218e-17
-2.2868385e-17
0
2.2860363e-17
-3.2480512e-33
-2.285234e-17
2.2848091e-17
-6.4927328e-33
6.4915132e-33
2.2836109e-17
2.2831749e-17
7.9478625e-31
-2.2823347e-17
0
-2.2814719e-17
-2.3663459e-30
-7.9726074e-31
2.2801412e-17
2.2796494e-17
-4.5583898e-17
-1.5770084e-30
2.278224e-17
0
0
-2.2767766e-17
-1.5786318e-30
4.5518598e-17
-2.275583e-17
-4.5504714e-17
0
2.2747319e-17
2.2745771e-17
-2.2744169e-17
-2.2743407e-17
0
0
2.2741508e-17
2.2741186e-17
0
-2.2739873e-17
7.9492135e-31
2.2737705e-17
-2.2736198e-17
6.4615113e-33
-7.9469319e-31
-2.6317453e-50
4.5454681e-17
-9.6880159e-33
-2.2721387e-17
0
-2.2714747e-17
2.2711232e-17
2.2707655e-17
-4.5407954e-17
-2.2700265e-17
4.5392962e-17
2.2692686e-17
-2.2688845e-17
-2.2685013e-17
-2.2681154e-17
0
2.2673451e-17
2.2669607e-17
-2.2665738e-17
-7.8578919e-31
2.2658006e-17
-2.2654149e-17
-2.2650275e-17
0
2.264258e-17
2.2638764e-17
-2.2634937e-17
2.2631135e-17
-1.2862135e-32
-2.2623492e-17
2.2619642e-17
-2.2615802e-17
1.5745412e-30
2.2608091e-17
-2.2604233e-17
2.260041e-17
2.2596581e-17
-2.259279e-17
0
0
-2.2581408e-17
-2.2577612e-17
2.2573775e-17
2.256994e-17
-2.2566079e-17
-1.5646681e-30
2.2558407e-17
-2.2554613e-17
-2.2550842e-17
0
2.254336e-17
2.2539617e-17
0
-2.2532065e-17
-2.2528254e-17
0
2.252059e-17
4.6845426e-30
-2.2512958e-17
2.2509173e-17
2.2505416e-17
-2.2501664e-17
-1.5538132e-30
1.54716e-30
9.5882265e-33
2.2486586e-17
-2.2482791e-17
-3.1177896e-30
1.5458566e-30
-1.5455965e-30
2.2467662e-17
0
0
-2.2456432e-17
-2.2452706e-17
0
0
2.2441466e-17
9.1772177e-50
-2.243392e-17
0
2.2426402e-17
-2.2422677e-17
-6.2125555e-30
4.4830514e-17
-2.2411539e-17
-4.6523235e-30
-3.183809e-33
-2.2400309e-17
2.239654e-17
-3.1822057e-33
-3.0989483e-30
1.5492156e-30
-2.2381561e-17
0
2.2374164e-17
1.5481912e-30
6.2076373e-30
2.2363115e-17
0
-2.2355677e-17
-2.2351925e-17
0
0
0
2.2336868e-17
1.5456035e-30
-2.2329299e-17
0
0
2.2317772e-17
2.2313862e-17
-2.2309924e-17
-2.2305937e-17
0
2.2297835e-17
2.2293729e-17
-2.2289589e-17
-2.2285446e-17
0
2.2277177e-17
-6.1847895e-30
-1.5443334e-30
2.2265005e-17
-2.2261073e-17
-2.2257226e-17
0
2.2249904e-17
-3.0918609e-30
2.2243158e-17
3.0846454e-30
-4.4474083e-17
2.2234235e-17
-3.0834763e-30
-7.717315e-30
-1.5382496e-30
-2.2224703e-17
2.2222697e-17
2.2220813e-17
0
-2.2217286e-17
-2.2215604e-17
0
2.2212332e-17
2.22107e-17
-4.4418055e-17
-2.2207309e-17
2.2205507e-17
2.2203626e-17
6.1586441e-30
-2.2199568e-17
2.2197388e-17
-1.5392083e-30
-2.2192726e-17
2.2190237e-17
-1.5418422e-30
1.5448065e-30
-6.3045301e-33
-1.5318e-30
2.217619e-17
0
0
-2.2166819e-17
-2.216357e-17
0
0
0
0
2.2146652e-17
1.5261666e-30
-4.4279417e-17
9.4372361e-33
2.2132716e-17
2.2129193e-17
-3.0719281e-30
-3.0651475e-30
-3.1432366e-33
-2.2115003e-17
-2.2111458e-17
-2.2107909e-17
4.4208748e-17
6.6302491e-17
-2.2097293e-17
-4.4187488e-17
0
2.2086649e-17
2.2083106e-17
-2.2079554e-17
6.274379e-33
-9.4100511e-33
6.272357e-33
2.2065328e-17
2.2061775e-17
-2.2058225e-17
-4.4109408e-17
2.2051192e-17
8.1613934e-50
2.2044213e-17
6.1077409e-30
-4.4074401e-17
0
0
4.4053072e-17
-1.2230678e-29
-4.4038841e-17
0
2.2012391e-17
2.2008899e-17
-2.2005424e-17
3.1266633e-33
-3.0542659e-30
3.1256697e-33
2.1991441e-17
-2.1987928e-17
-2.1984421e-17
0
2.197741e-17
-3.0508577e-30
-2.1970396e-17
4.3933765e-17
-6.0925482e-30
-2.1959854e-17
-6.0968401e-30
-4.3905686e-17
4.3898703e-17
2.1945869e-17
-2.1942391e-17
-3.1177072e-33
-2.1935433e-17
0
0
2.1924966e-17
-3.040464e-30
-4.3835996e-17
3.1142411e-33
6.5733157e-17
-2.1907579e-17
-2.1904097e-17
4.3801208e-17
-2.1897099e-17
2.1893585e-17
4.3780131e-17
-2.1886542e-17
-2.1883016e-17
-2.1879486e-17
2.187595e-17
1.7142516e-49
-2.1868857e-17
2.1865301e-17
-2.1861741e-17
2.1858178e-17
6.0561684e-30
6.2104411e-33
2.1847479e-17
-4.3687823e-17
2.1840347e-17
6.0636413e-30
-6.0564498e-30
-2.1829696e-17
-4.3652339e-17
6.5467987e-17
6.0525509e-30
-1.2103189e-29
6.0444497e-30
-4.3617933e-17
4.3611326e-17
-6.0479007e-30
-4.3598461e-17
0
0
2.1790052e-17
-3.0218302e-30
-2.1784284e-17
-2.1781514e-17
2.177882e-17
6.5328607e-17
-2.1773658e-17
-2.1771186e-17
-6.1870604e-33
-2.1766448e-17
0
4.3523916e-17
4.3519576e-17
-2.1757656e-17
-4.3511112e-17
-2.175348e-17
4.3502844e-17
4.3498754e-17
-4.3494674e-17
-4.3490587e-17
0
4.34823e-17
-2.173903e-17
-4.3473737e-17
2.1734664e-17
2.1732416e-17
-3.0880367e-33
3.0166881e-30
2.1725419e-17
-2.1722997e-17
-2.1720525e-17
2.1717998e-17
-3.0118835e-30
-3.0855712e-33
-3.0111435e-30
-2.170733e-17
2.1704526e-17
-9.0391852e-30
-3.01266e-30
-6.0214232e-30
-2.1692889e-17
2.1689895e-17
-3.0110066e-30
-6.0119219e-30
-3.0810196e-33
-4.3355298e-17
-2.1674529e-17
2.1671389e-17
4.333646e-17
-3.007977e-30
-4.3323716e-17
-2.1658648e-17
4.3310852e-17
2.1652197e-17
-2.1648965e-17
-2.1645732e-17
-6.0066155e-30
2.1639264e-17
0
0
2.1629556e-17
0
-2.1623078e-17
2.1619836e-17
3.0719024e-33
-5.9985242e-30
0
-2.1606853e-17
2.1603615e-17
2.1600382e-17
-4.3194308e-17
-2.1593929e-17
2.1590703e-17
0
0
-2.1581022e-17
5.9947917e-30
2.1574581e-17
0
0
-2.1564963e-17
8.983973e-30
2.1558566e-17
0
0
0
0
0
0
0
0
4.3059783e-17
1.1948966e-29
-2.1523555e-17
2.1520395e-17
-2.151724e-17
2.151409e-17
-5.9792745e-30
-2.1507797e-17
-5.9714143e-30
-2.150151e-17
0
0
2.1492083e-17
5.9670521e-30
-2.1485807e-17
0
0
0
0
0
0
0
4.2921749e-17
-1.7862992e-29
-4.290934e-17
2.1451567e-17
3.0480101e-33
2.1445362e-17
-1.1889896e-29
-4.2878324e-17
-2.1436064e-17
-6.7927136e-50
6.428959e-17
0
-4.2847292e-17
0
0
4.2828615e-17
-5.9393787e-30
-6.4224281e-17
2.1404987e-17
2.1401875e-17
-2.1398755e-17
2.1395628e-17
-2.1392494e-17
-5.9333199e-30
2.1386222e-17
-2.1383088e-17
0
-2.1376829e-17
2.1373701e-17
4.274115e-17
-2.1367453e-17
-2.1364338e-17
-2.1361235e-17
-2.1358149e-17
4.2710162e-17
2.1352033e-17
-2.1349004e-17
0
2.1343009e-17
-2.1340049e-17
-2.1337122e-17
6.40027e-17
6.062745e-33
-4.2657174e-17
2.132583e-17
2.9605025e-30
2.1320441e-17
-6.0588848e-33
-4.2630419e-17
2.1312655e-17
0
-5.9167183e-30
-3.0276593e-33
-2.1302881e-17
2.1300544e-17
-5.9140976e-30
-2.9537068e-30
-3.0260194e-33
-2.1291491e-17
2.1289281e-17
2.5521062e-50
-5.9103917e-30
-3.0244551e-33
-4.2561054e-17
-2.9512617e-30
2.127614e-17
0
0
-2.1269429e-17
-8.8491232e-30
2.1264799e-17
-2.1262418e-17
2.9517373e-30
1.6514976e-49
-2.9510367e-30
2.1252316e-17
2.1249623e-17
2.9468955e-30
-2.124402e-17
0
0
2.1235058e-17
-2.1231912e-17
1.767228e-29
2.1225364e-17
-2.1221957e-17
0
2.1214872e-17
2.1211193e-17
-2.1207423e-17
-2.1203562e-17
0
2.1195561e-17
2.1191422e-17
-4.2374378e-17
-2.1182859e-17
2.117843e-17
2.1173901e-17
2.9361342e-30
2.1164539e-17
5.8756306e-30
-4.2309573e-17
0
0
0
2.1134132e-17
2.1128714e-17
0
-2.1117555e-17
-2.9251651e-30
2.1105969e-17
0
0
-2.1087797e-17
-2.9239639e-30
2.9200832e-30
-2.1068638e-17
2.1062023e-17
-8.7609773e-30
-2.1048446e-17
0
-2.10344e-17
-2.919417e-30
2.101987e-17
-2.1012422e-17
2.1004851e-17
2.0997158e-17
-2.0989343e-17
0
2.0973336e-17
2.096514e-17
-2.0956814e-17
-2.0948358e-17
0
-2.0931056e-17
2.0922212e-17
2.0913237e-17
-2.090413e-17
-4.178978e-17
1.1598985e-29
6.2628039e-17
3.8984169e-49
-2.0856615e-17
-4.1693442e-17
1.1560026e-29
4.1653066e-17
-2.0816238e-17
2.0805811e-17
-2.0795256e-17
-2.0784577e-17
4.1547549e-17
0
0
-4.1481215e-17
-3.7733501e-48
4.1435694e-17
0
0
-4.1365542e-17
-4.0125744e-48
4.1317591e-17
0
0
-4.1243947e-17
-2.0609478e-17
4.1193748e-17
2.0584161e-17
0
-4.1116812e-17
1.1410078e-29
4.1064432e-17
-2.0518966e-17
0
2.0492166e-17
-2.0478617e-17
2.9082468e-33
2.0451218e-17
-2.043737e-17
2.0423427e-17
2.0409393e-17
-2.0395272e-17
-2.0381063e-17
5.6554457e-30
2.0352381e-17
-2.0337909e-17
-5.6433902e-30
2.030871e-17
-2.0293988e-17
2.0279188e-17
2.0264312e-17
-2.0249358e-17
-2.023433e-17
5.6144778e-30
2.020406e-17
-2.0188824e-17
2.8668303e-33
2.0158164e-17
-2.0142743e-17
2.0127264e-17
2.0111727e-17
-2.0096138e-17
-4.0161002e-17
1.1148906e-29
4.0098203e-17
-2.0033347e-17
2.8446666e-33
4.0003492e-17
5.6803356e-33
-1.997004e-17
0
1.9938264e-17
0
-1.9906461e-17
0
0
0
-1.9842936e-17
-6.9313963e-49
1.9811279e-17
0
1.9779744e-17
-5.4880796e-30
-1.9748373e-17
0
0
0
-1.9686244e-17
5.4622079e-30
1.9655557e-17
0
1.9625165e-17
5.4425439e-30
-1.9595087e-17
0
1.9565347e-17
-1.9550613e-17
1.0855054e-29
1.9521429e-17
-1.9506983e-17
0
-1.9478385e-17
-5.4048318e-30
1.9450199e-17
0
1.9422445e-17
-1.9408731e-17
-1.077128e-29
1.9381625e-17
-1.0753594e-29
-2.7505047e-33
5.3735791e-30
-2.7467793e-33
-1.9315805e-17
0
1.9290268e-17
-5.3502852e-30
-5.34682e-30
5.2806105e-49
-5.3427226e-30
0
-3.8432861e-17
-5.3327174e-30
1.9192753e-17
-1.9181082e-17
5.3202717e-30
1.9158088e-17
1.9146772e-17
5.3135694e-30
-5.3104949e-30
1.9113553e-17
-1.9102717e-17
-1.9091997e-17
0
-1.9070911e-17
5.2927348e-30
1.9050305e-17
0
0
0
-3.8021026e-17
2.1104646e-29
3.7982673e-17
0
0
0
0
0
0
0
-3.7839091e-17
1.0507862e-29
3.7805667e-17
1.8894665e-17
-1.8886618e-17
-1.8878689e-17
5.24275e-30
1.0465147e-29
1.8855643e-17
-1.8848219e-17
1.8840924e-17
1.8833752e-17
-1.8826699e-17
-1.8819766e-17
1.0442622e-29
1.8806286e-17
1.8799745e-17
-5.2131924e-30
-1.8787033e-17
-1.8780853e-17
1.8774795e-17
1.8768874e-17
-1.8763093e-17
1.8757444e-17
0
-1.8746476e-17
-1.8741155e-17
5.1972807e-30
1.8730938e-17
-1.8726057e-17
1.8721296e-17
1.8716618e-17
-1.8712013e-17
1.8707507e-17
5.1934921e-30
-1.8698976e-17
-1.8694989e-17
-2.6561697e-33
3.7374659e-17
1.0373427e-29
-1.8679707e-17
-1.8676016e-17
0
1.8669593e-17
0
0
0
1.8657459e-17
1.8654196e-17
-1.8651409e-17
-1.8649249e-17
0
1.8645969e-17
-5.1796044e-30
-1.8640556e-17
0
0
1.8633813e-17
-1.0342945e-29
-1.8633028e-17
0
0
1.8626917e-17
-1.0338171e-29
-1.8623525e-17
0
1.8624101e-17
-5.1717356e-30
5.1689801e-30
-5.1712879e-30
-1.8621836e-17
0
-1.8620492e-17
1.0333266e-29
1.8621461e-17
0
1.8624129e-17
-1.8625351e-17
-1.8626316e-17
3.7254967e-17
5.1781638e-30
-3.7260287e-17
5.1734607e-30
1.8631629e-17
0
0
1.8636152e-17
-5.1731335e-30
-1.8643495e-17
0
1.865332e-17
-1.8658118e-17
-1.8662107e-17
1.8665445e-17
0
-1.867226e-17
1.8676299e-17
1.0369251e-29
-1.0371881e-29
1.8690366e-17
-1.5568709e-29
1.870075e-17
-1.8706576e-17
5.193586e-30
-1.0396328e-29
-3.7453399e-17
5.1964835e-30
1.8739507e-17
0
0
0
-3.7539824e-17
-1.8778544e-17
3.7574102e-17
1.8795608e-17
0
0
1.8822539e-17
-5.170993e-49
-1.8841499e-17
0
-3.7724469e-17
-1.8873608e-17
3.7770155e-17
1.88959e-17
0
-3.7832956e-17
-5.3795442e-33
5.681889e-17
-5.2573259e-30
-3.7930652e-17
1.8977497e-17
1.0794072e-32
-1.9001214e-17
5.2825688e-30
1.0556568e-29
1.9042141e-17
0
1.9068241e-17
-1.0593775e-29
-3.8186073e-17
1.9106711e-17
-3.18358e-29
-1.9136152e-17
3.8301705e-17
-2.7234917e-33
-1.91786e-17
0
0
0
-1.9238134e-17
1.9253783e-17
3.8538769e-17
-1.9285105e-17
-5.3594989e-30
-5.3583701e-30
-1.9332017e-17
0
1.936243e-17
-2.7538307e-33
-3.8789563e-17
1.9411561e-17
1.0778789e-29
-1.9445273e-17
-1.9461511e-17
1.0822494e-29
3.8986658e-17
0
1.9526701e-17
1.9544034e-17
0
-1.9578862e-17
-1.9595767e-17
1.9612032e-17
0
-1.9643931e-17
0
0
1.9696025e-17
-1.6416785e-29
-1.9731247e-17
0
0
1.9781322e-17
1.9797526e-17
-1.9813876e-17
-1.9830591e-17
1.984793e-17
1.9865934e-17
-3.9768568e-17
-1.9902541e-17
5.5343143e-30
1.993756e-17
-1.1070474e-29
-1.1079531e-29
1.9986617e-17
-2.000253e-17
2.0018603e-17
-2.0035062e-17
-1.7097428e-32
2.0069521e-17
-4.0173966e-17
-2.0104056e-17
-2.0120491e-17
4.0272263e-17
4.0302242e-17
-2.0166164e-17
2.0182112e-17
-2.0198992e-17
1.1227188e-29
4.0465403e-17
-2.0248614e-17
5.6239298e-30
-5.6336745e-30
-2.0291873e-17
0
0
2.0334573e-17
2.0350288e-17
0
-2.0381735e-17
-2.0396173e-17
0
-2.0422386e-17
5.6743189e-30
2.0447029e-17
-2.0459717e-17
5.6791086e-30
2.048658e-17
0
2.0514399e-17
1.1397223e-29
-2.0539476e-17
2.0550431e-17
-5.7005268e-30
-2.0570836e-17
-2.0581478e-17
-5.7153759e-30
2.0605483e-17
0
-2.062849e-17
2.0638496e-17
-5.8683869e-33
1.1471582e-29
2.0664694e-17
-2.0673622e-17
0
-4.138729e-17
4.5969272e-29
2.071387e-17
1.1502671e-29
4.1461073e-17
-4.1475661e-17
-4.1489901e-17
4.1504114e-17
4.1518746e-17
2.0766919e-17
0
-2.0781588e-17
-4.1577439e-17
2.9552774e-33
-2.0803165e-17
2.0810076e-17
2.0816218e-17
-2.0821584e-17
4.1653019e-17
-4.1662787e-17
-3.4703421e-29
4.1684081e-17
-4.1696057e-17
1.1575454e-29
-2.0858886e-17
2.0863171e-17
2.086691e-17
-2.0870499e-17
-5.7904507e-30
-4.1757449e-17
4.1767688e-17
4.177811e-17
-4.1786896e-17
-5.7996321e-30
-2.0899166e-17
1.160779e-29
2.0903778e-17
5.802347e-30
-9.3036388e-49
2.0912812e-17
4.1831831e-17
-2.0918758e-17
1.8733817e-48
-2.0924384e-17
-3.4860811e-29
2.0930219e-17
-4.1864655e-17
1.1619694e-29
4.186796e-17
-7.448468e-50
-2.093432e-17
0
0
-2.0938325e-17
2.0940554e-17
4.1884154e-17
0
0
0
-2.0941657e-17
-2.0942057e-17
0
2.0943725e-17
-2.0944325e-17
-3.488353e-29
4.1889922e-17
0
0
0
-2.0946395e-17
-2.0945109e-17
2.0943606e-17
-2.0942257e-17
-1.1629931e-29
4.1881033e-17
0
0
-4.1878167e-17
5.9511995e-33
2.0938715e-17
-2.093798e-17
2.0936501e-17
-2.0934485e-17
1.1625003e-29
4.1861291e-17
0
0
-2.0930236e-17
-2.0931216e-17
0
0
2.0928857e-17
2.0926117e-17
0
-2.0920613e-17
-2.0918645e-17
2.0917347e-17
-2.0916639e-17
-2.0916438e-17
2.0916521e-17
2.091653e-17
-1.1615974e-29
-2.0914957e-17
2.0913133e-17
5.8035847e-30
-2.0908673e-17
0
-2.0904463e-17
1.1605492e-29
2.0900738e-17
-2.0898863e-17
1.1602376e-29
2.0895152e-17
0
-2.089206e-17
5.8009537e-30
2.9685879e-33
-2.0888316e-17
2.0886899e-17
2.08853e-17
0
-4.1763127e-17
2.3191326e-29
2.0877554e-17
2.9666214e-33
4.1748256e-17
-4.174536e-17
-4.1742416e-17
4.1738963e-17
2.0867515e-17
0
-4.1727289e-17
3.4734114e-29
4.1721215e-17
0
-4.1713904e-17
-1.1581705e-29
2.0851836e-17
5.7895488e-30
4.1696318e-17
-4.1694322e-17
-5.2067371e-29
4.1688466e-17
-4.1683085e-17
1.156408e-29
4.167239e-17
2.0834431e-17
-4.1666775e-17
-2.0832583e-17
4.1662523e-17
-4.1658313e-17
-5.2018636e-29
4.164838e-17
-4.1644305e-17
5.7814191e-30
-2.081871e-17
2.3097989e-29
6.2444481e-17
-1.1552814e-29
-4.1623359e-17
2.0810947e-17
4.16208e-17
-2.0809106e-17
1.1552264e-29
-2.0803647e-17
-2.3103636e-29
2.0798048e-17
-4.1592265e-17
1.7316725e-29
-2.3085925e-29
1.1534377e-29
2.0788256e-17
0
2.0785255e-17
2.0784833e-17
0
0
0
0
0
-2.0771674e-17
-2.0769934e-17
0
2.0765799e-17
-2.0763303e-17
-3.4583719e-29
4.1518888e-17
0
0
0
-2.0754457e-17
-2.0751059e-17
2.0747608e-17
2.074467e-17
-4.1484774e-17
-3.4555232e-29
4.1476648e-17
0
-4.1467038e-17
-3.4534423e-29
2.0730136e-17
-2.0729462e-17
2.0728595e-17
-2.0726543e-17
-1.1502993e-29
4.1438849e-17
0
0
-2.071045e-17
-2.0708876e-17
0
-2.0705099e-17
-5.8840262e-33
-2.070031e-17
2.0698784e-17
6.2094687e-17
0
4.1391208e-17
4.138341e-17
0
-6.2048179e-17
-4.135971e-17
4.1357018e-17
-2.067845e-17
-2.0678535e-17
6.2031371e-17
2.0674196e-17
2.9374958e-33
2.0667781e-17
-2.0665698e-17
-2.0664669e-17
-2.0664146e-17
5.3141734e-51
-2.0660709e-17
-2.0657458e-17
2.0654321e-17
0
4.1301177e-17
4.1299991e-17
0
-2.0647508e-17
-4.1289307e-17
-1.1454758e-29
-2.0639238e-17
-4.127529e-17
4.1273748e-17
4.1272642e-17
2.0634929e-17
2.0632363e-17
0
-2.0626115e-17
-6.1871715e-17
2.0622652e-17
-8.305967e-48
-6.1866003e-17
4.124122e-17
2.0618066e-17
2.0615183e-17
4.1225451e-17
-4.1222112e-17
-2.0610217e-17
2.0609588e-17
2.0608163e-17
2.0605646e-17
-6.1807674e-17
-2.0599703e-17
6.1792858e-17
2.0596492e-17
-2.0596116e-17
-4.1191023e-17
2.0593529e-17
-2.0590343e-17
3.4276152e-29
-3.4283383e-29
-6.1747904e-17
2.0581983e-17
2.0581559e-17
4.1160488e-17
2.0577938e-17
-4.1150598e-17
-5.8471959e-33
-2.0571206e-17
2.0569863e-17
6.1705425e-17
-6.1699563e-17
-2.0564086e-17
6.1684654e-17
0
-6.1671825e-17
-2.0555538e-17
6.1661581e-17
-2.0552178e-17
-4.1100926e-17
-1.1406088e-29
2.2807213e-29
2.0544921e-17
0
4.1081848e-17
4.1077912e-17
-2.0536999e-17
-2.0535016e-17
-4.1066005e-17
2.053102e-17
2.0529119e-17
-4.1054548e-17
0
4.1046567e-17
4.1042118e-17
-2.0518861e-17
-4.1033699e-17
1.1387396e-29
2.0513176e-17
-4.1022214e-17
2.0508827e-17
-6.8296193e-29
-4.1009034e-17
2.0502744e-17
0
4.0997486e-17
0
-4.5508242e-29
-2.049156e-17
-4.0979185e-17
6.1462829e-17
-5.8222929e-33
-4.0965855e-17
0
4.0956032e-17
2.0475616e-17
-4.0946352e-17
2.272847e-29
2.0468136e-17
-4.0931159e-17
2.0462995e-17
-3.4065354e-29
-4.0915367e-17
2.0454963e-17
-2.0452204e-17
4.0898819e-17
6.1339668e-17
0
-6.1321349e-17
-4.0874409e-17
6.1301713e-17
4.0861194e-17
-2.0427289e-17
-4.0847874e-17
2.0420477e-17
2.0416867e-17
-4.0826248e-17
2.0409311e-17
4.0810967e-17
-2.0401634e-17
2.8986942e-33
-4.078768e-17
-4.0779806e-17
6.1157666e-17
-2.0381752e-17
-3.3938906e-29
6.1118998e-17
0
-6.109101e-17
-4.0717689e-17
2.0353925e-17
2.0348905e-17
2.034377e-17
0
2.0333142e-17
-1.1283393e-29
-4.0644109e-17
1.127422e-29
2.0310465e-17
0
2.0298235e-17
-4.0583717e-17
-6.0855958e-17
4.0557267e-17
6.0815451e-17
2.0264866e-17
-2.0257739e-17
-4.0500764e-17
2.0242778e-17
-2.0234949e-17
-2.0226921e-17
4.0437449e-17
-4.0420766e-17
-2.0201883e-17
6.0579516e-17
4.0368406e-17
-2.0174966e-17
-6.0496401e-17
4.4751817e-29
-4.4729638e-29
-2.0135501e-17
-2.2341833e-29
-2.0114264e-17
2.0103202e-17
2.0091819e-17
2.0080108e-17
-2.0068069e-17
-2.005571e-17
6.0129113e-17
-2.0030061e-17
-4.0033573e-17
6.0009643e-17
5.6813113e-33
-1.9975142e-17
3.9921233e-17
1.9945753e-17
0
-1.9914989e-17
-1.989905e-17
-3.9765428e-17
1.9865981e-17
-6.6105777e-29
-5.949414e-17
1.9813495e-17
1.9795171e-17
1.977639e-17
-1.9757166e-17
-1.9737547e-17
5.9152692e-17
-1.9697165e-17
-3.9352518e-17
-3.2735308e-29
-1.9632819e-17
3.9220883e-17
5.876333e-17
1.0857129e-29
-1.0846778e-29
-2.7734922e-33
-1.9491704e-17
-3.8932447e-17
-1.9440579e-17
5.8244226e-17
-2.1523943e-29
-3.8721931e-17
0
0
1.9274717e-17
-1.0682694e-29
1.0663593e-29
1.9185747e-17
-3.830941e-17
-1.9122958e-17
-2.1188001e-29
1.9057641e-17
5.7072498e-17
1.8989992e-17
0
0
0
-5.6538708e-17
-3.7618523e-17
5.6315762e-17
-2.0803021e-29
-3.739148e-17
0
0
3.71506e-17
-4.1149552e-29
-2.0522081e-29
3.6894918e-17
-1.8404109e-17
-3.672049e-17
-3.6631143e-17
1.8270016e-17
5.4670636e-17
1.8176315e-17
0
0
0
-5.3950371e-17
-3.5867096e-17
5.364846e-17
-3.9590915e-29
-1.7779072e-17
2.5190282e-33
-1.7672293e-17
3.5235323e-17
-1.9496843e-29
-1.7506594e-17
3.4901187e-17
0
-9.6256059e-30
-3.4556631e-17
-3.4438144e-17
5.1477178e-17
3.4197357e-17
-1.7038035e-17
-9.4210492e-30
1.6915064e-17
-5.0557518e-17
-3.3578227e-17
1.6724903e-17
1.6659969e-17
-1.6594348e-17
-1.6528119e-17
1.6461359e-17
1.6394094e-17
-9.0623462e-30
9.0221027e-30
1.6189051e-17
0
1.6049404e-17
-3.1957496e-17
-4.7722768e-17
3.167183e-17
3.1527417e-17
1.5690983e-17
-1.7335853e-29
-3.1087979e-17
1.54697e-17
-1.5394863e-17
-1.531946e-17
3.0487076e-17
-3.0334447e-17
-1.5090613e-17
1.5013662e-17
2.987256e-17
1.485842e-17
-2.9560105e-17
8.1561164e-30
-1.4622077e-17
-1.4542713e-17
4.3389251e-17
-1.4383131e-17
-1.4302828e-17
4.2666435e-17
-2.0095687e-33
-4.2179043e-17
-1.3977977e-17
4.1688018e-17
-1.3813804e-17
-4.2561161e-46
-2.2724435e-29
-2.7131927e-17
2.6965938e-17
2.6799582e-17
-1.3316433e-17
1.4690536e-29
2.6298449e-17
-1.3065412e-17
-3.8944455e-17
-1.2897452e-17
1.2813321e-17
0
1.2644809e-17
2.5120924e-17
-1.7729568e-33
-3.7174976e-17
-1.2307228e-17
2.4445597e-17
-1.7249679e-33
-2.4107973e-17
2.3939229e-17
-1.9795086e-29
-2.3602057e-17
3.5150623e-17
2.3265639e-17
0
0
-1.1381108e-17
-3.3892306e-17
-1.1213967e-17
3.3392064e-17
-1.2264432e-29
-2.1928912e-17
2.1763195e-17
2.1598228e-17
-1.0717021e-17
-2.1270275e-17
1.0553245e-17
1.0471304e-17
-3.1168864e-17
-1.0308586e-17
-1.7035118e-29
5.6300306e-30
1.0067996e-17
-9.9880374e-18
1.9816155e-17
2.9485085e-17
0
-2.9011984e-17
-1.9185391e-17
2.8545614e-17
-2.6824548e-33
-9.3611735e-18
1.8569446e-17
-9.2088236e-18
-9.1333951e-18
-1.0056025e-29
8.9832052e-18
1.781689e-17
-8.834399e-18
-1.7522475e-17
-1.7377391e-17
9.5680649e-30
8.5444611e-18
-8.4725065e-18
1.6801863e-17
2.4990648e-17
0
-2.457355e-17
-1.6245132e-17
2.4163316e-17
-8.8687779e-30
-7.919622e-18
7.8530703e-18
7.7869797e-18
-4.2837206e-30
-1.5312177e-17
4.2138217e-30
1.5054974e-17
-8.2853518e-30
-8.2158035e-30
-1.4678996e-17
-2.1833784e-17
1.443353e-17
-7.9464146e-30
-2.3631597e-29
7.0371002e-18
6.9786933e-18
1.384182e-17
-2.0591149e-17
-6.8070143e-18
1.3501468e-17
-1.3389921e-17
-3.7743233e-33
1.9756602e-17
6.5319302e-18
-6.4789657e-18
-1.9279852e-17
2.1232823e-29
1.2646903e-17
6.272598e-18
-1.244476e-17
-1.8518699e-17
1.8372392e-17
6.0760011e-18
6.6908298e-30
5.9815497e-18
-1.1870162e-17
3.2688953e-30
-5.8436992e-18
5.7989954e-18
-1.9169986e-29
-1.7134789e-17
1.7006462e-17
1.6879852e-17
0
0
0
-5.4628303e-18
-1.6270179e-17
-5.384556e-18
-5.9352179e-30
-5.3086423e-18
1.5814374e-17
5.2347081e-18
-5.1984322e-18
-5.1627113e-18
-5.1275976e-18
1.0186125e-17
-5.0590887e-18
5.0256769e-18
-1.6628112e-29
-9.9204028e-18
1.4784197e-17
9.7928437e-18
0
-9.6695699e-18
-5.3340098e-30
4.7752641e-18
-1.423872e-17
-4.7175678e-18
4.6892394e-18
0
0
4.6070012e-18
9.1610919e-18
-1.0112604e-29
-9.0582603e-18
-4.5039772e-18
4.4790954e-18
-4.4545528e-18
4.4304299e-18
1.216219e-46
-7.3007934e-30
1.3082262e-17
0
0
-8.5892583e-18
-8.5461556e-18
-4.2518942e-18
4.6965765e-30
1.2632145e-17
-4.6535691e-30
-8.3425283e-18
0
8.2659102e-18
4.1140461e-18
-8.190865e-18
4.0771778e-18
4.0592754e-18
-1.2125327e-17
4.0247432e-18
-1.3348429e-29
-7.982553e-18
1.1923942e-17
7.91653e-18
0
0
0
-1.1688532e-17
-7.763119e-18
1.1600781e-17
7.7045425e-18
0
-7.6472386e-18
4.2293802e-30
3.7961456e-18
-7.5660672e-18
3.7702734e-18
-3.7574372e-18
-3.7444376e-18
1.1194649e-17
-7.4379578e-18
-7.4133638e-18
3.6946306e-18
-3.6830716e-18
7.3438325e-18
1.0981787e-17
0
-1.0912323e-17
-7.2524967e-18
3.6152971e-18
3.6045198e-18
-3.9901854e-30
3.5844918e-18
-1.1906721e-29
-3.564064e-18
-1.9730414e-30
-1.8886859e-48
3.5337415e-18
0
3.5148638e-18
-7.0125371e-18
-1.0492315e-17
1.0464017e-17
1.0435371e-17
0
-6.9207728e-18
-6.9031402e-18
6.8866072e-18
-3.4357372e-18
-3.4279511e-18
1.0258023e-17
-6.8208487e-18
-6.8037927e-18
3.3938052e-18
6.7717561e-18
3.3783451e-18
-1.0114482e-17
-3.3645532e-18
-5.5896929e-30
6.696885e-18
1.8988686e-33
-9.9992584e-18
6.6516747e-18
9.956562e-18
3.3125358e-18
-9.91881e-18
-6.5981847e-18
9.8741362e-18
-7.2923773e-30
-6.5542489e-18
-3.2704545e-18
1.8117085e-30
6.5158899e-18
-3.610517e-30
3.2458607e-18
3.2386984e-18
-9.6944015e-18
-3.2246849e-18
-3.5731192e-30
6.4264255e-18
-1.0684138e-29
-9.6060214e-18
6.3903551e-18
-3.5414266e-30
-3.5355838e-30
-7.0541376e-30
-3.170922e-18
9.4953392e-18
-3.1598196e-18
-5.2525355e-30
-1.0488e-29
-9.4282458e-18
3.1363143e-18
6.2607065e-18
-3.4692222e-30
3.1200096e-18
3.1151163e-18
-6.219989e-18
-6.2088481e-18
3.4395693e-30
9.2794173e-18
-3.4270942e-30
-3.082675e-18
6.1551288e-18
-3.0725491e-18
-3.0675787e-18
1.6990316e-30
-1.69699e-30
3.0519695e-18
-6.0934895e-18
3.0416146e-18
-1.0115842e-29
-1.0099795e-29
9.0842114e-18
-6.0456487e-18
8.5753664e-34
6.0236836e-18
-3.0070868e-18
-9.0084089e-18
-2.9986739e-18
8.9829427e-18
-3.3187308e-30
-2.9842515e-18
5.9584274e-18
-5.949076e-18
-1.4840115e-29
2.9656396e-18
-2.9612143e-18
2.9567444e-18
-5.9042028e-18
2.9473696e-18
8.8280789e-18
0
0
-5.8579e-18
-8.3129987e-34
5.8417434e-18
-2.9162203e-18
-8.7331166e-18
-2.9060068e-18
8.7044783e-18
8.2349818e-34
3.2123283e-30
5.7793181e-18
-8.6555069e-18
-1.4389096e-29
2.8751436e-18
-2.8706113e-18
-2.8664636e-18
3.1792656e-30
2.8581072e-18
-5.7074939e-18
5.698409e-18
-9.4736739e-30
-5.6799244e-18
8.5063085e-18
5.6618179e-18
-2.8264079e-18
-8.4664237e-18
-2.8180385e-18
2.8135649e-18
0
-2.8034002e-18
2.798657e-18
8.383087e-18
1.5488317e-30
-5.5724974e-18
2.7818091e-18
2.7767416e-18
-5.542929e-18
2.7665504e-18
-2.7621089e-18
-5.5156606e-18
8.2601988e-18
-9.154641e-30
6.0931946e-30
5.4780593e-18
-5.4681981e-18
-2.7292273e-18
-2.7244035e-18
-3.0214764e-30
2.7148318e-18
-5.4205227e-18
5.4112035e-18
8.1011781e-18
0
-2.6896283e-18
1.4903002e-30
7.6179562e-34
-8.0271242e-18
-2.6708287e-18
7.9968495e-18
-2.6602015e-18
-2.6942859e-47
7.9494639e-18
-2.6448641e-18
-7.9193465e-18
-2.6346278e-18
5.2592155e-18
-2.624599e-18
2.6192023e-18
-8.7039757e-30
-5.2156584e-18
7.8081263e-18
2.8854927e-30
-1.1515001e-29
5.1749459e-18
-5.1643441e-18
-2.8607188e-30
2.5713738e-18
-5.1313024e-18
-2.5599673e-18
0
0
5.0884604e-18
-5.6368593e-30
-1.4399512e-33
-2.8060066e-30
-2.5220853e-18
-2.5166567e-18
2.5110996e-18
2.5053008e-18
-4.9989393e-18
4.9878319e-18
-2.7628171e-30
-4.9669288e-18
4.9560122e-18
8.2342457e-30
-2.7385194e-30
2.4611823e-18
-4.9111374e-18
2.4499544e-18
-5.4271392e-30
-4.8773218e-18
0
4.8547394e-18
2.421743e-18
-4.8319861e-18
-2.4101556e-18
2.4043924e-18
-3.995203e-30
-2.3932695e-18
0
0
4.7531218e-18
4.7415029e-18
0
-4.7190784e-18
-2.3540993e-18
2.3485146e-18
-2.3428295e-18
2.3371753e-18
0
-4.6519202e-18
0
0
2.3090988e-18
-2.5572848e-30
-2.2976858e-18
0
2.2863773e-18
1.2661952e-30
-2.2757321e-18
0
4.5297419e-18
4.5186843e-18
-2.2536329e-18
-2.4952971e-30
2.242712e-18
-4.4751049e-18
-4.4642664e-18
4.4531818e-18
6.3126525e-34
4.9195907e-30
6.2805264e-34
-4.4083868e-18
2.1987991e-18
-2.4351908e-30
2.1882978e-18
-2.1828584e-18
-6.5326663e-18
6.5174257e-18
2.1672965e-18
-2.1620526e-18
-2.3943751e-30
-2.1522434e-18
4.294372e-18
4.2840117e-18
-4.2738501e-18
-7.0993196e-30
-2.1264695e-18
-2.1209475e-18
4.2311592e-18
-2.1104459e-18
2.3368087e-30
-1.1661266e-30
2.0944123e-18
4.1786178e-18
-4.1685462e-18
-4.1583605e-18
0
2.0692736e-18
2.291864e-30
-4.1191682e-18
-2.2811331e-30
6.1500591e-18
4.0901964e-18
0
-4.0699677e-18
-4.5064128e-30
-2.0247962e-18
-2.019719e-18
6.0440079e-18
-1.1151957e-30
-4.0090846e-18
1.9994802e-18
3.9887276e-18
-1.9891881e-18
-3.9679467e-18
-1.9788058e-18
0
3.9389455e-18
-1.9656743e-18
-5.8866591e-18
1.9582602e-18
1.9529897e-18
3.8936339e-18
1.94116e-18
-3.8735536e-18
-1.9327543e-18
-1.927925e-18
2.1351485e-30
1.9193528e-18
1.9146426e-18
3.8173878e-18
1.9022458e-18
0
0
0
-3.7617907e-18
-3.7524024e-18
3.7429297e-18
2.0722848e-30
2.0669125e-30
-2.0609945e-30
-4.1127843e-30
3.6944901e-18
0
-3.6747094e-18
-1.8322761e-18
1.8270963e-18
-1.8218334e-18
-1.8165209e-18
0
0
3.6012729e-18
-5.9796125e-30
-3.974983e-30
3.5703877e-18
-3.5602823e-18
-3.5502273e-18
0
3.5300888e-18
-1.9533111e-30
-3.5095604e-18
3.4990388e-18
1.9367792e-30
-3.4774201e-18
0
3.4552186e-18
1.7220126e-18
-3.4328418e-18
1.710855e-18
3.7873146e-30
-3.3996846e-18
3.3887917e-18
3.3779564e-18
0
0
0
-3.334633e-18
-3.323679e-18
3.3126436e-18
0
-3.2903222e-18
0
-1.6338596e-18
3.256346e-18
1.6224724e-18
-1.6167644e-18
3.2221073e-18
1.6053427e-18
-3.1992631e-18
-1.5939186e-18
-1.7633692e-30
1.5824719e-18
-3.5008183e-30
8.9299199e-34
3.1303703e-18
0
-1.5535482e-18
-3.0953909e-18
-1.5418233e-18
0
0
0
-1.5182233e-18
3.0246293e-18
1.5064066e-18
-1.5004991e-18
-1.4945905e-18
1.4886786e-18
1.48276e-18
-2.953663e-18
0
2.9298681e-18
2.9179248e-18
0
0
-2.8819255e-18
-1.5930032e-30
-1.4289149e-18
-1.4228864e-18
1.4168601e-18
-1.4108391e-18
1.4048256e-18
2.797642e-18
1.3928254e-18
0
-2.7617195e-18
-1.5259439e-30
1.3689225e-18
-1.3629622e-18
-1.3570065e-18
-2.70211e-18
2.6902157e-18
1.3391655e-18
-3.7892643e-34
1.3272989e-18
-2.6427541e-18
1.3154647e-18
-1.3095634e-18
-1.3581678e-47
1.2977984e-18
-2.5838726e-18
2.5721767e-18
2.5605098e-18
0
-1.2686325e-18
-2.5256881e-18
6.9776999e-31
1.251314e-18
1.245573e-18
-2.4796976e-18
-2.4682841e-18
1.2284539e-18
2.4455701e-18
2.4342729e-18
-1.2115086e-18
-2.4118038e-18
1.2003168e-18
-1.194754e-18
1.9799745e-30
1.1836974e-18
-2.3564081e-18
2.3454679e-18
1.295534e-30
-6.4495516e-30
2.3129246e-18
-2.3021717e-18
-5.0877554e-30
1.1404068e-18
-2.270208e-18
1.1298256e-18
-3.1962259e-34
4.9705665e-30
1.1141414e-18
-2.217931e-18
2.4508068e-30
-6.0970157e-31
1.0935942e-18
-3.093763e-34
-2.1669464e-18
2.1569024e-18
6.1018882e-34
-4.7447271e-30
2.1270837e-18
-2.117245e-18
-2.3395956e-30
2.0977148e-18
-1.0440125e-18
-1.0391934e-18
-1.0344e-18
1.0296317e-18
-1.1377808e-30
-2.0403338e-18
0
0
2.0122973e-18
2.846503e-34
-1.9938457e-18
9.9234335e-19
-1.0963105e-30
9.8324677e-19
2.1730765e-30
-1.9484646e-18
0
-9.6529746e-19
1.9217148e-18
9.5643403e-19
-2.1140593e-30
9.4763512e-19
-1.8865176e-18
9.3889701e-19
-1.0372255e-30
-1.8604259e-18
0
0
9.1727372e-19
-5.0677428e-31
9.0869916e-19
-9.044249e-19
-2.7004745e-18
2.6876961e-18
8.9164642e-19
-1.7748022e-18
8.8316221e-19
1.4634918e-30
8.746998e-19
-4.9480756e-34
-2.8852644e-30
8.6203546e-19
-1.7156422e-18
-8.5360933e-19
0
-8.4518932e-19
8.4097937e-19
8.3676903e-19
8.3255816e-19
-1.8391807e-30
9.1467842e-31
-9.0999883e-31
-1.6313927e-18
8.1147197e-19
1.344129e-30
-1.6060191e-18
1.1351218e-34
7.9452667e-19
1.5805514e-18
1.5720348e-18
-1.5635027e-18
-8.6356021e-31
-7.7319618e-19
-7.6890698e-19
1.5292189e-18
-1.5206056e-18
-7.5598641e-19