/*--------------------------------*- C++ -*----------------------------------*\
  =========                 |
  \\      /  F ield         | OpenFOAM: The Open Source CFD Toolbox
   \\    /   O peration     | Website:  https://openfoam.org
    \\  /    A nd           | Version:  7
     \\/     M anipulation  |
\*---------------------------------------------------------------------------*/
FoamFile
{
    version     2.0;
    format      ascii;
    class       volScalarField;
    location    "0.00077";
    object      Uy;
}
// * * * * * * * * * * * * * * * * * * * * * * * * * * * * * * * * * * * * * //

dimensions      [0 1 -1 0 0 0 0];

internalField   nonuniform List<scalar> 
5000
(
1.2328692e-16
1.3770316e-16
0
0
-7.2151082e-17
8.214627e-32
7.2355676e-17
0
0
-7.248031e-17
-1.4498252e-16
7.2488917e-17
7.2478141e-17
-7.2459177e-17
0
-7.2392106e-17
-3.0502154e-47
7.229692e-17
0
7.2183339e-17
-7.2124273e-17
-7.2068609e-17
1.4403485e-16
-7.1975494e-17
-7.1943188e-17
-5.9281643e-31
7.1913789e-17
7.1919881e-17
-1.4387063e-16
1.2476514e-30
-1.2585004e-30
7.2043404e-17
1.4418159e-16
-1.442845e-16
1.2516206e-30
-6.2830146e-30
-2.5065922e-30
1.4466588e-16
-1.4474072e-16
-1.4480827e-16
1.4486201e-16
-4.9834308e-30
-1.449411e-16
7.2483643e-17
2.1747306e-16
-7.2495634e-17
-7.2495662e-17
-4.9655747e-30
-1.4497665e-16
0
7.2472845e-17
1.0297709e-32
-7.2451901e-17
1.4488157e-16
-2.5319679e-30
-1.4483012e-16
7.2400701e-17
-2.4997151e-30
-7.2372704e-17
0
7.234396e-17
2.4668857e-30
2.0553098e-32
7.2300369e-17
-7.2285355e-17
2.5264911e-30
7.2255783e-17
-7.2241041e-17
-7.2226137e-17
7.2211332e-17
7.2196458e-17
-7.2181628e-17
-7.2166773e-17
1.4430388e-16
7.2137096e-17
-7.2122265e-17
0
7.2092613e-17
-1.0242871e-32
-7.2062985e-17
7.204818e-17
-2.0473118e-32
2.0468914e-32
7.2003805e-17
7.1989029e-17
2.5058986e-30
-7.19595e-17
0
-7.1930008e-17
-7.4604363e-30
-2.5135503e-30
7.1885857e-17
7.1871169e-17
-1.43713e-16
-4.9719489e-30
7.182722e-17
0
0
-7.1783513e-17
-4.9771076e-30
1.4350915e-16
-7.1740182e-17
-1.4345171e-16
0
7.1697426e-17
7.1683347e-17
-7.1669375e-17
-7.1655521e-17
0
0
7.1614805e-17
7.160156e-17
0
-7.1575631e-17
2.5017485e-30
7.1550514e-17
-7.1538273e-17
2.0328981e-32
-2.5000512e-30
-2.7702406e-49
1.4298266e-16
-3.0473767e-32
-7.1468836e-17
0
-7.1446648e-17
7.1435542e-17
7.1424345e-17
-1.4282596e-16
-7.140137e-17
1.4277885e-16
7.1377045e-17
-7.1364136e-17
-7.1350592e-17
-7.1336306e-17
0
7.1305086e-17
7.1287944e-17
-7.1269651e-17
-2.4705612e-30
7.1229267e-17
-7.1207033e-17
-7.1183364e-17
0
7.1131597e-17
7.1103483e-17
-7.1073905e-17
7.1042909e-17
-4.0364829e-32
-7.0976941e-17
7.0942166e-17
-7.0906365e-17
4.9348821e-30
7.0832296e-17
-7.0794382e-17
7.075614e-17
7.071778e-17
-7.0679522e-17
0
0
-7.056761e-17
-7.0532013e-17
7.0497638e-17
7.0464691e-17
-7.0433367e-17
-4.8824343e-30
7.0376291e-17
-7.0350845e-17
-7.0327628e-17
0
7.0288261e-17
7.0272236e-17
0
-7.024764e-17
-7.0239051e-17
0
7.0229069e-17
1.4610617e-29
-7.0227954e-17
7.0230281e-17
7.0234523e-17
-7.0240554e-17
-4.8516758e-30
4.8323378e-30
2.9956949e-32
7.0279298e-17
-7.0291773e-17
-9.7511599e-30
4.8365667e-30
-4.8375457e-30
7.0347543e-17
0
0
-7.039093e-17
-7.0404904e-17
0
0
7.0443692e-17
-8.0910548e-49
-7.0466002e-17
0
7.0484817e-17
-7.0492795e-17
-1.9536311e-29
1.4101149e-16
-7.0510687e-17
-1.4640283e-29
-1.0021139e-32
-7.051932e-17
7.052007e-17
-1.002147e-32
-9.7607478e-30
4.8802295e-30
-7.05136e-17
0
7.0505238e-17
4.8790775e-30
1.9564727e-29
7.0487164e-17
0
-7.0471907e-17
-7.0463438e-17
0
0
0
7.0424849e-17
4.8731459e-30
-7.0403217e-17
0
0
7.036854e-17
7.0356491e-17
-7.0344238e-17
-7.03318e-17
0
7.0306444e-17
7.029356e-17
-7.0280559e-17
-7.0267455e-17
0
7.0240983e-17
-1.9500817e-29
-4.8692844e-30
7.0200766e-17
-7.0187258e-17
-7.0173711e-17
0
7.014652e-17
-9.7472199e-30
7.0119232e-17
9.723497e-30
-1.4018375e-16
7.0078182e-17
-9.717799e-30
-2.4319608e-29
-4.8470449e-30
-7.0023339e-17
7.0009622e-17
6.9995904e-17
0
-6.9968473e-17
-6.9954761e-17
0
6.9927348e-17
6.9913649e-17
-1.3979991e-16
-6.9886264e-17
6.987258e-17
6.9858902e-17
1.9374779e-29
-6.9831565e-17
6.9817906e-17
-4.8408532e-30
-6.9790609e-17
6.977697e-17
-4.8479297e-30
4.8568949e-30
-1.9820191e-32
-4.8153663e-30
6.9708882e-17
0
0
-6.9668115e-17
-6.965454e-17
0
0
0
0
6.9586777e-17
4.7951721e-30
-1.3911944e-16
2.9649331e-32
6.9532697e-17
6.9519195e-17
-9.6501749e-30
-9.6285515e-30
-9.8735218e-33
-6.946526e-17
-6.9451794e-17
-6.9438336e-17
1.3884977e-16
2.0823432e-16
-6.9398005e-17
-1.3876915e-16
0
6.9357738e-17
6.934433e-17
-6.933093e-17
1.9701229e-32
-2.9546136e-32
1.9693622e-32
6.9277399e-17
6.9264034e-17
-6.9250677e-17
-1.3847465e-16
6.9223983e-17
3.8140373e-49
6.9197318e-17
1.9171693e-29
-1.3834136e-16
0
0
1.3826156e-16
-3.8385105e-29
-1.3820843e-16
0
6.9077677e-17
6.9064419e-17
-6.9051168e-17
9.8108791e-33
-9.5833911e-30
9.807118e-33
6.8998235e-17
-6.8985019e-17
-6.897181e-17
0
6.8945414e-17
-9.5705538e-30
-6.8919046e-17
1.3781174e-16
-1.9110553e-29
-6.8879545e-17
-1.9122827e-29
-1.3770649e-16
1.3768022e-16
6.8826976e-17
-6.8813851e-17
-9.7771723e-33
-6.8787622e-17
0
0
6.8748331e-17
-9.5334374e-30
-1.3744434e-16
9.7641506e-33
2.0608812e-16
-6.8682984e-17
-6.8669935e-17
1.3731379e-16
-6.8643858e-17
6.863083e-17
1.3723562e-16
-6.8604794e-17
-6.8591786e-17
-6.8578786e-17
6.8565792e-17
7.3985643e-49
-6.8539824e-17
6.8526851e-17
-6.8513884e-17
6.8500925e-17
1.8978816e-29
1.9461773e-32
6.8462086e-17
-1.3689831e-16
6.8436228e-17
1.8999791e-29
-1.8976762e-29
-6.8397491e-17
-1.3676919e-16
2.051151e-16
1.8962454e-29
-3.7917763e-29
1.893589e-29
-1.366404e-16
1.3661468e-16
-1.8944611e-29
-1.3656329e-16
0
0
6.8243152e-17
-9.4634069e-30
-6.8217523e-17
-6.8204718e-17
6.819192e-17
2.0453739e-16
-6.8166344e-17
-6.8153566e-17
-1.9366779e-32
-6.812803e-17
0
1.3620504e-16
1.3617955e-16
-6.8077038e-17
-1.3612861e-16
-6.8051582e-17
1.3607773e-16
1.360523e-16
-1.3602689e-16
-1.360015e-16
0
1.3595074e-16
-6.7962692e-17
-1.3590004e-16
6.7937353e-17
6.7924694e-17
-9.6508815e-33
9.4271555e-30
6.7886756e-17
-6.7874122e-17
-6.7861496e-17
6.7848876e-17
-9.4087499e-30
-9.638321e-33
-9.4052536e-30
-6.779846e-17
6.7785872e-17
-2.8228941e-29
-9.4079012e-30
-1.8802685e-29
-6.7735585e-17
6.7723029e-17
-9.4009265e-30
-1.8769509e-29
-9.618674e-33
-1.3534574e-16
-6.7660348e-17
6.7647831e-17
1.3527064e-16
-9.3887551e-30
-1.3522064e-16
-6.7597826e-17
1.3517068e-16
6.7572862e-17
-6.756039e-17
-6.7547924e-17
-1.8743657e-29
6.7523011e-17
0
0
6.7485689e-17
0
-6.7460839e-17
6.7448424e-17
9.5832342e-33
-1.8712614e-29
0
-6.7398827e-17
6.7386444e-17
6.7374067e-17
-1.3472339e-16
-6.7349332e-17
6.7336974e-17
0
0
-6.7299939e-17
1.8693992e-29
6.7275281e-17
0
0
-6.7238342e-17
2.8010554e-29
6.7213747e-17
0
0
0
0
0
0
0
0
1.3420678e-16
3.724069e-29
-6.7078934e-17
6.7066716e-17
-6.7054504e-17
6.7042299e-17
-1.8631976e-29
-6.7017907e-17
-1.8606155e-29
-6.6993539e-17
0
0
6.6957034e-17
1.858926e-29
-6.6932727e-17
0
0
0
0
0
0
0
1.3367146e-16
-5.5628792e-29
-1.3362307e-16
6.6799447e-17
9.4910553e-33
6.6775286e-17
-3.7020706e-29
-1.3350229e-16
-6.6739082e-17
-3.3970377e-49
2.0014491e-16
0
-1.3338176e-16
0
0
1.3330956e-16
-1.8486427e-29
-1.9989222e-16
6.6618725e-17
6.6606716e-17
-6.6594713e-17
6.6582714e-17
-6.657072e-17
-1.8463118e-29
6.6546747e-17
-6.6534769e-17
0
-6.6510829e-17
6.6498867e-17
1.3297382e-16
-6.6474962e-17
-6.6463019e-17
-6.6451083e-17
-6.6439153e-17
1.3285446e-16
6.6415316e-17
-6.6403409e-17
0
6.6379621e-17
-6.636774e-17
-6.6355868e-17
1.9903202e-16
1.8852733e-32
-1.3264063e-16
6.6308488e-17
9.2046334e-30
6.628487e-17
-1.8835942e-32
-1.3252261e-16
6.6249545e-17
0
-1.8389662e-29
-9.4096267e-33
-6.6202669e-17
6.6190995e-17
-1.8376686e-29
-9.1773247e-30
-9.4013465e-33
-6.6144505e-17
6.6132938e-17
3.1921037e-49
-1.8357398e-29
-9.3931459e-33
-1.3217385e-16
-9.1645344e-30
6.6064083e-17
0
0
-6.6030049e-17
-2.7470002e-29
6.6007523e-17
-6.5996312e-17
9.1613798e-30
1.2025631e-48
-9.1582922e-30
6.5951838e-17
6.5940816e-17
9.1443324e-30
-6.5918895e-17
0
0
6.5886331e-17
-6.5875564e-17
5.4830629e-29
6.5854167e-17
-6.5843537e-17
0
6.5822419e-17
6.5811932e-17
-6.5801493e-17
-6.5791102e-17
0
6.5770469e-17
6.5760226e-17
-1.3150007e-16
-6.5739891e-17
6.5729798e-17
6.5719755e-17
9.1138089e-30
6.569982e-17
1.8240786e-29
-1.3136017e-16
0
0
0
6.5641203e-17
6.5631605e-17
0
-6.561255e-17
-9.0896912e-30
6.5593682e-17
0
0
-6.556572e-17
-9.0925499e-30
9.0819605e-30
-6.5538151e-17
6.5529044e-17
-2.7262459e-29
-6.5510953e-17
0
-6.5493016e-17
-9.0918163e-30
6.5475228e-17
-6.5466387e-17
6.5457581e-17
6.5448808e-17
-6.5440068e-17
0
6.5422681e-17
6.5414033e-17
-6.5405414e-17
-6.5396824e-17
0
-6.5379723e-17
6.5371211e-17
6.5362724e-17
-6.5354261e-17
-1.3069164e-16
3.6285793e-29
1.9598702e-16
1.7301438e-49
-6.5312275e-17
-1.3060788e-16
3.6225474e-29
1.3057465e-16
-6.5279042e-17
6.5270778e-17
-6.526253e-17
-6.5254298e-17
1.3049216e-16
0
0
-1.3044304e-16
-1.3082194e-48
1.3041044e-16
0
0
-1.3036173e-16
-1.2857351e-48
1.3032938e-16
0
0
-1.3028105e-16
-6.5132492e-17
1.3024894e-16
6.5116464e-17
0
-1.3020097e-16
3.614979e-29
1.301691e-16
-6.50766e-17
0
6.5060738e-17
-6.5052825e-17
9.2434396e-33
6.5037034e-17
-6.5029157e-17
6.5021292e-17
6.501344e-17
-6.5005599e-17
-6.4997771e-17
1.8046417e-29
6.4982152e-17
-6.497436e-17
-1.8039927e-29
6.4958814e-17
-6.495106e-17
6.4943317e-17
6.4935587e-17
-6.4927868e-17
-6.4920161e-17
1.80249e-29
6.4904782e-17
-6.4897109e-17
9.221345e-33
6.4881795e-17
-6.4874154e-17
6.4866522e-17
6.48589e-17
-6.4851287e-17
-1.2968736e-16
3.6025809e-29
1.2965699e-16
-6.4820912e-17
9.2105289e-33
1.2961153e-16
1.8416755e-32
-6.4790635e-17
0
6.4775518e-17
0
-6.4760407e-17
0
0
0
-6.4730172e-17
-1.39304e-49
6.4715031e-17
0
6.4699863e-17
-1.7963755e-29
-6.4684658e-17
0
0
0
-6.4654098e-17
1.7951024e-29
6.4638723e-17
0
6.4623269e-17
1.7933259e-29
-6.4607727e-17
0
6.4592086e-17
-6.4584224e-17
3.5881479e-29
6.4568413e-17
-6.4560461e-17
0
-6.4544457e-17
-1.7920475e-29
6.4528312e-17
0
6.4512016e-17
-6.4503808e-17
-3.5818267e-29
6.4487268e-17
-3.579987e-29
-9.1618168e-33
1.7909011e-29
-9.1594159e-33
-6.4445142e-17
0
6.4427962e-17
-1.7878803e-29
-1.7876384e-29
2.004009e-49
-1.7880656e-29
0
-1.2875043e-16
-1.7873224e-29
6.4357213e-17
-6.4348133e-17
1.7856516e-29
6.432981e-17
6.4320567e-17
1.785796e-29
-1.7855363e-29
6.4292513e-17
-6.4283052e-17
-6.4273538e-17
0
-6.4254347e-17
1.7839467e-29
6.4234941e-17
0
0
0
-1.28391e-16
7.1292156e-29
1.2835094e-16
0
0
0
0
0
0
0
-1.2818684e-16
3.5607339e-29
1.2814491e-16
6.4061912e-17
-6.4051326e-17
-6.4040701e-17
1.7788966e-29
3.55174e-29
6.4008596e-17
-6.3997821e-17
6.3987012e-17
6.3976169e-17
-6.3965294e-17
-6.3954388e-17
3.5493474e-29
6.3932484e-17
6.3921489e-17
-1.7728501e-29
-6.3899419e-17
-6.3888345e-17
6.3877248e-17
6.3866127e-17
-6.3854984e-17
6.384382e-17
0
-6.3821433e-17
-6.3810212e-17
1.7697573e-29
6.3787719e-17
-6.3776449e-17
6.3765165e-17
6.3753867e-17
-6.3742556e-17
6.3731233e-17
1.7693748e-29
-6.3708556e-17
-6.3697203e-17
-9.0503023e-33
1.2734894e-16
3.5346902e-29
-6.365171e-17
-6.364032e-17
0
6.3617526e-17
0
0
0
6.3571893e-17
6.3560479e-17
-6.3549063e-17
-6.3537646e-17
0
6.3514812e-17
-1.7642653e-29
-6.3491978e-17
0
0
6.3457736e-17
-3.5217532e-29
-6.3434917e-17
0
0
6.3400707e-17
-3.5185883e-29
-6.3377914e-17
0
6.3355135e-17
-1.7589299e-29
1.7577139e-29
-1.758298e-29
-6.3309619e-17
0
-6.3286882e-17
3.5113729e-29
6.326416e-17
0
6.3241452e-17
-6.3230103e-17
-6.3218758e-17
1.2641483e-16
1.7566254e-29
-1.2636948e-16
1.7541997e-29
6.3162073e-17
0
0
6.3128087e-17
-1.7517299e-29
-6.3105437e-17
0
6.3082787e-17
-6.3071462e-17
-6.3060135e-17
6.3048807e-17
0
-6.3026144e-17
6.3014807e-17
3.4971711e-29
-3.4965413e-29
6.2980769e-17
-5.243816e-29
6.2958045e-17
-6.2946671e-17
1.7466933e-29
-3.4945426e-29
-1.2582497e-16
1.7448497e-29
6.2889635e-17
0
0
0
-1.2568745e-16
-6.2832197e-17
1.2564129e-16
6.2809064e-17
0
0
6.2774143e-17
3.5424523e-49
-6.2750686e-17
0
-1.2545412e-16
-6.2715178e-17
1.2540649e-16
6.2691253e-17
0
-1.2533418e-16
-1.7807596e-32
1.8792797e-16
-1.7373394e-29
-1.2523582e-16
6.2605407e-17
3.5579893e-32
-6.2580112e-17
1.7382587e-29
3.4704659e-29
6.2541347e-17
0
6.251487e-17
-3.4701917e-29
-1.2497562e-16
6.2474035e-17
-1.0399253e-28
-6.2445952e-17
1.2486324e-16
-8.8700006e-33
-6.2402318e-17
0
0
0
-6.234078e-17
6.2324697e-17
1.246166e-16
-6.2291577e-17
-1.729239e-29
-1.7269852e-29
-6.2239228e-17
0
6.2202305e-17
-8.8367596e-33
-1.2432709e-16
6.2143414e-17
3.4465187e-29
-6.2101507e-17
-6.207967e-17
3.4481731e-29
1.2406807e-16
0
6.1985584e-17
6.1960217e-17
0
-6.1906999e-17
-6.1879061e-17
6.1850177e-17
0
-6.1789379e-17
0
0
6.1689827e-17
-5.1342904e-29
-6.1617231e-17
0
0
6.1497741e-17
6.1454812e-17
-6.1410212e-17
-6.1363863e-17
6.1315685e-17
6.1265592e-17
-1.22427e-16
-6.1159318e-17
1.6975757e-29
6.1044305e-17
-3.383302e-29
-3.3797784e-29
6.085366e-17
-6.0784851e-17
6.0713222e-17
-6.0638655e-17
-5.1637437e-32
6.0480209e-17
-1.2079214e-16
-6.0308478e-17
-6.0217289e-17
1.2024472e-16
1.2004708e-16
-5.992068e-17
5.981362e-17
-5.9702197e-17
3.3091829e-29
1.1893118e-16
-5.9340058e-17
1.6432876e-29
-1.6411966e-29
-5.8932355e-17
0
0
5.8473924e-17
5.8308891e-17
0
-5.7959203e-17
-5.7774102e-17
0
-5.738223e-17
1.5876355e-29
5.695987e-17
-5.6736642e-17
1.5674266e-29
5.6264813e-17
0
5.5757403e-17
3.0808875e-29
-5.5212247e-17
5.4924819e-17
-1.5145573e-29
-5.4318839e-17
-5.3999704e-17
-1.4895301e-29
5.3327666e-17
0
-5.2608589e-17
5.2230646e-17
-1.4733819e-32
2.8565726e-29
5.1019456e-17
-5.0588889e-17
0
-9.9371184e-17
1.0926609e-28
4.872394e-17
2.6766002e-29
9.5402726e-17
-9.4332846e-17
-9.3230577e-17
9.209528e-17
9.0926317e-17
4.4861528e-17
0
-4.3605568e-17
-8.5901237e-17
6.0079629e-33
-4.1585253e-17
4.087424e-17
4.0143947e-17
-3.9394088e-17
7.7248762e-17
-7.56691e-17
-6.1664463e-29
7.2386886e-17
-7.0683298e-17
1.9132745e-29
-3.3574342e-17
3.2658358e-17
3.1720521e-17
-3.0760619e-17
-8.260419e-30
-5.7547633e-17
5.5493085e-17
5.339291e-17
-5.1246789e-17
-6.8072339e-30
-2.3407779e-17
1.2365077e-29
2.1098668e-17
5.5254447e-30
2.3592418e-46
1.7457961e-17
3.2393787e-17
-1.4912e-17
-5.7219698e-46
-1.2270651e-17
-1.8180822e-29
9.5339014e-18
-1.6259632e-17
3.7201139e-30
1.0501016e-17
7.1586392e-47
-2.272305e-18
0
0
2.3625269e-18
-3.9538638e-18
-1.1135579e-17
0
0
0
1.2247809e-17
1.3972436e-17
0
-1.7485403e-17
1.9273125e-17
3.5111067e-29
-4.5818824e-17
0
0
0
3.0415229e-17
3.2337996e-17
-3.4278452e-17
3.6236154e-17
2.1220673e-29
-8.0402936e-17
0
0
9.2534056e-17
-1.373287e-32
-5.0383277e-17
5.2461595e-17
-5.4552659e-17
5.6655913e-17
-3.2638965e-29
-1.2179351e-16
0
0
6.7335222e-17
6.9499615e-17
0
0
-7.6039099e-17
-7.823232e-17
0
8.2635134e-17
8.4843473e-17
-8.705559e-17
8.9270853e-17
9.1488626e-17
-9.3708271e-17
-9.5929155e-17
5.4508959e-29
1.003721e-16
-1.025929e-16
-2.908943e-29
1.0703005e-16
0
1.114572e-16
-6.3109155e-29
-1.1586955e-16
1.1806869e-16
-6.677184e-29
-1.2244997e-16
0
1.2680462e-16
-3.5812528e-29
-1.8634374e-32
1.3327548e-16
-1.3541328e-16
-1.3754134e-16
0
2.8352971e-16
-1.5978699e-28
-1.4594046e-16
-2.103336e-32
-3.0012869e-16
3.0421132e-16
3.0826512e-16
-3.1228912e-16
-1.5814117e-16
0
3.2417136e-16
-2.7310579e-28
-3.3193025e-16
0
3.3954305e-16
9.532624e-29
-1.7350472e-16
-4.86891e-29
-3.5432068e-16
3.5791617e-16
4.5142246e-28
-3.6498302e-16
3.6845283e-16
-1.0318415e-28
-3.7526134e-16
-1.8929966e-16
3.8189175e-16
1.9256891e-16
-3.8833721e-16
3.9148964e-16
4.9278971e-28
-3.9765147e-16
4.0065882e-16
-5.603821e-29
2.0326213e-16
-2.2712122e-28
-6.182835e-16
1.1516289e-28
4.1764624e-16
-2.1014771e-16
-4.2289172e-16
2.1271718e-16
-1.1879501e-28
2.1517753e-16
2.403241e-28
-2.1753031e-16
4.3732736e-16
-1.8301386e-28
2.4520455e-28
-1.2310596e-28
-2.2291624e-16
0
-2.248705e-16
-2.2580415e-16
0
0
0
0
0
2.3078555e-16
2.3151099e-16
0
-2.3287102e-16
2.3350518e-16
3.8997736e-28
-4.6936265e-16
0
0
0
2.3666137e-16
2.3707815e-16
-2.3746341e-16
-2.3781706e-16
4.7627795e-16
3.9724198e-28
-4.7737367e-16
0
4.7820807e-16
3.9856531e-28
-2.3939189e-16
2.3948725e-16
-2.3955012e-16
2.3958041e-16
1.3298401e-28
-4.7908577e-16
0
0
2.3924021e-16
2.3907333e-16
0
2.386402e-16
6.7749919e-32
2.380742e-16
-2.3774123e-16
-7.1212469e-16
0
-4.7308392e-16
-4.7215058e-16
0
7.0512417e-16
4.6894824e-16
-4.6774658e-16
2.3323888e-16
2.325709e-16
-6.9560806e-16
-2.3113425e-16
-3.2736921e-32
-2.2956345e-16
2.2872781e-16
2.2785874e-16
2.2695628e-16
4.8631505e-47
2.2505144e-16
2.2404921e-16
-2.2301387e-16
0
-4.4168864e-16
-4.3942066e-16
0
2.1734457e-16
4.3222621e-16
1.1922725e-28
2.1355385e-16
4.2445288e-16
-4.2173491e-16
-4.1895424e-16
-2.0805567e-16
-2.0660338e-16
0
2.0360736e-16
6.0619272e-16
-2.0049147e-16
-8.6398735e-45
5.9177514e-16
-3.9119762e-16
-1.9391108e-16
-1.9219561e-16
-3.8090571e-16
3.7736653e-16
1.8688732e-16
-1.8506552e-16
-1.832184e-16
-1.8134649e-16
5.3835111e-16
1.7753062e-16
-5.2676354e-16
-1.7362268e-16
1.7163578e-16
3.3925564e-16
-1.6759948e-16
1.655515e-16
-2.7219265e-28
2.688129e-28
4.7789134e-16
-1.5717811e-16
-1.5504335e-16
-3.0578736e-16
-1.5072996e-16
2.9710614e-16
4.1599122e-32
1.4416337e-16
-1.4195241e-16
-4.1919593e-16
4.1250909e-16
1.3526655e-16
-3.9907055e-16
0
3.8556559e-16
1.2626529e-16
-3.7201877e-16
1.2174582e-16
2.3897006e-16
6.5068754e-29
-1.2761411e-28
-1.1271117e-16
0
-2.164261e-16
-2.1194507e-16
1.0373915e-16
1.0151394e-16
1.9859599e-16
-9.7092347e-17
-9.489805e-17
1.8543228e-16
0
-1.7678712e-16
-1.7250981e-16
8.4132652e-17
1.6405553e-16
-4.4373439e-29
-7.7873867e-17
1.5165336e-16
-7.3800524e-17
2.3911425e-28
1.3962938e-16
-6.785665e-17
0
-1.2802841e-16
0
1.3384543e-28
5.8445362e-17
1.1328735e-16
-1.6461087e-16
1.5099248e-32
1.0282118e-16
0
-9.6140461e-17
-4.6445885e-17
8.9705196e-17
-4.8065407e-29
-4.176048e-17
8.052439e-17
-3.879606e-17
6.2206051e-29
7.1921834e-17
-3.4592153e-17
3.3256028e-17
-6.3905146e-17
-9.2045343e-17
0
8.4713964e-17
5.4129601e-17
-7.7771718e-17
-4.9630257e-17
2.3738262e-17
4.5386135e-17
-2.167928e-17
-2.0696604e-17
3.9489435e-17
-1.8823273e-17
-3.5863793e-17
1.7070193e-17
-2.3075221e-33
3.0868219e-17
2.9317662e-17
-4.1734293e-17
1.3191416e-17
2.0816029e-29
-3.5494455e-17
0
3.1724386e-17
1.9967577e-17
-9.416918e-18
-8.8736094e-18
-8.3532796e-18
0
-7.3792004e-18
3.8434935e-30
1.2979875e-17
-3.3715679e-30
-5.6807173e-18
0
-4.9467734e-18
9.2130981e-18
1.2850125e-17
-7.9533402e-18
-1.105758e-17
-3.4103759e-18
3.1496584e-18
5.8063061e-18
-2.6703163e-18
2.4506156e-18
2.2435203e-18
-4.0970396e-18
3.7302191e-18
1.6927898e-18
-4.5932644e-18
-2.7590518e-18
1.2376448e-18
3.3150168e-18
-2.1784842e-30
1.9221274e-30
7.5821516e-19
7.3081624e-31
5.6557926e-19
-4.796711e-19
-4.0022579e-19
-3.2689053e-19
2.5933495e-19
1.9723179e-19
-4.2080978e-19
8.815056e-20
8.1266251e-20
6.923287e-21
1.1768543e-35
-7.709838e-20
2.1806902e-19
1.3748648e-19
0
-1.8533249e-19
-2.0507028e-19
-4.4474032e-19
2.3742197e-19
-8.3333721e-31
-7.8295115e-19
2.6989462e-19
2.7708274e-19
2.8267461e-19
-2.8681301e-19
-2.8961583e-19
8.7360376e-19
-2.9167362e-19
-5.822542e-19
-4.8245061e-31
-2.873834e-19
5.6868447e-19
8.4192325e-19
1.5336419e-31
-1.5075402e-31
-3.7855274e-35
-2.6081289e-19
-5.0988552e-19
-2.4882414e-19
7.2755296e-19
-2.6208709e-31
-4.5914789e-19
0
0
2.0999527e-19
-1.1299158e-31
1.0943673e-31
1.9094204e-19
-3.69545e-19
-1.7867891e-19
-1.9160638e-31
1.6662126e-19
4.8172756e-19
1.5444931e-19
0
0
0
-3.8354516e-19
-2.407929e-19
3.3767994e-19
-1.1587848e-31
-1.9163808e-19
0
0
1.3864893e-19
-1.3475617e-31
-5.8171912e-32
8.9331228e-20
-3.7639161e-20
-6.2602421e-20
-5.0993612e-20
2.0196666e-20
4.6283566e-20
1.1262637e-20
0
0
0
1.6797546e-21
5.177068e-21
-1.2555491e-20
1.2039755e-32
6.5313397e-21
-1.0723048e-36
8.3326845e-21
-1.7722713e-20
1.0284251e-32
9.6595283e-21
-2.0049312e-20
0
5.7448481e-33
2.0819072e-20
2.1130479e-20
-3.2425827e-20
-2.2106118e-20
1.1250348e-20
6.3527053e-33
-1.1815955e-20
3.7321522e-20
2.6229485e-20
-1.3664229e-20
-1.4335523e-20
1.5317437e-20
1.6236253e-20
-1.6888619e-20
-1.8006771e-20
1.0948605e-32
-1.1452122e-32
-2.0435784e-20
0
-2.2815316e-20
4.8377157e-20
7.1187757e-20
-4.6866797e-20
-5.0170721e-20
-2.6610386e-20
2.8835124e-32
4.9710041e-20
-2.5345095e-20
2.6426686e-20
2.617663e-20
-5.0024295e-20
4.9970669e-20
2.5976909e-20
-2.5712777e-20
-4.7870077e-20
-2.287519e-20
4.6179022e-20
-1.2672161e-32
2.1470103e-20
2.0105297e-20
-5.811872e-20
1.8839608e-20
1.8179563e-20
-5.2184041e-20
2.3751146e-36
4.9320238e-20
1.6541506e-20
-4.912691e-20
1.5964111e-20
-6.4776805e-48
2.8819864e-32
3.397467e-20
-3.257765e-20
-3.4518028e-20
1.8525629e-20
-1.9794168e-32
-3.4231697e-20
1.8902799e-20
6.2246796e-20
1.9731266e-20
-1.7824227e-20
0
-2.1857808e-20
-4.4366869e-20
2.7790621e-36
5.719157e-20
2.1701176e-20
-4.5672613e-20
2.9391861e-36
3.8339852e-20
-4.1313263e-20
3.7207294e-32
4.3032823e-20
-5.9410003e-20
-4.0037898e-20
0
0
2.0439723e-20
6.0296323e-20
2.0525511e-20
-6.1759916e-20
2.2375468e-32
3.9772898e-20
-3.9688589e-20
-3.9282992e-20
1.9304741e-20
3.8060385e-20
-1.8848067e-20
-1.8670501e-20
5.5438937e-20
1.8409325e-20
3.0600002e-32
-1.0083493e-32
-1.7957708e-20
1.7982334e-20
-3.5911694e-20
-5.2013125e-20
0
4.7442981e-20
3.1701733e-20
-4.6592511e-20
4.1427503e-36
1.3982431e-20
-2.9004359e-20
1.5330542e-20
1.5174312e-20
1.6416331e-32
-1.5439507e-20
-3.362301e-20
1.7677439e-20
3.5313579e-20
3.5619952e-20
-2.0385655e-32
-1.8433618e-20
1.8093089e-20
-3.3633968e-20
-4.3819163e-20
0
3.3543207e-20
2.1850067e-20
-3.0128104e-20
9.9345102e-33
8.1309444e-21
-8.0488086e-21
-8.291688e-21
4.7804704e-33
1.7527505e-20
-5.3831116e-33
-2.3106506e-20
1.3997501e-32
1.4676333e-32
2.7331487e-20
4.4608206e-20
-3.2996715e-20
1.957971e-32
5.881736e-32
-1.7327176e-20
-1.7547317e-20
-3.7385793e-20
5.9446623e-20
2.077679e-20
-4.178453e-20
3.9481698e-20
1.0963239e-35
-5.7988463e-20
-1.8531065e-20
1.7202898e-20
4.8972483e-20
-5.1992287e-32
-2.9800649e-20
-1.4025634e-20
2.5698886e-20
3.5008584e-20
-3.1546692e-20
-9.575778e-21
-9.4343821e-33
-7.2518714e-21
1.1834107e-20
-2.518787e-33
3.5395253e-21
-3.3639314e-21
1.1587941e-32
9.2202814e-21
-7.3678904e-21
-5.9164515e-21
0
0
0
3.2619337e-21
1.3275673e-20
4.3904642e-21
4.4075665e-33
4.4817168e-21
-1.7458835e-20
-6.9694708e-21
7.0681292e-21
6.4645149e-21
6.185593e-21
-1.3540064e-20
8.4063955e-21
-9.2274252e-21
2.8646628e-32
1.5329166e-20
-2.1713422e-20
-1.4629902e-20
0
1.6302913e-20
8.0484649e-33
-6.4648487e-21
1.9059284e-20
7.0656571e-21
-7.1120612e-21
0
0
-5.6551894e-21
-1.1063305e-20
1.2403436e-32
1.0665444e-20
4.6611898e-21
-4.2688903e-21
4.4360461e-21
-4.2584211e-21
-4.2712282e-48
5.1972163e-33
-1.0070485e-20
0
0
5.1978928e-21
4.5230525e-21
1.6062774e-21
-1.0443224e-33
-2.3095076e-21
1.3083106e-33
2.2805022e-21
0
1.5964801e-21
1.4549046e-21
-2.8201318e-21
3.6927604e-22
-8.5601338e-22
2.7068482e-21
7.248598e-23
-3.7720856e-33
-3.8609821e-21
7.1478696e-21
4.3893209e-21
0
0
0
-7.0859711e-21
-4.2339198e-21
4.068227e-21
1.4915034e-21
0
-1.5473334e-22
-3.7496995e-34
-8.3100484e-22
2.7001441e-21
-1.6872919e-21
1.7305915e-21
1.7124596e-21
-5.8291904e-21
4.8314271e-21
5.5041712e-21
-2.7986027e-21
2.8557836e-21
-6.180267e-21
-9.8633867e-21
0
1.0002289e-20
6.515184e-21
-3.0012729e-21
-2.6383113e-21
2.5992449e-33
-2.0966555e-21
5.6962397e-33
1.105629e-21
2.1262779e-34
1.3322158e-49
1.0089183e-21
0
2.3705462e-21
-6.4172627e-21
-1.2409441e-20
1.5393845e-20
1.8415136e-20
0
-1.5785072e-20
-1.7511744e-20
1.9126292e-20
-1.0393828e-20
-1.132644e-20
3.6299415e-20
-2.5426786e-20
-2.511395e-20
1.2852249e-20
2.6480222e-20
1.3017892e-20
-4.2024894e-20
-1.5166391e-20
-2.4134454e-32
2.7343829e-20
7.9076973e-36
-4.3962458e-20
2.8342916e-20
3.9616639e-20
1.3678072e-20
-3.9811738e-20
-2.568808e-20
3.753641e-20
-2.6103927e-32
-2.3721804e-20
-1.0963079e-20
5.4720529e-33
1.886973e-20
-1.0367297e-32
9.2674739e-21
8.9148194e-21
-2.4825287e-20
-7.3155936e-21
-7.3917644e-33
1.2789901e-20
-2.0402194e-32
-1.7178914e-20
1.0419828e-20
-5.146274e-33
-4.5500448e-33
-8.1015061e-33
-3.3359693e-21
9.4742667e-21
-3.0184927e-21
-4.7335082e-33
-8.6897101e-33
-7.2497836e-21
2.3412376e-21
4.6493042e-21
-2.5986048e-33
2.4304935e-21
2.6289931e-21
-5.8284864e-21
-6.4276476e-21
3.8569647e-33
1.1235774e-20
-4.5481128e-33
-4.5311767e-21
1.0024384e-20
-5.4667622e-21
-5.9005927e-21
3.5295728e-33
-3.8249048e-33
7.4712736e-21
-1.6060993e-20
8.4878715e-21
-2.9540986e-32
-3.0141595e-32
2.8240731e-20
-2.0240965e-20
3.0453357e-36
2.2224743e-20
-1.0694554e-20
-3.1143796e-20
-1.0914279e-20
3.4668213e-20
-1.3463247e-32
-1.1679894e-20
2.2735061e-20
-2.426014e-20
-6.2682377e-32
1.1835078e-20
-1.1264499e-20
1.1598153e-20
-2.2342573e-20
1.0849712e-20
3.404424e-20
0
0
-2.060731e-20
-2.7405887e-36
1.7752508e-20
-8.562979e-21
-2.5001016e-20
-8.380633e-21
2.5329253e-20
2.1543952e-36
7.424966e-33
1.2805418e-20
-1.9132734e-20
-3.1822099e-32
6.1674351e-21
-5.7684173e-21
-5.257468e-21
5.3184317e-33
4.3717695e-21
-8.0850565e-21
7.571315e-21
-1.1837342e-32
-6.5171114e-21
8.5889085e-21
4.8247544e-21
-2.0338955e-21
-5.5642461e-21
-1.7746163e-21
1.6326384e-21
0
-1.1035622e-21
8.6990243e-22
2.2271084e-21
3.638203e-34
-1.0300088e-21
3.0223992e-22
1.4550633e-22
-2.5166713e-22
1.6562185e-22
-1.3035681e-22
6.374297e-23
-5.4626036e-22
6.0230559e-34
-1.6715804e-34
1.0377769e-24
8.5388407e-23
1.6837024e-22
2.0408586e-22
9.3062636e-35
7.795728e-23
-3.5135269e-22
3.5079445e-22
4.0654546e-22
0
-2.3828827e-22
1.8732728e-34
1.1541209e-37
-1.3409806e-21
-5.096058e-22
1.8602558e-21
-7.5472046e-22
4.8244902e-49
2.8122358e-21
-9.7907433e-22
-3.1688202e-21
-1.1902496e-21
2.6792061e-21
-1.4501462e-21
1.5102085e-21
-5.2637745e-33
-3.4063881e-21
5.5543276e-21
2.2122624e-33
-9.3979597e-33
4.484992e-21
-4.7253178e-21
-2.720523e-33
2.4868965e-21
-5.0631674e-21
-2.6861753e-21
0
0
6.4510127e-21
-7.2049775e-33
-1.8536058e-36
-3.7251224e-33
-3.5245955e-21
-3.7002727e-21
3.8088448e-21
3.8721165e-21
-7.8692152e-21
7.979765e-21
-4.4862378e-33
-8.0761111e-21
7.9601398e-21
1.3314749e-32
-4.5765832e-33
4.234979e-21
-8.5277063e-21
4.2219408e-21
-9.2130595e-33
-8.2600425e-21
0
8.4248295e-21
4.1676082e-21
-8.1346119e-21
-4.0043341e-21
4.0084661e-21
-6.7087172e-33
-3.9979202e-21
0
0
7.5884236e-21
7.592788e-21
0
-7.4573399e-21
-3.6485053e-21
3.6214326e-21
-3.6402257e-21
3.6511591e-21
0
-7.0236802e-21
0
0
3.6171795e-21
-4.0380929e-33
-3.6071912e-21
0
3.587506e-21
2.0108119e-33
-3.6784322e-21
0
7.5902105e-21
7.613482e-21
-3.8056896e-21
-4.2443538e-33
3.8864514e-21
-8.0071394e-21
-8.1475202e-21
8.1134285e-21
1.138839e-36
8.7546607e-33
1.1357057e-36
-8.3506618e-21
4.3290857e-21
-4.8757258e-33
4.3566104e-21
-4.3020644e-21
-1.2767401e-20
1.2796343e-20
4.3611577e-21
-4.4356134e-21
-4.9361297e-33
-4.4089654e-21
8.6794239e-21
8.6062267e-21
-8.6570167e-21
-1.4523077e-32
-4.3297329e-21
-4.2546172e-21
8.3391571e-21
-4.1123618e-21
4.5541942e-33
-2.2759063e-33
4.0409987e-21
7.8548816e-21
-7.6205225e-21
-7.3897458e-21
0
3.5865776e-21
3.9693684e-33
-7.0603514e-21
-3.7885857e-33
9.8044542e-21
6.3092197e-21
0
-5.9685634e-21
-6.4660318e-33
-2.8680701e-21
-2.843487e-21
8.3962447e-21
-1.4994511e-33
-5.1026318e-21
2.4046299e-21
4.6744785e-21
-2.3527152e-21
-4.780666e-21
-2.3859086e-21
0
4.4550479e-21
-2.1432688e-21
-6.3452364e-21
2.1386566e-21
2.1780081e-21
4.380766e-21
2.1618281e-21
-4.2581279e-21
-2.1233373e-21
-2.1389683e-21
2.4015643e-33
2.1736238e-21
2.1791103e-21
4.4026825e-21
2.2298266e-21
0
0
0
-4.6293478e-21
-4.7311521e-21
4.8068346e-21
2.6807447e-33
2.6872023e-33
-2.7173113e-33
-5.5133372e-33
5.0090846e-21
0
-5.0178549e-21
-2.5360998e-21
2.5819644e-21
-2.6040838e-21
-2.5642252e-21
0
0
5.068461e-21
-8.6605638e-33
-5.8004951e-33
5.0785824e-21
-4.8907337e-21
-4.7667008e-21
0
4.8493665e-21
-2.6967876e-33
-4.7381032e-21
4.5673494e-21
2.4552117e-33
-4.339964e-21
0
4.2102915e-21
2.0083059e-21
-3.7897666e-21
1.8293505e-21
4.0320126e-33
-3.6269866e-21
3.5272226e-21
3.2954533e-21
0
0
0
-2.6686365e-21
-2.6583248e-21
2.577411e-21
0
-2.2696308e-21
0
-9.6047512e-22
1.7737393e-21
8.4243178e-22
-8.2889907e-22
1.6549384e-21
8.1641046e-22
-1.5688007e-21
-7.3465137e-22
-7.6718574e-34
6.6416578e-22
-1.428357e-33
3.5939264e-37
1.2889074e-21
0
-7.1434211e-22
-1.4575185e-21
-7.1012929e-22
0
0
0
-8.8948529e-22
1.8895611e-21
9.6380469e-22
-9.8548584e-22
-1.0415261e-21
1.1271329e-21
1.2214937e-21
-2.5948756e-21
0
2.8186064e-21
2.9789829e-21
0
0
-3.5519741e-21
-2.0661629e-33
-1.9381111e-21
-2.0045327e-21
2.0671713e-21
-2.1331002e-21
2.2145738e-21
4.6396839e-21
2.4158108e-21
0
-5.0301127e-21
-2.81817e-33
2.5874037e-21
-2.6778246e-21
-2.7841335e-21
-5.7154373e-21
5.7544974e-21
2.854762e-21
-7.9290299e-37
2.7664021e-21
-5.6884892e-21
2.9494447e-21
-3.0003915e-21
-1.4912419e-49
2.9346404e-21
-5.6170327e-21
5.4826799e-21
5.5762892e-21
0
-2.8531481e-21
-5.5867155e-21
1.4984351e-33
2.5722277e-21
2.4954405e-21
-4.9873836e-21
-4.9914139e-21
2.4516629e-21
4.675583e-21
4.4018915e-21
-2.0791656e-21
-4.0149328e-21
1.9820117e-21
-1.9316455e-21
3.0615622e-33
1.7203158e-21
-3.2052776e-21
3.0286904e-21
1.6108337e-33
-7.6479594e-33
2.516094e-21
-2.2554844e-21
-4.6480291e-33
1.0155869e-21
-1.987561e-21
9.3700981e-22
-2.3523847e-37
3.0264333e-33
5.6721262e-22
-1.0751792e-21
1.2312162e-33
-3.1007595e-34
5.3064572e-22
-1.3358663e-37
-7.7429711e-22
6.3063676e-22
1.6231712e-37
-1.3319442e-33
6.6354971e-22
-7.0469491e-22
-7.6208228e-34
6.1164811e-22
-2.7827471e-22
-2.936751e-22
-3.4586845e-22
4.06248e-22
-4.9173894e-34
-8.8022538e-22
0
0
1.0144328e-21
1.7118039e-37
-1.3664951e-21
7.3119287e-22
-8.3474888e-34
7.7929753e-22
1.8504186e-33
-1.8178751e-21
0
-1.0694762e-21
2.2413097e-21
1.1498747e-21
-2.6319637e-33
1.2439219e-21
-2.6539496e-21
1.4239461e-21
-1.6726391e-33
-3.1135656e-21
0
0
1.6504014e-21
-9.6022954e-34
1.8222667e-21
-1.8846141e-21
-5.7081133e-21
5.7115783e-21
1.9155405e-21
-3.9271048e-21
2.0439455e-21
3.5247396e-33
2.1513967e-21
-1.21783e-36
-7.080277e-33
2.1316801e-21
-4.3476206e-21
-2.2437482e-21
0
-2.2717652e-21
2.2386483e-21
2.2002402e-21
2.2044022e-21
-5.0161507e-33
2.5739934e-33
-2.5935859e-33
-4.5800097e-21
2.2274205e-21
3.6221555e-33
-4.3454683e-21
3.1639538e-37
2.2682549e-21
4.5251624e-21
4.4050513e-21
-4.2675054e-21
-2.3073502e-33
-2.0663788e-21
-2.1040687e-21
4.2536787e-21
-4.2114543e-21
-2.037372e-21
5.8867816e-21
3.8059163e-21