/*--------------------------------*- C++ -*----------------------------------*\
| =========                 |                                                 |
| \\      /  F ield         | OpenFOAM: The Open Source CFD Toolbox           |
|  \\    /   O peration     | Version:  4.x                                   |
|   \\  /    A nd           | Web:      www.OpenFOAM.org                      |
|    \\/     M anipulation  |                                                 |
\*---------------------------------------------------------------------------*/
FoamFile
{
    version     2.0;
    format      ascii;
    class       surfaceScalarField;
    location    "0.51";
    object      phi;
}
// * * * * * * * * * * * * * * * * * * * * * * * * * * * * * * * * * * * * * //

dimensions      [1 0 -1 0 0 0 0];

internalField   nonuniform List<scalar> 
17503
(
3.591391319e-09
3.587225477e-09
-7.178611282e-09
6.953376877e-09
3.702303487e-09
-7.064262933e-09
9.871207939e-09
3.929728748e-09
-6.847525783e-09
1.214556265e-08
4.268956696e-09
-6.543278861e-09
1.361387755e-08
4.712405509e-09
-6.180684498e-09
5.257801681e-09
-5.800056583e-09
1.415617731e-08
3.706476439e-09
6.945290474e-09
-7.064518379e-09
7.182093266e-09
7.173985501e-09
-6.947247339e-09
1.021028891e-08
7.627409307e-09
-6.725831672e-09
1.258856341e-08
8.307805088e-09
-6.417076554e-09
1.415101997e-08
9.203301107e-09
-6.053297915e-09
1.031536392e-08
-5.678030179e-09
1.477152931e-08
3.933903053e-09
9.85963409e-09
-6.84821525e-09
7.635534471e-09
1.019866586e-08
-6.726270586e-09
1.088630845e-08
1.087462531e-08
-6.497943923e-09
1.347876724e-08
1.189930029e-08
-6.183911535e-09
1.524258526e-08
1.326219809e-08
-5.822680908e-09
1.499120459e-08
-5.463530625e-09
1.603030508e-08
4.273109444e-09
1.213103095e-08
-6.544480701e-09
8.315913248e-09
1.257394591e-08
-6.41804014e-09
1.191101093e-08
1.346401926e-08
-6.184449656e-09
1.484729957e-08
1.48324301e-08
-5.869396481e-09
1.695320808e-08
1.667628143e-08
-5.519975558e-09
1.909166081e-08
-5.191547044e-09
1.804431576e-08
4.71649979e-09
1.359693204e-08
-6.182374072e-09
9.211324668e-09
1.413394525e-08
-6.054773377e-09
1.327384899e-08
1.522528735e-08
-5.823766092e-09
1.669118676e-08
1.693565268e-08
-5.520544852e-09
1.929556625e-08
1.927782303e-08
-5.20590434e-09
2.25062693e-08
-4.942765098e-09
2.082373482e-08
5.26178845e-09
-5.80215445e-09
1.413733463e-08
1.0323209e-08
-5.679946183e-09
1.475250345e-08
1.500266218e-08
-5.46510449e-09
1.60109647e-08
1.910642274e-08
-5.192643034e-09
1.802455571e-08
2.252391932e-08
-4.943311065e-09
2.080365131e-08
-4.817383979e-09
2.491355365e-08
2.493402031e-08
6.836698913e-09
6.829597898e-09
-2.08448719e-08
1.329927406e-08
7.025827953e-09
-2.05526264e-08
1.901263708e-08
7.412401944e-09
-1.997323752e-08
2.361629522e-08
7.986311251e-09
-1.913318921e-08
2.678333371e-08
8.732336595e-09
-1.808000123e-08
9.642601211e-09
-1.688893993e-08
2.822966776e-08
7.032940555e-09
1.328545764e-08
-2.055327883e-08
1.368845739e-08
1.367460063e-08
-2.025147294e-08
1.95872653e-08
1.444261566e-08
-1.96547868e-08
2.436335457e-08
1.558843992e-08
-1.879524202e-08
2.768410912e-08
1.708595341e-08
-1.772761498e-08
1.892445771e-08
-1.653643113e-08
2.926071015e-08
7.41951392e-09
1.899276699e-08
-1.997499123e-08
1.445650306e-08
1.9567304e-08
-1.965590117e-08
2.072584015e-08
2.070576615e-08
-1.903039007e-08
2.585177796e-08
2.241905327e-08
-1.81404231e-08
2.949109034e-08
2.467859723e-08
-1.705460067e-08
2.749955256e-08
-1.587047935e-08
3.132297859e-08
7.993379568e-09
2.359115994e-08
-1.913620613e-08
1.560228984e-08
2.433805624e-08
-1.87976589e-08
2.243917333e-08
2.582623213e-08
-1.814176741e-08
2.811926366e-08
2.809350209e-08
-1.722391269e-08
3.229011396e-08
3.111943872e-08
-1.613164734e-08
3.500289921e-08
-1.497651756e-08
3.457175598e-08
8.739289438e-09
2.675371317e-08
-1.808417432e-08
1.709963603e-08
2.765423812e-08
-1.773126332e-08
2.469860342e-08
2.946080599e-08
-1.705727926e-08
3.114526347e-08
3.225937166e-08
-1.613305321e-08
3.608155638e-08
3.60504438e-08
-1.507318516e-08
4.11119101e-08
-1.40058341e-08
3.903561955e-08
9.649344535e-09
-1.689403207e-08
2.819628145e-08
1.893780336e-08
-1.654109776e-08
2.922696889e-08
2.751919852e-08
-1.58743321e-08
3.128866961e-08
3.50284749e-08
-1.497923466e-08
3.453670828e-08
4.114294924e-08
-1.400721361e-08
3.899987886e-08
-1.310412952e-08
4.52526317e-08
4.528898406e-08
8.209824732e-09
8.201426526e-09
-3.725608962e-08
1.600480129e-08
8.431001571e-09
-3.677855592e-08
2.296632019e-08
8.880181937e-09
-3.581488183e-08
2.866773315e-08
9.539580677e-09
-3.437413919e-08
3.269936296e-08
1.038429044e-08
-3.24958814e-08
1.139587763e-08
-3.027947817e-08
3.469406525e-08
8.439411049e-09
1.598855839e-08
-3.677977386e-08
1.645729719e-08
1.644100415e-08
-3.627930021e-08
2.362763139e-08
1.732756784e-08
-3.52724599e-08
2.951593383e-08
1.863564836e-08
-3.37795695e-08
3.370643982e-08
2.032062308e-08
-3.185441102e-08
2.235717397e-08
-2.96107745e-08
3.581952306e-08
8.888575452e-09
2.294316538e-08
-3.581812156e-08
1.734388581e-08
2.360434757e-08
-3.527451432e-08
2.492807072e-08
2.490463605e-08
-3.419160437e-08
3.119316551e-08
2.684064665e-08
-3.261048454e-08
3.571371697e-08
2.935735008e-08
-3.061185508e-08
3.245582743e-08
-2.833364857e-08
3.807825476e-08
9.547887534e-09
2.863871917e-08
-3.437961388e-08
1.865187686e-08
2.948668147e-08
-3.378394907e-08
2.686411565e-08
3.116356022e-08
-3.261290231e-08
3.372366251e-08
3.369377552e-08
-3.093656982e-08
3.880053507e-08
3.702119153e-08
-2.887234621e-08
4.124244445e-08
-2.658720406e-08
4.162461476e-08
1.039240042e-08
3.266543958e-08
-3.250326601e-08
2.033656198e-08
3.367216215e-08
-3.186087295e-08
2.938060508e-08
3.567885276e-08
-3.06165901e-08
3.705111887e-08
3.87650581e-08
-2.887483059e-08
4.291910573e-08
4.288317451e-08
-2.680314854e-08
4.835097054e-08
-2.460508726e-08
4.64098212e-08
1.140366864e-08
-3.028823014e-08
3.465599701e-08
2.237258435e-08
-2.961884845e-08
3.578102806e-08
3.247852486e-08
-2.834035893e-08
3.803896746e-08
4.127199464e-08
-2.659198657e-08
4.158435726e-08
4.838682652e-08
-2.460754461e-08
4.636866534e-08
-2.263731432e-08
5.31145565e-08
5.315640247e-08
8.947157515e-09
8.937467941e-09
-5.514066215e-08
1.748309083e-08
9.203442244e-09
-5.45178748e-08
2.517582402e-08
9.717543211e-09
-5.322509781e-08
3.155343297e-08
1.045683922e-08
-5.120854372e-08
3.613686655e-08
1.1379429e-08
-4.845871357e-08
1.245143527e-08
-4.507931861e-08
3.848529787e-08
9.213136402e-09
1.746453972e-08
-5.451992383e-08
1.800149592e-08
1.798288543e-08
-5.384703471e-08
2.591993339e-08
1.898599894e-08
-5.245930502e-08
3.248564252e-08
2.043569613e-08
-5.032410545e-08
3.721498538e-08
2.225516619e-08
-4.745947282e-08
2.439400524e-08
-4.399522319e-08
3.965687704e-08
9.727186632e-09
2.514980045e-08
-5.323051089e-08
1.900461115e-08
2.589372542e-08
-5.246273803e-08
2.736433089e-08
2.73379248e-08
-5.090321569e-08
3.430512044e-08
2.944506365e-08
-4.856061891e-08
3.933772335e-08
3.211482151e-08
-4.550410464e-08
3.532101676e-08
-4.190984387e-08
4.198691112e-08
1.046631666e-08
3.152146378e-08
-5.121755572e-08
2.045412201e-08
3.245331166e-08
-5.033131227e-08
2.947147262e-08
3.427227293e-08
-4.856457325e-08
3.699896321e-08
3.696573112e-08
-4.598471027e-08
4.255198998e-08
4.041763315e-08
-4.272818142e-08
4.470811998e-08
-3.903140663e-08
4.560907927e-08
1.138856669e-08
3.610022726e-08
-4.847056899e-08
2.227308882e-08
3.717780667e-08
-4.74698676e-08
3.214083739e-08
3.929967877e-08
-4.551172344e-08
4.045085408e-08
4.251308334e-08
-4.273218867e-08
4.672652745e-08
4.668705894e-08
-3.934826532e-08
5.218912313e-08
-3.568164145e-08
5.032204498e-08
1.246005038e-08
-4.509295474e-08
3.844492503e-08
2.441107228e-08
-4.400790138e-08
3.961585623e-08
3.53461455e-08
-4.192050268e-08
4.194476214e-08
4.474075326e-08
-3.903912895e-08
4.556561091e-08
5.222847588e-08
-3.568567996e-08
5.027743828e-08
-3.241093143e-08
5.707278564e-08
5.711840487e-08
9.4043807e-09
9.39323614e-09
-7.393822141e-08
1.844867071e-08
9.726344064e-09
-7.328843899e-08
2.672027067e-08
1.036058734e-08
-7.185723238e-08
3.370233362e-08
1.124810018e-08
-6.943867357e-08
3.883006789e-08
1.231821349e-08
-6.590464247e-08
1.350954611e-08
-6.132417899e-08
4.156540372e-08
9.737466681e-09
1.842746522e-08
-7.329154676e-08
1.908930705e-08
1.906806094e-08
-7.254053594e-08
2.761965814e-08
2.028815081e-08
-7.091718116e-08
3.479630846e-08
2.200218249e-08
-6.825481522e-08
4.005153909e-08
2.407881394e-08
-6.44752872e-08
2.64158536e-08
-5.969214704e-08
4.28421656e-08
1.037158717e-08
2.669087953e-08
-7.186546043e-08
2.030931907e-08
2.759005141e-08
-7.092242e-08
2.933594246e-08
2.930613603e-08
-6.894778549e-08
3.689286385e-08
3.173718937e-08
-6.585251974e-08
4.24085022e-08
3.470598957e-08
-6.164691109e-08
3.812239417e-08
-5.653487079e-08
4.532699315e-08
1.125881124e-08
3.366687095e-08
-6.945231728e-08
2.202299495e-08
3.476035361e-08
-6.826576172e-08
3.176690295e-08
3.685622357e-08
-6.58585327e-08
3.990209165e-08
3.986497447e-08
-6.224767269e-08
4.587033801e-08
4.357776953e-08
-5.7568221e-08
4.802321165e-08
-5.215673567e-08
4.90948275e-08
1.232837909e-08
3.879028329e-08
-6.592232755e-08
2.409880254e-08
4.00109787e-08
-6.449088106e-08
3.473501934e-08
4.236672456e-08
-6.16584208e-08
4.361475105e-08
4.582737832e-08
-5.757433162e-08
5.020459916e-08
5.016099404e-08
-5.252136728e-08
5.575896832e-08
-4.700625609e-08
5.379342971e-08
1.351890746e-08
-6.134408103e-08
4.152253444e-08
2.64345178e-08
-5.971088315e-08
4.279837105e-08
3.815004186e-08
-5.655091508e-08
4.528162581e-08
4.805926507e-08
-5.216861634e-08
4.904762927e-08
5.580242375e-08
-4.701265071e-08
5.374478491e-08
-4.178019161e-08
6.044047288e-08
6.049018028e-08
9.250169163e-09
9.238103453e-09
-9.242644502e-08
1.826518056e-08
9.678414687e-09
-9.198181854e-08
2.669386036e-08
1.050777948e-08
-9.079366134e-08
3.398985489e-08
1.164183774e-08
-8.837648321e-08
3.951915554e-08
1.297493572e-08
-8.440885364e-08
1.441571975e-08
4.267438411e-08
-7.889508956e-08
9.690387302e-09
1.824209114e-08
-9.198587097e-08
1.910543423e-08
1.908240687e-08
-9.135953391e-08
2.785405483e-08
2.066136163e-08
-8.98193425e-08
3.537365151e-08
2.282909242e-08
-8.696163077e-08
4.103603469e-08
2.539544915e-08
-8.255814237e-08
2.819285144e-08
4.42325047e-08
-7.666569952e-08
1.051949788e-08
2.666172594e-08
-9.08045497e-08
2.068411708e-08
2.782177526e-08
-8.982635702e-08
3.004036819e-08
3.000803145e-08
-8.765065825e-08
3.800121405e-08
3.303825667e-08
-8.402249204e-08
4.393577981e-08
3.665025021e-08
-7.88362456e-08
4.063438653e-08
4.722179773e-08
-7.226239438e-08
1.165309851e-08
3.395113794e-08
-8.839478469e-08
2.285122027e-08
3.533439157e-08
-8.697644622e-08
3.307026269e-08
3.79612181e-08
-8.403071556e-08
4.168119688e-08
4.16407669e-08
-7.946109146e-08
4.804880716e-08
4.603884487e-08
-7.332440731e-08
5.098070949e-08
5.152261667e-08
-6.597685673e-08
1.298541369e-08
3.947605842e-08
-8.443261633e-08
2.541634606e-08
4.099194449e-08
-8.257931129e-08
3.66811462e-08
4.389016626e-08
-7.885212579e-08
4.607885195e-08
4.800179347e-08
-7.333303611e-08
5.295501657e-08
5.290745465e-08
-6.626612131e-08
5.872364832e-08
5.644091182e-08
-5.823508424e-08
1.442508787e-08
4.262859918e-08
-7.892166282e-08
2.821188561e-08
4.418547252e-08
-7.669115632e-08
4.066327947e-08
4.717272966e-08
-7.228483119e-08
5.101924767e-08
5.147133666e-08
-6.599409549e-08
5.877052298e-08
5.638831649e-08
-5.824475751e-08
6.277477692e-08
6.282817952e-08
-4.988896716e-08
5.875513091e-09
1.370217841e-08
-5.440325154e-09
1.160068885e-08
1.436846892e-08
-5.34111444e-09
1.702554262e-08
1.574786324e-08
-5.161722151e-09
2.199871489e-08
1.79921374e-08
-4.940733528e-09
2.621670789e-08
2.137307334e-08
-4.78739709e-09
2.590622159e-08
-4.698095088e-09
2.992215055e-08
6.552128662e-09
1.234188601e-08
-5.19181556e-09
1.30227238e-08
1.299651525e-08
-5.098621093e-09
1.933853287e-08
1.440522776e-08
-4.973154485e-09
2.542265436e-08
1.677011946e-08
-4.862088938e-09
3.121040663e-08
2.047977644e-08
-4.894431887e-09
2.599917807e-08
-4.919859147e-09
3.603736851e-08
7.257848737e-09
1.011113882e-08
-5.027082643e-09
1.451259796e-08
1.071309862e-08
-4.971322557e-09
2.181928432e-08
1.20348703e-08
-4.936315509e-09
2.922862064e-08
1.431331631e-08
-4.952533035e-09
3.685484106e-08
1.807655629e-08
-5.223024195e-09
2.402579174e-08
-5.567879064e-09
4.439606585e-08
7.917563285e-09
7.168844689e-09
-4.975251606e-09
1.595395356e-08
7.642724677e-09
-4.966010323e-09
2.430298943e-08
8.696163612e-09
-5.010302893e-09
3.325838807e-08
1.054058785e-08
-5.182636419e-09
4.331172834e-08
1.374274407e-08
-5.719479299e-09
1.897569088e-08
-6.571297088e-09
5.493313563e-08
8.448483977e-09
3.714071717e-09
-4.993704803e-09
1.712980394e-08
3.977279943e-09
-5.015887449e-09
2.639249372e-08
4.570792903e-09
-5.137328496e-09
3.676000962e-08
5.616169326e-09
-5.443117351e-09
4.921636863e-08
7.497343412e-09
-6.210971016e-09
1.061248111e-08
-7.574015568e-09
6.515355948e-08
8.749199585e-09
-1.209188216e-11
-5.023033592e-09
1.780308676e-08
-1.177179521e-11
-5.064836294e-09
2.761498558e-08
-1.114751444e-11
-5.229945272e-09
3.885153441e-08
-1.030539854e-11
-5.610055002e-09
5.285279237e-08
-9.280173624e-12
-6.494618181e-09
-8.379695208e-12
-8.171024159e-09
7.164465259e-08
8.749551797e-09
-3.737816163e-09
-5.023839013e-09
1.780375604e-08
-4.000419563e-09
-5.065579202e-09
2.761589971e-08
-4.592740508e-09
-5.230565837e-09
3.885261865e-08
-5.63649941e-09
-5.610526525e-09
5.28539349e-08
-7.515669596e-09
-6.494924819e-09
-1.062905778e-08
-8.171176605e-09
7.164576762e-08
8.449500374e-09
-7.191327669e-09
-4.995987598e-09
1.71317594e-08
-7.664667459e-09
-5.018001627e-09
2.639521345e-08
-8.717068845e-09
-5.13911029e-09
3.676327534e-08
-1.056006057e-08
-5.444505338e-09
4.921986997e-08
-1.37603892e-08
-6.211898309e-09
-1.899171343e-08
-7.574514416e-09
6.515701075e-08
7.919144479e-09
-1.013179751e-08
-4.978681799e-09
1.595701747e-08
-1.073328997e-08
-4.969239825e-09
2.4307283e-08
-1.205423338e-08
-5.013095181e-09
3.326356724e-08
-1.433148672e-08
-5.184874985e-09
4.331733877e-08
-1.809313511e-08
-5.721059238e-09
-2.404084349e-08
-6.572283736e-09
5.493873628e-08
7.259861218e-09
-1.23602375e-08
-5.031412319e-09
1.451651867e-08
-1.301453813e-08
-4.975392285e-09
2.182483851e-08
-1.442262789e-08
-4.939927671e-09
2.923545106e-08
-1.67865664e-08
-4.955555395e-09
3.686249239e-08
-2.049489244e-08
-5.225296946e-09
-2.601278487e-08
-5.569513793e-09
4.440394939e-08
6.554446144e-09
-1.371787656e-08
-5.196786152e-09
1.302728435e-08
-1.43839962e-08
-5.103357899e-09
1.934507571e-08
-1.576293388e-08
-4.977469641e-09
2.543082714e-08
-1.800649756e-08
-4.86582091e-09
3.121978199e-08
-2.138637624e-08
-4.897456134e-09
-2.591804734e-08
-4.922240254e-09
3.60472837e-08
5.878063572e-09
-5.445649587e-09
-1.415026919e-08
1.160569718e-08
-5.34630506e-09
-1.476529529e-08
1.703278111e-08
-5.166562973e-09
-1.602343012e-08
2.200782262e-08
-4.94507227e-09
-1.803644051e-08
2.622736973e-08
-4.79105927e-09
-2.081484405e-08
-4.701084241e-09
-2.492307694e-08
2.993345362e-08
1.067015208e-08
2.776270235e-08
-1.567686733e-08
2.10356801e-08
2.886140913e-08
-1.534104729e-08
3.079784173e-08
3.107655645e-08
-1.471174492e-08
3.967267893e-08
3.460823597e-08
-1.388709267e-08
4.729706215e-08
3.967016373e-08
-1.308207704e-08
4.659576638e-08
-1.241038796e-08
5.366620886e-08
1.174970051e-08
2.541326497e-08
-1.459205224e-08
2.33046978e-08
2.646683309e-08
-1.425901519e-08
3.440902448e-08
2.869143733e-08
-1.369233614e-08
4.485255046e-08
3.228527659e-08
-1.298264398e-08
5.441213471e-08
3.764856756e-08
-1.243241925e-08
4.540857672e-08
-1.19445898e-08
6.262402077e-08
1.28952501e-08
2.113837609e-08
-1.364742343e-08
2.566464069e-08
2.208974177e-08
-1.336360193e-08
3.81837928e-08
2.412903024e-08
-1.289303755e-08
5.035861663e-08
2.748672989e-08
-1.232878412e-08
6.209125627e-08
3.273714505e-08
-1.204422383e-08
4.062529479e-08
-1.178588508e-08
7.309251146e-08
1.395461299e-08
1.516759333e-08
-1.295907056e-08
2.789303857e-08
1.59091397e-08
-1.272382423e-08
4.185364921e-08
1.751080834e-08
-1.23526901e-08
5.591315387e-08
2.018608716e-08
-1.194148376e-08
7.025397623e-08
2.455593772e-08
-1.187906827e-08
3.125395713e-08
-1.190291472e-08
8.495690943e-08
1.478958041e-08
7.919918352e-09
-1.253559933e-08
2.968834338e-08
8.331011944e-09
-1.233651425e-08
4.488351389e-08
9.225309235e-09
-1.204700374e-08
6.063514959e-08
1.072653283e-08
-1.173520726e-08
7.749700244e-08
1.327775526e-08
-1.179464227e-08
1.721677178e-08
-1.204760596e-08
9.600774288e-08
1.526119821e-08
-2.392150905e-11
-1.234039188e-08
3.071107147e-08
-2.341671351e-11
-1.21602814e-08
4.66418187e-08
-2.243994604e-11
-1.191293966e-08
6.341257315e-08
-2.11082814e-11
-1.163316608e-08
8.190448017e-08
-1.951840028e-11
-1.168923865e-08
-1.818795826e-11
-1.201911064e-08
1.029874968e-07
1.526175168e-08
-7.966596338e-09
-1.234292555e-08
3.071212799e-08
-8.376723752e-09
-1.216265485e-08
4.664326718e-08
-9.269152367e-09
-1.191498195e-08
6.341427281e-08
-1.076778582e-08
-1.163487074e-08
8.190625278e-08
-1.331586435e-08
-1.169058411e-08
-1.725212714e-08
-1.202015522e-08
1.029891394e-07
1.479118754e-08
-1.521110072e-08
-1.254267515e-08
2.969142878e-08
-1.59517805e-08
-1.23431651e-08
4.488777503e-08
-1.755181596e-08
-1.20527857e-08
6.064026163e-08
-2.022475046e-08
-1.174006148e-08
7.750248427e-08
-2.459158152e-08
-1.179844911e-08
-3.128685335e-08
-1.205055003e-08
9.601320908e-08
1.395711842e-08
-2.1177387e-08
-1.296951225e-08
2.789785244e-08
-2.212802312e-08
-1.273370744e-08
4.186039763e-08
-2.416600257e-08
-1.236145747e-08
5.592137718e-08
-2.752172502e-08
-1.19489237e-08
7.026306011e-08
-3.276935943e-08
-1.188497887e-08
-4.065467231e-08
-1.190759031e-08
8.49661855e-08
1.289838129e-08
-2.544700349e-08
-1.36601448e-08
2.567081831e-08
-2.650008615e-08
-1.337573155e-08
3.819264047e-08
-2.872370096e-08
-1.290405349e-08
5.036959714e-08
-3.231596102e-08
-1.23382976e-08
6.210380496e-08
-3.767684574e-08
-1.205200486e-08
-4.543399509e-08
-1.179234847e-08
7.310595004e-08
1.175336751e-08
-2.779094507e-08
-1.460616882e-08
2.331197346e-08
-2.888933347e-08
-1.427267153e-08
3.441953843e-08
-3.11036853e-08
-1.370503618e-08
4.486584908e-08
-3.463410372e-08
-1.299396802e-08
5.442772038e-08
-3.969413077e-08
-1.244202193e-08
-4.661694618e-08
-1.195277364e-08
6.264119936e-08
1.067424101e-08
-1.569184893e-08
-2.82189463e-08
2.10436908e-08
-1.535566217e-08
-2.92493856e-08
3.080957453e-08
-1.472561787e-08
-3.131048152e-08
3.968772328e-08
-1.389982786e-08
-3.45574631e-08
4.731504427e-08
-1.309325908e-08
-3.901924767e-08
-1.241999848e-08
-4.526911117e-08
5.368610708e-08
1.253138833e-08
3.435009301e-08
-2.790232717e-08
2.467116671e-08
3.55305416e-08
-2.723031104e-08
3.603835355e-08
3.793076539e-08
-2.597070563e-08
4.627830827e-08
4.175437851e-08
-2.429705955e-08
5.504051012e-08
4.711853333e-08
-2.259415211e-08
5.465439406e-08
-2.101687464e-08
6.2107141e-08
1.372175805e-08
3.159781265e-08
-2.556150896e-08
2.713345462e-08
3.275881655e-08
-2.489896154e-08
3.991460531e-08
3.516119278e-08
-2.370390234e-08
5.182113019e-08
3.904130707e-08
-2.217609079e-08
6.258102064e-08
4.475402928e-08
-2.082780492e-08
5.317359742e-08
-1.958555102e-08
7.170277133e-08
1.494394349e-08
2.642628987e-08
-2.341981796e-08
2.966686173e-08
2.747335866e-08
-2.280103526e-08
4.396848724e-08
2.967476178e-08
-2.170821982e-08
5.775064006e-08
3.331061544e-08
-2.038022744e-08
7.085138464e-08
3.894707985e-08
-1.933801565e-08
4.757733706e-08
-1.82836578e-08
8.294537924e-08
1.608777836e-08
1.905753213e-08
-2.167806208e-08
3.207484711e-08
1.987008793e-08
-2.110760104e-08
4.794071124e-08
2.160187786e-08
-2.014565819e-08
6.377172316e-08
2.451620527e-08
-1.897808615e-08
7.973354609e-08
2.926743918e-08
-1.816122838e-08
3.671138932e-08
-1.718900853e-08
9.588557452e-08
1.700256866e-08
9.984964676e-09
-2.046558775e-08
3.403598174e-08
1.043597409e-08
-1.993581118e-08
5.126140368e-08
1.140906693e-08
-1.907962071e-08
6.895048369e-08
1.306237415e-08
-1.797048702e-08
8.775368995e-08
1.587530845e-08
-1.720574168e-08
2.032065109e-08
-1.61099389e-08
1.082067177e-07
1.752345019e-08
-3.050724339e-11
-1.984837821e-08
3.516906863e-08
-2.984406595e-11
-1.934008087e-08
5.323131006e-08
-2.854691746e-11
-1.853755603e-08
7.209369726e-08
-2.687291329e-11
-1.740632801e-08
9.281758555e-08
-2.486216268e-11
-1.651295862e-08
-2.322799872e-11
-1.514535669e-08
1.162876902e-07
1.752415834e-08
-1.004396839e-08
-1.985363396e-08
3.517041365e-08
-1.049373486e-08
-1.934501288e-08
5.323309839e-08
-1.146439967e-08
-1.854180639e-08
7.20957707e-08
-1.311449799e-08
-1.74099431e-08
9.281966972e-08
-1.592349775e-08
-1.651587192e-08
-2.036544915e-08
-1.514779212e-08
1.162894996e-07
1.700459858e-08
-1.911127997e-08
-2.047996497e-08
3.403986307e-08
-1.992280523e-08
-1.994933439e-08
5.126663126e-08
-2.165260863e-08
-1.909134947e-08
6.895669555e-08
-2.45641379e-08
-1.798051471e-08
8.776014646e-08
-2.931164363e-08
-1.721377355e-08
-3.675202268e-08
-1.611658259e-08
1.082127409e-07
1.609086861e-08
-2.647308196e-08
-2.169854799e-08
3.20808053e-08
-2.751940993e-08
-2.112701138e-08
4.794894868e-08
-2.971936907e-08
-2.016285407e-08
6.37816874e-08
-3.335293973e-08
-1.899287511e-08
7.974436073e-08
-3.898611238e-08
-1.817318476e-08
-4.761291393e-08
-1.719894212e-08
9.589657724e-08
1.494775307e-08
-3.163713505e-08
-2.344379354e-08
2.967435097e-08
-3.279772397e-08
-2.282399035e-08
4.397917332e-08
-3.519910316e-08
-2.172914382e-08
5.776386928e-08
-3.907754194e-08
-2.039837474e-08
7.086659846e-08
-4.478765625e-08
-1.935317986e-08
-5.320379771e-08
-1.829652357e-08
8.296163698e-08
1.372614055e-08
-3.438203744e-08
-2.558736227e-08
2.714203455e-08
-3.556218814e-08
-2.492407397e-08
3.992706725e-08
-3.796175427e-08
-2.372739111e-08
5.183692846e-08
-4.178417407e-08
-2.219716085e-08
6.259978086e-08
-4.714639315e-08
-2.084613469e-08
-5.467904769e-08
-1.960140383e-08
7.172361033e-08
1.253605434e-08
-2.792920239e-08
-3.468069877e-08
2.468039591e-08
-2.725664418e-08
-3.580550966e-08
3.60519921e-08
-2.599590989e-08
-3.806301235e-08
4.629598033e-08
-2.432047456e-08
-4.160749654e-08
5.50618324e-08
-2.261502159e-08
-4.639048536e-08
-2.103528105e-08
-5.313315612e-08
6.213119156e-08
1.362540693e-08
3.822205375e-08
-4.130483751e-08
2.676263918e-08
3.942761048e-08
-4.017927847e-08
3.892954433e-08
4.185995559e-08
-3.805279619e-08
4.96979225e-08
4.571758216e-08
-3.521742091e-08
5.868744627e-08
5.097489492e-08
-3.228114752e-08
5.855602306e-08
-2.960390407e-08
6.579122683e-08
1.483438403e-08
3.524153397e-08
-3.741534575e-08
2.923643352e-08
3.641983779e-08
-3.629321974e-08
4.277584928e-08
3.883417078e-08
-3.421752225e-08
5.5168889e-08
4.274825224e-08
-3.159979879e-08
6.608778217e-08
4.842465157e-08
-2.91964479e-08
5.701353467e-08
-2.686834709e-08
7.491306672e-08
1.604891239e-08
2.952672638e-08
-3.375389287e-08
3.175636025e-08
3.058810878e-08
-3.267673575e-08
4.680828768e-08
3.280435312e-08
-3.073031698e-08
6.112391063e-08
3.653487312e-08
-2.848246918e-08
7.436426577e-08
4.223532938e-08
-2.638904437e-08
5.120525455e-08
-2.434585671e-08
8.623472832e-08
1.718722566e-08
2.132749749e-08
-3.066603843e-08
3.416713675e-08
2.215718992e-08
-2.965658636e-08
5.083358763e-08
2.391832073e-08
-2.792607614e-08
6.729514725e-08
2.698285569e-08
-2.588763639e-08
8.358055308e-08
3.19124668e-08
-2.412376479e-08
3.998295514e-08
-2.218921701e-08
9.980304731e-08
1.811380661e-08
1.118683116e-08
-2.843872916e-08
3.617546517e-08
1.165173845e-08
-2.749202505e-08
5.432150553e-08
1.265507935e-08
-2.596243532e-08
7.280160324e-08
1.444527719e-08
-2.391305639e-08
9.231504317e-08
1.748286461e-08
-2.228960661e-08
2.252445938e-08
-2.01003375e-08
1.137639261e-07
1.865218668e-08
-3.693863181e-11
-2.727680758e-08
3.736798779e-08
-3.605180774e-11
-2.636809923e-08
5.646658055e-08
-3.433047276e-11
-2.494673775e-08
7.633641518e-08
-3.224755752e-11
-2.279866771e-08
9.835298662e-08
-2.962207376e-11
-2.10170529e-08
-2.740744235e-11
-1.829078788e-08
1.240502859e-07
1.865314482e-08
-1.125734076e-08
-2.728638628e-08
3.736977085e-08
-1.172061016e-08
-2.63770818e-08
5.646883556e-08
-1.272076656e-08
-2.495443643e-08
7.633912298e-08
-1.450707842e-08
-2.280541939e-08
9.835561963e-08
-1.753960307e-08
-2.102240296e-08
-2.257685252e-08
-1.829524227e-08
1.240525006e-07
1.811652937e-08
-2.138958873e-08
-2.846423722e-08
3.618058616e-08
-2.221804295e-08
-2.751595381e-08
5.432805668e-08
-2.397678136e-08
-2.598281463e-08
7.280967233e-08
-2.703805324e-08
-2.393116055e-08
9.232344403e-08
-3.196323708e-08
-2.230391625e-08
-4.002957887e-08
-2.011197805e-08
1.137715513e-07
1.719123622e-08
-2.957860349e-08
-3.070074263e-08
3.41748175e-08
-3.063924685e-08
-2.968938498e-08
5.084388061e-08
-3.285408756e-08
-2.795461447e-08
6.730778099e-08
-3.658202469e-08
-2.591278729e-08
8.359442053e-08
-4.227915785e-08
-2.414388462e-08
-5.124536928e-08
-2.220551081e-08
9.981677983e-08
1.605370245e-08
-3.528351839e-08
-3.379254857e-08
3.176567443e-08
-3.64615186e-08
-3.27136809e-08
4.682143563e-08
-3.887515142e-08
-3.076382802e-08
6.114000719e-08
-4.27877777e-08
-2.851116492e-08
7.438287913e-08
-4.846182235e-08
-2.641337542e-08
-5.704735305e-08
-2.436612638e-08
8.625444927e-08
1.483953704e-08
-3.825464316e-08
-3.745574143e-08
2.924657061e-08
-3.946021755e-08
-3.633238581e-08
4.279060538e-08
-4.189242501e-08
-3.425412207e-08
5.518740927e-08
-4.574947849e-08
-3.163224049e-08
6.610994939e-08
-5.100518841e-08
-2.922529756e-08
-5.858335942e-08
-2.68932347e-08
7.493777819e-08
1.363055423e-08
-4.134568961e-08
-3.846867073e-08
2.677294282e-08
-4.021949038e-08
-3.963972266e-08
3.894493605e-08
-3.809153891e-08
-4.196875242e-08
4.971800945e-08
-3.525366051e-08
-4.558936937e-08
5.871185317e-08
-3.231352849e-08
-5.030051174e-08
-2.963301811e-08
-5.70927587e-08
6.581897547e-08
1.475470105e-08
4.144756377e-08
-5.59845423e-08
2.888511158e-08
4.271251546e-08
-5.422381679e-08
4.179222577e-08
4.521481143e-08
-5.089308335e-08
5.29533565e-08
4.913881755e-08
-4.646974064e-08
6.178991697e-08
5.416441014e-08
-4.153731573e-08
6.150572738e-08
-3.707967871e-08
6.820044406e-08
1.598247144e-08
3.833119042e-08
-5.02814174e-08
3.135939493e-08
3.952577039e-08
-4.848337491e-08
4.557514846e-08
4.193995342e-08
-4.515839585e-08
5.81775157e-08
4.587279389e-08
-4.09361156e-08
6.863945761e-08
5.106761382e-08
-3.656155203e-08
5.946315975e-08
-3.299780567e-08
7.681147352e-08
1.716653293e-08
3.217686241e-08
-4.476606678e-08
3.380110592e-08
3.323125131e-08
-4.301676279e-08
4.94430189e-08
3.541511376e-08
-3.984736767e-08
6.376208685e-08
3.908254731e-08
-3.601126548e-08
7.639936045e-08
4.433454823e-08
-3.229324761e-08
5.354721376e-08
-2.977624264e-08
8.774568171e-08
1.825155766e-08
2.326722296e-08
-4.000793299e-08
3.610883677e-08
2.408351093e-08
-3.836611166e-08
5.319649914e-08
2.583157636e-08
-3.543019021e-08
6.96224379e-08
2.883307019e-08
-3.206410858e-08
8.546216343e-08
3.36138582e-08
-2.924279693e-08
4.276257876e-08
-2.789055361e-08
1.01948112e-07
1.913427024e-08
1.220933045e-08
-3.651510226e-08
3.805201291e-08
1.26639574e-08
-3.499021651e-08
5.654465509e-08
1.36686853e-08
-3.22921934e-08
7.527005038e-08
1.54569656e-08
-2.926239659e-08
9.521485879e-08
1.859109734e-08
-2.721166015e-08
2.482433421e-08
-2.6855488e-08
1.199082176e-07
1.965067268e-08
-4.43757844e-11
-3.467378705e-08
3.921398302e-08
-4.316746545e-11
-3.322428915e-08
5.871451882e-08
-4.091887709e-11
-3.073766484e-08
7.927237569e-08
-3.758971985e-11
-2.786199922e-08
1.030709326e-07
-3.374780754e-11
-2.619075528e-08
-3.053670127e-11
-2.642529001e-08
1.360602872e-07
1.965202296e-08
-1.229261673e-08
-3.469017388e-08
3.921654179e-08
-1.274506929e-08
-3.32396999e-08
5.871800398e-08
-1.374570508e-08
-3.075110659e-08
7.92762131e-08
-1.552823713e-08
-2.787298522e-08
1.030743906e-07
-1.865543406e-08
-2.619888324e-08
-2.488245307e-08
-2.643141656e-08
1.360624577e-07
1.913806797e-08
-2.333733292e-08
-3.655757818e-08
3.805936355e-08
-2.415223155e-08
-3.503008046e-08
5.655440444e-08
-2.589768579e-08
-3.232586622e-08
7.528120933e-08
-2.889519898e-08
-2.92909932e-08
9.522531757e-08
-3.367053693e-08
-2.723289929e-08
-4.281382289e-08
-2.687135986e-08
1.199160526e-07
1.825687774e-08
-3.223208291e-08
-4.00628476e-08
3.611899385e-08
-3.328587162e-08
-3.841785366e-08
5.321104594e-08
-3.546848351e-08
-3.547585373e-08
6.963952949e-08
-3.91342132e-08
-3.210223897e-08
8.547940663e-08
-4.43829244e-08
-2.927134934e-08
-5.359130039e-08
-2.791190033e-08
1.019632564e-07
1.717263108e-08
-3.83734369e-08
-4.482380378e-08
3.381300279e-08
-3.956817135e-08
-4.307174501e-08
4.946013516e-08
-4.198248971e-08
-3.989692377e-08
6.378273789e-08
-4.591517747e-08
-3.605277501e-08
7.642192629e-08
-5.110860921e-08
-3.232684046e-08
-5.950084154e-08
-2.980250172e-08
8.776783184e-08
1.59885635e-08
-4.147848827e-08
-5.033923133e-08
3.137144525e-08
-4.274402406e-08
-4.853939797e-08
4.559272501e-08
-4.524722138e-08
-4.521063172e-08
5.81999533e-08
-4.917189896e-08
-4.098273587e-08
6.866557128e-08
-5.419763382e-08
-3.660184659e-08
-6.15364682e-08
-3.303117553e-08
7.683914332e-08
1.476027557e-08
-5.604136788e-08
-4.154306398e-08
2.889637795e-08
-5.42800228e-08
-4.28195717e-08
4.180924152e-08
-5.094762503e-08
-4.530397526e-08
5.297581847e-08
-4.652112532e-08
-4.907100287e-08
6.181735186e-08
-4.158401158e-08
-5.376865088e-08
-3.712082555e-08
-6.046258196e-08
6.823124287e-08
1.587568391e-08
4.291835358e-08
-7.214993899e-08
3.103857868e-08
4.443375309e-08
-6.963494398e-08
4.468580217e-08
4.73649264e-08
-6.473246046e-08
5.597400375e-08
5.166098486e-08
-5.794754568e-08
6.399739048e-08
5.650679913e-08
-4.967913198e-08
6.329819336e-08
-4.179116957e-08
6.818547004e-08
1.726850044e-08
4.002528702e-08
-6.465680424e-08
3.378005181e-08
4.142394279e-08
-6.198506625e-08
4.864351475e-08
4.417404291e-08
-5.683092632e-08
6.093534273e-08
4.831165133e-08
-4.987855471e-08
6.953523823e-08
5.306783761e-08
-4.172243881e-08
6.076420567e-08
-3.494213878e-08
7.401357363e-08
1.856320144e-08
3.385794026e-08
-5.716187438e-08
3.637681921e-08
3.506423961e-08
-5.447063737e-08
5.25427738e-08
3.74844263e-08
-4.932365986e-08
6.61941049e-08
4.12590174e-08
-4.260992224e-08
7.584893113e-08
4.613543988e-08
-3.501565881e-08
5.506084417e-08
-2.997587605e-08