/*--------------------------------*- C++ -*----------------------------------*\
| =========                 |                                                 |
| \\      /  F ield         | OpenFOAM: The Open Source CFD Toolbox           |
|  \\    /   O peration     | Version:  4.x                                   |
|   \\  /    A nd           | Web:      www.OpenFOAM.org                      |
|    \\/     M anipulation  |                                                 |
\*---------------------------------------------------------------------------*/
FoamFile
{
    version     2.0;
    format      ascii;
    class       volScalarField;
    location    "0.51";
    object      T;
}
// * * * * * * * * * * * * * * * * * * * * * * * * * * * * * * * * * * * * * //

dimensions      [0 0 0 1 0 0 0];

internalField   nonuniform List<scalar> 
6273
(
299.9997954
299.9997965
299.9997913
299.9997867
299.9997824
299.9997816
299.9998054
299.9998065
299.9998024
299.9998007
299.9997986
299.9997969
299.9998156
299.9998175
299.9998203
299.9998244
299.9998274
299.999829
299.9998312
299.9998372
299.9998457
299.9998577
299.9998688
299.9998755
299.9998453
299.9998538
299.9998676
299.9998884
299.9999086
299.9999221
299.9998547
299.9998626
299.9998802
299.9999064
299.9999334
299.999954
299.999468
299.9994693
299.9994742
299.999487
299.9994985
299.9995072
299.9994799
299.9994862
299.9994952
299.9995136
299.9995305
299.99954
299.9995046
299.9995154
299.9995376
299.9995691
299.9995954
299.999609
299.9995443
299.9995607
299.9995951
299.999641
299.9996818
299.9997057
299.9995844
299.9996048
299.9996473
299.9997059
299.999763
299.9998026
299.9996126
299.9996327
299.9996769
299.9997425
299.9998131
299.9998705
299.9993367
299.9993494
299.9993759
299.9994174
299.9994522
299.9994712
299.9993482
299.9993657
299.999398
299.999446
299.9994853
299.999504
299.9993739
299.9993967
299.999443
299.9995025
299.9995504
299.999573
299.9994172
299.9994451
299.9995003
299.9995706
299.9996307
299.9996641
299.9994606
299.9994884
299.9995448
299.999621
299.9996947
299.9997462
299.9994884
299.9995111
299.9995615
299.9996384
299.9997244
299.9997973
299.9993911
299.9994151
299.9994602
299.9995155
299.9995509
299.9995563
299.9993977
299.999426
299.9994749
299.999534
299.9995725
299.9995784
299.9994116
299.9994423
299.9994995
299.9995651
299.9996102
299.9996222
299.9994361
299.9994674
299.9995259
299.9995956
299.9996499
299.9996746
299.9994599
299.9994865
299.9995383
299.9996063
299.9996701
299.9997131
299.9994708
299.9994892
299.9995297
299.9995924
299.9996615
299.9997216
299.9995985
299.9996212
299.999658
299.9996932
299.9997015
299.9996839
299.9995942
299.9996188
299.999658
299.9996958
299.9997073
299.9996924
299.9995859
299.9996112
299.9996537
299.9996952
299.9997143
299.9997078
299.9995788
299.999602
299.9996421
299.9996857
299.9997136
299.9997213
299.9995717
299.9995883
299.9996197
299.9996602
299.9996974
299.9997214
299.9995594
299.9995668
299.9995844
299.9996169
299.9996607
299.9997052
299.9998155
299.9998287
299.9998483
299.9998609
299.9998541
299.9998264
299.9998034
299.9998174
299.9998389
299.9998547
299.99985
299.999826
299.9997819
299.9997962
299.9998205
299.9998393
299.9998398
299.9998244
299.9997612
299.9997738
299.9997948
299.9998139
299.9998214
299.9998168
299.9997473
299.9997531
299.9997644
299.9997779
299.9997902
299.9997984
299.9997345
299.9997308
299.9997281
299.9997313
299.9997439
299.9997657
299.9998547
299.9998625
299.9998796
299.999907
299.9999372
299.9999626
299.999848
299.9998549
299.9998704
299.9998969
299.9999269
299.9999537
299.9998383
299.9998441
299.9998604
299.9998856
299.9999118
299.9999343
299.9998338
299.9998411
299.9998618
299.9998875
299.999911
299.9999268
299.9998432
299.999854
299.9998801
299.9999086
299.9999299
299.9999405
299.9998681
299.9998814
299.9999104
299.9999403
299.9999624
299.9999746
299.9998927
299.9999043
299.9999312
299.9999602
299.9999845
300.000003
299.9999003
299.9999096
299.9999309
299.9999573
299.9999837
300.0000075
299.9998885
299.9998948
299.9999095
299.9999332
299.9999619
299.9999903
299.9998673
299.9998697
299.9998794
299.999901
299.9999318
299.9999642
299.9998443
299.9998439
299.9998506
299.9998711
299.999904
299.9999406
299.9998206
299.9998198
299.9998257
299.9998468
299.9998808
299.9999197
299.9996195
299.9996363
299.999677
299.9997426
299.9998195
299.9998908
299.9996077
299.9996213
299.9996577
299.9997202
299.9997973
299.9998746
299.999583
299.9995967
299.9996347
299.9996947
299.9997643
299.9998343
299.9995755
299.9995944
299.9996407
299.9997028
299.999765
299.9998183
299.9996069
299.9996318
299.9996885
299.9997554
299.9998124
299.9998514
299.9996747
299.999702
299.9997617
299.9998292
299.999884
299.9999202
299.9997294
299.9997523
299.9998029
299.9998637
299.9999193
299.9999636
299.9997313
299.9997468
299.9997836
299.9998363
299.9998948
299.9999506
299.9996862
299.9996934
299.9997176
299.9997651
299.9998294
299.9998978
299.9996252
299.9996259
299.9996421
299.9996868
299.9997598
299.9998437
299.9995681
299.9995652
299.9995791
299.9996247
299.9997061
299.9998022
299.99952
299.9995167
299.9995316
299.9995807
299.9996671
299.9997679
299.9994903
299.9995072
299.9995503
299.9996243
299.9997159
299.9998035
299.9994699
299.9994827
299.9995201
299.9995899
299.9996835
299.9997811
299.9994399
299.9994555
299.9994986
299.9995692
299.9996567
299.9997485
299.9994438
299.9994653
299.9995183
299.9995932
299.9996733
299.9997488
299.9995021
299.9995296
299.9995928
299.9996711
299.9997422
299.9997961
299.9995962
299.9996218
299.9996806
299.9997528
299.9998153
299.9998601
299.9996481
299.9996648
299.9997074
299.999766
299.999822
299.9998678
299.9996215
299.999628
299.9996536
299.9996992
299.9997561
299.9998132
299.9995477
299.999546
299.9995603
299.9996003
299.999668
299.9997497
299.9994783
299.9994732
299.9994853
299.9995276
299.99961
299.9997197
299.9994327
299.9994279
299.9994422
299.9994912
299.9995866
299.9997114
299.9994036
299.9994003
299.9994173
299.9994722
299.9995726
299.9996985
299.9994599
299.999472
299.999501
299.9995558
299.9996292
299.9997055
299.9994278
299.9994364
299.9994629
299.9995168
299.9995937
299.9996771
299.9993979
299.9994114
299.9994483
299.9995105
299.9995889
299.9996707
299.9994128
299.9994323
299.9994804
299.9995507
299.9996263
299.9996981
299.9994898
299.9995136
299.9995696
299.9996422
299.9997098
299.999767
299.9995908
299.999608
299.9996511
299.9997079
299.9997598
299.9998054
299.9996272
299.9996314
299.9996503
299.9996844
299.999724
299.9997638
299.9995805
299.999573
299.9995755
299.9995943
299.9996322
299.9996817
299.9995081
299.9994957
299.9994942
299.9995146
299.9995638
299.9996411
299.9994668
299.9994555
299.9994572
299.9994839
299.9995477
299.9996459
299.9994619
299.9994534
299.999458
299.9994897
299.9995626
299.9996664
299.9994773
299.9994718
299.9994758
299.9995051
299.9995721
299.9996688
299.9995329
299.9995329
299.9995397
299.9995649
299.9996128
299.9996727
299.9994907
299.9994899
299.9994974
299.9995248
299.9995786
299.9996457
299.9994596
299.999465
299.9994845
299.999524
299.9995818
299.9996517
299.9994767
299.9994885
299.99952
299.9995716
299.9996314
299.9996985
299.9995547
299.9995693
299.9996064
299.99966
299.9997146
299.9997744
299.9996394
299.9996449
299.9996651
299.9997012
299.9997409
299.9997921
299.999649
299.9996397
299.9996388
299.9996514
299.9996773
299.999722
299.9995961
299.9995766
299.9995603
299.9995643
299.9995862
299.9996376
299.999561
299.9995387
299.9995195
299.9995235
299.9995494
299.9996133
299.9995725
299.9995525
299.9995357
299.9995396
299.9995677
299.9996336
299.9996159
299.9995995
299.9995838
299.999585
299.9996062
299.9996559
299.9996619
299.9996463
299.9996253
299.9996148
299.9996217
299.9996534
299.9997102
299.999699
299.9996838
299.9996795
299.9996916
299.9997281
299.9996709
299.9996586
299.9996426
299.9996393
299.9996563
299.9997047
299.9996383
299.9996326
299.9996293
299.9996363
299.9996607
299.999716
299.9996469
299.9996481
299.9996575
299.9996798
299.9997146
299.9997754
299.9997014
299.9997065
299.9997239
299.9997533
299.9997898
299.9998541
299.9997459
299.999743
299.9997476
299.9997643
299.9997932
299.9998589
299.9997181
299.9997024
299.9996876
299.9996898
299.9997088
299.9997696
299.999664
299.9996417
299.9996169
299.9996125
299.9996282
299.9996864
299.9996578
299.9996352
299.9996096
299.9996023
299.9996153
299.9996687
299.9997079
299.9996879
299.9996624
299.9996494
299.9996536
299.9996844
299.9997684
299.9997497
299.9997214
299.9996987
299.9996859
299.9996912
299.999811
299.9997909
299.9997556
299.9997201
299.9996924
299.9996778
299.9997988
299.9997989
299.999806
299.999828
299.9998615
299.999897
299.9997812
299.9997827
299.9997906
299.999813
299.9998447
299.9998761
299.9997684
299.9997713
299.9997783
299.9997993
299.9998282
299.9998576
299.9997587
299.9997614
299.999768
299.9997881
299.9998159
299.9998464
299.9997513
299.999754
299.9997598
299.9997802
299.9998105
299.9998432
299.9997458
299.9997466
299.9997517
299.9997728
299.9998062
299.9998424
299.999479
299.9994766
299.9994931
299.9995456
299.9996315
299.9997266
299.9994423
299.9994416
299.9994585
299.9995103
299.9995922
299.9996794
299.999407
299.9994075
299.9994248
299.9994759
299.9995547
299.9996409
299.9993735
299.999375
299.9993934
299.9994474
299.9995311
299.9996239
299.9993441
299.9993474
299.9993684
299.9994295
299.9995238
299.9996267
299.9993253
299.9993276
299.9993524
299.99942
299.9995225
299.9996339
299.9993801
299.9993781
299.9993953
299.9994507
299.9995465
299.9996603
299.9993523
299.9993508
299.9993663
299.9994182
299.9995089
299.9996151
299.9993156
299.9993136
299.9993284
299.9993806
299.9994738
299.9995858
299.9992728
299.9992729
299.9992913
299.9993534
299.9994603
299.9995844
299.9992345
299.9992389
299.9992658
299.9993429
299.9994668
299.9996081
299.9992113
299.9992187
299.9992533
299.9993399
299.9994742
299.9996269
299.9994914
299.9994848
299.9994842
299.9995068
299.9995622
299.9996399
299.9994928
299.9994833
299.9994757
299.9994895
299.9995386
299.9996129
299.9994742
299.9994627
299.9994525
299.999469
299.9995264
299.9996101
299.9994421
299.9994336
299.9994309
299.9994626
299.9995391
299.9996417
299.9994124
299.9994103
299.9994204
299.9994701
299.9995689
299.9996915
299.999395
299.9993973
299.9994163
299.9994774
299.9995876
299.9997213
299.9996963
299.9996765
299.9996444
299.9996206
299.9996138
299.9996256
299.999712
299.9996881
299.999647
299.9996123
299.9996018
299.9996139
299.9997139
299.9996875
299.9996438
299.9996117
299.9996087
299.9996332
299.9997063
299.9996828
299.9996474
299.9996314
299.9996462
299.999692
299.9997
299.9996835
299.9996599
299.9996612
299.9996948
299.9997592
299.9996967
299.9996834
299.9996687
299.9996783
299.9997215
299.999794
299.9998378
299.9998145
299.9997716
299.9997243
299.9996826
299.9996577
299.9998552
299.9998296
299.9997808
299.9997259
299.9996821
299.9996585
299.9998657
299.9998416
299.9997926
299.9997421
299.9997068
299.9996936
299.9998723
299.9998544
299.9998148
299.9997788
299.9997605
299.9997615
299.9998795
299.9998675
299.9998421
299.9998206
299.9998167
299.9998282
299.9998835
299.999874
299.999858
299.9998444
299.9998455
299.999862
299.9997852
299.999798
299.9998212
299.9998514
299.9998878
299.9999215
299.9999318
299.9999127
299.9998877
299.9998822
299.9998968
299.9999096
299.9997997
299.9998097
299.9998279
299.999854
299.999888
299.9999212
299.9999324
299.9999155
299.9998929
299.9998878
299.9999007
299.999911
299.999831
299.9998367
299.9998488
299.9998695
299.9998981
299.9999282
299.9999389
299.9999243
299.9999045
299.9998996
299.9999072
299.9999104
299.9998776
299.9998783
299.9998818
299.9998934
299.9999151
299.9999414
299.999952
299.9999403
299.9999218
299.999914
299.9999135
299.999909
299.9999261
299.9999239
299.9999197
299.9999209
299.9999343
299.9999574
299.9999699
299.9999601
299.9999392
299.9999237
299.9999159
299.9999072
299.9999613
299.9999588
299.999951
299.9999444
299.9999518
299.999974
299.9999891
299.9999766
299.99995
299.9999274
299.9999144
299.999906
299.9995178
299.9995378
299.9995726
299.9996276
299.9997067
299.9997846
299.9998092
299.9997674
299.9997231
299.9997234
299.9997601
299.9997778
299.999547
299.9995608
299.999588
299.9996359
299.9997098
299.9997852
299.999809
299.9997689
299.9997271
299.9997269
299.9997576
299.9997693
299.9996131
299.9996172
299.9996304
299.9996646
299.9997273
299.9997955
299.9998171
299.9997805
299.9997426
299.9997398
299.9997569
299.9997564
299.9997108
299.9997063
299.9997027
299.9997167
299.9997598
299.9998174
299.9998381
299.999808
299.9997714
299.99976
299.9997597
299.9997456
299.9998152
299.999808
299.9997881
299.9997802
299.9998028
299.9998502
299.9998731
299.9998462
299.9998018
299.9997754
299.9997616
299.9997414
299.9998972
299.9998927
299.9998676
299.9998403
299.9998479
299.9998891
299.9999149
299.9998829
299.9998242
299.9997832
299.9997609
299.9997437
299.9994765
299.9994806
299.9994975
299.9995412
299.9996208
299.9997014
299.9997179
299.999667
299.9996277
299.9996406
299.9996826
299.9996964
299.9995059
299.9995041
299.9995134
299.9995494
299.9996225
299.9996971
299.9997097
299.9996593
299.9996214
299.9996321
299.9996678
299.999677
299.9995721
299.9995611
299.9995565
299.9995773
299.9996355
299.9997002
299.999709
299.9996604
299.9996237
299.9996286
299.9996497
299.9996494
299.999666
299.9996499
299.9996289
299.9996305
299.9996649
299.9997155
299.9997217
299.9996765
299.9996387
299.9996326
299.9996377
299.9996274
299.9997608
299.9997472
299.9997136
299.9996935
299.9997078
299.9997452
299.9997519
299.9997094
299.9996616
299.9996416
299.9996363
299.999622
299.9998316
299.9998264
299.9997932
299.9997568
299.9997575
299.9997874
299.999796
299.9997481
299.9996864
299.9996549
299.9996419
299.9996316
299.9995412
299.9995233
299.9995254
299.9995585
299.9996312
299.9996945
299.999682
299.9996052
299.9995655
299.999592
299.9996431
299.9996618
299.999563
299.9995415
299.9995378
299.9995641
299.9996286
299.9996841
299.9996657
299.9995882
299.9995505
299.9995766
299.9996233
299.9996388
299.9996095
299.9995845
299.9995716
299.9995859
299.9996344
299.9996754
299.9996489
299.9995754
299.9995417
299.9995627
299.9995959
299.9996031
299.9996704
299.9996492
299.9996274
299.9996277
299.9996539
299.9996812
299.9996517
299.9995822
299.9995489
299.9995594
299.9995759
299.999576
299.9997251
299.9997145
299.9996892
299.9996755
299.9996856
299.9997004
299.9996705
299.9996056
299.9995684
299.9995658
299.9995721
299.9995666
299.9997544
299.9997574
299.9997434
299.9997269
299.9997311
299.9997418
299.9997148
299.9996523
299.9996038
299.9995868
299.9995822
299.9995761
299.9996474
299.9996232
299.9996271
299.999666
299.9997343
299.999765
299.9997018
299.9995948
299.9995556
299.9995986
299.9996609
299.9996822
299.9996592
299.9996348
299.9996356
299.9996678
299.999726
299.9997463
299.9996775
299.9995737
299.9995395
299.9995842
299.9996425
299.9996602
299.9996841
299.999662
299.9996594
299.9996799
299.9997202
299.9997223
299.9996486
299.9995562
299.9995304
299.9995718
299.999616
299.9996251
299.9997129
299.9996986
299.9996946
299.9997049
299.9997264
299.9997176
299.9996447
299.9995609
299.9995375
299.9995702
299.9995979
299.9995998
299.9997314
299.9997305
299.9997293
299.9997347
299.9997449
299.999729
299.9996595
299.9995845
299.9995619
299.9995804
299.999594
299.9995851
299.9997339
299.9997502
299.9997651
299.9997813
299.9997928
299.999775
299.9997103
299.9996443
299.9996172
299.9996147
299.9996069
299.9995913
299.999788
299.9997666
299.999772
299.9998097
299.9998655
299.9998629
299.9997613
299.9996423
299.9996162
299.9996828
299.9997498
299.9997668
299.9997918
299.9997722
299.9997765
299.9998099
299.9998554
299.999843
299.9997373
299.9996252
299.9996067
299.9996765
299.9997385
299.9997514
299.9997997
299.9997861
299.9997907
299.9998159
299.9998428
299.9998148
299.9997077
299.9996126
299.9996061
299.9996742
299.9997224
299.9997275
299.9998058
299.9998017
299.9998095
299.9998295
299.9998423
299.9998043
299.9997015
299.9996195
299.9996182
299.9996795
299.9997134
299.9997087
299.9998027
299.9998123
299.9998295
299.9998498
299.9998548
299.999815
299.9997191
299.9996513
299.9996535
299.9996957
299.9997106
299.9996911
299.9997901
299.9998211
299.9998607
299.9998975
299.9999084
299.9998735
299.9997908
299.9997359
299.9997306
299.9997363
299.9997205
299.9996933
299.9999287
299.999947
299.9999502
299.9999412
299.9999271
299.9999257
299.9999351
299.9999426
299.9999459
299.9999415
299.9999239
299.9998994
299.9999029
299.9999205
299.9999242
299.9999175
299.9999121
299.9999183
299.999927
299.9999323
299.9999367
299.9999345
299.9999189
299.9998931
299.9998832
299.9999014
299.9999058
299.9999027
299.9999043
299.9999144
299.9999228
299.9999236
299.9999225
299.9999199
299.9999084
299.9998854
299.9998739
299.9998924
299.9998974
299.9998962
299.9999011
299.9999147
299.9999233
299.9999203
299.9999135
299.9999073
299.9998974
299.999879
299.9998732
299.9998925
299.9998973
299.9998969
299.9999045
299.9999212
299.9999306
299.9999247
299.999913
299.9999032
299.9998935
299.9998777
299.9998753
299.9998962
299.9999013
299.9999004
299.9999089
299.9999275
299.9999373
299.9999298
299.9999156
299.9999038
299.9998932
299.9998787
299.99981
299.9998607
299.9998633
299.9998318
299.9997945
299.9998027
299.999844
299.9998816
299.9998972
299.9998784
299.9998221
299.9997513
299.9997548
299.9997996
299.999804
299.9997834
299.999771
299.999793
299.9998272
299.9998506
299.9998625
299.9998522
299.9998028
299.9997254
299.9997165
299.9997657
299.9997754
299.9997622
299.9997633
299.9997915
299.9998187
299.9998245
299.9998233
299.9998122
299.9997709
299.9997011
299.9997064
299.9997582
299.9997691
299.9997601
299.9997677
299.9997999
299.9998215
299.9998166
299.9998027
299.9997846
299.9997481
299.9996883
299.9997173
299.9997727
299.9997828
299.999774
299.9997847
299.9998186
299.9998366
299.9998228
299.999799
299.9997751
299.9997397
299.9996858
299.9997311
299.999789
299.9997989
299.9997884
299.9997982
299.999832
299.9998493
299.9998323
299.9998033
299.999775
299.9997388
299.9996884
299.9997653
299.9998233
299.9998185
299.9997695
299.9997363
299.9997724
299.9998554
299.9999265
299.9999478
299.999907
299.9998098
299.9996998
299.9997096
299.9997623
299.9997608
299.9997284
299.9997228
299.9997688
299.9998318
299.9998767
299.9998928
299.9998605
299.9997682
299.9996472
299.9996854
299.9997419
299.9997439
299.9997212
299.9997279
299.9997763
299.9998236
299.9998415
299.9998402
299.9998068
299.999722
299.9996065
299.9996967
299.9997578
299.9997608
299.9997427
299.9997534
299.999797
299.9998276
299.9998283
299.9998105
299.9997706
299.9996912
299.999585
299.9997333
299.9998005
299.9998034
299.9997807
299.9997857
299.999821
299.9998413
299.9998286
299.9998007
299.9997555
299.9996783
299.9995776
299.9997619
299.9998334
299.9998338
299.999804
299.999804
299.9998357
299.9998526
299.9998348
299.9998009
299.9997518
299.9996741
299.9995765
299.9997168
299.999757
299.9997477
299.9997138
299.9997278
299.9998166
299.9999394
300.000014
300.0000142
299.9999355
299.9998039
299.999673
299.9996871
299.9997244
299.9997192
299.9997007
299.9997303
299.9998267
299.9999254
299.9999726
299.9999647
299.9998869
299.9997509
299.9996039
299.9996898
299.9997305
299.9997288
299.999722
299.9997646
299.9998556
299.999925
299.9999444
299.9999189
299.9998345
299.9996988
299.9995557
299.999735
299.9997812
299.9997811
299.9997778
299.9998172
299.9998899
299.9999335
299.9999307
299.9998879
299.9997983
299.9996668
299.9995318
299.9997983
299.9998488
299.9998464
299.9998354
299.9998619
299.9999171
299.9999441
299.9999271
299.999875
299.9997824
299.9996525
299.9995224
299.9998352
299.9998864
299.9998804
299.9998633
299.9998826
299.9999295
299.9999503
299.9999281
299.9998713
299.999776
299.9996465
299.9995197
299.9996526
299.9996638
299.999658
299.9996637
299.9997293
299.9998747
300.0000034
300.0000469
300.0000167
299.9999127
299.9997733
299.9996506
299.9996432
299.9996538
299.9996505
299.999668
299.9997517
299.9998965
300.0000018
300.0000274
299.9999869
299.9998774
299.9997264
299.9995908
299.9996725
299.9996904
299.9996902
299.9997148
299.9998082
299.9999396
300.0000175
300.0000181
299.999957
299.9998391
299.9996859
299.9995546
299.999744
299.9997655
299.9997667
299.9997912
299.9998754
299.9999823
300.0000333
300.0000133
299.9999367
299.9998124
299.999661
299.999539
299.9998207
299.9998444
299.9998424
299.9998581
299.9999245
300.0000101
300.0000441
300.0000126
299.999928
299.9997995
299.9996497
299.9995344
299.9998607
299.9998849
299.9998795
299.999889
299.9999462
300.0000225
300.0000494
300.0000127
299.9999239
299.9997934
299.9996448
299.9995326
299.9996509
299.9996474
299.9996458
299.9996735
299.9997739
299.9999319
300.0000321
300.0000423
299.99999
299.999893
299.9997783
299.9996929
299.9996527
299.999647
299.9996438
299.9996785
299.999795
299.9999504
300.0000383
300.0000395
299.9999796
299.9998733
299.9997484
299.9996623
299.9996947
299.9996926
299.9996923
299.9997321
299.9998512
299.9999915
300.0000581
300.0000412
299.9999666
299.999852
299.9997274
299.9996514
299.9997708
299.99977
299.9997695
299.9998068
299.9999133
300.0000296
300.000075
300.0000437
299.9999578
299.9998376
299.9997161
299.999649
299.9998445
299.9998438
299.9998396
299.9998688
299.999958
300.0000526
300.0000841
300.0000443
299.999952
299.9998285
299.9997108
299.9996509
299.9998814
299.9998811
299.9998743
299.9998983
299.999979
300.0000633
300.000088
300.0000428
299.9999477
299.9998238
299.9997082
299.9996517
299.9999098
299.9998967
299.9998767
299.999854
299.9998325
299.999818
299.999908
299.9998916
299.9998697
299.9998455
299.9998232
299.9998052
299.9999008
299.9998792
299.9998533
299.9998253
299.9998001
299.9997812
299.9998952
299.9998721
299.9998433
299.9998123
299.9997843
299.9997654
299.9998931
299.9998726
299.9998435
299.9998114
299.9997829
299.9997647
299.9998953
299.9998795
299.9998544
299.9998233
299.9997956
299.9997781
299.9997619
299.999717
299.9996622
299.9996075
299.9995595
299.9995286
299.9997464
299.9996967
299.9996389
299.9995819
299.999533
299.9994996
299.9997228
299.9996657
299.9996014
299.9995387
299.9994871
299.9994549
299.9997068
299.9996473
299.999579
299.999512
299.9994579
299.9994271
299.9997045
299.999651
299.9995839
299.9995167
299.9994619
299.9994318
299.9997158
299.9996744
299.9996155
299.999551
299.9994975
299.9994682
299.9996748
299.9996299
299.9995796
299.9995334
299.999497
299.9994747
299.9996511
299.9996043
299.9995522
299.999505
299.9994684
299.9994453
299.9996163
299.9995653
299.9995089
299.9994569
299.9994193
299.9993976
299.9995924
299.9995411
299.9994827
299.999427
299.9993868
299.9993659
299.9995907
299.9995459
299.99949
299.9994341
299.9993933
299.9993724
299.9996094
299.9995771
299.9995301
299.9994782
299.9994389
299.999418
299.9996496
299.9996231
299.9996051
299.9996013
299.9996047
299.9996058
299.9996242
299.9995972
299.9995787
299.9995745
299.9995771
299.9995769
299.9995832
299.9995551
299.9995345
299.9995272
299.9995273
299.999526
299.9995547
299.9995279
299.9995061
299.9994964
299.9994944
299.9994925
299.9995485
299.9995301
299.999513
299.9995058
299.9995047
299.9995025
299.9995652
299.9995593
299.9995553
299.9995555
299.9995573
299.9995553
299.9996689
299.9996523
299.9996543
299.9996815
299.9997166
299.9997361
299.9996448
299.9996294
299.9996331
299.999662
299.9996958
299.9997123
299.9996056
299.9995928
299.9995991
299.999628
299.9996596
299.9996741
299.9995789
299.9995696
299.9995813
299.999614
299.9996474
299.9996622
299.9995707
299.9995728
299.9995965
299.9996385
299.9996768
299.999693
299.9995833
299.999604
299.99965
299.9997067
299.9997496
299.9997683
299.999742
299.9997197
299.9997216
299.9997536
299.9997947
299.9998183
299.9997248
299.9997055
299.9997113
299.9997471
299.9997884
299.9998096
299.9996986
299.9996852
299.9996975
299.9997381
299.9997812
299.9998023
299.9996799
299.999673
299.9996988
299.9997491
299.9997969
299.9998201
299.9996737
299.9996826
299.9997263
299.9997934
299.9998491
299.9998744
299.9996841
299.9997164
299.9997881
299.999871
299.9999248
299.9999468
299.9999029
299.9998945
299.9998734
299.9998444
299.9998181
299.9998022
299.9999142
299.99991
299.9998915
299.9998648
299.9998414
299.9998286
299.9999289
299.9999213
299.9999046
299.9998823
299.999865
299.9998573
299.9999399
299.9999303
299.9999163
299.9999016
299.9998933
299.9998913
299.9999493
299.9999399
299.999931
299.9999241
299.9999238
299.9999254
299.9999588
299.9999504
299.9999445
299.9999409
299.9999427
299.9999443
299.9999656
299.9999565
299.9999475
299.9999414
299.9999406
299.9999403
299.9999692
299.9999575
299.9999434
299.9999302
299.9999239
299.9999213
299.999967
299.9999559
299.9999383
299.9999185
299.9999062
299.9999002
299.9999514
299.9999427
299.9999257
299.9999035
299.9998875
299.9998795
299.999922
299.999915
299.9998999
299.9998792
299.9998634
299.9998553
299.9998945
299.999883
299.9998665
299.99985
299.9998382
299.999833
299.9997438
299.9997158
299.9996657
299.9996061
299.9995574
299.9995311
299.9997778
299.999758
299.9997113
299.9996583
299.9996191
299.9995999
299.9998123
299.9997889
299.9997468
299.9997066
299.9996836
299.9996745
299.9998373
299.9998131
299.9997816
299.9997628
299.9997585
299.999759
299.9998588
299.9998393
299.9998241
299.9998219
299.99983
299.9998357
299.9998857
299.9998687
299.9998583
299.999858
299.999865
299.9998698
299.9999169
299.9998906
299.9998687
299.9998575
299.999854
299.999854
299.9999438
299.9999074
299.9998685
299.9998369
299.9998204
299.9998144
299.9999483
299.9999095
299.99986
299.9998133
299.9997849
299.9997721
299.9999069
299.9998754
299.9998241
299.9997733
299.99974
299.999724
299.9998255
299.9997963
299.9997511
299.999707
299.9996782
299.9996646
299.9997444
299.9997024
299.9996618
299.9996325
299.9996188
299.9996149
299.9996497
299.9996294
299.9995919
299.9995475
299.9995135
299.9994964
299.9996912
299.999677
299.9996447
299.9996111
299.9995896
299.9995809
299.9997258
299.9997088
299.9996861
299.9996722
299.9996696
299.9996719
299.9997507
299.9997378
299.9997325
299.9997401
299.9997571
299.9997682
299.999779
299.999775
299.9997816
299.9998026
299.9998259
299.9998384
299.9998232
299.9998167
299.9998179
299.9998308
299.999843
299.9998497
299.9998908
299.9998606
299.9998393
299.999827
299.9998199
299.999817
299.9999644
299.9999091
299.999858
299.9998171
299.9997915
299.9997792
299.9999902
299.9999272
299.9998586
299.9997988
299.9997601
299.9997409
299.9999397
299.9998815
299.9998078
299.9997455
299.9997051
299.9996859
299.9998218
299.9997673
299.9997032
299.999655
299.9996285
299.9996172
299.9996987
299.9996351
299.9995876
299.9995666
299.9995645
299.9995683
299.9996023
299.9996104
299.9996201
299.99963
299.9996363
299.999636
299.9996381
299.9996551
299.9996737
299.9996947
299.9997095
299.9997137
299.9996673
299.9996838
299.9997135
299.9997495
299.9997771
299.9997879
299.9996943
299.9997124
299.9997515
299.9998008
299.9998368
299.9998511
299.9997331
299.9997491
299.9997876
299.9998341
299.9998636
299.9998748
299.9997947
299.999796
299.9998141
299.9998364
299.9998467
299.9998491
299.9998863
299.999857
299.9998414
299.9998287
299.9998143
299.9998054
299.9999828
299.999924
299.9998715
299.9998267
299.9997914
299.9997728
300.0000125
299.9999427
299.9998684
299.9998053
299.9997602
299.9997373
299.9999535
299.9998832
299.9998028
299.9997392
299.9996991
299.9996798
299.9998197
299.9997528
299.9996866
299.9996444
299.9996249
299.9996178
299.9996801
299.9996146
299.9995755
299.9995675
299.9995805
299.9995902
299.9996157
299.9996547
299.9997205
299.999786
299.9998288
299.9998461
299.9996459
299.9996982
299.9997743
299.9998438
299.9998847
299.9999007
299.9996727
299.9997262
299.9998074
299.9998803
299.9999215
299.9999376
299.9997029
299.9997507
299.9998287
299.9998997
299.9999381
299.9999526
299.9997477
299.9997805
299.999842
299.999898
299.9999256
299.9999356
299.9998178
299.9998243
299.9998535
299.9998794
299.9998882
299.9998903
299.9999082
299.9998837
299.9998743
299.9998666
299.9998539
299.9998469
299.9999818
299.999932
299.9998913
299.9998557
299.9998263
299.9998117
299.9999904
299.9999311
299.9998677
299.9998153
299.9997791
299.999762
299.9999173
299.9998545
299.999787
299.9997365
299.9997066
299.9996935
299.9997873
299.9997293
299.9996783
299.9996493
299.9996411
299.99964
299.9996636
299.9996142
299.9995938
299.9995998
299.9996173
299.9996263
299.9997066
299.9997641
299.9998551
299.9999373
299.9999809
299.9999979
299.9997321
299.9998022
299.9999002
299.9999739
300.0000083
300.0000211
299.9997589
299.9998288
299.9999236
299.9999905
300.0000203
300.0000306
299.9997963
299.9998503
299.9999328
299.9999938
300.0000216
300.0000314
299.9998459
299.9998736
299.999935
299.999986
300.0000105
300.0000197
299.9999046
299.9999055
299.9999376
299.9999701
299.999987
299.9999939
299.9999527
299.9999372
299.9999404
299.9999526
299.9999588
299.9999615
299.9999718
299.9999432
299.9999262
299.9999189
299.9999145
299.9999116
299.999951
299.9999116
299.9998752
299.9998517
299.9998394
299.9998337
299.9998777
299.9998342
299.9997905
299.9997642
299.9997529
299.9997485
299.9997788
299.9997368
299.9997066
299.9996962
299.9996965
299.9996975
299.9996974
299.9996702
299.9996657
299.9996731
299.9996842
299.9996892
299.9998751
299.9998559
299.999838
299.9998267
299.9998226
299.999822
299.9998644
299.9998388
299.9998226
299.9998167
299.9998199
299.9998228
299.9998571
299.9998324
299.9998191
299.9998185
299.9998268
299.9998317
299.9998548
299.999834
299.9998252
299.9998282
299.9998376
299.9998419
299.9998575
299.9998415
299.9998355
299.9998383
299.9998459
299.9998488
299.9998614
299.9998472
299.9998407
299.9998412
299.9998468
299.9998494
299.9996828
299.9996282
299.9995938
299.9995825
299.9995883
299.9995947
299.9996454
299.9995866
299.9995617
299.9995635
299.9995838
299.999598
299.9996258
299.9995724
299.9995536
299.9995656
299.999595
299.999613
299.9996208
299.9995747
299.9995618
299.9995784
299.9996086
299.9996259
299.9996267
299.9995871
299.9995763
299.9995907
299.9996174
299.9996331
299.9996338
299.9995953
299.9995827
299.9995941
299.9996186
299.9996342
299.9996012
299.9995358
299.9995093