/*--------------------------------*- C++ -*----------------------------------*\
  =========                 |
  \\      /  F ield         | OpenFOAM: The Open Source CFD Toolbox
   \\    /   O peration     | Website:  https://openfoam.org
    \\  /    A nd           | Version:  7
     \\/     M anipulation  |
\*---------------------------------------------------------------------------*/
FoamFile
{
    version     2.0;
    format      ascii;
    class       volScalarField;
    location    "0.0003";
    object      T;
}
// * * * * * * * * * * * * * * * * * * * * * * * * * * * * * * * * * * * * * //

dimensions      [0 0 0 1 0 0 0];

internalField   nonuniform List<scalar> 
5000
(
293
293
293
293
293
293
293
293
293
293
293
293
293
293
293
293
293
293
293
293
293
293
293
293
293
293
293
293
293
293
293
293
293
293
293
293
293
293
293
293
293
293
293
293
293
293
293
293
293
293
293
293
293
293
293
293
293
293
293
293
293
293
293
293
293
293
293
293
293
293
293
293
293
293
293
293
293
293
293
293
293
293
293
293
293
293
293
293
293
293
293
293
293
293
293
293
293
293
293
293
293
293
293
293
293
293
293
293
293
293
293
293
293
293
293
293
293
293
293
293
293
293
293
293
293
293
293
293
293
293
293
293
293
293
293
293
293
293
293
293
293
293
293
293
293
293
293
293
293
293
293
293
293
293
293
293
293
293
293
293
293
293
293
293
293
293
293
293
293
293
293
293
293
293
293
293
293
293
293
293
293
293
293
293
293
293
293
293
293
293
293
293
293
293
293
293
293
293
293
293
293
293
293
293
293
293
293
293
293
293
293
293
293
293
293
293
293
293
293
293
293
293
293
293
293
293
293
293
293
293
293
293
293
293
293
293
293
293
293
293
293
293
293
293
293
293
293
293
293
293
293
293
293
293
293
293
293
293
293
293
293
293
293
293
293
293
293
293
293
293
293
293
293
293
293
293
293
293
293
293
293
293
293
293
293
293
293
293
293
293
293
293
293
293
293
293
293
293
293
293
293
293
293
293
293
293
293
293
293
293
293
293
293
293
293
293
293
293
293
293
293
293
293
293
293
293
293
293
293
293
293
293
293
293
293
293
293
293
293
293
293
293
293
293
293
293
293
293
293
293
293
293
293
293
293
293
293
293
293
293
293
293
293
293
293
293
293
293
293
293
293
293
293
293
293
293
293
293
293
293
293
293
293
293
293
293
293
293
293
293
293
293
293
293
293
293
293
293
293
293
293
293
293
293
293
293
293
293
293
293
293
293
293
293
293
293
293
293
293
293
293
293
293
293
293
293
293
293
293
293
293
293
293
293
293
293
293
293
293
293
293
293
293
293
293
293
293
293
293
293
293
293
293
293
293
293
293
293
293
293
293
293
293
293
293
293
293
293
293
293
293
293
293
293
293
293
293
293
293
293
293
293
293
293
293
293
293
293
293
293
293
293
293
293
293
293
293
293
293
293
293
293
293
293
293
293
293
293
293
293
293
293
293
293
293
293
293
293
293
293
293
293
293
293
293
293
293
293
293
293
293
293
293
293
293
293
293
293
293
293
293
293
293
293
293
293
293
293
293
293
293
293
293
293
293
293
293
293
293
293
293
293
293
293
293
293
293
293
293
293
293
293
293
293
293
293
293
293
293
293
293
293
293
293
293
293
293
293
293
293
293
293
293
293
293
293
293
293
293
293
293
293
293
293
293
293
293
293
293
293
293
293
293
293
293
293
293
293
293
293
293
293
293
293
293
293
293
293
293
293
293
293
293
293
293
293
293
293
293
293
293
293
293
293
293
293
293
293
293
293
293
293
293
293
293
293
293
293
293
293
293
293
293
293
293
293
293
293
293
293
293
293
293
293
293
293
293
293
293
293
293
293
293
293
293
293
293
293
293
293
293
293
293
293
293
293
293
293
293
293
293
293
293
293
293
293
293
293
293
293
293
293
293
293
293
293
293
293
293
293
293
293
293
293
293
293
293
293
293
293
293
293
293
293
293
293
293
293
293
293
293
293
293
293
293
293
293
293
293
293
293
293
293
293
293
293
293
293
293
293
293
293
293
293
293
293
293
293
293
293
293
293
293
293
293
293
293
293
293
293
293
293
293
293
293
293
293
293
293
293
293
293
293
293
293
293
293
293
293
293
293
293
293
293
293
293
293
293
293
293
293
293
293
293
293
293
293
293
293
293
293
293
293
293
293
293
293
293
293
293
293
293
293
293
293
293
293
293
293
293
293
293
293
293
293
293
293
293
293
293
293
293
293
293
293
293
293
293
293
293
293
293
293
293
293
293
293
293
293
293
293
293
293
293
293
293
293
293
293
293
293
293
293
293
293
293
293
293
293
293
293
293
293
293
293
293
293
293
293
293
293
293
293
293
293
293
293
293
293
293
293
293
293
293
293
293
293
293
293
293
293
293
293
293
293
293
293
293
293
293
293
293
293
293
293
293
293
293
293
293
293
293
293
293
293
293
293
293
293
293
293
293
293
293
293
293
293
293
293
293
293
293
293
293
293
293
293
293
293
293
293
293
293
293
293
293
293
293
293
293
293
293
293
293
293
293
293
293
293
293
293
293
293
293
293
293
293
293
293
293
293
293
293
293
293
293
293
293
293
293
293
293
293
293
293
293
293
293
293
293
293
293
293
293
293
293
293
293
293
293
293
293
293
293
293
293
293
293
293
293
293
293
293
293
293
293
293
293
293
293
293
293
293
293
293
293
293
293
293
293
293
293
293
293
293
293
293
293
293
293
293
293
293
293
293
293
293
293
293
293
293
293
293
293
293
293
293
293
293
293
293
293
293
293
293
293
293
293
293
293
293
293
293
293
293
293
293
293
293
293
293
293
293
293
293
293
293
293
293
293
293
293
293
293
293
293
293
293
293
293
293
293
293
293
293
293
293
293
293
293
293
293
293
293
293
293
293
293
293
293
293
293
293
293
293
293
293
293
293
293
293
293
293
293
293
293
293
293
293
293
293
293
293
293
293
293
293
293
293
293
293
293
293
293
293
293
293
293
293
293
293
293
293
293
293
293
293
293
293
293
293
293
293
293
293
293
293
293
293
293
293
293
293
293
293
293
293
293
293
293
293
293
293
293
293
293
293
293
293
293
293
293
293
293
293
293
293
293
293
293
293
293
293
293
293
293
293
293
293
293
293
293
293
293
293
293
293
293
293
293
293
293
293
293
293
293
293
293
293
293
293
293
293
293
293
293
293
293
293
293
293
293
293
293
293
293
293
293
293
293
293
293
293
293
293
293
293
293
293
293
293
293
293
293
293
293
293
293
293
293
293
293
293
293
293
293
293
293
293
293
293
293
293
293
293
293
293
293
293
293
293
293
293
293
293
293
293
293
293
293
293
293
293
293
293
293
293
293
293
293
293
293
293
293
293
293
293
293
293
293
293
293
293
293
293
293
293
293
293
293
293
293
293
293
293
293
293
293
293
293
293
293
293
293
293
293
293
293
293
293
293
293
293
293
293
293
293
293
293
293
293
293
293
293
293
293
293
293
293
293
293
293
293
293
293
293
293
293
293
293
293
293
293
293
293
293
293
293
293
293
293
293
293
293
293
293
293
293
293
293
293
293
293
293
293
293
293
293
293
293
293
293
293
293
293
293
293
293
293
293
293
293
293
293
293
293
293
293
293
293
293
293
293
293
293
293
293
293
293
293
293
293
293
293
293
293
293
293
293
293
293
293
293
293
293
293
293
293
293
293
293
293
293
293
293
293
293
293
293
293
293
293
293
293
293
293
293
293
293
293
293
293
293
293
293
293
293
293
293
293
293
293
293
293
293
293
293
293
293
293
293
293
293
293
293
293
293
293
293
293
293
293
293
293
293
293
293
293
293
293
293
293
293
293
293
293
293
293
293
293
293
293
293
293
293
293
293
293
293
293
293
293
293
293
293
293
293
293
293
293
293
293
293
293
293
293
293
293
293
293
293
293
293
293
293
293
293
293
293
293
293
293
293
293
293
293
293
293
293
293
293
293
293
293
293
293
293
293
293
293
293
293
293
293
293
293
293
293
293
293
293
293
293
293
293
293
293
293
293
293
293
293
293
293
293
293
293
293
293
293
293
293
293
293
293
293
293
293
293
293
293
293
293
293
293
293
293
293
293
293
293
293
293
293
293
293
293
293
293
293
293
293
293
293
293
293
293
293
293
293
293
293
293
293
293
293
293
293
293
293
293
293
293
293
293
293
293
293
293
293
293
293
293
293
293
293
293
293
293
293
293
293
293
293
293
293
293
293
293
293
293
293
293
293
293
293
293
293
293
293
293
293
293
293
293
293
293
293
293
293
293
293
293
293
293
293
293
293
293
293
293
293
293
293
293
293
293
293
293
293
293
293
293
293
293
293
293
293
293
293
293
293
293
293
293
293
293
293
293
293
293
293
292.99999
292.99999
292.99999
292.99999
292.99999
292.99999
292.99999
292.99999
292.99999
292.99998
292.99998
292.99998
292.99998
292.99998
292.99997
292.99997
292.99997
292.99996
292.99996
292.99995
292.99995
292.99994
292.99994
292.99993
292.99992
292.99991
292.9999
292.99989
292.99988
292.99987
292.99985
292.99984
292.99982
292.9998
292.99978
292.99976
292.99973
292.99971
292.99967
292.99964
292.9996
292.99956
292.99952
292.99947
292.99942
292.99936
292.9993
292.99923
292.99915
292.99907
292.99897
292.99888
292.99877
292.99865
292.99852
292.99838
292.99823
292.99806
292.99788
292.99768
292.99747
292.99724
292.99699
292.99672
292.99642
292.9961
292.99576
292.99538
292.99498
292.99454
292.99407
292.99356
292.99301
292.99241
292.99178
292.99109
292.99035
292.98955
292.98869
292.98777
292.98679
292.98573
292.98459
292.98337
292.98206
292.98066
292.97917
292.97757
292.97586
292.97403
292.97208
292.97
292.96778
292.96542
292.96291
292.96023
292.95738
292.95435
292.95114
292.94773
292.94411
292.94027
292.9362
292.93189
292.92733
292.92251
292.91741
292.91203
292.90635
292.90035
292.89403
292.88737
292.88036
292.87297
292.86521
292.85705
292.84848
292.83948
292.83004
292.82015
292.80978
292.79892
292.78756
292.77568
292.76326
292.75029
292.73675
292.72262
292.7079
292.69255
292.67657
292.65994
292.64265
292.62467
292.606
292.58661
292.5665
292.54565
292.52404
292.50166
292.47849
292.45453
292.42975
292.40415
292.37772
292.35044
292.32231
292.2933
292.26342
292.23265
292.20099
292.16843
292.13495
292.10056
292.06525
292.02901
291.99183
291.95373
291.91469
291.87471
291.83378
291.79192
291.74912
291.70539
291.66072
291.61511
291.56858
291.52113
291.47276
291.42348
291.3733
291.32223
291.27028
291.21745
291.16375
291.10921
291.05383
290.99763
290.94062
290.88281
290.82423
290.76489
290.7048
290.64399
290.58248
290.52029
290.45743
290.39393
290.32981
290.26509
290.19981
290.13397
290.06762
290.00076
289.93344
289.86568
289.79749
289.72893
289.66
289.59074
289.52119
289.45136
289.3813
289.31103
289.24059
289.17
289.0993
289.02852
288.9577
288.88686
288.81605
288.74529
288.67463
288.60409
288.5337
288.46352
288.39356
288.32386
288.25446
288.18539
288.11669
288.04839
287.98053
287.91314
287.84625
287.7799
287.71412
287.64894
287.5844
287.52053
287.45735
287.39491
287.33323
287.27234
287.21227
287.15305
287.0947
287.03725
286.98073
286.92516
286.87056
286.81695
286.76437
286.71282
286.66232
286.61289
286.56455
286.51731
286.47119
286.42618
286.38232
286.33959
286.29802
286.2576
286.21833
286.18023
286.14329
286.1075
286.07287
286.03939
286.00705
285.97585
285.94578
285.91682
285.88896
285.8622
285.83651
285.81188
285.78828
285.76571
285.74415
285.72356
285.70393
285.68524
285.66746
285.65057
285.63454
285.61934
285.60496
285.59136
285.57852
285.56641
285.55501
285.54428
285.5342
285.52474
285.51588
285.50759
285.49984
285.49261
285.48587
285.47959
285.47376
285.46835
285.46333
285.45869
285.4544
285.45044
285.44679
285.44343
285.44034
285.43751
285.43491
285.43254
285.43037
285.42839
285.42658
285.42495
285.42346
285.42211
285.42089
285.41978
285.41879
285.41789
285.41708
285.41636
285.41571
285.41513
285.41461
285.41415
285.41374
285.41337
285.41305
285.41276
285.41251
285.41229
285.41209
285.41192
285.41177
285.41164
285.41153
285.41143
285.41135
285.41128
285.41121
285.41116
285.41112
285.41108
285.41105
285.41103
285.41101
285.411
285.41099
285.41098
285.41098
285.41098
285.41098
285.41098
285.41098
285.41099
285.41099
285.41098
285.41098
285.41098
285.41099
285.41099
285.41099
285.41098
285.41099
285.41099
285.41098
285.41098
285.41098
285.41099
285.41098
285.41098
285.41098
285.41098
285.41099
285.41098
285.41097
285.41098
285.41098
285.41098
285.41098
285.41098
285.41099
285.411
285.41099
285.41099
285.411
285.411
285.41101
285.41101
285.41101
285.41102
285.41102
285.41101
285.41101
285.41102
285.41103
285.41103
285.41103
285.41104
285.41105
285.41106
285.41106
285.41107
285.41108
285.41109
285.4111
285.41111
285.41112
285.41112
285.41113
285.41114
285.41115
285.41116
285.41116
285.41117
285.41118
285.41119
285.4112
285.41121
285.41122
285.41123
285.41124
285.41124
285.41125
285.41127
285.41128
285.41129
285.4113
285.41131
285.41132
285.41133
285.41134
285.41136
285.4114
285.41142
285.41143
285.41143
285.41144
285.41144
285.41146
285.41148
285.4115
285.41152
285.41153
285.41153
285.41153
285.41154
285.41156
285.41159
285.41162
285.41164
285.41165
285.41167
285.41169
285.41171
285.41173
285.41174
285.41175
285.41176
285.41178
285.4118
285.41184
285.41187
285.4119
285.41193
285.41195
285.41196
285.41198
285.41198
285.41199
285.412
285.41202
285.41205
285.41209
285.41213
285.41215
285.41217
285.41217
285.41218
285.41219
285.4122
285.41223
285.41228
285.41232
285.41235
285.41236
285.41238
285.41241
285.41244
285.41248
285.4125
285.41252
285.41253
285.41254
285.41257
285.41259
285.41263
285.41266
285.41269
285.41272
285.41275
285.41277
285.41279
285.41281
285.41284
285.41288
285.41291
285.41294
285.41297
285.413
285.41302
285.41306
285.4131
285.41314
285.41317
285.41319
285.41321
285.41324
285.41328
285.41333
285.41337
285.4134
285.41343
285.41347
285.4135
285.41353
285.41356
285.41358
285.4136
285.41363
285.41366
285.41371
285.41376
285.4138
285.41385
285.41389
285.41393
285.41396
285.414
285.41404
285.41407
285.4141
285.41413
285.41417
285.41422
285.41427
285.41432
285.41437
285.41441
285.41444
285.41448
285.41452
285.41457
285.41461
285.41466
285.41471
285.41475
285.41478
285.41481
285.41485
285.4149
285.41495
285.41501
285.41506
285.41512
285.41517
285.41522
285.41526
285.4153
285.41533
285.41537
285.41543
285.41548
285.41553
285.41558
285.41562
285.41567
285.41572
285.41578
285.41585
285.41591
285.41597
285.41602
285.41606
285.41612
285.41618
285.41624
285.4163
285.41636
285.41642
285.41649
285.41655
285.41661
285.41668
285.41673
285.41678
285.41686
285.41692
285.41697
285.41704
285.4171
285.41717
285.41724
285.41731
285.41738
285.41746
285.41753
285.4176
285.41768
285.41775
285.41781
285.41789
285.41797
285.41806
285.41816
285.41826
285.41835
285.41844
285.41853
285.4186
285.41867
285.41875
285.41883
285.41892
285.41901
285.4191
285.4192
285.41931
285.41941
285.41952
285.41963
285.41973
285.41983
285.41993
285.42003
285.42014
285.42025
285.42036
285.42047
285.42059
285.42071
285.42083
285.42094
285.42106
285.42117
285.42129
285.42141
285.42153
285.42165
285.42177
285.42188
285.42199
285.42211
285.42223
285.42236
285.42248
285.42259
285.42269
285.42279
285.42289
285.42297
285.42304
285.4231
285.42315
285.4232
285.42326
285.42331
285.42334
285.42337
285.42338
285.42339
285.42339
285.42338
285.42337
285.42334
285.42329
285.42323
285.42317
285.42311
285.42306
285.42301
285.42297
285.42294
285.42292
285.42292
285.42292
285.42292
285.42294
285.42299
285.42312
285.4233
285.4235
285.42372
285.42395
285.42421
285.4245
285.42482
285.42514
285.42546
285.42575
285.42602
285.42628
285.42654
285.4268
285.42706
285.42734
285.42764
285.42795
285.42824
285.4285
285.42871
285.42884
285.4289
285.42892
285.42891
285.42887
285.42883
285.42883
285.42884
285.42893
285.42917
285.42944
285.42961
285.4297
285.4298
285.43002
285.43064
285.43257
285.4386
285.45671
285.50918
285.65761
286.06289
287.16446
289.26744
291.55961
293.75543
295.67635
297.23568
298.42227
299.27489
299.8565
300.23453
300.46916
300.60823
300.68675
300.72868
300.74952
300.75881
300.76218
300.76282
300.76254
300.7613
300.75963
300.75815
300.75669
300.75516
300.75353
300.7518
300.75004
300.74831
300.74666
300.74511
300.74372
300.7425
300.74147
300.74062
300.73995
300.73939
300.73894
300.73855
300.73819
300.73782
300.73744
300.73706
300.73666
300.73626
300.73586
300.73548
300.73511
300.73475
300.73441
300.7341
300.73381
300.73353
300.73325
300.73296
300.73264
300.73228
300.73189
300.73147
300.73104
300.73057
300.73006
300.72951
300.72894
300.72836
300.72779
300.72722
300.72667
300.72613
300.72562
300.72513
300.72465
300.72418
300.72373
300.7233
300.72292
300.72256
300.72223
300.72191
300.72162
300.72135
300.7211
300.72086
300.72062
300.7204
300.72018
300.71998
300.71977
300.71958
300.7194
300.71923
300.71906
300.7189
300.71874
300.71857
300.71842
300.71828
300.71814
300.718
300.71786
300.71771
300.71757
300.71743
300.71731
300.71718
300.71706
300.71694
300.71682
300.71671
300.71659
300.71649
300.71638
300.71627
300.71616
300.71605
300.71593
300.71582
300.71571
300.71562
300.71553
300.71544
300.71535
300.71526
300.71516
300.71506
300.71496
300.71487
300.71479
300.71471
300.71463
300.71454
300.71446
300.71438
300.71429
300.7142
300.71412
300.71404
300.71396
300.71388
300.71381
300.71374
300.71366
300.7136
300.71353
300.71346
300.71339
300.71332
300.71325
300.71319
300.71313
300.71307
300.71299
300.71292
300.71285
300.71279
300.71273
300.71268
300.71263
300.71257
300.71251
300.71245
300.71238
300.71231
300.71225
300.71219
300.71213
300.71207
300.71203
300.71198
300.71193
300.71188
300.71183
300.71177
300.71172
300.71167
300.71162
300.71158
300.71153
300.71148
300.71143
300.71138
300.71133
300.71128
300.71122
300.71118
300.71114
300.7111
300.71106
300.71101
300.71097
300.71091
300.71087
300.71083
300.7108
300.71076
300.71071
300.71067
300.71062
300.71058
300.71055
300.71052
300.71048
300.71044
300.7104
300.71036
300.71032
300.71028
300.71024
300.71021
300.71018
300.71015
300.7101
300.71006
300.71001
300.70997
300.70993
300.7099
300.70987
300.70984
300.70982
300.70979
300.70976
300.70972
300.70968
300.70964
300.7096
300.70956
300.70953
300.7095
300.70948
300.70945
300.70941
300.70937
300.70934
300.7093
300.70927
300.70924
300.70921
300.70918
300.70914
300.70911
300.70908
300.70905
300.70902
300.70899
300.70896
300.70892
300.7089
300.70887
300.70885
300.70883
300.7088
300.70877
300.70873
300.70869
300.70866
300.70862
300.70859
300.70856
300.70854
300.70851
300.70848
300.70845
300.70842
300.7084
300.70837
300.70834
300.70831
300.70828
300.70826
300.70823
300.7082
300.70817
300.70814
300.70811
300.70809
300.70807
300.70804
300.70802
300.70799
300.70797
300.70794
300.70792
300.7079
300.70787
300.70784
300.70781
300.70778
300.70775
300.70773
300.70771
300.70768
300.70765
300.70763
300.70761
300.70759
300.70757
300.70755
300.70753
300.7075
300.70748
300.70746
300.70743
300.70741
300.70737
300.70734
300.70731
300.70729
300.70727
300.70726
300.70725
300.70722
300.70719
300.70717
300.70715
300.70713
300.70712
300.7071
300.70707
300.70705
300.70703
300.70701
300.707
300.70698
300.70695
300.70692
300.7069
300.70688
300.70687
300.70685
300.70683
300.70681
300.70679
300.70678
300.70676
300.70675
300.70673
300.7067
300.70668
300.70666
300.70665
300.70663
300.70663
300.70662
300.70662
300.7066
300.70658
300.70657
300.70655
300.70653
300.70652
300.70652
300.70652
300.70651
300.7065
300.70647
300.70646
300.70646
300.70646
300.70646
300.70646
300.70644
300.70643
300.70643
300.70643
300.70644
300.70645
300.70645
300.70645
300.70644
300.70643
300.70641
300.7064
300.7064
300.70641
300.70641
300.70642
300.70642
300.70641
300.70639
300.70638
300.70637
300.70637
300.70636
300.70633
300.7063
300.70627
300.70623
300.70619
300.70614
300.70609
300.70603
300.70596
300.70588
300.7058
300.7057
300.70559
300.70548
300.70534
300.7052
300.70503
300.70485
300.70465
300.70442
300.70417
300.70389
300.70358
300.70323
300.70285
300.70242
300.70195
300.70143
300.70085
300.7002
300.69949
300.69871
300.69784
300.69689
300.69583
300.69468
300.6934
300.692
300.69046
300.68878
300.68693
300.68491
300.68269
300.68028
300.67764
300.67476
300.67163
300.66821
300.66451
300.66048
300.6561
300.65136
300.64622
300.64067
300.63466
300.62817
300.62116
300.61362
300.60548
300.59674
300.58733
300.57723
300.5664
300.55478
300.54234
300.52903
300.51481
300.49962
300.48342
300.46614
300.44775
300.42819
300.4074
300.38532
300.36191
300.33709
300.31082
300.28303
300.25367
300.22268
300.18999
300.15556
300.11932
300.08122
300.04119
299.9992
299.95518
299.90909
299.86087
299.81049
299.7579
299.70307
299.64595
299.58653
299.52478
299.46067
299.39419
299.32533
299.2541
299.18049
299.10451
299.02619
298.94554
298.86261
298.77743
298.69004
298.60051
298.50891
298.41529
298.31975
298.22237
298.12325
298.02249
297.9202
297.81651
297.71153
297.60541
297.49826
297.39024
297.28149
297.17216
297.0624
296.95237
296.84223
296.73212
296.62222
296.51266
296.40362
296.29523
296.18766
296.08103
295.9755
295.8712
295.76826
295.6668
295.56693
295.46877
295.37241
295.27796
295.18548
295.09507
295.00678
294.92068
294.83683
294.75525
294.67599
294.59908
294.52453
294.45236
294.38257
294.31515
294.25011
294.18741
294.12706
294.06901
294.01324
293.95971
293.90839
293.85922
293.81217
293.76719
293.72423
293.68323
293.64413
293.60689
293.57144
293.53773
293.50569
293.47528
293.44642
293.41907
293.39316
293.36864
293.34545
293.32352
293.30282
293.28328
293.26486
293.24749
293.23114
293.21575
293.20127
293.18767
293.17489
293.16289
293.15164
293.14109
293.1312
293.12194
293.11328
293.10518
293.09761
293.09054
293.08393
293.07777
293.07203
293.06667
293.06168
293.05704
293.05272
293.04871
293.04497
293.04151
293.03829
293.0353
293.03253
293.02997
293.02759
293.02539
293.02335
293.02147
293.01973
293.01812
293.01663
293.01526
293.014
293.01283
293.01176
293.01077
293.00986
293.00902
293.00825
293.00754
293.00689
293.00629
293.00574
293.00524
293.00478
293.00436
293.00397
293.00361
293.00329
293.00299
293.00272
293.00247
293.00225
293.00204
293.00185
293.00168
293.00153
293.00138
293.00125
293.00113
293.00103
293.00093
293.00084
293.00076
293.00069
293.00062
293.00056
293.00051
293.00046
293.00041
293.00037
293.00033
293.0003
293.00027
293.00024
293.00022
293.0002
293.00018
293.00016
293.00014
293.00013
293.00011
293.0001
293.00009
293.00008
293.00007
293.00007
293.00006
293.00005
293.00005
293.00004
293.00004
293.00003
293.00003
293.00003
293.00002
293.00002
293.00002
293.00002
293.00002
293.00001
293.00001
293.00001
293.00001
293.00001
293.00001
293.00001
293.00001
293.00001
293
293
293
293
293
293
293
293
293
293
293
293
293
293
293
293
293
293
293
293
293
293
293
293
293
293
293
293
293
293
293
293
293
293
293
293
293
293
293
293
293
293
293
293
293
293
293
293
293
293
293
293
293
293
293
293
293
293
293
293
293
293
293
293
293
293
293
293
293
293
293
293
293
293
293
293
293
293
293
293
293
293
293
293
293
293
293
293
293
293
293
293
293
293
293
293
293
293
293
293
293
293
293
293
293
293
293
293
293
293
293
293
293
293
293
293
293
293
293
293
293
293
293
293
293
293
293
293
293
293
293
293
293
293
293
293
293
293
293
293
293
293
293
293
293
293
293
293
293
293
293
293
293
293
293
293
293
293
293
293
293
293
293
293
293
293
293
293
293
293
293
293
293
293
293
293
293
293
293
293
293
293
293
293
293
293
293
293
293
293
293
293
293
293
293
293
293
293
293
293
293
293
293
293
293
293
293
293
293
293
293
293
293
293
293
293
293
293
293
293
293
293
293
293
293
293
293
293
293
293
293
293
293
293
293
293
293
293
293
293
293
293
293
293
293
293
293
293
293
293
293
293
293
293
293
293
293
293
293
293
293
293
293
293
293
293
293
293
293
293
293
293
293
293
293
293
293
293
293
293
293
293
293
293
293
293
293
293
293
293
293
293
293
293
293
293
293
293
293
293
293
293
293
293
293
293
293
293
293
293
293
293
293
293
293
293
293
293
293
293
293
293
293
293
293
293
293
293
293
293
293
293
293
293
293
293
293
293
293
293
293
293
293
293
293
293
293
293
293
293
293
293
293
293
293
293
293
293
293
293
293
293
293
293
293
293
293
293
293
293
293
293
293
293
293
293
293
293
293
293
293
293
293
293
293
293
293
293
293
293
293
293
293
293
293
293
293
293
293
293
293
293
293
293
293
293
293
293
293
293
293
293
293
293
293
293
293
293
293
293
293
293
293
293
293
293
293
293
293
293
293
293
293
293
293
293
293
293
293
293
293
293
293
293
293
293
293
293
293
293
293
293
293
293
293
293
293
293
293
293
293
293
293
293
293
293
293
293
293
293
293
293
293
293
293
293
293
293
293
293
293
293
293
293
293
293
293
293
293
293
293
293
293
293
293
293
293
293
293
293
293
293
293
293
293
293
293
293
293
293
293
293
293
293
293
293
293
293
293
293
293
293
293
293
293
293
293
293
293
293
293
293
293
293
293
293
293
293
293
293
293
293
293
293
293
293
293
293
293
293
293
293
293
293
293
293
293
293
293
293
293
293
293
293
293
293
293
293
293
293
293
293
293
293
293
293
293
293
293
293
293
293
293
293
293
293
293
293
293
293
293
293
293
293
293
293
293
293
293
293
293
293
293
293
293
293
293
293
293
293
293
293
293
293
293
293
293
293
293
293
293
293
293
293
293
293
293
293
293
293
293
293
293
293
293
293
293
293
293
293
293
293
293
293
293
293
293
293
293
293
293
293
293
293
293
293
293
293
293
293
293
293
293
293
293
293
293
293
293
293
293
293
293
293
293
293
293
293
293
293
293
293
293
293
293
293
293
293
293
293
293
293
293
293
293
293
293
293
293
293
293
293
293
293
293
293
293
293
293
293
293
293
293
293
293
293
293
293
293
293
293
293
293
293
293
293
293
293
293
293
293
293
293
293
293
293
293
293
293
293
293
293
293
293
293
293
293
293
293
293
293
293
293
293
293
293
293
293
293
293
293
293
293
293
293
293
293
293
293
293
293
293
293
293
293
293
293
293
293
293
293
293
293
293
293
293
293
293
293
293
293
293
293
293
293
293
293
293
293
293
293
293
293
293
293
293
293
293
293
293
293
293
293
293
293
293
293
293
293
293
293
293
293
293
293
293
293
293
293
293
293
293
293
293
293
293
293
293
293
293
293
293
293
293
293
293
293
293
293
293
293
293
293
293
293
293
293
293
293
293
293
293
293
293
293
293
293
293
293
293
293
293
293
293
293
293
293
293
293
293
293
293
293
293
293
293
293
293
293
293
293
293
293
293
293
293
293
293
293
293
293
293
293
293
293
293
293
293
293
293
293
293
293
293
293
293
293
293
293
293
293
293
293
293
293
293
293
293
293
293
293
293
293
293
293
293
293
293
293
293
293
293
293
293
293
293
293
293
293
293
293
293
293
293
293
293
293
293
293
293
293
293
293
293
293
293
293
293
293
293
293
293
293
293
293
293
293
293
293
293
293
293
293
293
293
293
293
293
293
293
293
293
293
293
293
293
293
293
293
293
293
293
293
293
293
293
293
293
293
293
293
293
293
293
293
293
293
293
293
293
293
293
293
293
293
293
293
293
293
293
293
293
293
293
293
293
293
293
293
293
293
293
293
293
293
293
293
293
293
293
293
293
293
293
293
293
293
293
293
293
293
293
293
293
293
293
293
293
293
293
293
293
293
293
293
293
293
293
293
293
293
293
293
293
293
293
293
293
293
293
293
293
293
293
293
293
293
293
293
293
293
293
293
293
293
293
293
293
293
293
293
293
293
293
293
293
293
293
293
293
293
293
293
293
293
293
293
293
293
293
293
293
293
293
293
293
293
293
293
293
293
293
293
293
293
293
293
293
293
293
293
293
293
293
293
293
293
293
293
293
293
293
293
293
293
293
293
293
293
293
293
293
293
293
293
293
293
293
293
293
293
293
293
293
293
293
293
293
293
293
293
293
293
293
293
293
293
293
293
293
293
293
293
293
293
293
293
293
293
293
293
293
293
293
293
293
293
293
293
293
293
293
293
293
293
293
293
293
293
293
293
293
293
293
293
293
293
293
293
293
293
293
293
293
293
293
293
293
293
293
293
293
293
293
293
293
293
293
293
293
293
293
293
293
293
293
293
293
293
293
293
293
293
293
293
293
293
293
293
293
293
293
293
293
293
293
293
293
293
293
293
293
293
293
293
293
293
293
293
293
293
293
293
293
293
293
293
293
293
293
293
293
293
293
293
293
293
293
293
293
293
293
293
293
293
293
293
293
293
293
293
293
293
293
293
293
293
293
293
293
293
293
293
293
293
293
293
293
293
293
293
293
293
293
293
293
293
293
293
293
293
293
293
293
293
293
293
293
293
293
293
293
293
293
293
293
293
293
293
293
293
293
293
293
293
293
293
293
293
293
293
293
293
293
293
293
293
293
293
293
293
293
293
293
293
293
293
293
293
293
293
293
293
293
293
293
293
293
293
293
293
293
293
293
293
293
293
293
293
293
293
293
293
293
293
293
293
293
293
293
293
293
293
293
293
293
293
293
293
293
293
293
293
293
293
293
293
293
293
293
293
293
293
293
293
293
293
293
293
293
293
293
293
293
293
293
293
293
293
293
293
293
293
293
293
293
293
293
293
293
293
293
293
293
293
293
293
293
293
293
293
293
293
293
293
293
293
293
293
293
293
293
293
293
293
293
293
293
293
293
293
293
293
293
293
293
293
293
293
293
293
293
293
293
293
293
293
293
293
293
293
293
293
293
293
293
293
293
293
293
293
293
293
293
293
293
293
293
293
293
293
293
293
293
293
293
293
293
293
293
293
293
293
293
293
293
293
293
293
293
293
293
293
293
293
293
293
293
293
293
293
293
293
293
293
293
293
293
293
293
293
293
293
293
293
293
293
293
293
293
293
293
293
293
293
293
293
293
293
293
293
293
293
293
293
293
293
293
293
293
293
293
293
293
293
293
293
293
293
293
293
293
293
293
293
293
293
293
293
293
293
293
293
293
293
293
293
293
293
293
293
293
293
293
293
293
293
293
293
293
293
293
293
293
293
293
293
293
293
293
293
293
293
293
293
293
293
293
293
293
293
293
293
293
293
293
293
293
293
293
293
293
293
293
293
293
293
293
293
293
293
293
293
293
293
293
293
293
293
293
293
293
293
293
293
293
293
293
293
293
293
293
293
293
293
293
293
293
293
293
293
293
293
293
293
293
293
293
293
293
293
293
293
293
293
293
293
293
293
293
293
293
293
293
293
293
293
293
293
293
293
293
293
293
293
293
293
293
293
293
293
293
293
293
293
293
293
293
293
293
293
293
293
293
293
)
;

boundaryField
{
    leftSide
    {
        type            zeroGradient;
    }
    rightSide
    {
        type            zeroGradient;
    }
    emptywalls
    {
        type            empty;
    }
}


// ************************************************************************* //
