/*--------------------------------*- C++ -*----------------------------------*\
  =========                 |
  \\      /  F ield         | OpenFOAM: The Open Source CFD Toolbox
   \\    /   O peration     | Website:  https://openfoam.org
    \\  /    A nd           | Version:  7
     \\/     M anipulation  |
\*---------------------------------------------------------------------------*/
FoamFile
{
    version     2.0;
    format      ascii;
    class       volScalarField;
    location    "0.00338";
    object      rho;
}
// * * * * * * * * * * * * * * * * * * * * * * * * * * * * * * * * * * * * * //

dimensions      [1 -3 0 0 0 0 0];

internalField   nonuniform List<scalar> 
5000
(
1.3374801
1.3374801
1.3374801
1.3374801
1.3374801
1.3374802
1.3374802
1.3374802
1.3374802
1.3374802
1.3374802
1.3374802
1.3374802
1.3374802
1.3374802
1.3374802
1.3374802
1.3374802
1.3374802
1.3374802
1.3374802
1.3374802
1.3374802
1.3374802
1.3374802
1.3374802
1.3374802
1.3374802
1.3374802
1.3374802
1.3374802
1.3374802
1.3374802
1.3374802
1.3374802
1.3374802
1.3374802
1.3374802
1.3374802
1.3374802
1.3374802
1.3374802
1.3374802
1.3374802
1.3374802
1.3374802
1.3374802
1.3374802
1.3374802
1.3374802
1.3374802
1.3374802
1.3374802
1.3374802
1.3374802
1.3374802
1.3374802
1.3374802
1.3374802
1.3374802
1.3374802
1.3374802
1.3374802
1.3374802
1.3374802
1.3374802
1.3374802
1.3374802
1.3374802
1.3374802
1.3374802
1.3374802
1.3374802
1.3374802
1.3374802
1.3374802
1.3374802
1.3374802
1.3374802
1.3374802
1.3374802
1.3374802
1.3374802
1.3374802
1.3374802
1.3374802
1.3374802
1.3374802
1.3374802
1.3374802
1.3374802
1.3374802
1.3374802
1.3374802
1.3374802
1.3374802
1.3374802
1.3374803
1.3374803
1.3374803
1.3374803
1.3374803
1.3374803
1.3374803
1.3374803
1.3374803
1.3374803
1.3374803
1.3374803
1.3374803
1.3374803
1.3374803
1.3374803
1.3374803
1.3374803
1.3374803
1.3374803
1.3374803
1.3374803
1.3374803
1.3374803
1.3374803
1.3374803
1.3374803
1.3374803
1.3374803
1.3374803
1.3374803
1.3374803
1.3374803
1.3374803
1.3374803
1.3374803
1.3374803
1.3374803
1.3374803
1.3374803
1.3374803
1.3374803
1.3374803
1.3374803
1.3374803
1.3374803
1.3374803
1.3374803
1.3374803
1.3374803
1.3374803
1.3374803
1.3374803
1.3374803
1.3374803
1.3374803
1.3374803
1.3374803
1.3374804
1.3374804
1.3374804
1.3374804
1.3374804
1.3374804
1.3374804
1.3374804
1.3374804
1.3374804
1.3374804
1.3374804
1.3374804
1.3374804
1.3374804
1.3374804
1.3374804
1.3374804
1.3374804
1.3374803
1.3374803
1.3374803
1.3374803
1.3374803
1.3374803
1.3374803
1.3374803
1.3374803
1.3374803
1.3374802
1.3374802
1.3374802
1.3374801
1.3374799
1.3374795
1.3374785
1.3374762
1.3374721
1.337466
1.3374574
1.3374456
1.3374299
1.3374097
1.3373844
1.3373536
1.3373171
1.3372748
1.3372269
1.3371739
1.3371164
1.3370554
1.3369919
1.3369268
1.3368614
1.3367967
1.3367337
1.3366734
1.3366164
1.3365633
1.3365145
1.3364702
1.3364306
1.3363955
1.3363649
1.3363384
1.3363157
1.3362966
1.3362805
1.3362672
1.3362563
1.3362474
1.3362402
1.3362345
1.3362299
1.3362263
1.3362235
1.3362214
1.3362197
1.3362184
1.3362175
1.3362167
1.3362162
1.3362158
1.3362155
1.3362153
1.3362151
1.336215
1.3362149
1.3362148
1.3362148
1.3362147
1.3362147
1.3362147
1.3362147
1.3362147
1.3362147
1.3362147
1.3362147
1.3362147
1.3362146
1.3362146
1.3362146
1.3362146
1.3362146
1.3362146
1.3362146
1.3362146
1.3362146
1.3362146
1.3362146
1.3362146
1.3362146
1.3362146
1.3362146
1.3362146
1.3362146
1.3362146
1.3362146
1.3362146
1.3362146
1.3362146
1.3362146
1.3362146
1.3362146
1.3362146
1.3362146
1.3362146
1.3362146
1.3362146
1.3362146
1.3362146
1.3362146
1.3362146
1.3362146
1.3362146
1.3362146
1.3362146
1.3362146
1.3362146
1.3362146
1.3362146
1.3362145
1.3362145
1.3362145
1.3362145
1.3362145
1.3362145
1.3362145
1.3362145
1.3362145
1.3362145
1.3362145
1.3362145
1.3362145
1.3362145
1.3362145
1.3362145
1.3362145
1.3362145
1.3362145
1.3362145
1.3362145
1.3362145
1.3362145
1.3362145
1.3362145
1.3362145
1.3362145
1.3362145
1.3362145
1.3362145
1.3362145
1.3362145
1.3362145
1.3362145
1.3362145
1.3362145
1.3362145
1.3362145
1.3362145
1.3362145
1.3362145
1.3362145
1.3362145
1.3362144
1.3362144
1.3362144
1.3362144
1.3362144
1.3362144
1.3362144
1.3362144
1.3362144
1.3362144
1.3362144
1.3362144
1.3362144
1.3362144
1.3362144
1.3362144
1.3362144
1.3362144
1.3362144
1.3362144
1.3362144
1.3362144
1.3362144
1.3362144
1.3362144
1.3362144
1.3362144
1.3362144
1.3362144
1.3362144
1.3362144
1.3362144
1.3362144
1.3362144
1.3362144
1.3362144
1.3362144
1.3362144
1.3362144
1.3362144
1.3362144
1.3362144
1.3362143
1.3362143
1.3362143
1.3362143
1.3362143
1.3362143
1.3362143
1.3362143
1.3362143
1.3362143
1.3362143
1.3362143
1.3362143
1.3362143
1.3362143
1.3362143
1.3362143
1.3362143
1.3362143
1.3362143
1.3362143
1.3362143
1.3362143
1.3362143
1.3362143
1.3362143
1.3362143
1.3362143
1.3362143
1.3362143
1.3362143
1.3362143
1.3362143
1.3362143
1.3362143
1.3362143
1.3362143
1.3362143
1.3362143
1.3362142
1.3362142
1.3362142
1.3362142
1.3362142
1.3362142
1.3362142
1.3362142
1.3362142
1.3362142
1.3362142
1.3362142
1.3362142
1.3362142
1.3362142
1.3362142
1.3362142
1.3362142
1.3362142
1.3362142
1.3362142
1.3362142
1.3362142
1.3362142
1.3362142
1.3362142
1.3362142
1.3362142
1.3362142
1.3362142
1.3362142
1.3362142
1.3362142
1.3362142
1.3362142
1.3362142
1.3362142
1.3362141
1.3362141
1.3362141
1.3362141
1.3362141
1.3362141
1.3362141
1.3362141
1.3362141
1.3362141
1.3362141
1.3362141
1.3362141
1.3362141
1.3362141
1.3362141
1.3362141
1.3362141
1.3362141
1.3362141
1.3362141
1.3362141
1.3362141
1.3362141
1.3362141
1.3362141
1.3362141
1.3362141
1.3362141
1.3362141
1.3362141
1.3362141
1.3362141
1.3362141
1.3362141
1.3362141
1.3362141
1.3362141
1.336214
1.336214
1.336214
1.336214
1.336214
1.336214
1.336214
1.336214
1.336214
1.336214
1.336214
1.336214
1.336214
1.336214
1.336214
1.336214
1.336214
1.336214
1.336214
1.336214
1.336214
1.336214
1.336214
1.336214
1.336214
1.336214
1.336214
1.336214
1.336214
1.336214
1.336214
1.336214
1.336214
1.336214
1.336214
1.3362139
1.3362139
1.3362139
1.3362139
1.3362139
1.3362139
1.3362139
1.3362139
1.3362139
1.3362139
1.3362139
1.3362139
1.3362139
1.3362139
1.3362139
1.3362139
1.3362139
1.3362139
1.3362139
1.3362139
1.3362139
1.3362139
1.3362139
1.3362139
1.3362139
1.3362139
1.3362139
1.3362139
1.3362139
1.3362139
1.3362139
1.3362139
1.3362139
1.3362139
1.3362139
1.3362138
1.3362138
1.3362138
1.3362138
1.3362138
1.3362138
1.3362138
1.3362138
1.3362138
1.3362138
1.3362138
1.3362138
1.3362138
1.3362138
1.3362138
1.3362138
1.3362138
1.3362138
1.3362138
1.3362138
1.3362138
1.3362138
1.3362138
1.3362138
1.3362138
1.3362138
1.3362138
1.3362138
1.3362138
1.3362138
1.3362138
1.3362138
1.3362138
1.3362138
1.3362138
1.3362138
1.3362138
1.3362137
1.3362137
1.3362137
1.3362137
1.3362137
1.3362137
1.3362137
1.3362137
1.3362137
1.3362137
1.3362137
1.3362137
1.3362137
1.3362137
1.3362137
1.3362137
1.3362137
1.3362137
1.3362137
1.3362137
1.3362137
1.3362137
1.3362137
1.3362137
1.3362137
1.3362137
1.3362137
1.3362137
1.3362137
1.3362137
1.3362136
1.3362136
1.3362136
1.3362136
1.3362136
1.3362136
1.3362136
1.3362136
1.3362136
1.3362136
1.3362136
1.3362136
1.3362136
1.3362136
1.3362136
1.3362136
1.3362136
1.3362136
1.3362136
1.3362136
1.3362136
1.3362136
1.3362136
1.3362136
1.3362136
1.3362136
1.3362136
1.3362136
1.3362136
1.3362136
1.3362136
1.3362136
1.3362135
1.3362135
1.3362135
1.3362135
1.3362135
1.3362135
1.3362135
1.3362135
1.3362135
1.3362135
1.3362135
1.3362135
1.3362135
1.3362135
1.3362135
1.3362135
1.3362135
1.3362135
1.3362135
1.3362135
1.3362135
1.3362135
1.3362135
1.3362135
1.3362135
1.3362135
1.3362135
1.3362135
1.3362135
1.3362135
1.3362135
1.3362134
1.3362134
1.3362134
1.3362134
1.3362134
1.3362134
1.3362134
1.3362134
1.3362134
1.3362134
1.3362134
1.3362134
1.3362134
1.3362134
1.3362134
1.3362134
1.3362134
1.3362134
1.3362134
1.3362134
1.3362134
1.3362134
1.3362134
1.3362134
1.3362134
1.3362134
1.3362134
1.3362134
1.3362134
1.3362134
1.3362133
1.3362133
1.3362133
1.3362133
1.3362133
1.3362133
1.3362133
1.3362133
1.3362133
1.3362133
1.3362133
1.3362133
1.3362133
1.3362133
1.3362133
1.3362133
1.3362133
1.3362133
1.3362133
1.3362133
1.3362133
1.3362133
1.3362133
1.3362133
1.3362133
1.3362133
1.3362133
1.3362133
1.3362133
1.3362132
1.3362132
1.3362132
1.3362132
1.3362132
1.3362132
1.3362132
1.3362132
1.3362132
1.3362132
1.3362132
1.3362132
1.3362132
1.3362132
1.3362132
1.3362132
1.3362132
1.3362132
1.3362132
1.3362132
1.3362132
1.3362132
1.3362132
1.3362132
1.3362132
1.3362132
1.3362132
1.3362132
1.3362131
1.3362131
1.3362131
1.3362131
1.3362131
1.3362131
1.3362131
1.3362131
1.3362131
1.3362131
1.3362131
1.3362131
1.3362131
1.3362131
1.3362131
1.3362131
1.3362131
1.3362131
1.3362131
1.3362131
1.3362131
1.3362131
1.3362131
1.3362131
1.3362131
1.3362131
1.3362131
1.336213
1.336213
1.336213
1.336213
1.336213
1.336213
1.336213
1.336213
1.336213
1.336213
1.336213
1.336213
1.336213
1.336213
1.336213
1.336213
1.336213
1.336213
1.336213
1.336213
1.336213
1.336213
1.336213
1.336213
1.336213
1.336213
1.336213
1.3362129
1.3362129
1.3362129
1.3362129
1.3362129
1.3362129
1.3362129
1.3362129
1.3362129
1.3362129
1.3362129
1.3362129
1.3362129
1.3362129
1.3362129
1.3362129
1.3362129
1.3362129
1.3362129
1.3362129
1.3362129
1.3362129
1.3362129
1.3362129
1.3362129
1.3362129
1.3362128
1.3362128
1.3362128
1.3362128
1.3362128
1.3362128
1.3362128
1.3362128
1.3362128
1.3362128
1.3362128
1.3362128
1.3362128
1.3362128
1.3362128
1.3362128
1.3362128
1.3362128
1.3362128
1.3362128
1.3362128
1.3362128
1.3362128
1.3362128
1.3362127
1.3362127
1.3362127
1.3362127
1.3362127
1.3362127
1.3362127
1.3362127
1.3362127
1.3362127
1.3362127
1.3362127
1.3362127
1.3362127
1.3362127
1.3362127
1.3362127
1.3362127
1.3362127
1.3362127
1.3362127
1.3362127
1.3362127
1.3362127
1.3362127
1.3362126
1.3362126
1.3362126
1.3362126
1.3362126
1.3362126
1.3362126
1.3362126
1.3362126
1.3362126
1.3362126
1.3362126
1.3362126
1.3362126
1.3362126
1.3362126
1.3362126
1.3362126
1.3362126
1.3362126
1.3362126
1.3362126
1.3362126
1.3362126
1.3362126
1.3362125
1.3362125
1.3362125
1.3362125
1.3362125
1.3362125
1.3362125
1.3362125
1.3362125
1.3362125
1.3362125
1.3362125
1.3362125
1.3362125
1.3362125
1.3362125
1.3362125
1.3362125
1.3362125
1.3362125
1.3362125
1.3362125
1.3362125
1.3362125
1.3362125
1.3362124
1.3362124
1.3362124
1.3362124
1.3362124
1.3362124
1.3362124
1.3362124
1.3362124
1.3362124
1.3362124
1.3362124
1.3362124
1.3362124
1.3362124
1.3362124
1.3362124
1.3362124
1.3362124
1.3362124
1.3362124
1.3362124
1.3362124
1.3362123
1.3362123
1.3362123
1.3362123
1.3362123
1.3362123
1.3362123
1.3362123
1.3362123
1.3362123
1.3362123
1.3362123
1.3362123
1.3362123
1.3362123
1.3362123
1.3362123
1.3362123
1.3362123
1.3362123
1.3362123
1.3362123
1.3362123
1.3362122
1.3362122
1.3362122
1.3362122
1.3362122
1.3362122
1.3362122
1.3362122
1.3362122
1.3362122
1.3362122
1.3362122
1.3362122
1.3362122
1.3362122
1.3362122
1.3362122
1.3362122
1.3362122
1.3362122
1.3362122
1.3362122
1.3362122
1.3362121
1.3362121
1.3362121
1.3362121
1.3362121
1.3362121
1.3362121
1.3362121
1.3362121
1.3362121
1.3362121
1.3362121
1.3362121
1.3362121
1.3362121
1.3362121
1.3362121
1.3362121
1.3362121
1.3362121
1.3362121
1.3362121
1.336212
1.336212
1.336212
1.336212
1.336212
1.336212
1.336212
1.336212
1.336212
1.336212
1.336212
1.336212
1.336212
1.336212
1.336212
1.336212
1.336212
1.336212
1.336212
1.336212
1.336212
1.3362119
1.3362119
1.3362119
1.3362119
1.3362119
1.3362119
1.3362119
1.3362119
1.3362119
1.3362119
1.3362119
1.3362119
1.3362119
1.3362119
1.3362119
1.3362119
1.3362119
1.3362119
1.3362119
1.3362119
1.3362119
1.3362119
1.3362119
1.3362118
1.3362118
1.3362118
1.3362118
1.3362118
1.3362118
1.3362118
1.3362118
1.3362118
1.3362118
1.3362118
1.3362118
1.3362118
1.3362118
1.3362118
1.3362118
1.3362118
1.3362118
1.3362117
1.3362117
1.3362117
1.3362117
1.3362117
1.3362117
1.3362117
1.3362117
1.3362117
1.3362117
1.3362117
1.3362117
1.3362117
1.3362117
1.3362117
1.3362117
1.3362117
1.3362117
1.3362117
1.3362117
1.3362117
1.3362116
1.3362116
1.3362116
1.3362116
1.3362116
1.3362116
1.3362116
1.3362116
1.3362116
1.3362116
1.3362116
1.3362116
1.3362116
1.3362116
1.3362116
1.3362116
1.3362116
1.3362116
1.3362115
1.3362115
1.3362115
1.3362115
1.3362115
1.3362115
1.3362115
1.3362115
1.3362115
1.3362115
1.3362115
1.3362115
1.3362115
1.3362115
1.3362115
1.3362115
1.3362115
1.3362115
1.3362115
1.3362115
1.3362115
1.3362114
1.3362114
1.3362114
1.3362114
1.3362114
1.3362114
1.3362114
1.3362114
1.3362114
1.3362114
1.3362114
1.3362114
1.3362114
1.3362114
1.3362114
1.3362114
1.3362114
1.3362114
1.3362113
1.3362113
1.3362113
1.3362113
1.3362113
1.3362113
1.3362113
1.3362113
1.3362113
1.3362113
1.3362113
1.3362113
1.3362113
1.3362113
1.3362113
1.3362113
1.3362113
1.3362113
1.3362113
1.3362112
1.3362112
1.3362112
1.3362112
1.3362112
1.3362112
1.3362112
1.3362112
1.3362112
1.3362112
1.3362112
1.3362112
1.3362112
1.3362112
1.3362112
1.3362112
1.3362112
1.3362111
1.3362111
1.3362111
1.3362111
1.3362111
1.3362111
1.3362111
1.3362111
1.3362111
1.3362111
1.3362111
1.3362111
1.3362111
1.3362111
1.3362111
1.3362111
1.3362111
1.336211
1.336211
1.336211
1.336211
1.336211
1.336211
1.336211
1.336211
1.336211
1.336211
1.336211
1.336211
1.336211
1.336211
1.336211
1.336211
1.336211
1.336211
1.3362109
1.3362109
1.3362109
1.3362109
1.3362109
1.3362109
1.3362109
1.3362109
1.3362109
1.3362109
1.3362109
1.3362109
1.3362109
1.3362109
1.3362109
1.3362109
1.3362109
1.3362108
1.3362108
1.3362108
1.3362108
1.3362108
1.3362108
1.3362108
1.3362108
1.3362108
1.3362108
1.3362108
1.3362108
1.3362108
1.3362108
1.3362108
1.3362108
1.3362108
1.3362108
1.3362107
1.3362107
1.3362107
1.3362107
1.3362107
1.3362107
1.3362107
1.3362107
1.3362107
1.3362107
1.3362107
1.3362107
1.3362107
1.3362107
1.3362107
1.3362106
1.3362106
1.3362106
1.3362106
1.3362106
1.3362106
1.3362106
1.3362106
1.3362106
1.3362106
1.3362106
1.3362106
1.3362106
1.3362106
1.3362106
1.3362106
1.3362105
1.3362105
1.3362105
1.3362105
1.3362105
1.3362105
1.3362105
1.3362105
1.3362105
1.3362105
1.3362105
1.3362105
1.3362105
1.3362105
1.3362105
1.3362104
1.3362104
1.3362104
1.3362104
1.3362104
1.3362104
1.3362104
1.3362104
1.3362104
1.3362104
1.3362104
1.3362104
1.3362104
1.3362103
1.3362103
1.3362103
1.3362103
1.3362103
1.3362103
1.3362103
1.3362103
1.3362103
1.3362103
1.3362103
1.3362103
1.3362103
1.3362103
1.3362102
1.3362102
1.3362102
1.3362102
1.3362102
1.3362102
1.3362102
1.3362102
1.3362102
1.3362102
1.3362102
1.3362101
1.3362101
1.3362101
1.3362101
1.3362101
1.3362101
1.3362101
1.3362101
1.3362101
1.3362101
1.33621
1.33621
1.33621
1.33621
1.33621
1.33621
1.33621
1.33621
1.33621
1.3362099
1.3362099
1.3362099
1.3362099
1.3362099
1.3362099
1.3362099
1.3362098
1.3362098
1.3362098
1.3362098
1.3362098
1.3362098
1.3362097
1.3362097
1.3362097
1.3362097
1.3362097
1.3362097
1.3362096
1.3362096
1.3362096
1.3362096
1.3362096
1.3362095
1.3362095
1.3362095
1.3362095
1.3362094
1.3362094
1.3362094
1.3362094
1.3362093
1.3362093
1.3362093
1.3362093
1.3362092
1.3362092
1.3362092
1.3362091
1.3362091
1.3362091
1.336209
1.336209
1.336209
1.3362089
1.3362089
1.3362088
1.3362088
1.3362088
1.3362087
1.3362087
1.3362086
1.3362086
1.3362085
1.3362085
1.3362084
1.3362084
1.3362083
1.3362083
1.3362082
1.3362081
1.3362081
1.336208
1.3362079
1.3362079
1.3362078
1.3362077
1.3362077
1.3362076
1.3362075
1.3362074
1.3362074
1.3362073
1.3362072
1.3362071
1.336207
1.3362069
1.3362068
1.3362067
1.3362066
1.3362065
1.3362064
1.3362063
1.3362061
1.336206
1.3362059
1.3362058
1.3362056
1.3362055
1.3362053
1.3362052
1.336205
1.3362049
1.3362047
1.3362046
1.3362044
1.3362042
1.336204
1.3362039
1.3362037
1.3362035
1.3362033
1.3362031
1.3362029
1.3362026
1.3362024
1.3362022
1.3362019
1.3362017
1.3362014
1.3362012
1.3362009
1.3362006
1.3362004
1.3362001
1.3361998
1.3361995
1.3361992
1.3361988
1.3361985
1.3361982
1.3361978
1.3361974
1.3361971
1.3361967
1.3361963
1.3361959
1.3361955
1.3361951
1.3361946
1.3361942
1.3361937
1.3361932
1.3361928
1.3361923
1.3361917
1.3361912
1.3361907
1.3361901
1.3361896
1.336189
1.3361884
1.3361878
1.3361871
1.3361865
1.3361858
1.3361851
1.3361844
1.3361837
1.336183
1.3361822
1.3361815
1.3361807
1.3361799
1.336179
1.3361782
1.3361773
1.3361764
1.3361755
1.3361746
1.3361736
1.3361726
1.3361716
1.3361706
1.3361695
1.3361684
1.3361673
1.3361662
1.336165
1.3361638
1.3361626
1.3361613
1.3361601
1.3361588
1.3361574
1.3361561
1.3361547
1.3361532
1.3361518
1.3361503
1.3361487
1.3361472
1.3361456
1.3361439
1.3361422
1.3361405
1.3361388
1.336137
1.3361352
1.3361333
1.3361314
1.3361294
1.3361275
1.3361254
1.3361234
1.3361212
1.3361191
1.3361169
1.3361146
1.3361123
1.33611
1.3361076
1.3361051
1.3361026
1.3361001
1.3360975
1.3360948
1.3360921
1.3360893
1.3360865
1.3360837
1.3360807
1.3360778
1.3360747
1.3360716
1.3360685
1.3360652
1.336062
1.3360586
1.3360552
1.3360518
1.3360482
1.3360446
1.336041
1.3360372
1.3360334
1.3360296
1.3360256
1.3360216
1.3360176
1.3360134
1.3360092
1.3360049
1.3360005
1.3359961
1.3359916
1.335987
1.3359823
1.3359776
1.3359727
1.3359678
1.3359628
1.3359577
1.3359526
1.3359473
1.335942
1.3359366
1.3359311
1.3359255
1.3359198
1.3359141
1.3359082
1.3359023
1.3358963
1.3358901
1.3358839
1.3358776
1.3358712
1.3358647
1.3358581
1.3358515
1.3358447
1.3358378
1.3358308
1.3358237
1.3358166
1.3358093
1.3358019
1.3357944
1.3357869
1.3357792
1.3357714
1.3357635
1.3357555
1.3357474
1.3357392
1.3357309
1.3357225
1.335714
1.3357054
1.3356966
1.3356878
1.3356788
1.3356698
1.3356606
1.3356514
1.335642
1.3356325
1.3356229
1.3356132
1.3356033
1.3355934
1.3355833
1.3355732
1.3355629
1.3355525
1.335542
1.3355314
1.3355207
1.3355099
1.3354989
1.3354879
1.3354767
1.3354654
1.335454
1.3354425
1.3354309
1.3354192
1.3354074
1.3353954
1.3353834
1.3353712
1.3353589
1.3353465
1.335334
1.3353214
1.3353087
1.3352959
1.3352829
1.3352699
1.3352567
1.3352435
1.3352301
1.3352166
1.3352031
1.3351894
1.3351756
1.3351617
1.3351477
1.3351336
1.3351194
1.3351051
1.3350907
1.3350763
1.3350617
1.335047
1.3350322
1.3350173
1.3350023
1.3349873
1.3349721
1.3349569
1.3349415
1.3349261
1.3349106
1.334895
1.3348793
1.3348635
1.3348477
1.3348318
1.3348157
1.3347996
1.3347835
1.3347672
1.3347509
1.3347345
1.334718
1.3347015
1.3346849
1.3346682
1.3346515
1.3346347
1.3346178
1.3346009
1.3345839
1.3345668
1.3345497
1.3345325
1.3345153
1.3344981
1.3344807
1.3344634
1.334446
1.3344285
1.334411
1.3343934
1.3343759
1.3343582
1.3343406
1.3343229
1.3343052
1.3342874
1.3342696
1.3342518
1.334234
1.3342161
1.3341982
1.3341804
1.3341624
1.3341445
1.3341266
1.3341086
1.3340907
1.3340727
1.3340547
1.3340367
1.3340187
1.3340008
1.3339828
1.3339648
1.3339469
1.3339289
1.3339109
1.333893
1.3338751
1.3338572
1.3338393
1.3338214
1.3338036
1.3337858
1.333768
1.3337502
1.3337325
1.3337148
1.3336971
1.3336795
1.3336619
1.3336443
1.3336268
1.3336093
1.3335919
1.3335745
1.3335572
1.3335399
1.3335227
1.3335055
1.3334884
1.3334714
1.3334544
1.3334374
1.3334205
1.3334037
1.333387
1.3333703
1.3333537
1.3333372
1.3333207
1.3333043
1.333288
1.3332718
1.3332556
1.3332395
1.3332236
1.3332076
1.3331918
1.3331761
1.3331604
1.3331449
1.3331294
1.333114
1.3330987
1.3330835
1.3330684
1.3330534
1.3330385
1.3330237
1.333009
1.3329944
1.3329799
1.3329655
1.3329512
1.332937
1.3329229
1.332909
1.3328951
1.3328813
1.3328677
1.3328541
1.3328407
1.3328274
1.3328142
1.3328011
1.3327881
1.3327752
1.3327625
1.3327498
1.3327373
1.3327249
1.3327126
1.3327004
1.3326884
1.3326764
1.3326646
1.3326529
1.3326413
1.3326299
1.3326185
1.3326073
1.3325962
1.3325852
1.3325744
1.3325636
1.332553
1.3325425
1.3325321
1.3325218
1.3325117
1.3325016
1.3324917
1.3324819
1.3324723
1.3324627
1.3324533
1.332444
1.3324348
1.3324257
1.3324167
1.3324079
1.3323992
1.3323906
1.3323821
1.3323737
1.3323654
1.3323573
1.3323492
1.3323413
1.3323335
1.3323258
1.3323182
1.3323107
1.3323034
1.3322961
1.332289
1.3322819
1.332275
1.3322682
1.3322615
1.3322549
1.3322484
1.332242
1.3322357
1.3322295
1.3322234
1.3322174
1.3322115
1.3322057
1.3322
1.3321944
1.3321889
1.3321835
1.3321782
1.332173
1.3321679
1.3321628
1.3321579
1.3321531
1.3321483
1.3321436
1.332139
1.3321345
1.3321301
1.3321258
1.3321216
1.3321174
1.3321133
1.3321093
1.3321054
1.3321015
1.3320978
1.3320941
1.3320905
1.3320869
1.3320835
1.3320801
1.3320768
1.3320735
1.3320703
1.3320672
1.3320642
1.3320612
1.3320583
1.3320554
1.3320526
1.3320499
1.3320472
1.3320446
1.3320421
1.3320396
1.3320372
1.3320348
1.3320325
1.3320302
1.332028
1.3320258
1.3320237
1.3320217
1.3320197
1.3320177
1.3320158
1.332014
1.3320122
1.3320104
1.3320087
1.332007
1.3320054
1.3320038
1.3320022
1.3320007
1.3319993
1.3319978
1.3319964
1.3319951
1.3319938
1.3319925
1.3319912
1.33199
1.3319889
1.3319877
1.3319866
1.3319855
1.3319845
1.3319834
1.3319825
1.3319815
1.3319806
1.3319796
1.3319788
1.3319779
1.3319771
1.3319763
1.3319755
1.3319748
1.331974
1.3319733
1.3319726
1.331972
1.3319713
1.3319707
1.3319701
1.3319695
1.3319689
1.3319684
1.3319679
1.3319673
1.3319668
1.3319664
1.3319659
1.3319654
1.331965
1.3319646
1.3319642
1.3319638
1.3319634
1.3319631
1.3319627
1.3319624
1.331962
1.3319617
1.3319614
1.3319611
1.3319608
1.3319606
1.3319603
1.3319601
1.3319598
1.3319596
1.3319593
1.3319591
1.3319589
1.3319587
1.3319585
1.3319583
1.3319582
1.331958
1.3319578
1.3319576
1.3319575
1.3319573
1.3319572
1.3319571
1.3319569
1.3319568
1.3319567
1.3319566
1.3319564
1.3319563
1.3319562
1.3319561
1.331956
1.3319559
1.3319558
1.3319558
1.3319557
1.3319556
1.3319555
1.3319554
1.3319554
1.3319553
1.3319552
1.3319552
1.3319551
1.3319551
1.331955
1.3319549
1.3319549
1.3319548
1.3319548
1.3319547
1.3319547
1.3319547
1.3319546
1.3319546
1.3319545
1.3319545
1.3319544
1.3319544
1.3319544
1.3319543
1.3319543
1.3319543
1.3319542
1.3319542
1.3319542
1.3319541
1.3319541
1.3319541
1.331954
1.331954
1.331954
1.3319539
1.3319539
1.3319539
1.3319538
1.3319538
1.3319538
1.3319537
1.3319537
1.3319537
1.3319537
1.3319536
1.3319536
1.3319536
1.3319535
1.3319535
1.3319535
1.3319534
1.3319534
1.3319534
1.3319534
1.3319533
1.3319533
1.3319533
1.3319532
1.3319532
1.3319532
1.3319531
1.3319531
1.3319531
1.331953
1.331953
1.331953
1.3319529
1.3319529
1.3319529
1.3319528
1.3319528
1.3319527
1.3319527
1.3319527
1.3319526
1.3319526
1.3319526
1.3319525
1.3319525
1.3319524
1.3319524
1.3319523
1.3319523
1.3319523
1.3319522
1.3319522
1.3319521
1.3319521
1.331952
1.331952
1.331952
1.3319519
1.3319519
1.3319518
1.3319518
1.3319517
1.3319517
1.3319516
1.3319516
1.3319515
1.3319515
1.3319514
1.3319514
1.3319513
1.3319513
1.3319512
1.3319512
1.3319511
1.3319511
1.331951
1.331951
1.3319509
1.3319509
1.3319508
1.3319507
1.3319507
1.3319506
1.3319506
1.3319505
1.3319505
1.3319504
1.3319503
1.3319503
1.3319502
1.3319502
1.3319501
1.33195
1.33195
1.3319499
1.3319499
1.3319498
1.3319497
1.3319497
1.3319496
1.3319495
1.3319495
1.3319494
1.3319493
1.3319493
1.3319492
1.3319491
1.3319491
1.331949
1.3319489
1.3319489
1.3319488
1.3319487
1.3319486
1.3319486
1.3319485
1.3319484
1.3319484
1.3319483
1.3319482
1.3319481
1.3319481
1.331948
1.3319479
1.3319478
1.3319478
1.3319477
1.3319476
1.3319475
1.3319475
1.3319474
1.3319473
1.3319472
1.3319471
1.3319471
1.331947
1.3319469
1.3319468
1.3319467
1.3319467
1.3319466
1.3319465
1.3319464
1.3319463
1.3319462
1.3319462
1.3319461
1.331946
1.3319459
1.3319458
1.3319457
1.3319456
1.3319456
1.3319455
1.3319454
1.3319453
1.3319452
1.3319451
1.331945
1.3319449
1.3319448
1.3319447
1.3319446
1.3319446
1.3319445
1.3319444
1.3319443
1.3319442
1.3319441
1.331944
1.3319439
1.3319438
1.3319437
1.3319436
1.3319435
1.3319434
1.3319433
1.3319432
1.3319431
1.331943
1.3319429
1.3319428
1.3319427
1.3319426
1.3319425
1.3319424
1.3319423
1.3319422
1.3319421
1.331942
1.3319419
1.3319418
1.3319417
1.3319416
1.3319415
1.3319414
1.3319412
1.3319411
1.331941
1.3319409
1.3319408
1.3319407
1.3319406
1.3319405
1.3319404
1.3319403
1.3319402
1.33194
1.3319399
1.3319398
1.3319397
1.3319396
1.3319395
1.3319394
1.3319392
1.3319391
1.331939
1.3319389
1.3319388
1.3319387
1.3319386
1.3319384
1.3319383
1.3319382
1.3319381
1.331938
1.3319378
1.3319377
1.3319376
1.3319375
1.3319374
1.3319372
1.3319371
1.331937
1.3319369
1.3319368
1.3319366
1.3319365
1.3319364
1.3319363
1.3319361
1.331936
1.3319359
1.3319358
1.3319356
1.3319355
1.3319354
1.3319353
1.3319351
1.331935
1.3319349
1.3319347
1.3319346
1.3319345
1.3319343
1.3319342
1.3319341
1.331934
1.3319338
1.3319337
1.3319336
1.3319334
1.3319333
1.3319332
1.331933
1.3319329
1.3319328
1.3319326
1.3319325
1.3319324
1.3319322
1.3319321
1.331932
1.3319318
1.3319317
1.3319316
1.3319314
1.3319313
1.3319312
1.331931
1.3319309
1.3319307
1.3319306
1.3319305
1.3319303
1.3319302
1.3319301
1.3319299
1.3319298
1.3319296
1.3319295
1.3319294
1.3319292
1.3319291
1.3319289
1.3319288
1.3319287
1.3319285
1.3319284
1.3319282
1.3319281
1.331928
1.3319278
1.3319277
1.3319275
1.3319274
1.3319272
1.3319271
1.331927
1.3319268
1.3319267
1.3319265
1.3319264
1.3319262
1.3319261
1.331926
1.3319258
1.3319257
1.3319255
1.3319254
1.3319252
1.3319251
1.3319249
1.3319248
1.3319246
1.3319245
1.3319244
1.3319242
1.3319241
1.3319239
1.3319238
1.3319236
1.3319235
1.3319233
1.3319232
1.331923
1.3319229
1.3319228
1.3319226
1.3319225
1.3319223
1.3319222
1.331922
1.3319219
1.3319217
1.3319216
1.3319214
1.3319213
1.3319211
1.331921
1.3319209
1.3319207
1.3319206
1.3319204
1.3319203
1.3319201
1.33192
1.3319198
1.3319197
1.3319195
1.3319194
1.3319192
1.3319191
1.3319189
1.3319188
1.3319186
1.3319185
1.3319183
1.3319182
1.3319181
1.3319179
1.3319178
1.3319176
1.3319175
1.3319173
1.3319172
1.331917
1.3319169
1.3319167
1.3319166
1.3319164
1.3319163
1.3319161
1.331916
1.3319158
1.3319157
1.3319155
1.3319154
1.3319153
1.3319151
1.331915
1.3319148
1.3319147
1.3319145
1.3319144
1.3319142
1.3319141
1.3319139
1.3319138
1.3319136
1.3319135
1.3319133
1.3319132
1.3319131
1.3319129
1.3319128
1.3319126
1.3319125
1.3319123
1.3319122
1.331912
1.3319119
1.3319117
1.3319116
1.3319115
1.3319113
1.3319112
1.331911
1.3319109
1.3319107
1.3319106
1.3319104
1.3319103
1.3319102
1.33191
1.3319099
1.3319097
1.3319096
1.3319094
1.3319093
1.3319091
1.331909
1.3319089
1.3319087
1.3319086
1.3319084
1.3319083
1.3319081
1.331908
1.3319078
1.3319077
1.3319076
1.3319074
1.3319073
1.3319071
1.331907
1.3319068
1.3319067
1.3319065
1.3319064
1.3319063
1.3319061
1.331906
1.3319058
1.3319057
1.3319055
1.3319054
1.3319053
1.3319051
1.331905
1.3319048
1.3319047
1.3319045
1.3319044
1.3319043
1.3319041
1.331904
1.3319038
1.3319037
1.3319035
1.3319034
1.3319033
1.3319031
1.331903
1.3319028
1.3319027
1.3319025
1.3319024
1.3319022
1.3319021
1.3319019
1.3319018
1.3319016
1.3319015
1.3319014
1.3319012
1.3319011
1.3319009
1.3319008
1.3319006
1.3319005
1.3319003
1.3319002
1.3319
1.3318999
1.3318998
1.3318996
1.3318995
1.3318993
1.3318992
1.331899
1.3318989
1.3318987
1.3318986
1.3318984
1.3318983
1.3318981
1.331898
1.3318978
1.3318976
1.3318975
1.3318973
1.3318972
1.331897
1.3318969
1.3318967
1.3318966
1.3318964
1.3318963
1.3318961
1.3318959
1.3318958
1.3318956
1.3318955
1.3318953
1.3318952
1.331895
1.3318948
1.3318947
1.3318945
1.3318944
1.3318942
1.331894
1.3318939
1.3318937
1.3318935
1.3318934
1.3318932
1.331893
1.3318929
1.3318927
1.3318925
1.3318924
1.3318922
1.331892
1.3318918
1.3318917
1.3318915
1.3318913
1.3318912
1.331891
1.3318908
1.3318906
1.3318905
1.3318903
1.3318901
1.3318899
1.3318897
1.3318896
1.3318894
1.3318892
1.331889
1.3318888
1.3318886
1.3318884
1.3318882
1.331888
1.3318879
1.3318877
1.3318875
1.3318873
1.3318871
1.3318869
1.3318867
1.3318865
1.3318863
1.331886
1.3318858
1.3318856
1.3318854
1.3318852
1.331885
1.3318848
1.3318846
1.3318843
1.3318841
1.3318839
1.3318837
1.3318835
1.3318832
1.331883
1.3318828
1.3318825
1.3318823
1.3318821
1.3318818
1.3318816
1.3318813
1.3318811
1.3318809
1.3318806
1.3318803
1.3318801
1.3318798
1.3318796
1.3318793
1.331879
1.3318788
1.3318785
1.3318782
1.3318779
1.3318777
1.3318774
1.3318771
1.3318768
1.3318765
1.3318762
1.3318759
1.3318756
1.3318753
1.331875
1.3318747
1.3318744
1.3318741
1.3318738
1.3318735
1.3318732
1.3318728
1.3318725
1.3318721
1.3318718
1.3318714
1.3318711
1.3318707
1.3318704
1.33187
1.3318696
1.3318693
1.3318689
1.3318685
1.3318681
1.3318677
1.3318673
1.3318669
1.3318665
1.331866
1.3318656
1.3318652
1.3318648
1.3318643
1.3318639
1.3318634
1.3318629
1.3318625
1.331862
1.3318615
1.331861
1.3318605
1.33186
1.3318595
1.331859
1.3318585
1.331858
1.3318575
1.331857
1.3318564
1.3318559
1.3318554
1.3318548
1.3318543
1.3318537
1.3318532
1.3318527
1.3318521
1.3318516
1.3318511
1.3318506
1.3318501
1.3318496
1.3318492
1.3318487
1.3318483
1.3318479
1.3318475
1.3318472
1.3318469
1.3318466
1.3318463
1.3318461
1.3318459
1.3318457
1.3318456
1.3318455
1.3318454
1.3318453
1.3318453
1.3318452
1.3318452
1.3318452
1.3318452
1.3318453
1.3318453
1.3318453
1.3318453
1.3318453
1.3318453
1.3318452
1.3318451
1.3318449
1.3318446
1.3318443
1.3318438
1.3318433
1.3318428
1.3318421
1.3318414
1.3318406
1.3318397
1.3318388
1.3318378
1.3318368
1.3318357
1.3318346
1.3318335
1.3318324
1.3318312
1.3318301
1.331829
1.331828
1.331827
1.3318263
1.3318257
1.3318252
1.3318247
1.331824
1.3318232
1.3318222
1.3318214
1.3318205
1.3318192
1.3318168
1.3318118
1.3318011
1.3317771
1.3317214
1.3315889
1.3312736
1.3305684
1.329535
1.328204
1.3265656
1.3246217
1.3223844
1.3198758
1.3171267
1.314175
1.3110642
1.3078409
1.3045535
1.3012494
1.2979739
1.2947687
1.2916706
1.2887108
1.2859144
1.2833005
1.2808819
1.2786661
1.2766551
1.2748467
1.273235
1.271811
1.2705633
1.269479
1.2685443
1.2677448
1.2670662
1.2664945
1.2660166
1.2656199
1.2652932
1.2650262
1.2648095
1.2646349
1.2644952
1.2643843
1.2642968
1.2642285
1.2641756
1.2641352
1.2641045
1.2640815
1.2640645
1.264052
1.2640429
1.2640365
1.2640321
1.2640293
1.2640278
1.2640271
1.2640269
1.264027
1.2640277
1.2640292
1.2640307
1.2640323
1.2640338
1.2640354
1.264037
1.2640386
1.2640402
1.2640419
1.2640436
1.2640453
1.2640471
1.2640489
1.2640507
1.2640525
1.2640544
1.2640563
1.2640582
1.2640601
1.2640619
1.2640638
1.2640656
1.2640674
1.2640691
1.2640708
1.2640725
1.2640741
1.2640756
1.2640771
1.2640786
1.2640799
1.2640812
1.2640825
1.2640836