/*--------------------------------*- C++ -*----------------------------------*\
  =========                 |
  \\      /  F ield         | OpenFOAM: The Open Source CFD Toolbox
   \\    /   O peration     | Website:  https://openfoam.org
    \\  /    A nd           | Version:  7
     \\/     M anipulation  |
\*---------------------------------------------------------------------------*/
FoamFile
{
    version     2.0;
    format      ascii;
    class       volScalarField;
    location    "0.00104";
    object      Uz;
}
// * * * * * * * * * * * * * * * * * * * * * * * * * * * * * * * * * * * * * //

dimensions      [0 1 -1 0 0 0 0];

internalField   nonuniform List<scalar> 
5000
(
0
0
0
0
0
-5.5150362e-17
-1.1766949e-31
1.6571185e-16
5.5265165e-17
-1.1057489e-16
-1.1060476e-16
5.5312016e-17
-4.7165387e-31
-4.8738031e-31
1.1062706e-16
-1.1061688e-16
-1.3508624e-48
-4.8716455e-31
-5.5281624e-17
1.1054189e-16
5.5258585e-17
0
0
-5.5221059e-17
4.7071902e-31
-4.5491029e-31
-5.5175508e-17
5.5158618e-17
5.5138978e-17
-5.5118937e-17
9.6304573e-31
-4.6958454e-31
-5.5048914e-17
5.5025512e-17
5.5002046e-17
0
0
-5.4948451e-17
-5.4937538e-17
5.4932263e-17
-9.211146e-31
-5.4934906e-17
5.4942596e-17
-9.2935821e-31
-5.4971348e-17
5.4990266e-17
-1.8917917e-30
1.8846955e-30
-1.8931922e-30
9.3911216e-31
5.5087238e-17
0
0
0
0
0
0
0
0
0
0
0
0
-5.5114761e-17
-5.5105586e-17
5.5097045e-17
-9.4722597e-31
-2.6732198e-49
5.5066717e-17
0
0
-5.5035636e-17
-5.5024256e-17
0
5.5002521e-17
1.8990114e-30
-5.4980646e-17
-5.4970284e-17
5.4958704e-17
1.0989665e-16
-1.0987346e-16
3.122201e-32
1.6474421e-16
-1.098087e-16
-5.7101333e-30
1.0976471e-16
-1.6461226e-16
5.4860357e-17
5.4848751e-17
-5.4838347e-17
5.4826738e-17
5.4816338e-17
1.9081137e-30
-1.0958862e-16
-3.791338e-30
-5.4772257e-17
-5.4760607e-17
-1.9217749e-30
3.8116152e-30
1.09456e-16
5.471628e-17
-5.470576e-17
7.772481e-33
5.4683372e-17
0
-5.4660773e-17
-1.902687e-30
5.46379e-17
-5.462591e-17
-5.4614675e-17
1.0920516e-16
5.4591e-17
-1.6373622e-16
-5.456678e-17
1.6366288e-16
-5.4541925e-17
-5.4529156e-17
-3.0988974e-32
-5.4503297e-17
1.6347042e-16
-3.8088735e-30
-1.0892657e-16
1.0889934e-16
5.4435998e-17
-5.4422277e-17
5.4408583e-17
-5.4394954e-17
-1.0876294e-16
5.4368187e-17
1.8770139e-30
5.4342555e-17
1.0866073e-16
-5.4318699e-17
-5.4307638e-17
-5.4297257e-17
-1.8901103e-30
-1.8820898e-30
1.8895265e-30
1.0852764e-16
5.4257723e-17
-5.4252583e-17
-1.0849681e-16
-5.4245179e-17
-5.4242879e-17
3.76159e-30
1.0848179e-16
-1.5416241e-32
1.5416474e-32
-2.6914416e-48
5.4245243e-17
-3.7620181e-30
7.555256e-30
5.4253404e-17
-5.4256565e-17
5.4259778e-17
1.8815398e-30
-5.4265981e-17
5.4268792e-17
-7.7124162e-33
-5.4273444e-17
0
5.4276328e-17
3.7563345e-30
-1.0855381e-16
5.4276304e-17
-1.542591e-32
-5.4273275e-17
5.4270837e-17
-5.4267792e-17
5.4264152e-17
-2.2608067e-29
-1.5050159e-29
5.424986e-17
-1.0848811e-16
0
-3.7608677e-30
-1.1281119e-29
5.4216405e-17
5.4208542e-17
3.7356322e-30
-5.4191889e-17
5.4183155e-17
3.7261297e-30
2.3091932e-32
7.5035801e-30
-1.0829222e-16
5.4136431e-17
5.4126625e-17
-3.7221761e-30
3.7291762e-30
-1.1246941e-29
3.7354652e-30
-5.4076184e-17
0
0
0
0
-5.4024368e-17
1.1260457e-29
5.4003453e-17
5.3992972e-17
-5.3982479e-17
-5.3971978e-17
1.0792294e-16
3.7337763e-30
-1.1199145e-29
-5.3929915e-17
-5.3919392e-17
5.3908868e-17
0
5.388782e-17
3.7286786e-30
-5.3866774e-17
-5.3856252e-17
7.4989e-30
5.3835214e-17
-1.0764939e-16
5.3814182e-17
5.3803668e-17
-5.3793156e-17
5.3782645e-17
0
0
0
5.3740612e-17
-5.3730105e-17
-1.0743919e-16
5.3709087e-17
-3.7315719e-30
5.368806e-17
5.367754e-17
-1.0733403e-16
1.525009e-32
-1.5247094e-32
5.363539e-17
5.3624825e-17
-1.0722849e-16
7.6175364e-33
-1.1165096e-29
5.3582385e-17
-2.9751599e-29
-7.4288024e-30
5.3550278e-17
-5.3539503e-17
0
-5.3517821e-17
5.3506906e-17
5.3495935e-17
-5.3484905e-17
0
-5.3462651e-17
5.3451422e-17
5.3440121e-17
-1.8548921e-29
-1.0683459e-16
-1.0681154e-16
1.6018251e-16
1.06765e-16
0
-1.0671791e-16
-5.3347089e-17
5.3335174e-17
5.3323217e-17
5.3311229e-17
-1.0659844e-16
-1.0657442e-16
5.327521e-17
1.0652647e-16
1.4771695e-29
-1.0647891e-16
5.3227683e-17
-7.380953e-30
-5.3204499e-17
1.0638627e-16
-5.318195e-17
7.404929e-30
5.3160233e-17
-5.3149748e-17
5.3139544e-17
-1.0625929e-16
2.2163325e-29
1.0622169e-16
-1.0620397e-16
-3.6744351e-30
5.3085427e-17
0
0
5.3063679e-17
-5.3057285e-17
-1.0610264e-16
5.3045789e-17
-1.5075068e-32
5.3035991e-17
5.3031708e-17
-5.3027818e-17
0
-5.3021152e-17
-5.3018334e-17
0
1.0602723e-16
5.3011661e-17
-1.0601988e-16
3.6685464e-30
-1.5065516e-32
5.3005867e-17
5.300477e-17
-5.300375e-17
5.3002777e-17
-5.3001819e-17
3.0127492e-32
1.0599965e-16
-5.2998737e-17
-5.2997547e-17
-5.2996232e-17
-7.3502654e-30
5.2993135e-17
0
0
-5.2987021e-17
7.3563742e-30
-1.4704456e-29
-7.3631039e-30
5.2975493e-17
-5.297194e-17
7.5272207e-33
5.2963991e-17
0
0
0
0
0
0
0
-5.2921039e-17
0
5.2907697e-17
0
-5.2893437e-17
-1.4670355e-29
5.2878334e-17
0
0
-5.285427e-17
-7.3371292e-30
5.2837403e-17
0
0
-5.2811051e-17
-5.2802022e-17
5.2792883e-17
5.2783643e-17
0
-5.2764884e-17
7.4969902e-33
5.2745797e-17
-5.2736145e-17
-5.2726426e-17
5.2716645e-17
5.2706807e-17
0
-5.2686971e-17
-5.2676979e-17
5.2666942e-17
5.265686e-17
0
-5.2636573e-17
-5.2626369e-17
5.2616127e-17
5.2605846e-17
0
0
0
0
0
0
0
0
-5.2511604e-17
-4.9982384e-48
5.2490222e-17
0
0
0
-5.2446942e-17
-7.272767e-30
5.2425039e-17
-5.2414021e-17
7.2756295e-30
-7.4453304e-33
-7.2725402e-30
5.2369522e-17
-5.2358296e-17
5.2347033e-17
-2.9080059e-29
-5.2324404e-17
5.2313044e-17
0
0
-5.2278825e-17
-7.2568064e-30
5.2255937e-17
-5.2244485e-17
-5.2233035e-17
0
5.2210163e-17
5.2198754e-17
-5.2187372e-17
-1.4480828e-29
1.3805518e-48
-7.2409873e-30
5.2142237e-17
-5.2131085e-17
-5.3498797e-48
-7.2348145e-30
-5.2098053e-17
0
0
5.2065774e-17
7.3974896e-33
-2.1655494e-29
5.2034376e-17
0
0
-5.2003932e-17
1.4415533e-29
5.1984173e-17
0
0
0
-5.1945855e-17
7.3806197e-33
5.1927205e-17
-5.1917977e-17
5.1908801e-17
-1.4426254e-29
-1.0378109e-16
5.1881441e-17
2.160587e-29
7.2006886e-30
-7.1994131e-30
-5.1844727e-17
0
0
5.1816216e-17
7.1928076e-30
-1.4375487e-29
2.9886854e-49
-5.1775879e-17
5.1765204e-17
5.1754235e-17
0
-5.1731296e-17
-7.1807051e-30
5.1706813e-17
0
0
-5.1666631e-17
1.4680433e-32
5.4325576e-49
-5.1621488e-17
5.1605177e-17
-7.1478425e-30
7.1600432e-30
-1.4307625e-29
-5.1532659e-17
5.1512528e-17
-1.4298172e-29
1.42994e-29
-1.4293047e-29
-5.1422885e-17
5.1398003e-17
-1.4264997e-29
7.1433353e-30
0
-5.1287407e-17
5.1256789e-17
-7.1120678e-30
7.2747779e-33
-7.1026599e-30
7.104932e-30
5.1083775e-17
-5.1044877e-17
-5.1004441e-17
5.0962417e-17
5.0918758e-17
0
-5.0826331e-17
-5.0777458e-17
0
5.0674127e-17
-7.0280217e-30
7.1854304e-33
7.0048442e-30
-5.0443519e-17
5.0380528e-17
6.978625e-30
-1.3952784e-29
-5.0177714e-17
-5.0105269e-17
1.0006057e-16
-7.0987047e-33
6.9172011e-30
4.978937e-17
-4.9703484e-17
6.8885039e-30
4.9522858e-17
0
0
0
-4.9123806e-17
-4.9015647e-17
4.8903945e-17
4.8788601e-17
0
-4.8546598e-17
-4.8419737e-17
4.8288831e-17
4.8153776e-17
0
-4.7870789e-17
-4.7722637e-17
4.7569897e-17
1.3165497e-29
-4.7250211e-17
0
0
0
0
4.6362652e-17
-1.2807104e-29
-4.5969801e-17
4.5764787e-17
6.3247034e-30
-6.3010296e-30
1.0739546e-47
4.4884607e-17
4.4648917e-17
-8.8813446e-17
-6.1308854e-30
6.0891632e-30
-4.3639893e-17
0
4.3093918e-17
4.2810144e-17
-4.251902e-17
-1.1711774e-29
4.1914259e-17
0
0
-4.0949118e-17
5.6327304e-30
4.0265732e-17
0
-3.9549384e-17
5.5676131e-33
-1.0773783e-29
-5.3275673e-30
3.8014592e-17
-3.760907e-17
5.2856763e-33
-1.0210635e-29
-3.633872e-17
3.589707e-17
9.8427021e-30
4.9718115e-33
-4.7922679e-30
-3.4037484e-17
3.3549007e-17
0
-1.8068647e-29
-4.4419444e-30
-1.3106547e-29
-4.4000009e-33
-3.0415697e-17
2.9859311e-17
1.0975263e-46
-3.9870593e-30
7.8113832e-30
-3.8229444e-30
5.3857878e-17
-2.631303e-17
-2.5687147e-17
-3.4781217e-30
3.388453e-30
4.7499251e-17
-2.3083839e-17
-2.2408097e-17
3.3218233e-47
0
3.417529e-47
-1.9605963e-17
1.8880774e-17
3.5598569e-47
-2.4134917e-30
-2.3656287e-33
-1.588255e-17
3.021775e-17
3.9779528e-30
-1.3532993e-17
1.7657527e-30
-1.6532143e-30
1.1098896e-17
-1.0269104e-17
-1.6239999e-46
-3.5759654e-30
2.1463702e-30
-1.9039702e-30
-1.6622123e-30
4.2702736e-47
0
3.31303e-18
0
0
-5.3910339e-19
1.0677655e-31
-1.3251251e-18
0
0
8.3739223e-18
4.2918238e-30
-1.226148e-17
7.1127552e-18
-1.1512612e-33
1.2629024e-30
1.0097331e-17
0
0
0
1.4160708e-17
4.213693e-30
-1.6224893e-17
0
0
1.935729e-17
-2.9004643e-33
-2.1467135e-17
0
0
2.4660286e-17
7.137794e-30
7.4471399e-30
-7.7423171e-30
-2.896155e-17
3.0043115e-17
-8.6388613e-30
8.9401737e-30
-9.2371648e-30
-3.4388143e-17
0
0
3.7660217e-17
-1.3121418e-45
-3.9844598e-17
0
0
4.3121085e-17
-8.3829568e-46
-4.53029e-17
0
0
4.856725e-17
-8.3215846e-46
-5.0735323e-17
0
0
5.3971456e-17
-7.8223896e-33
-5.6115725e-17
5.718313e-17
-1.6182405e-29
1.6477092e-29
-1.6762184e-29
-6.1418126e-17
0
0
0
0
0
6.764461e-17
-1.9057275e-29
-6.9680815e-17
0
0
0
0
0
0
0
7.7593239e-17
-4.3603203e-29
-7.950709e-17
0
0
0
0
0
0
0
8.6872414e-17
-2.4356283e-29
-8.8636245e-17
0
0
9.1219776e-17
-2.5577439e-29
-9.2899669e-17
0
0
0
9.6153607e-17
2.6933333e-29
-9.7726193e-17
0
0
0
0
0
0
0
1.0363857e-16
-1.4826733e-32
-1.0501914e-16
0
0
0
0
0
0
0
1.101342e-16
1.573522e-32
-1.1130877e-16
0
0
0
1.1352998e-16
-6.3327252e-29
-1.145758e-16
0
1.1557778e-16
3.2244669e-29
-1.1653572e-16
0
0
1.1788904e-16
1.1831773e-16
-1.1873514e-16
-1.1914117e-16
0
0
0
0
-1.2100005e-16
1.7243064e-32
2.4332586e-16
1.2197687e-16
-2.4455821e-16
-2.4513941e-16
1.2284849e-16
1.2311545e-16
0
0
0
0
1.2427202e-16
3.4579821e-29
-1.2465078e-16
0
0
0
0
0
0
0
0
0
0
0
0
0
0
1.2592622e-16
-6.9925901e-29
-1.2588314e-16
0
0
-1.2572276e-16
3.4888725e-29
-1.7841968e-32
1.2544683e-16
1.2532886e-16
6.9512223e-29
-3.4742815e-29
-1.2489714e-16
0
0
0
0
0
1.236786e-16
-6.8530051e-29
-1.2316616e-16
0
0
0
0
0
0
0
1.2057792e-16
-6.6716428e-29
-1.1979503e-16
0
0
0
0
0
0
0
1.1611412e-16
-9.6259849e-29
-1.1505582e-16
0
0
0
0
0
0
0
0
1.0960775e-16
-1.5480342e-32
-1.0824493e-16
0
0
0
0
1.045977e-16
-1.0382737e-16
-1.0304351e-16
2.0449237e-16
2.8166601e-29
-1.0061132e-16
0
0
0
0
9.6292828e-17
-2.6474375e-29
-1.8894907e-16
9.3546259e-17
9.2605369e-17
-9.1651982e-17
0
0
0
8.7715702e-17
2.4050661e-29
-8.5675712e-17
-8.4638267e-17
8.3589396e-17
8.2529256e-17
-8.1458033e-17
0
0
7.8179684e-17
7.706601e-17
-7.5942247e-17
-7.4808617e-17
-7.3665361e-17
-4.0270679e-29
7.1350953e-17
0
0
0
6.6618133e-17
6.5414969e-17
-6.4204434e-17
-6.2986846e-17
-6.1762508e-17
-1.679985e-29
5.9294743e-17
0
0
0
5.4289989e-17
-1.4716654e-29
-5.1756766e-17
0
0
0
0
0
0
0
4.1498395e-17
-1.1160759e-29
-7.7874438e-17
-1.0451176e-29
3.6327971e-17
0
0
3.2460171e-17
-4.4299575e-33
8.2993434e-30
-7.9391493e-30
-2.7326491e-17
-2.6051898e-17
6.881435e-30
2.3516134e-17
0
0
1.975037e-17
-1.5411533e-29
-4.792973e-30
2.2793652e-33
-1.4816888e-17
1.360195e-17
1.2395292e-17
-2.2394542e-17
5.5523331e-30
8.82766e-18
-7.6569975e-18
0
5.3446032e-18
1.1679014e-30
-3.0732162e-18
0
8.4474466e-19
2.4977974e-19
-1.4797143e-30
-2.4040911e-18
3.4621418e-18
0
-5.5418663e-18
0
7.56443e-18
0
-9.5334898e-18
1.0496752e-17
-6.3492643e-30
-1.2377806e-17
1.3297079e-17
0
-1.5091094e-17
-4.4332828e-30
1.6824675e-17
0
-1.8497717e-17
1.9311112e-17
-5.7153048e-33
-2.0891223e-17
2.1658168e-17
0
-2.3145929e-17
-2.3866146e-17
2.4570817e-17
2.5260088e-17
-2.5933958e-17
2.6592568e-17
2.7235962e-17
-2.7864026e-17
0
0
0
0
0
0
-3.1843554e-17
2.4275575e-47
6.5698853e-17
-3.3331826e-17
-3.3800617e-17
3.4255818e-17
0
0
-3.5542675e-17
-3.5945848e-17
3.633639e-17
3.6714657e-17
0
-3.7435266e-17
-1.0495571e-29
3.8109341e-17
0
0
-3.9037195e-17
-3.9325207e-17
3.9602984e-17
3.9870747e-17
0
-4.0377199e-17
1.1278352e-29
4.0846431e-17
-4.1067683e-17
-2.2925447e-29
-5.8953136e-33
-4.1680701e-17
4.1868893e-17
4.2049388e-17
0
0
-4.2546931e-17
1.1850554e-29
4.2844096e-17
0
-4.3115537e-17
-4.3241988e-17
4.3363761e-17
4.3480547e-17
0
0
0
0
0
0
-4.4148028e-17
1.2274301e-29
4.4299329e-17
0
0
0
0
0
0
-4.4716081e-17
2.3465924e-48
4.4807435e-17
4.4849103e-17
1.245182e-29
-4.4925007e-17
0
0
0
0
-4.5076686e-17
-1.2517294e-29
4.5123998e-17
-4.5145164e-17
-4.5164773e-17
4.5182891e-17
-2.5089217e-29
-3.7653075e-29
-3.7651982e-29
1.2569247e-29
-2.5132197e-29
1.2562637e-29
4.5274225e-17
0
-4.5290507e-17
3.7715258e-29
-6.4381343e-33
-4.5310136e-17
4.5314329e-17
4.5318027e-17
-4.5321703e-17
1.2579323e-29
-3.7727026e-29
-2.5167346e-29
-2.5148713e-29
1.2574583e-29
-2.5162258e-29
-4.5331156e-17
4.5330758e-17
4.5329996e-17
-4.5328898e-17
1.2573665e-29
-5.0318565e-29
-1.2579103e-29
1.2584945e-29
1.2571395e-29
1.2577096e-29
-4.531382e-17
0
4.5307623e-17
-1.2573663e-29
-7.9919365e-50
4.5297195e-17
0
-4.5289631e-17
4.5285674e-17
4.5281638e-17
-4.5277527e-17
0
0
0
0
-4.5255903e-17
1.2558993e-29
-2.51219e-29
4.5242345e-17
4.5237779e-17
-4.523315e-17
0
0
0
0
-4.5209844e-17
-6.4240365e-33
4.5200436e-17
0
0
0
0
0
0
0
-4.5162748e-17
-4.5158032e-17
4.515332e-17
4.5148635e-17
0
0
0
0
0
0
-4.5115847e-17
-4.5111191e-17
4.5106525e-17
4.5101873e-17
0
0
0
0
0
0
-4.5069262e-17
-4.5064622e-17
4.5059966e-17
4.5055337e-17
0
0
0
0
0
0
-4.5022826e-17
2.4994939e-29
4.5013589e-17
0
0
0
0
0
0
-4.4981069e-17
1.2489021e-29
4.4971606e-17
0
0
0
0
-4.4948568e-17
-6.3869254e-33
4.4939354e-17
-4.4934701e-17
-7.4526884e-50
4.4925445e-17
-4.4920792e-17
2.4944627e-29
4.4911473e-17
-4.4906854e-17
-2.4930498e-29
-2.4927909e-29
-1.175399e-48
-2.4916438e-29
-1.2450575e-29
4.4879186e-17
-4.4874576e-17
-4.4869866e-17
8.9729541e-17
-2.4887562e-29
-8.9707656e-17
0
4.4844515e-17
-1.2451497e-29
-1.2456845e-29
-3.7321533e-29
-3.7322709e-29
-2.4866124e-29
3.7314954e-29
-2.4868111e-29
1.2448662e-29
4.4802862e-17
0
-4.4793285e-17
-6.3648222e-33
-3.7281105e-29
-3.7283492e-29
6.3627749e-33
2.4850294e-29
-1.2430121e-29
-4.4759204e-17
0
4.4749442e-17
-2.4836509e-29
-6.3578059e-33
4.473389e-17
0
-4.4723935e-17
4.4719353e-17
4.4714496e-17
-4.470908e-17
0
0
-4.4693026e-17
4.9616839e-29
-2.4789732e-29
2.4806023e-29
-1.2411133e-29
4.4667491e-17
4.466181e-17
-4.4656426e-17
0
0
0
0
-4.462971e-17
-1.2391284e-29
-4.9533756e-29
4.4613435e-17
4.4607953e-17
-4.4602432e-17
0
0
0
0
-4.4574285e-17
-4.4568561e-17
4.4562803e-17
4.455708e-17
0
0
0
0
0
0
-4.4516139e-17
-4.4510202e-17
4.4504249e-17
4.4498242e-17
0
0
0
0
0
0
-4.4455616e-17
3.7015546e-29
8.8886442e-17
-4.4436983e-17
-1.3329224e-16
-4.4424503e-17
0
8.8823812e-17
-4.9309572e-29
-1.4785708e-28
-4.4392858e-17
-8.877295e-17
8.8760104e-17
-4.4373605e-17
-4.4367176e-17
4.436074e-17
-4.4354282e-17
6.3022004e-33
4.4341283e-17
4.4334763e-17
-4.4328224e-17
-4.4321658e-17
4.4315081e-17
-4.4308509e-17
-6.2956821e-33
4.4295321e-17
0
0
0
8.8537508e-17
-4.4262064e-17
-8.8510754e-17
4.4248692e-17
-4.4241993e-17
-4.4235281e-17
8.8457091e-17
1.4429619e-48
-4.4215072e-17
4.4208304e-17
8.8403036e-17
4.4194733e-17
-1.3256388e-16
4.418118e-17
2.0038043e-47
-1.3250266e-16
8.8321482e-17
4.4153916e-17
4.414708e-17
8.8280492e-17
-8.8266784e-17
-4.4126523e-17
-4.4119655e-17
4.4112802e-17
4.4105939e-17
-1.3229717e-16
4.4092168e-17
4.4085277e-17
-4.4078386e-17
-4.407149e-17
-6.2619541e-33
1.3217304e-16
-4.4050767e-17
7.3330538e-29
-7.3344051e-29
-1.3209004e-16
4.4023091e-17
4.4016158e-17
8.8018467e-17
-4.4002297e-17
-8.7990718e-17
8.7976854e-17
-4.3981483e-17
4.3974545e-17
4.3967602e-17
-1.31882e-16
4.3953736e-17
4.394677e-17
-8.7879651e-17
-4.3932882e-17
4.3925909e-17
1.3175693e-16
-4.3912043e-17
-1.7562038e-16
2.4366812e-29
8.7782365e-17
4.3884224e-17
0
8.7740652e-17
9.7377611e-29
-1.3156945e-16
4.3849503e-17
-9.7343738e-29
4.383558e-17
4.3828648e-17
-8.7643495e-17
0
0
0
-4.3793977e-17
2.4311331e-29
8.7560101e-17
-4.3773152e-17
-8.7532372e-17
1.3127772e-16
-1.4571527e-28
-8.749079e-17
4.3738435e-17
0
0
0
8.7421493e-17
-4.3703863e-17
-8.7393775e-17
1.3106988e-16
-1.2415485e-32
-8.735233e-17
0
0
-4.365545e-17
2.423442e-29
8.7283096e-17
-4.363473e-17
-8.7255656e-17
1.308625e-16
-7.2614763e-29
-8.7214266e-17
4.3600212e-17
-4.3593236e-17
8.7172766e-17
4.3579569e-17
-1.4510434e-28
-4.3565672e-17
-8.7117672e-17
1.3065609e-16
-2.4752527e-32
-4.3538142e-17
2.416318e-29
-4.3524521e-17
-4.3517628e-17
2.4151721e-29
1.3051136e-16
-1.2362597e-32
-1.3047055e-16
8.6966449e-17
9.1666555e-48
-8.6939054e-17
4.3462748e-17
-4.3455852e-17
8.6897804e-17
4.3442053e-17
-9.6451899e-29
-4.3428484e-17
-8.6843152e-17
-4.341466e-17
-4.3407839e-17
1.3020324e-16
0
-4.338736e-17
-2.4079459e-29
2.4075677e-29
-2.4065757e-29
4.3360086e-17
-4.8128647e-29
4.3346325e-17
-1.4434032e-28
-1.2999821e-16
8.6651904e-17
1.2995731e-16
4.3312225e-17
-1.299162e-16
-8.6597249e-17
1.2987554e-16
-4.328503e-17
-1.2983454e-16
0
0
4.3257773e-17
4.3250988e-17
0
-4.3237334e-17
-4.3230515e-17
8.6447468e-17
-9.59548e-29
-1.2963054e-16
4.7962304e-29
4.3196553e-17
4.318975e-17
4.3182972e-17
-4.3176208e-17
-4.3169426e-17
4.3162629e-17
1.2946749e-16
-4.3149036e-17
-1.7256905e-16
4.31355e-17
8.6257463e-17
4.3121946e-17
0
-4.3108377e-17
0
-4.3094847e-17
4.3088089e-17
-9.5653624e-29
4.3074542e-17
-1.4343531e-28
-1.2918302e-16
4.3054251e-17
4.3047501e-17
-4.3040744e-17
-4.3033981e-17
4.3027219e-17
1.2906139e-16
-4.3013712e-17
-1.7202786e-16
7.1617393e-29
4.2993473e-17
8.5973444e-17
4.2979972e-17
-8.5946457e-17
-2.3849667e-29
-6.104948e-33
4.2953016e-17
-9.5353784e-29
-4.2939536e-17
1.287984e-16
-4.7654457e-29
-8.5838674e-17
0
0
-4.2899151e-17
2.3808554e-29
8.5771396e-17
-4.2878975e-17
-8.5744507e-17
-4.2865535e-17
4.7567618e-29
1.2855629e-16
4.2845378e-17
-4.2838663e-17
8.56639e-17
-2.4343329e-32
-1.4261739e-28
-4.2811817e-17
-8.5610215e-17
1.2839519e-16
-4.751744e-29
-8.5569962e-17
0
0
8.5529686e-17
-9.4936028e-29
-4.7448394e-29
-1.2148763e-32
-1.2821375e-16
-8.5462346e-17
7.1158056e-29
1.2815308e-16
4.2710969e-17
-4.2704261e-17
8.5395134e-17
4.7381234e-29
-1.4214571e-28
-4.2677508e-17
-8.534163e-17
1.2799238e-16
-4.2657449e-17
-4.2650787e-17
4.2644129e-17
-4.2637454e-17
8.5261505e-17
-4.7319182e-29
-4.2617405e-17
-6.0553553e-33
-8.5208225e-17
8.51948e-17
-7.0911098e-29
-8.5168071e-17
4.257742e-17
0
-4.2564053e-17
-2.3616518e-29
1.2765215e-16
-4.25441e-17
-8.5074871e-17
-4.2530728e-17
-4.2524039e-17
4.2517402e-17
4.2510777e-17
4.2504104e-17
-4.2497384e-17
2.3585553e-29
-2.3575816e-29
4.2477367e-17
-4.7160999e-29
4.2463979e-17
-1.4140199e-28
-1.2735169e-16
8.4887855e-17
1.5123617e-48
-4.2430618e-17
-4.7090969e-29
2.3550813e-29
1.2723167e-16
-4.2403889e-17
-1.2719162e-16
0
0
4.2377112e-17
4.2370422e-17
8.4727416e-17
-4.2356968e-17
-8.4700457e-17
8.468701e-17
-4.2336776e-17
-1.2699007e-16
4.2323271e-17
4.2316552e-17
4.2309846e-17
4.2303114e-17
-8.4592701e-17
-4.2289584e-17
4.2282823e-17
1.2682817e-16
-4.226928e-17
-2.1251842e-47
-7.0353351e-29
-8.449774e-17
8.4484085e-17
8.4470439e-17
-4.2228377e-17
-8.4442999e-17
8.4429212e-17
4.2207714e-17
-1.2660241e-16
-1.2658156e-16
4.2186872e-17
8.4359772e-17
4.2172881e-17
-2.3405239e-29
-8.4317473e-17
-4.215163e-17
4.2144506e-17
8.427467e-17
-5.9870491e-33
-8.4245725e-17
8.423118e-17
-7.0131838e-29
-8.4201793e-17
4.2093487e-17
8.4172108e-17
8.4157157e-17
0
-4.2063433e-17
-1.2616733e-16
-4.2048061e-17
4.204029e-17
0
0
0
0
-4.2000389e-17
2.330885e-29
1.2595166e-16
-4.1975513e-17
-1.2590115e-16
-4.1958499e-17
6.9868006e-29
8.3882269e-17
4.1932326e-17
-4.1923427e-17
8.3828886e-17
4.1905379e-17
-1.3954539e-28
-4.1886933e-17
-8.3755065e-17
1.2560388e-16
-1.1896815e-32
-4.1848218e-17
5.9455337e-33
-4.1827456e-17
-4.1816687e-17
4.6410643e-29
1.2538336e-16
-1.1875494e-32
-1.2531553e-16
-8.3520508e-17
2.3161603e-29
8.3472004e-17
4.172353e-17
-4.1710857e-17
8.3395825e-17
4.168466e-17
-1.3877192e-28
-4.1657244e-17
-8.3286137e-17
1.2488566e-16
-4.6209346e-29
-4.1598467e-17
-4.1582881e-17
-4.156693e-17
-2.3051937e-29
2.3048572e-29
8.303358e-17
2.3029335e-29
-8.2962536e-17
8.2925719e-17
-2.0705285e-28
-1.2427391e-16
8.2809534e-17
-4.595468e-29
-8.2726739e-17
4.134182e-17
4.1319687e-17
8.2593959e-17
-4.127371e-17
-1.237495e-16
0
0
0
1.2344268e-16
1.2336088e-16
-1.232768e-16
-1.231904e-16
8.2067817e-17
-1.1653915e-32
4.0972389e-17
-1.3637337e-28
-1.2272259e-16
1.2262152e-16
-2.0405472e-28
-8.1607336e-17
-2.2623076e-29
2.2613861e-29
8.1382487e-17
-4.0651794e-17
4.0611313e-17
-1.3513885e-28
-1.2158128e-16
1.2145001e-16
4.0438486e-17
-8.9683609e-29
8.0690556e-17
-8.0593665e-17
-4.0247186e-17
-4.0196336e-17
-1.2043265e-16
4.4506833e-29
4.003592e-17
1.1993919e-16
-2.6591831e-28
-1.1959001e-16
0
3.9741283e-17
7.9356026e-17
-3.9613213e-17
3.9546883e-17
-1.314832e-28
-7.8819336e-17
1.1801613e-16
-8.7171514e-29
-4.3531127e-29
-4.3424492e-29
-4.3338287e-29
3.8958832e-17
-1.1663335e-16
-1.163848e-16
3.8710253e-17
7.7247539e-17
0
-3.8445405e-17
4.2567233e-29
-8.4947741e-29
4.2367455e-29
3.8065887e-17
-3.7966218e-17
-3.7864599e-17
1.1328286e-16
5.4391572e-46
-6.2535835e-29
3.7437771e-17
-4.1416329e-29
7.4424333e-17
-7.4192353e-17
-7.3956113e-17
-3.6857853e-17
4.0776849e-29
3.6611164e-17
0
0
0
7.2183242e-17
-3.5956335e-17
-7.1637649e-17
1.0703719e-16
-3.5537091e-17
-1.0617884e-16
1.0573985e-16
-1.168925e-28
-6.9894406e-17
1.0438232e-16
6.9277643e-17
0
-6.8643353e-17
-1.1375782e-28
-3.3995557e-17
-6.7658288e-17
3.3660562e-17
0
6.6633919e-17
9.4194909e-33
3.6595726e-29
-3.2785131e-17
-9.7810493e-17
9.725934e-17
-5.3704445e-29
-9.6138417e-17
9.5568532e-17
-1.5821093e-28
-6.2939981e-17
3.1273857e-17
-3.1075774e-17
6.1751498e-17
3.0673762e-17
-1.3530443e-28
-3.0263903e-17
-6.0112323e-17
-2.9846634e-17
-2.9635324e-17
5.8844431e-17
2.9207311e-17
0
-2.8772351e-17
1.5852835e-29
4.257907e-47
2.8107874e-17
-7.9248857e-33
2.7657032e-17
5.2504561e-46
-8.1601294e-17
8.0910263e-17
8.0215196e-17
-5.3010785e-17
-5.2542265e-17
0
5.1598294e-17
-2.5561509e-17
-7.5968406e-17
7.5249166e-17
-4.1375205e-29
-4.9201427e-17
2.435827e-17
0
-2.3871052e-17
-2.3626342e-17
2.3380963e-17
-3.8525021e-29
4.5776958e-17
1.2870207e-32
-6.7182326e-17
0
6.5694561e-17
4.3299556e-17
-6.4203495e-17
-4.2304816e-17
6.2710654e-17
2.0654638e-17
-8.1622891e-17
-2.0156875e-17
3.9816317e-17
3.9319248e-17
-2.1549512e-29
-1.9163289e-17
-1.8915606e-17
-1.8668331e-17
1.8421514e-17
-2.017723e-29
3.585887e-17
-5.8896764e-29
-5.2319512e-17
0
0
3.3422024e-17
-3.6572554e-29
-1.6229453e-17
4.7970395e-17
-1.575183e-17
-2.5830935e-29
-5.08844e-29
-4.5130866e-17
1.4809981e-17
-8.0896086e-30
1.5926827e-29
1.4116787e-17
-1.3888453e-17
1.9414293e-33
-7.4581424e-30
1.4665967e-29
1.2990253e-17
0
-1.2550664e-17
2.4666731e-17
1.21178e-17
-2.3808017e-17
0
1.1481866e-17
-1.1273578e-17
-2.2134372e-17
3.2588149e-17
-3.5509358e-29
-3.4835357e-29
1.0261081e-17
-3.0193678e-17
1.4026254e-33
9.6777212e-18
9.4874445e-18
-9.299284e-18
-9.1132594e-18
8.9293941e-18
0
-8.5681953e-18
1.6781759e-17
-1.368348e-29
-8.0429153e-18
-1.7481141e-29
-1.7102901e-29
-2.1423793e-33
-1.474793e-17
2.1637123e-17
2.1159215e-17
0
-1.3482665e-17
-1.9766618e-17
-9.1499226e-34
6.2907866e-18
6.1451849e-18
-6.0018782e-18
-5.8608528e-18
5.7220891e-18
0
1.0902645e-17
1.0638663e-17
-1.5568799e-17
-5.0621131e-18
4.9368522e-18
-1.3681631e-33
-4.6929343e-18
-9.1485316e-18
-4.4577866e-18
7.2341245e-30
1.6925329e-17
-1.372583e-29
-1.204017e-17
3.9075759e-18
3.8038577e-18
3.702219e-18
-3.6026306e-18
-3.5050584e-18
-3.4094809e-18
-9.4243315e-34
3.2242822e-18
-3.1346344e-18
9.1407686e-18
5.922225e-18
-8.631507e-18
2.7950712e-18
5.4296157e-18
-5.2727294e-18
2.5597214e-18
-2.4848536e-18
-4.8234582e-18
7.0209347e-18
-2.2705736e-18
7.3365756e-30
6.4082098e-18
-4.1425339e-18
-2.0080613e-18
-1.9464208e-18
-3.7726293e-18
1.82772e-18
1.9997478e-73
3.4299788e-18
1.6608004e-18
-1.785145e-30
-1.556618e-18
-3.0131613e-18
2.9157766e-18
-1.4105132e-18
-4.0932626e-18
3.9587473e-18
1.275979e-18
-2.1721865e-46
1.1924141e-18
-3.4571839e-18
-1.1135022e-18
1.0757137e-18
2.078031e-18
-1.0033928e-18
9.6882307e-19
-3.1148929e-30
-1.8054351e-18
2.6133818e-18
9.335497e-31
-3.600868e-30
1.7360694e-30
-1.5082075e-18
1.4541155e-18
-7.0085129e-19
-2.7018856e-18
6.5090102e-19
1.2542276e-18
0
1.1635705e-18
-1.2438508e-30
-3.0659416e-34
-5.7640344e-31
-4.9971771e-19
-4.8085801e-19
4.6261965e-19
4.4499567e-19
-8.5595263e-19
8.2309844e-19
-4.3928136e-31
-7.607702e-19
7.3119028e-19
1.1700256e-30
-3.747042e-31
-3.2423021e-19
-6.228375e-19
2.9907863e-19
-2.8718533e-19
1.5304134e-31
2.6464561e-19
5.0795703e-19
-2.4370345e-19
-4.6762216e-19
2.2429127e-19
-2.151314e-19
3.4362339e-31
-1.9783411e-19
-4.2123449e-31
3.6363179e-19
3.4851864e-19
3.7072822e-31
-5.3295957e-31
5.1063085e-31
-1.4686785e-19
-1.4067583e-19
-1.3472303e-19
1.2900644e-19
0
0
-1.1321828e-19
6.0153086e-32
1.4738467e-35
1.1018136e-31
9.4974721e-20
0
-8.6952016e-20
-1.6636501e-19
7.9568455e-20
1.5221574e-19
1.4559197e-19
1.3924974e-19
-1.9976105e-19
-2.1208033e-31
1.8269697e-19
-1.1648236e-19
-1.1139263e-19
0
-5.0916443e-20
9.7363955e-20
4.6553957e-20
-8.9050214e-20
-4.2583202e-20
4.5205937e-32
1.1680827e-19
-3.7233591e-20
-1.0684612e-19
1.0222654e-19
3.2603331e-20
-9.3574099e-20
3.3119355e-32
2.854252e-20
5.4627286e-20
2.9024338e-32
-5.0091761e-20
4.797384e-20
-2.2969083e-20
-6.5975821e-20
0
2.0178177e-20
3.8692244e-20
-1.0304371e-32
1.7794517e-20
3.4126809e-20
-3.2723847e-20
-3.1389822e-20
0
-1.4472773e-20
-1.5437683e-32
-1.4833916e-32
-1.4248784e-32
3.7000539e-20
2.3720903e-20
0
-2.1976904e-20
-2.3476196e-32
-1.0171254e-20
-2.9353106e-20
9.4237296e-21
-5.0443232e-33
1.2467345e-36
8.4641964e-21
1.6318965e-20
-7.8586289e-21
-1.5130277e-20
7.2885802e-21
0
1.3599535e-20
-6.5727599e-21
-1.9048247e-20
6.1283014e-21
5.9076976e-21
1.1374914e-20
-5.4758378e-21
-1.5839527e-20
5.0970091e-21
-5.4628518e-33
-9.4960159e-21
4.5740604e-21
4.3915415e-21
8.4119062e-21
1.2119765e-20
-7.7765952e-21
-7.476658e-21
7.180465e-21
3.8173921e-33
-6.5060314e-21
6.1588477e-21
3.2848062e-33
-5.4172766e-21
0
4.817988e-21
4.7411041e-21
0
-6.3890412e-21
-1.9630733e-21
-5.1380168e-37
-1.6809514e-21
-1.5605722e-21
-1.5920121e-33
2.6043908e-21
2.3318081e-21
-3.4162787e-33
-1.7646927e-21
1.4819884e-21
2.0229877e-33
-9.5848979e-22
0
0
0
0
-3.9768722e-22
-3.7291026e-34
9.3652277e-22
5.9737746e-22
-1.4499872e-21
2.8482766e-33
1.9850807e-21
-2.2696785e-21
-1.4092036e-33
1.3897223e-21
-3.0106277e-21
5.4173293e-33
3.5168174e-21
-3.7922257e-21
-4.0519941e-21
4.2866886e-21
4.5099516e-21
0
0
0
0
2.8386372e-21
-2.9393464e-21
-3.0469027e-21
3.5153005e-33
4.712747e-76
3.4024028e-21
6.9822583e-21
3.5699716e-21
-7.3090871e-21
-1.1248477e-20
3.853913e-21
7.920555e-21
-1.2178871e-20
-8.2959212e-21
1.2673732e-20
8.5891714e-21
4.3635955e-21
4.9240974e-33
-9.0222153e-21
0
4.667208e-21
-4.7408671e-21
1.0675593e-32
1.3830047e-36
1.6375162e-32
4.9676711e-21
5.0214643e-21
-1.4434447e-36
-1.0274089e-20
-1.038712e-20
1.7461226e-32
1.0567231e-20
0
0
0
5.4380778e-21
5.4840443e-21
-5.5195421e-21
-5.5441918e-21
5.567058e-21
-1.1187638e-20
-1.6886675e-20
0
1.1392834e-20
6.3375166e-33
5.7185382e-21
1.7200781e-20
-5.757153e-21
9.6354157e-33
-1.1629036e-20
3.8841905e-32
1.1668323e-20
3.2387704e-33
8.3021084e-37
-5.8560548e-21
5.8752142e-21
-1.1788897e-20
-5.9006356e-21
1.1785848e-20
-1.1766839e-20
-1.6718606e-36
6.5392467e-33
5.9012962e-21
1.7743399e-20
-1.1826197e-20
-1.6734742e-51
-5.8745398e-21
9.7654464e-33
1.1724631e-20
-5.867251e-21
-1.174203e-20
6.5050204e-33
1.7507633e-20
-1.6509058e-36
-5.7897739e-21
5.780087e-21
-1.1551517e-20
-5.7692433e-21
1.1497177e-20
-1.1428999e-20
-6.3049301e-33
3.1393715e-32
-1.2520029e-32
1.1250262e-20
-1.1216176e-20
5.5764979e-21
1.1067318e-20
-5.4926342e-21
5.4596924e-21
-1.0864536e-20
9.0025273e-33
1.612056e-20
0
0
-1.5712395e-20
-5.1970208e-21
1.031782e-20
-1.0226213e-20
-2.8745873e-36
2.2198234e-32
5.4893187e-33
9.7880738e-21
-9.6892049e-21
-9.5785669e-21
4.7224162e-21
1.3944975e-20
4.5768051e-21
-4.5088502e-21
0
0
4.3036685e-21
-2.343274e-33
-1.2399621e-20
-1.1497288e-36
7.9172931e-21
3.8729508e-21
-4.2034764e-33
-1.1091882e-20
-7.9923878e-33
6.9938446e-21
0
3.2905238e-21
-6.3807175e-21
-3.0913919e-21
6.6334285e-33
2.8746415e-21
5.5170261e-21
-2.6434155e-21
0
0
0
0
2.0789087e-21
-1.0864646e-33
-5.5175798e-21
1.7269607e-21
4.8615533e-21
-4.5350886e-21
-1.3951785e-21
2.5503551e-21
1.1577409e-21
1.7410728e-33
-2.823908e-21
4.7905647e-37
2.469838e-33
6.3439797e-22
1.052818e-21
4.2215387e-22
3.6025921e-34
-2.3636124e-22
-1.5294158e-22
-6.5603604e-23
2.527397e-23
-2.5645432e-34
-4.0236595e-22
0
0
-4.118943e-22
-8.0295473e-34
-7.8681074e-38
8.8492459e-38
6.8534813e-22
1.4767228e-21
1.5720954e-21
-1.6713269e-21
-9.8591442e-34
-9.4040855e-22
-2.9744721e-21
0
0
1.1020997e-21
1.1361589e-21
0
-1.2099338e-21
6.9171412e-34
1.2758264e-21
-1.3005418e-21
2.6480458e-21
-4.480516e-33
-4.1009198e-21
1.3978655e-21
1.4275256e-21
2.9014856e-21
-1.4705632e-21
-4.4658652e-21
1.5018009e-21
-8.3735951e-34
3.0551477e-21
1.5657242e-21
-3.19014e-21
3.2206605e-21
-2.6076188e-50
-3.2877809e-21
0
0
3.3675529e-21
-1.9102087e-33
-5.7802398e-33
-1.8393309e-50
-4.9083952e-21
-1.836823e-33
1.684551e-21
3.5559031e-21
3.5009946e-21
-3.3710323e-21
-3.8492734e-33
-1.8294541e-21
-6.3026859e-33
1.9077667e-21
-3.6641646e-21
0
-1.8611686e-21
2.1264238e-33
1.9535899e-21
3.8539861e-21
2.0803027e-33
-3.7266278e-21
0
0
-1.8725623e-21
1.0096691e-33
5.6201749e-21
2.0212822e-33
-3.5644924e-21
0
1.8880522e-21
-1.7954818e-21
-1.7289892e-21
-1.7646467e-21
-1.7980828e-21
3.5902338e-21
5.2725381e-21
-1.6375861e-21
-3.0679597e-21
4.5762003e-21
1.2000229e-50
-3.0741278e-21
0
0
0
0
2.5550563e-21
2.4794423e-21
-1.2025658e-21
-3.4616146e-21
-1.2086979e-33
1.0108166e-21
-1.8787815e-21
-1.7649473e-21
8.3248159e-22
3.094979e-21
1.4058561e-21
-1.8760723e-21
-1.099202e-21
1.4570114e-21
9.5554148e-34
-7.4444331e-22
0
0
0
1.6873457e-22
3.5417466e-35
4.4218894e-35
-7.9289982e-23
4.4865599e-22
-2.2515724e-22
-2.9096949e-22
1.0180824e-21
7.5833594e-22
-4.217162e-22
-9.4223206e-22
-1.0542163e-21
1.9450357e-33
-7.0120916e-34
1.9009192e-37
1.405599e-21
0
7.7771628e-22
8.0849975e-22
-8.3038119e-22
-8.4982749e-22
8.7150233e-22
9.0038765e-22
-1.8662232e-21
-9.5281762e-22
9.5438229e-22
-9.4942283e-22
9.4936752e-22
1.9168471e-21
0
0
-2.9797116e-21
-9.749173e-22
1.9076812e-21
9.3923354e-22
9.344506e-22
-1.8751478e-21
1.041576e-33
1.8446554e-21
0
-8.6193756e-22
-2.5110385e-21
-1.8240763e-33
4.518955e-33
-1.6069421e-21