/*--------------------------------*- C++ -*----------------------------------*\
  =========                 |
  \\      /  F ield         | OpenFOAM: The Open Source CFD Toolbox
   \\    /   O peration     | Website:  https://openfoam.org
    \\  /    A nd           | Version:  7
     \\/     M anipulation  |
\*---------------------------------------------------------------------------*/
FoamFile
{
    version     2.0;
    format      ascii;
    class       volScalarField;
    location    "0.00305";
    object      rho;
}
// * * * * * * * * * * * * * * * * * * * * * * * * * * * * * * * * * * * * * //

dimensions      [1 -3 0 0 0 0 0];

internalField   nonuniform List<scalar> 
5000
(
1.3371304
1.3371304
1.3371304
1.3371304
1.3371304
1.3371304
1.3371304
1.3371304
1.3371304
1.3371305
1.3371305
1.3371305
1.3371305
1.3371305
1.3371305
1.3371305
1.3371305
1.3371305
1.3371305
1.3371305
1.3371305
1.3371305
1.3371305
1.3371305
1.3371305
1.3371305
1.3371305
1.3371305
1.3371305
1.3371305
1.3371305
1.3371305
1.3371305
1.3371305
1.3371305
1.3371305
1.3371305
1.3371305
1.3371305
1.3371305
1.3371305
1.3371305
1.3371305
1.3371305
1.3371305
1.3371305
1.3371305
1.3371305
1.3371305
1.3371305
1.3371305
1.3371305
1.3371305
1.3371305
1.3371305
1.3371305
1.3371305
1.3371305
1.3371305
1.3371305
1.3371305
1.3371305
1.3371305
1.3371305
1.3371305
1.3371306
1.3371306
1.3371306
1.3371306
1.3371306
1.3371306
1.3371306
1.3371306
1.3371306
1.3371306
1.3371306
1.3371306
1.3371306
1.3371306
1.3371306
1.3371306
1.3371306
1.3371306
1.3371306
1.3371306
1.3371306
1.3371306
1.3371306
1.3371306
1.3371306
1.3371306
1.3371306
1.3371306
1.3371306
1.3371306
1.3371306
1.3371306
1.3371306
1.3371306
1.3371306
1.3371306
1.3371306
1.3371306
1.3371306
1.3371306
1.3371306
1.3371307
1.3371307
1.3371307
1.3371307
1.3371307
1.3371307
1.3371307
1.3371307
1.3371307
1.3371307
1.3371307
1.3371307
1.3371307
1.3371307
1.3371307
1.3371307
1.3371307
1.3371307
1.3371307
1.3371307
1.3371307
1.3371307
1.3371307
1.3371307
1.3371307
1.3371307
1.3371307
1.3371307
1.3371307
1.3371307
1.3371307
1.3371307
1.3371307
1.3371307
1.3371307
1.3371307
1.3371307
1.3371307
1.3371306
1.3371305
1.3371303
1.3371299
1.3371288
1.337127
1.3371244
1.3371206
1.3371154
1.3371084
1.337099
1.3370867
1.3370708
1.3370506
1.3370254
1.3369946
1.3369575
1.3369139
1.3368636
1.3368067
1.3367438
1.3366753
1.3366023
1.3365259
1.3364474
1.336368
1.3362891
1.3362119
1.3361376
1.3360671
1.3360012
1.3359404
1.335885
1.3358353
1.3357912
1.3357525
1.3357189
1.3356901
1.3356657
1.3356452
1.3356281
1.335614
1.3356025
1.3355932
1.3355857
1.3355798
1.3355751
1.3355713
1.3355684
1.3355662
1.3355645
1.3355631
1.3355621
1.3355613
1.3355608
1.3355603
1.33556
1.3355597
1.3355595
1.3355594
1.3355593
1.3355592
1.3355592
1.3355591
1.3355591
1.3355591
1.3355591
1.335559
1.335559
1.335559
1.335559
1.335559
1.335559
1.335559
1.335559
1.335559
1.335559
1.335559
1.335559
1.335559
1.335559
1.3355589
1.3355589
1.3355589
1.3355589
1.3355589
1.3355589
1.3355589
1.3355589
1.3355589
1.3355589
1.3355589
1.3355589
1.3355589
1.3355589
1.3355589
1.3355589
1.3355589
1.3355589
1.3355589
1.3355588
1.3355588
1.3355588
1.3355588
1.3355588
1.3355588
1.3355588
1.3355588
1.3355588
1.3355588
1.3355588
1.3355588
1.3355588
1.3355588
1.3355588
1.3355588
1.3355588
1.3355588
1.3355588
1.3355588
1.3355587
1.3355587
1.3355587
1.3355587
1.3355587
1.3355587
1.3355587
1.3355587
1.3355587
1.3355587
1.3355587
1.3355587
1.3355587
1.3355587
1.3355587
1.3355587
1.3355587
1.3355587
1.3355587
1.3355587
1.3355587
1.3355587
1.3355586
1.3355586
1.3355586
1.3355586
1.3355586
1.3355586
1.3355586
1.3355586
1.3355586
1.3355586
1.3355586
1.3355586
1.3355586
1.3355586
1.3355586
1.3355586
1.3355586
1.3355586
1.3355586
1.3355586
1.3355586
1.3355586
1.3355586
1.3355586
1.3355586
1.3355585
1.3355585
1.3355585
1.3355585
1.3355585
1.3355585
1.3355585
1.3355585
1.3355585
1.3355585
1.3355585
1.3355585
1.3355585
1.3355585
1.3355585
1.3355585
1.3355585
1.3355585
1.3355585
1.3355585
1.3355585
1.3355585
1.3355585
1.3355585
1.3355585
1.3355585
1.3355585
1.3355585
1.3355585
1.3355585
1.3355585
1.3355585
1.3355584
1.3355584
1.3355584
1.3355584
1.3355584
1.3355584
1.3355584
1.3355584
1.3355584
1.3355584
1.3355584
1.3355584
1.3355584
1.3355584
1.3355584
1.3355584
1.3355584
1.3355584
1.3355584
1.3355584
1.3355584
1.3355584
1.3355584
1.3355584
1.3355584
1.3355584
1.3355584
1.3355584
1.3355584
1.3355584
1.3355584
1.3355584
1.3355584
1.3355584
1.3355584
1.3355584
1.3355584
1.3355584
1.3355584
1.3355584
1.3355584
1.3355584
1.3355584
1.3355584
1.3355584
1.3355584
1.3355584
1.3355584
1.3355584
1.3355584
1.3355584
1.3355584
1.3355584
1.3355584
1.3355584
1.3355584
1.3355584
1.3355584
1.3355584
1.3355584
1.3355584
1.3355584
1.3355584
1.3355584
1.3355584
1.3355584
1.3355584
1.3355584
1.3355584
1.3355584
1.3355584
1.3355584
1.3355584
1.3355584
1.3355584
1.3355584
1.3355584
1.3355584
1.3355584
1.3355584
1.3355584
1.3355584
1.3355584
1.3355584
1.3355584
1.3355584
1.3355584
1.3355584
1.3355584
1.3355584
1.3355584
1.3355584
1.3355584
1.3355584
1.3355584
1.3355584
1.3355584
1.3355584
1.3355584
1.3355584
1.3355584
1.3355584
1.3355584
1.3355584
1.3355584
1.3355584
1.3355584
1.3355584
1.3355584
1.3355584
1.3355584
1.3355584
1.3355584
1.3355584
1.3355584
1.3355584
1.3355584
1.3355584
1.3355584
1.3355584
1.3355584
1.3355584
1.3355584
1.3355584
1.3355584
1.3355584
1.3355584
1.3355584
1.3355584
1.3355584
1.3355584
1.3355584
1.3355584
1.3355584
1.3355584
1.3355584
1.3355584
1.3355584
1.3355584
1.3355584
1.3355584
1.3355584
1.3355584
1.3355584
1.3355584
1.3355584
1.3355584
1.3355584
1.3355584
1.3355584
1.3355584
1.3355584
1.3355584
1.3355584
1.3355584
1.3355584
1.3355584
1.3355584
1.3355584
1.3355584
1.3355584
1.3355584
1.3355584
1.3355584
1.3355584
1.3355584
1.3355584
1.3355584
1.3355584
1.3355584
1.3355584
1.3355584
1.3355584
1.3355584
1.3355584
1.3355584
1.3355584
1.3355584
1.3355584
1.3355584
1.3355584
1.3355584
1.3355584
1.3355584
1.3355584
1.3355584
1.3355584
1.3355584
1.3355584
1.3355584
1.3355584
1.3355584
1.3355584
1.3355584
1.3355584
1.3355584
1.3355584
1.3355584
1.3355584
1.3355583
1.3355583
1.3355583
1.3355583
1.3355583
1.3355583
1.3355583
1.3355583
1.3355583
1.3355583
1.3355583
1.3355583
1.3355583
1.3355583
1.3355583
1.3355583
1.3355583
1.3355583
1.3355583
1.3355583
1.3355583
1.3355583
1.3355583
1.3355583
1.3355583
1.3355583
1.3355583
1.3355583
1.3355583
1.3355583
1.3355583
1.3355583
1.3355583
1.3355583
1.3355583
1.3355583
1.3355583
1.3355583
1.3355583
1.3355583
1.3355583
1.3355583
1.3355583
1.3355583
1.3355583
1.3355583
1.3355582
1.3355582
1.3355582
1.3355582
1.3355582
1.3355582
1.3355582
1.3355582
1.3355582
1.3355582
1.3355582
1.3355582
1.3355582
1.3355582
1.3355582
1.3355582
1.3355582
1.3355582
1.3355582
1.3355582
1.3355582
1.3355582
1.3355582
1.3355582
1.3355582
1.3355582
1.3355582
1.3355582
1.3355582
1.3355581
1.3355581
1.3355581
1.3355581
1.3355581
1.3355581
1.3355581
1.3355581
1.3355581
1.3355581
1.3355581
1.3355581
1.3355581
1.3355581
1.3355581
1.3355581
1.3355581
1.3355581
1.3355581
1.3355581
1.3355581
1.3355581
1.3355581
1.3355581
1.3355581
1.3355581
1.3355581
1.3355581
1.3355581
1.335558
1.335558
1.335558
1.335558
1.335558
1.335558
1.335558
1.335558
1.335558
1.335558
1.335558
1.335558
1.335558
1.335558
1.335558
1.335558
1.335558
1.335558
1.335558
1.335558
1.335558
1.335558
1.335558
1.335558
1.335558
1.335558
1.335558
1.335558
1.335558
1.3355579
1.3355579
1.3355579
1.3355579
1.3355579
1.3355579
1.3355579
1.3355579
1.3355579
1.3355579
1.3355579
1.3355579
1.3355579
1.3355579
1.3355579
1.3355579
1.3355579
1.3355579
1.3355579
1.3355579
1.3355579
1.3355579
1.3355579
1.3355579
1.3355579
1.3355579
1.3355578
1.3355578
1.3355578
1.3355578
1.3355578
1.3355578
1.3355578
1.3355578
1.3355578
1.3355578
1.3355578
1.3355578
1.3355578
1.3355578
1.3355578
1.3355578
1.3355578
1.3355578
1.3355578
1.3355578
1.3355578
1.3355578
1.3355578
1.3355578
1.3355578
1.3355578
1.3355578
1.3355577
1.3355577
1.3355577
1.3355577
1.3355577
1.3355577
1.3355577
1.3355577
1.3355577
1.3355577
1.3355577
1.3355577
1.3355577
1.3355577
1.3355577
1.3355577
1.3355577
1.3355577
1.3355577
1.3355577
1.3355577
1.3355577
1.3355577
1.3355577
1.3355577
1.3355576
1.3355576
1.3355576
1.3355576
1.3355576
1.3355576
1.3355576
1.3355576
1.3355576
1.3355576
1.3355576
1.3355576
1.3355576
1.3355576
1.3355576
1.3355576
1.3355576
1.3355576
1.3355576
1.3355576
1.3355576
1.3355576
1.3355576
1.3355576
1.3355576
1.3355575
1.3355575
1.3355575
1.3355575
1.3355575
1.3355575
1.3355575
1.3355575
1.3355575
1.3355575
1.3355575
1.3355575
1.3355575
1.3355575
1.3355575
1.3355575
1.3355575
1.3355575
1.3355575
1.3355575
1.3355575
1.3355575
1.3355575
1.3355575
1.3355575
1.3355574
1.3355574
1.3355574
1.3355574
1.3355574
1.3355574
1.3355574
1.3355574
1.3355574
1.3355574
1.3355574
1.3355574
1.3355574
1.3355574
1.3355574
1.3355574
1.3355574
1.3355574
1.3355574
1.3355574
1.3355574
1.3355574
1.3355574
1.3355574
1.3355573
1.3355573
1.3355573
1.3355573
1.3355573
1.3355573
1.3355573
1.3355573
1.3355573
1.3355573
1.3355573
1.3355573
1.3355573
1.3355573
1.3355573
1.3355573
1.3355573
1.3355573
1.3355573
1.3355573
1.3355573
1.3355573
1.3355573
1.3355573
1.3355572
1.3355572
1.3355572
1.3355572
1.3355572
1.3355572
1.3355572
1.3355572
1.3355572
1.3355572
1.3355572
1.3355572
1.3355572
1.3355572
1.3355572
1.3355572
1.3355572
1.3355572
1.3355572
1.3355572
1.3355572
1.3355572
1.3355572
1.3355571
1.3355571
1.3355571
1.3355571
1.3355571
1.3355571
1.3355571
1.3355571
1.3355571
1.3355571
1.3355571
1.3355571
1.3355571
1.3355571
1.3355571
1.3355571
1.3355571
1.3355571
1.3355571
1.3355571
1.3355571
1.3355571
1.3355571
1.335557
1.335557
1.335557
1.335557
1.335557
1.335557
1.335557
1.335557
1.335557
1.335557
1.335557
1.335557
1.335557
1.335557
1.335557
1.335557
1.335557
1.335557
1.335557
1.335557
1.335557
1.335557
1.3355569
1.3355569
1.3355569
1.3355569
1.3355569
1.3355569
1.3355569
1.3355569
1.3355569
1.3355569
1.3355569
1.3355569
1.3355569
1.3355569
1.3355569
1.3355569
1.3355569
1.3355569
1.3355569
1.3355569
1.3355569
1.3355568
1.3355568
1.3355568
1.3355568
1.3355568
1.3355568
1.3355568
1.3355568
1.3355568
1.3355568
1.3355568
1.3355568
1.3355568
1.3355568
1.3355568
1.3355568
1.3355568
1.3355568
1.3355568
1.3355568
1.3355568
1.3355568
1.3355567
1.3355567
1.3355567
1.3355567
1.3355567
1.3355567
1.3355567
1.3355567
1.3355567
1.3355567
1.3355567
1.3355567
1.3355567
1.3355567
1.3355567
1.3355567
1.3355567
1.3355567
1.3355567
1.3355567
1.3355566
1.3355566
1.3355566
1.3355566
1.3355566
1.3355566
1.3355566
1.3355566
1.3355566
1.3355566
1.3355566
1.3355566
1.3355566
1.3355566
1.3355566
1.3355566
1.3355566
1.3355566
1.3355566
1.3355566
1.3355565
1.3355565
1.3355565
1.3355565
1.3355565
1.3355565
1.3355565
1.3355565
1.3355565
1.3355565
1.3355565
1.3355565
1.3355565
1.3355565
1.3355565
1.3355565
1.3355565
1.3355565
1.3355565
1.3355565
1.3355564
1.3355564
1.3355564
1.3355564
1.3355564
1.3355564
1.3355564
1.3355564
1.3355564
1.3355564
1.3355564
1.3355564
1.3355564
1.3355564
1.3355564
1.3355564
1.3355564
1.3355564
1.3355564
1.3355564
1.3355563
1.3355563
1.3355563
1.3355563
1.3355563
1.3355563
1.3355563
1.3355563
1.3355563
1.3355563
1.3355563
1.3355563
1.3355563
1.3355563
1.3355563
1.3355563
1.3355563
1.3355563
1.3355562
1.3355562
1.3355562
1.3355562
1.3355562
1.3355562
1.3355562
1.3355562
1.3355562
1.3355562
1.3355562
1.3355562
1.3355562
1.3355562
1.3355562
1.3355562
1.3355562
1.3355562
1.3355562
1.3355562
1.3355561
1.3355561
1.3355561
1.3355561
1.3355561
1.3355561
1.3355561
1.3355561
1.3355561
1.3355561
1.3355561
1.3355561
1.3355561
1.3355561
1.3355561
1.3355561
1.3355561
1.335556
1.335556
1.335556
1.335556
1.335556
1.335556
1.335556
1.335556
1.335556
1.335556
1.335556
1.335556
1.335556
1.335556
1.335556
1.335556
1.335556
1.335556
1.335556
1.3355559
1.3355559
1.3355559
1.3355559
1.3355559
1.3355559
1.3355559
1.3355559
1.3355559
1.3355559
1.3355559
1.3355559
1.3355559
1.3355559
1.3355559
1.3355559
1.3355559
1.3355558
1.3355558
1.3355558
1.3355558
1.3355558
1.3355558
1.3355558
1.3355558
1.3355558
1.3355558
1.3355558
1.3355558
1.3355558
1.3355558
1.3355558
1.3355558
1.3355558
1.3355558
1.3355557
1.3355557
1.3355557
1.3355557
1.3355557
1.3355557
1.3355557
1.3355557
1.3355557
1.3355557
1.3355557
1.3355557
1.3355557
1.3355557
1.3355557
1.3355557
1.3355557
1.3355556
1.3355556
1.3355556
1.3355556
1.3355556
1.3355556
1.3355556
1.3355556
1.3355556
1.3355556
1.3355556
1.3355556
1.3355556
1.3355556
1.3355556
1.3355556
1.3355555
1.3355555
1.3355555
1.3355555
1.3355555
1.3355555
1.3355555
1.3355555
1.3355555
1.3355555
1.3355555
1.3355555
1.3355555
1.3355555
1.3355555
1.3355555
1.3355555
1.3355554
1.3355554
1.3355554
1.3355554
1.3355554
1.3355554
1.3355554
1.3355554
1.3355554
1.3355554
1.3355554
1.3355554
1.3355554
1.3355554
1.3355554
1.3355554
1.3355553
1.3355553
1.3355553
1.3355553
1.3355553
1.3355553
1.3355553
1.3355553
1.3355553
1.3355553
1.3355553
1.3355553
1.3355553
1.3355553
1.3355553
1.3355553
1.3355552
1.3355552
1.3355552
1.3355552
1.3355552
1.3355552
1.3355552
1.3355552
1.3355552
1.3355552
1.3355552
1.3355552
1.3355552
1.3355552
1.3355552
1.3355551
1.3355551
1.3355551
1.3355551
1.3355551
1.3355551
1.3355551
1.3355551
1.3355551
1.3355551
1.3355551
1.3355551
1.3355551
1.3355551
1.3355551
1.3355551
1.335555
1.335555
1.335555
1.335555
1.335555
1.335555
1.335555
1.335555
1.335555
1.335555
1.335555
1.335555
1.335555
1.335555
1.335555
1.3355549
1.3355549
1.3355549
1.3355549
1.3355549
1.3355549
1.3355549
1.3355549
1.3355549
1.3355549
1.3355549
1.3355549
1.3355549
1.3355549
1.3355549
1.3355548
1.3355548
1.3355548
1.3355548
1.3355548
1.3355548
1.3355548
1.3355548
1.3355548
1.3355548
1.3355548
1.3355548
1.3355548
1.3355548
1.3355547
1.3355547
1.3355547
1.3355547
1.3355547
1.3355547
1.3355547
1.3355547
1.3355547
1.3355547
1.3355547
1.3355547
1.3355547
1.3355547
1.3355546
1.3355546
1.3355546
1.3355546
1.3355546
1.3355546
1.3355546
1.3355546
1.3355546
1.3355546
1.3355546
1.3355546
1.3355546
1.3355546
1.3355546
1.3355545
1.3355545
1.3355545
1.3355545
1.3355545
1.3355545
1.3355545
1.3355545
1.3355545
1.3355545
1.3355545
1.3355545
1.3355545
1.3355544
1.3355544
1.3355544
1.3355544
1.3355544
1.3355544
1.3355544
1.3355544
1.3355544
1.3355544
1.3355544
1.3355544
1.3355544
1.3355544
1.3355543
1.3355543
1.3355543
1.3355543
1.3355543
1.3355543
1.3355543
1.3355543
1.3355543
1.3355543
1.3355543
1.3355543
1.3355543
1.3355542
1.3355542
1.3355542
1.3355542
1.3355542
1.3355542
1.3355542
1.3355542
1.3355542
1.3355542
1.3355542
1.3355542
1.3355542
1.3355541
1.3355541
1.3355541
1.3355541
1.3355541
1.3355541
1.3355541
1.3355541
1.3355541
1.3355541
1.3355541
1.3355541
1.3355541
1.335554
1.335554
1.335554
1.335554
1.335554
1.335554
1.335554
1.335554
1.335554
1.335554
1.335554
1.335554
1.335554
1.3355539
1.3355539
1.3355539
1.3355539
1.3355539
1.3355539
1.3355539
1.3355539
1.3355539
1.3355539
1.3355539
1.3355539
1.3355539
1.3355538
1.3355538
1.3355538
1.3355538
1.3355538
1.3355538
1.3355538
1.3355538
1.3355538
1.3355538
1.3355538
1.3355538
1.3355538
1.3355537
1.3355537
1.3355537
1.3355537
1.3355537
1.3355537
1.3355537
1.3355537
1.3355537
1.3355537
1.3355537
1.3355536
1.3355536
1.3355536
1.3355536
1.3355536
1.3355536
1.3355536
1.3355536
1.3355536
1.3355536
1.3355536
1.3355536
1.3355536
1.3355535
1.3355535
1.3355535
1.3355535
1.3355535
1.3355535
1.3355535
1.3355535
1.3355535
1.3355535
1.3355535
1.3355535
1.3355534
1.3355534
1.3355534
1.3355534
1.3355534
1.3355534
1.3355534
1.3355534
1.3355534
1.3355534
1.3355534
1.3355534
1.3355533
1.3355533
1.3355533
1.3355533
1.3355533
1.3355533
1.3355533
1.3355533
1.3355533
1.3355533
1.3355533
1.3355532
1.3355532
1.3355532
1.3355532
1.3355532
1.3355532
1.3355532
1.3355532
1.3355532
1.3355532
1.3355532
1.3355531
1.3355531
1.3355531
1.3355531
1.3355531
1.3355531
1.3355531
1.3355531
1.3355531
1.3355531
1.3355531
1.3355531
1.335553
1.335553
1.335553
1.335553
1.335553
1.335553
1.335553
1.335553
1.335553
1.335553
1.335553
1.3355529
1.3355529
1.3355529
1.3355529
1.3355529
1.3355529
1.3355529
1.3355529
1.3355529
1.3355529
1.3355529
1.3355528
1.3355528
1.3355528
1.3355528
1.3355528
1.3355528
1.3355528
1.3355528
1.3355528
1.3355528
1.3355528
1.3355527
1.3355527
1.3355527
1.3355527
1.3355527
1.3355527
1.3355527
1.3355527
1.3355527
1.3355527
1.3355526
1.3355526
1.3355526
1.3355526
1.3355526
1.3355526
1.3355526
1.3355526
1.3355526
1.3355526
1.3355526
1.3355525
1.3355525
1.3355525
1.3355525
1.3355525
1.3355525
1.3355525
1.3355525
1.3355525
1.3355525
1.3355524
1.3355524
1.3355524
1.3355524
1.3355524
1.3355524
1.3355524
1.3355524
1.3355524
1.3355524
1.3355523
1.3355523
1.3355523
1.3355523
1.3355523
1.3355523
1.3355523
1.3355523
1.3355523
1.3355523
1.3355523
1.3355522
1.3355522
1.3355522
1.3355522
1.3355522
1.3355522
1.3355522
1.3355522
1.3355522
1.3355522
1.3355521
1.3355521
1.3355521
1.3355521
1.3355521
1.3355521
1.3355521
1.3355521
1.3355521
1.335552
1.335552
1.335552
1.335552
1.335552
1.335552
1.335552
1.335552
1.335552
1.335552
1.3355519
1.3355519
1.3355519
1.3355519
1.3355519
1.3355519
1.3355519
1.3355519
1.3355519
1.3355519
1.3355518
1.3355518
1.3355518
1.3355518
1.3355518
1.3355518
1.3355518
1.3355518
1.3355518
1.3355517
1.3355517
1.3355517
1.3355517
1.3355517
1.3355517
1.3355517
1.3355517
1.3355517
1.3355516
1.3355516
1.3355516
1.3355516
1.3355516
1.3355516
1.3355516
1.3355516
1.3355516
1.3355516
1.3355515
1.3355515
1.3355515
1.3355515
1.3355515
1.3355515
1.3355515
1.3355515
1.3355514
1.3355514
1.3355514
1.3355514
1.3355514
1.3355514
1.3355514
1.3355514
1.3355514
1.3355513
1.3355513
1.3355513
1.3355513
1.3355513
1.3355513
1.3355513
1.3355513
1.3355513
1.3355512
1.3355512
1.3355512
1.3355512
1.3355512
1.3355512
1.3355512
1.3355512
1.3355512
1.3355511
1.3355511
1.3355511
1.3355511
1.3355511
1.3355511
1.3355511
1.3355511
1.335551
1.335551
1.335551
1.335551
1.335551
1.335551
1.335551
1.335551
1.335551
1.3355509
1.3355509
1.3355509
1.3355509
1.3355509
1.3355509
1.3355509
1.3355509
1.3355508
1.3355508
1.3355508
1.3355508
1.3355508
1.3355508
1.3355508
1.3355508
1.3355508
1.3355507
1.3355507
1.3355507
1.3355507
1.3355507
1.3355507
1.3355507
1.3355507
1.3355506
1.3355506
1.3355506
1.3355506
1.3355506
1.3355506
1.3355506
1.3355506
1.3355505
1.3355505
1.3355505
1.3355505
1.3355505
1.3355505
1.3355505
1.3355505
1.3355504
1.3355504
1.3355504
1.3355504
1.3355504
1.3355504
1.3355504
1.3355504
1.3355503
1.3355503
1.3355503
1.3355503
1.3355503
1.3355503
1.3355503
1.3355503
1.3355502
1.3355502
1.3355502
1.3355502
1.3355502
1.3355502
1.3355502
1.3355501
1.3355501
1.3355501
1.3355501
1.3355501
1.3355501
1.3355501
1.3355501
1.33555
1.33555
1.33555
1.33555
1.33555
1.33555
1.33555
1.33555
1.3355499
1.3355499
1.3355499
1.3355499
1.3355499
1.3355499
1.3355499
1.3355498
1.3355498
1.3355498
1.3355498
1.3355498
1.3355498
1.3355498
1.3355497
1.3355497
1.3355497
1.3355497
1.3355497
1.3355497
1.3355497
1.3355496
1.3355496
1.3355496
1.3355496
1.3355496
1.3355496
1.3355496
1.3355495
1.3355495
1.3355495
1.3355495
1.3355495
1.3355495
1.3355495
1.3355494
1.3355494
1.3355494
1.3355494
1.3355494
1.3355494
1.3355494
1.3355493
1.3355493
1.3355493
1.3355493
1.3355493
1.3355493
1.3355493
1.3355492
1.3355492
1.3355492
1.3355492
1.3355492
1.3355492
1.3355492
1.3355491
1.3355491
1.3355491
1.3355491
1.3355491
1.3355491
1.335549
1.335549
1.335549
1.335549
1.335549
1.335549
1.335549
1.3355489
1.3355489
1.3355489
1.3355489
1.3355489
1.3355489
1.3355488
1.3355488
1.3355488
1.3355488
1.3355488
1.3355488
1.3355488
1.3355487
1.3355487
1.3355487
1.3355487
1.3355487
1.3355487
1.3355486
1.3355486
1.3355486
1.3355486
1.3355486
1.3355486
1.3355485
1.3355485
1.3355485
1.3355485
1.3355485
1.3355485
1.3355484
1.3355484
1.3355484
1.3355484
1.3355484
1.3355484
1.3355483
1.3355483
1.3355483
1.3355483
1.3355483
1.3355483
1.3355482
1.3355482
1.3355482
1.3355482
1.3355482
1.3355481
1.3355481
1.3355481
1.3355481
1.3355481
1.3355481
1.335548
1.335548
1.335548
1.335548
1.335548
1.3355479
1.3355479
1.3355479
1.3355479
1.3355479
1.3355479
1.3355478
1.3355478
1.3355478
1.3355478
1.3355478
1.3355477
1.3355477
1.3355477
1.3355477
1.3355477
1.3355476
1.3355476
1.3355476
1.3355476
1.3355475
1.3355475
1.3355475
1.3355475
1.3355475
1.3355474
1.3355474
1.3355474
1.3355474
1.3355474
1.3355473
1.3355473
1.3355473
1.3355473
1.3355472
1.3355472
1.3355472
1.3355472
1.3355471
1.3355471
1.3355471
1.3355471
1.335547
1.335547
1.335547
1.335547
1.3355469
1.3355469
1.3355469
1.3355468
1.3355468
1.3355468
1.3355468
1.3355467
1.3355467
1.3355467
1.3355467
1.3355466
1.3355466
1.3355466
1.3355465
1.3355465
1.3355465
1.3355464
1.3355464
1.3355464
1.3355463
1.3355463
1.3355463
1.3355462
1.3355462
1.3355462
1.3355461
1.3355461
1.3355461
1.335546
1.335546
1.3355459
1.3355459
1.3355459
1.3355458
1.3355458
1.3355457
1.3355457
1.3355457
1.3355456
1.3355456
1.3355455
1.3355455
1.3355454
1.3355454
1.3355453
1.3355453
1.3355452
1.3355452
1.3355451
1.3355451
1.335545
1.335545
1.3355449
1.3355449
1.3355448
1.3355447
1.3355447
1.3355446
1.3355445
1.3355445
1.3355444
1.3355444
1.3355443
1.3355442
1.3355442
1.3355441
1.335544
1.3355439
1.3355439
1.3355438
1.3355437
1.3355436
1.3355436
1.3355435
1.3355434
1.3355433
1.3355432
1.3355431
1.3355431
1.335543
1.3355429
1.3355428
1.3355427
1.3355426
1.3355425
1.3355424
1.3355423
1.3355422
1.3355421
1.335542
1.3355419
1.3355418
1.3355416
1.3355415
1.3355414
1.3355413
1.3355412
1.335541
1.3355409
1.3355408
1.3355407
1.3355405
1.3355404
1.3355403
1.3355401
1.33554
1.3355398
1.3355397
1.3355395
1.3355394
1.3355392
1.3355391
1.3355389
1.3355387
1.3355386
1.3355384
1.3355382
1.335538
1.3355379
1.3355377
1.3355375
1.3355373
1.3355371
1.3355369
1.3355367
1.3355365
1.3355363
1.3355361
1.3355359
1.3355356
1.3355354
1.3355352
1.335535
1.3355347
1.3355345
1.3355343
1.335534
1.3355338
1.3355335
1.3355333
1.335533
1.3355327
1.3355325
1.3355322
1.3355319
1.3355316
1.3355313
1.335531
1.3355307
1.3355304
1.3355301
1.3355298
1.3355295
1.3355292
1.3355289
1.3355285
1.3355282
1.3355279
1.3355275
1.3355272
1.3355268
1.3355264
1.3355261
1.3355257
1.3355253
1.3355249
1.3355245
1.3355241
1.3355237
1.3355233
1.3355229
1.3355225
1.3355221
1.3355216
1.3355212
1.3355208
1.3355203
1.3355199
1.3355194
1.3355189
1.3355185
1.335518
1.3355175
1.335517
1.3355165
1.335516
1.3355155
1.335515
1.3355144
1.3355139
1.3355134
1.3355128
1.3355123
1.3355117
1.3355111
1.3355105
1.33551
1.3355094
1.3355088
1.3355082
1.3355076
1.335507
1.3355063
1.3355057
1.3355051
1.3355044
1.3355038
1.3355031
1.3355024
1.3355018
1.3355011
1.3355004
1.3354997
1.335499
1.3354983
1.3354976
1.3354968
1.3354961
1.3354953
1.3354946
1.3354938
1.3354931
1.3354923
1.3354915
1.3354907
1.3354899
1.3354891
1.3354883
1.3354875
1.3354867
1.3354858
1.335485
1.3354842
1.3354833
1.3354824
1.3354816
1.3354807
1.3354798
1.3354789
1.335478
1.3354771
1.3354762
1.3354753
1.3354744
1.3354734
1.3354725
1.3354715
1.3354706
1.3354696
1.3354686
1.3354676
1.3354667
1.3354657
1.3354647
1.3354637
1.3354626
1.3354616
1.3354606
1.3354595
1.3354585
1.3354575
1.3354564
1.3354553
1.3354543
1.3354532
1.3354521
1.335451
1.3354499
1.3354488
1.3354477
1.3354466
1.3354455
1.3354444
1.3354432
1.3354421
1.335441
1.3354398
1.3354387
1.3354375
1.3354363
1.3354352
1.335434
1.3354328
1.3354316
1.3354304
1.3354292
1.335428
1.3354268
1.3354256
1.3354244
1.3354232
1.3354219
1.3354207
1.3354195
1.3354182
1.335417
1.3354157
1.3354145
1.3354132
1.335412
1.3354107
1.3354095
1.3354082
1.3354069
1.3354056
1.3354044
1.3354031
1.3354018
1.3354005
1.3353992
1.3353979
1.3353966
1.3353953
1.335394
1.3353927
1.3353914
1.3353901
1.3353888
1.3353874
1.3353861
1.3353848
1.3353835
1.3353821
1.3353808
1.3353795
1.3353781
1.3353768
1.3353755
1.3353741
1.3353728
1.3353715
1.3353701
1.3353688
1.3353674
1.3353661
1.3353647
1.3353634
1.335362
1.3353607
1.3353593
1.335358
1.3353566
1.3353553
1.3353539
1.3353526
1.3353512
1.3353499
1.3353485
1.3353472
1.3353458
1.3353445
1.3353431
1.3353417
1.3353404
1.335339
1.3353377
1.3353363
1.335335
1.3353336
1.3353322
1.3353309
1.3353295
1.3353282
1.3353268
1.3353254
1.3353241
1.3353227
1.3353214
1.33532
1.3353186
1.3353173
1.3353159
1.3353146
1.3353132
1.3353118
1.3353105
1.3353091
1.3353078
1.3353064
1.335305
1.3353037
1.3353023
1.3353009
1.3352996
1.3352982
1.3352969
1.3352955
1.3352941
1.3352928
1.3352914
1.33529
1.3352887
1.3352873
1.3352859
1.3352846
1.3352832
1.3352818
1.3352804
1.3352791
1.3352777
1.3352763
1.3352749
1.3352735
1.3352722
1.3352708
1.3352694
1.335268
1.3352666
1.3352652
1.3352638
1.3352624
1.335261
1.3352596
1.3352582
1.3352568
1.3352553
1.3352539
1.3352525
1.3352511
1.3352496
1.3352482
1.3352468
1.3352453
1.3352439
1.3352424
1.335241
1.3352395
1.335238
1.3352366
1.3352351
1.3352336
1.3352321
1.3352306
1.3352291
1.3352276
1.3352261
1.3352246
1.3352231
1.3352215
1.33522
1.3352184
1.3352169
1.3352153
1.3352138
1.3352122
1.3352106
1.335209
1.3352074
1.3352058
1.3352042
1.3352026
1.3352009
1.3351993
1.3351977
1.335196
1.3351943
1.3351926
1.335191
1.3351893
1.3351876
1.3351858
1.3351841
1.3351824
1.3351806
1.3351788
1.3351771
1.3351753
1.3351735
1.3351716
1.3351698
1.335168
1.3351661
1.3351643
1.3351624
1.3351605
1.3351586
1.3351567
1.3351547
1.3351528
1.3351508
1.3351489
1.3351469
1.3351449
1.3351429
1.3351408
1.3351388
1.3351367
1.3351346
1.3351325
1.3351304
1.3351283
1.3351262
1.335124
1.3351218
1.3351196
1.3351174
1.3351152
1.335113
1.3351107
1.3351084
1.3351061
1.3351038
1.3351015
1.3350991
1.3350968
1.3350944
1.335092
1.3350895
1.3350871
1.3350846
1.3350821
1.3350796
1.3350771
1.3350746
1.335072
1.3350694
1.3350668
1.3350642
1.3350616
1.3350589
1.3350562
1.3350535
1.3350508
1.335048
1.3350452
1.3350425
1.3350396
1.3350368
1.3350339
1.3350311
1.3350282
1.3350252
1.3350223
1.3350193
1.3350163
1.3350133
1.3350103
1.3350072
1.3350041
1.335001
1.3349979
1.3349947
1.3349916
1.3349884
1.3349852
1.3349819
1.3349786
1.3349753
1.334972
1.3349687
1.3349653
1.3349619
1.3349585
1.3349551
1.3349516
1.3349482
1.3349447
1.3349411
1.3349376
1.334934
1.3349304
1.3349268
1.3349231
1.3349194
1.3349157
1.334912
1.3349082
1.3349045
1.3349007
1.3348968
1.334893
1.3348891
1.3348852
1.3348813
1.3348774
1.3348734
1.3348694
1.3348654
1.3348613
1.3348572
1.3348532
1.334849
1.3348449
1.3348407
1.3348365
1.3348323
1.3348281
1.3348238
1.3348195
1.3348152
1.3348108
1.3348065
1.3348021
1.3347977
1.3347933
1.3347888
1.3347843
1.3347798
1.3347753
1.3347707
1.3347662
1.3347616
1.3347569
1.3347523
1.3347476
1.3347429
1.3347382
1.3347335
1.3347287
1.3347239
1.3347191
1.3347142
1.3347094
1.3347045
1.3346996
1.3346947
1.3346897
1.3346848
1.3346798
1.3346748
1.3346697
1.3346647
1.3346596
1.3346545
1.3346494
1.3346442
1.3346391
1.3346339
1.3346287
1.3346235
1.3346182
1.334613
1.3346077
1.3346024
1.3345971
1.3345917
1.3345863
1.334581
1.3345756
1.3345701
1.3345647
1.3345592
1.3345538
1.3345483
1.3345427
1.3345372
1.3345317
1.3345261
1.3345205
1.3345149
1.3345093
1.3345036
1.334498
1.3344923
1.3344866
1.3344809
1.3344752
1.3344695
1.3344637
1.3344579
1.3344522
1.3344464
1.3344406
1.3344347
1.3344289
1.334423
1.3344172
1.3344113
1.3344054
1.3343995
1.3343935
1.3343876
1.3343817
1.3343757
1.3343697
1.3343637
1.3343577
1.3343517
1.3343457
1.3343396
1.3343336
1.3343275
1.3343214
1.3343154
1.3343093
1.3343032
1.3342971
1.3342909
1.3342848
1.3342787
1.3342725
1.3342664
1.3342602
1.334254
1.3342478
1.3342417
1.3342355
1.3342292
1.334223
1.3342168
1.3342106
1.3342044
1.3341981
1.3341919
1.3341856
1.3341794
1.3341731
1.3341669
1.3341606
1.3341543
1.334148
1.3341417
1.3341354
1.3341292
1.3341229
1.3341166
1.3341102
1.3341039
1.3340976
1.3340913
1.334085
1.3340787
1.3340724
1.334066
1.3340597
1.3340534
1.3340471
1.3340407
1.3340344
1.3340281
1.3340218
1.3340154
1.3340091
1.3340028
1.3339964
1.3339901
1.3339838
1.3339775
1.3339711
1.3339648
1.3339585
1.3339522
1.3339459
1.3339396
1.3339332
1.3339269
1.3339206
1.3339143
1.333908
1.3339018
1.3338955
1.3338892
1.3338829
1.3338766
1.3338703
1.3338641
1.3338578
1.3338515
1.3338452
1.333839
1.3338327
1.3338264
1.3338201
1.3338139
1.3338076
1.3338013
1.333795
1.3337888
1.3337825
1.3337762
1.3337699
1.3337636
1.3337573
1.333751
1.3337447
1.3337384
1.3337321
1.3337257
1.3337194
1.3337131
1.3337067
1.3337004
1.333694
1.3336877
1.3336813
1.3336749
1.3336685
1.3336621
1.3336557
1.3336493
1.3336429
1.3336365
1.33363
1.3336236
1.3336171
1.3336106
1.3336041
1.3335976
1.3335911
1.3335846
1.333578
1.3335715
1.3335649
1.3335583
1.3335517
1.3335451
1.3335386
1.333532
1.3335254
1.3335188
1.3335123
1.3335057
1.3334992
1.3334927
1.3334863
1.33348
1.3334737
1.3334675
1.3334615
1.3334556
1.3334499
1.3334444
1.3334389
1.3334336
1.3334286
1.3334237
1.333419
1.3334145
1.33341
1.3334056
1.3334012
1.3333968
1.3333922
1.3333873
1.3333818
1.3333756
1.3333688
1.3333598
1.3333447
1.3333144
1.3332471
1.3330944
1.3327366
1.3320903
1.3312086
1.3300696
1.3286571
1.3269632
1.3249893
1.3227463
1.3202539
1.3175397
1.3146382
1.311589
1.3084352
1.3052214
1.301992
1.2987896
1.2956538
1.2926197
1.2897176
1.2869719
1.2844016
1.2820199
1.2798344
1.2778479
1.276059
1.2744624
1.2730498
1.2718106
1.2707327
1.2698026
1.2690065
1.2683305
1.267761
1.267285
1.2668901
1.2665651
1.2662996
1.2660845
1.2659116
1.2657737
1.2656648
1.2655794
1.2655131
1.2654621
1.2654234
1.2653942
1.2653726
1.2653568
1.2653455
1.2653376
1.2653323
1.2653282
1.2653246
1.2653222
1.2653219
1.2653223
1.2653228
1.2653234
1.2653238
1.2653242
1.2653244
1.2653245
1.2653245
1.2653243
1.265324
1.2653236
1.2653231
1.2653225
1.2653218
1.2653211
1.2653203
1.2653194
1.2653184
1.2653174
1.2653164
1.2653153
1.2653142
1.2653131
1.2653119
1.2653107
1.2653095
1.2653083
1.2653071
1.2653058
1.2653045
1.2653033
1.265302
1.2653007
1.2652994
1.2652981
1.2652968
1.2652955
1.2652942
1.2652929
1.2652916
1.2652903
1.265289
1.2652878
1.2652865
1.2652852
1.265284
1.2652827
1.2652815
1.2652803
1.2652791
1.2652779
1.2652767
1.2652755
1.2652744
1.2652732
1.2652721
1.2652709
1.2652698
1.2652687
1.2652676
1.2652665
1.2652654
1.2652643
1.2652632
1.2652622
1.2652611
1.2652601
1.265259
1.265258
1.265257
1.265256
1.265255
1.265254
1.265253
1.265252
1.265251
1.26525
1.2652491
1.2652481