-1.25 	300 	0.1034471923211158 	101367.2163962751
-1.247497497497497 	300.0318553142137 	0.1025498856780087 	101366.8528769168
-1.244994994994995 	300.0349583366493 	0.1015039744252785 	101366.4776618631
-1.242492492492492 	300.0347585999497 	0.1007565735655559 	101366.0948057838
-1.23998998998999 	300.034426964139 	0.0997001696702372 	101365.7045659643
-1.237487487487487 	300.0340902744146 	0.09874890307519146 	101365.3067828849
-1.234984984984985 	300.0337476336411 	0.09775970168846193 	101364.9016094815
-1.232482482482482 	300.0333987698008 	0.09674765647942525 	101364.4890783977
-1.22997997997998 	300.0330437862125 	0.09572105307879344 	101364.0693105899
-1.227477477477477 	300.0326827416263 	0.09467557283797928 	101363.6423766115
-1.224974974974975 	300.0323156705437 	0.09360988881192507 	101363.2083218277
-1.222472472472472 	300.031942639093 	0.09252802378599537 	101362.7672125059
-1.21996996996997 	300.0315636423101 	0.091431736917434 	101362.3190496215
-1.217467467467467 	300.0311789077623 	0.0903204138463139 	101361.8641137636
-1.214964964964965 	300.0307883988483 	0.08918840148366085 	101361.402349712
-1.212462462462462 	300.0303923105507 	0.08803831046164563 	101360.9339822517
-1.20995995995996 	300.0299906071955 	0.08687340539980799 	101360.4589774891
-1.207457457457457 	300.0295833055955 	0.08569486500173634 	101359.9773570833
-1.204954954954955 	300.0291706415979 	0.08450239647648891 	101359.4893958021
-1.202452452452452 	300.0287524747001 	0.08329040933408195 	101358.9949296119
-1.19994994994995 	300.0283290885706 	0.08206164596537019 	101358.4942963757
-1.197447447447447 	300.0279004443644 	0.08081915071084278 	101357.9874492335
-1.194944944944945 	300.0274665448524 	0.07956419979990621 	101357.474389458
-1.192442442442442 	300.0270277850613 	0.07829559829206878 	101356.9555801083
-1.18993993993994 	300.0265839703565 	0.07700848145830597 	101356.4307936728
-1.187437437437437 	300.0261352486425 	0.07570681426660725 	101355.9002083617
-1.184934934934935 	300.0256819111731 	0.07439274273433485 	101355.3641660243
-1.182432432432432 	300.0252236328964 	0.07306554346198277 	101354.8222829972
-1.17992992992993 	300.0247606447981 	0.0717255661503827 	101354.2748355919
-1.177427427427427 	300.0242933548327 	0.07037139483056062 	101353.7223068716
-1.174924924924925 	300.0238213328151 	0.06900364607516062 	101353.1641831412
-1.172422422422422 	300.0233447078156 	0.06762340368862856 	101352.6006152029
-1.16991991991992 	300.022864190675 	0.06623211436551477 	101352.0324472305
-1.167417417417417 	300.02237931809 	0.06482837336655765 	101351.4591354619
-1.164914914914915 	300.0218898582091 	0.06341080937267357 	101350.8804073217
-1.162412412412412 	300.0213970173164 	0.06198238052244046 	101350.2976842196
-1.15990990990991 	300.0209006566857 	0.06054306961179474 	101349.7107953557
-1.157407407407407 	300.0203995087788 	0.05909141985989107 	101349.1182421955
-1.154904904904904 	300.0198946048919 	0.05762930393921262 	101348.5212496661
-1.152402402402403 	300.019387186424 	0.05615871457108768 	101347.9212901898
-1.1498998998999 	300.0188755783001 	0.0546767890336291 	101347.3163847315
-1.147397397397397 	300.0183589256859 	0.05318180970424197 	101346.7055223563
-1.144894894894895 	300.0178396574923 	0.05167899556719144 	101346.0915702706
-1.142392392392392 	300.0173187943398 	0.05016951339544567 	101345.4757279321
-1.13988988988989 	300.0167940401159 	0.04864905272402403 	101344.8552794857
-1.137387387387387 	300.0162645375921 	0.04711589951844304 	101344.2292150926
-1.134884884884885 	300.0157325418622 	0.04557480964733465 	101343.6002050037
-1.132382382382382 	300.015199353284 	0.04402938444328035 	101342.969787422
-1.12987987987988 	300.0146636676142 	0.04247564716712301 	101342.3364201875
-1.127377377377377 	300.0141242889035 	0.04091333239947169 	101341.6986919305
-1.124874874874875 	300.0135814300175 	0.0393421876854262 	101341.0568544207
-1.122372372372372 	300.0130353647758 	0.03776032404424567 	101340.4112313007
-1.11986986986987 	300.0124864193854 	0.03617102087651867 	101339.7622085027
-1.117367367367367 	300.0119361797753 	0.03457749113459777 	101339.1116598422
-1.114864864864865 	300.0113863685584 	0.03298567699514249 	101338.4616219539
-1.112362362362362 	300.0108360959636 	0.03139135112218516 	101337.8110401515
-1.10985985985986 	300.0102818872991 	0.02978241980725775 	101337.1558063421
-1.107357357357357 	300.0097213457158 	0.02815799969040571 	101336.493088737
-1.104854854854855 	300.009156253609 	0.02652248315771384 	101335.8249957656
-1.102352352352353 	300.0085913129216 	0.02488901493529882 	101335.157088141
-1.09984984984985 	300.0080299493669 	0.02326463175081927 	101334.4934130287
-1.097347347347347 	300.0074714418856 	0.02164364707504886 	101333.8331156368
-1.094844844844845 	300.0069119115664 	0.02002035197446629 	101333.1716095613
-1.092342342342342 	300.0063476053116 	0.01838479902847959 	101332.5044579568
-1.08983983983984 	300.0057774437612 	0.01673444065465873 	101331.8303877926
-1.087337337337337 	300.0052031201833 	0.01507310900372607 	101331.1514023502
-1.084834834834835 	300.0046274864578 	0.01340534505523617 	101330.470873193
-1.082332332332332 	300.0040527709569 	0.01173973791389471 	101329.7914331611
-1.07982982982983 	300.0034798222172 	0.01007965122685553 	101329.1140844622
-1.077327327327327 	300.0029082867993 	0.008424116718239357 	101328.4384096764
-1.074824824824825 	300.0023372921371 	0.006771644916219927 	101327.7633768987
-1.072322322322323 	300.001766022816 	0.00511701593807343 	101327.0880223101
-1.06981981981982 	300.0011940439201 	0.0034580049361313 	101326.4118314952
-1.067317317317317 	300.0006212715057 	0.001797684473874314 	101325.7347054854
-1.064814814814815 	300.0000478862074 	0.0007911700080415549 	101325.0568584777
-1.062312312312312 	299.9994741448784 	0.001523142965916481 	101324.3785941111
-1.05980980980981 	299.9989002753414 	0.003184619650086711 	101323.700181512
-1.057307307307307 	299.998326481537 	0.004848625997392719 	101323.021861296
-1.054804804804805 	299.9977529169165 	0.006511384728043876 	101322.3438150819
-1.052302302302302 	299.9971797015634 	0.008171687166913581 	101321.6661851259
-1.0497997997998 	299.9966069506401 	0.009829907500483506 	101320.989107621
-1.047297297297297 	299.996034793771 	0.01148675736745382 	101320.312735562
-1.044794794794795 	299.9954633679714 	0.01314296716906501 	101319.6372303026
-1.042292292292292 	299.9948927977701 	0.01479666019023386 	101318.9627400134
-1.03978978978979 	299.9943231870963 	0.01644669263472589 	101318.2893877592
-1.037287287287287 	299.9937546220322 	0.01809345868638153 	101317.6172742045
-1.034784784784785 	299.9931871882806 	0.01973679987394122 	101316.9465007079
-1.032282282282283 	299.9926209878649 	0.02137716946873303 	101316.277188371
-1.02977977977978 	299.9920561293681 	0.02301410253027456 	101315.6094663224
-1.027277277277277 	299.991492717014 	0.02464635702782705 	101314.9434568146
-1.024774774774775 	299.9909308547649 	0.02627418313402838 	101314.2792813873
-1.022272272272272 	299.9903706542627 	0.02789658543329849 	101313.6170737497
-1.01976976976977 	299.9898122384123 	0.02951409915938236 	101312.9569802091
-1.017267267267267 	299.9892557218191 	0.03112682659637903 	101312.2991349026
-1.014764764764765 	299.988701187967 	0.03273327205147783 	101311.6436340579
-1.012262262262262 	299.9881487011137 	0.03433417611518989 	101310.990554648
-1.00975975975976 	299.9875983451376 	0.03592705763960222 	101310.3400002831
-1.007257257257257 	299.9870502455572 	0.0375136462644922 	101309.6921179444
-1.004754754754755 	299.9865045421735 	0.0390951293501554 	101309.0470689508
-1.002252252252252 	299.9859613506605 	0.04066885830890724 	101308.4049877501
-0.9997497497497498 	299.9854207552734 	0.04223632754507688 	101307.7659774549
-0.9972472472472473 	299.9848828389417 	0.04379354196657553 	101307.1301431987
-0.9947447447447449 	299.9843477066236 	0.04534269668836871 	101306.497606836
-0.9922422422422421 	299.9838154623301 	0.0468867312786125 	101305.868483155
-0.9897397397397399 	299.9832861884416 	0.04842070809914757 	101305.2428643301
-0.9872372372372376 	299.9827599603212 	0.04994536137275859 	101304.620844698
-0.9847347347347346 	299.9822368806477 	0.05145860378919193 	101304.0025580814
-0.9822322322322323 	299.981717089106 	0.0529629474469239 	101303.388172003
-0.9797297297297296 	299.9812007173277 	0.05446107688502078 	101302.7778319811
-0.9772272272272275 	299.9806878467212 	0.05594798145242705 	101302.1716204392
-0.9747247247247248 	299.9801785169525 	0.05742388091833858 	101301.5695829401
-0.9722222222222224 	299.979672779959 	0.05888834318753282 	101300.9717947615
-0.9697197197197196 	299.9791707398845 	0.06034181270263849 	101300.3783928946
-0.9672172172172175 	299.9786725342222 	0.06178540802000329 	101299.7895420021
-0.9647147147147147 	299.9781782869969 	0.06321746897785505 	101299.2053753251
-0.9622122122122124 	299.9776880838525 	0.06463773849954052 	101298.6259771673
-0.9597097097097099 	299.9772019956558 	0.0660455414456159 	101298.0514251903
-0.9572072072072073 	299.9767201134415 	0.06744094051857201 	101297.4818361855
-0.9547047047047047 	299.9762425450181 	0.06882474198683045 	101296.9173556615
-0.9522022022022023 	299.9757693798192 	0.07019637527832702 	101296.3581032714
-0.9496996996996998 	299.9753006719352 	0.07155488177110135 	101295.8041413929
-0.9471971971971973 	299.9748364695818 	0.07289946483389266 	101295.2555121047
-0.9446946946946947 	299.9743768615825 	0.07422947716781247 	101294.7123015047
-0.9421921921921923 	299.9739219708978 	0.0755463660247092 	101294.1746434205
-0.93968968968969 	299.9734718982193 	0.07685093439888446 	101293.6426614379
-0.9371871871871872 	299.9730267062114 	0.07814107786424684 	101293.1164454897
-0.9346846846846848 	299.9725864712217 	0.07941613272542346 	101292.5961021738
-0.9321821821821823 	299.9721513211063 	0.08067510447234175 	101292.0817926064
-0.9296796796796799 	299.9717213910305 	0.08191996892468992 	101291.5736777289
-0.9271771771771771 	299.9712967516496 	0.08315242619507704 	101291.0718334258
-0.9246746746746748 	299.9708774147484 	0.08436880470703742 	101290.5762603574
-0.9221721721721724 	299.9704634041317 	0.08556824201899019 	101290.0869725019
-0.9196696696696698 	299.9700547793038 	0.08675078900111634 	101289.6040291219
-0.9171671671671672 	299.9696515994627 	0.0879175260720028 	101289.1274973766
-0.9146646646646649 	299.9692539330437 	0.08907012425565189 	101288.6574625806
-0.9121621621621623 	299.9688619103484 	0.09020625381931298 	101288.1940860093
-0.9096596596596597 	299.9684757088396 	0.09132481940212095 	101287.7375847517
-0.9071571571571573 	299.9680954691144 	0.09242649238016511 	101287.2881311393
-0.9046546546546547 	299.9677212520243 	0.09351046860461736 	101286.8458006815
-0.9021521521521524 	299.9673530646704 	0.09457790989337889 	101286.4106043634
-0.8996496496496498 	299.9669908884665 	0.09562856500173605 	101285.9825218691
-0.8971471471471473 	299.9666346931907 	0.0966607567572884 	101285.5615169962
-0.894644644644645 	299.9662844804235 	0.09767538280441443 	101285.1475915584
-0.892142142142142 	299.9659403280069 	0.09867007229502527 	101284.740837668
-0.8896396396396397 	299.9656023793931 	0.09964757913012087 	101284.3414210226
-0.8871371371371374 	299.9652708052146 	0.1006088657928013 	101283.9495427226
-0.8846346346346349 	299.9649457762787 	0.1015505391842589 	101283.565402145
-0.8821321321321324 	299.9646273980027 	0.1024742089530339 	101283.1891232393
-0.8796296296296297 	299.9643156829705 	0.1033762131754439 	101282.8207231448
-0.8771271271271271 	299.9640105996438 	0.1042596674164449 	101282.4601650578
-0.8746246246246248 	299.9637121070935 	0.1051265891353918 	101282.1073993137
-0.8721221221221224 	299.9634201792843 	0.105972634424537 	101281.7623925705
-0.8696196196196196 	299.963134850629 	0.1067994405004109 	101281.4251827547
-0.8671171171171175 	299.962856213855 	0.107604764383259 	101281.095879983
-0.8646146146146148 	299.9625843888549 	0.1083910475980078 	101280.7746279531
-0.8621121121121121 	299.962319507871 	0.1091598964806314 	101280.461585306
-0.8596096096096097 	299.9620616791505 	0.1099074155424601 	101280.1568800785
-0.857107107107107 	299.9618109572879 	0.1106342706121806 	101279.8605770915
-0.8546046046046049 	299.9615673660052 	0.1113397116030175 	101279.5727027286
-0.8521021021021022 	299.9613308978576 	0.1120245981190303 	101279.2932451741
-0.8495995995995997 	299.9611015296177 	0.1126895953751439 	101279.0221760507
-0.8470970970970974 	299.9608792765728 	0.1133334742207613 	101278.7595128157
-0.8445945945945946 	299.9606641810727 	0.1139565741709865 	101278.5053074548
-0.8420920920920922 	299.9604562938599 	0.1145583346912516 	101278.2596229842
-0.8395895895895897 	299.9602556848443 	0.1151392208372319 	101278.0225433353
-0.8370870870870872 	299.960062412755 	0.1156994599861261 	101277.7941376649
-0.8345845845845846 	299.9598765137646 	0.1162383718152167 	101277.5744476925
-0.8320820820820823 	299.9596980300854 	0.1167557294393421 	101277.3635221052
-0.8295795795795798 	299.9595270110497 	0.1172509332018845 	101277.1614170806
-0.8270770770770772 	299.9593634957212 	0.1177242147458981 	101276.9681770439
-0.8245745745745746 	299.959207499614 	0.1181760457066703 	101276.7838204523
-0.8220720720720721 	299.9590590289092 	0.1186065458740696 	101276.6083555745
-0.8195695695695699 	299.9589180944121 	0.119015217098475 	101276.4417971208
-0.817067067067067 	299.9587847002351 	0.119401568433718 	101276.2841505096
-0.8145645645645651 	299.9586588597679 	0.1197653686691615 	101276.1354318414
-0.8120620620620621 	299.9585406282744 	0.1201073671638804 	101275.995707023
-0.8095595595595597 	299.9584300827445 	0.1204283075380535 	101275.8650677687
-0.8070570570570572 	299.9583272603419 	0.1207268398401295 	101275.7435577142
-0.8045545545545546 	299.9582321479735 	0.1210025110796812 	101275.6311604281
-0.8020520520520523 	299.9581447305173 	0.1212541733335712 	101275.5278568252
-0.7995495495495494 	299.9580650054399 	0.1214839328608657 	101275.4336427401
-0.7970470470470474 	299.9579929869943 	0.121694091369387 	101275.3485333714
-0.7945445445445446 	299.9579287120395 	0.1218813719634502 	101275.2725734197
-0.7920420420420423 	299.9578722188559 	0.1220451580606981 	101275.2058099042
-0.7895395395395397 	299.9578235085577 	0.122185476712576 	101275.1482443102
-0.7870370370370371 	299.9577825590152 	0.1223029397215758 	101275.0998504768
-0.7845345345345348 	299.9577493904981 	0.1223998120264744 	101275.0606525317
-0.7820320320320323 	299.9577240564352 	0.1224742803469328 	101275.0307132718
-0.7795295295295296 	299.9577065580585 	0.1225250666352613 	101275.0100334163
-0.7770270270270272 	299.9576968204853 	0.1225534214425773 	101274.9985253598
-0.7745245245245247 	299.9576948113557 	0.1225574033803615 	101274.9961509352
-0.7720220220220222 	299.957700594936 	0.1225401508254082 	101275.0029851857
-0.7695195195195199 	299.9577142307415 	0.1225024543834418 	101275.0190994504
-0.767017017017017 	299.9577356910586 	0.1224408340920974 	101275.0444604629
-0.7645145145145147 	299.9577649227377 	0.1223568635494632 	101275.0790054141
-0.7620120120120122 	299.9578019251259 	0.122247601650735 	101275.1227339928
-0.7595095095095097 	299.9578467242198 	0.1221169704669303 	101275.1756760547
-0.7570070070070072 	299.9578992969281 	0.1219658303926437 	101275.2378054815
-0.7545045045045048 	299.9579595899129 	0.1217909933591981 	101275.3090583401
-0.7520020020020022 	299.9580275875807 	0.1215949903249221 	101275.3894161493
-0.7494994994994997 	299.9581033191787 	0.1213740357682986 	101275.478913132
-0.7469969969969972 	299.9581867941492 	0.1211314862074326 	101275.5775608125
-0.7444944944944945 	299.9582779936459 	0.1208690210679583 	101275.6853386075
-0.7419919919919924 	299.9583769028001 	0.1205831621929068 	101275.8022277734
-0.7394894894894897 	299.95848349427 	0.120275024686015 	101275.9281957713
-0.7369869869869872 	299.9585977048089 	0.1199435346538461 	101276.0631672273
-0.7344844844844846 	299.9587194829521 	0.1195901384687428 	101276.2070812885
-0.7319819819819822 	299.9588488401749 	0.1192155849526616 	101276.3599528614
-0.7294794794794797 	299.958985831601 	0.1188188289770488 	101276.5218470893
-0.7269769769769773 	299.9591304474807 	0.1184003251858099 	101276.6927522187
-0.7244744744744747 	299.959282588023 	0.1179593617155868 	101276.8725502973
-0.721971971971972 	299.9594421727761 	0.1174968522910118 	101277.0611453156
-0.7194694694694695 	299.9596092190606 	0.1170132068022304 	101277.2585579997
-0.7169669669669674 	299.9597837448976 	0.1165079728563242 	101277.4648099593
-0.7144644644644647 	299.9599656856701 	0.1159811758814288 	101277.6798252968
-0.711961961961962 	299.960154941599 	0.1154323169404576 	101277.903487309
-0.7094594594594597 	299.9603514703017 	0.114862221649612 	101278.1357458455
-0.7069569569569573 	299.9605552824258 	0.1142714202891172 	101278.3766120186
-0.7044544544544545 	299.9607663534323 	0.1136599802739115 	101278.6260551024
-0.7019519519519523 	299.9609846532482 	0.1130276452672012 	101278.8840401821
-0.6994494494494495 	299.9612102377451 	0.1123740137624282 	101279.1506348992
-0.6969469469469471 	299.9614431056946 	0.1116996065433978 	101279.4258391458
-0.6944444444444446 	299.961683050248 	0.1110048214428322 	101279.7094095595
-0.6919419419419421 	299.9619299103979 	0.1102902068336583 	101280.0011535606
-0.6894394394394396 	299.9621837246763 	0.109555280801883 	101280.3011160065
-0.6869369369369374 	299.9624445169018 	0.1087994286141541 	101280.6093245629
-0.6844344344344344 	299.962712224422 	0.1080226704908536 	101280.9257044747
-0.6819319319319321 	299.962986718939 	0.1072263538308788 	101281.2501050868
-0.6794294294294296 	299.9632678344935 	0.1064120931675285 	101281.5823320329
-0.6769269269269272 	299.9635556509303 	0.1055784670796623 	101281.9224814535
-0.6744244244244245 	299.9638504578041 	0.1047246226862056 	101282.270895825
-0.6719219219219222 	299.9641522977004 	0.1038492550049656 	101282.6276244321
-0.6694194194194195 	299.9644608604842 	0.102954875461066 	101282.9922963351
-0.6669169169169172 	299.9647756887969 	0.1020450540236114 	101283.36437079
-0.6644144144144146 	299.9650965181843 	0.1011167596411941 	101283.7435383946
-0.661911911911912 	299.9654235954109 	0.1001687356944351 	101284.1300896046
-0.6594094094094097 	299.9657573091187 	0.09920094163105363 	101284.5244858713
-0.656906906906907 	299.9660976627312 	0.09821278435393305 	101284.9267334351
-0.6544044044044046 	299.9664442332833 	0.09720887197859487 	101285.336330114
-0.6519019019019021 	299.9667965507333 	0.09618971312173935 	101285.7527220682
-0.6493993993993996 	299.9671546550975 	0.09515249978604892 	101286.175956368
-0.6468968968968971 	299.9675190618132 	0.09409750809077783 	101286.6066391463
-0.6443943943943946 	299.9678901595091 	0.09302062989740716 	101287.0452301846
-0.6418918918918921 	299.9682676650723 	0.09192697443354099 	101287.4913932622
-0.6393893893893897 	299.9686506720334 	0.09081964607254736 	101287.9440569043
-0.6368868868868871 	299.9690384577635 	0.08969585565441213 	101288.4023676896
-0.6343843843843846 	299.9694310745181 	0.08855793328803478 	101288.8663893281
-0.6318818818818821 	299.9698293962429 	0.0874011111063738 	101289.3371552736
-0.6293793793793795 	299.9702342401678 	0.08622760228949934 	101289.8156324403
-0.6268768768768773 	299.97064563497 	0.08503750951106227 	101290.3018593534
-0.6243743743743745 	299.9710626449474 	0.08383013562761295 	101290.7947278204
-0.6218718718718721 	299.9714841877232 	0.08261061095740188 	101291.292945009
-0.6193693693693696 	299.9719097742448 	0.08137716475898825 	101291.7959581613
-0.6168668668668671 	299.9723399840352 	0.08013028757081822 	101292.3044328246
-0.6143643643643645 	299.972775821115 	0.07886776278492139 	101292.8195600308
-0.6118618618618621 	299.9732179352599 	0.07758681495468145 	101293.3421077994
-0.6093593593593596 	299.9736659210412 	0.0762893858289049 	101293.8715945375
-0.6068568568568571 	299.974118557955 	0.07497803817318534 	101294.4065774988
-0.6043543543543546 	299.9745746447768 	0.0736568807573703 	101294.9456366663
-0.6018518518518521 	299.9750339269568 	0.0723264966090541 	101295.4884732064
-0.5993493493493496 	299.9754972401638 	0.07098405509571186 	101296.0360779683
-0.5968468468468471 	299.9759658529683 	0.06962641563881272 	101296.5899526596
-0.5943443443443446 	299.9764405715456 	0.06825094864860257 	101297.1510488128
-0.591841841841842 	299.9769210377866 	0.06685929524090031 	101297.7189419436
-0.5893393393393397 	299.9774059493521 	0.0654549217839967 	101298.2920929262
-0.5868368368368371 	299.9778938561788 	0.0640417168304685 	101298.8687866805
-0.5843343343343346 	299.9783840234941 	0.06262179953085002 	101299.4481548152
-0.5818318318318321 	299.9788767697964 	0.06119381121768357 	101300.0305731951
-0.5793293293293297 	299.9793731388364 	0.05975524520346339 	101300.6172748851
-0.5768268268268271 	299.9798743469908 	0.05830276714229245 	101301.2096981575
-0.5743243243243245 	299.9803810753322 	0.05683496685722981 	101301.8086477588
-0.5718218218218221 	299.9808930140109 	0.05535263915634698 	101302.4137569354
-0.5693193193193196 	299.9814090018913 	0.05385845321984626 	101303.0236532189
-0.5668168168168171 	299.9819275321127 	0.05235645831493588 	101303.6365564572
-0.5643143143143147 	299.9824475930358 	0.05084934470690317 	101304.2512715977
-0.5618118118118121 	299.982969159357 	0.04933820251011717 	101304.8677685427
-0.5593093093093094 	299.9834929368051 	0.04782082055395993 	101305.4868845093
-0.5568068068068072 	299.9840199006022 	0.04629401883698116 	101306.1097711757
-0.5543043043043046 	299.9845509132657 	0.0447551060582832 	101306.7374470655
-0.551801801801802 	299.9850863264177 	0.04320331823796276 	101307.370327657
-0.5492992992992995 	299.9856259071248 	0.04164092987191274 	101308.008136195
-0.5467967967967969 	299.986168948819 	0.04006872908799293 	101308.6500382704
-0.5442942942942947 	299.9867144608836 	0.03848888844845071 	101309.29486275
-0.5417917917917919 	299.9872614353087 	0.03690316538832197 	101309.9414184982
-0.5392892892892895 	299.9878092569883 	0.03531450512966529 	101310.5889787295
-0.536786786786787 	299.9883579363844 	0.03372623537330122 	101311.2375550627
-0.5342842842842846 	299.9889079680325 	0.03213412492542744 	101311.8877341708
-0.531781781781782 	299.9894598450963 	0.03053546571993229 	101312.5400976523
-0.5292792792792794 	299.9900139107031 	0.02893041350566967 	101313.1950513545
-0.526776776776777 	299.9905705369549 	0.02731516608206086 	101313.8530357673
-0.5242742742742745 	299.9911299095707 	0.02569437249086848 	101314.5142687132
-0.521771771771772 	299.9916918944418 	0.02406863230640156 	101315.1785934226
-0.5192692692692695 	299.992256174448 	0.02243426313169917 	101315.845634234
-0.516766766766767 	299.9928222151163 	0.02079532770257307 	101316.5147584612
-0.5142642642642645 	299.9933893571061 	0.01914976392495475 	101317.1851885386
-0.511761761761762 	299.9939574318935 	0.0175038489267222 	101317.856722994
-0.5092592592592596 	299.9945261546104 	0.01585874317701492 	101318.5290276293
-0.506756756756757 	299.9950952485192 	0.01421029619142178 	101319.2017740841
-0.5042542542542544 	299.9956646558562 	0.01256136075525452 	101319.8748935751
-0.5017517517517521 	299.9962343275095 	0.01091011779698131 	101320.5483292908
-0.4992492492492494 	299.9968042078444 	0.009258522075990573 	101321.2220145945
-0.496746746746747 	299.9973747824117 	0.007606204593773536 	101321.8965247624
-0.4942442442442445 	299.9979459120854 	0.005951837994001077 	101322.5716946144
-0.4917417417417421 	299.998517497201 	0.004296476774701226 	101323.2474051863
-0.4892392392392395 	299.9990895157575 	0.002638960799416244 	101323.9236316584
-0.486736736736737 	299.9996621139222 	0.0009805158748415694 	101324.6005462884
-0.4842342342342345 	300.0002350070633 	0.0009332851963981771 	101325.2778138471
-0.481731731731732 	300.0008078681815 	0.002337896477028303 	101325.9550462206
-0.4792292292292296 	300.0013805406983 	0.003997011746560433 	101326.6320584724
-0.4767267267267268 	300.0019529447501 	0.005655799063313633 	101327.3087566554
-0.4742242242242246 	300.0025249954765 	0.007313113573088168 	101327.9850396332
-0.471721721721722 	300.0030965902334 	0.008968847666788474 	101328.66078837
-0.4692192192192195 	300.0036676480707 	0.01062301513862116 	101329.3359055554
-0.4667167167167169 	300.004238098521 	0.01227517729582253 	101330.0103072959
-0.4642142142142145 	300.0048078350363 	0.01392548982174711 	101330.6838671322
-0.461711711711712 	300.0053767052427 	0.01557311116546038 	101331.3564057469
-0.4592092092092094 	300.0059445444745 	0.01721790323028862 	101332.0277301813
-0.456706706706707 	300.0065112077345 	0.0188594355234321 	101332.6976682447
-0.4542042042042045 	300.007076584671 	0.02049742218394953 	101333.366088847
-0.451701701701702 	300.0076405970033 	0.02213198948767896 	101334.0328974352
-0.4491991991991995 	300.0082031791928 	0.02376240116900113 	101334.6980173169
-0.4466966966966969 	300.0087642846433 	0.02538847382770475 	101335.3613955419
-0.4441941941941945 	300.0093238783188 	0.02700940423135311 	101336.0229907955
-0.441691691691692 	300.0098818861644 	0.02862519652630869 	101336.6827154206
-0.4391891891891895 	300.0104381729345 	0.03023616535718721 	101337.3404070706
-0.436686686686687 	300.0109925610915 	0.03184176912015269 	101337.995854653
-0.4341841841841846 	300.0115448649852 	0.03344176539964534 	101338.6488406393
-0.431681681681682 	300.0120949313784 	0.03503483752591685 	101339.2991854534
-0.4291791791791794 	300.0126426501486 	0.03662130067352832 	101339.9467607611
-0.426676676676677 	300.0131879477847 	0.03820159510366783 	101340.5914770976
-0.4241741741741744 	300.0137307914836 	0.03977545267056067 	101341.233292719
-0.421671671671672 	300.0142711778879 	0.04134221633302382 	101341.8722028413
-0.4191691691691694 	300.0148090807356 	0.04289959506372004 	101342.5081779539
-0.4166666666666669 	300.0153444095182 	0.04444891650382708 	101343.1411155457
-0.4141641641641645 	300.0158770104308 	0.04599112224638566 	101343.7708348296
-0.411661661661662 	300.0164066987164 	0.0475263248102042 	101344.3971140644
-0.4091591591591594 	300.0169333056479 	0.04905409646715789 	101345.0197509749
-0.406656656656657 	300.0174566951317 	0.05056907193219752 	101345.6385809076
-0.4041541541541545 	300.0179767518188 	0.05207355248373961 	101346.2534707812
-0.401651651651652 	300.0184934067324 	0.05357066558892818 	101346.8643438672
-0.3991491491491494 	300.0190066456244 	0.05505778521102511 	101347.4711851294
-0.396646646646647 	300.019516468671 	0.05653745004690237 	101348.0739954495
-0.3941441441441444 	300.0200228462511 	0.05800394877410663 	101348.6727313048
-0.3916416416416419 	300.0205256752706 	0.05945721512099671 	101349.2672692217
-0.3891391391391395 	300.0210248071868 	0.06090266054327233 	101349.85743244
-0.3866366366366368 	300.0215200888774 	0.06233733305828453 	101350.443044933
-0.3841341341341344 	300.0220113723393 	0.0637620976832529 	101351.023938488
-0.381631631631632 	300.0224985139034 	0.06517342900618678 	101351.5999436506
-0.3791291291291294 	300.0229813981355 	0.06657120417264216 	101352.1709203328
-0.3766266266266269 	300.0234599719902 	0.06795795187899924 	101352.7367988155
-0.3741241241241244 	300.0239342337377 	0.06933204329489702 	101353.2975723088
-0.371621621621622 	300.0244041778562 	0.07069395709346195 	101353.8532371413
-0.3691191191191194 	300.0248697470952 	0.07204212525361167 	101354.4037306883
-0.366616616616617 	300.0253308336394 	0.07337687207404056 	101354.9489339561
-0.3641141141141143 	300.0257873321825 	0.07469906127060072 	101355.4887238143
-0.3616116116116119 	300.0262391415359 	0.07600772894590088 	101356.0229753204
-0.3591091091091095 	300.0266861267673 	0.07730295112441658 	101356.5515210902
-0.356606606606607 	300.0271281324777 	0.07858340395789223 	101357.0741699662
-0.3541041041041044 	300.0275650429469 	0.07984911639765979 	101357.5907860039
-0.3516016016016019 	300.0279968289184 	0.08110016477252704 	101358.1013412628
-0.3490990990990994 	300.0284235027016 	0.08233599188386546 	101358.6058604458
-0.346596596596597 	300.0288450187809 	0.08355694410657026 	101359.1042955971
-0.3440940940940944 	300.0292612560351 	0.08476238908996606 	101359.5965003221
-0.3415915915915919 	300.0296721118161 	0.08595259667938762 	101360.0823451016
-0.3390890890890895 	300.0300775668134 	0.08712725980845012 	101360.5617958767
-0.3365865865865869 	300.0304776104646 	0.08828587567670375 	101361.0348351666
-0.3340840840840844 	300.030872134893 	0.08942858071002791 	101361.5013391241
-0.3315815815815819 	300.0312609443149 	0.09055470814451777 	101361.9610844547
-0.3290790790790794 	300.031643886537 	0.09166436901235465 	101362.4139030136
-0.3265765765765769 	300.0320209504345 	0.09275686207497566 	101362.8597868872
-0.3240740740740744 	300.0323921729919 	0.09383197312420319 	101363.2987779381
-0.3215715715715718 	300.0327575022694 	0.09489011660815788 	101363.7308061344
-0.3190690690690695 	300.0331168129972 	0.09593091625834071 	101364.1557109362
-0.3165665665665668 	300.033470025247 	0.09695456429120744 	101364.5733892986
-0.3140640640640644 	300.0338171430753 	0.09795997829856697 	101364.98384506
-0.311561561561562 	300.0341581506839 	0.09894717838437977 	101365.3870684312
-0.3090590590590593 	300.0344929203103 	0.09991670294431554 	101365.7829195254
-0.3065565565565568 	300.0348212866826 	0.1008681347221108 	101366.1712134356
-0.3040540540540545 	300.0351431901206 	0.1018015177818461 	101366.5518844439
-0.3015515515515518 	300.0354586520675 	0.1027150984362859 	101366.9249529841
-0.2990490490490494 	300.0357676435567 	0.1036094150487291 	101367.2903767982
-0.2965465465465469 	300.0360700727436 	0.1044854632709797 	101367.6480347486
-0.2940440440440444 	300.0363658641621 	0.1053429728827469 	101367.9978286647
-0.2915415415415418 	300.0366549981094 	0.1061820199541785 	101368.3397324154