/*--------------------------------*- C++ -*----------------------------------*\
| =========                 |                                                 |
| \\      /  F ield         | OpenFOAM: The Open Source CFD Toolbox           |
|  \\    /   O peration     | Version:  4.x                                   |
|   \\  /    A nd           | Web:      www.OpenFOAM.org                      |
|    \\/     M anipulation  |                                                 |
\*---------------------------------------------------------------------------*/
FoamFile
{
    version     2.0;
    format      ascii;
    class       volScalarField;
    location    "0.68";
    object      T;
}
// * * * * * * * * * * * * * * * * * * * * * * * * * * * * * * * * * * * * * //

dimensions      [0 0 0 1 0 0 0];

internalField   nonuniform List<scalar> 
6279
(
300.0005034
300.0004845
300.0004349
300.0003907
300.000337
300.0002496
300.0001732
300.0001663
300.0002335
300.0003548
300.0004739
300.0005633
300.0005738
300.0005346
300.0004761
300.0004183
300.0003609
300.0003155
300.0003026
300.0003535
300.0004639
300.0005934
300.000698
300.0007493
300.0006332
300.0005815
300.000524
300.0004649
300.0004151
300.0003918
300.0003998
300.0004626
300.0005897
300.0007356
300.0008498
300.0009086
300.0007016
300.0006454
300.0005907
300.0005327
300.0004754
300.0004422
300.000447
300.0005031
300.0006195
300.0007632
300.0008834
300.0009596
300.000511
300.0004931
300.0004405
300.0003921
300.0003177
300.0002226
300.0001458
300.0001399
300.0002046
300.0003311
300.000458
300.0005455
300.0005743
300.0005344
300.0004684
300.0004108
300.0003422
300.0002849
300.0002614
300.000298
300.0003969
300.0005328
300.0006487
300.0007133
300.0006238
300.0005813
300.0005126
300.0004511
300.0003945
300.0003613
300.0003588
300.0004081
300.0005186
300.0006585
300.0007798
300.0008478
300.0006797
300.0006315
300.0005693
300.0005073
300.0004536
300.0004177
300.000413
300.0004588
300.0005625
300.0006976
300.000815
300.0009056
300.0005161
300.0004915
300.0004372
300.0003814
300.0002922
300.0001955
300.0001218
300.000115
300.0001671
300.0002866
300.0004212
300.0005161
300.0005713
300.0005309
300.0004614
300.0003941
300.0003232
300.0002543
300.0002188
300.0002443
300.000329
300.0004635
300.0005861
300.0006655
300.0006151
300.0005682
300.0005
300.0004314
300.0003709
300.0003244
300.000312
300.0003519
300.0004496
300.0005849
300.0007085
300.000784
300.0006632
300.0006065
300.0005411
300.0004784
300.0004275
300.0003879
300.0003785
300.0004151
300.0005042
300.0006264
300.0007507
300.000848
300.0005121
300.0004817
300.0004246
300.0003557
300.0002652
300.0001744
300.0001065
300.0000951
300.0001382
300.0002443
300.0003815
300.0004853
300.000561
300.0005183
300.0004524
300.0003723
300.0002987
300.0002243
300.0001809
300.0001987
300.0002687
300.0003887
300.0005106
300.0005999
300.0005991
300.0005377
300.0004824
300.0004143
300.0003469
300.0002878
300.000267
300.0002973
300.0003814
300.0005035
300.0006284
300.0007137
300.0006327
300.0005737
300.0005175
300.0004569
300.0003952
300.0003508
300.0003363
300.0003661
300.0004434
300.000549
300.0006786
300.0007683
300.0004955
300.0004556
300.0003985
300.0003248
300.0002396
300.0001565
300.0000892
300.0000652
300.000101
300.0001948
300.000329
300.000444
300.0005458
300.000504
300.0004338
300.0003507
300.0002732
300.0001966
300.0001496
300.000158
300.0002165
300.0003258
300.0004459
300.0005489
300.000579
300.0005207
300.0004634
300.0003939
300.0003186
300.000257
300.0002303
300.0002524
300.0003252
300.0004363
300.0005573
300.0006579
300.0006086
300.0005495
300.0004934
300.0004321
300.0003674
300.0003197
300.0002997
300.0003255
300.0003946
300.0004939
300.0006119
300.0007218
300.0004447
300.0003891
300.0003339
300.0002669
300.0002009
300.0001368
300.000077
300.0000399
300.0000574
300.0001142
300.000217
300.0003248
300.0004851
300.0004392
300.000371
300.0002988
300.0002212
300.0001515
300.0001036
300.0000926
300.0001235
300.000202
300.0003079
300.0004102
300.0005182
300.0004623
300.0003996
300.0003338
300.0002605
300.000199
300.0001614
300.0001668
300.0002131
300.0002982
300.0004053
300.0005093
300.0005379
300.0004886
300.0004284
300.0003689
300.0003064
300.0002522
300.0002228
300.0002388
300.000289
300.0003728
300.0004671
300.0005773
300.0004611
300.0004107
300.000348
300.0002744
300.0001992
300.000124
300.0000614
300.0000397
300.00007
300.0001471
300.0002658
300.0003787
300.000507
300.0004639
300.0003872
300.000311
300.0002276
300.0001557
300.0001067
300.0001016
300.0001471
300.0002394
300.0003549
300.000462
300.0005416
300.0004925
300.0004228
300.0003489
300.0002742
300.0002081
300.0001686
300.0001793
300.0002374
300.0003348
300.0004494
300.0005439
300.0005746
300.0005175
300.00045
300.0003803
300.0003112
300.0002506
300.0002229
300.0002435
300.0003027
300.0003984
300.0004987
300.0005962
300.0005057
300.000464
300.0003947
300.0003108
300.000217
300.000132
300.0000712
300.0000656
300.0001228
300.0002358
300.0003718
300.0004838
300.0005669
300.0005115
300.0004235
300.0003518
300.0002637
300.0001823
300.0001359
300.0001463
300.0002122
300.0003306
300.0004654
300.0005653
300.0006047
300.0005524
300.0004816
300.0004022
300.0003166
300.0002389
300.0002029
300.0002282
300.0003068
300.0004226
300.000541
300.0006216
300.0006437
300.0005828
300.0005083
300.0004255
300.0003431
300.0002745
300.0002493
300.0002796
300.0003554
300.0004658
300.0005689
300.0006451
300.0005479
300.0004969
300.0004161
300.000316
300.0002122
300.0001202
300.0000629
300.0000734
300.0001519
300.0003045
300.0004659
300.0005851
300.0006208
300.0005701
300.0004874
300.0003734
300.0002711
300.0001804
300.000135
300.0001626
300.0002785
300.0004314
300.0005526
300.0006313
300.0006626
300.0006138
300.0005281
300.0004202
300.0003215
300.0002385
300.0002043
300.0002428
300.0003501
300.00048
300.0005878
300.0006506
300.0006802
300.0006284
300.0005452
300.0004522
300.0003582
300.0002836
300.0002569
300.0002923
300.0003793
300.0004879
300.0005898
300.0006468
300.0005807
300.0005317
300.0004592
300.0003506
300.0002241
300.0001164
300.0000588
300.0000978
300.000239
300.0004125
300.0005557
300.0006293
300.0006433
300.0005858
300.0005038
300.0004093
300.0002895
300.0001843
300.0001406
300.000198
300.0003253
300.0004598
300.0005755
300.000646
300.0006593
300.0006096
300.0005503
300.0004645
300.000359
300.0002646
300.0002235
300.0002639
300.0003633
300.0004807
300.0005778
300.000637
300.0006649
300.0006394
300.0006001
300.000527
300.0004281
300.0003397
300.0002933
300.0003151
300.0003851
300.0004862
300.0005727
300.0006107
300.0003901
300.0004152
300.0003599
300.0002501
300.0001268
300.0000151
299.9999435
299.9999753
300.0001169
300.0003362
300.0004781
300.000496
300.0004951
300.0005127
300.0004529
300.0003372
300.0001984
300.0000743
300.0000187
300.0000723
300.0002314
300.00043
300.0005296
300.0005325
300.0005588
300.0005656
300.0005172
300.0004002
300.0002678
300.0001566
300.0001139
300.0001778
300.0003129
300.000471
300.0005532
300.0005589
300.0005678
300.0005731
300.000542
300.000454
300.0003396
300.0002397
300.0001918
300.0002278
300.0003342
300.000464
300.0005297
300.0005423
300.0005329
300.0005669
300.0005436
300.0004637
300.0003591
300.000269
300.0002147
300.0002257
300.0002997
300.0003996
300.000468
300.0004798
299.999942
299.9999963
300.0002227
300.000189
300.0000657
299.9999272
299.9998615
299.9999188
300.0000983
300.0002371
300.0000852
300.0000402
299.9999956
300.0000667
300.0002738
300.0002447
300.0001335
300.0000017
299.9999469
300.0000132
300.0001629
300.0002593
300.0000919
300.0000328
299.9999961
300.0000331
300.0001725
300.0002283
300.0001561
300.0000336
299.9999861
300.0000529
300.0001295
300.0001295
300.0000279
300.000004
299.9999422
299.9999697
300.0000715
300.0000946
300.0000344
299.99995
299.9999012
299.9999209
299.9999637
299.9999676
299.9999238
299.9999306
299.9999299
299.9999785
300.0000628
300.0000684
300.0000259
299.9999795
299.9999437
299.9999232
299.9999359
299.9999347
299.9999062
299.999904
300.0005922
300.0006591
300.0007208
300.000781
300.0006739
300.0007539
300.0008006
300.0008237
300.0006922
300.0007635
300.0007911
300.0007974
300.0006497
300.0006955
300.0006882
300.0006657
300.0005237
300.000538
300.0005235
300.0005118
300.0002389
300.0002462
300.0002463
300.0002459
300.0005946
300.0006561
300.0007066
300.0007623
300.0006693
300.0007382
300.0007826
300.0008007
300.0006896
300.0007548
300.0007847
300.0007859
300.0006566
300.0006983
300.0007013
300.0006807
300.0005321
300.0005527
300.0005439
300.0005333
300.0002387
300.0002536
300.000258
300.0002569
300.0005888
300.0006433
300.0006889
300.0007409
300.0006579
300.0007219
300.0007607
300.0007841
300.0006835
300.0007414
300.0007764
300.0007793
300.000658
300.0007043
300.0007197
300.000708
300.0005502
300.0005786
300.0005753
300.0005692
300.0002533
300.0002682
300.0002696
300.0002719
300.000573
300.0006248
300.0006751
300.0007108
300.0006369
300.0006916
300.0007345
300.0007685
300.0006736
300.0007241
300.0007573
300.0007688
300.0006512
300.0007019
300.0007208
300.0007101
300.0005538
300.000587
300.0005863
300.0005637
300.0002538
300.0002652
300.0002671
300.0002555
300.0005456
300.0006024
300.0006428
300.0006785
300.0005949
300.00067
300.0007035
300.0007334
300.0006457
300.0007119
300.0007435
300.0007532
300.0006417
300.0007018
300.0007208
300.0007177
300.0005759
300.0006185
300.0006229
300.0006211
300.0002776
300.0003143
300.0003328
300.0003636
300.0004825
300.0005436
300.0005819
300.0006178
300.0005538
300.000621
300.0006581
300.0006841
300.0006048
300.0006718
300.0006996
300.0007061
300.0006053
300.0006605
300.0006822
300.0006723
300.0004965
300.0005383
300.0005505
300.0004957
300.000036
300.0000249
300.0000458
299.9999574
300.0007787
300.0007278
300.0006628
300.0005767
300.0004927
300.0004311
300.0004058
300.0004371
300.0005448
300.0006878
300.0008119
300.0008962
300.0008238
300.0007874
300.000721
300.0006296
300.0005211
300.0004311
300.0003724
300.0003721
300.0004604
300.0005911
300.0007087
300.0007936
300.000804
300.0007875
300.0007497
300.0006712
300.0005571
300.0004453
300.0003672
300.000351
300.0004214
300.000532
300.0006376
300.0007172
300.0006939
300.0007364
300.0007382
300.0006904
300.0006008
300.0004915
300.0004136
300.0003948
300.0004408
300.0005306
300.0006161
300.0006814
300.0005512
300.0006185
300.0006616
300.0006535
300.0005956
300.0005178
300.0004735
300.0004591
300.0004643
300.0005079
300.000556
300.0005895
300.000267
300.0003078
300.0003486
300.0003631
300.0003527
300.0003353
300.0003106
300.0002886
300.000273
300.0002773
300.0002762
300.0002736
300.0007594
300.0007012
300.0006336
300.0005545
300.0004751
300.000417
300.0003952
300.0004268
300.0005292
300.0006647
300.0007813
300.0008627
300.0008019
300.0007585
300.0006883
300.0006048
300.0005079
300.0004236
300.0003704
300.0003774
300.0004599
300.0005832
300.0006943
300.0007625
300.0007907
300.0007714
300.0007258
300.0006556
300.0005503
300.0004405
300.0003685
300.0003581
300.0004217
300.0005251
300.0006237
300.0006916
300.0007047
300.0007348
300.0007246
300.0006808
300.000598
300.0004892
300.0004087
300.0003905
300.0004343
300.0005178
300.0005976
300.000653
300.0005664
300.0006294
300.0006608
300.00065
300.0005942
300.0005177
300.0004679
300.0004515
300.0004589
300.0004964
300.0005437
300.000574
300.0002773
300.0003197
300.0003519
300.0003643
300.0003537
300.0003312
300.0003062
300.0002879
300.000276
300.0002771
300.0002776
300.0002729
300.0007383
300.0006646
300.0005963
300.0005311
300.0004571
300.0003977
300.0003741
300.000405
300.000493
300.0006139
300.0007337
300.0008292
300.0007751
300.0007268
300.0006673
300.0005836
300.0004892
300.0004078
300.0003625
300.0003773
300.0004558
300.0005694
300.0006797
300.0007529
300.0007758
300.0007581
300.0007081
300.0006323
300.000533
300.0004302
300.0003662
300.0003651
300.000425
300.0005233
300.0006177
300.0006769
300.0007214
300.0007354
300.000717
300.000671
300.0005875
300.0004835
300.0004031
300.000388
300.0004304
300.0005102
300.0005868
300.0006441
300.0005945
300.0006419
300.0006689
300.0006536
300.0005956
300.0005184
300.0004665
300.0004489
300.0004582
300.0004972
300.0005448
300.0005749
300.0002901
300.0003291
300.0003666
300.0003777
300.000363
300.000336
300.0003111
300.0002949
300.000285
300.0002872
300.0002857
300.0002824
300.0006938
300.0006416
300.0005703
300.0004992
300.0004243
300.0003662
300.0003435
300.0003749
300.0004532
300.0005586
300.0006809
300.0007774
300.0007483
300.0007012
300.0006372
300.0005531
300.0004629
300.0003853
300.0003494
300.0003702
300.0004473
300.0005508
300.0006599
300.0007426
300.0007606
300.0007359
300.0006852
300.0006088
300.0005115
300.0004152
300.00036
300.0003655
300.0004296
300.0005213
300.0006078
300.0006699
300.0007137
300.0007215
300.0007005
300.0006544
300.0005734
300.0004712
300.0003942
300.0003807
300.0004274
300.0005048
300.0005794
300.0006275
300.0005849
300.0006365
300.0006528
300.0006303
300.000569
300.0004961
300.0004458
300.0004265
300.0004394
300.0004791
300.0005242
300.0005432
300.0002742
300.0003251
300.0003559
300.0003665
300.0003457
300.000313
300.0002879
300.0002727
300.0002667
300.0002693
300.0002715
300.0002565
300.0006663
300.0006101
300.0005393
300.0004665
300.0003927
300.0003338
300.0003118
300.0003446
300.0004189
300.000524
300.0006326
300.0007317
300.0007253
300.0006736
300.0006036
300.0005226
300.0004356
300.000361
300.0003302
300.0003571
300.0004335
300.0005367
300.0006314
300.0007157
300.0007434
300.000711
300.0006585
300.0005801
300.0004822
300.0003928
300.000347
300.0003576
300.0004234
300.0005156
300.0006008
300.0006701
300.0007169
300.0007098
300.0006855
300.0006321
300.0005406
300.0004422
300.0003762
300.0003683
300.0004177
300.0004964
300.000576
300.0006327
300.000637
300.0006582
300.0006594
300.0006277
300.0005588
300.0004823
300.0004315
300.0004123
300.0004294
300.0004784
300.0005345
300.0005759
300.0003769
300.0003824
300.0003958
300.0003833
300.0003535
300.0003161
300.0002903
300.0002752
300.0002708
300.0002946
300.0003225
300.0003559
300.0006033
300.0005382
300.0004724
300.0004033
300.0003313
300.0002725
300.0002515
300.0002783
300.0003404
300.000437
300.0005328
300.0006328
300.0006649
300.0006029
300.0005385
300.0004647
300.0003855
300.0003227
300.0002994
300.000326
300.0003949
300.0004892
300.000577
300.0006524
300.0006898
300.0006536
300.0006043
300.0005242
300.0004307
300.0003559
300.0003203
300.0003342
300.0003968
300.0004849
300.0005692
300.0006342
300.00067
300.0006619
300.0006306
300.0005729
300.0004907
300.0004077
300.0003512
300.0003446
300.0003876
300.0004587
300.000536
300.0005847
300.0005134
300.0005714
300.0005654
300.0005353
300.000471
300.0004008
300.0003529
300.0003335
300.000337
300.0003712
300.0004345
300.0004392
300.0000253
300.0001452
300.0001442
300.0001859
300.0001902
300.0001718
300.0001537
300.000137
300.0000958
300.0000397
300.0000531
299.9999721
300.0009394
300.0009043
300.0008147
300.0006681
300.0008594
300.0008719
300.0008192
300.0007247
300.0007591
300.0007805
300.0007712
300.0007086
300.0007084
300.0007113
300.0006882
300.0006495
300.0006063
300.0006093
300.0005922
300.0005614
300.0002693
300.0002856
300.0002857
300.0002696
300.0008998
300.0008594
300.0007786
300.0006562
300.0008224
300.0008392
300.0007943
300.0007221
300.0007344
300.0007632
300.0007609
300.0007188
300.0006842
300.0006959
300.0006863
300.0006627
300.0005893
300.0005966
300.000587
300.0005676
300.0002725
300.0002852
300.0002862
300.0002766
300.0008547
300.0008057
300.0007383
300.0006315
300.000799
300.0008033
300.0007762
300.0007103
300.0007165
300.000757
300.0007586
300.0007224
300.0006759
300.0006942
300.0006935
300.0006824
300.000589
300.000598
300.0005949
300.0005818
300.0002815
300.0002895
300.0002953
300.0002873
300.0007904
300.0007582
300.0006929
300.0005941
300.0007685
300.0007716
300.0007512
300.0006908
300.0007059
300.0007446
300.0007484
300.0007181
300.0006521
300.0006819
300.0006968
300.0006881
300.0005564
300.0005816
300.0005882
300.000589
300.0002586
300.0002806
300.0002804
300.0002832
300.0007539
300.000717
300.000648
300.0005455
300.0007488
300.0007469
300.0007206
300.0006527
300.0007086
300.0007323
300.0007334
300.0007005
300.0006577
300.0006869
300.0007034
300.0006852
300.0005907
300.000607
300.0006192
300.0006088
300.0003581
300.0003372
300.0003252
300.0003079
300.0006657
300.0006085
300.0005342
300.0004441
300.000696
300.0006834
300.0006472
300.0005896
300.0006846
300.0007025
300.0006972
300.0006654
300.0006309
300.0006728
300.00068
300.0006633
300.0004662
300.0005393
300.0005526
300.0005513
299.9999782
300.0000671
300.0000487
300.0000903
300.0003976
300.0003021
300.0003705
300.0004132
300.0004179
300.0004169
300.0004176
300.0004101
300.0003773
300.0002903
300.0002128
300.0003355
300.0002207
300.0000395
300.0000636
300.0000747
300.000069
300.0000557
300.000047
300.0000282
299.9999813
299.9999336
299.9999322
300.0001841
300.0001705
299.9999286
299.9999381
299.9999554
299.9999408
299.999924
299.9999194
299.9998951
299.9998489
299.9998148
299.9998976
300.0002195
300.0001349
299.9998298
299.9998369
299.999819
299.999767
299.9997728
299.9998028
299.9998041
299.9997993
299.9998272
299.9999228
300.0002954
300.0001109
299.9997829
299.9997713
299.9997375
299.9996921
299.9996964
299.9997226
299.9997542
299.9998154
299.9998803
299.999974
300.0003322
300.0001229
299.999788
299.9997939
299.9997849
299.9997409
299.9997097
299.9996996
299.9997424
299.9998601
299.9999463
300.0000097
300.0003402
300.0001752
299.9998608
299.9999066
299.999936
299.9998676
299.9997617
299.9997064
299.999761
299.999933
300.0000113
300.0000207
300.0003386
300.000224
299.9999365
300.0000025
300.0000505
299.9999651
299.9998146
299.9997496
299.9998364
300.0000102
300.0000489
300.0000181
300.0003157
300.0002478
299.9999739
300.0000268
300.0000675
300.0000032
299.9998701
299.9998153
299.9998914
300.0000116
300.0000304
299.9999956
300.0002804
300.0001973
299.9999552
299.999973
300.0000243
299.999986
299.9998864
299.9998371
299.9998727
299.9999128
299.999923
299.9999461
300.0001993
300.0001571
299.9999745
299.9999938
300.0000151
299.9999842
299.9999255
299.9998772
299.9998638
299.9998817
299.9998939
299.9999314
300.0001448
300.000299
300.0001856
300.0002579
300.0003187
300.0003088
300.0002775
300.0002418
300.0002038
300.0001851
300.0001421
300.0001243
300.0002753
300.0003447
300.0004112
300.0004643
300.0004921
300.0004887
300.0004783
300.0004795
300.0004777
300.0004501
300.0003873
300.0003467
300.0003118
300.000369
300.0000811
300.0000609
300.000066
300.0000681
300.0000592
300.0000488
300.0000267
299.9999753
299.9999371
299.9999845
300.000333
300.0003334
299.999932
299.9998315
299.9998354
299.9998302
299.9998147
299.9998088
299.9997772
299.9997223
299.9997126
299.9999018
300.0003441
300.0002751
299.9998334
299.999717
299.9997032
299.9996561
299.9996565
299.9996857
299.9996804
299.9996718
299.9997053
299.9999204
300.0003824
300.000231
299.999785
299.9996489
299.9996169
299.9995652
299.9995683
299.9995985
299.999627
299.9996881
299.9997618
299.9999722
300.0004054
300.0002267
299.9997898
299.9996679
299.9996538
299.9996085
299.9995774
299.9995727
299.9996247
299.9997459
299.9998325
300.0000057
300.0004096
300.0002748
299.9998579
299.9997793
299.9998009
299.9997431
299.999634
299.9995804
299.9996505
299.999816
299.9998875
300.0000126
300.0004095
300.0003286
299.9999237
299.9998721
299.9999099
299.999842
299.9996927
299.9996296
299.9997251
299.9998797
299.9999166
299.9999985
300.0003972
300.000347
299.9999417
299.9998839
299.9999227
299.9998748
299.9997486
299.9996929
299.9997667
299.9998649
299.99988
299.9999619
300.0003709
300.0003203
299.9999396
299.9998536
299.9998865
299.99986
299.9997687
299.9997174
299.9997457
299.9997789
299.9997994
299.9999322
300.0003185
300.0003095
300.0000068
299.9999777
299.9999896
299.9999763
299.9999266
299.9998781
299.9998594
299.9998626
299.9998851
299.9999699
300.0002997
300.0002883
300.0003244
300.0003634
300.0004052
300.0003944
300.0003598
300.0003239
300.000299
300.0002948
300.0002828
300.0002893
300.0002796
300.0001326
300.0003949
300.0004518
300.0004731
300.0004653
300.0004547
300.0004542
300.0004529
300.0004312
300.00038
300.0003356
300.0001176
300.0003574
300.0001823
300.0001165
300.0001053
300.0000818
300.0000679
300.0000583
300.0000441
300.0000166
300.0000011
300.0001029
300.000324
300.0003347
299.9999953
299.9998334
299.9998097
299.9997845
299.9997618
299.9997547
299.99973
299.9996979
299.9997179
299.9999652
300.0003406
300.0002708
299.9998774
299.9996879
299.9996383
299.9995813
299.9995745
299.9996013
299.9996013
299.9996038
299.9996778
299.9999623
300.0003667
300.0002203
299.9998
299.9995977
299.9995355
299.9994735
299.9994692
299.9994981
299.9995355
299.9996086
299.9997119
299.9999869
300.0003836
300.0002145
299.9998005
299.9996065
299.9995635
299.9995076
299.9994685
299.9994653
299.9995277
299.9996609
299.9997745
300.0000105
300.000387
300.0002599
299.9998664
299.9997147
299.9997072
299.9996448
299.9995277
299.9994757
299.9995588
299.9997334
299.9998262
300.000017
300.0003875
300.0003133
299.9999374
299.9998131
299.9998198
299.9997499
299.9995954
299.9995326
299.999638
299.9997929
299.9998551
300.0000086
300.000377
300.0003345
299.9999763
299.9998357
299.9998411
299.9997903
299.9996607
299.9996056
299.9996836
299.9997849
299.9998308
299.9999951
300.0003553
300.0003175
299.9999928
299.9998393
299.9998383
299.999806
299.9997118
299.9996591
299.9996911
299.9997364
299.9997892
299.9999849
300.000316
300.0003012
300.0001024
300.0000285
300.0000253
299.9999914
299.999938
299.9998898
299.9998735
299.9998995
299.9999409
300.0000733
300.0002904
300.0001137
300.0003152
300.0003569
300.0003891
300.0003757
300.0003414
300.0003061
300.0002847
300.000286
300.0002847
300.0002823
300.0001016
300.0001421
300.0003336
300.000407
300.0004223
300.00041
300.0003992
300.0003977
300.0003975
300.0003839
300.0003438
300.0002814
300.0001235
300.0002989
300.000215
300.0001562
300.0001256
300.0000896
300.0000642
300.0000555
300.0000541
300.0000416
300.0000475
300.0001323
300.0002726
300.0003059
300.0000411
299.9998688
299.9998142
299.9997732
299.9997446
299.9997364
299.9997182
299.9997035
299.9997564
300.0000136
300.0003112
300.0002446
299.999901
299.9996915
299.9996169
299.9995485
299.9995328
299.9995551
299.9995623
299.9995821
299.9996823
299.9999861
300.0003258
300.0001884
299.9998126
299.9995832
299.9994996
299.9994206
299.9994047
299.9994315
299.9994785
299.9995704
299.9996983
299.9999937
300.0003347
300.0001829
299.9997985
299.9995871
299.9995181
299.9994439
299.9993943
299.9993911
299.9994617
299.9996126
299.9997526
300.0000068
300.0003375
300.0002238
299.9998644
299.9996934
299.9996591
299.9995779
299.9994536
299.9994037
299.9994975
299.9996893
299.9998062
300.0000141
300.0003393
300.000276
299.9999502
299.9997956
299.9997739
299.9996905
299.9995308
299.9994698
299.9995829
299.9997506
299.9998376
300.0000152
300.0003306
300.0002999
299.9999984
299.9998329
299.9998093
299.9997466
299.9996135
299.9995593
299.9996436
299.9997547
299.9998257
300.0000134
300.0003167
300.0002931
300.0000335
299.9998662
299.9998382
299.9997912
299.9996937
299.9996407
299.9996771
299.9997387
299.9998178
300.0000238
300.0002896
300.0002571
300.0001316
300.0000674
300.0000439
300.0000017
299.999937
299.9998897
299.9998883
299.9999243
299.9999836
300.0001012
300.0002439
300.0001192
300.0002688
300.0003246
300.0003455
300.0003291
300.0002976
300.0002666
300.0002505
300.0002592
300.0002625
300.0002371
300.0001069
300.0000944
300.0002503
300.0003372
300.0003635
300.0003531
300.0003409
300.0003402
300.0003418
300.0003273
300.0002843
300.0002102
300.0000829
300.0002191
300.0002325
300.0001779
300.0001333
300.0000831
300.000054
300.0000477
300.0000486
300.0000514
300.0000738
300.0001612
300.0001998
300.0002464
300.0000655
299.9998984
299.9998203
299.9997686
299.9997356
299.9997275
299.9997142
299.9997118
299.9997908
300.0000402
300.0002546
300.0002022
299.9999126
299.9996993
299.9996088
299.9995316
299.9995105
299.9995299
299.9995414
299.999574
299.9996898
299.9999964
300.0002765
300.0001545
299.9998101
299.999583
299.9994828
299.9993935
299.9993686
299.9993952
299.9994487
299.9995499
299.9996923
299.9999868
300.000285
300.0001456
299.9997926
299.9995789
299.9994946
299.999409
299.9993531
299.9993523
299.9994279
299.9995871
299.9997421
299.9999952
300.0002855
300.0001825
299.999859
299.9996859
299.9996338
299.9995409
299.999414
299.9993657
299.9994651
299.9996657
299.9997965
300.0000041
300.0002866
300.0002326
299.9999465
299.9997877
299.9997496
299.9996575
299.9994966
299.9994368
299.9995528
299.999726
299.9998276
300.0000098
300.0002817
300.0002544
300.0000051
299.9998346
299.9997943
299.9997232
299.9995893
299.9995351
299.999621
299.9997383
299.9998264
300.0000201
300.0002683
300.0002413
300.0000541
299.9998896
299.9998407
299.999785
299.9996857
299.9996321
299.9996717
299.999743
299.9998412
300.0000442
300.0002365
300.0001907
300.0001582
300.0000873
300.0000512
299.9999971
299.9999313
299.9998844
299.999886
299.9999362
300.0000073
300.0001283
300.0001771
300.0000795
300.000198
300.0002666
300.0002932
300.0002801
300.0002484
300.00022
300.0002108
300.000218
300.0002137
300.0001714
300.0000681
300.0000716
300.0001915
300.0002692
300.0003044
300.0003035
300.0002935
300.0002924
300.0002935
300.0002745
300.0002272
300.0001612
300.0000615
300.0001659
300.000239
300.0001951
300.00014
300.0000825
300.0000517
300.0000449
300.0000467
300.0000612
300.0000994
300.0001711
300.0001498
300.0001893
300.0000886
299.9999259
299.9998323
299.9997695
299.9997321
299.9997229
299.9997142
299.9997269
299.9998217
300.0000662
300.0001983
300.0001604
299.9999258
299.9997137
299.9996086
299.9995232
299.9994971
299.999515
299.9995321
299.9995738
299.9997047
300.0000054
300.000229
300.0001226
299.9998128
299.9995854
299.9994727
299.9993784
299.9993501
299.9993781
299.9994346
299.9995398
299.9996923
299.9999853
300.000242
300.0001129
299.9997939
299.9995763
299.9994803
299.9993899
299.9993337
299.999335
299.9994122
299.9995728
299.9997358
299.9999935
300.0002423
300.0001466
299.9998604
299.9996829
299.9996188
299.9995206
299.9993949
299.9993497
299.9994502
299.9996514
299.9997927
300.0000036
300.0002422
300.0001925
299.9999476
299.9997871
299.9997349
299.9996384
299.9994805
299.9994227
299.9995387
299.9997121
299.9998256
300.0000105
300.0002382
300.0002063
300.0000128
299.9998409
299.9997855
299.9997083
299.9995764
299.9995232
299.999609
299.9997303
299.9998302
300.000028
300.0002204
300.0001869
300.0000762
299.9999109
299.9998473
299.9997844
299.9996844
299.9996315
299.9996727
299.9997527
299.9998633
300.0000653
300.000183
300.0001432
300.0001691
300.0001086
300.0000591
299.9999972
299.9999315
299.9998846
299.9998878
299.9999471
300.0000299
300.0001369
300.0001309
300.0000567
300.0001481
300.0002088
300.0002423
300.0002372
300.0002067
300.0001797
300.0001734
300.0001748
300.0001621
300.0001257
300.0000472
300.0000514
300.0001472
300.0002159
300.0002576
300.000262
300.0002561
300.0002543
300.0002518
300.0002331
300.0001832
300.0001261
300.0000441
300.0001248
300.0002402
300.000201
300.0001494
300.0000874
300.0000524
300.0000444
300.0000494
300.0000703
300.0001127
300.0001784
300.0001146
300.0001429
300.0001037
299.9999555
299.9998453
299.9997716
299.9997309
299.9997199
299.9997146
299.9997391
299.999853
300.0000821
300.0001549
300.0001273
299.99994
299.999729
299.999611
299.999521
299.9994894
299.9995058
299.999526
299.9995756
299.9997186
300.000016
300.0001913
300.0000949
299.9998213
299.999589
299.9994677
299.9993716
299.9993413
299.9993705
299.9994287
299.999533
299.9996934
299.9999893
300.0002045
300.0000886
299.9997963
299.9995763
299.9994707
299.9993796
299.9993238
299.9993264
299.9994048
299.9995646
299.9997326
299.9999942
300.000208
300.0001187
299.9998624
299.9996824
299.9996069
299.9995079
299.9993851
299.9993429
299.9994442
299.999643
299.9997915
300.0000047
300.0002073
300.0001573
299.9999521
299.9997878
299.9997247
299.9996269
299.9994741
299.9994185
299.9995329
299.9997033
299.9998254
300.0000153
300.0002002
300.0001686
300.0000239
299.9998487
299.9997813
299.9997008
299.9995708
299.9995179
299.9996013
299.9997243
299.999835
300.0000365
300.0001824
300.000145
300.0000913
299.9999336
299.9998545
299.999785
299.999685
299.9996322
299.9996744
299.9997616
299.9998846
300.0000782
300.0001419
300.0001089
300.0001762
300.0001207
300.0000683
300.0000021
299.9999329
299.9998858
299.9998938
299.9999585
300.000046
300.0001426
300.0000978
300.0000394
300.0001132
300.0001644
300.0002008
300.0001991
300.0001734
300.0001482
300.0001399
300.0001404
300.000123
300.000093
300.0000323
300.0000368
300.000115
300.0001778
300.0002211
300.0002307
300.0002242
300.0002216
300.0002188
300.000198
300.0001485
300.0000996
300.0000306
300.0000955
300.0002382
300.0002063
300.0001562
300.000092
300.0000537
300.0000438
300.0000501
300.0000762
300.0001203
300.0001802
300.0000886
300.0001087
300.0001135
299.9999858
299.9998621
299.9997782
299.9997307
299.9997186
299.9997177
299.9997533
299.9998841
300.0000936
300.000122
300.0000993
299.999954
299.9997474
299.9996169
299.9995222
299.9994848
299.9995005
299.9995251
299.99958
299.999734
300.0000264
300.0001592
300.000073
299.9998296
299.9995977
299.9994683
299.9993697
299.9993372
299.9993658
299.9994248
299.9995321
299.9996979
299.9999939
300.0001755
300.0000662
299.9998012
299.9995775
299.9994648
299.9993734
299.9993171
299.9993197
299.9993991
299.9995578
299.9997314
299.9999965
300.0001788
300.0000929
299.9998667
299.9996828
299.9995986
299.9994991
299.9993784
299.9993373
299.9994382
299.9996343
299.9997905
300.000008
300.0001784
300.0001294
299.999958
299.9997912
299.9997197
299.9996206
299.9994701
299.9994143
299.9995273
299.9996968
299.999827
300.0000206
300.000172
300.0001362
300.0000343
299.99986
299.9997817
299.9996973
299.9995666
299.9995128
299.9995967
299.9997221
299.9998427
300.0000437
300.0001515
300.0001136
300.0000996
299.999958
299.9998649
299.999789
299.9996867
299.9996338
299.9996786
299.9997731
299.9999078
300.0000864
300.0001109
300.0000843
300.0001754