/*--------------------------------*- C++ -*----------------------------------*\
| =========                 |                                                 |
| \\      /  F ield         | OpenFOAM: The Open Source CFD Toolbox           |
|  \\    /   O peration     | Version:  4.x                                   |
|   \\  /    A nd           | Web:      www.OpenFOAM.org                      |
|    \\/     M anipulation  |                                                 |
\*---------------------------------------------------------------------------*/
FoamFile
{
    version     2.0;
    format      ascii;
    class       volVectorField;
    location    "0.43";
    object      U;
}
// * * * * * * * * * * * * * * * * * * * * * * * * * * * * * * * * * * * * * //

dimensions      [0 1 -1 0 0 0 0];

internalField   nonuniform List<vector> 
6394
(
(0.0300512598 8.849780785e-05 0.003760938279)
(0.03005038647 2.893908434e-05 0.003760849028)
(0.03005038651 -2.893496946e-05 0.003760849063)
(0.03005125962 -8.84945281e-05 0.00376093829)
(0.03005347329 -0.0001540192388 0.003761174748)
(0.03005827381 -0.0002304168767 0.003761503642)
(0.03006808585 -0.000330050774 0.003762430036)
(0.0300877443 -0.0004558101233 0.003762359282)
(0.03481939023 8.663821705e-05 0.005103866489)
(0.03482037599 2.827178702e-05 0.005104406759)
(0.03482037603 -2.826683334e-05 0.005104406503)
(0.03481939021 -8.663356501e-05 0.005103865868)
(0.03481754964 -0.000151594727 0.005102807685)
(0.03481531373 -0.0002286118308 0.005101276437)
(0.03481375612 -0.0003322733742 0.00509960273)
(0.03481505976 -0.0004670342166 0.005098086756)
(0.03487444666 9.560975238e-05 0.002559744712)
(0.03487472024 3.123238911e-05 0.002560374979)
(0.0348747202 -3.122808161e-05 0.002560374397)
(0.03487444561 -9.560642996e-05 0.002559742758)
(0.0348741249 -0.0001668503623 0.002558496871)
(0.03487430614 -0.000250557358 0.002556758666)
(0.03487617069 -0.0003613467363 0.002554780685)
(0.03488077237 -0.0005022621237 0.002553501689)
(0.0346305783 0.0001004028118 0.001817011186)
(0.03463062309 3.286690104e-05 0.001816830865)
(0.03463062274 -3.286463448e-05 0.001816829472)
(0.03463057647 -0.0001004022601 0.00181700713)
(0.03463070095 -0.0001744090696 0.001817581921)
(0.03463148369 -0.0002602229179 0.001819067274)
(0.03463410649 -0.000371932892 0.001822137185)
(0.0346391168 -0.0005121679035 0.001828199039)
(0.03456126236 0.0001019789385 0.001005610521)
(0.0345610636 3.342208915e-05 0.001005299639)
(0.0345610635 -3.342341721e-05 0.001005297897)
(0.03456126169 -0.0001019802795 0.001005606073)
(0.034561813 -0.0001766702318 0.001006446646)
(0.03456306236 -0.0002625613086 0.00100831515)
(0.03456598767 -0.0003732745087 0.001011863111)
(0.03457059653 -0.0005108102217 0.001018210138)
(0.03454548238 0.0001015914223 0.0007291857568)
(0.03454528183 3.332757526e-05 0.0007287315909)
(0.03454528197 -3.333157493e-05 0.0007287306626)
(0.03454548259 -0.0001015940104 0.0007291829727)
(0.03454599398 -0.0001756367227 0.0007303001147)
(0.03454705986 -0.0002603105949 0.0007325201771)
(0.03454951659 -0.0003689544792 0.0007363863385)
(0.03455306317 -0.0005035046812 0.0007426843734)
(0.02706381777 0.0002210935542 0.00314519685)
(0.02705547608 7.283400138e-05 0.003146217627)
(0.02705547591 -7.282977948e-05 0.00314621775)
(0.02706381623 -0.0002210902309 0.003145197019)
(0.02708249793 -0.0003779090593 0.003143073925)
(0.02711653036 -0.0005501667397 0.003139526636)
(0.02717431696 -0.0007509910844 0.003134949688)
(0.02727442025 -0.00098212018 0.003126301476)
(0.0361250168 0.0003305750074 0.005989123343)
(0.03611338824 0.0001088463079 0.005991505959)
(0.03611338817 -0.0001088445248 0.00599150571)
(0.03612501582 -0.0003305742942 0.005989122029)
(0.0361511574 -0.0005655628277 0.005984239157)
(0.0361991279 -0.0008245925569 0.00597654988)
(0.03628175955 -0.00112714562 0.005965975492)
(0.03642715977 -0.001480751314 0.005951456129)
(0.03741574642 0.0002970075395 0.004337248572)
(0.03740652775 9.766448237e-05 0.004339414052)
(0.03740652758 -9.766641098e-05 0.004339412876)
(0.03741574509 -0.0002970096687 0.004337244168)
(0.03743656638 -0.0005096292629 0.004333024833)
(0.03747530454 -0.0007462126062 0.004326874989)
(0.03754322152 -0.001027486258 0.004319051422)
(0.03766672139 -0.001359305183 0.004308032453)
(0.03644949058 0.0002900203828 0.003542116478)
(0.03644115756 9.535793003e-05 0.003543384632)
(0.03644115753 -9.536496321e-05 0.003543382965)
(0.03644948934 -0.0002900263887 0.003542111614)
(0.03646848693 -0.0004977415886 0.003539757407)
(0.03650432624 -0.0007289747289 0.003536708167)
(0.03656804438 -0.001004529985 0.003533495534)
(0.0366854106 -0.001329151802 0.003529772499)
(0.03571937938 0.0002894781915 0.002334438582)
(0.03571128411 9.521723927e-05 0.002334596592)
(0.0357112843 -9.522838607e-05 0.002334595254)
(0.03571937894 -0.0002894877537 0.00233443607)
(0.03573800483 -0.0004964716307 0.00233431177)
(0.03577350634 -0.0007265833355 0.002334614817)
(0.03583719836 -0.00100087486 0.002335765074)
(0.0359551963 -0.001323991149 0.002337560195)
(0.03528265763 0.0002898711144 0.00179976305)
(0.03527484751 9.539922773e-05 0.001799397884)
(0.0352748481 -9.541190691e-05 0.001799397561)
(0.03528265836 -0.0002898825825 0.001799762434)
(0.03530074143 -0.0004966283566 0.001800682734)
(0.03533548985 -0.0007258853112 0.001802550669)
(0.03539836544 -0.0009988243699 0.001805758175)
(0.03551574685 -0.001320567484 0.001810230501)
(0.02070247241 0.0002954904255 0.002237098884)
(0.02068362773 9.763610353e-05 0.002237933015)
(0.0206836278 -9.763409567e-05 0.00223793302)
(0.02070247178 -0.0002954886068 0.002237099293)
(0.02074368408 -0.0005017004797 0.002235370246)
(0.02081555061 -0.0007231358536 0.002232543293)
(0.02093212993 -0.0009712307584 0.002229187953)
(0.02112099836 -0.001248745894 0.002222720224)
(0.03514832387 0.0004280227581 0.005853061908)
(0.03512714821 0.0001411212731 0.005855856125)
(0.03512714856 -0.0001411216985 0.005855855669)
(0.03514832346 -0.0004280231446 0.005853060929)
(0.03519476714 -0.0007300314943 0.005847361738)
(0.03527638608 -0.001059619139 0.005838544376)
(0.03541052793 -0.001437440978 0.005826723475)
(0.03563098605 -0.001873770671 0.005811834274)
(0.03851757878 0.0004602110046 0.005158203669)
(0.03849779823 0.0001515547649 0.005162294499)
(0.03849779795 -0.0001515508752 0.005162292877)
(0.03851757816 -0.0004602065571 0.005158197973)
(0.03856140279 -0.0007867266775 0.005150480816)
(0.0386397403 -0.001145674209 0.00513996108)
(0.03877134084 -0.001560628953 0.005127928947)
(0.03899391653 -0.00204416815 0.005117861487)
(0.0380563229 0.0004663427447 0.004640258482)
(0.03803890161 0.000153720939 0.004642192353)
(0.03803890116 -0.0001537193658 0.004642190844)
(0.03805632236 -0.0004663403199 0.004640253413)
(0.03809581775 -0.0007957771358 0.004636805147)
(0.03816855155 -0.001156233685 0.004632706248)
(0.03829479578 -0.001571749392 0.004629121442)
(0.03851550074 -0.002056209742 0.00462797879)
(0.0371266833 0.0004709017089 0.003398910832)
(0.03710878239 0.0001553450433 0.003399344135)
(0.03710878262 -0.0001553447104 0.003399342834)
(0.03712668359 -0.0004709000143 0.003398907244)
(0.03716735747 -0.0008022846693 0.003398403629)
(0.03724251914 -0.001163102202 0.003398558801)
(0.03737345933 -0.001576786555 0.00340020132)
(0.03760242562 -0.002056559964 0.00340436878)
(0.03638033763 0.0004743545437 0.002688415539)
(0.03636216304 0.0001565831816 0.002688157533)
(0.03636216333 -0.000156583493 0.002688156876)
(0.03638033743 -0.0004743536254 0.00268841331)
(0.03642175386 -0.0008071330182 0.002689217033)
(0.0364985481 -0.001168025782 0.00269112172)
(0.03663280456 -0.001580014117 0.002694620362)
(0.03686814539 -0.002055908204 0.002699805384)
(0.01701083592 0.0005597559647 0.001226254529)
(0.01695657435 0.0003323504672 0.001224203779)
(0.01693175695 0.0001102352386 0.001223218671)
(0.01693175738 -0.0001102392003 0.001223218803)
(0.01695657612 -0.0003323558494 0.001224203811)
(0.01701083671 -0.0005597642092 0.001226255117)
(0.01710465951 -0.0007970577306 0.001229622154)
(0.01725488108 -0.001051487274 0.001235283639)
(0.01748889562 -0.001325469068 0.001241855403)
(0.03353873157 0.0009094648319 0.004700571822)
(0.03346419451 0.0005367650032 0.004698775794)
(0.03343031869 0.0001775256374 0.004697863126)
(0.03343031994 -0.0001775248909 0.00469786296)
(0.03346419729 -0.0005367665884 0.004698775774)
(0.03353873351 -0.0009094691228 0.004700571609)
(0.0336692381 -0.001307311462 0.004703677732)
(0.03388219648 -0.001749194141 0.004709636082)
(0.03422319133 -0.002249438703 0.004720340109)
(0.03912521743 0.001054185731 0.005012682361)
(0.03905087335 0.0006251284116 0.004997868441)
(0.03901704969 0.0002073131988 0.004990089287)
(0.03901705141 -0.0002073097202 0.004990089313)
(0.03905087749 -0.0006251250624 0.004997869636)
(0.03912522147 -0.001054182206 0.005012682899)
(0.03925533458 -0.001506657202 0.00503469141)
(0.03946826179 -0.002003760293 0.005066083799)
(0.03981481528 -0.002567538261 0.005096636528)
(0.03947334774 0.001081095261 0.004956473224)
(0.03940400405 0.0006390254565 0.004955771875)
(0.03937307223 0.0002115332369 0.004955768672)
(0.039373074 -0.0002115142634 0.004955767497)
(0.0394040093 -0.0006390074679 0.004955767636)
(0.03947335457 -0.001081078757 0.004956464744)
(0.03959786129 -0.001550529491 0.004959334891)
(0.03980738993 -0.002067527535 0.00496700298)
(0.04015529868 -0.002645364885 0.004980647884)
(0.03873034764 0.00109199577 0.004090803604)
(0.0386621589 0.0006456476533 0.004088687407)
(0.03863185331 0.000213737019 0.004087886399)
(0.03863185631 -0.0002137115612 0.004087884689)
(0.03866216677 -0.0006456253437 0.004088681433)
(0.03873035704 -0.001091976166 0.004090793447)
(0.03885360434 -0.001565129889 0.004095197924)
(0.03906302287 -0.002085324976 0.004102874188)
(0.03941403894 -0.002665452443 0.004113200667)
(0.03781450118 0.001104162425 0.003355876867)
(0.03774644893 0.0006537426205 0.003355378012)
(0.03771632889 0.0002165618738 0.003355376338)
(0.03771633179 -0.0002165377254 0.003355373284)
(0.03774645686 -0.0006537210433 0.003355369055)
(0.03781451172 -0.001104143972 0.003355863666)
(0.03793824848 -0.001579332373 0.003357678952)
(0.03814997212 -0.002098867561 0.003361467207)
(0.03850660719 -0.002675388179 0.00336683995)
(0.01435430656 0.0005789585596 0.0006157043044)
(0.01429803058 0.0003485028859 0.0006156849419)
(0.01427234031 0.0001163678584 0.0006157790867)
(0.01427234125 -0.0001163887651 0.0006157792587)
(0.01429803288 -0.000348524679 0.0006156851671)
(0.01435430906 -0.0005789802241 0.0006157048288)
(0.01445133804 -0.0008070547756 0.0006164036288)
(0.01460528291 -0.001033567764 0.0006192439695)
(0.01483836227 -0.001256795117 0.0006255410224)
(0.03173009046 0.001058241847 0.003372127732)
(0.0316383858 0.0006309693695 0.003372073206)
(0.03159694105 0.000209694017 0.003372648677)
(0.03159694302 -0.000209728701 0.003372648899)
(0.0316383917 -0.0006310069797 0.003372073097)
(0.03173009659 -0.001058280193 0.003372128855)
(0.03189078815 -0.001496847392 0.003375603563)
(0.0321515141 -0.001955685764 0.003387807756)
(0.03255829405 -0.002441106461 0.003416647313)
(0.03909406348 0.001222156046 0.004472486176)
(0.0390002818 0.0007251544682 0.004479655547)
(0.03895781737 0.0002404490117 0.004483021958)
(0.03895782096 -0.000240467345 0.004483021296)
(0.03900029131 -0.0007251761847 0.004479653394)
(0.03909407461 -0.001222180404 0.004472483457)
(0.03926029096 -0.001741497633 0.004463403071)
(0.03953748551 -0.002296663628 0.004459515186)
(0.03997902663 -0.002890058194 0.004478022009)
(0.04049504677 0.001300043674 0.004723961992)
(0.04039866752 0.0007737674614 0.004723949674)
(0.04035487907 0.0002569901221 0.004724491176)
(0.04035488483 -0.0002569995283 0.004724490407)
(0.04039868247 -0.0007737791838 0.004723947563)
(0.04049506678 -0.001300058267 0.004723958316)
(0.04066449756 -0.001844677631 0.004727024765)
(0.04094341113 -0.002420942877 0.004737227295)
(0.04138559471 -0.003033274436 0.004760913677)
(0.04012861762 0.001331211908 0.004286716734)
(0.04003668939 0.0007934351607 0.004288225474)
(0.03999538003 0.000263683981 0.004289434006)
(0.0399953865 -0.0002636879348 0.004289432808)
(0.04003670657 -0.0007934432429 0.004288221872)
(0.04012864105 -0.001331223671 0.004286711067)
(0.04029241697 -0.001884357734 0.004287112083)
(0.04056564541 -0.002464324356 0.004293201498)
(0.04100432601 -0.003074154598 0.004308935572)
(0.03926668058 0.001354319279 0.003716775114)
(0.03917811492 0.0008088081104 0.003719186778)
(0.03913876047 0.0002690490075 0.003720826256)
(0.03913876673 -0.0002690536555 0.003720824565)
(0.03917813173 -0.0008088150094 0.003719182115)
(0.03926670432 -0.001354329318 0.003716768972)
(0.03942656552 -0.001911165933 0.003715371667)
(0.03969621886 -0.002489057233 0.003717428766)
(0.04013359471 -0.003089683313 0.003724137008)
(0.01272336115 0.0005707190616 0.0003064256644)
(0.01267523304 0.0003484281753 0.0003068996819)
(0.01265317367 0.0001171542779 0.0003073266941)
(0.01265317443 -0.0001171828992 0.0003073265145)
(0.01267523277 -0.0003484567495 0.0003068999097)
(0.01272336067 -0.0005707448957 0.0003064257358)
(0.01280562356 -0.0007783393569 0.0003065108491)
(0.01293384082 -0.0009664262094 0.0003082797212)
(0.01312158301 -0.001128129816 0.0003131874573)
(0.03014698764 0.0011360711 0.002261828574)
(0.03004853394 0.0006858255533 0.00226193089)
(0.03000356895 0.0002293362355 0.002262782005)
(0.03000357051 -0.0002294213172 0.002262782429)
(0.03004853698 -0.0006859104135 0.002261932869)
(0.03014698984 -0.001136149134 0.002261832403)
(0.03031644899 -0.00157696828 0.002265711263)
(0.03058386467 -0.002006558777 0.002279517463)
(0.03098298013 -0.002417373383 0.00231259322)
(0.03865922999 0.001364344989 0.003540261945)
(0.03855074363 0.0008187415915 0.003546596578)
(0.03850223076 0.0002729105097 0.003551963427)
(0.0385022342 -0.0002730076345 0.003551963908)
(0.03855075199 -0.0008188388287 0.003546598451)
(0.03865923888 -0.001364435637 0.003540268569)
(0.03884992808 -0.001909700143 0.003539276729)
(0.03915554541 -0.002456801206 0.003550337981)
(0.03962053252 -0.002998791166 0.003587514066)
(0.04109883917 0.001462634222 0.004136379071)
(0.04099274039 0.0008782477424 0.00414032116)
(0.04094550891 0.0002928427306 0.00414351374)
(0.04094551436 -0.0002929392319 0.00414351618)
(0.0409927534 -0.0008783443767 0.004140328495)
(0.04109885299 -0.001462725907 0.004136390901)
(0.04128653162 -0.002045765434 0.004136859523)
(0.04159062017 -0.002629633568 0.004149928183)
(0.04206067239 -0.003205769981 0.004186157339)
(0.0411851635 0.001509762427 0.00406993955)
(0.04108531959 0.0009080267072 0.004076721902)
(0.04104127748 0.0003030239442 0.004081493394)
(0.04104128218 -0.0003031198989 0.004081496768)
(0.04108533097 -0.0009081223557 0.004076732533)
(0.04118517671 -0.001509852154 0.004069957321)
(0.04136436463 -0.002105927966 0.004066058626)
(0.04165893727 -0.002695178869 0.004071167452)
(0.04212132643 -0.003263847875 0.004093448994)
(0.04060172183 0.001536349256 0.003786696433)
(0.04050925791 0.0009259125587 0.003794782648)
(0.0404688563 0.0003093094292 0.003799958488)
(0.04046886037 -0.0003094038439 0.003799963356)
(0.04050926666 -0.0009260039195 0.00379479805)
(0.0406017301 -0.001536433856 0.003786721575)
(0.04077039211 -0.002136264919 0.003779569854)
(0.0410535237 -0.002722043873 0.003777674817)
(0.04150445272 -0.003277338782 0.003785943243)
(0.01183461748 0.000743602491 0.0001558340411)
(0.01178290354 0.0005565239357 0.000156742987)
(0.01175363661 0.0003441971762 0.0001577052466)
(0.01174060141 0.0001164631654 0.0001583013174)
(0.01174059961 -0.0001164808727 0.0001583010168)
(0.0117536301 -0.0003442145719 0.0001577056447)
(0.01178289178 -0.0005565400753 0.0001567440908)
(0.01183460066 -0.00074361556 0.000155834208)
(0.0119170848 -0.0008967521471 0.0001558887187)
(0.01203732727 -0.001006676651 0.0001581934627)
(0.02910283466 0.001573245039 0.001482384675)
(0.02896223558 0.001155138955 0.001483503653)
(0.02888067759 0.000705739657 0.001486716608)
(0.02884348459 0.0002373627485 0.00148903948)
(0.02884348139 -0.0002374555136 0.001489041054)
(0.02888066628 -0.0007058288469 0.001486722475)
(0.02896221481 -0.001155221925 0.001483511462)
(0.0291028005 -0.001573312826 0.001482393124)
(0.02932352304 -0.001948333517 0.001488742983)
(0.0296446293 -0.002263713355 0.001511270214)
(0.03826842035 0.001963941011 0.002693325183)
(0.03809381554 0.001427629918 0.002697752762)
(0.03799344201 0.0008662437072 0.00270472741)
(0.03794780648 0.0002903193635 0.002709566308)
(0.03794780375 -0.0002904628149 0.002709569974)
(0.03799343195 -0.0008663833585 0.002704738583)
(0.0380937941 -0.001427757965 0.002697768713)
(0.03826838495 -0.001964044846 0.002693345543)
(0.03854683085 -0.002464329835 0.002699896521)
(0.03896021814 -0.002909595632 0.002731254603)
(0.04151127127 0.002131037605 0.003463220541)
(0.04134111842 0.001546375351 0.003470532517)
(0.04124581296 0.0009366785185 0.003479669641)
(0.04120273763 0.0003135966982 0.003485306227)
(0.04120273419 -0.0003137661142 0.003485312219)
(0.04124580085 -0.0009368413468 0.003479687507)
(0.04134109445 -0.001546522334 0.003470559575)
(0.04151123639 -0.002131156405 0.003463254869)
(0.04179159935 -0.00267818725 0.003467615656)
(0.04221818699 -0.003165601288 0.003496759744)
(0.04210661728 0.002207254525 0.003687454867)
(0.0419531669 0.001608025068 0.003701672721)
(0.04186872724 0.0009770324874 0.003715215358)
(0.04183132639 0.0003276719097 0.003723034583)
(0.04183132219 -0.0003278411511 0.003723043126)
(0.04186871253 -0.0009771948779 0.003715240596)
(0.04195313946 -0.001608171135 0.003701710402)
(0.04210657754 -0.002207373333 0.00368750545)
(0.04236666118 -0.002760988926 0.00368151528)
(0.04277437574 -0.00324477057 0.003694222497)
(0.04183383259 0.00224806156 0.003631630165)
(0.04169593032 0.001644113838 0.00365185363)
(0.04162320341 0.001001685598 0.003669012718)
(0.04159232498 0.0003364082055 0.003678574334)
(0.04159232002 -0.0003365682824 0.003678585292)
(0.04162318516 -0.001001840346 0.003669045312)
(0.04169589664 -0.001644251542 0.003651901829)
(0.0418337871 -0.002248172633 0.003631693507)
(0.0420730226 -0.002798024182 0.003616315208)
(0.04245228902 -0.003266208844 0.003613731734)
(0.01132915575 0.0009346505229 9.18796949e-05)
(0.01128153622 0.0008607774581 9.291941629e-05)
(0.01125281879 0.0007316305337 9.539468345e-05)
(0.01123958078 0.0005572329551 9.802521855e-05)
(0.011235121 0.0003485424623 0.0001001293582)
(0.01123423974 0.0001185904993 0.0001012856404)
(0.01123423543 -0.0001185888468 0.0001012851674)
(0.01123510939 -0.0003485420218 0.0001001290161)
(0.0112395612 -0.0005572320093 9.802524451e-05)
(0.01125279295 -0.0007316301807 9.539330695e-05)
(0.01128150426 -0.0008607791332 9.291754327e-05)
(0.01132912293 -0.0009346535346 9.187845249e-05)
(0.0285631925 0.002089162299 0.001026615933)
(0.02835865493 0.001861171635 0.001024124879)
(0.02821941623 0.00154363946 0.001032421559)
(0.02813483336 0.001155340394 0.001043894852)
(0.02808850944 0.0007148172722 0.001054304352)
(0.02806837969 0.0002419211371 0.001060386765)
(0.02806837159 -0.0002419724417 0.001060387719)
(0.02808848408 -0.0007148665953 0.001054307892)
(0.02813478979 -0.001155385834 0.001043899654)
(0.02821935717 -0.001543678269 0.001032424059)
(0.02835858202 -0.001861201213 0.001024127845)
(0.02856311576 -0.002089180687 0.001026622674)
(0.03817616723 0.002725467895 0.002095346192)
(0.03787586999 0.002386858441 0.002091263669)
(0.0376745457 0.001952404615 0.00210513313)
(0.03755194578 0.001446645815 0.002124570971)
(0.03748467053 0.000889782018 0.002142919965)
(0.03745535209 0.0003003520908 0.002154096308)
(0.03745534213 -0.0003004619607 0.002154098584)
(0.03748463899 -0.0008898885675 0.002142927048)
(0.03755189138 -0.001446743356 0.002124581895)
(0.03767447013 -0.001952484829 0.002105146626)
(0.0378757807 -0.002386916295 0.002091280689)
(0.03817607632 -0.002725503874 0.002095370421)
(0.04200278192 0.003008115859 0.002905862873)
(0.04168769546 0.002627092083 0.002909592956)
(0.04148332197 0.002141848025 0.002933424578)
(0.04135930201 0.001582530982 0.002958900296)
(0.04128946476 0.0009728976775 0.002979956618)
(0.04125909596 0.0003287687668 0.002993061272)
(0.04125908275 -0.0003289052057 0.002993065083)
(0.04128942544 -0.0009730304947 0.002979967697)
(0.0413592377 -0.001582651175 0.00295891951)
(0.04148323509 -0.002141946901 0.002933451441)
(0.04168759926 -0.002627162994 0.002909626148)
(0.04200269095 -0.003008160131 0.002905906021)
(0.04302167907 0.003118389324 0.00329039663)
(0.04272467004 0.002739454907 0.003308434912)
(0.04253114078 0.002243431476 0.003348354284)
(0.04242402109 0.001662957712 0.003397179987)
(0.04237312412 0.001023188175 0.003435563184)
(0.04235370328 0.0003454776185 0.003455863994)
(0.04235368906 -0.0003456240919 0.003455871219)
(0.04237307931 -0.001023328598 0.003435583442)
(0.04242394677 -0.001663082642 0.00339720805)
(0.04253104365 -0.002243530225 0.003348389942)
(0.04272456959 -0.002739522208 0.003308481255)
(0.04302158842 -0.00311843257 0.003290457965)
(0.04257843501 0.002318284765 0.003488228876)
(0.04250859241 0.001724920312 0.003540530723)
(0.04248233357 0.001063002606 0.003581702288)
(0.04247518939 0.000359056703 0.003604000607)
(0.04247517502 -0.000359193975 0.003604009883)
(0.04248228784 -0.001063135827 0.003581729865)
(0.04250851666 -0.001725039354 0.003540571513)
(0.04257833186 -0.002318379478 0.003488282062)
(0.04272739413 -0.002813743843 0.003434877117)
(0.04299045302 -0.003176725474 0.003381525016)
(0.01080047924 0.0009336206983 7.388471499e-05)
(0.01082055438 0.000881178475 7.949899625e-05)
(0.01084557783 0.0007621050009 8.543609933e-05)
(0.01087233545 0.0005876600159 9.083033395e-05)
(0.01089459259 0.0003703630002 9.461127177e-05)
(0.01090715912 0.0001264647474 9.65009354e-05)
(0.01090715388 -0.000126448998 9.650066682e-05)
(0.01089457769 -0.0003703481192 9.46099686e-05)
(0.01087231272 -0.0005876482481 9.082804657e-05)
(0.0108455479 -0.0007620959032 8.543308864e-05)
(0.01082052188 -0.0008811714708 7.949618769e-05)
(0.01080044544 -0.0009336175824 7.388264916e-05)
(0.02763396067 0.001984275426 0.0008081520265)
(0.02756156409 0.001826950272 0.0008333133108)
(0.02751851465 0.001550154888 0.0008640316556)
(0.02750358296 0.001179777967 0.0008930293577)
(0.02750314983 0.0007373491193 0.0009153426215)
(0.02750602899 0.0002507245213 0.0009269501762)
(0.0275060182 -0.0002507208338 0.000926950373)
(0.02750311639 -0.0007373472127 0.000915342346)
(0.02750352859 -0.001179779173 0.0008930271022)
(0.02751844279 -0.001550156425 0.0008640265964)
(0.02756148193 -0.001826950842 0.0008333072658)
(0.02763387404 -0.00198427655 0.000808146044)
(0.03732851313 0.002572540461 0.001760665913)
(0.03717904538 0.00233125189 0.001805254761)
(0.03708244218 0.001957798857 0.001857164875)
(0.03703536339 0.001480560066 0.001904111321)
(0.03701944075 0.0009221102309 0.001939797852)
(0.03701684944 0.0003128263623 0.00195853728)
(0.03701683508 -0.0003128599326 0.001958536921)
(0.03701939548 -0.0009221451558 0.001939797699)
(0.0370352889 -0.001480595303 0.001904110637)
(0.03708234205 -0.001957827982 0.001857163231)
(0.03717892968 -0.002331273829 0.001805250994)
(0.03732839269 -0.002572554619 0.00176066335)
(0.04151557462 0.002877058832 0.0025823987)
(0.04136003646 0.002600199293 0.002642368736)
(0.04125543326 0.002177038291 0.002717870505)
(0.04119665241 0.001648762534 0.00280513276)
(0.04118608093 0.001031970665 0.002883058451)
(0.0411960667 0.000350723011 0.002920573592)
(0.0411960493 -0.0003507649713 0.002920574721)
(0.04118602263 -0.001032015684 0.002883068733)
(0.04119656177 -0.001648809793 0.002805137715)
(0.04125532274 -0.002177080729 0.002717872301)
(0.04135990367 -0.002600235036 0.002642371781)
(0.04151544259 -0.002877079791 0.002582403327)
(0.04287094399 0.00304573674 0.003093354472)
(0.04274866997 0.002782929369 0.003207119196)
(0.04273598955 0.002336791205 0.003301023379)
(0.04273647433 0.001749002905 0.003356978849)
(0.04274909749 0.001082602674 0.00340879408)
(0.04276411439 0.0003666678263 0.003441384346)
(0.04276409332 -0.0003667311203 0.003441387592)
(0.04274903501 -0.00108266521 0.00340880504)
(0.04273637862 -0.001749061651 0.00335699515)
(0.04273586378 -0.002336842152 0.003301043022)
(0.04274853173 -0.002782962979 0.003207123772)
(0.04287082767 -0.003045754071 0.00309336491)
(0.04316674129 0.00242851357 0.003517354036)
(0.04321727294 0.001835076802 0.003606370603)
(0.04327122655 0.001140627341 0.003673428848)
(0.04330506818 0.000386784119 0.003709994201)
(0.04330504706 -0.0003868371424 0.003709996763)
(0.04327116367 -0.001140680666 0.003673438795)
(0.04321717324 -0.001835127768 0.003606384589)
(0.04316660893 -0.002428555501 0.003517372524)
(0.04314944782 -0.002885127218 0.00341639434)
(0.04318608872 -0.003185011823 0.003346153698)
(0.01031678192 0.001009204712 7.915896509e-05)
(0.01039544041 0.0009644222737 9.016785797e-05)
(0.01046963323 0.0008429293865 0.0001004549762)
(0.01053440353 0.0006547471641 0.000109309944)
(0.0105828644 0.0004145585154 0.000115424332)
(0.01060886891 0.0001418943133 0.0001185542307)
(0.01060886409 -0.0001418756134 0.0001185538885)
(0.01058284982 -0.0004145408719 0.0001154229888)
(0.01053438166 -0.0006547322064 0.0001093076319)
(0.01046960733 -0.0008429161943 0.0001004523143)
(0.01039541328 -0.0009644113855 9.016497076e-05)
(0.010316754 -0.001009198986 7.915743497e-05)
(0.02673702606 0.002007789161 0.0007755414786)
(0.0267873812 0.001890273174 0.0008318566269)
(0.02684461115 0.001631474975 0.0008884930693)
(0.02690362957 0.0012565189 0.0009383701297)
(0.02695294256 0.0007911144411 0.0009742387987)
(0.02698102592 0.000270029909 0.0009928722034)
(0.02698101511 -0.0002699926843 0.0009928708063)
(0.02695290954 -0.000791081351 0.0009742347304)
(0.02690357799 -0.001256492347 0.0009383630644)
(0.02684454574 -0.001631453031 0.0008884827491)
(0.02678730792 -0.001890255314 0.0008318437307)
(0.02673695006 -0.00200777959 0.0007755281366)
(0.03640885874 0.002539750599 0.001699120296)
(0.03641824463 0.002365820668 0.00179969601)
(0.03644764501 0.002025938782 0.001901287465)
(0.03649100251 0.001553041264 0.001990879617)
(0.03653371083 0.0009743970623 0.002055421681)
(0.03656016522 0.0003319385911 0.002088569062)
(0.03656015058 -0.0003319128736 0.002088565958)
(0.03653366515 -0.0009743749914 0.002055414662)
(0.03649092836 -0.001553025866 0.001990868706)
(0.03644754761 -0.002025926861 0.001901271058)
(0.03641813295 -0.002365811734 0.001799675988)
(0.03640874363 -0.0025397451 0.001699097543)
(0.04083555844 0.002859283919 0.002545728452)
(0.04086247413 0.002655560119 0.00268254674)
(0.04092470243 0.002265771955 0.002813246761)
(0.0410005861 0.001733623584 0.002941798248)
(0.04107217184 0.001085060946 0.003035755911)
(0.04111253569 0.0003691431645 0.0030858214)
(0.04111251921 -0.0003691398151 0.003085820107)
(0.04107212189 -0.00108505913 0.003035751325)
(0.04100049794 -0.001733627558 0.00294179012)
(0.04092457863 -0.002265775544 0.002813228388)
(0.04086233989 -0.002655562988 0.002682521563)
(0.04083542142 -0.002859284696 0.002545702319)
(0.04254784622 0.00309001272 0.003139169547)
(0.04263959646 0.002872304025 0.003320029384)
(0.04276066458 0.002453411573 0.00348241665)
(0.0428965629 0.001877751053 0.003617193883)
(0.04300740086 0.001178839171 0.003725136917)
(0.04306837337 0.0004015335598 0.003784863165)
(0.04306835607 -0.0004015306178 0.003784858339)
(0.04300734764 -0.001178838238 0.003725124558)
(0.04289647234 -0.001877757805 0.003617183039)
(0.04276053795 -0.002453421792 0.003482402634)
(0.04263945147 -0.002872319107 0.003320012086)
(0.04254769684 -0.003090015914 0.003139147409)
(0.04356799131 0.002637504161 0.003851054452)
(0.04375876487 0.002024091629 0.004018590897)
(0.04390997754 0.001271676067 0.004142858591)
(0.04399391376 0.0004335726982 0.004209722598)
(0.04399389952 -0.0004335576734 0.004209716614)
(0.04390993175 -0.001271664227 0.00414284382)
(0.04375868563 -0.002024086122 0.004018570177)
(0.04356787488 -0.002637503017 0.003851032046)
(0.04336655272 -0.003069473215 0.003655643028)
(0.04316529206 -0.003295819742 0.003469050818)
(0.009797819998 0.001155658387 9.229656643e-05)
(0.009926711471 0.001112054281 0.0001092594099)
(0.01004604361 0.0009774494432 0.0001247210642)
(0.01014788825 0.000762423421 0.0001375571417)
(0.01022271757 0.000484300529 0.0001466087204)
(0.01026237454 0.0001660557383 0.0001513361156)
(0.0102623699 -0.0001660410302 0.0001513358054)
(0.01022270446 -0.00048428638 0.0001466079034)
(0.01014786959 -0.0007624103584 0.000137556074)
(0.01004602204 -0.0009774368488 0.0001247198138)
(0.009926688588 -0.001112043926 0.0001092579928)
(0.009797797679 -0.001155651519 9.229669179e-05)
(0.02577341218 0.00217655217 0.0008573328346)
(0.02593892176 0.002075427173 0.0009506579806)
(0.02609452694 0.001811164011 0.001038195009)
(0.0262319332 0.001405539068 0.001111598504)
(0.02633583187 0.0008898052426 0.00116448948)
(0.02639179846 0.0003046076607 0.001192514502)
(0.02639178759 -0.0003045620364 0.001192512328)
(0.02633579965 -0.0008897632055 0.0011644831)
(0.02623188491 -0.001405503385 0.001111589044)
(0.02609446772 -0.001811134196 0.001038184301)
(0.02593885841 -0.002075402996 0.0009506460785)
(0.02577334936 -0.002176538009 0.000857322009)
(0.03539732929 0.002675488781 0.001845241063)
(0.03556683206 0.002533246256 0.002013121579)
(0.03573222407 0.002197901508 0.00217360955)
(0.03588363529 0.001698088934 0.002311433194)
(0.03600011311 0.001072090586 0.002412161715)
(0.03606331878 0.0003666483021 0.002465498876)
(0.03606330455 -0.0003665897247 0.002465494371)
(0.03600006946 -0.001072036945 0.002412150146)
(0.03588356679 -0.001698042777 0.002311415268)
(0.03573213523 -0.002197863527 0.002173588545)
(0.03556673294 -0.002533217851 0.002013097972)
(0.03539722968 -0.002675472194 0.001845215737)
(0.0400195019 0.003012294958 0.002754362684)
(0.04024616381 0.002845707075 0.002987800754)
(0.04047394558 0.002467901422 0.003206942183)
(0.04069636684 0.001901083234 0.003377607905)
(0.04086083467 0.001196018933 0.003500887823)
(0.04094602926 0.0004083343141 0.003570375526)
(0.04094601452 -0.0004082787953 0.003570370087)