/*--------------------------------*- C++ -*----------------------------------*\
| =========                 |                                                 |
| \\      /  F ield         | OpenFOAM: The Open Source CFD Toolbox           |
|  \\    /   O peration     | Version:  4.x                                   |
|   \\  /    A nd           | Web:      www.OpenFOAM.org                      |
|    \\/     M anipulation  |                                                 |
\*---------------------------------------------------------------------------*/
FoamFile
{
    version     2.0;
    format      ascii;
    class       surfaceScalarField;
    location    "0.83";
    object      phi;
}
// * * * * * * * * * * * * * * * * * * * * * * * * * * * * * * * * * * * * * //

dimensions      [1 0 -1 0 0 0 0];

internalField   nonuniform List<scalar> 
17503
(
5.100830127e-09
5.095547736e-09
-1.019637211e-08
9.89430259e-09
5.200355866e-09
-9.99382825e-09
1.407892373e-08
5.40331242e-09
-9.587934135e-09
1.735812608e-08
5.697684101e-09
-8.976889341e-09
1.94713222e-08
6.071989973e-09
-8.185189038e-09
6.522623608e-09
-7.26994505e-09
2.021863737e-08
5.205648261e-09
9.884175182e-09
-9.994276808e-09
1.009883398e-08
1.008867399e-08
-9.781514877e-09
1.437419314e-08
1.048705159e-08
-9.359108281e-09
1.773297611e-08
1.107073688e-08
-8.731850088e-09
1.991419036e-08
1.182271839e-08
-7.931960513e-09
1.27424655e-08
-7.023697713e-09
2.07180277e-08
5.408606137e-09
1.406473708e-08
-9.589170101e-09
1.04972394e-08
1.435993333e-08
-9.359901175e-09
1.495517772e-08
1.494082327e-08
-8.911720505e-09
1.848108278e-08
1.580609229e-08
-8.26127544e-09
2.081526373e-08
1.694319159e-08
-7.454669998e-09
1.837430801e-08
-6.568143514e-09
2.175154928e-08
5.702946659e-09
1.734084922e-08
-8.979062896e-09
1.108090034e-08
1.771556732e-08
-8.733599221e-09
1.582049298e-08
1.846347049e-08
-8.262253962e-09
1.962020264e-08
1.960240134e-08
-7.596035769e-09
2.222570526e-08
2.113566247e-08
-6.797990268e-09
2.314645303e-08
-5.95697227e-09
2.341051743e-08
6.077162299e-09
1.945190611e-08
-8.18822334e-09
1.18327492e-08
1.989457556e-08
-7.934609654e-09
1.695750244e-08
2.079530969e-08
-7.456607414e-09
2.115352432e-08
2.220535605e-08
-6.79899342e-09
2.41768165e-08
2.415612297e-08
-6.043768444e-09
2.683308776e-08
-5.293537004e-09
2.578370426e-08
6.52762557e-09
-7.273590677e-09
2.0197864e-08
1.275221542e-08
-7.027014337e-09
2.069698514e-08
1.838832437e-08
-6.57084302e-09
2.173002922e-08
2.316412806e-08
-5.958830441e-09
2.33883678e-08
2.685385744e-08
-5.29443503e-09
2.576081504e-08
-4.704407885e-09
2.918389036e-08
2.920744851e-08
9.55908079e-09
9.549626621e-09
-2.93050681e-08
1.865456106e-08
9.728921078e-09
-2.881822059e-08
2.679204001e-08
1.007403997e-08
-2.779944774e-08
3.345612984e-08
1.056922177e-08
-2.621020129e-08
3.813454296e-08
1.119112103e-08
-2.405472682e-08
1.192583001e-08
-2.141943075e-08
4.035819316e-08
9.738389712e-09
1.863627079e-08
-2.881930183e-08
1.900290634e-08
1.898456356e-08
-2.830167346e-08
2.729084542e-08
1.965761842e-08
-2.723062863e-08
3.408277158e-08
2.063180293e-08
-2.558636584e-08
3.886599945e-08
2.186942396e-08
-2.339350299e-08
2.335207128e-08
-2.075636186e-08
4.117241105e-08
1.008350827e-08
2.676603543e-08
-2.780243748e-08
1.967600406e-08
2.726471698e-08
-2.723255155e-08
2.826260083e-08
2.823631283e-08
-2.607701688e-08
3.531810339e-08
2.966336956e-08
-2.434835547e-08
4.033144859e-08
3.150926532e-08
-2.210786856e-08
3.377671644e-08
-1.948910393e-08
4.282775353e-08
1.057863218e-08
3.342379889e-08
-2.62154577e-08
2.065013903e-08
3.405021022e-08
-2.559060579e-08
2.968972986e-08
3.52851897e-08
-2.435073219e-08
3.716896724e-08
3.713573276e-08
-2.254765052e-08
4.258354524e-08
3.958420577e-08
-2.028752308e-08
4.270770629e-08
-1.773440398e-08
4.542997451e-08
1.120036768e-08
3.809723609e-08
-2.40620314e-08
2.188752049e-08
3.882833368e-08
-2.33998966e-08
3.153546029e-08
4.0293187e-08
-2.211255765e-08
3.961753475e-08
4.254460473e-08
-2.028995558e-08
4.564266017e-08
4.560317359e-08
-1.808787767e-08
4.966197933e-08
-1.569555159e-08
4.909038684e-08
1.193477204e-08
-2.142809827e-08
4.031696555e-08
2.336966695e-08
-2.076427266e-08
4.113068556e-08
3.38023806e-08
-1.949557709e-08
4.278519498e-08
4.274070164e-08
-1.773888967e-08
4.538632862e-08
4.970156007e-08
-1.569778909e-08
4.904565324e-08
-1.357896089e-08
5.409618887e-08
5.414188559e-08
1.1289785e-08
1.127866666e-08
-5.187349309e-08
2.212823823e-08
1.151339586e-08
-5.117004541e-08
3.201643293e-08
1.19583527e-08
-4.964597581e-08
4.037329833e-08
1.257928471e-08
-4.714633799e-08
4.656235418e-08
1.333079994e-08
-4.357457264e-08
1.417698923e-08
-3.898336388e-08
4.994930495e-08
1.152451722e-08
2.210666281e-08
-5.117179027e-08
2.257850049e-08
2.255688808e-08
-5.039913065e-08
3.264724454e-08
2.341282602e-08
-4.875383056e-08
4.114231604e-08
2.461721075e-08
-4.611935533e-08
4.74289966e-08
2.609098365e-08
-4.244036362e-08
2.777912091e-08
-3.780184055e-08
5.087234551e-08
1.19694464e-08
3.198563653e-08
-4.965083663e-08
2.343444436e-08
3.261632725e-08
-4.875697193e-08
3.385469413e-08
3.382363426e-08
-4.690806386e-08
4.263027119e-08
3.554738759e-08
-4.405410515e-08
4.913200388e-08
3.769519391e-08
-4.021381055e-08
4.022887607e-08
-3.55266531e-08
5.27197974e-08
1.259027523e-08
4.033485171e-08
-4.715493218e-08
2.463871008e-08
4.110361341e-08
-4.612631724e-08
3.557846524e-08
4.259118078e-08
-4.405802934e-08
4.479981095e-08
4.476039603e-08
-4.098200618e-08
5.16884803e-08
4.752664014e-08
-3.70076438e-08
5.093495526e-08
-3.233649789e-08
5.558448731e-08
1.334155773e-08
4.651780356e-08
-4.358653002e-08
2.61121279e-08
4.738402468e-08
-4.245087467e-08
3.772599237e-08
4.908632384e-08
-4.022156553e-08
4.756609352e-08
5.164202384e-08
-3.701169079e-08
5.504234981e-08
5.499529311e-08
-3.30327975e-08
5.935268277e-08
-2.853703502e-08
5.946609146e-08
1.418734776e-08
-3.89974608e-08
4.989982476e-08
2.779958962e-08
-3.781477597e-08
5.082228655e-08
4.025893939e-08
-3.553731104e-08
5.266870544e-08
5.097389892e-08
-3.23439356e-08
5.553210273e-08
5.939971695e-08
-2.854076874e-08
5.941244242e-08
-2.443924671e-08
6.477904834e-08
6.483361842e-08
1.164867773e-08
1.163693678e-08
-7.515907088e-08
2.292448325e-08
1.195886751e-08
-7.440467961e-08
3.338261759e-08
1.255931684e-08
-7.266339359e-08
4.243297073e-08
1.337330548e-08
-6.956996987e-08
4.93825987e-08
1.43181504e-08
-6.484233049e-08
1.532506609e-08
-5.842598206e-08
5.350016697e-08
1.19705841e-08
2.290160219e-08
-7.440699979e-08
2.353413819e-08
2.351126422e-08
-7.351504384e-08
3.421968447e-08
2.465150186e-08
-7.153153003e-08
4.342456575e-08
2.620791197e-08
-6.815882074e-08
5.045975067e-08
2.803101648e-08
-6.318839986e-08
3.000707481e-08
-5.66232743e-08
5.459918645e-08
1.25709563e-08
3.33498012e-08
-7.266995523e-08
2.467430248e-08
3.418678762e-08
-7.153580806e-08
3.579296334e-08
3.57599985e-08
-6.913519506e-08
4.530407048e-08
3.793447406e-08
-6.529175617e-08
5.25282052e-08
4.05198419e-08
-5.992675925e-08
4.340580846e-08
-5.313991283e-08
5.674273774e-08
1.338477964e-08
4.239188001e-08
-6.958175843e-08
2.623048904e-08
4.33832337e-08
-6.816844725e-08
3.796734785e-08
4.52623814e-08
-6.529725182e-08
4.795166029e-08
4.790971513e-08
-6.094154813e-08
5.552653783e-08
5.111564103e-08
-5.517831626e-08
5.486317875e-08
-4.822671903e-08
5.995938701e-08
1.43293247e-08
4.933501217e-08
-6.485896084e-08
2.805311969e-08
5.041171765e-08
-6.320313649e-08
4.055230448e-08
5.247942059e-08
-5.993777731e-08
5.115752876e-08
5.54769667e-08
-5.518416215e-08
5.924017218e-08
5.919000766e-08
-4.918981015e-08
6.3853815e-08
-4.229878333e-08
6.401127676e-08
1.533577516e-08
-5.844578313e-08
5.344757919e-08
3.002837571e-08
-5.664160381e-08
5.454595578e-08
4.343736995e-08
-5.315523283e-08
5.668835481e-08
5.490438479e-08
-4.823759334e-08
5.99036089e-08
6.39037688e-08
-4.230430432e-08
6.395415311e-08
-3.587747194e-08
6.95689667e-08
6.962683305e-08
1.106193498e-08
1.10507619e-08
-9.727174035e-08
2.185489821e-08
1.149601325e-08
-9.669362121e-08
3.199507216e-08
1.232166018e-08
-9.512519718e-08
4.090101814e-08
1.342319337e-08
-9.189908399e-08
4.787121555e-08
1.467127925e-08
-8.648378697e-08
1.594952346e-08
-7.86689116e-08
5.216463829e-08
1.150712543e-08
2.183290052e-08
-9.669622651e-08
2.269539082e-08
2.267346118e-08
-9.588071714e-08
3.313990726e-08
2.423164962e-08
-9.388600383e-08
4.224066752e-08
2.632005335e-08
-9.015641704e-08
4.9298127e-08
2.869815188e-08
-8.427271419e-08
3.116251779e-08
-7.611501341e-08
5.357688601e-08
1.233263465e-08
3.19631063e-08
-9.513275874e-08
2.42534047e-08
3.310792148e-08
-9.389100351e-08
3.5267429e-08
3.523547653e-08
-9.115301864e-08
4.47416125e-08
3.811131947e-08
-8.655718474e-08
5.198182188e-08
4.141262261e-08
-7.988142325e-08
4.490973798e-08
-7.11571685e-08
5.625186914e-08
1.343394085e-08
4.086050483e-08
-9.191306523e-08
2.634147686e-08
4.219994216e-08
-9.016797714e-08
3.814306386e-08
4.470058557e-08
-8.656392575e-08
4.816628281e-08
4.81250841e-08
-8.097851448e-08
5.573514397e-08
5.208865908e-08
-7.34232016e-08
5.646643089e-08
-6.415436613e-08
6.010610564e-08
1.468168677e-08
4.782394798e-08
-8.650406415e-08
2.871903163e-08
4.925039156e-08
-8.429091158e-08
4.144387783e-08
5.193331254e-08
-7.989533381e-08
5.21297458e-08
5.568586535e-08
-7.343079912e-08
6.012821923e-08
6.007833581e-08
-6.517795264e-08
6.5389011e-08
-5.56588939e-08
6.456575524e-08
1.595948243e-08
-7.869373471e-08
5.211243865e-08
3.118261871e-08
-7.613830818e-08
5.352397378e-08
4.494009879e-08
-7.117709118e-08
5.619770375e-08
5.650680051e-08
-6.416890928e-08
6.005048881e-08
6.543851533e-08
-5.566642586e-08
6.450874959e-08
-4.649950587e-08
7.06962192e-08
7.075334711e-08
9.675038754e-09
9.66589405e-09
-1.166126582e-07
1.918533216e-08
1.024207678e-08
-1.16445964e-07
2.81903614e-08
1.131193599e-08
-1.15442141e-07
3.611267187e-08
1.273626291e-08
-1.125576425e-07
4.229391583e-08
1.435466193e-08
-1.070196847e-07
1.601853789e-08
4.61150787e-08
-9.850860624e-08
1.025112813e-08
1.916702816e-08
-1.164484606e-07
2.027590654e-08
2.025772114e-08
-1.159211092e-07
2.967765909e-08
2.227820223e-08
-1.142540021e-07
3.786076408e-08
2.498088327e-08
-1.105841315e-07
4.417226994e-08
2.806761318e-08
-1.042971658e-07
3.128218051e-08
4.800889546e-08
-9.521527661e-08
1.132079547e-08
2.81632047e-08
-1.154497083e-07
2.229613122e-08
2.965051883e-08
-1.142591168e-07
3.244254155e-08
3.241549065e-08
-1.114367051e-07
4.113169677e-08
3.614551135e-08
-1.064109605e-07
4.772901601e-08
4.044841496e-08
-9.88595394e-08
4.497627309e-08
5.160284984e-08
-8.872509037e-08
1.274484271e-08
3.607757094e-08
-1.125722588e-07
2.499839149e-08
3.782542383e-08
-1.10596422e-07
3.617228475e-08
4.109600745e-08
-1.064183296e-07
4.560699975e-08
4.557110069e-08
-9.983881467e-08
5.265464514e-08
5.073511132e-08
-9.075754034e-08
5.625729189e-08
5.664459817e-08
-7.942533454e-08
1.436286832e-08
4.225234645e-08
-1.070417003e-07
2.808451591e-08
4.413010353e-08
-1.043172375e-07
4.04746433e-08
4.768585763e-08
-9.887530968e-08
5.077091687e-08
5.261050677e-08
-9.076647777e-08
5.829629762e-08
5.825143186e-08
-8.021965268e-08
6.464498014e-08
6.2121922e-08
-6.787220153e-08
1.602632891e-08
4.60688633e-08
-9.853657632e-08
3.129835509e-08
4.796172579e-08
-9.524195735e-08
4.500168973e-08
5.155404068e-08
-8.874860813e-08
5.629251567e-08
5.65939299e-08
-7.944315705e-08
6.46896159e-08
6.206966718e-08
-6.788175658e-08
6.897340137e-08
6.902562102e-08
-5.516392389e-08
7.027278695e-09
1.94925039e-08
-6.321926584e-09
1.379706156e-08
2.003249523e-08
-6.105303417e-09
2.007298297e-08
2.116497338e-08
-5.710875579e-09
2.561292942e-08
2.30336245e-08
-5.185212375e-09
3.011832174e-08
2.592409378e-08
-4.668678451e-09
2.991392951e-08
-4.15196993e-09
3.354024417e-08
7.561582227e-09
1.744706046e-08
-5.516143186e-09
1.495308057e-08
1.796742677e-08
-5.326432188e-09
2.201929958e-08
1.911048026e-08
-5.011727208e-09
2.860555165e-08
2.108359931e-08
-4.636227793e-09
3.458041187e-08
2.429424723e-08
-4.345018408e-09
2.931283365e-08
-4.028979693e-09
3.921048037e-08
8.131534463e-09
1.417361438e-08
-4.858087751e-09
1.617864575e-08
1.464885571e-08
-4.728530923e-09
2.4101888e-08
1.571893894e-08
-4.531691006e-09
3.190437571e-08
1.762827063e-08
-4.347148788e-09
3.964433265e-08
2.09165244e-08
-4.362234821e-09
2.646751363e-08
-4.426202917e-09
4.69158421e-08
8.651135059e-09
9.957049937e-09
-4.434564286e-09
1.73379125e-08
1.032905248e-08
-4.366952657e-09
2.617381105e-08
1.118485428e-08
-4.301792507e-09
3.540075413e-08
1.273679051e-08
-4.335443313e-09
4.545902167e-08
1.555342066e-08
-4.695151673e-09
2.050147702e-08
-5.331346727e-09
5.675639335e-08
9.066966366e-09
5.120048304e-09
-4.229951635e-09
1.828567473e-08
5.327060718e-09
-4.216685877e-09
2.792379761e-08
5.810421843e-09
-4.263662052e-09
3.845404457e-08
6.691994122e-09
-4.485433445e-09
5.080397353e-08
8.35133918e-09
-5.147838152e-09
1.131194791e-08
-6.342423266e-09
6.633592028e-08
9.303701637e-09
-1.982145003e-11
-4.163812697e-09
1.883147064e-08
-1.925833019e-11
-4.181410762e-09
2.89520529e-08
-1.818710037e-11
-4.291939365e-09
4.028303549e-08
-1.669653502e-11
-4.622269574e-09
5.410117094e-08
-1.487031515e-11
-5.451912602e-09
-1.324883107e-11
-6.985740615e-09
7.241210561e-08
9.304303344e-09
-5.159058143e-09
-4.165045871e-09
1.883263051e-08
-5.364995005e-09
-4.182548912e-09
2.895366853e-08
-5.846298943e-09
-4.292896973e-09
4.028498072e-08
-6.725012091e-09
-4.622978196e-09
5.410327345e-08
-8.380829672e-09
-5.452325357e-09
-1.133825143e-08
-6.985883386e-09
7.241414827e-08
9.068749738e-09
-9.994224123e-09
-4.233563078e-09
1.828909762e-08
-1.036527814e-08
-4.220030315e-09
2.792858873e-08
-1.121927151e-08
-4.266499396e-09
3.845987573e-08
-1.276868702e-08
-4.487603906e-09
5.081037212e-08
-1.558212434e-08
-5.149205402e-09
-2.05271485e-08
-6.34305688e-09
6.634229854e-08
8.653915981e-09
-1.420779623e-08
-4.440323506e-09
1.734325689e-08
-1.468225559e-08
-4.372340396e-09
2.618135605e-08
-1.575088735e-08
-4.306471679e-09
3.540998738e-08
-1.765813848e-08
-4.339180024e-09
4.546927045e-08
-2.09436918e-08
-4.697727079e-09
-2.649179319e-08
-5.332882833e-09
5.676675314e-08
8.135022809e-09
-1.747719129e-08
-4.865611598e-09
1.618545297e-08
-1.799701636e-08
-4.735656809e-09
2.411161569e-08
-1.913900386e-08
-4.538041531e-09
3.191647212e-08
-2.111054102e-08
-4.352462377e-09
3.965807761e-08
-2.431906449e-08
-4.3662426e-09
-2.93349326e-08
-4.429067354e-09
4.693026422e-08
7.565535985e-09
-1.951782311e-08
-5.52489465e-09
1.496088668e-08
-2.00575629e-08
-5.334796895e-09
2.203061313e-08
-2.118932583e-08
-5.019405464e-09
2.861983368e-08
-2.305679585e-08
-4.642981148e-09
3.459673542e-08
-2.594550489e-08
-4.350474494e-09
-2.993318162e-08
-4.033306084e-09
3.922829001e-08
7.031661489e-09
-6.331390026e-09
-2.02180898e-08
1.380567411e-08
-6.114540043e-09
-2.071702975e-08
2.00854797e-08
-5.719519472e-09
-2.17496175e-08
2.562876616e-08
-5.192991647e-09
-2.340710937e-08
3.013700529e-08
-4.67530746e-09
-2.577845735e-08
-4.157352438e-09
-2.919905774e-08
3.356023005e-08
1.274712793e-08
3.97719751e-08
-1.852406777e-08
2.503917226e-08
4.063136244e-08
-1.789802962e-08
3.644340219e-08
4.239502786e-08
-1.672494353e-08
4.654703487e-08
4.522718066e-08
-1.512970419e-08
5.492469846e-08
4.939082335e-08
-1.339152524e-08
5.534323366e-08
-1.165503974e-08
6.118069875e-08
1.357564433e-08
3.636264571e-08
-1.568245454e-08
2.681202631e-08
3.718250632e-08
-1.511395092e-08
3.934937512e-08
3.892639916e-08
-1.408043974e-08
5.085330187e-08
4.182158249e-08
-1.273455015e-08
6.102792637e-08
4.628815453e-08
-1.141698025e-08
5.31544578e-08
-1.006115181e-08
6.924885482e-08
1.444908812e-08
3.014872391e-08
-1.30932404e-08
2.864967742e-08
3.08790698e-08
-1.262566175e-08
4.236809356e-08
3.247969097e-08
-1.18033777e-08
5.541341222e-08
3.51961622e-08
-1.076702913e-08
6.760563013e-08
3.96168044e-08
-9.883096256e-09
4.683511305e-08
-8.967869121e-09
7.846662635e-08
1.524865271e-08
2.154553087e-08
-1.107999912e-08
3.036515307e-08
2.211211538e-08
-1.071646335e-08
4.527426415e-08
2.337191261e-08
-1.010309497e-08
5.997065234e-08
2.554368164e-08
-9.379333685e-09
7.454239035e-08
2.926023542e-08
-8.910308494e-09
3.554504357e-08
-8.406005399e-09
8.89071103e-08
1.587536327e-08
1.120895712e-08
-9.768706328e-09
3.173481145e-08
1.152326033e-08
-9.487230733e-09
4.765870207e-08
1.222771869e-08
-9.043318236e-09
6.381734558e-08
1.345281219e-08
-8.553183785e-09
8.065691267e-08
1.563057147e-08
-8.357727524e-09
1.937119709e-08
-8.136740252e-09
9.862506773e-08
1.622823795e-08
-4.216649327e-11
-9.140889449e-09
3.251487857e-08
-4.128339985e-11
-8.903455196e-09
4.904245783e-08
-3.95725841e-11
-8.552187914e-09
6.607850071e-08
-3.721537517e-11
-8.168263301e-09
8.436670871e-08
-3.42821505e-11
-8.075258138e-09
-3.188860886e-11
-7.94631903e-09
1.047303557e-07
1.622923288e-08
-1.129121585e-08
-9.145194065e-09
3.251679141e-08
-1.160381645e-08
-8.907529073e-09
4.904511831e-08
-1.23049848e-08
-8.555782359e-09
6.60817194e-08
-1.352546492e-08
-8.171315967e-09
8.437021545e-08
-1.569746457e-08
-8.077637514e-09
-1.943312838e-08
-7.948247952e-09
1.047337938e-07
1.587821642e-08
-2.162196269e-08
-9.78099837e-09
3.17403332e-08
-2.218706193e-08
-9.498865925e-09
4.76664606e-08
-2.344396816e-08
-9.053623962e-09
6.382684784e-08
-2.561150167e-08
-8.561947048e-09
8.066750107e-08
-2.93226274e-08
-8.364696612e-09
-3.560220627e-08
-8.142409814e-09
9.863590898e-08
1.525306809e-08
-3.021652863e-08
-1.109879503e-08
3.037373992e-08
-3.094569213e-08
-1.073435613e-08
4.528649747e-08
-3.254393335e-08
-1.011925449e-08
5.998582268e-08
-3.525688307e-08
-9.393126732e-09
7.455963156e-08
-3.967269658e-08
-8.921469582e-09
-4.688551237e-08
-8.41525146e-09
8.892529288e-08
1.445462156e-08
-3.641989427e-08
-1.311684424e-08
2.866054669e-08
-3.723897787e-08
-1.264827889e-08
4.238392681e-08
-3.898126112e-08
-1.182409251e-08
5.543344978e-08
-4.187370027e-08
-1.078518206e-08
6.762885954e-08
-4.633628231e-08
-9.898077099e-09
-5.319738901e-08
-8.980576584e-09
7.849224305e-08
1.358217606e-08
-3.981819842e-08
-1.57087492e-08
2.682483608e-08
-4.067703564e-08
-1.51393863e-08
3.936803849e-08
-4.243956945e-08
-1.410430201e-08
5.087715906e-08
-4.526974013e-08
-1.275607975e-08
6.105625931e-08
-4.943031364e-08
-1.143556562e-08
-5.53784697e-08
-1.00770168e-08
6.928105152e-08
1.275413859e-08
-1.855126366e-08
-4.035244784e-08
2.505313786e-08
-1.792472348e-08
-4.116584087e-08
3.646401992e-08
-1.675046571e-08
-4.281950971e-08
4.657384709e-08
-1.515336983e-08
-4.541920397e-08
5.495716352e-08
-1.341258541e-08
-4.907636697e-08
-1.167327044e-08
-5.41226798e-08
6.121729239e-08
1.508748396e-08
4.994120557e-08
-3.365292571e-08
2.963286653e-08
5.087329292e-08
-3.249441444e-08
4.310422076e-08
5.277964318e-08
-3.030723342e-08
5.499537866e-08
5.581930702e-08
-2.730806842e-08
6.487136386e-08
6.01465269e-08
-2.40016024e-08
6.645485806e-08
-2.058780386e-08
7.212830174e-08
1.599686347e-08
4.626377218e-08
-2.80018726e-08
3.152764784e-08
4.715838358e-08
-2.692981303e-08
4.614105376e-08
4.903117966e-08
-2.494537116e-08
5.945137035e-08
5.209621608e-08
-2.23217692e-08
7.114424401e-08
5.672993417e-08
-1.969326417e-08
6.406734914e-08
-1.697327728e-08
8.044387304e-08
1.689287136e-08
3.88585755e-08
-2.258089415e-08
3.341761577e-08
3.964966268e-08
-2.164166019e-08
4.925417698e-08
4.135791568e-08
-1.996665342e-08
6.416616147e-08
4.423274258e-08
-1.781552714e-08
7.798409586e-08
4.884750375e-08
-1.581859219e-08
5.666565615e-08
-1.364524326e-08
9.006316111e-08
1.77130377e-08
2.807944299e-08
-1.801387409e-08
3.518380698e-08
2.868976771e-08
-1.722729975e-08
5.226516807e-08
3.003796322e-08
-1.586447211e-08
6.889745023e-08
3.23628757e-08
-1.41417336e-08
8.520070664e-08
3.629190671e-08
-1.265795555e-08
4.321789349e-08
-1.082538438e-08
1.010678485e-07
1.836667071e-08
1.471690136e-08
-1.477280138e-08
3.662107133e-08
1.505647829e-08
-1.410829627e-08
5.478773047e-08
1.581941173e-08
-1.299139056e-08
7.297521672e-08
1.714664841e-08
-1.152442585e-08
9.174032031e-08
1.948989477e-08
-1.032080944e-08
2.369637709e-08
-8.45973387e-09
1.115848227e-07
1.874149234e-08
-5.443917306e-11
-1.311100828e-08
3.74588501e-08
-5.339999351e-11
-1.251088938e-08
5.628948113e-08
-5.14047135e-11
-1.151197044e-08
7.54496973e-08
-4.864709042e-11
-1.013316849e-08
9.587136061e-08
-4.515488617e-11
-8.961864589e-09
-4.217838225e-11
-6.820884038e-09
1.184844731e-07
1.874265038e-08
-1.482205353e-08
-1.312019667e-08
3.746105285e-08
-1.515967393e-08
-1.251961712e-08
5.62925557e-08
-1.591879365e-08
-1.151986966e-08
7.545340963e-08
-1.72407288e-08
-1.014007485e-08
9.587535019e-08
-1.95770908e-08
-8.967638903e-09
-2.377742439e-08
-6.825873092e-09
1.184882221e-07
1.837002105e-08
-2.817446375e-08
-1.479857505e-08
3.662747647e-08
-2.87831694e-08
-1.413279156e-08
5.479668322e-08
-3.012816578e-08
-1.301343756e-08
7.29861343e-08
-3.244837643e-08
-1.154373864e-08
9.175252046e-08
-3.637110667e-08
-1.033706102e-08
-4.329065602e-08
-8.473728059e-09
1.115970762e-07
1.771818679e-08
-3.893946861e-08
-1.805194598e-08
3.519376646e-08
-3.972942323e-08
-1.726365567e-08
5.227921647e-08
-4.143530741e-08
-1.589754968e-08
6.89148951e-08
-4.43063564e-08
-1.417082158e-08
8.522062522e-08
-4.891579125e-08
-1.268251296e-08
-5.672756751e-08
-1.08465392e-08
1.010888161e-07
1.689930119e-08
-4.632898672e-08
-2.26266009e-08
3.343021279e-08
-4.722294988e-08
-2.168564342e-08
4.927235264e-08
-4.909425201e-08
-2.000728067e-08
6.418902301e-08
-5.215670501e-08
-1.785150796e-08
7.801111235e-08
-5.678625311e-08
-1.584971429e-08
-6.411782639e-08
-1.367223651e-08
9.009302634e-08
1.600407726e-08
-4.999088403e-08
-2.805090603e-08
3.15419443e-08
-5.092265193e-08
-2.697753336e-08
4.616204766e-08
-5.28282418e-08
-2.499041026e-08
5.94783915e-08
-5.586635018e-08
-2.236278219e-08
7.117676703e-08
-6.01907744e-08
-1.972943189e-08
-6.649417225e-08
-1.700513632e-08
8.048122915e-08
1.509506895e-08
-3.370178875e-08
-4.993540554e-08
2.964801032e-08
-3.254250519e-08
-5.085779506e-08
4.312686173e-08
-3.035366285e-08
-5.270389147e-08
5.502529182e-08
-2.73517625e-08
-5.556639049e-08
6.490811067e-08
-2.404110112e-08
-5.944508063e-08
-2.062284772e-08
-6.480745817e-08
7.217097391e-08
1.633996543e-08
5.404940638e-08
-5.059470074e-08
3.203869471e-08
5.511590688e-08
-4.876308498e-08
4.646237992e-08
5.724152064e-08
-4.528407771e-08
5.903405363e-08
6.053529416e-08
-4.051142679e-08
6.926028764e-08
6.488220431e-08
-3.515589162e-08
7.120710804e-08
-2.968094112e-08
7.671527734e-08
1.730056374e-08
5.062178201e-08
-4.187479207e-08
3.400686834e-08
5.161126015e-08
-4.013145498e-08
4.953855004e-08
5.364149658e-08
-3.687701592e-08
6.3431276e-08
5.686626379e-08
-3.254545705e-08
7.530910557e-08
6.14824881e-08
-2.817137695e-08
6.878648256e-08
-2.355966467e-08
8.431611899e-08
1.819968567e-08
4.296897619e-08
-3.312774877e-08
3.589707656e-08
4.382928287e-08
-3.155704813e-08
5.261256395e-08
4.564492519e-08
-2.868554882e-08
6.806383959e-08
4.862363024e-08
-2.502415705e-08
8.195945964e-08
5.32785837e-08
-2.151029923e-08
6.110075735e-08
-1.770194969e-08
9.370188246e-08
1.900857667e-08
3.133174435e-08
-2.538518981e-08
3.763829584e-08
3.198974123e-08
-2.401744382e-08
5.557961469e-08
3.341308395e-08
-2.157392422e-08
7.275328824e-08
3.585447881e-08
-1.854624476e-08
8.923300687e-08
3.990936462e-08
-1.576844865e-08
4.713494887e-08
-1.255467871e-08
1.049281013e-07
1.96591054e-08
1.652422586e-08
-1.962435773e-08
3.907672996e-08
1.689181556e-08
-1.842795798e-08
5.816430415e-08
1.770409394e-08
-1.636994763e-08
7.695170737e-08
1.912321656e-08
-1.358055528e-08
9.620956226e-08
2.164704103e-08
-1.131634022e-08
2.627637465e-08
-8.099470079e-09
1.167078572e-07
2.004252672e-08
-6.006908211e-11
-1.656921108e-08
3.994638713e-08
-5.898436159e-11
-1.546391488e-08
5.976787673e-08
-5.684601658e-11
-1.357249612e-08
7.966673117e-08
-5.374308276e-11
-1.085505326e-08
1.010584712e-07
-4.979804166e-11
-8.656768248e-09
-4.588041818e-11
-4.92851524e-09
1.254883422e-07
2.004381977e-08
-1.663862874e-08
-1.658542681e-08
3.994884888e-08
-1.700422063e-08
-1.547937815e-08
5.977134879e-08
-1.781249492e-08
-1.358669956e-08
7.967105715e-08
-1.922595106e-08
-1.086756486e-08
1.010630847e-07
-2.174220983e-08
-8.667258336e-09
-2.636343096e-08
-4.937851767e-09
1.254926119e-07
1.96628784e-08
-3.143112259e-08
-1.966892797e-08
3.908398202e-08
-3.208768303e-08
-1.847040411e-08
5.817422059e-08
-3.350814906e-08
-1.640800222e-08
7.696439974e-08
-3.59449015e-08
-1.361495242e-08
9.62235162e-08
-3.99933104e-08
-1.134507066e-08
-4.721108216e-08
-8.12433774e-09
1.167217809e-07
1.901426113e-08
-4.304873182e-08
-2.54485678e-08
3.764931932e-08
-4.390827926e-08
-2.407809458e-08
5.559516086e-08
-4.572223347e-08
-2.162929186e-08
7.277296034e-08
-4.869774523e-08
-1.859576411e-08
8.925562136e-08
-5.334811236e-08
-1.581036529e-08
-6.116364376e-08
-1.259006481e-08
1.04951706e-07
1.820659632e-08
-5.068159442e-08
-3.320030753e-08
3.591063176e-08
-5.167091637e-08
-3.162702418e-08
5.263220512e-08
-5.370063194e-08
-2.875044486e-08
6.808857612e-08
-5.69242217e-08
-2.508139338e-08
8.198900058e-08
-6.15372151e-08
-2.156103797e-08
-6.883596181e-08
-1.774545835e-08
9.37345367e-08
1.730799128e-08
-5.409117992e-08
-4.194928804e-08
3.402158282e-08
-5.515795394e-08
-4.020407397e-08
4.95602878e-08
-5.728386004e-08
-3.694588012e-08
6.345947377e-08
-6.05774867e-08
-3.26086991e-08
7.534329376e-08
-6.49231292e-08
-2.822733926e-08
-7.124399502e-08
-2.360955691e-08
8.435575159e-08
1.634732011e-08
-5.066599061e-08
-5.34742756e-08
3.205346802e-08
-4.883350044e-08
-5.457309508e-08
4.648470115e-08
-4.535259093e-08
-5.671616019e-08
5.906391922e-08
-4.057660139e-08
-5.99318649e-08
6.929734811e-08
-3.521530157e-08
-6.398235298e-08
-2.973453719e-08
-6.959436882e-08
7.675942518e-08
1.715707022e-08
5.303073583e-08
-6.867004817e-08
3.351895021e-08
5.434046559e-08
-6.594144298e-08
4.831689751e-08
5.686240077e-08
-6.074670893e-08
6.093362249e-08
6.060173943e-08
-5.367939174e-08
7.073287032e-08
6.510296213e-08
-4.554934179e-08
7.14552724e-08
-3.749977702e-08
7.77926611e-08
1.820581075e-08
5.00017628e-08
-5.705160927e-08
3.561097298e-08
5.114480553e-08
-5.434093968e-08
5.147199354e-08
5.340736807e-08
-4.928298716e-08
6.532958741e-08
5.685966961e-08
-4.266096615e-08
7.652673026e-08
6.12862056e-08
-3.555175153e-08
6.835417886e-08
-2.908699875e-08
8.515516511e-08
1.908726569e-08
4.27133695e-08
-4.492659715e-08
3.74320549e-08
4.364356107e-08
-4.240056841e-08
5.43929943e-08
4.554836974e-08
-3.778746808e-08
6.970096322e-08
4.853034468e-08
-3.200278445e-08
8.287748392e-08
5.288810683e-08
-2.628870891e-08
6.074268606e-08
-2.173397615e-08
9.452099258e-08
1.980354341e-08
3.131449361e-08
-3.378983089e-08
3.897794157e-08
3.199579716e-08
-3.154404969e-08
5.706518876e-08
3.341796653e-08
-2.753074503e-08
7.406451878e-08
3.574000221e-08
-2.275521912e-08
9.017686863e-08
3.974653571e-08
-1.87392226e-08
4.774508639e-08
-1.615470031e-08
1.067744801e-07
2.036113018e-08
1.657384186e-08
-2.524480995e-08
4.025505948e-08
1.694000679e-08
-2.326606865e-08
5.939460446e-08
1.771542435e-08
-1.980692951e-08
7.828861619e-08
1.909540294e-08
-1.582995983e-08
9.820798427e-08
2.176866125e-08
-1.32578391e-08
2.727686331e-08
-1.218962447e-08
1.227663562e-07
2.06846947e-08
-5.721230045e-11
-2.06228282e-08
4.102005506e-08
-5.610916267e-11
-1.880313516e-08
6.089567799e-08
-5.360046907e-11
-1.567907916e-08
8.136206394e-08
-4.995768919e-11
-1.217607725e-08
1.048653326e-07
-4.569474686e-11
-1.034569222e-08
-4.051085758e-11
-1.009056463e-08
1.373447514e-07
2.068626069e-08
-1.668110564e-08
-2.064776942e-08
4.102311409e-08
-1.70454726e-08
-1.88268451e-08
6.090010001e-08
-1.781689997e-08
-1.570037086e-08
8.136693272e-08
-1.919010946e-08
-1.219424187e-08
1.048698255e-07
-2.185551256e-08
-1.036033592e-08
-2.735416844e-08
-1.010311357e-08
1.37348754e-07
2.036549289e-08
-3.140323183e-08
-2.531226837e-08
4.02634159e-08
-3.208353928e-08
-2.333023926e-08
5.940676498e-08
-3.350371066e-08
-1.986452342e-08
7.83028319e-08
-3.58213947e-08
-1.587972272e-08
9.822147015e-08
-3.982184168e-08
-1.329736926e-08
-4.781203657e-08
-1.22229495e-08
1.227779666e-07
1.98099865e-08
-4.277919429e-08
-3.388256758e-08
3.89904335e-08
-4.370939038e-08
-3.163267471e-08
5.708287781e-08
-4.561402035e-08
-2.761141191e-08
7.408617158e-08
-4.859505988e-08
-2.282538039e-08
9.019937688e-08
-5.29491906e-08
-1.879621382e-08
-6.079729028e-08
-1.620158608e-08
1.067961661e-07
1.909464139e-08
-5.004600277e-08
-4.502812132e-08
3.744645472e-08
-5.118979768e-08
-4.249842175e-08
5.441356055e-08
-5.345352358e-08
-3.787803912e-08
6.972707177e-08
-5.690696207e-08
-3.208299503e-08
8.290691015e-08
-6.13333462e-08
-2.635671914e-08
-6.839671948e-08
-2.179044192e-08
9.455133626e-08
1.821315599e-08
-5.305732772e-08
-5.715110432e-08
3.562554507e-08
-5.436815666e-08
-5.443810071e-08
5.149339295e-08
-5.689196027e-08
-4.937528771e-08
6.53570317e-08
-6.063335707e-08
-4.274594102e-08
7.655953443e-08
-6.513608775e-08
-3.562709356e-08
-7.14865519e-08
-2.915206127e-08
8.519189589e-08
1.716365821e-08
-6.876129532e-08
-5.212566735e-08
3.35322767e-08
-6.603201392e-08
-5.353825775e-08
4.833705132e-08
-6.083548376e-08
-5.621383854e-08
6.096043316e-08
-5.376459376e-08
-6.006874319e-08
7.076632611e-08
-4.562859192e-08
-6.45286741e-08
-3.757131844e-08
-7.071634049e-08
7.783292342e-08
1.760335713e-08
4.699976382e-08
-8.720430058e-08
3.434558221e-08
4.879194958e-08
-8.351389035e-08
4.926018037e-08
5.221427798e-08
-7.632154012e-08
6.146135026e-08
5.707078989e-08
-6.635741516e-08
6.996238076e-08
6.231543952e-08
-5.429613584e-08
6.900175378e-08
-4.240364936e-08
7.483791109e-08
1.899174201e-08
4.455234359e-08
-7.359592089e-08
3.704455386e-08
4.614448229e-08
-6.974627648e-08
5.30701455e-08
4.922862124e-08
-6.232291206e-08
6.611532062e-08
5.370987274e-08
-5.234521292e-08
7.497327262e-08
5.855142922e-08
-4.064568422e-08
6.563938524e-08
-3.078711456e-08
8.003575262e-08
2.014826468e-08
3.834976278e-08
-5.887226579e-08
3.933427758e-08
3.965760612e-08
-5.509969147e-08
5.642021777e-08
4.225599994e-08
-4.790077294e-08
7.05698306e-08
4.608608012e-08
-3.852859352e-08
8.028924179e-08
5.079505306e-08
-2.825173783e-08
5.873914403e-08
-2.13906001e-08
8.684610264e-08
2.106886304e-08
2.835774655e-08