-1.25 	300 	0.1183484933609231 	101372.5528258149
-1.247497497497497 	300.0341422409106 	0.111132235041942 	101370.4690565028
-1.244994994994995 	300.035365356317 	0.1017246801936553 	101366.93236106
-1.242492492492492 	300.0319499530497 	0.09301582368965905 	101362.7381420916
-1.23998998998999 	300.0277600269288 	0.08019880962640902 	101357.8198326159
-1.237487487487487 	300.0231028484906 	0.06684568295731001 	101352.3141037279
-1.234984984984985 	300.0181180979559 	0.05233777915415169 	101346.4202218675
-1.232482482482482 	300.0127760440014 	0.03689407052697632 	101340.1040522192
-1.22997997997998 	300.0071881116572 	0.02074492590465575 	101333.4973741844
-1.227477477477477 	300.0014871110833 	0.008158637388805 	101326.7574287349
-1.224974974974975 	299.9957743080759 	0.01222084883014952 	101320.0038208383
-1.222472472472472 	299.9901046933496 	0.02865568838472284 	101313.3016907375
-1.21996996996997 	299.9845702042331 	0.04465867534929668 	101306.7596459754
-1.217467467467467 	299.9793332627514 	0.05982593140008781 	101300.5694586014
-1.214964964964965 	299.974467638765 	0.07389103084347241 	101294.8184360536
-1.212462462462462 	299.970033042487 	0.08666277702701203 	101289.5770286582
-1.20995995995996 	299.9661688988039 	0.09783442951347074 	101285.0100300343
-1.207457457457457 	299.9629789754629 	0.1070640612413363 	101281.2400373746
-1.204954954954955 	299.9604841918938 	0.114259879222107 	101278.2915761285
-1.202452452452452 	299.9587001655516 	0.1193842348549637 	101276.1830508233
-1.19994994994995 	299.9576640980641 	0.1223576460969913 	101274.9585807829
-1.197447447447447 	299.9574030063946 	0.1231405795457558 	101274.6499776448
-1.194944944944945 	299.9579266025538 	0.1216397254854647 	101275.2687072542
-1.192442442442442 	299.9592491042221 	0.1177995284861282 	101276.8316106297
-1.18993993993994 	299.9613666136825 	0.1116710263656925 	101279.3339262537
-1.187437437437437 	299.9642194190518 	0.1034403076542228 	101282.7054059584
-1.184934934934935 	299.9677157207449 	0.09334467702473651 	101286.8374368656
-1.182432432432432 	299.9717803106013 	0.08157040610832791 	101291.6412884717
-1.17992992992993 	299.9763382500608 	0.06836458955187856 	101297.0285312266
-1.177427427427427 	299.9813087700366 	0.05395659386539629 	101302.9034890044
-1.174924924924925 	299.9866237623271 	0.03858799079844452 	101309.1859930703
-1.172422422422422 	299.9921867013298 	0.02257161477734959 	101315.761811419
-1.16991991991992 	299.997852345054 	0.007816807848202259 	101322.4594244008
-1.167417417417417 	300.003539023705 	0.01028407656494262 	101329.1823110565
-1.164914914914915 	300.0091971946464 	0.02662325668948529 	101335.8716409703
-1.162412412412412 	300.0147241547544 	0.04260790623535023 	101342.4062701831
-1.15990990990991 	300.0200080220415 	0.05785781371090332 	101348.653702685
-1.157407407407407 	300.024930694936 	0.07208162414103125 	101354.4744218296
-1.154904904904904 	300.0293776012143 	0.08496045614448718 	101359.7328549633
-1.152402402402403 	300.0332663707336 	0.09620328945799277 	101364.3313083933
-1.1498998998999 	300.0365329333943 	0.1056529885560841 	101368.1942281932
-1.147397397397397 	300.0391321995029 	0.1131635414386821 	101371.2680405592
-1.144894894894895 	300.0410408194277 	0.1186519911150627 	101373.5252699254
-1.142392392392392 	300.0422128207077 	0.1220021504046102 	101374.9114362142
-1.13988988988989 	300.0425993579817 	0.1231065936938657 	101375.368519925
-1.137387387387387 	300.0421747695417 	0.1218759279698283 	101374.8664674512
-1.134884884884885 	300.0409277516544 	0.1182606957568858 	101373.3917964869
-1.132382382382382 	300.0388931754009 	0.112416679442474 	101370.9858908862
-1.12987987987988 	300.0361600417066 	0.104507891487424 	101367.7539217185
-1.127377377377377 	300.0327815479493 	0.09473723795654901 	101363.7587333556
-1.124874874874875 	300.0288038142482 	0.08328148251124784 	101359.0551501337
-1.122372372372372 	300.0242988523194 	0.07022632747482044 	101353.7282061429
-1.11986986986987 	300.0193409065323 	0.05585705871798587 	101347.865989437
-1.117367367367367 	300.0140230641576 	0.04049089921276101 	101341.5784865425
-1.114864864864865 	300.0084814437917 	0.02445265716833926 	101335.0265632472
-1.112362362362362 	300.0028063112558 	0.008091094048176253 	101328.3171773091
-1.10985985985986 	299.9970913963145 	0.009128292918727564 	101321.5609754142
-1.107357357357357 	299.9914003014223 	0.02493883068549807 	101314.8333841697
-1.104854854854855 	299.9858185134077 	0.04106691756071289 	101308.235303155
-1.102352352352353 	299.9804912665169 	0.05646167080245839 	101301.9382687445
-1.09984984984985 	299.975541391287 	0.07075813272772687 	101296.0876227705
-1.097347347347347 	299.9710616667656 	0.08370405243637752 	101290.7927973781
-1.094844844844845 	299.9671196478222 	0.0951309208527006 	101286.1337533578
-1.092342342342342 	299.9637625813633 	0.1048190581561456 	101282.1662038579
-1.08983983983984 	299.9610526285558 	0.1126077611221186 	101278.9634088364
-1.087337337337337 	299.9590668408948 	0.1183160645196181 	101276.616504696
-1.084834834834835 	299.957861593728 	0.1217933643801895 	101275.1920227931
-1.082332332332332 	299.9574615686294 	0.1229794122823703 	101274.7192283669
-1.07982982982983 	299.9578643208911 	0.1218242203639027 	101275.1952263239
-1.077327327327327 	299.9590432832711 	0.1184010287965354 	101276.5884116314
-1.074824824824825 	299.9609756404186 	0.1128057374450318 	101278.8719649302
-1.072322322322323 	299.9636285391364 	0.1051519873383615 	101282.0071644764
-1.06981981981982 	299.9669437930043 	0.09557908837317146 	101285.925180654
-1.067317317317317 	299.970862392687 	0.08421440182639113 	101290.5565264459
-1.064814814814815 	299.9753170173702 	0.07132107712939446 	101295.8215427342
-1.062312312312312 	299.9802132249296 	0.05715246772584472 	101301.608628224
-1.05980980980981 	299.9854565576503 	0.04200952848261034 	101307.8063941177
-1.057307307307307 	299.9909395794749 	0.02620639348134673 	101314.287634952
-1.054804804804805 	299.9965456788249 	0.009958274149320798 	101320.9148345324
-1.052302302302302 	300.0022151670452 	0.009013954242655355 	101327.6172862488
-1.0497997997998 	300.0078838110991 	0.02281975808749782 	101334.3189241104
-1.047297297297297 	300.0134304917813 	0.03886959864490767 	101340.8768188626
-1.044794794794795 	300.0187355631288 	0.05418076026474038 	101347.1492261416
-1.042292292292292 	300.0236855812107 	0.06850182312839412 	101353.0022384739
-1.03978978978979 	300.0282023793291 	0.08157712997403702 	101358.3432229632
-1.037287287287287 	300.0322249948456 	0.09319013142583106 	101363.0999125061
-1.034784784784785 	300.0356752005162 	0.1031650886103041 	101367.1799747895
-1.032282282282283 	300.0384752894484 	0.1112507168201729 	101370.4912263573
-1.02977977977978 	300.0405783852939 	0.1172902339284392 	101372.978447502
-1.027277277277277 	300.0419231065438 	0.1211520674659002 	101374.5688279146
-1.024774774774775 	300.042477211037 	0.1227572157372212 	101375.2241180331
-1.022272272272272 	300.0422321201632 	0.1220630403076507 	101374.9343268557
-1.01976976976977 	300.0411907577858 	0.119046918435123 	101373.7028282965
-1.017267267267267 	300.0393756448818 	0.1138140287579755 	101371.5564606085
-1.014764764764765 	300.036844061081 	0.1064630845377812 	101368.5628039408
-1.012262262262262 	300.0336244440637 	0.09717373575065381 	101364.7555020176
-1.00975975975976 	300.0297858921933 	0.08611557825677722 	101360.2164655319
-1.007257257257257 	300.0254045538259 	0.07341268268292996 	101355.0356700101
-1.004754754754755 	300.0205571392191 	0.05935718350345159 	101349.3040611852
-1.002252252252252 	300.0153232508368 	0.04422384624895101 	101343.1157547097
-0.9997497497497498 	300.0098171570285 	0.02830102821994069 	101336.6057985971
-0.9972472472472473 	300.0041247719644 	0.01191642832855688 	101329.8759233446
-0.9947447447447449 	299.998383672123 	0.008936976772573714 	101323.0887427263
-0.9922422422422421 	299.9926750160928 	0.02125221703389749 	101316.3402506392
-0.9897397397397399 	299.9870849940571 	0.03740300225735291 	101309.7323651845
-0.9872372372372376 	299.9817314456016 	0.05287718990879525 	101303.4042464403
-0.9847347347347346 	299.9767098319251 	0.06738027991504619 	101297.4686825725
-0.9822322322322323 	299.9721109352885 	0.0806666132834481 	101292.0330365178
-0.9797297297297296 	299.9680152763838 	0.09253106357989939 	101287.1922916843
-0.9772272272272275 	299.9644990060364 	0.1026598224752371 	101283.0365454387
-0.9747247247247248 	299.9616488108591 	0.1108735646728422 	101279.668085263
-0.9722222222222224 	299.9595318648747 	0.116980012062216 	101277.1661020143
-0.9697197197197196 	299.9581827070301 	0.1208730391689989 	101275.5715913903
-0.9672172172172175 	299.9576174874698 	0.1225399909260181 	101274.9035210709
-0.9647147147147147 	299.9578328887578 	0.1219085584856821 	101275.1580945856
-0.9622122122122124 	299.9588198541182 	0.1190293383161762 	101276.3244578016
-0.9597097097097099 	299.9605741285541 	0.1139505338783688 	101278.397494358
-0.9572072072072073 	299.963061634581 	0.1067667144253698 	101281.3372455802
-0.9547047047047047 	299.9662249390229 	0.0976289592768107 	101285.0756463718
-0.9522022022022023 	299.9700057823561 	0.08667470365902402 	101289.5441238041
-0.9496996996996998 	299.9743324827733 	0.07415498030413466 	101294.6579416994
-0.9471971971971973 	299.9791207992864 	0.0602939231363272 	101300.3174402056
-0.9446946946946947 	299.9842873675803 	0.04537957089076677 	101306.4243983019
-0.9421921921921923 	299.9897178734225 	0.02971962204408877 	101312.8435176515
-0.93968968968969 	299.9952939169153 	0.01356978122643925 	101319.435093805
-0.9371871871871872 	300.0009276803398 	0.00831519342336735 	101326.0952407968
-0.9346846846846848 	300.0065482197791 	0.01898031256495114 	101332.739949243
-0.9321821821821823 	300.0120650565221 	0.03495480886755682 	101339.2624718276
-0.9296796796796799 	300.0173891291648 	0.05032261740268612 	101345.557285885
-0.9271771771771771 	300.0224150238773 	0.06485914693272822 	101351.4999228214
-0.9246746746746748 	300.0270580091394 	0.07827109046496353 	101356.9900568602
-0.9221721721721724 	300.0312239330266 	0.0902957229759301 	101361.9161791553
-0.9196696696696698 	300.0348188617731 	0.1007048640769189 	101366.1673335656
-0.9171671671671672 	300.0377707256928 	0.1092335808202351 	101369.6580714992
-0.9146646646646649 	300.0400390996135 	0.1157521629382773 	101372.3406999617
-0.9121621621621623 	300.041563492885 	0.12014717716855 	101374.1435616321
-0.9096596596596597 	300.0423177103816 	0.1223302354813599 	101375.0355350207
-0.9071571571571573 	300.0422738781544 	0.1222212578470615 	101374.9837092654
-0.9046546546546547 	300.0414305900536 	0.1197714661890386 	101373.9864793261
-0.9021521521521524 	300.0398106613201 	0.115075430576655 	101372.0709101791
-0.8996496496496498 	300.037464998879 	0.1082629010522524 	101369.2971116536
-0.8971471471471473 	300.0344200675322 	0.0994836741734195 	101365.6963786563
-0.894644644644645 	300.0307423868533 	0.08887047139695523 	101361.3475106584
-0.892142142142142 	300.0264862157406 	0.07654390606530603 	101356.3147136948
-0.8896396396396397 	300.0217239293855 	0.06274598752235119 	101350.6837083635
-0.8871371371371374 	300.0165443418239 	0.04778012266514046 	101344.5595358711
-0.8846346346346349 	300.011070990408 	0.0319657606797236 	101338.0882413834
-0.8821321321321324 	300.0054114008153 	0.01566128315510618 	101331.3970413462
-0.8796296296296297 	299.9997014137631 	0.007825562293395275 	101324.6465836658
-0.8771271271271271 	299.9940014457001 	0.01741829529644401 	101317.9083087379
-0.8746246246246248 	299.9883871853495 	0.03363586842181753 	101311.2716951407
-0.8721221221221224 	299.9829678842614 	0.04929434254932945 	101304.8657795146
-0.8696196196196196 	299.9778540383371 	0.06405794287491227 	101298.8211324171
-0.8671171171171175 	299.9731485290902 	0.07765085693550644 	101293.2594265809
-0.8646146146146148 	299.9689363796259 	0.08984912386803356 	101288.2809951274
-0.8621121121121121 	299.9652946323054 	0.1003338199184338 	101283.9769260723
-0.8596096096096097 	299.9623081648676 	0.1089589775767814 	101280.4473621536
-0.857107107107107 	299.9600390217459 	0.1155118031621375 	101277.7655073905
-0.8546046046046049 	299.9585276404893 	0.1198790899340562 	101275.9792773448
-0.8521021021021022 	299.9577938547068 	0.1220390917341715 	101275.1120066253
-0.8495995995995997 	299.9578391390195 	0.1218895759829394 	101275.1655551361
-0.8470970970970974 	299.9586567453318 	0.119512575323973 	101276.1317518777
-0.8445945945945946 	299.9602394255029 	0.1149349498877196 	101278.0019759674
-0.8420920920920922 	299.9625478537666 	0.1082515441120398 	101280.7301048031
-0.8395895895895897 	299.9655386495036 	0.0996064819841446 	101284.264610873
-0.8370870870870872 	299.9691647527491 	0.08909347029661552 	101288.550199375
-0.8345845845845846 	299.9733633009149 	0.07695596089185013 	101293.5124930822
-0.8320820820820823 	299.9780492984361 	0.0633997251888173 	101299.0509682895
-0.8295795795795798 	299.9831298209354 	0.04873829123847068 	101305.0561994493
-0.8270770770770772 	299.9884799696769 	0.03329816859299284 	101311.3802513974
-0.8245745745745746 	299.993993551195 	0.01733698643999125 	101317.897950905
-0.8220720720720721 	299.9995807433883 	0.00672581747117933 	101324.5029640946
-0.8195695695695699 	300.0051750411796 	0.01500653375720443 	101331.1165207404
-0.817067067067067 	300.0107012665927 	0.03101387510712438 	101337.6501070752
-0.8145645645645651 	300.0160679704174 	0.04649662026825631 	101343.9952301672
-0.8120620620620621 	300.0211578120218 	0.06123437103545719 	101350.0134442003
-0.8095595595595597 	300.0258917026422 	0.07490229671774448 	101355.6110078069
-0.8070570570570572 	300.0301694904122 	0.08725650925683454 	101360.6693047134
-0.8045545545545546 	300.033900715394 	0.0980660359121764 	101365.0816466838
-0.8020520520520523 	300.0370134118672 	0.1070354127745176 	101368.7625127328
-0.7995495495495494 	300.0394557928554 	0.1140503343068311 	101371.6509450587
-0.7970470470470474 	300.041158208308 	0.1189680743696981 	101373.6643228062
-0.7945445445445446 	300.042104343428 	0.1216976482868008 	101374.7831985329
-0.7920420420420423 	300.0422588626729 	0.1221728197132991 	101374.9660206511
-0.7895395395395397 	300.0416222579891 	0.1203267205907638 	101374.2131408156
-0.7870370370370371 	300.0402125729955 	0.1162448972811807 	101372.5462472821
-0.7845345345345348 	300.038064705596 	0.1099956156337899 	101370.0063588844
-0.7820320320320323 	300.0351867180817 	0.1017178812012822 	101366.6029639422
-0.7795295295295296 	300.031652817873 	0.09151062037721291 	101362.4241595517
-0.7770270270270272 	300.0275099940958 	0.0794961191352382 	101357.5253087966
-0.7745245245245247 	300.022844685985 	0.06598730826761411 	101352.0089640775
-0.7720220220220222 	300.0177499076827 	0.05125541354642318 	101345.985010582
-0.7695195195195199 	300.0123405131498 	0.03563103792798866 	101339.5892109535
-0.767017017017017 	300.0067179494986 	0.01945062766153079 	101332.9417828546
-0.7645145145145147 	300.0010274895385 	0.00588898043476664 	101326.214286254
-0.7620120120120122 	299.9953215535771 	0.01359469032706553 	101319.4689298798
-0.7595095095095097 	299.9896754145111 	0.02990041701368039 	101312.7945559903
-0.7570070070070072 	299.9842019913739 	0.04572851296691542 	101306.3245407282
-0.7545045045045048 	299.9790133885649 	0.06072210061381565 	101300.1915542117
-0.7520020020020022 	299.9742102912987 	0.07460509712822541 	101294.5143809427
-0.7494994994994997 	299.9698802008593 	0.08712883713737374 	101289.3965679319
-0.7469969969969972 	299.9661085518765 	0.0979845765119217 	101284.9389363196
-0.7444944944944945 	299.9629839175873 	0.1070145976438814 	101281.2459956273
-0.7419919919919924 	299.9605676826379 	0.1139933584397918 	101278.3903977287
-0.7394894894894897 	299.9588991179082 	0.1188089794481915 	101276.4183200103
-0.7369869869869872 	299.9579965205268 	0.121440570975919 	101275.3515789467
-0.7344844844844846 	299.9578643201853 	0.1217980229851919 	101275.195396182
-0.7319819819819822 	299.9585031461807 	0.1199606631740347 	101275.9502412203
-0.7294794794794797 	299.9599086814657 	0.115910344768262 	101277.6112193014
-0.7269769769769773 	299.9620481255245 	0.1097034656328458 	101280.1395345921
-0.7244744744744747 	299.9648866812604 	0.1014931612038077 	101283.4941527736
-0.721971971971972 	299.9683792108763 	0.09136052285367853 	101287.6218738833
-0.7194694694694695 	299.9724579100624 	0.07958445861137012 	101292.4423963677
-0.7169669669669674 	299.9770349969533 	0.06634745290347682 	101297.8521878846
-0.7144644644644647 	299.9820145091129 	0.05195077618662485 	101303.7378934136
-0.711961961961962 	299.9872786501188 	0.03674994017532798 	101309.9602710811
-0.7094594594594597 	299.9927328259097 	0.02096095442398946 	101316.4077016816
-0.7069569569569573 	299.998280139701 	0.004961944081586843 	101322.9654148515
-0.7044544544544545 	300.0038420722533 	0.01139853497582484 	101329.540706844
-0.7019519519519523 	300.0093611221923 	0.02715296856843382 	101336.0656782363
-0.6994494494494495 	300.0147500121527 	0.04268817083699884 	101342.4370065911
-0.6969469469469471 	300.0198964973106 	0.05760005431685471 	101348.5221418214
-0.6944444444444446 	300.0247192315999 	0.07149209353103485 	101354.2246273428
-0.6919419419419421 	300.0291029718312 	0.08416867771322424 	101359.4082139628
-0.6894394394394396 	300.0329585430965 	0.09535826820838961 	101363.9675064233
-0.6869369369369374 	300.036216615333 	0.1047221978794236 	101367.8203062824
-0.6844344344344344 	300.0388173832332 	0.1122156867325535 	101370.8960330795
-0.6819319319319321 	300.0406971933437 	0.117635451130654 	101373.1191300441
-0.6794294294294296 	300.0418390860997 	0.1209321523308551 	101374.4695471673
-0.6769269269269272 	300.0421988010947 	0.122019374808013 	101374.8950114383
-0.6744244244244245 	300.0417738181424 	0.1207659871269769 	101374.392404645
-0.6719219219219222 	300.0405712994779 	0.11727178532436 	101372.9705200425
-0.6694194194194195 	300.0386043884587 	0.1115454272985571 	101370.6445790084
-0.6669169169169172 	300.035891297942 	0.1037610545428514 	101367.436200503
-0.6644144144144146 	300.0325156176843 	0.09401123831544514 	101363.4444343321
-0.661911911911912 	300.0285173045065 	0.08239800420382931 	101358.716467056
-0.6594094094094097 	300.023980780548 	0.06927310778057948 	101353.3523713898
-0.656906906906907 	300.0189928869423 	0.05481991866763724 	101347.4547017044
-0.6544044044044046 	300.013649708264 	0.03942129590928831 	101341.1371453353
-0.6519019019019021 	300.0080569155803 	0.02335862539539985 	101334.5248170307
-0.6493993993993996 	300.002377262496 	0.006842258745706779 	101327.8100545969
-0.6468968968968971 	299.9966652245132 	0.01101544769227889 	101321.0574244129
-0.6443943943943946 	299.9909882527323 	0.02610914746430482 	101314.3465054426
-0.6418918918918921 	299.9854599212837 	0.04210239039895649 	101307.8115239709
-0.6393893893893897 	299.9801939385738 	0.05730592815932847 	101301.5869892226
-0.6368868868868871 	299.9752968414335 	0.07145949312191081 	101295.798687384
-0.6343843843843846 	299.9708586931954 	0.08426624087537765 	101290.5531304171
-0.6318818818818821 	299.9669711947847 	0.09546589153658859 	101285.9585252194
-0.6293793793793795 	299.9637172413924 	0.1048938960760673 	101282.1127271205
-0.6268768768768773 	299.9611516383408 	0.1123107176056039 	101279.0805663949
-0.6243743743743745 	299.9593110203268 	0.1176220243650809 	101276.9050981181
-0.6218718718718721 	299.9582281927374 	0.1207623771227007 	101275.6252971303
-0.6193693693693696 	299.9579168160743 	0.1216426855932246 	101275.2574594654
-0.6168668668668671 	299.9583861412485 	0.1203156976389281 	101275.8120302689
-0.6143643643643645 	299.9596234129095 	0.1167322205548216 	101277.2741448315
-0.6118618618618621 	299.9615968890217 	0.1109854122498231 	101279.6063190833
-0.6093593593593596 	299.9642753095214 	0.1032181841183892 	101282.7716923284
-0.6068568568568571 	299.9676254736676 	0.09351797897858527 	101286.7311273221
-0.6043543543543546 	299.9715754932351 	0.08214148548234132 	101291.3995047976
-0.6018518518518521 	299.9760409475886 	0.06922752614168627 	101296.67732375
-0.5993493493493496 	299.9809187413271 	0.05511557466788247 	101302.4427327102
-0.5968468468468471 	299.9861010260675 	0.04015487696101678 	101308.5683275479
-0.5943443443443446 	299.9914914777543 	0.02456614767657057 	101314.9403577976
-0.591841841841842 	299.9969944141353 	0.008724071838997795 	101321.4454945907
-0.5893393393393397 	300.0025133515746 	0.009662977689337241 	101327.9699196388
-0.5868368368368371 	300.0080217115634 	0.023312411579602 	101334.4821424745
-0.5843343343343346 	300.0134325376993 	0.03891512939244373 	101340.8793683623
-0.5818318318318321 	300.018635428271 	0.05397783047231483 	101347.0311361963
-0.5793293293293297 	300.0235353052763 	0.06806464436688862 	101352.8247160493
-0.5768268268268271 	300.0280097347154 	0.0810249410926614 	101358.1155301298
-0.5743243243243245 	300.0319828599852 	0.09255806104372102 	101362.8137498858
-0.5718218218218221 	300.035390444622 	0.1023103900183987 	101366.8433612385
-0.5693193193193196 	300.0381556900217 	0.1102959007524809 	101370.1135832755
-0.5668168168168171 	300.0402207360053 	0.1162415702651392 	101372.5556599899
-0.5643143143143147 	300.0415563106521 	0.1201199129336102 	101374.1351687629
-0.5618118118118121 	300.0421140810091 	0.1218095115695996 	101374.7948355982
-0.5593093093093094 	300.0418925583164 	0.1211128601660938 	101374.5328606627
-0.5568068068068072 	300.0408906272398 	0.1181849889332003 	101373.3481950614
-0.5543043043043046 	300.0390993410296 	0.1129824962046345 	101371.2298841701
-0.551801801801802 	300.0365589937662 	0.1056921113876735 	101368.2258253557
-0.5492992992992995 	300.0333417754773 	0.09639566810431402 	101364.4213836127
-0.5467967967967969 	300.0294850327242 	0.08516755666301595 	101359.8608359253
-0.5442942942942947 	300.0250695798563 	0.07240742845533808 	101354.6398645731
-0.5417917917917919 	300.0201809865505 	0.0582297145993189 	101348.8595029912
-0.5392892892892895 	300.0148979030199 	0.04305909426524512 	101342.6129804402
-0.536786786786787 	300.0093587932109 	0.02713043378825129 	101336.064013565
-0.5342842842842846 	300.00369614748 	0.0106366105176318 	101329.3693457098
-0.531781781781782 	299.9979826395299 	0.008905090528560988 	101322.6148939078
-0.5292792792792794 	299.9922831734907 	0.02237374045538569 	101315.8772714323
-0.526776776776777 	299.9867133397808 	0.03849741613447618 	101309.2931941132
-0.5242742742742745 	299.9813824295656 	0.0538594470580179 	101302.9918098793
-0.521771771771772 	299.9764088853973 	0.06826496612800545 	101297.1131519592
-0.5192692692692695 	299.9718699597653 	0.0813328257918994 	101291.7484199248
-0.516766766766767 	299.9678678114759 	0.09289122288385193 	101287.0182597789
-0.5142642642642645 	299.9644821527134 	0.1027171054051146 	101283.0167937102
-0.511761761761762 	299.9617700584213 	0.1105424783542367 	101279.8114623209
-0.5092592592592596 	299.9597587120011 	0.1163435970872539 	101277.4343789088
-0.506756756756757 	299.958505819092 	0.1199657289965104 	101275.9535862524
-0.5042542542542544 	299.9580183829743 	0.1213734554449521 	101275.37759407
-0.5017517517517521 	299.9583235775709 	0.1205379162502074 	101275.7381505069
-0.4992492492492494 	299.9593966466609 	0.1173945504783071 	101277.006202889
-0.496746746746747 	299.9612095548229 	0.112124445725095 	101279.1486454892
-0.4942442442442445 	299.9637184547826 	0.1048188548559254 	101282.1136374754
-0.4917417417417421 	299.9669121421358 	0.09562235298458741 	101285.8881408013
-0.4892392392392395 	299.9707045000256 	0.08471289318364413 	101290.3701133525
-0.486736736736737 	299.9750344531264 	0.07216482310990915 	101295.4877441031
-0.4842342342342345 	299.9797981881843 	0.05837196196380003 	101301.1182958543
-0.481731731731732 	299.9849049618922 	0.04363159860507507 	101307.1545602771
-0.4792292292292296 	299.9902407253672 	0.02820694917683451 	101313.4619048681
-0.4767267267267268 	299.9957185683159 	0.01247325237301435 	101319.9372727517
-0.4742242242242246 	300.0012000729713 	0.007114772206428207 	101326.4173850004
-0.471721721721722 	300.0066915643019 	0.0194704242176595 	101332.9096005816
-0.4692192192192195 	300.0121100138264 	0.03509337006961374 	101339.3157616363
-0.4667167167167169 	300.0173547203091 	0.05025370859611221 	101345.5169243021
-0.4642142142142145 	300.0223171545535 	0.0645078042136779 	101351.3843648681
-0.461711711711712 	300.0268806292822 	0.07773600516177338 	101356.7804320518
-0.4592092092092094 	300.030973134391 	0.08959806831297484 	101361.6197815248
-0.456706706706707 	300.0345260155447 	0.09975951414583895 	101365.8211688066
-0.4542042042042045 	300.0374498789307 	0.1082428837143995 	101369.2789598999
-0.451701701701702 	300.0396979477126 	0.1147199639421991 	101371.9374211774
-0.4491991991991995 	300.0412220951662 	0.1191786887296633 	101373.7399479876
-0.4466966966966969 	300.0419802165345 	0.1214473718421619 	101374.6365693414
-0.4441941941941945 	300.0419633548574 	0.1213125644562973 	101374.6166278725
-0.441691691691692 	300.041160385107 	0.1189471783109152 	101373.6672266478
-0.4391891891891895 	300.0395487495441 	0.1142690412759973 	101371.7613470115
-0.436686686686687 	300.0371902387984 	0.1074773379465097 	101368.9723440005
-0.4341841841841846 	300.0341317164126 	0.09863698381526795 	101365.3555300655
-0.431681681681682 	300.0304210749479 	0.0878378979771367 	101360.9677422406
-0.4291791791791794 	300.0261289946468 	0.07546461853197495 	101355.892590968
-0.426676676676677 	300.0213410084011 	0.06160942541182937 	101350.231118921
-0.4241741741741744 	300.0161296996662 	0.04665821980094127 	101344.0694398243
-0.421671671671672 	300.0106517367277 	0.03084637421398633 	101337.5926720198
-0.4191691691691694 	300.0050031092113 	0.01442576320837144 	101330.9145343477
-0.4166666666666669 	299.9992904281214 	0.005983225961913937 	101324.1609671982
-0.4141641641641645 	299.9935805237449 	0.01864445986035669 	101317.4109189947
-0.411661661661662 	299.9879797342816 	0.03487225564621892 	101310.7902234937
-0.4091591591591594 	299.9825942673932 	0.05039488022128669 	101304.4242470125
-0.406656656656657 	299.9775421341997 	0.06501164716489115 	101298.4526772387
-0.4041541541541545 	299.9728981279932 	0.0783439875498772 	101292.9636795441
-0.401651651651652 	299.968779041227 	0.09023968315593696 	101288.0952570868
-0.3991491491491494 	299.9652607962499 	0.1004519519378387 	101283.9371103873
-0.396646646646647 	299.9623990902788 	0.108701679729772 	101280.554895244
-0.3941441441441444 	299.9602244722561 	0.1149757054192516 	101277.984903799
-0.3916416416416419 	299.9588033540264 	0.1190989371596335 	101276.3052764039
-0.3891391391391395 	299.9581424301732 	0.1210299779413198 	101275.5242167944
-0.3866366366366368 	299.958282320783 	0.1206980803495872 	101275.6894742973
-0.3841341341341344 	299.9591925733956 	0.1180117433203689 	101276.7650611444
-0.381631631631632 	299.9608457100945 	0.1131826232233447 	101278.7187278147
-0.3791291291291294 	299.9631985437886 	0.1063006561577718 	101281.4992561327
-0.3766266266266269 	299.9662458268467 	0.09755380910118386 	101285.1006840483
-0.3741241241241244 	299.9698867897835 	0.08705868129022847 	101289.4037431577
-0.371621621621622 	299.9740823678164 	0.07487450868051555 	101294.362456292
-0.3691191191191194 	299.9787242730371 	0.06144248081390583 	101299.8490141168
-0.366616616616617 	299.9837405534362 	0.04696519154673085 	101305.7782470164
-0.3641141141141143 	299.9890158749091 	0.03177416520042746 	101312.0140479027
-0.3616116116116119 	299.9944678050805 	0.01616134398772464 	101318.4587486076
-0.3591091091091095 	299.9999118558533 	0.003782307942219536 	101324.8944785647
-0.356606606606607 	300.0053752671639 	0.01565812224603317 	101331.3534606273
-0.3541041041041044 	300.0107894497456 	0.03130103871751258 	101337.7545030942
-0.3516016016016019 	300.0160656810123 	0.04654770379088839 	101343.9928403469
-0.3490990990990994 	300.0210814752533 	0.06098632968835626 	101349.9233240692
-0.346596596596597 	300.025731164309 	0.0744741489521339 	101355.4212741336
-0.3440940940940944 	300.0299403106294 	0.0866310125023388 	101360.3985019994
-0.3415915915915919 	300.0336317937038 	0.09717343095403619 	101364.7637723001
-0.3390890890890895 	300.0367070628755 	0.1060965909439587 	101368.4005573321
-0.3365865865865869 	300.0391278440832 	0.113058729501994 	101371.2632477785
-0.3340840840840844 	300.0408293550291 	0.1180553577427922 	101373.2755312917
-0.3315815815815819 	300.0417827344371 	0.120877649591101 	101374.403041245
-0.3290790790790794 	300.0419659555888 	0.1213178427217765 	101374.6197784813
-0.3265765765765769 	300.0413594285645 	0.1195550612193921 	101373.9026157895
-0.3240740740740744 	300.0399400165778 	0.1154563488451456 	101372.2240647026
-0.3215715715715718 	300.0377786196559 	0.1092021860168734 	101369.6681829741
-0.3190690690690695 	300.0348928040744 	0.100852460993779 	101366.2555519408
-0.3165665665665668 	300.0313424961216 	0.09049542360465571 	101362.0573746033
-0.3140640640640644 	300.027184471452 	0.07850135269729075 	101357.1406800898
-0.311561561561562 	300.0225026545766 	0.06495504022969957 	101351.6046770141
-0.3090590590590593 	300.0173738831921 	0.05023342053280416 	101345.5405651597
-0.3065565565565568 	300.0119560504812 	0.03457199972676011 	101339.1347833493
-0.3040540540540545 	300.006324104901 	0.01825043740925086 	101332.4763440448
-0.3015515515515518 	300.0006134668906 	0.002159305721165187 	101325.725094535
-0.2990490490490494 	299.9948947240761 	0.01481315480942582 	101318.9645070535
-0.2965465465465469 	299.9892641015998 	0.03112241417954363 	101312.3085118577
-0.2940440440440444 	299.9838292819113 	0.04680719812731911 	101305.8840922837
-0.2915415415415418 	299.978702796786 	0.06165202615852951 	101299.8246311036
-0.2890390390390395 	299.9739628007262 	0.07526960293953866 	101294.2220977912