/*--------------------------------*- C++ -*----------------------------------*\
  =========                 |
  \\      /  F ield         | OpenFOAM: The Open Source CFD Toolbox
   \\    /   O peration     | Website:  https://openfoam.org
    \\  /    A nd           | Version:  7
     \\/     M anipulation  |
\*---------------------------------------------------------------------------*/
FoamFile
{
    version     2.0;
    format      ascii;
    class       surfaceScalarField;
    location    "0.00047";
    object      phi;
}
// * * * * * * * * * * * * * * * * * * * * * * * * * * * * * * * * * * * * * //

dimensions      [1 0 -1 0 0 0 0];

internalField   nonuniform List<scalar> 
4999
(
4.9737992e-14
4.2632564e-14
4.9737992e-14
4.9737992e-14
5.6843419e-14
3.5527137e-14
4.2632564e-14
2.8421709e-14
3.5527137e-14
3.5527137e-14
2.8421709e-14
2.8421709e-14
2.8421709e-14
2.1316282e-14
3.5527137e-14
3.5527137e-14
4.2632564e-14
3.5527137e-14
4.2632564e-14
4.9737992e-14
5.6843419e-14
4.2632564e-14
4.2632564e-14
5.6843419e-14
4.9737992e-14
4.9737992e-14
4.2632564e-14
4.2632564e-14
3.5527137e-14
3.5527137e-14
2.8421709e-14
2.1316282e-14
1.4210855e-14
2.8421709e-14
3.5527137e-14
3.5527137e-14
1.4210855e-14
2.1316282e-14
3.5527137e-14
4.2632564e-14
4.2632564e-14
3.5527137e-14
2.8421709e-14
3.5527137e-14
2.1316282e-14
2.8421709e-14
2.8421709e-14
2.8421709e-14
3.5527137e-14
2.8421709e-14
2.8421709e-14
2.8421709e-14
4.9737992e-14
4.2632564e-14
4.2632564e-14
4.2632564e-14
2.8421709e-14
2.1316282e-14
2.8421709e-14
2.1316282e-14
3.5527137e-14
3.5527137e-14
2.8421709e-14
2.1316282e-14
2.1316282e-14
3.5527137e-14
4.2632564e-14
5.6843419e-14
5.6843419e-14
5.6843419e-14
4.9737992e-14
4.2632564e-14
4.2632564e-14
5.6843419e-14
4.9737992e-14
4.9737992e-14
5.6843419e-14
5.6843419e-14
5.6843419e-14
5.6843419e-14
5.6843419e-14
6.3948846e-14
4.9737992e-14
4.9737992e-14
4.9737992e-14
7.1054274e-14
4.9737992e-14
4.9737992e-14
6.3948846e-14
5.6843419e-14
4.9737992e-14
6.3948846e-14
5.6843419e-14
7.1054274e-14
7.1054274e-14
6.3948846e-14
6.3948846e-14
7.8159701e-14
5.6843419e-14
5.6843419e-14
4.9737992e-14
4.9737992e-14
4.2632564e-14
4.2632564e-14
4.2632564e-14
4.2632564e-14
3.5527137e-14
2.8421709e-14
2.8421709e-14
3.5527137e-14
2.8421709e-14
2.8421709e-14
3.5527137e-14
3.5527137e-14
3.5527137e-14
3.5527137e-14
2.1316282e-14
2.1316282e-14
2.8421709e-14
1.4210855e-14
2.1316282e-14
2.8421709e-14
3.5527137e-14
3.5527137e-14
1.4210855e-14
2.1316282e-14
4.9737992e-14
4.2632564e-14
4.2632564e-14
5.6843419e-14
6.3948846e-14
7.8159701e-14
7.1054274e-14
5.6843419e-14
5.6843419e-14
5.6843419e-14
6.3948846e-14
7.1054274e-14
6.3948846e-14
6.3948846e-14
7.1054274e-14
8.5265128e-14
9.2370556e-14
7.8159701e-14
8.5265128e-14
9.9475983e-14
8.5265128e-14
7.8159701e-14
8.5265128e-14
7.8159701e-14
7.1054274e-14
7.8159701e-14
6.3948846e-14
7.1054274e-14
7.1054274e-14
7.8159701e-14
7.8159701e-14
7.8159701e-14
7.1054274e-14
7.1054274e-14
7.1054274e-14
6.3948846e-14
6.3948846e-14
6.3948846e-14
5.6843419e-14
5.6843419e-14
6.3948846e-14
7.1054274e-14
7.8159701e-14
7.1054274e-14
6.3948846e-14
7.1054274e-14
7.1054274e-14
7.1054274e-14
6.3948846e-14
7.1054274e-14
5.6843419e-14
6.3948846e-14
5.6843419e-14
4.9737992e-14
6.3948846e-14
6.3948846e-14
6.3948846e-14
5.6843419e-14
4.2632564e-14
4.2632564e-14
4.2632564e-14
4.2632564e-14
3.5527137e-14
4.9737992e-14
6.3948846e-14
7.1054274e-14
6.3948846e-14
6.3948846e-14
5.6843419e-14
5.6843419e-14
6.3948846e-14
7.8159701e-14
8.5265128e-14
7.8159701e-14
7.1054274e-14
7.8159701e-14
7.8159701e-14
6.3948846e-14
7.8159701e-14
5.6843419e-14
5.6843419e-14
5.6843419e-14
5.6843419e-14
5.6843419e-14
7.1054274e-14
6.3948846e-14
5.6843419e-14
4.9737992e-14
4.9737992e-14
4.2632564e-14
5.6843419e-14
4.9737992e-14
5.6843419e-14
6.3948846e-14
4.9737992e-14
3.5527137e-14
3.5527137e-14
3.5527137e-14
3.5527137e-14
5.6843419e-14
3.5527137e-14
3.5527137e-14
4.2632564e-14
4.2632564e-14
4.9737992e-14
4.9737992e-14
5.6843419e-14
4.9737992e-14
4.9737992e-14
5.6843419e-14
4.9737992e-14
4.2632564e-14
4.2632564e-14
5.6843419e-14
6.3948846e-14
5.6843419e-14
4.9737992e-14
4.2632564e-14
4.2632564e-14
3.5527137e-14
4.2632564e-14
3.5527137e-14
5.6843419e-14
5.6843419e-14
4.9737992e-14
7.1054274e-14
7.8159701e-14
7.8159701e-14
9.9475983e-14
7.8159701e-14
9.2370556e-14
9.2370556e-14
1.0658141e-13
9.9475983e-14
8.5265128e-14
9.2370556e-14
9.9475983e-14
1.0658141e-13
1.1368684e-13
1.0658141e-13
9.9475983e-14
1.1368684e-13
1.0658141e-13
9.9475983e-14
1.1368684e-13
9.9475983e-14
9.2370556e-14
1.0658141e-13
8.5265128e-14
9.2370556e-14
8.5265128e-14
7.8159701e-14
8.5265128e-14
9.9475983e-14
8.5265128e-14
9.2370556e-14
9.2370556e-14
9.2370556e-14
8.5265128e-14
9.9475983e-14
9.9475983e-14
9.2370556e-14
1.0658141e-13
9.2370556e-14
9.9475983e-14
9.9475983e-14
9.2370556e-14
9.2370556e-14
7.8159701e-14
7.8159701e-14
7.1054274e-14
6.3948846e-14
7.8159701e-14
7.8159701e-14
7.8159701e-14
7.8159701e-14
7.8159701e-14
9.2370556e-14
8.5265128e-14
8.5265128e-14
8.5265128e-14
7.8159701e-14
7.8159701e-14
8.5265128e-14
9.2370556e-14
9.2370556e-14
9.2370556e-14
1.0658141e-13
9.9475983e-14
9.2370556e-14
1.1368684e-13
1.0658141e-13
9.2370556e-14
9.2370556e-14
1.1368684e-13
9.2370556e-14
9.9475983e-14
9.9475983e-14
8.5265128e-14
8.5265128e-14
9.2370556e-14
8.5265128e-14
8.5265128e-14
9.2370556e-14
1.1368684e-13
1.0658141e-13
9.9475983e-14
9.2370556e-14
1.0658141e-13
9.9475983e-14
1.0658141e-13
1.0658141e-13
9.9475983e-14
9.9475983e-14
9.2370556e-14
9.2370556e-14
9.9475983e-14
9.2370556e-14
9.9475983e-14
9.9475983e-14
8.5265128e-14
7.8159701e-14
8.5265128e-14
9.2370556e-14
9.9475983e-14
8.5265128e-14
8.5265128e-14
8.5265128e-14
9.2370556e-14
8.5265128e-14
7.1054274e-14
8.5265128e-14
9.2370556e-14
9.2370556e-14
9.2370556e-14
9.2370556e-14
8.5265128e-14
9.9475983e-14
9.2370556e-14
9.9475983e-14
8.5265128e-14
8.5265128e-14
7.1054274e-14
7.1054274e-14
6.3948846e-14
7.1054274e-14
6.3948846e-14
5.6843419e-14
4.9737992e-14
4.9737992e-14
5.6843419e-14
4.9737992e-14
5.6843419e-14
4.2632564e-14
4.9737992e-14
4.9737992e-14
4.9737992e-14
4.2632564e-14
5.6843419e-14
4.9737992e-14
3.5527137e-14
3.5527137e-14
4.2632564e-14
4.2632564e-14
2.1316282e-14
4.2632564e-14
2.8421709e-14
2.8421709e-14
1.4210855e-14
2.1316282e-14
2.8421709e-14
2.8421709e-14
3.5527137e-14
2.1316282e-14
1.4210855e-14
2.1316282e-14
2.8421709e-14
4.2632564e-14
3.5527137e-14
2.1316282e-14
2.1316282e-14
1.4210855e-14
7.1054274e-15
2.1316282e-14
1.4210855e-14
2.1316282e-14
1.4210855e-14
1.4210855e-14
2.1316282e-14
2.8421709e-14
4.2632564e-14
3.5527137e-14
3.5527137e-14
2.1316282e-14
2.8421709e-14
7.1054274e-15
-5.3248111e-30
1.4210855e-14
7.1054274e-15
2.1316282e-14
1.1117506e-55
1.4210855e-14
1.4210855e-14
1.4210855e-14
7.1054274e-15
1.4210855e-14
2.1316282e-14
2.1316282e-14
2.8421709e-14
2.1316282e-14
2.8421709e-14
2.8421709e-14
3.5527137e-14
2.8421709e-14
2.1316282e-14
2.8421709e-14
3.5527137e-14
3.5527137e-14
3.5527137e-14
4.2632564e-14
5.6843419e-14
4.9737992e-14
5.6843419e-14
5.6843419e-14
6.3948846e-14
6.3948846e-14
7.1054274e-14
7.1054274e-14
8.5265128e-14
8.5265128e-14
7.1054274e-14
9.2370556e-14
8.5265128e-14
1.0658141e-13
9.9475983e-14
9.9475983e-14
1.1368684e-13
1.0658141e-13
1.1368684e-13
9.2370556e-14
9.9475983e-14
1.0658141e-13
1.0658141e-13
8.5265128e-14
8.5265128e-14
9.2370556e-14
9.9475983e-14
8.5265128e-14
9.9475983e-14
9.9475983e-14
1.0658141e-13
9.9475983e-14
9.9475983e-14
9.9475983e-14
9.9475983e-14
9.2370556e-14
9.2370556e-14
9.2370556e-14
9.2370556e-14
8.5265128e-14
7.8159701e-14
7.8159701e-14
8.5265128e-14
8.5265128e-14
6.3948846e-14
6.3948846e-14
6.3948846e-14
6.3948846e-14
6.3948846e-14
5.6843419e-14
6.3948846e-14
6.3948846e-14
7.1054274e-14
7.1054274e-14
8.5265128e-14
7.1054274e-14
6.3948846e-14
7.8159701e-14
5.6843419e-14
7.1054274e-14
7.8159701e-14
7.8159701e-14
7.8159701e-14
7.1054274e-14
6.3948846e-14
7.1054274e-14
7.8159701e-14
5.6843419e-14
7.1054274e-14
8.5265128e-14
7.8159701e-14
7.8159701e-14
7.1054274e-14
7.1054274e-14
7.1054274e-14
7.1054274e-14
7.8159701e-14
7.8159701e-14
7.8159701e-14
7.1054274e-14
8.5265128e-14
7.8159701e-14
9.2370556e-14
9.2370556e-14
8.5265128e-14
9.2370556e-14
9.2370556e-14
8.5265128e-14
7.8159701e-14
8.5265128e-14
9.2370556e-14
9.9475983e-14
1.0658141e-13
9.9475983e-14
1.0658141e-13
9.9475983e-14
9.9475983e-14
1.0658141e-13
9.9475983e-14
9.2370556e-14
9.9475983e-14
1.2079227e-13
1.0658141e-13
1.1368684e-13
1.1368684e-13
9.9475983e-14
9.2370556e-14
9.9475983e-14
1.0658141e-13
9.9475983e-14
9.9475983e-14
9.2370556e-14
9.2370556e-14
8.5265128e-14
9.9475983e-14
9.9475983e-14
9.9475983e-14
9.2370556e-14
8.5265128e-14
8.5265128e-14
8.5265128e-14
8.5265128e-14
7.8159701e-14
9.2370556e-14
8.5265128e-14
7.8159701e-14
7.1054274e-14
7.1054274e-14
7.1054274e-14
7.1054274e-14
6.3948846e-14
5.6843419e-14
6.3948846e-14
6.3948846e-14
6.3948846e-14
7.1054274e-14
6.3948846e-14
7.1054274e-14
7.1054274e-14
8.5265128e-14
7.8159701e-14
7.1054274e-14
6.3948846e-14
5.6843419e-14
4.2632564e-14
4.9737992e-14
4.9737992e-14
4.2632564e-14
4.9737992e-14
4.2632564e-14
4.9737992e-14
5.6843419e-14
6.3948846e-14
4.2632564e-14
5.6843419e-14
6.3948846e-14
5.6843419e-14
4.9737992e-14
5.6843419e-14
5.6843419e-14
4.9737992e-14
7.1054274e-14
6.3948846e-14
6.3948846e-14
5.6843419e-14
7.1054274e-14
7.8159701e-14
6.3948846e-14
7.1054274e-14
7.8159701e-14
7.1054274e-14
7.1054274e-14
6.3948846e-14
7.8159701e-14
6.3948846e-14
6.3948846e-14
6.3948846e-14
5.6843419e-14
4.2632564e-14
4.2632564e-14
3.5527137e-14
3.5527137e-14
3.5527137e-14
3.5527137e-14
3.5527137e-14
3.5527137e-14
2.8421709e-14
2.1316282e-14
1.4210855e-14
-1.5777218e-30
7.1054274e-15
1.4210855e-14
1.4210855e-14
2.1316282e-14
1.4210855e-14
2.8421709e-14
2.8421709e-14
2.1316282e-14
2.8421709e-14
4.2632564e-14
4.2632564e-14
4.2632564e-14
4.2632564e-14
4.2632564e-14
4.2632564e-14
4.9737992e-14
5.6843419e-14
4.9737992e-14
4.2632564e-14
3.5527137e-14
3.5527137e-14
2.8421709e-14
2.8421709e-14
4.2632564e-14
3.5527137e-14
2.1316282e-14
2.8421709e-14
2.1316282e-14
2.1316282e-14
2.1316282e-14
3.5527137e-14
2.1316282e-14
2.8421709e-14
2.1316282e-14
2.1316282e-14
4.2632564e-14
4.2632564e-14
2.8421709e-14
2.8421709e-14
2.8421709e-14
2.8421709e-14
2.8421709e-14
1.4210855e-14
1.4210855e-14
2.1316282e-14
2.8421709e-14
1.4210855e-14
2.1316282e-14
2.1316282e-14
2.1316282e-14
2.1316282e-14
2.1316282e-14
7.1054274e-15
1.4210855e-14
2.8421709e-14
2.1316282e-14
2.1316282e-14
1.4210855e-14
2.1316282e-14
7.1054274e-15
2.1316282e-14
1.4210855e-14
7.1054274e-15
2.1316282e-14
7.1054274e-15
7.1054274e-15
7.8886091e-31
-6.9239449e-31
-1.4210855e-14
-7.1054274e-15
7.1054274e-15
1.4210855e-14
1.5777218e-30
-7.1054274e-15
-2.1316282e-14
-2.1316282e-14
-2.8421709e-14
-3.5527137e-14
-4.9737992e-14
-5.6843419e-14
-4.2632564e-14
-5.6843419e-14
-4.9737992e-14
-4.2632564e-14
-4.9737992e-14
-4.9737992e-14
-5.6843419e-14
-5.6843419e-14
-4.2632564e-14
-3.5527137e-14
-3.5527137e-14
-2.8421709e-14
-4.9737992e-14
-4.2632564e-14
-3.5527137e-14
-4.9737992e-14
-4.9737992e-14
-4.2632564e-14
-5.6843419e-14
-4.9737992e-14
-4.2632564e-14
-4.2632564e-14
-2.8421709e-14
-2.8421709e-14
-2.8421709e-14
-2.1316282e-14
-3.5527137e-14
-2.8421709e-14
-3.5527137e-14
-2.1316282e-14
-3.5527137e-14
-3.5527137e-14
-3.5527137e-14
-2.8421709e-14
-2.8421709e-14
-3.5527137e-14
-3.5527137e-14
-2.1316282e-14
-1.4210855e-14
-7.1054274e-15
-1.4210855e-14
-2.1316282e-14
-7.1054274e-15
-1.4210855e-14
-2.1316282e-14
-1.4210855e-14
-2.1316282e-14
-2.1316282e-14
-2.1316282e-14
-1.4210855e-14
-2.8421709e-14
-2.1316282e-14
-2.1316282e-14
-1.4210855e-14
-2.1316282e-14
-2.1316282e-14
-7.1054274e-15
-2.1316282e-14
-1.4210855e-14
-2.1316282e-14
-2.8421709e-14
-2.1316282e-14
-2.8421709e-14
-2.1316282e-14
-1.4210855e-14
-1.4210855e-14
-2.1316282e-14
-2.8421709e-14
-1.4210855e-14
-3.5527137e-14
-2.8421709e-14
-2.1316282e-14
-3.5527137e-14
-2.8421709e-14
-2.1316282e-14
-1.4210855e-14
-2.1316282e-14
-2.1316282e-14
-1.4210855e-14
-1.4210855e-14
-1.4210855e-14
-2.1316282e-14
-1.4210855e-14
-2.8421709e-14
-7.1054274e-15
-1.4210855e-14
-7.1054274e-15
-1.4210855e-14
-1.4210855e-14
-2.1316282e-14
-1.4210855e-14
-2.1316282e-14
7.8886091e-31
1.9239191e-30
7.1054274e-15
7.1054274e-15
-1.8735446e-30
-7.1054274e-15
4.9303807e-32
-7.1054274e-15
-1.4210855e-14
-7.1054274e-15
1.4210855e-14
7.1054274e-15
-3.1554436e-30
7.1054274e-15
7.1054274e-15
7.1054274e-15
1.4210855e-14
2.1316282e-14
2.8421709e-14
2.8421709e-14
2.8421709e-14
2.8421709e-14
3.5527137e-14
3.5527137e-14
4.9737992e-14
3.5527137e-14
4.9737992e-14
6.3948846e-14
7.1054274e-14
6.3948846e-14
5.6843419e-14
6.3948846e-14
7.8159701e-14
6.3948846e-14
7.1054274e-14
7.8159701e-14
7.8159701e-14
8.5265128e-14
8.5265128e-14
8.5265128e-14
8.5265128e-14
7.8159701e-14
8.5265128e-14
7.8159701e-14
7.8159701e-14
7.1054274e-14
6.3948846e-14
7.1054274e-14
7.1054274e-14
7.1054274e-14
5.6843419e-14
6.3948846e-14
5.6843419e-14
4.9737992e-14
6.3948846e-14
5.6843419e-14
6.3948846e-14
4.2632564e-14
4.9737992e-14
4.9737992e-14
3.5527137e-14
4.9737992e-14
3.5527137e-14
4.2632564e-14
4.2632564e-14
4.9737992e-14
4.2632564e-14
2.8421709e-14
4.2632564e-14
4.9737992e-14
4.9737992e-14
5.6843419e-14
5.6843419e-14
4.9737992e-14
4.9737992e-14
4.9737992e-14
3.5527137e-14
3.5527137e-14
4.2632564e-14
4.9737992e-14
4.2632564e-14
4.9737992e-14
4.2632564e-14
4.2632564e-14
4.9737992e-14
4.2632564e-14
3.5527137e-14
4.2632564e-14
3.5527137e-14
3.5527137e-14
4.9737992e-14
4.2632564e-14
4.2632564e-14
4.2632564e-14
4.9737992e-14
4.2632564e-14
4.2632564e-14
4.2632564e-14
3.5527137e-14
3.5527137e-14
2.8421709e-14
2.8421709e-14
2.8421709e-14
2.8421709e-14
3.5527137e-14
2.8421709e-14
2.8421709e-14
3.5527137e-14
2.8421709e-14
1.4210855e-14
1.4210855e-14
7.1054274e-15
7.1054274e-15
7.1054274e-15
7.1054274e-15
-1.3410635e-29
-2.1857307e-29
-7.1054274e-15
-1.4210855e-14
-7.1054274e-15
1.774937e-30
1.7533666e-30
7.1054274e-15
-7.4459454e-30
-2.1316282e-14
-2.1316282e-14
-2.1316282e-14
-7.1054274e-15
-1.4210855e-14
-7.1054274e-15
-2.8421709e-14
-1.4210855e-14
-3.5527137e-14
-2.1316282e-14
-2.8421709e-14
-2.8421709e-14
-2.1316282e-14
-2.1316282e-14
-2.8421709e-14
-2.1316282e-14
-2.8421709e-14
-2.8421709e-14
-3.5527137e-14
-4.2632564e-14
-2.8421709e-14
-2.1316282e-14
-1.4210855e-14
-1.4210855e-14
-7.8886091e-31
0
1.4210855e-14
-7.1054274e-15
-7.1054274e-15
-7.1054274e-15
-7.1054274e-15
6.3108872e-30
-7.1054274e-15
-7.1054274e-15
-7.1054274e-15
-2.1316282e-14
-1.4210855e-14
-7.1054274e-15
-7.1054274e-15
-7.1054274e-15
-1.4210855e-14
-7.1054274e-15
-1.4210855e-14
-7.1054274e-15
-1.4210855e-14
-2.1316282e-14
-2.1316282e-14
-1.4210855e-14
-7.1054274e-15
-2.1316282e-14
-2.1316282e-14
-1.4210855e-14
-2.1316282e-14
-2.8421709e-14
-2.8421709e-14
-2.8421709e-14
-2.8421709e-14
-3.5527137e-14
-1.4210855e-14
-2.8421709e-14
-2.8421709e-14
-2.1316282e-14
-1.4210855e-14
-2.1316282e-14
-2.1316282e-14
-1.4210855e-14
-1.4210855e-14
-1.4210855e-14
-1.4210855e-14
-2.1316282e-14
-2.8421709e-14
-3.5527137e-14
-3.5527137e-14
-2.8421709e-14
-2.1316282e-14
-7.1054274e-15
-2.1316282e-14
-7.1054274e-15
-7.1054274e-15
-2.3079816e-31
-7.1054274e-15
-1.4210855e-14
-1.4210855e-14
-7.1054274e-15
-7.1054274e-15
-1.4210855e-14
-1.4210855e-14
-7.1054274e-15
-7.1054274e-15
-7.1054274e-15
-7.1054274e-15
7.1054274e-15
7.1054274e-15
1.4210855e-14
7.1054274e-15
1.4210855e-14
1.4210855e-14
2.1316282e-14
2.1316282e-14
2.1316282e-14
1.4210855e-14
7.1054274e-15
7.1054274e-15
7.1054274e-15
7.1054274e-15
2.1316282e-14
7.1054274e-15
2.8421709e-14
2.1316282e-14
2.1316282e-14
2.1316282e-14
2.8421709e-14
2.8421709e-14
2.8421709e-14
2.8421709e-14
3.5527137e-14
4.2632564e-14
4.9737992e-14
4.9737992e-14
5.6843419e-14
4.9737992e-14
5.6843419e-14
4.2632564e-14
4.9737992e-14
4.9737992e-14
4.2632564e-14
4.9737992e-14
4.2632564e-14
5.6843419e-14
5.6843419e-14
4.9737992e-14
6.3948846e-14
6.3948846e-14
6.3948846e-14
4.9737992e-14
6.3948846e-14
6.3948846e-14
6.3948846e-14
6.3948846e-14
5.6843419e-14
8.5265128e-14
8.5265128e-14
8.5265128e-14
7.8159701e-14
7.1054274e-14
7.8159701e-14
5.6843419e-14
4.2632564e-14
4.2632564e-14
4.9737992e-14
4.9737992e-14
3.5527137e-14
2.1316282e-14
2.1316282e-14
1.4210855e-14
1.4210855e-14
2.1316282e-14
2.8421709e-14
2.1316282e-14
2.1316282e-14
2.8421709e-14
2.1316282e-14
2.1316282e-14
1.4210855e-14
2.1316282e-14
1.4210855e-14
1.4210855e-14
1.4210855e-14
2.1316282e-14
2.1316282e-14
2.8421709e-14
2.8421709e-14
2.8421709e-14
2.1316282e-14
3.5527137e-14
2.8421709e-14
3.5527137e-14
2.8421709e-14
2.8421709e-14
1.4210855e-14
2.8421709e-14
2.8421709e-14
2.8421709e-14
2.8421709e-14
2.8421709e-14
3.5527137e-14
2.8421709e-14
2.1316282e-14
7.1054274e-15
2.1316282e-14
2.1316282e-14
1.4210855e-14
1.4210855e-14
1.4210855e-14
1.4210855e-14
2.1316282e-14
7.1054274e-15
1.4210855e-14
7.1054274e-15
1.4210855e-14
7.1054274e-15
-2.3079816e-31
-7.4941786e-30
-7.4270127e-30
-7.1054274e-15
-1.4210855e-14
-7.1054274e-15
-1.4210855e-14
-2.1316282e-14
-2.1316282e-14
-2.8421709e-14
-3.5527137e-14
-3.5527137e-14
-4.2632564e-14
-3.5527137e-14
-2.8421709e-14
-2.1316282e-14
-2.1316282e-14
-2.1316282e-14
-1.4210855e-14
-3.5527137e-14
-3.5527137e-14
-2.8421709e-14
-2.8421709e-14
-2.1316282e-14
-1.4210855e-14
-2.1316282e-14
-1.4210855e-14
-7.1054274e-15
-1.4210855e-14
-1.4210855e-14
9.4663309e-30
-2.6009871e-31
1.4210855e-14
3.5527137e-14
2.1316282e-14
3.5527137e-14
4.2632564e-14
4.2632564e-14
4.2632564e-14
3.5527137e-14
3.5527137e-14
4.9737992e-14
6.3948846e-14
6.3948846e-14
6.3948846e-14
7.1054274e-14
5.6843419e-14
7.1054274e-14
6.3948846e-14
6.3948846e-14
7.1054274e-14
6.3948846e-14
6.3948846e-14
7.8159701e-14
7.1054274e-14
7.8159701e-14
7.8159701e-14
8.5265128e-14
1.1368684e-13
9.9475983e-14
1.0658141e-13
1.0658141e-13
1.1368684e-13
1.1368684e-13
1.0658141e-13
1.1368684e-13
1.1368684e-13
1.2079227e-13
1.1368684e-13
1.1368684e-13
1.1368684e-13
1.0658141e-13
1.1368684e-13
1.1368684e-13
1.2079227e-13
1.0658141e-13
1.0658141e-13
1.0658141e-13
9.2370556e-14
1.0658141e-13
1.0658141e-13
1.0658141e-13
1.0658141e-13
1.1368684e-13
1.2079227e-13
1.1368684e-13
1.0658141e-13
1.1368684e-13
1.0658141e-13
9.9475983e-14
9.9475983e-14
9.2370556e-14
9.2370556e-14
9.9475983e-14
9.2370556e-14
9.2370556e-14
9.9475983e-14
8.5265128e-14
7.8159701e-14
8.5265128e-14
7.8159701e-14
7.1054274e-14
6.3948846e-14
6.3948846e-14
6.3948846e-14
5.6843419e-14
5.6843419e-14
5.6843419e-14
4.9737992e-14
5.6843419e-14
5.6843419e-14
4.9737992e-14
4.9737992e-14
4.2632564e-14
4.2632564e-14
4.2632564e-14
3.5527137e-14
4.2632564e-14
3.5527137e-14
3.5527137e-14
3.5527137e-14
3.5527137e-14
3.5527137e-14
2.8421709e-14
2.8421709e-14
2.1316282e-14
1.4210855e-14
2.1316282e-14
4.2632564e-14
3.5527137e-14
4.2632564e-14
4.2632564e-14
4.2632564e-14
4.2632564e-14
4.9737992e-14
3.5527137e-14
3.5527137e-14
2.1316282e-14
1.4210855e-14
2.8421709e-14
2.1316282e-14
2.8421709e-14
2.8421709e-14
4.9737992e-14
4.9737992e-14
4.9737992e-14
6.3948846e-14
5.6843419e-14
5.6843419e-14
5.6843419e-14
3.5527137e-14
4.2632564e-14
4.9737992e-14
4.2632564e-14
4.2632564e-14
2.8421709e-14
3.5527137e-14
2.8421709e-14
3.5527137e-14
3.5527137e-14
3.5527137e-14
2.8421709e-14
2.8421709e-14
2.8421709e-14
1.4210855e-14
1.4210855e-14
1.4210855e-14
-1.5777218e-29
2.1316282e-14
7.1054274e-15
-1.6960509e-29
2.1316282e-14
2.1316282e-14
2.1316282e-14
1.4210855e-14
2.1316282e-14
2.1316282e-14
2.1316282e-14
1.4210855e-14
3.5527137e-14
3.5527137e-14
3.5527137e-14
2.8421709e-14
3.5527137e-14
3.5527137e-14
4.2632564e-14
4.2632564e-14
4.9737992e-14
2.8421709e-14
3.5527137e-14
4.2632564e-14
5.6843419e-14
4.9737992e-14
7.1054274e-14
6.3948846e-14
8.5265128e-14
9.2370556e-14
9.9475983e-14
1.1368684e-13
1.3500312e-13
1.563194e-13
1.7763568e-13
2.1316282e-13
2.4158453e-13
2.7711167e-13
3.1974423e-13
3.8369308e-13
4.4764192e-13
5.1159077e-13
5.8264504e-13
6.6791017e-13
7.6738615e-13
8.8817842e-13
1.0231815e-12
1.1652901e-12
1.3429258e-12
1.5347723e-12
1.762146e-12
2.0108359e-12
2.3021585e-12
2.6290081e-12
2.9913849e-12
3.3821834e-12
3.8511416e-12
4.3840487e-12
4.9809046e-12
5.6488147e-12
6.4162009e-12
7.283063e-12
8.2565066e-12
9.3578478e-12
1.0622614e-11
1.2036594e-11
1.3635315e-11
1.5440094e-11
1.7458035e-11
1.9753088e-11
2.2346569e-11
2.5274005e-11
2.8585134e-11
3.2308378e-11
3.650058e-11
4.1211479e-11
4.6547655e-11
5.253753e-11
5.9287686e-11
6.6897599e-11
7.5452533e-11
8.5073282e-11
9.5909058e-11
1.0810908e-10
1.2180834e-10
1.3721291e-10
1.5452883e-10
1.7396928e-10
1.9582558e-10
2.203322e-10
2.478302e-10
2.7871039e-10
3.1334935e-10
3.5219472e-10
3.9575099e-10
4.4456527e-10
4.9927706e-10
5.6055427e-10
6.291998e-10
7.0605211e-10
7.9207751e-10
8.8832763e-10
9.9600328e-10
1.116419e-09
1.2510455e-09
1.4015313e-09
1.5696813e-09
1.7575061e-09
1.9672655e-09
2.2014532e-09
2.4628193e-09
2.7544687e-09
3.0797835e-09
3.4425582e-09
3.8469707e-09
4.2977106e-09
4.7999151e-09
5.3592686e-09
5.9821375e-09
6.6754851e-09
7.4470989e-09
8.3055696e-09
9.2603685e-09
1.032199e-08
1.1502046e-08
1.2813352e-08
1.4270064e-08
1.5887835e-08
1.7683938e-08
1.9677451e-08
2.1889392e-08
2.4342945e-08
2.7063699e-08
3.0079832e-08
3.342241e-08
3.7125652e-08
4.1227253e-08
4.576863e-08
5.0795435e-08
5.6357862e-08
6.2511091e-08
6.9315796e-08
7.683866e-08
8.5152898e-08
9.4338951e-08
1.0448509e-07
1.156882e-07
1.2805454e-07
1.4170069e-07
1.5675437e-07
1.7335562e-07
1.9165781e-07
2.1182892e-07
2.3405277e-07
2.5853063e-07
2.8548256e-07
3.151493e-07
3.4779396e-07
3.837041e-07
4.2319383e-07
4.6660614e-07
5.1431545e-07
5.6673035e-07
6.242965e-07
6.8749992e-07
7.5687029e-07
8.3298485e-07
9.1647229e-07
1.0080172e-06
1.1083646e-06
1.2183252e-06
1.3387808e-06
1.4706899e-06
1.6150944e-06
1.7731261e-06
1.9460143e-06
2.1350934e-06
2.3418115e-06
2.5677393e-06
2.8145803e-06
3.0841808e-06
3.3785414e-06
3.6998289e-06
4.0503894e-06
4.4327618e-06
4.8496932e-06
5.3041541e-06
5.7993558e-06
6.3387684e-06
6.92614e-06
7.5655178e-06
8.2612699e-06
9.0181089e-06
9.8411171e-06
1.0735773e-05
1.1707982e-05
1.2764101e-05
1.3910979e-05
1.5155985e-05
1.6507047e-05
1.7972691e-05
1.9562083e-05
2.1285069e-05
2.3152227e-05
2.5174912e-05
2.7365311e-05
2.9736497e-05
3.2302484e-05
3.5078298e-05
3.8080034e-05
4.1324925e-05
4.4831424e-05
4.8619269e-05
5.2709574e-05
5.7124908e-05
6.1889387e-05
6.7028773e-05
7.2570565e-05
7.8544113e-05
8.498072e-05
9.1913765e-05
9.9378817e-05
0.00010741377
0.00011605896
0.00012535734
0.00013535457
0.00014609923
0.00015764293
0.0001700405
0.00018335016
0.00019763371
0.0002129567
0.00022938861
0.00024700312
0.00026587823
0.00028609657
0.00030774554
0.00033091762
0.00035571057
0.0003822277
0.00041057809
0.00044087695
0.00047324578
0.00050781276
0.00054471296
0.0005840887
0.00062608984
0.00067087408
0.00071860732
0.00076946396
0.00082362726
0.00088128968
0.00094265324
0.0010079299
0.0010773418
0.0011511219
0.0012295141
0.0013127737
0.0014011678
0.0014949758
0.0015944895
0.0017000139
0.001811867
0.0019303811
0.0020559022
0.0021887911
0.0023294235
0.0024781903
0.0026354984
0.0028017705
0.0029774459
0.0031629809
0.0033588486
0.00356554
0.0037835638
0.0040134469
0.0042557347
0.0045109913
0.0047797999
0.0050627632
0.0053605031
0.0056736614
0.0060028998
0.0063489002
0.0067123645
0.0070940152
0.007494595
0.0079148671
0.0083556152
0.0088176436
0.0093017766
0.0098088593
0.010339756
0.010895353
0.011476555
0.012084285
0.012719487
0.013383124
0.014076177
0.014799646
0.015554546
0.016341912
0.017162794
0.018018259
0.018909388
0.019837278
0.020803039
0.021807793
0.022852677
0.023938836
0.025067428
0.02623962
0.027456585
0.028719507
0.030029572
0.031387976
0.032795914
0.034254587
0.035765196
0.037328943
0.038947028
0.040620649
0.042351
0.044139269
0.045986639
0.047894285
0.04986337
0.051895049
0.053990462
0.056150738
0.058376989
0.06067031
0.063031778
0.065462452
0.067963367
0.070535539
0.073179957
0.075897586
0.078689364
0.081556202
0.08449898
0.087518549
0.090615728
0.0937913
0.097046019
0.1003806
0.10379572
0.10729202
0.1108701
0.11453054
0.11827384
0.1221005
0.12601095
0.13000559
0.13408477
0.13824879
0.14249794
0.14683241
0.15125239
0.155758
0.16034932
0.16502639
0.16978918
0.17463763
0.17957165
0.18459106
0.18969566
0.1948852
0.20015938
0.20551786
0.21096022
0.21648603
0.22209481
0.22778601
0.23355904
0.23941329
0.24534807
0.25136267
0.25745631
0.2636282
0.26987747
0.27620323
0.28260454
0.28908043
0.29562987
0.3022518
0.30894511
0.31570867
0.32254129
0.32944177
0.33640884
0.34344122
0.35053758
0.35769657
0.36491678
0.37219679
0.37953515
0.38693036
0.39438091
0.40188524
0.40944178
0.41704891
0.42470502
0.43240842
0.44015745
0.44795039
0.45578549
0.46366102
0.47157518
0.47952617
0.48751218
0.49553135
0.50358183
0.51166174
0.51976917
0.52790221
0.53605893
0.54423738
0.5524356
0.56065162
0.56888344
0.57712906
0.58538647
0.59365364
0.60192854
0.61020913
0.61849334
0.62677912
0.6350644
0.6433471
0.65162514
0.65989643
0.66815888
0.67641037
0.68464882
0.69287212
0.70107817
0.70926488
0.71743014
0.72557185
0.73368793
0.74177628
0.7498348
0.75786143
0.76585408
0.77381069
0.7817292
0.78960755
0.79744372
0.80523568
0.81298141
0.82067891
0.82832621
0.83592133
0.84346234
0.8509473
0.8583743
0.86574147
0.87304694
0.88028888
0.88746549
0.89457498
0.90161561
0.90858566
0.91548344
0.92230732
0.92905567
0.93572693
0.94231956
0.94883207
0.95526302
0.96161099
0.96787464
0.97405267
0.9801438
0.98614684
0.99206065
0.99788411
1.0036162
1.0092559
1.0148024
1.0202547
1.0256121
1.0308739
1.0360393
1.0411078
1.0460788
1.050952
1.0557268
1.0604031
1.0649804
1.0694587
1.0738379
1.0781179
1.0822988
1.0863807
1.0903637
1.0942482
1.0980346
1.1017231
1.1053143
1.1088088
1.1122071
1.1155101
1.1187184
1.1218329
1.1248545
1.1277842
1.1306229
1.1333719
1.1360322
1.138605
1.1410916
1.1434934
1.1458116
1.1480478
1.1502033
1.1522796
1.1542783
1.156201
1.1580492
1.1598246
1.1615288
1.1631636
1.1647306
1.1662315
1.1676681
1.1690422
1.1703554
1.1716095
1.1728063
1.1739475
1.1750349
1.1760702
1.1770552
1.1779915
1.178881
1.1797252
1.1805258
1.1812845
1.1820029
1.1826826
1.1833251
1.1839321
1.1845049
1.1850451
1.1855542
1.1860334
1.1864842
1.186908
1.1873059
1.1876793
1.1880294
1.1883573
1.1886642
1.1889513
1.1892195
1.1894698
1.1897033
1.1899209
1.1901236
1.1903121
1.1904873
1.19065
1.1908009
1.1909409
1.1910705
1.1911904
1.1913013
1.1914037
1.1914982
1.1915853
1.1916655
1.1917394
1.1918073
1.1918696
1.1919269
1.1919793
1.1920274
1.1920714
1.1921116
1.1921483
1.1921818
1.1922123
1.1922401
1.1922654
1.1922883
1.1923092
1.1923281
1.1923452
1.1923607
1.1923747
1.1923873
1.1923987
1.192409
1.1924182
1.1924265
1.192434
1.1924406
1.1924466
1.1924519
1.1924567
1.1924609
1.1924646
1.1924679
1.1924707
1.1924732
1.1924754
1.1924773
1.1924788
1.1924802
1.1924812
1.1924821
1.192483
1.1924836
1.1924842
1.192485
1.1924859
1.1924868
1.1924879
1.1924892
1.1924904
1.1924916
1.192493
1.1924944
1.1924957
1.192497
1.1924983
1.1924998
1.1925012
1.1925026
1.1925041
1.1925056
1.192507
1.1925083
1.1925095
1.1925109
1.1925124
1.1925137
1.1925149
1.1925161
1.1925174
1.1925187
1.19252
1.1925211
1.1925224
1.1925237
1.1925249
1.192526
1.192527
1.1925281
1.1925292
1.1925302
1.1925311
1.1925321
1.192533
1.1925339
1.1925346
1.1925353
1.1925361
1.1925369
1.1925376
1.1925383
1.192539
1.1925398
1.1925404
1.192541
1.1925416
1.1925423
1.1925429
1.1925434
1.192544
1.1925446
1.192545
1.1925453
1.1925456
1.1925461
1.1925467
1.1925471
1.1925475
1.1925481
1.1925487
1.1925491
1.1925495
1.1925497
1.1925501
1.1925506
1.1925511
1.1925515
1.1925522
1.1925532
1.1925543
1.1925553
1.1925561
1.1925569
1.1925576
1.1925582
1.1925588
1.1925593
1.1925597
1.1925601
1.1925605
1.1925607
1.1925608
1.1925608
1.1925609
1.192561
1.192561
1.1925612
1.1925617
1.1925622
1.1925628
1.1925634
1.192564
1.1925646
1.1925652
1.1925657
1.1925661
1.1925665
1.1925668
1.1925671
1.1925674
1.1925675
1.1925675
1.1925674
1.1925673
1.1925672
1.1925671
1.1925669
1.1925667
1.1925664
1.192566
1.1925657
1.1925654
1.1925654
1.1925654
1.1925656
1.1925658
1.1925661
1.1925664
1.1925668
1.1925672
1.1925677
1.1925681
1.1925686
1.192569
1.1925694
1.1925698
1.1925701
1.1925704
1.1925707
1.1925709
1.1925711
1.1925713
1.1925714
1.1925715
1.1925716
1.1925717
1.1925717
1.1925716
1.1925715
1.1925714
1.1925712
1.1925711
1.1925709
1.1925707
1.1925704
1.19257
1.1925698
1.1925695
1.1925692
1.192569
1.1925688
1.1925686
1.1925684
1.1925682
1.1925681
1.1925679
1.1925677
1.1925675
1.1925673
1.1925671
1.1925668
1.1925666
1.1925664
1.1925662
1.1925659
1.1925656
1.1925654
1.1925651
1.1925649
1.1925646
1.1925644
1.1925641
1.1925638
1.1925636
1.1925633
1.1925631
1.1925628
1.1925626
1.1925624
1.1925623
1.1925621
1.192562
1.1925619
1.1925617
1.1925616
1.1925615
1.1925613
1.1925612
1.1925611
1.192561
1.1925608
1.1925606
1.1925605
1.1925603
1.1925602
1.19256
1.1925598
1.1925596
1.1925593
1.192559
1.1925588
1.1925585
1.1925581
1.1925578
1.1925575
1.1925571
1.1925567
1.1925564
1.192556
1.1925556
1.1925552
1.1925548
1.1925544
1.192554
1.1925536
1.1925532
1.1925529
1.1925525
1.1925522
1.1925518
1.1925515
1.1925511
1.1925508
1.1925506
1.1925503
1.19255
1.1925498
1.1925495
1.1925493
1.1925491
1.1925489
1.1925486
1.1925485
1.1925483
1.1925481
1.1925479
1.1925478
1.1925476
1.1925474
1.1925472
1.192547
1.1925469
1.1925467
1.1925465
1.1925462
1.192546
1.1925458
1.1925455
1.1925453
1.192545
1.1925447
1.1925444
1.1925441
1.1925438
1.1925435
1.1925431
1.1925428
1.1925425
1.1925421
1.1925417
1.1925414
1.192541
1.1925406
1.1925402
1.1925398
1.1925394
1.192539
1.1925386
1.1925382
1.1925378
1.1925373
1.1925369
1.1925365
1.1925361
1.1925357
1.1925353
1.1925349
1.1925345
1.1925341
1.1925337
1.1925334
1.192533
1.1925327
1.1925323
1.192532
1.1925316
1.1925313
1.192531
1.1925307
1.1925304
1.1925301
1.1925298
1.1925295
1.1925292
1.192529
1.1925287
1.1925284
1.1925282
1.1925279
1.1925277
1.1925274
1.1925272
1.192527
1.1925268
1.1925265
1.1925263
1.1925261
1.1925259
1.1925257
1.1925255
1.1925252
1.192525
1.1925247
1.1925245
1.1925243
1.192524
1.1925238
1.1925235
1.1925233
1.192523
1.1925228
1.1925225
1.1925223
1.192522
1.1925217
1.1925214
1.1925211
1.1925208
1.1925205
1.1925203
1.1925199
1.1925196
1.1925193
1.192519
1.1925186
1.1925183
1.192518
1.1925177
1.1925174
1.192517