/*--------------------------------*- C++ -*----------------------------------*\
| =========                 |                                                 |
| \\      /  F ield         | OpenFOAM: The Open Source CFD Toolbox           |
|  \\    /   O peration     | Version:  4.x                                   |
|   \\  /    A nd           | Web:      www.OpenFOAM.org                      |
|    \\/     M anipulation  |                                                 |
\*---------------------------------------------------------------------------*/
FoamFile
{
    version     2.0;
    format      ascii;
    class       volScalarField;
    location    "0.45";
    object      T;
}
// * * * * * * * * * * * * * * * * * * * * * * * * * * * * * * * * * * * * * //

dimensions      [0 0 0 1 0 0 0];

internalField   nonuniform List<scalar> 
6394
(
300.0000056
300.0000009
300.0000007
300.0000008
300.0000012
300.0000011
300.0000015
300.0000019
300.0000092
300.0000038
300.0000038
300.0000045
300.0000049
300.0000055
300.0000059
300.0000051
300.0000075
300.0000023
300.0000026
300.0000035
300.0000041
300.0000046
300.0000048
300.0000038
300.0000051
300.0000014
300.000002
300.000003
300.0000039
300.0000045
300.0000041
300.0000029
300.0000026
300.0000004
300.0000015
300.0000028
300.0000036
300.0000042
300.0000033
300.0000018
300.0000016
300.0000002
300.0000014
300.0000024
300.0000038
300.0000038
300.0000024
300.0000008
300.0000192
300.0000078
300.0000065
300.0000064
300.0000073
300.0000067
300.0000059
300.0000048
300.000025
300.0000122
300.0000109
300.0000125
300.0000128
300.0000117
300.0000105
300.0000088
300.0000175
300.000008
300.0000084
300.0000103
300.0000109
300.0000103
300.0000087
300.0000067
300.000008
300.0000034
300.000006
300.0000091
300.00001
300.0000089
300.0000068
300.0000044
300.0000029
300.0000016
300.0000058
300.000009
300.0000096
300.0000076
300.0000046
300.000002
300.0000028
300.0000028
300.0000077
300.0000108
300.00001
300.0000067
300.0000031
300.0000004
300.0000237
300.0000158
300.0000155
300.0000147
300.0000133
300.0000086
300.0000043
300.0000024
300.0000308
300.0000206
300.0000203
300.0000213
300.0000183
300.0000127
300.0000081
300.0000061
300.0000209
300.0000146
300.0000161
300.0000175
300.0000149
300.0000098
300.0000059
300.0000036
300.0000079
300.0000074
300.0000119
300.0000142
300.0000117
300.0000068
300.0000027
299.9999999
300.0000027
300.0000044
300.0000106
300.0000123
300.0000094
300.0000042
299.9999991
299.999996
300.0000052
300.0000076
300.0000121
300.0000128
300.0000083
300.0000018
299.9999958
299.9999927
300.0000474
300.0000439
300.0000425
300.0000449
300.0000417
300.0000325
300.0000175
300.0000056
300.0000004
300.000055
300.0000534
300.0000498
300.0000523
300.0000502
300.0000372
300.0000188
300.0000037
299.9999961
300.0000393
300.0000378
300.0000379
300.0000411
300.0000393
300.0000277
300.0000104
299.9999935
299.9999877
300.0000213
300.0000218
300.0000263
300.0000322
300.0000305
300.0000177
299.9999979
299.9999835
299.9999783
300.0000136
300.0000139
300.0000198
300.0000261
300.0000226
300.0000074
299.9999874
299.9999731
299.999968
300.0000153
300.000016
300.0000204
300.0000233
300.0000161
299.9999963
299.999977
299.9999625
299.999958
300.0001092
300.0001076
300.0001131
300.0001159
300.0001047
300.0000765
300.0000405
300.0000136
300.0000031
300.0001505
300.0001479
300.000154
300.0001615
300.000147
300.0001023
300.0000462
300.0000072
299.9999918
300.0001215
300.000117
300.0001238
300.0001306
300.0001177
300.0000768
300.0000247
299.9999853
299.9999692
300.0000909
300.0000893
300.0000974
300.0001046
300.0000894
300.000047
299.9999961
299.9999525
299.9999421
300.0000696
300.0000661
300.0000747
300.00008
300.0000599
300.0000132
299.9999516
299.9999127
299.9999077
300.0000552
300.0000526
300.0000581
300.0000577
300.000031
299.9999745
299.9999116
299.9998757
299.9998749
300.0001832
300.0001902
300.0002017
300.0002001
300.0001759
300.0001273
300.0000731
300.0000332
300.0000172
300.0003559
300.000363
300.0003824
300.0003809
300.0003275
300.0002235
300.0001075
300.0000272
300.0000012
300.0003431
300.0003414
300.0003585
300.000361
300.000307
300.000195
300.0000703
299.9999922
299.9999691
300.000293
300.0002858
300.0003015
300.0003046
300.0002465
300.0001305
300.0000117
299.9999438
299.9999305
300.0002297
300.0002146
300.0002296
300.0002294
300.0001643
300.000047
299.9999388
299.9998742
299.9998758
300.0001643
300.0001505
300.0001616
300.0001546
300.0000831
299.9999748
299.9998596
299.9998046
299.9998198
300.0002218
300.0002269
300.0002459
300.0002621
300.0002618
300.0002299
300.0001722
300.000111
300.0000671
300.0000501
300.0005112
300.0005293
300.0005619
300.0005926
300.0005801
300.0004927
300.0003458
300.0001911
300.0000813
300.0000442
300.0005785
300.0005941
300.0006138
300.0006412
300.0006237
300.0005142
300.0003326
300.000147
300.0000276
299.9999967
300.0005474
300.0005465
300.0005543
300.0005784
300.000559
300.0004405
300.0002475
300.0000574
299.9999597
299.9999466
300.000472
300.000448
300.0004399
300.0004594
300.0004364
300.000311
300.000119
299.9999516
299.9998746
299.9998827
300.000364
300.0003265
300.0003154
300.0003332
300.0003075
300.0001809
299.9999979
299.999851
299.9997874
299.9998175
300.0002228
300.0002207
300.0002209
300.0002358
300.000259
300.0002845
300.0002905
300.0002628
300.0002096
300.0001526
300.0001125
300.000097
300.0005644
300.0005663
300.0005777
300.0006138
300.0006659
300.0007142
300.0007077
300.0006158
300.000461
300.0003003
300.0001905
300.0001531
300.0007123
300.0007138
300.0007231
300.0007571
300.0008032
300.000848
300.0008241
300.0006886
300.0004755
300.0002647
300.0001295
300.000099
300.0007421
300.0007315
300.0007214
300.0007402
300.0007715
300.0008066
300.0007703
300.0006148
300.0003812
300.0001569
300.0000321
300.0000285
300.0007206
300.0006839
300.00065
300.0006411
300.0006512
300.0006729
300.0006258
300.0004583
300.0002208
300.0000071
299.999916
299.9999456
300.0005122
300.0004788
300.0004832
300.0005038
300.0004574
300.0002922
300.0000615
299.9998734
299.9998075
299.9998618
300.0002157
300.0002045
300.0002033
300.0002166
300.0002457
300.0002783
300.0002915
300.0002744
300.0002337
300.0001865
300.0001518
300.0001367
300.0005806
300.0005683
300.0005764
300.0006146
300.0006783
300.0007449
300.0007598
300.0006919
300.0005589
300.0004143
300.0003156
300.0002825
300.0007793
300.0007648
300.0007678
300.0008088
300.0008792
300.0009492
300.0009428
300.0008199
300.0006153
300.0004098
300.0002873
300.0002646
300.000847
300.0008259
300.0008161
300.0008428
300.0008957
300.0009455
300.0009126
300.0007547
300.0005181
300.0002943
300.00018
300.0001885
300.0008368
300.0007995
300.0007666
300.0007683
300.0007967
300.0008231
300.0007648
300.0005826
300.0003313
300.0001135
300.0000247
300.0000765
300.0006219
300.0005945
300.0006096
300.0006293
300.0005687
300.0003865
300.0001407
299.99994
299.9998767
299.999964
300.0001978
300.0001793
300.0001731
300.0001826
300.0002112
300.0002485
300.0002714
300.0002656
300.000235
300.000197
300.000168
300.0001532
300.0005645
300.000533
300.0005256
300.0005591
300.0006372
300.0007226
300.0007567
300.000713
300.0006109
300.0004931
300.000408
300.0003737
300.000796
300.0007633
300.0007546
300.0007935
300.0008763
300.0009634
300.0009826
300.0008963
300.0007279
300.0005485
300.0004378
300.0004125
300.0009091
300.000872
300.0008453
300.0008666
300.0009308
300.000997
300.0009845
300.0008552
300.0006456
300.000442
300.0003385
300.0003416
300.0009206
300.0008767
300.0008314
300.0008279
300.0008627
300.0008984
300.0008499
300.0006808
300.0004435
300.0002367
300.0001552
300.0002035
300.000696
300.0006654
300.0006799
300.0006973
300.0006345
300.0004566
300.0002177
300.0000272
299.9999728
300.0000636
300.0001809
300.0001609
300.0001513
300.0001522
300.0001708
300.0002014
300.000227
300.0002308
300.0002117
300.0001837
300.0001615
300.0001491
300.0005301
300.0004825
300.0004577
300.0004742
300.0005429
300.0006409
300.0007041
300.0006871
300.0006066
300.0005099
300.0004387
300.0004045
300.0007908
300.0007346
300.0006999
300.0007258
300.0008193
300.0009269
300.0009673
300.0009076
300.0007809
300.0006395
300.0005412
300.0005061
300.0009465
300.00089
300.0008414
300.0008514
300.0009171
300.0009923
300.0009976
300.000909
300.0007473
300.0005776
300.0004793
300.0004628
300.0009984
300.0009438
300.0008705
300.0008424
300.0008727
300.0009147
300.0008901
300.0007641
300.0005708
300.0003914
300.0003115
300.0003309
300.0007529
300.0007028
300.0007078
300.0007217
300.0006698
300.0005233
300.0003233
300.0001643
300.0001171
300.0001813
300.0001737
300.0001516
300.0001383
300.0001316
300.0001365
300.0001518
300.0001679
300.0001727
300.0001639
300.0001505
300.0001403
300.000134
300.000502
300.0004471
300.0004136
300.0004082
300.0004437
300.0005109
300.0005703
300.0005832
300.0005418
300.0004772
300.0004239
300.0003941
300.0007711
300.0007001
300.0006486
300.0006473
300.0007094
300.0008109
300.0008816
300.0008643
300.0007708
300.0006591
300.0005768
300.0005353
300.000957
300.0008903
300.0008233
300.0008046
300.000856
300.0009382
300.0009697
300.0009133
300.0008027
300.0006745
300.0005788
300.0005399
300.0010551
300.0009957
300.0008962
300.0008382
300.0008535
300.0008977
300.0008946
300.0008258
300.0006951
300.0005566
300.0004697
300.0004505
300.0008144
300.0007291
300.0007164
300.0007289
300.0007017
300.0006121
300.0004787
300.0003578
300.0003033
300.00032
300.0001654
300.0001458
300.0001325
300.0001214
300.0001141
300.0001145
300.000119
300.0001219
300.0001226
300.0001244
300.0001275
300.0001285
300.0004725
300.0004215
300.0003879
300.0003645
300.0003634
300.0003873
300.0004179
300.0004307
300.0004191
300.0003979
300.0003804
300.0003677
300.0007331
300.0006651
300.0006117
300.0005854
300.0006022
300.0006559
300.0007112
300.0007285
300.0006936
300.0006293
300.0005681
300.0005294
300.0009448
300.0008778
300.0008009
300.000755
300.0007675
300.0008223
300.0008747
300.0008728
300.0008014
300.0007085
300.0006243
300.0005745
300.0010669
300.0010102
300.0009034
300.000822
300.0008059
300.0008387
300.0008669
300.0008418
300.0007731
300.0006709
300.0005783
300.0005345
300.0008663
300.0007488
300.0007147
300.000727
300.0007377
300.0007113
300.0006426
300.0005481
300.0004696
300.0004475
300.000158
300.0001452
300.0001348
300.0001228
300.0001093
300.0001013
300.0000993
300.0001019
300.0001104
300.0001227
300.0001336
300.0001382
300.0004478
300.0004091
300.0003806
300.0003493
300.0003239
300.0003139
300.0003187
300.0003286
300.0003404
300.000356
300.0003677
300.0003677
300.0006808
300.000628
300.000587
300.00055
300.0005278
300.0005332
300.000557
300.0005759
300.0005781
300.0005648
300.0005438
300.000521
300.0008882
300.0008322
300.000769
300.0007178
300.0006943
300.0007084
300.0007431
300.0007665
300.0007535
300.0006963
300.0006278
300.0005831
300.001032
300.0009862
300.0008947
300.0008082
300.0007661
300.0007758
300.0008108
300.0008251
300.0007854
300.0007072
300.0006196
300.0005729
300.001054
300.0010169
300.0009089
300.0007831
300.0007225
300.0007262
300.0007563
300.0007722
300.000738
300.0006536
300.0005612
300.0005246
300.000002
300.0000008
300.0000017
300.0000031
300.0000043
300.0000038
300.0000022
300.0000007
300.000003
300.0000017
300.0000028
300.0000043
300.0000051
300.0000044
300.0000024
300.0000008
300.0000039
300.0000026
300.000004
300.0000052
300.0000055
300.0000045
300.0000027
300.0000015
300.0000042
300.0000029
300.0000042
300.0000053
300.0000055
300.0000046
300.0000033
300.0000024
300.0000028
300.000002
300.0000034
300.0000048
300.0000053
300.0000049
300.0000038
300.000003
300.000001
300.0000008
300.0000026
300.0000045
300.0000055
300.0000053
300.0000045
300.0000036
299.9999976
299.9999997
300.0000023
300.0000046
300.0000061
300.0000065
300.0000058
300.0000039
299.999991
299.9999983
300.0000038
300.0000087
300.0000117
300.0000131
300.0000125
300.0000034
300.0000145
300.0000073
300.0000067
300.0000109
300.0000137
300.0000114
300.0000072
300.000003
300.0000002
300.0000146
300.0000113
300.0000149
300.000017
300.0000139
300.0000088
300.000004
300.0000012
300.0000194
300.000015
300.0000178
300.0000186
300.0000154
300.0000104
300.0000058
300.0000031
300.0000191
300.0000152
300.0000175
300.0000176
300.0000147
300.0000113
300.0000075
300.0000046
300.0000139
300.0000118
300.0000151
300.0000159
300.0000144
300.0000121
300.0000091
300.0000059
300.0000067
300.0000076
300.0000132
300.0000159
300.0000158
300.0000142
300.000011
300.0000067
300.0000005
300.0000053
300.0000137
300.000018
300.000018
300.0000152
300.0000109
300.0000051
299.9999912
300.0000036
300.0000183
300.000026
300.0000247
300.0000208
300.000016
300.0000038
300.0000145
300.0000126
300.0000129
300.0000151
300.0000149
300.0000089
300.0000017
299.9999952
299.9999921
300.0000209
300.0000178
300.00002
300.0000194
300.0000121
300.0000042
299.9999974
299.9999942
300.0000259
300.0000223
300.0000251
300.0000238
300.0000163
300.0000081
300.0000017
299.9999979
300.0000257
300.0000245
300.0000276
300.0000262
300.0000192
300.0000125
300.0000062
300.0000011
300.000023
300.0000237
300.0000272
300.0000263
300.0000208
300.0000156
300.0000099
300.0000036
300.000019
300.0000217
300.0000256
300.0000251
300.0000209
300.0000159
300.0000094
300.0000017
300.0000132
300.0000197
300.0000242
300.0000233
300.0000187
300.0000123
300.0000049
299.9999965
300.000003
300.0000177
300.000026
300.0000264
300.0000198
300.000011
300.0000024
299.999991
299.9999933
300.0000184
300.0000207
300.0000221
300.0000224
300.0000129
299.9999928
299.9999728
299.9999586
299.9999548
300.0000171
300.0000234
300.0000253
300.0000269
300.0000191
299.9999985
299.9999794
299.9999653
299.9999607
300.0000277
300.0000333
300.0000382
300.0000336
300.0000165
299.9999963
299.999982
299.9999753
300.000036
300.0000442
300.0000512
300.0000482
300.000034
300.0000188
300.0000057
299.9999955
300.0000443
300.0000537
300.0000592
300.0000557
300.000043
300.0000294
300.0000157
300.0000036
300.0000509
300.0000586
300.0000584
300.0000509
300.0000382
300.0000242
300.0000094
299.9999953
300.0000501
300.0000572
300.0000501
300.0000357
300.0000196
300.0000017
299.9999843
299.9999719
300.0000342
300.0000499
300.0000411
300.0000198
299.9999947
299.9999747
299.9999563
299.9999507
299.999938
300.0000383
300.0000413
300.0000459
300.0000428
300.0000145
299.9999547
299.9998956
299.9998628
299.9998635
300.0000132
300.0000314
300.0000448
300.0000471
300.0000248
299.9999742
299.9999202
299.9998888
299.9998868
300.0000354
300.0000638
300.0000768
300.0000656
300.00003
299.999989
299.9999558
299.9999466
300.0000657
300.000104
300.0001251
300.0001214
300.0000923
300.0000538
300.000019
300.0000002
300.0001106
300.0001483
300.0001639
300.0001565
300.000127
300.0000872
300.0000463
300.0000182
300.0001521
300.0001756
300.0001676
300.0001423
300.000107
300.000066
300.0000258
300.0000012
300.0001686
300.0001756
300.0001368
300.000085
300.0000382
299.999999
299.9999669
299.9999561
300.0001437
300.0001533
300.0000993
300.0000289
299.9999661
299.999922
299.9998976
299.9999115
299.9998959
300.0000901
300.0000941
300.0001103
300.0001031
300.0000373
299.9999366
299.9998289
299.999781
299.9998007
300.0000184
300.0000564
300.0000988
300.0001077
300.0000566
299.9999722
299.9998758
299.9998301
299.9998437
300.0000624
300.0001411
300.0001762
300.0001512
300.0000793
299.9999971
299.9999505
299.9999445
300.0001302
300.0002352
300.0002864
300.0002748
300.0002105
300.0001284
300.0000636
300.0000322
300.0002407
300.0003404
300.0003725
300.0003453
300.0002728
300.0001863
300.0001148
300.0000716
300.0003523
300.0004092
300.0003845
300.0003134
300.000223
300.0001362
300.0000705
300.0000352
300.0004078
300.0004164
300.000322
300.0001948
300.0000842
300.0000051
299.9999648
299.9999594
300.000372
300.0003646
300.0002327
300.0000718
299.999956
299.9998859
299.9998601
299.9999003
299.9998954
300.0002291
300.0001882
300.000195
300.0002281
300.0002144
300.0001028
299.999944
299.9998079
299.9997547
299.9997944
300.0000841
300.0000573
300.0001108
300.0001851
300.0002035
300.0001259
299.9999875
299.9998657
299.9998151
299.9998463
299.9999834
299.9999993
300.000106
300.0002261
300.0002807
300.0002427
300.0001344
300.0000188
299.9999609
299.9999703
299.999975
300.0000406
300.0001949
300.0003433
300.000416
300.000392
300.0002931
300.0001791
300.0001131
300.0001034
300.0000519
300.0001797
300.0003568
300.0004841
300.0005232
300.0004735
300.0003615
300.0002432
300.0001708
300.00015
300.0001763
300.0003466
300.0005124
300.0005775
300.0005348
300.0004228
300.0002865
300.0001721
300.0001099
300.0000956
300.0002709
300.0004509
300.0005931
300.0005862
300.0004473
300.0002605
300.000102
300.0000052
299.9999687
299.999982
300.0002811
300.0004418
300.0005551
300.0005105
300.0003198
300.0001002
299.9999455
299.9998625
299.9998474
299.9999103
299.9999248
300.0003221
300.0002776
300.0003002
300.0003461
300.0003232
300.0001838
299.9999791
299.9998165
299.9997649
299.9998312
300.0001214
300.0000877
300.0001568
300.0002545
300.0002781
300.000186
300.0000188
299.9998726
299.9998263
299.9998927
299.9999934
299.9999988
300.0001196
300.000268
300.0003342
300.0002853
300.0001568
300.0000321
299.9999878
300.0000425
299.9999928
300.0000468
300.0002093
300.0003781
300.0004603
300.0004275
300.0003113
300.0001902
300.0001402
300.0001752
300.0001024
300.0002141
300.0003903
300.0005267
300.0005662
300.0005033
300.0003743
300.0002497
300.0001932
300.0002126
300.0002622
300.0004101
300.0005622
300.0006236
300.0005714
300.000441
300.0002882
300.0001709
300.0001249
300.0001467
300.0003817
300.0005361
300.0006497
300.0006264
300.0004687
300.0002611
300.000088
299.9999908
299.9999743
300.0000221
300.0003976
300.000533
300.0006104
300.00054
300.0003286
300.0000929
299.9999204
299.9998429
299.9998546
299.9999436
299.9999898
300.0003801
300.0003395
300.0003753
300.000426
300.000395
300.0002425
300.0000251
299.9998528
299.9998099
299.999917
300.0001271
300.0000901
300.0001713
300.0002826
300.0003068
300.0002082
300.0000358
299.9998919
299.9998618
299.9999726
299.9999796
299.9999719
300.0001038
300.0002664
300.0003362
300.0002825
300.0001484
300.0000298
300.0000074
300.0001076
299.9999837
300.000023
300.0001851
300.0003626
300.0004461
300.0004079
300.0002856
300.000172
300.0001427
300.0002199
300.0001088
300.0002007
300.0003663
300.000503
300.0005398
300.0004695
300.000334
300.0002204
300.0001893
300.0002469
300.0002878
300.0004051
300.0005367
300.0005893
300.0005316
300.0003936
300.0002347
300.0001342
300.0001256
300.0001865
300.000424
300.0005361
300.0006185
300.0005775
300.0004121
300.0001973
300.0000213
299.9999557
299.9999879
300.0000779
300.0004507
300.0005373
300.0005772
300.0004831
300.0002654
300.0000267
299.9998634
299.9998379
299.9998865
300.000013
300.0000852
300.0004184
300.000374
300.0004102
300.0004587
300.0004241
300.0002753
300.0000654
299.9999053
299.9998755
299.9999975
300.0001118
300.0000685
300.0001595
300.0002757
300.0002989
300.0002013
300.0000413
299.9999171
299.9999047
300.0000362
299.9999177
299.999889
300.0000317
300.0002164
300.0002904
300.0002325
300.0001056
300.0000193
300.0000224
300.0001454
299.9999241
299.9999274
300.0000788
300.0002674
300.0003483
300.0003043
300.0001948
300.0001242
300.0001385
300.0002382
300.0000734
300.0001156
300.0002424
300.0003705
300.0003996
300.0003267
300.0002154
300.0001574
300.0001795
300.0002641
300.0002706
300.0003299
300.0003957
300.0004183
300.0003554
300.0002302
300.0001187
300.0000891
300.0001335
300.0002292
300.000422
300.0004672
300.0004571
300.0003675
300.0002053
300.0000314
299.999936
299.9999499
300.0000284
300.0001653
300.0004652
300.00048
300.0004153
300.000262
300.0000563
299.9998799
299.9998161
299.999855
299.9999649
300.0001418
300.0002454
300.0004571
300.0003976
300.0004217
300.0004623
300.0004343
300.000307
300.0001277
300.0000029
299.9999915
300.0000974
300.0001123
300.0000541
300.000128
300.0002365
300.0002628
300.000192
300.0000593
299.9999688
299.9999802
300.0001082
299.9998674
299.9998206
299.9999434
300.0001156
300.000194
300.0001659
300.0000858
300.0000288
300.0000535
300.0001777
299.9998402
299.9998198
299.9999483
300.0001217
300.0002042
300.0001898
300.0001373
300.0001123
300.000146
300.0002509
299.9999886
299.9999904
300.0000783
300.0001856
300.0002197
300.0001862
300.0001437
300.0001405
300.0001874
300.0002831
300.0002205
300.0002192
300.0002201
300.000209
300.0001581
300.0000919
300.0000632
300.0000907
300.0001684
300.0002867
300.0004191
300.0003874
300.0002817
300.000142
300.0000019
299.9999103
299.999909
299.9999797
300.0001237
300.0002947
300.0004889
300.0004348
300.0002648
300.0000533
299.9998713
299.9997867
299.9998188
299.9999298
300.0001358
300.0003406
300.000475
300.0005317
300.000436
300.000436
300.000467
300.0004528
300.0003698
300.0002589
300.0001833
300.0001725
300.0002309
300.000141
300.0000667
300.0001256
300.0002181
300.0002552
300.0002095
300.0001244
300.0000864
300.0001205
300.0002096
299.9998702
299.9998104
299.9999102
300.0000636
300.0001506
300.0001547
300.0001078
300.0000866
300.0001324
300.0002338
299.9998158
299.9997786
299.9998837
300.000041
300.0001339
300.0001557
300.0001398
300.0001384
300.0001881
300.000281
299.9999465
299.9999283
299.9999912
300.0000858
300.0001343
300.0001437
300.000143
300.0001666
300.0002332
300.0003239
300.0002048
300.0001736
300.000136
300.0001031
300.0000693
300.0000547
300.0000729
300.0001426
300.0002628
300.0003817
300.00044
300.0003746
300.0002141
300.0000367
299.9999126
299.9998828
299.999939
300.0000973
300.0003098
300.0004715
300.0005583
300.0004474
300.0002262
299.9999714
299.9998039
299.99978
299.9998802
300.0001203
300.0003889
300.0005738
300.0007041
300.0006366
300.0004949
300.0004636
300.000484
300.0004946
300.0004868
300.0004544
300.0004087
300.0003706
300.0003764
300.0002345
300.0001206
300.0001468
300.000228
300.000278
300.0002866
300.0003036
300.0003207
300.0003261
300.0003503
299.9999268
299.9998379
299.9999167
300.0000616
300.0001568
300.0001943
300.0002293
300.0002825
300.000326
300.0003549
299.9998398
299.9997843
299.9998734
300.0000236
300.0001278
300.0001766
300.0002153
300.000284
300.0003429
300.0003746
299.9999493
299.99992
299.9999679
300.0000592
300.0001227
300.0001573
300.0002019
300.0002909
300.0003832
300.0004308
300.0002129
300.0001742
300.0001211
300.0000781
300.0000573
300.0000685
300.0001387
300.0002867
300.0004576
300.0005428
300.0005
300.0003995
300.0002136
300.0000177
299.9999016
299.9999017
300.000032
300.0002832
300.0005457
300.0006755
300.0006601
300.0005061
300.0002404
299.9999685
299.999807
299.9998176
300.0000136
300.0003527
300.0006532
300.0007942
300.0008807
300.000979
300.0009489
300.0008176
300.0006562
300.0005784
300.0005785
300.0006118
300.0006441
300.0006268
300.0005513
300.0004856
300.0004763
300.0008041
300.0007368
300.0005409
300.0003595
300.0002965
300.0003343
300.0004073
300.0004805
300.000505
300.0004791
300.0004477
300.0004555
300.000606
300.0004714
300.0002153
300.0000376
300.0000258
300.0001283
300.0002438
300.0003574
300.0004384
300.0004606
300.0004523
300.0004612
300.0004214
300.0002565
300.000014
299.9998808
299.9999129
300.0000466
300.0001792
300.00031
300.0004301
300.0004861
300.000499
300.0004983
300.000321
300.0001837
300.0000254
299.9999486
299.9999728
300.0000659
300.0001627
300.0002792
300.0004245
300.000539
300.0005822
300.0005877
300.0003848
300.000313
300.0002471
300.0002012
300.0001402
300.0000917
300.0000934
300.0001901
300.000383
300.0005923
300.0006976
300.0007264
300.0005822
300.0005762
300.0005658
300.0004953
300.0002849
300.0000464
299.9999355
300.0000357
300.0003189
300.0006407
300.000813
300.0008616
300.0007583
300.0007743
300.000755
300.0006487
300.0003631
300.0000371
299.9998872
300.0000098
300.0003475
300.0007058
300.0008906
300.0009382
300.0009422
300.0000011
300.0000006
300.0000004
300.0000006
300.0000007
300.0000007
300.0000039
300.0000034
300.0000035
300.0000037
300.0000036
300.0000019
300.0000027
300.0000023
300.0000025
300.0000024
300.000002
300.0000005
300.0000018
300.0000014
300.0000014
300.0000011
300.0000005
299.9999995
300.0000008
300.0000005
300.0000002
299.9999999
299.9999995
299.999999
300.0000001
299.9999997
299.9999993
299.9999992
299.9999992
299.9999989
300.0000037
300.0000031
300.0000034
300.0000039
300.0000038
300.0000027
300.0000072
300.0000069
300.0000074
300.0000073
300.0000064
300.0000034
300.0000052
300.0000049
300.0000052
300.0000046
300.0000035
300.0000012
300.0000028
300.0000028
300.0000028
300.0000022
300.0000014
300
300.0000008
300.0000007
300.0000006
300.0000005
300.0000003
299.9999995
299.9999995
299.9999993
299.9999993
299.9999997
300.0000001
299.9999994
300.0000021
300.0000038
300.0000058
300.0000067
300.0000065
300.0000046
300.0000055
300.0000072
300.0000094
300.0000098
300.0000093
300.000006
300.0000027
300.0000036
300.0000055
300.0000057
300.0000056
300.0000036
299.9999993
300.0000002
300.0000017
300.0000028
300.0000034
300.0000023
299.9999957
299.9999967
299.999998
300.0000005
300.0000021
300.0000016
299.9999929
299.9999942
299.9999957
299.9999983
300.000001
300.000001
300.0000016
300.0000071
300.000013
300.0000163
300.000017
300.0000111
299.999999
300.0000084
300.0000159
300.0000201
300.0000227
300.0000176
299.9999906
300.000001
300.0000087
300.000013
300.0000167
300.000015
299.9999816
299.999992
300.0000025
300.0000079
300.0000126
300.0000128
299.9999711
299.999981
299.9999946
300.0000034
300.0000097
300.0000111
299.999962
299.9999713
299.9999856
299.999999
300.0000071
300.0000099
300.0000058
300.0000174
300.0000305
300.0000376
300.0000365
300.0000192
299.9999989
300.0000184
300.0000403
300.0000565
300.0000633
300.0000375
299.9999816
300.0000055
300.0000262
300.0000429
300.0000559
300.0000399
299.9999618
299.9999921
300.0000136
300.0000307
300.0000456
300.0000389
299.999934
299.9999727
300.0000004
300.0000206
300.0000383
300.000037
299.9999058
299.9999507
299.9999873
300.0000129
300.0000345
300.0000371
300.0000217
300.000038
300.0000527
300.0000582
300.0000516
300.0000242
300.0000133
300.0000498
300.0000926
300.0001136
300.0001088
300.000053
299.9999888
300.000031
300.0000795
300.0001136
300.0001214
300.0000647
299.9999635
300.0000103
300.0000563
300.0000979
300.0001207
300.0000708
299.9999272
299.9999846
300.0000343
300.0000797
300.0001154
300.0000736
299.9998868
299.9999574
300.0000156
300.0000693
300.000115
300.0000771
300.0000551
300.0000684
300.0000759
300.0000749
300.0000631
300.0000281
300.0000642
300.0001152
300.0001517
300.0001622
300.0001426
300.0000665
300.0000316
300.0001034
300.0001666
300.0001926
300.0001783
300.0000867
299.9999982
300.0000803
300.0001612
300.0002041
300.0002007
300.0000989
299.9999547
300.0000496
300.000143
300.0002054
300.0002141
300.0001052
299.999908
300.0000165
300.0001241
300.0002055
300.0002255
300.0001098
300.0000991
300.0001048
300.0001043
300.000098
300.0000818
300.0000352
300.0001747
300.0002096
300.0002237
300.0002167
300.0001872
300.000088
300.0001532
300.0002283
300.0002673
300.0002705
300.0002381
300.000114
300.0001173
300.0002278
300.0002936
300.0003098
300.0002725
300.0001253
300.0000675
300.0002094
300.0003018
300.0003341
300.0002934
300.0001279
300.00001
300.0001788
300.0002996
300.0003489
300.0003079
300.0001289
300.0001346
300.0001359
300.0001345
300.0001284
300.0001058
300.0000428
300.0002947
300.0003127
300.000314
300.0003002
300.0002568
300.0001129
300.0003141
300.0003666
300.0003847
300.0003734
300.000323
300.0001448
300.0002831
300.0003774
300.0004204
300.0004141
300.0003491
300.0001515
300.0002198
300.0003593
300.0004304
300.0004333
300.0003535
300.0001452
300.0001473
300.0003278
300.0004295
300.0004432
300.0003532
300.0001383
300.0001486
300.000149
300.0001503
300.0001454
300.0001165
300.0000441
300.0003742
300.0003842
300.000387
300.0003739
300.0003078
300.000123
300.0004441
300.00048
300.0004926
300.0004777
300.0003972
300.0001618
300.0004168
300.0004909
300.000523
300.0005088
300.0004163
300.0001675
300.000334
300.0004569
300.0005146
300.0005033
300.0003992
300.000156
300.0002432
300.0004127
300.0004967
300.0004885
300.000375
300.000143
300.000144
300.0001442
300.0001468
300.0001422
300.0001109
300.0000392
300.0003968
300.0004025
300.0004092
300.0003958
300.0003128
300.0001168
300.0005137
300.0005358
300.0005502
300.0005325
300.0004223
300.0001603
300.0005027
300.0005563
300.000587
300.0005698
300.0004484
300.0001689
300.0004187
300.0005143
300.0005658
300.0005503
300.0004254
300.0001582
300.0003178
300.0004562
300.0005267
300.0005111
300.0003877
300.0001447
300.00013
300.0001295
300.0001321
300.0001278
300.000098
300.000034
300.0003836
300.0003869
300.0003949
300.0003795
300.0002906
300.000106
300.0005271
300.0005409
300.0005558
300.0005346
300.000412
300.0001511
300.0005479
300.000584
300.0006119
300.0005881
300.0004486
300.0001631
300.0004887
300.0005557
300.0005986
300.0005746
300.0004311
300.0001556
300.000399
300.0004994
300.0005551
300.0005311
300.000397
300.0001457
300.0001262
300.0001243
300.0001254
300.0001221
300.0000961
300.0000347
300.0003587
300.0003577
300.0003646
300.0003533
300.0002773
300.0001064
300.0005156
300.0005228
300.0005364
300.0005144
300.0003956
300.0001495
300.0005659
300.0005897
300.0006122
300.0005836
300.0004391
300.0001606
300.0005421
300.0005879
300.000618
300.0005806
300.0004289
300.0001537
300.0004836
300.0005525
300.0005878
300.0005492
300.0004041
300.0001462
300.0001362
300.0001326
300.0001327
300.0001301
300.0001053
300.0000387
300.0003602
300.0003574
300.000364
300.0003573
300.0002903
300.0001148
300.0005087
300.0005121
300.0005246
300.0005092
300.0004015
300.0001557
300.0005724
300.0005905
300.000608
300.0005778
300.0004392
300.0001632
300.0005718
300.0006053
300.0006244
300.0005806
300.0004286
300.000154
300.0005433
300.0005902
300.0006077
300.0005582
300.0004066
300.0001453
299.9999999
299.9999994
299.9999991
299.9999992
299.9999994
299.9999993
300.0000001
299.9999997
299.9999997
299.9999999
300.0000003
300.0000001
300.000001
300.0000008
300.0000007
300.0000009
300.0000012
300.0000006
300.000002
300.0000017
300.0000016
300.0000015
300.0000016
300.0000004
300.0000025
300.000002
300.0000018
300.0000015
300.0000012
300
300.0000028