/*--------------------------------*- C++ -*----------------------------------*\
  =========                 |
  \\      /  F ield         | OpenFOAM: The Open Source CFD Toolbox
   \\    /   O peration     | Website:  https://openfoam.org
    \\  /    A nd           | Version:  7
     \\/     M anipulation  |
\*---------------------------------------------------------------------------*/
FoamFile
{
    version     2.0;
    format      ascii;
    class       volVectorField;
    location    "0.00182";
    object      U;
}
// * * * * * * * * * * * * * * * * * * * * * * * * * * * * * * * * * * * * * //

dimensions      [0 1 -1 0 0 0 0];

internalField   nonuniform List<vector> 
5000
(
(0.079368029 1.0196665e-19 0)
(0.084240415 2.0819674e-19 0)
(0.074659498 0 0)
(0.081230413 0 0)
(0.080352573 -7.0745349e-20 0)
(0.079653779 6.621464e-35 -5.8243013e-20)
(0.079475209 5.669892e-20 -1.2086102e-34)
(0.079541732 0 1.7189146e-19)
(0.07967883 0 5.8195582e-20)
(0.079689014 -5.9024498e-20 -1.18049e-19)
(0.079706521 -1.1960159e-19 -1.1960159e-19)
(0.07973777 6.0582358e-20 6.0582358e-20)
(0.079769073 6.1379617e-20 -5.2335409e-34)
(0.079799105 -6.2173269e-20 -5.4779188e-34)
(0.079829477 0 1.2593752e-19)
(0.079860125 -6.3769383e-20 -1.2753877e-19)
(0.079890904 6.2251317e-49 3.1125659e-49)
(0.079921824 6.5385623e-20 -5.7609506e-34)
(0.079952902 0 -6.6201412e-20)
(0.079984141 6.7022602e-20 1.340452e-19)
(0.080015558 -6.7849411e-20 6.7849411e-20)
(0.08004712 -6.8682014e-20 0)
(0.080078804 1.3904095e-19 0)
(0.080110663 -7.0365039e-20 -7.0365039e-20)
(0.080142718 -7.1216077e-20 6.0722479e-34)
(0.080174949 -5.9405373e-34 -5.9405373e-34)
(0.080207349 7.293846e-20 -7.293846e-20)
(0.080239927 7.3810289e-20 7.3810289e-20)
(0.080272687 -1.4937927e-19 7.4689634e-20)
(0.080305632 1.3102938e-33 -7.5576826e-20)
(0.080338765 -1.3366848e-33 1.3366848e-33)
(0.080372088 7.7376194e-20 -6.5974911e-34)
(0.080405607 1.5657832e-19 -7.828916e-20)
(0.080439323 -1.5842311e-19 7.9211554e-20)
(0.08047324 1.3894733e-33 8.0143847e-20)
(0.080507363 -7.0521314e-33 0)
(0.080541695 -2.8447008e-33 0)
(0.08057624 1.6601064e-19 -8.3005318e-20)
(0.080611003 -1.6796518e-19 -8.3982592e-20)
(0.080645987 -1.699453e-19 8.4972651e-20)
(0.080681198 1.719524e-19 -1.4417184e-33)
(0.08071664 -5.983493e-33 -8.6993985e-20)
(0.080752321 -1.7605362e-19 8.8026809e-20)
(0.080788247 8.9075532e-20 -1.5063489e-33)
(0.080824424 2.7042317e-19 -9.0141057e-20)
(0.080860878 -9.1224425e-20 9.1224425e-20)
(0.08089758 -9.2326668e-20 -3.1751389e-33)
(0.080934478 -6.4008882e-33 3.2004441e-33)
(0.080971631 -1.8918296e-19 -3.2530263e-33)
(0.08100911 0 1.6329417e-33)
(0.081046902 9.6945772e-20 9.6945772e-20)
(0.081084977 1.3949356e-35 0)
(0.081123342 -9.9400382e-20 0)
(0.081162019 2.013379e-19 0)
(0.081201017 -3.5646435e-33 0)
(0.081240344 -2.0659418e-19 0)
(0.081280008 1.0466025e-19 0)
(0.081320023 -3.6624599e-33 0)
(0.081360398 -1.0749458e-19 0)
(0.081401145 0 0)
(0.081442278 1.1048727e-19 0)
(0.081483809 3.8215433e-33 0)
(0.081525752 3.2303328e-35 0)
(0.081568123 1.1531515e-19 -1.1531515e-19)
(0.081610936 -1.170254e-19 -1.170254e-19)
(0.081654209 4.1527775e-33 1.1879095e-19)
(0.081697958 1.206149e-19 -2.0739894e-33)
(0.081742202 -1.2250051e-19 9.2315176e-50)
(0.081786961 -1.244512e-19 1.244512e-19)
(0.081832253 1.2647054e-19 0)
(0.081878103 1.2856229e-19 0)
(0.081924531 -1.3073037e-19 -1.3073037e-19)
(0.081971562 -1.3297888e-19 -1.3297888e-19)
(0.082019219 2.7062421e-19 0)
(0.082067532 1.3773453e-19 1.3773453e-19)
(0.082116531 -1.4025084e-19 4.8431949e-33)
(0.082166243 0 -1.4286592e-19)
(0.082216717 1.455849e-19 -1.455849e-19)
(0.082267973 -2.1090769e-35 1.4841309e-19)
(0.08232006 -1.5135607e-19 3.0271213e-19)
(0.082373005 1.5441967e-19 -3.0883935e-19)
(0.082426726 -4.4795336e-35 8.9590673e-35)
(0.082481228 4.5739495e-35 4.8279462e-19)
(0.082536727 1.6439248e-19 -3.2878497e-19)
(0.08259338 1.68e-19 -1.7475941e-32)
(0.082651134 5.9801351e-33 3.4352212e-19)
(0.082709926 -1.7568229e-19 -5.2704686e-19)
(0.082769819 0 1.7977105e-19)
(0.08283092 -1.8403552e-19 1.8403552e-19)
(0.082893287 -1.955319e-32 -1.8848403e-19)
(0.082956962 -6.7513981e-33 1.9312496e-19)
(0.083021998 1.9796703e-19 1.9796703e-19)
(0.083088462 2.0301936e-19 7.0684425e-33)
(0.083156419 -4.1658278e-19 -4.1658278e-19)
(0.083225937 -1.4795936e-32 -1.4795936e-32)
(0.083297086 2.1953402e-19 -2.1953402e-19)
(0.08336994 0 -2.2552522e-19)
(0.083444574 0 -8.1355725e-33)
(0.08352107 -2.3830159e-19 1.6593699e-32)
(0.08359951 -1.6998098e-32 4.9021918e-19)
(0.083679984 5.0442668e-19 2.5221334e-19)
(0.083762581 -2.5962525e-19 -2.5962525e-19)
(0.083847397 -5.3471627e-19 3.7993876e-35)
(0.083934529 0 2.7542525e-19)
(0.084024086 2.8384029e-19 0)
(0.084116178 2.9261741e-19 -2.9261741e-19)
(0.084210918 -3.017712e-19 -1.0506646e-32)
(0.084308445 -3.113168e-19 3.113168e-19)
(0.084408871 0 -3.212698e-19)
(0.084512307 0 -3.3164618e-19)
(0.084618857 3.4246247e-19 6.8492494e-19)
(0.084728509 3.5373533e-19 3.5373533e-19)
(0.084841333 0 -1.096445e-18)
(0.084957725 -3.7772015e-19 -3.7772015e-19)
(0.085078114 1.3650358e-32 1.1714129e-18)
(0.085202542 4.0375364e-19 -4.0375364e-19)
(0.085330876 -4.1758675e-19 -4.1758675e-19)
(0.085463236 1.2277889e-34 -2.4555779e-34)
(0.085599952 -1.5625996e-32 -4.4698445e-19)
(0.085741283 7.6657983e-49 1.3877789e-18)
(0.085887367 9.5767531e-19 -3.3479086e-32)
(0.086038355 -2.1134714e-34 -9.9148217e-19)
(0.086194456 -5.133268e-19 1.0266536e-18)
(0.086355897 0 5.3161918e-19)
(0.086522896 -5.5064323e-19 -5.5064323e-19)
(0.086695669 5.7042457e-19 5.7042457e-19)
(0.086874451 5.9098956e-19 -5.9098956e-19)
(0.087059479 -1.2247305e-18 -1.2247305e-18)
(0.087251009 -6.3457956e-19 6.3457956e-19)
(0.087449292 1.315322e-18 2.2710598e-32)
(0.087654601 6.8163894e-19 6.8163894e-19)
(0.087867218 -7.0654354e-19 1.4130871e-18)
(0.088087428 -7.324057e-19 -7.324057e-19)
(0.088315545 -7.5925719e-19 -7.5925719e-19)
(0.08855188 0 -7.8713063e-19)
(0.088796715 8.1605931e-19 -2.8412406e-32)
(0.089050325 8.4607729e-19 -2.9337295e-32)
(0.089312942 -8.7721936e-19 3.054179e-32)
(0.089584773 -3.1537166e-32 1.8190416e-18)
(0.089866282 9.4301822e-19 9.4301822e-19)
(0.090158229 -9.7775056e-19 -9.7775056e-19)
(0.090461184 -1.0137579e-18 -2.0275158e-18)
(0.090775223 0 -1.0510792e-18)
(0.091100376 1.089753e-18 -1.089753e-18)
(0.091437099 1.1298198e-18 7.8351841e-32)
(0.091786086 -1.171323e-18 2.342646e-18)
(0.092147866 1.2143067e-18 -3.4512671e-34)
(0.092522776 -7.155533e-34 3.5777665e-34)
(0.092911205 -1.3048915e-18 -2.0312233e-47)
(0.09331365 1.3525831e-18 1.3525831e-18)
(0.093730655 -1.4019368e-18 -9.7222874e-32)
(0.094162721 1.0117706e-31 2.0235412e-31)
(0.094610364 1.5058233e-18 1.5058233e-18)
(0.095074119 -1.560455e-18 -1.560455e-18)
(0.095554543 1.6169465e-18 1.6169465e-18)
(0.096052225 1.6753498e-18 5.8091894e-32)
(0.096567745 -1.7357179e-18 -1.7357179e-18)
(0.097101705 0 1.7981046e-18)
(0.097654741 0 -2.6468637e-34)
(0.098227472 -1.9291544e-18 -1.9291544e-18)
(0.098820484 -1.9979303e-18 0)
(0.099434345 2.06895e-18 2.06895e-18)
(0.10006962 2.1422718e-18 1.4825991e-31)
(0.100727 -2.2179552e-18 -4.4359104e-18)
(0.10140755 -1.592295e-31 2.2960614e-18)
(0.10211237 2.3766541e-18 -6.7548571e-34)
(0.10284218 -2.4597966e-18 -2.4597966e-18)
(0.10359723 -2.5455513e-18 2.5455513e-18)
(0.10437804 0 -2.6339807e-18)
(0.10518568 2.7251503e-18 2.7251503e-18)
(0.10602129 2.8191284e-18 -1.1746244e-30)
(0.10688574 0 -8.088817e-31)
(0.10777971 -3.0157818e-18 3.0157818e-18)
(0.10870403 -3.118593e-18 -6.237186e-18)
(0.10965968 0 0)
(0.11064767 3.3335344e-18 -2.3117718e-31)
(0.11166895 7.1688966e-31 -7.1688966e-31)
(0.11272447 -3.5613789e-18 3.5613789e-18)
(0.11381524 3.6803212e-18 3.6803212e-18)
(0.11494232 3.8027087e-18 2.6209274e-31)
(0.11610675 -3.9286162e-18 -3.9286162e-18)
(0.11730962 -2.8027301e-31 4.0581193e-18)
(0.11855199 2.8827945e-31 2.8827945e-31)
(0.1198349 1.84523e-33 1.84523e-33)
(0.12115941 4.468966e-18 6.1920131e-31)
(0.12252661 -4.6136182e-18 -9.2272364e-18)
(0.12393769 -6.6051455e-31 4.762252e-18)
(0.12539412 3.3805267e-31 4.9149467e-18)
(0.12689747 -3.4883998e-31 -3.4883998e-31)
(0.12844905 5.2328432e-18 3.606614e-31)
(0.13004972 0 -1.122313e-30)
(0.13170043 0 3.8454919e-31)
(0.13340258 -5.7421587e-18 -5.7421587e-18)
(0.13515793 -5.9209115e-18 0)
(0.13696795 0 0)
(0.13883391 0 0)
(0.14075707 6.4852688e-18 0)
(0.14273894 -9.642119e-48 -6.6830265e-18)
(0.14478108 -6.885741e-18 1.4354927e-30)
(0.14688501 0 7.0934952e-18)
(0.14905224 7.3063716e-18 7.3063716e-18)
(0.15128433 -7.5244524e-18 -7.5244524e-18)
(0.15358286 -2.1470113e-30 -7.74782e-18)
(0.15594944 1.5953114e-17 1.5953114e-17)
(0.15838568 -8.2107448e-18 5.6823989e-31)
(0.16089318 -1.7544906e-30 -1.7544906e-30)
(0.16347354 -1.2357476e-33 -8.6958006e-18)
(0.16612838 -8.9468304e-18 -8.9468304e-18)
(0.16885946 9.2036351e-18 9.2036351e-18)
(0.17166868 -1.3452414e-33 0)
(0.17455813 -1.3474423e-30 9.7348894e-18)
(0.17752974 6.9272608e-31 6.9272608e-31)
(0.18058508 -1.0290205e-17 -1.0290205e-17)
(0.18372554 0 -1.0577079e-17)
(0.18695294 1.0870198e-17 1.5138531e-30)
(0.19026949 7.7301564e-31 1.1169639e-17)
(0.19367736 3.1848807e-30 -2.2950953e-17)
(0.19717843 1.1787787e-17 1.1787787e-17)
(0.20077442 0 1.2106642e-17)
(0.20446729 -1.2432112e-17 -1.2432112e-17)
(0.20825914 -1.2764268e-17 1.2764268e-17)
(0.21215207 0 0)
(0.21614808 0 0)
(0.22024924 0 0)
(0.22445762 1.4161123e-17 1.4161123e-17)
(0.22877533 1.0054182e-30 -1.4527724e-17)
(0.23320446 -1.4901407e-17 -2.9802814e-17)
(0.2377471 0 1.5282232e-17)
(0.24240534 0 -1.0889431e-30)
(0.24718133 1.606554e-17 1.606554e-17)
(0.2520773 1.6468136e-17 1.6468136e-17)
(0.25709568 -1.6878096e-17 -3.3756192e-17)
(0.26223896 -1.7295475e-17 4.9156697e-33)
(0.2675094 0 -5.036419e-33)
(0.27290887 1.815269e-17 1.815269e-17)
(0.27843928 1.8592616e-17 1.8592616e-17)
(0.28410302 -1.9040141e-17 -3.8080282e-17)
(0.28990278 -1.949531e-17 2.7704502e-33)
(0.29584103 0 -4.1579067e-30)
(0.30191988 2.0428738e-17 2.0428738e-17)
(0.30814148 -5.8054758e-30 -1.1610952e-29)
(0.3145082 -1.4835946e-30 -2.9671893e-30)
(0.32102252 2.1887098e-17 2.1887098e-17)
(0.32768683 -2.2388861e-17 -2.2388861e-17)
(0.33450345 -2.2898488e-17 0)
(0.34147471 0 -2.3416e-17)
(0.34860301 2.3941415e-17 2.3941415e-17)
(0.35589071 -3.4015534e-30 2.4474748e-17)
(0.36334015 2.5016014e-17 -2.5016014e-17)
(0.37095368 3.5458437e-30 0)
(0.37873368 -5.2244757e-17 -2.6122379e-17)
(0.38668259 2.6687488e-17 2.6687488e-17)
(0.39480293 -3.7809823e-30 2.7260551e-17)
(0.40309726 -9.66579e-30 -9.66579e-30)
(0.41156803 -1.9675882e-30 -5.6861072e-17)
(0.42021741 -2.9027449e-17 -5.8054897e-17)
(0.42904749 2.9632293e-17 8.8896878e-17)
(0.43806066 3.0245051e-17 6.0490102e-17)
(0.44725956 0 0)
(0.45664678 -3.1494249e-17 -6.2988499e-17)
(0.46622458 -3.2130652e-17 -3.2130652e-17)
(0.47599514 0 3.2774887e-17)
(0.4859608 3.3426925e-17 3.3426925e-17)
(0.49612399 3.4086734e-17 3.4086734e-17)
(0.50648712 -6.950856e-17 -6.950856e-17)
(0.51705247 -3.5429525e-17 -7.085905e-17)
(0.52782232 3.6112427e-17 3.6112427e-17)
(0.53879895 3.6802941e-17 7.3605881e-17)
(0.54998462 1.0402628e-29 1.0402628e-29)
(0.56138161 -3.820661e-17 -7.641322e-17)
(0.57299211 3.8919661e-17 3.8919661e-17)
(0.5848184 -2.749001e-30 -5.498002e-30)
(0.59686274 -4.0367905e-17 -4.0367905e-17)
(0.60912743 4.1102976e-17 8.2205952e-17)
(0.62161474 -2.9078723e-30 -4.184526e-17)
(0.63432679 2.966004e-30 5.932008e-30)
(0.64726554 -1.232115e-32 4.3351191e-17)
(0.66043293 -3.04677e-30 -4.4114687e-17)
(0.67383113 4.4885097e-17 4.4885097e-17)
(0.68746244 0 -9.1324683e-17)
(0.70132897 0 1.9378839e-29)
(0.71543263 -4.7237009e-17 9.4474017e-17)
(0.72977527 -4.8034252e-17 -9.6068504e-17)
(0.7443589 0 -3.3799232e-30)
(0.75918552 0 4.9648091e-17)
(0.77425707 0 0)
(0.78957538 0 0)
(0.80514227 5.2115785e-17 5.2115785e-17)
(0.82095954 3.6494856e-30 -5.2950457e-17)
(0.83702897 -1.0758201e-16 -1.0758201e-16)
(0.85335229 2.3293291e-32 5.4637322e-17)
(0.86993123 5.5489292e-17 -1.5771005e-32)
(0.8867675 5.6346802e-17 5.6346802e-17)
(0.9038628 -7.9430026e-30 5.7209736e-17)
(0.92121881 -8.0470424e-30 -5.8077976e-17)
(0.93883711 -8.3774985e-33 0)
(0.9567191 -5.98299e-17 -5.98299e-17)
(0.97486616 -6.0713333e-17 -6.0713333e-17)
(0.99327977 -6.1601576e-17 0)
(1.0119615 1.24989e-16 1.24989e-16)
(1.0309129 1.9017596e-16 6.3391986e-17)
(1.0501351 -6.42939e-17 -1.285878e-16)
(1.0696294 -1.3040022e-16 4.5122949e-30)
(1.0893971 0 -1.8789726e-32)
(1.1094394 6.7024861e-17 6.7024861e-17)
(1.1297575 6.7943139e-17 6.7943139e-17)
(1.1503526 -6.886517e-17 -6.886517e-17)
(1.1712258 1.9835742e-32 6.9790813e-17)
(1.192378 -3.0149719e-32 -7.0719929e-17)
(1.2138103 2.0364831e-32 4.0729661e-32)
(1.2355237 7.2588018e-17 1.4517604e-16)
(1.2575192 7.3526708e-17 -7.3526708e-17)
(1.2797975 -7.4468305e-17 -7.4468305e-17)
(1.3023597 -1.5082533e-16 -7.5412666e-17)
(1.3252065 7.6359648e-17 -1.0590926e-29)
(1.3483387 -4.6038412e-47 7.7309108e-17)
(1.3717569 7.8260902e-17 0)
(1.3954617 2.1951368e-29 0)
(1.4194538 -1.603418e-16 -8.0170901e-17)
(1.4437339 0 1.1263929e-29)
(1.4683025 0 -2.2782674e-29)
(1.4931601 1.6609953e-16 -1.1542436e-29)
(1.5183071 -4.6657204e-29 8.4012509e-17)
(1.5437438 -1.6995313e-16 -8.4976566e-17)
(1.5694708 0 1.2213064e-32)
(1.5954882 8.6908057e-17 8.6908057e-17)
(1.6217964 8.7875204e-17 0)
(1.6483957 -8.8843093e-17 0)
(1.6752861 1.2762993e-32 0)
(1.7024678 -1.2603973e-29 0)
(1.729941 1.3038428e-32 0)
(1.7577057 9.2719217e-17 0)
(1.785762 -9.3688685e-17 0)
(1.8141098 -9.4658049e-17 -9.4658049e-17)
(1.8427491 0 0)
(1.8716796 9.6595914e-17 9.6595914e-17)
(1.9009014 -1.354581e-29 0)
(1.930414 -9.8531709e-17 -9.8531709e-17)
(1.9602175 1.9899698e-16 -2.7600472e-29)
(1.9903115 -2.7868399e-29 1.0046436e-16)
(2.0206958 -1.0142917e-16 0)
(2.0513698 -2.8432444e-29 0)
(2.0823332 -2.0671024e-16 -1.0335512e-16)
(2.1135857 2.08632e-16 -1.4483239e-29)
(2.1451267 1.0527531e-16 1.0527531e-16)
(2.1769558 -1.0623293e-16 0)
(2.2090723 -1.5232435e-32 0)
(2.2414758 -1.081426e-16 -1.081426e-16)
(2.2741655 0 -1.090944e-16)
(2.3071409 0 1.1004402e-16)
(2.3404013 1.1099135e-16 1.1099135e-16)
(2.3739459 -1.5525329e-29 0)
(2.407774 -2.257573e-16 -1.1287865e-16)
(2.4418847 1.6174566e-32 1.6174566e-32)
(2.4762773 3.4426615e-16 1.1475538e-16)
(2.5109509 -1.1568951e-16 -1.1568951e-16)
(2.5459045 -1.1662066e-16 -1.1662066e-16)
(2.5811373 2.3509748e-16 1.1754874e-16)
(2.6166484 -1.1847363e-16 1.1847363e-16)
(2.6524367 1.1939524e-16 0)
(2.6885011 2.4062693e-16 -1.2031347e-16)
(2.7248407 -1.212282e-16 -1.212282e-16)
(2.7614543 -1.2213936e-16 1.2213936e-16)
(2.7983409 -1.2304683e-16 1.2304683e-16)
(2.8354993 1.2395053e-16 0)
(2.8729284 -8.782397e-47 -1.2485036e-16)
(2.9106268 -1.2574624e-16 -1.2574624e-16)
(2.9485936 1.2663807e-16 1.2663807e-16)
(2.9868273 -1.2752577e-16 1.2752577e-16)
(3.0253267 1.2840925e-16 0)
(3.0640905 3.5827334e-29 0)
(3.1031174 3.6994617e-32 0)
(3.142406 1.3103358e-16 0)
(3.181955 -2.6379875e-16 0)
(3.2217629 1.3276056e-16 0)
(3.2618284 3.7102798e-29 0)
(3.30215 -3.7301089e-29 0)
(3.3427263 -1.3531569e-16 -1.3531569e-16)
(3.3835557 -2.7231538e-16 6.5965846e-46)
(3.4246367 4.1098416e-16 1.3699472e-16)
(3.4659679 3.8232564e-29 0)
(3.5075477 -7.6923885e-29 0)
(3.5493745 3.8650249e-29 0)
(3.5914468 -2.8058375e-16 -1.4029188e-16)
(3.6337629 2.8220624e-16 -1.9570712e-29)
(3.6763213 -3.936498e-29 1.4190903e-16)
(3.7191203 -2.8541909e-16 -1.4270954e-16)
(3.7621582 0 1.9924189e-29)
(3.8054334 0 -2.0505439e-32)
(3.8489442 1.4507824e-16 -2.014267e-29)
(3.892689 -2.0230021e-29 1.4585668e-16)
(3.9366659 -1.4662948e-16 -1.4662948e-16)
(3.9808734 -1.4739659e-16 1.4739659e-16)
(4.0253096 1.4815798e-16 -8.2323154e-29)
(4.0699729 4.4674078e-16 -1.4891359e-16)
(4.1148613 -1.496634e-16 1.496634e-16)
(4.1599733 -1.5040735e-16 0)
(4.2053069 -4.2958108e-32 0)
(4.2508604 -1.5187754e-16 -1.5187754e-16)
(4.2966321 0 -2.1187508e-29)
(4.34262 3.0664779e-16 1.533239e-16)
(4.3888223 3.0807611e-16 -1.5403805e-16)
(4.4352373 -1.5474615e-16 -1.5474615e-16)
(4.481863 -3.1089633e-16 0)
(4.5286977 -1.5614407e-16 1.5614407e-16)
(4.5757394 3.1366765e-16 1.5683383e-16)
(4.6229863 3.1503484e-16 -1.5751742e-16)
(4.6704365 -3.1638965e-16 -4.3905074e-29)
(4.7180882 -3.1773203e-16 -1.3302893e-46)
(4.7659394 0 -2.2149289e-29)
(4.8139882 3.2037936e-16 1.6018968e-16)
(4.8622328 -1.6084211e-16 -1.6084211e-16)
(4.9106713 -3.2297649e-16 5.1334975e-46)
(4.9593018 1.6212807e-16 -2.250987e-29)
(5.0081223 1.6276157e-16 -1.6276157e-16)
(5.057131 -2.3218935e-32 0)
(5.106326 2.2771091e-29 0)
(5.1557055 1.6462396e-16 1.6462396e-16)
(5.2052675 -1.6523201e-16 2.348088e-32)
(5.2550103 -1.6583366e-16 -6.9002363e-29)
(5.3049319 1.6642892e-16 1.6642892e-16)
(5.3550304 -2.3165021e-29 0)
(5.4053039 -2.3817423e-32 0)
(5.4557505 -2.3325699e-29 -1.6817625e-16)
(5.506368 -1.6874586e-16 4.6785427e-29)
(5.5571544 1.6930905e-16 1.6930905e-16)
(5.6081077 -7.0752533e-29 0)
(5.6592258 -2.3660583e-29 0)
(5.7105067 -4.7447892e-29 0)
(5.7619486 -1.714974e-16 -1.714974e-16)
(5.8135494 1.7202836e-16 2.4446701e-32)
(5.8653072 -2.3957251e-29 1.7255288e-16)
(5.9172202 -4.7984577e-29 -1.7307096e-16)
(5.9692863 -2.4667572e-32 1.7358261e-16)
(6.0215034 -3.4817564e-16 -4.8390203e-29)
(6.0738693 -1.7458659e-16 -3.4917317e-16)
(6.1263823 1.7507887e-16 1.7507887e-16)
(6.1790407 3.5112938e-16 7.3126232e-29)
(6.2318426 -2.4441975e-29 2.4441975e-29)
(6.2847859 -3.5303438e-16 -2.4507656e-29)
(6.3378681 -1.7698384e-16 -1.7698384e-16)
(6.3910873 3.5488796e-16 0)
(6.4444421 1.7789765e-16 0)
(6.4979309 -1.7834496e-16 1.7834496e-16)
(6.5515515 -1.7878596e-16 2.4822652e-29)
(6.6053015 -4.9740518e-29 -4.9740518e-29)
(6.659179 1.796487e-16 -2.1845129e-47)
(6.7131827 0 -1.8007037e-16)
(6.767311 0 1.8048574e-16)
(6.8215618 1.8089487e-16 1.8089487e-16)
(6.8759324 0 0)
(6.9304209 -1.8169401e-16 -1.8169401e-16)
(6.9850258 1.8208396e-16 -2.5280547e-29)
(7.0397457 2.5930213e-32 1.8246765e-16)
(7.0945783 -5.0746472e-29 0)
(7.1495211 0 0)
(7.2045722 -1.8358113e-16 -1.8358113e-16)
(7.2597301 1.8393961e-16 5.2278782e-32)
(7.3149934 1.8429188e-16 -1.8263789e-47)
(7.3703596 -3.6927597e-16 -1.8463799e-16)
(7.4258266 -1.8497784e-16 1.8497784e-16)
(7.4813925 1.8531141e-16 -2.5675977e-29)
(7.5370556 0 2.5774092e-29)
(7.5928142 0 -5.1610937e-29)
(7.6486662 -1.8627486e-16 -1.8627486e-16)
(7.7046099 5.1837073e-29 1.8658362e-16)
(7.7606435 1.8688621e-16 -5.1894582e-29)
(7.8167652 0 5.2003516e-29)
(7.8729727 0 -5.2084193e-29)
(7.9292642 -1.877573e-16 -1.877573e-16)
(7.9856381 7.8347209e-29 1.8803529e-16)
(8.0420931 1.883072e-16 -5.2289163e-29)
(8.0986272 0 2.62351e-29)
(8.1552381 0 0)
(8.2119239 0 -1.8908679e-16)
(8.2686831 0 1.8933438e-16)
(8.3255146 0 -2.6320737e-29)
(8.3824163 0 2.6973864e-32)
(8.4393858 0 -2.6385371e-29)
(8.4964208 0 2.6443469e-29)
(8.55352 3.8096562e-16 1.9048281e-16)
(8.610682 1.0584992e-28 -1.9069448e-16)
(8.667905 -1.9090032e-16 -1.9090032e-16)
(8.7251865 1.9110028e-16 1.9110028e-16)
(8.7825247 -1.9129423e-16 1.9129423e-16)
(8.8399181 1.9148218e-16 0)
(8.8973651 -5.3275834e-29 -1.9166429e-16)
(8.9548639 -1.918406e-16 -1.918406e-16)
(9.0124123 -5.3317643e-29 0)
(9.0700086 -1.9217552e-16 1.9217552e-16)
(9.1276514 0 -2.6703681e-29)
(9.185339 0 2.7354048e-32)
(9.2430695 1.9263413e-16 2.6717958e-29)
(9.3008406 5.3529903e-29 -1.9277544e-16)
(9.3586507 -1.9291083e-16 1.9291083e-16)
(9.4164985 0 2.6774305e-29)
(9.4743826 0 -5.3637872e-29)
(9.5323009 0 -1.932825e-16)
(9.5902512 0 -1.9339497e-16)
(9.648232 0 3.8700316e-16)
(9.706242 0 -2.7512555e-32)
(9.7642799 0 2.6865458e-29)
(9.8223435 3.8757446e-16 1.9378723e-16)
(9.8804308 -1.613923e-28 -1.9387117e-16)
(9.9385401 -3.8789857e-16 2.6927929e-29)
(9.9966702 1.9402168e-16 1.9402168e-16)
(10.05482 2.7581641e-32 0)
(10.112987 1.9414991e-16 0)
(10.171168 -1.0768847e-28 0)
(10.229364 -3.88511e-16 -1.942555e-16)
(10.287572 -1.942998e-16 -1.942998e-16)
(10.34579 3.3329846e-48 1.9433864e-16)
(10.404018 5.8311588e-16 1.9437196e-16)
(10.462252 0 0)
(10.520491 -3.888433e-16 -1.9442165e-16)
(10.578734 0 -1.9443813e-16)
(10.636979 0 1.9444914e-16)
(10.695225 3.8890893e-16 1.9445446e-16)
(10.753469 -5.3940734e-29 0)
(10.81171 -5.8334375e-16 -1.9444792e-16)
(10.869947 1.9443634e-16 -1.9443634e-16)
(10.928178 1.9441926e-16 1.9441926e-16)
(10.9864 -1.9439668e-16 5.398009e-29)
(11.044613 1.9436861e-16 -1.9436861e-16)
(11.102815 -1.9433506e-16 0)
(11.161005 -5.3896925e-29 0)
(11.219179 1.9425159e-16 0)
(11.277338 -1.9420167e-16 0)
(11.335478 0 1.941463e-16)
(11.3936 -1.9408549e-16 -5.3838515e-29)
(11.4517 1.9401925e-16 -1.9401925e-16)
(11.509778 3.8789519e-16 1.9394759e-16)
(11.567832 -1.9387051e-16 2.6916992e-29)
(11.62586 -1.9378802e-16 -2.6933078e-29)
(11.68386 -1.9370013e-16 2.7575242e-48)
(11.741831 -1.9360685e-16 1.9360685e-16)
(11.799771 3.8701633e-16 1.9350817e-16)
(11.857679 1.934041e-16 -3.868082e-16)
(11.915553 -1.9329465e-16 -2.6837039e-29)
(11.973392 0 2.6793643e-29)
(12.031194 1.930596e-16 -1.930596e-16)
(12.088957 -1.9293402e-16 0)
(12.14668 -1.9280309e-16 1.9280309e-16)
(12.204362 5.7800044e-16 1.9266681e-16)
(12.262 5.4718948e-32 -1.9252518e-16)
(12.319594 -3.8475646e-16 -5.3364929e-29)
(12.377141 1.9222596e-16 1.9222596e-16)
(12.434639 2.666678e-29 0)
(12.492088 1.9190542e-16 0)
(12.549486 -5.4494976e-32 -1.9173715e-16)
(12.60683 -3.8312719e-16 2.6569476e-29)
(12.664121 1.9138475e-16 1.9138475e-16)
(12.721354 0 0)
(12.77853 -5.3040009e-29 -1.910112e-16)
(12.835645 -2.7116656e-32 2.7116656e-32)
(12.8927 -1.9061653e-16 -5.2930418e-29)
(12.949691 1.9041128e-16 -2.6409653e-29)
(13.006617 -5.281496e-29 1.9020074e-16)
(13.063477 -2.6350512e-29 -1.8998488e-16)
(13.120269 -2.6967046e-32 2.6967046e-32)
(13.176993 -1.8953725e-16 -5.2630723e-29)
(13.233646 1.8930549e-16 -1.8930549e-16)
(13.290228 1.0016484e-47 1.8906843e-16)
(13.346738 -5.2433261e-29 5.2433261e-29)
(13.403172 -2.679863e-32 2.679863e-32)
(13.45953 -3.7665153e-16 -2.6147159e-29)
(13.515811 -2.6084603e-29 -1.880677e-16)
(13.572013 1.8780446e-16 1.8780446e-16)
(13.628133 0 0)
(13.684169 0 -1.0397141e-28)
(13.740122 -1.869833e-16 -2.5934199e-29)
(13.795989 -7.7684346e-29 -7.7684346e-29)
(13.851769 1.8640975e-16 -2.6490419e-32)
(13.907458 -1.8611521e-16 -1.8611521e-16)
(13.963057 2.579863e-29 1.8581547e-16)
(14.018562 5.3367071e-47 5.3367071e-47)
(14.073973 -2.5713233e-29 -2.5713233e-29)
(14.129288 1.8488505e-16 5.13389e-29)
(14.184505 1.8456448e-16 -2.5624942e-29)
(14.239623 2.5553521e-29 3.684773e-16)
(14.294641 -1.8390755e-16 -1.8390755e-16)
(14.349559 0 -1.8357123e-16)
(14.404374 0 -2.5439623e-29)
(14.459085 1.8288304e-16 2.5391491e-29)
(14.513691 -1.8253128e-16 3.6506256e-16)
(14.568189 1.5165508e-28 -1.8217441e-16)
(14.622576 1.8181237e-16 -1.8181237e-16)
(14.676853 -1.8144509e-16 1.64095e-47)
(14.731018 0 0)
(14.785069 1.8069509e-16 1.6912238e-47)
(14.839005 1.8031243e-16 -1.8031243e-16)
(14.892823 -1.7992459e-16 1.7992459e-16)
(14.946524 -1.7953157e-16 1.7677353e-47)
(15.000105 0 -2.4845437e-29)
(15.053565 1.7873017e-16 -2.5399085e-32)
(15.106902 1.7832185e-16 -1.7832185e-16)
(15.160115 -3.5581694e-16 3.5581694e-16)
(15.213201 -1.7749003e-16 4.9285449e-29)
(15.266159 1.7706647e-16 -1.7706647e-16)
(15.318988 1.7663775e-16 2.4499292e-29)
(15.371686 2.4439118e-29 -2.4439118e-29)
(15.424254 1.7576496e-16 1.7576496e-16)
(15.476688 4.8683148e-29 -1.7532098e-16)
(15.528988 -3.4974394e-16 -8.1766625e-47)
(15.581152 0 -7.2673386e-29)
(15.633178 0 4.8329676e-29)
(15.685063 0 -4.8151468e-29)
(15.736807 1.7302604e-16 -4.8045887e-29)
(15.788408 1.7255197e-16 2.1683315e-47)
(15.839866 0 0)
(15.891178 -1.7158883e-16 1.7158883e-16)
(15.942343 -2.3706872e-29 0)
(15.993361 1.7060573e-16 0)
(16.044229 0 -1.7010673e-16)
(16.094946 0 -4.7095333e-29)
(16.145511 -1.690941e-16 1.690941e-16)
(16.195921 -2.3381768e-29 0)
(16.246174 2.3285966e-29 0)
(16.296271 -1.6753845e-16 -3.350769e-16)
(16.346209 1.6701003e-16 -1.3903115e-28)
(16.395988 -6.9269973e-29 3.3295362e-16)
(16.445606 -1.6593881e-16 -1.6593881e-16)
(16.49506 0 2.350418e-32)
(16.54435 -1.6484826e-16 -2.2887541e-29)
(16.593476 -2.2810834e-29 -1.6429578e-16)
(16.642434 1.6373858e-16 0)
(16.691223 -1.6317661e-16 0)
(16.739843 1.6260982e-16 0)
(16.788292 1.6203829e-16 -1.6203829e-16)
(16.836569 -1.6146218e-16 -4.4788944e-29)
(16.884672 0 1.6088152e-16)
(16.932597 1.6029617e-16 0)
(16.980346 1.5970607e-16 0)
(17.027917 -1.5911127e-16 -1.5911127e-16)
(17.07531 -1.5851191e-16 2.2525898e-32)
(17.122522 0 1.5790803e-16)
(17.169551 -1.5729965e-16 0)
(17.216397 1.5668677e-16 0)
(17.263058 1.5606939e-16 -1.5606939e-16)
(17.309532 -1.5544748e-16 -4.312049e-29)
(17.355819 -3.0964208e-16 -4.3012723e-29)
(17.401918 8.56311e-29 4.281555e-29)
(17.447828 4.6066529e-16 1.535551e-16)
(17.493545 2.9899286e-47 -1.5291574e-16)
(17.539068 -1.5227201e-16 4.2261268e-29)
(17.584398 -3.0324766e-16 -4.2081373e-29)
(17.629532 8.3757608e-29 4.1878804e-29)
(17.674472 3.0062888e-16 1.5031444e-16)
(17.719215 -1.4965353e-16 0)
(17.763759 1.4898855e-16 0)
(17.808102 -1.4831945e-16 -1.4831945e-16)
(17.852243 -1.476462e-16 -7.8987552e-46)
(17.896181 2.9393769e-16 1.4696884e-16)
(17.939916 0 0)
(17.983445 0 0)
(18.026769 -2.8982531e-16 -1.4491265e-16)
(18.069885 -2.6079751e-46 -5.2159502e-46)
(18.112793 2.8704416e-16 1.4352208e-16)
(18.155491 0 0)
(18.197979 0 0)
(18.240256 -2.8281498e-16 -1.4140749e-16)
(18.282319 -2.6842232e-46 -5.3684463e-46)
(18.324168 2.7995819e-16 1.399791e-16)
(18.365802 0 0)
(18.40722 0 0)
(18.448421 -2.7561848e-16 -1.3780924e-16)
(18.489403 -1.3707891e-16 1.9480085e-32)
(18.530166 2.7269024e-16 1.3634512e-16)
(18.570709 1.3560786e-16 -1.3560786e-16)
(18.611031 0 3.7469104e-29)
(18.651131 -2.6824648e-16 -3.7262416e-29)
(18.691008 7.407177e-29 3.7035885e-29)
(18.73066 2.6525152e-16 1.3262576e-16)
(18.770087 -1.3187226e-16 0)
(18.809288 0 0)
(18.848261 1.3035582e-16 0)
(18.887008 -1.2959303e-16 0)
(18.925526 1.8307464e-32 0)
(18.963815 1.2805876e-16 -1.2805876e-16)
(19.001873 -1.2728739e-16 3.5327086e-29)
(19.0397 1.2651323e-16 1.2651323e-16)
(19.077294 1.2573635e-16 0)
(19.114656 -1.2495678e-16 0)
(19.151784 -1.2417459e-16 0)
(19.188679 3.4262908e-29 0)
(19.225338 1.2260267e-16 0)
(19.261762 -1.2181308e-16 0)
(19.297949 -3.3605163e-29 0)
(19.333899 1.202269e-16 -1.202269e-16)
(19.369611 -1.1943045e-16 6.6292973e-29)
(19.405085 1.1863182e-16 1.1863182e-16)
(19.440319 1.1783109e-16 0)
(19.475315 -1.1702833e-16 0)
(19.51007 -1.1622364e-16 0)
(19.544584 3.2049033e-29 0)
(19.578857 1.1460875e-16 0)
(19.612888 -1.1379861e-16 0)
(19.646676 1.6056382e-32 0)
(19.680223 1.1217329e-16 -1.1217329e-16)
(19.713526 -1.1135834e-16 3.0906171e-29)
(19.746585 1.1054197e-16 1.1054197e-16)
(19.7794 1.097242e-16 0)
(19.81197 -1.0890506e-16 0)
(19.844296 -2.1616935e-16 -1.0808467e-16)
(19.876377 5.9600178e-29 2.9800089e-29)
(19.908212 2.1288122e-16 1.0644061e-16)
(19.939802 -1.0561705e-16 0)
(19.971145 1.4891913e-32 0)
(20.002241 2.079342e-16 0)
(20.033092 2.9314412e-32 -1.0314092e-16)
(20.063696 -1.0231408e-16 -2.8425125e-29)
(20.094053 0 1.0148667e-16)
(20.124162 1.006587e-16 0)
(20.154025 0 0)
(20.18364 -9.9001397e-17 0)
(20.213008 0 0)
(20.242128 0 0)
(20.271001 0 0)
(20.299626 -9.5684073e-17 0)
(20.328003 -3.9558951e-47 -9.4854607e-17)
(20.356133 9.4025268e-17 1.3361794e-32)
(20.384016 0 9.319616e-17)
(20.411652 9.2367345e-17 0)
(20.43904 -2.5418526e-29 0)
(20.466181 -9.0710865e-17 0)
(20.493075 0 0)
(20.519723 0 0)
(20.546124 0 0)
(20.572278 -8.7405212e-17 0)
(20.598187 2.4041761e-29 -8.6580784e-17)
(20.62385 8.5757329e-17 -1.2186849e-32)
(20.649267 0 8.4934929e-17)
(20.674439 8.4113651e-17 0)
(20.699367 2.3117135e-29 0)
(20.72405 -8.2474851e-17 0)
(20.74849 0 -8.1657542e-17)
(20.772685 8.0841731e-17 4.4884792e-29)
(20.796638 -8.0027463e-17 8.0027463e-17)
(20.820348 4.4015265e-29 0)
(20.843816 7.8403874e-17 -7.8403874e-17)
(20.867043 -7.7594784e-17 -2.1557554e-29)
(20.890029 0 7.6787633e-17)
(20.912774 -7.5982485e-17 0)
(20.93528 -2.0875819e-29 0)
(20.957546 7.4378402e-17 -7.4378402e-17)
(20.979574 0 -7.357965e-17)
(21.001365 7.2783243e-17 7.2783243e-17)
(21.022918 -7.1989276e-17 7.1989276e-17)
(21.044236 -3.9540429e-29 0)
(21.065317 7.0408883e-17 0)
(21.086163 -3.8655709e-29 0)
(21.106776 -9.7826054e-33 0)
(21.127156 1.8908078e-29 6.8058194e-17)
(21.147304 -9.5611112e-33 -9.5611112e-33)
(21.16722 -6.6505456e-17 -1.3301091e-16)
(21.186906 0 -6.5733591e-17)
(21.206362 6.496482e-17 1.2992964e-16)
(21.225589 -1.7817729e-29 1.2839849e-16)
(21.244589 -1.7606167e-29 -6.3436961e-17)
(21.263363 3.6295088e-47 -6.2678045e-17)
(21.28191 -1.7194659e-29 0)
(21.300233 0 0)
(21.318333 -1.2084411e-16 0)
(21.33621 -1.657118e-29 0)
(21.353866 5.8936119e-17 -5.8936119e-17)
(21.371301 -5.8198771e-17 -1.6168911e-29)
(21.388518 1.5948794e-29 5.7465262e-17)
(21.405517 5.6735681e-17 0)
(21.422299 5.6010105e-17 0)
(21.438865 1.535254e-29 0)
(21.455216 -1.5153323e-29 0)
(21.471355 5.3857854e-17 0)
(21.487282 -5.3148786e-17 0)
(21.502999 -5.2444037e-17 0)
(21.518506 0 0)
(21.533805 -5.1047722e-17 0)
(21.548898 1.3982924e-29 0)
(21.563785 4.9669249e-17 0)
(21.578468 0 0)
(21.592949 0 0)
(21.607229 0 0)
(21.621309 -9.3935485e-17 -4.6967743e-17)
(21.63519 5.1431056e-29 2.5715528e-29)
(21.648875 9.1291071e-17 4.5645536e-17)
(21.662364 0 0)
(21.67566 0 0)
(21.688763 0 4.3698931e-17)
(21.701675 0 -1.1956928e-29)
(21.714397 0 6.0291378e-33)
(21.726931 0 -4.1797559e-17)
(21.739279 0 -4.1173959e-17)
(21.751442 -8.1111096e-17 -2.2517174e-29)
(21.763422 2.2193759e-29 1.109688e-29)
(21.77522 7.8668939e-17 3.9334469e-17)
(21.786837 3.8731823e-17 0)
(21.798276 -3.8134458e-17 0)
(21.809538 -3.7542424e-17 0)
(21.820625 1.0267136e-29 0)
(21.831537 2.0180303e-29 0)
(21.842278 3.5798765e-17 -3.5798765e-17)
(21.852847 -3.5228401e-17 1.9559445e-29)
(21.863248 3.4663473e-17 3.4663473e-17)
(21.873481 3.4104025e-17 0)
(21.883549 -3.3550101e-17 0)
(21.893453 -3.3001729e-17 0)
(21.903194 1.8017163e-29 0)
(21.912774 3.1921637e-17 0)
(21.922195 3.1389901e-17 0)
(21.931459 -8.5614727e-30 0)
(21.940567 -3.0343175e-17 -3.0343175e-17)
(21.949521 -2.9828254e-17 1.6556947e-29)
(21.958322 2.9318968e-17 2.9318968e-17)
(21.966972 2.8815284e-17 0)
(21.975473 -2.8317178e-17 0)
(21.983827 2.7824661e-17 0)