/*--------------------------------*- C++ -*----------------------------------*\
  =========                 |
  \\      /  F ield         | OpenFOAM: The Open Source CFD Toolbox
   \\    /   O peration     | Website:  https://openfoam.org
    \\  /    A nd           | Version:  7
     \\/     M anipulation  |
\*---------------------------------------------------------------------------*/
FoamFile
{
    version     2.0;
    format      ascii;
    class       volScalarField;
    location    "0.00113";
    object      T;
}
// * * * * * * * * * * * * * * * * * * * * * * * * * * * * * * * * * * * * * //

dimensions      [0 0 0 1 0 0 0];

internalField   nonuniform List<scalar> 
5000
(
276.78895
276.80385
276.81033
276.82268
276.82934
276.84164
276.84833
276.86064
276.86732
276.87966
276.88634
276.8987
276.90536
276.91773
276.9244
276.93676
276.94343
276.95579
276.96245
276.97482
276.98146
276.99384
277.00047
277.01285
277.01947
277.03186
277.03846
277.05085
277.05744
277.06984
277.07641
277.08881
277.09537
277.10777
277.11431
277.12671
277.13324
277.14563
277.15216
277.16455
277.17107
277.18347
277.18998
277.2024
277.2089
277.22133
277.22783
277.24027
277.24677
277.25923
277.26573
277.27819
277.28469
277.29716
277.30366
277.31613
277.32263
277.3351
277.3416
277.35407
277.36055
277.37304
277.37951
277.392
277.39846
277.41095
277.4174
277.42989
277.43634
277.44883
277.45527
277.46776
277.47419
277.48668
277.4931
277.5056
277.51201
277.52451
277.53091
277.54341
277.5498
277.5623
277.56869
277.58119
277.58757
277.60006
277.60645
277.61893
277.62531
277.63779
277.64416
277.65665
277.663
277.67549
277.68183
277.69432
277.70065
277.71314
277.71946
277.73195
277.73825
277.75074
277.75704
277.76952
277.77582
277.7883
277.79459
277.80707
277.81336
277.82584
277.83212
277.84459
277.85089
277.86336
277.86965
277.88213
277.88841
277.90091
277.90717
277.91969
277.92594
277.93845
277.94478
277.95713
277.96371
277.97573
277.98272
277.99428
278.00176
278.01282
278.02079
278.03138
278.03979
278.04997
278.05873
278.06862
278.07763
278.0873
278.09647
278.10602
278.11529
278.12475
278.13407
278.14349
278.15284
278.16223
278.17159
278.18097
278.19033
278.1997
278.20906
278.21843
278.22779
278.23714
278.2465
278.25585
278.2652
278.27455
278.2839
278.29325
278.30259
278.31193
278.32127
278.33061
278.33995
278.34928
278.35862
278.36795
278.37728
278.38662
278.39595
278.40528
278.41461
278.42394
278.43327
278.4426
278.45193
278.46126
278.47059
278.47992
278.48925
278.49858
278.50791
278.51724
278.52657
278.53591
278.54524
278.55457
278.5639
278.57324
278.58257
278.5919
278.60123
278.61056
278.61989
278.62922
278.63855
278.64788
278.65721
278.66654
278.67586
278.68519
278.69451
278.70383
278.71315
278.72247
278.73179
278.74111
278.75042
278.75974
278.76905
278.77836
278.78767
278.79698
278.80628
278.81559
278.82489
278.83419
278.84349
278.85278
278.86208
278.87137
278.88066
278.88995
278.89924
278.90852
278.91781
278.92709
278.93637
278.94565
278.95492
278.9642
278.97347
278.98274
278.992
279.00127
279.01053
279.01979
279.02905
279.03831
279.04757
279.05682
279.06607
279.07532
279.08456
279.09381
279.10305
279.11229
279.12153
279.13076
279.13999
279.14922
279.15845
279.16768
279.1769
279.18612
279.19534
279.20456
279.21377
279.22298
279.23219
279.2414
279.2506
279.2598
279.269
279.2782
279.2874
279.29659
279.30578
279.31497
279.32416
279.33334
279.34253
279.35171
279.36089
279.37007
279.37924
279.38842
279.39759
279.40676
279.41592
279.42509
279.43425
279.44342
279.45258
279.46173
279.47089
279.48004
279.48919
279.49834
279.50749
279.51663
279.52577
279.53491
279.54404
279.55317
279.5623
279.57142
279.58054
279.58966
279.59877
279.60788
279.61698
279.62608
279.63517
279.64426
279.65335
279.66242
279.67149
279.68056
279.68962
279.69867
279.70771
279.71675
279.72578
279.7348
279.74381
279.75282
279.76182
279.7708
279.77978
279.78875
279.79771
279.80665
279.81559
279.82451
279.83343
279.84233
279.85122
279.86009
279.86895
279.8778
279.88664
279.89546
279.90426
279.91305
279.92183
279.93059
279.93933
279.94805
279.95675
279.96544
279.97411
279.98275
279.99138
279.99999
280.00857
280.01713
280.02567
280.03419
280.04268
280.05114
280.05958
280.068
280.07639
280.08474
280.09307
280.10138
280.10965
280.11789
280.12609
280.13427
280.14241
280.15051
280.15858
280.16662
280.17462
280.18257
280.19049
280.19837
280.20621
280.214
280.22175
280.22946
280.23712
280.24473
280.25229
280.25981
280.26727
280.27469
280.28205
280.28935
280.2966
280.3038
280.31094
280.31802
280.32503
280.33199
280.33888
280.34571
280.35247
280.35917
280.3658
280.37236
280.37884
280.38526
280.3916
280.39786
280.40405
280.41016
280.41619
280.42214
280.42801
280.43379
280.43949
280.4451
280.45062
280.45605
280.46139
280.46664
280.47179
280.47685
280.4818
280.48666
280.49142
280.49608
280.50064
280.50509
280.50943
280.51367
280.51779
280.52181
280.52571
280.52951
280.53318
280.53674
280.54018
280.5435
280.54671
280.54979
280.55274
280.55557
280.55828
280.56086
280.56331
280.56562
280.56781
280.56987
280.57179
280.57357
280.57522
280.57673
280.57811
280.57934
280.58043
280.58138
280.58218
280.58284
280.58336
280.58373
280.58394
280.584
280.58391
280.58368
280.58329
280.58275
280.58205
280.5812
280.5802
280.57904
280.57772
280.57624
280.5746
280.57281
280.57085
280.56873
280.56646
280.56402
280.56141
280.55865
280.55572
280.55262
280.54936
280.54594
280.54235
280.53859
280.53467
280.53058
280.52633
280.5219
280.51731
280.51256
280.50763
280.50254
280.49728
280.49185
280.48626
280.4805
280.47457
280.46847
280.4622
280.45577
280.44917
280.44241
280.43547
280.42838
280.42111
280.41368
280.40608
280.39832
280.3904
280.38231
280.37406
280.36564
280.35707
280.34833
280.33942
280.33036
280.32114
280.31176
280.30222
280.29252
280.28267
280.27265
280.26248
280.25216
280.24168
280.23105
280.22027
280.20933
280.19825
280.18701
280.17563
280.1641
280.15242
280.14059
280.12862
280.11651
280.10425
280.09185
280.07931
280.06663
280.05381
280.04086
280.02777
280.01454
280.00118
279.98769
279.97406
279.96031
279.94643
279.93242
279.91828
279.90401
279.88963
279.87512
279.86049
279.84574
279.83087
279.81588
279.80078
279.78556
279.77024
279.75479
279.73924
279.72358
279.70781
279.69194
279.67596
279.65988
279.64369
279.62741
279.61103
279.59455
279.57797
279.5613
279.54454
279.52768
279.51073
279.4937
279.47658
279.45938
279.44209
279.42472
279.40727
279.38973
279.37213
279.35444
279.33668
279.31885
279.30095
279.28297
279.26493
279.24683
279.22865
279.21042
279.19212
279.17376
279.15535
279.13687
279.11834
279.09976
279.08112
279.06244
279.0437
279.02492
279.00609
278.98722
278.9683
278.94935
278.93035
278.91132
278.89225
278.87315
278.85401
278.83484
278.81565
278.79642
278.77717
278.7579
278.7386
278.71928
278.69994
278.68059
278.66121
278.64183
278.62243
278.60302
278.5836
278.56417
278.54473
278.5253
278.50586
278.48641
278.46697
278.44754
278.4281
278.40868
278.38926
278.36985
278.35045
278.33107
278.3117
278.29234
278.27301
278.25369
278.2344
278.21513
278.19589
278.17668
278.15749
278.13834
278.11922
278.10013
278.08108
278.06207
278.0431
278.02417
278.00528
277.98644
277.96765
277.94891
277.93022
277.91158
277.893
277.87448
277.85601
277.83761
277.81927
277.80099
277.78278
277.76464
277.74657
277.72857
277.71065
277.6928
277.67504
277.65735
277.63974
277.62222
277.60478
277.58743
277.57018
277.55301
277.53594
277.51896
277.50208
277.4853
277.46863
277.45205
277.43558
277.41922
277.40297
277.38683
277.3708
277.35489
277.3391
277.32342
277.30787
277.29243
277.27713
277.26195
277.24689
277.23197
277.21719
277.20253
277.18801
277.17363
277.15939
277.14529
277.13133
277.11752
277.10386
277.09034
277.07698
277.06376
277.05071
277.03781
277.02506
277.01247
277.00005
276.98778
276.97569
276.96375
276.95198
276.94039
276.92895
276.9177
276.90662
276.89571
276.88498
276.87442
276.86404
276.85384
276.84382
276.834
276.82434
276.81488
276.8056
276.7965
276.7876
276.77888
276.77035
276.76202
276.75387
276.74592
276.73816
276.73059
276.72322
276.71604
276.70906
276.70228
276.69569
276.6893
276.6831
276.6771
276.67131
276.66571
276.6603
276.6551
276.65009
276.64528
276.64067
276.63626
276.63205
276.62803
276.62421
276.62058
276.61715
276.61392
276.61088
276.60804
276.60539
276.60293
276.60066
276.59859
276.5967
276.59501
276.5935
276.59218
276.59105
276.59009
276.58933
276.58875
276.58833
276.58812
276.58807
276.58819
276.5885
276.58897
276.58962
276.59044
276.59142
276.59257
276.59389
276.59536
276.597
276.59879
276.60074
276.60285
276.6051
276.60751
276.61006
276.61276
276.61561
276.61859
276.62172
276.62498
276.62837
276.6319
276.63556
276.63935
276.64326
276.64729
276.65146
276.65573
276.66013
276.66463
276.66925
276.67398
276.67881
276.68375
276.68879
276.69394
276.69918
276.70452
276.70995
276.71547
276.72108
276.72677
276.73256
276.73842
276.74437
276.7504
276.75649
276.76267
276.76891
276.77524
276.78162
276.78807
276.79459
276.80116
276.80781
276.8145
276.82126
276.82806
276.83493
276.84184
276.8488
276.85582
276.86287
276.86998
276.87712
276.88432
276.89154
276.89881
276.90612
276.91346
276.92084
276.92825
276.9357
276.94317
276.95068
276.95821
276.96577
276.97336
276.98097
276.98861
276.99627
277.00396
277.01166
277.01938
277.02713
277.03489
277.04268
277.05047
277.05829
277.06612
277.07396
277.08182
277.08969
277.09758
277.10547
277.11338
277.1213
277.12923
277.13717
277.14511
277.15308
277.16104
277.16901
277.17699
277.18498
277.19298
277.20097
277.20898
277.21699
277.22501
277.23302
277.24105
277.24908
277.25711
277.26515
277.27318
277.28123
277.28927
277.29732
277.30537
277.31342
277.32148
277.32953
277.33759
277.34565
277.35371
277.36177
277.36983
277.3779
277.38595
277.39402
277.40208
277.41015
277.41822
277.42628
277.43435
277.44241
277.45047
277.45854
277.4666
277.47467
277.48273
277.49079
277.49885
277.50692
277.51498
277.52304
277.5311
277.53916
277.54722
277.55527
277.56333
277.57139
277.57944
277.5875
277.59555
277.6036
277.61165
277.6197
277.62775
277.6358
277.64385
277.65189
277.65994
277.66798
277.67602
277.68406
277.6921
277.70014
277.70818
277.71622
277.72425
277.73229
277.74032
277.74835
277.75638
277.76441
277.77244
277.78047
277.78849
277.79651
277.80453
277.81256
277.82058
277.82859
277.83662
277.84463
277.85264
277.86064
277.86865
277.87665
277.88465
277.89265
277.90066
277.90866
277.91667
277.92469
277.93269
277.9407
277.9487
277.95671
277.96471
277.97272
277.98071
277.98871
277.9967
278.0047
278.01269
278.02069
278.02867
278.03667
278.04465
278.05264
278.06062
278.06861
278.07659
278.08457
278.09255
278.10053
278.1085
278.11648
278.12445
278.13242
278.1404
278.14837
278.15634
278.1643
278.17227
278.18023
278.1882
278.19616
278.20413
278.21208
278.22005
278.228
278.23596
278.24391
278.25187
278.25982
278.26777
278.27572
278.28367
278.29162
278.29957
278.30751
278.31546
278.3234
278.33134
278.33928
278.34722
278.35516
278.3631
278.37103
278.37896
278.3869
278.39483
278.40276
278.41069
278.41862
278.42654
278.43447
278.44239
278.45032
278.45824
278.46616
278.47408
278.482
278.48991
278.49783
278.50574
278.51366
278.52157
278.52948
278.53739
278.5453
278.55321
278.56111
278.56902
278.57692
278.58482
278.59272
278.60062
278.60852
278.61642
278.62431
278.63221
278.6401
278.64799
278.65588
278.66377
278.67166
278.67955
278.68744
278.69532
278.70321
278.71109
278.71897
278.72685
278.73473
278.7426
278.75048
278.75836
278.76623
278.7741
278.78198
278.78985
278.79772
278.80558
278.81345
278.82132
278.82918
278.83705
278.84491
278.85277
278.86063
278.86849
278.87635
278.8842
278.89206
278.89991
278.90776
278.91562
278.92347
278.93132
278.93916
278.94701
278.95486
278.9627
278.97055
278.97839
278.98623
278.99407
279.00191
279.00975
279.01758
279.02542
279.03325
279.04109
279.04892
279.05675
279.06458
279.07241
279.08024
279.08806
279.09589
279.10371
279.11153
279.11936
279.12717
279.13499
279.14281
279.15063
279.15845
279.16626
279.17407
279.18189
279.18969
279.19751
279.20532
279.21312
279.22093
279.22873
279.23654
279.24434
279.25214
279.25995
279.26775
279.27554
279.28334
279.29114
279.29893
279.30673
279.31452
279.32232
279.3301
279.33789
279.34568
279.35347
279.36126
279.36904
279.37682
279.38461
279.39239
279.40017
279.40795
279.41573
279.42351
279.43128
279.43906
279.44684
279.4546
279.46238
279.47015
279.47792
279.48569
279.49346
279.50122
279.50899
279.51675
279.52451
279.53228
279.54004
279.5478
279.55556
279.56331
279.57108
279.57883
279.58658
279.59434
279.60209
279.60984
279.61759
279.62534
279.63309
279.64084
279.64858
279.65633
279.66407
279.67182
279.67956
279.6873
279.69504
279.70278
279.71052
279.71826
279.72599
279.73373
279.74146
279.74919
279.75693
279.76465
279.77238
279.78012
279.78784
279.79557
279.8033
279.81102
279.81875
279.82647
279.83419
279.84191
279.84963
279.85735
279.86507
279.87278
279.8805
279.88822
279.89593
279.90364
279.91135
279.91907
279.92678
279.93448
279.9422
279.9499
279.95761
279.96532
279.97302
279.98072
279.98843
279.99613
280.00383
280.01154
280.01923
280.02693
280.03463
280.04232
280.05002
280.05771
280.06541
280.0731
280.08079
280.08849
280.09617
280.10387
280.11155
280.11925
280.12692
280.13462
280.1423
280.14998
280.15767
280.16535
280.17304
280.18071
280.1884
280.19607
280.20376
280.21143
280.21911
280.22679
280.23446
280.24214
280.2498
280.25749
280.26515
280.27283
280.28049
280.28817
280.29583
280.30351
280.31117
280.31884
280.3265
280.33417
280.34183
280.3495
280.35716
280.36482
280.37248
280.38015
280.3878
280.39547
280.40312
280.41078
280.41843
280.4261
280.43374
280.4414
280.44905
280.45671
280.46436
280.47201
280.47966
280.4873
280.49496
280.5026
280.51025
280.5179
280.52554
280.5332
280.54083
280.54848
280.55612
280.56376
280.57141
280.57904
280.58668
280.59433
280.60196
280.6096
280.61724
280.62487
280.63251
280.64014
280.64777
280.65541
280.66304
280.67067
280.6783
280.68593
280.69356
280.70119
280.70881
280.71644
280.72407
280.73169
280.73931
280.74694
280.75456
280.76218
280.7698
280.77742
280.78504
280.79266
280.80028
280.80789
280.81551
280.82313
280.83074
280.83835
280.84597
280.85358
280.86119
280.8688
280.87641
280.88402
280.89162
280.89923
280.90684
280.91444
280.92204
280.92965
280.93725
280.94485
280.95245
280.96005
280.96765
280.97525
280.98285
280.99044
280.99804
281.00563
281.01322
281.02082
281.02841
281.036
281.04359
281.05118
281.05877
281.06635
281.07394
281.08152
281.08911
281.09669
281.10427
281.11185
281.11943
281.12701
281.13459
281.14217
281.14975
281.15732
281.1649
281.17247
281.18004
281.18761
281.19518
281.20275
281.21032
281.21789
281.22546
281.23302
281.24059
281.24815
281.25571
281.26327
281.27083
281.27839
281.28595
281.29351
281.30107
281.30862
281.31618
281.32373
281.33128
281.33883
281.34638
281.35393
281.36148
281.36903
281.37657
281.38412
281.39166
281.39921
281.40675
281.41429
281.42183
281.42937
281.43691
281.44444
281.45198
281.45951
281.46705
281.47458
281.48211
281.48964
281.49717
281.5047
281.51222
281.51975
281.52727
281.5348
281.54232
281.54984
281.55736
281.56488
281.5724
281.57992
281.58743
281.59495
281.60246
281.60997
281.61748
281.62499
281.6325
281.64001
281.64752
281.65502
281.66253
281.67003
281.67753
281.68504
281.69254
281.70003
281.70753
281.71503
281.72252
281.73002
281.73751
281.745
281.75249
281.75998
281.76747
281.77496
281.78244
281.78993
281.79741
281.80489
281.81237
281.81985
281.82733
281.83481
281.84228
281.84976
281.85723
281.86471
281.87218
281.87965
281.88712
281.89458
281.90205
281.90951
281.91698
281.92444
281.9319
281.93936
281.94682
281.95428
281.96173
281.96919
281.97664
281.9841
281.99155
281.999
282.00644
282.01389
282.02134
282.02878
282.03623
282.04367
282.05111
282.05855
282.06599
282.07342
282.08086
282.08829
282.09573
282.10316
282.11059
282.11802
282.12545
282.13287
282.1403
282.14772
282.15514
282.16257
282.16999
282.1774
282.18482
282.19224
282.19965
282.20707
282.21448
282.22189
282.2293
282.23671
282.24412
282.25152
282.25893
282.26633
282.27373
282.28113
282.28853
282.29593
282.30332
282.31072
282.31811
282.32551
282.3329
282.34029
282.34768
282.35507
282.36245
282.36984
282.37722
282.3846
282.39199
282.39937
282.40675
282.41412
282.4215
282.42888
282.43625
282.44362
282.45099
282.45837
282.46574
282.4731
282.48047
282.48784
282.4952
282.50257
282.50993
282.51729
282.52465
282.53201
282.53937
282.54673
282.55408
282.56144
282.56879
282.57614
282.58349
282.59084
282.59819
282.60554
282.61289
282.62024
282.62758
282.63493
282.64227
282.64961
282.65695
282.66429
282.67163
282.67897
282.6863
282.69364
282.70097
282.70831
282.71564
282.72297
282.7303
282.73763
282.74496
282.75229
282.75962
282.76694
282.77427
282.78159
282.78891
282.79624
282.80356
282.81088
282.81819
282.82551
282.83283
282.84014
282.84746
282.85477
282.86208
282.86939
282.87671
282.88402
282.89133
282.89863
282.90594
282.91324
282.92055
282.92785
282.93515
282.94246
282.94976
282.95706
282.96436
282.97166
282.97895
282.98625
282.99354
283.00084
283.00813
283.01542
283.02271
283.03
283.03729
283.04457
283.05186
283.05914
283.06642
283.0737
283.08099
283.08827
283.09555
283.10283
283.11011
283.11739
283.12466
283.13194
283.13921
283.14649
283.15376
283.16103
283.1683
283.17556
283.18283
283.19009
283.19736
283.20462
283.21189
283.21915
283.22641
283.23367
283.24092
283.24818
283.25544
283.26269
283.26995
283.2772
283.28445
283.2917
283.29895
283.3062
283.31345
283.32069
283.32794
283.33519
283.34243
283.34967
283.35691
283.36415
283.37139
283.37863
283.38586
283.39309
283.40033
283.40756
283.41479
283.42202
283.42925
283.43648
283.44371
283.45094
283.45817
283.46539
283.47261
283.47984
283.48706
283.49427
283.50149
283.50871
283.51593
283.52315
283.53036
283.53757
283.54479
283.552
283.55921
283.56642
283.57362
283.58083
283.58804
283.59524
283.60244
283.60964
283.61684
283.62404
283.63124
283.63844
283.64564
283.65283
283.66003
283.66722
283.67441
283.6816
283.68879
283.69598
283.70317
283.71035
283.71754
283.72472
283.73191
283.73909
283.74627
283.75345
283.76062
283.7678
283.77497
283.78215
283.78932
283.7965
283.80367
283.81084
283.81801
283.82518
283.83234
283.83951
283.84667
283.85383
283.86099
283.86815
283.87531
283.88247
283.88963
283.89678
283.90393
283.91109
283.91824
283.92539
283.93254
283.93968
283.94683
283.95397
283.96111
283.96825
283.97539
283.98253
283.98966
283.9968
284.00393
284.01106
284.01819
284.02532
284.03245
284.03958
284.0467
284.05382
284.06094
284.06806
284.07517
284.08229
284.0894
284.09651
284.10362
284.11073
284.11783
284.12493
284.13203
284.13913
284.14623
284.15332
284.16041
284.1675
284.17459
284.18167
284.18875
284.19583
284.20291
284.20998
284.21706
284.22412
284.23119
284.23825
284.24531
284.25236
284.25942
284.26646
284.27351
284.28055
284.28759
284.29463
284.30166
284.30869
284.31571
284.32273
284.32975
284.33676
284.34376
284.35077
284.35777
284.36476
284.37175
284.37873
284.38571
284.39268
284.39965
284.40661
284.41357
284.42052
284.42746
284.4344
284.44133
284.44826
284.45518
284.4621
284.469
284.4759
284.4828
284.48968
284.49656
284.50343
284.51029
284.51714
284.52399
284.53082
284.53765
284.54447
284.55128
284.55808
284.56487
284.57165
284.57842
284.58518
284.59193
284.59867
284.6054
284.61212
284.61882
284.62552
284.6322
284.63887
284.64553
284.65217
284.6588
284.66542
284.67202
284.67861
284.68518
284.69174
284.69829
284.70482
284.71134
284.71784
284.72433
284.7308
284.73725
284.74368
284.7501
284.7565
284.76288
284.76924
284.77559
284.78191
284.78822
284.79451
284.80077
284.80702
284.81325
284.81946
284.82564
284.8318
284.83794
284.84406
284.85016
284.85623
284.86228
284.8683
284.8743
284.88028
284.88623
284.89216
284.89806
284.90393
284.90978
284.91561
284.9214
284.92717
284.93291
284.93862
284.94431
284.94997
284.95559
284.96119
284.96676
284.9723
284.97781
284.98328
284.98873
284.99414
284.99953
285.00488
285.0102
285.01548
285.02073
285.02595
285.03114
285.03629
285.04141
285.04649
285.05154
285.05656
285.06153
285.06648
285.07138
285.07625
285.08108
285.08588
285.09064
285.09536
285.10005
285.10469
285.1093
285.11388
285.11841
285.12291
285.12736
285.13178
285.13615
285.14049
285.14479
285.14905
285.15327
285.15745
285.1616
285.1657
285.16976
285.17378
285.17775
285.18169
285.18559
285.18945
285.19326
285.19704
285.20077
285.20447
285.20812
285.21173
285.2153
285.21883
285.22232
285.22577
285.22917
285.23254
285.23586
285.23914
285.24238
285.24558
285.24874
285.25186
285.25494
285.25798
285.26098
285.26393
285.26685
285.26973
285.27256
285.27536
285.27812
285.28084
285.28352
285.28616
285.28876
285.29132
285.29384
285.29633
285.29877
285.30118
285.30355
285.30589
285.30818
285.31044
285.31266
285.31485
285.31699
285.31911
285.32118
285.32323
285.32523
285.32721
285.32914
285.33104
285.33291
285.33475
285.33655
285.33832
285.34005
285.34176
285.34343
285.34507
285.34668
285.34826
285.34981
285.35133
285.35281
285.35427
285.3557
285.35709
285.35846
285.35981
285.36112
285.36241
285.36367
285.3649
285.3661
285.36728
285.36844
285.36957
285.37068
285.37176
285.37281
285.37385
285.37486
285.37584
285.3768
285.37774
285.37866
285.37956
285.38043
285.38129
285.38212
285.38293
285.38373
285.3845
285.38526
285.38599
285.38671
285.38741
285.38809
285.38876
285.38941
285.39004
285.39065
285.39125
285.39184
285.3924
285.39296
285.3935
285.39402
285.39453
285.39502
285.39551
285.39597
285.39643
285.39687
285.3973
285.39772
285.39813
285.39852
285.3989
285.39928
285.39964
285.39999
285.40033
285.40066
285.40098
285.40129
285.40159
285.40189
285.40217
285.40245
285.40272
285.40298
285.40323
285.40347
285.40371
285.40393
285.40416
285.40437
285.40458
285.40478
285.40497
285.40516
285.40534
285.40552
285.40569
285.40586
285.40602
285.40617
285.40632
285.40647
285.40661
285.40674
285.40687
285.407
285.40713
285.40724
285.40736
285.40747
285.40758
285.40768
285.40778
285.40788
285.40797
285.40806
285.40815
285.40824
285.40832
285.4084
285.40848
285.40855
285.40862
285.40869
285.40876
285.40883
285.40889
285.40895
285.40901
285.40906
285.40912
285.40917
285.40921
285.40926
285.40931
285.40935
285.4094
285.40944
285.40949
285.40953
285.40957
285.40962
285.40965
285.40969
285.40973
285.40976
285.4098
285.40983
285.40986
285.40988
285.40991
285.40994
285.40996
285.40999
285.41002
285.41004
285.41007
285.41009
285.41012
285.41014
285.41017
285.41019
285.41021
285.41023
285.41026
285.41028
285.4103
285.41032
285.41033
285.41035
285.41037
285.41039
285.4104
285.41042
285.41044
285.41045
285.41047
285.41049
285.4105
285.41052
285.41054
285.41055
285.41057
285.41058
285.4106
285.41062
285.41063
285.41065
285.41066
285.41068
285.41069
285.4107
285.41072
285.41073
285.41074
285.41076
285.41077
285.41079
285.4108
285.41081
285.41083
285.41084
285.41085
285.41087
285.41088
285.41089
285.41091
285.41092
285.41093
285.41095
285.41096
285.41097
285.41099
285.411
285.41101
285.41102
285.41104
285.41105
285.41106
285.41108
285.41109
285.4111
285.41112
285.41113
285.41114
285.41115
285.41117
285.41118
285.41119
285.41121
285.41122
285.41124
285.41126
285.41127
285.41129
285.4113
285.41131
285.41132
285.41134
285.41135
285.41136
285.41137
285.41139
285.4114
285.41141
285.41143
285.41144
285.41145
285.41147
285.41149
285.4115
285.41151
285.41153
285.41154
285.41155
285.41157
285.41158
285.4116
285.41161
285.41163
285.41164
285.41166
285.41168
285.41169
285.4117
285.41172
285.41173
285.41174
285.41176
285.41177
285.41179
285.4118
285.41182
285.41183
285.41185
285.41186
285.41188
285.41189
285.41191
285.41192
285.41194
285.41195
285.41197
285.41199
285.412
285.41202
285.41204
285.41205
285.41207
285.41208
285.4121
285.41211
285.41213
285.41214
285.41216
285.41218
285.4122
285.41221
285.41223
285.41225
285.41226
285.41228
285.4123
285.41231
285.41233
285.41235
285.41237
285.41238
285.4124
285.41241
285.41243
285.41245
285.41247
285.41248
285.4125
285.41252
285.41254
285.41256
285.41258
285.4126
285.41262
285.41264
285.41266
285.41268
285.4127
285.41271
285.41273
285.41275
285.41277
285.41279
285.41281
285.41283
285.41285
285.41287
285.41289
285.41291
285.41293
285.41295
285.41297
285.41299
285.41302
285.41304
285.41306
285.41308
285.4131
285.41312
285.41314
285.41316
285.41318
285.4132
285.41322
285.41325
285.41327
285.41329
285.41331
285.41333
285.41336
285.41338
285.4134
285.41343
285.41345
285.41348
285.4135
285.41353
285.41355
285.41358
285.41361
285.41363
285.41366
285.41369
285.41372
285.41375
285.41377
285.4138
285.41383
285.41385
285.41388
285.4139
285.41393
285.41395
285.41398
285.414
285.41403
285.41406
285.41408
285.41411
285.41414
285.41417
285.4142
285.41423
285.41426
285.41429
285.41432
285.41435
285.41438
285.41441
285.41444
285.41447
285.41451
285.41454
285.41457
285.41461
285.41464
285.41468
285.41471
285.41475
285.41478
285.41481
285.41485
285.41488
285.41491
285.41495
285.41498
285.41502
285.41506
285.41509
285.41513
285.41517
285.4152
285.41524
285.41528
285.41532
285.41536
285.4154
285.41544
285.41547
285.41551
285.41555
285.41559
285.41564
285.41568
285.41572
285.41577
285.41581
285.41586
285.4159
285.41595
285.416
285.41604
285.41609
285.41613
285.41618
285.41623
285.41628
285.41633
285.41637
285.41642
285.41647
285.41652
285.41657
285.41662
285.41667
285.41672
285.41677
285.41682
285.41688
285.41693
285.41699
285.41705
285.41711
285.41717
285.41723
285.41729
285.41735
285.4174
285.41746
285.41752
285.41758
285.41764
285.4177
285.41777
285.41784
285.4179
285.41797
285.41804
285.41811
285.41818
285.41825
285.41832
285.41839
285.41847
285.41854
285.41862
285.4187
285.41877
285.41885
285.41893
285.41901
285.41909
285.41917
285.41926
285.41934
285.41942
285.41951
285.41959
285.41968
285.41977
285.41986
285.41995
285.42004
285.42013
285.42023
285.42033
285.42043
285.42054
285.42065
285.42076
285.42087
285.42098
285.42108
285.42119
285.42131
285.42142
285.42153
285.42164
285.42176
285.42187
285.42199
285.4221
285.42222
285.42234
285.42245
285.42257
285.42269
285.42282
285.42293
285.42305
285.42317
285.42327
285.42338
285.42348
285.42357
285.42366
285.42375
285.42382
285.4239
285.42396
285.42402
285.42407
285.4241
285.42414
285.42416
285.42417
285.42418
285.42418
285.42418
285.42418
285.42417
285.42414
285.42409
285.42404
285.424
285.42396
285.42392
285.42389
285.42388
285.42387
285.42386
285.42386
285.42386
285.42387
285.4239
285.42399
285.42417
285.42436
285.42458
285.42481
285.42504
285.42529
285.42554
285.42579
285.42605
285.42631
285.42659
285.42687
285.42717
285.42748
285.42778
285.42806
285.42833
285.42857
285.42878
285.42897
285.42913
285.42927
285.42938
285.42948
285.42956
285.42961
285.42965
285.42968
285.4297
285.42972
285.42976
285.42982
285.42996
285.43027
285.43103
285.43296
285.43803
285.45154
285.48784
285.58612
285.85325
286.55498
287.63077
288.83623
290.12559
291.44839
292.75538
294.00356
295.15907
296.1986
297.10925
297.88744
298.53711
299.06768
299.49202
299.82473
300.08066
300.27393
300.41731
300.5218
300.59662
300.64922
300.68549
300.70997
300.72606
300.73631
300.74253
300.74606
300.74783
300.74852
300.74864
300.74853
300.74795
300.7466
300.74533
300.74422
300.74324
300.74238
300.74161
300.74093
300.74032
300.73976
300.73924
300.73876
300.73831
300.73788
300.73747
300.73708
300.7367
300.73634
300.736
300.73567
300.73534
300.73502
300.7347
300.73437
300.73404
300.73369
300.73332
300.73293
300.73251
300.73208
300.73161
300.73113
300.73063
300.73011
300.72958
300.72904
300.7285
300.72797
300.72745
300.72694
300.72645
300.72597
300.72551
300.72507
300.72466
300.72426
300.72388
300.72352
300.72318
300.72287
300.72257
300.72228
300.72202
300.72177
300.72153
300.7213
300.72109
300.72088
300.72068
300.72049
300.72031
300.72013
300.71995
300.71978
300.71962
300.71946
300.7193
300.71915
300.719
300.71886
300.71872
300.71858
300.71845
300.71832
300.71819
300.71807
300.71794
300.71782
300.7177
300.71758
300.71747
300.71735
300.71724
300.71713
300.71702
300.71691
300.71681
300.7167
300.7166
300.7165
300.7164
300.71631
300.71621
300.71612
300.71603
300.71595
300.71586
300.71577
300.71569
300.7156
300.71552
300.71543
300.71535
300.71527
300.71518
300.7151
300.71502
300.71494
300.71486
300.71479
300.71471
300.71464
300.71457
300.7145
300.71443
300.71436
300.71429
300.71422
300.71415
300.71409
300.71402
300.71396
300.71389
300.71383
300.71376
300.7137
300.71364
300.71358
300.71352
300.71346
300.7134
300.71334
300.71328
300.71323
300.71317
300.71311
300.71305
300.713
300.71294
300.71289
300.71283
300.71278
300.71273
300.71268
300.71262
300.71257
300.71252
300.71247
300.71242
300.71237
300.71233
300.71228
300.71223
300.71219
300.71214
300.71209
300.71204
300.712
300.71195
300.7119
300.71186
300.71181
300.71177
300.71172
300.71168
300.71164
300.7116
300.71155
300.71151
300.71147
300.71143
300.71139
300.71135
300.7113
300.71127
300.71123
300.71119
300.71115
300.71111
300.71108
300.71104
300.711
300.71096
300.71092
300.71088
300.71085
300.71081
300.71077
300.71074
300.7107
300.71066
300.71063
300.71059
300.71055
300.71052
300.71048
300.71045
300.71042
300.71038
300.71035
300.71032
300.71029
300.71026
300.71022
300.71019
300.71016
300.71013
300.7101
300.71006
300.71003
300.71
300.70997
300.70993
300.7099
300.70987
300.70984
300.70982
300.70979
300.70976
300.70973
300.7097
300.70967
300.70964
300.70961
300.70958
300.70955
300.70952
300.70949
300.70947
300.70944
300.70941
300.70938
300.70936
300.70933
300.7093
300.70927
300.70925
300.70922
300.70919
300.70916
300.70913
300.70911
300.70908
300.70905
300.70902
300.70899
300.70896
300.70894
300.70891
300.70888
300.70885
300.70882
300.7088
300.70876
300.70873
300.7087
300.70867
300.70864
300.7086
300.70857
300.70853
300.7085
300.70846
300.70843
300.7084
300.70836
300.70833
300.70829
300.70825
300.70821
300.70817
300.70813
300.70808
300.70804
300.70799
300.70795
300.7079
300.70785
300.7078
300.70775
300.7077
300.70764
300.70758
300.70752
300.70746
300.7074
300.70733
300.70727
300.7072
300.70713
300.70705
300.70698
300.7069
300.70682
300.70673
300.70665
300.70656
300.70646
300.70637
300.70627
300.70616
300.70606
300.70595
300.70583
300.70571
300.70559
300.70546
300.70533
300.70519
300.70505
300.7049
300.70475
300.7046