/*--------------------------------*- C++ -*----------------------------------*\
  =========                 |
  \\      /  F ield         | OpenFOAM: The Open Source CFD Toolbox
   \\    /   O peration     | Website:  https://openfoam.org
    \\  /    A nd           | Version:  7
     \\/     M anipulation  |
\*---------------------------------------------------------------------------*/
FoamFile
{
    version     2.0;
    format      ascii;
    class       volScalarField;
    location    "0.00301";
    object      Uy;
}
// * * * * * * * * * * * * * * * * * * * * * * * * * * * * * * * * * * * * * //

dimensions      [0 1 -1 0 0 0 0];

internalField   nonuniform List<scalar> 
5000
(
1.2606876e-21
1.7163944e-21
0
0
-8.3238328e-22
9.0551147e-37
7.2360389e-22
0
0
-8.2347744e-22
-1.677387e-21
8.4270292e-22
8.4291991e-22
-8.4199017e-22
0
-8.3831622e-22
-2.0510505e-51
8.3312183e-22
0
8.2822754e-22
-8.2669724e-22
-8.2460599e-22
1.6451234e-21
-8.237604e-22
-8.2801089e-22
-6.8662014e-36
8.3727111e-22
8.4050317e-22
-1.6862218e-21
1.4632344e-35
-1.4725583e-35
8.3969907e-22
1.6736875e-21
-1.6699031e-21
1.4446789e-35
-7.2336007e-35
-2.8857148e-35
1.6703283e-21
-1.6789168e-21
-1.687224e-21
1.6951185e-21
-5.8330906e-35
-1.6864888e-21
8.3700699e-22
2.4926745e-21
-8.2554628e-22
-8.2653215e-22
-5.7200537e-35
-1.6907431e-21
0
8.5486789e-22
1.2081638e-37
-8.4155679e-22
1.6699756e-21
-2.8912088e-35
-1.6477037e-21
8.3321861e-22
-2.9213934e-35
-8.5556355e-22
0
8.5239863e-22
2.8884897e-35
2.3938488e-37
8.3894712e-22
-8.4040456e-22
2.9601594e-35
8.5349223e-22
-8.5739136e-22
-8.572055e-22
8.5474579e-22
8.5298366e-22
-8.5158446e-22
-8.5080478e-22
1.7044974e-21
8.552607e-22
-8.5808751e-22
0
8.5877046e-22
-1.2194832e-37
-8.5776259e-22
8.5770765e-22
-2.4397277e-37
2.4419102e-37
8.5937728e-22
8.5927741e-22
2.9904994e-35
-8.5873972e-22
0
-8.6019761e-22
-8.9278875e-35
-3.0077e-35
8.5977016e-22
8.5928384e-22
-1.7186262e-21
-5.9534475e-35
8.6099162e-22
0
0
-8.5984126e-22
-5.9597965e-35
1.7190646e-21
-8.6016941e-22
-1.721249e-21
0
8.598848e-22
8.5945295e-22
-8.5916323e-22
-8.5931031e-22
0
0
8.5901082e-22
8.5857771e-22
0
-8.5789362e-22
2.9979866e-35
8.5706536e-22
-8.5640431e-22
2.4321438e-37
-2.9893327e-35
-1.9059809e-53
1.7084578e-21
-3.641333e-37
-8.5429338e-22
0
-8.5491223e-22
8.5519861e-22
8.5411038e-22
-1.708678e-21
-8.5464466e-22
1.7049102e-21
8.499916e-22
-8.4677627e-22
-8.4256819e-22
-8.3776315e-22
0
8.2927981e-22
8.2755743e-22
-8.2863508e-22
-2.8893704e-35
8.4240032e-22
-8.5584581e-22
-8.7208596e-22
0
9.0321001e-22
9.0580603e-22
-8.3262587e-22
7.6207085e-22
-4.5367526e-37
-3.16903e-22
3.9452382e-22
-1.0118926e-21
6.2769411e-35
7.6372545e-22
-7.8485952e-22
8.5578744e-22
8.516566e-22
-8.3629625e-22
0
0
-8.2214465e-22
-8.1047515e-22
8.0313166e-22
8.0301684e-22
-8.0824131e-22
-5.6305455e-35
8.1086783e-22
-8.0725866e-22
-8.031963e-22
0
7.998807e-22
8.0411047e-22
0
-8.0747929e-22
-8.0349108e-22
0
7.9423232e-22
1.647727e-34
-7.9429097e-22
7.9676164e-22
7.9642713e-22
-7.9344814e-22
-5.452058e-35
5.4066412e-35
3.3464789e-37
7.8686236e-22
-7.883026e-22
-1.0903194e-34
5.3824238e-35
-5.3580519e-35
7.7635731e-22
0
0
-7.7816934e-22
-7.7537275e-22
0
0
7.6670707e-22
-6.4017044e-54
-7.7056669e-22
0
7.6437451e-22
-7.6035274e-22
-2.0988742e-34
1.5169106e-21
-7.6114609e-22
-1.5809197e-34
-1.0769956e-37
-7.5345834e-22
7.4903717e-22
-1.0606375e-37
-1.0361379e-34
5.208761e-35
-7.5366358e-22
0
7.458759e-22
5.1356882e-35
2.0519051e-34
7.3954258e-22
0
-7.437594e-22
-7.4305535e-22
0
0
0
7.3279711e-22
5.0666452e-35
-7.3318881e-22
0
0
7.2982897e-22
7.2667362e-22
-7.2381154e-22
-7.2256557e-22
0
7.2557761e-22
7.2473003e-22
-7.227074e-22
-7.1988765e-22
0
7.1816736e-22
-1.99611e-34
-4.9821338e-35
7.1673623e-22
-7.1350468e-22
-7.1090051e-22
0
7.1388058e-22
-9.9391447e-35
7.1209073e-22
9.8194258e-35
-1.4076242e-21
7.0096299e-22
-9.7472622e-35
-2.456055e-34
-4.9167047e-35
-7.0910538e-22
7.0581541e-22
7.0350964e-22
0
-7.0094013e-22
-7.0028881e-22
0
7.0027419e-22
7.0196083e-22
-1.4043687e-21
-7.0011008e-22
6.9721526e-22
6.9337699e-22
1.9147533e-34
-6.906048e-22
6.9470657e-22
-4.8400664e-35
-6.9747382e-22
6.941454e-22
-4.7952766e-35
4.7800496e-35
-1.9488462e-37
-4.7613186e-35
6.937566e-22
0
0
-6.8950563e-22
-6.8671371e-22
0
0
0
0
6.897122e-22
4.739331e-35
-1.3718297e-21
2.9228232e-37
6.8693995e-22
6.8823648e-22
-9.5464184e-35
-9.5007666e-35
-9.7177409e-38
-6.8310003e-22
-6.8503037e-22
-6.8675693e-22
1.3720618e-21
2.052819e-21
-6.818745e-22
-1.3604935e-21
0
6.8393604e-22
6.8465208e-22
-6.8337034e-22
1.9336582e-37
-2.8900799e-37
1.9279093e-37
6.821352e-22
6.8501184e-22
-6.8342498e-22
-1.3605578e-21
6.7678355e-22
-1.5545412e-52
6.7704548e-22
1.8887332e-34
-1.3674418e-21
0
0
1.3475091e-21
-3.7330341e-34
-1.3528571e-21
0
6.8388233e-22
6.8036882e-22
-6.7616641e-22
9.5451699e-38
-9.290187e-35
9.5625446e-38
6.794936e-22
-6.8385716e-22
-6.8329626e-22
0
6.7806343e-22
-9.3942026e-35
-6.7479919e-22
1.3466904e-21
-1.8710256e-34
-6.7823266e-22
-1.8922776e-34
-1.3625994e-21
1.3554381e-21
6.7335954e-22
-6.6881456e-22
-9.4864076e-38
-6.7285375e-22
0
0
6.7883467e-22
-9.3473247e-35
-1.3375312e-21
9.4608496e-38
2.0089553e-21
-6.7732012e-22
-6.8137254e-22
1.3591023e-21
-6.7551117e-22
6.7079203e-22
1.3344986e-21
-6.6821426e-22
-6.7369167e-22
-6.7927116e-22
6.8066674e-22
4.4700802e-52
-6.7404485e-22
6.7050337e-22
-6.6824279e-22
6.7082314e-22
1.8740274e-34
1.9310384e-37
6.775731e-22
-1.3487594e-21
6.7110981e-22
1.8574205e-34
-1.8612598e-34
-6.7588452e-22
-1.3570973e-21
2.0283185e-21
1.8653311e-34
-3.7087937e-34
1.8455213e-34
-1.3376975e-21
1.3500461e-21
-1.881758e-34
-1.3520933e-21
0
0
6.6562022e-22
-9.2607629e-35
-6.7315368e-22
-6.765528e-22
6.7500696e-22
2.0157595e-21
-6.6850033e-22
-6.662294e-22
-1.8990805e-37
-6.7277871e-22
0
1.3467611e-21
1.3402106e-21
-6.6646903e-22
-1.3283193e-21
-6.6709023e-22
1.3446067e-21
1.3491801e-21
-1.3437251e-21
-1.3362866e-21
0
1.3228581e-21
-6.6512583e-22
-1.3424145e-21
6.738396e-22
6.7093833e-22
-9.4782263e-38
9.2008704e-35
6.6009757e-22
-6.6345052e-22
-6.6961464e-22
6.7257546e-22
-9.2906863e-35
-9.4629344e-38
-9.1783526e-35
-6.5910634e-22
6.619027e-22
-2.7823329e-34
-9.3191828e-35
-1.8557534e-34
-6.6462988e-22
6.6042047e-22
-9.1301684e-35
-1.8292324e-34
-9.4573505e-38
-1.3371638e-21
-6.6697169e-22
6.6370742e-22
1.3190191e-21
-9.114343e-35
-1.3151581e-21
-6.6245565e-22
1.3316311e-21
6.6549096e-22
-6.6302398e-22
-6.5957336e-22
-1.8230108e-34
6.5701968e-22
0
0
6.6275104e-22
0
-6.5803198e-22
6.5609505e-22
9.3366894e-38
-1.8297948e-34
0
-6.6031604e-22
6.5820848e-22
6.5649131e-22
-1.3130692e-21
-6.5725786e-22
6.5754135e-22
0
0
-6.5120248e-22
1.8112934e-34
6.5575784e-22
0
0
-6.5146231e-22
2.6953837e-34
6.439905e-22
0
0
0
0
0
0
0
0
1.2987275e-21
3.6232693e-34
-6.5115436e-22
6.4751565e-22
-6.4333895e-22
6.399895e-22
-1.7793404e-34
-6.4416167e-22
-1.8001359e-34
-6.4910437e-22
0
0
6.4077952e-22
1.7737732e-34
-6.4044335e-22
0
0
0
0
0
0
0
1.2822524e-21
-5.3355498e-34
-1.2794029e-21
6.3763141e-22
9.0394304e-38
6.3690299e-22
-3.5377928e-34
-1.2759906e-21
-6.3680401e-22
-1.0528823e-53
1.8960808e-21
0
-1.2695376e-21
0
0
1.2646683e-21
-1.7462437e-34
-1.8839976e-21
6.3035166e-22
6.3267404e-22
-6.3270634e-22
6.3118381e-22
-6.2829874e-22
-1.7370812e-34
6.2706078e-22
-6.2890244e-22
0
-6.2887734e-22
6.2586094e-22
1.2466801e-21
-6.2369842e-22
-6.2677164e-22
-6.2889662e-22
-6.2711506e-22
1.2479237e-21
6.2018738e-22
-6.1791149e-22
0
6.2534525e-22
-6.2660995e-22
-6.2398863e-22
1.8601328e-21
1.7509369e-37
-1.2294349e-21
6.1873873e-22
8.6565461e-35
6.2479859e-22
-1.7684336e-37
-1.2378335e-21
6.1539453e-22
0
-1.7121573e-34
-8.82612e-38
-6.2281223e-22
6.2072861e-22
-1.7160498e-34
-8.5303458e-35
-8.7117929e-38
-6.1508913e-22
6.190271e-22
1.0016966e-52
-1.719379e-34
-8.7636579e-38
-1.2281479e-21
-8.4918621e-35
6.1386932e-22
0
0
-6.1790484e-22
-2.5631344e-34
6.1418748e-22
-6.1300979e-22
8.5276886e-35
2.3399459e-53
-8.564731e-35
6.1652952e-22
6.1570766e-22
8.5345108e-35
-6.1519753e-22
0
0
6.1366589e-22
-6.1265208e-22
5.1060015e-34
6.1429016e-22
-6.1444677e-22
0
6.1162362e-22
6.099643e-22
-6.1038345e-22
-6.1234659e-22
0
6.1346572e-22
6.115237e-22
-1.2192571e-21
-6.0912292e-22
6.1103438e-22
6.132178e-22
8.5006029e-35
6.110402e-22
1.6907411e-34
-1.2153682e-21
0
0
0
6.0937376e-22
6.0602237e-22
0
-6.0514935e-22
-8.431468e-35
6.106619e-22
0
0
-6.0237237e-22
-8.3482719e-35
8.4042356e-35
-6.0966655e-22
6.0859264e-22
-2.5168782e-34
-5.9825428e-22
0
-5.9506526e-22
-8.367015e-35
6.0959996e-22
-6.1105005e-22
6.0697846e-22
6.023811e-22
-5.980595e-22
0
5.971855e-22
6.0171449e-22
-6.0512173e-22
-6.0595121e-22
0
-6.0395253e-22
6.0268182e-22
6.0157006e-22
-6.0027416e-22
-1.1984179e-21
3.330087e-34
1.8024083e-21
4.5671805e-53
-6.0096893e-22
-1.1998654e-21
3.3229318e-34
1.1969325e-21
-5.9881309e-22
5.9936679e-22
-5.9960319e-22
-5.994536e-22
1.1982115e-21
0
0
-1.1955697e-21
-2.9523338e-52
1.1925909e-21
0
0
-1.1883829e-21
-9.5251533e-53
1.1860668e-21
0
0
-1.1851427e-21
-5.925228e-22
1.1840772e-21
5.9094764e-22
0
-1.1752864e-21
3.2537725e-34
1.1687989e-21
-5.8316841e-22
0
5.8060115e-22
-5.8031575e-22
8.2547115e-38
5.81852e-22
-5.8289828e-22
5.8343459e-22
5.8286899e-22
-5.8126882e-22
-5.7915175e-22
1.6024971e-34
5.7552408e-22
-5.7384124e-22
-1.5895027e-34
5.7240746e-22
-5.7340895e-22
5.7455649e-22
5.7481333e-22
-5.7378744e-22
-5.7213462e-22
1.5840437e-34
5.6912548e-22
-5.6787806e-22
8.0546544e-38
5.6646571e-22
-5.6651957e-22
5.6645312e-22
5.6577698e-22
-5.6449984e-22
-1.1263808e-21
3.1229288e-34
1.1220833e-21
-5.6041505e-22
7.9600702e-38
1.1195879e-21
1.5895208e-37
-5.5867851e-22
0
5.5757068e-22
0
-5.5640647e-22
0
0
0
-5.5397054e-22
-3.1984058e-53
5.5268814e-22
0
5.5134417e-22
-1.5289415e-34
-5.4983714e-22
0
0
0
-5.4648336e-22
1.5154219e-34
5.450674e-22
0
5.4384308e-22
1.5076565e-34
-5.4258953e-22
0
5.4118377e-22
-5.4041342e-22
2.9982005e-34
5.3872065e-22
-5.3782329e-22
0
-5.3613393e-22
-1.4868659e-34
5.3486406e-22
0
5.3390615e-22
-5.334462e-22
-2.9599435e-34
5.3252936e-22
-2.9542855e-34
-7.5553932e-38
1.475903e-34
-7.5434997e-38
-5.3042111e-22
0
5.2963346e-22
-1.4688755e-34
-1.4678395e-34
1.7585883e-53
-1.4665874e-34
0
-1.0549424e-21
-1.4637681e-34
5.2682213e-22
-5.2651189e-22
1.4604353e-34
5.2592032e-22
5.2564043e-22
1.4588508e-34
-1.4581318e-34
5.2486427e-22
-5.2462834e-22
-5.2440335e-22
0
-5.2398741e-22
1.4544806e-34
5.2361861e-22
0
0
0
-1.0460373e-21
5.8079103e-34
1.045568e-21
0
0
0
0
0
0
0
-1.0442916e-21
2.9006464e-34
1.0437856e-21
5.2172523e-22
-5.2153524e-22
-5.21325e-22
1.4477526e-34
2.8899893e-34
5.2076969e-22
-5.2069585e-22
5.2068907e-22
5.2073651e-22
-5.2085422e-22
-5.2100954e-22
2.8928393e-34
5.2132461e-22
5.2150906e-22
-1.4471881e-34
-5.2190989e-22
-5.2212534e-22
5.223512e-22
5.2258572e-22
-5.2282837e-22
5.2307907e-22
0
-5.2360091e-22
-5.2387034e-22
1.4539552e-34
5.2442327e-22
-5.2470423e-22
5.2498678e-22
5.2526995e-22
-5.2554928e-22
5.2581079e-22
1.4606873e-34
-5.2620799e-22
-5.2635211e-22
-7.4817375e-38
1.0532188e-21
2.9247353e-34
-5.2700626e-22
-5.2728253e-22
0
5.2795809e-22
0
0
0
5.2947937e-22
5.2987485e-22
-5.3027201e-22
-5.3067226e-22
0
5.314768e-22
-1.4776804e-34
-5.3228233e-22
0
0
5.334839e-22
-2.9634452e-34
-5.3427592e-22
0
0
5.3544662e-22
-2.9742706e-34
-5.3621259e-22
0
5.3696237e-22
-1.4920608e-34
1.4923068e-34
-1.4940654e-34
-5.3840463e-22
0
-5.3908721e-22
2.9934079e-34
5.3973805e-22
0
5.4034995e-22
-5.4063976e-22
-5.4091795e-22
1.0823665e-21
1.5049955e-34
-1.0833442e-21
1.504733e-34
5.4210099e-22
0
0
5.4260578e-22
-1.5062352e-34
-5.4278099e-22
0
5.4286833e-22
-5.4293785e-22
-5.4301776e-22
5.430982e-22
0
-5.4323556e-22
5.4328442e-22
3.0158649e-34
-3.0160158e-34
5.4336534e-22
-4.5249088e-34
5.433509e-22
-5.4332091e-22
1.507795e-34
-3.0167861e-34
-1.0862639e-21
1.5063544e-34
5.4291869e-22
0
0
0
-1.0845272e-21
-5.4205154e-22
1.0836388e-21
5.4156607e-22
0
0
5.4065468e-22
1.9205776e-53
-5.3985723e-22
0
-1.0778206e-21
-5.3842134e-22
1.0758848e-21
5.3748442e-22
0
-1.0732041e-21
-1.5238189e-37
1.6070226e-21
-1.4845908e-34
-1.0693804e-21
5.3417873e-22
3.0334698e-37
-5.3311507e-22
1.4795786e-34
2.9514785e-34
5.3141847e-22
0
5.302189e-22
-2.9404287e-34
-1.0579313e-21
5.2831984e-22
-8.7852578e-34
-5.269891e-22
1.0526102e-21
-7.4693465e-38
-5.2489955e-22
0
0
0
-5.2195032e-22
5.2118569e-22
1.0408222e-21
-5.1962668e-22
-1.4406971e-34
-1.4369985e-34
-5.1722218e-22
0
5.155841e-22
-7.315141e-38
-1.0278534e-21
5.1309286e-22
2.8419586e-34
-5.1141877e-22
-5.1057932e-22
2.8323415e-34
1.0178002e-21
0
5.0722019e-22
5.0638097e-22
0
-5.0470569e-22
-5.0387051e-22
5.0303695e-22
0
-5.0137776e-22
0
0
4.98912e-22
-4.1479372e-34
-4.9728671e-22
0
0
4.9487292e-22
4.940732e-22
-4.9327786e-22
-4.9249363e-22
4.9172781e-22
4.9098401e-22
-9.8052868e-22
-4.8956615e-22
1.3582265e-34
4.8821269e-22
-2.7049179e-34
-2.7013663e-34
4.8629333e-22
-4.8568863e-22
4.851018e-22
-4.8453288e-22
-4.1266815e-37
4.8345033e-22
-9.6587413e-22
-4.824428e-22
-4.8196748e-22
9.6302309e-22
9.6214942e-22
-4.8065736e-22
4.8025972e-22
-4.7988134e-22
2.6630754e-34
9.5836588e-22
-4.7886308e-22
1.3281927e-34
-1.3287723e-34
-4.7802007e-22
0
0
4.7735281e-22
4.7716892e-22
0
-4.7686211e-22
-4.7674007e-22
0
-4.7656411e-22
1.3231779e-34
4.7648396e-22
-4.764811e-22
1.3217983e-34
4.7654707e-22
0
4.7670679e-22
2.6474016e-34
-4.7696059e-22
4.7712121e-22
-1.3233483e-34
-4.775154e-22
-4.777488e-22
-1.3266489e-34
4.7828656e-22
0
-4.7891421e-22
4.7926101e-22
-1.3631891e-37
2.6658357e-34
4.8042971e-22
-4.8086104e-22
0
-9.635674e-22
1.0707957e-33
4.827845e-22
2.6827532e-34
9.6771735e-22
-9.6884461e-22
-9.7000515e-22
9.7119736e-22
9.7242122e-22
4.8683771e-22
0
-4.8813556e-22
-9.7760894e-22
6.9560112e-38
-4.9017948e-22
4.9088473e-22
4.9160048e-22
-4.9232671e-22
9.8612596e-22
-9.8761588e-22
-8.2369736e-34
9.9064369e-22
-9.9217941e-22
2.7579738e-34
-4.9764466e-22
4.9843007e-22
4.9921939e-22
-5.0001247e-22
-1.3892219e-34
-1.0032131e-21
1.0048126e-21
1.0064137e-21
-1.0080157e-21
-1.4010342e-34
-5.0560692e-22
2.8123679e-34
5.0719895e-22
1.4098663e-34
-1.5107145e-52
5.0956144e-22
1.0206803e-21
-5.1111359e-22
3.2999978e-52
-5.1264012e-22
-8.5520776e-34
5.1413776e-22
-1.0297487e-21
2.8619828e-34
1.032642e-21
-3.3809368e-53
-5.1772871e-22
0
0
-5.1975756e-22
5.2041038e-22
1.0421022e-21
0
0
0
-5.2348015e-22
-5.2405206e-22
0
5.2515198e-22
-5.2567859e-22
-8.7637445e-34
1.0533671e-21
0
0
0
-5.284973e-22
-5.2890781e-22
5.293005e-22
-5.2967574e-22
-2.9435944e-34
1.060747e-21
0
0
-1.0625753e-21
1.5107786e-37
5.3181076e-22
-5.3204614e-22
5.3226534e-22
-5.3246937e-22
2.9581686e-34
1.0656607e-21
0
0
-5.3325221e-22
-5.3336157e-22
0
0
5.3359891e-22
5.3364868e-22
0
-5.3370546e-22
-5.3371329e-22
5.3370795e-22
-5.3368987e-22
-5.3365948e-22
5.3361657e-22
5.3356195e-22
-2.9628268e-34
-5.3341967e-22
5.3333256e-22
1.4799311e-34
-5.3312853e-22
0
-5.3288677e-22
2.9579421e-34
5.3261198e-22
-5.3246301e-22
2.9554634e-34
5.3214406e-22
0
-5.3180083e-22
1.4762069e-34
7.5521759e-38
-5.3124859e-22
5.3105612e-22
5.308604e-22
0
-1.0609236e-21
5.8897014e-34
5.3005658e-22
7.5296623e-38
1.0592972e-21
-1.05889e-21
-1.0584849e-21
1.0580819e-21
5.2884109e-22
0
-1.0568993e-21
8.7952036e-34
1.0561422e-21
0
-1.0554222e-21
-2.9297376e-34
5.2737078e-22
1.4639562e-34
1.0541094e-21
-1.0538133e-21
-1.3157036e-33
1.0532652e-21
-1.0530128e-21
2.921107e-34
1.0525582e-21
5.2617872e-22
-1.0521735e-21
-5.2600395e-22
1.0518614e-21
-1.0517348e-21
-1.3133258e-33
1.0515406e-21
-1.0514736e-21
1.4598023e-34
-5.2570089e-22
5.8330671e-34
1.5771224e-21
-2.9181853e-34
-1.0515156e-21
5.2579962e-22
1.0517057e-21
-5.2591756e-22
2.9204132e-34
-5.2608171e-22
-5.8444025e-34
5.2629309e-22
-1.0528352e-21
4.3849165e-34
-5.8479659e-34
2.9230128e-34
5.2704251e-22
0
5.2743412e-22
5.2765046e-22
0
0
0
0
0
-5.2924041e-22
-5.2955397e-22
0
5.302198e-22
-5.3057293e-22
-8.8443529e-34
1.0626305e-21
0
0
0
-5.3292384e-22
-5.3334876e-22
5.3378192e-22
5.3422253e-22
-1.069339e-21
-8.9155907e-34
1.0711672e-21
0
-1.0730357e-21
-8.9451849e-34
5.3746785e-22
-5.3794686e-22
5.3842783e-22
-5.3891015e-22
-2.9940403e-34
1.0797511e-21
0
0
-5.4131564e-22
-5.4179028e-22
0
-5.4272578e-22
-1.5438259e-37
-5.4363908e-22
5.4408548e-22
1.6335719e-21
0
1.0907454e-21
1.0915628e-21
0
-1.6396895e-21
-1.0938696e-21
1.0945856e-21
-5.4763552e-22
-5.4796258e-22
1.6448198e-21
5.4856642e-22
7.7995101e-38
5.4909791e-22
-5.4933454e-22
-5.4955128e-22
-5.4974725e-22
7.593884e-54
-5.5007466e-22
-5.5020547e-22
5.5031493e-22
0
1.1009364e-21
1.1010206e-21
0
-5.5052216e-22
-1.1009809e-21
-3.0545404e-34
-5.5034917e-22
-1.100476e-21
1.1001996e-21
1.0998679e-21
5.4973994e-22
5.4951756e-22
0
-5.4898627e-22
-1.6460285e-21
5.4833629e-22
1.996759e-51
-1.6427006e-21
1.0942722e-21
5.4667468e-22
5.4618235e-22
1.0913181e-21
-1.0902085e-21
-5.4451761e-22
5.4389936e-22
5.4324932e-22
5.4256727e-22
-1.6255601e-21
-5.4110774e-22
1.6209911e-21
5.3952104e-22
-5.3867966e-22
-1.0756125e-21
5.3690096e-22
-5.3596436e-22
8.9073943e-34
-8.8937934e-34
-1.5989027e-21
5.3190693e-22
5.3081579e-22
1.0593894e-21
5.2854353e-22
-1.0547258e-21
-1.4954183e-37
-5.2491618e-22
5.2365037e-22
1.5670692e-21
-1.5631071e-21
-5.1968837e-22
1.5549438e-21
0
-1.5464739e-21
-5.1404251e-22
1.5377094e-21
-5.1107379e-22
-1.0191107e-21
-2.8198715e-34
5.621689e-34
5.0487169e-22
0
1.0032961e-21
1.0000164e-21
-4.9835108e-22
-4.9667732e-22
-9.8997439e-22
4.9328131e-22
4.9156113e-22
-9.7965446e-22
0
9.7264233e-22
9.6910178e-22
-4.8277084e-22
-9.6196313e-22
2.6598334e-34
4.7737791e-22
-9.5113107e-22
4.7374711e-22
-1.571722e-33
-9.4019418e-22
4.6826695e-22
0
9.2920267e-22
0
-1.0235482e-33
-4.591052e-22
-9.1455466e-22
1.3663604e-21
-1.2893065e-37
-9.0364142e-22
0
8.9642839e-22
4.4642276e-22
-8.8928121e-22
4.9171433e-34
4.4110826e-22
-8.7872054e-22
4.3762524e-22
-7.2575622e-34
-8.6839629e-22
4.3250792e-22
-4.3083442e-22
8.5835693e-22
1.2826244e-21
0
-1.2729806e-21
-8.4550236e-22
1.2635943e-21
8.3933745e-22
-4.1816385e-22
-8.3336827e-22
4.1523113e-22
4.1380598e-22
-8.2482029e-22
4.1104421e-22
8.1941775e-22
-4.0840604e-22
5.7857577e-38
-8.11804e-22
-8.0940808e-22
1.210629e-21
-4.0242023e-22
-6.684325e-34
1.2008876e-21
0
-1.1950217e-21
-7.9485972e-22
3.9656532e-22
3.9574832e-22
3.949797e-22
0
3.9359206e-22
-2.1813134e-34
-7.8482275e-22
2.1747889e-34
3.9144433e-22
0
3.9069557e-22
-7.8080937e-22
-1.1705103e-21
7.7998256e-22
1.1696051e-21
3.8980166e-22
-3.8979001e-22
-7.7966703e-22
3.8993203e-22
-3.9008424e-22
-3.9028909e-22
7.8109171e-22
-7.8172033e-22
-3.9122416e-22
1.1749278e-21
7.8426523e-22
-3.9268058e-22
-1.1798286e-21
8.7463919e-34
-8.7621219e-34
-3.9538901e-22
-4.3981563e-34
-3.9699574e-22
3.97846e-22
3.9872291e-22
3.9962397e-22
-4.0054588e-22
-4.0148662e-22
1.2073388e-21
-4.0342265e-22
-8.0882844e-22
1.2162646e-21
1.1551823e-37
-4.0748e-22
8.1706217e-22
4.0959754e-22
0
-4.1177764e-22
-4.1289091e-22
-8.28042e-22
4.151682e-22
-1.3865808e-33
-1.2525516e-21
4.1871939e-22
4.1994146e-22
4.2118304e-22
-4.2244398e-22
-4.2372495e-22
1.2750794e-21
-4.2634852e-22
-8.5538083e-22
-7.1459107e-34
-4.3043368e-22
8.6367055e-22
1.2997668e-21
2.4122665e-34
-2.4209726e-34
-6.2190513e-38
-4.391191e-22
-8.8125438e-22
-4.421508e-22
1.331067e-21
-4.9428583e-34
-8.9361402e-22
0
0
4.5157393e-22
-2.5155119e-34
2.5238523e-34
4.5642902e-22
-9.1612444e-22
-4.5970233e-22
-5.1203513e-34
4.6299802e-22
1.393958e-21
4.6630973e-22
0
0
0
-1.4188572e-21
-9.4922475e-22
1.4288113e-21
-5.3070646e-34
-9.5915765e-22
0
0
9.6902111e-22
-1.0793847e-33
-5.4135827e-34
9.7877225e-22
-4.909956e-22
-9.8519212e-22
-9.8837439e-22
4.9576748e-22
1.4920097e-21
4.9889396e-22
0
0
0
-1.5149731e-21
-1.0129575e-21
1.5238521e-21
-1.1310361e-33
-5.1084353e-22
7.2797007e-38
-5.1366492e-22
1.0300937e-21
-5.7329258e-34
-5.1775141e-22
1.0381453e-21
0
-2.8962919e-34
-1.0458067e-21
-1.0482678e-21
1.5760235e-21
1.0530482e-21
-5.2768131e-22
-2.934562e-34
5.2991854e-22
-1.5929911e-21
-1.0640969e-21
5.3307264e-22
5.3406859e-22
-5.3503555e-22
-5.3597368e-22
5.3688239e-22
5.3776074e-22
-2.9896869e-34
2.9934563e-34
5.4021141e-22
0
5.4168753e-22
-1.0847544e-21
-1.6291045e-21
1.0873192e-21
1.0884998e-21
5.448065e-22
-6.053214e-34
-1.0916372e-21
5.462732e-22
-5.4669349e-22
-5.4707891e-22
1.094859e-21
-1.0954894e-21
-5.4802488e-22
5.4826969e-22
1.0969582e-21
5.486527e-22
-1.0975803e-21
3.0452079e-34
-5.48958e-22
-5.4898829e-22
1.6469486e-21
-5.4894047e-22
-5.4886179e-22
1.6462418e-21
-7.7960152e-38
-1.645223e-21
-5.4818321e-22
1.6437668e-21
-5.4762453e-22
-1.8882125e-51
-9.1058859e-34
-1.0930208e-21
1.0921302e-21
1.0911649e-21
-5.4506351e-22
6.0448431e-34
1.0878239e-21
-5.4328572e-22
-1.6278774e-21
-5.4193139e-22
5.41202e-22
0
5.3963765e-22
1.0776069e-21
-7.6445032e-38
-1.611089e-21
-5.3609089e-22
1.0702356e-21
-7.5901757e-38
-1.0661423e-21
1.0639964e-21
-8.8420837e-34
-1.059511e-21
1.5857626e-21
1.0547772e-21
0
0
-5.2361454e-22
-1.5668993e-21
-5.209578e-22
1.5587688e-21
-5.7527544e-34
-1.0335514e-21
1.0306654e-21
1.0277341e-21
-5.1237872e-22
-1.021737e-21
5.0933794e-22
5.0778762e-22
-1.5186546e-21
-5.0463041e-22
-8.3779502e-34
2.7817508e-34
4.9976769e-22
-4.9811605e-22
9.9290238e-22
1.4843212e-21
0
-1.4741509e-21
-9.7934631e-22
1.4638623e-21
-1.3819429e-37
-4.844957e-22
9.6551971e-22
-4.810225e-22
-4.7928531e-22
-5.301535e-34
4.758201e-22
9.4819217e-22
-4.7237903e-22
-9.4133862e-22
-9.3793462e-22
5.1887814e-34
4.6559063e-22
-4.6391659e-22
9.2450518e-22
1.3817978e-21
0
-1.3719798e-21
-9.1141558e-22
1.3623037e-21
-5.0248065e-34
-4.5092647e-22
4.4935892e-22
4.4780509e-22
-2.4758419e-34
-8.8947874e-22
2.4602586e-34
8.8346961e-22
-4.886888e-34
-4.8706613e-34
-8.7470064e-22
-1.3077719e-21
8.690322e-22
-4.8096068e-34
-1.4378333e-33
4.3041273e-22
4.2908792e-22
8.5556984e-22
-1.2795136e-21
-4.252472e-22
8.4802582e-22
-8.4560518e-22
-2.3966087e-37
1.2613581e-21
4.1931261e-22
-4.181954e-22
-1.2513045e-21
1.3856861e-33
8.2995795e-22
4.1394942e-22
-8.2587957e-22
-1.2358476e-21
1.2329296e-21
4.1002137e-22
4.5402765e-34
4.0815928e-22
-8.1450083e-22
2.2555769e-34
-4.0547145e-22
4.046008e-22
-1.344874e-33
-1.2086852e-21
1.2061837e-21
1.2037235e-21
0
0
0
-3.9814075e-22
-1.1922793e-21
-3.9674556e-22
-4.3973665e-34
-3.955109e-22
1.1849134e-21
3.9449344e-22
-3.9408613e-22
-3.9375817e-22
-3.9351771e-22
7.867461e-22
-3.9333149e-22
3.9339967e-22
-1.3108084e-33
-7.8776456e-22
1.1829033e-21
7.8967536e-22
0
-7.9248973e-22
-4.408527e-34
3.9807284e-22
-1.19725e-21
-4.001914e-22
4.0141926e-22
0
0
4.0479411e-22
8.1188361e-22
-9.0314697e-34
-8.1530467e-22
-4.0875285e-22
4.0961139e-22
-4.1042646e-22
4.1104877e-22
-1.9359324e-51
-6.8731375e-34
1.2398175e-21
0
0
-8.3044681e-22
-8.3152754e-22
-4.1643201e-22
4.629727e-34
1.2534313e-21
-4.6481427e-34
-8.3871656e-22
0
8.4187835e-22
4.2186239e-22
-8.4539311e-22
4.235095e-22
4.2430669e-22
-1.2752595e-21
4.2585039e-22
-1.4206699e-33
-8.544316e-22
1.2834129e-21
8.5674474e-22
0
0
0
-1.2914284e-21
-8.6199555e-22
1.2945336e-21
8.6419826e-22
0
-8.6676428e-22
4.8198518e-34
4.3496041e-22
-8.7159714e-22
4.3675015e-22
-4.3776345e-22
-4.3871037e-22
1.3191323e-21
-8.8135179e-22
-8.8330073e-22
4.4256963e-22
-4.4339457e-22
8.8842897e-22
1.3350199e-21
0
-1.3391976e-21
-8.942095e-22
4.477211e-22
4.4834237e-22
-4.9841411e-34
4.4950987e-22
-1.4989633e-33
-4.504363e-22
-2.5031513e-34
8.1647002e-53
4.5175955e-22
0
4.5217585e-22
-9.0600983e-22
-1.3567918e-21
1.3584472e-21
1.3616027e-21
0
-9.0992097e-22
-9.0654073e-22
9.0727377e-22
-4.5575494e-22
-4.5640651e-22
1.3697561e-21
-9.1625359e-22
-9.2125396e-22
4.6168668e-22
9.2447731e-22
4.643917e-22
-1.3975616e-21
-4.5567452e-22
-7.6146789e-34
9.4023735e-22
2.4970112e-37
-1.245426e-21
8.352279e-22
1.2553666e-21
4.1868916e-22
-1.2995345e-21
-8.6313543e-22
1.2749227e-21
-9.4867218e-34
-8.3786597e-22
-4.1852955e-22
2.3107151e-34
8.8758227e-22
-4.9082997e-34
4.4039004e-22
4.5492797e-22
-1.2859976e-21
-4.2970397e-22
-4.983968e-34
8.4690951e-22
-1.4031352e-33
-1.2670256e-21
8.2235512e-22
-4.768242e-34
-4.7647975e-34
-9.3696495e-34
-4.1965778e-22
1.2691366e-21
-4.252617e-22
-7.0950938e-34
-1.4227894e-33
-1.2842301e-21
4.2925641e-22
8.6105225e-22
-4.7887937e-34
4.3180817e-22
4.3239348e-22
-8.6655367e-22
-8.6710516e-22
4.8135544e-34
1.2997871e-21
-4.8116649e-34
-4.337277e-22
8.6668037e-22
-4.3236714e-22
-4.318988e-22
2.39666e-34
-2.393448e-34
4.2993365e-22
-8.5760053e-22
4.2824125e-22
-1.4239484e-33
-1.4196633e-33
1.2744121e-21
-8.4724187e-22
1.2008911e-37
8.423606e-22
-4.1961626e-22
-1.2542277e-21
-4.1654916e-22
1.2447509e-21
-4.5867704e-34
-4.1134881e-22
8.1895302e-22
-8.1505766e-22
-2.0260834e-33
4.0338783e-22
-4.0120259e-22
3.989389e-22
-7.9318969e-22
3.9416954e-22
1.1749858e-21
0
0
-7.6726622e-22
-1.0822509e-37
7.5568803e-22
-3.7481311e-22
-1.1150672e-21
-3.6846973e-22
1.0954603e-21
1.0281211e-37
3.9767915e-34
7.0919829e-22
-1.0526135e-21
-1.7337724e-33
3.4308589e-22
-3.390224e-22
-3.3484137e-22
3.6713779e-34
3.2611546e-22
-6.4312793e-22
6.3376589e-22
-1.0393306e-33
-6.1423382e-22
9.0607267e-22
5.9357355e-22
-2.9140065e-22
-8.5758435e-22
-2.8016349e-22
2.7430193e-22
0
-2.62069e-22
2.556844e-22
7.4733756e-22
1.345201e-34
-4.7074832e-22
2.28192e-22
2.2079304e-22
-4.2634417e-22
2.0532289e-22
-1.9724188e-22
-3.778518e-22
5.4110771e-22
-5.71395e-34
3.6086563e-34
3.0637373e-22
-2.8718197e-22
-1.3371253e-22
-1.2354195e-22
-1.2562e-34
1.022827e-22
-1.8234422e-22
1.5944822e-22
2.0377675e-22
0
-4.3217462e-23
1.6802916e-35
4.8051901e-39
-9.4135515e-24
1.1040205e-23
-7.7704026e-23
4.1448204e-23
-8.5536564e-50
-2.2313161e-22
9.2032898e-23
3.3223234e-22
1.3078527e-22
-3.0504241e-22
1.7509692e-22
-1.9241577e-22
6.7618383e-34
4.4822157e-22
-6.8699331e-22
-2.7077981e-34
1.3499383e-33
-6.8851632e-22
6.4019729e-22
3.342517e-34
-3.4293462e-22
8.3073406e-22
4.579357e-22
0
0
-1.0287312e-21
1.2734431e-33
3.2166733e-37
6.3360926e-34
6.3995731e-22
7.0591358e-22
-7.1374216e-22
-7.2372703e-22
1.5659061e-21
-1.7097717e-21
9.8590771e-34
1.8095079e-21
-1.9074553e-21
-3.4310631e-33
1.2037245e-33
-1.1089206e-21
2.3040948e-21
-1.235637e-21
2.9078566e-33
2.6872141e-21
0
-2.9562482e-21
-1.5688377e-21
3.237199e-21
1.6749407e-21
-1.7659238e-21
3.0933103e-33
1.9235178e-21
0
0
-4.4181196e-21
-4.5779638e-21
0
4.943526e-21
2.5738973e-21
-2.6918261e-21
2.8294959e-21
-2.9581978e-21
0
6.3444761e-21
0
0
-3.5929957e-21
4.1746722e-33
3.92204e-21
0
-4.2179857e-21
-2.4368031e-33
4.5697111e-21
0
-9.9206394e-21
-1.0347406e-20
5.3766678e-21
6.1911562e-33
-5.7984108e-21
1.2078316e-20
1.2572725e-20
-1.3069559e-20
-1.9294255e-36
-1.567048e-32
-2.0880249e-36
1.5299914e-20
-7.9518379e-21
9.1628653e-33
-8.5720411e-21
8.9121608e-21
2.780099e-20
-2.8905031e-20
-1.0017817e-20
1.0410262e-20
1.1998836e-32
1.1224506e-20
-2.3324751e-20
-2.4240083e-20
2.518273e-20
4.3545585e-32
1.3579022e-20
1.4104837e-20
-2.9304011e-20
1.5213799e-20
-1.7527191e-32
9.1033367e-33
-1.7024675e-20
-3.5359613e-20
3.6697413e-20
3.8076789e-20
0
-2.0509222e-20
-2.3625596e-32
4.4157877e-20
2.5432617e-32
-7.1317087e-20
-4.9331247e-20
0
5.3085362e-20
6.1104381e-32
2.853809e-20
2.9594658e-20
-9.2089677e-20
1.766581e-32
6.6002091e-20
-3.4206132e-20
-7.0920783e-20
3.6761427e-20
7.6200714e-20
3.9479542e-20
0
-8.4806028e-20
4.3931426e-20
1.3651091e-19
-4.7144158e-20
-4.883438e-20
-1.0116989e-19
-5.2401398e-20
1.085262e-19
5.6180374e-20
5.8169755e-20
-6.6869856e-32
-6.2368219e-20
-6.4560664e-20
-1.3362996e-19
-6.9144111e-20
0
0
0
1.5858372e-19
1.6405333e-19
-1.6969274e-19
-9.7424461e-32
-1.0076368e-31
1.0418522e-31
2.1556518e-31
-2.0075447e-19
0
2.1456588e-19
1.1089656e-19
-1.1462319e-19
1.1846611e-19
1.2242884e-19
0
0
-2.7011017e-19
4.6464691e-31
3.1996495e-31
-2.9768751e-19
3.0744366e-19
3.1748647e-19
0
-3.3846676e-19
1.9391051e-31
3.6071693e-19
-3.7232811e-19
-2.1335297e-31
3.9655226e-19
0
-4.2220329e-19
-2.1779245e-19
4.4934389e-19
-2.3174509e-19
-5.3082955e-31
4.9299701e-19
-5.0837984e-19
-5.2419152e-19
0
0
0
5.9189749e-19
6.1000489e-19
-6.2860345e-19
0
6.6731027e-19
0
3.5406083e-19
-7.2934786e-19
-3.7556862e-19
3.8675138e-19
-7.9645441e-19
-4.0999986e-19
8.4414966e-19
4.3446116e-19
4.964889e-31
-4.6020462e-19
1.0514738e-30
-2.7698395e-34
-1.0026448e-18
0
5.304847e-19
1.0912267e-18
5.611139e-19
0
0
0
6.2700398e-19
-1.288983e-18
-6.6239375e-19
6.8071616e-19
6.9946952e-19
-7.1866692e-19
-7.3831854e-19
1.5168614e-18
0
-1.6001221e-18
-1.6431894e-18
0
0
1.7783186e-18
1.0132338e-30
9.3676359e-19
9.6136531e-19
-9.8651163e-19
1.0122083e-18
-1.0384592e-18
-2.1305396e-18
-1.0926507e-18
0
2.2983645e-18
1.3078166e-30
-1.2081343e-18
1.23853e-18
1.2695497e-18
2.6024085e-18
-2.6670066e-18
-1.3664554e-18
3.9792366e-34
-1.4343543e-18
2.9386388e-18
-1.5049738e-18
1.5413264e-18
-8.6375774e-47
-1.6161511e-18
3.3092661e-18
-3.3876826e-18
-3.4675821e-18
0
1.8159548e-18
3.7163482e-18
-1.055287e-30
-1.9449168e-18
-1.9894633e-18
4.0696108e-18
4.1618972e-18
-2.1278989e-18
-4.3513283e-18
-4.4485077e-18
2.2736769e-18
4.6478769e-18
-2.3750399e-18
2.4269834e-18
-4.1286913e-30
-2.5334393e-18
5.1759547e-18
-5.2867865e-18
-2.9962924e-30
1.5303416e-29
-5.6298241e-18
5.747739e-18
1.3027543e-29
-2.9944932e-18
6.1123274e-18
-3.1187495e-18
9.044522e-34
-1.4417284e-29
-3.312044e-18
6.7566235e-18
-7.650061e-30
1.9498316e-30
-3.5827022e-18
1.0381648e-33
7.4473303e-18
-7.5910836e-18
-2.1989051e-33
1.7505368e-29
-8.0336169e-18
8.1848909e-18
9.2565012e-30
-8.4931004e-18
4.3250201e-18
4.4044204e-18
4.4847382e-18
-4.5659753e-18
5.1601486e-30
9.4625184e-18
0
0
-9.9722441e-18
-1.441801e-33
1.0321114e-17
-5.2491309e-18
5.9251416e-30
-5.4289648e-18
-1.225655e-29
1.1224653e-17
0
5.7990907e-18
-1.1787497e-17
-5.9892648e-18
1.3513656e-29
-6.1827831e-18
1.2561472e-17
-6.379482e-18
7.1908673e-30
1.3158754e-17
0
0
-6.8849085e-18
3.8789639e-30
-7.0921415e-18
7.1968397e-18
2.1906716e-17
-2.2224874e-17
-7.5149644e-18
1.5244511e-17
-7.7301763e-18
-1.3052143e-29
-7.9478548e-18
4.580175e-33
2.7204512e-29
-8.2783849e-18
1.6779148e-17
8.5012767e-18
0
8.7260623e-18
-8.8390544e-18
-8.9524371e-18
-9.0662213e-18
2.0383242e-29
-1.0316069e-29
1.044341e-29
1.904914e-17
-9.6397968e-18
-1.6243391e-29
1.9742014e-17
-1.4192231e-33
-1.0102912e-17
-2.0438121e-17
-2.0670668e-17
2.0903364e-17
1.173812e-29
1.0684319e-17
1.0800586e-17
-2.1833719e-17
2.2066231e-17
1.1149274e-17
-3.3795801e-17