/*--------------------------------*- C++ -*----------------------------------*\
  =========                 |
  \\      /  F ield         | OpenFOAM: The Open Source CFD Toolbox
   \\    /   O peration     | Website:  https://openfoam.org
    \\  /    A nd           | Version:  7
     \\/     M anipulation  |
\*---------------------------------------------------------------------------*/
FoamFile
{
    version     2.0;
    format      ascii;
    class       volScalarField;
    location    "0.00254";
    object      rho;
}
// * * * * * * * * * * * * * * * * * * * * * * * * * * * * * * * * * * * * * //

dimensions      [1 -3 0 0 0 0 0];

internalField   nonuniform List<scalar> 
5000
(
1.3374788
1.3374788
1.3374788
1.3374788
1.3374788
1.3374788
1.3374788
1.3374788
1.3374788
1.3374788
1.3374788
1.3374788
1.3374788
1.3374788
1.3374788
1.3374788
1.3374789
1.3374789
1.3374789
1.3374789
1.3374789
1.3374789
1.3374789
1.3374789
1.3374789
1.3374789
1.3374789
1.3374789
1.3374789
1.3374789
1.3374789
1.3374789
1.3374789
1.3374789
1.3374789
1.3374789
1.3374789
1.3374789
1.3374789
1.3374789
1.3374789
1.3374789
1.3374789
1.3374789
1.3374789
1.3374789
1.3374789
1.3374789
1.337479
1.337479
1.337479
1.337479
1.337479
1.337479
1.337479
1.337479
1.337479
1.337479
1.337479
1.337479
1.337479
1.337479
1.337479
1.337479
1.337479
1.337479
1.337479
1.337479
1.337479
1.337479
1.337479
1.337479
1.337479
1.337479
1.337479
1.337479
1.337479
1.337479
1.337479
1.337479
1.337479
1.337479
1.337479
1.337479
1.337479
1.3374789
1.3374789
1.3374789
1.3374788
1.3374788
1.3374787
1.3374787
1.3374785
1.3374782
1.3374775
1.3374759
1.3374722
1.3374664
1.3374584
1.3374477
1.3374337
1.3374154
1.3373921
1.3373626
1.3373261
1.337282
1.3372301
1.3371706
1.3371044
1.3370326
1.3369569
1.3368792
1.3368016
1.3367258
1.3366536
1.3365865
1.3365252
1.3364706
1.3364228
1.3363817
1.336347
1.3363183
1.3362948
1.3362759
1.3362609
1.3362491
1.3362401
1.3362331
1.3362279
1.336224
1.3362211
1.3362189
1.3362173
1.3362162
1.3362154
1.3362148
1.3362144
1.3362141
1.3362139
1.3362138
1.3362136
1.3362136
1.3362135
1.3362135
1.3362135
1.3362135
1.3362134
1.3362134
1.3362134
1.3362134
1.3362134
1.3362134
1.3362134
1.3362134
1.3362134
1.3362134
1.3362134
1.3362134
1.3362134
1.3362134
1.3362134
1.3362134
1.3362134
1.3362134
1.3362134
1.3362134
1.3362134
1.3362134
1.3362134
1.3362134
1.3362134
1.3362134
1.3362134
1.3362134
1.3362134
1.3362134
1.3362134
1.3362134
1.3362134
1.3362134
1.3362134
1.3362134
1.3362134
1.3362134
1.3362134
1.3362134
1.3362134
1.3362134
1.3362134
1.3362134
1.3362134
1.3362134
1.3362134
1.3362134
1.3362134
1.3362134
1.3362134
1.3362134
1.3362134
1.3362134
1.3362134
1.3362134
1.3362133
1.3362133
1.3362133
1.3362133
1.3362133
1.3362133
1.3362133
1.3362133
1.3362133
1.3362133
1.3362133
1.3362133
1.3362133
1.3362133
1.3362133
1.3362133
1.3362133
1.3362133
1.3362133
1.3362133
1.3362133
1.3362133
1.3362133
1.3362133
1.3362133
1.3362133
1.3362133
1.3362133
1.3362133
1.3362133
1.3362133
1.3362133
1.3362133
1.3362133
1.3362133
1.3362133
1.3362133
1.3362133
1.3362133
1.3362133
1.3362133
1.3362133
1.3362133
1.3362133
1.3362133
1.3362133
1.3362133
1.3362133
1.3362133
1.3362133
1.3362133
1.3362133
1.3362133
1.3362133
1.3362133
1.3362133
1.3362133
1.3362133
1.3362133
1.3362133
1.3362133
1.3362133
1.3362133
1.3362133
1.3362133
1.3362133
1.3362133
1.3362133
1.3362133
1.3362133
1.3362133
1.3362133
1.3362133
1.3362133
1.3362132
1.3362132
1.3362132
1.3362132
1.3362132
1.3362132
1.3362132
1.3362132
1.3362132
1.3362132
1.3362132
1.3362132
1.3362132
1.3362132
1.3362132
1.3362132
1.3362132
1.3362132
1.3362132
1.3362132
1.3362132
1.3362132
1.3362132
1.3362132
1.3362132
1.3362132
1.3362132
1.3362132
1.3362132
1.3362132
1.3362132
1.3362132
1.3362132
1.3362132
1.3362132
1.3362132
1.3362132
1.3362132
1.3362132
1.3362132
1.3362132
1.3362132
1.3362132
1.3362132
1.3362132
1.3362132
1.3362132
1.3362132
1.3362132
1.3362132
1.3362132
1.3362132
1.3362132
1.3362132
1.3362132
1.3362132
1.3362132
1.3362132
1.3362132
1.3362132
1.3362132
1.3362132
1.3362132
1.3362132
1.3362132
1.3362132
1.3362131
1.3362131
1.3362131
1.3362131
1.3362131
1.3362131
1.3362131
1.3362131
1.3362131
1.3362131
1.3362131
1.3362131
1.3362131
1.3362131
1.3362131
1.3362131
1.3362131
1.3362131
1.3362131
1.3362131
1.3362131
1.3362131
1.3362131
1.3362131
1.3362131
1.3362131
1.3362131
1.3362131
1.3362131
1.3362131
1.3362131
1.3362131
1.3362131
1.3362131
1.3362131
1.3362131
1.3362131
1.3362131
1.3362131
1.3362131
1.3362131
1.3362131
1.3362131
1.3362131
1.3362131
1.3362131
1.3362131
1.3362131
1.3362131
1.3362131
1.3362131
1.3362131
1.3362131
1.3362131
1.3362131
1.3362131
1.3362131
1.336213
1.336213
1.336213
1.336213
1.336213
1.336213
1.336213
1.336213
1.336213
1.336213
1.336213
1.336213
1.336213
1.336213
1.336213
1.336213
1.336213
1.336213
1.336213
1.336213
1.336213
1.336213
1.336213
1.336213
1.336213
1.336213
1.336213
1.336213
1.336213
1.336213
1.336213
1.336213
1.336213
1.336213
1.336213
1.336213
1.336213
1.336213
1.336213
1.336213
1.336213
1.336213
1.336213
1.336213
1.336213
1.336213
1.336213
1.336213
1.336213
1.336213
1.336213
1.336213
1.3362129
1.3362129
1.3362129
1.3362129
1.3362129
1.3362129
1.3362129
1.3362129
1.3362129
1.3362129
1.3362129
1.3362129
1.3362129
1.3362129
1.3362129
1.3362129
1.3362129
1.3362129
1.3362129
1.3362129
1.3362129
1.3362129
1.3362129
1.3362129
1.3362129
1.3362129
1.3362129
1.3362129
1.3362129
1.3362129
1.3362129
1.3362129
1.3362129
1.3362129
1.3362129
1.3362129
1.3362129
1.3362129
1.3362129
1.3362129
1.3362129
1.3362129
1.3362129
1.3362129
1.3362129
1.3362129
1.3362129
1.3362129
1.3362129
1.3362129
1.3362129
1.3362128
1.3362128
1.3362128
1.3362128
1.3362128
1.3362128
1.3362128
1.3362128
1.3362128
1.3362128
1.3362128
1.3362128
1.3362128
1.3362128
1.3362128
1.3362128
1.3362128
1.3362128
1.3362128
1.3362128
1.3362128
1.3362128
1.3362128
1.3362128
1.3362128
1.3362128
1.3362128
1.3362128
1.3362128
1.3362128
1.3362128
1.3362128
1.3362128
1.3362128
1.3362128
1.3362128
1.3362128
1.3362127
1.3362127
1.3362127
1.3362127
1.3362127
1.3362127
1.3362127
1.3362127
1.3362127
1.3362127
1.3362127
1.3362127
1.3362127
1.3362127
1.3362127
1.3362127
1.3362127
1.3362127
1.3362127
1.3362127
1.3362127
1.3362127
1.3362127
1.3362127
1.3362127
1.3362127
1.3362127
1.3362127
1.3362127
1.3362127
1.3362127
1.3362127
1.3362127
1.3362127
1.3362127
1.3362127
1.3362127
1.3362127
1.3362127
1.3362127
1.3362127
1.3362126
1.3362126
1.3362126
1.3362126
1.3362126
1.3362126
1.3362126
1.3362126
1.3362126
1.3362126
1.3362126
1.3362126
1.3362126
1.3362126
1.3362126
1.3362126
1.3362126
1.3362126
1.3362126
1.3362126
1.3362126
1.3362126
1.3362126
1.3362126
1.3362126
1.3362126
1.3362126
1.3362126
1.3362126
1.3362126
1.3362126
1.3362126
1.3362126
1.3362126
1.3362126
1.3362126
1.3362126
1.3362125
1.3362125
1.3362125
1.3362125
1.3362125
1.3362125
1.3362125
1.3362125
1.3362125
1.3362125
1.3362125
1.3362125
1.3362125
1.3362125
1.3362125
1.3362125
1.3362125
1.3362125
1.3362125
1.3362125
1.3362125
1.3362125
1.3362125
1.3362125
1.3362125
1.3362125
1.3362125
1.3362125
1.3362125
1.3362125
1.3362125
1.3362125
1.3362125
1.3362125
1.3362125
1.3362125
1.3362125
1.3362125
1.3362124
1.3362124
1.3362124
1.3362124
1.3362124
1.3362124
1.3362124
1.3362124
1.3362124
1.3362124
1.3362124
1.3362124
1.3362124
1.3362124
1.3362124
1.3362124
1.3362124
1.3362124
1.3362124
1.3362124
1.3362124
1.3362124
1.3362124
1.3362124
1.3362124
1.3362124
1.3362124
1.3362124
1.3362124
1.3362124
1.3362124
1.3362124
1.3362124
1.3362124
1.3362123
1.3362123
1.3362123
1.3362123
1.3362123
1.3362123
1.3362123
1.3362123
1.3362123
1.3362123
1.3362123
1.3362123
1.3362123
1.3362123
1.3362123
1.3362123
1.3362123
1.3362123
1.3362123
1.3362123
1.3362123
1.3362123
1.3362123
1.3362123
1.3362123
1.3362123
1.3362123
1.3362123
1.3362123
1.3362123
1.3362123
1.3362123
1.3362123
1.3362122
1.3362122
1.3362122
1.3362122
1.3362122
1.3362122
1.3362122
1.3362122
1.3362122
1.3362122
1.3362122
1.3362122
1.3362122
1.3362122
1.3362122
1.3362122
1.3362122
1.3362122
1.3362122
1.3362122
1.3362122
1.3362122
1.3362122
1.3362122
1.3362122
1.3362122
1.3362122
1.3362122
1.3362122
1.3362122
1.3362122
1.3362122
1.3362122
1.3362121
1.3362121
1.3362121
1.3362121
1.3362121
1.3362121
1.3362121
1.3362121
1.3362121
1.3362121
1.3362121
1.3362121
1.3362121
1.3362121
1.3362121
1.3362121
1.3362121
1.3362121
1.3362121
1.3362121
1.3362121
1.3362121
1.3362121
1.3362121
1.3362121
1.3362121
1.3362121
1.3362121
1.3362121
1.3362121
1.3362121
1.3362121
1.336212
1.336212
1.336212
1.336212
1.336212
1.336212
1.336212
1.336212
1.336212
1.336212
1.336212
1.336212
1.336212
1.336212
1.336212
1.336212
1.336212
1.336212
1.336212
1.336212
1.336212
1.336212
1.336212
1.336212
1.336212
1.336212
1.336212
1.336212
1.3362119
1.3362119
1.3362119
1.3362119
1.3362119
1.3362119
1.3362119
1.3362119
1.3362119
1.3362119
1.3362119
1.3362119
1.3362119
1.3362119
1.3362119
1.3362119
1.3362119
1.3362119
1.3362119
1.3362119
1.3362119
1.3362119
1.3362119
1.3362119
1.3362119
1.3362119
1.3362119
1.3362119
1.3362119
1.3362118
1.3362118
1.3362118
1.3362118
1.3362118
1.3362118
1.3362118
1.3362118
1.3362118
1.3362118
1.3362118
1.3362118
1.3362118
1.3362118
1.3362118
1.3362118
1.3362118
1.3362118
1.3362118
1.3362118
1.3362118
1.3362118
1.3362118
1.3362118
1.3362118
1.3362118
1.3362118
1.3362118
1.3362118
1.3362117
1.3362117
1.3362117
1.3362117
1.3362117
1.3362117
1.3362117
1.3362117
1.3362117
1.3362117
1.3362117
1.3362117
1.3362117
1.3362117
1.3362117
1.3362117
1.3362117
1.3362117
1.3362117
1.3362117
1.3362117
1.3362117
1.3362117
1.3362117
1.3362117
1.3362117
1.3362117
1.3362117
1.3362117
1.3362116
1.3362116
1.3362116
1.3362116
1.3362116
1.3362116
1.3362116
1.3362116
1.3362116
1.3362116
1.3362116
1.3362116
1.3362116
1.3362116
1.3362116
1.3362116
1.3362116
1.3362116
1.3362116
1.3362116
1.3362116
1.3362116
1.3362116
1.3362116
1.3362116
1.3362116
1.3362115
1.3362115
1.3362115
1.3362115
1.3362115
1.3362115
1.3362115
1.3362115
1.3362115
1.3362115
1.3362115
1.3362115
1.3362115
1.3362115
1.3362115
1.3362115
1.3362115
1.3362115
1.3362115
1.3362115
1.3362115
1.3362115
1.3362115
1.3362115
1.3362115
1.3362115
1.3362114
1.3362114
1.3362114
1.3362114
1.3362114
1.3362114
1.3362114
1.3362114
1.3362114
1.3362114
1.3362114
1.3362114
1.3362114
1.3362114
1.3362114
1.3362114
1.3362114
1.3362114
1.3362114
1.3362114
1.3362114
1.3362114
1.3362114
1.3362114
1.3362114
1.3362113
1.3362113
1.3362113
1.3362113
1.3362113
1.3362113
1.3362113
1.3362113
1.3362113
1.3362113
1.3362113
1.3362113
1.3362113
1.3362113
1.3362113
1.3362113
1.3362113
1.3362113
1.3362113
1.3362113
1.3362113
1.3362113
1.3362113
1.3362113
1.3362113
1.3362112
1.3362112
1.3362112
1.3362112
1.3362112
1.3362112
1.3362112
1.3362112
1.3362112
1.3362112
1.3362112
1.3362112
1.3362112
1.3362112
1.3362112
1.3362112
1.3362112
1.3362112
1.3362112
1.3362112
1.3362112
1.3362112
1.3362111
1.3362111
1.3362111
1.3362111
1.3362111
1.3362111
1.3362111
1.3362111
1.3362111
1.3362111
1.3362111
1.3362111
1.3362111
1.3362111
1.3362111
1.3362111
1.3362111
1.3362111
1.3362111
1.3362111
1.3362111
1.3362111
1.336211
1.336211
1.336211
1.336211
1.336211
1.336211
1.336211
1.336211
1.336211
1.336211
1.336211
1.336211
1.336211
1.336211
1.336211
1.336211
1.336211
1.336211
1.336211
1.336211
1.336211
1.3362109
1.3362109
1.3362109
1.3362109
1.3362109
1.3362109
1.3362109
1.3362109
1.3362109
1.3362109
1.3362109
1.3362109
1.3362109
1.3362109
1.3362109
1.3362109
1.3362109
1.3362109
1.3362109
1.3362109
1.3362109
1.3362108
1.3362108
1.3362108
1.3362108
1.3362108
1.3362108
1.3362108
1.3362108
1.3362108
1.3362108
1.3362108
1.3362108
1.3362108
1.3362108
1.3362108
1.3362108
1.3362108
1.3362108
1.3362108
1.3362107
1.3362107
1.3362107
1.3362107
1.3362107
1.3362107
1.3362107
1.3362107
1.3362107
1.3362107
1.3362107
1.3362107
1.3362107
1.3362107
1.3362107
1.3362107
1.3362107
1.3362107
1.3362107
1.3362106
1.3362106
1.3362106
1.3362106
1.3362106
1.3362106
1.3362106
1.3362106
1.3362106
1.3362106
1.3362106
1.3362106
1.3362106
1.3362106
1.3362106
1.3362106
1.3362105
1.3362105
1.3362105
1.3362105
1.3362105
1.3362105
1.3362105
1.3362105
1.3362105
1.3362105
1.3362105
1.3362105
1.3362105
1.3362105
1.3362105
1.3362105
1.3362105
1.3362105
1.3362104
1.3362104
1.3362104
1.3362104
1.3362104
1.3362104
1.3362104
1.3362104
1.3362104
1.3362104
1.3362104
1.3362104
1.3362104
1.3362104
1.3362104
1.3362104
1.3362104
1.3362103
1.3362103
1.3362103
1.3362103
1.3362103
1.3362103
1.3362103
1.3362103
1.3362103
1.3362103
1.3362103
1.3362103
1.3362103
1.3362103
1.3362103
1.3362103
1.3362102
1.3362102
1.3362102
1.3362102
1.3362102
1.3362102
1.3362102
1.3362102
1.3362102
1.3362102
1.3362102
1.3362102
1.3362102
1.3362102
1.3362102
1.3362101
1.3362101
1.3362101
1.3362101
1.3362101
1.3362101
1.3362101
1.3362101
1.3362101
1.3362101
1.3362101
1.3362101
1.3362101
1.3362101
1.33621
1.33621
1.33621
1.33621
1.33621
1.33621
1.33621
1.33621
1.33621
1.33621
1.33621
1.33621
1.33621
1.33621
1.33621
1.3362099
1.3362099
1.3362099
1.3362099
1.3362099
1.3362099
1.3362099
1.3362099
1.3362099
1.3362099
1.3362099
1.3362099
1.3362099
1.3362099
1.3362098
1.3362098
1.3362098
1.3362098
1.3362098
1.3362098
1.3362098
1.3362098
1.3362098
1.3362098
1.3362098
1.3362098
1.3362098
1.3362097
1.3362097
1.3362097
1.3362097
1.3362097
1.3362097
1.3362097
1.3362097
1.3362097
1.3362097
1.3362097
1.3362097
1.3362097
1.3362097
1.3362096
1.3362096
1.3362096
1.3362096
1.3362096
1.3362096
1.3362096
1.3362096
1.3362096
1.3362096
1.3362096
1.3362096
1.3362095
1.3362095
1.3362095
1.3362095
1.3362095
1.3362095
1.3362095
1.3362095
1.3362095
1.3362095
1.3362095
1.3362095
1.3362095
1.3362094
1.3362094
1.3362094
1.3362094
1.3362094
1.3362094
1.3362094
1.3362094
1.3362094
1.3362094
1.3362094
1.3362093
1.3362093
1.3362093
1.3362093
1.3362093
1.3362093
1.3362093
1.3362093
1.3362093
1.3362093
1.3362093
1.3362092
1.3362092
1.3362092
1.3362092
1.3362092
1.3362092
1.3362092
1.3362092
1.3362092
1.3362092
1.3362091
1.3362091
1.3362091
1.3362091
1.3362091
1.3362091
1.3362091
1.3362091
1.3362091
1.3362091
1.336209
1.336209
1.336209
1.336209
1.336209
1.336209
1.336209
1.336209
1.3362089
1.3362089
1.3362089
1.3362089
1.3362089
1.3362089
1.3362089
1.3362089
1.3362089
1.3362088
1.3362088
1.3362088
1.3362088
1.3362088
1.3362088
1.3362088
1.3362087
1.3362087
1.3362087
1.3362087
1.3362087
1.3362087
1.3362087
1.3362086
1.3362086
1.3362086
1.3362086
1.3362086
1.3362086
1.3362086
1.3362085
1.3362085
1.3362085
1.3362085
1.3362085
1.3362084
1.3362084
1.3362084
1.3362084
1.3362084
1.3362083
1.3362083
1.3362083
1.3362083
1.3362082
1.3362082
1.3362082
1.3362082
1.3362082
1.3362081
1.3362081
1.3362081
1.336208
1.336208
1.336208
1.336208
1.3362079
1.3362079
1.3362079
1.3362078
1.3362078
1.3362078
1.3362077
1.3362077
1.3362076
1.3362076
1.3362076
1.3362075
1.3362075
1.3362075
1.3362074
1.3362074
1.3362073
1.3362073
1.3362072
1.3362072
1.3362071
1.3362071
1.336207
1.336207
1.3362069
1.3362069
1.3362068
1.3362067
1.3362067
1.3362066
1.3362065
1.3362065
1.3362064
1.3362063
1.3362063
1.3362062
1.3362061
1.336206
1.3362059
1.3362059
1.3362058
1.3362057
1.3362056
1.3362055
1.3362054
1.3362053
1.3362052
1.3362051
1.336205
1.3362049
1.3362048
1.3362047
1.3362046
1.3362044
1.3362043
1.3362042
1.336204
1.3362039
1.3362038
1.3362036
1.3362035
1.3362033
1.3362032
1.336203
1.3362029
1.3362027
1.3362025
1.3362023
1.3362022
1.336202
1.3362018
1.3362016
1.3362014
1.3362012
1.336201
1.3362008
1.3362005
1.3362003
1.3362001
1.3361998
1.3361996
1.3361993
1.3361991
1.3361988
1.3361986
1.3361983
1.336198
1.3361977
1.3361974
1.3361971
1.3361968
1.3361965
1.3361961
1.3361958
1.3361955
1.3361951
1.3361947
1.3361944
1.336194
1.3361936
1.3361932
1.3361928
1.3361924
1.336192
1.3361915
1.3361911
1.3361906
1.3361902
1.3361897
1.3361892
1.3361887
1.3361882
1.3361876
1.3361871
1.3361866
1.336186
1.3361854
1.3361849
1.3361843
1.3361836
1.336183
1.3361824
1.3361817
1.3361811
1.3361804
1.3361797
1.336179
1.3361783
1.3361775
1.3361768
1.336176
1.3361752
1.3361745
1.3361736
1.3361728
1.336172
1.3361711
1.3361702
1.3361693
1.3361684
1.3361675
1.3361665
1.3361655
1.3361645
1.3361635
1.3361625
1.3361614
1.3361604
1.3361593
1.3361582
1.336157
1.3361559
1.3361547
1.3361535
1.3361523
1.3361511
1.3361498
1.3361485
1.3361472
1.3361459
1.3361446
1.3361432
1.3361418
1.3361404
1.3361389
1.3361374
1.3361359
1.3361344
1.3361329
1.3361313
1.3361297
1.3361281
1.3361264
1.3361247
1.336123
1.3361213
1.3361195
1.3361178
1.3361159
1.3361141
1.3361122
1.3361103
1.3361084
1.3361064
1.3361044
1.3361024
1.3361004
1.3360983
1.3360962
1.336094
1.3360918
1.3360896
1.3360874
1.3360851
1.3360828
1.3360805
1.3360781
1.3360757
1.3360733
1.3360708
1.3360683
1.3360658
1.3360632
1.3360606
1.336058
1.3360553
1.3360526
1.3360498
1.336047
1.3360442
1.3360414
1.3360385
1.3360356
1.3360326
1.3360296
1.3360266
1.3360235
1.3360204
1.3360173
1.3360141
1.3360109
1.3360076
1.3360043
1.336001
1.3359976
1.3359942
1.3359907
1.3359872
1.3359837
1.3359802
1.3359766
1.3359729
1.3359692
1.3359655
1.3359617
1.3359579
1.3359541
1.3359502
1.3359463
1.3359423
1.3359383
1.3359343
1.3359302
1.3359261
1.3359219
1.3359177
1.3359135
1.3359092
1.3359049
1.3359005
1.3358961
1.3358916
1.3358872
1.3358826
1.3358781
1.3358735
1.3358688
1.3358641
1.3358594
1.3358546
1.3358498
1.3358449
1.33584
1.3358351
1.3358301
1.3358251
1.3358201
1.335815
1.3358098
1.3358046
1.3357994
1.3357942
1.3357889
1.3357835
1.3357781
1.3357727
1.3357673
1.3357618
1.3357562
1.3357507
1.335745
1.3357394
1.3357337
1.335728
1.3357222
1.3357164
1.3357105
1.3357047
1.3356987
1.3356928
1.3356868
1.3356807
1.3356747
1.3356686
1.3356624
1.3356562
1.33565
1.3356438
1.3356375
1.3356311
1.3356248
1.3356184
1.3356119
1.3356055
1.335599
1.3355924
1.3355859
1.3355793
1.3355726
1.335566
1.3355593
1.3355525
1.3355457
1.3355389
1.3355321
1.3355253
1.3355184
1.3355114
1.3355045
1.3354975
1.3354905
1.3354834
1.3354764
1.3354693
1.3354621
1.335455
1.3354478
1.3354406
1.3354333
1.335426
1.3354188
1.3354114
1.3354041
1.3353967
1.3353893
1.3353819
1.3353744
1.335367
1.3353595
1.335352
1.3353444
1.3353369
1.3353293
1.3353217
1.335314
1.3353064
1.3352987
1.335291
1.3352833
1.3352756
1.3352678
1.3352601
1.3352523
1.3352445
1.3352367
1.3352288
1.335221
1.3352131
1.3352053
1.3351974
1.3351894
1.3351815
1.3351736
1.3351656
1.3351577
1.3351497
1.3351417
1.3351337
1.3351257
1.3351176
1.3351096
1.3351016
1.3350935
1.3350855
1.3350774
1.3350693
1.3350612
1.3350531
1.335045
1.3350369
1.3350288
1.3350207
1.3350126
1.3350044
1.3349963
1.3349882
1.33498
1.3349719
1.3349637
1.3349556
1.3349474
1.3349393
1.3349311
1.334923
1.3349148
1.3349067
1.3348985
1.3348904
1.3348822
1.3348741
1.334866
1.3348578
1.3348497
1.3348415
1.3348334
1.3348253
1.3348172
1.3348091
1.334801
1.3347929
1.3347848
1.3347767
1.3347686
1.3347605
1.3347525
1.3347444
1.3347363
1.3347283
1.3347203
1.3347123
1.3347043
1.3346963
1.3346883
1.3346803
1.3346723
1.3346644
1.3346564
1.3346485
1.3346406
1.3346327
1.3346248
1.3346169
1.3346091
1.3346012
1.3345934
1.3345856
1.3345778
1.33457
1.3345623
1.3345545
1.3345468
1.3345391
1.3345314
1.3345237
1.334516
1.3345084
1.3345008
1.3344932
1.3344856
1.334478
1.3344705
1.334463
1.3344555
1.334448
1.3344405
1.3344331
1.3344257
1.3344183
1.3344109
1.3344035
1.3343962
1.3343889
1.3343816
1.3343743
1.3343671
1.3343599
1.3343527
1.3343455
1.3343384
1.3343313
1.3343242
1.3343171
1.3343101
1.334303
1.334296
1.3342891
1.3342821
1.3342752
1.3342683
1.3342614
1.3342546
1.3342478
1.334241
1.3342342
1.3342275
1.3342208
1.3342141
1.3342074
1.3342008
1.3341942
1.3341876
1.3341811
1.3341745
1.334168
1.3341616
1.3341551
1.3341487
1.3341423
1.334136
1.3341297
1.3341234
1.3341171
1.3341108
1.3341046
1.3340984
1.3340923
1.3340862
1.3340801
1.334074
1.3340679
1.3340619
1.3340559
1.33405
1.334044
1.3340381
1.3340323
1.3340264
1.3340206
1.3340148
1.3340091
1.3340034
1.3339977
1.333992
1.3339863
1.3339807
1.3339751
1.3339696
1.3339641
1.3339586
1.3339531
1.3339477
1.3339422
1.3339369
1.3339315
1.3339262
1.3339209
1.3339156
1.3339104
1.3339052
1.3339
1.3338948
1.3338897
1.3338846
1.3338795
1.3338745
1.3338695
1.3338645
1.3338595
1.3338546
1.3338497
1.3338449
1.33384
1.3338352
1.3338304
1.3338256
1.3338209
1.3338162
1.3338115
1.3338069
1.3338023
1.3337977
1.3337931
1.3337885
1.333784
1.3337795
1.3337751
1.3337707
1.3337662
1.3337619
1.3337575
1.3337532
1.3337489
1.3337446
1.3337404
1.3337362
1.333732
1.3337278
1.3337237
1.3337195
1.3337155
1.3337114
1.3337074
1.3337034
1.3336994
1.3336954
1.3336915
1.3336876
1.3336837
1.3336798
1.333676
1.3336722
1.3336684
1.3336647
1.3336609
1.3336572
1.3336535
1.3336499
1.3336462
1.3336426
1.3336391
1.3336355
1.333632
1.3336284
1.333625
1.3336215
1.3336181
1.3336146
1.3336113
1.3336079
1.3336045
1.3336012
1.3335979
1.3335947
1.3335914
1.3335882
1.333585
1.3335818
1.3335786
1.3335755
1.3335724
1.3335693
1.3335662
1.3335632
1.3335602
1.3335572
1.3335542
1.3335513
1.3335483
1.3335454
1.3335425
1.3335397
1.3335368
1.333534
1.3335312
1.3335284
1.3335257
1.3335229
1.3335202
1.3335175
1.3335149
1.3335122
1.3335096
1.333507
1.3335044
1.3335018
1.3334993
1.3334968
1.3334943
1.3334918
1.3334893
1.3334869
1.3334845
1.3334821
1.3334797
1.3334773
1.333475
1.3334727
1.3334704
1.3334681
1.3334659
1.3334636
1.3334614
1.3334592
1.333457
1.3334549
1.3334527
1.3334506
1.3334485
1.3334464
1.3334443
1.3334423
1.3334403
1.3334383
1.3334363
1.3334343
1.3334323
1.3334304
1.3334285
1.3334266
1.3334247
1.3334229
1.333421
1.3334192
1.3334174
1.3334156
1.3334138
1.3334121
1.3334103
1.3334086
1.3334069
1.3334052
1.3334036
1.3334019
1.3334003
1.3333987
1.3333971
1.3333955
1.3333939
1.3333924
1.3333908
1.3333893
1.3333878
1.3333863
1.3333849
1.3333834
1.333382
1.3333805
1.3333791
1.3333778
1.3333764
1.333375
1.3333737
1.3333723
1.333371
1.3333697
1.3333685
1.3333672
1.3333659
1.3333647
1.3333635
1.3333623
1.3333611
1.3333599
1.3333587
1.3333575
1.3333564
1.3333553
1.3333542
1.3333531
1.333352
1.3333509
1.3333498
1.3333488
1.3333478
1.3333468
1.3333457
1.3333447
1.3333438
1.3333428
1.3333418
1.3333409
1.33334
1.3333391
1.3333381
1.3333372
1.3333364
1.3333355
1.3333346
1.3333338
1.3333329
1.3333321
1.3333313
1.3333305
1.3333297
1.3333289
1.3333281
1.3333274
1.3333266
1.3333259
1.3333252
1.3333245
1.3333237
1.333323
1.3333224
1.3333217
1.333321
1.3333204
1.3333197
1.3333191
1.3333184
1.3333178
1.3333172
1.3333166
1.333316
1.3333154
1.3333148
1.3333143
1.3333137
1.3333131
1.3333126
1.3333121
1.3333115
1.333311
1.3333105
1.33331
1.3333095
1.333309
1.3333085
1.3333081
1.3333076
1.3333071
1.3333067
1.3333062
1.3333058
1.3333054
1.333305
1.3333045
1.3333041
1.3333037
1.3333033
1.3333029
1.3333026
1.3333022
1.3333018
1.3333015
1.3333011
1.3333007
1.3333004
1.3333001
1.3332997
1.3332994
1.3332991
1.3332987
1.3332984
1.3332981
1.3332978
1.3332975
1.3332972
1.3332969
1.3332967
1.3332964
1.3332961
1.3332958
1.3332956
1.3332953
1.333295
1.3332948
1.3332945
1.3332943
1.3332941
1.3332938
1.3332936
1.3332934
1.3332931
1.3332929
1.3332927
1.3332925
1.3332923
1.3332921
1.3332919
1.3332917
1.3332915
1.3332913
1.3332911
1.3332909
1.3332907
1.3332906
1.3332904
1.3332902
1.3332901
1.3332899
1.3332897
1.3332896
1.3332894
1.3332892
1.3332891
1.3332889
1.3332888
1.3332886
1.3332885
1.3332884
1.3332882
1.3332881
1.3332879
1.3332878
1.3332877
1.3332876
1.3332874
1.3332873
1.3332872
1.3332871
1.3332869
1.3332868
1.3332867
1.3332866
1.3332865
1.3332864
1.3332863
1.3332862
1.3332861
1.333286
1.3332858
1.3332857
1.3332856
1.3332856
1.3332855
1.3332854
1.3332853
1.3332852
1.3332851
1.333285
1.3332849
1.3332848
1.3332847
1.3332846
1.3332846
1.3332845
1.3332844
1.3332843
1.3332842
1.3332842
1.3332841
1.333284
1.3332839
1.3332838
1.3332838
1.3332837
1.3332836
1.3332835
1.3332835
1.3332834
1.3332833
1.3332832
1.3332832
1.3332831
1.333283
1.333283
1.3332829
1.3332828
1.3332828
1.3332827
1.3332827
1.3332826
1.3332825
1.3332825
1.3332824
1.3332823
1.3332823
1.3332822
1.3332821
1.3332821
1.333282
1.3332819
1.3332819
1.3332818
1.3332818
1.3332817
1.3332816
1.3332816
1.3332815
1.3332815
1.3332814
1.3332813
1.3332813
1.3332812
1.3332812
1.3332811
1.333281
1.333281
1.3332809
1.3332809
1.3332808
1.3332808
1.3332807
1.3332806
1.3332806
1.3332805
1.3332805
1.3332804
1.3332804
1.3332803
1.3332802
1.3332802
1.3332801
1.3332801
1.33328
1.3332799
1.3332799
1.3332798
1.3332798
1.3332797
1.3332796
1.3332796
1.3332795
1.3332795
1.3332794
1.3332794
1.3332793
1.3332792
1.3332792
1.3332791
1.3332791
1.333279
1.3332789
1.3332789
1.3332788
1.3332788
1.3332787
1.3332786
1.3332786
1.3332785
1.3332785
1.3332784
1.3332783
1.3332783
1.3332782
1.3332781
1.3332781
1.333278
1.333278
1.3332779
1.3332778
1.3332778
1.3332777
1.3332776
1.3332776
1.3332775
1.3332774
1.3332774
1.3332773
1.3332772
1.3332772
1.3332771
1.333277
1.333277
1.3332769
1.3332768
1.3332768
1.3332767
1.3332766
1.3332766
1.3332765
1.3332764
1.3332764
1.3332763
1.3332762
1.3332762
1.3332761
1.333276
1.333276
1.3332759
1.3332758
1.3332757
1.3332757
1.3332756
1.3332755
1.3332754
1.3332754
1.3332753
1.3332752
1.3332751
1.3332751
1.333275
1.3332749
1.3332748
1.3332748
1.3332747
1.3332746
1.3332745
1.3332745
1.3332744
1.3332743
1.3332742
1.3332741
1.3332741
1.333274
1.3332739
1.3332738
1.3332737
1.3332737
1.3332736
1.3332735
1.3332734
1.3332733
1.3332732
1.3332732
1.3332731
1.333273
1.3332729
1.3332728
1.3332727
1.3332727
1.3332726
1.3332725
1.3332724
1.3332723
1.3332722
1.3332721
1.333272
1.3332719
1.3332719
1.3332718
1.3332717
1.3332716
1.3332715
1.3332714
1.3332713
1.3332712
1.3332711
1.333271
1.3332709
1.3332708
1.3332707
1.3332706
1.3332705
1.3332704
1.3332703
1.3332702
1.3332701
1.33327
1.3332699
1.3332698
1.3332697
1.3332696
1.3332695
1.3332694
1.3332693
1.3332692
1.3332691
1.333269
1.3332689
1.3332688
1.3332687
1.3332686
1.3332685
1.3332683
1.3332682
1.3332681
1.333268
1.3332679
1.3332678
1.3332676
1.3332675
1.3332674
1.3332673
1.3332672
1.3332671
1.3332669
1.3332668
1.3332667
1.3332666
1.3332665
1.3332663
1.3332662
1.3332661
1.333266
1.3332658
1.3332657
1.3332656
1.3332654
1.3332653
1.3332652
1.333265
1.3332649
1.3332648
1.3332646
1.3332645
1.3332644
1.3332642
1.3332641
1.3332639
1.3332638
1.3332636
1.3332635
1.3332634
1.3332632
1.3332631
1.3332629
1.3332628
1.3332626
1.3332625
1.3332623
1.3332622
1.333262
1.3332619
1.3332617
1.3332616
1.3332614
1.3332613
1.3332611
1.3332609
1.3332608
1.3332606
1.3332604
1.3332603
1.3332601
1.3332599
1.3332598
1.3332596
1.3332594
1.3332592
1.333259
1.3332589
1.3332587
1.3332585
1.3332583
1.3332581
1.3332579
1.3332578
1.3332576
1.3332574
1.3332572
1.333257
1.3332568
1.3332566
1.3332564
1.3332562
1.333256
1.3332558
1.3332556
1.3332553
1.3332551
1.3332549
1.3332547
1.3332545
1.3332543
1.333254
1.3332538
1.3332536
1.3332534
1.3332531
1.3332529
1.3332526
1.3332524
1.3332522
1.3332519
1.3332517
1.3332514
1.3332511
1.3332509
1.3332506
1.3332504
1.3332501
1.3332498
1.3332495
1.3332493
1.333249
1.3332487
1.3332484
1.3332482
1.3332479
1.3332476
1.3332473
1.333247
1.3332467
1.3332464
1.3332461
1.3332458
1.3332455
1.3332451
1.3332448
1.3332445
1.3332441
1.3332438
1.3332434
1.3332431
1.3332427
1.3332424
1.333242
1.3332416
1.3332412
1.3332409
1.3332405
1.3332401
1.3332397
1.3332393
1.3332389
1.3332385
1.333238
1.3332376
1.3332372
1.3332367
1.3332363
1.3332358
1.3332354
1.3332349
1.3332344
1.333234
1.3332335
1.333233
1.3332325
1.333232
1.3332315
1.333231
1.3332305
1.33323
1.3332294
1.3332289
1.3332284
1.3332278
1.3332273
1.3332267
1.3332262
1.3332257
1.3332251
1.3332246
1.3332241
1.3332235
1.333223
1.3332225
1.333222
1.3332216
1.3332211
1.3332207
1.3332203
1.3332199
1.3332195
1.3332192
1.3332189
1.3332187
1.3332185
1.3332183
1.3332181
1.333218
1.3332179
1.3332179
1.3332178
1.3332178
1.3332178
1.3332178
1.3332179
1.3332179
1.333218
1.3332181
1.3332181
1.3332182
1.3332182
1.3332182
1.3332182
1.3332182
1.3332181
1.333218
1.3332177
1.3332173
1.3332168
1.3332162
1.3332155
1.3332147
1.3332138
1.3332129
1.3332119
1.3332108
1.3332097
1.3332086
1.3332074
1.3332062
1.333205
1.3332038
1.3332027
1.3332015
1.3332004
1.3331993
1.3331983
1.3331974
1.3331966
1.3331959
1.3331953
1.3331948
1.3331945
1.3331943
1.3331942
1.333194
1.3331936
1.3331928
1.333191
1.3331868
1.3331765
1.3331515
1.3330902
1.3329388
1.3325694
1.3316672
1.3301496
1.3282092
1.3258546
1.3231119
1.3200241
1.316648
1.3130503
1.3093038
1.3054828
1.3016596
1.2979014
1.2942674
1.2908073
1.2875606
1.2845558
1.281811
1.2793349
1.277128
1.2751834
1.273489
1.2720283
1.2707823
1.26973
1.2688502
1.2681216
1.2675241
1.2670386
1.2666478
1.2663362
1.26609
1.2658973
1.265748
1.2656334
1.2655464
1.265481
1.2654326
1.2653971
1.2653716
1.2653536
1.2653412
1.265333
1.2653278
1.2653248
1.2653232
1.2653227
1.2653227
1.265323
1.265324
1.2653259
1.2653278
1.2653296
1.2653313
1.265333
1.2653346
1.2653362
1.2653378
1.2653393
1.2653409
1.2653424
1.265344
1.2653457
1.2653474
1.2653491
1.2653509
1.2653527
1.2653546
1.2653565
1.2653584
1.2653604
1.2653624
1.2653644
1.2653664
1.2653683
1.2653703
1.2653722
1.2653741
1.265376
1.2653778
1.2653795
1.2653812
1.2653828
1.2653843
1.2653857
1.2653871
1.2653885
1.2653897
1.2653909
1.265392
1.2653931
1.2653941
1.2653951
1.265396
1.2653968
1.2653976
1.2653984
1.2653991
1.2653998
1.2654005
1.2654011
1.2654017
1.2654023
1.2654028
1.2654033
1.2654038
1.2654043
1.2654047
1.2654052
1.2654056
1.2654059
1.2654063
1.2654067
1.265407
1.2654073
1.2654076
1.2654079
1.2654081
1.2654084
1.2654086
1.2654088
1.265409
1.2654092
1.2654093
1.2654095
1.2654096
1.2654097
1.2654098
1.2654099
1.2654099
1.26541
1.26541
1.26541
1.26541
1.2654099
1.2654099
1.2654098
1.2654097
1.2654096
1.2654095
1.2654093
1.2654092
1.265409
1.2654087
1.2654085
1.2654083
1.265408
1.2654077
1.2654073
1.265407
1.2654066
1.2654062
1.2654058
1.2654053
1.2654048
1.2654043
1.2654038
1.2654032
1.2654027
1.265402
1.2654014
1.2654007
1.2654
1.2653993
1.2653985
1.2653977
1.2653969
1.265396
1.2653951
1.2653942
1.2653932
1.2653922
1.2653912
1.2653901
1.2653889
1.2653878
1.2653866
1.2653853
1.265384
1.2653827
1.2653813
1.2653799
1.2653784
1.2653769
1.2653754
1.2653737
1.2653721
1.2653704
1.2653686
1.2653668
1.2653649
1.265363
1.265361
1.265359
1.2653569
1.2653547