/*--------------------------------*- C++ -*----------------------------------*\
  =========                 |
  \\      /  F ield         | OpenFOAM: The Open Source CFD Toolbox
   \\    /   O peration     | Website:  https://openfoam.org
    \\  /    A nd           | Version:  7
     \\/     M anipulation  |
\*---------------------------------------------------------------------------*/
FoamFile
{
    version     2.0;
    format      ascii;
    class       volVectorField;
    location    "0.00238";
    object      U;
}
// * * * * * * * * * * * * * * * * * * * * * * * * * * * * * * * * * * * * * //

dimensions      [0 1 -1 0 0 0 0];

internalField   nonuniform List<vector> 
5000
(
(0.075887865 6.2262618e-21 0)
(0.077036269 1.0763481e-20 0)
(0.074060451 0 0)
(0.076976261 0 0)
(0.075595518 -4.3558571e-21 0)
(0.075873257 3.384411e-36 -2.9769594e-21)
(0.075814955 2.9873099e-21 -6.367834e-36)
(0.075826789 0 9.0970349e-21)
(0.075900373 0 3.0832757e-21)
(0.075888494 -3.1176247e-21 -6.2352495e-21)
(0.075870757 -6.2417277e-21 -6.2417277e-21)
(0.075871 3.1114745e-21 3.1114745e-21)
(0.075871296 3.1096735e-21 -2.6514671e-35)
(0.075869387 -3.110872e-21 -2.7409053e-35)
(0.075867051 0 6.2278551e-21)
(0.075865473 -3.1147909e-21 -6.2295818e-21)
(0.075864289 -8.9116758e-52 -4.4558379e-52)
(0.075863151 3.1126784e-21 -2.7424969e-35)
(0.075862043 0 -3.1116104e-21)
(0.075860953 3.1105491e-21 6.2210982e-21)
(0.075859888 -3.1094913e-21 3.1094913e-21)
(0.075858828 -3.1084269e-21 0)
(0.075857772 6.2146996e-21 0)
(0.075856749 -3.1062749e-21 -3.1062749e-21)
(0.075855754 -3.1052128e-21 2.6476637e-35)
(0.075854772 -2.558537e-35 -2.558537e-35)
(0.075853803 3.1030985e-21 -3.1030985e-21)
(0.075852853 3.1020432e-21 3.1020432e-21)
(0.075851922 -6.2019868e-21 3.1009934e-21)
(0.07585101 5.374461e-35 -3.0999514e-21)
(0.075850114 -5.4167026e-35 5.4167026e-35)
(0.07584923 3.0978804e-21 -2.6414117e-35)
(0.075848359 6.193697e-21 -3.0968485e-21)
(0.075847507 -6.1916496e-21 3.0958248e-21)
(0.075846674 5.3655503e-35 3.0948118e-21)
(0.075845856 -2.6907e-34 0)
(0.075845054 -1.0724195e-34 0)
(0.075844266 6.1836784e-21 -3.0918392e-21)
(0.075843488 -6.1817319e-21 -3.090866e-21)
(0.075842725 -6.1798087e-21 3.0899043e-21)
(0.075841979 6.1779207e-21 -5.1798184e-35)
(0.07584125 -2.1239688e-34 -3.0880375e-21)
(0.075840538 -6.1742705e-21 3.0871352e-21)
(0.075839835 3.0862506e-21 -5.2191328e-35)
(0.075839144 9.2561502e-21 -3.0853834e-21)
(0.075838466 -3.0845348e-21 3.0845348e-21)
(0.075837794 -3.0837013e-21 -1.0604932e-34)
(0.075837132 -2.1116641e-34 1.0558321e-34)
(0.075836493 -6.1642096e-21 -1.0599441e-34)
(0.075835869 0 5.254643e-35)
(0.075835251 3.0806293e-21 3.0806293e-21)
(0.075834645 4.376838e-37 0)
(0.07583405 -3.0792479e-21 0)
(0.075833468 6.1571984e-21 0)
(0.075832902 -1.076023e-34 0)
(0.075832347 -6.1547955e-21 0)
(0.075831803 3.0768392e-21 0)
(0.07583127 -1.0623217e-34 0)
(0.075830745 -3.0757872e-21 0)
(0.075830234 0 0)
(0.075829851 3.0699109e-21 0)
(0.075829755 1.0433073e-34 0)
(0.075829873 8.6864727e-37 0)
(0.075829954 3.0580526e-21 -3.0580526e-21)
(0.075830189 -3.0529422e-21 -3.0529422e-21)
(0.075830737 1.0648254e-34 3.0459523e-21)
(0.075830364 3.0460067e-21 -5.2376495e-35)
(0.075829021 -3.0537109e-21 3.6680722e-52)
(0.075828659 -3.0555221e-21 3.0555221e-21)
(0.07582911 3.0529905e-21 0)
(0.075829714 3.0496152e-21 0)
(0.075829713 -3.0472061e-21 -3.0472061e-21)
(0.075828247 -3.053216e-21 -3.053216e-21)
(0.075827044 6.1109791e-21 0)
(0.075827339 3.0531206e-21 3.0531206e-21)
(0.075827708 -3.0513155e-21 1.0536918e-34)
(0.075827213 0 -3.0473188e-21)
(0.075826095 3.0421496e-21 -3.0421496e-21)
(0.075826266 -4.316558e-37 3.0375077e-21)
(0.075827379 -3.0370385e-21 6.074077e-21)
(0.075826959 3.042819e-21 -6.085638e-21)
(0.075825116 -8.6764474e-37 1.7352895e-36)
(0.075824672 8.6737258e-37 9.1553879e-21)
(0.075825721 3.0421711e-21 -6.0843422e-21)
(0.075825225 3.0392447e-21 -3.1615273e-34)
(0.075823568 1.0576245e-34 6.0754049e-21)
(0.075823605 -3.0349187e-21 -9.1047561e-21)
(0.075824138 0 3.0401454e-21)
(0.075823049 -3.0519933e-21 3.0519933e-21)
(0.075822555 -3.1659769e-34 -3.0518606e-21)
(0.075823668 -1.0631762e-34 3.0412346e-21)
(0.07582352 3.0420736e-21 3.0420736e-21)
(0.075821918 3.0531504e-21 1.063003e-34)
(0.075821649 -6.1052084e-21 -6.1052084e-21)
(0.075822399 -2.1084559e-34 -2.1084559e-34)
(0.075821824 3.0527574e-21 -3.0527574e-21)
(0.075821199 0 -3.0527542e-21)
(0.075821793 0 -1.0678726e-34)
(0.07582162 -3.0432994e-21 2.1191464e-34)
(0.075820249 -2.118555e-34 6.1098384e-21)
(0.075820012 6.109164e-21 3.054582e-21)
(0.075820491 -3.0486103e-21 -3.0486103e-21)
(0.075819678 -6.1114428e-21 4.3424413e-37)
(0.075819455 0 3.0560917e-21)
(0.075819927 3.0502678e-21 0)
(0.075819133 3.0575142e-21 -3.0575142e-21)
(0.075818903 -3.0579583e-21 -1.0646769e-34)
(0.075819356 -3.05217e-21 3.05217e-21)
(0.075818585 0 -3.0594905e-21)
(0.075818219 0 -3.0600156e-21)
(0.075819002 3.0488943e-21 6.0977886e-21)
(0.075818912 3.0502274e-21 3.0502274e-21)
(0.075817866 0 -9.1893676e-21)
(0.075817676 -3.0636646e-21 -3.0636646e-21)
(0.075818479 1.067173e-34 9.158003e-21)
(0.07581837 3.0540683e-21 -3.0540683e-21)
(0.075817265 -3.0670258e-21 -3.0670258e-21)
(0.075817043 8.7182973e-37 -1.7436595e-36)
(0.075817763 -1.0684354e-34 -3.0562787e-21)
(0.075817669 6.1895383e-52 9.173327e-21)
(0.075816737 6.1418878e-21 -2.1471243e-34)
(0.075816239 -1.3113322e-36 -6.1517866e-21)
(0.075816263 -3.074858e-21 6.1497159e-21)
(0.075816293 0 3.0741867e-21)
(0.075816401 -3.071449e-21 -3.071449e-21)
(0.075816627 3.0671147e-21 3.0671147e-21)
(0.075816518 3.0676621e-21 -3.0676621e-21)
(0.075815908 -6.1570176e-21 -6.1570176e-21)
(0.075815748 -3.0794099e-21 3.0794099e-21)
(0.075816193 6.1356069e-21 1.0593855e-34)
(0.075816117 3.0692832e-21 3.0692832e-21)
(0.075815515 -3.0833568e-21 6.1667136e-21)
(0.075815384 -3.0841732e-21 -3.0841732e-21)
(0.07581553 -3.0783348e-21 -3.0783348e-21)
(0.07581524 0 -3.0866416e-21)
(0.075815013 3.091631e-21 -1.0764006e-34)
(0.075815082 3.0880799e-21 -1.0707758e-34)
(0.07581519 -3.0834371e-21 1.0735478e-34)
(0.075815177 -1.0689208e-34 6.1654601e-21)
(0.075814905 3.09357e-21 3.09357e-21)
(0.07581481 -3.0951233e-21 -3.0951233e-21)
(0.075814996 -3.0836116e-21 -6.1672233e-21)
(0.075814965 0 -3.0857681e-21)
(0.075814709 3.1012406e-21 -3.1012406e-21)
(0.075814617 3.1029129e-21 2.1518382e-34)
(0.075814685 -3.0939867e-21 6.1879735e-21)
(0.075814641 3.0949774e-21 -8.796455e-37)
(0.075814553 -1.7612535e-36 8.8062675e-37)
(0.075814549 -3.1023198e-21 -2.9682477e-51)
(0.075814554 3.1067411e-21 3.1067411e-21)
(0.075814551 -3.1049239e-21 -2.1532327e-34)
(0.075814558 2.1632494e-34 4.3264987e-34)
(0.075814554 3.1187394e-21 3.1187394e-21)
(0.075814551 -3.1265657e-21 -3.1265657e-21)
(0.075814573 3.1252304e-21 3.1252304e-21)
(0.075814602 3.1269091e-21 1.0842397e-34)
(0.07581464 -3.1341196e-21 -3.1341196e-21)
(0.075814694 0 3.1430251e-21)
(0.075814756 0 -4.4762942e-37)
(0.075814827 -3.1544105e-21 -3.1544105e-21)
(0.075814903 -3.1586967e-21 0)
(0.075814981 3.162514e-21 3.162514e-21)
(0.075815058 3.165189e-21 2.190528e-34)
(0.07581514 -3.1674665e-21 -6.334933e-21)
(0.07581522 -2.1981814e-34 3.169739e-21)
(0.075815304 3.1718771e-21 -9.0150169e-37)
(0.075815389 -3.1738854e-21 -3.1738854e-21)
(0.075815481 -3.175847e-21 3.175847e-21)
(0.075815567 0 -3.1777103e-21)
(0.075815663 3.1796055e-21 3.1796055e-21)
(0.075815743 3.1814947e-21 -1.3256088e-33)
(0.075815833 0 -8.8308221e-34)
(0.075815923 -3.1854791e-21 3.1854791e-21)
(0.075816023 -3.1875101e-21 -6.3750201e-21)
(0.075816125 0 0)
(0.075816234 3.1918684e-21 -2.2135279e-34)
(0.075816348 6.6454683e-34 -6.6454683e-34)
(0.075816466 -3.1966033e-21 3.1966033e-21)
(0.07581659 3.1990221e-21 3.1990221e-21)
(0.075816718 3.2015781e-21 2.2066123e-34)
(0.075816849 -3.2041505e-21 -3.2041505e-21)
(0.075816982 -2.2147348e-34 3.2067511e-21)
(0.075817117 2.2074746e-34 2.2074746e-34)
(0.07581725 1.3694158e-36 1.3694158e-36)
(0.075817366 3.2144748e-21 4.4538424e-34)
(0.07581747 -3.2165449e-21 -6.4330898e-21)
(0.075817577 -4.4643243e-34 3.2187387e-21)
(0.075817682 2.2154484e-34 3.2210398e-21)
(0.07581779 -2.2170955e-34 -2.2170955e-34)
(0.075817898 3.2259157e-21 2.2233864e-34)
(0.075818009 0 -6.7119222e-34)
(0.075818117 0 2.2312663e-34)
(0.075818229 -3.2330521e-21 -3.2330521e-21)
(0.075818343 -3.2354485e-21 0)
(0.07581846 0 0)
(0.075818582 0 0)
(0.075818705 3.2430508e-21 0)
(0.075818836 -1.441562e-52 -3.2456636e-21)
(0.075818968 -3.2485198e-21 6.7722944e-34)
(0.075819106 0 3.251219e-21)
(0.075819249 3.254271e-21 3.254271e-21)
(0.075819392 -3.2572884e-21 -3.2572884e-21)
(0.075819541 -9.0346148e-34 -3.2602795e-21)
(0.07581969 6.5269967e-21 6.5269967e-21)
(0.075819841 -3.2665511e-21 2.2606775e-34)
(0.07581999 -6.7880862e-34 -6.7880862e-34)
(0.07582012 -4.6499727e-37 -3.2721274e-21)
(0.075820235 -3.2745142e-21 -3.2745142e-21)
(0.075820352 3.277071e-21 3.277071e-21)
(0.075820468 -4.6608541e-37 0)
(0.075820588 -4.5435936e-34 3.2826178e-21)
(0.075820707 2.2738487e-34 2.2738487e-34)
(0.075820829 -3.288393e-21 -3.288393e-21)
(0.075820941 0 -3.2908915e-21)
(0.075821057 3.293447e-21 4.5866642e-34)
(0.075821175 2.2811687e-34 3.2961597e-21)
(0.075821287 9.1547133e-34 -6.5970884e-21)
(0.075821407 3.3011458e-21 3.3011458e-21)
(0.075821527 0 3.3039372e-21)
(0.075821654 -3.3067386e-21 -3.3067386e-21)
(0.075821784 -3.309851e-21 3.309851e-21)
(0.075821917 0 0)
(0.075822056 0 0)
(0.075822197 0 0)
(0.07582234 3.3224443e-21 3.3224443e-21)
(0.075822485 2.3016681e-34 -3.3257802e-21)
(0.075822631 -3.3291006e-21 -6.6582012e-21)
(0.075822765 0 3.33206e-21)
(0.075822878 0 -2.3172867e-34)
(0.075822992 3.3373271e-21 3.3373271e-21)
(0.075823109 3.3401875e-21 3.3401875e-21)
(0.075823226 -3.3429572e-21 -6.6859145e-21)
(0.07582335 -3.3459713e-21 9.5098223e-37)
(0.075823471 0 -9.5189019e-37)
(0.075823597 3.3522894e-21 3.3522894e-21)
(0.075823702 3.3552827e-21 3.3552827e-21)
(0.075823812 -3.3582488e-21 -6.7164975e-21)
(0.075823924 -3.3612442e-21 4.7766154e-37)
(0.075824038 0 -7.0085587e-34)
(0.075824158 3.3673441e-21 3.3673441e-21)
(0.075824276 -9.3592738e-34 -1.8718548e-33)
(0.0758244 -2.3396655e-34 -4.679331e-34)
(0.075824527 3.3772724e-21 3.3772724e-21)
(0.075824656 -3.380613e-21 -3.380613e-21)
(0.075824789 -3.3841397e-21 0)
(0.075824922 0 -3.3877572e-21)
(0.075825058 3.3912515e-21 3.3912515e-21)
(0.075825195 -4.7183426e-34 3.3949268e-21)
(0.075825319 3.3984136e-21 -3.3984136e-21)
(0.075825434 4.7177631e-34 0)
(0.075825552 -6.8093058e-21 -3.4046529e-21)
(0.075825672 3.4080344e-21 3.4080344e-21)
(0.075825793 -4.7314576e-34 3.4113394e-21)
(0.075825919 -1.1855715e-33 -1.1855715e-33)
(0.075826042 -2.3659896e-34 -6.8374422e-21)
(0.075826169 -3.4224311e-21 -6.8448622e-21)
(0.075826288 3.4259543e-21 1.0277863e-20)
(0.07582641 3.4292994e-21 6.8585989e-21)
(0.075826536 0 0)
(0.075826656 -3.4364836e-21 -6.8729671e-21)
(0.075826782 -3.440157e-21 -3.440157e-21)
(0.075826909 0 3.4439953e-21)
(0.07582704 3.4477721e-21 3.4477721e-21)
(0.075827173 3.4517944e-21 3.4517944e-21)
(0.075827308 -6.9115523e-21 -6.9115523e-21)
(0.075827446 -3.4597731e-21 -6.9195461e-21)
(0.075827583 3.4639435e-21 3.4639435e-21)
(0.075827722 3.4680088e-21 6.9360176e-21)
(0.075827856 9.6310897e-34 9.6310897e-34)
(0.075827988 -3.4756798e-21 -6.9513596e-21)
(0.07582812 3.4792646e-21 3.4792646e-21)
(0.075828255 -2.4154753e-34 -4.8309506e-34)
(0.075828391 -3.4868729e-21 -3.4868729e-21)
(0.075828531 3.4907489e-21 6.9814979e-21)
(0.075828672 -2.4285723e-34 -3.4947973e-21)
(0.075828816 2.4362949e-34 4.8725897e-34)
(0.075828964 -9.9556602e-37 3.5028365e-21)
(0.0758291 -2.4220054e-34 -3.5068617e-21)
(0.075829242 3.5109008e-21 3.5109008e-21)
(0.075829384 0 -7.030098e-21)
(0.075829529 0 1.4682858e-33)
(0.075829679 -3.523396e-21 7.046792e-21)
(0.075829829 -3.527632e-21 -7.055264e-21)
(0.075829982 0 -2.4443052e-34)
(0.075830137 0 3.5363193e-21)
(0.075830293 0 0)
(0.075830451 0 0)
(0.075830608 3.5493466e-21 3.5493466e-21)
(0.075830765 2.4492112e-34 -3.5535653e-21)
(0.075830923 -7.1153049e-21 -7.1153049e-21)
(0.075831082 1.5185007e-36 3.5618329e-21)
(0.075831244 3.566088e-21 -1.0135432e-36)
(0.075831408 3.5703334e-21 3.5703334e-21)
(0.075831574 -4.963132e-34 3.574712e-21)
(0.075831743 -4.9591757e-34 -3.5791894e-21)
(0.075831913 -5.0926625e-37 0)
(0.075832087 -3.5881778e-21 -3.5881778e-21)
(0.075832257 -3.5926131e-21 -3.5926131e-21)
(0.075832431 -3.5970672e-21 0)
(0.075832607 7.2032782e-21 7.2032782e-21)
(0.075832784 1.0818364e-20 3.6061215e-21)
(0.075832965 -3.6107625e-21 -7.221525e-21)
(0.075833146 -7.2308861e-21 2.5021347e-34)
(0.07583333 0 -1.0288837e-36)
(0.075833515 3.6248217e-21 3.6248217e-21)
(0.075833701 3.629513e-21 3.629513e-21)
(0.075833889 -3.6341623e-21 -3.6341623e-21)
(0.075834079 1.0342301e-36 3.6388735e-21)
(0.075834269 -1.5533225e-36 -3.6435117e-21)
(0.075834462 1.0368746e-36 2.0737492e-36)
(0.075834656 3.6529104e-21 7.3058208e-21)
(0.075834853 3.6576317e-21 -3.6576317e-21)
(0.075835052 -3.6624275e-21 -3.6624275e-21)
(0.075835253 -7.3345366e-21 -3.6672683e-21)
(0.075835457 3.6721121e-21 -5.093144e-34)
(0.075835664 -2.3646996e-52 3.6770015e-21)
(0.075835873 3.6819095e-21 0)
(0.075836084 1.0216666e-33 0)
(0.075836297 -7.3836292e-21 -3.6918146e-21)
(0.075836513 0 5.132633e-34)
(0.075836731 0 -1.0273927e-33)
(0.075836951 7.4137405e-21 -5.1518883e-34)
(0.075837172 -2.0614539e-33 3.7119223e-21)
(0.075837396 -7.4339849e-21 -3.7169924e-21)
(0.075837621 0 5.2893906e-37)
(0.075837847 3.7271374e-21 3.7271374e-21)
(0.075838075 3.7322013e-21 0)
(0.075838305 -3.7372706e-21 0)
(0.075838537 5.3181915e-37 0)
(0.075838772 -5.2029602e-34 0)
(0.075839008 5.3327508e-37 0)
(0.075839247 3.7577629e-21 0)
(0.075839489 -3.7629685e-21 0)
(0.075839733 -3.7682009e-21 -3.7682009e-21)
(0.07583998 0 0)
(0.075840229 3.7787277e-21 3.7787277e-21)
(0.075840481 -5.2537546e-34 0)
(0.075840735 -3.7893646e-21 -3.7893646e-21)
(0.075840992 7.589435e-21 -1.052639e-33)
(0.07584125 -1.0541299e-33 3.8000919e-21)
(0.075841511 -3.8054895e-21 0)
(0.075841774 -1.0582118e-33 0)
(0.075842039 -7.6326476e-21 -3.8163238e-21)
(0.075842306 7.6435034e-21 -5.306122e-34)
(0.075842574 3.8271826e-21 3.8271826e-21)
(0.075842845 -3.8326212e-21 0)
(0.075843118 -5.4542299e-37 0)
(0.075843393 -3.8435479e-21 -3.8435479e-21)
(0.07584367 0 -3.8490565e-21)
(0.07584395 0 3.8546001e-21)
(0.075844233 3.8601769e-21 3.8601769e-21)
(0.075844518 -5.3617602e-34 0)
(0.075844806 -7.7428178e-21 -3.8714089e-21)
(0.075845096 5.5096316e-37 5.5096316e-37)
(0.075845389 1.1648211e-20 3.8827368e-21)
(0.075845684 -3.8884458e-21 -3.8884458e-21)
(0.075845982 -3.8941822e-21 -3.8941822e-21)
(0.075846282 7.7998822e-21 3.8999411e-21)
(0.075846584 -3.9057246e-21 3.9057246e-21)
(0.075846888 3.9115323e-21 0)
(0.075847195 7.8347181e-21 -3.9173591e-21)
(0.075847503 -3.9232015e-21 -3.9232015e-21)
(0.075847814 -3.9290598e-21 3.9290598e-21)
(0.075848127 -3.93494e-21 3.93494e-21)
(0.075848442 3.9408475e-21 0)
(0.07584876 -5.7377318e-52 -3.9467873e-21)
(0.07584908 -3.952766e-21 -3.952766e-21)
(0.075849403 3.9587837e-21 3.9587837e-21)
(0.075849729 -3.9648371e-21 3.9648371e-21)
(0.075850057 3.9709225e-21 0)
(0.075850387 1.1020832e-33 0)
(0.07585072 1.1320882e-36 0)
(0.075851056 3.9893621e-21 0)
(0.075851394 -7.9911609e-21 0)
(0.075851734 4.001832e-21 0)
(0.075852076 1.1129734e-33 0)
(0.075852421 -1.1135855e-33 0)
(0.075852769 -4.020772e-21 -4.020772e-21)
(0.075853118 -8.0542932e-21 4.922149e-51)
(0.07585347 1.2100653e-20 4.0335511e-21)
(0.075853824 1.120676e-33 0)
(0.07585418 -2.2449435e-33 0)
(0.075854539 1.1231269e-33 0)
(0.075854901 -8.1190687e-21 -4.0595344e-21)
(0.075855265 8.1322745e-21 -5.6396487e-34)
(0.075855632 -1.129773e-33 4.072782e-21)
(0.075856001 -8.1589297e-21 -4.0794648e-21)
(0.075856373 0 5.67326e-34)
(0.075856747 0 -5.816419e-37)
(0.075857124 4.0997399e-21 -5.692081e-34)
(0.075857503 -5.6957461e-34 4.106583e-21)
(0.075857884 -4.1134678e-21 -4.1134678e-21)
(0.075858268 -4.1203917e-21 4.1203917e-21)
(0.075858654 4.1273551e-21 -2.2933418e-33)
(0.075859043 1.2403079e-20 -4.1343595e-21)
(0.075859434 -4.1414035e-21 4.1414035e-21)
(0.075859828 -4.1484872e-21 0)
(0.075860224 -1.1810958e-36 0)
(0.075860622 -4.1627796e-21 -4.1627796e-21)
(0.075861023 0 -5.7896195e-34)
(0.075861427 8.3545002e-21 4.1772501e-21)
(0.075861833 8.3690987e-21 -4.1845493e-21)
(0.075862242 -4.1918859e-21 -4.1918859e-21)
(0.075862654 -8.3985042e-21 0)
(0.07586307 -4.2066409e-21 4.2066409e-21)
(0.075863489 8.4280876e-21 4.2140438e-21)
(0.075863912 8.4429068e-21 -4.2214534e-21)
(0.075864341 -8.4577134e-21 -1.1736684e-33)
(0.075864777 -8.4724706e-21 -1.420372e-51)
(0.075865222 0 -5.8917883e-34)
(0.07586568 8.5017679e-21 4.250884e-21)
(0.075866155 -4.2581584e-21 -4.2581584e-21)
(0.075866653 -8.5308512e-21 5.622528e-51)
(0.075867181 4.2727266e-21 -5.9322558e-34)
(0.07586775 4.280122e-21 -4.280122e-21)
(0.075868372 -6.0931895e-37 0)
(0.075869062 5.9639794e-34 0)
(0.075869839 4.3038791e-21 4.3038791e-21)
(0.075870724 -4.3127667e-21 6.1288101e-37)
(0.075871741 -4.3223858e-21 -1.798518e-33)
(0.075872913 4.3328617e-21 4.3328617e-21)
(0.075874259 -6.025425e-34 0)
(0.075875786 -6.1911569e-37 0)
(0.075877494 -6.0608897e-34 -4.3698483e-21)
(0.075879362 -4.3837059e-21 1.215399e-33)
(0.075881361 4.3979247e-21 4.3979247e-21)
(0.075883457 -1.8377714e-33 0)
(0.075885625 -6.1455118e-34 0)
(0.075887846 -1.2323294e-33 0)
(0.07589012 -4.4539652e-21 -4.4539652e-21)
(0.075892449 4.4677444e-21 6.3490467e-37)
(0.075894832 -6.2224067e-34 4.4817088e-21)
(0.075897262 -1.2465055e-33 -4.4959009e-21)
(0.07589972 -6.4093593e-37 4.5101856e-21)
(0.075902174 -9.0485027e-21 -1.2575804e-33)
(0.075904562 -4.5378862e-21 -9.0757725e-21)
(0.075906874 4.5510385e-21 4.5510385e-21)
(0.075909202 9.127834e-21 1.9009634e-33)
(0.0759116 -6.3549654e-34 6.3549654e-34)
(0.075914032 -9.1818846e-21 -6.3740666e-34)
(0.075916347 -4.6044156e-21 -4.6044156e-21)
(0.075918415 9.2339562e-21 0)
(0.075920387 4.628599e-21 0)
(0.075922469 -4.6404541e-21 4.6404541e-21)
(0.075924677 -4.6536334e-21 6.461107e-34)
(0.075926891 -1.2952798e-33 -1.2952798e-33)
(0.075928999 4.6791341e-21 -5.4626125e-52)
(0.075931178 0 -4.6902298e-21)
(0.075933623 0 4.7021794e-21)
(0.075936367 4.716118e-21 4.716118e-21)
(0.075939225 0 0)
(0.075941999 -4.7445909e-21 -4.7445909e-21)
(0.075944771 4.756992e-21 -6.6046101e-34)
(0.075947759 6.7776585e-37 4.7693532e-21)
(0.075951025 -1.3274286e-33 0)
(0.075954389 0 0)
(0.075957592 -4.8102202e-21 -4.8102202e-21)
(0.075960683 4.8226468e-21 1.3706787e-36)
(0.07596391 4.8348051e-21 -5.9367109e-52)
(0.075967359 -9.6947666e-21 -4.8473833e-21)
(0.075970853 -4.8601162e-21 4.8601162e-21)
(0.0759741 4.8724335e-21 -6.7510408e-34)
(0.075977082 0 6.7813872e-34)
(0.075979988 0 -1.3587995e-33)
(0.07598293 -4.9073385e-21 -4.9073385e-21)
(0.075985896 1.3665237e-33 4.9186985e-21)
(0.075988856 4.9299737e-21 -1.3689556e-33)
(0.075991795 0 1.3728103e-33)
(0.075994631 0 -1.3760329e-33)
(0.075997235 -4.9647273e-21 -4.9647273e-21)
(0.075999639 2.0735974e-33 4.9766863e-21)
(0.076002101 4.9887489e-21 -1.3852763e-33)
(0.07600486 0 6.9574932e-34)
(0.076007877 0 0)
(0.076010864 0 -5.0260179e-21)
(0.076013695 0 5.0392856e-21)
(0.076016666 0 -7.0156503e-34)
(0.076020102 0 7.200508e-37)
(0.076023918 0 -7.0542384e-34)
(0.076027638 0 7.0813562e-34)
(0.07603092 1.0220114e-20 5.1100569e-21)
(0.076034008 2.8450074e-33 -5.1254378e-21)
(0.076037242 -5.1409656e-21 -5.1409656e-21)
(0.07604068 5.1564173e-21 5.1564173e-21)
(0.076044009 -5.17192e-21 5.17192e-21)
(0.076046962 5.1876057e-21 0)
(0.076049699 -1.4463506e-33 -5.2033677e-21)
(0.076052445 -5.2191939e-21 -5.2191939e-21)
(0.076055216 -1.4536866e-33 0)
(0.076057846 -5.2510012e-21 5.2510012e-21)
(0.076060265 0 -7.3124801e-34)
(0.076062609 0 7.5071508e-37)
(0.076064976 5.2985525e-21 7.3489833e-34)
(0.076067262 1.4756855e-33 -5.3143365e-21)
(0.076069272 -5.329843e-21 5.329843e-21)
(0.076071003 0 7.4139992e-34)
(0.076072663 0 -1.488812e-33)
(0.07607447 0 -5.37751e-21)
(0.076076417 0 -5.3921858e-21)
(0.076078215 0 1.0812864e-20)
(0.076079722 0 -7.7052332e-37)
(0.076081153 0 7.5449837e-34)
(0.076082862 1.0914465e-20 5.4572326e-21)
(0.076084952 -4.5549927e-33 -5.4716476e-21)
(0.076087053 -1.0970276e-20 7.6155682e-34)
(0.076088861 5.5011552e-21 5.5011552e-21)
(0.076090595 7.8443286e-37 0)
(0.076092625 5.5383831e-21 0)
(0.076095011 -3.0798101e-33 0)
(0.07609737 -1.1138337e-20 -5.5691683e-21)
(0.076099423 -5.5863195e-21 -5.5863195e-21)
(0.076101385 9.687337e-52 5.6055339e-21)
(0.076103552 1.6873449e-20 5.6244832e-21)
(0.07610595 0 0)
(0.07610827 -1.1316056e-20 -5.658028e-21)
(0.07611033 0 -5.6758318e-21)
(0.076112301 0 5.6949783e-21)
(0.076114385 1.1428036e-20 5.7140178e-21)
(0.076116611 -1.5899796e-33 0)
(0.076118798 -1.724753e-20 -5.7491765e-21)
(0.076120846 5.7676252e-21 -5.7676252e-21)
(0.076122868 5.7872586e-21 5.7872586e-21)
(0.076124985 -5.8068056e-21 1.6124344e-33)
(0.076127202 5.8253546e-21 -5.8253546e-21)
(0.076129418 -5.8439171e-21 0)
(0.076131615 -1.6265021e-33 0)
(0.076133851 5.8833317e-21 0)
(0.076136095 -5.9030014e-21 0)
(0.076138248 0 5.9226824e-21)
(0.076140309 -5.9427467e-21 -1.6484935e-33)
(0.076142367 5.9633592e-21 -5.9633592e-21)
(0.0761445 1.1967577e-20 5.9837887e-21)
(0.076146674 -6.0035293e-21 8.3353032e-34)
(0.076148777 -6.0232232e-21 -8.3712056e-34)
(0.076150793 -6.0433552e-21 -9.7916015e-52)
(0.076152785 -6.0637296e-21 6.0637296e-21)
(0.076154793 1.2168185e-20 6.0840925e-21)
(0.076156803 6.1044254e-21 -1.2208851e-20)
(0.076158777 -6.1249439e-21 -8.5038752e-34)
(0.07616072 0 8.5245952e-34)
(0.076162679 6.1686746e-21 -6.1686746e-21)
(0.076164738 -6.192167e-21 0)
(0.076166978 -6.2153376e-21 6.2153376e-21)
(0.076169417 1.8712365e-20 6.2374552e-21)
(0.076171993 1.7789703e-36 -6.2591952e-21)
(0.076174619 -1.2563688e-20 -1.7425577e-33)
(0.07617727 6.3057498e-21 6.3057498e-21)
(0.076179958 8.7889081e-34 0)
(0.076182641 6.3549486e-21 0)
(0.076185264 -1.8134052e-36 -6.3803524e-21)
(0.076187875 -1.2813338e-20 8.8859183e-34)
(0.076190578 6.4329061e-21 6.4329061e-21)
(0.076193336 0 0)
(0.076195953 -1.8003045e-33 -6.4833759e-21)
(0.076198315 -9.2487698e-37 9.2487698e-37)
(0.076200447 -6.5324317e-21 -1.8139263e-33)
(0.076202372 6.5557534e-21 -9.0926951e-34)
(0.076204082 -1.8266379e-33 6.5782097e-21)
(0.076205581 -9.1538185e-34 -6.5998229e-21)
(0.076206904 -9.4085914e-37 9.4085914e-37)
(0.076208088 -6.6433144e-21 -1.8447162e-33)
(0.07620924 6.6709594e-21 -6.6709594e-21)
(0.076210639 -1.3703692e-51 6.7003831e-21)
(0.076212489 -1.8673824e-33 1.8673824e-33)
(0.076214724 -9.5853122e-37 9.5853122e-37)
(0.076217169 -1.3531949e-20 -9.3938825e-34)
(0.0762197 -9.4181115e-34 -6.7903758e-21)
(0.076222276 6.8177873e-21 6.8177873e-21)
(0.076224931 0 0)
(0.076227633 0 -3.8169484e-33)
(0.076230234 -6.9030883e-21 -9.5744415e-34)
(0.076232655 -2.8845231e-33 -2.8845231e-33)
(0.076235046 6.9625554e-21 -9.8943863e-37)
(0.076237567 -6.991946e-21 -6.991946e-21)
(0.076240087 9.7467047e-34 7.0200959e-21)
(0.076242255 -5.2861359e-51 -5.2861359e-51)
(0.07624401 -9.8219671e-34 -9.8219671e-34)
(0.076245483 7.0994855e-21 1.9713859e-33)
(0.076246786 7.1238142e-21 -9.8907072e-34)
(0.076247959 9.9134849e-34 1.4295071e-20)
(0.076248954 -7.1724115e-21 -7.1724115e-21)
(0.076249746 0 -7.2044392e-21)
(0.076250659 0 -1.0056994e-33)
(0.076252272 7.2756677e-21 1.0101541e-33)
(0.07625464 -7.2941006e-21 1.4588201e-20)
(0.076257138 6.0865932e-33 -7.3114701e-21)
(0.076259236 7.3363675e-21 -7.3363675e-21)
(0.076260935 -7.3645746e-21 -1.3532841e-51)
(0.076262357 0 0)
(0.076263593 7.4270125e-21 -1.7913143e-51)
(0.076264974 7.4629731e-21 -7.4629731e-21)
(0.076266826 -7.4926502e-21 7.4926502e-21)
(0.076268879 -7.5156161e-21 -1.0263602e-51)
(0.076270606 0 -1.0460139e-33)
(0.076272024 7.5765188e-21 -1.0766881e-36)
(0.076273624 7.6143226e-21 -7.6143226e-21)
(0.076275735 -1.5290994e-20 1.5290994e-20)
(0.07627797 -7.6712594e-21 2.1301561e-33)
(0.076279798 7.6991868e-21 -7.6991868e-21)
(0.076281265 7.7296873e-21 1.0720917e-33)
(0.076282512 1.0766969e-33 -1.0766969e-33)
(0.076283642 7.8033183e-21 7.8033183e-21)
(0.076285061 2.1789212e-33 -7.8468756e-21)
(0.076287184 -1.5763742e-20 5.2663951e-51)
(0.076289813 0 -3.2950754e-33)
(0.076292339 0 2.2050972e-33)
(0.076294457 0 -2.2124874e-33)
(0.076296285 8.0080415e-21 -2.2236738e-33)
(0.076297916 8.0433593e-21 -1.682763e-51)
(0.076299353 0 0)
(0.076300649 -8.1188393e-21 8.1188393e-21)
(0.076302046 -1.1309935e-33 0)
(0.076303856 8.2027108e-21 0)
(0.076306015 0 -8.2353117e-21)
(0.07630819 0 -2.295959e-33)
(0.076310278 -8.3069041e-21 8.3069041e-21)
(0.076312376 -1.1578573e-33 0)
(0.076314413 1.1623727e-33 0)
(0.076316216 -8.429792e-21 -1.6859584e-20)
(0.076317735 8.4714611e-21 -7.052253e-33)
(0.076319069 -3.5445333e-33 1.7037183e-20)
(0.076320604 -8.568988e-21 -8.568988e-21)
(0.076322735 0 1.2239484e-36)
(0.076325196 -8.6491696e-21 -1.2008511e-33)
(0.07632739 -1.2061396e-33 -8.6872596e-21)
(0.076329183 8.7321882e-21 0)
(0.076330884 -8.7831884e-21 0)
(0.076332881 8.8336953e-21 0)
(0.076335248 8.8779912e-21 -8.8779912e-21)
(0.076337611 -8.9211527e-21 -2.474691e-33)
(0.076339804 0 8.9689451e-21)
(0.076342033 9.0191457e-21 0)
(0.076344279 9.0690637e-21 0)
(0.076346248 -9.118313e-21 -9.118313e-21)
(0.076347812 -9.1708435e-21 1.3032552e-36)
(0.076349238 0 9.2313834e-21)
(0.076351206 -9.2910095e-21 0)
(0.076353977 9.33933e-21 0)
(0.076356796 9.3842651e-21 -9.3842651e-21)
(0.07635901 -9.4350337e-21 -2.6172395e-33)
(0.076360843 -1.8982078e-20 -2.6368215e-33)
(0.076362653 5.3048019e-33 2.6524009e-33)
(0.076364773 2.8841401e-20 9.6138002e-21)
(0.076367338 -2.5099648e-51 -9.6700886e-21)
(0.076370034 -9.7237149e-21 2.6987003e-33)
(0.07637246 -1.9560126e-20 -2.714339e-33)
(0.076374475 5.4585787e-33 2.7292894e-33)
(0.076376156 1.9806086e-20 9.9030431e-21)
(0.07637792 -9.9748172e-21 0)
(0.076380489 1.0043987e-20 0)
(0.076383933 -1.0102893e-20 -1.0102893e-20)
(0.076387345 -1.0160866e-20 7.4023131e-50)
(0.076390013 2.0449201e-20 1.02246e-20)
(0.07639212 0 0)
(0.076394041 0 0)
(0.076396164 -2.0867152e-20 -1.0433576e-20)
(0.076398752 2.4868941e-50 4.9737881e-50)
(0.076401576 2.1133639e-20 1.0566819e-20)
(0.076404259 0 0)
(0.076406773 0 0)
(0.076409343 -2.1562669e-20 -1.0781334e-20)
(0.076412106 2.8272141e-50 5.6544282e-50)
(0.07641496 2.1858861e-20 1.092943e-20)
(0.076417726 0 0)
(0.076420372 0 0)
(0.076422985 -2.2317963e-20 -1.1158982e-20)
(0.076425666 -1.1238938e-20 1.5971491e-36)
(0.076428468 2.2637412e-20 1.1318706e-20)
(0.076431338 1.1398198e-20 -1.1398198e-20)
(0.07643418 0 3.1890866e-33)
(0.07643696 -2.3124136e-20 -3.2121992e-33)
(0.076439754 6.4689009e-33 3.2344505e-33)
(0.076442705 2.3469859e-20 1.1734929e-20)
(0.076445849 -1.1820393e-20 0)
(0.076448999 0 0)
(0.076451941 1.1992963e-20 0)
(0.076454672 -1.2082186e-20 0)
(0.076457357 1.7301846e-36 0)
(0.076460291 1.226998e-20 -1.226998e-20)
(0.076463638 -1.2362514e-20 3.4310674e-33)
(0.076467163 1.2453303e-20 1.2453303e-20)
(0.076470518 1.2545999e-20 0)
(0.076473625 -1.2641131e-20 0)
(0.076476612 -1.2738146e-20 0)
(0.076479629 3.5647066e-33 0)
(0.07648281 1.2937983e-20 0)
(0.076486192 -1.3037894e-20 0)
(0.076489684 -3.6480875e-33 0)
(0.076493172 1.3239329e-20 -1.3239329e-20)
(0.0764966 -1.3342939e-20 7.406345e-33)
(0.076499971 1.3447975e-20 1.3447975e-20)
(0.076503326 1.3554666e-20 0)
(0.07650674 -1.3663049e-20 0)
(0.07651028 -1.3772093e-20 0)
(0.076513932 3.8545404e-33 0)
(0.076517627 1.3991193e-20 0)
(0.076521306 -1.4102752e-20 0)
(0.07652495 2.0201744e-36 0)
(0.076528548 1.4329931e-20 -1.4329931e-20)
(0.07653212 -1.4446156e-20 4.0093572e-33)
(0.076535772 1.4564475e-20 1.4564475e-20)
(0.076539627 1.4683145e-20 0)
(0.076543651 -1.4801289e-20 0)
(0.076547646 -2.9840541e-20 -1.492027e-20)
(0.076551479 8.3576761e-33 4.178838e-33)
(0.076555236 3.033022e-20 1.516511e-20)
(0.076559111 -1.529058e-20 0)
(0.07656323 2.1907385e-36 0)
(0.076567468 3.1081873e-20 0)
(0.076571602 4.4528659e-36 -1.5667129e-20)
(0.076575588 -1.5795873e-20 -4.3884442e-33)
(0.0765796 0 1.5927307e-20)
(0.076583832 1.6059587e-20 0)
(0.076588276 0 0)
(0.076592707 -1.63233e-20 0)
(0.076596962 0 0)
(0.076601128 0 0)
(0.0766054 0 0)
(0.076609917 -1.6871441e-20 0)
(0.0766146 6.6572682e-51 -1.7009947e-20)
(0.076619239 1.7149483e-20 2.4370881e-36)
(0.076623744 0 1.7291146e-20)
(0.076628216 1.7435094e-20 0)
(0.076632811 -4.8817809e-33 0)
(0.076637605 -1.772634e-20 0)
(0.076642502 0 0)
(0.076647364 0 0)
(0.076652172 0 0)
(0.076657031 -1.8320457e-20 0)
(0.076662014 5.1294048e-33 -1.8472353e-20)
(0.076667066 1.8624618e-20 -2.6467174e-36)
(0.076672079 0 1.8777983e-20)
(0.076677037 1.8933256e-20 0)
(0.076682047 5.2983186e-33 0)
(0.076687216 -1.9248605e-20 0)
(0.076692538 0 -1.940711e-20)
(0.076697913 1.9566411e-20 1.0863626e-32)
(0.076703274 -1.9727288e-20 1.9727288e-20)
(0.076708633 1.105162e-32 0)
(0.076714018 2.0053293e-20 -2.0053293e-20)
(0.076719423 -2.0217945e-20 -5.6169943e-33)
(0.076724852 0 2.0384174e-20)
(0.076730372 -2.0552002e-20 0)
(0.076736054 -5.7537043e-33 0)
(0.076741861 2.0889677e-20 -2.0889677e-20)
(0.076747659 0 -2.1059687e-20)
(0.076753366 2.1231256e-20 2.1231256e-20)
(0.076759049 -2.1404714e-20 2.1404714e-20)
(0.076764853 -1.1984512e-32 0)
(0.076770863 2.1755262e-20 0)
(0.076776995 -1.2176561e-32 0)
(0.076783086 -3.1417323e-36 0)
(0.076789069 6.1916411e-33 2.2286343e-20)
(0.076795034 -3.192694e-36 -3.192694e-36)
(0.076801134 -2.264845e-20 -4.5296901e-20)
(0.076807458 0 -2.2830934e-20)
(0.076813931 2.3013767e-20 4.6027535e-20)
(0.076820392 -6.4382327e-33 4.6395325e-20)
(0.07682676 -6.4897061e-33 -2.3383127e-20)
(0.076833105 -9.0657916e-51 -2.3570324e-20)
(0.076839562 -6.5973996e-33 0)
(0.076846213 0 0)
(0.076852993 -4.8276327e-20 0)
(0.076859762 -6.7556722e-33 0)
(0.076866461 2.4521302e-20 -2.4521302e-20)
(0.076873161 -2.471534e-20 -6.8664704e-33)
(0.076879983 6.9136924e-33 2.4910796e-20)
(0.076886984 2.5107009e-20 0)
(0.076894105 2.530382e-20 0)
(0.076901245 7.081329e-33 0)
(0.076908365 -7.1366965e-33 0)
(0.076915505 2.5901865e-20 0)
(0.076922709 -2.6103582e-20 0)
(0.076929976 -2.6306231e-20 0)
(0.076937294 0 0)
(0.076944688 -2.6715528e-20 0)
(0.076952214 7.4757452e-33 0)
(0.076959874 2.7129606e-20 0)
(0.076967584 0 0)