/*--------------------------------*- C++ -*----------------------------------*\
  =========                 |
  \\      /  F ield         | OpenFOAM: The Open Source CFD Toolbox
   \\    /   O peration     | Website:  https://openfoam.org
    \\  /    A nd           | Version:  7
     \\/     M anipulation  |
\*---------------------------------------------------------------------------*/
FoamFile
{
    version     2.0;
    format      ascii;
    class       volScalarField;
    location    "0.0019";
    object      p;
}
// * * * * * * * * * * * * * * * * * * * * * * * * * * * * * * * * * * * * * //

dimensions      [1 -1 -2 0 0 0 0];

internalField   nonuniform List<scalar> 
5000
(
109737.58
109737.58
109737.57
109737.57
109737.57
109737.57
109737.57
109737.57
109737.57
109737.57
109737.57
109737.57
109737.57
109737.57
109737.57
109737.57
109737.57
109737.57
109737.57
109737.57
109737.57
109737.57
109737.57
109737.57
109737.57
109737.57
109737.57
109737.57
109737.57
109737.57
109737.57
109737.57
109737.57
109737.57
109737.57
109737.57
109737.57
109737.57
109737.57
109737.57
109737.57
109737.57
109737.57
109737.57
109737.57
109737.57
109737.57
109737.57
109737.57
109737.57
109737.57
109737.57
109737.57
109737.57
109737.57
109737.57
109737.57
109737.57
109737.57
109737.57
109737.57
109737.57
109737.57
109737.57
109737.57
109737.57
109737.57
109737.57
109737.57
109737.57
109737.57
109737.57
109737.57
109737.57
109737.57
109737.57
109737.58
109737.58
109737.58
109737.58
109737.58
109737.58
109737.58
109737.58
109737.58
109737.58
109737.58
109737.58
109737.58
109737.58
109737.58
109737.58
109737.59
109737.59
109737.59
109737.59
109737.59
109737.59
109737.59
109737.59
109737.59
109737.59
109737.59
109737.59
109737.59
109737.59
109737.59
109737.6
109737.6
109737.6
109737.6
109737.6
109737.6
109737.6
109737.6
109737.6
109737.6
109737.6
109737.6
109737.6
109737.6
109737.61
109737.61
109737.61
109737.61
109737.61
109737.61
109737.61
109737.61
109737.61
109737.61
109737.61
109737.61
109737.61
109737.61
109737.62
109737.62
109737.62
109737.62
109737.62
109737.62
109737.62
109737.62
109737.62
109737.62
109737.62
109737.62
109737.62
109737.62
109737.63
109737.63
109737.63
109737.63
109737.63
109737.63
109737.63
109737.63
109737.63
109737.63
109737.63
109737.63
109737.63
109737.63
109737.63
109737.64
109737.64
109737.64
109737.64
109737.64
109737.64
109737.64
109737.64
109737.64
109737.64
109737.64
109737.64
109737.64
109737.64
109737.64
109737.64
109737.64
109737.64
109737.64
109737.64
109737.64
109737.64
109737.64
109737.65
109737.65
109737.65
109737.65
109737.65
109737.65
109737.65
109737.65
109737.65
109737.65
109737.65
109737.65
109737.64
109737.64
109737.64
109737.64
109737.64
109737.64
109737.64
109737.64
109737.64
109737.64
109737.64
109737.64
109737.64
109737.64
109737.64
109737.64
109737.64
109737.64
109737.64
109737.63
109737.63
109737.63
109737.63
109737.63
109737.63
109737.63
109737.62
109737.62
109737.62
109737.62
109737.62
109737.61
109737.61
109737.61
109737.61
109737.61
109737.6
109737.6
109737.6
109737.59
109737.59
109737.59
109737.58
109737.58
109737.58
109737.57
109737.57
109737.56
109737.56
109737.56
109737.55
109737.55
109737.54
109737.54
109737.53
109737.53
109737.52
109737.52
109737.51
109737.5
109737.49
109737.49
109737.48
109737.47
109737.47
109737.46
109737.45
109737.44
109737.43
109737.43
109737.42
109737.41
109737.4
109737.39
109737.38
109737.37
109737.36
109737.35
109737.34
109737.33
109737.31
109737.3
109737.29
109737.28
109737.26
109737.25
109737.24
109737.23
109737.21
109737.19
109737.18
109737.17
109737.15
109737.13
109737.12
109737.1
109737.08
109737.07
109737.05
109737.03
109737.01
109736.99
109736.97
109736.96
109736.94
109736.92
109736.9
109736.87
109736.85
109736.83
109736.81
109736.78
109736.76
109736.74
109736.71
109736.69
109736.66
109736.63
109736.6
109736.57
109736.55
109736.52
109736.49
109736.45
109736.42
109736.39
109736.35
109736.32
109736.28
109736.24
109736.2
109736.17
109736.13
109736.08
109736.04
109736
109735.95
109735.91
109735.86
109735.81
109735.76
109735.71
109735.66
109735.61
109735.55
109735.5
109735.44
109735.38
109735.32
109735.26
109735.2
109735.13
109735.07
109735
109734.93
109734.86
109734.79
109734.71
109734.64
109734.56
109734.48
109734.4
109734.32
109734.24
109734.15
109734.07
109733.98
109733.89
109733.79
109733.7
109733.6
109733.5
109733.4
109733.3
109733.2
109733.09
109732.98
109732.87
109732.76
109732.64
109732.52
109732.41
109732.28
109732.16
109732.03
109731.9
109731.77
109731.64
109731.5
109731.37
109731.22
109731.08
109730.94
109730.79
109730.64
109730.48
109730.33
109730.17
109730.01
109729.84
109729.68
109729.51
109729.33
109729.16
109728.98
109728.8
109728.62
109728.43
109728.24
109728.05
109727.85
109727.65
109727.45
109727.25
109727.04
109726.83
109726.61
109726.4
109726.18
109725.95
109725.73
109725.5
109725.26
109725.03
109724.79
109724.54
109724.3
109724.05
109723.79
109723.54
109723.28
109723.01
109722.74
109722.47
109722.2
109721.92
109721.64
109721.35
109721.07
109720.77
109720.48
109720.18
109719.87
109719.57
109719.26
109718.94
109718.62
109718.3
109717.98
109717.65
109717.31
109716.98
109716.64
109716.29
109715.94
109715.59
109715.23
109714.87
109714.51
109714.14
109713.77
109713.39
109713.01
109712.63
109712.24
109711.85
109711.45
109711.05
109710.65
109710.24
109709.83
109709.42
109709
109708.57
109708.15
109707.71
109707.28
109706.84
109706.39
109705.95
109705.5
109705.04
109704.58
109704.12
109703.65
109703.18
109702.7
109702.22
109701.74
109701.25
109700.76
109700.26
109699.76
109699.26
109698.75
109698.24
109697.72
109697.21
109696.68
109696.15
109695.62
109695.09
109694.55
109694.01
109693.46
109692.91
109692.36
109691.8
109691.23
109690.67
109690.1
109689.53
109688.95
109688.37
109687.78
109687.2
109686.61
109686.01
109685.41
109684.81
109684.2
109683.59
109682.98
109682.36
109681.74
109681.12
109680.49
109679.86
109679.23
109678.59
109677.95
109677.31
109676.66
109676.01
109675.35
109674.7
109674.04
109673.37
109672.71
109672.04
109671.37
109670.69
109670.01
109669.33
109668.65
109667.96
109667.27
109666.58
109665.88
109665.18
109664.48
109663.78
109663.07
109662.36
109661.65
109660.93
109660.22
109659.5
109658.78
109658.05
109657.33
109656.6
109655.87
109655.13
109654.4
109653.66
109652.92
109652.18
109651.43
109650.69
109649.94
109649.19
109648.44
109647.68
109646.93
109646.17
109645.41
109644.65
109643.89
109643.12
109642.36
109641.59
109640.82
109640.05
109639.28
109638.5
109637.73
109636.95
109636.18
109635.4
109634.62
109633.84
109633.06
109632.27
109631.49
109630.71
109629.92
109629.13
109628.35
109627.56
109626.77
109625.98
109625.19
109624.4
109623.61
109622.82
109622.02
109621.23
109620.44
109619.65
109618.85
109618.06
109617.26
109616.47
109615.68
109614.88
109614.09
109613.29
109612.5
109611.7
109610.91
109610.11
109609.32
109608.53
109607.73
109606.94
109606.15
109605.36
109604.56
109603.77
109602.98
109602.19
109601.4
109600.61
109599.82
109599.04
109598.25
109597.47
109596.68
109595.9
109595.11
109594.33
109593.55
109592.77
109591.99
109591.21
109590.44
109589.66
109588.89
109588.12
109587.35
109586.58
109585.81
109585.04
109584.27
109583.51
109582.75
109581.99
109581.23
109580.47
109579.72
109578.96
109578.21
109577.46
109576.71
109575.96
109575.22
109574.48
109573.74
109573
109572.26
109571.53
109570.79
109570.06
109569.34
109568.61
109567.89
109567.17
109566.45
109565.73
109565.02
109564.3
109563.59
109562.89
109562.18
109561.48
109560.78
109560.08
109559.39
109558.7
109558.01
109557.32
109556.64
109555.96
109555.28
109554.61
109553.93
109553.26
109552.6
109551.93
109551.27
109550.61
109549.96
109549.31
109548.66
109548.01
109547.37
109546.73
109546.09
109545.46
109544.83
109544.2
109543.57
109542.95
109542.34
109541.72
109541.11
109540.5
109539.9
109539.29
109538.69
109538.1
109537.51
109536.92
109536.33
109535.75
109535.17
109534.6
109534.03
109533.46
109532.89
109532.33
109531.77
109531.22
109530.67
109530.12
109529.57
109529.03
109528.5
109527.96
109527.43
109526.9
109526.38
109525.86
109525.35
109524.83
109524.32
109523.82
109523.32
109522.82
109522.32
109521.83
109521.34
109520.86
109520.38
109519.9
109519.43
109518.96
109518.49
109518.03
109517.57
109517.11
109516.66
109516.21
109515.77
109515.33
109514.89
109514.46
109514.02
109513.6
109513.17
109512.75
109512.34
109511.92
109511.52
109511.11
109510.71
109510.31
109509.91
109509.52
109509.13
109508.75
109508.37
109507.99
109507.61
109507.24
109506.87
109506.51
109506.15
109505.79
109505.44
109505.09
109504.74
109504.4
109504.06
109503.72
109503.38
109503.05
109502.73
109502.4
109502.08
109501.76
109501.45
109501.14
109500.83
109500.53
109500.22
109499.93
109499.63
109499.34
109499.05
109498.76
109498.48
109498.2
109497.92
109497.65
109497.38
109497.11
109496.85
109496.58
109496.33
109496.07
109495.82
109495.57
109495.32
109495.07
109494.83
109494.59
109494.36
109494.12
109493.89
109493.67
109493.44
109493.22
109493
109492.78
109492.57
109492.35
109492.15
109491.94
109491.73
109491.53
109491.33
109491.14
109490.94
109490.75
109490.56
109490.37
109490.19
109490.01
109489.83
109489.65
109489.47
109489.3
109489.13
109488.96
109488.8
109488.63
109488.47
109488.31
109488.15
109488
109487.84
109487.69
109487.54
109487.39
109487.25
109487.11
109486.96
109486.82
109486.69
109486.55
109486.42
109486.28
109486.15
109486.03
109485.9
109485.78
109485.65
109485.53
109485.41
109485.29
109485.18
109485.06
109484.95
109484.84
109484.73
109484.62
109484.52
109484.41
109484.31
109484.21
109484.11
109484.01
109483.91
109483.81
109483.72
109483.63
109483.53
109483.44
109483.35
109483.27
109483.18
109483.1
109483.01
109482.93
109482.85
109482.77
109482.69
109482.61
109482.54
109482.46
109482.39
109482.31
109482.24
109482.17
109482.1
109482.03
109481.97
109481.9
109481.83
109481.77
109481.71
109481.65
109481.58
109481.52
109481.46
109481.41
109481.35
109481.29
109481.24
109481.18
109481.13
109481.07
109481.02
109480.97
109480.92
109480.87
109480.82
109480.77
109480.73
109480.68
109480.64
109480.59
109480.55
109480.5
109480.46
109480.42
109480.38
109480.34
109480.3
109480.26
109480.22
109480.18
109480.14
109480.1
109480.07
109480.03
109480
109479.96
109479.93
109479.9
109479.86
109479.83
109479.8
109479.77
109479.74
109479.71
109479.68
109479.65
109479.62
109479.59
109479.57
109479.54
109479.51
109479.49
109479.46
109479.44
109479.41
109479.39
109479.36
109479.34
109479.32
109479.29
109479.27
109479.25
109479.23
109479.21
109479.19
109479.17
109479.15
109479.13
109479.11
109479.09
109479.07
109479.05
109479.03
109479.01
109479
109478.98
109478.96
109478.95
109478.93
109478.92
109478.9
109478.88
109478.87
109478.85
109478.84
109478.83
109478.81
109478.8
109478.79
109478.77
109478.76
109478.75
109478.73
109478.72
109478.71
109478.7
109478.69
109478.68
109478.67
109478.65
109478.64
109478.63
109478.62
109478.61
109478.6
109478.59
109478.58
109478.58
109478.57
109478.56
109478.55
109478.54
109478.53
109478.52
109478.52
109478.51
109478.5
109478.49
109478.48
109478.48
109478.47
109478.46
109478.46
109478.45
109478.44
109478.44
109478.43
109478.43
109478.42
109478.41
109478.41
109478.4
109478.4
109478.39
109478.39
109478.38
109478.38
109478.37
109478.37
109478.36
109478.36
109478.35
109478.35
109478.34
109478.34
109478.34
109478.33
109478.33
109478.32
109478.32
109478.32
109478.31
109478.31
109478.31
109478.3
109478.3
109478.3
109478.29
109478.29
109478.29
109478.29
109478.28
109478.28
109478.28
109478.28
109478.27
109478.27
109478.27
109478.27
109478.26
109478.26
109478.26
109478.26
109478.26
109478.25
109478.25
109478.25
109478.25
109478.25
109478.24
109478.24
109478.24
109478.24
109478.24
109478.24
109478.24
109478.23
109478.23
109478.23
109478.23
109478.23
109478.23
109478.23
109478.23
109478.23
109478.22
109478.22
109478.22
109478.22
109478.22
109478.22
109478.22
109478.22
109478.22
109478.22
109478.22
109478.21
109478.21
109478.21
109478.21
109478.21
109478.21
109478.21
109478.21
109478.21
109478.21
109478.21
109478.21
109478.21
109478.21
109478.21
109478.21
109478.21
109478.21
109478.21
109478.21
109478.21
109478.21
109478.21
109478.2
109478.2
109478.2
109478.2
109478.2
109478.2
109478.2
109478.2
109478.2
109478.2
109478.2
109478.2
109478.2
109478.2
109478.2
109478.2
109478.2
109478.2
109478.2
109478.2
109478.2
109478.2
109478.2
109478.2
109478.2
109478.2
109478.2
109478.2
109478.2
109478.2
109478.2
109478.2
109478.2
109478.2
109478.2
109478.2
109478.2
109478.2
109478.2
109478.2
109478.2
109478.2
109478.2
109478.2
109478.2
109478.2
109478.2
109478.2
109478.2
109478.2
109478.2
109478.2
109478.2
109478.2
109478.2
109478.2
109478.2
109478.2
109478.2
109478.2
109478.21
109478.21
109478.21
109478.21
109478.21
109478.21
109478.21
109478.21
109478.21
109478.21
109478.21
109478.21
109478.21
109478.21
109478.21
109478.21
109478.21
109478.21
109478.21
109478.21
109478.21
109478.21
109478.21
109478.21
109478.21
109478.21
109478.21
109478.21
109478.21
109478.21
109478.21
109478.21
109478.21
109478.21
109478.21
109478.21
109478.21
109478.21
109478.21
109478.21
109478.21
109478.21
109478.21
109478.21
109478.21
109478.21
109478.21
109478.21
109478.21
109478.21
109478.21
109478.21
109478.21
109478.21
109478.21
109478.21
109478.21
109478.21
109478.21
109478.21
109478.21
109478.21
109478.21
109478.21
109478.21
109478.21
109478.21
109478.22
109478.22
109478.22
109478.22
109478.22
109478.22
109478.22
109478.22
109478.22
109478.22
109478.22
109478.22
109478.22
109478.22
109478.22
109478.22
109478.22
109478.22
109478.22
109478.22
109478.22
109478.22
109478.22
109478.22
109478.22
109478.22
109478.22
109478.22
109478.22
109478.22
109478.22
109478.22
109478.22
109478.22
109478.22
109478.22
109478.22
109478.22
109478.22
109478.22
109478.22
109478.22
109478.22
109478.22
109478.22
109478.22
109478.22
109478.22
109478.22
109478.22
109478.22
109478.22
109478.22
109478.22
109478.22
109478.22
109478.22
109478.22
109478.22
109478.22
109478.22
109478.22
109478.22
109478.22
109478.22
109478.22
109478.22
109478.22
109478.22
109478.22
109478.22
109478.22
109478.23
109478.23
109478.23
109478.23
109478.23
109478.23
109478.23
109478.23
109478.23
109478.23
109478.23
109478.23
109478.23
109478.23
109478.23
109478.23
109478.23
109478.23
109478.23
109478.23
109478.23
109478.23
109478.23
109478.23
109478.23
109478.23
109478.23
109478.23
109478.23
109478.23
109478.23
109478.23
109478.23
109478.23
109478.23
109478.23
109478.23
109478.23
109478.23
109478.23
109478.23
109478.23
109478.23
109478.23
109478.23
109478.23
109478.23
109478.23
109478.23
109478.23
109478.23
109478.23
109478.23
109478.23
109478.23
109478.23
109478.23
109478.23
109478.23
109478.23
109478.23
109478.23
109478.23
109478.23
109478.23
109478.23
109478.23
109478.23
109478.23
109478.23
109478.23
109478.23
109478.23
109478.23
109478.23
109478.23
109478.23
109478.23
109478.23
109478.23
109478.23
109478.23
109478.23
109478.23
109478.23
109478.24
109478.24
109478.24
109478.24
109478.24
109478.24
109478.24
109478.24
109478.24
109478.24
109478.24
109478.24
109478.24
109478.24
109478.24
109478.24
109478.24
109478.24
109478.24
109478.24
109478.24
109478.24
109478.24
109478.24
109478.24
109478.24
109478.24
109478.24
109478.24
109478.24
109478.24
109478.24
109478.24
109478.24
109478.24
109478.24
109478.24
109478.24
109478.24
109478.24
109478.24
109478.24
109478.24
109478.24
109478.24
109478.24
109478.24
109478.24
109478.24
109478.24
109478.24
109478.24
109478.24
109478.24
109478.24
109478.24
109478.24
109478.24
109478.24
109478.24
109478.24
109478.24
109478.24
109478.24
109478.24
109478.24
109478.24
109478.24
109478.24
109478.24
109478.24
109478.24
109478.24
109478.24
109478.24
109478.24
109478.24
109478.24
109478.24
109478.24
109478.24
109478.24
109478.24
109478.24
109478.24
109478.24
109478.24
109478.24
109478.24
109478.24
109478.24
109478.24
109478.24
109478.25
109478.25
109478.25
109478.25
109478.25
109478.25
109478.25
109478.25
109478.25
109478.25
109478.25
109478.25
109478.25
109478.25
109478.25
109478.25
109478.25
109478.25
109478.25
109478.25
109478.25
109478.25
109478.25
109478.25
109478.25
109478.25
109478.25
109478.25
109478.25
109478.25
109478.25
109478.25
109478.25
109478.25
109478.25
109478.25
109478.25
109478.25
109478.25
109478.25
109478.25
109478.25
109478.25
109478.25
109478.25
109478.25
109478.25
109478.25
109478.25
109478.25
109478.25
109478.25
109478.25
109478.25
109478.25
109478.25
109478.25
109478.25
109478.25
109478.25
109478.25
109478.25
109478.25
109478.25
109478.25
109478.25
109478.25
109478.25
109478.25
109478.25
109478.25
109478.25
109478.25
109478.25
109478.25
109478.25
109478.25
109478.25
109478.25
109478.25
109478.25
109478.25
109478.25
109478.25
109478.25
109478.25
109478.25
109478.25
109478.25
109478.25
109478.25
109478.25
109478.25
109478.25
109478.25
109478.26
109478.26
109478.26
109478.26
109478.26
109478.26
109478.26
109478.26
109478.26
109478.26
109478.26
109478.26
109478.26
109478.26
109478.26
109478.26
109478.26
109478.26
109478.26
109478.26
109478.26
109478.26
109478.26
109478.26
109478.26
109478.26
109478.26
109478.26
109478.26
109478.26
109478.26
109478.26
109478.26
109478.26
109478.26
109478.26
109478.26
109478.26
109478.26
109478.26
109478.26
109478.26
109478.26
109478.26
109478.26
109478.26
109478.26
109478.26
109478.26
109478.26
109478.26
109478.26
109478.26
109478.26
109478.26
109478.26
109478.26
109478.26
109478.26
109478.26
109478.26
109478.26
109478.26
109478.26
109478.26
109478.26
109478.26
109478.26
109478.26
109478.26
109478.26
109478.26
109478.26
109478.26
109478.26
109478.26
109478.26
109478.26
109478.26
109478.26
109478.26
109478.26
109478.26
109478.26
109478.26
109478.26
109478.26
109478.26
109478.26
109478.26
109478.26
109478.26
109478.26
109478.26
109478.26
109478.26
109478.26
109478.26
109478.26
109478.26
109478.26
109478.26
109478.26
109478.26
109478.26
109478.26
109478.26
109478.26
109478.26
109478.26
109478.26
109478.26
109478.26
109478.26
109478.26
109478.26
109478.26
109478.26
109478.27
109478.27
109478.27
109478.27
109478.27
109478.27
109478.27
109478.27
109478.27
109478.27
109478.27
109478.27
109478.27
109478.27
109478.27
109478.27
109478.27
109478.27
109478.27
109478.27
109478.27
109478.27
109478.27
109478.27
109478.27
109478.27
109478.27
109478.27
109478.27
109478.27
109478.27
109478.27
109478.27
109478.27
109478.27
109478.27
109478.27
109478.27
109478.27
109478.27
109478.27
109478.27
109478.27
109478.27
109478.27
109478.27
109478.27
109478.27
109478.27
109478.27
109478.27
109478.27
109478.27
109478.27
109478.27
109478.27
109478.27
109478.27
109478.27
109478.27
109478.27
109478.27
109478.27
109478.27
109478.27
109478.27
109478.27
109478.27
109478.27
109478.27
109478.27
109478.27
109478.27
109478.27
109478.27
109478.27
109478.27
109478.27
109478.27
109478.27
109478.27
109478.27
109478.27
109478.27
109478.27
109478.27
109478.27
109478.27
109478.27
109478.27
109478.27
109478.27
109478.27
109478.27
109478.27
109478.27
109478.27
109478.27
109478.27
109478.27
109478.27
109478.27
109478.27
109478.27
109478.27
109478.27
109478.27
109478.27
109478.27
109478.27
109478.27
109478.27
109478.27
109478.27
109478.27
109478.27
109478.27
109478.27
109478.27
109478.27
109478.27
109478.27
109478.27
109478.27
109478.27
109478.27
109478.27
109478.27
109478.27
109478.27
109478.27
109478.27
109478.27
109478.27
109478.27
109478.27
109478.27
109478.27
109478.27
109478.27
109478.28
109478.28
109478.28
109478.28
109478.28
109478.28
109478.28
109478.28
109478.28
109478.28
109478.28
109478.28
109478.28
109478.28
109478.28
109478.28
109478.28
109478.28
109478.28
109478.28
109478.28
109478.28
109478.28
109478.28
109478.28
109478.28
109478.28
109478.28
109478.28
109478.28
109478.28
109478.28
109478.28
109478.28
109478.28
109478.28
109478.28
109478.28
109478.28
109478.28
109478.28
109478.28
109478.28
109478.28
109478.28
109478.28
109478.28
109478.28
109478.28
109478.28
109478.28
109478.28
109478.28
109478.28
109478.28
109478.28
109478.28
109478.28
109478.28
109478.28
109478.28
109478.28
109478.28
109478.28
109478.28
109478.28
109478.28
109478.28
109478.28
109478.28
109478.28
109478.28
109478.28
109478.28
109478.28
109478.28
109478.28
109478.28
109478.28
109478.28
109478.28
109478.28
109478.28
109478.28
109478.28
109478.28
109478.28
109478.28
109478.28
109478.28
109478.28
109478.28
109478.28
109478.28
109478.28
109478.28
109478.28
109478.28
109478.28
109478.28
109478.28
109478.28
109478.28
109478.28
109478.28
109478.28
109478.28
109478.28
109478.28
109478.28
109478.28
109478.28
109478.28
109478.28
109478.28
109478.28
109478.28
109478.28
109478.28
109478.28
109478.28
109478.28
109478.28
109478.28
109478.28
109478.28
109478.28
109478.28
109478.28
109478.28
109478.28
109478.28
109478.28
109478.28
109478.28
109478.28
109478.28
109478.28
109478.28
109478.28
109478.28
109478.28
109478.28
109478.28
109478.28
109478.28
109478.28
109478.28
109478.28
109478.28
109478.28
109478.28
109478.28
109478.28
109478.28
109478.28
109478.28
109478.28
109478.28
109478.28
109478.28
109478.28
109478.28
109478.28
109478.29
109478.29
109478.29
109478.29
109478.29
109478.29
109478.29
109478.29
109478.29
109478.29
109478.29
109478.29
109478.29
109478.29
109478.29
109478.29
109478.29
109478.29
109478.29
109478.29
109478.29
109478.29
109478.29
109478.29
109478.29
109478.29
109478.29
109478.29
109478.29
109478.29
109478.29
109478.29
109478.29
109478.29
109478.29
109478.29
109478.29
109478.29
109478.29
109478.29
109478.29
109478.29
109478.29
109478.29
109478.29
109478.29
109478.29
109478.29
109478.29
109478.29
109478.29
109478.29
109478.29
109478.29
109478.29
109478.29
109478.29
109478.29
109478.29
109478.29
109478.29
109478.29
109478.29
109478.29
109478.29
109478.29
109478.29
109478.29
109478.29
109478.29
109478.29
109478.29
109478.29
109478.29
109478.29
109478.29
109478.29
109478.29
109478.29
109478.29
109478.29
109478.29
109478.29
109478.29
109478.29
109478.29
109478.29
109478.29
109478.29
109478.29
109478.29
109478.29
109478.29
109478.29
109478.29
109478.29
109478.29
109478.29
109478.29
109478.29
109478.29
109478.29
109478.29
109478.29
109478.29
109478.29
109478.29
109478.29
109478.29
109478.29
109478.29
109478.29
109478.29
109478.29
109478.29
109478.29
109478.29
109478.29
109478.29
109478.29
109478.29
109478.29
109478.29
109478.29
109478.29
109478.29
109478.29
109478.29
109478.29
109478.29
109478.29
109478.29
109478.29
109478.29
109478.29
109478.29
109478.29
109478.29
109478.29
109478.29
109478.29
109478.29
109478.29
109478.29
109478.29
109478.29
109478.29
109478.29
109478.29
109478.29
109478.29
109478.29
109478.29
109478.29
109478.29
109478.29
109478.29
109478.29
109478.29
109478.29
109478.29
109478.29
109478.29
109478.29
109478.29
109478.29
109478.29
109478.29
109478.29
109478.29
109478.29
109478.29
109478.29
109478.29
109478.29
109478.29
109478.29
109478.29
109478.29
109478.29
109478.29
109478.29
109478.29
109478.29
109478.29
109478.29
109478.29
109478.29
109478.29
109478.29
109478.29
109478.29
109478.29
109478.29
109478.29
109478.29
109478.29
109478.29
109478.29
109478.29
109478.29
109478.29
109478.29
109478.29
109478.29
109478.29
109478.29
109478.29
109478.29
109478.29
109478.29
109478.29
109478.29
109478.29
109478.29
109478.29
109478.29
109478.29
109478.29
109478.29
109478.29
109478.29
109478.29
109478.29
109478.29
109478.29
109478.29
109478.29
109478.29
109478.29
109478.29
109478.29
109478.29
109478.29
109478.29
109478.29
109478.29
109478.29
109478.29
109478.29
109478.29
109478.29
109478.29
109478.29
109478.29
109478.29
109478.29
109478.29
109478.29
109478.29
109478.29
109478.29
109478.29
109478.29
109478.29
109478.29
109478.29
109478.29
109478.29
109478.29
109478.29
109478.29
109478.29
109478.29
109478.29
109478.29
109478.29
109478.29
109478.29
109478.3
109478.3
109478.3
109478.3
109478.3
109478.3
109478.3
109478.3
109478.3
109478.3
109478.3
109478.3
109478.3
109478.3
109478.3
109478.3
109478.3
109478.3
109478.3
109478.3
109478.3
109478.3
109478.3
109478.3
109478.3
109478.3
109478.3
109478.3
109478.3
109478.3
109478.3
109478.3
109478.3
109478.3
109478.3
109478.3
109478.3
109478.3
109478.3
109478.3
109478.3
109478.3
109478.3
109478.3
109478.3
109478.3
109478.3
109478.3
109478.3
109478.3
109478.3
109478.3
109478.3
109478.3
109478.3
109478.3
109478.3
109478.3
109478.3
109478.3
109478.3
109478.3
109478.3
109478.3
109478.3
109478.3
109478.3
109478.3
109478.3
109478.3
109478.3
109478.3
109478.3
109478.3
109478.3
109478.3
109478.3
109478.3
109478.3
109478.3
109478.3
109478.3
109478.3
109478.3
109478.3
109478.3
109478.3
109478.3
109478.3
109478.3
109478.3
109478.3
109478.3
109478.3
109478.3
109478.3
109478.3
109478.3
109478.3
109478.3
109478.3
109478.3
109478.3
109478.3
109478.3
109478.3
109478.3
109478.3
109478.3
109478.3
109478.3
109478.3
109478.3
109478.3
109478.3
109478.3
109478.3
109478.3
109478.3
109478.3
109478.3
109478.3
109478.3
109478.3
109478.3
109478.3
109478.3
109478.3
109478.3
109478.3
109478.3
109478.3
109478.3
109478.3
109478.3
109478.3
109478.3
109478.3
109478.3
109478.3
109478.3
109478.3
109478.3
109478.3
109478.3
109478.3
109478.3
109478.3
109478.3
109478.3
109478.3
109478.3
109478.3
109478.3
109478.3
109478.3
109478.3
109478.3
109478.3
109478.3
109478.3
109478.3
109478.3
109478.3
109478.3
109478.3
109478.3
109478.3
109478.3
109478.3
109478.3
109478.3
109478.3
109478.3
109478.3
109478.3
109478.3
109478.3
109478.3
109478.3
109478.3
109478.3
109478.3
109478.3
109478.3
109478.3
109478.3
109478.3
109478.3
109478.3
109478.3
109478.3
109478.3
109478.3
109478.3
109478.3
109478.3
109478.3
109478.3
109478.3
109478.3
109478.3
109478.3
109478.3
109478.3
109478.3
109478.3
109478.3
109478.3
109478.3
109478.3
109478.3
109478.3
109478.3
109478.3
109478.3
109478.3
109478.3
109478.3
109478.3
109478.3
109478.3
109478.3
109478.3
109478.3
109478.3
109478.3
109478.3
109478.3
109478.3
109478.3
109478.3
109478.3
109478.3
109478.3
109478.3
109478.3
109478.3
109478.3
109478.3
109478.3
109478.3
109478.3
109478.3
109478.3
109478.3
109478.3
109478.3
109478.3
109478.3
109478.3
109478.3
109478.3
109478.3
109478.3
109478.3
109478.3
109478.3
109478.3
109478.3
109478.3
109478.3
109478.3
109478.3
109478.3
109478.3
109478.3
109478.3
109478.3
109478.3
109478.3
109478.3
109478.3
109478.3
109478.3
109478.3
109478.3
109478.3
109478.3
109478.3
109478.3
109478.3
109478.3
109478.3
109478.3
109478.3
109478.3
109478.3
109478.3
109478.3
109478.3
109478.3
109478.3
109478.3
109478.3
109478.3
109478.3
109478.3
109478.3
109478.3
109478.3
109478.3
109478.3
109478.3
109478.3
109478.3
109478.3
109478.3
109478.3
109478.3
109478.3
109478.3
109478.3
109478.3
109478.3
109478.3
109478.3
109478.3
109478.3
109478.3
109478.3
109478.3
109478.3
109478.3
109478.3
109478.3
109478.3
109478.3
109478.3
109478.3
109478.3
109478.3
109478.3
109478.3
109478.3
109478.3
109478.3
109478.3
109478.3
109478.3
109478.3
109478.3
109478.3
109478.3
109478.3
109478.3
109478.3
109478.3
109478.3
109478.3
109478.3
109478.3
109478.3
109478.3
109478.3
109478.3
109478.3
109478.3
109478.3
109478.3
109478.3
109478.3
109478.3
109478.3
109478.3
109478.3
109478.3
109478.3
109478.3
109478.3
109478.3
109478.3
109478.3
109478.3
109478.3
109478.3
109478.3
109478.3
109478.3
109478.3
109478.3
109478.31
109478.31
109478.32
109478.32
109478.34
109478.26
109478.28
109478.29
109478.29
109478.3
109478.3
109478.3
109478.3
109478.3
109478.3
109478.3
109478.3
109478.3
109478.3
109478.3
109478.3
109478.3
109478.3
109478.3
109478.3
109478.3
109478.3
109478.3
109478.3
109478.3
109478.3
109478.3
109478.3
109478.3
109478.3
109478.3
109478.3
109478.3
109478.3
109478.3
109478.3
109478.3
109478.3
109478.3
109478.3
109478.3
109478.3
109478.3
109478.3
109478.3
109478.3
109478.3
109478.3
109478.3
109478.3
109478.3
109478.3
109478.3
109478.3
109478.3
109478.3
109478.3
109478.3
109478.3
109478.3
109478.3
109478.3
109478.3
109478.3
109478.3
109478.3
109478.3
109478.3
109478.3
109478.3
109478.3
109478.3
109478.3
109478.3
109478.3
109478.3
109478.3
109478.3
109478.3
109478.3
109478.3
109478.3
109478.3
109478.3
109478.3
109478.3
109478.3
109478.3
109478.3
109478.3
109478.3
109478.3
109478.3
109478.3
109478.3
109478.3
109478.3
109478.3
109478.3
109478.3
109478.3
109478.3
109478.3
109478.3
109478.3
109478.3
109478.3
109478.3
109478.3
109478.3
109478.3
109478.3
109478.3
109478.3
109478.3
109478.3
109478.3
109478.3
109478.3
109478.3
109478.3
109478.3
109478.3
109478.3
109478.3
109478.3
109478.3
109478.3
109478.3
109478.3
109478.3
109478.3
109478.3
109478.3
109478.3
109478.3
109478.3
109478.3
109478.3
109478.3
109478.3
109478.3
109478.3
109478.3
109478.3
109478.3
109478.3
109478.3
109478.3
109478.3
109478.3
109478.3
109478.3
109478.3
109478.3
109478.3
109478.3
109478.3
109478.3
109478.3
109478.3
109478.3
109478.3
109478.3
109478.3
109478.3
109478.3
109478.3
109478.3
109478.3
109478.3
109478.3
109478.3
109478.3
109478.3
109478.3
109478.3
109478.3
109478.3
109478.3
109478.3
109478.3
109478.3
109478.3
109478.3
109478.3
109478.3
109478.3
109478.3
109478.3
109478.3
109478.3
109478.3
109478.3
109478.3
109478.3
109478.3
109478.3
109478.3
109478.3
109478.3
109478.3
109478.3
109478.3
109478.3
109478.3
109478.3
109478.3
109478.3
109478.3
109478.3
109478.3
109478.3
109478.3
109478.3
109478.3
109478.3
109478.3
109478.3
109478.3
109478.3
109478.3
109478.3
109478.3
109478.3
109478.3
109478.3
109478.3
109478.3
109478.3
109478.3
109478.3
109478.3
109478.3
109478.3
109478.3
109478.3
109478.3
109478.3
109478.3
109478.3
109478.3
109478.3
109478.3
109478.3
109478.3
109478.3
109478.3
109478.3
109478.3
109478.3
109478.3
109478.3
109478.3
109478.3
109478.3
109478.3
109478.3
109478.3
109478.3
109478.3
109478.3
109478.3
109478.3
109478.3
109478.3
109478.3
109478.3
109478.3
109478.3
109478.3
109478.3
109478.3
109478.3
109478.3
109478.3
109478.3
109478.3
109478.3
109478.3
109478.3
109478.3
109478.3
109478.3
109478.3
109478.3
109478.3
109478.3
109478.3
109478.3
109478.3
109478.3
109478.3
109478.3
109478.3
109478.3
109478.3
109478.3
109478.3
109478.3
109478.3
109478.3
109478.3
109478.3
109478.3
109478.3
109478.3
109478.3
109478.3
109478.3
109478.3
109478.3
109478.3
109478.3
109478.3
109478.3
109478.3