/*--------------------------------*- C++ -*----------------------------------*\
  =========                 |
  \\      /  F ield         | OpenFOAM: The Open Source CFD Toolbox
   \\    /   O peration     | Website:  https://openfoam.org
    \\  /    A nd           | Version:  7
     \\/     M anipulation  |
\*---------------------------------------------------------------------------*/
FoamFile
{
    version     2.0;
    format      ascii;
    class       volScalarField;
    location    "0.00069";
    object      T;
}
// * * * * * * * * * * * * * * * * * * * * * * * * * * * * * * * * * * * * * //

dimensions      [0 0 0 1 0 0 0];

internalField   nonuniform List<scalar> 
5000
(
293
293
293
293
293
293
293
293
293
293
293
293
293
293
293
293
293
293
293
293
293
293
293
293
293
293
293
293
293
293
293
293
293
293
293
293
293
293
293
293
293
293
293
293
293
293
293
293
293
293
293
293
293
293
293
293
293
293
293
293
293
293
293
293
293
293
293
293
293
293
293
293
293
293
293
293
293
293
293
293
293
293
293
293
293
293
293
293
293
293
293
293
293
293
293
293
293
293
293
293
293
293
293
293
293
293
293
293
293
293
293
293
293
293
293
293
293
293
293
293
293
293
293
293
293
293
293
293
293
293
293
293
293
293
293
293
293
293
293
293
293
293
293
293
293
293
293
293
293
293
293
293
293
293
293
293
293
293
293
293
293
293
293
293
293
293
293
293
293
293
293
293
293
293
293
293
293
293
293
293
293
293
293
293
293
293
293
293
293
293
293
293
293
293
293
293
293
293
293
293
293
293
293
293
293
293
293
293
293
293
293
293
293
293
293
293
293
293
293
293
293
293
293
293
293
293
293
293
293
293
293
293
293
293
293
293
293
293
293
293
293
293
293
293
293
293
293
293
293
293
293
293
293
293
293
293
293
293
293
293
293
293
293
293
293
293
293
293
293
293
293
293
293
293
293
293
293
293
293
293
293
293
293
293
293
293
293
293
293
293
293
293
293
293
293
293
293
293
293
293
293
293
293
293
293
293
293
293
293
293
293
293
293
293
293
293
293
293
293
293
293
293
293
293
293
293
293
293
293
293
293
293
293
293
293
293
293
293
293
293
293
293
293
293
293
293
293
293
293
293
293
293
293
293
293
293
293
293
293
293
293
293
293
293
293
293
293
293
293
293
293
293
293
293
293
293
293
293
293
293
293
293
293
293
293
293
293
293
293
293
293
293
293
293
293
293
293
293
293
293
293
293
293
293
293
293
293
293
293
293
293
293
293
293
293
293
293
293
293
293
293
293
293
293
293
293
293
293
293
293
293
293
293
293
293
293
293
293
293
293
293
293
293
293
293
293
293
293
293
293
293
293
293
293
293
293
293
293
293
293
293
293
293
293
293
293
293
293
293
293
293
293
293
293
293
293
293
293
293
293
293
293
293
293
293
293
293
293
293
293
293
293
293
293
293
293
293
293
293
293
293
293
293
293
293
293
293
293
293
293
293
293
293
293
293
293
293
293
293
293
293
293
293
293
293
293
293
293
293
293
293
293
293
293
293
293
293
293
293
293
293
293
293
293
293
293
293
293
293
293
293
293
293
293
293
293
293
293
293
293
293
293
293
293
293
293
293
293
293
293
293
293
293
293
293
293
293
293
293
293
293
293
293
293
293
293
293
293
293
293
293
293
293
293
293
293
293
293
293
293
293
293
293
293
293
293
293
293
293
293
293
293
293
293
293
293
293
293
293
293
293
293
293
293
293
293
293
293
293
293
293
293
293
293
293
293
293
293
293
293
293
293
293
293
293
293
293
293
293
293
293
293
293
293
293
293
293
293
293
293
293
293
293
293
293
293
293
293
293
293
293
293
293
293
293
293
293
293
293
293
293
293
293
293
293
293
293
293
293
293
293
293
293
293
293
293
293
293
293
293
293
293
293
293
293
293
293
293
293
293
293
293
293
293
293
293
293
293
293
293
293
293
293
293
293
293
293
293
293
293
293
293
293
293
293
293
293
293
293
293
293
293
293
293
293
293
293
293
293
293
293
293
293
293
293
293
293
293
293
293
293
293
293
293
293
293
293
293
293
293
293
293
293
293
293
293
293
293
293
293
293
293
293
293
293
293
293
293
293
293
293
293
293
293
293
293
293
293
293
293
293
293
293
293
293
293
293
293
293
293
293
293
293
293
293
293
293
293
293
293
293
293
293
293
293
293
293
293
293
293
293
293
293
293
293
293
293
293
293
293
293
293
293
293
293
293
293
293
293
293
293
293
293
293
293
293
293
293
293
293
293
293
293
293
293
293
293
293
293
293
293
293
293
293
293
293
293
293
293
293
293
293
293
293
293
293
293
293
293
293
293
293
293
293
293
293
293
293
293
293
293
293
293
293
293
293
293
293
293
293
293
293
293
293
293
293
293
293
293
293
293
293
293
293
293
293
293
293
293
293
293
293
293
293
293
293
293
293
293
293
293
293
293
293
293
293
293
293
293
293
293
293
293
293
293
293
293
293
293
293
293
293
293
293
293
293
293
293
293
293
293
293
293
293
293
293
293
293
293
293
293
293
293
293
293
293
293
293
293
293
293
293
293
293
293
293
293
293
293
293
293
293
293
293
293
293
293
293
293
293
293
293
293
293
293
293
293
293
293
293
293
293
293
293
293
293
293
293
293
293
293
293
293
293
293
293
293
293
293
293
293
293
293
293
293
292.99999
292.99999
292.99999
292.99999
292.99999
292.99999
292.99999
292.99999
292.99999
292.99999
292.99999
292.99999
292.99999
292.99999
292.99998
292.99998
292.99998
292.99998
292.99998
292.99998
292.99997
292.99997
292.99997
292.99997
292.99997
292.99996
292.99996
292.99996
292.99995
292.99995
292.99995
292.99994
292.99994
292.99993
292.99993
292.99992
292.99992
292.99991
292.99991
292.9999
292.99989
292.99988
292.99987
292.99986
292.99985
292.99984
292.99983
292.99982
292.99981
292.99979
292.99978
292.99976
292.99975
292.99973
292.99971
292.99969
292.99967
292.99965
292.99962
292.99959
292.99957
292.99954
292.99951
292.99947
292.99944
292.9994
292.99936
292.99931
292.99927
292.99922
292.99917
292.99911
292.99906
292.99899
292.99893
292.99886
292.99879
292.99871
292.99863
292.99854
292.99844
292.99835
292.99824
292.99813
292.99802
292.99789
292.99776
292.99762
292.99748
292.99732
292.99716
292.99699
292.99681
292.99662
292.99641
292.9962
292.99598
292.99574
292.99549
292.99523
292.99495
292.99466
292.99435
292.99403
292.99369
292.99333
292.99295
292.99256
292.99214
292.9917
292.99124
292.99076
292.99025
292.98972
292.98916
292.98858
292.98796
292.98732
292.98665
292.98594
292.9852
292.98443
292.98362
292.98277
292.98188
292.98095
292.97998
292.97896
292.9779
292.97679
292.97564
292.97443
292.97317
292.97185
292.97048
292.96905
292.96755
292.966
292.96438
292.96269
292.96093
292.9591
292.9572
292.95521
292.95315
292.95101
292.94878
292.94647
292.94406
292.94156
292.93897
292.93628
292.93349
292.93059
292.92759
292.92447
292.92124
292.9179
292.91443
292.91085
292.90713
292.90329
292.89932
292.89521
292.89095
292.88656
292.88202
292.87733
292.87248
292.86748
292.86232
292.85699
292.8515
292.84583
292.83999
292.83397
292.82777
292.82138
292.8148
292.80803
292.80105
292.79388
292.7865
292.77892
292.77112
292.76311
292.75487
292.74642
292.73773
292.72882
292.71967
292.71028
292.70065
292.69078
292.68066
292.67029
292.65966
292.64878
292.63763
292.62622
292.61454
292.60259
292.59037
292.57787
292.56509
292.55203
292.53868
292.52504
292.51111
292.49689
292.48238
292.46756
292.45245
292.43703
292.42131
292.40528
292.38894
292.37229
292.35533
292.33806
292.32046
292.30256
292.28433
292.26578
292.24691
292.22772
292.20821
292.18837
292.16821
292.14772
292.12691
292.10577
292.0843
292.06251
292.04038
292.01793
291.99516
291.97206
291.94863
291.92487
291.90079
291.87638
291.85165
291.82659
291.80122
291.77552
291.7495
291.72316
291.6965
291.66953
291.64224
291.61463
291.58672
291.5585
291.52996
291.50113
291.47199
291.44254
291.4128
291.38276
291.35243
291.3218
291.29089
291.25969
291.2282
291.19644
291.1644
291.13208
291.09949
291.06664
291.03351
291.00013
290.96649
290.9326
290.89845
290.86406
290.82942
290.79454
290.75943
290.72409
290.68851
290.65272
290.6167
290.58047
290.54403
290.50738
290.47053
290.43348
290.39624
290.3588
290.32119
290.28339
290.24542
290.20728
290.16897
290.1305
290.09187
290.0531
290.01418
289.97511
289.93591
289.89658
289.85712
289.81755
289.77785
289.73805
289.69814
289.65813
289.61803
289.57784
289.53757
289.49721
289.45679
289.4163
289.37574
289.33513
289.29447
289.25377
289.21303
289.17225
289.13145
289.09062
289.04978
289.00893
288.96807
288.92722
288.88637
288.84554
288.80472
288.76393
288.72318
288.68246
288.64178
288.60115
288.56058
288.52007
288.47963
288.43926
288.39896
288.35876
288.31865
288.27863
288.23872
288.19892
288.15923
288.11967
288.08024
288.04094
288.00178
287.96277
287.92391
287.8852
287.84667
287.8083
287.77012
287.73211
287.6943
287.65668
287.61926
287.58205
287.54505
287.50827
287.47171
287.43539
287.3993
287.36345
287.32785
287.2925
287.25742
287.22259
287.18804
287.15376
287.11976
287.08604
287.05262
287.01949
286.98666
286.95414
286.92193
286.89003
286.85845
286.8272
286.79627
286.76568
286.73542
286.7055
286.67593
286.64671
286.61784
286.58932
286.56117
286.53337
286.50594
286.47888
286.45219
286.42588
286.39994
286.37438
286.3492
286.3244
286.29999
286.27596
286.25232
286.22907
286.2062
286.18373
286.16165
286.13997
286.11867
286.09777
286.07726
286.05714
286.03741
286.01807
285.99912
285.98057
285.9624
285.94461
285.92721
285.9102
285.89356
285.8773
285.86142
285.84592
285.83078
285.81602
285.80161
285.78757
285.77389
285.76057
285.74759
285.73496
285.72268
285.71073
285.69912
285.68784
285.67689
285.66626
285.65594
285.64594
285.63624
285.62684
285.61774
285.60893
285.60041
285.59217
285.5842
285.57651
285.56907
285.5619
285.55497
285.5483
285.54187
285.53567
285.5297
285.52396
285.51843
285.51312
285.50802
285.50312
285.49841
285.4939
285.48957
285.48542
285.48144
285.47764
285.474
285.47051
285.46718
285.464
285.46096
285.45806
285.4553
285.45266
285.45015
285.44775
285.44548
285.44331
285.44125
285.43929
285.43743
285.43567
285.434
285.43241
285.4309
285.42948
285.42813
285.42686
285.42565
285.42451
285.42343
285.42242
285.42146
285.42056
285.41971
285.41891
285.41815
285.41744
285.41678
285.41615
285.41556
285.41501
285.41449
285.41401
285.41356
285.41313
285.41273
285.41236
285.41202
285.41169
285.41139
285.41111
285.41085
285.4106
285.41038
285.41016
285.40997
285.40979
285.40962
285.40946
285.40932
285.40918
285.40906
285.40894
285.40884
285.40874
285.40865
285.40857
285.40849
285.40842
285.40836
285.4083
285.40824
285.40819
285.40815
285.40811
285.40807
285.40804
285.40801
285.40798
285.40795
285.40793
285.40791
285.40789
285.40788
285.40787
285.40785
285.40784
285.40783
285.40783
285.40782
285.40781
285.40781
285.40781
285.4078
285.4078
285.4078
285.40779
285.40779
285.40778
285.40778
285.40777
285.40777
285.40776
285.40775
285.40774
285.40774
285.40773
285.40772
285.40772
285.40771
285.4077
285.40769
285.40769
285.40769
285.40768
285.40767
285.40766
285.40766
285.40766
285.40765
285.40765
285.40765
285.40764
285.40764
285.40764
285.40763
285.40763
285.40763
285.40762
285.40762
285.40762
285.40762
285.40762
285.40761
285.40761
285.40761
285.4076
285.40759
285.40759
285.40759
285.40759
285.40758
285.40758
285.40758
285.40757
285.40757
285.40756
285.40756
285.40756
285.40756
285.40755
285.40755
285.40755
285.40755
285.40755
285.40755
285.40754
285.40754
285.40753
285.40753
285.40753
285.40753
285.40753
285.40753
285.40753
285.40752
285.40752
285.40752
285.40752
285.40752
285.40752
285.40752
285.40752
285.40752
285.40751
285.40751
285.40751
285.40751
285.40751
285.40751
285.40751
285.40751
285.40751
285.40751
285.40751
285.40751
285.40751
285.4075
285.4075
285.4075
285.4075
285.4075
285.4075
285.4075
285.4075
285.4075
285.4075
285.4075
285.4075
285.40751
285.40751
285.4075
285.4075
285.4075
285.40751
285.40751
285.40751
285.40751
285.40751
285.40751
285.40751
285.40751
285.40751
285.4075
285.40749
285.40749
285.40749
285.40749
285.4075
285.4075
285.4075
285.40749
285.40749
285.40749
285.40749
285.40749
285.4075
285.4075
285.40751
285.40751
285.40751
285.40752
285.40752
285.40752
285.40753
285.40754
285.40754
285.40753
285.40753
285.40753
285.40753
285.40753
285.40753
285.40753
285.40754
285.40754
285.40754
285.40754
285.40755
285.40755
285.40756
285.40756
285.40756
285.40756
285.40757
285.40757
285.40758
285.40758
285.40758
285.40759
285.40759
285.4076
285.4076
285.40761
285.40761
285.40762
285.40762
285.40763
285.40763
285.40763
285.40763
285.40763
285.40763
285.40764
285.40764
285.40765
285.40766
285.40766
285.40766
285.40766
285.40766
285.40766
285.40767
285.40767
285.40767
285.40767
285.40768
285.40768
285.40768
285.40769
285.40769
285.40769
285.4077
285.4077
285.40771
285.40771
285.40772
285.40772
285.40773
285.40773
285.40774
285.40775
285.40775
285.40776
285.40776
285.40777
285.40777
285.40778
285.40778
285.40779
285.4078
285.4078
285.40781
285.40781
285.40782
285.40782
285.40782
285.40783
285.40783
285.40784
285.40785
285.40785
285.40786
285.40786
285.40786
285.40787
285.40787
285.40788
285.40789
285.40789
285.4079
285.4079
285.4079
285.40791
285.40791
285.40792
285.40793
285.40793
285.40794
285.40794
285.40795
285.40796
285.40796
285.40797
285.40797
285.40797
285.40798
285.40798
285.40799
285.408
285.40801
285.40801
285.40802
285.40802
285.40803
285.40803
285.40804
285.40804
285.40805
285.40806
285.40807
285.40807
285.40808
285.40808
285.40809
285.40809
285.4081
285.4081
285.40811
285.40811
285.40812
285.40812
285.40813
285.40813
285.40814
285.40815
285.40816
285.40816
285.40817
285.40817
285.40818
285.40818
285.40819
285.40819
285.4082
285.4082
285.40821
285.40822
285.40822
285.40823
285.40824
285.40825
285.40825
285.40826
285.40826
285.40827
285.40828
285.40828
285.40829
285.4083
285.4083
285.40831
285.40831
285.40831
285.40832
285.40833
285.40834
285.40835
285.40835
285.40836
285.40837
285.40837
285.40838
285.40838
285.40838
285.40839
285.40839
285.4084
285.40841
285.40842
285.40843
285.40843
285.40844
285.40844
285.40845
285.40846
285.40846
285.40847
285.40848
285.40849
285.40849
285.4085
285.4085
285.40851
285.40851
285.40852
285.40853
285.40854
285.40854
285.40855
285.40856
285.40856
285.40857
285.40857
285.40858
285.40859
285.4086
285.4086
285.40861
285.40861
285.40862
285.40863
285.40864
285.40864
285.40865
285.40866
285.40866
285.40867
285.40868
285.40869
285.40869
285.4087
285.4087
285.40871
285.40871
285.40872
285.40873
285.40873
285.40874
285.40875
285.40876
285.40877
285.40877
285.40878
285.40879
285.40879
285.4088
285.40881
285.40882
285.40883
285.40883
285.40884
285.40884
285.40885
285.40886
285.40886
285.40887
285.40888
285.40889
285.4089
285.4089
285.40891
285.40891
285.40892
285.40893
285.40894
285.40895
285.40895
285.40896
285.40897
285.40898
285.40899
285.409
285.409
285.40901
285.40901
285.40902
285.40902
285.40903
285.40904
285.40904
285.40905
285.40906
285.40907
285.40908
285.40909
285.4091
285.40911
285.40911
285.40912
285.40913
285.40913
285.40914
285.40915
285.40915
285.40916
285.40917
285.40918
285.40919
285.4092
285.40921
285.40921
285.40922
285.40923
285.40923
285.40924
285.40925
285.40926
285.40926
285.40927
285.40928
285.40929
285.4093
285.40931
285.40931
285.40932
285.40933
285.40934
285.40934
285.40935
285.40936
285.40937
285.40938
285.40939
285.4094
285.4094
285.40941
285.40942
285.40943
285.40944
285.40945
285.40946
285.40946
285.40947
285.40948
285.40949
285.4095
285.40951
285.40952
285.40953
285.40954
285.40955
285.40955
285.40956
285.40957
285.40958
285.40959
285.4096
285.4096
285.40961
285.40962
285.40963
285.40964
285.40965
285.40966
285.40967
285.40968
285.40969
285.4097
285.40971
285.40971
285.40972
285.40973
285.40974
285.40975
285.40976
285.40977
285.40978
285.40979
285.4098
285.40981
285.40982
285.40983
285.40984
285.40985
285.40986
285.40987
285.40988
285.40989
285.4099
285.40991
285.40992
285.40993
285.40994
285.40995
285.40996
285.40997
285.40998
285.40999
285.41
285.41
285.41001
285.41002
285.41003
285.41004
285.41005
285.41006
285.41008
285.41009
285.4101
285.41012
285.41013
285.41014
285.41015
285.41016
285.41017
285.41018
285.41019
285.4102
285.41021
285.41022
285.41023
285.41024
285.41026
285.41027
285.41028
285.41029
285.4103
285.41031
285.41032
285.41033
285.41035
285.41036
285.41037
285.41038
285.41039
285.4104
285.41041
285.41042
285.41043
285.41044
285.41046
285.41047
285.41048
285.41049
285.4105
285.41051
285.41053
285.41054
285.41056
285.41057
285.41058
285.4106
285.41061
285.41062
285.41063
285.41064
285.41065
285.41066
285.41067
285.41068
285.4107
285.41071
285.41072
285.41073
285.41075
285.41076
285.41077
285.41079
285.4108
285.41081
285.41083
285.41084
285.41085
285.41087
285.41088
285.4109
285.41091
285.41092
285.41094
285.41095
285.41096
285.41097
285.41099
285.411
285.41102
285.41103
285.41104
285.41106
285.41107
285.41109
285.4111
285.41112
285.41113
285.41114
285.41116
285.41117
285.41119
285.4112
285.41122
285.41123
285.41125
285.41126
285.41128
285.41129
285.41131
285.41132
285.41134
285.41136
285.41137
285.41138
285.4114
285.41141
285.41143
285.41145
285.41146
285.41148
285.4115
285.41151
285.41153
285.41155
285.41156
285.41158
285.4116
285.41161
285.41163
285.41164
285.41166
285.41167
285.41169
285.41171
285.41172
285.41174
285.41176
285.41178
285.4118
285.41182
285.41184
285.41185
285.41187
285.41189
285.4119
285.41192
285.41194
285.41196
285.41198
285.41199
285.41201
285.41203
285.41205
285.41207
285.41209
285.41211
285.41213
285.41214
285.41216
285.41217
285.41219
285.41221
285.41223
285.41225
285.41227
285.4123
285.41232
285.41234
285.41236
285.41238
285.4124
285.41242
285.41244
285.41245
285.41247
285.4125
285.41252
285.41255
285.41257
285.4126
285.41262
285.41264
285.41266
285.41267
285.41269
285.41271
285.41274
285.41277
285.41279
285.41282
285.41284
285.41286
285.41288
285.4129
285.41292
285.41294
285.41296
285.41299
285.41301
285.41304
285.41306
285.41309
285.41312
285.41315
285.41318
285.4132
285.41322
285.41325
285.41327
285.4133
285.41332
285.41335
285.41338
285.4134
285.41343
285.41346
285.41348
285.41351
285.41354
285.41356
285.41359
285.41362
285.41365
285.41368
285.41371
285.41374
285.41377
285.4138
285.41383
285.41386
285.41389
285.41392
285.41395
285.41398
285.41401
285.41405
285.41408
285.41412
285.41415
285.41418
285.41421
285.41424
285.41426
285.41429
285.41431
285.41435
285.41438
285.41442
285.41445
285.41449
285.41453
285.41457
285.4146
285.41464
285.41467
285.41471
285.41474
285.41478
285.41481
285.41485
285.41489
285.41493
285.41497
285.41501
285.41505
285.41509
285.41513
285.41517
285.41522
285.41526
285.4153
285.41533
285.41537
285.41541
285.41545
285.41549
285.41554
285.41558
285.41563
285.41568
285.41573
285.41577
285.41582
285.41587
285.41591
285.41596
285.416
285.41604
285.41609
285.41614
285.41618
285.41623
285.41629
285.41634
285.41639
285.41645
285.4165
285.41655
285.41661
285.41666
285.41672
285.41677
285.41683
285.41689
285.41695
285.41701
285.41707
285.41713
285.41719
285.41725
285.41731
285.41737
285.41743
285.41749
285.41755
285.41761
285.41768
285.41774
285.41781
285.41788
285.41795
285.41802
285.41809
285.41815
285.41822
285.41829
285.41837
285.41845
285.41853
285.41861
285.4187
285.41879
285.41887
285.41896
285.41904
285.41912
285.4192
285.41928
285.41936
285.41945
285.41954
285.41963
285.41973
285.41982
285.41992
285.42002
285.42012
285.42022
285.42033
285.42043
285.42053
285.42064
285.42075
285.42086
285.42096
285.42108
285.42119
285.4213
285.42142
285.42153
285.42165
285.42176
285.42188
285.422
285.42211
285.42223
285.42235
285.42246
285.42258
285.4227
285.42282
285.42294
285.42305
285.42316
285.42326
285.42336
285.42345
285.42353
285.42361
285.42368
285.42374
285.4238
285.42385
285.42389
285.42393
285.42395
285.42396
285.42397
285.42397
285.42397
285.42397
285.42395
285.42391
285.42386
285.4238
285.42375
285.4237
285.42366
285.42363
285.4236
285.42359
285.42359
285.42359
285.42359
285.4236
285.42364
285.42374
285.42389
285.42407
285.42428
285.42452
285.42477
285.42504
285.42532
285.42559
285.42587
285.42613
285.4264
285.42667
285.42696
285.42725
285.42755
285.42785
285.42814
285.42841
285.42866
285.42887
285.42904
285.42917
285.42925
285.42931
285.42936
285.42942
285.42948
285.42953
285.42958
285.42961
285.42964
285.42969
285.42978
285.43
285.43052
285.4318
285.43505
285.44342
285.46504
285.52082
285.66522
286.03287
286.92851
288.22886
289.70408
291.26271
292.81441
294.28287
295.61219
296.76861
297.73891
298.52637
299.14601
299.61968
299.97197
300.22726
300.40767
300.53207
300.6158
300.67078
300.70593
300.72775
300.7408
300.74819
300.75202
300.75367
300.75409
300.75402
300.75341
300.75181
300.75004
300.74841
300.74691
300.74556
300.74435
300.74329
300.74237
300.74157
300.74088
300.74027
300.73973
300.73924
300.73878
300.73834
300.73792
300.73751
300.7371
300.73671
300.73634
300.73598
300.73564
300.73531
300.73499
300.73468
300.73438
300.73407
300.73375
300.73341
300.73305
300.73267
300.73226
300.73182
300.73135
300.73085
300.73034
300.72981
300.72927
300.72873
300.72818
300.72765
300.72712
300.7266
300.72609
300.72561
300.72514
300.72469
300.72427
300.72387
300.7235
300.72315
300.72282
300.72251
300.72222
300.72195
300.72169
300.72144
300.72121
300.72098
300.72077
300.72056
300.72037
300.72018
300.71999
300.71982
300.71965
300.71949
300.71933
300.71917
300.71902
300.71887
300.71873
300.71858
300.71844
300.71831
300.71817
300.71804
300.71791
300.71779
300.71767
300.71755
300.71744
300.71732
300.71721
300.7171
300.71698
300.71687
300.71676
300.71666
300.71655
300.71645
300.71635
300.71625
300.71616
300.71606
300.71597
300.71587
300.71578
300.71569
300.7156
300.71552
300.71543
300.71535
300.71526
300.71518
300.71509
300.71501
300.71493
300.71485
300.71477
300.71469
300.71462
300.71454
300.71447
300.7144
300.71433
300.71426
300.71419
300.71412
300.71406
300.71399
300.71392
300.71385
300.71379
300.71372
300.71366
300.7136
300.71354
300.71348
300.71342
300.71336
300.7133
300.71324
300.71317
300.71311
300.71305
300.71299
300.71294
300.71288
300.71283
300.71277
300.71272
300.71267
300.71261
300.71256
300.71251
300.71246
300.71241
300.71236
300.71231
300.71226
300.71221
300.71216
300.71212
300.71207
300.71202
300.71197
300.71192
300.71188
300.71183
300.71179
300.71174
300.7117
300.71166
300.71161
300.71157
300.71152
300.71148
300.71144
300.7114
300.71136
300.71132
300.71128
300.71124
300.7112
300.71116
300.71112
300.71109
300.71105
300.71101
300.71098
300.71094
300.7109
300.71086
300.71082
300.71078
300.71074
300.7107
300.71067
300.71064
300.71061
300.71058
300.71054
300.71051
300.71047
300.71044
300.71041
300.71037
300.71034
300.71031
300.71027
300.71024
300.71021
300.71018
300.71014
300.71011
300.71008
300.71005
300.71002
300.70999
300.70996
300.70993
300.70989
300.70986
300.70983
300.7098
300.70977
300.70975
300.70972
300.7097
300.70967
300.70965
300.70962
300.70959
300.70957
300.70954
300.70951
300.70948
300.70945
300.70942
300.70939
300.70936
300.70934
300.70931
300.70929
300.70926
300.70924
300.70921
300.70919
300.70916
300.70913
300.70911
300.70908
300.70906
300.70903
300.70901
300.70898
300.70896
300.70894
300.70892
300.7089
300.70887
300.70885
300.70883
300.70881
300.70879
300.70876
300.70874
300.70871
300.70869
300.70866
300.70864
300.70862
300.70859
300.70857
300.70855
300.70853
300.70851
300.70849
300.70848
300.70846
300.70844
300.70842
300.70839
300.70837
300.70835
300.70833
300.70831
300.70828
300.70826
300.70824
300.70822
300.70821
300.70819
300.70817
300.70815
300.70813
300.70811
300.70809
300.70807
300.70806
300.70804
300.70802
300.708
300.70798
300.70796
300.70794
300.70793
300.70791
300.70789
300.70787
300.70786
300.70784
300.70782
300.70781
300.70779
300.70777
300.70775
300.70773
300.70771
300.70769
300.70767
300.70766
300.70764
300.70763
300.70761
300.70759
300.70758
300.70756
300.70754
300.70753
300.70751
300.70749
300.70748
300.70746
300.70745
300.70743
300.70742
300.7074
300.70739
300.70737
300.70735
300.70733
300.70732
300.70731
300.70729
300.70728
300.70727
300.70725
300.70724
300.70722
300.70721
300.70719
300.70718
300.70716
300.70714
300.70713
300.70711
300.70709
300.70708
300.70706
300.70705
300.70704
300.70703
300.70701
300.707
300.70699
300.70697
300.70696
300.70695
300.70693
300.70692
300.7069
300.70689
300.70688
300.70686
300.70685
300.70684
300.70682
300.70681
300.7068
300.70679
300.70678
300.70676
300.70675
300.70673
300.70672
300.70671
300.70669
300.70668
300.70667
300.70666
300.70665
300.70664
300.70663
300.70661
300.7066
300.70658
300.70657
300.70656
300.70654
300.70653
300.70652
300.70651
300.7065
300.70648
300.70647
300.70646
300.70644
300.70643
300.70642
300.70641
300.7064
300.70639
300.70638
300.70637
300.70636
300.70635
300.70634
300.70632
300.70631
300.70629
300.70628
300.70627
300.70626
300.70625
300.70624
300.70623
300.70622
300.70622
300.70621
300.7062
300.70619
300.70617
300.70616
300.70614
300.70613
300.70612
300.70611
300.7061
300.70609
300.70609
300.70608
300.70606
300.70605
300.70604
300.70602
300.70601
300.706
300.706
300.70599
300.70598
300.70597
300.70596
300.70595
300.70594
300.70593
300.70592
300.70592
300.70591
300.70589
300.70588
300.70587
300.70586
300.70584
300.70583
300.70582
300.70582
300.70581
300.7058
300.70579
300.70578
300.70577
300.70576
300.70576
300.70575
300.70574
300.70573
300.70572
300.7057
300.70569
300.70568
300.70567
300.70567
300.70566
300.70565
300.70564
300.70563
300.70562
300.70561
300.7056
300.70559
300.70558
300.70557
300.70557
300.70556
300.70555
300.70554
300.70553
300.70552
300.7055
300.70549
300.70548
300.70547
300.70547
300.70546
300.70545
300.70545
300.70544
300.70543
300.70542
300.70541
300.7054
300.70539
300.70538
300.70537
300.70537
300.70536
300.70536
300.70535
300.70534
300.70533
300.70532
300.70531
300.7053
300.70529
300.70529
300.70528
300.70527
300.70526
300.70525
300.70524
300.70523
300.70523
300.70522
300.70521
300.7052
300.70519
300.70518
300.70518
300.70517
300.70516
300.70515
300.70515
300.70514
300.70513
300.70512
300.70511
300.7051
300.70509
300.70508
300.70507
300.70507
300.70506
300.70506
300.70506
300.70505
300.70504
300.70503
300.70502
300.70501
300.705
300.705
300.70499
300.70499
300.70498
300.70497
300.70496
300.70495
300.70494
300.70494
300.70493
300.70492
300.70491
300.70491
300.7049
300.7049
300.70489
300.70488
300.70487
300.70486
300.70486
300.70485
300.70484
300.70483
300.70482
300.70481
300.70481
300.7048
300.7048
300.70479
300.70479
300.70479
300.70478
300.70477
300.70476
300.70476
300.70475
300.70474
300.70473
300.70472
300.70471
300.7047
300.7047
300.7047
300.70469
300.70469
300.70468
300.70467
300.70466
300.70466
300.70465
300.70465
300.70464
300.70463
300.70463
300.70462
300.70461
300.7046
300.7046
300.70459
300.70458
300.70458
300.70457
300.70456
300.70456
300.70455
300.70455
300.70455
300.70454
300.70453
300.70452
300.70451
300.7045
300.70449
300.70449
300.70448
300.70448
300.70448
300.70448
300.70447
300.70446
300.70445
300.70444
300.70444
300.70443
300.70442
300.70441
300.70441
300.7044
300.7044
300.70439
300.70439
300.70438
300.70438
300.70437
300.70436
300.70435
300.70435
300.70435
300.70434
300.70433
300.70433
300.70432
300.70431
300.70431
300.7043
300.7043
300.70429
300.70429
300.70428
300.70427
300.70426
300.70425
300.70425
300.70424
300.70424
300.70424
300.70423
300.70422
300.70422
300.70421
300.70421
300.7042
300.70419
300.70419
300.70418
300.70418
300.70417
300.70417
300.70416
300.70415
300.70414
300.70414
300.70413
300.70413
300.70412
300.70412
300.70411
300.70411
300.7041
300.7041
300.70409
300.70408
300.70408
300.70407
300.70406
300.70405
300.70404
300.70403
300.70403
300.70402
300.70402
300.70402
300.70402
300.70402
300.70401
300.704
300.70399
300.70398
300.70398
300.70397
300.70397
300.70396
300.70396
300.70395
300.70394
300.70394
300.70393
300.70392
300.70392
300.70391
300.70391
300.7039
300.7039
300.70389
300.70388
300.70388
300.70387
300.70386
300.70386
300.70385
300.70384
300.70384
300.70383
300.70383
300.70383
300.70382
300.70382
300.70381
300.70381
300.7038
300.70379
300.70379
300.70378
300.70377
300.70377
300.70377
300.70376
300.70376
300.70376
300.70375
300.70374
300.70374
300.70373
300.70372
300.70371
300.70371
300.7037
300.7037
300.70369
300.70368
300.70368
300.70367
300.70367
300.70367
300.70367
300.70367
300.70366
300.70365
300.70364
300.70363
300.70363
300.70362
300.70361
300.7036
300.70359
300.70359
300.70359
300.70358
300.70358
300.70358
300.70358
300.70357
300.70357
300.70356
300.70355
300.70354
300.70353
300.70352
300.70352
300.70352
300.70352
300.70352
300.70351
300.70351
300.7035
300.7035
300.70349
300.70348
300.70347
300.70347
300.70347
300.70346
300.70346
300.70345
300.70344
300.70343
300.70343
300.70343
300.70343
300.70342
300.70342
300.70341
300.7034
300.7034
300.70339
300.70339
300.70338
300.70338
300.70338
300.70337
300.70337
300.70336
300.70336
300.70335
300.70334
300.70334
300.70333
300.70333
300.70333
300.70332
300.70332
300.70331
300.70331
300.7033
300.70329
300.70329
300.70328
300.70328
300.70328
300.70328
300.70328
300.70327
300.70326
300.70325
300.70325
300.70324
300.70324
300.70324
300.70324
300.70323
300.70322
300.70322
300.70321
300.70321
300.70321
300.70321
300.70321
300.70321
300.7032
300.70319
300.70319
300.70318
300.70318
300.70317
300.70317
300.70317
300.70316
300.70316
300.70316
300.70316
300.70316
300.70315
300.70315
300.70314
300.70313
300.70313
300.70314
300.70314
300.70314
300.70314
300.70313
300.70312
300.70312
300.70311
300.70311
300.70311
300.70311
300.70311
300.70311
300.70312
300.70311
300.70311
300.70311
300.70311
300.7031
300.7031
300.7031
300.70309
300.7031
300.7031
300.70311
300.70312
300.70312
300.70312
300.70312
300.70312
300.70312
300.70313
300.70313
300.70313
300.70314
300.70314
300.70315
300.70316
300.70316
300.70317
300.70317
300.70318
300.70319
300.70319
300.7032
300.70321
300.70321
300.70322
300.70323
300.70325
300.70326
300.70326
300.70327
300.70328
300.70328
300.70329
300.7033
300.70331
300.70333
300.70336
300.70337
300.70337
300.70338
300.70338
300.70339
300.7034
300.7034
300.70341
300.70342
300.70343
300.70344
300.70344
300.70344
300.70345
300.70345
300.70345
300.70344
300.70343
300.70342
300.70341
300.70339
300.70337
300.70335
300.70332
300.7033
300.70326
300.70323
300.70319
300.70316
300.70311
300.70307
300.70302
300.70296
300.70291
300.70284
300.70278
300.70271
300.70263
300.70255
300.70246
300.70236
300.70226
300.70215
300.70203
300.7019
300.70176
300.70161