/*--------------------------------*- C++ -*----------------------------------*\
  =========                 |
  \\      /  F ield         | OpenFOAM: The Open Source CFD Toolbox
   \\    /   O peration     | Website:  https://openfoam.org
    \\  /    A nd           | Version:  7
     \\/     M anipulation  |
\*---------------------------------------------------------------------------*/
FoamFile
{
    version     2.0;
    format      ascii;
    class       volScalarField;
    location    "0.00291";
    object      Uy;
}
// * * * * * * * * * * * * * * * * * * * * * * * * * * * * * * * * * * * * * //

dimensions      [0 1 -1 0 0 0 0];

internalField   nonuniform List<scalar> 
5000
(
2.2735904e-17
2.2269529e-17
0
0
-1.1724672e-17
1.328954e-32
1.1656791e-17
0
0
-1.1564146e-17
-2.306852e-17
1.1504654e-17
1.1475014e-17
-1.14455e-17
0
-1.1386439e-17
-2.2155235e-47
1.1327472e-17
0
1.1268577e-17
-1.1239266e-17
-1.1210283e-17
2.2362604e-17
-1.115253e-17
-1.112372e-17
-9.1450445e-32
1.1067079e-17
1.103912e-17
-2.2022073e-17
1.9042157e-31
-1.9150064e-31
1.0928632e-17
2.1803005e-17
-2.1749421e-17
1.8807405e-31
-9.4116092e-31
-3.7432213e-31
2.1538774e-17
-2.1487099e-17
-2.1436071e-17
2.1385435e-17
-7.3373791e-31
-2.1285916e-17
1.06185e-17
3.1782408e-17
-1.0570155e-17
-1.0546276e-17
-7.2077122e-31
-2.0998738e-17
0
1.0453389e-17
1.4823067e-33
-1.0408306e-17
2.0772314e-17
-3.6231507e-31
-2.0684718e-17
1.0320706e-17
-3.5566237e-31
-1.0278145e-17
0
1.0236408e-17
3.4842427e-31
2.897729e-33
1.017538e-17
-1.015535e-17
3.5432807e-31
1.0115933e-17
-1.0096547e-17
-1.007722e-17
1.0058185e-17
1.003921e-17
-1.0020532e-17
-1.0001898e-17
1.9967107e-17
9.9652479e-18
-9.9472259e-18
0
9.9115329e-18
-1.4060019e-33
-9.8764582e-18
9.8590862e-18
-2.7972595e-33
2.7924051e-33
9.8080842e-18
9.7912873e-18
3.4032339e-31
-9.7582233e-18
0
-9.725689e-18
-1.0072741e-30
-3.3887795e-31
9.6778971e-18
9.6621353e-18
-1.929322e-17
-6.6653745e-31
9.6158018e-18
0
0
-9.5704181e-18
-6.6267091e-31
1.908156e-17
-9.5261882e-18
-1.9023192e-17
0
9.4828586e-18
9.4687113e-18
-9.4545631e-18
-9.4406354e-18
0
0
9.3992834e-18
9.3857858e-18
0
-9.3589931e-18
3.2671339e-31
9.3326063e-18
-9.3195084e-18
2.6450995e-33
-3.2489624e-31
-6.0080415e-49
1.8536628e-17
-3.9459899e-33
-9.2432998e-18
0
-9.2186674e-18
9.2065445e-18
9.1944098e-18
-1.8364944e-17
-9.1705221e-18
1.8317536e-17
9.1470025e-18
-9.1354325e-18
-9.1238514e-18
-9.1124653e-18
0
9.0898645e-18
9.078649e-18
-9.0676249e-18
-3.1403252e-31
9.0457396e-18
-9.0348773e-18
-9.0242019e-18
0
9.0030057e-18
8.9924841e-18
-8.9821453e-18
8.971789e-18
-5.0940874e-33
-8.9514186e-18
8.9414028e-18
-8.9313677e-18
6.2123322e-31
8.9116339e-18
-8.9019342e-18
8.8922149e-18
8.8826713e-18
-8.873108e-18
0
0
-8.8450699e-18
-8.8358077e-18
8.8267133e-18
8.8175933e-18
-8.8086386e-18
-6.1024717e-31
8.7908397e-18
-8.7819947e-18
-8.7733119e-18
0
8.7560484e-18
8.7474658e-18
0
-8.7305866e-18
-8.7222938e-18
0
8.7057847e-18
1.8095036e-30
-8.6895129e-18
8.681418e-18
8.6734749e-18
-8.6654956e-18
-5.979396e-31
5.9493808e-31
3.6843436e-33
8.6343366e-18
-8.6267324e-18
-1.19545e-30
5.9230988e-31
-5.9179135e-31
8.5966544e-18
0
0
-8.574565e-18
-8.5673552e-18
0
0
8.5458168e-18
3.3066015e-49
-8.5317103e-18
0
8.5177761e-18
-8.5109158e-18
-2.3565594e-30
1.6994449e-17
-8.4903919e-18
-1.7613876e-30
-1.2046435e-33
-8.4702886e-18
8.4635988e-18
-1.2018164e-33
-1.1696526e-30
5.8437643e-31
-8.4373533e-18
0
8.4244268e-18
5.825871e-31
2.3345454e-30
8.4053115e-18
0
-8.392684e-18
-8.386368e-18
0
0
0
8.3615377e-18
5.7825348e-31
-8.3492716e-18
0
0
8.33109e-18
8.3250183e-18
-8.3190544e-18
-8.3130274e-18
0
8.3011211e-18
8.2952396e-18
-8.2892922e-18
-8.2834473e-18
0
8.2717251e-18
-2.2952612e-30
-5.7282726e-31
8.2542225e-18
-8.2484759e-18
-8.2426614e-18
0
8.2311617e-18
-1.1431943e-30
8.2197187e-18
1.139273e-30
-1.6416655e-17
8.2026929e-18
-1.1369055e-30
-2.8438115e-30
-5.6650696e-31
-8.1801237e-18
8.1744721e-18
8.1689139e-18
0
-8.1577512e-18
-8.1521479e-18
0
8.1410556e-18
8.1355616e-18
-1.6259983e-17
-8.124509e-18
8.1189536e-18
8.1134901e-18
2.2491143e-30
-8.1025192e-18
8.0970088e-18
-5.6114311e-31
-8.0860851e-18
8.0806684e-18
-5.6115264e-31
5.6192361e-31
-2.2920079e-33
-5.5658537e-31
8.0534246e-18
0
0
-8.0372158e-18
-8.0317702e-18
0
0
0
0
8.0048793e-18
5.5134477e-31
-1.5988293e-17
3.4058067e-33
7.983423e-18
7.9780247e-18
-1.106931e-30
-1.1039177e-30
-1.1314683e-33
-7.9566135e-18
-7.9513093e-18
-7.9459329e-18
1.5881279e-17
2.380582e-17
-7.9299891e-18
-1.5849262e-17
0
7.913999e-18
7.9087242e-18
-7.903374e-18
2.2447756e-33
-3.3648835e-33
2.2417577e-33
7.8821381e-18
7.8768695e-18
-7.8715263e-18
-1.5732523e-17
7.8609232e-18
2.4779161e-49
7.8503327e-18
2.1739632e-30
-1.5679509e-17
0
0
1.564788e-17
-4.3421509e-30
-1.5626756e-17
0
7.8028201e-18
7.7975047e-18
-7.792264e-18
1.1065919e-33
-1.0804125e-30
1.1050914e-33
7.7711447e-18
-7.7658251e-18
-7.7605787e-18
0
7.7500117e-18
-1.0752735e-30
-7.7394486e-18
1.5468267e-17
-2.1439636e-30
-7.7235854e-18
-2.1432327e-30
-1.5426094e-17
1.5415634e-17
7.7025148e-18
-7.6972863e-18
-1.0930969e-33
-7.6867576e-18
0
0
7.6709307e-18
-1.0632174e-30
-1.5320813e-17
1.0878668e-33
2.2949656e-17
-7.6446607e-18
-7.6393642e-18
1.5268278e-17
-7.628843e-18
7.6236188e-18
1.5236649e-17
-7.6131027e-18
-7.6078116e-18
-7.6025932e-18
7.5973055e-18
4.9266519e-49
-7.5868032e-18
7.5815867e-18
-7.5762983e-18
7.5710782e-18
2.0965673e-30
2.1488405e-33
7.5552653e-18
-1.5100081e-17
7.5447479e-18
2.0935772e-30
-2.0899687e-30
-7.5290347e-18
-1.5047516e-17
2.2555662e-17
2.0841524e-30
-4.1654128e-30
2.0791088e-30
-1.4995137e-17
1.498454e-17
-2.0768715e-30
-1.4963477e-17
0
0
7.4659803e-18
-1.0347889e-30
-7.4555626e-18
-7.4502496e-18
7.4450229e-18
2.2319439e-17
-7.4346292e-18
-7.4292786e-18
-2.1100425e-33
-7.4188377e-18
0
1.4816306e-17
1.4805855e-17
-7.3978372e-18
-1.4785426e-17
-7.387346e-18
1.4764154e-17
1.4753627e-17
-1.4743271e-17
-1.4732772e-17
0
1.4711792e-17
-7.3506678e-18
-1.4690834e-17
7.3401888e-18
7.3349418e-18
-1.0416138e-33
1.0169287e-30
7.3192247e-18
-7.3139869e-18
-7.3087497e-18
7.3035156e-18
-1.0122563e-30
-1.0364045e-33
-1.0108046e-30
-7.2825841e-18
7.2773493e-18
-3.0289852e-30
-1.0089349e-30
-2.0153863e-30
-7.2564235e-18
7.2511943e-18
-1.0060289e-30
-2.0075179e-30
-1.0282235e-33
-1.4460481e-17
-7.2249888e-18
7.2197395e-18
1.4428953e-17
-1.0009278e-30
-1.4407876e-17
-7.1986612e-18
1.4386735e-17
7.1880725e-18
-7.1827593e-18
-7.1774438e-18
-1.9905331e-30
7.1667741e-18
0
0
7.1507074e-18
0
-7.1399887e-18
7.13464e-18
1.0131345e-33
-1.9771754e-30
0
-7.1134189e-18
7.1081892e-18
7.1030034e-18
-1.4195733e-17
-7.0927854e-18
7.0877658e-18
0
0
-7.0731197e-18
1.9637555e-30
7.0637354e-18
0
0
-7.05025e-18
2.9357621e-30
7.0416286e-18
0
0
0
0
0
0
0
0
1.4010054e-17
3.886092e-30
-6.9969651e-18
6.9928937e-18
-6.9887827e-18
6.9846326e-18
-1.9403114e-30
-6.9761875e-18
-1.9359542e-30
-6.9675354e-18
0
0
6.9541483e-18
1.9297601e-30
-6.9449566e-18
0
0
0
0
0
0
0
1.3812833e-17
-5.7452647e-30
-1.3792924e-17
6.8914553e-18
9.786203e-34
6.8813888e-18
-3.812979e-30
-1.3742541e-17
-6.8661959e-18
-2.3468611e-49
2.0568089e-17
0
-1.3691693e-17
0
0
1.3661119e-17
-1.8933546e-30
-2.0461091e-17
6.8152632e-18
6.8101652e-18
-6.8050639e-18
6.7999653e-18
-6.794864e-18
-1.8834532e-30
6.7846662e-18
-6.7795705e-18
0
-6.7693803e-18
6.7642857e-18
1.3518389e-17
-6.7541017e-18
-6.7490121e-18
-6.7439204e-18
-6.7388324e-18
1.3467486e-17
6.7286585e-18
-6.7235736e-18
0
6.7134153e-18
-6.708342e-18
-6.7032684e-18
2.00946e-17
1.902302e-33
-1.3376129e-17
6.682997e-18
9.2716454e-31
6.6728665e-18
-1.8951038e-33
-1.3325477e-17
6.657677e-18
0
-1.8458934e-30
-9.439549e-34
-6.6374346e-18
6.6323756e-18
-1.8402752e-30
-9.1849463e-31
-9.4036285e-34
-6.6121642e-18
6.6071184e-18
2.3297361e-49
-1.8318641e-30
-9.3677778e-34
-1.3173898e-17
-9.1289712e-31
6.5768707e-18
0
0
-6.5617496e-18
-2.7282065e-30
6.5516661e-18
-6.5466249e-18
9.0823332e-31
9.3505106e-49
-9.0683282e-31
6.5264508e-18
6.5214053e-18
9.0380607e-31
-6.5113162e-18
0
0
6.49618e-18
-6.4911316e-18
5.3994846e-30
6.4810387e-18
-6.4759952e-18
0
6.4659101e-18
6.4608697e-18
-6.4558363e-18
-6.4508043e-18
0
6.4407631e-18
6.4357569e-18
-1.2861519e-17
-6.4257779e-18
6.4208098e-18
6.4158619e-18
8.891831e-31
6.4060266e-18
1.7774703e-30
-1.279258e-17
0
0
0
6.3771844e-18
6.3724969e-18
0
-6.3632417e-18
-8.8103162e-31
6.3541512e-18
0
0
-6.3408251e-18
-8.7885431e-31
8.7735461e-31
-6.3278487e-18
6.3235937e-18
-2.629451e-30
-6.315176e-18
0
-6.3068613e-18
-8.7507187e-31
6.2986208e-18
-6.2945182e-18
6.2904219e-18
6.2863276e-18
-6.2822313e-18
0
6.2740171e-18
6.2698923e-18
-6.2657514e-18
-6.2615917e-18
0
-6.253207e-18
6.2489783e-18
6.2447234e-18
-6.2404412e-18
-1.2472262e-17
3.4608889e-30
1.8682267e-17
2.0398394e-49
-6.2185944e-18
-1.242827e-17
3.4450604e-30
1.2410255e-17
-6.2005807e-18
6.196007e-18
-6.1914077e-18
-6.1867845e-18
1.2364279e-17
0
0
-1.2336178e-17
-1.7522983e-48
1.2317289e-17
0
0
-1.2288784e-17
-1.7716352e-48
1.2269699e-17
0
0
-1.2240991e-17
-6.1157035e-18
1.2221818e-17
6.1061131e-18
0
-1.2193034e-17
3.3830978e-30
1.2173838e-17
-6.0821205e-18
0
6.072526e-18
-6.0677308e-18
8.6159522e-34
6.0581459e-18
-6.0533566e-18
6.0485695e-18
6.0437849e-18
-6.0390029e-18
-6.0342236e-18
1.6742575e-30
6.0246737e-18
-6.0199035e-18
-1.6702838e-30
6.0103734e-18
-6.0056136e-18
6.0008572e-18
5.9961042e-18
-5.9913545e-18
-5.9866083e-18
1.6610451e-30
5.9771268e-18
-5.9723914e-18
8.4805539e-34
5.9629302e-18
-5.9582042e-18
5.9534815e-18
5.9487622e-18
-5.9440467e-18
-1.187867e-17
3.2975423e-30
1.1859844e-17
-5.9252206e-18
8.4135685e-34
1.1831657e-17
1.6800466e-33
-5.9064527e-18
0
5.8970911e-18
0
-5.887739e-18
0
0
0
-5.8690809e-18
-2.1640773e-49
5.8597771e-18
0
5.8504805e-18
-1.6232723e-30
-5.8411961e-18
0
0
0
-5.8226716e-18
1.6155545e-30
5.8134139e-18
0
5.8041718e-18
1.6095984e-30
-5.7949539e-18
0
5.7857388e-18
-5.7811265e-18
3.2096873e-30
5.7719034e-18
-5.7673011e-18
0
-5.7581173e-18
-1.59764e-30
5.7489315e-18
0
5.7397253e-18
-5.7351256e-18
-3.182512e-30
5.7259604e-18
-3.1766209e-30
-8.1240992e-34
1.5869911e-30
-8.1110921e-34
-5.7030902e-18
0
5.6939565e-18
-1.579031e-30
-1.5777788e-30
2.0930112e-49
-1.5760889e-30
0
-1.133384e-17
-1.5723457e-30
5.6579796e-18
-5.6535631e-18
1.5678642e-30
5.6448453e-18
5.640522e-18
1.5650623e-30
-1.5638652e-30
5.6275975e-18
-5.6233296e-18
-5.6191079e-18
0
-5.6108274e-18
1.5568839e-30
5.6027034e-18
0
0
0
-1.1173277e-17
6.2008157e-30
1.1157611e-17
0
0
0
0
0
0
0
-1.1096997e-17
3.0809061e-30
1.1082031e-17
5.5373136e-18
-5.5336342e-18
-5.5299659e-18
1.5353269e-30
3.0638907e-30
5.5188576e-18
-5.5150678e-18
5.5112315e-18
5.5073706e-18
-5.5035183e-18
-5.4997043e-18
3.0506637e-30
5.4922037e-18
5.4884558e-18
-1.5214181e-30
-5.4807372e-18
-5.4767241e-18
5.4726312e-18
5.4685043e-18
-5.4643939e-18
5.4603376e-18
0
-5.4524118e-18
-5.4484891e-18
1.5102908e-30
5.4404971e-18
-5.4363562e-18
5.4321057e-18
5.4277648e-18
-5.4233714e-18
5.4189743e-18
1.5035336e-30
-5.4103668e-18
-5.4062223e-18
-7.6769635e-34
1.0796408e-17
2.9949645e-30
-5.3901247e-18
-5.3858684e-18
0
5.3767719e-18
0
0
0
5.3584197e-18
5.3543284e-18
-5.3504201e-18
-5.3465824e-18
0
5.3386232e-18
-1.4820035e-30
-5.3298788e-18
0
0
5.3156068e-18
-2.9479283e-30
-5.3062503e-18
0
0
5.2936281e-18
-2.9361974e-30
-5.285841e-18
0
5.2778441e-18
-1.464385e-30
1.4624292e-30
-1.4619375e-30
-5.2602721e-18
0
-5.2510177e-18
2.9113775e-30
5.2416734e-18
0
5.232397e-18
-5.2278795e-18
-5.2235019e-18
1.0438592e-17
1.4496594e-30
-1.0422797e-17
1.446043e-30
5.2037302e-18
0
0
5.19155e-18
-1.4396788e-30
-5.1830634e-18
0
5.174545e-18
-5.1702788e-18
-5.1659778e-18
5.1616177e-18
0
-5.1526977e-18
5.1481716e-18
2.8551113e-30
-2.8526056e-30
5.1346339e-18
-4.2721632e-30
5.1256483e-18
-5.1211093e-18
1.4200311e-30
-2.8389597e-30
-1.0214671e-17
1.4154956e-30
5.098345e-18
0
0
0
-1.0162019e-17
-5.076607e-18
1.0144275e-17
5.067619e-18
0
0
5.054116e-18
2.0341016e-49
-5.0454449e-18
0
-1.0074078e-17
-5.0328731e-18
1.0057394e-17
5.0244985e-18
0
-1.0032184e-17
-1.424483e-33
1.5023661e-17
-1.388051e-30
-9.9996429e-18
4.9956931e-18
2.8372944e-33
-4.9869847e-18
1.3842253e-30
2.7616345e-30
4.9732069e-18
0
4.9646255e-18
-2.7542773e-30
-9.9139059e-18
4.9531819e-18
-8.2402413e-30
-4.9451233e-18
9.8815601e-18
-7.0149316e-34
-4.9318801e-18
0
0
0
-4.9164913e-18
4.9130998e-18
9.8191636e-18
-4.9058314e-18
-1.361143e-30
-1.3585926e-30
-4.8934361e-18
0
4.8853667e-18
-6.9373201e-34
-9.7565537e-18
4.8749474e-18
2.7026876e-30
-4.8679415e-18
-4.8641574e-18
2.7005642e-30
9.7125767e-18
0
4.8486865e-18
4.8451226e-18
0
-4.837997e-18
-4.8340563e-18
4.8297497e-18
0
-4.8204453e-18
0
0
4.8079227e-18
-4.0009826e-30
-4.8012174e-18
0
0
4.7900034e-18
4.7857348e-18
-4.7813489e-18
-4.7769669e-18
4.7726796e-18
4.7685255e-18
-9.5289812e-18
-4.7605283e-18
1.3214811e-30
4.752543e-18
-2.6343696e-30
-2.6319929e-30
4.7397139e-18
-4.7352647e-18
4.7308403e-18
-4.7265152e-18
-4.0265038e-33
4.7182977e-18
-9.4286598e-18
-4.7102763e-18
-4.7060111e-18
9.4030037e-18
9.3936299e-18
-4.6920967e-18
4.6875138e-18
-4.6831785e-18
2.5985886e-30
9.3503294e-18
-4.6711462e-18
1.2952448e-30
-1.295324e-30
-4.6577152e-18
0
0
4.6433889e-18
4.6388819e-18
0
-4.6304053e-18
-4.626336e-18
0
-4.6181987e-18
1.2812165e-30
4.6096772e-18
-4.6052329e-18
1.2762153e-30
4.5961294e-18
0
4.5870719e-18
2.5443609e-30
-4.5782351e-18
4.5738339e-18
-1.2668805e-30
-4.5648903e-18
-4.5603616e-18
-1.2644229e-30
4.5514221e-18
0
-4.5428405e-18
4.5386324e-18
-1.2887525e-33
2.5158112e-30
4.5255532e-18
-4.5208811e-18
0
-9.0224435e-18
1.0005691e-29
4.5018885e-18
2.4965164e-30
8.9872555e-18
-8.979659e-18
-8.9720268e-18
8.964009e-18
8.9554216e-18
4.4731226e-18
0
-4.4633425e-18
-8.916772e-18
6.3288686e-34
-4.4488947e-18
4.4444581e-18
4.4402206e-18
-4.4361412e-18
8.8642924e-18
-8.856273e-18
-7.3682567e-30
8.8394305e-18
-8.8303558e-18
2.4481079e-30
-4.4054363e-18
4.4003936e-18
4.395422e-18
-4.3906662e-18
-1.2167179e-30
-8.7641492e-18
8.756297e-18
8.7484714e-18
-8.7402636e-18
-1.2116563e-30
-4.3610476e-18
2.4192595e-30
4.3513804e-18
1.206401e-30
7.5603332e-49
4.3387644e-18
8.6704699e-18
-4.3317532e-18
-1.6380646e-48
-4.323935e-18
-7.1951632e-30
4.3143631e-18
-8.6181736e-18
2.388902e-30
8.5971546e-18
2.1413388e-49
-4.2895774e-18
0
0
-4.2784425e-18
4.2743832e-18
8.5399677e-18
0
0
0
-4.2518056e-18
-4.2479284e-18
0
4.2409679e-18
-4.2375887e-18
-7.0519789e-30
8.4609625e-18
0
0
0
-4.2132221e-18
-4.2083508e-18
4.2035143e-18
-4.1988825e-18
-2.3295003e-30
8.3812539e-18
0
0
-8.3602866e-18
1.187091e-33
4.1731875e-18
-4.1695569e-18
4.1657589e-18
-4.161775e-18
2.3089826e-30
8.3067394e-18
0
0
-4.1404977e-18
-4.1363543e-18
0
0
4.1250137e-18
4.1216165e-18
0
-4.1147889e-18
-4.1111088e-18
4.107183e-18
-4.1030558e-18
-4.0988095e-18
4.0945291e-18
4.0902709e-18
-2.2692263e-30
-4.0818194e-18
4.0775558e-18
1.1304759e-30
-4.0688465e-18
0
-4.0600253e-18
2.2517647e-30
4.0512884e-18
-4.0469787e-18
2.2445927e-30
4.0385298e-18
0
-4.0302915e-18
1.1179859e-30
5.7155247e-34
-4.017585e-18
4.013111e-18
4.0085997e-18
0
-7.9997878e-18
4.4382471e-30
3.9918828e-18
5.6671569e-34
7.9676363e-18
-7.9592265e-18
-7.9506289e-18
7.9418931e-18
3.9665135e-18
0
-7.9147923e-18
6.5811001e-30
7.8962825e-18
0
-7.8789863e-18
-2.1856532e-30
3.9317623e-18
1.0906937e-30
7.8475152e-18
-7.8387135e-18
-9.7777858e-30
7.819874e-18
-7.8102598e-18
2.1644448e-30
7.7913044e-18
3.8909683e-18
-7.7726409e-18
-3.881792e-18
7.7550501e-18
-7.7473215e-18
-9.666527e-30
7.7335435e-18
-7.7262262e-18
1.0715646e-30
-3.8543886e-18
4.271271e-30
1.1533015e-17
-2.1311162e-30
-7.6691013e-18
3.8300402e-18
7.6513694e-18
-3.8213568e-18
2.1192804e-30
-3.812761e-18
-4.2303896e-30
3.8048372e-18
-7.6021113e-18
3.162053e-30
-4.2110402e-30
2.1014769e-30
3.7826102e-18
0
3.7719875e-18
3.767225e-18
0
0
0
0
0
-3.7443771e-18
-3.7399535e-18
0
3.7305482e-18
-3.7256146e-18
-6.1977496e-30
7.4312213e-18
0
0
0
-3.6989567e-18
-3.6953718e-18
3.6915119e-18
3.6872589e-18
-7.3653763e-18
-6.1277871e-30
7.3465011e-18
0
-7.328357e-18
-6.0964349e-30
3.6553442e-18
-3.6508579e-18
3.646362e-18
-3.6419615e-18
-2.0192245e-30
7.2674399e-18
0
0
-3.6214977e-18
-3.6171343e-18
0
-3.6082319e-18
-1.024269e-33
-3.5994835e-18
3.5951735e-18
1.0772551e-17
0
7.1641935e-18
7.1554847e-18
0
-1.0708246e-17
-7.130938e-18
7.1231053e-18
-3.557553e-18
-3.5534234e-18
1.0647533e-17
3.5448616e-18
5.0314137e-34
3.5362938e-18
-3.5321697e-18
-3.528186e-18
-3.5243081e-18
-1.8179198e-49
-3.5166173e-18
-3.5127024e-18
3.5087167e-18
0
7.0011666e-18
6.9929612e-18
0
-3.48831e-18
-6.9685248e-18
-1.9313051e-30
-3.4762555e-18
-6.9446018e-18
6.9367614e-18
6.9289763e-18
3.4606083e-18
3.4567231e-18
0
-3.448905e-18
-1.0334964e-17
3.4410885e-18
1.9725238e-47
-1.0300211e-17
6.859261e-18
3.4258754e-18
3.4221091e-18
6.8366225e-18
-6.8289208e-18
-3.4105438e-18
3.4065614e-18
3.4025205e-18
3.398436e-18
-1.0182995e-17
-3.3902403e-18
1.0158591e-17
3.3822268e-18
-3.378337e-18
-6.7490358e-18
3.370734e-18
-3.3669383e-18
5.599376e-30
-5.5948018e-30
-1.0065754e-17
3.351243e-18
3.3471975e-18
6.6862551e-18
3.3390413e-18
-6.6698845e-18
-9.466792e-34
-3.3267098e-18
3.3225807e-18
9.9553492e-18
-9.9429664e-18
-3.3102018e-18
9.9182689e-18
0
-9.8936486e-18
-3.2937833e-18
9.8690518e-18
-3.2855842e-18
-6.562964e-18
-1.8191907e-30
3.6333362e-30
3.2690973e-18
0
6.5214307e-18
6.5129882e-18
-3.2522676e-18
-3.2480464e-18
-6.4876714e-18
3.2396329e-18
3.2354283e-18
-6.4624184e-18
0
6.4453988e-18
6.4368391e-18
-3.2141436e-18
-6.4197742e-18
1.7793838e-30
3.2014539e-18
-6.3945291e-18
3.1930766e-18
-1.0620419e-29
-6.3693286e-18
3.1804347e-18
0
6.3438991e-18
0
-7.0247365e-30
-3.1592124e-18
-6.3099378e-18
9.452185e-18
-8.9428669e-34
-6.2845158e-18
0
6.2675887e-18
3.1295641e-18
-6.2506774e-18
3.4653678e-30
3.1169373e-18
-6.2255639e-18
3.1086616e-18
-5.1689171e-30
-6.2008915e-18
3.0962974e-18
-3.0921031e-18
6.1757214e-18
9.250737e-18
0
-9.2248924e-18
-6.141325e-18
9.1991327e-18
6.1242256e-18
-3.0578684e-18
-6.1072847e-18
3.0494309e-18
3.0452298e-18
-6.0820725e-18
3.0368512e-18
6.0653582e-18
-3.0285242e-18
4.2979107e-34
-6.0405099e-18
-6.0322344e-18
9.0358784e-18
-3.0077786e-18
-5.0025056e-30
8.998178e-18
0
-8.9732172e-18
-5.9738789e-18
2.9828055e-18
2.978659e-18
2.974505e-18
0
2.9662464e-18
-1.6442254e-30
-5.9161871e-18
1.639282e-30
2.949905e-18
0
2.9416529e-18
-5.8751316e-18
-8.8005655e-18
5.8590013e-18
8.7764033e-18
2.921395e-18
-2.9172793e-18
-5.8263031e-18
2.9090631e-18
-2.9050575e-18
-2.9011372e-18
5.7945084e-18
-5.7867101e-18
-2.8894263e-18
8.6564379e-18
5.763073e-18
-2.8776297e-18
-8.6213174e-18
6.3721374e-30
-6.3635846e-30
-2.8621912e-18
-3.1730877e-30
-2.8542667e-18
2.8502892e-18
2.8463522e-18
2.842476e-18
-2.8386535e-18
-2.8348568e-18
8.4931744e-18
-2.8272488e-18
-5.6468917e-18
8.4590327e-18
8.0034504e-34
-2.8122985e-18
5.6173052e-18
2.8049914e-18
0
-2.7976097e-18
-2.7939747e-18
-5.5809064e-18
2.787053e-18
-9.2709361e-30
-8.3406581e-18
2.7766194e-18
2.7729173e-18
2.7691832e-18
-2.7655105e-18
-2.7619762e-18
8.2758355e-18
-2.7553876e-18
-5.504463e-18
-4.5785816e-30
-2.745758e-18
5.48459e-18
8.2160186e-18
1.517717e-30
-1.5160362e-30
-3.8761323e-34
-2.7241137e-18
-5.4416864e-18
-2.7177472e-18
8.144177e-18
-3.0103508e-30
-5.4169272e-18
0
0
2.6982844e-18
-1.4958538e-30
1.4935918e-30
2.6880971e-18
-5.369342e-18
-2.6811601e-18
-2.9717477e-30
2.6739502e-18
8.0111433e-18
2.6669371e-18
0
0
0
-7.9634086e-18
-5.3024929e-18
7.9436125e-18
-2.9363906e-30
-5.2814899e-18
0
0
5.2597411e-18
-5.8313644e-30
-2.9111347e-30
5.2391033e-18
-2.6161235e-18
-5.2253046e-18
-5.2182985e-18
2.6056473e-18
7.8065533e-18
2.598791e-18
0
0
0
-7.7560929e-18
-5.1636338e-18
7.7345081e-18
-5.716069e-30
-2.5707155e-18
3.6479227e-34
-2.5633193e-18
5.1193537e-18
-2.8376078e-30
-2.5524356e-18
5.0976454e-18
0
-1.4111759e-30
-5.0762801e-18
-5.0693124e-18
7.5935067e-18
5.0552742e-18
-2.5240418e-18
-1.398644e-30
2.5166573e-18
-7.5386765e-18
-5.0182121e-18
2.5053201e-18
2.5015509e-18
-2.4978067e-18
-2.4940831e-18
2.4903636e-18
2.4866284e-18
-1.378182e-30
1.3757394e-30
2.475355e-18
0
2.467932e-18
-4.9284634e-18
-7.3815445e-18
4.9135459e-18
4.9060123e-18
2.4492161e-18
-2.7144159e-30
-4.8830846e-18
2.437647e-18
-2.4337278e-18
-2.4298144e-18
4.8518622e-18
-4.8441619e-18
-2.4182459e-18
2.4144025e-18
4.8210816e-18
2.4066697e-18
-4.8056118e-18
1.330921e-30
-2.3951102e-18
-2.3912431e-18
7.161969e-18
-2.3833411e-18
-2.3793244e-18
7.1259587e-18
-3.3699055e-34
-7.1023302e-18
-2.3635321e-18
7.0787321e-18
-2.3555525e-18
-2.1188216e-47
-3.9082646e-30
-4.6866956e-18
4.6787726e-18
4.6709601e-18
-2.3315661e-18
2.5839741e-30
4.6470657e-18
-2.319439e-18
-6.9460316e-18
-2.3112766e-18
2.3072449e-18
0
2.2992521e-18
4.5905589e-18
-3.2561531e-34
-6.8619798e-18
-2.283289e-18
4.558395e-18
-3.2330741e-34
-4.5419149e-18
4.5337898e-18
-3.7689277e-30
-4.518087e-18
6.7655485e-18
4.5025048e-18
0
0
-2.2388526e-18
-6.7040009e-18
-2.2305721e-18
6.6798248e-18
-2.4676058e-30
-4.4379409e-18
4.4303302e-18
4.422619e-18
-2.2073697e-18
-4.4067085e-18
2.1992983e-18
2.1952335e-18
-6.5735678e-18
-2.1871849e-18
-3.6361865e-30
1.2090544e-30
2.1753684e-18
-2.1714198e-18
4.3348634e-18
6.4902249e-18
0
-6.466198e-18
-4.3030546e-18
6.4433931e-18
-6.0940795e-34
-2.1405207e-18
4.2736055e-18
-2.1329903e-18
-2.1290977e-18
-2.3592557e-30
2.1212325e-18
4.2346627e-18
-2.1134702e-18
-4.2192764e-18
-4.211628e-18
2.3341124e-30
2.0981242e-18
-2.0942679e-18
4.1808849e-18
6.2600701e-18
0
-6.2383173e-18
-4.1516522e-18
6.2164526e-18
-2.2968252e-30
-2.06459e-18
2.0607646e-18
2.0569572e-18
-1.1390904e-30
-4.0988975e-18
1.135534e-30
4.0839803e-18
-2.2624436e-30
-2.2582232e-30
-4.0612046e-18
-6.0804015e-18
4.046068e-18
-2.2423198e-30
-6.7124083e-30
2.0119584e-18
2.00825e-18
4.0090041e-18
-6.0021776e-18
-1.9969398e-18
3.9863374e-18
-3.9788703e-18
-1.1287666e-33
5.9462446e-18
1.978397e-18
-1.9746755e-18
-5.9127594e-18
6.5520382e-30
3.926729e-18
1.9596148e-18
-3.9118206e-18
-5.8567375e-18
5.8457646e-18
1.9449019e-18
2.1544515e-30
1.9374256e-18
-3.8673152e-18
1.0712415e-30
-1.9261828e-18
1.9225186e-18
-6.3918548e-30
-5.7457199e-18
5.734678e-18
5.7235265e-18
0
0
0
-1.8929501e-18
-5.6680126e-18
-1.8857399e-18
-2.0894276e-30
-1.8784348e-18
5.6241678e-18
1.870989e-18
-1.867267e-18
-1.8635953e-18
-1.8599955e-18
3.7128795e-18
-1.852869e-18
1.849252e-18
-6.1466436e-30
-3.6837641e-18
5.5145113e-18
3.6689965e-18
0
-3.6547649e-18
-2.0247825e-30
1.820326e-18
-5.4501304e-18
-1.8130435e-18
1.8093496e-18
0
0
1.7985668e-18
3.5902259e-18
-3.9779513e-30
-3.5761269e-18
-1.784431e-18
1.7807481e-18
-1.7770653e-18
1.7734456e-18
1.7876366e-47
-2.9421447e-30
5.2892596e-18
0
0
-3.5046239e-18
-3.4972284e-18
-1.7449631e-18
1.9329996e-30
5.2140438e-18
-1.9262119e-30
-3.4623909e-18
0
3.4479479e-18
1.7202622e-18
-3.4331418e-18
1.7129855e-18
1.7095577e-18
-5.118663e-18
1.7028266e-18
-5.6594504e-30
-3.3913107e-18
5.0757782e-18
3.3763819e-18
0
0
0
-5.0232052e-18
-3.3418491e-18
5.0018594e-18
3.3270672e-18
0
-3.312019e-18
1.8344812e-30
1.6491176e-18
-3.2916919e-18
1.6424332e-18
-1.638814e-18
-1.635035e-18
4.8935333e-18
-3.2547375e-18
-3.247482e-18
1.6203725e-18
-1.617148e-18
3.2276143e-18
4.8306679e-18
0
-4.8075608e-18
-3.1972834e-18
1.5949376e-18
1.5915081e-18
-1.7632363e-30
1.5850028e-18
-5.2679223e-30
-1.5777015e-18
-8.7379687e-31
-7.4842827e-49
1.5660683e-18
0
1.5591997e-18
-3.1119834e-18
-4.6578176e-18
4.6467717e-18
4.634975e-18
0
-3.0740683e-18
-3.0668363e-18
3.0603007e-18
-1.5269881e-18
-1.5235741e-18
4.5594848e-18
-3.031775e-18
-3.0238467e-18
1.5080924e-18
3.008965e-18
1.5010955e-18
-4.4933686e-18
-1.4943486e-18
-2.4823213e-30
2.9736536e-18
8.4292774e-34
-4.4370209e-18
2.9505589e-18
4.4153867e-18
1.4684736e-18
-4.3951428e-18
-2.9226968e-18
4.3722541e-18
-3.2274156e-30
-2.8989525e-18
-1.4457378e-18
8.0054047e-31
2.8776105e-18
-1.5933918e-30
1.4315636e-18
1.4276428e-18
-4.2708605e-18
-1.4196049e-18
-1.5716078e-30
2.823695e-18
-4.689856e-30
-4.2138458e-18
2.8020225e-18
-1.5518946e-30
-1.5478152e-30
-3.0844859e-30
-1.384952e-18
4.1429873e-18
-1.377202e-18
-2.2867397e-30
-4.5612926e-30
-4.0963402e-18
1.3611937e-18
2.7139135e-18
-1.5018683e-30
1.3489248e-18
1.3450952e-18
-2.6822766e-18
-2.6738622e-18
1.4791283e-30
3.9842829e-18
-1.4691493e-30
-1.3194264e-18
2.6304241e-18
-1.3110434e-18
-1.3068537e-18
7.2264292e-31
-7.2052006e-31
1.293402e-18
-2.5773797e-18
1.2840297e-18
-4.2619844e-30
-4.2465406e-30
3.8120597e-18
-2.5323117e-18
3.5850353e-34
2.5128452e-18
-1.2514715e-18
-3.739959e-18
-1.242028e-18
3.712493e-18
-1.3686074e-30
-1.2278221e-18
2.445214e-18
-2.434701e-18
-6.0568426e-30
1.2072335e-18
-1.2023641e-18
1.1974481e-18
-2.3847371e-18
1.187103e-18
3.5450407e-18
0
0
-2.3303773e-18
-3.2963949e-34
2.3090235e-18
-1.1492021e-18
-3.4311988e-18
-1.1380152e-18
3.3963588e-18
3.2008714e-34
1.2438271e-30
2.2295837e-18
-3.327785e-18
-5.5135054e-30
1.0976189e-18
-1.091392e-18
-1.0850974e-18
1.1983776e-30
1.072937e-18
-2.1341422e-18
2.1222289e-18
-3.5133697e-30
-2.0970054e-18
3.125845e-18
2.0707202e-18
-1.028815e-18
-3.0670103e-18
-1.015904e-18
1.0094904e-18
0
-9.9641107e-19
9.8956509e-19
2.9476818e-18
5.4150114e-31
-1.9372792e-18
9.6188262e-19
9.5517385e-19
-1.8966193e-18
9.4117496e-19
-9.3383613e-19
-1.85292e-18
2.7575344e-18
-3.0373727e-30
2.0092886e-30
1.7952485e-18
-1.7805491e-18
-8.8277476e-19
-8.7512238e-19
-9.6362245e-31
8.5952504e-19
-1.7035659e-18
1.6883365e-18
2.509837e-18
0
-8.2111068e-19
4.5131779e-31
2.2877856e-34
-2.390394e-18
-7.8868382e-19
2.3418355e-18
-7.7257179e-19
-4.1947712e-47
2.2690965e-18
-7.4799895e-19
-2.2182372e-18
-7.3070596e-19
1.4440636e-18
-7.1348852e-19
7.0505823e-19
-2.3200292e-30
-1.3760191e-18
2.0377675e-18
7.4465931e-31
-2.9381933e-30
1.3053901e-18
-1.2874374e-18
-7.045334e-31
6.2548536e-19
-1.2327899e-18
-6.0739627e-19
0
0
1.1603754e-18
-1.2674864e-30
-3.1913997e-34
-6.1275661e-31
-5.4245255e-19
-5.3294524e-19
5.2345456e-19
5.1398474e-19
-1.0090443e-18
9.9007951e-19
-5.3897425e-31
-9.5169251e-19
9.3216691e-19
1.5195792e-30
-4.9566894e-31
4.3677127e-19
-8.5411326e-19
4.1725434e-19
-9.0437593e-31
-7.9457051e-19
0
7.5444459e-19
3.6726643e-19
-7.1465328e-19
-3.4737124e-19
3.3736971e-19
-5.4510214e-31
-3.171263e-19
0
0
5.735402e-19
5.533857e-19
0
-5.1248826e-19
-2.4595376e-19
2.3573212e-19
-2.2560286e-19
2.1550742e-19
0
-3.9024047e-19
0
0
1.6395619e-19
-1.7069076e-31
-1.4370734e-19
0
1.2354552e-19
6.2879279e-32
-1.029207e-19
0
1.6455117e-19
1.4431963e-19
-6.2152553e-20
-5.787189e-32
4.2047875e-20
-6.3803827e-20
-4.3238793e-20
2.2718823e-20
3.6780776e-37
-1.9344728e-32
-5.3035952e-36
5.7111106e-20
-3.8471686e-20
5.3734906e-32
-5.8310344e-20
6.8206993e-20
2.3437649e-19
-2.6412069e-19
-9.7857895e-20
1.0751406e-19
1.2998019e-31
1.2676058e-19
-2.7300763e-19
-2.9244139e-19
3.1163729e-19
5.5052164e-31
1.7479305e-19
1.8427231e-19
-3.8743333e-19
2.0311538e-19
-2.3584336e-31
1.2316184e-31
-2.3100873e-19
-4.8042869e-19
4.9880907e-19
5.1708909e-19
0
-2.7652778e-19
-3.1689057e-31
5.8873825e-19
3.3668728e-31
-9.364907e-19
-6.419699e-19
0
6.76666e-19
7.7014935e-31
3.5545716e-19
3.6396509e-19
-1.1173109e-18
2.113546e-31
7.7843411e-19
-3.9747404e-19
-8.1134023e-19
4.1385007e-19
8.4401271e-19
4.3010243e-19
0
-8.9209838e-19
4.5394727e-19
1.3853395e-18
-4.6952849e-19
-4.7722556e-19
-9.6975591e-19
-4.9247284e-19
1.0000384e-18
5.0751945e-19
5.1494932e-19
-5.7981715e-31
-5.2955184e-19
-5.3677141e-19
-1.0878682e-18
-5.5104244e-19
0
0
0
1.1577654e-18
1.1712998e-18
-1.1847946e-18
-6.6510001e-31
-6.724614e-31
6.7953797e-31
1.3739459e-30
-1.2503041e-18
0
1.2756636e-18
6.4407548e-19
-6.502336e-19
6.563364e-19
6.6240025e-19
0
0
-1.3603494e-18
2.2845936e-30
1.5357798e-30
-1.3947685e-18
1.4060122e-18
1.4170921e-18
0
-1.4388671e-18
8.0441846e-31
1.4601357e-18
-1.4705729e-18
-8.2224151e-31
1.4911945e-18
0
-1.5113391e-18
-7.6061297e-19
1.5309879e-18
-7.7030938e-19
-1.7213203e-30
1.5595266e-18
-1.5687961e-18
-1.5779357e-18
0
0
0
1.6133904e-18
1.6219719e-18
-1.6304266e-18
0
1.6468547e-18
0
8.3144841e-19
-1.6707547e-18
-8.3924836e-19
8.4305894e-19
-1.6936213e-18
-8.5050906e-19
1.7083196e-18
8.5776451e-19
9.5631851e-31
-8.6482054e-19
1.9278033e-30
-4.9546931e-34
-1.7499084e-18
0
8.8140442e-19
1.7690858e-18
8.8762498e-19
0
0
0
8.9939044e-19
-1.8043786e-18
-9.0493044e-19
9.0761353e-19
9.1023823e-19
-9.1280415e-19
-9.1531094e-19
1.8355164e-18
0
-1.844945e-18
-1.8494773e-18
0
0
1.8623337e-18
1.0359767e-30
9.3513905e-19
9.3703003e-19
-9.3885718e-19
9.4062011e-19
-9.4231827e-19
-1.8879019e-18
-9.4551739e-19
0
1.8968967e-18
1.0541649e-30
-9.5110472e-19
9.5232791e-19
9.5348006e-19
1.9091208e-18
-1.9111366e-18
-9.5650318e-19
2.7209935e-34
-9.5815163e-19
1.917728e-18
-9.5950094e-19
9.6006173e-19
-1.0197278e-48
-9.6095217e-19
1.9225607e-18
-1.9230592e-18
-1.9233983e-18
0
9.617968e-19
1.9234472e-18
-5.3374339e-31
-9.613299e-19
-9.6100811e-19
1.9212043e-18
1.9202229e-18
-9.5953546e-19
-1.9177471e-18
-1.9162502e-18
9.5728957e-19
1.9127326e-18
-9.5535477e-19
9.5425452e-19
-1.5867999e-30
-9.5178653e-19
1.9008362e-18
-1.8979195e-18
-1.051501e-30
5.2500222e-30
-1.8880848e-18
1.8844444e-18
4.1755544e-30
-9.3831002e-19
1.8724358e-18
-9.3403497e-19
2.6482246e-34
-4.1270859e-30
-9.2694144e-19
1.8487919e-18
-2.0465881e-30
5.1000353e-31
-9.1621942e-19
2.5957961e-34
1.820641e-18
-1.8144759e-18
-5.1390281e-34
4.0001423e-30
-1.7949301e-18
1.7880684e-18
1.9772194e-30
-1.7738311e-18
8.8322924e-19
8.7945949e-19
8.7560727e-19
-8.7167331e-19
9.632327e-31
1.7271263e-18
0
0
-1.7016081e-18
-2.4056044e-34
1.6838282e-18
-8.3735704e-19
9.2421604e-31
-8.280227e-19
-1.8278594e-30
1.636803e-18
0
8.0850324e-19
-1.6069064e-18
-7.9833728e-19
1.7612735e-30
-7.8791136e-19
1.5652078e-18
-7.7723528e-19
8.5660367e-31
1.5326407e-18
0
0
-7.4952225e-19
4.1287327e-31
-7.3805356e-19
7.3224259e-19
2.1791475e-18
-2.1614237e-18
-7.1452005e-19
1.4170404e-18
-7.0247633e-19
-1.159549e-30
-6.9026246e-19
3.8886319e-34
2.2578756e-30
-6.7164794e-19
1.3307409e-18
6.5905905e-19
0
6.4634096e-19
-6.3993732e-19
-6.3350591e-19
-6.270482e-19
1.3778444e-30
-6.815253e-31
6.742808e-31
1.2019705e-18
-5.944195e-19
-9.787986e-31
1.1624765e-18
-8.16592e-35
-5.6800015e-19
-1.1227274e-18
-1.1094356e-18
1.0961279e-18
6.0134789e-31
5.3473775e-19
5.280682e-19
-1.0427927e-18
1.0294477e-18
5.0805245e-19
-1.5041513e-18
-9.8943885e-19