/*--------------------------------*- C++ -*----------------------------------*\
  =========                 |
  \\      /  F ield         | OpenFOAM: The Open Source CFD Toolbox
   \\    /   O peration     | Website:  https://openfoam.org
    \\  /    A nd           | Version:  7
     \\/     M anipulation  |
\*---------------------------------------------------------------------------*/
FoamFile
{
    version     2.0;
    format      ascii;
    class       volScalarField;
    location    "0.00038";
    object      T;
}
// * * * * * * * * * * * * * * * * * * * * * * * * * * * * * * * * * * * * * //

dimensions      [0 0 0 1 0 0 0];

internalField   nonuniform List<scalar> 
5000
(
287.46262
287.47691
287.48275
287.49465
287.50059
287.5125
287.51848
287.53047
287.53649
287.54827
287.55443
287.56633
287.57225
287.58407
287.59065
287.60136
287.60914
287.61881
287.62735
287.63651
287.64536
287.65435
287.66327
287.67222
287.68116
287.69011
287.69904
287.70798
287.71692
287.72585
287.73479
287.74372
287.75265
287.76158
287.77051
287.77944
287.78836
287.79729
287.80621
287.81513
287.82405
287.83297
287.84188
287.8508
287.85971
287.86862
287.87753
287.88644
287.89535
287.90425
287.91316
287.92206
287.93096
287.93986
287.94876
287.95765
287.96655
287.97544
287.98433
287.99323
288.00211
288.011
288.01989
288.02877
288.03766
288.04654
288.05542
288.0643
288.07318
288.08205
288.09093
288.0998
288.10868
288.11755
288.12642
288.13529
288.14415
288.15302
288.16189
288.17075
288.17961
288.18847
288.19733
288.20619
288.21505
288.22391
288.23277
288.24162
288.25047
288.25933
288.26818
288.27703
288.28588
288.29473
288.30358
288.31243
288.32127
288.33012
288.33896
288.34781
288.35665
288.3655
288.37434
288.38318
288.39202
288.40086
288.4097
288.41854
288.42738
288.43622
288.44505
288.45389
288.46272
288.47156
288.48039
288.48922
288.49805
288.50688
288.51571
288.52454
288.53337
288.5422
288.55102
288.55984
288.56867
288.57749
288.58631
288.59513
288.60394
288.61276
288.62157
288.63039
288.6392
288.64801
288.65682
288.66562
288.67443
288.68323
288.69203
288.70083
288.70963
288.71842
288.72722
288.73601
288.7448
288.75359
288.76237
288.77116
288.77994
288.78872
288.7975
288.80628
288.81505
288.82382
288.8326
288.84136
288.85013
288.8589
288.86766
288.87642
288.88518
288.89394
288.90269
288.91144
288.9202
288.92895
288.93769
288.94644
288.95518
288.96392
288.97266
288.9814
288.99014
288.99887
289.0076
289.01633
289.02506
289.03379
289.04251
289.05124
289.05996
289.06868
289.0774
289.08611
289.09483
289.10354
289.11225
289.12096
289.12966
289.13837
289.14707
289.15577
289.16447
289.17317
289.18187
289.19056
289.19925
289.20794
289.21663
289.22532
289.23401
289.24269
289.25137
289.26005
289.26873
289.27741
289.28608
289.29476
289.30343
289.3121
289.32077
289.32943
289.3381
289.34676
289.35542
289.36408
289.37274
289.38139
289.39005
289.3987
289.40735
289.416
289.42465
289.43329
289.44194
289.45058
289.45922
289.46786
289.47649
289.48513
289.49376
289.50239
289.51102
289.51965
289.52828
289.5369
289.54553
289.55415
289.56277
289.57139
289.58
289.58862
289.59723
289.60584
289.61445
289.62306
289.63166
289.64027
289.64887
289.65747
289.66607
289.67467
289.68326
289.69186
289.70045
289.70904
289.71763
289.72621
289.7348
289.74338
289.75197
289.76055
289.76912
289.7777
289.78628
289.79485
289.80342
289.81199
289.82056
289.82913
289.83769
289.84626
289.85482
289.86338
289.87193
289.88049
289.88905
289.8976
289.90615
289.9147
289.92325
289.93179
289.94034
289.94888
289.95742
289.96596
289.9745
289.98304
289.99157
290.0001
290.00864
290.01717
290.02569
290.03422
290.04274
290.05127
290.05979
290.06831
290.07682
290.08534
290.09385
290.10237
290.11088
290.11939
290.1279
290.1364
290.14491
290.15341
290.16191
290.17041
290.17891
290.1874
290.1959
290.20439
290.21288
290.22137
290.22986
290.23834
290.24683
290.25531
290.26379
290.27227
290.28075
290.28922
290.2977
290.30617
290.31464
290.32311
290.33158
290.34004
290.34851
290.35697
290.36543
290.37389
290.38235
290.39081
290.39926
290.40771
290.41616
290.42461
290.43306
290.44151
290.44995
290.4584
290.46684
290.47528
290.48371
290.49215
290.50058
290.50902
290.51745
290.52588
290.53431
290.54273
290.55116
290.55958
290.568
290.57642
290.58484
290.59326
290.60167
290.61008
290.6185
290.62691
290.63531
290.64372
290.65212
290.66053
290.66893
290.67733
290.68573
290.69412
290.70252
290.71091
290.71931
290.7277
290.73608
290.74447
290.75286
290.76124
290.76962
290.778
290.78638
290.79476
290.80313
290.81151
290.81988
290.82825
290.83662
290.84499
290.85335
290.86171
290.87008
290.87844
290.8868
290.89515
290.90351
290.91186
290.92022
290.92857
290.93692
290.94526
290.95361
290.96195
290.9703
290.97864
290.98698
290.99532
291.00365
291.01199
291.02032
291.02865
291.03698
291.04531
291.05363
291.06196
291.07028
291.0786
291.08692
291.09524
291.10356
291.11187
291.12019
291.1285
291.13681
291.14512
291.15342
291.16173
291.17003
291.17833
291.18663
291.19493
291.20323
291.21152
291.21982
291.22811
291.2364
291.24469
291.25298
291.26126
291.26955
291.27783
291.28611
291.29439
291.30266
291.31094
291.31921
291.32749
291.33576
291.34403
291.35229
291.36056
291.36882
291.37709
291.38535
291.39361
291.40187
291.41012
291.41838
291.42663
291.43488
291.44313
291.45138
291.45962
291.46787
291.47611
291.48435
291.49259
291.50083
291.50907
291.5173
291.52554
291.53377
291.542
291.55023
291.55845
291.56668
291.5749
291.58312
291.59134
291.59956
291.60778
291.61599
291.62421
291.63242
291.64063
291.64884
291.65705
291.66525
291.67346
291.68166
291.68986
291.69806
291.70626
291.71445
291.72265
291.73084
291.73903
291.74722
291.75541
291.7636
291.77178
291.77997
291.78815
291.79633
291.80451
291.81269
291.82086
291.82904
291.83721
291.84538
291.85355
291.86172
291.86988
291.87805
291.88621
291.89437
291.90253
291.91069
291.91885
291.92701
291.93516
291.94331
291.95146
291.95961
291.96776
291.97591
291.98405
291.99219
292.00034
292.00848
292.01661
292.02475
292.03288
292.04102
292.04915
292.05728
292.0654
292.07353
292.08165
292.08977
292.09789
292.10601
292.11412
292.12223
292.13034
292.13845
292.14656
292.15466
292.16275
292.17085
292.17894
292.18703
292.19512
292.2032
292.21127
292.21935
292.22742
292.23548
292.24354
292.25159
292.25964
292.26768
292.27572
292.28375
292.29177
292.29979
292.3078
292.3158
292.32379
292.33178
292.33975
292.34771
292.35567
292.36361
292.37154
292.37946
292.38737
292.39526
292.40314
292.411
292.41885
292.42668
292.43449
292.44229
292.45007
292.45783
292.46557
292.47328
292.48098
292.48865
292.49629
292.50392
292.51151
292.51908
292.52662
292.53413
292.54161
292.54905
292.55647
292.56385
292.57119
292.5785
292.58577
292.593
292.6002
292.60735
292.61445
292.62152
292.62853
292.63551
292.64243
292.6493
292.65613
292.6629
292.66962
292.67628
292.68289
292.68944
292.69594
292.70237
292.70875
292.71506
292.72131
292.7275
292.73362
292.73967
292.74566
292.75157
292.75742
292.7632
292.76891
292.77454
292.7801
292.78559
292.791
292.79634
292.8016
292.80678
292.81188
292.81691
292.82186
292.82673
292.83151
292.83622
292.84085
292.8454
292.84986
292.85425
292.85855
292.86277
292.86691
292.87097
292.87494
292.87884
292.88265
292.88638
292.89003
292.89361
292.8971
292.90051
292.90384
292.90709
292.91027
292.91337
292.91639
292.91933
292.9222
292.925
292.92772
292.93036
292.93294
292.93544
292.93787
292.94024
292.94253
292.94476
292.94692
292.94902
292.95105
292.95302
292.95493
292.95677
292.95856
292.96028
292.96195
292.96357
292.96513
292.96663
292.96809
292.96949
292.97084
292.97214
292.97339
292.9746
292.97576
292.97688
292.97796
292.97899
292.97999
292.98094
292.98186
292.98273
292.98358
292.98438
292.98516
292.9859
292.98661
292.98729
292.98794
292.98856
292.98915
292.98972
292.99026
292.99077
292.99127
292.99173
292.99218
292.99261
292.99301
292.9934
292.99377
292.99412
292.99445
292.99476
292.99506
292.99535
292.99562
292.99587
292.99611
292.99634
292.99656
292.99677
292.99696
292.99714
292.99732
292.99748
292.99764
292.99779
292.99792
292.99805
292.99818
292.99829
292.9984
292.9985
292.9986
292.99869
292.99878
292.99886
292.99893
292.99901
292.99907
292.99913
292.99919
292.99925
292.9993
292.99935
292.99939
292.99943
292.99947
292.99951
292.99955
292.99958
292.99961
292.99964
292.99966
292.99969
292.99971
292.99973
292.99975
292.99977
292.99979
292.9998
292.99982
292.99983
292.99984
292.99986
292.99987
292.99988
292.99989
292.9999
292.9999
292.99991
292.99992
292.99992
292.99993
292.99994
292.99994
292.99995
292.99995
292.99995
292.99996
292.99996
292.99996
292.99997
292.99997
292.99997
292.99997
292.99998
292.99998
292.99998
292.99998
292.99998
292.99999
292.99999
292.99999
292.99999
292.99999
292.99999
292.99999
292.99999
292.99999
292.99999
292.99999
292.99999
293
293
293
293
293
293
293
293
293
293
293
293
293
293
293
293
293
293
293
293
293
293
293
293
293
293
293
293
293
293
293
293
293
293
293
293
293
293
293
293
293
293
293
293
293
293
293
293
293
293
293
293
293
293
293
293
293
293
293
293
293
293
293
293
293
293
293
293
293
293
293
293
293
293
293
293
293
293
293
293
293
293
293
293
293
293
293
293
293
293
293
293
293
293
293
293
293
293
293
293
293
293
293
293
293
293
293
293
293
293
293
293
293
293
293
293
293
293
293
293
293
293
293
293
293
293
293
293
293
293
293
293
293
293
293
293
293
293
293
293
293
293
293
293
293
293
293
293
293
293
293
293
293
293
293
293
293
293
293
293
293
293
293
293
293
293
293
293
293
293
293
293
293
293
293
293
293
293
293
293
293
293
293
293
293
293
293
293
293
293
293
293
293
293
293
293
293
293
293
293
293
293
293
293
293
293
293
293
293
293
293
293
293
293
293
293
293
293
293
293
293
293
293
293
293
293
293
293
293
293
293
293
293
293
293
293
293
293
293
293
293
293
293
293
293
293
293
293
293
293
293
293
293
293
293
293
293
293
293
293
293
293
293
293
293
293
293
293
293
293
293
293
293
293
293
293
293
293
293
293
293
293
293
293
293
293
293
293
293
293
293
293
293
293
293
293
293
293
293
293
293
293
293
293
293
293
293
293
293
293
293
293
293
293
293
293
293
293
293
293
293
293
293
293
293
293
293
293
293
293
293
293
293
293
293
293
293
293
293
293
293
293
293
293
293
293
293
293
293
293
293
293
293
293
293
293
293
293
293
293
293
293
293
293
293
293
293
293
293
293
293
293
293
293
293
293
293
293
293
293
293
293
293
293
293
293
293
293
293
293
293
293
293
293
293
293
293
293
293
293
293
293
293
293
293
293
293
293
293
293
293
293
293
293
293
293
293
293
293
293
293
293
293
293
293
293
293
293
293
293
293
293
293
293
293
293
293
293
293
293
293
293
293
293
293
293
293
293
293
293
293
293
293
293
293
293
293
293
293
293
293
293
293
293
293
293
293
293
293
293
293
293
293
293
293
293
293
293
293
293
293
293
293
293
293
293
293
293
293
293
293
293
293
293
293
293
293
293
293
293
293
293
293
293
293
293
293
293
293
293
293
293
293
293
293
293
293
293
293
293
293
293
293
293
293
293
293
293
293
293
293
293
293
293
293
293
293
293
293
293
293
293
293
293
293
293
293
293
293
293
293
293
293
293
293
293
293
293
293
293
293
293
293
293
293
293
293
293
293
293
293
293
293
293
293
293
293
293
293
293
293
293
293
293
293
293
293
293
293
293
293
293
293
293
293
293
293
293
293
293
293
293
293
293
293
293
293
293
293
293
293
293
293
293
293
293
293
293
293
293
293
293
293
293
293
293
293
293
293
293
293
293
293
293
293
293
293
293
293
293
293
293
293
293
293
293
293
293
293
293
293
293
293
293
293
293
293
293
293
293
293
293
293
293
293
293
293
293
293
293
293
293
293
293
293
293
293
293
293
293
293
293
293
293
293
293
293
293
293
293
293
293
293
293
293
293
293
293
293
293
293
293
293
293
293
293
293
293
293
293
293
293
293
293
293
293
293
293
293
293
293
293
293
293
293
293
293
293
293
293
293
293
293
293
293
293
293
293
293
293
293
293
293
293
293
293
293
293
293
293
293
293
293
293
293
293
293
293
293
293
293
293
293
293
293
293
293
293
293
293
293
293
293
293
293
293
293
293
293
293
293
293
293
293
293
293
293
293
293
293
293
293
293
293
293
293
293
293
293
293
293
293
293
293
293
293
293
293
293
293
293
293
293
293
293
293
293
293
293
293
293
293
293
293
293
293
293
293
292.99999
292.99999
292.99999
292.99999
292.99999
292.99999
292.99999
292.99999
292.99999
292.99999
292.99999
292.99998
292.99998
292.99998
292.99998
292.99998
292.99997
292.99997
292.99997
292.99996
292.99996
292.99996
292.99995
292.99995
292.99994
292.99994
292.99993
292.99992
292.99991
292.99991
292.9999
292.99989
292.99988
292.99986
292.99985
292.99984
292.99982
292.9998
292.99978
292.99976
292.99974
292.99972
292.99969
292.99966
292.99963
292.9996
292.99956
292.99952
292.99948
292.99943
292.99938
292.99932
292.99926
292.9992
292.99913
292.99905
292.99897
292.99888
292.99879
292.99868
292.99857
292.99845
292.99832
292.99817
292.99802
292.99786
292.99768
292.99749
292.99729
292.99706
292.99683
292.99657
292.9963
292.99601
292.99569
292.99535
292.99499
292.9946
292.99418
292.99374
292.99326
292.99275
292.9922
292.99162
292.99099
292.99033
292.98962
292.98886
292.98805
292.98719
292.98627
292.9853
292.98426
292.98315
292.98198
292.98073
292.9794
292.978
292.9765
292.97492
292.97324
292.97146
292.96958
292.96759
292.96548
292.96325
292.96089
292.9584
292.95578
292.953
292.95008
292.947
292.94375
292.94033
292.93673
292.93294
292.92896
292.92477
292.92038
292.91576
292.91092
292.90583
292.90051
292.89493
292.88908
292.88296
292.87656
292.86987
292.86287
292.85557
292.84794
292.83998
292.83167
292.82301
292.81399
292.8046
292.79482
292.78464
292.77406
292.76306
292.75164
292.73977
292.72746
292.71469
292.70145
292.68772
292.67351
292.65879
292.64357
292.62782
292.61153
292.59471
292.57733
292.55939
292.54089
292.5218
292.50212
292.48185
292.46097
292.43948
292.41736
292.39462
292.37124
292.34721
292.32254
292.29721
292.27122
292.24456
292.21723
292.18922
292.16053
292.13115
292.10109
292.07034
292.03889
292.00674
291.9739
291.94036
291.90612
291.87117
291.83553
291.79919
291.76215
291.72441
291.68598
291.64686
291.60705
291.56655
291.52537
291.48352
291.44099
291.3978
291.35395
291.30944
291.26429
291.21849
291.17206
291.12501
291.07735
291.02908
290.98021
290.93076
290.88073
290.83013
290.77898
290.72729
290.67507
290.62233
290.56908
290.51535
290.46113
290.40646
290.35133
290.29577
290.23979
290.1834
290.12663
290.06948
290.01198
289.95413
289.89597
289.8375
289.77874
289.71971
289.66043
289.60092
289.54119
289.48127
289.42117
289.36091
289.30052
289.24
289.17939
289.1187
289.05795
288.99717
288.93637
288.87557
288.8148
288.75407
288.69341
288.63284
288.57238
288.51205
288.45187
288.39186
288.33205
288.27246
288.21311
288.15401
288.0952
288.03668
287.9785
287.92065
287.86318
287.80608
287.7494
287.69315
287.63734
287.582
287.52716
287.47282
287.419
287.36574
287.31304
287.26093
287.20941
287.15852
287.10827
287.05866
287.00973
286.96148
286.91394
286.86711
286.82101
286.77565
286.73105
286.68721
286.64416
286.60189
286.56042
286.51977
286.47993
286.44091
286.40273
286.36538
286.32888
286.29323
286.25842
286.22447
286.19137
286.15913
286.12775
286.09722
286.06754
286.03872
286.01073
285.9836
285.95729
285.93182
285.90718
285.88334
285.86032
285.83809
285.81665
285.79599
285.77609
285.75695
285.73854
285.72087
285.7039
285.68764
285.67206
285.65714
285.64288
285.62926
285.61625
285.60385
285.59203
285.58079
285.57009
285.55993
285.55029
285.54115
285.53249
285.5243
285.51655
285.50923
285.50233
285.49583
285.4897
285.48394
285.47853
285.47344
285.46868
285.46422
285.46004
285.45614
285.4525
285.4491
285.44593
285.44299
285.44025
285.43771
285.43535
285.43316
285.43114
285.42927
285.42754
285.42595
285.42448
285.42313
285.42189
285.42075
285.41971
285.41875
285.41788
285.41708
285.41635
285.41568
285.41508
285.41453
285.41403
285.41358
285.41317
285.4128
285.41246
285.41216
285.41189
285.41165
285.41143
285.41123
285.41106
285.4109
285.41076
285.41064
285.41053
285.41043
285.41035
285.41027
285.41021
285.41015
285.4101
285.41006
285.41002
285.40999
285.40996
285.40994
285.40993
285.40991
285.4099
285.40989
285.40989
285.40989
285.40989
285.40989
285.40988
285.40988
285.40988
285.40988
285.40988
285.40988
285.40986
285.40986
285.40986
285.40985
285.40985
285.40984
285.40984
285.40983
285.40982
285.40982
285.40982
285.40981
285.40981
285.4098
285.40979
285.40979
285.40979
285.40978
285.40978
285.40978
285.40978
285.40977
285.40976
285.40977
285.40977
285.40977
285.40977
285.40977
285.40977
285.40977
285.40977
285.40977
285.40977
285.40978
285.40978
285.40978
285.40978
285.40978
285.40978
285.40978
285.40978
285.40979
285.40979
285.40979
285.40978
285.40978
285.40978
285.40979
285.40979
285.4098
285.40981
285.40981
285.40981
285.4098
285.4098
285.40981
285.40982
285.40981
285.40981
285.40982
285.40982
285.40983
285.40983
285.40983
285.40984
285.40985
285.40986
285.40987
285.40987
285.40988
285.40988
285.40989
285.4099
285.40991
285.40992
285.40992
285.40992
285.40992
285.40992
285.40991
285.40991
285.40993
285.40994
285.40995
285.40995
285.40996
285.40996
285.40997
285.40998
285.40999
285.41
285.41001
285.41002
285.41003
285.41004
285.41004
285.41005
285.41005
285.41005
285.41006
285.41007
285.41008
285.41009
285.41009
285.41011
285.41012
285.41013
285.41014
285.41015
285.41016
285.41017
285.41019
285.4102
285.41022
285.41023
285.41024
285.41025
285.41025
285.41026
285.41027
285.41028
285.4103
285.41032
285.41034
285.41036
285.41037
285.41038
285.41038
285.41039
285.41039
285.4104
285.41041
285.41042
285.41044
285.41045
285.41046
285.41047
285.41049
285.41051
285.41052
285.41053
285.41055
285.41056
285.41057
285.41058
285.4106
285.41062
285.41064
285.41065
285.41066
285.41068
285.41071
285.41073
285.41076
285.41078
285.41079
285.4108
285.41081
285.41082
285.41083
285.41085
285.41087
285.4109
285.41092
285.41095
285.41097
285.41098
285.41099
285.411
285.41101
285.41103
285.41105
285.41106
285.41108
285.41111
285.41113
285.41115
285.41116
285.41118
285.4112
285.41121
285.41122
285.41123
285.41125
285.41127
285.4113
285.41131
285.41133
285.41135
285.41137
285.41139
285.41142
285.41143
285.41144
285.41145
285.41147
285.41149
285.41151
285.41154
285.41156
285.41157
285.41159
285.41161
285.41162
285.41164
285.41167
285.4117
285.41172
285.41174
285.41175
285.41177
285.41179
285.41182
285.41185
285.41187
285.41189
285.41191
285.41193
285.41194
285.41197
285.412
285.41202
285.41205
285.41206
285.41208
285.41211
285.41213
285.41216
285.41219
285.41222
285.41224
285.41226
285.41229
285.41232
285.41235
285.41237
285.41238
285.41241
285.41243
285.41245
285.41247
285.4125
285.41253
285.41256
285.41258
285.41261
285.41263
285.41266
285.41269
285.41271
285.41274
285.41277
285.4128
285.41284
285.41286
285.41288
285.41291
285.41294
285.41297
285.41301
285.41303
285.41306
285.41309
285.41313
285.41316
285.41319
285.4132
285.41322
285.41324
285.41327
285.41331
285.41334
285.41336
285.41339
285.41342
285.41344
285.41348
285.41352
285.41355
285.41359
285.41362
285.41365
285.41367
285.41371
285.41373
285.41376
285.41379
285.41383
285.41386
285.4139
285.41394
285.41398
285.41402
285.41406
285.41409
285.41412
285.41415
285.41419
285.41422
285.41426
285.4143
285.41433
285.41437
285.41441
285.41445
285.41449
285.41453
285.41457
285.41462
285.41466
285.4147
285.41474
285.41477
285.41481
285.41485
285.41489
285.41494
285.41498
285.41503
285.41507
285.41512
285.41516
285.4152
285.41525
285.4153
285.41535
285.41541
285.41546
285.41551
285.41555
285.41559
285.41563
285.41568
285.41574
285.4158
285.41585
285.4159
285.41594
285.41598
285.41604
285.4161
285.41615
285.4162
285.41625
285.41631
285.41636
285.41641
285.41647
285.41653
285.4166
285.41667
285.41673
285.4168
285.41685
285.41691
285.41697
285.41703
285.4171
285.41715
285.41722
285.41727
285.41734
285.41741
285.4175
285.41758
285.41766
285.41773
285.4178
285.41787
285.41794
285.41801
285.41808
285.41816
285.41824
285.41833
285.41842
285.41851
285.41859
285.41867
285.41875
285.41883
285.41891
285.41899
285.41908
285.41918
285.41927
285.41937
285.41946
285.41955
285.41965
285.41975
285.41985
285.41995
285.42006
285.42017
285.42029
285.42041
285.42053
285.42064
285.42076
285.42087
285.42098
285.42109
285.4212
285.42131
285.42143
285.42154
285.42166
285.42178
285.42191
285.42203
285.42216
285.42227
285.42238
285.42249
285.4226
285.42272
285.42284
285.42296
285.42306
285.42314
285.42321
285.42327
285.42333
285.42338
285.42344
285.42349
285.42354
285.42357
285.42359
285.4236
285.42361
285.42361
285.4236
285.42359
285.42355
285.4235
285.42345
285.4234
285.42334
285.42328
285.42323
285.42319
285.42316
285.42314
285.42313
285.42313
285.42314
285.42316
285.42322
285.42336
285.42353
285.42372
285.42394
285.42419
285.42448
285.42479
285.42511
285.42541
285.42569
285.42596
285.42622
285.42647
285.42673
285.42699
285.42728
285.42758
285.42789
285.42819
285.42847
285.42871
285.42889
285.429
285.42907
285.42909
285.42909
285.42909
285.42909
285.42909
285.42912
285.42923
285.42941
285.42954
285.42962
285.42973
285.42996
285.43049
285.4319
285.43582
285.44682
285.47738
285.56103
285.78779
286.38772
287.85236
289.83006
291.8895
293.85373
295.59426
297.0425
298.18274
299.03707
299.64885
300.06891
300.34604
300.52192
300.62927
300.69215
300.72734
300.74596
300.75507
300.75899
300.76023
300.76031
300.7599
300.75855
300.75689
300.75523
300.75354
300.75181
300.75009
300.7484
300.74679
300.74529
300.74394
300.74277
300.74177
300.74095
300.74027
300.7397
300.73922
300.73878
300.73837
300.73798
300.73758
300.73719
300.7368
300.73642
300.73604
300.73567
300.73531
300.73496
300.73463
300.73431
300.73401
300.73371
300.73341
300.7331
300.73277
300.73242
300.73204
300.73163
300.73119
300.73072
300.73021
300.72968
300.72912
300.72856
300.72799
300.72742
300.72686
300.72631
300.72578
300.72527
300.72479
300.72433
300.72391
300.72352
300.72315
300.7228
300.72246
300.72214
300.72184
300.72155
300.72128
300.72103
300.7208
300.72059
300.72039
300.72019
300.72
300.71982
300.71963
300.71946
300.71929
300.71913
300.71896
300.71881
300.71865
300.71849
300.71834
300.7182
300.71806
300.71792
300.71779
300.71767
300.71754
300.71741
300.71729
300.71717
300.71705
300.71694
300.71682
300.71671
300.7166
300.7165
300.71639
300.71628
300.71616
300.71605
300.71595
300.71585
300.71576
300.71567
300.71558
300.71548
300.71539
300.7153
300.71521
300.71512
300.71504
300.71496
300.71488
300.7148
300.71472
300.71463
300.71455
300.71446
300.71438
300.7143
300.71422
300.71415
300.71407
300.71399
300.71391
300.71384
300.71377
300.71371
300.71365
300.71358
300.71351
300.71344
300.71338
300.71331
300.71325
300.71318
300.71312
300.71306
300.713
300.71294
300.71288
300.71282
300.71276
300.7127
300.71264
300.71259
300.71253
300.71248
300.71242
300.71236
300.7123
300.71224
300.71219
300.71214
300.71209
300.71204
300.71199
300.71194
300.71189
300.71183
300.71179
300.71174
300.7117
300.71165
300.7116
300.71155
300.7115
300.71146
300.71141
300.71137
300.71133
300.71129
300.71124
300.71119
300.71114
300.71109
300.71104
300.711
300.71097
300.71093
300.71089
300.71085
300.71081
300.71077
300.71073
300.71069
300.71064
300.7106
300.71056
300.71052
300.71048
300.71045
300.71042
300.71038
300.71035
300.71031
300.71027
300.71023
300.71019
300.71015
300.71011
300.71008
300.71004
300.71001
300.70998
300.70995
300.70991
300.70987
300.70983
300.7098
300.70976
300.70973
300.70971
300.70967
300.70964
300.70961
300.70958
300.70955
300.70952
300.70949
300.70946
300.70943
300.70939
300.70936
300.70933
300.7093
300.70926
300.70923
300.7092
300.70917
300.70915
300.70912
300.70909
300.70906
300.70903
300.70901
300.70898
300.70895
300.70892
300.70889
300.70885
300.70882
300.7088
300.70878
300.70876
300.70874
300.70871
300.70868
300.70865
300.70863
300.7086
300.70857
300.70855
300.70852
300.7085
300.70847
300.70844
300.70842
300.7084
300.70837
300.70835
300.70832
300.7083
300.70828
300.70826
300.70824
300.70822
300.70819
300.70817
300.70814
300.70812
300.70809
300.70807
300.70804
300.70802
300.708
300.70797
300.70795
300.70793
300.70791
300.7079
300.70788
300.70786
300.70784
300.70782
300.70779
300.70777
300.70775
300.70773
300.7077
300.70768
300.70766
300.70765
300.70763
300.70761
300.70759
300.70758
300.70755
300.70753
300.7075
300.70748
300.70746
300.70744
300.70742
300.7074
300.70739
300.70737
300.70736
300.70734
300.70732
300.7073
300.70728
300.70726
300.70724
300.70723
300.70721
300.7072
300.70718
300.70716
300.70714
300.70712
300.70711
300.70709
300.70707
300.70705
300.70704
300.70702
300.707
300.70699
300.70697
300.70696
300.70694
300.70692
300.7069
300.70688
300.70686
300.70685
300.70684
300.70684
300.70683
300.70682
300.7068
300.70678
300.70675
300.70673
300.70671
300.7067
300.70668
300.70667
300.70664
300.70662
300.70661
300.7066
300.70659
300.70658
300.70657
300.70655
300.70653
300.70651
300.70649
300.70647
300.70645
300.70643
300.70642
300.70641
300.7064
300.70638
300.70637
300.70635
300.70633
300.70631
300.7063
300.70627
300.70626
300.70624
300.70623
300.70622
300.70621
300.70619
300.70618
300.70616
300.70614
300.70612
300.7061
300.70608
300.70606
300.70604
300.70603
300.70602
300.70602
300.706
300.70598
300.70597
300.70595
300.70594
300.70593
300.70592
300.7059
300.70588
300.70586
300.70585
300.70583
300.70582
300.7058
300.7058
300.70578
300.70577
300.70575
300.70573
300.70571
300.7057
300.70569
300.70568
300.70567
300.70566
300.70565
300.70563
300.70561
300.70559
300.70558
300.70557
300.70556
300.70556
300.70555
300.70553
300.70551
300.7055
300.70549
300.70549
300.70548
300.70547
300.70546
300.70545
300.70544
300.70543
300.70542
300.70542
300.7054
300.70539
300.70538
300.70536
300.70535
300.70534
300.70534
300.70534
300.70535
300.70535
300.70534
300.70532
300.70531
300.70531
300.7053
300.70529
300.70529
300.70528
300.70529
300.7053
300.7053
300.7053
300.70529
300.70529
300.70528
300.70529
300.7053
300.7053
300.7053
300.7053
300.70531
300.70531
300.70532
300.70533
300.70533
300.70533
300.70532
300.70532
300.70532
300.70533
300.70534
300.70534
300.70534
300.70534
300.70533
300.70533
300.70533
300.70532
300.70532
300.7053
300.70527
300.70525
300.70522
300.70519
300.70516
300.70512
300.70507
300.70502
300.70496
300.7049
300.70483
300.70475
300.70467
300.70458
300.70448
300.70436
300.70424
300.7041
300.70396
300.70379
300.70361
300.70341
300.70319
300.70295
300.70269
300.70239
300.70207
300.70172
300.70134
300.70092
300.70046
300.69995
300.6994
300.69879
300.69813
300.69741
300.69663
300.69577
300.69483
300.69382
300.69271
300.69151
300.6902
300.68878
300.68724
300.68558
300.68377
300.68181
300.6797
300.67741
300.67494
300.67227
300.6694
300.6663
300.66296
300.65937
300.65551
300.65136
300.6469
300.64212
300.63699
300.63149
300.62561
300.61931
300.61258
300.60538
300.5977
300.58951
300.58077
300.57146
300.56155
300.55101
300.5398
300.52789
300.51525
300.50185
300.48763
300.47257
300.45664
300.43978
300.42196
300.40314
300.38328
300.36233
300.34025
300.317
300.29254
300.26681
300.23978
300.2114
300.18163
300.15042
300.11773
300.08352
300.04774
300.01035
299.9713
299.93057
299.88811
299.84389
299.79787
299.75001
299.7003
299.64869
299.59517
299.53972
299.48231
299.42293
299.36157
299.29823
299.2329
299.16558
299.09628
299.02502
298.9518
298.87665
298.79961
298.72069
298.63995
298.55742
298.47316
298.38722
298.29966
298.21056
298.11999
298.02801
297.93473
297.84023
297.7446
297.64794
297.55036
297.45195
297.35285
297.25314
297.15296
297.05242
296.95164
296.85074
296.74985
296.64909
296.54857
296.44842
296.34876
296.24971
296.15138
296.05388
295.95733
295.86181
295.76745
295.67433
295.58254
295.49218
295.40331
295.31601
295.23036
295.14642
295.06423
294.98386
294.90535
294.82874
294.75405
294.68132
294.61057
294.54181
294.47506
294.41031
294.34756
294.28682
294.22808
294.17131
294.1165
294.06364
294.01269
293.96362
293.91642
293.87104
293.82745
293.78561
293.74548
293.70702
293.67019
293.63495
293.60125
293.56905
293.53829
293.50895
293.48096
293.4543
293.4289
293.40472
293.38173
293.35987
293.33911
293.31939
293.30068
293.28294
293.26612
293.2502
293.23511
293.22084
293.20735
293.19459
293.18254
293.17117
293.16043
293.1503
293.14075
293.13175
293.12328
293.1153
293.10779
293.10073
293.0941
293.08786
293.08201
293.07651
293.07135
293.06652
293.06198
293.05774
293.05376
293.05003
293.04655
293.04329
293.04024
293.03739
293.03473
293.03225
293.02993
293.02777
293.02575
293.02388
293.02213
293.0205
293.01898
293.01757
293.01625
293.01503
293.0139
293.01284
293.01187
293.01096
293.01011
293.00933
293.00861
293.00794
293.00732
293.00674
293.00621
293.00572
293.00526
293.00484
293.00445
293.00409
293.00376
293.00345
293.00317
293.00291
293.00267
293.00245
293.00224
293.00206
293.00188
293.00173
293.00158
293.00145
293.00132
293.00121
293.00111
293.00101
293.00092
293.00084
293.00077
293.0007
293.00064
293.00058
293.00053
293.00048
293.00044
293.0004
293.00037
293.00033
293.0003
293.00027
293.00025
293.00023
293.00021
293.00019
293.00017
293.00015
293.00014
293.00013
293.00011
293.0001
293.00009
293.00009
293.00008
293.00007
293.00006
293.00006
293.00005
293.00005
293.00004
293.00004
293.00003
293.00003
293.00003
293.00003
293.00002
293.00002
293.00002
293.00002
293.00001
293.00001
293.00001
293.00001
293.00001
293.00001
293.00001
293.00001
293.00001
293.00001
293.00001
293
293
293
293
293
293
293
293
293
293
293
293
293
293
293
293
293
293
293
293
293
293
293
293
293
293
293
293
293
293
293
293
293
293
293
293
293
293
293
293
293
293
293
293
293
293
293
293
293
293
293
293
293
293
293
293
293
293
293
293
293
293
293
293
293
293
293
293
293
293
293
293
293
293
293
293
293
293
293
293
293
293
293
293
293
293
293
293
293
293
293
293
293
293
293
293
293
293
293
293
293
293
293
293
293
293
293
293
293
293
293
293
293
293
293
293
293
293
293
293
293
293
293
293
293
293
293
293
293
293
293
293
293
293
293
293
293
293
293
293
293
293
293
293
293
293
293
293
293
293
293
293
293
293
293
293
293
293
293
293
293
293
293
293
293
293
293
293
293
293
293
293
293
293
293
293
293
293
293
293
293
293
293
293
293
293
293
293
293
293
293
293
293
293
293
293
293
293
293
293
293
293
293
293
293
293
293
293
293
293
293
293
293
293
293
293
293
293
293
293
293
293
293
293
293
293
293