/*--------------------------------*- C++ -*----------------------------------*\
  =========                 |
  \\      /  F ield         | OpenFOAM: The Open Source CFD Toolbox
   \\    /   O peration     | Website:  https://openfoam.org
    \\  /    A nd           | Version:  7
     \\/     M anipulation  |
\*---------------------------------------------------------------------------*/
FoamFile
{
    version     2.0;
    format      ascii;
    class       volScalarField;
    location    "0.00282";
    object      T;
}
// * * * * * * * * * * * * * * * * * * * * * * * * * * * * * * * * * * * * * //

dimensions      [0 0 0 1 0 0 0];

internalField   nonuniform List<scalar> 
5000
(
277.93646
277.93646
277.93641
277.93634
277.93629
277.93625
277.93622
277.9362
277.93618
277.93617
277.93616
277.93616
277.93615
277.93615
277.93615
277.93615
277.93615
277.93615
277.93615
277.93615
277.93615
277.93615
277.93615
277.93615
277.93615
277.93615
277.93615
277.93615
277.93615
277.93616
277.93616
277.93616
277.93616
277.93616
277.93616
277.93616
277.93616
277.93616
277.93616
277.93616
277.93616
277.93616
277.93616
277.93616
277.93616
277.93616
277.93617
277.93617
277.93617
277.93617
277.93617
277.93617
277.93617
277.93617
277.93617
277.93617
277.93617
277.93617
277.93617
277.93618
277.93618
277.93618
277.93618
277.93618
277.93618
277.93618
277.93618
277.93618
277.93618
277.93618
277.93618
277.93619
277.93619
277.93619
277.93619
277.93619
277.93619
277.93619
277.93619
277.93619
277.93619
277.93619
277.9362
277.9362
277.9362
277.9362
277.9362
277.9362
277.9362
277.9362
277.9362
277.9362
277.9362
277.93621
277.93621
277.93621
277.93621
277.93621
277.93621
277.93621
277.93621
277.93621
277.93621
277.93621
277.93622
277.93622
277.93622
277.93622
277.93622
277.93622
277.93622
277.93622
277.93622
277.93622
277.93622
277.93623
277.93623
277.93623
277.93623
277.93623
277.93623
277.93623
277.93623
277.93623
277.93623
277.93623
277.93624
277.93624
277.93624
277.93624
277.93624
277.93624
277.93624
277.93624
277.93624
277.93624
277.93624
277.93624
277.93625
277.93625
277.93625
277.93625
277.93625
277.93625
277.93625
277.93625
277.93625
277.93625
277.93625
277.93625
277.93625
277.93626
277.93626
277.93626
277.93626
277.93626
277.93626
277.93626
277.93626
277.93626
277.93626
277.93626
277.93626
277.93626
277.93626
277.93627
277.93627
277.93627
277.93627
277.93627
277.93627
277.93627
277.93627
277.93627
277.93627
277.93627
277.93627
277.93627
277.93627
277.93627
277.93627
277.93628
277.93628
277.93628
277.93628
277.93628
277.93628
277.93628
277.93628
277.93628
277.93628
277.93628
277.93628
277.93628
277.93628
277.93628
277.93628
277.93628
277.93628
277.93628
277.93628
277.93629
277.93629
277.93629
277.93629
277.93629
277.93629
277.93629
277.93629
277.93629
277.93629
277.93629
277.93629
277.93629
277.93629
277.93629
277.93629
277.93629
277.93629
277.93629
277.93629
277.93629
277.93629
277.93629
277.93629
277.93629
277.93629
277.9363
277.9363
277.9363
277.9363
277.9363
277.9363
277.9363
277.9363
277.9363
277.9363
277.9363
277.9363
277.9363
277.9363
277.9363
277.9363
277.9363
277.9363
277.9363
277.9363
277.9363
277.9363
277.9363
277.9363
277.9363
277.9363
277.9363
277.9363
277.9363
277.9363
277.9363
277.9363
277.9363
277.9363
277.9363
277.9363
277.9363
277.93631
277.93631
277.93631
277.93631
277.93631
277.93631
277.93631
277.93631
277.93631
277.93631
277.93631
277.93631
277.93631
277.93631
277.93631
277.93631
277.93631
277.93631
277.93631
277.93631
277.93631
277.93631
277.93631
277.93631
277.93631
277.93631
277.93631
277.93631
277.93631
277.93631
277.93631
277.93631
277.93631
277.93631
277.93631
277.93631
277.93631
277.93631
277.93631
277.93631
277.93631
277.93631
277.93631
277.93632
277.93632
277.93632
277.93632
277.93632
277.93632
277.93632
277.93632
277.93632
277.93632
277.93632
277.93632
277.93632
277.93632
277.93632
277.93632
277.93632
277.93632
277.93632
277.93632
277.93632
277.93632
277.93632
277.93632
277.93632
277.93632
277.93632
277.93632
277.93632
277.93632
277.93632
277.93632
277.93632
277.93632
277.93632
277.93632
277.93632
277.93632
277.93632
277.93632
277.93632
277.93633
277.93633
277.93633
277.93633
277.93633
277.93633
277.93633
277.93633
277.93633
277.93633
277.93633
277.93633
277.93633
277.93633
277.93633
277.93633
277.93633
277.93633
277.93633
277.93633
277.93633
277.93633
277.93633
277.93633
277.93633
277.93633
277.93633
277.93633
277.93633
277.93633
277.93633
277.93633
277.93633
277.93633
277.93633
277.93633
277.93633
277.93634
277.93634
277.93634
277.93634
277.93634
277.93634
277.93634
277.93634
277.93634
277.93634
277.93634
277.93634
277.93634
277.93634
277.93634
277.93634
277.93634
277.93634
277.93634
277.93634
277.93634
277.93634
277.93634
277.93634
277.93634
277.93634
277.93634
277.93634
277.93634
277.93634
277.93634
277.93634
277.93634
277.93635
277.93635
277.93635
277.93635
277.93635
277.93635
277.93635
277.93635
277.93635
277.93635
277.93635
277.93635
277.93635
277.93635
277.93635
277.93635
277.93635
277.93635
277.93635
277.93635
277.93635
277.93635
277.93635
277.93635
277.93635
277.93635
277.93636
277.93636
277.93636
277.93636
277.93636
277.93636
277.93636
277.93636
277.93636
277.93636
277.93636
277.93636
277.93636
277.93636
277.93636
277.93636
277.93636
277.93636
277.93636
277.93636
277.93636
277.93636
277.93636
277.93636
277.93636
277.93637
277.93637
277.93637
277.93637
277.93637
277.93637
277.93637
277.93637
277.93637
277.93637
277.93637
277.93637
277.93637
277.93637
277.93637
277.93637
277.93637
277.93637
277.93637
277.93637
277.93637
277.93637
277.93638
277.93638
277.93638
277.93638
277.93638
277.93638
277.93638
277.93638
277.93638
277.93638
277.93638
277.93638
277.93638
277.93638
277.93638
277.93638
277.93638
277.93638
277.93638
277.93638
277.93638
277.93638
277.93638
277.93639
277.93639
277.93639
277.93639
277.93639
277.93639
277.93639
277.93639
277.93639
277.93639
277.93639
277.93639
277.93639
277.93639
277.93639
277.93639
277.93639
277.93639
277.93639
277.93639
277.93639
277.9364
277.9364
277.9364
277.9364
277.9364
277.9364
277.9364
277.9364
277.9364
277.9364
277.9364
277.9364
277.9364
277.9364
277.9364
277.9364
277.9364
277.9364
277.93641
277.93641
277.93641
277.93641
277.93641
277.93641
277.93641
277.93641
277.93641
277.93641
277.93641
277.93641
277.93641
277.93641
277.93641
277.93641
277.93641
277.93641
277.93641
277.93641
277.93642
277.93642
277.93642
277.93642
277.93642
277.93642
277.93642
277.93642
277.93642
277.93642
277.93642
277.93642
277.93642
277.93642
277.93642
277.93642
277.93643
277.93643
277.93643
277.93643
277.93643
277.93643
277.93643
277.93643
277.93643
277.93643
277.93643
277.93643
277.93643
277.93643
277.93643
277.93643
277.93643
277.93643
277.93643
277.93643
277.93643
277.93643
277.93644
277.93644
277.93644
277.93644
277.93644
277.93644
277.93644
277.93644
277.93644
277.93644
277.93644
277.93644
277.93644
277.93644
277.93644
277.93644
277.93644
277.93644
277.93644
277.93644
277.93644
277.93644
277.93644
277.93645
277.93645
277.93645
277.93645
277.93645
277.93645
277.93645
277.93645
277.93645
277.93645
277.93645
277.93646
277.93646
277.93646
277.93646
277.93646
277.93646
277.93646
277.93646
277.93646
277.93646
277.93646
277.93646
277.93646
277.93646
277.93646
277.93646
277.93646
277.93646
277.93647
277.93647
277.93647
277.93647
277.93647
277.93647
277.93647
277.93647
277.93647
277.93647
277.93647
277.93647
277.93647
277.93647
277.93647
277.93647
277.93647
277.93647
277.93647
277.93647
277.93648
277.93648
277.93648
277.93648
277.93648
277.93648
277.93648
277.93648
277.93648
277.93648
277.93648
277.93648
277.93648
277.93648
277.93648
277.93648
277.93649
277.93649
277.93649
277.93649
277.93649
277.93649
277.93649
277.93649
277.93649
277.93649
277.93649
277.93649
277.93649
277.93649
277.93649
277.93649
277.9365
277.9365
277.9365
277.9365
277.9365
277.9365
277.9365
277.9365
277.9365
277.9365
277.9365
277.9365
277.9365
277.9365
277.9365
277.9365
277.9365
277.9365
277.9365
277.93651
277.93651
277.93651
277.93651
277.93651
277.93651
277.93651
277.93651
277.93651
277.93651
277.93652
277.93652
277.93652
277.93652
277.93652
277.93652
277.93652
277.93652
277.93652
277.93652
277.93652
277.93652
277.93652
277.93652
277.93652
277.93652
277.93653
277.93653
277.93653
277.93653
277.93653
277.93653
277.93653
277.93653
277.93653
277.93653
277.93653
277.93653
277.93653
277.93653
277.93654
277.93654
277.93654
277.93654
277.93654
277.93654
277.93654
277.93654
277.93654
277.93654
277.93654
277.93654
277.93654
277.93654
277.93654
277.93655
277.93655
277.93655
277.93655
277.93655
277.93655
277.93655
277.93655
277.93655
277.93655
277.93655
277.93655
277.93655
277.93655
277.93656
277.93656
277.93656
277.93656
277.93656
277.93656
277.93656
277.93656
277.93656
277.93656
277.93656
277.93656
277.93657
277.93657
277.93657
277.93657
277.93657
277.93657
277.93657
277.93657
277.93657
277.93657
277.93657
277.93657
277.93657
277.93657
277.93657
277.93658
277.93658
277.93658
277.93658
277.93658
277.93658
277.93658
277.93658
277.93658
277.93658
277.93658
277.93658
277.93658
277.93659
277.93659
277.93659
277.93659
277.93659
277.93659
277.93659
277.93659
277.93659
277.93659
277.93659
277.93659
277.9366
277.9366
277.9366
277.9366
277.9366
277.9366
277.9366
277.9366
277.9366
277.9366
277.9366
277.9366
277.9366
277.9366
277.93661
277.93661
277.93661
277.93661
277.93661
277.93661
277.93661
277.93661
277.93661
277.93661
277.93661
277.93662
277.93662
277.93662
277.93662
277.93662
277.93662
277.93662
277.93662
277.93662
277.93662
277.93662
277.93662
277.93662
277.93663
277.93663
277.93663
277.93663
277.93663
277.93663
277.93663
277.93663
277.93663
277.93663
277.93663
277.93663
277.93664
277.93664
277.93664
277.93664
277.93664
277.93664
277.93664
277.93664
277.93664
277.93664
277.93664
277.93664
277.93665
277.93665
277.93665
277.93665
277.93665
277.93665
277.93665
277.93665
277.93665
277.93665
277.93665
277.93666
277.93666
277.93666
277.93666
277.93666
277.93666
277.93666
277.93666
277.93666
277.93667
277.93667
277.93667
277.93667
277.93667
277.93667
277.93667
277.93667
277.93667
277.93667
277.93667
277.93667
277.93667
277.93668
277.93668
277.93668
277.93668
277.93668
277.93668
277.93668
277.93668
277.93668
277.93669
277.93669
277.93669
277.93669
277.93669
277.93669
277.93669
277.93669
277.93669
277.93669
277.93669
277.93669
277.9367
277.9367
277.9367
277.9367
277.9367
277.9367
277.9367
277.9367
277.9367
277.93671
277.93671
277.93671
277.93671
277.93671
277.93671
277.93671
277.93671
277.93671
277.93671
277.93671
277.93671
277.93672
277.93672
277.93672
277.93672
277.93672
277.93672
277.93672
277.93672
277.93672
277.93673
277.93673
277.93673
277.93673
277.93673
277.93673
277.93673
277.93673
277.93673
277.93673
277.93674
277.93674
277.93674
277.93674
277.93674
277.93674
277.93674
277.93674
277.93674
277.93674
277.93674
277.93675
277.93675
277.93675
277.93675
277.93675
277.93675
277.93675
277.93676
277.93676
277.93676
277.93676
277.93676
277.93676
277.93676
277.93676
277.93676
277.93676
277.93676
277.93677
277.93677
277.93677
277.93677
277.93677
277.93677
277.93677
277.93677
277.93677
277.93678
277.93678
277.93678
277.93678
277.93678
277.93678
277.93678
277.93678
277.93678
277.93678
277.93679
277.93679
277.93679
277.93679
277.93679
277.93679
277.93679
277.93679
277.93679
277.9368
277.9368
277.9368
277.9368
277.9368
277.9368
277.9368
277.93681
277.93681
277.93681
277.93681
277.93681
277.93681
277.93681
277.93681
277.93681
277.93681
277.93681
277.93682
277.93682
277.93682
277.93682
277.93682
277.93682
277.93682
277.93683
277.93683
277.93683
277.93683
277.93683
277.93683
277.93683
277.93683
277.93683
277.93683
277.93683
277.93684
277.93684
277.93684
277.93684
277.93684
277.93684
277.93684
277.93684
277.93685
277.93685
277.93685
277.93685
277.93685
277.93685
277.93685
277.93685
277.93686
277.93686
277.93686
277.93686
277.93686
277.93686
277.93686
277.93687
277.93687
277.93687
277.93687
277.93687
277.93687
277.93687
277.93687
277.93688
277.93688
277.93688
277.93688
277.93688
277.93688
277.93688
277.93688
277.93688
277.93688
277.93689
277.93689
277.93689
277.93689
277.93689
277.93689
277.9369
277.9369
277.9369
277.9369
277.9369
277.9369
277.9369
277.9369
277.93691
277.93691
277.93691
277.93691
277.93691
277.93691
277.93691
277.93691
277.93691
277.93692
277.93692
277.93692
277.93692
277.93692
277.93692
277.93693
277.93693
277.93693
277.93693
277.93693
277.93693
277.93693
277.93693
277.93693
277.93694
277.93694
277.93694
277.93694
277.93694
277.93694
277.93694
277.93695
277.93695
277.93695
277.93695
277.93695
277.93695
277.93695
277.93696
277.93696
277.93696
277.93696
277.93696
277.93696
277.93696
277.93697
277.93697
277.93697
277.93697
277.93697
277.93697
277.93697
277.93698
277.93698
277.93698
277.93698
277.93698
277.93698
277.93698
277.93699
277.93699
277.93699
277.93699
277.93699
277.93699
277.93699
277.937
277.937
277.937
277.937
277.937
277.937
277.93701
277.93701
277.93701
277.93701
277.93701
277.93701
277.93702
277.93702
277.93702
277.93702
277.93702
277.93702
277.93702
277.93702
277.93703
277.93703
277.93703
277.93703
277.93703
277.93703
277.93703
277.93704
277.93704
277.93704
277.93704
277.93704
277.93704
277.93705
277.93705
277.93705
277.93705
277.93705
277.93705
277.93706
277.93706
277.93706
277.93706
277.93706
277.93707
277.93707
277.93707
277.93707
277.93707
277.93707
277.93707
277.93708
277.93708
277.93708
277.93708
277.93708
277.93708
277.93709
277.93709
277.93709
277.93709
277.93709
277.93709
277.9371
277.9371
277.9371
277.9371
277.9371
277.9371
277.93711
277.93711
277.93711
277.93711
277.93711
277.93711
277.93712
277.93712
277.93712
277.93712
277.93712
277.93712
277.93713
277.93713
277.93713
277.93713
277.93713
277.93713
277.93714
277.93714
277.93714
277.93714
277.93714
277.93715
277.93715
277.93715
277.93715
277.93715
277.93716
277.93716
277.93716
277.93716
277.93716
277.93717
277.93717
277.93717
277.93717
277.93717
277.93717
277.93718
277.93718
277.93718
277.93718
277.93718
277.93718
277.93719
277.93719
277.93719
277.93719
277.93719
277.9372
277.9372
277.9372
277.9372
277.9372
277.93721
277.93721
277.93721
277.93721
277.93722
277.93722
277.93722
277.93722
277.93722
277.93722
277.93723
277.93723
277.93723
277.93723
277.93723
277.93724
277.93724
277.93724
277.93724
277.93724
277.93725
277.93725
277.93725
277.93725
277.93726
277.93726
277.93726
277.93726
277.93726
277.93727
277.93727
277.93727
277.93727
277.93728
277.93728
277.93728
277.93728
277.93729
277.93729
277.93729
277.93729
277.93729
277.9373
277.9373
277.9373
277.9373
277.93731
277.93731
277.93731
277.93731
277.93732
277.93732
277.93732
277.93732
277.93733
277.93733
277.93733
277.93733
277.93734
277.93734
277.93734
277.93734
277.93735
277.93735
277.93735
277.93735
277.93735
277.93736
277.93736
277.93736
277.93737
277.93737
277.93737
277.93737
277.93738
277.93738
277.93738
277.93738
277.93739
277.93739
277.93739
277.93739
277.9374
277.9374
277.9374
277.93741
277.93741
277.93741
277.93741
277.93742
277.93742
277.93742
277.93743
277.93743
277.93743
277.93744
277.93744
277.93744
277.93744
277.93745
277.93745
277.93745
277.93746
277.93746
277.93746
277.93747
277.93747
277.93747
277.93748
277.93748
277.93748
277.93749
277.93749
277.93749
277.93749
277.9375
277.9375
277.9375
277.93751
277.93751
277.93751
277.93752
277.93752
277.93752
277.93753
277.93753
277.93754
277.93754
277.93754
277.93755
277.93755
277.93755
277.93756
277.93756
277.93756
277.93757
277.93757
277.93757
277.93758
277.93758
277.93758
277.93759
277.93759
277.9376
277.9376
277.9376
277.93761
277.93761
277.93762
277.93762
277.93762
277.93763
277.93763
277.93764
277.93764
277.93764
277.93765
277.93765
277.93766
277.93766
277.93767
277.93767
277.93767
277.93768
277.93768
277.93769
277.93769
277.9377
277.9377
277.9377
277.93771
277.93771
277.93772
277.93772
277.93773
277.93773
277.93773
277.93774
277.93774
277.93775
277.93775
277.93776
277.93776
277.93777
277.93777
277.93778
277.93778
277.93779
277.93779
277.9378
277.9378
277.93781
277.93781
277.93781
277.93782
277.93782
277.93783
277.93783
277.93784
277.93784
277.93785
277.93786
277.93786
277.93787
277.93787
277.93788
277.93788
277.93789
277.93789
277.9379
277.9379
277.93791
277.93792
277.93792
277.93793
277.93793
277.93794
277.93795
277.93795
277.93796
277.93796
277.93797
277.93797
277.93798
277.93799
277.93799
277.938
277.938
277.93801
277.93802
277.93802
277.93803
277.93803
277.93804
277.93805
277.93805
277.93806
277.93807
277.93807
277.93808
277.93809
277.93809
277.9381
277.93811
277.93811
277.93812
277.93813
277.93813
277.93814
277.93815
277.93815
277.93816
277.93817
277.93817
277.93818
277.93819
277.93819
277.9382
277.93821
277.93822
277.93822
277.93823
277.93824
277.93825
277.93825
277.93826
277.93827
277.93828
277.93829
277.93829
277.9383
277.93831
277.93832
277.93832
277.93833
277.93834
277.93835
277.93836
277.93837
277.93837
277.93838
277.93839
277.9384
277.93841
277.93842
277.93843
277.93844
277.93845
277.93846
277.93847
277.93848
277.93849
277.9385
277.9385
277.93851
277.93852
277.93853
277.93854
277.93855
277.93856
277.93857
277.93859
277.9386
277.93861
277.93862
277.93863
277.93864
277.93865
277.93866
277.93867
277.93869
277.9387
277.93871
277.93872
277.93873
277.93875
277.93876
277.93877
277.93879
277.9388
277.93881
277.93883
277.93884
277.93885
277.93887
277.93888
277.9389
277.93891
277.93893
277.93894
277.93896
277.93897
277.93899
277.93901
277.93902
277.93904
277.93906
277.93908
277.9391
277.93911
277.93913
277.93915
277.93917
277.93919
277.93921
277.93923
277.93925
277.93928
277.9393
277.93932
277.93934
277.93937
277.93939
277.93942
277.93944
277.93947
277.9395
277.93952
277.93955
277.93958
277.93961
277.93964
277.93967
277.9397
277.93973
277.93977
277.9398
277.93984
277.93987
277.93991
277.93994
277.93998
277.94002
277.94006
277.9401
277.94014
277.94019
277.94023
277.94028
277.94032
277.94037
277.94042
277.94047
277.94052
277.94058
277.94063
277.94069
277.94075
277.94081
277.94087
277.94093
277.941
277.94106
277.94113
277.9412
277.94127
277.94135
277.94142
277.9415
277.94158
277.94166
277.94175
277.94183
277.94192
277.94201
277.94211
277.9422
277.9423
277.9424
277.94251
277.94262
277.94273
277.94284
277.94296
277.94308
277.9432
277.94333
277.94346
277.94359
277.94373
277.94387
277.94401
277.94416
277.94431
277.94447
277.94463
277.9448
277.94497
277.94514
277.94532
277.9455
277.94569
277.94588
277.94608
277.94629
277.9465
277.94671
277.94693
277.94716
277.94739
277.94763
277.94787
277.94812
277.94838
277.94865
277.94892
277.94919
277.94948
277.94977
277.95007
277.95037
277.95069
277.95101
277.95134
277.95168
277.95203
277.95238
277.95275
277.95312
277.9535
277.95389
277.95429
277.9547
277.95513
277.95556
277.956
277.95645
277.95691
277.95738
277.95787
277.95836
277.95887
277.95939
277.95992
277.96046
277.96102
277.96159
277.96217
277.96276
277.96337
277.96399
277.96463
277.96528
277.96594
277.96662
277.96731
277.96802
277.96875
277.96949
277.97024
277.97102
277.97181
277.97261
277.97343
277.97427
277.97513
277.97601
277.9769
277.97781
277.97875
277.9797
277.98067
277.98166
277.98267
277.9837
277.98475
277.98582
277.98691
277.98802
277.98916
277.99032
277.9915
277.9927
277.99393
277.99518
277.99645
277.99775
277.99907
278.00041
278.00179
278.00318
278.0046
278.00605
278.00753
278.00903
278.01056
278.01211
278.0137
278.01531
278.01695
278.01862
278.02031
278.02204
278.0238
278.02558
278.0274
278.02925
278.03112
278.03303
278.03498
278.03695
278.03896
278.04099
278.04307
278.04517
278.04731
278.04948
278.05169
278.05393
278.05621
278.05852
278.06087
278.06325
278.06567
278.06813
278.07062
278.07315
278.07572
278.07833
278.08097
278.08365
278.08637
278.08913
278.09194
278.09478
278.09766
278.10058
278.10354
278.10654
278.10958
278.11267
278.1158
278.11896
278.12218
278.12543
278.12873
278.13207
278.13545
278.13888
278.14235
278.14587
278.14943
278.15303
278.15668
278.16038
278.16412
278.16791
278.17174
278.17562
278.17954
278.18352
278.18753
278.1916
278.19572
278.19988
278.20409
278.20834
278.21265
278.217
278.2214
278.22585
278.23035
278.2349
278.2395
278.24415
278.24884
278.25359
278.25839
278.26323
278.26813
278.27308
278.27807
278.28312
278.28822
278.29337
278.29857
278.30382
278.30912
278.31448
278.31988
278.32534
278.33085
278.33641
278.34202
278.34768
278.3534
278.35916
278.36498
278.37085
278.37678
278.38275
278.38878
278.39486
278.40099
278.40717
278.41341
278.4197
278.42604
278.43243
278.43887
278.44537
278.45192
278.45852
278.46518
278.47188
278.47864
278.48545
278.49232
278.49923
278.5062
278.51322
278.52029
278.52742
278.53459
278.54182
278.5491
278.55643
278.56381
278.57125
278.57873
278.58627
278.59386
278.6015
278.60919
278.61693
278.62473
278.63257
278.64046
278.64841
278.65641
278.66445
278.67255
278.68069
278.68889
278.69714
278.70543
278.71378
278.72218
278.73062
278.73912
278.74766
278.75625
278.76489
278.77358
278.78232
278.7911
278.79994
278.80882
278.81775
278.82673
278.83575
278.84482
278.85394
278.86311
278.87232
278.88158
278.89089
278.90024
278.90964
278.91908
278.92857
278.9381
278.94768
278.95731
278.96698
278.97669
278.98645
278.99625
279.00609
279.01598
279.02592
279.03589
279.04591
279.05597
279.06608
279.07622
279.08641
279.09664
279.10692
279.11723
279.12758
279.13798
279.14842
279.15889
279.16941
279.17997
279.19057
279.2012
279.21188
279.2226
279.23335
279.24414
279.25498
279.26585
279.27675
279.2877
279.29868
279.3097
279.32076
279.33185
279.34298
279.35415
279.36535
279.37659
279.38786
279.39917
279.41051
279.42189
279.4333
279.44475
279.45623
279.46774
279.47929
279.49087
279.50249
279.51414
279.52582
279.53753
279.54927
279.56105
279.57286
279.58469
279.59656
279.60846
279.62039
279.63236
279.64435
279.65637
279.66842
279.6805
279.69261
279.70475
279.71691
279.72911
279.74133
279.75358
279.76586
279.77817
279.7905
279.80286
279.81524
279.82766
279.8401
279.85256
279.86505
279.87757
279.89011
279.90267
279.91526
279.92788
279.94052
279.95318
279.96587
279.97858
279.99131
280.00407
280.01685
280.02965
280.04247
280.05532
280.06819
280.08108
280.09399
280.10692
280.11988
280.13285
280.14584
280.15886
280.17189
280.18495
280.19802
280.21112
280.22423
280.23736
280.25051
280.26368
280.27687
280.29007
280.30329
280.31653
280.32979
280.34306
280.35636
280.36966
280.38299
280.39633
280.40968
280.42306
280.43645
280.44985
280.46327
280.4767
280.49015
280.50361
280.51709
280.53058
280.54409
280.5576
280.57114
280.58468
280.59824
280.61181
280.62539
280.63899
280.6526
280.66622
280.67985
280.69349
280.70715
280.72081
280.73449
280.74818
280.76187
280.77558
280.7893
280.80303
280.81677
280.83052
280.84427
280.85804
280.87181
280.8856
280.89939
280.91319
280.927
280.94081
280.95464
280.96847
280.98231
280.99616
281.01001
281.02387
281.03773
281.05161
281.06549
281.07937
281.09326
281.10716
281.12106
281.13497
281.14888
281.1628
281.17672
281.19065
281.20458
281.21851
281.23245
281.24639
281.26034
281.27429
281.28824
281.30219
281.31615
281.33011
281.34408
281.35804
281.37201
281.38598
281.39995
281.41392
281.42789
281.44187
281.45584
281.46982
281.48379
281.49777
281.51175
281.52572
281.5397
281.55368
281.56765
281.58163
281.5956
281.60958
281.62355
281.63752
281.65149
281.66546
281.67942
281.69339
281.70735
281.72131
281.73526
281.74921
281.76316
281.77711
281.79105
281.80499
281.81893
281.83286
281.84679
281.86071
281.87463
281.88854
281.90245
281.91636
281.93025
281.94415
281.95804
281.97192
281.9858
281.99967
282.01353
282.02739
282.04124
282.05508
282.06892
282.08275
282.09658
282.11039
282.1242
282.138
282.15179
282.16558
282.17935
282.19312
282.20688
282.22063
282.23437
282.2481
282.26182
282.27553
282.28924
282.30293
282.31661
282.33028
282.34395
282.3576
282.37124
282.38487
282.39849
282.41209
282.42569
282.43927
282.45285
282.46641
282.47996
282.49349
282.50702
282.52053
282.53403
282.54751
282.56099
282.57445
282.58789
282.60132
282.61474
282.62815
282.64154
282.65491
282.66828
282.68162
282.69496
282.70827
282.72158
282.73486
282.74814
282.76139
282.77463
282.78786
282.80107
282.81426
282.82744
282.8406
282.85375
282.86688
282.87999
282.89308
282.90616
282.91922
282.93226
282.94529
282.9583
282.97129
282.98426
282.99721
283.01015
283.02307
283.03597
283.04885
283.06172
283.07456
283.08739
283.1002
283.11299
283.12576
283.13851
283.15124
283.16395
283.17665
283.18932
283.20198
283.21461
283.22723
283.23983
283.25241
283.26496
283.2775
283.29002
283.30252
283.315
283.32746
283.3399
283.35232
283.36472
283.37711
283.38947
283.40181
283.41414
283.42644
283.43873
283.451
283.46325
283.47548
283.48769
283.49988
283.51205
283.52421
283.53635
283.54847
283.56057
283.57265
283.58472
283.59677
283.60881
283.62082
283.63283
283.64481
283.65678
283.66874
283.68068
283.69261
283.70452
283.71643
283.72831
283.74019
283.75205
283.76391
283.77575
283.78758
283.79941
283.81122
283.82303
283.83483
283.84663
283.85842
283.8702
283.88199
283.89377
283.90554
283.91732
283.9291
283.94088
283.95266
283.96445
283.97624
283.98804
283.99985
284.01167
284.0235
284.03534
284.04719
284.05907
284.07096
284.08287
284.0948
284.10675
284.11873
284.13074
284.14278
284.15485
284.16696
284.1791
284.19129
284.20351
284.21579
284.22811
284.24048
284.25291
284.26539
284.27794
284.29055
284.30323
284.31598
284.32881
284.34172
284.35471
284.36779
284.38096
284.39423
284.4076
284.42108
284.43467
284.44837
284.4622
284.47616
284.49025
284.50448
284.51886
284.53339
284.54807
284.56293
284.57795
284.59316
284.60855
284.62413
284.63992
284.65592
284.67214
284.68858
284.70526
284.72217
284.73933
284.75676
284.77447
284.79245
284.81073
284.82931
284.84821
284.86743
284.88698
284.90688
284.92714
284.94777
284.96878
284.99018
285.01199
285.03422
285.05688
285.07998
285.10355
285.12758
285.1521
285.17711
285.20264
285.2287
285.25529
285.28244
285.31016
285.33847
285.36737
285.39689
285.42703
285.45781
285.48924
285.52135
285.55413
285.58762
285.62181
285.65673
285.69238
285.72879
285.76595
285.80389
285.84261
285.88213
285.92246
285.9636
286.00556
286.04836
286.092
286.13649
286.18184
286.22804
286.2751
286.32303
286.37183
286.4215
286.47203
286.52343
286.5757
286.62883
286.68281
286.73765
286.79332
286.84982
286.90715
286.96528
287.02421
287.08391
287.14438
287.20559
287.26752
287.33015
287.39346
287.45743
287.52203
287.58722
287.653
287.71931
287.78614
287.85344
287.9212
287.98936
288.05791
288.12679
288.19598
288.26543
288.33512
288.40499
288.475
288.54513
288.61533
288.68555
288.75576
288.82592
288.89598
288.96591
289.03567
289.10521
289.1745
289.2435
289.31217
289.38048
289.44838
289.51585
289.58285
289.64935
289.71531
289.7807
289.8455
289.90968
289.97321
290.03606
290.09821
290.15964
290.22033
290.28024
290.33938
290.39771
290.45523
290.51192
290.56776
290.62274
290.67686
290.7301
290.78246
290.83393
290.8845
290.93417
290.98294
291.03081
291.07777
291.12383
291.16898
291.21323
291.25658
291.29904
291.34061
291.3813
291.42111
291.46005
291.49813
291.53535
291.57174
291.60728
291.642
291.67591
291.70901
291.74132
291.77285
291.8036
291.8336
291.86286
291.89138
291.91918
291.94627
291.97267
291.99838
292.02343
292.04782
292.07157
292.09469
292.11719
292.13909
292.1604
292.18113
292.20129
292.2209
292.23998
292.25852
292.27655
292.29408
292.31112
292.32768
292.34377
292.35941
292.3746
292.38936
292.4037
292.41762
292.43115
292.44429
292.45705
292.46944
292.48146
292.49314
292.50448
292.51549
292.52617
292.53654
292.54661
292.55638
292.56586
292.57506
292.58399
292.59266
292.60107
292.60923
292.61716
292.62484
292.6323
292.63954
292.64656
292.65337
292.65998
292.6664
292.67262
292.67865
292.68451
292.69019
292.6957
292.70105
292.70624
292.71127
292.71615
292.72089
292.72548
292.72994
292.73426
292.73845
292.74251
292.74645
292.75027
292.75397
292.75756
292.76103
292.7644
292.76766
292.77081
292.77386
292.77681
292.77966
292.78242
292.78509
292.78766
292.79015
292.79255
292.79487
292.79711
292.79928
292.80138
292.8034
292.80536
292.80725
292.80908
292.81086
292.81258
292.81424
292.81585
292.81741
292.81893
292.82042
292.82187
292.82331
292.82473
292.82613
292.82751
292.82887
292.83022
292.83156
292.83287
292.83417
292.83545
292.8367
292.83794
292.83915
292.84034
292.8415
292.84263
292.84373
292.84479
292.84583
292.84682
292.84777
292.84868
292.84951
292.85034
292.85106
292.85173
292.85246
292.85302
292.85331
292.85493
292.85384
292.85417
292.8615
292.85478
292.85159
292.87595
292.97696
293.20096
293.52883
293.96326
294.50124
295.13563
295.85604
296.64902
297.49858
298.38704
299.29599
300.20726
301.10383
301.97048
302.79437
303.56533
304.27599
304.92171
305.50042
306.01224
306.45919
306.84471
307.17333
307.45022
307.68094
307.87109
308.02615
308.15126
308.25117
308.33014
308.39192
308.43977
308.47643
308.50422
308.52505
308.54048
308.55176
308.5599
308.56566
308.56964
308.57232
308.57409
308.57523
308.57592
308.57627
308.57636
308.57627
308.57605
308.57575
308.57541
308.57506
308.57471
308.57436
308.57401
308.57366
308.57332
308.57297
308.57261
308.57224
308.57185
308.57145
308.57104
308.57061
308.57017
308.56971
308.56924
308.56876
308.56827
308.56778
308.56728
308.56679
308.5663
308.56581
308.56534
308.56487
308.56442
308.56398
308.56356
308.56315
308.56276
308.56239
308.56203
308.56169
308.56136
308.56105
308.56075
308.56046
308.56019
308.55993
308.55967
308.55943
308.55919
308.55896
308.55874
308.55852
308.55831
308.55811
308.5579
308.5577
308.55751
308.55731
308.55712
308.55693
308.55674
308.55655
308.55637
308.55618
308.556
308.55581
308.55563
308.55544
308.55526
308.55507
308.55488
308.5547
308.55451
308.55432
308.55413
308.55393
308.55374
308.55354
308.55335
308.55315
308.55295
308.55275
308.55254
308.55233
308.55212
308.55191
308.5517
308.55148
308.55126
308.55104
308.55081
308.55058
308.55035
308.55011
308.54987
308.54963
308.54938
308.54912
308.54887
308.54861
308.54834
308.54807
308.5478
308.54752
308.54723
308.54694
308.54665
308.54635
308.54604
308.54573
308.54541
308.54509
308.54476
308.54442
308.54408
308.54373
308.54338
308.54302
308.54265
308.54227
308.54189
308.5415
308.54111
308.5407
308.54029
308.53987
308.53945
308.53902
308.53857
308.53813