/*--------------------------------*- C++ -*----------------------------------*\
  =========                 |
  \\      /  F ield         | OpenFOAM: The Open Source CFD Toolbox
   \\    /   O peration     | Website:  https://openfoam.org
    \\  /    A nd           | Version:  7
     \\/     M anipulation  |
\*---------------------------------------------------------------------------*/
FoamFile
{
    version     2.0;
    format      ascii;
    class       volScalarField;
    location    "0.00221";
    object      T;
}
// * * * * * * * * * * * * * * * * * * * * * * * * * * * * * * * * * * * * * //

dimensions      [0 0 0 1 0 0 0];

internalField   nonuniform List<scalar> 
5000
(
256.32449
256.3388
256.34522
256.35667
256.36326
256.37466
256.38126
256.39267
256.39928
256.41069
256.41729
256.42871
256.43531
256.44673
256.45333
256.46476
256.47135
256.48278
256.48937
256.5008
256.50738
256.51881
256.52539
256.53682
256.54339
256.55482
256.56139
256.57281
256.57938
256.5908
256.59736
256.60878
256.61533
256.62675
256.63329
256.6447
256.65124
256.66265
256.66919
256.6806
256.68713
256.69855
256.70509
256.71651
256.72304
256.73447
256.741
256.75243
256.75896
256.77039
256.77691
256.78834
256.79485
256.80629
256.81279
256.82423
256.83073
256.84216
256.84865
256.86009
256.86657
256.87801
256.88449
256.89592
256.9024
256.91383
256.9203
256.93173
256.93819
256.94962
256.95608
256.96751
256.97396
256.98539
256.99184
257.00327
257.00971
257.02114
257.02757
257.039
257.04543
257.05686
257.06328
257.07471
257.08112
257.09255
257.09896
257.11039
257.11679
257.12822
257.13461
257.14605
257.15243
257.16386
257.17025
257.18168
257.18805
257.19948
257.20585
257.21728
257.22365
257.23508
257.24143
257.25286
257.25921
257.27064
257.27699
257.28842
257.29475
257.30619
257.31252
257.32395
257.33027
257.34171
257.34802
257.35946
257.36576
257.3772
257.3835
257.39493
257.40123
257.41267
257.41896
257.43039
257.43668
257.44811
257.45439
257.46582
257.4721
257.48353
257.48979
257.50124
257.50748
257.51892
257.52518
257.5366
257.54287
257.55429
257.56053
257.57198
257.57818
257.58966
257.59585
257.6073
257.61353
257.62493
257.63121
257.64257
257.64884
257.66025
257.66642
257.67795
257.684
257.69562
257.70163
257.71318
257.71936
257.73064
257.73719
257.74801
257.75507
257.76533
257.77294
257.78267
257.79077
257.80006
257.80853
257.81751
257.82622
257.83501
257.84386
257.85254
257.86145
257.87009
257.87902
257.88765
257.89657
257.90521
257.91412
257.92276
257.93167
257.94031
257.94921
257.95785
257.96675
257.97539
257.98428
257.99293
258.00182
258.01046
258.01935
258.02799
258.03688
258.04552
258.05441
258.06305
258.07193
258.08058
258.08945
258.09809
258.10697
258.1156
258.12449
258.13311
258.142
258.15061
258.1595
258.16811
258.17699
258.18561
258.19447
258.20311
258.21194
258.22061
258.2294
258.2381
258.24686
258.25558
258.26432
258.27305
258.28177
258.29052
258.29922
258.30797
258.31666
258.32542
258.3341
258.34287
258.35154
258.3603
258.36897
258.37773
258.3864
258.39515
258.40381
258.41257
258.42123
258.42998
258.43864
258.44739
258.45604
258.46479
258.47343
258.48218
258.49082
258.49957
258.50821
258.51695
258.52559
258.53433
258.54296
258.5517
258.56033
258.56906
258.57769
258.58642
258.59505
258.60377
258.6124
258.62112
258.62974
258.63846
258.64708
258.6558
258.66441
258.67313
258.68174
258.69045
258.69906
258.70777
258.71637
258.72508
258.73368
258.74239
258.75099
258.75969
258.76829
258.77698
258.78558
258.79427
258.80287
258.81156
258.82015
258.82883
258.83742
258.84611
258.85469
258.86337
258.87196
258.88063
258.88921
258.89789
258.90647
258.91514
258.92371
258.93238
258.94095
258.94962
258.95819
258.96685
258.97542
258.98408
258.99264
259.0013
259.00986
259.01852
259.02707
259.03572
259.04428
259.05293
259.06148
259.07012
259.07867
259.08732
259.09586
259.1045
259.11304
259.12168
259.13022
259.13885
259.14739
259.15602
259.16455
259.17319
259.18172
259.19034
259.19887
259.2075
259.21602
259.22465
259.23317
259.24179
259.25031
259.25894
259.26745
259.27608
259.28459
259.29321
259.30172
259.31034
259.31885
259.32747
259.33598
259.3446
259.35311
259.36172
259.37023
259.37884
259.38734
259.39595
259.40445
259.41306
259.42156
259.43017
259.43867
259.44727
259.45577
259.46437
259.47286
259.48147
259.48995
259.49855
259.50704
259.51564
259.52412
259.53272
259.54119
259.54979
259.55826
259.56686
259.57533
259.58392
259.59239
259.60097
259.60944
259.61802
259.6265
259.63506
259.64354
259.65209
259.66059
259.66913
259.67762
259.68615
259.69465
259.70317
259.71167
259.72019
259.72869
259.7372
259.7457
259.75421
259.76271
259.77121
259.77971
259.78821
259.7967
259.8052
259.81369
259.82218
259.83067
259.83916
259.84765
259.85614
259.86463
259.87311
259.88159
259.89007
259.89855
259.90703
259.91551
259.92399
259.93246
259.94094
259.94941
259.95788
259.96635
259.97482
259.98328
259.99175
260.00021
260.00868
260.01714
260.0256
260.03406
260.04252
260.05097
260.05943
260.06788
260.07633
260.08478
260.09323
260.10168
260.11013
260.11857
260.12702
260.13546
260.1439
260.15234
260.16078
260.16922
260.17766
260.18609
260.19453
260.20296
260.21139
260.21982
260.22825
260.23667
260.2451
260.25352
260.26195
260.27037
260.27879
260.28721
260.29563
260.30404
260.31246
260.32087
260.32928
260.33769
260.3461
260.35451
260.36292
260.37132
260.37973
260.38813
260.39653
260.40493
260.41333
260.42173
260.43012
260.43852
260.44691
260.4553
260.46369
260.47208
260.48047
260.48886
260.49725
260.50563
260.51402
260.5224
260.53078
260.53916
260.54754
260.55592
260.5643
260.57268
260.58106
260.58943
260.59781
260.60618
260.61456
260.62293
260.6313
260.63967
260.64804
260.65641
260.66478
260.67315
260.68152
260.68988
260.69825
260.70661
260.71498
260.72334
260.7317
260.74006
260.74842
260.75678
260.76514
260.77349
260.78185
260.7902
260.79855
260.80691
260.81526
260.82361
260.83196
260.8403
260.84865
260.85699
260.86534
260.87368
260.88202
260.89036
260.8987
260.90704
260.91538
260.92371
260.93204
260.94038
260.94871
260.95704
260.96537
260.97369
260.98202
260.99035
260.99867
261.00699
261.01531
261.02363
261.03195
261.04027
261.04859
261.0569
261.06522
261.07353
261.08184
261.09015
261.09846
261.10677
261.11507
261.12338
261.13168
261.13998
261.14828
261.15658
261.16488
261.17318
261.18148
261.18977
261.19806
261.20636
261.21465
261.22294
261.23123
261.23951
261.2478
261.25608
261.26437
261.27265
261.28093
261.28921
261.29749
261.30577
261.31404
261.32232
261.33059
261.33886
261.34714
261.35541
261.36367
261.37194
261.38021
261.38847
261.39674
261.405
261.41326
261.42152
261.42978
261.43804
261.44629
261.45455
261.4628
261.47105
261.4793
261.48755
261.4958
261.50405
261.51229
261.52054
261.52878
261.53703
261.54527
261.55351
261.56174
261.56998
261.57822
261.58645
261.59469
261.60292
261.61115
261.61938
261.62761
261.63584
261.64406
261.65229
261.66051
261.66874
261.67696
261.68518
261.6934
261.70162
261.70984
261.71806
261.72627
261.73449
261.7427
261.75091
261.75913
261.76734
261.77555
261.78376
261.79197
261.80018
261.80838
261.81659
261.82479
261.833
261.8412
261.8494
261.85761
261.86581
261.87401
261.88221
261.89041
261.8986
261.9068
261.915
261.92319
261.93139
261.93958
261.94777
261.95596
261.96415
261.97234
261.98053
261.98872
261.99691
262.00509
262.01328
262.02146
262.02964
262.03783
262.04601
262.05419
262.06236
262.07054
262.07872
262.08689
262.09507
262.10324
262.11141
262.11958
262.12775
262.13592
262.14409
262.15226
262.16042
262.16859
262.17675
262.18491
262.19307
262.20123
262.20939
262.21755
262.2257
262.23386
262.24201
262.25016
262.25832
262.26647
262.27462
262.28276
262.29091
262.29906
262.3072
262.31534
262.32349
262.33163
262.33977
262.34791
262.35604
262.36418
262.37231
262.38045
262.38858
262.39671
262.40484
262.41297
262.4211
262.42923
262.43736
262.44548
262.4536
262.46173
262.46985
262.47797
262.48609
262.49421
262.50232
262.51044
262.51855
262.52667
262.53478
262.54289
262.551
262.55911
262.56722
262.57532
262.58343
262.59153
262.59964
262.60774
262.61584
262.62394
262.63204
262.64014
262.64823
262.65633
262.66442
262.67252
262.68061
262.6887
262.69679
262.70488
262.71297
262.72105
262.72914
262.73722
262.74531
262.75339
262.76147
262.76955
262.77763
262.78571
262.79378
262.80186
262.80993
262.81801
262.82608
262.83415
262.84222
262.85029
262.85835
262.86642
262.87449
262.88255
262.89061
262.89868
262.90674
262.9148
262.92286
262.93091
262.93897
262.94703
262.95508
262.96313
262.97119
262.97924
262.98729
262.99534
263.00339
263.01144
263.01948
263.02753
263.03557
263.04362
263.05166
263.0597
263.06774
263.07578
263.08382
263.09186
263.0999
263.10794
263.11597
263.12401
263.13204
263.14007
263.14811
263.15614
263.16417
263.1722
263.18023
263.18826
263.19628
263.20431
263.21233
263.22036
263.22838
263.23641
263.24443
263.25245
263.26047
263.26849
263.2765
263.28452
263.29254
263.30055
263.30856
263.31658
263.32459
263.3326
263.34061
263.34861
263.35662
263.36462
263.37263
263.38063
263.38863
263.39663
263.40463
263.41262
263.42062
263.42861
263.4366
263.44459
263.45258
263.46057
263.46855
263.47654
263.48452
263.4925
263.50048
263.50845
263.51643
263.5244
263.53237
263.54033
263.5483
263.55626
263.56422
263.57218
263.58014
263.5881
263.59605
263.604
263.61195
263.61989
263.62783
263.63577
263.64371
263.65165
263.65958
263.66751
263.67544
263.68336
263.69128
263.6992
263.70712
263.71503
263.72294
263.73084
263.73875
263.74665
263.75454
263.76244
263.77033
263.77822
263.7861
263.79398
263.80186
263.80974
263.81761
263.82548
263.83334
263.8412
263.84906
263.85691
263.86476
263.8726
263.88044
263.88828
263.89611
263.90394
263.91176
263.91958
263.9274
263.93521
263.94302
263.95082
263.95862
263.96641
263.9742
263.98199
263.98977
263.99755
264.00532
264.01308
264.02085
264.02861
264.03636
264.04411
264.05185
264.05959
264.06733
264.07505
264.08278
264.0905
264.09821
264.10592
264.11363
264.12133
264.12902
264.13671
264.1444
264.15207
264.15975
264.16741
264.17508
264.18274
264.19039
264.19804
264.20568
264.21331
264.22094
264.22857
264.23619
264.2438
264.25141
264.25901
264.26661
264.2742
264.28179
264.28937
264.29694
264.30452
264.31208
264.31964
264.32719
264.33474
264.34228
264.34981
264.35735
264.36487
264.37239
264.3799
264.38741
264.39491
264.40241
264.4099
264.41738
264.42486
264.43234
264.4398
264.44727
264.45473
264.46218
264.46962
264.47707
264.4845
264.49193
264.49935
264.50677
264.51418
264.52159
264.52899
264.53639
264.54379
264.55118
264.55856
264.56593
264.57331
264.58067
264.58803
264.59539
264.60274
264.61009
264.61743
264.62477
264.6321
264.63943
264.64675
264.65407
264.66138
264.66869
264.67599
264.68329
264.69059
264.69787
264.70516
264.71244
264.71972
264.72699
264.73426
264.74152
264.74878
264.75604
264.76329
264.77054
264.77778
264.78502
264.79225
264.79948
264.80671
264.81394
264.82115
264.82837
264.83558
264.84279
264.85
264.85719
264.86439
264.87159
264.87878
264.88597
264.89315
264.90033
264.90751
264.91468
264.92185
264.92901
264.93618
264.94334
264.9505
264.95765
264.9648
264.97195
264.9791
264.98624
264.99338
265.00052
265.00765
265.01478
265.02191
265.02903
265.03616
265.04328
265.05039
265.05751
265.06462
265.07173
265.07884
265.08594
265.09305
265.10015
265.10724
265.11434
265.12143
265.12852
265.13561
265.14269
265.14978
265.15686
265.16394
265.17102
265.17809
265.18516
265.19224
265.1993
265.20637
265.21344
265.2205
265.22756
265.23462
265.24167
265.24873
265.25578
265.26283
265.26989
265.27693
265.28398
265.29102
265.29807
265.3051
265.31214
265.31917
265.32621
265.33324
265.34028
265.3473
265.35433
265.36135
265.36838
265.37539
265.38241
265.38943
265.39644
265.40345
265.41047
265.41747
265.42448
265.43149
265.43849
265.4455
265.45249
265.45949
265.46649
265.47348
265.48047
265.48746
265.49445
265.50144
265.50841
265.5154
265.52237
265.52935
265.53632
265.5433
265.55026
265.55723
265.5642
265.57116
265.57813
265.58509
265.59204
265.599
265.60595
265.6129
265.61984
265.62678
265.63373
265.64066
265.64761
265.65454
265.66147
265.6684
265.67533
265.68225
265.68917
265.69609
265.703
265.70991
265.71682
265.72373
265.73063
265.73753
265.74442
265.75131
265.7582
265.76508
265.77196
265.77884
265.78571
265.79258
265.79945
265.80631
265.81316
265.82002
265.82687
265.83371
265.84055
265.84739
265.85422
265.86104
265.86786
265.87468
265.88149
265.88829
265.89509
265.90188
265.90867
265.91545
265.92223
265.929
265.93576
265.94252
265.94927
265.95601
265.96275
265.96947
265.9762
265.98291
265.98961
265.99631
266.003
266.00968
266.01636
266.02302
266.02967
266.03632
266.04296
266.04959
266.05621
266.06282
266.06941
266.07601
266.08258
266.08915
266.09571
266.10226
266.10879
266.11531
266.12182
266.12832
266.13481
266.14128
266.14775
266.1542
266.16063
266.16706
266.17347
266.17987
266.18625
266.19262
266.19897
266.20531
266.21164
266.21795
266.22424
266.23052
266.23679
266.24303
266.24927
266.25549
266.26169
266.26787
266.27404
266.28018
266.28632
266.29243
266.29852
266.3046
266.31066
266.3167
266.32273
266.32873
266.33472
266.34068
266.34663
266.35256
266.35846
266.36435
266.37021
266.37605
266.38188
266.38768
266.39346
266.39923
266.40497
266.41069
266.41638
266.42206
266.4277
266.43334
266.43894
266.44452
266.45009
266.45562
266.46114
266.46663
266.47209
266.47754
266.48296
266.48835
266.49373
266.49907
266.50439
266.50969
266.51497
266.52021
266.52544
266.53064
266.53581
266.54096
266.54608
266.55118
266.55625
266.56129
266.56631
266.57131
266.57628
266.58122
266.58613
266.59102
266.59588
266.60072
266.60553
266.61032
266.61508
266.61981
266.62451
266.62919
266.63384
266.63847
266.64307
266.64764
266.65219
266.65671
266.6612
266.66567
266.67011
266.67452
266.67891
266.68327
266.6876
266.69191
266.69619
266.70044
266.70468
266.70887
266.71306
266.7172
266.72133
266.72543
266.7295
266.73355
266.73757
266.74157
266.74554
266.74948
266.7534
266.75729
266.76117
266.765
266.76883
266.77262
266.77639
266.78014
266.78385
266.78756
266.79122
266.79488
266.7985
266.8021
266.80568
266.80923
266.81276
266.81626
266.81975
266.82321
266.82665
266.83006
266.83346
266.83682
266.84018
266.8435
266.84681
266.85009
266.85335
266.85659
266.85981
266.86301
266.86618
266.86934
266.87248
266.87558
266.87869
266.88175
266.88482
266.88785
266.89087
266.89387
266.89684
266.8998
266.90274
266.90567
266.90857
266.91146
266.91433
266.91717
266.92001
266.92282
266.92562
266.9284
266.93117
266.93392
266.93665
266.93936
266.94206
266.94475
266.94741
266.95007
266.9527
266.95532
266.95793
266.96052
266.9631
266.96566
266.96821
266.97075
266.97327
266.97577
266.97827
266.98075
266.98321
266.98567
266.98811
266.99054
266.99295
266.99536
266.99775
267.00013
267.0025
267.00486
267.0072
267.00953
267.01186
267.01417
267.01647
267.01876
267.02104
267.02331
267.02556
267.02781
267.03005
267.03228
267.0345
267.03671
267.03891
267.0411
267.04328
267.04545
267.04762
267.04977
267.05192
267.05406
267.05619
267.05831
267.06043
267.06253
267.06463
267.06672
267.0688
267.07088
267.07295
267.07501
267.07706
267.07911
267.08115
267.08318
267.08521
267.08723
267.08924
267.09125
267.09325
267.09524
267.09723
267.09921
267.10119
267.10316
267.10513
267.10709
267.10904
267.11099
267.11293
267.11487
267.1168
267.11873
267.12066
267.12257
267.12449
267.1264
267.1283
267.1302
267.13209
267.13398
267.13587
267.13775
267.13963
267.1415
267.14337
267.14523
267.14709
267.14895
267.1508
267.15265
267.1545
267.15634
267.15818
267.16001
267.16184
267.16367
267.16549
267.16731
267.16912
267.17093
267.17274
267.17455
267.17635
267.17815
267.17994
267.18174
267.18353
267.18531
267.1871
267.18888
267.19065
267.19243
267.1942
267.19597
267.19773
267.19949
267.20125
267.20301
267.20477
267.20652
267.20827
267.21001
267.21176
267.2135
267.21524
267.21697
267.21871
267.22044
267.22217
267.22389
267.22562
267.22734
267.22906
267.23078
267.23249
267.23421
267.23592
267.23762
267.23933
267.24104
267.24274
267.24444
267.24614
267.24783
267.24953
267.25122
267.25291
267.2546
267.25628
267.25797
267.25965
267.26133
267.26301
267.26469
267.26636
267.26803
267.2697
267.27137
267.27304
267.27471
267.27637
267.27803
267.2797
267.28135
267.28301
267.28467
267.28632
267.28797
267.28962
267.29127
267.29292
267.29456
267.29621
267.29785
267.29949
267.30113
267.30276
267.3044
267.30603
267.30767
267.3093
267.31092
267.31255
267.31418
267.3158
267.31742
267.31904
267.32066
267.32228
267.3239
267.32551
267.32712
267.32874
267.33034
267.33195
267.33356
267.33516
267.33676
267.33836
267.33996
267.34156
267.34316
267.34475
267.34634
267.34793
267.34952
267.35111
267.3527
267.35429
267.35587
267.35745
267.35903
267.36061
267.36218
267.36376
267.36533
267.36691
267.36848
267.37005
267.37162
267.37318
267.37475
267.37631
267.37787
267.37943
267.38099
267.38254
267.3841
267.38565
267.3872
267.38875
267.39029
267.39184
267.39338
267.39492
267.39646
267.398
267.39954
267.40108
267.40261
267.40415
267.40568
267.40721
267.40874
267.41026
267.41179
267.41331
267.41483
267.41635
267.41787
267.41938
267.4209
267.42241
267.42392
267.42543
267.42694
267.42844
267.42995
267.43145
267.43295
267.43445
267.43594
267.43744
267.43893
267.44043
267.44192
267.44341
267.44489
267.44638
267.44786
267.44934
267.45082
267.4523
267.45378
267.45525
267.45673
267.4582
267.45967
267.46114
267.4626
267.46407
267.46553
267.46699
267.46845
267.4699
267.47136
267.47281
267.47426
267.47571
267.47716
267.47861
267.48005
267.4815
267.48294
267.48438
267.48582
267.48726
267.48869
267.49013
267.49156
267.49299
267.49441
267.49584
267.49726
267.49868
267.5001
267.50152
267.50294
267.50436
267.50577
267.50718
267.50859
267.51
267.51141
267.51281
267.51421
267.51561
267.51701
267.5184
267.5198
267.52119
267.52258
267.52397
267.52536
267.52675
267.52813
267.52951
267.53089
267.53227
267.53365
267.53502
267.53639
267.53776
267.53913
267.5405
267.54186
267.54322
267.54458
267.54594
267.5473
267.54866
267.55001
267.55136
267.55271
267.55406
267.5554
267.55675
267.55809
267.55943
267.56077
267.56211
267.56344
267.56478
267.56611
267.56744
267.56876
267.57009
267.57141
267.57273
267.57405
267.57537
267.57668
267.578
267.57931
267.58062
267.58193
267.58324
267.58454
267.58585
267.58715
267.58845
267.58975
267.59104
267.59234
267.59363
267.59492
267.59621
267.59749
267.59878
267.60006
267.60134
267.60262
267.6039
267.60517
267.60645
267.60772
267.60899
267.61026
267.61153
267.6128
267.61406
267.61532
267.61658
267.61784
267.61909
267.62035
267.6216
267.62285
267.6241
267.62535
267.6266
267.62784
267.62908
267.63032
267.63156
267.6328
267.63403
267.63527
267.6365
267.63773
267.63896
267.64018
267.64141
267.64263
267.64385
267.64507
267.64629
267.64751
267.64872
267.64994
267.65115
267.65235
267.65356
267.65477
267.65597
267.65717
267.65837
267.65957
267.66077
267.66196
267.66316
267.66435
267.66554
267.66672
267.66791
267.6691
267.67028
267.67146
267.67264
267.67382
267.67499
267.67617
267.67734
267.67851
267.67968
267.68085
267.68201
267.68317
267.68434
267.6855
267.68665
267.68781
267.68896
267.69012
267.69127
267.69242
267.69357
267.69471
267.69586
267.697
267.69814
267.69928
267.70042
267.70156
267.70269
267.70382
267.70495
267.70608
267.70721
267.70833
267.70945
267.71057
267.71169
267.71281
267.71392
267.71504
267.71615
267.71726
267.71837
267.71948
267.72058
267.72168
267.72278
267.72388
267.72498
267.72608
267.72717
267.72826
267.72935
267.73044
267.73153
267.73261
267.73369
267.73477
267.73585
267.73692
267.738
267.73907
267.74014
267.74121
267.74228
267.74334
267.7444
267.74547
267.74652
267.74758
267.74864
267.74969
267.75074
267.75179
267.75284
267.75388
267.75493
267.75597
267.75701
267.75804
267.75908
267.76011
267.76114
267.76217
267.7632
267.76423
267.76525
267.76627
267.76729
267.76831
267.76932
267.77033
267.77134
267.77235
267.77336
267.77436
267.77537
267.77637
267.77737
267.77836
267.77936
267.78035
267.78134
267.78233
267.78332
267.7843
267.78529
267.78627
267.78725
267.78823
267.78921
267.79018
267.79115
267.79212
267.79309
267.79406
267.79502
267.79599
267.79695
267.79791
267.79887
267.79982
267.80077
267.80173
267.80267
267.80362
267.80457
267.80551
267.80646
267.8074
267.80834
267.80927
267.81021
267.81114
267.81208
267.81301
267.81394
267.81486
267.81579
267.81671
267.81763
267.81855
267.81947
267.82038
267.8213
267.82221
267.82313
267.82404
267.82494
267.82585
267.82675
267.82766
267.82856
267.82946
267.83035
267.83125
267.83215
267.83304
267.83393
267.83482
267.83571
267.8366
267.83748
267.83837
267.83925
267.84013
267.84101
267.84188
267.84276
267.84363
267.8445
267.84537
267.84624
267.84711
267.84797
267.84884
267.8497
267.85056
267.85142
267.85227
267.85313
267.85398
267.85483
267.85568
267.85653
267.85738
267.85822
267.85907
267.85991
267.86075
267.86159
267.86242
267.86326
267.86409
267.86492
267.86575
267.86658
267.8674
267.86822
267.86905
267.86987
267.87069
267.8715
267.87232
267.87313
267.87394
267.87475
267.87556
267.87637
267.87718
267.87798
267.87878
267.87958
267.88038
267.88117
267.88196
267.88276
267.88355
267.88433
267.88512
267.8859
267.88669
267.88747
267.88824
267.88902
267.8898
267.89057
267.89134
267.89211
267.89287
267.89364
267.8944
267.89516
267.89593
267.89668
267.89744
267.8982
267.89895
267.8997
267.90045
267.9012
267.90194
267.90268
267.90342
267.90416
267.9049
267.90563
267.90637
267.9071
267.90783
267.90855
267.90928
267.91
267.91072
267.91144
267.91216
267.91287
267.91359
267.9143
267.91501
267.91572
267.91643
267.91713
267.91783
267.91853
267.91923
267.91993
267.92062
267.92132
267.92201
267.92269
267.92338
267.92407
267.92475
267.92543
267.92611
267.92678
267.92746
267.92813
267.9288
267.92947
267.93014
267.93081
267.93147
267.93213
267.93279
267.93345
267.93411
267.93476
267.93541
267.93606
267.93671
267.93736
267.93801
267.93865
267.93929
267.93993
267.94057
267.9412
267.94184
267.94247
267.9431
267.94373
267.94436
267.94498
267.9456
267.94622
267.94684
267.94746
267.94808
267.94869
267.9493
267.94991
267.95052
267.95113
267.95173
267.95234
267.95294
267.95354
267.95414
267.95474
267.95533
267.95592
267.95652
267.9571
267.95769
267.95828
267.95886
267.95944
267.96002
267.9606
267.96118
267.96176
267.96233
267.9629
267.96347
267.96404
267.96461
267.96518
267.96574
267.9663
267.96686
267.96742
267.96797
267.96853
267.96908
267.96964
267.97019
267.97074
267.97128
267.97183
267.97237
267.97291
267.97345
267.97399
267.97452
267.97506
267.97559
267.97612
267.97665
267.97718
267.9777
267.97823
267.97875
267.97927
267.97979
267.98031
267.98083
267.98134
267.98185
267.98236
267.98287
267.98338
267.98388
267.98439
267.98489
267.98538
267.98588
267.98637
267.98687
267.98736
267.98784
267.98833
267.98882
267.9893
267.98979
267.99027
267.99075
267.99123
267.9917
267.99218
267.99265
267.99312
267.99359
267.99405
267.99452
267.99498
267.99544
267.9959
267.99635
267.9968
267.99725
267.9977
267.99815
267.99859
267.99904
267.99948
267.99992
268.00036
268.00079
268.00123
268.00166
268.00209
268.00252
268.00294
268.00337
268.00379
268.00421
268.00463
268.00505
268.00546
268.00587
268.00628
268.00669
268.00709
268.00749
268.00789
268.00829
268.00869
268.00908
268.00948
268.00987
268.01026
268.01064
268.01103
268.01141
268.01179
268.01217
268.01255
268.01292
268.0133
268.01367
268.01404
268.0144
268.01477
268.01513
268.01549
268.01585
268.0162
268.01655
268.0169
268.01725
268.0176
268.01795
268.01829
268.01863
268.01897
268.01931
268.01964
268.01997
268.02031
268.02063
268.02096
268.02128
268.02161
268.02193
268.02225
268.02256
268.02288
268.02319
268.0235
268.02381
268.02411
268.02442
268.02472
268.02502
268.02532
268.02562
268.02591
268.0262
268.02649
268.02678
268.02707
268.02735
268.02763
268.02791
268.02819
268.02847
268.02874
268.02901
268.02928
268.02955
268.02982
268.03009
268.03035
268.03062
268.03088
268.03113
268.03139
268.03164
268.0319
268.03215
268.03239
268.03264
268.03288
268.03312
268.03336
268.0336
268.03383
268.03407
268.0343
268.03453
268.03476
268.03499
268.03521
268.03544
268.03566
268.03588
268.03609
268.03631
268.03652
268.03673
268.03694
268.03715
268.03736
268.03757
268.03777
268.03797
268.03817
268.03837
268.03857
268.03876
268.03895
268.03914
268.03933
268.03951
268.0397
268.03988
268.04006
268.04024
268.04042
268.04059
268.04077
268.04094
268.04111
268.04127
268.04144
268.0416
268.04176
268.04192
268.04208
268.04224
268.0424
268.04255
268.0427
268.04285
268.043
268.04314
268.04329
268.04343
268.04357
268.0437
268.04384
268.04397
268.0441
268.04423
268.04436
268.04449
268.04461
268.04473
268.04485
268.04497
268.04509
268.0452
268.04531
268.04542
268.04553
268.04564
268.04574
268.04584
268.04594
268.04604
268.04614
268.04623
268.04632
268.04641
268.0465
268.04659
268.04667
268.04675
268.04683
268.04691
268.04698
268.04706
268.04713
268.0472
268.04727
268.04733
268.0474
268.04746
268.04752
268.04758
268.04763
268.04769
268.04774
268.04779
268.04783
268.04788
268.04792
268.04796
268.048
268.04803
268.04806
268.04809
268.04812
268.04815
268.04818
268.0482
268.04822
268.04824
268.04826
268.04827
268.04829
268.0483
268.0483
268.04831
268.04831
268.04831
268.04831
268.04831
268.0483
268.04829
268.04828
268.04827
268.04826
268.04824
268.04822
268.0482
268.04818
268.04815
268.04812
268.04809
268.04806
268.04803
268.04799
268.04796
268.04792
268.04788
268.04783
268.04779
268.04774
268.04769
268.04764
268.04759
268.04753
268.04748
268.04742
268.04736
268.04729
268.04723
268.04716
268.04709
268.04702
268.04694
268.04686
268.04678
268.0467
268.04661
268.04652
268.04644
268.04634
268.04625
268.04616
268.04606
268.04597
268.04586
268.04576
268.04566
268.04555
268.04545
268.04533
268.04522
268.04511
268.04499
268.04487
268.04476
268.04463
268.04451
268.04439
268.04426
268.04413
268.044
268.04387
268.04374
268.04361
268.04347
268.04333
268.04319
268.04304
268.0429
268.04275
268.0426
268.04245
268.0423
268.04214
268.04199
268.04183
268.04167
268.04151
268.04135
268.04118
268.04102
268.04085
268.04068
268.04051
268.04034
268.04017
268.03999
268.03981
268.03963
268.03945
268.03927
268.03908
268.0389
268.03871
268.03852
268.03833
268.03814
268.03795
268.03775
268.03756
268.03736
268.03716
268.03697
268.03676
268.03656
268.03636
268.03615
268.03595
268.03574
268.03553
268.03532
268.0351
268.03489
268.03467
268.03445
268.03423
268.03401
268.03378
268.03356
268.03332
268.03311
268.03286
268.03265
268.0324
268.03219
268.03195
268.03171
268.03149
268.03123
268.03101
268.03076
268.03052
268.03029
268.03003
268.0298
268.02955
268.0293
268.02906
268.02879
268.02855
268.0283
268.02804
268.02779
268.02753
268.02727
268.02702
268.02676
268.0265
268.02624
268.02597
268.02571
268.02545
268.02518
268.02492
268.02465
268.02438
268.02411
268.02385
268.02357
268.0233
268.02303
268.02275
268.02247
268.0222
268.02193
268.02164
268.02137
268.02109
268.0208
268.02052
268.02024
268.01995
268.01966
268.01937
268.01909
268.01879
268.0185
268.01822
268.01793
268.01763
268.01735
268.01706
268.01677
268.01647
268.01618
268.01589
268.0156
268.0153
268.01501
268.01472
268.01442
268.01412
268.01383
268.01353
268.01323
268.01293
268.01263
268.01233
268.01203
268.01172
268.01141
268.01112
268.01081
268.0105
268.01019
268.00989
268.00958
268.00926
268.00893
268.00861
268.0083
268.00797
268.00763
268.00729
268.00695
268.00662
268.00628
268.00591
268.00554
268.00516
268.00479
268.00442
268.00402
268.0036
268.0032
268.0028
268.00241
268.00199
268.00154
268.00108
268.00063
268.00018
267.99973
267.99925
267.99875
267.99825
267.99778
267.99731
267.99684
267.99634
267.99581
267.99526
267.99474
267.99424
267.99376
267.99326
267.99274
267.99221
267.99169
267.99123
267.99083
267.99046
267.99007
267.98964
267.98918
267.98875
267.98838
267.98808
267.98781
267.98751
267.98717
267.98678
267.98638
267.98601
267.98572
267.9855
267.9853
267.98508
267.98479
267.98441
267.98396
267.9835
267.98306
267.98268
267.98237
267.9821
267.98182
267.9815
267.98109
267.98059
267.97999
267.9793
267.97858
267.97783
267.97712
267.97648
267.97594
267.97555
267.97531
267.97518
267.97515
267.97516
267.9752
267.97537
267.97595
267.97778
267.98319
267.99869
268.04283
268.16875
268.5295
269.23941
270.03707
270.88843
271.77481
272.6787
273.58305
274.47223
275.33252
276.15242
276.92287
277.63727
278.29141
278.88321
279.41248
279.88062
280.29025
280.64494
280.94895
281.20693
281.42375
281.60427
281.75321
281.87501
281.97377
282.05317
282.11645
282.16647
282.20563
282.23599
282.25927
282.27689
282.29001
282.2996
282.30643
282.31114
282.31427
282.31621
282.3173
282.31779
282.31793
282.31793
282.31777
282.31712
282.31567
282.31422
282.31283
282.31152
282.31025
282.30904
282.30785
282.3067
282.30558
282.30447
282.30339
282.30233
282.30128
282.30024
282.29921
282.2982
282.29718
282.29617
282.29516
282.29414
282.29312
282.29209
282.29105
282.28999
282.28892
282.28784
282.28674
282.28563
282.2845
282.28336
282.2822
282.28104
282.27986
282.27868
282.2775
282.27631
282.27512
282.27393
282.27275
282.27157
282.2704
282.26923
282.26807
282.26692
282.26578
282.26465
282.26353
282.26243
282.26133
282.26025
282.25917
282.25811
282.25705
282.25601
282.25497
282.25395
282.25293
282.25191
282.25091
282.24991
282.24891
282.24792
282.24693
282.24594
282.24496
282.24398
282.24301
282.24203
282.24106
282.24009
282.23912
282.23815
282.23718
282.23622
282.23525
282.23429
282.23332
282.23236
282.2314
282.23043
282.22947
282.22851
282.22754
282.22658
282.22561
282.22465
282.22368
282.22271
282.22174
282.22077
282.2198
282.21883
282.21786
282.21689
282.21592
282.21494
282.21397
282.213
282.21202
282.21104
282.21007
282.20909
282.20811
282.20713
282.20615
282.20517
282.20418
282.2032
282.20221
282.20122
282.20023
282.19924
282.19825
282.19725
282.19626
282.19526
282.19426
282.19326
282.19226
282.19125
282.19025
282.18924
282.18823
282.18722
282.18621
282.1852
282.18419
282.18317
282.18216
282.18114
282.18012
282.1791
282.17808
282.17705
282.17603
282.175
282.17397
282.17294
282.17191
282.17087
282.16984
282.1688
282.16776
282.16672
282.16568
282.16463
282.16358
282.16254
282.16149
282.16044
282.15938
282.15833
282.15727
282.15621
282.15515
282.15409
282.15303
282.15196
282.15089
282.14983
282.14876
282.14768