/*--------------------------------*- C++ -*----------------------------------*\
  =========                 |
  \\      /  F ield         | OpenFOAM: The Open Source CFD Toolbox
   \\    /   O peration     | Website:  https://openfoam.org
    \\  /    A nd           | Version:  7
     \\/     M anipulation  |
\*---------------------------------------------------------------------------*/
FoamFile
{
    version     2.0;
    format      ascii;
    class       volVectorField;
    location    "0.00162";
    object      U;
}
// * * * * * * * * * * * * * * * * * * * * * * * * * * * * * * * * * * * * * //

dimensions      [0 1 -1 0 0 0 0];

internalField   nonuniform List<vector> 
5000
(
(-44.278568 4.5970582e-17 0)
(-44.231556 4.7469308e-17 0)
(-44.207333 0 0)
(-44.178527 0 0)
(-44.150642 -2.5038186e-17 0)
(-44.12216 2.855489e-32 -2.5117147e-17)
(-44.093797 2.5177964e-17 -5.3670058e-32)
(-44.065474 0 7.5671291e-17)
(-44.037231 0 2.5266805e-17)
(-44.009073 -2.5309359e-17 -5.0618717e-17)
(-43.980989 -5.0703454e-17 -5.0703454e-17)
(-43.952964 2.5393564e-17 2.5393564e-17)
(-43.924987 2.5434678e-17 -2.1686911e-31)
(-43.897049 -2.5474328e-17 -2.2444743e-31)
(-43.869144 0 5.1024961e-17)
(-43.841271 -2.5548726e-17 -5.1097451e-17)
(-43.81343 2.7395482e-47 1.3697741e-47)
(-43.785621 2.5615575e-17 -2.2569191e-31)
(-43.757846 0 -2.5646164e-17)
(-43.730105 2.5674914e-17 5.1349827e-17)
(-43.702401 -2.570198e-17 2.570198e-17)
(-43.674733 -2.572742e-17 0)
(-43.647103 5.1502725e-17 0)
(-43.619509 -2.5773802e-17 -2.5773802e-17)
(-43.59195 -2.5794787e-17 2.1993958e-31)
(-43.564428 -2.1276877e-31 -2.1276877e-31)
(-43.536941 2.5832281e-17 -2.5832281e-17)
(-43.509491 2.5848861e-17 2.5848861e-17)
(-43.482076 -5.1728304e-17 2.5864152e-17)
(-43.454697 4.4865712e-31 -2.5878228e-17)
(-43.427353 -4.5256177e-31 4.5256177e-31)
(-43.400042 2.5903127e-17 -2.2086334e-31)
(-43.372764 5.1827963e-17 -2.5913982e-17)
(-43.345516 -5.1847478e-17 2.5923739e-17)
(-43.318299 4.4959764e-31 2.5932477e-17)
(-43.291113 -2.2560325e-30 0)
(-43.263957 -8.9970309e-31 0)
(-43.236832 5.1906392e-17 -2.5953196e-17)
(-43.209736 -5.1917056e-17 -2.5958528e-17)
(-43.182669 -5.1926121e-17 2.5963061e-17)
(-43.155629 5.1933601e-17 -4.3543231e-31)
(-43.128616 -1.7862069e-30 -2.5969656e-17)
(-43.10163 -5.1943281e-17 2.597164e-17)
(-43.07467 2.5972704e-17 -4.3922225e-31)
(-43.047737 7.7918762e-17 -2.5972921e-17)
(-43.020829 -2.5972291e-17 2.5972291e-17)
(-42.993947 -2.5970903e-17 -8.9314633e-31)
(-42.96709 -1.7787622e-30 8.8938111e-31)
(-42.940258 -5.1931575e-17 -8.9297041e-31)
(-42.913449 0 4.4273081e-31)
(-42.886664 2.5957437e-17 2.5957437e-17)
(-42.859904 3.6880125e-33 0)
(-42.833169 -2.5946087e-17 0)
(-42.806458 5.1878994e-17 0)
(-42.779772 -9.0656245e-31 0)
(-42.753109 -5.184931e-17 0)
(-42.726469 2.5916297e-17 0)
(-42.699852 -8.9463908e-31 0)
(-42.673259 -2.5897641e-17 0)
(-42.64669 0 0)
(-42.620144 2.5876965e-17 0)
(-42.593622 8.8218556e-31 0)
(-42.567122 7.348283e-33 0)
(-42.540645 2.5842465e-17 -2.5842465e-17)
(-42.51419 -2.5830002e-17 -2.5830002e-17)
(-42.487759 9.0253376e-31 2.5817141e-17)
(-42.46135 2.580394e-17 -4.4370221e-31)
(-42.434964 -2.5790399e-17 -5.6100993e-49)
(-42.408601 -2.577649e-17 2.577649e-17)
(-42.38226 2.5762215e-17 0)
(-42.355941 2.5747583e-17 0)
(-42.329645 -2.5732634e-17 -2.5732634e-17)
(-42.303371 -2.5717365e-17 -2.5717365e-17)
(-42.27712 5.1403574e-17 0)
(-42.250892 2.5685879e-17 2.5685879e-17)
(-42.224685 -2.5669662e-17 8.8643443e-31)
(-42.198501 0 -2.5653122e-17)
(-42.17234 2.5636277e-17 -2.5636277e-17)
(-42.146201 -3.6406937e-33 2.5619104e-17)
(-42.120084 -2.5601632e-17 5.1203264e-17)
(-42.09399 2.5583864e-17 -5.1167728e-17)
(-42.067918 -7.2662497e-33 1.4532499e-32)
(-42.04187 7.2610543e-33 7.6642691e-17)
(-42.015843 2.5529044e-17 -5.1058089e-17)
(-41.98984 2.5510272e-17 -2.6536666e-30)
(-41.963859 8.8751968e-31 5.0982568e-17)
(-41.937901 -2.5472096e-17 -7.6416288e-17)
(-41.911966 0 2.5452755e-17)
(-41.886054 -2.5433255e-17 2.5433255e-17)
(-41.860165 -2.6363884e-30 -2.5413608e-17)
(-41.834299 -8.8773385e-31 2.5393787e-17)
(-41.808455 2.5373808e-17 2.5373808e-17)
(-41.782634 2.5353662e-17 8.8272816e-31)
(-41.756837 -5.0666782e-17 -5.0666782e-17)
(-41.731062 -1.7518334e-30 -1.7518334e-30)
(-41.705311 2.5292532e-17 -2.5292532e-17)
(-41.679583 0 -2.5271978e-17)
(-41.653878 0 -8.8634321e-31)
(-41.628196 -2.5230648e-17 1.7568904e-30)
(-41.602536 -1.7482766e-30 5.0419684e-17)
(-41.576899 5.0377802e-17 2.5188901e-17)
(-41.551284 -2.516782e-17 -2.516782e-17)
(-41.525693 -5.0293123e-17 3.5735413e-33)
(-41.500125 0 2.5125125e-17)
(-41.474581 2.5103477e-17 0)
(-41.44906 2.5081619e-17 -2.5081619e-17)
(-41.423564 -2.5059515e-17 -8.7248696e-31)
(-41.398092 -2.5037158e-17 2.5037158e-17)
(-41.372644 0 -2.5014505e-17)
(-41.347221 0 -2.4991552e-17)
(-41.321822 2.4968278e-17 4.9936557e-17)
(-41.296448 2.4944718e-17 2.4944718e-17)
(-41.2711 0 -7.4762651e-17)
(-41.245777 -2.4896828e-17 -2.4896828e-17)
(-41.220479 8.6951257e-31 7.4617692e-17)
(-41.195207 2.4848135e-17 -2.4848135e-17)
(-41.16996 -2.4823553e-17 -2.4823553e-17)
(-41.144739 7.048266e-33 -1.4096532e-32)
(-41.119543 -8.6607265e-31 -2.4774165e-17)
(-41.094374 -1.0957189e-48 7.424847e-17)
(-41.06923 4.944981e-17 -1.7287012e-30)
(-41.044113 -1.0530447e-32 -4.9400957e-17)
(-41.019021 -2.4676227e-17 4.9352455e-17)
(-40.993955 0 2.4652192e-17)
(-40.968913 -2.4628374e-17 -2.4628374e-17)
(-40.943896 2.4604807e-17 2.4604807e-17)
(-40.918904 2.4581489e-17 -2.4581489e-17)
(-40.893936 -4.9116891e-17 -4.9116891e-17)
(-40.868992 -2.4535658e-17 2.4535658e-17)
(-40.844072 4.9026263e-17 8.464967e-31)
(-40.819175 2.4490833e-17 2.4490833e-17)
(-40.794301 -2.4468766e-17 4.8937532e-17)
(-40.76945 -2.4446909e-17 -2.4446909e-17)
(-40.744623 -2.4425285e-17 -2.4425285e-17)
(-40.719818 0 -2.4403879e-17)
(-40.695035 2.4382708e-17 -8.4892284e-31)
(-40.670275 2.4361743e-17 -8.4473092e-31)
(-40.645536 -2.4340985e-17 8.474702e-31)
(-40.620819 -8.4329733e-31 4.8640798e-17)
(-40.596123 2.4299992e-17 2.4299992e-17)
(-40.571449 -2.4279741e-17 -2.4279741e-17)
(-40.546795 -2.4259664e-17 -4.8519328e-17)
(-40.522162 0 -2.4239744e-17)
(-40.49755 2.4219999e-17 -2.4219999e-17)
(-40.472959 2.4200418e-17 1.6782741e-30)
(-40.448388 -2.4181024e-17 4.8362048e-17)
(-40.423838 2.4161804e-17 -6.8671978e-33)
(-40.399307 -1.3723578e-32 6.8617892e-33)
(-40.374797 -2.412391e-17 7.3578009e-48)
(-40.350305 2.4105216e-17 2.4105216e-17)
(-40.325833 -2.4086669e-17 -1.6703857e-30)
(-40.30138 1.6759511e-30 3.3519023e-30)
(-40.276946 2.4050038e-17 2.4050038e-17)
(-40.252531 -2.4031963e-17 -2.4031963e-17)
(-40.228135 2.4014043e-17 2.4014043e-17)
(-40.203758 2.3996299e-17 8.3205934e-31)
(-40.179399 -2.3978716e-17 -2.3978716e-17)
(-40.155059 0 2.3961311e-17)
(-40.130737 0 -3.4026557e-33)
(-40.106432 -2.3926979e-17 -2.3926979e-17)
(-40.082146 -2.3910044e-17 0)
(-40.057877 2.3893276e-17 2.3893276e-17)
(-40.033625 2.3876664e-17 1.652429e-30)
(-40.009391 -2.3860241e-17 -4.7720482e-17)
(-39.985175 -1.653557e-30 2.3844001e-17)
(-39.960975 2.3827969e-17 -6.7723161e-33)
(-39.936792 -2.3812121e-17 -2.3812121e-17)
(-39.912625 -2.3796462e-17 2.3796462e-17)
(-39.888474 0 -2.3780959e-17)
(-39.864339 2.376562e-17 2.376562e-17)
(-39.84022 2.375043e-17 -9.8959077e-30)
(-39.816117 0 -6.5841071e-30)
(-39.79203 -2.3720584e-17 2.3720584e-17)
(-39.767959 -2.3705962e-17 -4.7411923e-17)
(-39.743903 0 0)
(-39.719863 2.3677344e-17 -1.6419995e-30)
(-39.695837 4.9230833e-30 -4.9230833e-30)
(-39.671825 -2.3649507e-17 2.3649507e-17)
(-39.647827 2.3635832e-17 2.3635832e-17)
(-39.623843 2.362232e-17 1.6281128e-30)
(-39.599874 -2.3608954e-17 -2.3608954e-17)
(-39.575918 -1.6296354e-30 2.3595761e-17)
(-39.551977 1.6220327e-30 1.6220327e-30)
(-39.528049 1.0048444e-32 1.0048444e-32)
(-39.504136 2.3557213e-17 3.2639892e-30)
(-39.480236 -2.3544759e-17 -4.7089518e-17)
(-39.45635 -3.2639111e-30 2.3532513e-17)
(-39.432476 1.6177519e-30 2.352049e-17)
(-39.408615 -1.6169378e-30 -1.6169378e-30)
(-39.384766 2.3497006e-17 1.6194758e-30)
(-39.360929 0 -4.8827518e-30)
(-39.337103 0 1.62124e-30)
(-39.31329 -2.3463042e-17 -2.3463042e-17)
(-39.289488 -2.3452048e-17 0)
(-39.265697 0 0)
(-39.241919 0 0)
(-39.218152 2.3420044e-17 0)
(-39.194397 4.0841965e-49 -2.3409802e-17)
(-39.170652 -2.3399793e-17 4.8782306e-30)
(-39.146918 0 2.339001e-17)
(-39.123194 2.3380398e-17 2.3380398e-17)
(-39.09948 -2.3370946e-17 -2.3370946e-17)
(-39.075775 -6.473782e-30 -2.3361637e-17)
(-39.052079 4.6705011e-17 4.6705011e-17)
(-39.028394 -2.3343548e-17 1.6155337e-30)
(-39.004718 -4.8447807e-30 -4.8447807e-30)
(-38.981052 -3.3148483e-33 -2.3326171e-17)
(-38.957395 -2.3317746e-17 -2.3317746e-17)
(-38.933748 2.3309516e-17 2.3309516e-17)
(-38.91011 -3.3113477e-33 0)
(-38.88648 -3.2241824e-30 2.3293806e-17)
(-38.862858 1.6115723e-30 1.6115723e-30)
(-38.839244 -2.3278967e-17 -2.3278967e-17)
(-38.815637 0 -2.327176e-17)
(-38.792037 2.3264671e-17 3.2399864e-30)
(-38.768445 1.6095972e-30 2.3257769e-17)
(-38.744862 6.4530614e-30 -4.6502184e-17)
(-38.721286 2.3244685e-17 2.3244685e-17)
(-38.697717 0 2.3238507e-17)
(-38.674155 -2.3232531e-17 -2.3232531e-17)
(-38.650598 -2.3226712e-17 2.3226712e-17)
(-38.627048 0 0)
(-38.603504 0 0)
(-38.579966 0 0)
(-38.556433 2.3205591e-17 2.3205591e-17)
(-38.532906 1.6056598e-30 -2.3200876e-17)
(-38.509383 -2.3196308e-17 -4.6392617e-17)
(-38.485865 0 2.3191898e-17)
(-38.462352 0 -1.6113351e-30)
(-38.438844 2.318365e-17 2.318365e-17)
(-38.415342 2.3179901e-17 2.3179901e-17)
(-38.391844 -2.3176424e-17 -4.6352848e-17)
(-38.36835 -2.3173161e-17 6.5862084e-33)
(-38.34486 0 -6.585334e-33)
(-38.321372 2.316715e-17 2.316715e-17)
(-38.297887 2.3164391e-17 2.3164391e-17)
(-38.274406 -2.3161813e-17 -4.6323627e-17)
(-38.250928 -2.3159437e-17 3.2911539e-33)
(-38.227452 0 -4.8243664e-30)
(-38.203979 2.3155066e-17 2.3155066e-17)
(-38.180508 -6.4291173e-30 -1.2858235e-29)
(-38.15704 -1.6054919e-30 -3.2109837e-30)
(-38.133575 2.314895e-17 2.314895e-17)
(-38.110113 -2.3147149e-17 -2.3147149e-17)
(-38.086654 -2.3145501e-17 0)
(-38.063197 0 -2.3143933e-17)
(-38.039741 2.3142336e-17 2.3142336e-17)
(-38.016286 -3.2161378e-30 2.3140652e-17)
(-37.992833 2.3138897e-17 -2.3138897e-17)
(-37.969383 3.2090748e-30 0)
(-37.945936 -4.6270966e-17 -2.3135483e-17)
(-37.922492 2.3133917e-17 2.3133917e-17)
(-37.899049 -3.2084126e-30 2.3132374e-17)
(-37.875607 -8.0303341e-30 -8.0303341e-30)
(-37.852167 -1.60069e-30 -4.625813e-17)
(-37.828729 -2.3127347e-17 -4.6254695e-17)
(-37.805295 2.3125711e-17 6.9377132e-17)
(-37.781863 2.3124248e-17 4.6248495e-17)
(-37.758433 0 0)
(-37.735005 -2.3121916e-17 -4.6243832e-17)
(-37.711577 -2.3120905e-17 -2.3120905e-17)
(-37.68815 0 2.311998e-17)
(-37.664725 2.3119236e-17 2.3119236e-17)
(-37.641301 2.311878e-17 2.311878e-17)
(-37.617879 -4.6237362e-17 -4.6237362e-17)
(-37.594458 -2.3118945e-17 -4.623789e-17)
(-37.571036 2.3119568e-17 2.3119568e-17)
(-37.547612 2.3120536e-17 4.6241072e-17)
(-37.524187 6.4138973e-30 6.4138973e-30)
(-37.500762 -2.3123432e-17 -4.6246863e-17)
(-37.477335 2.3125447e-17 2.3125447e-17)
(-37.453908 -1.6038993e-30 -3.2077986e-30)
(-37.430479 -2.3130982e-17 -2.3130982e-17)
(-37.407046 2.3134542e-17 4.6269084e-17)
(-37.383608 -1.6079239e-30 -2.3138565e-17)
(-37.360167 1.6115207e-30 3.2230415e-30)
(-37.336721 -6.579013e-33 2.3147844e-17)
(-37.313271 -1.5990672e-30 -2.3153159e-17)
(-37.289817 2.3158996e-17 2.3158996e-17)
(-37.266358 0 -4.6330744e-17)
(-37.242891 0 9.6681731e-30)
(-37.219417 -2.3179562e-17 4.6359123e-17)
(-37.195935 -2.3187274e-17 -4.6374547e-17)
(-37.172446 0 -1.6052802e-30)
(-37.14895 0 2.3203941e-17)
(-37.125445 0 0)
(-37.101932 0 0)
(-37.078409 2.3232209e-17 2.3232209e-17)
(-37.054876 1.6019309e-30 -2.3242447e-17)
(-37.031333 -4.6506143e-17 -4.6506143e-17)
(-37.007779 9.9180704e-33 2.3264072e-17)
(-36.984214 2.3275422e-17 -6.6152729e-33)
(-36.960637 2.3287102e-17 2.3287102e-17)
(-36.93705 -3.2348505e-30 2.3299116e-17)
(-36.913451 -3.2299432e-30 -2.3311492e-17)
(-36.889841 -3.3145758e-33 0)
(-36.866217 -2.3337395e-17 -2.3337395e-17)
(-36.842579 -2.3350873e-17 -2.3350873e-17)
(-36.818927 -2.3364638e-17 0)
(-36.795262 4.6757338e-17 4.6757338e-17)
(-36.771583 7.0178983e-17 2.3392994e-17)
(-36.747891 -2.3407661e-17 -4.6815321e-17)
(-36.724185 -4.6845385e-17 1.621011e-30)
(-36.700463 0 -6.6615028e-33)
(-36.676725 2.3453786e-17 2.3453786e-17)
(-36.652971 2.3469774e-17 2.3469774e-17)
(-36.629201 -2.3486026e-17 -2.3486026e-17)
(-36.605415 6.6798287e-33 2.3502558e-17)
(-36.581613 -1.002692e-32 -2.3519393e-17)
(-36.557795 6.6894893e-33 1.3378979e-32)
(-36.533959 2.3554027e-17 4.7108053e-17)
(-36.510106 2.3571817e-17 -2.3571817e-17)
(-36.486234 -2.3589901e-17 -2.3589901e-17)
(-36.462345 -4.7216521e-17 -2.360826e-17)
(-36.438437 2.3626886e-17 -3.2770005e-30)
(-36.41451 -9.9903281e-49 2.3645774e-17)
(-36.390565 2.3664928e-17 0)
(-36.366601 6.5632097e-30 0)
(-36.342618 -4.7408094e-17 -2.3704047e-17)
(-36.318615 0 3.2938439e-30)
(-36.294592 0 -6.5899337e-30)
(-36.270548 4.7529495e-17 -3.3028759e-30)
(-36.246484 -1.3209499e-29 2.3785463e-17)
(-36.222398 -4.7612762e-17 -2.3806381e-17)
(-36.198292 0 3.3860896e-33)
(-36.174165 2.3848778e-17 2.3848778e-17)
(-36.150017 2.387026e-17 0)
(-36.125847 -2.3891937e-17 0)
(-36.101657 3.3983562e-33 0)
(-36.077444 -3.3232551e-30 0)
(-36.053209 3.4046459e-33 0)
(-36.028953 2.3980431e-17 0)
(-36.004674 -2.4002943e-17 0)
(-35.980372 -2.4025601e-17 -2.4025601e-17)
(-35.956048 0 0)
(-35.9317 2.4071337e-17 2.4071337e-17)
(-35.90733 -3.3452672e-30 0)
(-35.882936 -2.4117569e-17 -2.4117569e-17)
(-35.858519 4.8281683e-17 -6.69657e-30)
(-35.834079 -6.7030513e-30 2.4164206e-17)
(-35.809616 -2.4187656e-17 0)
(-35.785129 -6.722966e-30 0)
(-35.760619 -4.846963e-17 -2.4234815e-17)
(-35.736087 4.8517084e-17 -3.3680572e-30)
(-35.711531 2.4282388e-17 2.4282388e-17)
(-35.686952 -2.4306365e-17 0)
(-35.662348 -3.4575675e-33 0)
(-35.63772 -2.4354682e-17 -2.4354682e-17)
(-35.613068 0 -2.4378983e-17)
(-35.58839 0 2.4403353e-17)
(-35.563689 2.4427783e-17 2.4427783e-17)
(-35.538963 -3.3914805e-30 0)
(-35.514213 -4.8953695e-17 -2.4476847e-17)
(-35.489439 3.4818738e-33 3.4818738e-33)
(-35.46464 7.35788e-17 2.4526267e-17)
(-35.439817 -2.4551118e-17 -2.4551118e-17)
(-35.414968 -2.4576045e-17 -2.4576045e-17)
(-35.390094 4.9202052e-17 2.4601026e-17)
(-35.365195 -2.4626043e-17 2.4626043e-17)
(-35.340271 2.4651086e-17 0)
(-35.315322 4.9352312e-17 -2.4676156e-17)
(-35.290349 -2.4701261e-17 -2.4701261e-17)
(-35.26535 -2.4726403e-17 2.4726403e-17)
(-35.240327 -2.4751581e-17 2.4751581e-17)
(-35.215278 2.4776782e-17 0)
(-35.190204 -2.6110228e-48 -2.4801995e-17)
(-35.165105 -2.4827205e-17 -2.4827205e-17)
(-35.139981 2.4852399e-17 2.4852399e-17)
(-35.114831 -2.4877569e-17 2.4877569e-17)
(-35.089657 2.4902707e-17 0)
(-35.064457 6.9077874e-30 0)
(-35.039233 7.0920363e-33 0)
(-35.013984 2.4977928e-17 0)
(-34.98871 -5.0005876e-17 0)
(-34.963411 2.5027903e-17 0)
(-34.938087 6.9566656e-30 0)
(-34.912738 -6.9564305e-30 0)
(-34.887364 -2.5102354e-17 -2.5102354e-17)
(-34.861965 -5.0253962e-17 2.0434497e-47)
(-34.836542 7.5454518e-17 2.5151506e-17)
(-34.811095 6.9836981e-30 0)
(-34.785624 -1.3980882e-29 0)
(-34.760128 6.9899807e-30 0)
(-34.734609 -5.0496944e-17 -2.5248472e-17)
(-34.709066 5.0544765e-17 -3.5052274e-30)
(-34.683499 -7.017045e-30 2.529614e-17)
(-34.657908 -5.0639462e-17 -2.5319731e-17)
(-34.632294 0 3.5186429e-30)
(-34.606657 0 -3.6047756e-33)
(-34.580997 2.5389356e-17 -3.5250595e-30)
(-34.555314 -3.5246119e-30 2.5412143e-17)
(-34.529609 -2.5434708e-17 -2.5434708e-17)
(-34.503881 -2.5457044e-17 2.5457044e-17)
(-34.478131 2.5479136e-17 -1.415734e-29)
(-34.45236 7.6502894e-17 -2.5500965e-17)
(-34.426566 -2.5522509e-17 2.5522509e-17)
(-34.400752 -2.5543751e-17 0)
(-34.374916 -7.2659196e-33 0)
(-34.34906 -2.5585295e-17 -2.5585295e-17)
(-34.323184 0 -3.5550812e-30)
(-34.297288 5.1251112e-17 2.5625556e-17)
(-34.271373 5.1290381e-17 -2.564519e-17)
(-34.245438 -2.5664479e-17 -2.5664479e-17)
(-34.219484 -5.1366817e-17 0)
(-34.193512 -2.5701969e-17 2.5701969e-17)
(-34.167521 5.1440309e-17 2.5720155e-17)
(-34.141513 5.1475924e-17 -2.5737962e-17)
(-34.115487 -5.1510779e-17 -7.1480991e-30)
(-34.089445 -5.1544871e-17 -3.6405132e-48)
(-34.063385 0 -3.5805592e-30)
(-34.037309 5.161072e-17 2.580536e-17)
(-34.011217 -2.5821227e-17 -2.5821227e-17)
(-33.98511 -5.1673386e-17 1.3346897e-47)
(-33.958988 2.5851763e-17 -3.5892601e-30)
(-33.932851 2.5866445e-17 -2.5866445e-17)
(-33.906701 -3.6778753e-33 0)
(-33.880536 3.5952174e-30 0)
(-33.854358 2.5908216e-17 2.5908216e-17)
(-33.828166 -2.5921381e-17 3.6836497e-33)
(-33.801962 -2.5934167e-17 -1.0791047e-29)
(-33.775746 2.5946584e-17 2.5946584e-17)
(-33.749518 -3.6004109e-30 0)
(-33.723278 -3.6906116e-33 0)
(-33.697027 -3.6036176e-30 -2.5981767e-17)
(-33.670766 -2.5992842e-17 7.2066135e-30)
(-33.644493 2.6003597e-17 2.6003597e-17)
(-33.61821 -1.083537e-29 0)
(-33.591917 -3.6131969e-30 0)
(-33.565615 -7.2254262e-30 0)
(-33.539303 -2.6043568e-17 -2.6043568e-17)
(-33.512982 2.6052861e-17 3.7023343e-33)
(-33.486652 -3.6184349e-30 2.6061896e-17)
(-33.460313 -7.2281932e-30 -2.6070675e-17)
(-33.433967 -3.7060781e-33 2.6079206e-17)
(-33.407612 -5.2174997e-17 -7.2513937e-30)
(-33.38125 -2.6095567e-17 -5.2191135e-17)
(-33.35488 2.6103429e-17 2.6103429e-17)
(-33.328503 5.222219e-17 1.0875797e-29)
(-33.302118 -3.6263038e-30 3.6263038e-30)
(-33.275726 -5.2251717e-17 -3.6273155e-30)
(-33.249327 -2.6132951e-17 -2.6132951e-17)
(-33.222922 5.2279692e-17 0)
(-33.19651 2.6146543e-17 0)
(-33.170091 -2.6153048e-17 2.6153048e-17)
(-33.143667 -2.6159367e-17 3.6319679e-30)
(-33.117237 -7.2619228e-30 -7.2619228e-30)
(-33.090801 2.6171476e-17 -3.8474919e-49)
(-33.06436 0 -2.617727e-17)
(-33.037914 0 2.6182886e-17)
(-33.011462 2.6188318e-17 2.6188318e-17)
(-32.985006 0 0)
(-32.958544 -2.6198608e-17 -2.6198608e-17)
(-32.932078 2.620346e-17 -3.6380897e-30)
(-32.905608 3.7243972e-33 2.6208115e-17)
(-32.879133 -7.2749844e-30 0)
(-32.852654 0 0)
(-32.826171 -2.6220862e-17 -2.6220862e-17)
(-32.799685 2.6224681e-17 7.4535025e-33)
(-32.773195 2.6228273e-17 -2.6944667e-49)
(-32.746703 -5.2463274e-17 -2.6231637e-17)
(-32.720207 -2.6234774e-17 2.6234774e-17)
(-32.693709 2.6237686e-17 -3.6353845e-30)
(-32.667209 0 3.6432146e-30)
(-32.640706 0 -7.2833824e-30)
(-32.614201 -2.6245056e-17 -2.6245056e-17)
(-32.587695 7.292013e-30 2.6247049e-17)
(-32.561187 2.6248809e-17 -7.288772e-30)
(-32.534678 0 7.292928e-30)
(-32.508167 0 -7.2932915e-30)
(-32.481656 -2.6252736e-17 -2.6252736e-17)
(-32.455144 1.0938885e-29 2.6253601e-17)
(-32.428632 2.6254238e-17 -7.2902793e-30)
(-32.40212 0 3.6526576e-30)
(-32.375607 0 0)
(-32.349095 0 -2.6254828e-17)
(-32.322584 0 2.6254648e-17)
(-32.296073 0 -3.6451473e-30)
(-32.269563 0 3.7308842e-33)
(-32.243054 0 -3.6449766e-30)
(-32.216546 0 3.6485878e-30)
(-32.190039 5.2502392e-17 2.6251196e-17)
(-32.163534 1.4570778e-29 -2.6250061e-17)
(-32.13703 -2.6248808e-17 -2.6248808e-17)
(-32.110528 2.6247446e-17 2.6247446e-17)
(-32.084028 -2.6245978e-17 2.6245978e-17)
(-32.057529 2.6244412e-17 0)
(-32.031033 -7.2945517e-30 -2.6242763e-17)
(-32.004539 -2.6241048e-17 -2.6241048e-17)
(-31.978047 -7.2861269e-30 0)
(-31.951557 -2.6237479e-17 2.6237479e-17)
(-31.925069 0 -3.6425569e-30)
(-31.898583 0 3.7280402e-33)
(-31.8721 2.623183e-17 3.6383009e-30)
(-31.845619 7.2835171e-30 -2.6229885e-17)
(-31.81914 -2.6227932e-17 2.6227932e-17)
(-31.792664 0 3.6374905e-30)
(-31.766191 0 -7.2818995e-30)
(-31.739719 0 -2.6222148e-17)
(-31.71325 0 -2.6220248e-17)
(-31.686783 0 5.2436718e-17)
(-31.660319 0 -3.7255868e-33)
(-31.633857 0 3.6359166e-30)
(-31.607397 5.2425656e-17 2.6212828e-17)
(-31.58094 -2.1819966e-29 -2.6211054e-17)
(-31.554485 -5.241863e-17 3.6389026e-30)
(-31.528031 2.6207603e-17 2.6207603e-17)
(-31.50158 3.7240837e-33 0)
(-31.475131 2.6204232e-17 0)
(-31.448684 -1.4529523e-29 0)
(-31.422239 -5.2401847e-17 -2.6200924e-17)
(-31.395796 -2.619929e-17 -2.619929e-17)
(-31.369356 2.3465642e-50 2.6197666e-17)
(-31.342917 7.8588133e-17 2.6196044e-17)
(-31.316481 0 0)
(-31.290046 -5.2385567e-17 -2.6192784e-17)
(-31.263614 0 -2.6191134e-17)
(-31.237184 0 2.6189465e-17)
(-31.210756 5.2375545e-17 2.6187772e-17)
(-31.18433 -7.2639023e-30 0)
(-31.157906 -7.8552872e-17 -2.6184291e-17)
(-31.131485 2.618249e-17 -2.618249e-17)
(-31.105066 2.6180642e-17 2.6180642e-17)
(-31.078649 -2.6178741e-17 7.2693154e-30)
(-31.052235 2.6176783e-17 -2.6176783e-17)
(-31.025823 -2.6174764e-17 0)
(-30.999413 -7.260194e-30 0)
(-30.973006 2.6170531e-17 0)
(-30.946601 -2.6168312e-17 0)
(-30.9202 0 2.6166022e-17)
(-30.893801 -2.6163658e-17 -7.2576911e-30)
(-30.867405 2.6161219e-17 -2.6161219e-17)
(-30.841011 5.2317407e-17 2.6158704e-17)
(-30.814621 -2.6156112e-17 3.631516e-30)
(-30.788234 -2.6153448e-17 -3.6348627e-30)
(-30.76185 -2.6150716e-17 3.1906195e-50)
(-30.73547 -2.6147919e-17 2.6147919e-17)
(-30.709092 5.2290125e-17 2.6145063e-17)
(-30.682719 2.614215e-17 -5.2284301e-17)
(-30.656348 -2.6139186e-17 -3.6291658e-30)
(-30.629981 0 3.6250332e-30)
(-30.603618 2.6133112e-17 -2.6133112e-17)
(-30.577258 -2.6130009e-17 0)
(-30.550901 -2.6126869e-17 2.6126869e-17)
(-30.524548 7.837109e-17 2.6123697e-17)
(-30.498199 7.4238926e-33 -2.61205e-17)
(-30.471854 -5.2234579e-17 -7.2448286e-30)
(-30.445513 2.6114076e-17 2.6114076e-17)
(-30.419175 3.6252341e-30 0)
(-30.392841 2.6107668e-17 0)
(-30.36651 -7.4193392e-33 -2.6104479e-17)
(-30.340183 -5.2202603e-17 3.6201968e-30)
(-30.313859 2.6098138e-17 2.6098138e-17)
(-30.287539 0 0)
(-30.261223 -7.2451977e-30 -2.6091886e-17)
(-30.234911 -3.7074441e-33 3.7074441e-33)
(-30.208601 -2.6085799e-17 -7.2435074e-30)
(-30.182296 2.6082829e-17 -3.6176347e-30)
(-30.155993 -7.241871e-30 2.6079906e-17)
(-30.129694 -3.6168302e-30 -2.6077028e-17)
(-30.103399 -3.7053663e-33 3.7053663e-33)
(-30.077106 -2.6071417e-17 -7.2395137e-30)
(-30.050817 2.6068694e-17 -2.6068694e-17)
(-30.024531 2.6582159e-50 2.6066034e-17)
(-29.998248 -7.2372983e-30 7.2372983e-30)
(-29.971969 -3.7034777e-33 3.7034777e-33)
(-29.945692 -5.211687e-17 -3.6179544e-30)
(-29.919418 -3.6139156e-30 -2.6056015e-17)
(-29.893147 2.605364e-17 2.605364e-17)
(-29.866878 0 0)
(-29.840613 0 -1.4462881e-29)
(-29.81435 -2.6046753e-17 -3.612631e-30)
(-29.78809 -1.0836971e-29 -1.0836971e-29)
(-29.761833 2.6042363e-17 -3.7008424e-33)
(-29.735578 -2.6040227e-17 -2.6040227e-17)
(-29.709326 3.6151339e-30 2.603812e-17)
(-29.683076 8.5568176e-52 8.5568176e-52)
(-29.656829 -3.6145538e-30 -3.6145538e-30)
(-29.630584 2.6031851e-17 7.2285271e-30)
(-29.604341 2.6029752e-17 -3.6139721e-30)
(-29.578101 3.6099804e-30 5.2055285e-17)
(-29.551864 -2.602552e-17 -2.602552e-17)
(-29.525629 0 -2.6023381e-17)
(-29.499397 0 -3.6127874e-30)
(-29.473168 2.6019029e-17 3.6124833e-30)
(-29.446941 -2.6016803e-17 5.2033606e-17)
(-29.420717 2.1656369e-29 -2.6014536e-17)
(-29.394496 2.6012224e-17 -2.6012224e-17)
(-29.368278 -2.6009865e-17 1.4876724e-50)
(-29.342063 0 0)
(-29.31585 2.6004991e-17 2.0091196e-50)
(-29.28964 2.600247e-17 -2.600247e-17)
(-29.263434 -2.5999886e-17 2.5999886e-17)
(-29.23723 -2.5997235e-17 2.9273366e-50)
(-29.211029 0 -3.6053855e-30)
(-29.184832 2.5991718e-17 -3.6936453e-33)
(-29.158637 2.5988849e-17 -2.5988849e-17)
(-29.132446 -5.1971815e-17 5.1971815e-17)
(-29.106258 -2.5982894e-17 7.2149326e-30)
(-29.080074 2.597981e-17 -2.597981e-17)
(-29.053893 2.5976656e-17 3.6029087e-30)
(-29.027716 3.6024618e-30 -3.6024618e-30)
(-29.001543 2.5970145e-17 2.5970145e-17)
(-28.975373 7.2104612e-30 -2.5966791e-17)
(-28.949207 -5.1926746e-17 -2.6567996e-49)
(-28.923045 0 -1.0816507e-29)
(-28.896887 0 7.2112513e-30)
(-28.870733 0 -7.2028765e-30)
(-28.844583 2.5949115e-17 -7.205553e-30)
(-28.818437 2.5945429e-17 7.9095733e-50)
(-28.792295 0 0)
(-28.766157 -2.5937952e-17 2.5937952e-17)
(-28.740024 -3.5933309e-30 0)
(-28.713895 2.5930374e-17 0)
(-28.68777 0 -2.5926559e-17)
(-28.661649 0 -7.1982274e-30)
(-28.635532 -2.59189e-17 2.59189e-17)
(-28.60942 -3.594366e-30 0)
(-28.583312 3.5901523e-30 0)
(-28.557208 -2.5907413e-17 -5.1814825e-17)
(-28.531108 2.5903616e-17 -2.1564032e-29)
(-28.505013 -1.0776767e-29 5.1799699e-17)
(-28.478922 -2.5896118e-17 -2.5896118e-17)
(-28.452835 0 3.679535e-33)
(-28.426752 -2.5888777e-17 -3.5943991e-30)
(-28.400673 -3.5938995e-30 -2.5885178e-17)
(-28.374598 2.5881635e-17 0)
(-28.348528 -2.5878153e-17 0)
(-28.322461 2.5874731e-17 0)
(-28.296397 2.5871372e-17 -2.5871372e-17)
(-28.270338 -2.5868076e-17 -7.1756978e-30)
(-28.244282 0 2.5864848e-17)
(-28.21823 2.5861697e-17 0)
(-28.192181 2.5858629e-17 0)
(-28.166137 -2.5855648e-17 -2.5855648e-17)
(-28.140095 -2.585275e-17 3.6738968e-33)
(-28.114057 0 2.5849929e-17)
(-28.088021 -2.5847179e-17 0)
(-28.061989 2.5844499e-17 0)
(-28.03596 2.5841891e-17 -2.5841891e-17)
(-28.009934 -2.5839357e-17 -7.1677313e-30)
(-27.983911 -5.1673797e-17 -7.1780643e-30)
(-27.957891 1.4347459e-29 7.1737296e-30)
(-27.931874 7.749656e-17 2.5832187e-17)
(-27.905859 9.6224941e-51 -2.582992e-17)
(-27.879847 -2.5827704e-17 7.168169e-30)
(-27.853838 -5.1651072e-17 -7.1675674e-30)
(-27.827831 1.4326617e-29 7.1633084e-30)
(-27.801827 5.1642661e-17 2.582133e-17)
(-27.775825 -2.5819283e-17 0)
(-27.749826 2.5817264e-17 0)
(-27.723829 -2.5815266e-17 -2.5815266e-17)
(-27.697834 -2.5813283e-17 7.4266505e-50)
(-27.671842 5.1622617e-17 2.5811309e-17)
(-27.645853 0 0)
(-27.619865 0 0)
(-27.59388 -5.1610742e-17 -2.5805371e-17)
(-27.567898 1.1504498e-50 2.3008996e-50)
(-27.541918 5.1602711e-17 2.5801355e-17)
(-27.51594 0 0)
(-27.489965 0 0)
(-27.463993 -5.1590296e-17 -2.5795148e-17)
(-27.438022 -4.7775159e-50 -9.5550318e-50)
(-27.412055 5.158164e-17 2.579082e-17)
(-27.38609 0 0)
(-27.360128 0 0)
(-27.334169 -5.1567989e-17 -2.5783995e-17)
(-27.308212 -2.5781628e-17 3.6637898e-33)
(-27.282259 5.1558427e-17 2.5779213e-17)
(-27.256308 2.5776747e-17 -2.5776747e-17)
(-27.23036 0 7.1606536e-30)
(-27.204415 -5.1543331e-17 -7.159941e-30)
(-27.178473 1.4311108e-29 7.1555539e-30)
(-27.152534 5.1532805e-17 2.5766402e-17)
(-27.126598 -2.5763706e-17 0)
(-27.100665 0 0)
(-27.074735 2.5758173e-17 0)
(-27.048808 -2.5755335e-17 0)
(-27.022884 3.6596441e-33 0)
(-26.996964 2.5749544e-17 -2.5749544e-17)
(-26.971047 -2.574661e-17 7.1456625e-30)
(-26.945134 2.5743661e-17 2.5743661e-17)
(-26.919224 2.5740697e-17 0)
(-26.893318 -2.5737719e-17 0)
(-26.867414 -2.5734725e-17 0)
(-26.841515 7.1451864e-30 0)
(-26.815618 2.5728707e-17 0)
(-26.789725 -2.5725699e-17 0)
(-26.763836 -7.142683e-30 0)
(-26.73795 2.5719727e-17 -2.5719727e-17)
(-26.712067 -2.5716768e-17 1.4274761e-29)
(-26.686188 2.5713828e-17 2.5713828e-17)
(-26.660312 2.5710905e-17 0)
(-26.634439 -2.5708004e-17 0)
(-26.60857 -2.5705133e-17 0)
(-26.582704 7.1370171e-30 0)
(-26.556841 2.5699507e-17 0)
(-26.530982 -2.5696756e-17 0)
(-26.505125 3.6513431e-33 0)
(-26.479272 2.5691365e-17 -2.5691365e-17)
(-26.453421 -2.5688724e-17 7.1295968e-30)
(-26.427574 2.5686125e-17 2.5686125e-17)
(-26.40173 2.5683575e-17 0)
(-26.375889 -2.5681076e-17 0)
(-26.35005 -5.1357249e-17 -2.5678625e-17)
(-26.324215 1.4266846e-29 7.1334229e-30)
(-26.298382 5.1347685e-17 2.5673842e-17)
(-26.272552 -2.5671502e-17 0)
(-26.246724 3.647812e-33 0)
(-26.2209 5.1333848e-17 0)
(-26.195078 7.2943443e-33 -2.5664692e-17)
(-26.169259 -2.5662498e-17 -7.1296119e-30)
(-26.143442 0 2.5660335e-17)
(-26.117628 2.5658197e-17 0)
(-26.091816 0 0)
(-26.066007 -2.5653967e-17 0)
(-26.040201 0 0)
(-26.014397 0 0)
(-25.988595 0 0)
(-25.962796 -2.5645659e-17 0)
(-25.937 -2.4888008e-51 -2.5643599e-17)
(-25.911205 2.5641533e-17 3.6438809e-33)
(-25.885414 0 2.5639455e-17)
(-25.859624 2.5637364e-17 0)
(-25.833838 -7.1184022e-30 0)
(-25.808054 -2.5633151e-17 0)
(-25.782272 0 0)
(-25.756493 0 0)
(-25.730717 0 0)
(-25.704943 -2.562451e-17 0)
(-25.679171 7.1147962e-30 -2.5622276e-17)
(-25.653403 2.5620013e-17 -3.6408229e-33)
(-25.627637 0 2.5617725e-17)
(-25.601874 2.5615412e-17 0)
(-25.576113 7.1086003e-30 0)
(-25.550356 -2.56107e-17 0)
(-25.524601 0 -2.5608296e-17)
(-25.498849 2.560586e-17 1.4216837e-29)
(-25.4731 -2.5603393e-17 2.5603393e-17)
(-25.447353 1.4224995e-29 0)
(-25.42161 2.5598373e-17 -2.5598373e-17)
(-25.39587 -2.5595826e-17 -7.111089e-30)
(-25.370132 0 2.5593258e-17)
(-25.344398 -2.559067e-17 0)
(-25.318667 -7.1052959e-30 0)
(-25.292938 2.5585437e-17 -2.5585437e-17)
(-25.267213 0 -2.5582796e-17)
(-25.24149 2.5580144e-17 2.5580144e-17)
(-25.215771 -2.5577485e-17 2.5577485e-17)
(-25.190055 -1.4203238e-29 0)
(-25.164342 2.5572156e-17 0)
(-25.138632 -1.4196645e-29 0)
(-25.112925 -3.6332652e-33 0)
(-25.087221 7.102296e-30 2.5564177e-17)
(-25.06152 -3.6325122e-33 -3.6325122e-33)
(-25.035822 -2.5558899e-17 -5.1117798e-17)
(-25.010127 0 -2.5556278e-17)
(-24.984435 2.5553673e-17 5.1107346e-17)
(-24.958746 -7.0913974e-30 5.1102174e-17)
(-24.93306 -7.0906865e-30 -2.5548526e-17)
(-24.907378 2.5682787e-50 -2.5545992e-17)
(-24.881698 -7.0929172e-30 0)
(-24.856021 0 0)
(-24.830346 -5.1077087e-17 0)
(-24.804675 -7.0908706e-30 0)
(-24.779007 2.5533717e-17 -2.5533717e-17)
(-24.753341 -2.5531355e-17 -7.0931774e-30)
(-24.727678 7.0852751e-30 2.5529028e-17)
(-24.702018 2.5526731e-17 0)
(-24.67636 2.552446e-17 0)
(-24.650705 7.0870113e-30 0)
(-24.625053 -7.0863952e-30 0)
(-24.599403 2.5517807e-17 0)
(-24.573756 -2.5515648e-17 0)
(-24.548111 -2.5513515e-17 0)
(-24.522469 0 0)
(-24.49683 -2.5509316e-17 0)
(-24.471193 7.082853e-30 0)
(-24.445558 2.5505178e-17 0)
(-24.419926 0 0)
(-24.394296 0 0)
(-24.368669 0 0)
(-24.343044 -5.0994092e-17 -2.5497046e-17)
(-24.317422 2.8317842e-29 1.4158921e-29)
(-24.291802 5.0985981e-17 2.5492991e-17)
(-24.266184 0 0)
(-24.240569 0 0)
(-24.214957 0 2.5486827e-17)
(-24.189347 0 -7.0766095e-30)
(-24.16374 0 3.6213058e-33)
(-24.138135 0 -2.5480574e-17)
(-24.112532 0 -2.5478447e-17)
(-24.086932 -5.0952575e-17 -1.4144896e-29)
(-24.061335 1.4154537e-29 7.0772684e-30)
(-24.03574 5.0943725e-17 2.5471862e-17)
(-24.010148 2.5469603e-17 0)
(-23.984559 -2.5467312e-17 0)
(-23.958972 -2.5464989e-17 0)
(-23.933388 7.0740829e-30 0)
(-23.907807 1.4125119e-29 0)
(-23.882228 2.5457761e-17 -2.5457761e-17)
(-23.856653 -2.5455259e-17 1.413322e-29)
(-23.83108 2.5452714e-17 2.5452714e-17)