/*--------------------------------*- C++ -*----------------------------------*\
  =========                 |
  \\      /  F ield         | OpenFOAM: The Open Source CFD Toolbox
   \\    /   O peration     | Website:  https://openfoam.org
    \\  /    A nd           | Version:  7
     \\/     M anipulation  |
\*---------------------------------------------------------------------------*/
FoamFile
{
    version     2.0;
    format      ascii;
    class       volScalarField;
    location    "0.00225";
    object      Uz;
}
// * * * * * * * * * * * * * * * * * * * * * * * * * * * * * * * * * * * * * //

dimensions      [0 1 -1 0 0 0 0];

internalField   nonuniform List<scalar> 
5000
(
0
0
0
0
0
-4.5050688e-21
-9.4129054e-36
1.3356563e-20
4.5161063e-21
-9.1124146e-21
-9.1209111e-21
4.5514781e-21
-3.8797597e-35
-4.0102154e-35
9.1103542e-21
-9.1121366e-21
-3.2604021e-52
-4.012772e-35
-4.55362e-21
9.1056566e-21
4.5520386e-21
0
0
-4.5496249e-21
3.8785743e-35
-3.7486534e-35
-4.5473089e-21
4.5465646e-21
4.5458436e-21
-4.5451493e-21
7.9434608e-35
-3.8743124e-35
-4.5432275e-21
4.5426486e-21
4.5421099e-21
0
0
-4.5407279e-21
-4.540339e-21
4.5399864e-21
-7.6124933e-35
-4.5394051e-21
4.5391752e-21
-7.6758279e-35
-4.5388098e-21
4.5386687e-21
-1.5608187e-34
1.554335e-34
-1.5607615e-34
7.7392512e-35
4.5383257e-21
0
0
0
0
0
0
0
0
0
0
0
0
-4.5201303e-21
-4.5117042e-21
4.5102627e-21
-7.7618922e-35
2.8025661e-52
4.521384e-21
0
0
-4.5107932e-21
-4.5187376e-21
0
4.5200434e-21
1.5605668e-34
-4.5229373e-21
-4.5313353e-21
4.5251694e-21
9.022352e-21
-9.0257545e-21
2.5728917e-36
1.358019e-20
-9.0344537e-21
-4.7051962e-34
9.0737501e-21
-1.3598714e-20
4.5249734e-21
4.5336634e-21
-4.5346519e-21
4.5227029e-21
4.524337e-21
1.5802629e-34
-9.0792821e-21
-3.136017e-34
-4.5351663e-21
-4.5357104e-21
-1.5892604e-34
3.1552806e-34
9.0925853e-21
4.5471163e-21
-4.5405921e-21
6.4653724e-37
4.5507459e-21
0
-4.553524e-21
-1.5858367e-34
4.5485534e-21
-4.5580297e-21
-4.5594256e-21
9.0932154e-21
4.5489373e-21
-1.369818e-20
-4.5684486e-21
1.366872e-20
-4.5589427e-21
-4.5762662e-21
-2.6024314e-36
-4.5659275e-21
1.3698161e-20
-3.2037325e-34
-9.1948324e-21
9.196563e-21
4.5974172e-21
-4.5971671e-21
4.597182e-21
-4.6058172e-21
-9.228901e-21
4.6211829e-21
1.5981985e-34
4.6337559e-21
9.2774988e-21
-4.6434276e-21
-4.6478052e-21
-4.6519774e-21
-1.6210797e-34
-1.6158672e-34
1.6237322e-34
9.3331689e-21
4.6696717e-21
-4.6727252e-21
-9.3514816e-21
-4.6792201e-21
-4.6821513e-21
3.2490961e-34
9.3768472e-21
-1.3333436e-36
1.3342546e-36
-1.2151659e-51
4.7005628e-21
-3.2620432e-34
6.5552007e-34
4.7100729e-21
-4.7134743e-21
4.7168903e-21
1.6368099e-34
-4.724321e-21
4.7282656e-21
-6.7251004e-37
-4.7364948e-21
0
4.7444093e-21
3.285437e-34
-9.500695e-21
4.7545405e-21
-1.3524965e-36
-4.7629705e-21
4.7677304e-21
-4.7717612e-21
4.7759599e-21
-1.9918745e-33
-1.3272619e-33
4.789153e-21
-9.5876838e-21
0
-3.3306789e-34
-1.0001922e-33
4.8121865e-21
4.8170417e-21
3.3235076e-34
-4.8271379e-21
4.8323613e-21
3.3273324e-34
2.0645455e-36
6.7159983e-34
-9.7011812e-21
4.8540082e-21
4.8588185e-21
-3.3456523e-34
3.3564671e-34
-1.0137583e-33
3.3713553e-34
-4.8858129e-21
0
0
0
0
-4.9123678e-21
1.0252423e-33
4.9235339e-21
4.9293378e-21
-4.9353151e-21
-4.9414001e-21
9.8951206e-21
3.4283592e-34
-1.0297788e-33
-4.9656251e-21
-4.970339e-21
4.974438e-21
0
4.9862635e-21
3.4557187e-34
-5.0009032e-21
-5.0078068e-21
6.9818514e-34
5.0193477e-21
-1.0052552e-20
5.0326894e-21
5.039038e-21
-5.0458592e-21
5.0527189e-21
0
0
0
5.0811791e-21
-5.0885181e-21
-1.0191656e-20
5.1030248e-21
-3.5507613e-34
5.1151434e-21
5.1206157e-21
-1.0255263e-20
1.4596826e-36
-1.4622146e-36
5.1537332e-21
5.1614309e-21
-1.0335994e-20
7.3549182e-37
-1.0800089e-33
5.1918921e-21
-2.8875956e-33
-7.2229741e-34
5.216089e-21
-5.2244802e-21
0
-5.2417403e-21
5.2504493e-21
5.2590723e-21
-5.2676486e-21
0
-5.2832264e-21
5.2905264e-21
5.2988766e-21
-1.8428814e-33
-1.0636986e-20
-1.0657793e-20
1.6014939e-20
1.0693168e-20
0
-1.0731134e-20
-5.3754434e-21
5.3848008e-21
5.3945306e-21
5.4046445e-21
-1.0829686e-20
-1.0850243e-20
5.4354581e-21
1.0891566e-20
1.5134993e-33
-1.0932639e-20
5.4761492e-21
-7.6084597e-34
-5.4954625e-21
1.1012197e-20
-5.5175546e-21
7.700834e-34
5.5413797e-21
-5.5522983e-21
5.5626619e-21
-1.114776e-20
2.3306475e-33
1.1195422e-20
-1.1218352e-20
-3.8901165e-34
5.6331325e-21
0
0
5.6700612e-21
-5.6823971e-21
-1.1389458e-20
5.7068794e-21
-1.6253805e-36
5.7308731e-21
5.7435096e-21
-5.756852e-21
0
-5.7846274e-21
-5.7978588e-21
0
1.164745e-20
5.8378971e-21
-1.1704192e-20
4.0596078e-34
-1.6711444e-36
5.8941154e-21
5.9086799e-21
-5.923281e-21
5.9378448e-21
-5.9524362e-21
3.3918607e-36
1.1963098e-20
-5.9961092e-21
-6.0109356e-21
-6.0262163e-21
-8.3800944e-34
6.0579871e-21
0
0
-6.1048458e-21
8.4982089e-34
-1.7033564e-33
-8.552838e-34
6.1703302e-21
-6.1868887e-21
8.8160496e-37
6.2208173e-21
0
0
0
0
0
0
0
-6.360806e-21
0
6.3980135e-21
0
-6.4347552e-21
-1.7901943e-33
6.4728699e-21
0
0
-6.5312482e-21
-9.0954756e-34
6.5711008e-21
0
0
-6.6319127e-21
-6.6524638e-21
6.6732354e-21
6.6942901e-21
0
-6.7373929e-21
9.6054999e-37
6.7811524e-21
-6.8030725e-21
-6.825272e-21
6.847916e-21
6.8708902e-21
0
-6.9171906e-21
-6.9406477e-21
6.9644252e-21
6.9884449e-21
0
-7.0370132e-21
-7.0616718e-21
7.0866591e-21
7.1119789e-21
0
0
0
0
0
0
0
0
-7.3527159e-21
2.187107e-50
7.4095232e-21
0
0
0
-7.5273044e-21
-1.0482293e-33
7.5883935e-21
-7.6195614e-21
1.0622821e-33
-1.091825e-36
-1.0711909e-33
7.7479262e-21
-7.7810313e-21
7.8146291e-21
-4.3610686e-33
-7.8831016e-21
7.9179522e-21
0
0
-8.0253678e-21
-1.1193449e-33
8.0993659e-21
-8.1371397e-21
-8.175448e-21
0
8.2536522e-21
8.293532e-21
-8.3339308e-21
-2.3243494e-33
-8.0605871e-51
-1.1743884e-33
8.5012461e-21
-8.5444345e-21
3.3926345e-50
-1.1985344e-33
-8.6774425e-21
0
0
8.8171745e-21
1.259938e-36
-3.7100717e-33
8.968593e-21
0
0
-9.1364281e-21
2.5495737e-33
9.256408e-21
0
0
0
-9.5046277e-21
1.3597055e-36
9.6325273e-21
-9.6980808e-21
9.7645548e-21
-2.7328142e-33
-1.9797531e-20
9.9662493e-21
4.1794109e-33
1.4027187e-33
-1.4125065e-33
-1.0244709e-20
0
0
1.0457979e-20
1.4622528e-33
-2.9439387e-33
-3.6076624e-51
-1.0757378e-20
1.0833546e-20
1.0912824e-20
0
-1.1075511e-20
-1.5489643e-33
1.1238212e-20
0
0
-1.1493203e-20
3.2909634e-36
-4.1996099e-51
-1.175355e-20
1.1842746e-20
-1.6533256e-33
1.6692751e-33
-3.3621567e-33
-1.2206362e-20
1.2299546e-20
-3.4414981e-33
3.4697605e-33
-3.4966394e-33
-1.2683965e-20
1.2783253e-20
-3.5775352e-33
1.8065862e-33
0
-1.319374e-20
1.3300062e-20
-1.8615411e-33
1.9208971e-36
-1.8921383e-33
1.9097382e-33
1.3855086e-20
-1.3970739e-20
-1.4087776e-20
1.4206309e-20
1.4326221e-20
0
-1.4569741e-20
-1.4693348e-20
0
1.494434e-20
-2.0925376e-33
2.1600496e-36
2.1261904e-33
-1.5460391e-20
1.5591959e-20
2.1809579e-33
-4.4035346e-33
-1.5993245e-20
-1.6129173e-20
3.2532293e-20
-2.3312415e-36
2.2947319e-33
1.6686117e-20
-1.6828288e-20
2.3563641e-33
1.7117331e-20
0
0
0
-1.7713877e-20
-1.7866553e-20
1.8020984e-20
1.8176604e-20
0
-1.8490781e-20
-1.8649874e-20
1.8810472e-20
1.897223e-20
0
-1.9298832e-20
-1.9464311e-20
1.9631267e-20
5.4978962e-33
-1.9968665e-20
0
0
0
0
2.0834739e-20
-5.8285444e-33
-2.118979e-20
2.1368924e-20
2.9918631e-33
-3.0201067e-33
-8.8158498e-51
2.2096169e-20
2.2280753e-20
-4.4932799e-20
-3.1451922e-33
3.1681119e-33
-2.3031852e-20
0
2.3416787e-20
2.3611705e-20
-2.3808326e-20
-6.6593626e-33
2.4206758e-20
0
0
-2.4815699e-20
3.4704574e-33
2.5228833e-20
0
-2.5645413e-20
3.6740697e-36
-7.2369216e-33
-3.6435445e-33
2.6476592e-20
-2.6683015e-20
3.8212585e-36
-7.5245662e-33
-2.7308331e-20
2.7520619e-20
7.7014135e-33
3.9721278e-36
-3.9111735e-33
-2.8391777e-20
2.8615414e-20
0
-1.6138845e-32
-4.0632189e-33
-1.2284988e-32
-4.2284156e-36
-2.9985884e-20
3.0217044e-20
-4.4183937e-50
-4.2589998e-33
8.5809471e-33
-4.3218278e-33
6.2707882e-20
-3.1581076e-20
-3.1810746e-20
-4.4488674e-33
4.4813999e-33
6.5026612e-20
-3.2750874e-20
-3.2989665e-20
-1.1493822e-50
0
-1.1660372e-50
-3.3950687e-20
3.4193809e-20
-1.1760919e-50
-4.8105002e-33
-4.9640316e-36
-3.5180998e-20
7.0863258e-20
9.9084176e-33
-3.5934281e-20
5.0188851e-33
-5.053919e-33
3.66935e-20
-3.6951396e-20
5.0142792e-50
-1.561361e-32
1.0484055e-32
-1.0546716e-32
-1.0625477e-32
-1.2685527e-50
0
3.9058829e-20
0
0
-3.9868927e-20
-1.1146927e-32
4.0419217e-20
0
0
-8.250721e-20
-3.4574768e-32
8.3627611e-20
-4.209756e-20
6.0230275e-36
-5.9243664e-33
-4.2959019e-20
0
0
0
-4.4133379e-20
-1.2325218e-32
4.4732538e-20
0
0
-4.5641847e-20
6.529395e-36
4.6254144e-20
0
0
-4.7193127e-20
-1.3178795e-32
-1.3287212e-32
1.3369221e-32
4.8468857e-20
-4.8794107e-20
1.3633056e-32
-1.3724215e-32
1.3808572e-32
5.0111304e-20
0
0
-5.113317e-20
4.1766968e-49
5.1826344e-20
0
0
-5.287271e-20
2.7395329e-49
5.3584964e-20
0
0
-5.4676452e-20
2.8578445e-49
5.5418788e-20
0
0
-5.6552745e-20
8.091203e-36
5.7323939e-20
-5.7714253e-20
1.6143651e-32
-1.6253983e-32
1.6357002e-32
5.9310685e-20
0
0
0
0
0
-6.1811085e-20
1.7274744e-32
6.2678825e-20
0
0
0
0
0
0
0
-6.6320405e-20
3.7078069e-32
6.7281179e-20
0
0
0
0
0
0
0
-7.1363017e-20
1.9955768e-32
7.2450481e-20
0
0
-7.4141758e-20
2.0759301e-32
7.531012e-20
0
0
0
-7.7761358e-20
-2.1781042e-32
7.9048363e-20
0
0
0
0
0
0
0
-8.4695091e-20
1.2145367e-35
8.6251654e-20
0
0
0
0
0
0
0
-9.3220761e-20
-1.3385008e-35
9.5180719e-20
0
0
0
-9.9418113e-20
5.5827673e-32
1.0171512e-19
0
-1.0414323e-19
-2.928526e-32
1.0671438e-19
0
0
-1.1087025e-19
-1.1234148e-19
1.1385823e-19
1.1542284e-19
0
0
0
0
1.2404315e-19
-1.7897317e-35
-2.558075e-19
-1.2993381e-19
2.6406738e-19
2.6841111e-19
-1.3645208e-19
-1.387767e-19
0
0
0
0
-1.5169538e-19
-4.2940712e-32
1.5753211e-19
0
0
0
0
0
0
0
0
0
0
0
0
0
0
-2.1766738e-19
1.2382348e-31
2.2845048e-19
0
0
2.4616696e-19
-7.0118104e-32
3.6819732e-35
-2.6592087e-19
-2.7299721e-19
-1.556461e-31
7.9995589e-32
2.9582144e-19
0
0
0
0
0
-3.495411e-19
1.9969169e-31
3.701511e-19
0
0
0
0
0
0
0
-4.6869513e-19
2.6812833e-31
4.9790169e-19
0
0
0
0
0
0
0
-6.3674113e-19
5.47005e-31
6.7765659e-19
0
0
0
0
0
0
0
0
-8.9865153e-19
1.3178764e-34
9.5701406e-19
0
0
0
0
-1.1199086e-18
1.1556103e-18
1.1924176e-18
-2.4607183e-18
-3.525048e-31
1.30976e-18
0
0
0
0
-1.5301977e-18
4.3803769e-31
3.2556234e-18
-1.6787728e-18
-1.7312162e-18
1.7851767e-18
0
0
0
-2.0168929e-18
-5.7669887e-31
2.1427916e-18
2.2083828e-18
-2.2757858e-18
-2.3450396e-18
2.4161847e-18
0
0
-2.6413767e-18
-2.7204951e-18
2.8017093e-18
2.8850618e-18
2.9705961e-18
1.6984892e-30
-3.1483852e-18
0
0
0
-3.5320705e-18
-3.6341082e-18
3.738684e-18
3.845844e-18
3.9556341e-18
1.1290523e-30
-4.1832887e-18
0
0
0
-4.6722223e-18
1.3326651e-30
4.9342644e-18
0
0
0
0
0
0
0
-6.1085639e-18
1.7402577e-30
1.2871218e-17
1.8339156e-30
-6.776816e-18
0
0
-7.3160187e-18
1.0662756e-33
-2.1365547e-30
2.1895612e-30
8.0880783e-18
8.2908921e-18
-2.359647e-30
-8.7085986e-18
0
0
-9.3660278e-18
7.989113e-30
2.726925e-30
-1.4298338e-33
1.0302071e-17
-1.0546982e-17
-1.0796335e-17
2.2100342e-17
-6.2738789e-30
-1.1571448e-17
1.1838964e-17
0
-1.2387932e-17
-3.5198562e-30
1.2955719e-17
0
-1.3542597e-17
1.3843274e-17
-1.5711359e-29
-1.4459256e-17
1.4774618e-17
0
-1.5420221e-17
0
1.6085832e-17
0
-1.6771629e-17
1.7122151e-17
-9.696529e-30
-1.7838537e-17
1.8204434e-17
0
-1.8951707e-17
-5.3684198e-30
1.9719704e-17
0
-2.0508507e-17
2.0910728e-17
-6.0589878e-33
-2.1730832e-17
2.2148721e-17
0
-2.3000178e-17
-2.3433741e-17
2.3872522e-17
2.4316514e-17
-2.476571e-17
2.5220102e-17
2.5679681e-17
-2.6144433e-17
0
0
0
0
0
0
-2.9541197e-17
2.450086e-47
6.1114424e-17
-3.1072681e-17
-3.1593085e-17
3.2118394e-17
0
0
-3.3723406e-17
-3.4267986e-17
3.4817292e-17
3.5371283e-17
0
-3.6493146e-17
-1.029635e-29
3.7633224e-17
0
0
-3.9376665e-17
-3.9966497e-17
4.0560584e-17
4.1158873e-17
0
-4.2367825e-17
1.1934239e-29
4.3592887e-17
-4.4211312e-17
-2.4898789e-29
-6.4602036e-33
-4.6089414e-17
4.6722839e-17
4.7359848e-17
0
0
-4.929172e-17
1.3860911e-29
5.0596304e-17
0
-5.191355e-17
-5.2576738e-17
5.3242871e-17
5.3911875e-17
0
0
0
0
0
0
-5.8668758e-17
1.6474079e-29
6.0049249e-17
0
0
0
0
0
0
-6.4942222e-17
3.4203502e-47
6.6355004e-17
6.7063445e-17
1.8799992e-29
-6.8484024e-17
0
0
0
0
-7.2053105e-17
-2.019624e-29
7.3486055e-17
-7.4203341e-17
-7.4921057e-17
7.5639121e-17
-4.2384189e-29
-6.4185486e-29
-6.4761816e-29
2.1812725e-29
-4.4002218e-29
2.2189251e-29
8.0668576e-17
0
-8.2104145e-17
6.8958175e-29
-1.1871455e-32
-8.4253975e-17
8.496934e-17
8.5683961e-17
-8.6397763e-17
2.4176521e-29
-7.3097372e-29
-4.9155405e-29
-4.9511444e-29
2.4952287e-29
-5.0322778e-29
-9.1365302e-17
9.2069955e-17
9.277315e-17
-9.3474821e-17
2.6123731e-29
-1.0532382e-28
-2.6524322e-29
2.6730875e-29
2.6895777e-29
2.7101388e-29
-9.8338515e-17
0
9.9710844e-17
-2.7863102e-29
1.3268571e-46
1.0175315e-16
0
-1.0310323e-16
1.0377467e-16
1.0444365e-16
-1.0511012e-16
0
0
0
0
-1.0840289e-16
3.0266409e-29
-6.0907802e-29
1.1034525e-16
1.1098689e-16
-1.1162554e-16
0
0
0
0
-1.1477269e-16
-1.6398279e-32
1.1600933e-16
0
0
0
0
0
0
0
-1.20822e-16
-1.2140802e-16
1.2199048e-16
1.2256936e-16
0
0
0
0
0
0
-1.2651934e-16
-1.2706875e-16
1.2761439e-16
1.2815624e-16
0
0
0
0
0
0
-1.318416e-16
-1.3235255e-16
1.3285956e-16
1.3336265e-16
0
0
0
0
0
0
-1.367732e-16
7.620061e-29
1.3771172e-16
0
0
0
0
0
0
-1.4086988e-16
3.923756e-29
1.4173589e-16
0
0
0
0
-1.4383022e-16
-2.0497303e-32
1.4463964e-16
-1.450383e-16
1.981355e-47
1.4582352e-16
-1.4621007e-16
8.1411692e-29
1.4697108e-16
-1.4734556e-16
-8.2014605e-29
-8.2218064e-29
2.9282063e-46
-8.2597152e-29
-4.1375744e-29
1.4950816e-16
-1.4985459e-16
-1.5019705e-16
3.0107105e-16
-8.3701448e-29
-3.0240111e-16
0
1.5184973e-16
-4.2254133e-29
-4.2363196e-29
-1.2719663e-28
-1.2747385e-28
-8.5107123e-29
1.2797506e-28
-8.5458639e-29
4.286494e-29
1.5457645e-16
0
-1.5513951e-16
-2.2085833e-32
-1.2960513e-28
-1.2985041e-28
2.2200099e-32
8.6858105e-29
-4.3522525e-29
-1.5698892e-16
0
1.5748295e-16
-8.7548963e-29
-2.2447728e-32
1.5819564e-16
0
-1.5865194e-16
1.5887448e-16
1.5909329e-16
-1.5930837e-16
0
0
-1.5993136e-16
1.7779321e-28
-8.8948793e-29
8.912427e-29
-4.4648937e-29
1.6089608e-16
1.6107806e-16
-1.6125641e-16
0
0
0
0
-1.62094e-16
-4.5053801e-29
-1.8029302e-28
1.6255353e-16
1.626996e-16
-1.6284212e-16
0
0
0
0
-1.6350181e-16
-1.6362324e-16
1.6374118e-16
1.6385564e-16
0
0
0
0
0
0
-1.6456012e-16
-1.6464702e-16
1.6473051e-16
1.6481061e-16
0
0
0
0
0
0
-1.6527659e-16
1.3767932e-28
3.3075897e-16
-1.6542593e-16
-4.9640712e-16
-1.6550883e-16
0
3.3115688e-16
-1.8389742e-28
-5.5159234e-28
-1.6565805e-16
-3.31356e-16
3.3138934e-16
-1.6570806e-16
-1.6571817e-16
1.6572499e-16
-1.6572843e-16
2.3551434e-32
1.6572525e-16
1.6571876e-16
-1.6570903e-16
-1.6569604e-16
1.6567982e-16
-1.6566035e-16
-2.3538525e-32
1.6561171e-16
0
0
0
3.3095142e-16
-1.6543367e-16
-3.3077683e-16
1.6533995e-16
-1.6528828e-16
-1.6523341e-16
3.3035066e-16
1.4891637e-47
-1.6504959e-16
1.6498193e-16
3.2982218e-16
1.6483705e-16
-4.9427947e-16
1.6467941e-16
3.1793168e-46
-4.9352713e-16
3.2883819e-16
1.6432597e-16
1.6422967e-16
3.2826038e-16
-3.2805508e-16
-1.6392171e-16
-1.6381272e-16
1.6370056e-16
1.6358523e-16
-4.904002e-16
1.6334507e-16
1.6322024e-16
-1.6309225e-16
-1.6296109e-16
-2.3139076e-32
4.8806787e-16
-1.6254865e-16
2.7039492e-28
-2.7024246e-28
-4.8632323e-16
1.6195445e-16
1.61798e-16
3.2327679e-16
-1.6147563e-16
-3.2261939e-16
3.2228121e-16
-1.6096835e-16
1.6079294e-16
1.6061437e-16
-4.8129793e-16
1.6024775e-16
1.600597e-16
-3.1973697e-16
-1.5967411e-16
1.5947657e-16
4.7782763e-16
-1.5907202e-16
-6.3545999e-16
8.8065476e-29
3.1688292e-16
1.5822495e-16
0
3.1556489e-16
3.4977841e-28
-4.7198184e-16
1.5709495e-16
-3.4827565e-28
1.5662079e-16
1.5637896e-16
-3.1226793e-16
0
0
0
-1.5512234e-16
8.5981917e-29
3.0919506e-16
-1.5433038e-16
-3.0812011e-16
4.6135971e-16
-5.1125801e-28
-3.064602e-16
1.5294712e-16
0
0
0
3.0356711e-16
-1.5148476e-16
-3.023656e-16
4.5263305e-16
-4.2794398e-32
-3.0051594e-16
0
0
-1.4930474e-16
8.2716774e-29
2.9730698e-16
-1.4832314e-16
-2.959793e-16
4.4295903e-16
-2.4526824e-28
-2.9394062e-16
1.4662426e-16
-1.4627507e-16
2.9184552e-16
1.4556732e-16
-4.8357005e-28
-1.4484705e-16
-2.8896449e-16
4.3234298e-16
-8.1708608e-32
-1.4336918e-16
7.9371394e-29
-1.4261161e-16
-1.4222819e-16
7.8732915e-29
4.2435631e-16
-4.0091507e-32
-4.2199117e-16
2.8052987e-16
8.9246434e-46
-2.7891637e-16
1.3905025e-16
-1.3863927e-16
2.7645053e-16
1.3780824e-16
-3.050826e-28
-1.3696515e-16
-2.7307821e-16
-1.3611007e-16
-1.3567806e-16
4.0572924e-16
0
-1.3436424e-16
-7.4335997e-29
7.4088007e-29
-7.3819494e-29
1.3257135e-16
-1.4666868e-28
1.3165748e-16
-4.3694324e-28
-3.9219633e-16
2.605303e-16
3.8938607e-16
1.2932274e-16
-3.8654195e-16
-2.5673819e-16
3.8366428e-16
-1.2740433e-16
-3.8075346e-16
0
0
1.2544196e-16
1.2494461e-16
0
-1.2394194e-16
-1.2343665e-16
2.458575e-16
-2.7180575e-28
-3.6571558e-16
1.3476087e-28
1.2087141e-16
1.2035074e-16
1.1982758e-16
-1.1930195e-16
-1.1877388e-16
1.1824337e-16
3.5313137e-16
-1.1717517e-16
-4.6655007e-16
1.1609754e-16
2.3111051e-16
1.1501069e-16
0
-1.139148e-16
0
-1.1281009e-16
1.1225449e-16
-2.4800079e-28
1.1113696e-16
-3.6826543e-28
-3.3003349e-16
1.0944524e-16
1.0887734e-16
-1.0830749e-16
-1.0773572e-16
1.0716206e-16
3.1975967e-16
-1.0600923e-16
-4.2172049e-16
1.7462771e-28
1.0426667e-16
2.0736477e-16
1.0309646e-16
-2.0501782e-16
-5.6573227e-29
-1.4399734e-32
1.0073694e-16
-2.2234854e-28
-9.95482e-17
2.9685514e-16
-1.0918774e-28
-1.9550941e-16
0
0
-9.5949695e-17
5.2924077e-29
1.8948094e-16
-9.4134222e-17
-1.8705387e-16
-9.2918655e-17
1.0245125e-28
2.7509781e-16
9.1088253e-17
-9.0476409e-17
1.7972757e-16
-5.0732995e-32
-2.9522475e-28
-8.8021682e-17
-1.7481276e-16
2.6037155e-16
-9.569089e-29
-1.7111462e-16
0
0
1.6740898e-16
-1.8447676e-28
-9.1528355e-29
-2.326293e-32
-2.4369115e-16
-1.6122305e-16
1.332287e-28
2.3812123e-16
7.8754918e-17
-7.81362e-17
1.5503528e-16
8.534804e-29
-2.5402947e-28
-7.5663403e-17
-1.5009195e-16
2.2328685e-16
-7.3812387e-17
-7.3196329e-17
7.2580827e-17
-7.196593e-17
1.4270338e-16
-7.8530112e-29
-7.0125399e-17
-9.8784546e-33
-1.378047e-16
1.3658432e-16
-1.1268827e-28
-1.3414943e-16
6.6467562e-17
0
-6.5256651e-17
-3.5878133e-29
1.9215176e-16
-6.3449493e-17
-1.2569953e-16
-6.225145e-17
-6.1654599e-17
6.1059259e-17
6.0465478e-17
5.9873305e-17
-5.9282788e-17
3.2579618e-29
-3.2245501e-29
5.7521672e-17
-6.3226313e-29
5.635676e-17
-1.8576349e-28
-1.6559887e-16
1.0924818e-16
2.19504e-46
-5.3479318e-17
-5.8730807e-29
2.906191e-29
1.5533568e-16
-5.1216198e-17
-1.5196857e-16
0
0
4.8990692e-17
4.8440506e-17
9.5785762e-17
-4.7347859e-17
-9.3610963e-17
9.2531573e-17
-4.5728812e-17
-1.3558378e-16
4.4663169e-17
4.4134578e-17
4.3608857e-17
4.3086045e-17
-8.5132353e-17
-4.2049284e-17
4.1535399e-17
1.2307367e-16
-4.051679e-17
-2.6088954e-45
-6.578296e-29
-7.8024557e-17
7.7034272e-17
7.6050443e-17
-3.7536562e-17
-7.4102376e-17
7.3138257e-17
3.6090412e-17
-1.0684519e-16
-1.0542931e-16
3.4674556e-17
6.841889e-17
3.3747792e-17
-1.8478268e-29
-6.56699e-17
-3.2383804e-17
3.1936201e-17
6.2984317e-17
-4.4127113e-33
-6.1229654e-17
6.0363139e-17
-4.9552212e-29
-5.8651885e-17
2.8903604e-17
5.6969871e-17
5.6139898e-17
0
-2.725106e-17
-8.0541523e-17
-2.6447008e-17
2.6050571e-17
0
0
0
0
-2.4124542e-17
1.3183386e-29
7.0141253e-17
-2.3014004e-17
-6.795407e-17
-2.2292472e-17
3.6536922e-29
4.3171972e-17
2.1238384e-17
-2.0894543e-17
4.110892e-17
2.0218128e-17
-6.6233567e-29
-1.9556689e-17
-3.8463134e-17
5.6730506e-17
-5.2843031e-33
-1.827852e-17
2.5534421e-33
-1.7661673e-17
-1.7358773e-17
1.8938683e-29
5.0291886e-17
-4.6816311e-33
-4.8551153e-17
-3.1798053e-17
8.6647029e-30
3.0680869e-17
1.5066503e-17
-1.4796127e-17
2.9058579e-17
1.4265971e-17
-4.66429e-29
-1.3749822e-17
-2.699391e-17
3.9742612e-17
-1.4437389e-29
-1.2758964e-17
-1.2519765e-17
-1.2283927e-17
-6.6860351e-30
6.5605714e-30
2.3192769e-17
6.3117004e-30
-2.2308889e-17
2.1876657e-17
-5.3583828e-29
-3.1547037e-17
2.06182e-17
-1.1221683e-29
-1.9810626e-17
9.7080538e-18
9.5138477e-18
1.8645335e-17
-9.1344868e-18
-2.6847839e-17
0
0
0
2.4712998e-17
2.4200785e-17
-2.3696999e-17
-2.3201552e-17
1.5142909e-17
-2.1065556e-33
7.2548105e-18
-2.365196e-29
-2.0846529e-17
2.0399374e-17
-3.3243567e-29
-1.3018812e-17
-3.5338257e-30
3.458515e-30
1.2185349e-17
-5.9586755e-18
5.8270864e-18
-1.8979769e-29
-1.6713058e-17
1.6339444e-17
5.3242324e-18
-1.1555002e-29
1.0172973e-17
-9.9418686e-18
-4.8575586e-18
-4.7463301e-18
-1.3911659e-17
5.029209e-30
4.4252379e-18
1.2966922e-17
-2.8118227e-29
-1.236727e-17
0
3.9303297e-18
7.6742713e-18
-3.7458052e-18
3.6563088e-18
-1.1885124e-29
-6.9654111e-18
1.0195644e-17
-7.3618498e-30
-3.5936166e-30
-3.504018e-30
-3.4180859e-30
3.0031471e-18
-8.7868524e-18
-8.5689695e-18
2.7852404e-18
5.4313546e-18
0
-2.5810075e-18
2.7922596e-30
-5.4444226e-30
2.6529942e-30
2.3287786e-18
-2.2691464e-18
-2.2108376e-18
6.4614858e-18
2.8649808e-46
-3.4036713e-30
1.990371e-18
-2.1507401e-30
3.7749513e-18
-3.6755684e-18
-3.5784722e-18
-1.7418107e-18
1.8820076e-30
1.6502445e-18
0
0
0
2.9593062e-18
-1.4395031e-18
-2.8006284e-18
4.0861982e-18
-1.3247391e-18
-3.8649452e-18
3.7583309e-18
-4.0568564e-30
-2.3685843e-18
3.4539255e-18
2.2382752e-18
0
-2.1143336e-18
-3.4212122e-30
-9.9826093e-19
-1.9398396e-18
9.4229761e-19
0
1.7782755e-18
2.4544125e-34
9.3103851e-31
-8.1439118e-19
-2.3722603e-18
2.3031954e-18
-1.2417513e-30
-2.1704461e-18
2.1066727e-18
-3.4052658e-30
-1.3227454e-18
6.4175556e-19
-6.2266302e-19
1.2081685e-18
5.8600802e-19
-2.5241331e-30
-5.5130702e-19
-1.069309e-18
-5.1845419e-19
-5.0269815e-19
9.747548e-19
4.7248251e-19
0
-4.4392306e-19
2.3887252e-31
2.5275575e-48
4.0398087e-19
-1.1124473e-34
3.7919225e-19
2.7023427e-47
-1.0674008e-18
1.0338028e-18
1.0011552e-18
-6.4629224e-19
-6.2575699e-19
0
5.8646262e-19
-2.8383833e-19
-8.2416432e-19
7.9761062e-19
-4.2849639e-31
-4.9786692e-19
2.4083779e-19
0
-2.2536585e-19
-2.1797858e-19
2.1081392e-19
-3.3947841e-31
3.9423851e-19
1.0833123e-34
-5.5270878e-19
0
5.1639622e-19
3.3272069e-19
-4.8229847e-19
-3.1068493e-19
4.5025427e-19
1.4498986e-19
-5.6021788e-19
-1.3527533e-19
2.6129737e-19
2.5233764e-19
-1.3524881e-31
-1.1762468e-19
-1.1355274e-19
-1.0961072e-19
1.0579609e-19
-1.1335348e-31
1.9707414e-19
-3.1666833e-31
-2.7521397e-19
0
0
1.6468035e-19
-1.7634377e-31
-7.6584179e-20
2.2154575e-19
-7.1202155e-20
-1.1428596e-31
-2.203695e-31
-1.9133108e-19
6.1468123e-20
-3.2873276e-32
6.337094e-32
5.4999659e-20
-5.2985916e-20
7.2533545e-36
-2.7289936e-32
5.2564e-32
4.5607787e-20
0
-4.2288772e-20
8.142663e-20
3.9192904e-20
-7.5454828e-20
0
3.4955725e-20
-3.3642299e-20
-6.4747333e-20
9.3447045e-20
-9.9822984e-32
-9.6015183e-32
2.7734226e-20
-8.004063e-20
3.6471051e-36
2.4683783e-20
2.3737943e-20
-2.2826053e-20
-2.1947468e-20
2.1102152e-20
0
-1.9508383e-20
3.7511078e-20
-3.0028511e-32
-1.7329725e-20
-3.6985032e-32
-3.553649e-32
-4.3727626e-36
-2.9576076e-20
4.2639233e-20
4.0976256e-20
0
-2.521905e-20
-3.634688e-20
-1.6545468e-36
1.1189358e-20
1.075274e-20
-1.0331666e-20
-9.9256408e-21
9.5349093e-21
0
1.7605582e-20
1.6920077e-20
-2.4390724e-20
-7.8122368e-21
7.5056145e-21
-2.0494368e-36
-6.9287541e-21
-1.331876e-20
-6.4012513e-21
1.0247366e-32
2.3650888e-20
-1.8922308e-32
-1.6381659e-20
5.2501565e-21
5.0490642e-21
4.8554777e-21
-4.6683132e-21
-4.4872415e-21
-4.313292e-21
-1.1789522e-36
3.991531e-21
-3.8418311e-21
1.1091582e-20
7.1133445e-21
-1.0260929e-20
3.289569e-21
6.3322296e-21
-6.0993688e-21
2.9383814e-21
-2.8306309e-21
-5.4511036e-21
7.8691348e-21
-2.5245212e-21
8.1005831e-33
7.0349189e-21
-4.5239862e-21
-2.1815179e-21
-2.1029013e-21
-4.0523656e-21
1.9526415e-21
2.378721e-76
3.636957e-21
1.7559505e-21
-1.881357e-33
-1.6344088e-21
-3.1528337e-21
3.0448385e-21
-1.4722655e-21
-4.273027e-21
4.1318935e-21
1.3291085e-21
-2.4490021e-49
1.2336111e-21
-3.5916237e-21
-1.1605088e-21
1.1251084e-21
2.1799971e-21
-1.0531446e-21
9.9629621e-22
-3.1992266e-33
-1.8996334e-21
2.7776905e-21
9.2577817e-34
-3.3410558e-33
1.6757141e-33
-1.5742992e-21
1.4636284e-21
-6.5940682e-22
-2.5713089e-21
6.5213186e-22
1.3443046e-21
0
1.323653e-21
-1.433448e-33
-3.5178994e-37
-6.547267e-34
-5.7032737e-22
-5.6166182e-22
5.5525901e-22
5.4502194e-22
-1.0614639e-21
1.0300474e-21
-5.5068154e-34
-9.5816283e-22
9.3850387e-22
1.5419052e-33
-5.0483523e-34
-4.4376096e-22
-8.6238447e-22
4.1709194e-22
-4.0487326e-22
2.2032822e-34
3.9172198e-22
7.7058872e-22
-3.7655467e-22
-7.3251969e-22
3.5531722e-22
-3.463858e-22
5.6756764e-34
-3.3718876e-22
-7.3802018e-34
6.4970666e-22
6.3120711e-22
6.8008332e-34
-9.9753238e-34
9.8546388e-34
-2.9415014e-22
-2.9156599e-22
-2.8595208e-22
2.772879e-22
0
0
-2.5933263e-22
1.4374094e-34
3.6771666e-38
2.8424906e-34
2.4944398e-22
0
-2.3304852e-22
-4.5682235e-22
2.2693599e-22
4.5508848e-22
4.5559839e-22
4.5221996e-22
-6.6549152e-22
-7.1869784e-34
6.3077872e-22
-4.1279615e-22
-4.0883911e-22
0
-2.0327117e-22
3.990286e-22
1.9211781e-22
-3.6982308e-22
-1.8086423e-22
2.0098283e-34
5.5298176e-22
-1.8725266e-22
-5.621951e-22
5.4681824e-22
1.7208957e-22
-4.8516075e-22
1.7262418e-34
1.5503038e-22
3.1706312e-22
1.7996724e-34
-3.271244e-22
3.2474359e-22
-1.5892012e-22
-4.6151796e-22
0
1.4138453e-22
2.7320237e-22
-7.473393e-35
1.3526022e-22
2.7450076e-22
-2.770436e-22
-2.7556574e-22
0
-1.2996307e-22
-1.3760883e-34
-1.3159201e-34
-1.2801333e-34
3.4512477e-22
2.3382566e-22
0
-2.3881506e-22
-2.5878663e-34
-1.1005139e-22
-3.0863872e-22
9.8788733e-23
-5.4906822e-35
1.4455614e-38
1.0440684e-22
2.1000215e-22
-1.0220845e-22
-1.9250901e-22
9.0118497e-23
0
1.7459332e-22
-8.985055e-23
-2.7694688e-22
9.307673e-23
9.1092479e-23
1.7287694e-22
-8.1419151e-23
-2.3631513e-22
7.9292497e-23
-9.0794202e-35
-1.6870436e-22
8.546761e-23
8.4166443e-23
1.6120768e-22
2.3108349e-22
-1.5130086e-22
-1.5347343e-22
1.5829755e-22
9.0282945e-35
-1.6409423e-22
1.6168762e-22
8.7494262e-35
-1.5578557e-22
0
1.6193355e-22
1.6616138e-22
0
-2.4895575e-22
-8.185162e-23
-2.3370422e-38
-8.4440625e-23
-8.7640325e-23
-1.0045543e-34
1.8302835e-22
1.8054859e-22
-2.9654076e-34
-1.799399e-22
1.8651029e-22
3.2570685e-34
-2.0377188e-22
0
0
0
0
2.1088388e-22
1.2295238e-34
-2.3196616e-22
-1.1961984e-22
2.4115376e-22
-3.9820819e-34
-2.3861379e-22
2.4303976e-22
1.4000627e-34
-1.3194893e-22
2.7473942e-22
-4.699647e-34
-2.8493503e-22
2.8502278e-22
2.8689152e-22
-2.9239539e-22
-3.0128595e-22
0
0
0
0
-1.6981492e-22
1.716764e-22
1.7464771e-22
-1.9838761e-34
-2.0312987e-77
-1.8872521e-22
-3.8718102e-22
-1.9755065e-22
4.0030512e-22
6.0580711e-22
-2.0428538e-22
-4.1571495e-22
6.3815397e-22
4.3719533e-22
-6.7333871e-22
-4.5729414e-22
-2.3059621e-22
-2.5757773e-34
4.6928008e-22
0
-2.4462692e-22
2.5073291e-22
-5.6770361e-34
-7.3544454e-38
-8.7012974e-34
-2.6454899e-22
-2.6866924e-22
7.769842e-38
5.5525905e-22
5.6101492e-22
-9.4272319e-34
-5.727366e-22
0
0
0
-3.0494433e-22
-3.0559491e-22
3.0639442e-22
3.0887096e-22
-3.1347428e-22
6.4041626e-22
9.8020921e-22
0
-6.623229e-22
-3.6784495e-34
-3.3312557e-22
-1.009171e-21
3.4142271e-22
-5.7635342e-34
6.9781582e-22
-2.3332071e-33
-7.0279307e-22
-1.9638703e-34
-5.0871536e-38
3.6277491e-22
-3.6527519e-22
7.2814349e-22
3.6249288e-22
-7.2458865e-22
7.2956291e-22
1.0548442e-37
-4.2015647e-34
-3.8111507e-22
-1.1323272e-21
7.4468931e-22
-2.4415906e-52
3.6961437e-22
-6.2547398e-34
-7.6651547e-22
3.8868929e-22
7.7653975e-22
-4.2451513e-34
-1.1308564e-21
1.0613951e-37
3.7346461e-22
-3.7833529e-22
7.6887407e-22
3.8843376e-22
-7.7442546e-22
7.6233027e-22
4.1616392e-34
-2.0563586e-33
8.1890937e-34
-7.4216001e-22
7.5003744e-22
-3.7787104e-22
-7.5375999e-22
3.7132404e-22
-3.643906e-22
7.1759196e-22
-5.9174885e-34
-1.063828e-21
0
0
1.0687025e-21
3.5185906e-22
-6.9012605e-22
6.7746322e-22
1.8961604e-37
-1.4647039e-33
-3.6423236e-34
-6.544688e-22
6.5155779e-22
6.437304e-22
-3.1513325e-22
-9.2327857e-22
-3.0130289e-22
2.9626703e-22
0
0
-2.8776528e-22
1.5696658e-34
8.2561944e-22
7.5944592e-38
-5.2054593e-22
-2.5485722e-22
2.7864779e-34
7.4330204e-22
5.3978605e-34
-4.7217807e-22
0
-2.1916112e-22
4.250792e-22
2.0765998e-22
-4.5239727e-34
-1.9919015e-22
-3.8529075e-22
1.8396755e-22
0
0
0
0
-1.5152236e-22
8.0583909e-35
4.1219174e-22
-1.2913654e-22
-3.6424441e-22
3.436202e-22
1.0817153e-22
-2.036098e-22
-9.5178102e-23
-1.4723741e-34
2.4531272e-22
-4.2721147e-38
-2.2676449e-34
-6.0258135e-23
-1.0495799e-22
-4.5720928e-23
-4.4488135e-35
3.4832307e-23
2.8956495e-23
2.1678846e-23
1.3240495e-23
-1.1905635e-35
1.2356947e-24
0
0
1.5208314e-23
3.7587027e-35
4.4019003e-39
-5.42622e-39
-4.3074647e-23
-9.3268164e-23
-1.0104916e-22
1.1166047e-22
6.9819097e-35
7.0492866e-23
2.2945765e-22
0
0
-8.6486576e-23
-9.1512773e-23
0
1.0436846e-22
-6.0363386e-35
-1.112395e-22
1.1335866e-22
-2.3267889e-22
4.0258891e-34
3.7933499e-22
-1.311062e-22
-1.337795e-22
-2.7045558e-22
1.3688381e-22
4.1908933e-22
-1.4364349e-22
8.1877131e-35
-2.9955904e-22
-1.5069903e-22
3.0302103e-22
-3.0631882e-22
5.1589529e-51
3.1830537e-22
0
0
-3.1905397e-22
1.7699012e-34
5.3765935e-34
5.1366925e-51
4.9991309e-22
1.8416377e-34
-1.6320412e-22
-3.2184776e-22
-3.2048381e-22
3.2365308e-22
3.6601553e-34
1.6620879e-22
5.4645568e-34
-1.597958e-22
3.1216266e-22
0
1.546837e-22
-1.7404801e-34
-1.5800859e-22
-3.1175113e-22
-1.6762616e-34
2.9207927e-22
0
0
1.4188567e-22
-7.9200504e-35
-4.234471e-22
-1.518298e-34
2.6263939e-22
0
-1.2358741e-22
1.2227401e-22
1.2203234e-22
1.2075986e-22
1.170628e-22
-2.2337742e-22
-3.191519e-22
1.0221554e-22
1.993117e-22
-2.947869e-22
-1.0661383e-51
1.8488829e-22
0
0
0
0
-1.4595169e-22
-1.4142973e-22
6.6253132e-23
1.8029032e-22
5.9803477e-35
-4.8707578e-23
9.0665518e-23
8.6999877e-23
-4.1495591e-23
-1.5053016e-22
-6.4149848e-23
7.8277531e-23
4.1467376e-23
-4.9807235e-23
-2.9714447e-35
1.9701079e-23
0
0
0
1.7919423e-23
1.3868954e-35
-3.6175615e-35
2.1032591e-23
-7.9312116e-23
3.1832613e-23
3.6310529e-23
-1.1873592e-22
-8.5596503e-23
4.7152759e-23
1.0529385e-22
1.1707653e-22
-2.1224135e-34
7.4658939e-35
-1.9737479e-38
-1.4459184e-22
0
-8.3163062e-23
-8.9522825e-23
9.4591962e-23
9.7411203e-23
-9.8673543e-23
-1.0075534e-22
2.1015029e-22
1.1115119e-22
-1.1768329e-22
1.2308621e-22
-1.2615634e-22
-2.5429446e-22
0
0
4.0852726e-22
1.4200343e-22
-2.9490127e-22
-1.5091832e-22
-1.520173e-22
3.0543861e-22
-1.7194766e-34
-3.1715385e-22
0
1.6859948e-22
5.1625823e-22
3.8451975e-34