-1.25 	300 	0.07298655584834284 	101354.3892626144
-1.247497497497497 	300.0260410237572 	0.08137126905181412 	101359.9742982876
-1.244994994994995 	300.0332827229141 	0.09647729576645203 	101364.4211607798
-1.242492492492492 	300.0366735108604 	0.1065866110886434 	101368.3319828235
-1.23998998998999 	300.0392884465565 	0.1134096720885954 	101371.4525430951
-1.237487487487487 	300.0411413374579 	0.1189372929324984 	101373.6443556551
-1.234984984984985 	300.0422112951358 	0.1220800084612255 	101374.9098017882
-1.232482482482482 	300.0425965931235 	0.1231340003047102 	101375.3654504045
-1.22997997997998 	300.0422178733342 	0.1219893644986764 	101374.9174982345
-1.227477477477477 	300.041006443068 	0.1185023346411324 	101373.4849493632
-1.224974974974975 	300.0390111765649 	0.1127403046535639 	101371.1254571413
-1.222472472472472 	300.0362848740398 	0.104836518853723 	101367.9015455537
-1.21996996996997 	300.0328665142954 	0.09494070699236655 	101363.8593693332
-1.217467467467467 	300.0288380455505 	0.08332281763787572 	101359.0957563835
-1.214964964964965 	300.0243205895629 	0.07027380037351869 	101353.754116405
-1.212462462462462 	300.0193894237611 	0.05601746233592643 	101347.9234842701
-1.20995995995996 	300.0141131122585 	0.04078243403675427 	101341.6850298271
-1.207457457457457 	300.0085989690591 	0.02481227145855452 	101335.1656941903
-1.204954954954955 	300.0029295820003 	0.008426325972460333 	101328.4630589196
-1.202452452452452 	299.997184546669 	0.008635170561036456 	101321.6712709265
-1.19994994994995 	299.9914796338528 	0.02470565507238953 	101314.9273170425
-1.197447447447447 	299.9859304902169 	0.04075749825185687 	101308.3677418657
-1.194944944944945 	299.980618973345 	0.05612885880661654 	101302.0893511118
-1.192442442442442 	299.9756170300543 	0.07055320521361919 	101296.1772014169
-1.18993993993994 	299.9710603705199 	0.08368137576737411 	101290.7914325509
-1.187437437437437 	299.9670784010671 	0.09521847358135267 	101286.085172221
-1.184934934934935 	299.9637284569878 	0.104885539515977 	101282.1259444396
-1.182432432432432 	299.9610518287408 	0.1125879439075446 	101278.9625631057
-1.17992992992993 	299.9590911882735 	0.1182579035783248 	101276.6454669256
-1.177427427427427 	299.9578545040685 	0.1218311199442715 	101275.1837894567
-1.174924924924925 	299.9573820600182 	0.1232099336223797 	101274.6254478462
-1.172422422422422 	299.957726902457 	0.1222280419419068 	101275.0329056425
-1.16991991991992 	299.9588826560407 	0.1188727542946029 	101276.3986762669
-1.167417417417417 	299.9608176393126 	0.1132430849533555 	101278.6854385046
-1.164914914914915 	299.9634982187935 	0.1055338836401948 	101281.8532658199
-1.162412412412412 	299.966833791855 	0.09592504979921862 	101285.7953705601
-1.15990990990991 	299.9707451554973 	0.08456884193097491 	101290.4180622515
-1.157407407407407 	299.9751741399464 	0.07172368862497944 	101295.6527610857
-1.154904904904904 	299.9800543661795 	0.05757200024112577 	101301.4210825916
-1.152402402402403 	299.9853136390282 	0.0423909221773741 	101307.6375601764
-1.1498998998999 	299.9908475531395 	0.02650852978629275 	101314.1790623238
-1.147397397397397 	299.9964909540342 	0.01016294042227546 	101320.8502561743
-1.144894894894895 	300.00215424659 	0.008674054495559984 	101327.5453466966
-1.142392392392392 	300.007810967425 	0.02264947456331458 	101334.233033043
-1.13988988988989 	300.0133752009655 	0.03873095582732799 	101340.8115689196
-1.137387387387387 	300.0187286966865 	0.05418695781145173 	101347.1413298029
-1.134884884884885 	300.023739777885 	0.06865394457735377 	101353.0664481789
-1.132382382382382 	300.0282941875368 	0.08181974501209686 	101358.4518882081
-1.12987987987988 	300.0323132439504 	0.09342851081531597 	101363.2045021306
-1.127377377377377 	300.0357415483661 	0.1033498239450841 	101367.2585741528
-1.124874874874875 	300.0385330862401 	0.1114251971709103 	101370.5598068153
-1.122372372372372 	300.0406372122417 	0.1174901410636218 	101373.0481332504
-1.11986986986987 	300.0419959324841 	0.1214117429727774 	101374.6550714793
-1.117367367367367 	300.0425645024836 	0.1230365262245492 	101375.3275645428
-1.114864864864865 	300.0423183509012 	0.1223244396473814 	101375.0364387866
-1.112362362362362 	300.0412631738785 	0.1192893938921287 	101373.7886966114
-1.10985985985986 	300.0394416202323 	0.1140176254343014 	101371.6346098433
-1.107357357357357 	300.0369024195984 	0.106663571407447 	101368.6319422061
-1.104854854854855 	300.0336849813569 	0.09734969160959583 	101364.8272923199
-1.102352352352353 	300.0298432545561 	0.08625305957685898 	101360.2844378404
-1.09984984984985 	300.0254462376317 	0.07354810869460111 	101355.0851796417
-1.097347347347347 	300.0205814260376 	0.05948419848744921 	101349.3329263144
-1.094844844844845 	300.015358405071 	0.04438362055690222 	101343.1574365134
-1.092342342342342 	300.0098773764404 	0.02852578829490953 	101336.6771885003
-1.08983983983984 	300.0042299279588 	0.01222917013274361 	101330.0003997774
-1.087337337337337 	299.9985114279003 	0.008730932778554853 	101323.23996099
-1.084834834834835 	299.9927914789412 	0.02088823108174218 	101316.4781125207
-1.082332332332332 	299.9871684980507 	0.03713750140373914 	101309.8311963817
-1.07982982982983 	299.9817736606344 	0.05273221094006295 	101303.4543066884
-1.077327327327327 	299.976719232834 	0.0673083924685883 	101297.4799920226
-1.074824824824825 	299.9721140870634 	0.08061037077467464 	101292.0369127223
-1.072322322322323 	299.9680392857847 	0.09243699525957685 	101287.2208868649
-1.06981981981982 	299.9645406412457 	0.102539833177437 	101283.085882941
-1.067317317317317 	299.9616753959637 	0.1107813019987395 	101279.699630205
-1.064814814814815 	299.9595138329885 	0.1169990350368717 	101277.1450212848
-1.062312312312312 	299.9581088987866 	0.1210494202866408 	101275.4845061542
-1.05980980980981 	299.9575088543816 	0.1228310230075748 	101274.7753761162
-1.057307307307307 	299.9577197745211 	0.1222495807418073 	101275.0245524815
-1.054804804804805 	299.9587058502839 	0.1193576471997221 	101276.1898426134
-1.052302302302302 	299.9604516711644 	0.1142724409296572 	101278.2530160863
-1.0497997997998 	299.9629358705049 	0.1071445867199151 	101281.188754914
-1.047297297297297 	299.9660910752272 	0.098051591907724 	101284.9176787016
-1.044794794794795 	299.9698653184465 	0.08709197106720436 	101289.3782573605
-1.042292292292292 	299.9741858908927 	0.07456036907398028 	101294.4847974657
-1.03978978978979 	299.9789591763549 	0.06071216223471726 	101300.1266366835
-1.037287287287287 	299.984121089964 	0.04584840393523816 	101306.2279930331
-1.034784784784785 	299.9895716965841 	0.0301975058570705 	101312.6709518868
-1.032282282282283 	299.9951673133126 	0.01395874840659213 	101319.2855659345
-1.02977977977978 	300.000819262315 	0.00838040536622589 	101325.9671840938
-1.027277277277277 	300.0064821265432 	0.01882891127863688 	101332.6620173438
-1.024774774774775 	300.0120590067586 	0.03493590038525426 	101339.2554594894
-1.022272272272272 	300.0174185432701 	0.05042475419019835 	101345.5922869782
-1.01976976976977 	300.022455450611 	0.06498013081648854 	101351.5478565402
-1.017267267267267 	300.0270934403588 	0.07837459671596889 	101357.0320709371
-1.014764764764765 	300.0312554186913 	0.09037378086338085 	101361.9536105481
-1.012262262262262 	300.0348608811024 	0.1008003831394832 	101366.2171720291
-1.00975975975976 	300.0378364855092 	0.1094094109063987 	101369.7360487909
-1.007257257257257 	300.0401121885304 	0.1159875927550916 	101372.427277358
-1.004754754754755 	300.0416370414322 	0.120398769136094 	101374.2306554866
-1.002252252252252 	300.0423814495594 	0.122522636701971 	101375.1110969513
-0.9997497497497498 	300.042328955474 	0.1223803845816101 	101375.0490128636
-0.9972472472472473 	300.0414883798399 	0.1199605479177937 	101374.0550233491
-0.9947447447447449 	300.0398867260648 	0.1152958110585998 	101372.1610300039
-0.9922422422422421 	300.0375419645032 	0.1084920556899594 	101369.3882431339
-0.9897397397397399 	300.03448973281 	0.09965330143494028 	101365.7789286926
-0.9872372372372376 	300.030789531357 	0.0889677298221027 	101361.4034600752
-0.9847347347347346 	300.0265142558898 	0.07663224690603784 	101356.3480554576
-0.9822322322322323 	300.0217571064392 	0.06288780845958265 	101350.7231220607
-0.9797297297297296 	300.0166139742774 	0.04799984636709121 	101344.6419672312
-0.9772272272272275 	300.0111629822534 	0.03224805036298372 	101338.197152241
-0.9747247247247248 	300.0055147054625 	0.01594722080078451 	101331.5193995823
-0.9722222222222224 	299.9997881989369 	0.00805630704659626 	101324.7493526753
-0.9697197197197196 	299.9940679311329 	0.01721381678545657 	101317.9871092768
-0.9672172172172175 	299.9884524131756 	0.03345104384875499 	101311.3489056872
-0.9647147147147147 	299.9830379375152 	0.049097504318903 	101304.9487132685
-0.9622122122122124 	299.9779124486528 	0.06386651392915341 	101298.890416579
-0.9597097097097099 	299.9731878542145 	0.07752916646074008 	101293.3060648728
-0.9572072072072073 	299.9689604763709 	0.08979065637873071 	101288.3096963597
-0.9547047047047047 	299.9653029813135 	0.1003243804740744 	101283.9869066856
-0.9522022022022023 	299.9622980234143 	0.1089791327619679 	101280.4354899484
-0.9496996996996998 	299.9600043223379 	0.1155965236346315 	101277.7247609024
-0.9471971971971973 	299.9584597100815 	0.1200767058344507 	101275.8991557994
-0.9446946946946947 	299.9576984898605 	0.1223262431484194 	101274.9995310612
-0.9421921921921923 	299.9577246448048 	0.1222396911108172 	101275.0303731236
-0.93968968968969 	299.9585225629455 	0.119863142404719 	101275.9732826664
-0.9371871871871872 	299.9600997328947 	0.1152871701479333 	101277.8371468402
-0.9346846846846848 	299.9624200797725 	0.1086300176555199 	101280.5792421758
-0.9321821821821823 	299.9654216606299 	0.09997863043546502 	101284.1265800224
-0.9296796796796799 	299.9690458644488 	0.08946641415914834 	101288.409817426
-0.9271771771771771 	299.9732264983818 	0.07734210479308908 	101293.3509001279
-0.9246746746746748 	299.9778887364076 	0.0638239658549342 	101298.8614387905
-0.9221721721721724 	299.9829787439028 	0.04919588927200894 	101304.877756038
-0.9196696696696698 	299.9883684940344 	0.03368064804162474 	101311.2487031676
-0.9171671671671672 	299.9939261916925 	0.01754935053291261 	101317.8184478325
-0.9146646646646649 	299.9995418968556 	0.007222462813257617 	101324.4571174624
-0.9121621621621623 	300.0051571109288 	0.01499449894060018 	101331.0955580146
-0.9096596596596597 	300.0107038458877 	0.03102438571569074 	101337.6532947161
-0.9071571571571573 	300.0160795106297 	0.04655344377603569 	101344.0090885065
-0.9046546546546547 	300.0211849647276 	0.06129297934575768 	101350.0456727364
-0.9021521521521524 	300.025927422981 	0.07497927211505943 	101355.6533262357
-0.8996496496496498 	300.0302108211893 	0.08734205638822901 	101360.7183990584
-0.8971471471471473 	300.0339515254997 	0.09816253419971119 	101365.141863532
-0.894644644644645 	300.0370772661795 	0.1071974769962403 	101368.838228724
-0.892142142142142 	300.0395209663785 	0.1142659307132913 	101371.7281382588
-0.8896396396396397 	300.0412309785931 	0.1192098019135551 	101373.7504651083
-0.8871371371371374 	300.0421708526356 	0.12191271899136 	101374.8620678649
-0.8846346346346349 	300.0423168266017 	0.1223445334001722 	101375.0347101138
-0.8821321321321324 	300.0416751831915 	0.1204812799435691 	101374.2759297867
-0.8796296296296297 	300.0402663212087 	0.1163796156576609 	101372.609943602
-0.8771271271271271 	300.0381109781678 	0.1101266741160681 	101370.061168259
-0.8746246246246248 	300.0352442020157 	0.1018290240348648 	101366.6711438412
-0.8721221221221224 	300.0317144704576 	0.09163027272268397 	101362.4972233598
-0.8696196196196196 	300.0275805454162 	0.07969340242870175 	101357.6089148018
-0.8671171171171175 	300.0229293922964 	0.06625156137994484 	101352.1092688005
-0.8646146146146148 	300.0178543894908 	0.05157474130885624 	101346.1086343619
-0.8621121121121121 	300.0124515726383 	0.03598240285085575 	101339.7207163716
-0.8596096096096097 	300.0068411626044 	0.01978723994300948 	101333.0876325043
-0.857107107107107 	300.0011407100995 	0.006445759359566707 	101326.3483072142
-0.8546046046046049 	299.9954243199064 	0.01329762557648533 	101319.5905833249
-0.8521021021021022 	299.9897784882671 	0.02964108515136907 	101312.9164916101
-0.8495995995995997 	299.9842939652453 	0.04547731444162505 	101306.4334443733
-0.8470970970970974 	299.9790797069987 	0.06050927626839752 	101300.2701382555
-0.8445945945945946 	299.9742554799271 	0.07446308483894432 	101294.5679521052
-0.8420920920920922 	299.9699159960409 	0.08702870850246756 	101289.4390663644
-0.8395895895895897 	299.9661333677105 	0.09791670974145664 	101284.9683566957
-0.8370870870870872 	299.9629922046811 	0.1069673367859594 	101281.2559701849
-0.8345845845845846 	299.9605439605873 	0.1140234022148474 	101278.3625767094
-0.8320820820820823 	299.9588403115101 	0.1189769175689952 	101276.3489887498
-0.8295795795795798 	299.9579148626219 	0.1217178729230172 	101275.2552905219
-0.8270770770770772 	299.9577688548839 	0.1221341412079011 	101275.0826642639
-0.8245745745745746 	299.9583883130103 	0.1202754943907425 	101275.8147090621
-0.8220720720720721 	299.959790065759 	0.1162262206842512 	101277.4712597086
-0.8195695695695699 	299.9619276372205 	0.1100806542753742 	101279.9972992548
-0.817067067067067 	299.9647642990504 	0.1018865282879561 	101283.3497451522
-0.8145645645645651 	299.9682472019213 	0.09176071872393832 	101287.4659373
-0.8120620620620621 	299.9723123807254 	0.0799611418955133 	101292.2705545002
-0.8095595595595597 	299.976873625594 	0.06674025425472994 	101297.6616780812
-0.8070570570570572 	299.9818761479408 	0.05240828767115145 	101303.5744920169
-0.8045545545545546 	299.9871714408241 	0.03714666949666517 	101309.8337671619
-0.8020520520520523 	299.9926595710454 	0.02122646442149085 	101316.3211763852
-0.7995495495495494 	299.9982233803138 	0.005185512829469639 	101322.8984613132
-0.7970470470470474 	300.0038034252108 	0.01105423606591173 	101329.4952414846
-0.7945445445445446 	300.0093465503546 	0.02708768640196278 	101336.0485811378
-0.7920420420420423 	300.0147522391239 	0.04271517082774077 	101342.439854798
-0.7895395395395397 	300.0199150895777 	0.05762860371588984 	101348.5441983432
-0.7870370370370371 	300.0247411214323 	0.0715694252107778 	101354.2506462013
-0.7845345345345348 	300.0291354493867 	0.08425529332620794 	101359.4468390941
-0.7820320320320323 	300.0330135809229 	0.09546854436797961 	101364.0327200732
-0.7795295295295296 	300.0362947875604 	0.1049413596173408 	101367.9129601213
-0.7770270270270272 	300.0389049845931 	0.1124715804320657 	101370.9997055589
-0.7745245245245247 	300.0407889497315 	0.1179166734594495 	101373.2277699187
-0.7720220220220222 	300.0419136474209 	0.1211563586871281 	101374.5579433937
-0.7695195195195199 	300.0422586048632 	0.1221697386019338 	101374.9658735723
-0.767017017017017 	300.0418269368795 	0.1209165415062242 	101374.4554347209
-0.7645145145145147 	300.040625091277 	0.1174212314175925 	101373.0342200966
-0.7620120120120122 	300.0386628231499 	0.1117359781062561 	101370.7138073929
-0.7595095095095097 	300.0359668005146 	0.1039351068819731 	101367.5256951936
-0.7570070070070072 	300.0325842231887 	0.09415716477555242 	101363.5257107148
-0.7545045045045048 	300.0285758326905 	0.08257563604583215 	101358.7858796288
-0.7520020020020022 	300.0240320074053 	0.06943642725337543 	101353.4130385143
-0.7494994994994997 	300.0190449060906 	0.05501421002033646 	101347.5163198109
-0.7469969969969972 	300.0137131882477 	0.03961952506680425 	101341.212407158
-0.7444944944944945 	300.0081496254575 	0.02355537967024999 	101334.634583724
-0.7419919919919924 	300.0024673320224 	0.007105153188517348 	101327.916736811
-0.7394894894894897 	299.9967467751512 	0.01075484437356097 	101321.1539405665
-0.7369869869869872 	299.9910730700955 	0.02586773972093612 	101314.4468660379
-0.7344844844844846 	299.9855414230491 	0.04184189190557929 	101307.9080667274
-0.7319819819819822 	299.9802648660949 	0.05708198909606241 	101301.6709910996
-0.7294794794794797 	299.9753526611593 	0.07129328839447027 	101295.8648531347
-0.7269769769769773 	299.9708997344101 	0.08416355772063855 	101290.6017679935
-0.7244744744744747 	299.96699242724 	0.09543382782316386 	101285.9837068403
-0.721971971971972 	299.9637169307832 	0.1048795757348979 	101282.1125645026
-0.7194694694694695 	299.9611268575973 	0.1123522273270245 	101279.0514672436
-0.7169669669669674 	299.9592714871486 	0.117727842757282 	101276.8586578683
-0.7144644644644647 	299.9581763309603 	0.1209133812019153 	101275.5643092757
-0.711961961961962 	299.9578496262797 	0.121856508824745 	101275.1781798742
-0.7094594594594597 	299.9582940801983 	0.1205332482622599 	101275.7034422885
-0.7069569569569573 	299.9595173387132 	0.1170191082716367 	101277.1489787667
-0.7044544544544545 	299.9614826649272 	0.1113418366102232 	101279.4715030305
-0.7019519519519523 	299.9641616939318 	0.1035890864825757 	101282.6375954244
-0.6994494494494495 	299.9674990251702 	0.09392234377807361 	101286.5817547839
-0.6969469469469471 	299.9714296180174 	0.08251849650485374 	101291.2272876092
-0.6944444444444446 	299.9758727575806 	0.06967142520485856 	101296.4787222088
-0.6919419419419421 	299.9807525684088 	0.05562879406187506 	101302.2464794324
-0.6894394394394396 	299.9859422559873 	0.04062439139775841 	101308.3808240441
-0.6869369369369374 	299.991357865212 	0.02496214922682402 	101314.7824722381
-0.6844344344344344 	299.9968857505119 	0.008961215210256543 	101321.317224306
-0.6819319319319321 	300.0024458089845 	0.009610742134165358 	101327.8902612615
-0.6794294294294296 	300.0079855948728 	0.02315362908744209 	101334.4396072876
-0.6769269269269272 	300.0134161489211 	0.0388597093748503 	101340.8601675027
-0.6744244244244245 	300.0186348499377 	0.05392727828387062 	101347.0305129857
-0.6719219219219222 	300.023541983434 	0.06811398681178248 	101352.8328030504
-0.6694194194194195 	300.0280361859006 	0.08109110589546561 	101358.1470067603
-0.6669169169169172 	300.0320327341343 	0.09264950952440247 	101362.8728939385
-0.6644144144144146 	300.0354517836337 	0.1025211665057798 	101366.9160776195
-0.661911911911912 	300.038222605951 	0.1105004832234576 	101370.1927826299
-0.6594094094094097 	300.0402898723532 	0.1164769987048306 	101372.6376130042
-0.656906906906907 	300.0416144228765 	0.120287065030142 	101374.2040969792
-0.6544044044044046 	300.0421673303803 	0.1219118557938049 	101374.8579838256
-0.6519019019019021 	300.0419446327024 	0.1212674896310519 	101374.5946237539
-0.6493993993993996 	300.0409416633361 	0.1183375466174826 	101373.4086234174
-0.6468968968968971 	300.0391646536526 	0.1132004457053732 	101371.3073021857
-0.6443943943943946 	300.0366392467959 	0.1058801081259579 	101368.3209260824
-0.6418918918918921 	300.0334115607943 	0.09655122687704257 	101364.5040906525
-0.6393893893893897 	300.029540847972 	0.08536462252311615 	101359.9270073369
-0.6368868868868871 	300.0251157054938 	0.07254474729245343 	101354.6944886892
-0.6343843843843846 	300.0202217849284 	0.05840521149293368 	101348.9079017795
-0.6318818818818821 	300.0149604421996 	0.04321418715305564 	101342.6871177974
-0.6293793793793795 	300.0094448480246 	0.02729583597119143 	101336.165942687
-0.6268768768768773 	300.0037872986699 	0.01092827838664131 	101329.4772463112
-0.6243743743743745 	299.9980730207538 	0.009023560652326483 	101322.7214098927
-0.6218718718718721 	299.9923789701387 	0.02209148839578403 	101315.9901213498
-0.6193693693693696 	299.986799433262 	0.03820555277981996 	101309.3950198813
-0.6168668668668671 	299.9814550761221 	0.05365162087455506 	101303.0778724812
-0.6143643643643645 	299.9764561709833 	0.06811311867315385 	101297.1691927676
-0.6118618618618621 	299.9718998009751 	0.08128551952384824 	101291.7838139904
-0.6093593593593596 	299.967877759852 	0.09288794888439664 	101287.0301316143
-0.6068568568568571 	299.9644730729044 	0.1027109800746408 	101283.0062727816
-0.6043543543543546 	299.9617379211861 	0.1106064495451261 	101279.7736875386
-0.6018518518518521 	299.9597223763959 	0.1164379582927513 	101277.3915989228
-0.5993493493493496 	299.9584523079748 	0.1201246764611629 	101275.8905079551
-0.5968468468468471 	299.9579443576418 	0.1215821409764959 	101275.2902099288
-0.5943443443443446 	299.9582142615185 	0.120778139689763 	101275.6091882235
-0.591841841841842 	299.9592670376193 	0.1177629816744454 	101276.8532208876
-0.5893393393393397 	299.9610690063922 	0.1125437793322841 	101278.9827058222
-0.5868368368368371 	299.9635939020247 	0.1052375729521948 	101281.9666015676
-0.5843343343343346 	299.9667875179401 	0.09598869449435703 	101285.7409155384
-0.5818318318318321 	299.9705863975481 	0.08496819582944153 	101290.2307488349
-0.5793293293293297 	299.9749150938608 	0.07247134241338542 	101295.3468386083
-0.5768268268268271 	299.979685985493 	0.05871721742184076 	101300.9858367251
-0.5743243243243245 	299.9847826280125 	0.04397066833607257 	101307.0101144127
-0.5718218218218221 	299.9901243118288 	0.0285377460447139 	101313.3243398863
-0.5693193193193196 	299.995602065861 	0.0126925412433289 	101319.7997678497
-0.5668168168168171 	300.0011253507975 	0.007402050602277566 	101326.3292113795
-0.5643143143143147 	300.0066522604168 	0.01929899754969368 	101332.8632943816
-0.5618118118118121 	300.0120981990531 	0.03505453290296948 	101339.3019458504
-0.5593093093093094 	300.017359644251 	0.05024142583915013 	101345.5227885975
-0.5568068068068072 	300.0223321342212 	0.0646231929343429 	101351.402303234
-0.5543043043043046 	300.0269124360552 	0.07784143027473478 	101356.8182151715
-0.551801801801802 	300.0310183978038 	0.08971732569000399 	101361.673471728
-0.5492992992992995 	300.0345731212423 	0.09997841833933635 	101365.8770378089
-0.5467967967967969 	300.0375049604878 	0.1084155707557586 	101369.3441558963
-0.5442942942942947 	300.0397550063863 	0.1149288024315279 	101372.0051320287
-0.5417917917917919 	300.0412722109353 	0.1192900564655654 	101373.7994045834
-0.5392892892892895 	300.0420196647206 	0.1214875959700078 	101374.6833984164
-0.536786786786787 	300.04199147849 	0.1214105507968813 	101374.6500485581
-0.5342842842842846 	300.0411826564482 	0.1190322569168878 	101373.6936548544
-0.531781781781782 	300.0395983334336 	0.1144685219371676 	101371.8202026573
-0.5292792792792794 	300.0372623781 	0.1076835068342119 	101369.0578331109
-0.526776776776777 	300.0342103493202 	0.09886164503139919 	101365.4487074666
-0.5242742742742745 	300.0304956412382 	0.08812568141391509 	101361.0560580891
-0.521771771771772 	300.0262010995784 	0.07566900625237177 	101355.9779583927
-0.5192692692692695 	300.021409564911 	0.06184242426529709 	101350.3123684886
-0.516766766766767 	300.0162223380967 	0.0468628031112201 	101344.1791494818
-0.5142642642642645 	300.0107547321537 	0.03107765178260267 	101337.714642121
-0.511761761761762 	300.0051146493473 	0.01477355232872981 	101331.0465298356
-0.5092592592592596 	299.9993987405319 	0.006445603961082859 	101324.2891335068
-0.506756756756757 	299.9936845917357 	0.01830034422972938 	101317.5340956948
-0.5042542542542544 	299.9880697574889 	0.03453041960835463 	101310.896822895
-0.5017517517517521 	299.9826730788221 	0.05013982354167857 	101304.5176121736
-0.4992492492492494 	299.9776007059236 	0.06480822901296396 	101298.5220379458
-0.496746746746747 	299.9729466058516 	0.07826988331606266 	101293.0211206132
-0.4942442442442445 	299.9688069247126 	0.09020825744420712 	101288.1283430389
-0.4917417417417421 	299.9652643950346 	0.1004379744185835 	101283.9415627162
-0.4892392392392395 	299.9623788492609 	0.1087732258132762 	101280.5311892329
-0.486736736736737 	299.9602019437772 	0.1150607110936494 	101277.958418346
-0.4842342342342345 	299.9587621041295 	0.1192334649518484 	101276.2566891492
-0.481731731731732 	299.958079780588 	0.1211812009542722 	101275.4502855796
-0.4792292292292296 	299.9581783342106 	0.1208875440654975 	101275.5668035014
-0.4767267267267268 	299.9590585556838 	0.1183734047279849 	101276.6068846119
-0.4742242242242246 	299.9606950665366 	0.1136280266745151 	101278.5408384108
-0.471721721721722 	299.9630625810898 	0.1067824112224299 	101281.3387317369
-0.4692192192192195 	299.9661102810339 	0.09795942460819147 	101284.9405688351
-0.4667167167167169 	299.9697737314378 	0.08733760194924461 	101289.2703351301
-0.4642142142142145 	299.9739812467732 	0.07520609302187102 	101294.2431240554
-0.461711711711712 	299.9786362972067 	0.06175624280691303 	101299.7451668754
-0.4592092092092094 	299.9836375707534 	0.04727692447841163 	101305.656669562
-0.456706706706707 	299.98890466877 	0.03205723246482808 	101311.8826577466
-0.4542042042042045 	299.994335352536 	0.01635591571281447 	101318.3023906074
-0.451701701701702 	299.9998286756267 	0.004403426897113456 	101324.7963117581
-0.4491991991991995 	300.0053399657767 	0.01549332426239864 	101331.3118704784
-0.4466966966966969 	300.0107911314595 	0.03125440172491135 	101337.7566357125
-0.4441941941941945 	300.0160833485099 	0.04652663193342825 	101344.0137909522
-0.441691691691692 	300.0211096611771 	0.06106983854668797 	101349.956882787
-0.4391891891891895 	300.0257709395548 	0.07452476493223524 	101355.4684634861
-0.436686686686687 	300.0299857166139 	0.08673250952826431 	101360.4523665053
-0.4341841841841846 	300.0336744949236 	0.09738983231239678 	101364.8144069587
-0.431681681681682 	300.0367639720849 	0.1062972931793147 	101368.4679330226
-0.4291791791791794 	300.0391930475554 	0.1133158231483733 	101371.3405909394
-0.426676676676677 	300.0409003559161 	0.118217764369635 	101373.3596568999
-0.4241741741741744 	300.0418463204716 	0.1209785478589227 	101374.4784426359
-0.421671671671672 	300.0420179049845 	0.1214608574794103 	101374.6813398032
-0.4191691691691694 	300.0414031311153 	0.1196545527087077 	101373.9543992789
-0.4166666666666669 	300.0400046389635 	0.1156280724984782 	101372.3007091903
-0.4141641641641645 	300.0378457060214 	0.1093586642347791 	101369.7476675303
-0.411661661661662 	300.0349555692902 	0.1010244497089443 	101366.3299984
-0.4091591591591594 	300.0313903347562 	0.09072549174701955 	101362.114045639
-0.406656656656657 	300.02722781702 	0.07866184083583171 	101357.1920483363
-0.4041541541541545 	300.0225461845378 	0.06514745400984838 	101351.6563494951
-0.401651651651652 	300.0174444209861 	0.05039962723374371 	101345.624109782
-0.3991491491491494 	300.0120351527126 	0.03476835540703018 	101339.2285417681
-0.396646646646647 	300.0064207958624 	0.01854081858574917 	101332.590740282
-0.3941441441441444 	300.0007113013505 	0.003031259444825443 	101325.8408831951
-0.3916416416416419 	299.9949863001492 	0.01453609319715335 	101319.0729379453
-0.3891391391391395 	299.9893431879767 	0.03084831264796353 	101312.402147952
-0.3866366366366368 	299.9838967582529 	0.04658874466952323 	101305.9640960575
-0.3841341341341344 	299.9787541530252 	0.06144578275187661 	101299.8854120677
-0.381631631631632 	299.9740075611657 	0.07517125200669085 	101294.2751583629
-0.3791291291291294 	299.9697561570732 	0.08744327324497787 	101289.2502899399
-0.3766266266266269 	299.9660798497637 	0.09807263852598948 	101284.9053512175
-0.3741241241241244 	299.9630475526559 	0.1068398292682755 	101281.3215536279
-0.371621621621622 	299.9607139588675 	0.1135668025421277 	101278.5635565231
-0.3691191191191194 	299.9591152798341 	0.1182026339109752 	101276.6741632407
-0.366616616616617 	299.95827177636 	0.1206092263669382 	101275.6772293982
-0.3641141141141143 	299.9582063281979 	0.1208059247945157 	101275.5999322714
-0.3616116116116119 	299.9589110162273 	0.1187837116398537 	101276.4325990649
-0.3591091091091095 	299.9603707908593 	0.1145304536341153 	101278.157651604
-0.356606606606607 	299.9625624650583 	0.1082031178883639 	101280.747753986
-0.3541041041041044 	299.9654461573245 	0.09985531550178967 	101284.1557399583
-0.3516016016016019 	299.9689596765666 	0.08969139571271324 	101288.3082587362
-0.3490990990990994 	299.9730374409817 	0.07793865546626405 	101293.1276698485
-0.346596596596597 	299.9775782107433 	0.06478869662780808 	101298.4945819336
-0.3440940940940944 	299.9824919312793 	0.05057665790658612 	101304.3025414134
-0.3415915915915919 	299.9876889710569 	0.03555445694083831 	101310.4456693652
-0.3390890890890895 	299.9930707804003 	0.02000430675965016 	101316.8075408112
-0.3365865865865869 	299.9985291842262 	0.004215650038672258 	101323.2601129513
-0.3340840840840844 	300.0040144001167 	0.01224830941969285 	101329.7447869517
-0.3315815815815819 	300.0094621361327 	0.02743166134840375 	101336.1854012559
-0.3290790790790794 	300.0147787696532 	0.04276919511464394 	101342.471380873
-0.3265765765765769 	300.0198538204839 	0.05744941655404865 	101348.4720184452
-0.3240740740740744 	300.0245939157366 	0.07112489208615667 	101354.0767250196
-0.3215715715715718 	300.0289167214586 	0.08364476188631992 	101359.1883430479
-0.3190690690690695 	300.0327385420445 	0.09468991127278899 	101363.7076360547
-0.3165665665665668 	300.0359837952652 	0.1040608579269047 	101367.5453770725
-0.3140640640640644 	300.0385879292187 	0.1115834764961482 	101370.6250236497
-0.311561561561562 	300.0404807514769 	0.1170201771089731 	101372.8634468048
-0.3090590590590593 	300.0416222885044 	0.1203394587575145 	101374.2135494464
-0.3065565565565568 	300.0419905289166 	0.1213751697195498 	101374.6490001363
-0.3040540540540545 	300.0415677397428 	0.1201306587588903 	101374.1490954992
-0.3015515515515518 	300.0403577764085 	0.1166426916334522 	101372.7183465282
-0.2990490490490494 	300.0383823394085 	0.1108925354612059 	101370.3822882081
-0.2965465465465469 	300.0356626275255 	0.1030675263559576 	101367.1661711006
-0.2940440440440444 	300.0322558215672 	0.09322869261099677 	101363.1375017099
-0.2915415415415418 	300.028231444546 	0.08157571234124547 	101358.3788579215
-0.2890390390390395 	300.0236639272717 	0.06838986407732608 	101352.9780210709