/*--------------------------------*- C++ -*----------------------------------*\
  =========                 |
  \\      /  F ield         | OpenFOAM: The Open Source CFD Toolbox
   \\    /   O peration     | Website:  https://openfoam.org
    \\  /    A nd           | Version:  7
     \\/     M anipulation  |
\*---------------------------------------------------------------------------*/
FoamFile
{
    version     2.0;
    format      ascii;
    class       volScalarField;
    location    "0.00183";
    object      rho;
}
// * * * * * * * * * * * * * * * * * * * * * * * * * * * * * * * * * * * * * //

dimensions      [1 -3 0 0 0 0 0];

internalField   nonuniform List<scalar> 
5000
(
1.0650288
1.0650933
1.0651933
1.0652726
1.0653727
1.0654525
1.0655527
1.0656327
1.065733
1.0658129
1.0659133
1.0659932
1.0660936
1.0661735
1.0662739
1.0663538
1.0664542
1.0665341
1.0666345
1.0667144
1.0668147
1.0668946
1.066995
1.0670748
1.0671752
1.067255
1.0673553
1.0674351
1.0675355
1.0676152
1.0677156
1.0677953
1.0678955
1.0679753
1.0680757
1.0681551
1.0682556
1.0683352
1.0684353
1.0685151
1.0686154
1.0686946
1.0687953
1.0688745
1.0689747
1.0690546
1.0691542
1.0692343
1.0693343
1.0694134
1.0695143
1.069593
1.0696934
1.0697735
1.0698714
1.0699548
1.0700491
1.070136
1.0702271
1.0703165
1.0704057
1.0704964
1.0705849
1.0706758
1.0707642
1.070855
1.0709437
1.0710341
1.071123
1.0712133
1.0713023
1.0713924
1.0714815
1.0715715
1.0716606
1.0717506
1.0718397
1.0719297
1.0720187
1.0721087
1.0721977
1.0722876
1.0723766
1.0724665
1.0725555
1.0726454
1.0727344
1.0728243
1.0729132
1.073003
1.0730919
1.0731818
1.0732706
1.0733605
1.0734493
1.0735391
1.0736279
1.0737177
1.0738065
1.0738962
1.073985
1.0740747
1.0741634
1.0742531
1.0743418
1.0744315
1.0745201
1.0746098
1.0746985
1.074788
1.0748769
1.0749663
1.0750553
1.0751445
1.0752337
1.0753228
1.0754121
1.0755011
1.0755904
1.0756794
1.0757688
1.0758578
1.0759471
1.0760361
1.0761255
1.0762144
1.0763038
1.0763927
1.0764821
1.076571
1.0766603
1.0767492
1.0768385
1.0769274
1.0770167
1.0771056
1.0771948
1.0772837
1.0773729
1.0774618
1.077551
1.0776398
1.077729
1.0778178
1.077907
1.0779958
1.0780849
1.0781737
1.0782628
1.0783516
1.0784407
1.0785294
1.0786185
1.0787072
1.0787963
1.078885
1.078974
1.0790627
1.0791517
1.0792404
1.0793294
1.079418
1.079507
1.0795956
1.0796846
1.0797731
1.0798621
1.0799507
1.0800396
1.0801281
1.0802171
1.0803056
1.0803945
1.080483
1.0805719
1.0806604
1.0807492
1.0808377
1.0809265
1.081015
1.0811038
1.0811922
1.081281
1.0813694
1.0814582
1.0815466
1.0816354
1.0817237
1.0818125
1.0819008
1.0819895
1.0820779
1.0821666
1.0822549
1.0823436
1.0824318
1.0825205
1.0826088
1.0826974
1.0827857
1.0828743
1.0829625
1.0830512
1.0831394
1.083228
1.0833162
1.0834047
1.0834929
1.0835815
1.0836696
1.0837581
1.0838463
1.0839348
1.0840229
1.0841114
1.0841995
1.084288
1.0843761
1.0844645
1.0845526
1.084641
1.0847291
1.0848175
1.0849055
1.0849939
1.0850819
1.0851703
1.0852583
1.0853467
1.0854347
1.085523
1.085611
1.0856993
1.0857872
1.0858755
1.0859634
1.0860518
1.0861396
1.0862279
1.0863158
1.0864041
1.0864919
1.0865801
1.086668
1.0867562
1.086844
1.0869322
1.08702
1.0871081
1.0871959
1.0872841
1.0873718
1.0874599
1.0875477
1.0876358
1.0877235
1.0878116
1.0878993
1.0879874
1.088075
1.0881631
1.0882507
1.0883388
1.0884265
1.0885145
1.0886022
1.0886902
1.0887778
1.0888659
1.0889535
1.0890416
1.0891292
1.0892172
1.0893048
1.0893929
1.0894805
1.0895685
1.0896561
1.0897442
1.0898317
1.0899197
1.0900074
1.0900953
1.090183
1.0902709
1.0903585
1.0904464
1.0905341
1.0906219
1.0907096
1.0907973
1.090885
1.0909727
1.0910604
1.0911481
1.0912358
1.0913234
1.0914111
1.0914987
1.0915863
1.0916739
1.0917615
1.0918491
1.0919366
1.0920242
1.0921117
1.0921992
1.0922867
1.0923742
1.0924616
1.0925491
1.0926365
1.0927239
1.0928113
1.0928986
1.092986
1.0930733
1.0931606
1.0932478
1.0933351
1.0934223
1.0935095
1.0935967
1.0936839
1.093771
1.0938581
1.0939452
1.0940322
1.0941193
1.0942063
1.0942932
1.0943802
1.0944671
1.094554
1.0946408
1.0947276
1.0948144
1.0949012
1.0949879
1.0950746
1.0951612
1.0952479
1.0953344
1.095421
1.0955075
1.095594
1.0956804
1.0957668
1.0958531
1.0959395
1.0960257
1.096112
1.0961982
1.0962843
1.0963704
1.0964565
1.0965425
1.0966284
1.0967144
1.0968003
1.0968861
1.0969719
1.0970576
1.0971433
1.0972289
1.0973145
1.0974
1.0974855
1.097571
1.0976564
1.0977417
1.097827
1.0979122
1.0979974
1.0980825
1.0981675
1.0982525
1.0983375
1.0984224
1.0985072
1.098592
1.0986767
1.0987614
1.098846
1.0989305
1.099015
1.0990994
1.0991838
1.0992681
1.0993524
1.0994366
1.0995207
1.0996047
1.0996887
1.0997727
1.0998565
1.0999404
1.1000241
1.1001078
1.1001914
1.100275
1.1003584
1.1004419
1.1005252
1.1006085
1.1006917
1.1007749
1.100858
1.100941
1.101024
1.1011068
1.1011897
1.1012724
1.1013551
1.1014377
1.1015203
1.1016027
1.1016852
1.1017675
1.1018498
1.101932
1.1020141
1.1020962
1.1021782
1.1022601
1.102342
1.1024238
1.1025055
1.1025872
1.1026688
1.1027503
1.1028318
1.1029132
1.1029945
1.1030758
1.103157
1.1032382
1.1033192
1.1034003
1.1034812
1.1035621
1.103643
1.1037238
1.1038045
1.1038851
1.1039658
1.1040463
1.1041268
1.1042072
1.1042876
1.1043679
1.1044482
1.1045284
1.1046086
1.1046887
1.1047687
1.1048487
1.1049287
1.1050086
1.1050884
1.1051682
1.105248
1.1053277
1.1054073
1.1054869
1.1055664
1.105646
1.1057254
1.1058048
1.1058842
1.1059635
1.1060428
1.106122
1.1062012
1.1062803
1.1063594
1.1064385
1.1065175
1.1065965
1.1066754
1.1067543
1.1068332
1.106912
1.1069908
1.1070695
1.1071482
1.1072269
1.1073055
1.1073841
1.1074627
1.1075412
1.1076197
1.1076982
1.1077766
1.107855
1.1079334
1.1080117
1.10809
1.1081683
1.1082465
1.1083247
1.1084029
1.1084811
1.1085592
1.1086373
1.1087154
1.1087934
1.1088715
1.1089495
1.1090275
1.1091054
1.1091833
1.1092613
1.1093392
1.109417
1.1094949
1.1095727
1.1096505
1.1097283
1.1098061
1.1098839
1.1099616
1.1100393
1.110117
1.1101947
1.1102724
1.1103501
1.1104277
1.1105054
1.110583
1.1106606
1.1107383
1.1108159
1.1108934
1.110971
1.1110486
1.1111261
1.1112037
1.1112812
1.1113588
1.1114363
1.1115138
1.1115914
1.1116689
1.1117464
1.1118239
1.1119014
1.1119789
1.1120564
1.1121339
1.1122113
1.1122888
1.1123663
1.1124438
1.1125213
1.1125987
1.1126762
1.1127537
1.1128312
1.1129086
1.1129861
1.1130636
1.1131411
1.1132186
1.1132961
1.1133736
1.1134511
1.1135286
1.1136061
1.1136836
1.1137611
1.1138387
1.1139162
1.1139938
1.1140714
1.114149
1.1142266
1.1143042
1.1143818
1.1144595
1.1145372
1.1146149
1.1146926
1.1147703
1.1148481
1.1149259
1.1150037
1.1150815
1.1151594
1.1152373
1.1153152
1.1153932
1.1154712
1.1155492
1.1156272
1.1157053
1.1157835
1.1158616
1.1159398
1.1160181
1.1160964
1.1161747
1.1162531
1.1163315
1.11641
1.1164885
1.1165671
1.1166457
1.1167244
1.1168031
1.1168819
1.1169607
1.1170396
1.1171185
1.1171975
1.1172765
1.1173556
1.1174348
1.117514
1.1175933
1.1176726
1.117752
1.1178315
1.117911
1.1179906
1.1180703
1.11815
1.1182298
1.1183096
1.1183896
1.1184695
1.1185496
1.1186297
1.1187099
1.1187902
1.1188705
1.118951
1.1190314
1.119112
1.1191926
1.1192733
1.1193541
1.119435
1.1195159
1.1195969
1.119678
1.1197591
1.1198404
1.1199217
1.1200031
1.1200845
1.1201661
1.1202477
1.1203294
1.1204112
1.120493
1.120575
1.120657
1.1207391
1.1208213
1.1209035
1.1209859
1.1210683
1.1211508
1.1212334
1.121316
1.1213988
1.1214816
1.1215645
1.1216475
1.1217306
1.1218137
1.1218969
1.1219802
1.1220636
1.1221471
1.1222307
1.1223143
1.122398
1.1224818
1.1225657
1.1226497
1.1227337
1.1228178
1.1229021
1.1229863
1.1230707
1.1231551
1.1232396
1.1233242
1.1234089
1.1234937
1.1235785
1.1236634
1.1237484
1.1238334
1.1239186
1.1240038
1.124089
1.1241744
1.1242598
1.1243453
1.1244308
1.1245165
1.1246022
1.1246879
1.1247738
1.1248597
1.1249456
1.1250317
1.1251178
1.1252039
1.1252901
1.1253764
1.1254627
1.1255491
1.1256356
1.1257221
1.1258087
1.1258953
1.125982
1.1260687
1.1261555
1.1262423
1.1263292
1.1264161
1.1265031
1.1265901
1.1266772
1.1267643
1.1268515
1.1269387
1.1270259
1.1271132
1.1272005
1.1272879
1.1273753
1.1274627
1.1275502
1.1276377
1.1277253
1.1278128
1.1279005
1.1279881
1.1280758
1.1281635
1.1282512
1.128339
1.1284268
1.1285146
1.1286025
1.1286904
1.1287783
1.1288662
1.1289542
1.1290422
1.1291302
1.1292182
1.1293063
1.1293943
1.1294824
1.1295705
1.1296587
1.1297468
1.129835
1.1299232
1.1300114
1.1300996
1.1301878
1.1302761
1.1303644
1.1304526
1.1305409
1.1306292
1.1307175
1.1308059
1.1308942
1.1309826
1.1310709
1.1311593
1.1312477
1.1313361
1.1314245
1.1315129
1.1316013
1.1316897
1.1317781
1.1318665
1.131955
1.1320434
1.1321318
1.1322203
1.1323087
1.1323972
1.1324856
1.1325741
1.1326625
1.132751
1.1328394
1.1329279
1.1330163
1.1331048
1.1331932
1.1332817
1.1333702
1.1334586
1.1335471
1.1336355
1.133724
1.1338124
1.1339009
1.1339894
1.1340778
1.1341663
1.1342547
1.1343432
1.1344316
1.1345201
1.1346085
1.134697
1.1347854
1.1348738
1.1349623
1.1350507
1.1351392
1.1352276
1.135316
1.1354045
1.1354929
1.1355813
1.1356697
1.1357581
1.1358466
1.135935
1.1360234
1.1361118
1.1362002
1.1362886
1.136377
1.1364654
1.1365538
1.1366422
1.1367306
1.136819
1.1369074
1.1369958
1.1370842
1.1371725
1.1372609
1.1373493
1.1374376
1.137526
1.1376143
1.1377027
1.137791
1.1378793
1.1379677
1.138056
1.1381443
1.1382327
1.138321
1.1384093
1.1384976
1.1385859
1.1386742
1.1387625
1.1388508
1.138939
1.1390273
1.1391156
1.1392038
1.1392921
1.1393804
1.1394686
1.1395569
1.1396451
1.1397333
1.1398216
1.1399098
1.139998
1.1400862
1.1401745
1.1402627
1.1403509
1.1404391
1.1405273
1.1406155
1.1407038
1.140792
1.1408802
1.1409683
1.1410565
1.1411447
1.1412329
1.141321
1.1414092
1.1414974
1.1415855
1.1416737
1.1417618
1.14185
1.1419381
1.1420263
1.1421144
1.1422025
1.1422906
1.1423787
1.1424669
1.142555
1.1426431
1.1427312
1.1428193
1.1429074
1.1429954
1.1430835
1.1431716
1.1432596
1.1433477
1.1434357
1.1435238
1.1436118
1.1436999
1.1437879
1.1438759
1.1439639
1.1440519
1.14414
1.1442279
1.1443159
1.1444039
1.1444919
1.1445799
1.1446678
1.1447558
1.1448437
1.1449317
1.1450196
1.1451075
1.1451954
1.1452833
1.1453712
1.1454592
1.145547
1.145635
1.1457228
1.1458107
1.1458985
1.1459864
1.1460743
1.1461621
1.14625
1.1463378
1.1464257
1.1465135
1.1466013
1.1466892
1.146777
1.1468648
1.1469526
1.1470404
1.1471282
1.147216
1.1473039
1.1473916
1.1474794
1.1475672
1.147655
1.1477428
1.1478305
1.1479183
1.1480061
1.1480939
1.1481816
1.1482694
1.1483571
1.1484449
1.1485326
1.1486204
1.1487081
1.1487958
1.1488836
1.1489713
1.149059
1.1491467
1.1492345
1.1493222
1.1494099
1.1494976
1.1495853
1.149673
1.1497607
1.1498484
1.1499361
1.1500238
1.1501114
1.1501991
1.1502868
1.1503744
1.1504621
1.1505498
1.1506374
1.1507251
1.1508127
1.1509003
1.150988
1.1510756
1.1511632
1.1512509
1.1513385
1.1514261
1.1515137
1.1516013
1.1516889
1.1517764
1.151864
1.1519516
1.1520392
1.1521268
1.1522144
1.1523019
1.1523895
1.152477
1.1525646
1.1526521
1.1527397
1.1528272
1.1529148
1.1530024
1.1530899
1.1531774
1.1532649
1.1533524
1.1534399
1.1535275
1.153615
1.1537025
1.15379
1.1538775
1.153965
1.1540525
1.15414
1.1542275
1.1543149
1.1544024
1.1544899
1.1545774
1.1546649
1.1547523
1.1548398
1.1549273
1.1550147
1.1551022
1.1551896
1.155277
1.1553645
1.1554519
1.1555394
1.1556268
1.1557143
1.1558017
1.1558891
1.1559765
1.1560639
1.1561513
1.1562387
1.1563261
1.1564135
1.1565009
1.1565883
1.1566757
1.1567631
1.1568505
1.1569378
1.1570252
1.1571126
1.1571999
1.1572873
1.1573746
1.157462
1.1575493
1.1576366
1.157724
1.1578113
1.1578987
1.157986
1.1580733
1.1581606
1.158248
1.1583353
1.1584226
1.1585099
1.1585972
1.1586845
1.1587718
1.1588591
1.1589463
1.1590336
1.1591209
1.1592082
1.1592955
1.1593827
1.15947
1.1595573
1.1596445
1.1597318
1.159819
1.1599063
1.1599935
1.1600808
1.160168
1.1602553
1.1603425
1.1604297
1.160517
1.1606042
1.1606914
1.1607786
1.1608658
1.160953
1.1610402
1.1611274
1.1612146
1.1613018
1.161389
1.1614762
1.1615633
1.1616505
1.1617377
1.1618248
1.161912
1.1619991
1.1620863
1.1621735
1.1622606
1.1623478
1.1624349
1.162522
1.1626091
1.1626962
1.1627833
1.1628704
1.1629575
1.1630446
1.1631317
1.1632188
1.1633059
1.163393
1.16348
1.1635671
1.1636541
1.1637412
1.1638282
1.1639152
1.1640023
1.1640893
1.1641763
1.1642633
1.1643503
1.1644374
1.1645244
1.1646113
1.1646984
1.1647853
1.1648723
1.1649593
1.1650463
1.1651332
1.1652202
1.1653072
1.1653941
1.1654811
1.165568
1.165655
1.1657419
1.1658289
1.1659158
1.1660027
1.1660897
1.1661766
1.1662635
1.1663505
1.1664374
1.1665243
1.1666112
1.1666981
1.166785
1.1668719
1.1669588
1.1670457
1.1671326
1.1672195
1.1673064
1.1673933
1.1674802
1.167567
1.1676539
1.1677408
1.1678277
1.1679145
1.1680014
1.1680883
1.1681751
1.168262
1.1683488
1.1684357
1.1685226
1.1686094
1.1686963
1.1687831
1.1688699
1.1689568
1.1690436
1.1691304
1.1692173
1.1693041
1.1693909
1.1694777
1.1695645
1.1696513
1.1697382
1.169825
1.1699118
1.1699986
1.1700854
1.1701722
1.1702589
1.1703457
1.1704325
1.1705193
1.1706061
1.1706929
1.1707796
1.1708664
1.1709532
1.17104
1.1711267
1.1712135
1.1713002
1.171387
1.1714737
1.1715605
1.1716472
1.171734
1.1718207
1.1719075
1.1719942
1.172081
1.1721677
1.1722544
1.1723411
1.1724278
1.1725146
1.1726013
1.172688
1.1727747
1.1728614
1.1729482
1.1730349
1.1731216
1.1732083
1.173295
1.1733817
1.1734683
1.1735551
1.1736417
1.1737284
1.1738151
1.1739018
1.1739885
1.1740751
1.1741618
1.1742484
1.1743351
1.1744217
1.1745084
1.1745951
1.1746817
1.1747684
1.174855
1.1749416
1.1750282
1.1751149
1.1752015
1.1752881
1.1753748
1.1754613
1.175548
1.1756345
1.1757211
1.1758077
1.1758943
1.1759809
1.1760674
1.176154
1.1762405
1.1763271
1.1764136
1.1765002
1.1765867
1.1766732
1.1767597
1.1768463
1.1769327
1.1770192
1.1771057
1.1771922
1.1772787
1.1773652
1.1774516
1.1775381
1.1776245
1.177711
1.1777974
1.1778839
1.1779703
1.1780567
1.1781431
1.1782295
1.1783159
1.1784023
1.1784887
1.178575
1.1786614
1.1787477
1.1788341
1.1789204
1.1790067
1.1790931
1.1791794
1.1792657
1.179352
1.1794383
1.1795246
1.1796109
1.1796972
1.1797835
1.1798698
1.179956
1.1800422
1.1801285
1.1802147
1.180301
1.1803872
1.1804734
1.1805597
1.1806459
1.1807321
1.1808183
1.1809045
1.1809907
1.1810769
1.181163
1.1812492
1.1813354
1.1814216
1.1815077
1.1815939
1.18168
1.1817662
1.1818523
1.1819385
1.1820246
1.1821108
1.1821969
1.182283
1.1823691
1.1824553
1.1825414
1.1826275
1.1827136
1.1827997
1.1828858
1.1829719
1.183058
1.1831441
1.1832302
1.1833163
1.1834023
1.1834884
1.1835745
1.1836606
1.1837467
1.1838327
1.1839188
1.1840049
1.1840909
1.184177
1.184263
1.1843491
1.1844351
1.1845212
1.1846072
1.1846932
1.1847793
1.1848653
1.1849513
1.1850373
1.1851233
1.1852094
1.1852954
1.1853814
1.1854674
1.1855534
1.1856394
1.1857254
1.1858113
1.1858973
1.1859833
1.1860693
1.1861552
1.1862412
1.1863272
1.1864131
1.1864991
1.186585
1.1866709
1.1867569
1.1868428
1.1869287
1.1870146
1.1871005
1.1871864
1.1872723
1.1873582
1.1874441
1.18753
1.1876158
1.1877017
1.1877876
1.1878734
1.1879592
1.1880451
1.1881309
1.1882167
1.1883026
1.1883884
1.1884742
1.18856
1.1886458
1.1887315
1.1888173
1.1889031
1.1889888
1.1890746
1.1891603
1.189246
1.1893318
1.1894175
1.1895032
1.1895889
1.1896746
1.1897603
1.1898459
1.1899316
1.1900173
1.1901029
1.1901886
1.1902742
1.1903598
1.1904454
1.1905311
1.1906167
1.1907022
1.1907878
1.1908734
1.190959
1.1910445
1.1911301
1.1912156
1.1913012
1.1913867
1.1914722
1.1915577
1.1916432
1.1917287
1.1918142
1.1918997
1.1919851
1.1920706
1.1921561
1.1922415
1.1923269
1.1924124
1.1924978
1.1925832
1.1926686
1.192754
1.1928394
1.1929247
1.1930101
1.1930955
1.1931808
1.1932662
1.1933515
1.1934368
1.1935222
1.1936075
1.1936928
1.1937781
1.1938634
1.1939487
1.194034
1.1941192
1.1942045
1.1942898
1.194375
1.1944602
1.1945455
1.1946307
1.1947159
1.1948012
1.1948864
1.1949716
1.1950568
1.195142
1.1952272
1.1953124
1.1953976
1.1954827
1.1955679
1.1956531
1.1957382
1.1958234
1.1959085
1.1959937
1.1960788
1.1961639
1.1962491
1.1963342
1.1964193
1.1965044
1.1965895
1.1966747
1.1967598
1.1968449
1.19693
1.1970151
1.1971001
1.1971852
1.1972703
1.1973554
1.1974405
1.1975255
1.1976106
1.1976957
1.1977807
1.1978658
1.1979509
1.1980359
1.198121
1.198206
1.1982911
1.1983761
1.1984611
1.1985462
1.1986312
1.1987162
1.1988013
1.1988863
1.1989713
1.1990563
1.1991414
1.1992264
1.1993114
1.1993964
1.1994814
1.1995664
1.1996514
1.1997364
1.1998214
1.1999064
1.1999913
1.2000763
1.2001613
1.2002463
1.2003312
1.2004162
1.2005012
1.2005861
1.2006711
1.200756
1.200841
1.2009259
1.2010109
1.2010958
1.2011807
1.2012656
1.2013506
1.2014355
1.2015204
1.2016053
1.2016902
1.2017751
1.20186
1.2019448
1.2020297
1.2021146
1.2021994
1.2022843
1.2023692
1.202454
1.2025389
1.2026237
1.2027085
1.2027933
1.2028782
1.202963
1.2030478
1.2031326
1.2032174
1.2033021
1.2033869
1.2034717
1.2035564
1.2036412
1.2037259
1.2038107
1.2038954
1.2039801
1.2040648
1.2041495
1.2042342
1.2043189
1.2044036
1.2044883
1.204573
1.2046576
1.2047423
1.2048269
1.2049115
1.2049962
1.2050808
1.2051654
1.20525
1.2053346
1.2054192
1.2055038
1.2055883
1.2056729
1.2057574
1.205842
1.2059265
1.206011
1.2060956
1.2061801
1.2062646
1.2063491
1.2064335
1.206518
1.2066025
1.206687
1.2067714
1.2068559
1.2069403
1.2070248
1.2071092
1.2071936
1.207278
1.2073624
1.2074468
1.2075312
1.2076155
1.2076999
1.2077842
1.2078686
1.2079529
1.2080373
1.2081216
1.2082059
1.2082902
1.2083745
1.2084589
1.2085431
1.2086274
1.2087117
1.208796
1.2088803
1.2089645
1.2090488
1.209133
1.2092173
1.2093015
1.2093857
1.2094699
1.2095542
1.2096384
1.2097226
1.2098068
1.209891
1.2099752
1.2100593
1.2101435
1.2102277
1.2103118
1.210396
1.2104801
1.2105643
1.2106484
1.2107326
1.2108167
1.2109008
1.210985
1.2110691
1.2111532
1.2112373
1.2113214
1.2114056
1.2114896
1.2115737
1.2116578
1.2117419
1.211826
1.21191
1.2119941
1.2120781
1.2121622
1.2122463
1.2123303
1.2124144
1.2124984
1.2125824
1.2126664
1.2127505
1.2128345
1.2129185
1.2130025
1.2130865
1.2131705
1.2132545
1.2133385
1.2134224
1.2135064
1.2135904
1.2136744
1.2137583
1.2138423
1.2139262
1.2140101
1.2140941
1.214178
1.2142619
1.2143458
1.2144297
1.2145136
1.2145975
1.2146813
1.2147652
1.214849
1.2149329
1.2150167
1.2151005
1.2151844
1.2152681
1.2153519
1.2154357
1.2155195
1.2156032
1.215687
1.2157707
1.2158544
1.2159381
1.2160218
1.2161054
1.2161891
1.2162727
1.2163563
1.2164399
1.2165235
1.2166071
1.2166906
1.2167741
1.2168576
1.2169411
1.2170246
1.217108
1.2171914
1.2172748
1.2173582
1.2174415
1.2175248
1.2176081
1.2176913
1.2177746
1.2178578
1.2179409
1.218024
1.2181071
1.2181902
1.2182732
1.2183563
1.2184392
1.2185221
1.218605
1.2186879
1.2187707
1.2188534
1.2189362
1.2190188
1.2191015
1.219184
1.2192666
1.2193491
1.2194315
1.2195139
1.2195962
1.2196785
1.2197607
1.2198429
1.219925
1.220007
1.220089
1.2201709
1.2202527
1.2203345
1.2204162
1.2204979
1.2205794
1.2206609
1.2207423
1.2208237
1.2209049
1.2209861
1.2210672
1.2211482
1.2212291
1.2213099
1.2213907
1.2214713
1.2215519
1.2216323
1.2217127
1.2217929
1.221873
1.2219531
1.222033
1.2221128
1.2221925
1.2222721
1.2223515
1.2224309
1.2225101
1.2225892
1.2226681
1.222747
1.2228256
1.2229042
1.2229826
1.2230609
1.223139
1.223217
1.2232948
1.2233725
1.22345
1.2235273
1.2236045
1.2236815
1.2237584
1.2238351
1.2239116
1.2239879
1.2240641
1.22414
1.2242158
1.2242914
1.2243668
1.2244419
1.2245169
1.2245917
1.2246663
1.2247407
1.2248148
1.2248888
1.2249625
1.225036
1.2251093
1.2251824
1.2252552
1.2253278
1.2254001
1.2254722
1.2255441
1.2256157
1.225687
1.2257582
1.225829
1.2258996
1.2259699
1.2260399
1.2261097
1.2261792
1.2262484
1.2263174
1.226386
1.2264544
1.2265225
1.2265903
1.2266578
1.226725
1.2267919
1.2268584
1.2269247
1.2269907
1.2270563
1.2271216
1.2271866
1.2272513
1.2273156
1.2273797
1.2274433
1.2275067
1.2275697
1.2276324
1.2276947
1.2277567
1.2278183
1.2278796
1.2279405
1.2280011
1.2280613
1.2281212
1.2281807
1.2282398
1.2282986
1.228357
1.228415
1.2284726
1.2285299
1.2285868
1.2286433
1.2286995
1.2287552
1.2288106
1.2288656
1.2289202
1.2289744
1.2290283
1.2290817
1.2291348
1.2291874
1.2292397
1.2292915
1.229343
1.2293941
1.2294448
1.2294951
1.2295449
1.2295944
1.2296435
1.2296922
1.2297405
1.2297883
1.2298358
1.2298829
1.2299296
1.2299759
1.2300217
1.2300672
1.2301123
1.230157
1.2302012
1.2302451
1.2302886
1.2303317
1.2303744
1.2304166
1.2304585
1.2305
1.2305411
1.2305818
1.2306221
1.230662
1.2307016
1.2307407
1.2307795
1.2308178
1.2308558
1.2308934
1.2309306
1.2309675
1.2310039
1.23104
1.2310757
1.231111
1.231146
1.2311806
1.2312148
1.2312486
1.2312821
1.2313153
1.231348
1.2313804
1.2314125
1.2314442
1.2314755
1.2315065
1.2315372
1.2315675
1.2315975
1.2316271
1.2316564
1.2316853
1.231714
1.2317423
1.2317703
1.2317979
1.2318252
1.2318522
1.2318789
1.2319053
1.2319314
1.2319572
1.2319827
1.2320078
1.2320327
1.2320573
1.2320816
1.2321055
1.2321292
1.2321527
1.2321758
1.2321987
1.2322212
1.2322436
1.2322656
1.2322874
1.2323089
1.2323302
1.2323512
1.232372
1.2323925
1.2324127
1.2324327
1.2324525
1.232472
1.2324913
1.2325104
1.2325292
1.2325478
1.2325661
1.2325843
1.2326022
1.23262
1.2326375
1.2326548
1.2326719
1.2326888
1.2327055
1.232722
1.2327382
1.2327543
1.2327702
1.232786
1.2328016
1.232817
1.2328322
1.2328472
1.2328621
1.2328767
1.2328912
1.2329055
1.2329197
1.2329337
1.2329476
1.2329613
1.2329748
1.2329882
1.2330014
1.2330145
1.2330275
1.2330403
1.233053
1.2330655
1.2330779
1.2330902
1.2331024
1.2331144
1.2331263
1.2331381
1.2331497
1.2331613
1.2331727
1.233184
1.2331951
1.2332062
1.2332172
1.233228
1.2332388
1.2332494
1.23326
1.2332704
1.2332808
1.233291
1.2333012
1.2333112
1.2333212
1.2333311
1.2333409
1.2333506
1.2333602
1.2333698
1.2333792
1.2333886
1.2333979
1.2334071
1.2334163
1.2334253
1.2334343
1.2334433
1.2334521
1.2334609
1.2334697
1.2334783
1.2334869
1.2334954
1.2335039
1.2335123
1.2335207
1.233529
1.2335373
1.2335455
1.2335536
1.2335617
1.2335698
1.2335778
1.2335857
1.2335936
1.2336015
1.2336093
1.2336171
1.2336248
1.2336325
1.2336401
1.2336477
1.2336552
1.2336627
1.2336701
1.2336775
1.2336848
1.2336921
1.2336993
1.2337065
1.2337137
1.2337208
1.2337278
1.2337348
1.2337418
1.2337487
1.2337556
1.2337624
1.2337692
1.233776
1.2337827
1.2337894
1.233796
1.2338026
1.2338092
1.2338158
1.2338223
1.2338288
1.2338352
1.2338417
1.2338481
1.2338545
1.2338608
1.2338671
1.2338734
1.2338797
1.233886
1.2338922
1.2338984
1.2339046
1.2339107
1.2339168
1.2339229
1.233929
1.2339351
1.2339411
1.2339471
1.2339531
1.233959
1.2339649
1.2339708
1.2339767
1.2339825
1.2339884
1.2339941
1.2339999
1.2340056
1.2340114
1.2340171
1.2340227
1.2340284
1.234034
1.2340396
1.2340452
1.2340507
1.2340562
1.2340617
1.2340672
1.2340727
1.2340781
1.2340835
1.2340888
1.2340942
1.2340995
1.2341047
1.23411
1.2341152
1.2341205
1.2341257
1.2341308
1.234136
1.2341411
1.2341462
1.2341513
1.2341563
1.2341614
1.2341664
1.2341714
1.2341763
1.2341812
1.2341862
1.234191
1.2341959
1.2342007
1.2342055
1.2342103
1.2342151
1.2342198
1.2342245
1.2342292
1.2342339
1.2342385
1.2342431
1.2342477
1.2342523
1.2342569
1.2342614
1.2342659
1.2342704
1.2342749
1.2342793
1.2342837
1.2342881
1.2342924
1.2342968
1.2343011
1.2343054
1.2343096
1.2343139
1.2343181
1.2343223
1.2343265
1.2343306
1.2343347
1.2343388
1.2343429
1.2343469
1.234351
1.234355
1.2343589
1.2343629
1.2343668
1.2343707
1.2343746
1.2343785
1.2343823
1.2343861
1.2343899
1.2343937
1.2343974
1.2344011
1.2344048
1.2344085
1.2344121
1.2344157
1.2344193
1.2344229
1.2344264
1.2344299
1.2344334
1.2344369
1.2344404
1.2344438
1.2344472
1.2344505
1.2344539
1.2344572
1.2344605
1.2344638
1.234467
1.2344703
1.2344735
1.2344766
1.2344798
1.2344829
1.234486
1.2344891
1.2344922
1.2344952
1.2344982
1.2345011
1.2345041
1.234507
1.2345099
1.2345128
1.2345156
1.2345185
1.2345213
1.234524
1.2345268
1.2345295
1.2345322
1.2345349
1.2345376
1.2345402
1.2345428
1.2345454
1.2345479
1.2345505
1.234553
1.2345554
1.2345579
1.2345603
1.2345627
1.2345651
1.2345675
1.2345698
1.2345721
1.2345744
1.2345766
1.2345789
1.2345811
1.2345832
1.2345854
1.2345875
1.2345896
1.2345917
1.2345938
1.2345958
1.2345978
1.2345998
1.2346017
1.2346037
1.2346056
1.2346074
1.2346093
1.2346111
1.2346129
1.2346147
1.2346165
1.2346182
1.2346199
1.2346216
1.2346232
1.2346248
1.2346264
1.234628
1.2346296
1.2346311
1.2346326
1.2346341
1.2346355
1.234637
1.2346384
1.2346398
1.2346411
1.2346424
1.2346437
1.234645
1.2346463
1.2346475
1.2346487
1.2346499
1.234651
1.2346522
1.2346533
1.2346544
1.2346554
1.2346564
1.2346575
1.2346584
1.2346594
1.2346603
1.2346612
1.2346621
1.234663
1.2346638
1.2346646
1.2346654
1.2346662
1.2346669
1.2346676
1.2346683
1.234669
1.2346696
1.2346702
1.2346708
1.2346714
1.2346719
1.2346724
1.2346729
1.2346734
1.2346738
1.2346742
1.2346746
1.234675
1.2346753
1.2346757
1.234676
1.2346762
1.2346765
1.2346767
1.2346769
1.2346771
1.2346772
1.2346774
1.2346775
1.2346775
1.2346776
1.2346776
1.2346776
1.2346776
1.2346776
1.2346775
1.2346774
1.2346773
1.2346772
1.2346771
1.2346769
1.2346767
1.2346765
1.2346762
1.2346759
1.2346756
1.2346753
1.234675
1.2346746
1.2346742
1.2346738
1.2346733
1.2346729
1.2346724
1.2346718
1.2346713
1.2346707
1.2346701
1.2346695
1.2346689
1.2346682
1.2346675
1.2346668
1.2346661
1.2346653
1.2346645
1.2346637
1.2346629
1.234662
1.2346612
1.2346603
1.2346594
1.2346584
1.2346575
1.2346565
1.2346555
1.2346545
1.2346534
1.2346523
1.2346512
1.2346501
1.2346489
1.2346478
1.2346466
1.2346453
1.2346441
1.2346428
1.2346415
1.2346402
1.2346389
1.2346375
1.2346361
1.2346347
1.2346332
1.2346318
1.2346303
1.2346288
1.2346272
1.2346257
1.2346241
1.2346225
1.2346208
1.2346192
1.2346175
1.2346158
1.2346141
1.2346124
1.2346106
1.2346088
1.234607
1.2346051
1.2346033
1.2346014
1.2345995
1.2345975
1.2345956
1.2345936
1.2345916
1.2345895
1.2345875
1.2345854
1.2345833
1.2345812
1.234579
1.2345768
1.2345747
1.2345724
1.2345702
1.2345679
1.2345656
1.2345633
1.2345609
1.2345586
1.2345562
1.2345537
1.2345513
1.2345488
1.2345463
1.2345438
1.2345413
1.2345387
1.2345361
1.2345335
1.2345309
1.2345282
1.2345255
1.2345228
1.2345201
1.2345173
1.2345146
1.2345118
1.234509
1.2345061
1.2345033
1.2345004
1.2344974
1.2344945
1.2344915
1.2344885
1.2344855
1.2344824
1.2344793
1.2344762
1.2344731
1.23447
1.2344668
1.2344636
1.2344604
1.2344572
1.2344539
1.2344506
1.2344473
1.234444
1.2344406
1.2344372
1.2344338
1.2344304
1.2344269
1.2344234
1.2344199
1.2344163
1.2344127
1.2344091
1.2344055
1.2344018
1.2343981
1.2343944
1.2343907
1.234387
1.2343832
1.2343794
1.2343756
1.2343717
1.2343678
1.2343639
1.23436
1.234356
1.2343521
1.2343481
1.2343441
1.23434
1.2343359
1.2343318
1.2343277
1.2343235
1.2343193
1.2343151
1.2343108
1.2343065
1.2343022
1.2342979
1.2342935
1.2342892
1.2342847
1.2342803
1.2342758
1.2342713
1.2342668
1.2342623
1.2342577
1.2342531
1.2342485
1.2342439
1.2342392
1.2342345
1.2342298
1.234225
1.2342203
1.2342155
1.2342107
1.2342058
1.2342011
1.2341961
1.2341913
1.2341865
1.2341815
1.2341767
1.2341717
1.2341668
1.2341619
1.2341569
1.2341521
1.2341472
1.2341422
1.2341375
1.2341326
1.2341276
1.2341228
1.2341179
1.234113
1.2341081
1.2341033
1.2340983
1.2340936
1.2340889
1.2340841
1.2340792
1.2340745
1.2340697
1.2340647
1.2340598
1.234055
1.2340501
1.2340451
1.2340402
1.2340354
1.2340305
1.2340254
1.2340201
1.2340148
1.2340096
1.234004
1.233998
1.233992
1.2339861
1.2339803
1.2339742
1.2339678
1.2339613
1.233955
1.233949
1.2339429
1.2339362
1.2339291
1.2339221
1.2339156
1.2339093
1.233903
1.2338962
1.2338889
1.2338816
1.233875
1.2338691
1.2338637
1.2338582
1.2338518
1.2338446
1.233837
1.23383
1.233824
1.2338189
1.2338142
1.2338093
1.2338039
1.2337978
1.2337909
1.2337833
1.2337751
1.2337664
1.2337564
1.2337435
1.2337228
1.2336811
1.233581
1.2333173
1.2325914
1.2305555
1.2267662
1.2225558
1.218108
1.2135466
1.2089853
1.2045256
1.2002538
1.1962387
1.1925309
1.1891637
1.1861539
1.1835035
1.1812021
1.1792298
1.1775604
1.1761639
1.1750094
1.1740659
1.1733039
1.1726959
1.1722165
1.1718426
1.1715538
1.1713324
1.1711636
1.1710355
1.1709389
1.1708663
1.1708123
1.1707724
1.1707432
1.1707218
1.1707061
1.1706941
1.1706843
1.1706755
1.1706677
1.170663
1.1706607
1.1706578
1.1706544
1.1706506
1.1706465
1.1706422
1.1706377
1.170633
1.1706282
1.1706233
1.1706182
1.170613
1.1706077
1.1706023
1.1705969
1.1705914
1.1705858
1.1705802
1.1705745
1.1705688
1.1705632
1.1705575
1.1705519
1.1705463
1.1705407
1.1705352
1.1705298
1.1705244
1.170519
1.1705137
1.1705084
1.1705031
1.1704978
1.1704925
1.1704872
1.1704818
1.1704764
1.170471
1.1704655
1.1704599
1.1704543
1.1704485
1.1704427
1.1704369
1.1704309
1.1704248
1.1704187
1.1704124
1.1704061
1.1703997
1.1703932
1.1703867
1.17038
1.1703733
1.1703666
1.1703598
1.1703529
1.1703459
1.170339
1.1703319
1.1703249
1.1703177
1.1703106
1.1703034
1.1702961
1.1702888
1.1702815
1.1702741
1.1702667
1.1702593
1.1702518
1.1702443
1.1702368
1.1702292
1.1702216
1.170214
1.1702063
1.1701986
1.1701909
1.1701831
1.1701753
1.1701675
1.1701596
1.1701518
1.1701439
1.1701359
1.170128
1.17012
1.170112
1.1701039
1.1700958
1.1700877
1.1700796
1.1700714
1.1700632
1.170055
1.1700467
1.1700384
1.1700301
1.1700218
1.1700134
1.170005
1.1699966
1.1699882
1.1699797
1.1699712
1.1699627
1.1699542
1.1699456
1.169937
1.1699284
1.1699197
1.1699111
1.1699024
1.1698936
1.1698849
1.1698761
1.1698673
1.1698584
1.1698496
1.1698407
1.1698318
1.1698228
1.1698139
1.1698049
1.1697958
1.1697868
1.1697777
1.1697686
1.1697595
1.1697504
1.1697412
1.169732
1.1697228
1.1697135
1.1697042
1.1696949
1.1696856
1.1696763
1.1696669
1.1696575
1.1696481
1.1696386
1.1696291
1.1696196
1.1696101
1.1696006
1.169591
1.1695814
1.1695717
1.1695621
1.1695524
1.1695427
1.169533
1.1695232
1.1695134
1.1695036
1.1694938
1.1694839
1.1694741
1.1694641
1.1694542
1.1694443
1.1694343
1.1694243
1.1694143
1.1694042
1.1693941
1.169384
1.1693739
1.1693637
1.1693535
1.1693433
1.1693331
1.1693229
1.1693126
1.1693023
1.1692919
1.1692816
1.1692712
1.1692608
1.1692504
1.1692399
1.1692294
1.1692189
1.1692084
1.1691978
1.1691873
1.1691767
1.169166
1.1691554
1.1691447
1.169134
1.1691233
1.1691125
1.1691018
1.169091
1.1690801
1.1690693
1.1690584
1.1690475
1.1690366
1.1690257
1.1690147
1.1690037
1.1689927
1.1689816
1.1689706
1.1689595
1.1689483
1.1689372
1.168926
1.1689148
1.1689036
1.1688923
1.1688811
1.1688698
1.1688585
1.1688471
1.1688358