/*--------------------------------*- C++ -*----------------------------------*\
  =========                 |
  \\      /  F ield         | OpenFOAM: The Open Source CFD Toolbox
   \\    /   O peration     | Website:  https://openfoam.org
    \\  /    A nd           | Version:  7
     \\/     M anipulation  |
\*---------------------------------------------------------------------------*/
FoamFile
{
    version     2.0;
    format      ascii;
    class       surfaceScalarField;
    location    "0.00071";
    object      phi;
}
// * * * * * * * * * * * * * * * * * * * * * * * * * * * * * * * * * * * * * //

dimensions      [1 0 -1 0 0 0 0];

internalField   nonuniform List<scalar> 
4999
(
1.4210855e-13
1.4210855e-13
1.4210855e-13
1.3500312e-13
1.4210855e-13
1.4210855e-13
1.3500312e-13
1.4210855e-13
1.4210855e-13
1.4210855e-13
1.4921397e-13
1.4921397e-13
1.563194e-13
1.4921397e-13
1.3500312e-13
1.3500312e-13
1.4210855e-13
1.4210855e-13
1.4210855e-13
1.4210855e-13
1.4210855e-13
1.3500312e-13
1.2079227e-13
1.2789769e-13
1.3500312e-13
1.3500312e-13
1.3500312e-13
1.2789769e-13
1.2789769e-13
1.3500312e-13
1.4210855e-13
1.4921397e-13
1.2789769e-13
1.4921397e-13
1.2079227e-13
1.2079227e-13
1.2789769e-13
1.1368684e-13
1.0658141e-13
1.1368684e-13
1.3500312e-13
1.2789769e-13
1.2789769e-13
1.2079227e-13
1.2789769e-13
1.2789769e-13
1.2789769e-13
1.2789769e-13
1.1368684e-13
1.3500312e-13
1.2789769e-13
1.3500312e-13
1.3500312e-13
1.2789769e-13
1.2789769e-13
1.3500312e-13
1.3500312e-13
1.3500312e-13
1.2079227e-13
1.3500312e-13
1.3500312e-13
1.3500312e-13
1.3500312e-13
1.4921397e-13
1.4921397e-13
1.563194e-13
1.563194e-13
1.563194e-13
1.563194e-13
1.563194e-13
1.563194e-13
1.4921397e-13
1.3500312e-13
1.563194e-13
1.4921397e-13
1.4921397e-13
1.563194e-13
1.563194e-13
1.563194e-13
1.563194e-13
1.4210855e-13
1.4921397e-13
1.4921397e-13
1.4921397e-13
1.4210855e-13
1.4921397e-13
1.3500312e-13
1.4921397e-13
1.4210855e-13
1.4210855e-13
1.3500312e-13
1.2789769e-13
1.2789769e-13
1.1368684e-13
1.1368684e-13
1.2079227e-13
1.1368684e-13
1.0658141e-13
1.1368684e-13
1.2079227e-13
1.2789769e-13
1.2079227e-13
1.2789769e-13
1.3500312e-13
1.4210855e-13
1.4921397e-13
1.4210855e-13
1.6342483e-13
1.7053026e-13
1.7763568e-13
1.7053026e-13
1.7763568e-13
1.7053026e-13
1.7053026e-13
1.6342483e-13
1.563194e-13
1.4210855e-13
1.2789769e-13
1.4210855e-13
1.3500312e-13
1.3500312e-13
1.4921397e-13
1.4210855e-13
1.4210855e-13
1.4210855e-13
1.3500312e-13
1.2079227e-13
1.2079227e-13
1.1368684e-13
1.0658141e-13
1.0658141e-13
8.5265128e-14
9.9475983e-14
9.9475983e-14
9.2370556e-14
9.9475983e-14
1.0658141e-13
9.9475983e-14
1.1368684e-13
1.0658141e-13
1.1368684e-13
1.0658141e-13
1.2079227e-13
1.2079227e-13
1.2079227e-13
1.563194e-13
1.4210855e-13
1.563194e-13
1.563194e-13
1.4921397e-13
1.563194e-13
1.6342483e-13
1.4210855e-13
1.4921397e-13
1.4921397e-13
1.4210855e-13
1.4921397e-13
1.4210855e-13
1.4210855e-13
1.3500312e-13
1.3500312e-13
1.3500312e-13
1.4210855e-13
1.4210855e-13
1.563194e-13
1.4210855e-13
1.3500312e-13
1.2079227e-13
1.2789769e-13
1.2789769e-13
1.3500312e-13
1.3500312e-13
1.3500312e-13
1.3500312e-13
1.2079227e-13
1.2789769e-13
1.3500312e-13
1.2079227e-13
9.9475983e-14
1.1368684e-13
1.1368684e-13
1.2079227e-13
1.1368684e-13
9.2370556e-14
9.2370556e-14
1.0658141e-13
1.0658141e-13
9.9475983e-14
9.2370556e-14
9.2370556e-14
8.5265128e-14
7.1054274e-14
7.8159701e-14
8.5265128e-14
7.8159701e-14
9.9475983e-14
9.2370556e-14
7.8159701e-14
7.1054274e-14
8.5265128e-14
8.5265128e-14
9.2370556e-14
9.2370556e-14
8.5265128e-14
8.5265128e-14
8.5265128e-14
9.2370556e-14
9.9475983e-14
9.9475983e-14
9.2370556e-14
9.2370556e-14
8.5265128e-14
7.8159701e-14
7.8159701e-14
8.5265128e-14
8.5265128e-14
9.9475983e-14
1.0658141e-13
1.0658141e-13
1.1368684e-13
1.2079227e-13
1.2789769e-13
1.2079227e-13
1.4921397e-13
1.7053026e-13
1.7763568e-13
1.6342483e-13
1.6342483e-13
1.6342483e-13
1.563194e-13
1.563194e-13
1.6342483e-13
1.6342483e-13
1.7763568e-13
1.6342483e-13
1.6342483e-13
1.563194e-13
1.563194e-13
1.7763568e-13
1.7053026e-13
1.6342483e-13
1.7053026e-13
1.6342483e-13
1.563194e-13
1.563194e-13
1.6342483e-13
1.563194e-13
1.7053026e-13
1.7053026e-13
1.6342483e-13
1.563194e-13
1.563194e-13
1.4921397e-13
1.4210855e-13
1.4921397e-13
1.4210855e-13
1.4210855e-13
1.3500312e-13
1.3500312e-13
1.3500312e-13
1.3500312e-13
1.2789769e-13
1.2789769e-13
1.2079227e-13
1.2789769e-13
1.1368684e-13
1.2079227e-13
1.2079227e-13
1.1368684e-13
1.0658141e-13
1.1368684e-13
1.0658141e-13
1.1368684e-13
1.2079227e-13
1.1368684e-13
1.2079227e-13
1.2789769e-13
1.4210855e-13
1.3500312e-13
1.3500312e-13
1.4210855e-13
1.4210855e-13
1.2789769e-13
1.1368684e-13
1.2079227e-13
1.0658141e-13
1.3500312e-13
1.2789769e-13
1.2079227e-13
1.2789769e-13
1.2079227e-13
1.3500312e-13
1.3500312e-13
1.4921397e-13
1.563194e-13
1.4921397e-13
1.6342483e-13
1.6342483e-13
1.7763568e-13
1.7053026e-13
1.563194e-13
1.563194e-13
1.4210855e-13
1.3500312e-13
1.4210855e-13
1.2789769e-13
1.2789769e-13
1.3500312e-13
1.2079227e-13
1.2079227e-13
1.2789769e-13
1.2079227e-13
1.4210855e-13
1.2789769e-13
1.2789769e-13
1.2789769e-13
1.3500312e-13
1.4210855e-13
1.4210855e-13
1.3500312e-13
1.3500312e-13
1.3500312e-13
1.2789769e-13
1.3500312e-13
1.2789769e-13
1.2079227e-13
1.2079227e-13
1.0658141e-13
9.9475983e-14
9.9475983e-14
9.9475983e-14
9.2370556e-14
9.2370556e-14
9.2370556e-14
9.9475983e-14
1.0658141e-13
1.0658141e-13
1.0658141e-13
1.0658141e-13
1.2079227e-13
1.2789769e-13
1.2789769e-13
1.2789769e-13
1.2079227e-13
1.2789769e-13
1.2079227e-13
1.2079227e-13
1.1368684e-13
1.1368684e-13
9.9475983e-14
9.9475983e-14
9.9475983e-14
1.0658141e-13
1.0658141e-13
1.0658141e-13
1.2789769e-13
1.2079227e-13
1.1368684e-13
1.2079227e-13
1.2789769e-13
1.1368684e-13
1.2079227e-13
1.1368684e-13
1.0658141e-13
1.2079227e-13
1.1368684e-13
1.4210855e-13
1.563194e-13
1.4921397e-13
1.4210855e-13
1.4921397e-13
1.563194e-13
1.4921397e-13
1.563194e-13
1.3500312e-13
1.2079227e-13
1.3500312e-13
1.0658141e-13
1.1368684e-13
1.0658141e-13
9.2370556e-14
1.0658141e-13
1.1368684e-13
1.2079227e-13
1.2079227e-13
1.0658141e-13
9.9475983e-14
8.5265128e-14
9.9475983e-14
9.2370556e-14
7.8159701e-14
8.5265128e-14
9.2370556e-14
8.5265128e-14
9.2370556e-14
9.2370556e-14
9.2370556e-14
8.5265128e-14
9.2370556e-14
7.8159701e-14
9.2370556e-14
9.2370556e-14
9.2370556e-14
9.2370556e-14
9.2370556e-14
9.9475983e-14
9.2370556e-14
9.2370556e-14
7.1054274e-14
7.8159701e-14
7.1054274e-14
7.1054274e-14
7.1054274e-14
7.8159701e-14
8.5265128e-14
8.5265128e-14
7.1054274e-14
7.1054274e-14
9.2370556e-14
9.2370556e-14
9.9475983e-14
9.2370556e-14
9.9475983e-14
1.2079227e-13
1.3500312e-13
1.2079227e-13
1.1368684e-13
9.9475983e-14
9.2370556e-14
9.2370556e-14
8.5265128e-14
9.2370556e-14
9.9475983e-14
9.2370556e-14
1.0658141e-13
9.2370556e-14
9.9475983e-14
9.9475983e-14
1.0658141e-13
9.9475983e-14
9.9475983e-14
9.9475983e-14
9.2370556e-14
8.5265128e-14
8.5265128e-14
7.1054274e-14
5.6843419e-14
5.6843419e-14
5.6843419e-14
4.9737992e-14
5.6843419e-14
5.6843419e-14
5.6843419e-14
6.3948846e-14
5.6843419e-14
5.6843419e-14
5.6843419e-14
4.2632564e-14
4.2632564e-14
4.2632564e-14
4.2632564e-14
4.9737992e-14
3.5527137e-14
4.9737992e-14
6.3948846e-14
5.6843419e-14
5.6843419e-14
5.6843419e-14
4.2632564e-14
4.2632564e-14
5.6843419e-14
4.2632564e-14
4.2632564e-14
4.9737992e-14
7.1054274e-14
7.8159701e-14
7.1054274e-14
7.1054274e-14
7.8159701e-14
7.8159701e-14
9.2370556e-14
7.8159701e-14
6.3948846e-14
7.1054274e-14
6.3948846e-14
7.1054274e-14
6.3948846e-14
6.3948846e-14
4.9737992e-14
6.3948846e-14
7.8159701e-14
7.1054274e-14
7.1054274e-14
6.3948846e-14
7.1054274e-14
7.1054274e-14
7.1054274e-14
9.2370556e-14
8.5265128e-14
8.5265128e-14
9.2370556e-14
9.2370556e-14
9.9475983e-14
9.9475983e-14
9.9475983e-14
1.0658141e-13
1.0658141e-13
9.9475983e-14
1.0658141e-13
1.1368684e-13
1.0658141e-13
9.9475983e-14
1.0658141e-13
1.1368684e-13
9.9475983e-14
1.1368684e-13
1.1368684e-13
1.0658141e-13
9.9475983e-14
9.9475983e-14
9.2370556e-14
8.5265128e-14
1.0658141e-13
9.9475983e-14
9.9475983e-14
9.2370556e-14
9.2370556e-14
9.9475983e-14
9.2370556e-14
9.9475983e-14
1.0658141e-13
9.2370556e-14
8.5265128e-14
1.0658141e-13
1.1368684e-13
1.0658141e-13
1.0658141e-13
9.2370556e-14
8.5265128e-14
7.8159701e-14
8.5265128e-14
8.5265128e-14
8.5265128e-14
7.8159701e-14
7.8159701e-14
8.5265128e-14
8.5265128e-14
9.9475983e-14
9.2370556e-14
9.9475983e-14
1.0658141e-13
1.2789769e-13
1.2789769e-13
1.3500312e-13
1.4210855e-13
1.4210855e-13
1.563194e-13
1.4921397e-13
1.6342483e-13
1.6342483e-13
1.563194e-13
1.563194e-13
1.563194e-13
1.563194e-13
1.563194e-13
1.7053026e-13
1.6342483e-13
1.4921397e-13
1.563194e-13
1.563194e-13
1.563194e-13
1.4210855e-13
1.4210855e-13
1.3500312e-13
1.3500312e-13
1.3500312e-13
1.2079227e-13
1.3500312e-13
1.3500312e-13
1.3500312e-13
1.2079227e-13
1.0658141e-13
1.0658141e-13
1.1368684e-13
1.2079227e-13
1.1368684e-13
1.0658141e-13
1.1368684e-13
9.9475983e-14
9.9475983e-14
9.2370556e-14
7.8159701e-14
9.9475983e-14
9.9475983e-14
1.0658141e-13
9.2370556e-14
9.2370556e-14
9.2370556e-14
8.5265128e-14
1.1368684e-13
9.9475983e-14
1.0658141e-13
9.9475983e-14
9.9475983e-14
1.0658141e-13
1.0658141e-13
1.1368684e-13
1.0658141e-13
1.0658141e-13
1.0658141e-13
1.1368684e-13
1.2079227e-13
1.3500312e-13
1.2789769e-13
1.2079227e-13
1.3500312e-13
1.2079227e-13
1.2079227e-13
1.2789769e-13
1.1368684e-13
9.9475983e-14
8.5265128e-14
8.5265128e-14
8.5265128e-14
8.5265128e-14
9.2370556e-14
9.2370556e-14
9.2370556e-14
8.5265128e-14
9.9475983e-14
9.9475983e-14
9.2370556e-14
9.2370556e-14
9.2370556e-14
7.8159701e-14
7.1054274e-14
8.5265128e-14
8.5265128e-14
8.5265128e-14
9.2370556e-14
9.2370556e-14
8.5265128e-14
9.9475983e-14
1.0658141e-13
1.2079227e-13
1.0658141e-13
1.1368684e-13
1.0658141e-13
8.5265128e-14
7.8159701e-14
7.1054274e-14
7.8159701e-14
7.1054274e-14
7.8159701e-14
7.1054274e-14
7.8159701e-14
9.2370556e-14
9.9475983e-14
9.9475983e-14
1.1368684e-13
1.1368684e-13
1.2789769e-13
1.2079227e-13
1.2079227e-13
1.1368684e-13
1.0658141e-13
1.2789769e-13
1.1368684e-13
1.2079227e-13
1.3500312e-13
1.2789769e-13
1.2789769e-13
1.1368684e-13
1.2789769e-13
1.2079227e-13
1.0658141e-13
8.5265128e-14
8.5265128e-14
9.9475983e-14
9.9475983e-14
1.1368684e-13
9.9475983e-14
9.9475983e-14
1.0658141e-13
1.1368684e-13
1.0658141e-13
1.0658141e-13
1.1368684e-13
9.9475983e-14
1.1368684e-13
9.9475983e-14
9.9475983e-14
9.9475983e-14
1.0658141e-13
1.0658141e-13
1.0658141e-13
1.0658141e-13
1.0658141e-13
1.0658141e-13
9.2370556e-14
1.0658141e-13
1.1368684e-13
1.0658141e-13
9.9475983e-14
9.9475983e-14
9.2370556e-14
9.2370556e-14
9.2370556e-14
9.2370556e-14
8.5265128e-14
7.1054274e-14
8.5265128e-14
7.1054274e-14
6.3948846e-14
7.8159701e-14
7.8159701e-14
8.5265128e-14
9.2370556e-14
1.0658141e-13
1.0658141e-13
1.0658141e-13
9.2370556e-14
8.5265128e-14
9.9475983e-14
7.8159701e-14
7.1054274e-14
6.3948846e-14
6.3948846e-14
6.3948846e-14
4.9737992e-14
4.9737992e-14
3.5527137e-14
4.9737992e-14
4.9737992e-14
7.1054274e-14
7.1054274e-14
9.2370556e-14
9.9475983e-14
1.0658141e-13
1.1368684e-13
1.2079227e-13
1.2079227e-13
1.3500312e-13
1.2789769e-13
1.2079227e-13
1.3500312e-13
1.2789769e-13
1.2789769e-13
1.2789769e-13
1.2789769e-13
1.2789769e-13
1.2789769e-13
1.1368684e-13
1.1368684e-13
1.1368684e-13
1.2079227e-13
1.1368684e-13
1.0658141e-13
9.2370556e-14
9.9475983e-14
9.2370556e-14
8.5265128e-14
7.1054274e-14
7.8159701e-14
7.8159701e-14
8.5265128e-14
1.0658141e-13
9.9475983e-14
9.9475983e-14
1.1368684e-13
9.9475983e-14
9.2370556e-14
9.2370556e-14
9.9475983e-14
7.8159701e-14
9.2370556e-14
9.9475983e-14
9.9475983e-14
9.9475983e-14
9.9475983e-14
1.0658141e-13
1.1368684e-13
1.2079227e-13
1.2789769e-13
1.2789769e-13
1.3500312e-13
1.2789769e-13
1.1368684e-13
1.1368684e-13
9.9475983e-14
1.0658141e-13
1.0658141e-13
9.9475983e-14
1.0658141e-13
9.9475983e-14
1.1368684e-13
9.9475983e-14
9.9475983e-14
1.0658141e-13
9.9475983e-14
1.0658141e-13
1.3500312e-13
1.2079227e-13
1.2789769e-13
1.3500312e-13
1.2789769e-13
1.3500312e-13
1.3500312e-13
1.563194e-13
1.563194e-13
1.7053026e-13
1.6342483e-13
1.7053026e-13
1.6342483e-13
1.563194e-13
1.6342483e-13
1.4210855e-13
1.4210855e-13
1.4210855e-13
1.4210855e-13
1.563194e-13
1.563194e-13
1.563194e-13
1.563194e-13
1.4210855e-13
1.4210855e-13
1.4210855e-13
1.4921397e-13
1.4921397e-13
1.4921397e-13
1.563194e-13
1.6342483e-13
1.7763568e-13
1.6342483e-13
1.7053026e-13
1.7763568e-13
1.8474111e-13
1.9184654e-13
2.1316282e-13
2.2026825e-13
2.0605739e-13
2.2026825e-13
2.1316282e-13
2.2026825e-13
2.344791e-13
2.4868996e-13
2.6290081e-13
2.8421709e-13
3.126388e-13
3.3395509e-13
3.5527137e-13
3.8369308e-13
4.2632564e-13
4.6895821e-13
5.1159077e-13
5.7553962e-13
6.1817218e-13
6.6791017e-13
7.3896445e-13
8.1712415e-13
9.0238927e-13
9.9475983e-13
1.0871304e-12
1.2079227e-12
1.3287149e-12
1.4708235e-12
1.6342483e-12
1.8260948e-12
2.0108359e-12
2.2311042e-12
2.494005e-12
2.7711167e-12
3.0624392e-12
3.3963943e-12
3.7729819e-12
4.1708859e-12
4.6327386e-12
5.1514348e-12
5.719869e-12
6.3451466e-12
7.0556894e-12
7.8230755e-12
8.6828322e-12
9.6278541e-12
1.0686563e-11
1.1866064e-11
1.3145041e-11
1.4601653e-11
1.6179058e-11
1.7955415e-11
1.9923618e-11
2.2097879e-11
2.4492408e-11
2.7149838e-11
3.0091485e-11
3.3345771e-11
3.6948222e-11
4.0934367e-11
4.5325521e-11
5.0199844e-11
5.5578653e-11
6.1504579e-11
6.8084205e-11
7.5338846e-11
8.3339557e-11
9.2178709e-11
1.0193446e-10
1.1269208e-10
1.2457235e-10
1.3766766e-10
1.5213431e-10
1.6807178e-10
1.856435e-10
2.0502e-10
2.2638602e-10
2.4989788e-10
2.7580427e-10
3.0434677e-10
3.3578829e-10
3.7039172e-10
4.0847681e-10
4.5039883e-10
4.9652016e-10
5.4726002e-10
6.0303762e-10
6.6438588e-10
7.3181639e-10
8.0594731e-10
8.8738972e-10
9.7688968e-10
1.0751791e-09
1.1831247e-09
1.3016361e-09
1.4317223e-09
1.5744916e-09
1.7311521e-09
1.9029898e-09
2.0914896e-09
2.2981865e-09
2.5247928e-09
2.7731772e-09
3.0453577e-09
3.3435654e-09
3.6702232e-09
4.0279744e-09
4.4196824e-09
4.8484665e-09
5.3177658e-09
5.8312679e-09
6.393023e-09
7.0074435e-09
7.6793327e-09
8.4138705e-09
9.2167554e-09
1.0094148e-08
1.1052741e-08
1.2099846e-08
1.3243373e-08
1.4491931e-08
1.585488e-08
1.7342352e-08
1.896538e-08
2.0735925e-08
2.2666974e-08
2.4772646e-08
2.7068154e-08
2.9570138e-08
3.2296526e-08
3.5266794e-08
3.8502037e-08
4.2025135e-08
4.5860808e-08
5.0035901e-08
5.4579424e-08
5.9522804e-08
6.4900007e-08
7.0747795e-08
7.7105966e-08
8.4017493e-08
9.152884e-08
9.9690233e-08
1.0855592e-07
1.1818456e-07
1.2863944e-07
1.3998884e-07
1.5230656e-07
1.6567218e-07
1.8017154e-07
1.9589726e-07
2.1294918e-07
2.3143494e-07
2.5147053e-07
2.7318093e-07
2.9670074e-07
3.2217498e-07
3.4975969e-07
3.7962285e-07
4.1194524e-07
4.4692129e-07
4.8476019e-07
5.2568674e-07
5.6994271e-07
6.1778786e-07
6.6950126e-07
7.2538268e-07
7.8575399e-07
8.5096074e-07
9.2137384e-07
9.9739116e-07
1.0794396e-06
1.1679768e-06
1.2634936e-06
1.3665159e-06
1.4776073e-06
1.5973718e-06
1.7264557e-06
1.8655515e-06
2.0154001e-06
2.1767946e-06
2.3505832e-06
2.5376733e-06
2.7390349e-06
2.9557049e-06
3.1887914e-06
3.4394782e-06
3.7090297e-06
3.9987959e-06
4.310218e-06
4.6448336e-06
5.0042835e-06
5.3903174e-06
5.8048013e-06
6.2497239e-06
6.7272046e-06
7.2395014e-06
7.789019e-06
8.378318e-06
9.0101239e-06
9.687337e-06
1.0413043e-05
1.1190523e-05
1.2023267e-05
1.2914982e-05
1.3869609e-05
1.4891335e-05
1.5984605e-05
1.715414e-05
1.8404947e-05
1.9742343e-05
2.1171967e-05
2.2699795e-05
2.4332168e-05
2.6075801e-05
2.7937812e-05
2.9925738e-05
3.2047559e-05
3.4311725e-05
3.6727175e-05
3.9303365e-05
4.2050298e-05
4.4978546e-05
4.8099285e-05
5.1424323e-05
5.496613e-05
5.8737877e-05
6.2753463e-05
6.7027558e-05
7.1575637e-05
7.641402e-05
8.1559911e-05
8.7031444e-05
9.2847724e-05
9.9028872e-05
0.00010559608
0.00011257163
0.00011997902
0.0001278429
0.00013618925
0.00014504534
0.00015443985
0.0001644029
0.00017496611
0.00018616271
0.00019802753
0.00021059714
0.00022390988
0.00023800595
0.00025292748
0.00026871862
0.0002854256
0.0003030968
0.0003217829
0.00034153689
0.0003624142
0.00038447279
0.00040777322
0.00043237879
0.00045835557
0.00048577257
0.00051470181
0.00054521842
0.00057740076
0.0006113305
0.00064709278
0.00068477629
0.00072447337
0.00076628016
0.00081029672
0.0008566271
0.00090537951
0.00095666643
0.0010106047
0.0010673158
0.0011269256
0.001189565
0.0012553696
0.0013244802
0.0013970426
0.001473208
0.0015531329
0.0016369793
0.0017249152
0.001817114
0.0019137552
0.0020150243
0.0021211131
0.0022322196
0.0023485481
0.0024703097
0.002597722
0.0027310094
0.0028704031
0.0030161416
0.0031684701
0.0033276413
0.0034939151
0.0036675588
0.0038488472
0.0040380626
0.0042354951
0.0044414424
0.00465621
0.0048801113
0.0051134677
0.0053566084
0.0056098706
0.0058735996
0.0061481487
0.0064338795
0.0067311612
0.0070403716
0.0073618962
0.0076961288
0.008043471
0.0084043325
0.008779131
0.0091682919
0.0095722485
0.0099914419
0.010426321
0.010877341
0.011344966
0.011829667
0.012331923
0.012852217
0.013391041
0.013948895
0.014526283
0.015123716
0.015741711
0.016380791
0.017041486
0.017724328
0.018429858
0.019158618
0.019911157
0.020688028
0.021489787
0.022316994
0.023170213
0.02405001
0.024956954
0.025891615
0.026854568
0.027846386
0.028867645
0.02991892
0.03100079
0.03211383
0.033258616
0.034435722
0.035645724
0.036889192
0.038166695
0.039478802
0.040826075
0.042209075
0.043628357
0.045084474
0.046577973
0.048109394
0.049679273
0.051288139
0.052936516
0.054624918
0.056353853
0.058123821
0.059935313
0.061788811
0.063684789
0.06562371
0.067606026
0.069632181
0.071702606
0.073817721
0.075977935
0.078183645
0.080435234
0.082733074
0.085077522
0.087468925
0.089907612
0.0923939
0.094928093
0.097510478
0.10014133
0.1028209
0.10554944
0.10832718
0.11115431
0.11403105
0.11695757
0.11993403
0.12296058
0.12603735
0.12916445
0.13234197
0.13557001
0.13884862
0.14217785
0.14555772
0.14898824
0.15246942
0.15600123
0.15958362
0.16321655
0.16689993
0.17063369
0.17441769
0.17825184
0.18213597
0.18606994
0.19005356
0.19408666
0.19816901
0.20230039
0.20648057
0.21070929
0.21498628
0.21931124
0.22368388
0.22810388
0.2325709
0.2370846
0.24164461
0.24625055
0.25090204
0.25559867
0.26034002
0.26512566
0.26995514
0.27482799
0.27974376
0.28470195
0.28970207
0.29474361
0.29982604
0.30494884
0.31011146
0.31531334
0.32055392
0.32583262
0.33114885
0.33650203
0.34189152
0.34731673
0.35277703
0.35827177
0.36380032
0.36936202
0.3749562
0.38058221
0.38623935
0.39192695
0.3976443
0.40339072
0.40916548
0.41496788
0.42079719
0.42665268
0.43253362
0.43843926
0.44436886
0.45032167
0.45629693
0.46229387
0.46831172
0.47434971
0.48040706
0.48648298
0.49257669
0.49868739
0.50481429
0.51095658
0.51711346
0.52328411
0.52946773
0.5356635
0.5418706
0.5480882
0.55431548
0.56055161
0.56679576
0.57304708
0.57930475
0.58556792
0.59183575
0.5981074
0.60438201
0.61065874
0.61693674
0.62321515
0.62949312
0.63576979
0.64204431
0.64831582
0.65458344
0.66084633
0.66710362
0.67335443
0.67959791
0.68583319
0.69205941
0.69827569
0.70448119
0.71067502
0.71685632
0.72302424
0.72917789
0.73531642
0.74143897
0.74754466
0.75363265
0.75970206
0.76575204
0.77178172
0.77779026
0.7837768
0.78974049
0.79568047
0.80159591
0.80748595
0.81334975
0.81918648
0.82499531
0.8307754
0.83652592
0.84224605
0.84793499
0.85359191
0.859216
0.86480647
0.87036253
0.87588337
0.88136823
0.88681632
0.89222687
0.89759913
0.90293235
0.90822577
0.91347867
0.91869031
0.92385999
0.92898699
0.93407063
0.93911021
0.94410506
0.94905452
0.95395795
0.95881471
0.96362417
0.96838572
0.97309878
0.97776276
0.98237709
0.98694122
0.99145463
0.99591679
1.0003272
1.0046854
1.0089909
1.0132433
1.0174421
1.0215869
1.0256774
1.0297132
1.0336938
1.0376191
1.0414887
1.0453024
1.0490597
1.0527606
1.0564049
1.0599922
1.0635225
1.0669956
1.0704115
1.0737699
1.0770709
1.0803143
1.0835003
1.0866287
1.0896997
1.0927132
1.0956695
1.0985685
1.1014104
1.1041954
1.1069237
1.1095954
1.1122109
1.1147703
1.1172741
1.1197224
1.1221157
1.1244542
1.1267384
1.1289688
1.1311456
1.1332695
1.1353408
1.1373601
1.1393278
1.1412446
1.143111
1.1449275
1.1466949
1.1484136
1.1500844
1.1517078
1.1532847
1.1548155
1.1563011
1.1577421
1.1591393
1.1604934
1.1618052
1.1630754
1.1643047
1.165494
1.166644
1.1677556
1.1688294
1.1698664
1.1708672
1.1718328
1.1727638
1.1736612
1.1745257
1.1753581
1.1761593
1.17693
1.177671
1.1783832
1.1790672
1.179724
1.1803542
1.1809586
1.1815381
1.1820933
1.182625
1.183134
1.1836209
1.1840865
1.1845315
1.1849566
1.1853624
1.1857497
1.1861191
1.1864712
1.1868066
1.1871261
1.1874301
1.1877193
1.1879943
1.1882555
1.1885037
1.1887392
1.1889627
1.1891745
1.1893753
1.1895655
1.1897456
1.1899159
1.190077
1.1902292
1.190373
1.1905088
1.1906368
1.1907576
1.1908715
1.1909787
1.1910796
1.1911746
1.1912639
1.1913479
1.1914267
1.1915007
1.1915701
1.1916352
1.1916963
1.1917534
1.1918069
1.1918569
1.1919037
1.1919474
1.1919882
1.1920263
1.1920618
1.1920949
1.1921258
1.1921545
1.1921812
1.192206
1.1922291
1.1922505
1.1922704
1.1922888
1.1923059
1.1923217
1.1923363
1.1923498
1.1923623
1.1923739
1.1923845
1.1923943
1.1924033
1.1924116
1.1924192
1.1924262
1.1924327
1.1924385
1.1924439
1.1924488
1.1924533
1.1924574
1.1924611
1.1924645
1.1924676
1.1924703
1.1924728
1.1924751
1.1924771
1.192479
1.1924806
1.1924821
1.1924835
1.1924847
1.1924858
1.1924868
1.1924877
1.1924887
1.1924897
1.1924906
1.1924915
1.1924926
1.1924938
1.192495
1.1924962
1.1924975
1.1924989
1.1925002
1.1925015
1.1925028
1.1925041
1.1925053
1.1925065
1.1925076
1.1925087
1.1925098
1.1925108
1.1925117
1.1925126
1.1925135
1.1925143
1.192515
1.1925156
1.1925163
1.192517
1.1925175
1.1925181
1.1925189
1.1925196
1.1925202
1.192521
1.1925218
1.1925226
1.1925233
1.1925241
1.192525
1.1925258
1.1925266
1.1925274
1.1925283
1.1925293
1.1925303
1.1925312
1.1925321
1.192533
1.1925338
1.1925347
1.1925355
1.1925362
1.1925369
1.1925375
1.1925381
1.1925388
1.1925393
1.1925397
1.1925402
1.1925409
1.1925416
1.1925424
1.1925429
1.1925435
1.1925442
1.1925449
1.1925455
1.1925461
1.1925467
1.1925473
1.1925478
1.1925483
1.1925489
1.1925494
1.1925498
1.1925502
1.1925508
1.1925514
1.1925519
1.1925522
1.1925526
1.1925532
1.1925538
1.1925544
1.1925549
1.1925555
1.1925561
1.1925567
1.1925572
1.1925578
1.1925582
1.1925587
1.192559
1.1925595
1.1925599
1.1925602
1.1925604
1.1925606
1.1925609
1.1925613
1.1925617
1.1925621
1.1925627
1.1925632
1.1925638
1.1925643
1.1925647
1.1925652
1.1925657
1.1925662
1.1925667
1.1925671
1.1925675
1.1925678
1.1925682
1.1925685
1.1925688
1.192569
1.1925691
1.1925692
1.1925692
1.1925692
1.1925691
1.1925691
1.1925691
1.1925692
1.1925693
1.1925694
1.1925694
1.1925696
1.19257
1.1925705
1.192571
1.1925715
1.192572
1.1925725
1.1925731
1.1925736
1.1925741
1.1925745
1.192575
1.1925753
1.1925757
1.192576
1.1925762
1.1925764
1.1925766
1.1925767
1.1925768
1.1925769
1.192577
1.192577
1.1925771
1.1925771
1.1925771
1.1925771
1.1925772
1.1925772
1.1925773
1.1925774
1.1925774
1.1925774
1.1925774
1.1925773
1.1925772
1.1925772
1.1925771
1.192577
1.1925769
1.1925768
1.1925766
1.1925765
1.1925763
1.1925761
1.192576
1.1925758
1.1925756
1.1925754
1.1925752
1.192575
1.1925748
1.1925746
1.1925743
1.1925742
1.1925741
1.192574
1.192574
1.192574
1.192574
1.1925741
1.1925742
1.1925742
1.1925743
1.1925743
1.1925744
1.1925744
1.1925745
1.1925745
1.1925745
1.1925746
1.1925745
1.1925745
1.1925744
1.1925743
1.1925742
1.1925741
1.192574
1.192574
1.1925739
1.1925738
1.1925738
1.1925737
1.1925736
1.1925736
1.1925736
1.1925735
1.1925735
1.1925735
1.1925735
1.1925735
1.1925735
1.1925735
1.1925734
1.1925734
1.1925734
1.1925733
1.1925732
1.1925732
1.1925731
1.192573
1.1925728
1.1925727
1.1925726
1.1925724
1.1925723
1.1925721
1.1925719
1.1925717
1.1925715
1.1925713
1.1925711
1.1925709
1.1925706
1.1925704
1.1925701
1.1925699
1.1925696
1.1925693
1.192569
1.1925687
1.1925685
1.1925682
1.1925679
1.1925676
1.1925674
1.1925671
1.1925668
1.1925665
1.1925662
1.192566
1.1925658
1.1925655
1.1925653
1.1925651
1.1925649
1.1925647
1.1925645
1.1925643
1.1925641
1.192564
1.1925638
1.1925636
1.1925635
1.1925633
1.1925632
1.192563
1.1925628
1.1925627
1.1925625
1.1925624
1.1925622
1.1925621
1.1925619
1.1925617
1.1925615
1.1925614
1.1925612
1.192561
1.1925608
1.1925606
1.1925604
1.1925602
1.19256
1.1925598
1.1925596
1.1925593
1.1925591
1.1925589
1.1925587
1.1925585
1.1925583
1.192558
1.1925578
1.1925576
1.1925574
1.1925572
1.192557
1.1925568
1.1925566
1.1925564
1.1925562
1.192556
1.1925558
1.1925556
1.1925554
1.1925552
1.1925551
1.1925549
1.1925547
1.1925545
1.1925543
1.1925541
1.1925539
1.1925537
1.1925535
1.1925533
1.1925531
1.1925529
1.1925527
1.1925525
1.1925523
1.1925521
1.1925519
1.1925517
1.1925515
1.1925513
1.1925511
1.1925509
1.1925507
1.1925505
1.1925504
1.1925502
1.19255
1.1925498
1.1925496
1.1925494
1.1925493
1.1925491
1.1925489
1.1925488
1.1925486
1.1925485
1.1925483
1.1925482
1.192548
1.1925479
1.1925477
1.1925476
1.1925474
1.1925473
1.1925471
1.192547
1.1925468
1.1925467
1.1925465
1.1925463
1.1925462
1.192546
1.1925459
1.1925457
1.1925456
1.1925454
1.1925452
1.1925451
1.1925449
1.1925447
1.1925446
1.1925444
1.1925442
1.1925441
1.1925439
1.1925437
1.1925436
1.1925434
1.1925432
1.1925431
1.1925429
1.1925428
1.1925426
1.1925425
1.1925423
1.1925422
1.192542
1.1925419
1.1925417
1.1925416
1.1925414
1.1925413
1.1925412
1.192541
1.1925409
1.1925408
1.1925406
1.1925405
1.1925404
1.1925402
1.1925401
1.19254
1.1925398
1.1925397
1.1925396
1.1925394
1.1925393
1.1925392
1.192539
1.1925389
1.1925388
1.1925386
1.1925385
1.1925384
1.1925382
1.1925381
1.192538
1.1925378
1.1925377
1.1925375
1.1925374
1.1925372
1.1925371
1.1925369
1.1925368
1.1925366
1.1925365
1.1925363
1.1925362
1.192536
1.1925358
1.1925357
1.1925355
1.1925354
1.1925352
1.1925351
1.1925349
1.1925348
1.1925346
1.1925345
1.1925343
1.1925342
1.192534
1.1925339
1.1925337
1.1925335
1.1925334
1.1925332
1.1925331
1.1925329
1.1925328
1.1925327
1.1925325
1.1925324
1.1925322
1.1925321
1.192532
1.1925318
1.1925317
1.1925315
1.1925314
1.1925312
1.1925311
1.1925309
1.1925308
1.1925306
1.1925305
1.1925303
1.1925302
1.19253
1.1925299
1.1925297
1.1925296
1.1925294
1.1925293
1.1925291
1.192529
1.1925288
1.1925286
1.1925285
1.1925283
1.1925282
1.192528
1.1925278
1.1925277
1.1925275
1.1925273
1.1925272
1.192527
1.1925268
1.1925267
1.1925265
1.1925263
1.1925262
1.192526
1.1925259
1.1925257
1.1925255
1.1925253
1.1925252
1.192525
1.1925249
1.1925247
1.1925245
1.1925244
1.1925242
1.1925241
1.1925239
1.1925238
1.1925236
1.1925235
1.1925233
1.1925232
1.192523
1.1925229
1.1925227
1.1925226
1.1925224
1.1925223
1.1925221
1.192522
1.1925219
1.1925217
1.1925216
1.1925215
1.1925213
1.1925212
1.192521
1.1925209
1.1925207
1.1925206
1.1925204
1.1925203
1.1925201
1.19252
1.1925198
1.1925197
1.1925196
1.1925194
1.1925193
1.1925191
1.192519
1.1925188
1.1925187
1.1925185
1.1925184
1.1925183
1.1925181
1.192518
1.1925179
1.1925177
1.1925176
1.1925175
1.1925173
1.1925172
1.1925171
1.1925169
1.1925168
1.1925167
1.1925165
1.1925164
1.1925162
1.1925161
1.192516
1.1925159
1.1925157
1.1925156
1.1925155
1.1925154
1.1925152
1.1925151
1.192515
1.1925149
1.1925147
1.1925146
1.1925145
1.1925143
1.1925142
1.1925141
1.192514
1.1925139
1.1925137
1.1925136
1.1925135
1.1925134
1.1925133
1.1925132
1.192513
1.1925129
1.1925128
1.1925127
1.1925125
1.1925124
1.1925123
1.1925122
1.1925121
1.1925119
1.1925118
1.1925117
1.1925115
1.1925114
1.1925113
1.1925112
1.192511
1.1925109
1.1925108
1.1925107
1.1925105
1.1925104
1.1925103
1.1925102
1.1925101
1.1925099
1.1925098
1.1925097
1.1925095
1.1925094
1.1925093
1.1925091
1.192509
1.1925089
1.1925087
1.1925086
1.1925085
1.1925083
1.1925082
1.192508
1.1925079
1.1925077
1.1925076
1.1925075
1.1925073
1.1925072
1.192507
1.1925069
1.1925067
1.1925066
1.1925064
1.1925063
1.1925061
1.192506
1.1925058
1.1925057
1.1925055
1.1925054
1.1925052
1.1925051
1.1925049
1.1925048
1.1925046
1.1925045
1.1925043
1.1925042
1.192504
1.1925038
1.1925037
1.1925035
1.1925034
1.1925032
1.1925031
1.192503
1.1925028
1.1925027
1.1925025
1.1925024
1.1925022
1.1925021
1.1925019
1.1925018
1.1925017
1.1925015
1.1925014
1.1925012
1.1925011
1.192501
1.1925009
1.1925007
1.1925006
1.1925005
1.1925003
1.1925002
1.1925001
1.1924999
1.1924998
1.1924997
1.1924995
1.1924994
1.1924992
1.1924991
1.192499
1.1924989
1.1924987
1.1924986
1.1924985
1.1924983
1.1924982
1.192498
1.1924979
1.1924978
1.1924976
1.1924975
1.1924973
1.1924972
1.192497
1.1924969
1.1924968
1.1924966
1.1924965
1.1924963
1.1924962
1.192496
1.1924959
1.1924957
1.1924955
1.1924953
1.1924952
1.192495
1.1924948
1.1924947
1.1924945
1.1924944
1.1924942
1.1924941
1.1924939
1.1924937
1.1924935
1.1924933
1.1924931
1.1924929
1.1924928
1.1924926
1.1924925
1.1924923
1.1924921
1.1924919
1.1924917
1.1924915
1.1924913
1.1924911
1.192491
1.1924908
1.1924906
1.1924904
1.1924902
1.1924901
1.1924899
1.1924897
1.1924895
1.1924893
1.192489
1.1924888
1.1924886
1.1924884
1.1924882
1.192488
1.1924879
1.1924877
1.1924875
1.1924872
1.192487
1.1924868
1.1924866
1.1924864
1.1924862
1.192486
1.1924858
1.1924856
1.1924854
1.1924852
1.192485
1.1924848
1.1924846
1.1924844
1.1924841
1.1924839
1.1924837
1.1924835
1.1924833
1.1924831
1.1924829
1.1924827
1.1924824
1.1924822
1.192482
1.1924818
1.1924815
1.1924813
1.1924811
1.1924809
1.1924807
1.1924805
1.1924803
1.1924801
1.1924799
1.1924797
1.1924795
1.1924793
1.192479
1.1924788
1.1924786
1.1924783
1.1924781
1.1924779
1.1924777
1.1924775
1.1924773
1.192477
1.1924768
1.1924766
1.1924764
1.1924761
1.1924759
1.1924757
1.1924754
1.1924752
1.1924749
1.1924747
1.1924745
1.1924742
1.192474
1.1924738
1.1924736
1.1924733
1.1924731
1.1924728
1.1924726
1.1924723
1.192472
1.1924718
1.1924715
1.1924713
1.192471
1.1924708
1.1924705
1.1924703
1.19247
1.1924697
1.1924695
1.1924692
1.1924689
1.1924687
1.1924684
1.1924681
1.1924678
1.1924675
1.1924672
1.1924669
1.1924666
1.1924663
1.192466
1.1924657
1.1924654
1.1924651
1.1924648
1.1924644
1.1924641
1.1924638
1.1924635
1.1924632
1.1924629
1.1924625
1.1924622
1.1924619
1.1924616
1.1924612
1.1924609
1.1924605
1.1924602
1.1924598
1.1924595
1.1924591
1.1924588
1.1924584
1.1924581
1.1924577
1.1924573
1.1924569
1.1924565
1.192456
1.1924556
1.1924552
1.1924548
1.1924544
1.192454
1.1924536