-1.25 	300 	0.000260526525023042 	101325.0000000006
-1.247497497497497 	299.9890490899725 	0.01323145896699794 	101318.0958767481
-1.244994994994995 	299.9886353243443 	0.03426977867600949 	101311.7484457696
-1.242492492492492 	299.9832908872497 	0.04913618854536762 	101305.2033433334
-1.23998998998999 	299.9780743561614 	0.06331466169592043 	101299.0793255213
-1.237487487487487 	299.973294879664 	0.07720498690929015 	101293.4322292657
-1.234984984984985 	299.9690334934485 	0.08950012579478953 	101288.3956074145
-1.232482482482482 	299.9653297222467 	0.1002393109549693 	101284.0181257691
-1.22997997997998 	299.9622557291707 	0.1091322997831825 	101280.384941027
-1.227477477477477 	299.9599469012006 	0.1158475484079984 	101277.6562391607
-1.224974974974975 	299.9583653810387 	0.1203614934140949 	101275.7870335248
-1.222472472472472 	299.9575032881143 	0.1228170007627361 	101274.7682015701
-1.21996996996997 	299.9574249301656 	0.1230539332014929 	101274.675714773
-1.217467467467467 	299.9581420129007 	0.1209881579410347 	101275.523072235
-1.214964964964965 	299.9596551533014 	0.1166237730052433 	101277.311217522
-1.212462462462462 	299.9619562170556 	0.1099201924290857 	101280.030527836
-1.20995995995996 	299.9649928309595 	0.1011343828551685 	101283.6192235121
-1.207457457457457 	299.9686623801751 	0.09061540752383407 	101287.9561466398
-1.204954954954955 	299.9728424603418 	0.07854874201552589 	101292.8965285454
-1.202452452452452 	299.9774994060235 	0.06506672438654108 	101298.4006817409
-1.19994994994995 	299.9825875422165 	0.05032488997408526 	101304.4148518076
-1.197447447447447 	299.9879883944812 	0.03466963841060944 	101310.798852743
-1.194944944944945 	299.9935858338449 	0.01848891577393735 	101317.4155817904
-1.192442442442442 	299.999272073499 	0.008162005639345649 	101324.1376961149
-1.18993993993994 	300.0049746634714 	0.01444610306036776 	101330.879278262
-1.187437437437437 	300.010601998221 	0.03066854105334776 	101337.5323588796
-1.184934934934935 	300.0160621382951 	0.0464688775724363 	101343.9879871286
-1.182432432432432 	300.0212675999912 	0.06152390114787339 	101350.1428228532
-1.17992992992993 	300.0260939510073 	0.0754794937563666 	101355.8497878868
-1.177427427427427 	300.0304226894241 	0.08798811785454563 	101360.9683551903
-1.174924924924925 	300.0341719659711 	0.09880388783037394 	101365.4020164952
-1.172422422422422 	300.0372733782334 	0.1077939895060868 	101369.0695811912
-1.16991991991992 	300.039685740835 	0.1148002522876503 	101371.9224562733
-1.167417417417417 	300.0413986961097 	0.1197352897470843 	101373.9483787783
-1.164914914914915 	300.0423767292627 	0.1224961949212989 	101375.1049725405
-1.162412412412412 	300.0425652305001 	0.1229981793910366 	101375.3279466926
-1.15990990990991 	300.0419420784781 	0.1212159827118899 	101374.5910024374
-1.157407407407407 	300.0405127212354 	0.1171077845424814 	101372.9008087392
-1.154904904904904 	300.038307639578 	0.1107577345786153 	101370.2933314293
-1.152402402402403 	300.0353928108891 	0.1023113729310013 	101366.8463387545
-1.1498998998999 	300.0318381694788 	0.0920189976265235 	101362.6429716961
-1.147397397397397 	300.027714175464 	0.08014230153282159 	101357.7663965042
-1.144894894894895 	300.0230971152548 	0.06679393475285852 	101352.3070734727
-1.142392392392392 	300.0180618479681 	0.05220663660348429 	101346.3535381876
-1.13988988988989 	300.0126988327341 	0.03666909705710623 	101340.0125344437
-1.137387387387387 	300.0071208870409 	0.02051299753042589 	101333.4178324596
-1.134884884884885 	300.0014269996254 	0.007781600887086352 	101326.686262561
-1.132382382382382 	299.9957046294932 	0.01242885060697612 	101319.9214492342
-1.12987987987988 	299.9900297634222 	0.02885938089470161 	101313.2131517412
-1.127377377377377 	299.9844927355497 	0.04486876023301156 	101306.6679041249
-1.124874874874875 	299.9792232933501 	0.06008028067173207 	101300.4393469544
-1.122372372372372 	299.9743618490921 	0.07410519745991583 	101294.6931732023
-1.11986986986987 	299.969997432417 	0.08671348410402727 	101289.5348005975
-1.117367367367367 	299.9662054393316 	0.0977122322676673 	101285.0531547734
-1.114864864864865 	299.9630318439648 	0.1069391418971399 	101281.3023213336
-1.112362362362362 	299.9605090425794 	0.114221745948333 	101278.3207953355
-1.10985985985986 	299.9586985474981 	0.1193813437672079 	101276.1809568195
-1.107357357357357 	299.9576707572367 	0.122350493699823 	101274.9662870677
-1.104854854854855 	299.9574430183161 	0.123000716594859 	101274.6971911345
-1.102352352352353 	299.9580330398258 	0.1213071162246076 	101275.3943522395
-1.09984984984985 	299.9594151399813 	0.1173325210897203 	101277.027646363
-1.097347347347347 	299.9615393980372 	0.1111385678505267 	101279.5379679673
-1.094844844844845 	299.9643602278844 	0.1029700939894994 	101282.8716569212
-1.092342342342342 	299.9678331635433 	0.09298406564394369 	101286.9761836111
-1.08983983983984 	299.971876539821 	0.08128864753331977 	101291.7549255824
-1.087337337337337 	299.9764502097777 	0.06808070258145867 	101297.1606726299
-1.084834834834835 	299.981462991743 	0.05356800760116952 	101303.0856572762
-1.082332332332332 	299.9867986597816 	0.03812338460793174 	101309.3925536052
-1.07982982982983 	299.9923376346499 	0.02212588909853561 	101315.9401749865
-1.077327327327327 	299.9979642358914 	0.007230681162874677 	101322.5916184667
-1.074824824824825 	300.0036363616114 	0.01056485524097735 	101329.2971643487
-1.072322322322323 	300.0092838933044 	0.02685178347929976 	101335.9740342951
-1.06981981981982 	300.0147789696503 	0.04276121867505493 	101342.470884893
-1.067317317317317 	300.02000424337 	0.05789028674067532 	101348.6491601484
-1.064814814814815 	300.0248607142624 	0.07194537566705933 	101354.3916027844
-1.062312312312312 	300.0292693557136 	0.08467329190222839 	101359.6046108037
-1.05980980980981 	300.0331611816401 	0.09588873791090145 	101364.2068215001
-1.057307307307307 	300.0364601979565 	0.1054326364531913 	101368.1079845019
-1.054804804804805 	300.0390967690489 	0.1130547974114915 	101371.2260364669
-1.052302302302302 	300.0410170778196 	0.1185704091080245 	101373.4971329831
-1.0497997997998 	300.0421640793163 	0.121835984105815 	101374.8535485673
-1.047297297297297 	300.0425083233048 	0.1228235506655871 	101375.2607422669
-1.044794794794795 	300.042056245507 	0.1215567736016533 	101374.7260623894
-1.042292292292292 	300.0408222669639 	0.118011636464735 	101373.2669335482
-1.03978978978979 	300.0388319278258 	0.1122646043356253 	101370.9133736631
-1.037287287287287 	300.0361247054246 	0.1043906013400133 	101367.7118845865
-1.034784784784785 	300.0327350345639 	0.09458264996245315 	101363.7035919288
-1.032282282282283 	300.0287364982842 	0.08306815812609063 	101358.9753057819
-1.02977977977978 	300.024223242725 	0.06999894906645382 	101353.6386933165
-1.027277277277277 	300.0192771965066 	0.05566613768174951 	101347.7905515418
-1.024774774774775 	300.0139812699878 	0.04032699026448693 	101341.528836843
-1.022272272272272 	300.0084373365655 	0.02428543458437806 	101334.9742828218
-1.01976976976977 	300.0027366414459 	0.007874962939613877 	101328.2345692748
-1.017267267267267 	299.996990773556 	0.00966175382524804 	101321.4419077812
-1.014764764764765 	299.9912869198209 	0.02524487150482273 	101314.6992421059
-1.012262262262262 	299.9857280323793 	0.0413201216377965 	101308.1281250519
-1.00975975975976 	299.9804356713742 	0.05661750710069968 	101301.8724131412
-1.007257257257257 	299.9755169299088 	0.07082067209086139 	101296.0584793265
-1.004754754754755 	299.9710424573767 	0.08374907652003898 	101290.7699469018
-1.002252252252252 	299.9670974939469 	0.09518642037511373 	101286.1074666533
-0.9997497497497498 	299.9637466155577 	0.1048909262060582 	101282.1471244715
-0.9972472472472473 	299.9610620537622 	0.1126244326451522 	101278.974386428
-0.9947447447447449 	299.9591151441491 	0.1181914425174584 	101276.6733968109
-0.9922422422422421 	299.95795011196 	0.1215621111746793 	101275.2964341405
-0.9897397397397399 	299.9575634742382 	0.1226639643411124 	101274.8395498299
-0.9872372372372376 	299.9579738484215 	0.1214986316559678 	101275.3245008187
-0.9847347347347346 	299.9591634422821 	0.1180792727976663 	101276.7302075222
-0.9822322322322323 	299.9611102902294 	0.1124158226210509 	101279.0309490216
-0.9797297297297296 	299.963771818849 	0.1047258085686933 	101282.1762608504
-0.9772272272272275 	299.9670907295187 	0.09514807109532568 	101286.0987185862
-0.9747247247247248 	299.970991617091 	0.08384423574691255 	101290.7091359891
-0.9722222222222224 	299.9754288642991 	0.07102317211003618 	101295.9534981697
-0.9697197197197196 	299.980318404523 	0.05685692401711807 	101301.7328278562
-0.9672172172172175 	299.9855675035301 	0.04166645071511374 	101307.9372756914
-0.9647147147147147 	299.991059458769 	0.02580554057897494 	101314.4292250358
-0.9622122122122124 	299.996671795187 	0.009569568531760117 	101321.0638210232
-0.9597097097097099 	300.0023272362243 	0.009271764620657798 	101327.7495086948
-0.9572072072072073 	300.0079450554869 	0.02296419279080288 	101334.3912105427
-0.9547047047047047 	300.0134258002169 	0.03884395189663487 	101340.8710184421
-0.9522022022022023 	300.0186780605931 	0.0540459553319059 	101347.0811056939
-0.9496996996996998 	300.023611170004 	0.06832895880368374 	101352.9141448403
-0.9471971971971973 	300.028142151747 	0.08140995577188982 	101358.2717461821
-0.9446946946946947 	300.032179097985 	0.09305529327989158 	101363.0455070431
-0.9421921921921923 	300.0356284550189 	0.1030475847374247 	101367.1244438594
-0.93968968968969 	300.0384205644598 	0.1111111879524466 	101370.4263867166
-0.9371871871871872 	300.0405076393548 	0.1171011237222853 	101372.8946789202
-0.9346846846846848 	300.041838455508 	0.1209045175827951 	101374.4684867422
-0.9321821821821823 	300.0423892432012 	0.1224840657055065 	101375.1199498193
-0.9296796796796799 	300.0421484950621 	0.1218168666448472 	101374.8351789082
-0.9271771771771771 	300.0411158330429 	0.1188529506814532 	101373.6140968696
-0.9246746746746748 	300.0393144956133 	0.1136572340978367 	101371.4840479887
-0.9221721721721724 	300.0367853647964 	0.106311599813343 	101368.4931692023
-0.9196696696696698 	300.0335623467237 	0.09701129644272044 	101364.6819186792
-0.9171671671671672 	300.0297198970221 	0.08593143480802322 	101360.1381941597
-0.9146646646646649 	300.0253293668717 	0.07320295796500549 	101354.9466262283
-0.9121621621621623 	300.0204649970948 	0.05910950884337216 	101349.1950187158
-0.9096596596596597 	300.0152173844714 	0.0439112469270428 	101342.9903789193
-0.9071571571571573 	300.0097015865634 	0.02795890658557142 	101336.4689927244
-0.9046546546546547 	300.004018455864 	0.01161133244833147 	101329.7500150326
-0.9021521521521524 	299.9982995882111 	0.009027586232659316 	101322.9891734199
-0.8996496496496498 	299.9926079764811 	0.02141544697923749 	101316.2609076658
-0.8971471471471473 	299.9870245213174 	0.03755196814598043 	101309.6606963876
-0.894644644644645 	299.9816645038111 	0.05304893781245373 	101303.3249164239
-0.892142142142142 	299.9766387723864 	0.06755671265539016 	101297.3845009641
-0.8896396396396397 	299.9720392379135 	0.08085310928383285 	101291.9481044274
-0.8871371371371374 	299.9679674858033 	0.09265015474657459 	101287.1357255896
-0.8846346346346349 	299.964487353834 	0.102720351029044 	101283.022612622
-0.8821321321321324 	299.9616692664791 	0.1108501139880235 	101279.6920273468
-0.8796296296296297 	299.9595745473055 	0.1168637139030276 	101277.216373453
-0.8771271271271271 	299.9582410078979 	0.1207208011580698 	101275.6402743577
-0.8746246246246248 	299.957681300666 	0.1223073324545238 	101274.9788464027
-0.8721221221221224 	299.9579224876199 	0.1216352033980304 	101275.2638451357
-0.8696196196196196 	299.9589424058416 	0.1187035847382886 	101276.4690297879
-0.8671171171171175 	299.9607193293105 	0.1135409835598527 	101278.5689484351
-0.8646146146146148 	299.9632109303279 	0.1063587625369175 	101281.5134600819
-0.8621121121121121 	299.966364174611 	0.09723857932879643 	101285.2401079592
-0.8596096096096097 	299.9701232375097 	0.08635226833762584 	101289.6828283576
-0.857107107107107 	299.9744495022142 	0.07387023987316466 	101294.7959744181
-0.8546046046046049 	299.9792468217937 	0.05996259854322827 	101300.4662607947
-0.8521021021021022 	299.9844182447187 	0.045001320930076 	101306.5788584872
-0.8495995995995997 	299.9898434166935 	0.02932230108159571 	101312.9918167905
-0.8470970970970974 	299.9953990742584 	0.01326288748048654 	101319.5593053879
-0.8445945945945946 	300.0010020488271 	0.00817753676728911 	101326.1828749656
-0.8420920920920922 	300.0065876267941 	0.01905445638549382 	101332.7864131515
-0.8395895895895897 	300.0120759599378 	0.03495147929102444 	101339.2751179596
-0.8370870870870872 	300.017373841759 	0.05028358196586567 	101345.539101941
-0.8345845845845846 	300.0223818247115 	0.06477352363496997 	101351.4605835703
-0.8320820820820823 	300.0270102294824 	0.07812830661220957 	101356.9332850445
-0.8295795795795798 	300.0311611565133 	0.09011871570685669 	101361.8418276289
-0.8270770770770772 	300.0347469404259 	0.1005168878203256 	101366.0820373133
-0.8245745745745746 	300.0377021936494 	0.1090439585600076 	101369.5769201588
-0.8220720720720721 	300.0399678923962 	0.1155448932965586 	101372.2564307586
-0.8195695695695699 	300.0414833191745 	0.119880744710172 	101374.0484931034
-0.817067067067067 	300.0422229405458 	0.1220095709637911 	101374.9233343115
-0.8145645645645651 	300.0421743152245 	0.1219100216339923 	101374.8657325533
-0.8120620620620621 	300.0413437554388 	0.1195274710879186 	101373.8836811567
-0.8095595595595597 	300.0397519465045 	0.1149198293882085 	101372.0014173771
-0.8070570570570572 	300.037419565983 	0.1081400824316222 	101369.2431392677
-0.8045545545545546 	300.0343695498561 	0.09935053505773216 	101365.6365118992
-0.8020520520520523 	300.0306747817681 	0.08869372792583871 	101361.2673489848
-0.7995495495495494 	300.0264033949901 	0.07631124861835613 	101356.2166746016
-0.7970470470470474 	300.0216377661915 	0.06250653144968887 	101350.581766717
-0.7945445445445446 	300.0164733380852 	0.04753643391084807 	101344.4753419685
-0.7920420420420423 	300.0110154019712 	0.03176795483877373 	101338.0223797319
-0.7895395395395397 	300.0053679877364 	0.01552248759318012 	101331.3455025308
-0.7870370370370371 	299.999661517679 	0.007534176074252321 	101324.5992972876
-0.7845345345345348 	299.9939480295073 	0.01754304972801472 	101317.8451017134
-0.7820320320320323 	299.9883165586075 	0.03381332927606061 	101311.1879767634
-0.7795295295295296 	299.9828898351873 	0.04949942766029509 	101304.7733662016
-0.7770270270270272 	299.9777790268606 	0.06424521591125759 	101298.7322799493
-0.7745245245245247 	299.9730828086169 	0.0778354587149646 	101293.1816075382
-0.7720220220220222 	299.9688976037429 	0.08997494477687704 	101288.2351026318
-0.7695195195195199 	299.9652833856916 	0.1004273530090348 	101283.9634137227
-0.767017017017017 	299.9623210553159 	0.1089654272955801 	101280.4624191355
-0.7645145145145147 	299.9600792166361 	0.1154131274269726 	101277.8128375671
-0.7620120120120122 	299.9585853077139 	0.1197307139049156 	101276.0472609393
-0.7595095095095097 	299.957855343656 	0.1218110888986182 	101275.1846033799
-0.7570070070070072 	299.9579118974511 	0.1216726749459207 	101275.2513412074
-0.7545045045045048 	299.9587404740994 	0.1192688197368046 	101276.2305005771
-0.7520020020020022 	299.9603389272322 	0.1146166422913189 	101278.1194144109
-0.7494994994994997 	299.9626754336975 	0.1079131362730668 	101280.8806869493
-0.7469969969969972 	299.965684369545 	0.09920322125510052 	101284.4367570696
-0.7444944944944945 	299.9693159983885 	0.08870224381226872 	101288.7287616845
-0.7419919919919924 	299.9735219328066 	0.07657093226779005 	101293.6997620107
-0.7394894894894897 	299.9782036013539 	0.06297435643266008 	101299.2332009801
-0.7369869869869872 	299.9832723245369 	0.04831286024874608 	101305.224417293
-0.7344844844844846 	299.9886201321173 	0.03286129038127491 	101311.5458704729
-0.7319819819819822 	299.9941148350221 	0.01697001979363301 	101318.0411386981
-0.7294794794794797 	299.99967832429 	0.006260930603620277 	101324.6180796138
-0.7269769769769773 	300.0052362257543 	0.01517693254581508 	101331.1887161687
-0.7244744744744747 	300.0107276457857 	0.03106551893831298 	101337.681057052
-0.721971971971972 	300.0160631042294 	0.04649726911829781 	101343.9894231554
-0.7194694694694695 	300.0211398291404 	0.061175947135591 	101349.9920177822
-0.7169669669669674 	300.0258634006381 	0.07481195844035926 	101355.5772910557
-0.7144644644644647 	300.0301324049111 	0.08715592475170171 	101360.6253261099
-0.711961961961962 	300.0338550137883 	0.09791880412213866 	101365.0273600853
-0.7094594594594597 	300.0369602474149 	0.106881852981028 	101368.6995991938
-0.7069569569569573 	300.0393863320054 	0.1138561767665306 	101371.5686598623
-0.7044544544544545 	300.0410806428471 	0.1187369248075934 	101373.5723460422
-0.7019519519519523 	300.0420196746117 	0.1214561838704515 	101374.6829524105
-0.6994494494494495 	300.0421831782398 	0.1219358911944547 	101374.8762809454
-0.6969469469469471 	300.0415644530468 	0.1201607341502272 	101374.1447279407
-0.6944444444444446 	300.0401711793161 	0.1161155434100988 	101372.4971721964
-0.6919419419419421 	300.0380157185633 	0.1098703997171778 	101369.9481792175
-0.6894394394394396 	300.0351280255677 	0.1015529713185282 	101366.5334353073
-0.6869369369369374 	300.0315782670175 	0.0912805954241693 	101362.3357725962
-0.6844344344344344 	300.02743143 	0.07926853028380219 	101357.4323514683
-0.6819319319319321 	300.0227700248881 	0.06577345288275127 	101351.9205656151
-0.6794294294294296 	300.0176902879431 	0.05106957785119509 	101345.9142680866
-0.6769269269269272 	300.0122918198022 	0.03549344071289439 	101339.5315061409
-0.6744244244244245 	300.00668233262 	0.01932345567870811 	101332.8994484627
-0.6719219219219222 	300.0009878910623 	0.005197868726694393 	101326.1674086717
-0.6694194194194195 	299.9952665384581 	0.01372059419722975 	101319.4037844526
-0.6669169169169172 	299.9896069954786 	0.03006327486623499 	101312.7134328463
-0.6644144144144146 	299.9841290529957 	0.04589994191418372 	101306.2381857249
-0.661911911911912 	299.9789394954614 	0.06089780866004007 	101300.1039920427
-0.6594094094094097 	299.9741478091601 	0.07476481186889797 	101294.4404577338
-0.656906906906907 	299.9698470318675 	0.08722182456477749 	101289.3572688813
-0.6544044044044046 	299.9661086353265 	0.09800904856829838 	101284.9387931178
-0.6519019019019021 	299.9630147342662 	0.1069272264352003 	101281.2822705106
-0.6493993993993996 	299.960628080664 	0.1138285063253072 	101278.4615614014
-0.6468968968968971 	299.9589673959335 	0.118603984371146 	101276.4989228199
-0.6443943943943946 	299.9580657545297 	0.1211918452899791 	101275.4333156562
-0.6418918918918921 	299.9579407648581 	0.1215667446950278 	101275.285511237
-0.6393893893893897 	299.9585915712305 	0.1196750964378818 	101276.0545824908
-0.6368868868868871 	299.9600191241554 	0.1155439260015952 	101277.7415467956
-0.6343843843843846 	299.9621946254562 	0.1093015722731476 	101280.3125537051
-0.6318818818818821 	299.9650443557966 	0.1010219946831225 	101283.6804279791
-0.6293793793793795 	299.9685378254215 	0.09093976094060865 	101287.8091098327
-0.6268768768768773 	299.9726044165741 	0.07920636714781992 	101292.6153788446
-0.6243743743743745 	299.9771555265576 	0.06599208029419201 	101297.9947138503
-0.6218718718718721 	299.9821054138814 	0.05166821563449656 	101303.8455665385
-0.6193693693693696 	299.9873661652027 	0.03647656520440654 	101310.0637609011
-0.6168668668668671 	299.9927997746893 	0.02076472539070109 	101316.4866164677
-0.6143643643643645 	299.9983406180238 	0.004812606451695668 	101323.0367071299
-0.6118618618618621 	300.0038757007868 	0.0116742047058203 	101329.580297031
-0.6093593593593596 	300.0093736453389 	0.02716269547419449 	101336.0803041359
-0.6068568568568571 	300.0147456654515 	0.04270130842006979 	101342.431820581
-0.6043543543543546 	300.0198827400649 	0.05755694047733156 	101348.5056667512
-0.6018518518518521 	300.0246862168635 	0.07142766324384625 	101354.1853851488
-0.5993493493493496 	300.0290546119334 	0.08405703783091147 	101359.3508805092
-0.5968468468468471 	300.0329006417141 	0.09516888138621919 	101363.8988581985
-0.5943443443443446 	300.0361559352958 	0.1045527374654873 	101367.748519918
-0.591841841841842 	300.0387530522847 	0.1120244803560794 	101370.8197584963
-0.5893393393393397 	300.0406375946283 	0.1174637608552614 	101373.0484415463
-0.5868368368368371 	300.0417787681749 	0.1207693928069971 	101374.3980621125
-0.5843343343343346 	300.0421470266111 	0.1218403988315686 	101374.8335980393
-0.5818318318318321 	300.0417297901317 	0.1206501295658855 	101374.3403027683
-0.5793293293293297 	300.040530582763 	0.1171629381662354 	101372.9221782235
-0.5768268268268271 	300.0385553950271 	0.1114471604889588 	101370.5864221077
-0.5743243243243245 	300.0358374620046 	0.1036113530235168 	101367.3723736981
-0.5718218218218221 	300.032440541514 	0.09376000495882605 	101363.3554651663
-0.5693193193193196 	300.0284252462767 	0.08213283499169116 	101358.6075743403
-0.5668168168168171 	300.0238749525232 	0.0689615438580653 	101353.2270441597
-0.5643143143143147 	300.01888753602 	0.05452537376125657 	101347.3299065289
-0.5618118118118121 	300.0135561832961 	0.03915204598780123 	101341.0263907881
-0.5593093093093094 	300.007990751341 	0.02308903964648248 	101334.4464032297
-0.5568068068068072 	300.0023109070987 	0.006644652687394733 	101327.7315632844
-0.5543043043043046 	299.9965837346132 	0.011233835883115 	101320.9609120677
-0.551801801801802 	299.9908968926483 	0.02634331597163105 	101314.2382755356
-0.5492992992992995 	299.9853688484839 	0.04233109139777672 	101307.7036896151
-0.5467967967967969 	299.9801078875194 	0.05755062511862687 	101301.4850967421
-0.5442942942942947 	299.9752288521073 	0.07165807686112928 	101295.7182743685
-0.5417917917917919 	299.9708204303421 	0.0844096966616084 	101290.5077531952
-0.5392892892892895 	299.9669634558147 	0.09553842158667275 	101285.9491495243
-0.536786786786787 	299.9637353866207 	0.1048570861608033 	101282.1339842296
-0.5342842842842846 	299.9611925809094 	0.1122198019644944 	101279.1287999846
-0.531781781781782 	299.9593621360742 	0.1174652105631911 	101276.9655343186
-0.5292792792792794 	299.9582900157637 	0.1205595297764154 	101275.6983708678
-0.526776776776777 	299.9579899682443 	0.1214324478752715 	101275.3437287024
-0.5242742742742745 	299.9584728006048 	0.120037325118657 	101275.9142466908
-0.521771771771772 	299.9597320352255 	0.1164183059169468 	101277.4023621353
-0.5192692692692695 	299.9617405733143 	0.1106186405675404 	101279.7760208457
-0.516766766766767 	299.9644399700874 	0.1027754988078812 	101282.966189645
-0.5142642642642645 	299.9678012972337 	0.09308612663740021 	101286.9386860709
-0.511761761761762 	299.9717377628355 	0.08170692778197319 	101291.5910846613
-0.5092592592592596 	299.9761719206311 	0.06886692758179466 	101296.8319682391
-0.506756756756757 	299.9810122670236 	0.05484932586255724 	101302.5531353632
-0.5042542542542544 	299.9861739132718 	0.03993089354532826 	101308.6544009041
-0.5017517517517521 	299.991538776932 	0.02442178085652515 	101314.9960117644
-0.4992492492492494 	299.9970419036259 	0.008575662825936404 	101321.5014304595
-0.496746746746747 	300.002553071191 	0.009563460690946561 	101328.0167210703
-0.4942442442442445 	300.0080522820122 	0.02333809017937271 	101334.5181252498
-0.4917417417417421 	300.0134457742847 	0.03892596280094374 	101340.8949756177
-0.4892392392392395 	300.0186257365114 	0.05389706645397122 	101347.0194270839
-0.486736736736737 	300.0234942772814 	0.06796647851194736 	101352.7760223105
-0.4842342342342345 	300.027954904468 	0.08086399998295141 	101358.0505423781
-0.481731731731732 	300.031924402741 	0.09233477282935068 	101362.7444701808
-0.4792292292292296 	300.0353292122259 	0.1021451792407918 	101366.7709333303
-0.4767267267267268 	300.0380910637091 	0.1101005519871947 	101370.0369199325
-0.4742242242242246 	300.0401539781399 	0.1160660736869525 	101372.4765387017
-0.471721721721722 	300.0414824189369 	0.1199100860313281 	101374.0476294486
-0.4692192192192195 	300.0420454531058 	0.1215425651732194 	101374.7135272735
-0.4667167167167169 	300.0418289989562 	0.1209227448747405 	101374.457676263
-0.4642142142142145 	300.0408305392059 	0.1180081045878094 	101373.2768938953
-0.461711711711712 	300.039047856672 	0.1128627650480792 	101371.1688163075
-0.4592092092092094 	300.0365155758134 	0.1055546126082938 	101368.1743105015
-0.456706706706707 	300.033286646774 	0.09618698303585085 	101364.3560308175
-0.4542042042042045 	300.0294173422224 	0.08499075155057627 	101359.7807604542
-0.451701701701702 	300.0249885744256 	0.07217404830336314 	101354.5438327552
-0.4491991991991995 	300.0200958332871 	0.05802310116505849 	101348.7586119877
-0.4466966966966969 	300.0148281212223 	0.04284124661220801 	101342.5302862338
-0.4441941941941945 	300.0093036067182 	0.02688059624008174 	101335.9986069777
-0.441691691691692 	300.0036338939934 	0.01047747538111042 	101329.2956839823
-0.4391891891891895 	299.9979052607504 	0.00875282392914664 	101322.5231866207
-0.436686686686687 	299.9922023431022 	0.02256634692394983 	101315.7815102208
-0.4341841841841846 	299.986636036282 	0.03867004825978036 	101309.2016088423
-0.431681681681682 	299.9813138355995 	0.05406624178898864 	101302.9105997287
-0.4291791791791794 	299.9763502345435 	0.06841517251401848 	101297.0437462264
-0.426676676676677 	299.9718335194536 	0.08146841813336685 	101291.7051554329
-0.4241741741741744 	299.967853300299 	0.09295247774223986 	101287.0009029478
-0.421671671671672 	299.9644868834154 	0.1026865819499915 	101283.0221706477
-0.4191691691691694 	299.9617889620541 	0.1104919710361911 	101279.8336852577
-0.4166666666666669 	299.9597943623462 	0.1162162849755434 	101277.4764114472
-0.4141641641641645 	299.9585528396372 	0.119803267382122 	101276.0089973037
-0.411661661661662 	299.9580787785185 	0.1211707075788044 	101275.4487592826
-0.4091591591591594 	299.9583910852904 	0.1202749923908377 	101275.8177112049
-0.406656656656657 	299.9594821196501 	0.1171386144966969 	101277.1070921941
-0.4041541541541545 	299.9613253246505 	0.1118016855988311 	101279.285333976
-0.401651651651652 	299.9638720413965 	0.1044053514098735 	101282.2950231709
-0.3991491491491494 	299.9670903027824 	0.095135176836545 	101286.0984658606
-0.396646646646647 	299.9708900771186 	0.08414565786907466 	101290.5892198779
-0.3941441441441444 	299.9752016651729 	0.07166605772449014 	101295.6852456859
-0.3916416416416419 	299.9799343875186 	0.05796376368981333 	101301.279138803
-0.3891391391391395 	299.9850045387142 	0.04330041541707681 	101307.2721616384
-0.3866366366366368 	299.9903069842449 	0.02798462481554818 	101313.5399809306
-0.3841341341341344 	299.9957679028809 	0.01225669948601632 	101319.9953685581
-0.381631631631632 	300.0012501911407 	0.006663328778609551 	101326.4765025479
-0.3791291291291294 	300.0067380060921 	0.01954554137863406 	101332.9643542297
-0.3766266266266269 	300.0121407164318 	0.03515732356804879 	101339.3519898943
-0.3741241241241244 	300.0173560487412 	0.05022752541031056 	101345.5182512369
-0.371621621621622 	300.0222867941334 	0.06448611875782739 	101351.3482627171
-0.3691191191191194 	300.0268375817984 	0.07764085073806121 	101356.7294021712
-0.366616616616617 	300.0309267091904 	0.08946385046065077 	101361.5647436942
-0.3641141141141143 	300.0344767186671 	0.09968463337389621 	101365.762832495
-0.3616116116116119 	300.0374025777902 	0.1081203753403379 	101369.2227830913
-0.3591091091091095 	300.0396469043073 	0.1146138534317166 	101371.8768785301
-0.356606606606607 	300.0411652108516 	0.1189921277712877 	101373.6725410936
-0.3541041041041044 	300.0419220410114 	0.1211881990560541 	101374.5676354543
-0.3516016016016019 	300.0419005869006 	0.1211145124365598 	101374.5423616571
-0.3490990990990994 	300.0410936700364 	0.1187543148396395 	101373.588078494
-0.346596596596597 	300.0394945455624 	0.1141560431101528 	101371.6970832441
-0.3440940940940944 	300.0371404317652 	0.1073593977548061 	101368.9132637771
-0.3415915915915919 	300.0340749167707 	0.09847462176704083 	101365.2882296335
-0.3390890890890895 	300.0303525603388 	0.08770510923358028 	101360.886668733
-0.3365865865865869 	300.026051250846 	0.07525336479702166 	101355.8004138689
-0.3340840840840844 	300.0212617998384 	0.06140152272462616 	101350.1372915488
-0.3315815815815819 	300.016067487736 	0.04643185549099629 	101343.9956649004
-0.3290790790790794 	300.0105927837809 	0.03059473150441893 	101337.5228519628
-0.3265765765765769 	300.0049410380876 	0.01424518856153727 	101330.8410728466
-0.3240740740740744 	299.9992163937919 	0.005452791840264223 	101324.0732067082
-0.3215715715715718 	299.9935045840202 	0.01880987870042864 	101317.3209785418
-0.3190690690690695 	299.9879072695803 	0.03499743117696982 	101310.7043171344
-0.3165665665665668 	299.9825313025042 	0.0505449273276284 	101304.3497338664
-0.3140640640640644 	299.9774857328804 	0.06511582069027966 	101298.3859172314
-0.311561561561562 	299.9728638053863 	0.07846971252838807 	101292.9229032476
-0.3090590590590593 	299.9687614895462 	0.09030985805428511 	101288.074354479
-0.3065565565565568 	299.9652605991024 	0.1004481270770304 	101283.9366182197
-0.3040540540540545 	299.9624171194857 	0.108679112552819 	101280.5761370037
-0.3015515515515518 	299.9602747630142 	0.114841738949035 	101278.0442254767
-0.2990490490490494 	299.958876535595 	0.1188848676507173 	101276.3915832349
-0.2965465465465469 	299.9582387102632 	0.1207186491139945 	101275.6378310871
-0.2940440440440444 	299.9583769232298 	0.1203228581326727 	101275.8010160984
-0.2915415415415418 	299.9592864654622 	0.1177009997300104 	101276.8759579427
-0.2890390390390395 	299.9609463624736 	0.1128742256691443 	101278.8375381681