/*--------------------------------*- C++ -*----------------------------------*\
  =========                 |
  \\      /  F ield         | OpenFOAM: The Open Source CFD Toolbox
   \\    /   O peration     | Website:  https://openfoam.org
    \\  /    A nd           | Version:  7
     \\/     M anipulation  |
\*---------------------------------------------------------------------------*/
FoamFile
{
    version     2.0;
    format      ascii;
    class       volVectorField;
    location    "0.00057";
    object      U;
}
// * * * * * * * * * * * * * * * * * * * * * * * * * * * * * * * * * * * * * //

dimensions      [0 1 -1 0 0 0 0];

internalField   nonuniform List<vector> 
5000
(
(-6.8493302e-14 -1.3510587e-28 0)
(1.4857756e-14 -4.053176e-28 0)
(-2.4031052e-14 0 0)
(6.2756729e-14 0 0)
(1.3105656e-13 2.533235e-28 0)
(7.6335987e-15 -1.7279728e-43 1.519941e-28)
(8.3927709e-14 5.06647e-29 -1.079983e-43)
(-2.1544588e-13 0 6.079764e-28)
(-1.7922884e-13 0 1.519941e-28)
(3.1597276e-15 1.519941e-28 3.039882e-28)
(-1.1733418e-13 1.013294e-28 1.013294e-28)
(1.308412e-13 -2.026588e-28 -2.026588e-28)
(-4.7582336e-15 -4.053176e-28 3.4559457e-42)
(-1.5524496e-13 3.039882e-28 2.6783579e-42)
(-1.3462574e-14 0 -7.093058e-28)
(7.3285901e-14 3.546529e-28 7.093058e-28)
(-4.3981429e-14 1.5612266e-55 7.806133e-56)
(-1.0265161e-13 -5.06647e-29 4.4639299e-43)
(1.5006436e-13 0 -1.013294e-28)
(1.3028465e-13 2.533235e-28 5.06647e-28)
(1.8677597e-13 -1.519941e-28 1.519941e-28)
(4.759672e-13 -7.26992e-43 0)
(6.4215528e-13 -1.013294e-28 0)
(4.82085e-13 -5.06647e-29 -5.06647e-29)
(3.485098e-13 -2.026588e-28 1.7279728e-42)
(3.0840124e-13 8.4991163e-56 8.4991163e-56)
(4.9225871e-13 -1.013294e-28 1.013294e-28)
(2.9714217e-13 1.013294e-28 1.013294e-28)
(3.5662688e-13 3.2736318e-43 -1.6368159e-43)
(5.1107623e-13 -1.7567724e-42 1.013294e-28)
(4.2870759e-13 -2.6567583e-42 2.6567583e-42)
(2.941646e-13 1.519941e-28 -1.2959796e-42)
(3.8061601e-13 -6.4146353e-43 3.2073177e-43)
(3.6211854e-13 2.5658541e-43 -1.2829271e-43)
(4.1382433e-13 1.7567724e-42 1.013294e-28)
(6.7830276e-13 -8.8126615e-42 0)
(5.8431746e-13 -8.783862e-42 0)
(5.0324018e-13 6.079764e-28 -3.039882e-28)
(4.8686996e-13 -1.013294e-28 -5.06647e-29)
(6.3722186e-13 -7.26992e-43 3.63496e-43)
(5.8903442e-13 -2.026588e-28 1.6991733e-42)
(4.3857271e-13 1.0454236e-41 1.519941e-28)
(6.74002e-13 3.039882e-28 -1.519941e-28)
(7.9220537e-13 -1.519941e-28 2.5703596e-42)
(7.5302445e-13 1.519941e-28 -5.06647e-29)
(7.3132819e-13 -1.519941e-28 1.519941e-28)
(7.8828036e-13 2.2590224e-42 3.2140348e-55)
(6.2929943e-13 1.3881382e-41 -6.9406909e-42)
(4.2078084e-13 2.026588e-28 3.4847452e-42)
(3.7158493e-13 0 2.5919593e-42)
(1.7006134e-13 1.519941e-28 1.519941e-28)
(1.6470213e-13 2.1599661e-44 0)
(8.9487445e-15 -1.519941e-28 0)
(2.7038237e-14 3.039882e-28 0)
(1.4090472e-13 6.8340309e-56 0)
(3.6106692e-13 -1.013294e-28 0)
(5.6992544e-14 3.039882e-28 0)
(-1.1128349e-13 -8.7478626e-42 0)
(-9.5378526e-14 -5.06647e-29 0)
(-1.4209462e-13 0 0)
(-2.02862e-13 1.013294e-28 0)
(-7.5376506e-14 3.4559457e-42 0)
(-9.9262791e-14 -2.8799547e-44 0)
(1.204121e-13 -1.519941e-28 1.519941e-28)
(3.0995594e-13 2.533235e-28 2.533235e-28)
(2.3062063e-13 -3.5423443e-42 -1.013294e-28)
(1.6392192e-13 2.026588e-28 -3.4847452e-42)
(3.2409276e-13 -2.026588e-28 -9.7576662e-57)
(6.1316071e-13 5.06647e-29 -5.06647e-29)
(6.4205733e-13 -2.533235e-28 0)
(7.3763098e-13 -1.519941e-28 0)
(3.6514495e-13 -5.06647e-29 -5.06647e-29)
(3.314213e-13 -1.013294e-28 -1.013294e-28)
(3.5091292e-13 -1.72668e-42 0)
(2.8980127e-13 2.0724815e-42 2.0724815e-42)
(2.5781693e-13 -5.06647e-29 1.7495725e-42)
(3.36168e-13 0 5.06647e-29)
(2.4185901e-13 -1.013294e-28 1.013294e-28)
(2.1616862e-13 7.1998869e-45 -5.06647e-29)
(4.7894006e-13 -1.519941e-28 3.039882e-28)
(2.3738928e-13 4.053176e-28 -8.106352e-28)
(1.4915688e-13 -1.1519819e-43 2.3039638e-43)
(5.6091215e-13 8.6398642e-44 9.119646e-28)
(5.0119825e-13 3.546529e-28 -7.093058e-28)
(7.4240133e-13 5.06647e-29 -5.2703172e-42)
(7.8716927e-13 -7.0558891e-42 -4.053176e-28)
(7.1418007e-13 1.013294e-28 3.039882e-28)
(9.1859211e-13 0 -1.519941e-28)
(8.8900565e-13 -1.013294e-28 1.013294e-28)
(7.499704e-13 -1.5767752e-41 -1.519941e-28)
(7.6710663e-13 -1.7711722e-42 5.06647e-29)
(7.8694999e-13 5.06647e-29 5.06647e-29)
(5.9751631e-13 -5.06647e-29 -1.7639723e-42)
(6.0028899e-13 -1.013294e-28 -1.013294e-28)
(3.2884449e-13 -3.5063449e-42 -3.5063449e-42)
(2.8752757e-13 -1.013294e-28 1.013294e-28)
(3.8441142e-13 0 2.533235e-28)
(5.7316094e-13 0 1.2448604e-41)
(4.0153358e-13 4.053176e-28 -2.8223557e-41)
(3.8060201e-13 2.4594814e-41 -7.093058e-28)
(5.8357711e-13 -5.06647e-28 -2.533235e-28)
(5.1173735e-13 5.06647e-29 5.06647e-29)
(3.3621528e-13 -3.039882e-28 2.1599661e-44)
(3.7091967e-13 0 1.013294e-28)
(5.2370206e-13 5.06647e-29 0)
(5.9213147e-13 1.519941e-28 -1.519941e-28)
(8.511843e-13 -5.06647e-29 -1.7639723e-42)
(7.9664933e-13 1.013294e-28 -1.013294e-28)
(6.0896496e-13 0 -6.7305805e-43)
(5.499303e-13 0 -1.1796295e-44)
(6.0437823e-13 -1.013294e-28 -2.026588e-28)
(1.7209012e-13 5.06647e-29 5.06647e-29)
(4.2266172e-13 0 -1.519941e-28)
(5.5865395e-13 1.013294e-28 1.013294e-28)
(4.4170547e-13 1.7711722e-42 1.519941e-28)
(4.3450208e-13 -5.791534e-42 5.8033303e-42)
(2.7143689e-13 5.06647e-29 5.06647e-29)
(2.3873595e-13 1.4399774e-44 -2.8799547e-44)
(3.7466141e-13 -1.7711722e-42 -5.06647e-29)
(7.1926262e-13 -1.4636499e-56 -1.519941e-28)
(8.4377483e-13 -2.026588e-28 7.0846887e-42)
(9.4689903e-13 -4.3199321e-44 -2.026588e-28)
(8.2243242e-13 -1.013294e-28 2.026588e-28)
(8.1537643e-13 0 1.519941e-28)
(7.1516169e-13 -3.039882e-28 -3.039882e-28)
(9.1088315e-13 -1.013294e-28 -1.013294e-28)
(1.019401e-12 -4.053176e-28 4.053176e-28)
(9.7211712e-13 2.225083e-41 2.215646e-41)
(8.1975632e-13 -4.559823e-28 4.559823e-28)
(8.0663516e-13 1.013294e-27 1.7495725e-41)
(9.4002448e-13 3.546529e-28 3.546529e-28)
(7.7923559e-13 -5.06647e-29 1.013294e-28)
(7.0021353e-13 -1.013294e-28 -1.013294e-28)
(8.1858214e-13 -1.519941e-28 -1.519941e-28)
(7.4473766e-13 0 5.06647e-29)
(4.8953709e-13 -3.039882e-28 1.0583834e-41)
(3.6669361e-13 -5.06647e-28 1.7567724e-41)
(2.9865477e-13 4.559823e-28 -1.5875751e-41)
(2.7313777e-13 1.4054179e-41 -8.106352e-28)
(2.2193163e-13 -1.519941e-28 -1.519941e-28)
(1.2048644e-13 -1.013294e-28 -1.013294e-28)
(-6.9277866e-14 -2.026588e-28 -4.053176e-28)
(-2.7389066e-13 0 -2.533235e-28)
(-2.8329211e-13 3.039882e-28 -3.039882e-28)
(-3.1329603e-13 2.026588e-28 1.4054179e-41)
(-2.3425864e-13 -4.7929115e-45 9.585823e-45)
(-1.3526671e-14 -1.013294e-28 2.8799547e-44)
(-1.1700619e-14 5.7599095e-44 -2.8799547e-44)
(9.6860578e-14 -5.06647e-29 -1.3172849e-55)
(7.8544903e-14 1.013294e-28 1.013294e-28)
(-2.2987506e-14 1.013294e-28 7.0270896e-42)
(5.7883195e-15 8.0792351e-55 1.1518322e-54)
(-1.7294288e-14 5.06647e-29 5.06647e-29)
(5.7932431e-14 1.519941e-28 1.519941e-28)
(-3.8828874e-14 -5.06647e-29 -5.06647e-29)
(-9.8749557e-15 5.06647e-29 1.7567724e-42)
(3.5878689e-14 -1.7105694e-43 -1.7105694e-43)
(6.8100252e-14 0 5.06647e-29)
(-1.2569759e-13 0 -1.4399774e-44)
(-2.0875618e-13 -1.013294e-28 -1.013294e-28)
(-2.783796e-13 -2.533235e-28 0)
(-4.7296872e-13 2.533235e-28 2.533235e-28)
(-3.4139296e-13 -1.013294e-28 -7.0126898e-42)
(-2.9197115e-13 3.546529e-28 7.093058e-28)
(-3.3790805e-13 2.8108358e-41 -4.053176e-28)
(-3.0670725e-13 -4.559823e-28 1.2959796e-43)
(-2.5985999e-13 2.533235e-28 2.533235e-28)
(-3.3209854e-13 1.013294e-28 -1.013294e-28)
(-4.0463992e-13 0 3.039882e-28)
(-1.1400539e-13 -3.546529e-28 -3.546529e-28)
(-2.6301192e-13 -2.533235e-28 1.0555034e-40)
(-2.9994663e-13 0 4.2162538e-41)
(-3.5375708e-13 -1.013294e-28 1.013294e-28)
(-5.5599536e-13 -4.053176e-28 -8.106352e-28)
(-2.4516584e-13 0 0)
(-1.8830913e-13 2.026588e-28 -1.4054179e-41)
(-1.9101469e-13 2.1081269e-41 -2.1081269e-41)
(-1.4523193e-13 2.026588e-28 -2.026588e-28)
(-1.0629338e-13 -4.559823e-28 -4.559823e-28)
(-3.8275144e-14 -5.573117e-28 -3.8411396e-41)
(-5.7279078e-14 2.533235e-28 2.533235e-28)
(-1.3005278e-13 -6.99829e-42 1.013294e-28)
(-4.3770391e-14 6.9694905e-42 6.9694905e-42)
(6.2199458e-14 -2.1599661e-44 -2.1599661e-44)
(-5.4072823e-14 -1.013294e-28 -1.4039779e-41)
(-1.1149261e-13 1.519941e-28 3.039882e-28)
(-8.6110063e-14 -7.0270896e-42 5.06647e-29)
(-7.6877917e-14 3.4847452e-42 5.06647e-29)
(-4.3370617e-14 6.9694905e-42 6.9694905e-42)
(-1.4761445e-13 5.06647e-29 3.4919451e-42)
(-2.0039236e-13 0 -5.2667172e-41)
(-1.6650505e-13 0 1.7495725e-41)
(-1.6640376e-13 -1.013294e-28 -1.013294e-28)
(-4.3222807e-13 -1.519941e-28 0)
(-5.0395716e-13 0 0)
(-6.4614421e-13 0 0)
(-5.0481526e-13 4.053176e-28 0)
(-4.8900802e-13 4.8788331e-57 -2.533235e-28)
(-4.4695751e-13 -5.06647e-29 1.0562234e-41)
(-3.5588668e-13 0 -1.013294e-28)
(-5.3606805e-13 1.519941e-28 1.519941e-28)
(-5.6982654e-13 -2.533235e-28 -2.533235e-28)
(-3.2988304e-13 -1.9527248e-54 -6.409405e-42)
(-4.1120928e-13 -1.013294e-28 -1.013294e-28)
(-4.1829105e-13 5.06647e-29 -3.5063449e-42)
(-2.7677669e-13 2.1038069e-41 2.1038069e-41)
(-2.6966676e-13 2.1599661e-44 1.519941e-28)
(-1.6869869e-13 1.519941e-28 1.519941e-28)
(-2.5969842e-13 -2.026588e-28 -2.026588e-28)
(-1.16628e-13 2.1599661e-44 0)
(-2.2467718e-13 -7.0126898e-42 5.06647e-29)
(-3.3184751e-13 1.0519035e-41 1.0519035e-41)
(-4.7059858e-13 -1.519941e-28 -1.519941e-28)
(-3.0023083e-13 0 -1.519941e-28)
(-3.762845e-13 2.026588e-28 2.8223557e-41)
(-3.4229911e-13 1.0519035e-41 1.519941e-28)
(-3.6988479e-13 2.8122758e-41 -2.026588e-28)
(-3.8341641e-13 -5.06647e-29 -5.06647e-29)
(-2.4770705e-13 0 3.5612065e-43)
(-4.620491e-13 -2.026588e-28 -2.026588e-28)
(-3.4052295e-13 -1.013294e-28 1.013294e-28)
(-4.7273175e-13 0 0)
(-4.5553443e-13 0 0)
(-4.2603539e-13 0 0)
(-3.4312019e-13 1.519941e-28 1.519941e-28)
(-1.9077678e-13 -3.5063449e-42 5.06647e-29)
(-1.9092671e-13 7.0423879e-42 1.4084776e-41)
(-2.6416321e-13 0 2.026588e-28)
(5.4299157e-14 0 7.0414894e-42)
(6.0600106e-14 -1.519941e-28 -1.519941e-28)
(-5.2491425e-14 1.013294e-28 1.013294e-28)
(-3.3657283e-14 2.026588e-28 4.053176e-28)
(1.1074057e-13 3.039882e-28 -8.6398642e-44)
(-3.566487e-14 0 5.7599095e-44)
(1.7254826e-13 -4.559823e-28 -4.559823e-28)
(2.2789328e-13 -3.546529e-28 -3.546529e-28)
(1.6124308e-13 2.026588e-28 4.053176e-28)
(8.3281322e-14 2.026588e-28 -2.8799547e-44)
(2.5891424e-14 0 -2.3441501e-54)
(2.1168212e-13 -1.1796295e-44 -1.7694442e-44)
(3.4332662e-13 2.8137158e-41 5.6274316e-41)
(5.1094116e-13 1.7567724e-41 3.5135448e-41)
(5.1146127e-13 -2.026588e-28 -2.026588e-28)
(3.0354036e-13 1.3898376e-43 1.3898376e-43)
(1.7329054e-13 -1.013294e-28 0)
(3.1617902e-13 0 -2.026588e-28)
(2.150006e-13 2.026588e-28 2.026588e-28)
(3.9422091e-13 -1.4082979e-41 1.013294e-28)
(2.5427726e-13 1.519941e-28 -1.519941e-28)
(3.0140189e-13 3.5135448e-41 0)
(3.1924545e-13 -5.06647e-28 -2.533235e-28)
(3.2272068e-13 2.026588e-28 2.026588e-28)
(5.8314514e-13 -2.8108358e-41 2.026588e-28)
(4.8054484e-13 -1.5830391e-40 -1.5830391e-40)
(5.9358695e-13 -2.1038069e-41 -6.079764e-28)
(7.1784755e-13 7.4837412e-44 1.4967482e-43)
(6.3499908e-13 1.519941e-28 4.559823e-28)
(6.4698065e-13 5.06647e-29 1.013294e-28)
(5.7494687e-13 0 0)
(5.7069125e-13 -5.06647e-29 -1.013294e-28)
(3.9846733e-13 -2.026588e-28 -2.026588e-28)
(6.8228849e-14 0 2.533235e-28)
(2.8437399e-14 5.06647e-29 5.06647e-29)
(1.4381586e-13 -2.026588e-28 -2.026588e-28)
(8.2372799e-14 4.053176e-28 4.053176e-28)
(7.545407e-14 1.519941e-28 3.039882e-28)
(5.7164003e-14 -1.013294e-28 -1.013294e-28)
(-1.2663879e-13 -1.013294e-28 -2.026588e-28)
(-3.3854883e-13 2.8108358e-41 2.8108358e-41)
(-2.4270425e-13 -3.039882e-28 -6.079764e-28)
(-3.0568141e-13 1.519941e-28 1.519941e-28)
(-2.7092411e-13 -3.5135448e-42 -7.0270896e-42)
(-2.7303414e-13 -5.8800824e-43 -5.8800824e-43)
(-3.7767706e-13 8.5528471e-44 1.7105694e-43)
(-3.337877e-13 7.0414894e-42 1.013294e-28)
(-2.8902872e-13 -3.5279446e-42 -7.0558891e-42)
(-2.5398387e-13 -2.8799547e-44 1.013294e-28)
(-2.0408839e-13 3.499145e-42 5.06647e-29)
(-1.5396549e-13 -3.039882e-28 -3.039882e-28)
(-1.2689287e-13 0 4.053176e-28)
(-2.2730977e-13 0 2.1138868e-41)
(-1.0874372e-13 3.1886659e-42 -6.3891281e-42)
(-7.7753654e-14 5.06647e-29 1.013294e-28)
(-1.9428355e-13 0 -7.3989464e-57)
(-1.6108824e-15 0 5.06647e-29)
(-1.8756683e-13 0 0)
(-1.3304472e-13 0 0)
(-2.1216633e-13 2.026588e-28 2.026588e-28)
(-4.6028284e-13 2.4443616e-41 -3.546529e-28)
(-4.0758228e-13 -5.06647e-28 -5.06647e-28)
(-3.0313637e-13 6.4798982e-44 1.519941e-28)
(-4.4494897e-13 1.013294e-28 -2.8799547e-44)
(-1.8203704e-13 -1.013294e-28 -1.013294e-28)
(-2.2372973e-13 2.1102868e-41 -1.519941e-28)
(-4.8792004e-13 1.4039779e-41 1.013294e-28)
(-4.8262585e-13 7.1998869e-45 0)
(-5.2500797e-13 1.013294e-28 1.013294e-28)
(-4.221235e-13 5.06647e-29 5.06647e-29)
(-5.0120081e-13 1.013294e-28 0)
(-5.3973446e-13 -4.053176e-28 -4.053176e-28)
(-4.9375276e-13 -1.2607051e-41 -4.2043165e-42)
(-4.2897152e-13 -2.5685845e-42 -5.137169e-42)
(-4.1202028e-13 1.013294e-28 -3.5063449e-42)
(-4.3375194e-13 0 1.4399774e-44)
(-3.3417451e-13 -5.06647e-29 -5.06647e-29)
(-2.9920583e-13 6.7353671e-43 6.7353671e-43)
(-3.9091908e-13 1.519941e-28 1.519941e-28)
(-1.7344835e-13 -1.0079842e-43 -3.546529e-28)
(9.3503785e-14 1.2959796e-43 3.039882e-28)
(-1.619039e-13 -8.6398642e-44 -1.7279728e-43)
(-8.6952707e-14 -4.053176e-28 -8.106352e-28)
(-3.1171836e-13 -2.026588e-28 2.026588e-28)
(-1.1407711e-13 5.06647e-29 5.06647e-29)
(1.2602147e-13 6.079764e-28 3.039882e-28)
(1.0360823e-13 -5.573117e-28 7.7297985e-41)
(2.9393257e-13 -1.9515332e-56 -4.053176e-28)
(-2.9025299e-15 -1.013294e-28 0)
(-3.6316887e-13 7.0198897e-41 0)
(-7.2835781e-14 -6.079764e-28 -3.039882e-28)
(-1.2777601e-14 0 -7.0342895e-42)
(-1.3752536e-13 0 4.2184137e-41)
(-2.0623838e-14 3.039882e-28 -2.1124468e-41)
(-9.8751225e-14 -5.6274316e-41 1.013294e-28)
(-1.0867601e-13 2.026588e-28 1.013294e-28)
(-5.3500388e-13 0 2.8799547e-44)
(-5.397543e-13 3.039882e-28 3.039882e-28)
(-4.555347e-13 2.026588e-28 0)
(-6.4135346e-13 -1.519941e-28 0)
(-6.5812659e-13 7.1998869e-45 0)
(-6.7787037e-13 -2.1102868e-41 0)
(-8.7819814e-13 5.0399208e-44 0)
(-7.6016956e-13 2.533235e-28 0)
(-6.946842e-13 -1.013294e-28 0)
(-6.339538e-13 -5.0099815e-42 -5.0040833e-42)
(-7.2630727e-13 0 0)
(-6.7551769e-13 -2.026588e-28 -2.026588e-28)
(-7.9630176e-13 -3.0625175e-54 0)
(-6.8759887e-13 -1.013294e-28 -1.013294e-28)
(-7.053771e-13 -2.026588e-28 2.8108358e-41)
(-6.7567844e-13 4.2162538e-41 -1.519941e-28)
(-9.6156771e-13 1.519941e-28 0)
(-9.9080338e-13 -1.4068579e-41 0)
(-1.0837639e-12 -4.053176e-28 -2.026588e-28)
(-1.170964e-12 2.026588e-28 -1.4068579e-41)
(-9.4871892e-13 1.519941e-28 1.519941e-28)
(-1.2560018e-12 -1.519941e-28 0)
(-1.0787725e-12 7.1998869e-45 0)
(-1.0185258e-12 2.533235e-28 2.533235e-28)
(-6.980954e-13 0 4.053176e-28)
(-5.6082352e-13 0 -4.559823e-28)
(-7.3749797e-13 -2.533235e-28 -2.533235e-28)
(-5.9461756e-13 5.7830287e-56 0)
(-6.8357246e-13 2.026588e-28 1.013294e-28)
(-7.0868145e-13 -2.8799547e-44 -2.8799547e-44)
(-3.5730024e-13 -6.079764e-28 -2.026588e-28)
(-2.3019894e-13 2.026588e-28 2.026588e-28)
(-1.6476704e-13 2.026588e-28 2.026588e-28)
(-1.6742076e-13 -6.079764e-28 -3.039882e-28)
(-9.8357422e-14 3.039882e-28 -3.039882e-28)
(-1.4812304e-13 -3.039882e-28 0)
(-1.3930336e-13 -6.079764e-28 3.039882e-28)
(-3.2452355e-13 2.533235e-28 2.533235e-28)
(-5.7588452e-13 1.013294e-28 -1.013294e-28)
(-3.7826472e-13 -5.06647e-29 5.06647e-29)
(-5.9575797e-13 1.519941e-28 0)
(-6.3722642e-13 2.9272999e-56 -1.519941e-28)
(-6.4681948e-13 -2.7796753e-43 -2.7796753e-43)
(-2.5701989e-13 -1.519941e-28 -1.519941e-28)
(-3.2014579e-13 2.026588e-28 -2.026588e-28)
(-2.2352288e-13 -7.2812789e-42 0)
(-7.618051e-14 2.8079559e-41 0)
(-1.5808425e-13 5.7599095e-44 0)
(-1.91002e-13 3.039882e-28 0)
(-2.5926086e-13 -2.026588e-28 0)
(-5.7160671e-14 -2.026588e-28 0)
(-4.0861975e-13 -1.4068579e-41 0)
(-5.8070003e-13 -4.2162538e-41 0)
(-7.2072004e-13 -5.06647e-29 -5.06647e-29)
(-7.117421e-13 -2.026588e-28 1.5612266e-55)
(-5.301622e-13 6.079764e-28 2.026588e-28)
(-6.3262003e-13 2.8108358e-41 0)
(-5.0106408e-13 -2.8108358e-41 0)
(-4.6643522e-13 5.6159118e-41 0)
(-5.4739532e-13 -4.053176e-28 -2.026588e-28)
(-5.5422958e-13 4.053176e-28 -2.8108358e-41)
(-9.8646969e-13 -1.1243343e-40 4.053176e-28)
(-9.298394e-13 -7.093058e-28 -3.546529e-28)
(-7.7296079e-13 0 2.1102868e-41)
(-8.1850725e-13 0 7.1998869e-45)
(-9.9026164e-13 -3.546529e-28 4.9240026e-41)
(-9.4923358e-13 4.9189627e-41 -3.546529e-28)
(-1.1552891e-12 2.533235e-28 2.533235e-28)
(-1.1187475e-12 2.026588e-28 -2.026588e-28)
(-1.277347e-12 -5.06647e-29 2.8151558e-41)
(-1.2464353e-12 -1.519941e-28 5.06647e-29)
(-1.1431632e-12 1.013294e-28 -1.013294e-28)
(-1.2845156e-12 1.519941e-28 0)
(-1.3714684e-12 2.8799547e-44 0)
(-1.5525171e-12 -5.06647e-29 -5.06647e-29)
(-1.7975312e-12 0 -2.8137158e-41)
(-1.3215026e-12 8.106352e-28 4.053176e-28)
(-1.2406744e-12 5.06647e-28 -2.533235e-28)
(-9.9082923e-13 2.026588e-28 2.026588e-28)
(-7.7842087e-13 3.039882e-28 0)
(-1.1665912e-12 -1.013294e-28 1.013294e-28)
(-1.3171104e-12 1.013294e-28 5.06647e-29)
(-9.8164167e-13 -2.026588e-28 1.013294e-28)
(-1.0844731e-12 1.013294e-28 1.4061379e-41)
(-1.2414368e-12 -3.4329351e-42 3.9030665e-56)
(-9.7317303e-13 0 3.5171447e-41)
(-8.2098842e-13 -2.026588e-28 -1.013294e-28)
(-7.7089924e-13 -5.06647e-29 -5.06647e-29)
(-9.8960197e-13 -2.026588e-28 3.1224532e-55)
(-6.8967128e-13 1.519941e-28 -2.1102868e-41)
(-7.5584586e-13 -5.06647e-29 5.06647e-29)
(-6.3327615e-13 -7.1998869e-45 0)
(-8.9914302e-13 2.8137158e-41 0)
(-6.0097571e-13 5.06647e-29 5.06647e-29)
(-7.314686e-13 -2.026588e-28 2.8799547e-44)
(-1.0174233e-12 -5.573117e-28 -2.3189396e-40)
(-9.9893733e-13 4.053176e-28 4.053176e-28)
(-1.0826885e-12 -1.4054179e-41 0)
(-1.1726154e-12 -2.8799547e-44 0)
(-1.3068734e-12 -5.6216717e-41 -4.053176e-28)
(-1.2579634e-12 -3.546529e-28 9.8328855e-41)
(-1.3514197e-12 2.533235e-28 2.533235e-28)
(-1.1649227e-12 -1.4772008e-40 0)
(-1.1109639e-12 -5.6274316e-41 0)
(-1.2985827e-12 -1.4061379e-40 0)
(-1.398538e-12 -4.053176e-28 -4.053176e-28)
(-1.2679876e-12 2.026588e-28 2.8799547e-44)
(-1.1991558e-12 -4.9240026e-41 3.546529e-28)
(-1.4769304e-12 -1.2642281e-40 -4.559823e-28)
(-1.3980157e-12 -6.4798982e-44 4.559823e-28)
(-1.3403144e-12 -9.119646e-28 -1.2674681e-40)
(-1.1758334e-12 -3.039882e-28 -6.079764e-28)
(-1.1145575e-12 1.519941e-28 1.519941e-28)
(-1.3651536e-12 1.013294e-27 2.1102868e-40)
(-1.5051805e-12 -1.1254863e-40 1.1254863e-40)
(-1.4114384e-12 -1.013294e-27 -7.0342895e-41)
(-1.2054191e-12 -1.013294e-28 -1.013294e-28)
(-1.1444161e-12 2.026588e-28 0)
(-1.1853432e-12 1.013294e-28 0)
(-1.2281019e-12 -1.519941e-28 1.519941e-28)
(-1.5267071e-12 -2.026588e-28 2.8137158e-41)
(-1.3726422e-12 -1.4061379e-41 -1.4061379e-41)
(-1.3636407e-12 -1.2615449e-42 8.4230933e-84)
(-1.6874524e-12 0 -2.026588e-28)
(-1.7013419e-12 0 2.026588e-28)
(-1.5575195e-12 -1.013294e-28 -1.013294e-28)
(-1.4606035e-12 0 0)
(-1.3795574e-12 2.533235e-28 2.533235e-28)
(-1.4038297e-12 -2.533235e-28 3.5171447e-41)
(-1.6252637e-12 2.8799547e-44 2.026588e-28)
(-1.6164621e-12 -5.6245516e-41 0)
(-1.3852347e-12 0 0)
(-8.7387041e-13 2.533235e-28 2.533235e-28)
(-8.5764637e-13 -4.559823e-28 -1.2959796e-43)
(-9.6147628e-13 -2.026588e-28 -2.9272999e-56)
(-8.7555049e-13 -2.026588e-28 -1.013294e-28)
(-7.5464795e-13 5.06647e-29 -5.06647e-29)
(-6.0836351e-13 1.013294e-28 -1.4039779e-41)
(-5.0155345e-13 0 3.5171447e-41)
(-9.8757495e-14 0 3.9322245e-54)
(-1.3755873e-13 2.026588e-28 2.026588e-28)
(-4.5811662e-14 -8.4454673e-41 -3.039882e-28)
(-2.2436335e-13 -3.039882e-28 8.4411474e-41)
(-4.2974226e-13 0 -2.8151558e-41)
(-3.4280928e-13 0 3.9316788e-54)
(-3.7745377e-13 -5.06647e-29 -5.06647e-29)
(-4.327805e-13 2.1110068e-41 5.06647e-29)
(-1.9219271e-13 1.407298e-41 -3.9186458e-54)
(-1.0429182e-13 0 2.1146068e-41)
(-3.2451561e-13 0 0)
(-2.4678458e-13 0 -2.026588e-28)
(-2.9280775e-13 0 2.533235e-28)
(-2.8541337e-13 0 -4.2205737e-41)
(-3.5610023e-13 0 2.1599661e-44)
(-4.7322421e-13 0 7.0342895e-42)
(-5.1852997e-13 0 7.0414894e-42)
(-6.0986228e-13 3.039882e-28 1.519941e-28)
(-4.4624123e-13 -5.93435e-55 1.0691059e-42)
(-8.9154137e-14 2.026588e-28 2.026588e-28)
(-1.5460236e-13 -3.546529e-28 -3.546529e-28)
(-2.8964623e-14 2.026588e-28 -2.026588e-28)
(-7.4231889e-14 -2.533235e-28 0)
(7.5868756e-14 8.4497872e-41 3.039882e-28)
(1.6007892e-13 1.519941e-28 1.519941e-28)
(1.5152527e-13 4.2205737e-41 0)
(1.1122697e-13 1.013294e-28 -1.013294e-28)
(9.2787267e-14 0 2.1102868e-41)
(1.3757458e-13 0 -4.3199321e-44)
(1.6293867e-14 -2.026588e-28 -2.8108358e-41)
(1.5116024e-13 -4.2205737e-41 1.519941e-28)
(1.4582766e-13 1.519941e-28 -1.519941e-28)
(7.3905344e-14 0 -2.8108358e-41)
(1.4526841e-13 0 9.8480053e-41)
(2.367522e-14 0 3.039882e-28)
(2.9990176e-13 0 3.546529e-28)
(3.4361204e-13 0 -1.1146234e-27)
(6.7429194e-13 0 7.9198756e-44)
(5.4457111e-13 0 -4.9189627e-41)
(6.0599947e-13 -1.013294e-28 -5.06647e-29)
(4.8194003e-13 -1.2653081e-40 -1.519941e-28)
(3.1258143e-13 -3.039882e-28 2.1102868e-41)
(2.5001436e-13 1.013294e-28 1.013294e-28)
(-6.058877e-14 3.5999434e-44 0)
(3.1596897e-13 4.053176e-28 0)
(4.7618312e-13 -1.4046979e-40 0)
(6.7385432e-13 1.6306306e-41 8.1590509e-42)
(7.9892482e-13 1.013294e-28 1.013294e-28)
(7.2341559e-13 -9.7576662e-57 -2.026588e-28)
(7.2697491e-13 -1.2159528e-27 -4.053176e-28)
(5.4241105e-13 0 0)
(6.984733e-13 6.079764e-28 3.039882e-28)
(8.5682556e-13 0 3.546529e-28)
(6.2525761e-13 0 -2.026588e-28)
(7.5638136e-13 -3.039882e-28 -1.519941e-28)
(5.5255696e-13 5.6216717e-41 0)
(5.5651999e-13 7.599705e-28 2.533235e-28)
(5.7580898e-13 -1.519941e-28 1.519941e-28)
(5.6282943e-13 -1.519941e-28 -1.519941e-28)
(6.7912757e-13 5.573117e-28 -1.5475437e-40)
(6.6607982e-13 -5.573117e-28 5.573117e-28)
(3.214816e-13 2.026588e-28 0)
(1.6071787e-13 1.4054179e-41 0)
(1.0130579e-13 5.06647e-29 0)
(3.1999867e-13 1.013294e-28 0)
(6.2318171e-13 0 -1.013294e-28)
(5.5421731e-13 -5.06647e-29 -1.4054179e-41)
(5.4153404e-13 5.06647e-29 -5.06647e-29)
(5.0905241e-13 2.026588e-28 1.013294e-28)
(6.1008648e-13 -5.06647e-29 7.0342895e-42)
(5.1281724e-13 -5.06647e-29 -7.0414894e-42)
(4.4954485e-13 -1.519941e-28 4.8788331e-57)
(3.2413645e-13 -3.039882e-28 3.039882e-28)
(2.3950017e-13 6.079764e-28 3.039882e-28)
(3.4247416e-13 2.026588e-28 -4.053176e-28)
(3.8652875e-14 -3.039882e-28 -4.2205737e-41)
(2.1412378e-14 0 3.5135448e-41)
(2.9300766e-13 5.06647e-29 -5.06647e-29)
(3.8681713e-13 1.519941e-28 0)
(2.517009e-13 2.026588e-28 -2.026588e-28)
(2.3556173e-14 -4.559823e-28 -1.519941e-28)
(-5.3868318e-14 -1.9516431e-56 5.8981473e-45)
(-7.8114739e-14 2.026588e-28 2.8108358e-41)
(-6.3571212e-14 -2.026588e-28 -2.026588e-28)
(-2.7476422e-13 -1.4068579e-41 0)
(-2.532595e-13 -5.06647e-29 0)
(-2.5213767e-13 -1.4399774e-44 -5.06647e-29)
(-3.9254984e-13 -4.053176e-28 2.8108358e-41)
(-2.6074501e-13 2.026588e-28 2.026588e-28)
(-2.2712515e-13 0 0)
(-4.5492321e-14 -4.2205737e-41 -1.519941e-28)
(1.2439077e-13 3.8999647e-56 -3.8999647e-56)
(1.7177163e-13 5.06647e-29 1.4068579e-41)
(2.2415498e-14 -5.06647e-29 7.0270896e-42)
(2.31824e-13 4.2205737e-41 -1.519941e-28)
(3.7075362e-13 2.8108358e-41 2.026588e-28)
(3.1839436e-13 1.4399774e-44 -1.4399774e-44)
(3.4839921e-13 5.06647e-29 1.4068579e-41)
(3.4143048e-13 1.013294e-28 -1.013294e-28)
(5.0324009e-13 2.4394166e-56 5.06647e-29)
(6.4925685e-13 -1.4068579e-41 1.4068579e-41)
(3.5414507e-13 -5.0399208e-44 5.0399208e-44)
(3.6090187e-13 -4.053176e-28 -2.8137158e-41)
(3.7871097e-13 7.0270896e-42 5.06647e-29)
(5.2576211e-13 -5.06647e-29 -5.06647e-29)
(5.7615802e-13 0 0)
(5.8236823e-13 0 -1.6877975e-40)
(7.4387831e-13 -2.533235e-28 -3.5135448e-41)
(8.6985508e-13 -6.3243806e-41 -6.3243806e-41)
(1.0791565e-12 1.013294e-28 -1.4399774e-44)
(9.3003478e-13 -1.519941e-28 -1.519941e-28)
(8.7449191e-13 2.1102868e-41 1.519941e-28)
(6.5662376e-13 -1.9515332e-56 -1.9515332e-56)
(9.0923527e-13 -7.0342895e-42 -7.0342895e-42)
(7.9155625e-13 1.013294e-28 2.8137158e-41)
(1.1509362e-12 2.533235e-28 -3.5171447e-41)
(1.2672002e-12 2.1081269e-41 3.039882e-28)
(1.3590327e-12 1.4658777e-41 1.4664675e-41)
(1.0923257e-12 0 1.013294e-28)
(1.1048548e-12 0 2.8137158e-41)
(1.1124699e-12 -2.026588e-28 -2.8137158e-41)
(9.8103739e-13 -5.06647e-29 1.013294e-28)
(1.1105428e-12 -8.4353875e-41 1.013294e-28)
(8.0627073e-13 -4.053176e-28 4.053176e-28)
(8.2108846e-13 4.053176e-28 -6.5242298e-71)
(6.6409074e-13 0 0)
(7.3574534e-13 -5.573117e-28 -1.4636499e-56)
(5.556584e-13 -3.546529e-28 3.546529e-28)
(4.2211518e-13 -2.3088792e-41 2.3088792e-41)
(4.7450082e-13 -5.06647e-29 2.4394166e-56)
(4.1129212e-13 0 2.8108358e-41)
(4.3753636e-13 -1.519941e-28 2.1599661e-44)
(2.0885659e-13 -5.06647e-29 5.06647e-29)
(1.1043791e-13 -4.053176e-28 4.053176e-28)
(7.1820138e-14 -2.533235e-28 7.0342895e-41)
(1.5859337e-13 1.013294e-28 -1.013294e-28)
(-9.9731557e-14 1.013294e-28 1.4054179e-41)
(-1.8000103e-13 7.0270896e-42 -7.0270896e-42)
(2.8317327e-14 -2.5658541e-43 -2.5658541e-43)
(-8.8019669e-14 -2.8137158e-41 1.013294e-28)
(4.9765216e-15 2.026588e-28 3.9030665e-56)
(-1.89194e-13 0 -6.3330205e-41)
(-2.2384383e-13 0 1.1260623e-40)
(-3.4030979e-13 0 -1.4061379e-40)
(-3.3524563e-13 4.053176e-28 -1.1254863e-40)
(-1.4398468e-13 1.013294e-28 1.9515332e-56)
(-1.0011157e-13 0 0)
(-2.7764384e-13 2.533235e-28 -2.533235e-28)
(-3.5894774e-13 6.3179007e-41 0)
(-2.7203914e-13 -2.533235e-28 0)
(-4.2617885e-13 0 5.06647e-29)
(-6.0852512e-13 0 -1.4068579e-41)
(-5.0626974e-13 -5.06647e-29 5.06647e-29)
(-1.880097e-13 2.1081269e-41 0)
(-3.8397641e-13 -3.5099449e-41 0)
(-4.1056237e-13 2.026588e-28 4.053176e-28)
(-3.1868932e-13 -1.519941e-28 1.2653081e-40)
(-4.0142873e-13 4.2162538e-41 -2.026588e-28)
(-4.6867774e-13 5.06647e-29 5.06647e-29)
(-3.6899006e-13 0 -7.1998869e-45)
(-9.7542792e-14 2.026588e-28 2.8137158e-41)
(-2.3082683e-13 7.0342895e-42 5.06647e-29)
(-3.4617484e-13 -5.06647e-29 0)
(-2.1567374e-13 2.533235e-28 0)
(-4.1673524e-13 -2.026588e-28 0)
(-5.1641003e-13 -2.026588e-28 2.026588e-28)
(-5.964537e-13 -5.06647e-29 -1.4054179e-41)
(-7.5141743e-13 0 1.013294e-28)
(-7.4304884e-13 1.013294e-28 0)
(-8.1792948e-13 3.546529e-28 0)
(-9.0525874e-13 -3.039882e-28 -3.039882e-28)
(-8.5778759e-13 -9.4929377e-43 -1.9380795e-56)
(-5.9904549e-13 0 -3.039882e-28)
(-7.1573158e-13 2.026588e-28 0)
(-5.3778649e-13 -1.013294e-28 0)
(-5.0742033e-13 -1.519941e-28 1.519941e-28)
(-4.6881245e-13 1.428459e-41 3.9704794e-54)
(-4.1824663e-13 1.013294e-28 1.4075779e-41)
(-7.8234721e-13 2.8137158e-41 1.4068579e-41)
(-6.4938391e-13 3.039882e-28 1.013294e-28)
(-6.5046909e-13 -4.8788331e-57 5.06647e-29)
(-5.8526834e-13 1.013294e-28 -2.8122758e-41)
(-5.9043935e-13 1.013294e-28 1.4061379e-41)
(-5.7811305e-13 -7.8446184e-54 -4.0403245e-54)
(-2.4342559e-13 -1.013294e-28 -5.06647e-29)
(-3.7924108e-13 -5.06647e-29 0)
(-6.6222896e-13 2.533235e-28 0)
(-4.6980125e-13 -2.026588e-28 -2.026588e-28)
(-4.0820297e-13 3.4211388e-43 -6.434447e-86)
(-5.330463e-13 -2.907968e-42 -1.453984e-42)
(-7.3398105e-13 0 0)
(-8.1373509e-13 0 0)
(-6.5841542e-13 -1.013294e-28 -5.06647e-29)
(-6.654241e-13 -7.806133e-56 -1.5612266e-55)
(-4.2350425e-13 -6.079764e-28 -3.039882e-28)
(-5.0315321e-13 0 0)
(-3.3151414e-13 0 0)
(-3.3660322e-13 2.026588e-28 1.013294e-28)
(-1.3393757e-13 -2.9649932e-70 -5.9299863e-70)
(9.7330398e-14 -3.039882e-28 -1.519941e-28)
(3.0343223e-14 0 0)
(-1.9532239e-13 0 0)
(-1.2054099e-13 2.8098774e-41 1.4049387e-41)
(-7.8630235e-14 1.013294e-28 -1.4399774e-44)
(-2.5447395e-13 -4.053176e-28 -2.026588e-28)
(-4.3651486e-13 -1.519941e-28 1.519941e-28)
(-5.8139684e-13 0 -2.6731922e-56)
(-6.8221479e-13 -1.0691059e-43 -1.4851068e-56)
(-9.6801992e-13 -5.6274316e-41 -2.8137158e-41)
(-8.2498361e-13 -3.039882e-28 -1.519941e-28)
(-9.776695e-13 -1.013294e-28 0)
(-1.0414221e-12 0 0)
(-9.2961979e-13 -5.06647e-29 0)
(-7.7165602e-13 1.013294e-28 0)
(-8.7351614e-13 1.4399774e-44 0)
(-9.9701207e-13 1.519941e-28 -1.519941e-28)
(-8.782361e-13 5.06647e-29 -1.4061379e-41)
(-6.7085885e-13 -1.013294e-28 -1.013294e-28)
(-7.8342015e-13 3.039882e-28 0)
(-8.6064381e-13 -3.039882e-28 0)
(-7.7050993e-13 1.519941e-28 0)
(-6.5360217e-13 -4.2205737e-41 0)
(-5.8931718e-13 2.1382118e-43 0)
(-3.9028788e-13 -1.519941e-28 0)
(-4.6927577e-13 -8.4411474e-41 0)
(-4.4030363e-13 1.013294e-28 -1.013294e-28)
(-2.2362402e-13 5.06647e-29 -2.8122758e-41)
(-1.5715354e-13 1.013294e-28 1.013294e-28)
(-3.1749548e-13 2.026588e-28 0)
(-5.3327172e-13 -4.559823e-28 0)
(-6.9677773e-13 -4.053176e-28 0)
(-6.057632e-13 -3.7508629e-54 0)
(-3.1155604e-13 -5.06647e-29 0)
(-4.5970594e-13 9.0874e-43 0)
(-5.4374427e-13 7.1998869e-45 0)
(-5.1851376e-13 -5.06647e-29 5.06647e-29)
(-3.5562255e-13 -2.8550009e-41 7.9452499e-54)
(-3.393463e-13 1.013294e-28 1.013294e-28)
(-2.413297e-13 1.013294e-28 0)
(-4.1725236e-13 -1.519941e-28 0)
(-3.1448922e-13 -7.093058e-28 -3.546529e-28)
(-4.1055237e-13 3.0966713e-40 1.5483357e-40)
(-1.8133727e-13 6.079764e-28 3.039882e-28)
(-1.7942682e-13 -1.013294e-28 0)
(-5.7540025e-14 2.8799547e-44 0)
(-5.0901457e-16 3.039882e-28 0)
(7.991698e-14 -1.4399774e-44 5.06647e-29)
(1.2342723e-13 1.013294e-28 2.8151558e-41)
(-1.4085545e-14 0 -5.06647e-29)
(2.9838011e-14 -1.013294e-28 0)
(1.148798e-13 0 0)
(1.5182092e-13 -1.519941e-28 0)
(4.6203536e-14 0 0)
(1.8527972e-13 0 0)
(2.6585481e-13 0 0)
(3.5831495e-13 -5.06647e-29 0)
(5.0075171e-13 -1.4636499e-56 5.06647e-29)
(4.8286348e-13 1.519941e-28 2.1599661e-44)
(3.5539906e-13 0 2.533235e-28)
(7.1332499e-13 -5.06647e-29 0)
(5.5155152e-13 2.8137158e-41 0)
(5.0888329e-13 -5.06647e-29 0)
(5.7856229e-13 0 0)
(5.8231118e-13 0 0)
(3.958011e-13 0 0)
(4.9029247e-13 -2.533235e-28 0)
(6.4298141e-13 8.4411474e-41 -3.039882e-28)
(5.4359956e-13 3.546529e-28 -5.0399208e-44)
(7.2386113e-13 0 3.546529e-28)
(7.8316174e-13 2.026588e-28 0)
(8.3415205e-13 1.4061379e-41 0)
(7.9774001e-13 7.6975624e-43 0)
(8.9737958e-13 0 6.4146353e-44)
(7.2772306e-13 5.06647e-29 2.8129958e-41)
(7.612801e-13 -1.519941e-28 1.519941e-28)
(7.7800028e-13 5.6303115e-41 0)
(7.8971735e-13 -7.0560988e-43 7.0560988e-43)
(7.3128848e-13 -5.06647e-29 -1.4075779e-41)
(5.5522953e-13 0 1.519941e-28)
(4.5490806e-13 -2.026588e-28 0)
(6.2116212e-13 -2.8137158e-41 0)
(4.134943e-13 1.519941e-28 -1.519941e-28)