/*--------------------------------*- C++ -*----------------------------------*\
  =========                 |
  \\      /  F ield         | OpenFOAM: The Open Source CFD Toolbox
   \\    /   O peration     | Website:  https://openfoam.org
    \\  /    A nd           | Version:  7
     \\/     M anipulation  |
\*---------------------------------------------------------------------------*/
FoamFile
{
    version     2.0;
    format      ascii;
    class       volScalarField;
    location    "0.00135";
    object      rho;
}
// * * * * * * * * * * * * * * * * * * * * * * * * * * * * * * * * * * * * * //

dimensions      [1 -3 0 0 0 0 0];

internalField   nonuniform List<scalar> 
5000
(
1.2008178
1.2008498
1.2008996
1.2009394
1.2009892
1.2010264
1.2010742
1.2011096
1.2011553
1.201189
1.2012325
1.2012644
1.2013057
1.2013358
1.2013747
1.201403
1.2014394
1.2014658
1.2014997
1.2015242
1.2015555
1.201578
1.2016067
1.2016272
1.2016532
1.2016716
1.2016948
1.2017111
1.2017316
1.2017458
1.2017635
1.2017755
1.2017903
1.2018001
1.2018121
1.2018196
1.2018287
1.201834
1.20184
1.201843
1.2018461
1.2018467
1.2018468
1.2018447
1.2018421
1.2018373
1.2018319
1.2018244
1.2018163
1.201806
1.2017951
1.201782
1.2017684
1.2017526
1.2017363
1.2017178
1.2016987
1.2016775
1.2016557
1.2016318
1.2016073
1.2015806
1.2015533
1.2015239
1.2014939
1.2014616
1.2014288
1.2013938
1.2013583
1.2013205
1.2012821
1.2012415
1.2012003
1.2011569
1.201113
1.2010668
1.20102
1.2009711
1.2009215
1.2008698
1.2008175
1.200763
1.2007079
1.2006507
1.2005929
1.2005329
1.2004724
1.2004097
1.2003465
1.2002811
1.2002151
1.2001471
1.2000785
1.2000077
1.1999365
1.1998631
1.1997893
1.1997132
1.1996368
1.1995582
1.1994792
1.199398
1.1993164
1.1992327
1.1991486
1.1990625
1.1989759
1.1988873
1.1987982
1.1987072
1.1986158
1.1985223
1.1984286
1.1983328
1.1982367
1.1981387
1.1980403
1.19794
1.1978394
1.1977368
1.197634
1.1975292
1.1974243
1.1973173
1.1972102
1.1971011
1.1969919
1.1968807
1.1967694
1.1966561
1.1965427
1.1964274
1.196312
1.1961947
1.1960773
1.1959581
1.1958387
1.1957175
1.1955963
1.1954732
1.19535
1.1952251
1.1951001
1.1949733
1.1948466
1.194718
1.1945895
1.1944592
1.194329
1.194197
1.1940651
1.1939314
1.1937979
1.1936626
1.1935275
1.1933907
1.1932539
1.1931156
1.1929774
1.1928376
1.1926979
1.1925567
1.1924156
1.192273
1.1921306
1.1919866
1.1918429
1.1916977
1.1915527
1.1914062
1.19126
1.1911123
1.190965
1.1908162
1.1906677
1.1905177
1.1903682
1.1902172
1.1900666
1.1899146
1.189763
1.18961
1.1894575
1.1893035
1.1891501
1.1889953
1.1888409
1.1886853
1.1885301
1.1883737
1.1882176
1.1880605
1.1879035
1.1877458
1.1875881
1.1874297
1.1872712
1.1871123
1.1869532
1.1867936
1.1866339
1.1864738
1.1863135
1.1861529
1.1859921
1.1858311
1.1856698
1.1855083
1.1853466
1.1851848
1.1850227
1.1848605
1.1846981
1.1845356
1.1843729
1.1842101
1.1840472
1.1838842
1.1837212
1.183558
1.1833948
1.1832315
1.1830681
1.1829048
1.1827414
1.182578
1.1824146
1.1822512
1.1820879
1.1819246
1.1817614
1.1815982
1.1814351
1.1812722
1.1811093
1.1809465
1.1807839
1.1806215
1.1804592
1.180297
1.1801351
1.1799734
1.1798118
1.1796505
1.1794895
1.1793287
1.1791681
1.1790079
1.1788479
1.1786882
1.1785288
1.1783698
1.178211
1.1780527
1.1778946
1.177737
1.1775797
1.1774229
1.1772664
1.1771103
1.1769547
1.1767995
1.1766448
1.1764905
1.1763368
1.1761835
1.1760307
1.1758784
1.1757266
1.1755754
1.1754247
1.1752746
1.1751251
1.1749762
1.1748278
1.1746801
1.174533
1.1743866
1.1742408
1.1740957
1.1739512
1.1738075
1.1736645
1.1735222
1.1733806
1.1732398
1.1730998
1.1729605
1.172822
1.1726844
1.1725476
1.1724116
1.1722764
1.1721421
1.1720088
1.1718763
1.1717447
1.171614
1.1714843
1.1713555
1.1712277
1.1711009
1.1709751
1.1708503
1.1707265
1.1706038
1.1704821
1.1703614
1.1702419
1.1701234
1.1700061
1.1698899
1.1697748
1.1696608
1.169548
1.1694364
1.169326
1.1692167
1.1691087
1.1690019
1.1688963
1.168792
1.168689
1.1685872
1.1684867
1.1683874
1.1682895
1.168193
1.1680977
1.1680038
1.1679112
1.16782
1.1677302
1.1676418
1.1675547
1.1674691
1.1673849
1.1673021
1.1672208
1.1671409
1.1670625
1.1669855
1.16691
1.1668361
1.1667636
1.1666926
1.1666231
1.1665552
1.1664888
1.1664239
1.1663606
1.1662989
1.1662387
1.1661801
1.1661231
1.1660676
1.1660138
1.1659616
1.1659109
1.1658619
1.1658145
1.1657688
1.1657246
1.1656821
1.1656412
1.165602
1.1655644
1.1655284
1.1654941
1.1654614
1.1654304
1.1654011
1.1653733
1.1653473
1.1653229
1.1653001
1.165279
1.1652595
1.1652417
1.1652255
1.1652109
1.165198
1.1651867
1.165177
1.1651689
1.1651625
1.1651576
1.1651544
1.1651529
1.1651529
1.1651545
1.1651577
1.1651625
1.1651688
1.1651767
1.1651861
1.165197
1.1652095
1.1652234
1.1652389
1.1652558
1.1652743
1.1652942
1.1653155
1.1653383
1.1653626
1.1653882
1.1654153
1.1654437
1.1654735
1.1655047
1.1655372
1.1655711
1.1656062
1.1656427
1.1656805
1.1657195
1.1657598
1.1658014
1.1658441
1.1658881
1.1659333
1.1659796
1.1660272
1.1660758
1.1661256
1.1661765
1.1662285
1.1662816
1.1663357
1.1663909
1.1664471
1.1665043
1.1665625
1.1666217
1.1666819
1.1667429
1.166805
1.1668679
1.1669317
1.1669963
1.1670619
1.1671282
1.1671954
1.1672634
1.1673321
1.1674017
1.167472
1.167543
1.1676147
1.1676871
1.1677603
1.167834
1.1679085
1.1679835
1.1680592
1.1681355
1.1682124
1.1682898
1.1683678
1.1684464
1.1685254
1.168605
1.1686851
1.1687656
1.1688466
1.1689281
1.16901
1.1690924
1.1691751
1.1692583
1.1693418
1.1694257
1.16951
1.1695946
1.1696796
1.1697649
1.1698505
1.1699364
1.1700227
1.1701092
1.1701959
1.170283
1.1703703
1.1704579
1.1705457
1.1706337
1.1707219
1.1708104
1.1708991
1.1709879
1.171077
1.1711662
1.1712557
1.1713452
1.171435
1.1715249
1.171615
1.1717052
1.1717955
1.171886
1.1719766
1.1720674
1.1721582
1.1722492
1.1723403
1.1724315
1.1725228
1.1726141
1.1727056
1.1727972
1.1728888
1.1729806
1.1730724
1.1731642
1.1732562
1.1733482
1.1734403
1.1735324
1.1736246
1.1737168
1.1738091
1.1739015
1.1739939
1.1740863
1.1741788
1.1742713
1.1743638
1.1744564
1.174549
1.1746417
1.1747344
1.1748271
1.1749198
1.1750125
1.1751053
1.1751981
1.1752909
1.1753837
1.1754765
1.1755694
1.1756622
1.1757551
1.1758479
1.1759408
1.1760337
1.1761266
1.1762195
1.1763124
1.1764053
1.1764982
1.1765911
1.176684
1.1767769
1.1768698
1.1769627
1.1770556
1.1771485
1.1772414
1.1773343
1.1774271
1.17752
1.1776129
1.1777057
1.1777986
1.1778914
1.1779843
1.1780771
1.1781699
1.1782627
1.1783555
1.1784483
1.1785411
1.1786339
1.1787267
1.1788194
1.1789122
1.1790049
1.1790977
1.1791904
1.1792831
1.1793758
1.1794685
1.1795612
1.1796539
1.1797465
1.1798392
1.1799318
1.1800245
1.1801171
1.1802097
1.1803023
1.1803949
1.1804875
1.1805801
1.1806727
1.1807653
1.1808579
1.1809504
1.181043
1.1811355
1.1812281
1.1813206
1.1814132
1.1815057
1.1815982
1.1816907
1.1817832
1.1818758
1.1819683
1.1820608
1.1821533
1.1822458
1.1823383
1.1824308
1.1825232
1.1826157
1.1827082
1.1828007
1.1828932
1.1829857
1.1830781
1.1831706
1.1832631
1.1833556
1.183448
1.1835405
1.183633
1.1837255
1.1838179
1.1839104
1.1840029
1.1840953
1.1841878
1.1842803
1.1843727
1.1844652
1.1845576
1.1846501
1.1847425
1.184835
1.1849274
1.1850199
1.1851123
1.1852047
1.1852972
1.1853896
1.185482
1.1855744
1.1856669
1.1857593
1.1858517
1.1859441
1.1860365
1.1861289
1.1862212
1.1863136
1.186406
1.1864984
1.1865907
1.1866831
1.1867754
1.1868678
1.1869601
1.1870524
1.1871447
1.187237
1.1873293
1.1874216
1.1875139
1.1876062
1.1876984
1.1877907
1.1878829
1.1879752
1.1880674
1.1881596
1.1882518
1.188344
1.1884362
1.1885284
1.1886205
1.1887127
1.1888049
1.188897
1.1889891
1.1890812
1.1891733
1.1892654
1.1893575
1.1894496
1.1895417
1.1896337
1.1897258
1.1898178
1.1899098
1.1900018
1.1900938
1.1901858
1.1902778
1.1903698
1.1904617
1.1905537
1.1906456
1.1907375
1.1908294
1.1909213
1.1910132
1.1911051
1.1911969
1.1912888
1.1913806
1.1914725
1.1915643
1.1916561
1.1917479
1.1918397
1.1919314
1.1920232
1.1921149
1.1922067
1.1922984
1.1923901
1.1924818
1.1925735
1.1926652
1.1927569
1.1928485
1.1929402
1.1930318
1.1931234
1.193215
1.1933066
1.1933982
1.1934898
1.1935813
1.1936729
1.1937644
1.193856
1.1939475
1.194039
1.1941305
1.194222
1.1943135
1.194405
1.1944964
1.1945879
1.1946793
1.1947707
1.1948621
1.1949536
1.1950449
1.1951364
1.1952277
1.1953191
1.1954105
1.1955018
1.1955932
1.1956845
1.1957759
1.1958672
1.1959585
1.1960498
1.1961411
1.1962324
1.1963237
1.196415
1.1965063
1.1965976
1.1966889
1.1967801
1.1968714
1.1969626
1.1970539
1.1971452
1.1972364
1.1973277
1.1974189
1.1975101
1.1976014
1.1976926
1.1977838
1.197875
1.1979662
1.1980575
1.1981487
1.1982399
1.1983311
1.1984223
1.1985135
1.1986047
1.1986959
1.1987871
1.1988783
1.1989695
1.1990607
1.1991519
1.1992431
1.1993343
1.1994254
1.1995166
1.1996078
1.1996989
1.1997901
1.1998813
1.1999725
1.2000636
1.2001548
1.2002459
1.2003371
1.2004282
1.2005194
1.2006105
1.2007017
1.2007928
1.2008839
1.200975
1.2010661
1.2011573
1.2012484
1.2013395
1.2014305
1.2015217
1.2016127
1.2017038
1.2017949
1.2018859
1.201977
1.202068
1.2021591
1.2022501
1.2023412
1.2024322
1.2025232
1.2026142
1.2027052
1.2027962
1.2028872
1.2029781
1.2030691
1.2031601
1.203251
1.2033419
1.2034329
1.2035238
1.2036147
1.2037056
1.2037965
1.2038874
1.2039782
1.2040691
1.2041599
1.2042508
1.2043416
1.2044324
1.2045232
1.204614
1.2047048
1.2047956
1.2048864
1.2049771
1.2050678
1.2051586
1.2052493
1.20534
1.2054307
1.2055214
1.2056121
1.2057027
1.2057934
1.205884
1.2059747
1.2060653
1.2061559
1.2062465
1.2063371
1.2064277
1.2065183
1.2066088
1.2066994
1.2067899
1.2068804
1.2069709
1.2070615
1.2071519
1.2072424
1.2073329
1.2074233
1.2075138
1.2076042
1.2076947
1.2077851
1.2078755
1.2079659
1.2080563
1.2081466
1.208237
1.2083274
1.2084177
1.2085081
1.2085984
1.2086887
1.208779
1.2088693
1.2089596
1.2090499
1.2091402
1.2092304
1.2093207
1.2094109
1.2095011
1.2095914
1.2096816
1.2097719
1.2098621
1.2099523
1.2100425
1.2101326
1.2102229
1.210313
1.2104032
1.2104934
1.2105835
1.2106737
1.2107638
1.210854
1.2109441
1.2110343
1.2111244
1.2112145
1.2113047
1.2113948
1.2114849
1.211575
1.2116651
1.2117552
1.2118453
1.2119354
1.2120255
1.2121156
1.2122057
1.2122958
1.2123858
1.2124759
1.212566
1.212656
1.2127461
1.2128361
1.2129262
1.2130163
1.2131063
1.2131964
1.2132864
1.2133764
1.2134665
1.2135565
1.2136465
1.2137365
1.2138266
1.2139166
1.2140066
1.2140966
1.2141866
1.2142766
1.2143666
1.2144566
1.2145466
1.2146365
1.2147265
1.2148165
1.2149065
1.2149964
1.2150864
1.2151763
1.2152663
1.2153562
1.2154462
1.2155361
1.215626
1.215716
1.2158059
1.2158958
1.2159857
1.2160756
1.2161655
1.2162554
1.2163452
1.2164352
1.216525
1.2166149
1.2167047
1.2167946
1.2168844
1.2169743
1.2170641
1.2171539
1.2172437
1.2173335
1.2174233
1.2175131
1.2176029
1.2176926
1.2177824
1.2178721
1.2179619
1.2180516
1.2181413
1.218231
1.2183208
1.2184104
1.2185001
1.2185898
1.2186795
1.2187691
1.2188588
1.2189484
1.219038
1.2191276
1.2192173
1.2193068
1.2193964
1.219486
1.2195756
1.2196651
1.2197546
1.2198442
1.2199337
1.2200232
1.2201127
1.2202022
1.2202916
1.2203811
1.2204705
1.22056
1.2206494
1.2207388
1.2208282
1.2209175
1.2210069
1.2210963
1.2211856
1.2212749
1.2213642
1.2214536
1.2215428
1.2216321
1.2217214
1.2218106
1.2218999
1.2219891
1.2220783
1.2221675
1.2222567
1.2223459
1.222435
1.2225242
1.2226133
1.2227024
1.2227916
1.2228806
1.2229698
1.2230588
1.2231479
1.2232369
1.223326
1.223415
1.223504
1.223593
1.223682
1.2237709
1.2238599
1.2239488
1.2240378
1.2241267
1.2242156
1.2243045
1.2243934
1.2244823
1.2245712
1.2246601
1.2247489
1.2248378
1.2249266
1.2250154
1.2251042
1.2251931
1.2252818
1.2253706
1.2254594
1.2255482
1.225637
1.2257257
1.2258145
1.2259032
1.225992
1.2260807
1.2261694
1.2262582
1.2263469
1.2264356
1.2265243
1.226613
1.2267017
1.2267904
1.2268791
1.2269678
1.2270564
1.2271451
1.2272338
1.2273224
1.2274111
1.2274998
1.2275884
1.2276771
1.2277657
1.2278544
1.227943
1.2280317
1.2281203
1.2282089
1.2282976
1.2283862
1.2284748
1.2285635
1.2286521
1.2287407
1.2288294
1.228918
1.2290066
1.2290952
1.2291838
1.2292725
1.2293611
1.2294497
1.2295383
1.2296269
1.2297155
1.2298041
1.2298927
1.2299813
1.2300699
1.2301585
1.2302471
1.2303357
1.2304243
1.2305128
1.2306014
1.23069
1.2307786
1.2308671
1.2309557
1.2310443
1.2311328
1.2312214
1.2313099
1.2313985
1.231487
1.2315756
1.2316641
1.2317527
1.2318412
1.2319297
1.2320182
1.2321068
1.2321952
1.2322838
1.2323723
1.2324607
1.2325492
1.2326377
1.2327262
1.2328147
1.2329031
1.2329916
1.2330801
1.2331685
1.233257
1.2333454
1.2334338
1.2335222
1.2336106
1.2336991
1.2337875
1.2338758
1.2339642
1.2340526
1.234141
1.2342293
1.2343177
1.234406
1.2344944
1.2345827
1.234671
1.2347593
1.2348476
1.2349359
1.2350242
1.2351125
1.2352008
1.235289
1.2353773
1.2354656
1.2355538
1.235642
1.2357302
1.2358184
1.2359067
1.2359949
1.236083
1.2361712
1.2362594
1.2363475
1.2364357
1.2365238
1.236612
1.2367001
1.2367882
1.2368763
1.2369644
1.2370525
1.2371406
1.2372286
1.2373167
1.2374047
1.2374927
1.2375808
1.2376688
1.2377568
1.2378448
1.2379328
1.2380208
1.2381087
1.2381967
1.2382846
1.2383726
1.2384605
1.2385484
1.2386364
1.2387242
1.2388121
1.2389
1.2389879
1.2390758
1.2391636
1.2392514
1.2393392
1.2394271
1.2395149
1.2396027
1.2396905
1.2397782
1.2398661
1.2399538
1.2400416
1.2401293
1.240217
1.2403048
1.2403925
1.2404802
1.2405679
1.2406556
1.2407432
1.2408309
1.2409186
1.2410062
1.2410939
1.2411815
1.2412691
1.2413567
1.2414444
1.2415319
1.2416195
1.241707
1.2417946
1.2418821
1.2419697
1.2420572
1.2421447
1.2422322
1.2423197
1.2424072
1.2424947
1.2425822
1.2426696
1.2427571
1.2428445
1.2429319
1.2430194
1.2431067
1.2431942
1.2432815
1.2433689
1.2434563
1.2435437
1.243631
1.2437183
1.2438057
1.243893
1.2439803
1.2440676
1.2441549
1.2442421
1.2443294
1.2444166
1.2445038
1.2445911
1.2446783
1.2447655
1.2448528
1.2449399
1.2450271
1.2451143
1.2452014
1.2452885
1.2453756
1.2454627
1.2455498
1.2456368
1.2457239
1.245811
1.245898
1.245985
1.246072
1.246159
1.246246
1.246333
1.2464199
1.2465069
1.2465938
1.2466806
1.2467675
1.2468543
1.2469412
1.247028
1.2471148
1.2472016
1.2472884
1.2473751
1.2474619
1.2475487
1.2476355
1.2477224
1.2478094
1.2478964
1.2479834
1.2480704
1.2481574
1.2482444
1.2483313
1.2484183
1.2485052
1.2485921
1.248679
1.2487659
1.2488527
1.2489396
1.2490264
1.2491132
1.2492
1.2492868
1.2493736
1.2494604
1.2495471
1.2496338
1.2497206
1.2498073
1.249894
1.2499807
1.2500673
1.250154
1.2502406
1.2503273
1.2504139
1.2505005
1.2505871
1.2506737
1.2507603
1.2508468
1.2509334
1.2510199
1.2511065
1.251193
1.2512795
1.251366
1.2514525
1.251539
1.2516255
1.2517119
1.2517984
1.2518848
1.2519713
1.2520577
1.2521441
1.2522305
1.2523169
1.2524033
1.2524897
1.252576
1.2526624
1.2527487
1.2528351
1.2529214
1.2530077
1.253094
1.2531803
1.2532666
1.2533529
1.2534391
1.2535254
1.2536117
1.2536979
1.2537841
1.2538703
1.2539566
1.2540428
1.254129
1.2542151
1.2543013
1.2543875
1.2544736
1.2545598
1.2546459
1.254732
1.2548182
1.2549043
1.2549904
1.2550765
1.2551625
1.2552486
1.2553347
1.2554207
1.2555068
1.2555928
1.2556788
1.2557648
1.2558508
1.2559368
1.2560228
1.2561088
1.2561948
1.2562807
1.2563667
1.2564526
1.2565386
1.2566245
1.2567104
1.2567963
1.2568822
1.2569681
1.2570539
1.2571398
1.2572257
1.2573115
1.2573974
1.2574832
1.257569
1.2576548
1.2577406
1.2578264
1.2579122
1.257998
1.2580837
1.2581695
1.2582553
1.258341
1.2584267
1.2585124
1.2585982
1.2586839
1.2587696
1.2588552
1.2589409
1.2590266
1.2591122
1.2591979
1.2592835
1.2593692
1.2594548
1.2595404
1.259626
1.2597116
1.2597972
1.2598828
1.2599683
1.2600539
1.2601395
1.260225
1.2603105
1.2603961
1.2604816
1.2605671
1.2606526
1.2607381
1.2608236
1.260909
1.2609945
1.26108
1.2611654
1.2612509
1.2613363
1.2614217
1.2615071
1.2615925
1.2616779
1.2617633
1.2618487
1.2619341
1.2620195
1.2621048
1.2621902
1.2622755
1.2623609
1.2624462
1.2625315
1.2626168
1.2627021
1.2627874
1.2628727
1.262958
1.2630432
1.2631285
1.2632138
1.263299
1.2633843
1.2634695
1.2635547
1.2636399
1.2637251
1.2638103
1.2638955
1.2639807
1.2640659
1.2641511
1.2642362
1.2643214
1.2644065
1.2644917
1.2645768
1.2646619
1.2647471
1.2648322
1.2649173
1.2650024
1.2650875
1.2651726
1.2652576
1.2653427
1.2654278
1.2655128
1.2655979
1.2656829
1.2657679
1.265853
1.265938
1.266023
1.266108
1.266193
1.266278
1.266363
1.266448
1.2665329
1.2666179
1.2667029
1.2667878
1.2668728
1.2669577
1.2670426
1.2671275
1.2672125
1.2672974
1.2673823
1.2674672
1.2675521
1.267637
1.2677218
1.2678067
1.2678916
1.2679764
1.2680613
1.2681461
1.2682309
1.2683158
1.2684006
1.2684854
1.2685702
1.268655
1.2687398
1.2688246
1.2689094
1.2689942
1.2690789
1.2691637
1.2692484
1.2693332
1.2694179
1.2695027
1.2695874
1.2696721
1.2697568
1.2698415
1.2699263
1.2700109
1.2700956
1.2701803
1.270265
1.2703497
1.2704343
1.270519
1.2706036
1.2706883
1.2707729
1.2708575
1.2709422
1.2710268
1.2711114
1.271196
1.2712806
1.2713652
1.2714498
1.2715344
1.2716189
1.2717035
1.2717881
1.2718726
1.2719572
1.2720417
1.2721263
1.2722108
1.2722953
1.2723798
1.2724644
1.2725489
1.2726334
1.2727179
1.2728023
1.2728868
1.2729713
1.2730558
1.2731403
1.2732247
1.2733092
1.2733936
1.2734781
1.2735625
1.2736469
1.2737313
1.2738158
1.2739002
1.2739846
1.274069
1.2741534
1.2742378
1.2743222
1.2744065
1.2744909
1.2745753
1.2746597
1.274744
1.2748284
1.2749128
1.2749971
1.2750814
1.2751658
1.2752501
1.2753344
1.2754187
1.275503
1.2755873
1.2756716
1.2757559
1.2758402
1.2759245
1.2760088
1.2760931
1.2761774
1.2762616
1.2763459
1.2764301
1.2765144
1.2765986
1.2766829
1.2767671
1.2768514
1.2769356
1.2770198
1.277104
1.2771882
1.2772724
1.2773566
1.2774408
1.277525
1.2776092
1.2776934
1.2777776
1.2778617
1.2779459
1.27803
1.2781142
1.2781983
1.2782825
1.2783666
1.2784507
1.2785349
1.278619
1.2787031
1.2787872
1.2788714
1.2789555
1.2790396
1.2791237
1.2792077
1.2792918
1.2793759
1.2794599
1.279544
1.2796281
1.2797121
1.2797962
1.2798802
1.2799643
1.2800483
1.2801323
1.2802163
1.2803003
1.2803844
1.2804684
1.2805524
1.2806363
1.2807203
1.2808043
1.2808883
1.2809723
1.2810562
1.2811402
1.2812241
1.2813081
1.281392
1.281476
1.2815599
1.2816438
1.2817277
1.2818116
1.2818955
1.2819794
1.2820633
1.2821472
1.2822311
1.282315
1.2823989
1.2824827
1.2825666
1.2826504
1.2827343
1.2828181
1.2829019
1.2829858
1.2830696
1.2831534
1.2832372
1.283321
1.2834048
1.2834886
1.2835724
1.2836561
1.2837399
1.2838236
1.2839074
1.2839911
1.2840749
1.2841586
1.2842423
1.2843261
1.2844098
1.2844935
1.2845772
1.2846608
1.2847445
1.2848282
1.2849118
1.2849955
1.2850792
1.2851628
1.2852464
1.2853301
1.2854137
1.2854973
1.2855809
1.2856645
1.2857481
1.2858317
1.2859153
1.2859988
1.2860824
1.2861659
1.2862495
1.286333
1.2864165
1.2865001
1.2865836
1.2866671
1.2867506
1.2868341
1.2869176
1.287001
1.2870845
1.2871679
1.2872514
1.2873348
1.2874183
1.2875017
1.2875851
1.2876685
1.2877519
1.2878353
1.2879187
1.2880021
1.2880855
1.2881688
1.2882522
1.2883355
1.2884188
1.2885021
1.2885855
1.2886688
1.2887521
1.2888354
1.2889186
1.2890019
1.2890852
1.2891684
1.2892517
1.2893349
1.2894182
1.2895014
1.2895846
1.2896678
1.289751
1.2898342
1.2899174
1.2900005
1.2900837
1.2901669
1.29025
1.2903331
1.2904163
1.2904994
1.2905825
1.2906656
1.2907487
1.2908318
1.2909148
1.2909979
1.291081
1.291164
1.2912471
1.2913301
1.2914131
1.2914961
1.2915791
1.2916621
1.2917451
1.2918281
1.291911
1.291994
1.2920769
1.2921599
1.2922428
1.2923257
1.2924087
1.2924916
1.2925745
1.2926574
1.2927403
1.2928231
1.292906
1.2929888
1.2930717
1.2931545
1.2932374
1.2933202
1.293403
1.2934858
1.2935686
1.2936513
1.2937341
1.2938169
1.2938996
1.2939824
1.2940651
1.2941479
1.2942306
1.2943133
1.294396
1.2944787
1.2945614
1.2946441
1.2947267
1.2948094
1.294892
1.2949747
1.2950573
1.2951399
1.2952225
1.2953051
1.2953877
1.2954703
1.2955529
1.2956355
1.295718
1.2958006
1.2958831
1.2959656
1.2960482
1.2961307
1.2962132
1.2962957
1.2963782
1.2964606
1.2965431
1.2966256
1.296708
1.2967905
1.2968729
1.2969554
1.2970378
1.2971202
1.2972026
1.297285
1.2973674
1.2974497
1.2975321
1.2976145
1.2976968
1.2977791
1.2978615
1.2979438
1.2980261
1.2981084
1.2981907
1.298273
1.2983553
1.2984375
1.2985198
1.298602
1.2986843
1.2987665
1.2988487
1.2989309
1.2990132
1.2990954
1.2991775
1.2992597
1.2993419
1.2994241
1.2995062
1.2995883
1.2996705
1.2997526
1.2998347
1.2999168
1.2999989
1.300081
1.3001631
1.3002452
1.3003273
1.3004093
1.3004914
1.3005734
1.3006554
1.3007374
1.3008195
1.3009015
1.3009835
1.3010654
1.3011474
1.3012294
1.3013114
1.3013933
1.3014752
1.3015572
1.3016391
1.301721
1.3018029
1.3018848
1.3019667
1.3020486
1.3021305
1.3022123
1.3022942
1.302376
1.3024579
1.3025397
1.3026215
1.3027033
1.3027851
1.3028669
1.3029487
1.3030304
1.3031122
1.303194
1.3032757
1.3033575
1.3034392
1.3035209
1.3036026
1.3036843
1.303766
1.3038477
1.3039294
1.3040111
1.3040927
1.3041744
1.304256
1.3043377
1.3044193
1.3045009
1.3045825
1.3046641
1.3047457
1.3048273
1.3049088
1.3049904
1.305072
1.3051535
1.305235
1.3053166
1.3053981
1.3054796
1.3055611
1.3056426
1.3057241
1.3058056
1.305887
1.3059685
1.3060499
1.3061314
1.3062128
1.3062943
1.3063757
1.3064571
1.3065385
1.3066199
1.3067013
1.3067826
1.306864
1.3069453
1.3070267
1.307108
1.3071893
1.3072706
1.3073519
1.3074332
1.3075145
1.3075958
1.3076771
1.3077584
1.3078396
1.3079209
1.3080021
1.3080833
1.3081646
1.3082458
1.308327
1.3084082
1.3084894
1.3085705
1.3086517
1.3087329
1.308814
1.3088951
1.3089763
1.3090574
1.3091385
1.3092196
1.3093007
1.3093818
1.3094629
1.309544
1.309625
1.3097061
1.3097871
1.3098682
1.3099492
1.3100302
1.3101112
1.3101922
1.3102732
1.3103542
1.3104352
1.3105162
1.3105971
1.3106781
1.310759
1.3108399
1.3109208
1.3110017
1.3110826
1.3111635
1.3112444
1.3113253
1.3114062
1.311487
1.3115679
1.3116487
1.3117295
1.3118104
1.3118912
1.311972
1.3120528
1.3121336
1.3122143
1.3122951
1.3123759
1.3124566
1.3125374
1.3126181
1.3126988
1.3127795
1.3128602
1.3129409
1.3130216
1.3131023
1.3131829
1.3132636
1.3133442
1.3134248
1.3135055
1.3135861
1.3136667
1.3137473
1.3138279
1.3139085
1.313989
1.3140696
1.3141501
1.3142307
1.3143112
1.3143917
1.3144722
1.3145527
1.3146332
1.3147137
1.3147941
1.3148746
1.314955
1.3150354
1.3151159
1.3151963
1.3152767
1.315357
1.3154374
1.3155178
1.3155981
1.3156785
1.3157588
1.3158391
1.3159194
1.3159997
1.3160799
1.3161602
1.3162404
1.3163206
1.3164008
1.316481
1.3165612
1.3166414
1.3167216
1.3168017
1.3168818
1.316962
1.3170421
1.3171221
1.3172022
1.3172823
1.3173623
1.3174423
1.3175223
1.3176022
1.3176822
1.3177621
1.317842
1.3179219
1.3180018
1.3180816
1.3181614
1.3182413
1.318321
1.3184008
1.3184806
1.3185603
1.31864
1.3187197
1.3187993
1.3188789
1.3189585
1.3190381
1.3191176
1.3191971
1.3192765
1.319356
1.3194354
1.3195148
1.3195941
1.3196734
1.3197527
1.3198319
1.3199111
1.3199903
1.3200694
1.3201485
1.3202275
1.3203065
1.3203855
1.3204644
1.3205433
1.3206221
1.3207009
1.3207796
1.3208583
1.3209369
1.3210155
1.321094
1.3211725
1.3212509
1.3213293
1.3214076
1.3214858
1.321564
1.3216421
1.3217202
1.3217981
1.3218761
1.3219539
1.3220317
1.3221094
1.322187
1.3222645
1.322342
1.3224194
1.3224967
1.3225739
1.3226511
1.3227281
1.3228051
1.3228819
1.3229587
1.3230354
1.323112
1.3231884
1.3232648
1.3233411
1.3234172
1.3234933
1.3235692
1.323645
1.3237208
1.3237963
1.3238718
1.3239471
1.3240223
1.3240974
1.3241724
1.3242472
1.3243219
1.3243964
1.3244708
1.324545
1.3246191
1.324693
1.3247668
1.3248404
1.3249139
1.3249872
1.3250603
1.3251333
1.3252061
1.3252787
1.3253511
1.3254234
1.3254954
1.3255673
1.325639
1.3257105
1.3257818
1.3258528
1.3259237
1.3259944
1.3260648
1.326135
1.3262051
1.3262748
1.3263444
1.3264138
1.3264829
1.3265517
1.3266204
1.3266887
1.3267569
1.3268247
1.3268924
1.3269597
1.3270268
1.3270936
1.3271602
1.3272265
1.3272925
1.3273583
1.3274238
1.3274889
1.3275538
1.3276184
1.3276827
1.3277467
1.3278103
1.3278737
1.3279368
1.3279995
1.328062
1.3281241
1.3281859
1.3282473
1.3283084
1.3283692
1.3284297
1.3284898
1.3285495
1.3286089
1.328668
1.3287267
1.3287851
1.3288431
1.3289007
1.3289579
1.3290148
1.3290713
1.3291275
1.3291832
1.3292386
1.3292936
1.3293482
1.3294024
1.3294562
1.3295096
1.3295627
1.3296153
1.3296675
1.3297194
1.3297708
1.3298218
1.3298724
1.3299226
1.3299724
1.3300217
1.3300706
1.3301192
1.3301673
1.3302149
1.3302622
1.330309
1.3303554
1.3304013
1.3304468
1.3304919
1.3305366
1.3305808
1.3306246
1.330668
1.3307109
1.3307534
1.3307954
1.330837
1.3308782
1.3309189
1.3309592
1.3309991
1.3310385
1.3310774
1.331116
1.331154
1.3311917
1.3312289
1.3312657
1.331302
1.3313379
1.3313733
1.3314084
1.331443
1.3314771
1.3315108
1.3315441
1.331577
1.3316094
1.3316414
1.3316729
1.3317041
1.3317348
1.3317651
1.3317949
1.3318244
1.3318534
1.331882
1.3319102
1.3319379
1.3319653
1.3319923
1.3320188
1.3320449
1.3320707
1.332096
1.3321209
1.3321455
1.3321696
1.3321934
1.3322168
1.3322398
1.3322624
1.3322847
1.3323065
1.3323281
1.3323492
1.33237
1.3323904
1.3324104
1.3324301
1.3324495
1.3324685
1.3324871
1.3325054
1.3325233
1.332541
1.3325583
1.3325752
1.3325919
1.3326082
1.3326242
1.3326399
1.3326552
1.3326703
1.3326851
1.3326995
1.3327137
1.3327275
1.3327411
1.3327544
1.3327674
1.3327801
1.3327926
1.3328048
1.3328168
1.3328284
1.3328398
1.332851
1.3328619
1.3328725
1.332883
1.3328931
1.3329031
1.3329128
1.3329222
1.3329315
1.3329405
1.3329493
1.3329579
1.3329663
1.3329745
1.3329824
1.3329902
1.3329978
1.3330052
1.3330124
1.3330194
1.3330262
1.3330328
1.3330393
1.3330456
1.3330517
1.3330576
1.3330634
1.3330691
1.3330745
1.3330799
1.333085
1.3330901
1.3330949
1.3330997
1.3331043
1.3331088
1.3331131
1.3331173
1.3331214
1.3331254
1.3331292
1.3331329
1.3331365
1.33314
1.3331434
1.3331467
1.3331498
1.3331529
1.3331558
1.3331586
1.3331614
1.333164
1.3331666
1.3331691
1.3331715
1.3331738
1.333176
1.3331782
1.3331802
1.3331822
1.3331841
1.3331859
1.3331877
1.3331893
1.333191
1.3331925
1.333194
1.3331954
1.3331967
1.333198
1.3331992
1.3332004
1.3332015
1.3332025
1.3332035
1.3332045
1.3332054
1.3332062
1.333207
1.3332077
1.3332084
1.3332091
1.3332097
1.3332102
1.3332107
1.3332112
1.3332116
1.333212
1.3332123
1.3332126
1.3332129
1.3332131
1.3332132
1.3332133
1.3332134
1.3332134
1.3332134
1.3332134
1.3332133
1.3332132
1.333213
1.3332128
1.3332126
1.3332124
1.3332121
1.3332118
1.3332115
1.3332111
1.3332107
1.3332103
1.3332098
1.3332093
1.3332088
1.3332082
1.3332076
1.333207
1.3332064
1.3332057
1.3332051
1.3332044
1.3332037
1.3332031
1.3332024
1.3332017
1.333201
1.3332003
1.3331996
1.3331988
1.3331982
1.3331975
1.3331968
1.3331961
1.3331954
1.3331947
1.333194
1.3331932
1.3331924
1.3331916
1.3331909
1.3331902
1.3331893
1.3331885
1.3331875
1.3331865
1.3331853
1.3331841
1.3331828
1.3331815
1.33318
1.3331785
1.3331768
1.3331749
1.3331726
1.3331701
1.3331671
1.3331641
1.333161
1.3331578
1.3331544
1.333151
1.3331475
1.3331438
1.33314
1.3331361
1.3331321
1.3331279
1.3331236
1.3331193
1.3331149
1.3331105
1.333106
1.3331015
1.3330969
1.3330924
1.3330879
1.3330833
1.3330789
1.3330745
1.33307
1.3330655
1.3330609
1.3330562
1.3330512
1.3330458
1.3330399
1.3330329
1.3330246
1.3330137
1.3329939
1.3329493
1.3328362
1.3325324
1.3316937
1.3293511
1.3247217
1.3194769
1.3138964
1.3081795
1.3025146
1.2970693
1.2919793
1.287342
1.2832168
1.2796275
1.2765687
1.2740125
1.2719155
1.2702252
1.2688852
1.2678398
1.2670365
1.2664282
1.2659737
1.2656386
1.2653944
1.2652183
1.2650925
1.2650032
1.26494
1.2648947
1.2648618
1.2648391
1.2648208
1.2648036
1.2647879
1.2647754
1.264765
1.2647548
1.2647442
1.2647329
1.2647208
1.264708
1.2646946
1.2646805
1.2646659
1.2646507
1.2646351
1.264619
1.2646024
1.2645854
1.264568
1.26455
1.2645317
1.2645129
1.2644937
1.2644741
1.2644541
1.2644337
1.264413
1.2643919
1.2643705
1.2643487
1.2643267
1.2643043
1.2642816
1.2642587
1.2642353
1.2642117
1.2641876
1.2641632
1.2641383
1.264113
1.2640872
1.264061
1.2640343
1.2640071
1.2639793
1.2639511
1.2639223
1.263893
1.2638631
1.2638328
1.2638019
1.2637704
1.2637385
1.263706
1.263673
1.2636394
1.2636054
1.2635709
1.2635358
1.2635002
1.2634642
1.2634277
1.2633907
1.2633532
1.2633152
1.2632767
1.2632378
1.2631984
1.2631585
1.2631181
1.2630773
1.263036
1.2629942
1.262952
1.2629093
1.2628661
1.2628225
1.2627784
1.2627339
1.2626889
1.2626434
1.2625975
1.2625512
1.2625044
1.2624572
1.2624095
1.2623615
1.2623129
1.262264
1.2622145
1.2621647
1.2621145
1.2620638
1.2620127
1.2619611
1.2619092
1.2618568
1.2618041
1.2617509
1.2616973
1.2616434
1.261589
1.2615342
1.2614791
1.2614236
1.2613677
1.2613114
1.2612547
1.2611977
1.2611403
1.2610825
1.2610244
1.2609659
1.2609071
1.2608479
1.2607884
1.2607285
1.2606683
1.2606077
1.2605468
1.2604856
1.2604241
1.2603622
1.2603001
1.2602376
1.2601748
1.2601117
1.2600483
1.2599847
1.2599207
1.2598564
1.2597919
1.2597271
1.259662
1.2595966
1.259531
1.2594651
1.2593989
1.2593325
1.2592659
1.259199
1.2591318
1.2590644
1.2589968
1.258929
1.2588609
1.2587926
1.258724
1.2586553
1.2585863
1.2585172
1.2584478
1.2583782
1.2583084
1.2582385
1.2581683
1.258098
1.2580274
1.2579567
1.2578859
1.2578148
1.2577436
1.2576722
1.2576006
1.2575289
1.257457
1.257385
1.2573128
1.2572405
1.2571681
1.2570954
1.2570227
1.2569498
1.2568768
1.2568037
1.2567304
1.256657
1.2565835
1.2565098
1.2564361
1.2563622
1.2562882
1.2562142
1.25614
1.2560657
1.2559913
1.2559168
1.2558422
1.2557676
1.2556928
1.2556179
1.255543
1.255468
1.2553929
1.2553177
1.2552424
1.2551671
1.2550917
1.2550162
1.2549406
1.254865
1.2547893
1.2547135
1.2546376
1.2545617
1.2544858
1.2544098
1.2543337
1.2542576
1.2541814
1.2541051
1.2540289
1.2539525
1.2538761
1.2537997
1.2537232
1.2536467
1.2535701
1.2534935
1.2534168
1.2533401
1.2532634
1.2531866
1.2531098
1.2530329
1.2529561
1.2528791
1.2528022
1.2527252
1.2526482
1.2525711
1.252494
1.2524169
1.2523397
1.2522626
1.2521853
1.2521081
1.2520309
1.2519536
1.2518763
1.2517989
1.2517216
1.2516442
1.2515668
1.2514894
1.2514119
1.2513344
1.251257
1.2511794
1.2511019
1.2510243
1.2509468
1.2508692
1.2507916
1.2507139
1.2506363
1.2505586
1.2504809
1.2504032
1.2503255
1.2502478
1.2501701
1.2500923
1.2500146
1.2499368
1.249859
1.2497811
1.2497033
1.2496254
1.2495476
1.2494697
1.2493918
1.2493139
1.249236
1.249158
1.2490801
1.2490021
1.2489242
1.2488462
1.2487682
1.2486902
1.2486121
1.2485341
1.2484561
1.248378
1.2482999
1.2482219
1.2481438
1.2480657
1.2479876