/*--------------------------------*- C++ -*----------------------------------*\
  =========                 |
  \\      /  F ield         | OpenFOAM: The Open Source CFD Toolbox
   \\    /   O peration     | Website:  https://openfoam.org
    \\  /    A nd           | Version:  7
     \\/     M anipulation  |
\*---------------------------------------------------------------------------*/
FoamFile
{
    version     2.0;
    format      ascii;
    class       surfaceScalarField;
    location    "0.00107";
    object      phi;
}
// * * * * * * * * * * * * * * * * * * * * * * * * * * * * * * * * * * * * * //

dimensions      [1 0 -1 0 0 0 0];

internalField   nonuniform List<scalar> 
4999
(
1.9895197e-13
2.1316282e-13
2.0605739e-13
2.2026825e-13
2.1316282e-13
2.2737368e-13
2.2026825e-13
2.2737368e-13
2.2026825e-13
1.9895197e-13
2.0605739e-13
1.9184654e-13
1.8474111e-13
1.8474111e-13
1.6342483e-13
1.6342483e-13
1.7053026e-13
1.7763568e-13
1.8474111e-13
1.9184654e-13
1.9184654e-13
1.8474111e-13
1.9184654e-13
1.9184654e-13
1.7053026e-13
1.6342483e-13
1.7053026e-13
1.8474111e-13
1.8474111e-13
1.9184654e-13
1.7763568e-13
1.8474111e-13
1.7763568e-13
1.8474111e-13
1.8474111e-13
1.8474111e-13
1.8474111e-13
1.7053026e-13
1.563194e-13
1.8474111e-13
1.563194e-13
1.7053026e-13
1.7763568e-13
1.8474111e-13
1.7763568e-13
1.6342483e-13
2.0605739e-13
1.9895197e-13
1.9184654e-13
1.8474111e-13
1.8474111e-13
1.9895197e-13
1.9184654e-13
1.6342483e-13
1.7763568e-13
1.7053026e-13
1.9895197e-13
1.8474111e-13
1.7053026e-13
1.7053026e-13
1.6342483e-13
1.7053026e-13
1.4921397e-13
1.7763568e-13
1.7053026e-13
1.7053026e-13
1.7763568e-13
1.7763568e-13
1.8474111e-13
1.7053026e-13
1.9895197e-13
1.9184654e-13
1.9184654e-13
1.9895197e-13
2.0605739e-13
2.2026825e-13
2.1316282e-13
2.2737368e-13
2.4158453e-13
2.2737368e-13
2.344791e-13
2.1316282e-13
2.4868996e-13
2.344791e-13
2.344791e-13
2.344791e-13
2.344791e-13
2.2026825e-13
2.1316282e-13
2.2026825e-13
2.2026825e-13
2.2737368e-13
2.2026825e-13
2.344791e-13
2.344791e-13
2.2026825e-13
2.1316282e-13
2.2026825e-13
2.2026825e-13
2.1316282e-13
2.0605739e-13
2.1316282e-13
2.344791e-13
2.2026825e-13
2.2737368e-13
2.4868996e-13
2.2026825e-13
2.2026825e-13
2.344791e-13
2.2737368e-13
2.1316282e-13
2.2737368e-13
2.2737368e-13
2.344791e-13
2.2026825e-13
2.2026825e-13
2.344791e-13
2.1316282e-13
2.1316282e-13
2.2026825e-13
2.4868996e-13
2.344791e-13
2.6290081e-13
2.6290081e-13
2.6290081e-13
2.6290081e-13
2.9132252e-13
2.9842795e-13
3.0553338e-13
3.2684966e-13
3.1974423e-13
3.2684966e-13
3.3395509e-13
3.4106051e-13
3.3395509e-13
3.5527137e-13
3.4106051e-13
3.623768e-13
3.907985e-13
3.9790393e-13
4.0500936e-13
4.1922021e-13
4.5474735e-13
4.5474735e-13
4.9027449e-13
5.0448534e-13
5.4001248e-13
5.6132876e-13
6.1817218e-13
6.8212103e-13
7.0343731e-13
7.531753e-13
8.1001872e-13
8.7396756e-13
9.4502184e-13
1.0089707e-12
1.0871304e-12
1.1795009e-12
1.2647661e-12
1.3571366e-12
1.4708235e-12
1.612932e-12
1.7337243e-12
1.8758328e-12
2.0392577e-12
2.2311042e-12
2.4229507e-12
2.6219027e-12
2.8634872e-12
3.1121772e-12
3.3679726e-12
3.6664005e-12
4.0216719e-12
4.3840487e-12
4.7819526e-12
5.2295945e-12
5.6914473e-12
6.2314598e-12
6.8069994e-12
7.4251716e-12
8.0859763e-12
8.8675733e-12
9.6633812e-12
1.0537349e-11
1.1503687e-11
1.255529e-11
1.3699264e-11
1.4942714e-11
1.6306956e-11
1.7770674e-11
1.93765e-11
2.1131541e-11
2.302869e-11
2.5103475e-11
2.7355895e-11
2.9800162e-11
3.2464698e-11
3.5363712e-11
3.8554049e-11
4.198597e-11
4.573053e-11
4.9830362e-11
5.4271254e-11
5.9074523e-11
6.4332539e-11
7.0038197e-11
7.6227025e-11
8.2948759e-11
9.0267349e-11
9.8204112e-11
1.0680878e-10
1.1617374e-10
1.263416e-10
1.3735502e-10
1.4933477e-10
1.623377e-10
1.7645618e-10
1.9174706e-10
2.0834534e-10
2.263576e-10
2.4587621e-10
2.6705749e-10
2.8999381e-10
3.1484859e-10
3.4184211e-10
3.7104542e-10
4.0268588e-10
4.3699089e-10
4.7415227e-10
5.1436189e-10
5.5791816e-10
6.0508398e-10
6.5611516e-10
7.1136697e-10
7.7113071e-10
8.3581853e-10
9.0577146e-10
9.8147979e-10
1.0633414e-09
1.1518608e-09
1.2475709e-09
1.3510189e-09
1.4628796e-09
1.5837216e-09
1.7142909e-09
1.8553834e-09
2.0077451e-09
2.1723352e-09
2.350049e-09
2.5419595e-09
2.7491112e-09
2.9726905e-09
3.2140051e-09
3.4743621e-09
3.7552752e-09
4.058279e-09
4.385079e-09
4.7374868e-09
5.117478e-09
5.5270846e-09
5.9686371e-09
6.4444308e-09
6.9571584e-09
7.5095272e-09
8.1045641e-09
8.7454026e-09
9.4355102e-09
1.0178539e-08
1.0978411e-08
1.1839369e-08
1.2765923e-08
1.3762936e-08
1.4835514e-08
1.5989286e-08
1.7230143e-08
1.8564521e-08
1.9999177e-08
2.1541446e-08
2.3199114e-08
2.4980565e-08
2.6894689e-08
2.8951085e-08
3.1159978e-08
3.3532274e-08
3.6079662e-08
3.8814619e-08
4.1750532e-08
4.4901618e-08
4.8283141e-08
5.1911371e-08
5.5803667e-08
5.9978582e-08
6.4455939e-08
6.925687e-08
7.4403928e-08
7.9921179e-08
8.5834294e-08
9.2170666e-08
9.8959482e-08
1.0623189e-07
1.1402111e-07
1.2236249e-07
1.312937e-07
1.4085497e-07
1.5108905e-07
1.6204149e-07
1.7376083e-07
1.8629871e-07
1.9971016e-07
2.1405369e-07
2.2939159e-07
2.4579008e-07
2.6331968e-07
2.820553e-07
3.0207665e-07
3.2346846e-07
3.4632083e-07
3.7072944e-07
3.9679595e-07
4.2462843e-07
4.5434161e-07
4.8605736e-07
5.1990504e-07
5.5602201e-07
5.9455401e-07
6.356557e-07
6.7949124e-07
7.2623471e-07
7.7607066e-07
8.2919491e-07
8.8581499e-07
9.461509e-07
1.0104357e-06
1.0789166e-06
1.151855e-06
1.2295282e-06
1.3122298e-06
1.4002704e-06
1.4939789e-06
1.5937036e-06
1.6998128e-06
1.8126961e-06
1.9327659e-06
2.0604581e-06
2.1962336e-06
2.3405797e-06
2.4940113e-06
2.6570728e-06
2.8303391e-06
3.0144174e-06
3.2099494e-06
3.4176121e-06
3.6381207e-06
3.8722298e-06
4.1207357e-06
4.3844786e-06
4.664345e-06
4.9612695e-06
5.2762377e-06
5.6102887e-06
5.9645178e-06
6.3400791e-06
6.7381885e-06
7.1601269e-06
7.6072435e-06
8.0809585e-06
8.5827675e-06
9.1142443e-06
9.6770452e-06
1.0272913e-05
1.090368e-05
1.1571275e-05
1.2277724e-05
1.3025159e-05
1.3815818e-05
1.4652055e-05
1.5536342e-05
1.6471277e-05
1.7459587e-05
1.8504135e-05
1.9607926e-05
2.0774116e-05
2.2006014e-05
2.3307093e-05
2.4680994e-05
2.6131537e-05
2.7662726e-05
2.9278758e-05
3.098403e-05
3.278315e-05
3.4680945e-05
3.668247e-05
3.8793018e-05
4.1018129e-05
4.3363603e-05
4.5835506e-05
4.8440186e-05
5.1184283e-05
5.4074739e-05
5.7118811e-05
6.0324087e-05
6.3698493e-05
6.7250313e-05
7.0988196e-05
7.4921179e-05
7.9058693e-05
8.3410584e-05
8.7987129e-05
9.2799047e-05
9.7857523e-05
0.00010317422
0.00010876129
0.00011463143
0.00012079783
0.00012727426
0.00013407507
0.00014121518
0.00014871014
0.00015657614
0.00016483003
0.00017348934
0.00018257229
0.00019209784
0.00020208572
0.00021255642
0.00022353124
0.00023503231
0.00024708262
0.00025970604
0.00027292736
0.00028677231
0.00030126759
0.00031644091
0.00033232099
0.00034893765
0.00036632177
0.00038450537
0.00040352163
0.00042340494
0.00044419088
0.00046591634
0.00048861946
0.00051233975
0.00053711807
0.00056299669
0.00059001933
0.00061823118
0.00064767897
0.00067841095
0.000710477
0.00074392863
0.00077881903
0.00081520307
0.00085313743
0.00089268056
0.00093389273
0.00097683613
0.0010215748
0.0010681749
0.0011167044
0.0011672335
0.0012198342
0.001274581
0.0013315503
0.0013908208
0.0014524735
0.0015165917
0.0015832609
0.0016525691
0.0017246067
0.0017994665
0.0018772439
0.0019580367
0.0020419455
0.0021290732
0.0022195257
0.0023134113
0.0024108411
0.0025119291
0.0026167919
0.0027255491
0.002838323
0.0029552388
0.0030764248
0.0032020121
0.0033321347
0.0034669298
0.0036065375
0.0037511009
0.0039007662
0.0040556828
0.0042160031
0.0043818826
0.0045534799
0.0047309569
0.0049144785
0.0051042129
0.0053003312
0.005503008
0.0057124208
0.0059287505
0.0061521809
0.0063828992
0.0066210955
0.0068669633
0.007120699
0.0073825021
0.0076525754
0.0079311246
0.0082183584
0.0085144885
0.0088197296
0.0091342994
0.0094584184
0.00979231
0.0101362
0.010490319
0.010854896
0.011230167
0.011616369
0.012013741
0.012422525
0.012842965
0.013275308
0.013719803
0.014176702
0.014646256
0.015128722
0.015624357
0.01613342
0.016656171
0.017192874
0.017743791
0.01830919
0.018889336
0.019484497
0.020094944
0.020720947
0.021362776
0.022020704
0.022695004
0.023385948
0.024093812
0.024818869
0.025561393
0.026321659
0.027099941
0.027896514
0.028711651
0.029545626
0.030398711
0.03127118
0.032163303
0.03307535
0.03400759
0.034960292
0.035933722
0.036928145
0.037943823
0.038981019
0.040039992
0.041120998
0.042224294
0.043350132
0.044498761
0.045670429
0.046865382
0.048083859
0.049326101
0.050592343
0.051882816
0.053197749
0.054537368
0.055901893
0.057291543
0.058706529
0.060147063
0.061613349
0.063105587
0.064623976
0.066168705
0.067739964
0.069337933
0.070962792
0.072614713
0.074293863
0.076000405
0.077734496
0.07949629
0.081285931
0.083103563
0.08494932
0.086823332
0.088725725
0.090656616
0.09261612
0.094604342
0.096621385
0.098667344
0.10074231
0.10284636
0.10497958
0.10714203
0.10933379
0.11155491
0.11380544
0.11608543
0.11839492
0.12073395
0.12310254
0.12550071
0.12792848
0.13038587
0.13287286
0.13538947
0.13793567
0.14051147
0.14311682
0.14575171
0.1484161
0.15110996
0.15383323
0.15658586
0.15936781
0.16217899
0.16501935
0.16788881
0.17078728
0.17371469
0.17667093
0.17965591
0.18266953
0.18571168
0.18878223
0.19188108
0.1950081
0.19816315
0.2013461
0.20455681
0.20779513
0.21106092
0.21435401
0.21767425
0.22102147
0.2243955
0.22779617
0.23122329
0.23467668
0.23815616
0.24166154
0.24519261
0.24874917
0.25233102
0.25593796
0.25956977
0.26322623
0.26690712
0.27061222
0.2743413
0.27809413
0.28187048
0.28567011
0.28949277
0.29333823
0.29720623
0.30109653
0.30500887
0.308943
0.31289866
0.31687558
0.3208735
0.32489215
0.32893127
0.33299058
0.33706981
0.34116868
0.34528691
0.34942422
0.35358033
0.35775495
0.3619478
0.36615858
0.370387
0.37463277
0.3788956
0.38317518
0.38747123
0.39178343
0.39611149
0.40045511
0.40481398
0.40918779
0.41357624
0.41797902
0.42239582
0.42682632
0.43127022
0.4357272
0.44019695
0.44467915
0.44917348
0.45367963
0.45819728
0.4627261
0.46726578
0.471816
0.47637643
0.48094675
0.48552664
0.49011577
0.49471381
0.49932045
0.50393535
0.50855818
0.51318863
0.51782635
0.52247102
0.52712231
0.53177989
0.53644343
0.5411126
0.54578706
0.55046648
0.55515054
0.55983888
0.56453119
0.56922713
0.57392636
0.57862855
0.58333335
0.58804045
0.59274949
0.59746015
0.60217208
0.60688494
0.61159841
0.61631214
0.62102579
0.62573903
0.63045151
0.6351629
0.63987285
0.64458102
0.64928709
0.65399069
0.6586915
0.66338917
0.66808335
0.67277371
0.67745991
0.6821416
0.68681843
0.69149008
0.69615619
0.70081642
0.70547043
0.71011787
0.7147584
0.71939169
0.72401737
0.72863512
0.73324459
0.73784542
0.74243729
0.74701984
0.75159273
0.75615562
0.76070816
0.76525001
0.76978082
0.77430025
0.77880797
0.78330361
0.78778685
0.79225733
0.79671472
0.80115867
0.80558885
0.8100049
0.81440649
0.81879327
0.82316491
0.82752107
0.83186141
0.83618558
0.84049325
0.84478409
0.84905776
0.85331391
0.85755223
0.86177236
0.86597399
0.87015678
0.8743204
0.87846452
0.88258881
0.88669295
0.89077661
0.89483947
0.8988812
0.9029015
0.90690003
0.91087649
0.91483056
0.91876193
0.92267029
0.92655532
0.93041674
0.93425422
0.93806749
0.94185623
0.94562015
0.94935896
0.95307238
0.95676011
0.96042189
0.96405742
0.96766643
0.97124866
0.97480384
0.97833169
0.98183198
0.98530443
0.9887488
0.99216484
0.99555231
0.99891098
1.0022406
1.005541
1.0088119
1.012053
1.0152643
1.0184454
1.0215963
1.0247166
1.0278062
1.030865
1.0338926
1.0368891
1.0398542
1.0427877
1.0456896
1.0485596
1.0513976
1.0542036
1.0569774
1.0597188
1.0624278
1.0651043
1.0677481
1.0703593
1.0729377
1.0754833
1.077996
1.0804757
1.0829225
1.0853362
1.0877169
1.0900646
1.0923793
1.0946608
1.0969094
1.0991249
1.1013075
1.1034571
1.1055738
1.1076577
1.1097089
1.1117273
1.1137131
1.1156664
1.1175873
1.1194759
1.1213323
1.1231566
1.1249491
1.1267098
1.1284388
1.1301365
1.1318028
1.1334381
1.1350424
1.1366161
1.1381593
1.1396722
1.141155
1.1426081
1.1440315
1.1454256
1.1467906
1.1481268
1.1494344
1.1507137
1.1519651
1.1531887
1.1543849
1.1555539
1.1566962
1.1578119
1.1589014
1.1599651
1.1610032
1.1620161
1.1630041
1.1639675
1.1649068
1.1658221
1.166714
1.1675828
1.1684287
1.1692522
1.1700535
1.1708332
1.1715915
1.1723288
1.1730455
1.173742
1.1744185
1.1750755
1.1757134
1.1763325
1.1769331
1.1775158
1.1780807
1.1786283
1.179159
1.1796731
1.1801709
1.1806529
1.1811194
1.1815707
1.1820072
1.1824293
1.1828373
1.1832315
1.1836123
1.18398
1.184335
1.1846776
1.185008
1.1853267
1.185634
1.1859301
1.1862153
1.1864901
1.1867546
1.1870092
1.1872542
1.1874898
1.1877164
1.1879341
1.1881433
1.1883443
1.1885373
1.1887225
1.1889002
1.1890707
1.1892342
1.1893909
1.189541
1.1896848
1.1898226
1.1899544
1.1900805
1.1902012
1.1903166
1.1904269
1.1905323
1.190633
1.1907291
1.1908208
1.1909084
1.1909919
1.1910716
1.1911475
1.1912198
1.1912887
1.1913543
1.1914167
1.1914761
1.1915326
1.1915863
1.1916374
1.1916859
1.191732
1.1917757
1.1918172
1.1918566
1.1918939
1.1919293
1.1919628
1.1919946
1.1920247
1.1920532
1.1920801
1.1921056
1.1921297
1.1921524
1.1921739
1.1921942
1.1922134
1.1922315
1.1922485
1.1922646
1.1922798
1.192294
1.1923075
1.1923201
1.192332
1.1923432
1.1923538
1.1923636
1.1923729
1.1923816
1.1923898
1.1923975
1.1924046
1.1924114
1.1924177
1.1924235
1.192429
1.1924342
1.192439
1.1924434
1.1924476
1.1924515
1.1924551
1.1924584
1.1924615
1.1924644
1.1924671
1.1924695
1.1924718
1.1924739
1.1924758
1.1924776
1.1924792
1.1924807
1.1924821
1.1924834
1.1924845
1.1924856
1.1924865
1.1924874
1.1924883
1.192489
1.1924898
1.1924906
1.1924914
1.1924921
1.192493
1.192494
1.192495
1.1924959
1.192497
1.1924982
1.1924993
1.1925004
1.1925016
1.1925027
1.1925039
1.1925051
1.1925062
1.1925073
1.1925085
1.1925095
1.1925106
1.1925116
1.1925126
1.1925136
1.1925145
1.1925153
1.1925161
1.1925168
1.1925174
1.1925179
1.1925183
1.1925186
1.1925189
1.1925191
1.1925193
1.1925195
1.1925197
1.1925198
1.19252
1.1925205
1.192521
1.1925215
1.192522
1.1925226
1.1925231
1.1925236
1.1925243
1.192525
1.1925257
1.1925264
1.1925271
1.1925279
1.1925287
1.1925294
1.1925301
1.1925309
1.1925316
1.1925323
1.192533
1.1925337
1.1925344
1.1925351
1.1925357
1.1925364
1.192537
1.1925376
1.1925382
1.1925387
1.1925392
1.1925398
1.1925403
1.1925408
1.1925413
1.1925418
1.1925423
1.1925427
1.1925432
1.1925437
1.1925442
1.1925446
1.1925451
1.1925456
1.1925461
1.1925465
1.192547
1.1925475
1.192548
1.1925484
1.1925489
1.1925494
1.1925499
1.1925503
1.1925508
1.1925512
1.1925518
1.1925523
1.1925527
1.1925532
1.1925537
1.1925542
1.1925546
1.1925551
1.1925556
1.192556
1.1925564
1.1925569
1.1925573
1.1925577
1.1925581
1.1925585
1.1925589
1.1925593
1.1925597
1.1925601
1.1925604
1.1925608
1.1925611
1.1925614
1.1925618
1.1925622
1.1925625
1.1925627
1.192563
1.1925631
1.1925631
1.1925633
1.1925637
1.1925641
1.1925645
1.1925648
1.192565
1.1925654
1.1925659
1.1925664
1.1925669
1.1925674
1.1925678
1.1925682
1.1925686
1.192569
1.1925693
1.1925696
1.1925699
1.1925702
1.1925704
1.1925707
1.1925709
1.1925711
1.1925713
1.1925715
1.1925718
1.192572
1.1925722
1.1925724
1.1925726
1.1925729
1.1925731
1.1925733
1.1925735
1.1925738
1.192574
1.1925743
1.1925745
1.1925747
1.1925749
1.192575
1.192575
1.1925751
1.1925752
1.1925753
1.1925753
1.1925754
1.1925754
1.1925754
1.1925754
1.1925754
1.1925753
1.1925754
1.1925754
1.1925754
1.1925755
1.1925757
1.1925759
1.1925761
1.1925762
1.1925765
1.1925767
1.192577
1.1925772
1.1925774
1.1925777
1.1925779
1.1925781
1.1925783
1.1925785
1.1925786
1.1925787
1.1925788
1.1925789
1.1925789
1.192579
1.192579
1.192579
1.192579
1.192579
1.192579
1.1925791
1.1925791
1.1925791
1.1925792
1.1925792
1.1925793
1.1925794
1.1925794
1.1925795
1.1925795
1.1925796
1.1925797
1.1925797
1.1925797
1.1925798
1.1925798
1.1925797
1.1925797
1.1925797
1.1925796
1.1925795
1.1925795
1.1925794
1.1925793
1.1925793
1.1925792
1.1925791
1.1925791
1.192579
1.192579
1.192579
1.192579
1.192579
1.192579
1.192579
1.192579
1.192579
1.1925791
1.1925791
1.1925791
1.1925791
1.1925791
1.1925791
1.1925791
1.1925791
1.1925791
1.1925791
1.192579
1.192579
1.192579
1.1925789
1.1925788
1.1925787
1.1925787
1.1925786
1.1925784
1.1925783
1.1925782
1.192578
1.1925778
1.1925777
1.1925775
1.1925773
1.1925771
1.1925769
1.1925766
1.1925764
1.1925761
1.1925759
1.1925757
1.1925754
1.1925752
1.192575
1.1925747
1.1925745
1.1925742
1.192574
1.1925738
1.1925736
1.1925734
1.1925732
1.192573
1.1925728
1.1925726
1.1925725
1.1925723
1.1925722
1.1925721
1.1925719
1.1925718
1.1925717
1.1925716
1.1925715
1.1925715
1.1925714
1.1925713
1.1925712
1.1925712
1.1925711
1.192571
1.192571
1.1925709
1.1925708
1.1925708
1.1925707
1.1925706
1.1925705
1.1925704
1.1925703
1.1925702
1.19257
1.1925699
1.1925698
1.1925697
1.1925695
1.1925694
1.1925692
1.1925691
1.1925689
1.1925688
1.1925686
1.1925685
1.1925683
1.1925681
1.192568
1.1925678
1.1925676
1.1925675
1.1925673
1.1925672
1.192567
1.1925669
1.1925667
1.1925665
1.1925664
1.1925662
1.1925661
1.1925659
1.1925658
1.1925656
1.1925655
1.1925653
1.1925652
1.192565
1.1925649
1.1925648
1.1925646
1.1925645
1.1925644
1.1925642
1.1925641
1.1925639
1.1925638
1.1925637
1.1925636
1.1925634
1.1925633
1.1925632
1.1925631
1.192563
1.1925629
1.1925628
1.1925627
1.1925626
1.1925625
1.1925624
1.1925623
1.1925622
1.1925621
1.192562
1.192562
1.1925619
1.1925618
1.1925617
1.1925616
1.1925616
1.1925615
1.1925614
1.1925613
1.1925613
1.1925612
1.1925611
1.192561
1.1925609
1.1925608
1.1925608
1.1925607
1.1925606
1.1925605
1.1925604
1.1925603
1.1925602
1.19256
1.1925599
1.1925598
1.1925596
1.1925595
1.1925593
1.1925592
1.192559
1.1925589
1.1925587
1.1925585
1.1925584
1.1925582
1.192558
1.1925578
1.1925577
1.1925575
1.1925573
1.1925571
1.1925569
1.1925567
1.1925566
1.1925564
1.1925562
1.192556
1.1925559
1.1925557
1.1925555
1.1925554
1.1925552
1.1925551
1.1925549
1.1925548
1.1925546
1.1925545
1.1925544
1.1925543
1.1925542
1.1925541
1.192554
1.1925539
1.1925538
1.1925537
1.1925536
1.1925536
1.1925535
1.1925534
1.1925534
1.1925533
1.1925533
1.1925532
1.1925532
1.1925531
1.1925531
1.1925531
1.192553
1.192553
1.1925529
1.1925529
1.1925529
1.1925528
1.1925528
1.1925528
1.1925527
1.1925527
1.1925526
1.1925526
1.1925525
1.1925525
1.1925524
1.1925524
1.1925523
1.1925523
1.1925522
1.1925521
1.192552
1.192552
1.1925519
1.1925518
1.1925517
1.1925517
1.1925516
1.1925515
1.1925514
1.1925513
1.1925512
1.1925511
1.192551
1.1925509
1.1925508
1.1925507
1.1925506
1.1925505
1.1925504
1.1925503
1.1925502
1.1925501
1.19255
1.19255
1.1925499
1.1925498
1.1925497
1.1925496
1.1925495
1.1925494
1.1925493
1.1925492
1.1925491
1.192549
1.1925489
1.1925488
1.1925487
1.1925486
1.1925485
1.1925484
1.1925483
1.1925482
1.1925482
1.1925481
1.192548
1.1925479
1.1925478
1.1925477
1.1925476
1.1925475
1.1925474
1.1925474
1.1925473
1.1925472
1.1925471
1.192547
1.1925469
1.1925468
1.1925467
1.1925466
1.1925465
1.1925464
1.1925463
1.1925462
1.1925461
1.192546
1.1925459
1.1925458
1.1925457
1.1925456
1.1925455
1.1925454
1.1925453
1.1925452
1.1925452
1.1925451
1.192545
1.1925449
1.1925448
1.1925447
1.1925446
1.1925445
1.1925444
1.1925443
1.1925442
1.1925441
1.192544
1.1925439
1.1925438
1.1925437
1.1925436
1.1925435
1.1925434
1.1925433
1.1925432
1.1925431
1.192543
1.1925429
1.1925428
1.1925427
1.1925426
1.1925425
1.1925424
1.1925423
1.1925422
1.1925421
1.1925421
1.192542
1.1925419
1.1925418
1.1925417
1.1925416
1.1925415
1.1925414
1.1925413
1.1925412
1.1925411
1.192541
1.1925409
1.1925408
1.1925407
1.1925406
1.1925405
1.1925404
1.1925403
1.1925402
1.1925401
1.19254
1.1925399
1.1925398
1.1925397
1.1925396
1.1925395
1.1925394
1.1925393
1.1925392
1.1925392
1.1925391
1.192539
1.1925389
1.1925388
1.1925387
1.1925386
1.1925385
1.1925384
1.1925383
1.1925383
1.1925382
1.1925381
1.192538
1.1925379
1.1925378
1.1925377
1.1925377
1.1925376
1.1925375
1.1925374
1.1925373
1.1925372
1.1925372
1.1925371
1.192537
1.1925369
1.1925368
1.1925367
1.1925367
1.1925366
1.1925365
1.1925364
1.1925363
1.1925363
1.1925362
1.1925361
1.192536
1.192536
1.1925359
1.1925358
1.1925358
1.1925357
1.1925356
1.1925355
1.1925355
1.1925354
1.1925353
1.1925352
1.1925352
1.1925351
1.192535
1.192535
1.1925349
1.1925348
1.1925348
1.1925347
1.1925346
1.1925346
1.1925345
1.1925344
1.1925344
1.1925343
1.1925343
1.1925342
1.1925341
1.1925341
1.192534
1.192534
1.1925339
1.1925338
1.1925338
1.1925337
1.1925337
1.1925336
1.1925335
1.1925335
1.1925334
1.1925334
1.1925333
1.1925332
1.1925332
1.1925331
1.1925331
1.192533
1.1925329
1.1925329
1.1925328
1.1925327
1.1925327
1.1925326
1.1925325
1.1925325
1.1925324
1.1925323
1.1925322
1.1925322
1.1925321
1.192532
1.1925319
1.1925319
1.1925318
1.1925317
1.1925316
1.1925316
1.1925315
1.1925314
1.1925313
1.1925312
1.1925311
1.1925311
1.192531
1.1925309
1.1925308
1.1925307
1.1925307
1.1925306
1.1925305
1.1925304
1.1925303
1.1925302
1.1925301
1.1925301
1.19253
1.1925299
1.1925298
1.1925297
1.1925296
1.1925295
1.1925294
1.1925294
1.1925293
1.1925292
1.1925291
1.192529
1.1925289
1.1925288
1.1925288
1.1925287
1.1925286
1.1925285
1.1925284
1.1925283
1.1925283
1.1925282
1.1925281
1.192528
1.1925279
1.1925279
1.1925278
1.1925277
1.1925276
1.1925275
1.1925275
1.1925274
1.1925273
1.1925272
1.1925271
1.192527
1.192527
1.1925269
1.1925268
1.1925268
1.1925267
1.1925266
1.1925265
1.1925265
1.1925264
1.1925263
1.1925262
1.1925262
1.1925261
1.192526
1.192526
1.1925259
1.1925258
1.1925258
1.1925257
1.1925256
1.1925256
1.1925255
1.1925255
1.1925254
1.1925253
1.1925253
1.1925252
1.1925251
1.1925251
1.192525
1.192525
1.1925249
1.1925248
1.1925248
1.1925247
1.1925246
1.1925246
1.1925245
1.1925245
1.1925244
1.1925244
1.1925243
1.1925242
1.1925242
1.1925241
1.1925241
1.192524
1.192524
1.1925239
1.1925239
1.1925238
1.1925238
1.1925237
1.1925236
1.1925236
1.1925235
1.1925235
1.1925234
1.1925234
1.1925233
1.1925233
1.1925232
1.1925231
1.1925231
1.192523
1.192523
1.1925229
1.1925229
1.1925228
1.1925228
1.1925227
1.1925226
1.1925226
1.1925225
1.1925225
1.1925224
1.1925224
1.1925223
1.1925222
1.1925222
1.1925221
1.1925221
1.192522
1.1925219
1.1925219
1.1925218
1.1925217
1.1925217
1.1925216
1.1925215
1.1925215
1.1925214
1.1925213
1.1925212
1.1925212
1.1925211
1.192521
1.192521
1.1925209
1.1925208
1.1925207
1.1925207
1.1925206
1.1925205
1.1925204
1.1925204
1.1925203
1.1925202
1.1925201
1.19252
1.19252
1.1925199
1.1925198
1.1925197
1.1925196
1.1925196
1.1925195
1.1925194
1.1925193
1.1925192
1.1925192
1.1925191
1.192519
1.1925189
1.1925188
1.1925187
1.1925187
1.1925186
1.1925185
1.1925184
1.1925183
1.1925182
1.1925181
1.1925181
1.192518
1.1925179
1.1925178
1.1925177
1.1925177
1.1925176
1.1925175
1.1925174
1.1925173
1.1925172
1.1925172
1.1925171
1.192517
1.1925169
1.1925168
1.1925168
1.1925167
1.1925166
1.1925165
1.1925165
1.1925164
1.1925163
1.1925162
1.1925161
1.1925161
1.192516
1.1925159
1.1925158
1.1925158
1.1925157
1.1925156
1.1925155
1.1925155
1.1925154
1.1925153
1.1925152
1.1925152
1.1925151
1.192515
1.1925149
1.1925149
1.1925148
1.1925147
1.1925147
1.1925146
1.1925145
1.1925145
1.1925144
1.1925143
1.1925142
1.1925142
1.1925141
1.192514
1.192514
1.1925139
1.1925138
1.1925137
1.1925137
1.1925136
1.1925136
1.1925135
1.1925134
1.1925134
1.1925133
1.1925132
1.1925132
1.1925131
1.192513
1.192513
1.1925129
1.1925128
1.1925128
1.1925127
1.1925126
1.1925126
1.1925125
1.1925124
1.1925124
1.1925123
1.1925123
1.1925122
1.1925121
1.1925121
1.192512
1.1925119
1.1925119
1.1925118
1.1925118
1.1925117
1.1925116
1.1925116
1.1925115
1.1925115
1.1925114
1.1925113
1.1925113
1.1925112
1.1925111
1.1925111
1.192511
1.1925109
1.1925109
1.1925108
1.1925108
1.1925107
1.1925106
1.1925106
1.1925105
1.1925104
1.1925104
1.1925103
1.1925102
1.1925101
1.1925101
1.19251
1.1925099
1.1925098
1.1925098
1.1925097
1.1925096
1.1925096
1.1925095
1.1925094
1.1925093
1.1925093
1.1925092
1.1925091
1.192509
1.1925089
1.1925088
1.1925088
1.1925087
1.1925086
1.1925085
1.1925084
1.1925083
1.1925082
1.1925082
1.1925081
1.192508
1.1925079
1.1925078
1.1925077
1.1925076
1.1925075
1.1925075
1.1925074
1.1925073
1.1925072
1.1925071
1.192507
1.1925069
1.1925068
1.1925067
1.1925066
1.1925066
1.1925065
1.1925064
1.1925063
1.1925062
1.1925061
1.192506
1.1925059
1.1925059
1.1925058
1.1925057
1.1925056
1.1925055
1.1925054
1.1925053
1.1925052
1.1925051
1.1925051
1.192505
1.1925049
1.1925048
1.1925047
1.1925047
1.1925046
1.1925045
1.1925044
1.1925043
1.1925042
1.1925041
1.1925041
1.192504
1.1925039
1.1925038
1.1925037
1.1925037
1.1925036
1.1925035
1.1925034
1.1925033
1.1925033
1.1925032
1.1925031
1.192503
1.1925029
1.1925028
1.1925028
1.1925027
1.1925026
1.1925025
1.1925024
1.1925024
1.1925023
1.1925022
1.1925021
1.192502
1.1925019
1.1925018
1.1925018
1.1925017
1.1925016
1.1925015
1.1925014
1.1925014
1.1925013
1.1925012
1.1925011
1.192501
1.192501
1.1925009
1.1925008
1.1925007
1.1925006
1.1925005
1.1925004
1.1925004
1.1925003
1.1925002
1.1925001
1.1925
1.1925
1.1924999
1.1924998
1.1924997
1.1924996
1.1924996
1.1924995
1.1924994
1.1924993
1.1924992
1.1924992
1.1924991
1.192499
1.1924989
1.1924989
1.1924988
1.1924987
1.1924986
1.1924986
1.1924985
1.1924984
1.1924984
1.1924983
1.1924982
1.1924981
1.1924981
1.192498
1.1924979
1.1924979
1.1924978
1.1924977
1.1924976
1.1924976
1.1924975
1.1924974
1.1924973
1.1924973
1.1924972
1.1924971
1.1924971
1.192497
1.1924969
1.1924969
1.1924968
1.1924967
1.1924967
1.1924966
1.1924965
1.1924965
1.1924964
1.1924963
1.1924962
1.1924962
1.1924961
1.192496
1.1924959
1.1924958
1.1924958
1.1924957
1.1924956
1.1924955
1.1924955
1.1924954
1.1924953
1.1924952
1.1924951
1.1924951
1.192495
1.1924949
1.1924948
1.1924947
1.1924946
1.1924945
1.1924945
1.1924944
1.1924943
1.1924942
1.1924941
1.192494
1.1924939
1.1924938
1.1924937
1.1924936
1.1924936
1.1924935
1.1924934
1.1924933
1.1924932
1.1924931
1.192493
1.1924929
1.1924928
1.1924927
1.1924926
1.1924925
1.1924924
1.1924923
1.1924922
1.1924921
1.192492
1.1924919
1.1924918
1.1924916
1.1924915
1.1924914
1.1924913
1.1924912
1.1924911
1.192491
1.1924909
1.1924908
1.1924907
1.1924906
1.1924905
1.1924904
1.1924902
1.1924901
1.19249
1.1924899
1.1924898
1.1924897
1.1924895
1.1924894
1.1924893
1.1924892
1.1924891
1.192489
1.1924889
1.1924887
1.1924886
1.1924885
1.1924884
1.1924883
1.1924881
1.192488
1.1924879
1.1924878
1.1924877
1.1924876
1.1924874
1.1924873
1.1924872
1.1924871
1.192487
1.1924868
1.1924867
1.1924866
1.1924864
1.1924863
1.1924862
1.192486
1.1924859
1.1924858
1.1924857
1.1924856
1.1924854
1.1924853
1.1924851
1.192485
1.1924849
1.1924847
1.1924846
1.1924845
1.1924843
1.1924842
1.1924841
1.1924839
1.1924838
1.1924836
1.1924835
1.1924833
1.1924832
1.1924831
1.1924829
1.1924828
1.1924826
1.1924825
1.1924824
1.1924822
1.1924821
1.1924819
1.1924818
1.1924816
1.1924814
1.1924813
1.1924811
1.192481
1.1924808
1.1924807
1.1924805
1.1924803
1.1924802
1.19248
1.1924799
1.1924797
1.1924795
1.1924794
1.1924792
1.1924791
1.1924789
1.1924787
1.1924786
1.1924784
1.1924783
1.1924781
1.1924779
1.1924777
1.1924776
1.1924774
1.1924772
1.1924771
1.1924769
1.1924767
1.1924765
1.1924764
1.1924762
1.192476
1.1924758
1.1924756
1.1924755
1.1924753
1.1924751
1.192475
1.1924748
1.1924746
1.1924745
1.1924743
1.1924741
1.192474
1.1924738
1.1924736
1.1924734
1.1924732
1.192473
1.1924729
1.1924727
1.1924725
1.1924723
1.1924721
1.192472
1.1924718
1.1924716
1.1924714
1.1924712
1.192471
1.1924708
1.1924706
1.1924704
1.1924702
1.19247
1.1924698
1.1924697
1.1924695
1.1924693
1.1924691
1.1924689
1.1924687
1.1924685
1.1924683
1.1924681
1.1924679
1.1924676
1.1924674
1.1924672
1.192467
1.1924668
1.1924666
1.1924664
1.1924662
1.1924659
1.1924657
1.1924655
1.1924653
1.1924651
1.1924648
1.1924646
1.1924644
1.1924641
1.1924639
1.1924636
1.1924634
1.1924631
1.1924629
1.1924626
1.1924623
1.1924621
1.1924618
1.1924615
1.1924613
1.192461
1.1924607
1.1924604
1.1924602
1.1924599
1.1924596
1.1924593
1.192459
1.1924587
1.1924584
1.1924581
1.1924578
1.1924575
1.1924572
1.1924569
1.1924566
1.1924563
1.1924559
1.1924556
1.1924552
1.1924549
1.1924545
1.1924541
1.1924538
1.1924534
1.192453
1.1924526
1.1924522
1.1924519
1.1924515
1.1924511
1.1924507
1.1924503
1.1924499
1.1924495
1.192449
1.1924486
1.1924482
1.1924477
1.1924473
1.1924468
1.1924463
1.1924459
1.1924454
1.1924449
1.1924444
1.1924439
1.1924434
1.1924429
1.1924424
1.1924419
1.1924414
1.1924409
1.1924404
1.1924398
1.1924393
1.1924388
1.1924383
1.1924377
1.1924372
1.1924366
1.1924361
1.1924356
1.192435
1.1924345
1.192434
1.1924335
1.192433
1.1924326
1.1924321
1.1924317
1.1924313
1.1924309
1.1924306
1.1924303
1.19243
1.1924298
1.1924296
1.1924294
1.1924293
1.1924292
1.1924291
1.1924291
1.192429
1.192429
1.192429
1.1924292
1.1924293
1.1924294
1.1924296
1.1924297
1.1924298
1.1924299
1.1924299
1.1924299
1.1924299
1.1924298
1.1924298
1.1924296
1.1924294
1.1924288
1.1924281
1.1924272
1.1924263
1.1924254
1.1924243
1.1924233
1.1924222
1.1924211
1.1924199
1.1924188
1.1924176
1.1924164
1.1924151
1.1924139
1.1924127
1.1924115
1.1924104
1.1924093
1.1924084
1.1924075
1.1924067
1.192406
1.1924054
1.1924049
1.1924046
1.1924044
1.1924044
1.1924046
1.1924049
1.1924053
1.1924055
1.1924054
1.1924042
1.192401
1.1923928
1.1923728
1.1923235
1.1922016
1.1918952
1.1911339
1.1892068
1.1857529
1.1816224
1.1769544
1.1719577
1.1668483
1.1618247
1.1570534
1.1526599
1.1487265
1.1452951
1.1423726
1.1399389
1.1379549
1.1363697
1.1351274
1.1341717
1.1334497
1.1329136
1.1325225
1.1322421
1.1320447
1.1319084
1.1318161
1.1317553
1.1317165
1.1316928
1.1316793
1.1316725
1.1316698
1.1316692
1.1316696
1.1316725
1.1316774
1.1316818
1.1316857
1.1316892
1.1316923
1.1316951
1.1316976
1.1316999
1.1317019
1.1317038
1.1317056
1.1317073
1.1317089
1.1317104
1.1317118
1.1317132
1.1317145
1.1317158
1.131717
1.1317182
1.1317193
1.1317205
1.1317217
1.131723
1.1317243
1.1317257
1.1317271
1.1317287
1.1317304
1.1317321
1.1317339
1.1317357
1.1317376
1.1317396
1.1317415
1.1317434
1.1317454
1.1317473
1.1317492
1.131751
1.1317527
1.1317544
1.131756
1.1317575
1.131759
1.1317603
1.1317616
1.1317628
1.1317639
1.131765
1.131766
1.131767
1.1317679
1.1317688
1.1317696
1.1317703
1.1317711
1.1317718
1.1317725
1.1317731
1.1317737
1.1317743
1.1317749
1.1317755
1.131776
1.1317766
1.1317771
1.1317776
1.1317781
1.1317786
1.1317791
1.1317795
1.13178
1.1317804
1.1317808