/*--------------------------------*- C++ -*----------------------------------*\
  =========                 |
  \\      /  F ield         | OpenFOAM: The Open Source CFD Toolbox
   \\    /   O peration     | Website:  https://openfoam.org
    \\  /    A nd           | Version:  7
     \\/     M anipulation  |
\*---------------------------------------------------------------------------*/
FoamFile
{
    version     2.0;
    format      ascii;
    class       volScalarField;
    location    "0.00107";
    object      T;
}
// * * * * * * * * * * * * * * * * * * * * * * * * * * * * * * * * * * * * * //

dimensions      [0 0 0 1 0 0 0];

internalField   nonuniform List<scalar> 
5000
(
293
293
293
293
293
293
293
293
293
293
293
293
293
293
293
293
293
293
293
293
293
293
293
293
293
293
293
293
293
293
293
293
293
293
293
293
293
293
293
293
293
293
293
293
293
293
293
293
293
293
293
293
293
293
293
293
293
293
293
293
293
293
293
293
293
293
293
293
293
293
293
293
293
293
293
293
293
293
293
293
293
293
293
293
293
293
293
293
293
293
293
293
293
293
293
293
293
293
293
293
293
293
293
293
293
293
293
293
293
293
293
293
293
293
293
293
293
293
293
293
293
293
293
293
293
293
293
293
293
293
293
293
293
293
293
293
293
293
293
293
293
293
293
293
293
293
293
293
293
293
293
293
293
293
293
293
293
293
293
293
293
293
293
293
293
293
293
293
293
293
293
293
293
293
293
293
293
293
293
293
293
293
293
293
293
293
293
293
293
293
293
293
293
293
293
293
293
293
293
293
293
293
293
293
293
293
293
293
293
293
293
293
293
293
293
293
293
293
293
293
293
293
293
293
293
293
293
293
293
293
293
293
293
293
293
293
293
293
293
293
293
293
293
293
293
293
293
293
293
293
293
293
293
293
293
293
293
293
293
293
293
293
293
293
293
293
293
293
293
293
293
293
293
293
293
293
293
293
293
293
293
293
293
293
293
293
293
293
293
293
293
293
293
293
293
293
293
293
293
293
293
293
293
293
293
293
293
293
293
293
293
293
293
293
293
293
293
293
293
293
293
293
293
293
293
293
293
293
293
293
292.99999
292.99999
292.99999
292.99999
292.99999
292.99999
292.99999
292.99999
292.99999
292.99999
292.99999
292.99999
292.99999
292.99999
292.99999
292.99999
292.99999
292.99998
292.99998
292.99998
292.99998
292.99998
292.99998
292.99998
292.99998
292.99997
292.99997
292.99997
292.99997
292.99997
292.99997
292.99996
292.99996
292.99996
292.99996
292.99995
292.99995
292.99995
292.99994
292.99994
292.99994
292.99993
292.99993
292.99992
292.99992
292.99992
292.99991
292.9999
292.9999
292.99989
292.99989
292.99988
292.99987
292.99987
292.99986
292.99985
292.99984
292.99983
292.99982
292.99981
292.9998
292.99979
292.99978
292.99976
292.99975
292.99973
292.99972
292.9997
292.99969
292.99967
292.99965
292.99963
292.99961
292.99959
292.99957
292.99954
292.99952
292.99949
292.99946
292.99943
292.9994
292.99937
292.99934
292.9993
292.99926
292.99922
292.99918
292.99914
292.99909
292.99904
292.99899
292.99894
292.99889
292.99883
292.99877
292.9987
292.99864
292.99857
292.99849
292.99842
292.99833
292.99825
292.99816
292.99807
292.99797
292.99787
292.99777
292.99765
292.99754
292.99742
292.99729
292.99716
292.99702
292.99688
292.99673
292.99657
292.9964
292.99623
292.99605
292.99586
292.99567
292.99547
292.99525
292.99503
292.9948
292.99456
292.99431
292.99405
292.99378
292.99349
292.9932
292.99289
292.99257
292.99224
292.99189
292.99153
292.99115
292.99076
292.99036
292.98994
292.9895
292.98904
292.98857
292.98808
292.98757
292.98704
292.98649
292.98592
292.98533
292.98471
292.98408
292.98342
292.98273
292.98202
292.98128
292.98052
292.97973
292.97891
292.97806
292.97718
292.97627
292.97533
292.97436
292.97335
292.97231
292.97123
292.97012
292.96897
292.96777
292.96654
292.96527
292.96396
292.9626
292.9612
292.95976
292.95826
292.95672
292.95513
292.95349
292.9518
292.95006
292.94826
292.94641
292.9445
292.94254
292.94051
292.93842
292.93627
292.93406
292.93178
292.92944
292.92703
292.92455
292.922
292.91938
292.91668
292.91391
292.91106
292.90813
292.90513
292.90204
292.89887
292.89561
292.89227
292.88884
292.88532
292.88171
292.87801
292.87421
292.87032
292.86633
292.86224
292.85805
292.85376
292.84936
292.84486
292.84024
292.83552
292.83069
292.82575
292.82069
292.81551
292.81022
292.80481
292.79928
292.79362
292.78784
292.78194
292.77591
292.76974
292.76345
292.75703
292.75047
292.74377
292.73694
292.72997
292.72286
292.71561
292.70821
292.70067
292.69299
292.68515
292.67717
292.66904
292.66075
292.65231
292.64372
292.63497
292.62607
292.61701
292.60778
292.5984
292.58885
292.57914
292.56927
292.55923
292.54903
292.53865
292.52811
292.5174
292.50652
292.49547
292.48424
292.47284
292.46127
292.44952
292.4376
292.4255
292.41323
292.40077
292.38814
292.37533
292.36234
292.34917
292.33582
292.32228
292.30857
292.29468
292.2806
292.26634
292.2519
292.23727
292.22246
292.20747
292.19229
292.17694
292.16139
292.14567
292.12976
292.11366
292.09739
292.08093
292.06428
292.04746
292.03045
292.01326
291.99588
291.97833
291.96059
291.94267
291.92457
291.90629
291.88783
291.86919
291.85037
291.83138
291.8122
291.79285
291.77333
291.75362
291.73375
291.7137
291.69347
291.67308
291.65251
291.63177
291.61086
291.58979
291.56854
291.54713
291.52556
291.50381
291.48191
291.45984
291.43761
291.41522
291.39268
291.36997
291.34711
291.32409
291.30092
291.27759
291.25412
291.23049
291.20672
291.18279
291.15872
291.13451
291.11015
291.08566
291.06102
291.03624
291.01132
290.98627
290.96109
290.93577
290.91032
290.88474
290.85904
290.8332
290.80724
290.78116
290.75496
290.72864
290.7022
290.67564
290.64897
290.62218
290.59529
290.56828
290.54117
290.51395
290.48663
290.4592
290.43167
290.40405
290.37633
290.34851
290.3206
290.29259
290.2645
290.23632
290.20806
290.17971
290.15127
290.12276
290.09417
290.06551
290.03676
290.00795
289.97907
289.95011
289.92109
289.89201
289.86286
289.83366
289.80439
289.77507
289.74569
289.71626
289.68678
289.65725
289.62767
289.59805
289.56839
289.53869
289.50895
289.47917
289.44936
289.41951
289.38964
289.35974
289.32981
289.29986
289.26988
289.23989
289.20988
289.17985
289.14981
289.11976
289.08971
289.05964
289.02957
288.9995
288.96943
288.93936
288.90929
288.87923
288.84918
288.81914
288.78911
288.7591
288.72911
288.69913
288.66918
288.63925
288.60935
288.57948
288.54963
288.51983
288.49005
288.46032
288.43062
288.40097
288.37136
288.3418
288.31228
288.28282
288.25341
288.22406
288.19477
288.16553
288.13636
288.10726
288.07822
288.04925
288.02036
287.99154
287.9628
287.93413
287.90555
287.87705
287.84864
287.82031
287.79208
287.76394
287.7359
287.70795
287.6801
287.65236
287.62472
287.59719
287.56977
287.54246
287.51526
287.48818
287.46122
287.43438
287.40766
287.38107
287.35461
287.32827
287.30207
287.276
287.25008
287.22428
287.19863
287.17313
287.14777
287.12256
287.09749
287.07258
287.04783
287.02323
286.99878
286.9745
286.95038
286.92643
286.90264
286.87902
286.85557
286.8323
286.80919
286.78627
286.76352
286.74095
286.71856
286.69636
286.67434
286.65251
286.63087
286.60941
286.58815
286.56708
286.54621
286.52553
286.50505
286.48477
286.46469
286.44481
286.42514
286.40567
286.3864
286.36734
286.34849
286.32984
286.31141
286.29319
286.27517
286.25737
286.23978
286.22241
286.20525
286.18831
286.17158
286.15506
286.13877
286.12269
286.10682
286.09118
286.07575
286.06053
286.04554
286.03076
286.0162
286.00186
285.98774
285.97383
285.96014
285.94667
285.93341
285.92036
285.90753
285.89492
285.88252
285.87033
285.85835
285.84658
285.83503
285.82368
285.81254
285.80161
285.79088
285.78036
285.77004
285.75992
285.75
285.74028
285.73076
285.72143
285.7123
285.70336
285.69461
285.68605
285.67768
285.66949
285.66148
285.65366
285.64601
285.63855
285.63125
285.62413
285.61719
285.61041
285.60379
285.59734
285.59106
285.58493
285.57896
285.57314
285.56748
285.56197
285.5566
285.55139
285.54631
285.54138
285.53658
285.53192
285.52739
285.52299
285.51872
285.51458
285.51056
285.50666
285.50288
285.49922
285.49567
285.49223
285.4889
285.48568
285.48256
285.47954
285.47662
285.4738
285.47107
285.46843
285.46589
285.46343
285.46106
285.45877
285.45656
285.45443
285.45237
285.4504
285.44849
285.44666
285.44489
285.44319
285.44155
285.43998
285.43847
285.43701
285.43562
285.43428
285.43299
285.43175
285.43057
285.42943
285.42834
285.42729
285.42629
285.42533
285.42442
285.42354
285.4227
285.42189
285.42112
285.42039
285.41969
285.41902
285.41838
285.41777
285.41719
285.41663
285.4161
285.4156
285.41511
285.41466
285.41422
285.41381
285.41341
285.41304
285.41268
285.41234
285.41202
285.41171
285.41142
285.41115
285.41089
285.41064
285.41041
285.41019
285.40998
285.40978
285.40959
285.40941
285.40924
285.40908
285.40893
285.40879
285.40866
285.40853
285.40841
285.4083
285.40819
285.4081
285.408
285.40791
285.40783
285.40775
285.40768
285.40761
285.40755
285.40749
285.40743
285.40738
285.40733
285.40728
285.40724
285.4072
285.40716
285.40712
285.40709
285.40706
285.40703
285.40701
285.40698
285.40696
285.40694
285.40692
285.4069
285.40689
285.40687
285.40686
285.40684
285.40683
285.40682
285.40681
285.4068
285.4068
285.40679
285.40678
285.40678
285.40677
285.40677
285.40676
285.40676
285.40676
285.40675
285.40674
285.40674
285.40674
285.40673
285.40672
285.40672
285.40671
285.4067
285.4067
285.40669
285.40668
285.40668
285.40667
285.40666
285.40665
285.40665
285.40664
285.40664
285.40663
285.40662
285.40662
285.40661
285.40661
285.4066
285.4066
285.4066
285.40659
285.40659
285.40659
285.40659
285.40659
285.40659
285.40658
285.40659
285.40658
285.40658
285.40658
285.40658
285.40658
285.40657
285.40657
285.40656
285.40656
285.40656
285.40655
285.40655
285.40655
285.40654
285.40653
285.40653
285.40653
285.40652
285.40652
285.40651
285.40651
285.40651
285.4065
285.4065
285.4065
285.40649
285.40649
285.40649
285.40648
285.40648
285.40648
285.40647
285.40647
285.40647
285.40647
285.40647
285.40647
285.40646
285.40646
285.40646
285.40645
285.40645
285.40645
285.40645
285.40644
285.40644
285.40644
285.40644
285.40643
285.40643
285.40643
285.40643
285.40642
285.40642
285.40642
285.40642
285.40642
285.40641
285.40641
285.40641
285.40641
285.40641
285.4064
285.4064
285.4064
285.4064
285.4064
285.4064
285.40639
285.40639
285.40639
285.40639
285.40639
285.40639
285.40639
285.40638
285.40638
285.40638
285.40638
285.40638
285.40638
285.40638
285.40637
285.40637
285.40637
285.40637
285.40637
285.40637
285.40637
285.40636
285.40636
285.40635
285.40635
285.40635
285.40635
285.40635
285.40635
285.40635
285.40635
285.40635
285.40635
285.40635
285.40635
285.40635
285.40634
285.40635
285.40635
285.40635
285.40635
285.40634
285.40634
285.40634
285.40634
285.40634
285.40634
285.40634
285.40634
285.40634
285.40634
285.40633
285.40633
285.40634
285.40634
285.40634
285.40634
285.40634
285.40634
285.40634
285.40634
285.40634
285.40634
285.40634
285.40633
285.40633
285.40633
285.40633
285.40633
285.40633
285.40633
285.40633
285.40633
285.40632
285.40632
285.40632
285.40632
285.40633
285.40633
285.40633
285.40633
285.40633
285.40633
285.40633
285.40633
285.40634
285.40634
285.40634
285.40634
285.40634
285.40634
285.40634
285.40634
285.40634
285.40634
285.40635
285.40635
285.40635
285.40635
285.40635
285.40635
285.40635
285.40635
285.40636
285.40636
285.40636
285.40636
285.40636
285.40636
285.40637
285.40637
285.40637
285.40637
285.40637
285.40637
285.40637
285.40637
285.40638
285.40638
285.40638
285.40638
285.40638
285.40638
285.40638
285.40639
285.40639
285.40639
285.40639
285.40639
285.40639
285.40639
285.4064
285.4064
285.4064
285.4064
285.4064
285.40641
285.40641
285.40641
285.40641
285.40641
285.40642
285.40642
285.40642
285.40642
285.40643
285.40643
285.40643
285.40643
285.40644
285.40644
285.40644
285.40644
285.40644
285.40645
285.40645
285.40645
285.40645
285.40646
285.40646
285.40646
285.40646
285.40646
285.40646
285.40646
285.40647
285.40647
285.40648
285.40648
285.40648
285.40648
285.40648
285.40648
285.40648
285.40649
285.40649
285.40649
285.40649
285.40649
285.4065
285.4065
285.4065
285.4065
285.40651
285.40651
285.40651
285.40651
285.40651
285.40651
285.40652
285.40652
285.40653
285.40653
285.40653
285.40653
285.40654
285.40654
285.40654
285.40655
285.40655
285.40655
285.40655
285.40656
285.40656
285.40656
285.40657
285.40657
285.40657
285.40658
285.40658
285.40658
285.40659
285.40659
285.40659
285.4066
285.4066
285.4066
285.4066
285.4066
285.40661
285.40661
285.40661
285.40661
285.40662
285.40662
285.40663
285.40663
285.40663
285.40663
285.40663
285.40663
285.40664
285.40664
285.40664
285.40665
285.40665
285.40665
285.40665
285.40666
285.40666
285.40666
285.40666
285.40667
285.40667
285.40668
285.40668
285.40668
285.40668
285.40668
285.40668
285.40669
285.40669
285.4067
285.4067
285.4067
285.4067
285.40671
285.40671
285.40671
285.40671
285.40672
285.40672
285.40672
285.40673
285.40673
285.40673
285.40673
285.40674
285.40674
285.40674
285.40674
285.40675
285.40675
285.40675
285.40676
285.40676
285.40677
285.40677
285.40677
285.40678
285.40678
285.40678
285.40678
285.40679
285.40679
285.40679
285.4068
285.4068
285.4068
285.40681
285.40681
285.40681
285.40681
285.40681
285.40681
285.40682
285.40682
285.40683
285.40683
285.40683
285.40683
285.40684
285.40684
285.40684
285.40685
285.40685
285.40685
285.40686
285.40686
285.40686
285.40686
285.40686
285.40687
285.40687
285.40687
285.40687
285.40688
285.40688
285.40688
285.40688
285.40688
285.40688
285.40689
285.40689
285.40689
285.4069
285.4069
285.4069
285.40691
285.40691
285.40691
285.40692
285.40692
285.40692
285.40692
285.40692
285.40693
285.40693
285.40694
285.40694
285.40694
285.40695
285.40695
285.40695
285.40695
285.40696
285.40696
285.40696
285.40697
285.40697
285.40697
285.40698
285.40698
285.40698
285.40699
285.40699
285.40699
285.407
285.407
285.407
285.40701
285.40701
285.40701
285.40702
285.40702
285.40702
285.40703
285.40703
285.40703
285.40704
285.40704
285.40704
285.40705
285.40705
285.40705
285.40705
285.40706
285.40706
285.40707
285.40707
285.40707
285.40707
285.40707
285.40708
285.40708
285.40708
285.40709
285.40709
285.40709
285.4071
285.4071
285.4071
285.4071
285.40711
285.40711
285.40711
285.40712
285.40712
285.40712
285.40713
285.40713
285.40713
285.40713
285.40714
285.40714
285.40714
285.40714
285.40715
285.40715
285.40715
285.40716
285.40716
285.40717
285.40717
285.40717
285.40717
285.40718
285.40718
285.40718
285.40718
285.40718
285.40719
285.40719
285.40719
285.4072
285.4072
285.40721
285.40721
285.40721
285.40721
285.40722
285.40722
285.40722
285.40723
285.40723
285.40723
285.40724
285.40724
285.40724
285.40725
285.40725
285.40725
285.40725
285.40725
285.40726
285.40726
285.40726
285.40727
285.40727
285.40728
285.40728
285.40728
285.40729
285.40729
285.40729
285.40729
285.40729
285.4073
285.4073
285.4073
285.40731
285.40731
285.40731
285.40732
285.40732
285.40733
285.40733
285.40733
285.40734
285.40734
285.40734
285.40734
285.40735
285.40735
285.40735
285.40735
285.40735
285.40736
285.40736
285.40736
285.40737
285.40737
285.40738
285.40738
285.40738
285.40739
285.40739
285.40739
285.40739
285.4074
285.4074
285.4074
285.40741
285.40741
285.40742
285.40742
285.40742
285.40743
285.40743
285.40743
285.40743
285.40744
285.40744
285.40744
285.40744
285.40745
285.40745
285.40746
285.40746
285.40746
285.40747
285.40747
285.40747
285.40748
285.40748
285.40748
285.40748
285.40749
285.40749
285.40749
285.4075
285.4075
285.4075
285.40751
285.40751
285.40751
285.40752
285.40752
285.40753
285.40753
285.40753
285.40754
285.40754
285.40754
285.40755
285.40755
285.40755
285.40756
285.40756
285.40756
285.40757
285.40757
285.40757
285.40757
285.40758
285.40758
285.40758
285.40759
285.40759
285.40759
285.4076
285.4076
285.40761
285.40761
285.40762
285.40762
285.40762
285.40763
285.40763
285.40763
285.40763
285.40764
285.40764
285.40765
285.40765
285.40766
285.40766
285.40766
285.40767
285.40767
285.40767
285.40768
285.40768
285.40769
285.40769
285.40769
285.4077
285.4077
285.4077
285.40771
285.40771
285.40772
285.40772
285.40772
285.40772
285.40773
285.40773
285.40773
285.40774
285.40774
285.40775
285.40775
285.40776
285.40776
285.40777
285.40777
285.40777
285.40778
285.40778
285.40778
285.40779
285.40779
285.4078
285.4078
285.40781
285.40781
285.40781
285.40781
285.40782
285.40782
285.40783
285.40783
285.40784
285.40784
285.40784
285.40785
285.40785
285.40785
285.40786
285.40786
285.40786
285.40787
285.40787
285.40787
285.40788
285.40788
285.40789
285.40789
285.4079
285.4079
285.4079
285.40791
285.40791
285.40792
285.40792
285.40792
285.40793
285.40793
285.40793
285.40794
285.40794
285.40795
285.40795
285.40796
285.40796
285.40796
285.40797
285.40797
285.40797
285.40798
285.40798
285.40798
285.40799
285.40799
285.408
285.408
285.408
285.40801
285.40801
285.40802
285.40803
285.40803
285.40804
285.40804
285.40804
285.40805
285.40805
285.40805
285.40806
285.40806
285.40807
285.40807
285.40808
285.40808
285.40808
285.40809
285.40809
285.4081
285.4081
285.4081
285.40811
285.40811
285.40812
285.40812
285.40812
285.40813
285.40813
285.40814
285.40814
285.40815
285.40815
285.40816
285.40816
285.40817
285.40817
285.40817
285.40818
285.40818
285.40819
285.40819
285.4082
285.4082
285.4082
285.40821
285.40822
285.40822
285.40823
285.40823
285.40823
285.40824
285.40824
285.40825
285.40825
285.40826
285.40826
285.40827
285.40827
285.40827
285.40828
285.40828
285.40829
285.40829
285.4083
285.4083
285.40831
285.40831
285.40832
285.40832
285.40833
285.40833
285.40833
285.40834
285.40834
285.40835
285.40836
285.40836
285.40837
285.40837
285.40837
285.40838
285.40838
285.40839
285.40839
285.4084
285.4084
285.40841
285.40841
285.40842
285.40842
285.40843
285.40843
285.40843
285.40844
285.40845
285.40845
285.40846
285.40846
285.40847
285.40847
285.40848
285.40848
285.40849
285.40849
285.4085
285.4085
285.40851
285.40851
285.40852
285.40852
285.40853
285.40853
285.40854
285.40854
285.40855
285.40855
285.40856
285.40856
285.40857
285.40857
285.40858
285.40858
285.40859
285.40859
285.4086
285.4086
285.40861
285.40861
285.40862
285.40862
285.40863
285.40864
285.40864
285.40865
285.40865
285.40866
285.40866
285.40867
285.40867
285.40868
285.40868
285.40869
285.40869
285.4087
285.40871
285.40871
285.40872
285.40872
285.40873
285.40873
285.40874
285.40874
285.40875
285.40875
285.40876
285.40876
285.40877
285.40878
285.40878
285.40879
285.40879
285.4088
285.40881
285.40881
285.40882
285.40882
285.40883
285.40883
285.40884
285.40885
285.40885
285.40886
285.40886
285.40887
285.40888
285.40888
285.40889
285.40889
285.4089
285.4089
285.40891
285.40892
285.40892
285.40893
285.40893
285.40894
285.40894
285.40895
285.40896
285.40896
285.40897
285.40898
285.40898
285.40899
285.409
285.409
285.40901
285.40901
285.40902
285.40903
285.40903
285.40904
285.40904
285.40905
285.40905
285.40906
285.40907
285.40908
285.40908
285.40909
285.4091
285.4091
285.40911
285.40912
285.40912
285.40913
285.40914
285.40914
285.40915
285.40916
285.40916
285.40917
285.40918
285.40918
285.40919
285.4092
285.4092
285.40921
285.40922
285.40922
285.40923
285.40924
285.40924
285.40925
285.40926
285.40927
285.40927
285.40928
285.40929
285.4093
285.4093
285.40931
285.40931
285.40932
285.40932
285.40933
285.40934
285.40934
285.40935
285.40936
285.40937
285.40938
285.40939
285.40939
285.4094
285.40941
285.40941
285.40942
285.40943
285.40943
285.40944
285.40945
285.40945
285.40946
285.40947
285.40948
285.40949
285.40949
285.4095
285.40951
285.40951
285.40952
285.40953
285.40954
285.40954
285.40955
285.40956
285.40957
285.40958
285.40958
285.40959
285.4096
285.40961
285.40961
285.40962
285.40963
285.40964
285.40964
285.40965
285.40966
285.40967
285.40967
285.40968
285.40969
285.4097
285.40971
285.40972
285.40972
285.40973
285.40974
285.40975
285.40976
285.40976
285.40977
285.40978
285.40979
285.4098
285.40981
285.40982
285.40982
285.40983
285.40984
285.40985
285.40986
285.40986
285.40987
285.40988
285.40989
285.4099
285.40991
285.40992
285.40993
285.40994
285.40995
285.40995
285.40996
285.40997
285.40998
285.40999
285.40999
285.41
285.41001
285.41002
285.41003
285.41004
285.41005
285.41006
285.41007
285.41008
285.41009
285.4101
285.41011
285.41012
285.41012
285.41013
285.41014
285.41015
285.41016
285.41017
285.41018
285.41019
285.4102
285.41021
285.41022
285.41023
285.41024
285.41025
285.41026
285.41027
285.41027
285.41028
285.41029
285.4103
285.41031
285.41033
285.41034
285.41035
285.41036
285.41037
285.41038
285.41039
285.4104
285.41041
285.41042
285.41043
285.41044
285.41045
285.41046
285.41047
285.41048
285.4105
285.41051
285.41052
285.41053
285.41054
285.41055
285.41056
285.41057
285.41058
285.41059
285.4106
285.41061
285.41062
285.41063
285.41065
285.41066
285.41067
285.41068
285.41069
285.4107
285.41071
285.41072
285.41074
285.41075
285.41076
285.41077
285.41079
285.4108
285.41081
285.41083
285.41084
285.41085
285.41086
285.41087
285.41088
285.4109
285.41091
285.41092
285.41093
285.41094
285.41095
285.41097
285.41098
285.41099
285.411
285.41102
285.41103
285.41104
285.41106
285.41107
285.41108
285.4111
285.41111
285.41113
285.41114
285.41115
285.41116
285.41118
285.41119
285.4112
285.41122
285.41123
285.41124
285.41126
285.41127
285.41129
285.4113
285.41131
285.41133
285.41134
285.41135
285.41137
285.41138
285.4114
285.41141
285.41143
285.41144
285.41145
285.41147
285.41148
285.4115
285.41151
285.41153
285.41154
285.41156
285.41157
285.41159
285.4116
285.41162
285.41163
285.41165
285.41166
285.41168
285.41169
285.41171
285.41173
285.41174
285.41176
285.41178
285.41179
285.41181
285.41182
285.41184
285.41185
285.41187
285.41189
285.4119
285.41192
285.41194
285.41195
285.41197
285.41199
285.41201
285.41202
285.41204
285.41206
285.41208
285.41209
285.41211
285.41213
285.41215
285.41216
285.41218
285.4122
285.41222
285.41224
285.41226
285.41227
285.41229
285.41231
285.41233
285.41234
285.41236
285.41238
285.4124
285.41241
285.41244
285.41245
285.41248
285.4125
285.41252
285.41254
285.41256
285.41258
285.4126
285.41262
285.41264
285.41266
285.41268
285.4127
285.41272
285.41275
285.41277
285.41279
285.41281
285.41283
285.41285
285.41287
285.41289
285.41292
285.41294
285.41296
285.41299
285.41301
285.41303
285.41305
285.41307
285.41309
285.41311
285.41314
285.41316
285.41318
285.41321
285.41323
285.41326
285.41328
285.41331
285.41334
285.41336
285.41339
285.41341
285.41344
285.41346
285.41349
285.41351
285.41354
285.41357
285.41359
285.41362
285.41364
285.41367
285.4137
285.41372
285.41375
285.41377
285.4138
285.41383
285.41386
285.41389
285.41392
285.41395
285.41398
285.41401
285.41403
285.41406
285.41409
285.41413
285.41416
285.41419
285.41422
285.41426
285.41429
285.41432
285.41435
285.41438
285.41441
285.41444
285.41446
285.41449
285.41452
285.41456
285.41459
285.41463
285.41466
285.4147
285.41473
285.41477
285.4148
285.41484
285.41487
285.41491
285.41494
285.41498
285.41502
285.41505
285.41509
285.41513
285.41517
285.41521
285.41525
285.41529
285.41533
285.41537
285.41541
285.41545
285.41549
285.41553
285.41557
285.41561
285.41565
285.41569
285.41574
285.41578
285.41583
285.41587
285.41592
285.41597
285.41601
285.41606
285.4161
285.41615
285.41619
285.41624
285.41628
285.41633
285.41638
285.41643
285.41648
285.41653
285.41658
285.41664
285.41669
285.41674
285.4168
285.41685
285.41691
285.41696
285.41702
285.41708
285.41714
285.4172
285.41726
285.41732
285.41738
285.41744
285.41749
285.41755
285.41761
285.41768
285.41774
285.4178
285.41787
285.41793
285.418
285.41806
285.41813
285.4182
285.41826
285.41833
285.41841
285.41848
285.41856
285.41863
285.41871
285.4188
285.41888
285.41896
285.41904
285.41913
285.41921
285.41929
285.41937
285.41946
285.41954
285.41963
285.41972
285.41981
285.4199
285.42
285.42009
285.42019
285.42029
285.42039
285.42049
285.4206
285.4207
285.4208
285.42091
285.42102
285.42113
285.42124
285.42135
285.42147
285.42158
285.42169
285.42181
285.42192
285.42204
285.42215
285.42227
285.42239
285.42251
285.42263
285.42274
285.42286
285.42298
285.42309
285.4232
285.42331
285.42341
285.42351
285.4236
285.42368
285.42376
285.42384
285.4239
285.42396
285.42402
285.42406
285.42409
285.42412
285.42413
285.42414
285.42415
285.42415
285.42414
285.42413
285.42411
285.42406
285.42402
285.42398
285.42394
285.4239
285.42388
285.42386
285.42384
285.42384
285.42384
285.42384
285.42385
285.42389
285.42398
285.42413
285.4243
285.4245
285.42471
285.42494
285.42518
285.42543
285.42568
285.42594
285.42621
285.42649
285.42677
285.42706
285.42736
285.42765
285.42794
285.42821
285.42845
285.42867
285.42886
285.42903
285.42917
285.4293
285.42941
285.4295
285.42957
285.42963
285.42966
285.42968
285.4297
285.42974
285.42982
285.43001
285.43046
285.43158
285.43439
285.44147
285.45935
285.50453
285.61899
285.9057
286.56752
287.49055
288.57512
289.77613
291.04172
292.32018
293.56467
294.73657
295.80729
296.75876
297.58271
298.2792
298.85473
299.3202
299.68904
299.97566
300.19425
300.35795
300.47837
300.56541
300.6272
300.67025
300.69964
300.71924
300.73194
300.73987
300.74454
300.74704
300.74815
300.74845
300.7484
300.74799
300.74686
300.74563
300.74452
300.74352
300.74264
300.74185
300.74114
300.74051
300.73993
300.7394
300.7389
300.73844
300.73799
300.73758
300.73718
300.7368
300.73643
300.73608
300.73575
300.73542
300.7351
300.73478
300.73445
300.73412
300.73377
300.7334
300.73301
300.7326
300.73216
300.7317
300.73122
300.73073
300.73022
300.7297
300.72917
300.72865
300.72812
300.7276
300.72709
300.72659
300.72611
300.72564
300.7252
300.72477
300.72437
300.72398
300.72362
300.72328
300.72296
300.72265
300.72237
300.72209
300.72184
300.72159
300.72136
300.72113
300.72092
300.72072
300.72052
300.72034
300.72016
300.71998
300.71981
300.71965
300.71949
300.71933
300.71918
300.71903
300.71889
300.71875
300.71861
300.71847
300.71834
300.71821
300.71809
300.71797
300.71784
300.71773
300.71761
300.71749
300.71738
300.71726
300.71715
300.71705
300.71694
300.71683
300.71673
300.71663
300.71653
300.71643
300.71633
300.71624
300.71614
300.71605
300.71596
300.71587
300.71578
300.7157
300.71561
300.71552
300.71544
300.71535
300.71527
300.71519
300.71511
300.71503
300.71495
300.71487
300.7148
300.71472
300.71465
300.71458
300.71451
300.71444
300.71437
300.7143
300.71424
300.71417
300.7141
300.71404
300.71397
300.71391
300.71385
300.71378
300.71372
300.71366
300.7136
300.71354
300.71348
300.71342
300.71336
300.7133
300.71324
300.71318
300.71313
300.71307
300.71302
300.71296
300.71291
300.71286
300.71281
300.71276
300.7127
300.71265
300.7126
300.71255
300.71251
300.71246
300.71241
300.71236
300.71231
300.71226
300.71221
300.71217
300.71212
300.71207
300.71203
300.71198
300.71194
300.71189
300.71185
300.71181
300.71177
300.71172
300.71168
300.71164
300.7116
300.71156
300.71152
300.71148
300.71144
300.7114
300.71136
300.71133
300.71129
300.71125
300.71121
300.71117
300.71113
300.71109
300.71106
300.71102
300.71098
300.71095
300.71091
300.71088
300.71085
300.71081
300.71078
300.71074
300.71071
300.71068
300.71064
300.71061
300.71058
300.71055
300.71051
300.71048
300.71045
300.71042
300.71038
300.71035
300.71032
300.71029
300.71026
300.71023
300.71019
300.71016
300.71013
300.7101
300.71007
300.71005
300.71002
300.70999
300.70996
300.70994
300.70991
300.70989
300.70986
300.70983
300.7098
300.70977
300.70975
300.70972
300.70969
300.70966
300.70963
300.70961
300.70958
300.70956
300.70953
300.7095
300.70948
300.70945
300.70943
300.7094
300.70938
300.70935
300.70933
300.7093
300.70928
300.70925
300.70923
300.70921
300.70918
300.70916
300.70914
300.70912
300.7091
300.70907
300.70905
300.70903
300.709
300.70898
300.70896
300.70893
300.70891
300.70889
300.70886
300.70884
300.70882
300.7088
300.70878
300.70876
300.70874
300.70872
300.7087
300.70868
300.70866
300.70864
300.70862
300.7086
300.70857
300.70855
300.70853
300.70851
300.70849
300.70847
300.70845
300.70843
300.70841
300.7084
300.70838
300.70836
300.70834
300.70832
300.7083
300.70829
300.70827
300.70825
300.70823
300.70821
300.70819
300.70818
300.70816
300.70814
300.70813
300.70811
300.70809
300.70807
300.70806
300.70804
300.70802
300.708
300.70798
300.70796
300.70795
300.70793
300.70791
300.7079
300.70788
300.70786
300.70785
300.70783
300.70781
300.7078
300.70778
300.70776
300.70775
300.70773
300.70772
300.7077
300.70769
300.70767
300.70765
300.70764
300.70762
300.70761
300.70759
300.70758
300.70756
300.70755
300.70753
300.70752
300.70751
300.70749
300.70748
300.70746
300.70745
300.70743
300.70741
300.7074
300.70738
300.70737
300.70735
300.70734
300.70732
300.70731
300.7073
300.70728
300.70727
300.70726
300.70724
300.70723
300.70722
300.7072
300.70719
300.70717
300.70716
300.70715
300.70713
300.70712
300.70711
300.7071
300.70708
300.70707
300.70706
300.70705
300.70703
300.70702
300.70701
300.70699
300.70698
300.70697
300.70695
300.70694
300.70693
300.70692
300.70691
300.7069
300.70688
300.70687
300.70686
300.70684
300.70683
300.70682
300.70681
300.70679
300.70678
300.70677
300.70676
300.70674
300.70673
300.70672
300.70671
300.70669
300.70668
300.70667
300.70666
300.70665
300.70664
300.70663
300.70662
300.70661
300.70659
300.70658
300.70657
300.70656
300.70655
300.70653
300.70652
300.70652
300.70651
300.7065
300.70649
300.70648
300.70647
300.70646
300.70644
300.70643
300.70642
300.70641
300.7064
300.70639
300.70638
300.70637
300.70636
300.70635
300.70634
300.70632
300.70631
300.7063
300.70629
300.70628
300.70627
300.70626
300.70625
300.70624
300.70623
300.70623
300.70622
300.70621
300.7062
300.70619
300.70618
300.70617
300.70616
300.70615
300.70614
300.70612
300.70611
300.7061
300.70609
300.70608
300.70608
300.70607
300.70606
300.70605
300.70604
300.70603
300.70602
300.70602
300.70601
300.706
300.70599
300.70598
300.70597
300.70596
300.70595
300.70594
300.70593
300.70592
300.70591
300.7059
300.70589
300.70589
300.70588
300.70587
300.70586
300.70585
300.70585
300.70584
300.70583
300.70582
300.7058
300.70579
300.70578
300.70578
300.70577
300.70576
300.70575
300.70575
300.70574
300.70573
300.70572
300.70571
300.7057
300.70569
300.70569
300.70568
300.70567
300.70566
300.70566
300.70565
300.70564
300.70563
300.70563
300.70562
300.70561
300.7056
300.70559
300.70559