/*--------------------------------*- C++ -*----------------------------------*\
  =========                 |
  \\      /  F ield         | OpenFOAM: The Open Source CFD Toolbox
   \\    /   O peration     | Website:  https://openfoam.org
    \\  /    A nd           | Version:  7
     \\/     M anipulation  |
\*---------------------------------------------------------------------------*/
FoamFile
{
    version     2.0;
    format      ascii;
    class       volScalarField;
    location    "0.00036";
    object      Uy;
}
// * * * * * * * * * * * * * * * * * * * * * * * * * * * * * * * * * * * * * //

dimensions      [0 1 -1 0 0 0 0];

internalField   nonuniform List<scalar> 
5000
(
2.026588e-28
3.039882e-28
0
0
3.039882e-28
-5.7599095e-44
1.519941e-28
0
0
3.546529e-28
2.026588e-28
-5.06647e-29
-2.1823145e-43
1.519941e-28
0
5.06647e-29
1.5612266e-55
-1.013294e-28
0
6.4549117e-43
1.013294e-28
-5.06647e-29
1.013294e-28
-1.519941e-28
-2.533235e-28
-3.3407475e-42
5.573117e-28
2.026588e-28
4.2764235e-43
2.6351586e-42
-8.8558609e-43
-2.026588e-28
1.4273303e-42
-2.026588e-28
0
2.2031654e-41
7.0270896e-42
-1.013294e-28
-1.013294e-28
-7.093058e-28
7.093058e-28
-3.1362707e-41
-1.013294e-27
4.053176e-28
3.039882e-28
1.013294e-28
-1.013294e-28
3.4703455e-42
2.026588e-28
0
2.533235e-28
-7.1998869e-45
4.559823e-28
-4.053176e-28
8.8558609e-42
1.1146234e-27
-4.053176e-28
1.0497435e-41
1.013294e-28
0
4.053176e-28
1.209581e-41
2.8799547e-44
3.039882e-28
-6.079764e-28
1.4169377e-41
1.013294e-28
-2.026588e-28
-1.013294e-28
0
-5.06647e-29
1.7694442e-44
-1.013294e-28
5.06647e-28
1.013294e-28
3.4607353e-42
0
5.06647e-29
-7.1998869e-45
-3.546529e-28
3.039882e-28
-5.7599095e-44
5.7599095e-44
3.039882e-28
3.546529e-28
5.2919169e-42
-2.533235e-28
0
-3.039882e-28
-3.6791422e-41
-5.3135165e-42
-1.519941e-28
-3.546529e-28
7.093058e-28
2.8050759e-41
-2.533235e-28
0
0
-2.026588e-28
1.7567724e-41
-3.039882e-28
2.026588e-28
6.079764e-28
0
-4.559823e-28
-4.559823e-28
5.06647e-29
-5.06647e-29
0
0
4.053176e-28
2.533235e-28
0
-1.2829271e-43
-3.5423443e-42
-2.533235e-28
3.039882e-28
-7.1998869e-44
1.4169377e-41
9.7576662e-57
-5.06647e-28
2.1599661e-44
-3.546529e-28
0
-1.519941e-28
-3.039882e-28
-1.013294e-28
-1.013294e-28
-2.533235e-28
6.079764e-28
4.05155e-43
3.546529e-28
4.559823e-28
3.546529e-28
0
-2.533235e-28
-2.026588e-28
2.026588e-28
1.0540634e-41
-2.533235e-28
-5.06647e-29
-5.06647e-29
0
2.8743109e-42
-1.013294e-28
2.026588e-28
-4.053176e-28
1.4399774e-43
-2.533235e-28
5.06647e-28
-5.06647e-28
1.7639723e-41
1.013294e-28
3.614831e-42
-5.06647e-29
3.546529e-28
-4.053176e-28
0
0
2.026588e-28
5.06647e-29
5.06647e-29
3.546529e-28
-3.546529e-28
3.5135448e-42
-4.559823e-28
4.053176e-28
1.013294e-28
0
-2.533235e-28
-2.533235e-28
0
-2.533235e-28
-1.013294e-28
0
-4.053176e-28
-2.1081269e-41
-5.06647e-29
5.06647e-29
-2.026588e-28
5.06647e-29
-1.0497435e-41
1.7423726e-41
4.3199321e-44
-2.026588e-28
2.533235e-28
2.1081269e-41
3.4847452e-42
-2.7877962e-41
5.573117e-28
0
0
3.039882e-28
2.533235e-28
0
0
-2.533235e-28
-9.7576662e-57
-3.1665676e-41
0
2.026588e-28
-3.546529e-28
-1.6847735e-40
1.1146234e-27
-3.039882e-28
-3.1557104e-41
-5.0399208e-44
-4.053176e-28
3.039882e-28
-1.4399774e-44
-1.402538e-41
1.0519035e-41
1.013294e-28
0
5.06647e-28
3.8569794e-41
1.4061379e-40
4.053176e-28
0
5.3455294e-43
-5.06647e-29
0
0
0
-1.013294e-28
-7.0126898e-42
3.039882e-28
0
0
5.06647e-29
3.039882e-28
-3.546529e-28
-2.533235e-28
0
-2.026588e-28
8.9216146e-44
2.533235e-28
4.053176e-28
0
-1.519941e-28
2.8137158e-41
-1.0540634e-41
3.039882e-28
-3.039882e-28
-1.519941e-28
0
1.519941e-28
2.1350048e-54
-4.559823e-28
-4.2162538e-41
-3.039882e-28
-5.06647e-29
1.4054179e-41
3.5178647e-41
1.7531725e-41
-5.06647e-29
2.026588e-28
1.013294e-28
0
-3.546529e-28
-4.559823e-28
0
5.06647e-28
8.3244538e-41
1.013294e-27
2.7480903e-41
-2.026588e-28
-4.559823e-28
-3.536774e-54
-1.4053216e-42
-3.039882e-28
2.4594814e-41
-1.013294e-28
2.026588e-28
3.5207447e-42
-7.0558891e-42
1.1519819e-43
1.7495725e-41
2.533235e-28
0
0
6.586411e-28
3.546529e-28
0
0
0
0
5.06647e-29
-3.4919451e-42
-3.039882e-28
1.079983e-43
-1.519941e-28
-4.559823e-28
3.5171447e-41
-8.8878514e-57
7.1998869e-45
4.559823e-28
5.06647e-28
1.519941e-28
-1.013294e-28
-3.039882e-28
5.06647e-28
1.3172822e-27
0
-4.053176e-28
-5.573117e-28
3.546529e-28
1.4399774e-44
-1.9439695e-43
1.4399774e-43
2.1192054e-41
-5.06647e-29
-2.026588e-28
-4.053176e-28
5.573117e-28
1.9515332e-56
5.573117e-28
1.2635801e-40
-7.093058e-28
0
0
4.053176e-28
-5.6274316e-41
-3.039882e-28
0
-3.039882e-28
-2.533235e-28
3.546529e-28
-6.4798982e-44
3.5171447e-41
-2.8799547e-44
5.06647e-29
-5.06647e-28
-7.093058e-28
0
8.5528471e-44
7.0342895e-42
2.026588e-28
2.026588e-28
-1.4054179e-40
-2.026588e-28
-4.2205737e-41
-3.039882e-28
-4.053176e-28
-3.546529e-28
4.559823e-28
1.4399774e-44
-1.519941e-28
0
0
1.519941e-28
-4.2162538e-41
-5.06647e-28
2.1599661e-44
-1.519941e-28
-1.519941e-28
-3.039882e-28
1.013294e-28
-1.519941e-28
5.06647e-29
-7.093058e-28
1.013294e-28
1.519941e-28
4.559823e-28
-4.559823e-28
-2.9272999e-56
2.026588e-28
-1.519941e-28
1.013294e-28
-1.013294e-28
-2.8079559e-41
-1.4399774e-44
5.06647e-29
-5.06647e-28
2.533235e-28
-7.0342895e-41
1.4054179e-40
1.013294e-28
-4.053176e-28
1.2679212e-40
-3.8559528e-54
-8.4325075e-41
-4.2119338e-41
4.053176e-28
4.053176e-28
-4.2162538e-41
4.053176e-28
0
0
-2.026588e-28
5.6216717e-41
3.546529e-28
3.039882e-28
-2.026588e-28
-3.039882e-28
-1.013294e-28
-4.053176e-28
-1.4399774e-44
5.06647e-29
0
6.079764e-28
8.106352e-28
-7.093058e-28
-9.119646e-28
-6.9450631e-42
1.013294e-28
-1.013294e-28
8.4405443e-41
2.026588e-28
0
-2.026588e-28
-1.519941e-28
-9.119646e-28
6.079764e-28
5.573117e-28
-5.7599095e-44
3.5171447e-41
-1.519941e-28
3.546529e-28
1.519941e-28
-2.026588e-28
4.9189627e-41
5.0399208e-44
6.3243806e-41
6.079764e-28
-3.546529e-28
4.2205737e-41
2.1102868e-41
7.0306895e-41
-5.06647e-29
2.026588e-28
7.0342895e-42
7.0234896e-41
2.8799547e-44
-1.013294e-28
-1.013294e-28
-1.8654091e-43
-4.053176e-28
7.0342895e-42
-2.026588e-28
-1.013294e-28
2.026588e-28
-1.519941e-28
1.013294e-28
5.06647e-29
7.0306895e-41
-5.06647e-29
0
0
-1.013294e-28
0
1.519941e-28
-3.546529e-28
-5.0399208e-44
9.8429653e-41
0
1.519941e-28
5.06647e-29
-5.06647e-29
1.013294e-28
1.013294e-28
-1.519941e-28
0
0
-3.546529e-28
1.8298512e-40
2.533235e-28
0
0
2.026588e-28
1.0555034e-40
4.053176e-28
0
0
0
0
0
0
0
0
6.079764e-28
1.9685931e-40
5.06647e-29
-2.533235e-28
-5.06647e-29
-2.026588e-28
1.4082979e-41
-3.039882e-28
2.8137158e-41
-1.013294e-28
0
0
5.06647e-29
-1.4068579e-41
3.546529e-28
0
0
0
0
0
0
0
4.053176e-28
-8.4353875e-41
-1.013294e-28
-3.039882e-28
-8.6398642e-44
-5.573117e-28
2.5284563e-40
3.039882e-28
-3.546529e-28
-1.9515332e-56
5.3676341e-43
0
4.053176e-28
0
0
-1.013294e-28
5.6216717e-41
1.2159528e-27
-1.013294e-28
4.559823e-28
-5.573117e-28
5.573117e-28
-3.546529e-28
-5.6216717e-41
4.1409372e-41
3.546529e-28
0
2.026588e-28
-2.533235e-28
-4.053176e-28
3.039882e-28
1.3623955e-41
-3.039882e-28
-2.533235e-28
4.053176e-28
2.533235e-28
-4.053176e-28
0
4.053176e-28
5.06647e-29
1.519941e-28
-6.079764e-28
-8.6398642e-44
4.053176e-28
-6.5435958e-42
7.0342895e-42
1.013294e-28
1.4399774e-44
5.06647e-28
-5.06647e-29
0
4.2205737e-41
2.8799547e-44
2.026588e-28
-4.559823e-28
1.4068579e-40
3.5135448e-41
7.1998869e-45
-3.5280494e-43
1.519941e-28
1.4636499e-56
7.0342895e-41
7.9198756e-44
2.026588e-28
-2.8108358e-41
-1.013294e-28
0
0
-1.013294e-28
-8.4325075e-41
2.533235e-28
-2.533235e-28
2.8137158e-41
-1.9515332e-56
-2.8137158e-41
1.013294e-28
-1.013294e-28
3.5135448e-41
-5.06647e-28
0
0
1.013294e-28
-1.013294e-28
-1.8743724e-53
-3.039882e-28
5.06647e-28
0
5.06647e-29
3.039882e-28
-3.039882e-28
-1.013294e-28
0
2.026588e-28
6.586411e-28
-9.119646e-28
-3.039882e-28
5.06647e-28
4.053176e-28
7.0270896e-42
5.06647e-29
1.2661721e-40
-8.106352e-28
0
0
0
-2.533235e-28
-5.573117e-28
0
-1.5068353e-41
-3.5099449e-41
3.546529e-28
0
0
1.519941e-28
-9.6176395e-55
7.0198897e-42
-2.026588e-28
1.013294e-28
4.2162538e-41
1.4061183e-41
0
3.546529e-28
4.9240026e-41
-1.013294e-28
-1.4061183e-41
-2.026588e-28
-2.026588e-28
1.519941e-28
0
-4.559823e-28
-5.06647e-29
-5.06647e-29
5.06647e-29
0
3.039882e-28
-2.026588e-28
0
1.013294e-28
8.106352e-28
-2.5323442e-40
-3.039882e-28
2.4394166e-56
6.586411e-28
1.2159528e-27
8.4325075e-41
1.7105694e-43
5.06647e-28
-2.026588e-28
-1.519941e-28
-3.039882e-28
2.026588e-28
0
0
-3.039882e-28
-1.1709199e-55
8.106352e-28
0
0
-2.026588e-28
-1.9515332e-55
-6.079764e-28
0
0
-3.039882e-28
-1.519941e-28
2.026588e-28
1.4377122e-41
0
-1.013294e-28
1.6882295e-40
1.013294e-28
5.06647e-29
0
5.06647e-28
-1.013294e-28
1.4399774e-44
-1.013294e-28
-1.013294e-28
3.546529e-28
1.013294e-28
1.519941e-28
2.533235e-28
3.8577359e-54
2.533235e-28
-1.519941e-28
-2.8137158e-41
1.519941e-28
-5.06647e-29
4.053176e-28
6.079764e-28
-2.026588e-28
1.013294e-28
-4.2205737e-41
-2.533235e-28
4.559823e-28
-4.3199321e-44
-2.026588e-28
1.013294e-28
2.026588e-28
-3.2073177e-43
3.039882e-28
1.013294e-28
1.970609e-40
7.093058e-28
-5.06647e-29
2.1599661e-44
2.026588e-28
-7.1998869e-44
1.519941e-28
0
-1.013294e-28
0
2.026588e-28
0
0
0
-4.559823e-28
-2.4394166e-56
1.013294e-28
0
-2.026588e-28
1.5475437e-40
2.533235e-28
0
0
0
1.519941e-28
1.4068579e-41
1.013294e-28
0
3.546529e-28
9.8429653e-41
5.06647e-29
0
-4.053176e-28
5.573117e-28
-3.0966713e-40
4.2249907e-41
-3.039882e-28
0
-6.079764e-28
-8.4411474e-41
1.013294e-28
0
3.546529e-28
-3.546529e-28
-1.1254863e-40
1.013294e-28
-1.5610211e-53
1.4399774e-44
2.8151558e-41
-6.4798982e-44
-2.533235e-28
0
-3.039882e-28
-4.0172497e-54
-2.8122758e-41
-4.7136068e-72
-7.0342895e-41
0
-1.013294e-28
9.8480053e-41
-5.573117e-28
1.519941e-28
-2.8122758e-41
-3.546529e-28
-1.013294e-28
2.8137158e-41
-1.4068579e-41
5.06647e-29
2.5658541e-43
-2.533235e-28
0
-2.533235e-28
1.4068579e-41
-1.519941e-28
0
0
0
5.06647e-28
-1.1254863e-40
3.4211388e-43
0
0
0
0
0
0
0
-5.6513115e-41
2.8151558e-41
8.5528471e-43
-5.06647e-29
-5.06647e-29
-3.039882e-28
1.1260623e-40
1.9675851e-40
1.013294e-28
-2.7818224e-41
1.519941e-28
1.013294e-28
-1.519941e-28
-2.533235e-28
2.8122758e-41
1.1623622e-41
5.06647e-29
-9.8379254e-41
-7.093058e-28
-6.079764e-28
5.06647e-28
2.026588e-28
2.533235e-28
-1.519941e-28
0
2.026588e-28
1.519941e-28
-1.4054179e-41
-5.6889512e-41
-1.519941e-28
-5.06647e-29
-3.546529e-28
3.039882e-28
-1.013294e-28
-7.0342895e-41
-1.0668954e-42
-3.546529e-28
-4.3199321e-44
6.079764e-28
-5.6259916e-41
4.053176e-28
4.559823e-28
0
-3.039882e-28
0
0
0
5.06647e-29
2.026588e-28
-5.06647e-28
-5.573117e-28
0
1.519941e-28
2.8151558e-41
4.053176e-28
0
0
-5.06647e-29
1.1249103e-40
1.013294e-28
0
0
2.026588e-28
-3.56061e-55
-2.2451224e-43
0
5.06647e-29
-5.6274316e-41
2.8122758e-41
4.2205737e-41
6.586411e-28
0
6.586411e-28
-2.8115558e-40
-3.039882e-28
0
-5.06647e-29
1.519941e-28
1.519941e-28
-9.5008019e-56
3.3121146e-69
2.026588e-28
2.8137158e-41
1.519941e-28
0
0
5.06647e-29
5.6245516e-41
5.06647e-29
0
-1.013294e-28
2.026588e-28
3.039882e-28
-2.533235e-28
0
1.013294e-28
2.026588e-28
2.8122758e-41
1.1249103e-40
-2.533235e-28
1.6876535e-40
-2.026588e-28
5.06647e-28
-9.8429653e-41
5.6274316e-41
-2.811057e-41
4.2162538e-41
1.013294e-28
0
0
0
3.039882e-28
-2.026588e-28
6.079764e-28
2.533235e-28
0
0
-1.013294e-28
1.4636499e-56
4.559823e-28
0
3.4211388e-43
-2.026588e-28
6.079764e-28
3.546529e-28
0
-1.3172822e-27
-8.6398642e-44
1.0639587e-27
-7.0270896e-41
-1.013294e-28
2.533235e-28
3.1679502e-43
-3.546529e-28
2.8151558e-41
5.6216717e-41
-1.013294e-28
0
1.4195374e-41
-1.1251983e-40
-7.093058e-28
5.06647e-29
6.74831e-40
1.519941e-28
-1.013294e-28
5.0399208e-44
4.053176e-28
0
0
0
-4.559823e-28
4.559823e-28
4.053176e-28
1.519941e-28
7.0342895e-41
-1.4054179e-41
-5.6771002e-44
0
1.1245112e-40
-1.4399774e-44
5.6349433e-41
1.519941e-28
5.6216717e-41
-2.026588e-28
-3.546529e-28
1.4075779e-40
-5.06647e-28
0
-3.039882e-28
-1.519941e-28
0
2.026588e-28
-5.06647e-29
4.053176e-28
0
-5.06647e-29
0
0
1.013294e-28
-3.5612177e-56
-1.013294e-28
0
0
-1.519941e-28
3.546529e-28
-5.06647e-28
-3.039882e-28
1.519941e-28
3.546529e-28
-1.013294e-28
5.06647e-29
-2.8151558e-41
-3.546529e-28
1.9675851e-40
1.9675851e-40
-5.06647e-29
-1.519941e-28
5.06647e-29
-5.06647e-29
8.6398642e-44
-1.519941e-28
-1.013294e-28
-1.519941e-28
-2.026588e-28
3.039882e-28
4.053176e-28
-2.026588e-28
-5.06647e-29
5.06647e-29
5.6274316e-41
2.026588e-28
-5.06647e-29
-1.4061379e-41
-3.5411406e-54
-3.546529e-28
0
0
5.06647e-29
2.026588e-28
0
1.013294e-28
4.7185179e-44
0
1.013294e-28
-2.8137158e-41
5.06647e-29
5.06647e-29
-4.2162538e-41
5.06647e-29
0
-2.026588e-28
-3.0423873e-53
-1.519941e-28
1.519941e-28
-2.8093959e-41
-5.06647e-29
-1.013294e-28
4.2184137e-41
-4.559823e-28
0
3.546529e-28
-1.519941e-28
-2.8799547e-44
2.8137158e-41
-1.519941e-28
5.06647e-28
0
1.1146234e-27
-6.749462e-40
-1.013294e-28
2.8122758e-41
5.06647e-28
-1.2159528e-27
-5.06647e-28
-2.026588e-28
1.013294e-28
5.06647e-29
0
5.06647e-29
2.026588e-28
-2.1599661e-44
2.8013245e-41
5.06647e-29
-2.533235e-28
3.546529e-28
-1.013294e-28
-1.013294e-28
1.6876535e-40
-1.013294e-28
-5.06647e-28
1.6873655e-40
-1.013294e-28
2.026588e-28
1.013294e-28
2.026588e-28
2.8108358e-41
-4.053176e-28
6.079764e-28
4.053176e-28
-6.079764e-28
-4.2184137e-41
4.053176e-28
-2.8137158e-40
-1.013294e-28
9.8429653e-41
9.7576662e-56
-1.013294e-28
-3.039882e-28
1.519941e-28
1.3172849e-55
5.06647e-29
5.9077952e-40
-1.519941e-28
-4.053176e-28
-5.6245516e-41
-7.093058e-28
-1.4636499e-56
1.519941e-28
0
0
-5.06647e-29
-1.519941e-28
7.093058e-28
0
0
0
-4.053176e-28
-2.026588e-28
0
-1.013294e-28
0
-3.375307e-40
3.039882e-28
0
0
0
5.06647e-29
-2.026588e-28
3.546529e-28
1.013294e-28
3.0950874e-40
-1.1146234e-27
0
0
1.013294e-27
-2.8799547e-44
2.026588e-28
5.06647e-29
1.013294e-28
-3.546529e-28
2.2509726e-40
8.106352e-28
0
0
-2.765196e-41
3.039882e-28
0
0
1.519941e-28
3.546529e-28
0
-2.533235e-28
-5.06647e-29
1.519941e-28
-3.039882e-28
-2.026588e-28
2.026588e-28
2.026588e-28
-5.6274316e-41
-1.013294e-28
1.013294e-28
-8.4368274e-41
6.586411e-28
0
5.573117e-28
-5.0633924e-40
-5.573117e-28
1.519941e-28
-5.6259916e-41
1.7694442e-44
0
-1.013294e-28
-1.4068579e-41
-1.4399774e-44
1.013294e-28
-2.026588e-28
-5.06647e-29
0
-1.519941e-27
1.1254863e-39
6.079764e-28
2.1599661e-44
-3.63496e-43
5.06647e-28
8.106352e-28
-5.06647e-28
-3.039882e-28
0
1.013294e-28
3.374155e-40
4.053176e-28
0
-4.053176e-28
2.8137158e-41
-2.533235e-28
-1.1254863e-40
-1.1146234e-27
9.119646e-28
1.3919973e-39
-7.093058e-28
-4.053176e-28
5.6231116e-41
-3.039882e-28
1.013294e-28
-8.106352e-28
-2.026588e-28
-4.053176e-28
-4.053176e-28
-1.0123617e-39
1.013294e-28
-1.013294e-28
4.2205737e-41
1.013294e-28
-3.9351702e-40
-9.119646e-28
-1.1249103e-40
-1.3172822e-27
4.053176e-28
1.013294e-28
2.026588e-28
-1.4064979e-40
1.519941e-28
1.1254863e-40
1.4061183e-41
5.6268325e-41
-2.1095669e-40
3.9376901e-40
-8.4325075e-41
8.5528471e-44
0
-5.06647e-29
-2.533235e-28
0
0
0
0
0
-1.013294e-28
-3.039882e-28
0
3.039882e-28
-2.533235e-28
8.4397074e-41
-2.026588e-28
0
0
0
-1.519941e-28
-3.546529e-28
3.039882e-28
-2.2451224e-43
-1.013294e-28
-5.0646884e-40
5.06647e-28
0
1.013294e-28
-8.4397074e-41
1.013294e-28
-4.559823e-28
5.06647e-28
1.2643526e-40
5.6245516e-41
-1.013294e-28
0
0
4.559823e-28
3.039882e-28
0
-8.4378896e-41
-1.4399774e-44
1.519941e-28
2.533235e-28
1.0639587e-27
0
3.039882e-28
6.079764e-28
0
-4.559823e-28
-5.06647e-28
9.119646e-28
-4.559823e-28
-5.06647e-29
-1.2159528e-27
-3.039882e-28
7.1998869e-45
3.039882e-28
-6.079764e-28
-6.079764e-28
-3.546529e-28
-1.9515332e-56
-2.026588e-28
-2.533235e-28
-5.06647e-29
0
-1.013294e-28
1.013294e-28
0
1.013294e-28
1.013294e-28
5.6231116e-41
2.026588e-28
3.039882e-28
-2.8224395e-42
2.026588e-28
3.546529e-28
2.026588e-28
0
-2.533235e-28
6.079764e-28
-3.546529e-28
1.053828e-54
3.039882e-28
5.06647e-28
2.026588e-28
1.519941e-28
1.013294e-28
2.6705542e-42
2.026588e-28
-2.533235e-28
7.26992e-43
-2.533235e-28
1.519941e-27
5.06647e-28
-1.0639587e-27
-2.533235e-28
1.013294e-28
-3.039882e-28
3.546529e-28
-5.06647e-29
-4.2176937e-40
-8.4382674e-41
-7.599705e-28
3.546529e-28
3.546529e-28
1.013294e-28
-1.519941e-28
3.039882e-28
-5.7599095e-44
-2.533235e-28
-1.519941e-28
-3.039882e-28
3.039882e-28
-5.06647e-29
1.519941e-28
0
1.519941e-28
1.519941e-28
-9.119646e-28
-1.013294e-28
-6.079764e-28
-5.6245516e-41
-2.2495327e-40
-1.013294e-28
0
-2.026588e-28
1.9457727e-42
5.06647e-29
5.5954969e-41
1.1338751e-40
-1.519941e-28
-2.026588e-28
3.039882e-28
0
1.013294e-28
-9.119646e-28
1.519941e-28
1.6801163e-40
-1.1249103e-40
-1.519941e-28
3.039882e-28
-2.533235e-28
5.0620965e-40
4.053176e-28
-2.026588e-28
0
5.06647e-28
0
-1.5750761e-39
-3.546529e-28
4.053176e-28
-7.599705e-28
1.4399774e-44
-4.053176e-28
0
9.119646e-28
2.026588e-28
-5.535848e-41
2.2501086e-40
3.039882e-28
-8.106352e-28
5.06647e-28
-5.0612325e-40
-2.026588e-28
-1.013294e-28
2.026588e-28
-4.053176e-28
2.5383528e-40
0
3.039882e-28
8.106352e-28
-1.8239292e-27
-7.093058e-28
-5.06647e-29
-4.053176e-28
-5.06647e-29
-2.533235e-28
6.079764e-28
-5.06647e-29
-1.013294e-28
5.06647e-29
-2.1599661e-44
4.053176e-28
4.053176e-28
-1.2159528e-27
2.026588e-28
8.4382674e-41
2.4290808e-42
0
-6.079764e-28
-6.079764e-28
-5.6497631e-41
-5.06647e-29
5.06647e-29
0
-1.013294e-28
-2.8122758e-41
4.053176e-28
-2.8115558e-41
1.013294e-28
0
1.0691059e-43
4.053176e-28
6.079764e-28
-6.079764e-28
-6.079764e-28
5.06647e-29
5.06647e-29
3.039882e-28
-1.013294e-28
-2.8053427e-41
5.06647e-29
-3.039882e-28
4.053176e-28
4.053176e-28
-7.599705e-28
4.053176e-28
-5.06647e-28
-1.8239292e-27
7.8743723e-40
2.2498207e-40
-1.013294e-28
-5.6245516e-40
-2.026588e-28
1.013294e-28
-8.417466e-41
1.013294e-28
-4.559823e-28
-3.039882e-28
9.119646e-28
-1.519941e-28
1.013294e-28
4.559823e-28
7.1998869e-44
-1.519941e-28
7.093058e-28
4.053176e-28
0
5.06647e-29
3.2073177e-43
-2.026588e-28
5.06647e-29
8.4368274e-40
1.2159528e-27
-2.533235e-28
-1.519941e-28
-2.533235e-28
2.026588e-28
5.06647e-29
1.519941e-28
-1.519941e-28
-3.039882e-28
-1.6876535e-40
2.026588e-28
-5.06647e-28
-7.599705e-28
-1.6869335e-40
5.6245516e-41
-2.1599661e-44
-2.026588e-28
-2.9934965e-42
5.06647e-29
-1.519941e-28
-3.323236e-55
7.3600348e-55
0
0
-3.546529e-28
8.4368274e-41
2.5304002e-40
2.533235e-28
8.106352e-28
6.079764e-28
4.4984893e-40
-3.039882e-28
-1.3679469e-27
-4.053176e-28
0
0
0
3.039882e-28
1.1028932e-40
-6.079764e-28
2.2503966e-40
5.06647e-28
0
0
-4.053176e-28
2.2498207e-40
5.6231116e-41
-3.039882e-28
-5.06647e-29
-2.026588e-28
5.06647e-28
-1.519941e-28
1.519941e-28
1.013294e-28
0
0
0
1.519941e-28
-1.013294e-28
4.559823e-28
-2.2498207e-40
-1.013294e-28
-8.7820011e-56
-5.06647e-29
-1.013294e-28
1.6873655e-40
2.026588e-28
-7.093058e-28
0
-1.4064979e-40
-1.013294e-27
-6.079764e-28
3.039882e-28
-1.088781e-40
5.06647e-29
2.8115558e-41
5.06647e-29
-9.119646e-28
-5.06647e-28
2.533235e-28
8.3787572e-41
5.06647e-28
3.546529e-28
-2.026588e-28
-2.026588e-28
-2.8122758e-41
8.4346675e-41
3.546529e-28
0
-2.026588e-28
1.013294e-27
2.4319056e-27
-1.519941e-27
-1.4186116e-27
-6.586411e-28
5.0614485e-40
1.1146234e-27
-4.559823e-28
2.026588e-28
2.026588e-28
-6.079764e-28
7.093058e-28
1.519941e-28
-2.026588e-28
-1.4186116e-27
-9.626293e-28
1.4186116e-27
-3.0919194e-40
1.1146234e-27
1.7732645e-27
-6.3837522e-27
2.3812409e-27
2.1785821e-27
-6.6877404e-27
4.2479333e-43
1.1095569e-26
4.559823e-27
-1.5503398e-26
5.6744464e-27
-5.2691398e-54
1.3159204e-38
1.8239292e-26
-2.0367209e-26
-2.3305762e-26
1.347681e-26
-1.7604847e-38
-3.7289219e-26
2.0873856e-26
7.2045203e-26
2.7713591e-26
-3.1209455e-26
0
-4.0937077e-26
-9.454033e-26
7.7182787e-42
1.8649676e-25
7.1639885e-26
-1.647616e-25
1.337019e-41
2.1532497e-25
-2.4714241e-25
2.3610272e-37
3.2405142e-25
-5.5493046e-25
-4.2305024e-25
0
0
3.1685703e-25
1.0853899e-24
4.1276531e-25
-1.4140011e-24
5.9721489e-37
1.2268964e-24
-1.3992577e-24
-1.5958367e-24
9.0948203e-25
2.0722875e-24
-1.1799809e-24
-1.3432732e-24
4.5876379e-24
1.7402311e-24
3.2959873e-36
-1.2483484e-36
-2.5579594e-24
2.9061778e-24
-6.6014077e-24
-1.1243611e-23
0
1.4482758e-23
1.0952391e-23
-1.8630069e-23
2.000791e-39
7.977461e-24
-1.8073618e-23
1.0233104e-23
1.1583572e-23
1.4551727e-35
-1.482824e-23
-3.3537194e-23
1.8955691e-23
4.2841259e-23
4.8395529e-23
-3.0342773e-35
-3.0845834e-23
3.4807561e-23
-7.8528765e-23
-1.3283084e-22
0
1.6872683e-22
1.2670806e-22
-2.1401712e-22
8.917011e-35
9.0358567e-23
-1.0163754e-22
-1.1428325e-22
7.1266353e-35
2.886679e-22
-8.9986302e-35
-3.6404086e-22
2.2676965e-34
2.544276e-34
5.1414537e-22
8.6464063e-22
-6.4601434e-22
4.0182987e-34
1.3495545e-33
-4.5366723e-22
-5.0767868e-22
-1.135816e-21
1.9051334e-21
7.0985039e-22
-1.5863381e-21
1.7718637e-21
5.6227739e-37
-3.3120487e-21
-1.2317285e-21
1.3736897e-21
4.5942778e-21
-5.684305e-33
-3.8022449e-21
-2.1169764e-21
4.7128538e-21
7.8658329e-21
-8.748737e-21
-3.2423168e-21
-3.9993392e-33
-4.0032101e-21
8.891175e-21
-2.7392478e-33
5.4759193e-21
-6.0738385e-21
2.2432352e-32
2.2391293e-20
-2.4806575e-20
-2.747139e-20
0
0
0
1.3717266e-20
4.5480664e-20
1.6748154e-20
2.0532117e-32
2.041541e-20
-6.7578446e-20
-2.4844902e-20
2.739105e-20
3.0185656e-20
3.3251605e-20
-7.3227494e-20
4.0299051e-20
-4.4336771e-20
1.6238843e-31
1.071979e-19
-1.7668494e-19
-1.2937395e-19
0
1.5587328e-19
9.4909428e-32
-9.3740377e-20
3.0822065e-19
1.1255577e-19
-1.2325598e-19
0
0
-1.614363e-19
-3.5295391e-19
4.2815156e-31
4.2123259e-19
2.2993657e-19
-2.5091857e-19
2.7369426e-19
-2.9840504e-19
1.4497427e-46
5.9000459e-31
-1.1571474e-18
0
0
9.9313149e-19
1.0794054e-18
5.8632102e-19
-7.0671724e-31
-2.0731246e-18
8.3250027e-31
1.6259537e-18
0
-1.9093383e-18
-1.0338059e-18
2.2379664e-18
-1.2106147e-18
-1.3091383e-18
4.2450516e-18
-1.5287412e-18
5.4980072e-30
3.5636422e-18
-5.7668953e-18
-4.1457312e-18
0
0
0
8.3679266e-18
6.0011707e-18
-9.6789135e-18
-6.934643e-18
0
7.9977417e-18
-4.7640149e-30
-4.6028938e-18
9.8693285e-18
-5.2877394e-18
5.6632752e-18
6.062474e-18
-1.9459755e-17
1.387381e-17
1.4829559e-17
-7.9216011e-18
8.4588125e-18
-1.8055809e-17
-2.8891249e-17
0
3.2826306e-17
2.3309193e-17
-1.2407152e-17
-1.3201547e-17
1.5586096e-29
-1.4923195e-17
5.2810813e-29
1.6834652e-17
9.9197839e-30
-2.1420197e-46
-2.00924e-17
0
-2.2548682e-17
4.7737078e-17
7.5757315e-17
-8.010774e-17
-8.4663547e-17
0
6.2945403e-17
6.6420207e-17
-7.0049857e-17
3.6919418e-17
3.8895802e-17
-1.228689e-16
8.6206217e-17
9.06768e-17
-4.7664315e-17
-1.0016591e-16
-5.2596388e-17
1.6561985e-16
5.7915605e-17
1.0112137e-28
-1.2727472e-16
-3.7888244e-32
2.0932785e-16
-1.4601136e-16
-2.2903315e-16
-7.9793451e-17
2.500625e-16
1.740554e-16
-2.7244531e-16
2.1032813e-28
1.974702e-16
1.0286915e-16
-5.9459731e-29
-2.2297593e-16
1.2874801e-28
-1.2057612e-16
-1.2529626e-16
3.9040052e-16
1.3508743e-16
1.5559604e-28
-2.9068549e-16
5.0170802e-28
4.6816622e-16
-3.2316068e-16
1.8572997e-28
1.9215941e-28
3.9706633e-28
1.8476763e-16
-5.7248018e-16
1.9698627e-16
3.3838935e-28
6.9805138e-28
6.4812379e-16
-2.2257542e-16
-4.583912e-16
2.6188309e-28
-2.4268032e-16
-2.4953763e-16
5.1293302e-16
5.2692595e-16
-3.0028309e-28
-8.3292614e-16
3.1610813e-28
2.9204037e-16
-5.9862087e-16
3.0662154e-16
3.1396885e-16
-1.7828093e-28
1.8248256e-28
-3.3617858e-16
6.8724174e-16
-3.5107406e-16
1.1942817e-27
1.2189203e-27
-1.1203383e-15
7.6177953e-16
-1.1036649e-31
-7.9144812e-16
4.0310378e-16
1.2313538e-15
4.1776099e-16
-1.2750826e-15
4.7985808e-28
4.3940914e-16
-8.9302663e-16
9.0710503e-16
2.3010118e-27
-4.6741451e-16
4.7422665e-16
-4.8095251e-16
9.7517378e-16
-4.9412461e-16
-1.5016817e-15
0
0
1.0384154e-15
1.4926706e-31
-1.062079e-15
5.3676111e-16
1.6270411e-15
5.477927e-16
-1.6592809e-15
-1.5866289e-31
-6.2528614e-28
-1.1361688e-15
1.7182896e-15
2.8840533e-27
-5.8161927e-16
5.8578866e-16
5.8978054e-16
-6.593139e-28
-5.9721715e-16
1.2013095e-15
-1.2078014e-15
2.0214257e-27
1.2196088e-15
-1.8373675e-15
-1.229806e-15
6.1714295e-16
1.8575188e-15
6.2099026e-16
-6.2259237e-16
0
6.2514126e-16
-6.2608349e-16
-1.8804042e-15
-3.4819533e-28
1.255113e-15
-6.2758725e-16
-6.2737529e-16
1.253844e-15
-6.2623402e-16
6.2530988e-16
1.2482978e-15
-1.8682506e-15
2.0685902e-27
-1.3750714e-27
-1.2342455e-15
1.2295379e-15
6.121762e-16
6.0934483e-16
6.7357475e-28
-6.0296861e-16
1.1988509e-15
-1.1912943e-15
-1.7749054e-15
0
5.8291684e-16
-3.2095308e-28
-1.6293798e-31
1.7044098e-15
5.6276636e-16
-1.6715388e-15
5.5137987e-16
3.3150299e-44
-1.6174716e-15
5.3274281e-16
1.578398e-15
5.1933173e-16
-1.0246908e-15
5.0517938e-16
-4.9783958e-16
1.63303e-27
9.6532814e-16
-1.4245255e-15
-5.1856503e-28
2.0374526e-27
-9.0104795e-16
8.8432025e-16
4.814517e-28
-4.2509481e-16
8.3282129e-16
4.0763738e-16
0
0
-7.6175198e-16
8.2559825e-28
2.0620691e-31
3.926102e-28
3.4452454e-16
3.3538339e-16
-3.2624113e-16
-3.1710793e-16
6.1598786e-16
-5.9781841e-16
3.2179286e-28
5.6173518e-16
-5.4386079e-16
-8.7611576e-28
2.8227975e-28
-2.4556801e-16
4.7392188e-16
-2.284588e-16
4.8862218e-28
4.2360495e-16
0
-3.9132418e-16
-1.8780349e-16
3.6018955e-16
1.7254206e-16
-1.6515101e-16
2.6302903e-28
1.508742e-16
0
0
-2.6157163e-16
-2.4891408e-16
0
2.2472989e-16
1.066047e-16
-1.0103622e-16
9.5659881e-17
-9.0475545e-17
0
1.6136042e-16
0
0
-6.7399601e-17
7.0318201e-29
5.9462171e-17
0
-5.2230347e-17
-2.7126684e-29
4.5675418e-17
0
-7.9529577e-17
-7.408015e-17
3.4462891e-17
3.5551913e-29
-2.9731889e-17
5.513648e-17
5.1064953e-17
-4.7239168e-17
-6.2029042e-33
-4.4727679e-29
-5.2772943e-33
3.4192456e-17
-1.5722615e-17
1.6032978e-29
-1.32501e-17
1.2141863e-17
3.3338709e-17
-3.0476583e-17
-9.2754259e-18
8.4585023e-18
8.5516147e-30
7.0083217e-18
-1.2735048e-17
-1.1556249e-17
1.0473544e-17
1.5785591e-29
4.285262e-18
3.8691111e-18
-6.9777988e-18
3.14201e-18
-3.1368003e-30
1.4096869e-30
-2.2769676e-18
-4.0795164e-18
3.6495651e-18
3.2603386e-18
0
-1.2953534e-18
-1.279009e-30
2.0461284e-18
1.0068446e-30
-2.4078269e-18
-1.4178603e-18
0
1.0993001e-18
1.0707308e-30
4.2211209e-19
3.6833554e-19
-9.6121672e-19
1.541199e-31
4.7966519e-19
-2.0627848e-19
-3.5348849e-19
1.5097233e-19
2.5909964e-19
1.1281245e-19
0
-1.8366307e-19
9.8452129e-20
3.360815e-19
-1.0973863e-19
-1.0625429e-19
-2.6285912e-19
-1.594933e-19
3.025377e-19
1.277366e-19
1.331498e-19
-1.760974e-31
-1.6332293e-19
-1.40038e-19
-2.5470086e-19
-1.3931168e-19
0
0
0
2.3865733e-19
2.6242361e-19
-2.6127365e-19
-1.2500969e-31
-1.1241729e-31
1.205456e-31
2.5767382e-31
-2.0827958e-19
0
1.5073741e-19
9.4490873e-20
-1.0401306e-19
8.0919513e-20
5.853802e-20
0
0
-1.8356527e-19
2.3118786e-31
1.7063591e-31
-2.0628039e-19
2.0569116e-19
1.5263386e-19
0
-1.7573781e-19
1.1007385e-31
1.6077533e-19
-1.357951e-19
-9.6401923e-32
2.0632451e-19
0
-1.4135822e-19
-7.9305583e-20
1.9960487e-19
-1.0132986e-19
-1.7821688e-31
1.4754713e-19
-1.8919652e-19
-2.1779368e-19
0
0
0
1.5827889e-19
1.7062409e-19
-1.3516795e-19
0
1.0491318e-19
0
5.8451767e-20
-8.9931124e-20
-4.3138699e-20
5.6657396e-20
-1.2429509e-19
-4.8714625e-20
6.9214088e-20
3.5496995e-20
4.9961628e-32
-4.7857006e-20
9.4738207e-32
-2.3892243e-35
-9.4048652e-20
0
5.9863785e-20
1.4586223e-19
7.5408025e-20
0
0
0
8.0139595e-20
-1.5467743e-19
-6.1918024e-20
3.9329765e-20
1.787286e-20
-1.1471521e-20
-1.7686292e-20
4.5039808e-20
0
-3.1046123e-20
-3.3205643e-20
0
0
6.6865448e-20
5.4385382e-32
6.153186e-20
5.9414273e-20
-5.3963027e-20
5.3448742e-20
-5.5897365e-20
-1.1199874e-19
-5.0174685e-20
0
8.0098824e-20
4.1718512e-32
-2.9835374e-20
2.6289921e-20
2.4475574e-20
2.9963951e-20
-7.6146732e-21
1.7629106e-21
-8.058826e-37
4.6515699e-21
-1.4301868e-20
6.379737e-21
-3.291462e-21
-4.1835271e-48
-4.6889037e-21
2.5365196e-20
-3.6828591e-20
-4.6107765e-20
0
1.9349953e-20
3.861678e-20
-1.3070108e-32
-2.2120815e-20
-1.9033216e-20
4.6011191e-20
4.9549455e-20
-1.7819644e-20
-2.3845102e-20
-2.2505985e-20
8.6054066e-21
1.492246e-20
-7.7501279e-21
7.1560418e-22
1.3252409e-32
9.0662286e-21
-8.5666644e-21
7.0457204e-21
8.207979e-33
-4.340015e-32
1.2150405e-20
-7.0940679e-21
-1.2673274e-33
-1.5032023e-21
4.5409376e-21
-2.5332439e-21
8.4432748e-37
-1.6768564e-32
-2.2190085e-21
-2.0354584e-21
4.1699981e-33
-8.2357417e-34
3.7298487e-21
-1.9276077e-36
-1.233017e-20
9.5212472e-21
3.815796e-36
-4.9121774e-32
2.8193776e-20
-2.5050412e-20
-2.7692996e-32
3.0655327e-20
-1.5298631e-20
-1.4317502e-20
-1.5807988e-20
1.788801e-20
-1.8472842e-32
-3.2305908e-20
0
0
3.2348522e-20
4.6158809e-36
-3.2785561e-20
1.6243504e-20
-1.9314734e-32
1.5247381e-20
2.8731288e-32
-2.6795004e-20
0
-1.5417479e-20
2.9271528e-20
1.0544564e-20
-1.6496344e-32
7.6050985e-21
-1.7763535e-20
9.4607102e-21
-9.5732079e-33
-1.5430043e-20
0
0
6.4135542e-21
-3.1469099e-33
5.8612768e-21
-6.3080753e-21
-1.7677458e-20
1.5718012e-20
5.6205492e-21
-1.3369202e-20
7.5184039e-21
1.2946829e-32
7.9814722e-21
-4.7771911e-36
-2.9315587e-32
9.7316919e-21
-2.2661337e-20
-1.2642323e-20
0
-1.1935225e-20
1.1672957e-20
1.3559926e-20
1.5513512e-20
-3.6773597e-32
1.6605251e-32
-1.5043528e-32
-2.9129265e-20
1.6152299e-20
2.9225222e-32
-3.5831659e-20
2.4663648e-36
1.647521e-20
2.9909368e-20
2.826373e-20
-2.8864015e-20
-1.6428379e-32
-1.4256813e-20
-1.2800102e-20
2.4460201e-20
-2.4725052e-20
-1.2139656e-20
3.379575e-20
2.0206855e-20
-9.8924536e-21
-2.0602598e-20
-1.0347241e-20
9.776353e-21
1.8059144e-20
-1.7359547e-20
-2.6206583e-20
8.8246262e-21
8.7328181e-21
1.737122e-20
8.787973e-21
-1.7735771e-20
-8.8952595e-21
-9.1475558e-21
1.9149029e-20
9.7211343e-21
-1.9308462e-20
1.9780805e-20
-3.3177076e-49
3.0193667e-36
2.0921826e-20
-2.1218459e-20
-3.706241e-32
-1.2917198e-32
-3.8859476e-32
1.17591e-49
-3.427359e-20
-1.2662164e-32
1.1416556e-20
2.3384384e-20
2.406895e-20
-2.409829e-20
-2.6119323e-32
-1.1402181e-20
-3.8183793e-32
1.1839021e-20
-2.3420908e-20
0
1.0289431e-20
-1.1424591e-32
1.1013664e-20
2.3101938e-20
-2.3484856e-20
-2.3253522e-20
0
2.1100883e-20
-2.3030074e-32
-2.1528486e-20
2.2276333e-20
1.2302439e-32
-1.0719893e-20
-5.7039e-33
-2.9140953e-36
1.0490807e-20
-1.0348756e-20
-9.8651311e-21
9.3926943e-21
-1.0388786e-32
9.5506432e-21
-3.0518387e-32
9.3072236e-33
1.5967319e-20
-1.5962014e-20
-1.5915687e-20
0
1.3232465e-20
-1.4001815e-32
-1.2744925e-20
1.2559321e-20
1.1152638e-20
-4.7066381e-21
-8.9356757e-21
-2.6102585e-33
-6.9514157e-37