/*--------------------------------*- C++ -*----------------------------------*\
  =========                 |
  \\      /  F ield         | OpenFOAM: The Open Source CFD Toolbox
   \\    /   O peration     | Website:  https://openfoam.org
    \\  /    A nd           | Version:  7
     \\/     M anipulation  |
\*---------------------------------------------------------------------------*/
FoamFile
{
    version     2.0;
    format      ascii;
    class       volScalarField;
    location    "0.00262";
    object      Uy;
}
// * * * * * * * * * * * * * * * * * * * * * * * * * * * * * * * * * * * * * //

dimensions      [0 1 -1 0 0 0 0];

internalField   nonuniform List<scalar> 
5000
(
3.7182661e-17
3.7768917e-17
0
0
-1.9996904e-17
2.2738194e-32
2.0004639e-17
0
0
-2.0009522e-17
-4.0020795e-17
2.0011254e-17
2.0011306e-17
-2.0011296e-17
0
-2.0009663e-17
2.8839616e-49
2.0006565e-17
0
2.0002281e-17
-1.9999605e-17
-1.9997071e-17
3.9988051e-17
-1.9991202e-17
-1.9987896e-17
-1.647211e-31
1.9981361e-17
1.9978154e-17
-3.9949023e-17
3.4624517e-31
-3.490177e-31
1.9964006e-17
3.9920361e-17
-3.9913391e-17
3.4592689e-31
-1.7349988e-30
-6.9159605e-31
3.9883675e-17
-3.9875821e-17
-3.9868692e-17
3.9860815e-17
-1.3705783e-30
-3.9845777e-17
1.991931e-17
5.9746082e-17
-1.991178e-17
-1.9907828e-17
-1.3633677e-30
-3.9800593e-17
0
1.9892772e-17
2.8264251e-33
-1.9885258e-17
3.9763379e-17
-6.9490042e-31
-3.9748371e-17
1.9870248e-17
-6.8604368e-31
-1.986274e-17
0
1.9855226e-17
6.7706155e-31
5.6410596e-33
1.9844148e-17
-1.9840215e-17
6.9346385e-31
1.9832736e-17
-1.982919e-17
-1.9825277e-17
1.9821738e-17
1.9817829e-17
-1.9814293e-17
-1.9810385e-17
3.9613697e-17
1.980294e-17
-1.9799403e-17
0
1.979196e-17
-2.8120518e-33
-1.9784526e-17
1.9780627e-17
-5.6209914e-33
5.6198855e-33
1.9769701e-17
1.9765819e-17
6.8805646e-31
-1.975844e-17
0
-1.975108e-17
-2.0486008e-30
-6.9021597e-31
1.9740297e-17
1.9736487e-17
-3.9466153e-17
-1.3654042e-30
1.9725958e-17
0
0
-1.9715143e-17
-1.3669861e-30
3.9415529e-17
-1.9704036e-17
-3.9399422e-17
0
1.9690617e-17
1.9685823e-17
-1.9680394e-17
-1.9675148e-17
0
0
1.9658632e-17
1.9653842e-17
0
-1.9645421e-17
6.8665815e-31
1.9639625e-17
-1.9637597e-17
5.5810477e-33
-6.8643889e-31
7.4175787e-50
3.9270997e-17
-8.3712959e-33
-1.9636016e-17
0
-1.9636012e-17
1.9635713e-17
1.9634651e-17
-3.9267145e-17
-1.9631729e-17
3.9259815e-17
1.9627385e-17
-1.9624966e-17
-1.9621934e-17
-1.9619092e-17
0
1.9612609e-17
1.9609032e-17
-1.9605772e-17
-6.7969228e-31
1.9598754e-17
-1.9595021e-17
-1.9591659e-17
0
1.9584537e-17
1.958078e-17
-1.9577403e-17
1.9573643e-17
-1.1124406e-32
-1.9566499e-17
1.9563116e-17
-1.9559353e-17
1.3617447e-30
1.9552213e-17
-1.9548838e-17
1.9545084e-17
1.9541715e-17
-1.9537965e-17
0
0
-1.9527495e-17
-1.9523755e-17
1.9520401e-17
1.9516667e-17
-1.9513319e-17
-1.35297e-30
1.9506248e-17
-1.9502523e-17
-1.9499183e-17
0
1.9492116e-17
1.948839e-17
0
-1.948132e-17
-1.9477979e-17
0
1.9470917e-17
4.0500901e-30
-1.9463863e-17
1.9460144e-17
1.9456812e-17
-1.9453095e-17
-1.3432931e-30
1.3375094e-30
8.288928e-33
1.9439e-17
-1.9435675e-17
-2.6951737e-30
1.3363128e-30
-1.3360583e-30
1.9421638e-17
0
0
-1.941095e-17
-1.9407647e-17
0
0
1.9396954e-17
9.3235994e-50
-1.9389947e-17
0
1.938294e-17
-1.9379633e-17
-5.3692986e-30
3.8745272e-17
-1.9368945e-17
-4.0207069e-30
-2.7514997e-33
-1.935866e-17
1.9354971e-17
-2.7500379e-33
-2.6780259e-30
1.3387844e-30
-1.9340982e-17
0
1.9333977e-17
1.337815e-30
5.363968e-30
1.9323659e-17
0
-1.9316645e-17
-1.9312939e-17
0
0
0
1.9298869e-17
1.3353834e-30
-1.92918e-17
0
0
1.9281329e-17
1.9277553e-17
-1.9274158e-17
-1.9270352e-17
0
1.926308e-17
1.9259611e-17
-1.9255725e-17
-1.9252212e-17
0
1.9244729e-17
-5.3427775e-30
-1.334079e-30
1.9233207e-17
-1.922963e-17
-1.9225674e-17
0
1.9218263e-17
-2.6705194e-30
1.9211087e-17
2.6640855e-30
-3.840853e-17
1.920122e-17
-2.6627094e-30
-6.6639901e-30
-1.3282223e-30
-1.9189542e-17
1.9186753e-17
1.9184483e-17
0
-1.9179853e-17
-1.9177458e-17
0
1.9173205e-17
1.9171303e-17
-3.8337974e-17
-1.9167035e-17
1.9164627e-17
1.9162542e-17
5.3148956e-30
-1.9157684e-17
1.9154886e-17
-1.328197e-30
-1.914932e-17
1.914655e-17
-1.330285e-30
1.3327952e-30
-5.4389734e-33
-1.3214456e-30
1.9129664e-17
0
0
-1.9118557e-17
-1.9114408e-17
0
0
0
0
1.909381e-17
1.3156823e-30
-3.8170167e-17
8.1344785e-33
1.907615e-17
1.9071413e-17
-2.6472646e-30
-2.6411777e-30
-2.708256e-33
-1.9052761e-17
-1.9048091e-17
-1.9043118e-17
3.807662e-17
5.7099784e-17
-1.9028315e-17
-3.8046371e-17
0
1.9012882e-17
1.9007662e-17
-1.9002334e-17
5.3992638e-33
-8.096572e-33
5.3961479e-33
1.898042e-17
1.8974752e-17
-1.8969017e-17
-3.7926381e-17
1.8957299e-17
2.1237016e-49
1.8945257e-17
5.2482458e-30
-3.7865754e-17
0
0
3.7827255e-17
-1.0500216e-29
-3.7800651e-17
0
1.888662e-17
1.8879617e-17
-1.8872487e-17
2.6809151e-33
-2.6182324e-30
2.6788095e-33
1.8842849e-17
-1.8835145e-17
-1.8827297e-17
0
1.881123e-17
-2.6106105e-30
-1.8794628e-17
3.7572261e-17
-5.2087931e-30
-1.8768687e-17
-5.209206e-30
-3.7501316e-17
3.7482817e-17
1.8732021e-17
-1.8722459e-17
-2.6592417e-33
-1.8702864e-17
0
0
1.86722e-17
-2.5883283e-30
-3.7301719e-17
2.6488904e-33
5.5886304e-17
-1.8617433e-17
-1.86059e-17
3.7188337e-17
-1.8582231e-17
1.8570091e-17
3.7115475e-17
-1.8545177e-17
-1.8532394e-17
-1.8519397e-17
1.8506169e-17
1.1590668e-48
-1.8479031e-17
1.8465115e-17
-1.8450953e-17
1.8436552e-17
5.1049224e-30
5.2315831e-33
1.8391835e-17
-3.6752843e-17
1.8360738e-17
5.0939845e-30
-5.0842705e-30
-1.8312082e-17
-3.6590608e-17
5.483475e-17
5.0654985e-30
-1.0121213e-29
5.0504498e-30
-3.6414176e-17
3.6377075e-17
-5.0401954e-30
-3.6301013e-17
0
0
1.809107e-17
-2.5063561e-30
-1.804983e-17
-1.8028723e-17
1.8007302e-17
5.3956667e-17
-1.79635e-17
-1.7941124e-17
-5.0927281e-33
-1.789545e-17
0
3.5697126e-17
3.5649355e-17
-1.7800492e-17
-3.5552051e-17
-1.7751266e-17
3.5452463e-17
3.5401817e-17
-3.5350624e-17
-3.5298856e-17
0
3.5193625e-17
-1.7570073e-17
-3.5086052e-17
1.7515679e-17
1.7488009e-17
-2.481218e-33
2.4202162e-30
1.7403014e-17
-1.7373978e-17
-1.7344581e-17
1.7314798e-17
-2.3973431e-30
-2.45195e-33
-2.3888076e-30
-1.7191698e-17
1.7159884e-17
-7.1340035e-30
-2.3734632e-30
-4.7353006e-30
-1.7028234e-17
1.6994201e-17
-2.3546888e-30
-4.6924611e-30
-2.4001291e-33
-3.3707142e-17
-1.6817295e-17
1.6780568e-17
3.3486815e-17
-2.3194347e-30
-3.3335551e-17
-1.6629312e-17
3.3180867e-17
1.655113e-17
-1.6511421e-17
-1.6471298e-17
-4.5601652e-30
1.6389854e-17
0
0
1.6264756e-17
0
-1.6179449e-17
1.6136234e-17
2.2869043e-33
-4.4541279e-30
0
-1.5959761e-17
1.5914761e-17
1.586941e-17
-3.164745e-17
-1.5777698e-17
1.5731346e-17
0
0
-1.559033e-17
4.3181054e-30
1.5494739e-17
0
0
-1.5349067e-17
6.3748975e-30
1.5250485e-17
0
0
0
0
0
0
0
0
2.958714e-17
8.1826921e-30
-1.4689339e-17
1.4636892e-17
-1.4584223e-17
1.4531352e-17
-4.0244424e-30
-1.4424998e-17
-3.9906875e-30
-1.4317883e-17
0
0
1.4155894e-17
3.9157281e-30
-1.4047108e-17
0
0
0
0
0
0
0
2.7213499e-17
-1.1281014e-29
-2.6991224e-17
1.3439924e-17
1.902004e-33
1.3328342e-17
-7.3596808e-30
-2.6433072e-17
-1.3160566e-17
-2.6604054e-48
3.9145578e-17
0
-2.5872789e-17
0
0
2.5536283e-17
-3.5262755e-30
-3.7968041e-17
1.2599982e-17
1.2543981e-17
-1.2488016e-17
1.2432093e-17
-1.2376218e-17
-3.4176275e-30
1.2264637e-17
-1.2208943e-17
0
-1.2097781e-17
1.2042326e-17
2.397393e-17
-1.1931705e-17
-1.1876554e-17
-1.1821517e-17
-1.1766603e-17
2.3423637e-17
1.1657171e-17
-1.1602667e-17
0
1.1494122e-17
-1.1440096e-17
-1.1386245e-17
3.3997734e-17
3.2057139e-33
-2.2451658e-17
1.1172763e-17
1.5438895e-30
1.1067289e-17
-3.1306215e-33
-2.1925477e-17
1.0910825e-17
0
-3.0010975e-30
-1.5286053e-33
-1.0705723e-17
1.0655115e-17
-2.9447376e-30
-1.4639202e-30
-1.4928466e-33
-1.04555e-17
1.0406315e-17
2.3240546e-48
-2.8625539e-30
-1.4581058e-33
-2.0424975e-17
-1.4098309e-30
1.0117316e-17
0
0
-9.9767123e-18
-4.131983e-30
9.8843912e-18
-9.8386487e-18
1.3596859e-30
8.5954676e-48
-1.3471751e-30
9.6584275e-18
9.6140555e-18
1.3273333e-30
-9.5261313e-18
0
0
9.3963001e-18
-9.3535734e-18
7.7512483e-30
9.2689511e-18
-9.227058e-18
0
9.1441167e-18
9.1030725e-18
-9.0623156e-18
-9.0218487e-18
0
8.941795e-18
8.9022134e-18
-1.7725863e-17
-8.8239522e-18
8.7852769e-18
8.7469078e-18
1.2078991e-30
8.6710955e-18
2.3973945e-30
-1.7193062e-17
0
0
0
8.4511988e-18
8.4156639e-18
0
-8.3455559e-18
-1.1515352e-30
8.2767314e-18
0
0
-8.1759042e-18
-1.1294088e-30
1.1237285e-30
-8.0779702e-18
8.0459668e-18
-3.3346934e-30
-7.9829159e-18
0
-7.9211323e-18
-1.095547e-30
7.8606087e-18
-7.8308178e-18
7.8013397e-18
7.7721736e-18
-7.7433178e-18
0
7.6865308e-18
7.6585956e-18
-7.6309632e-18
-7.6036317e-18
0
-7.5498654e-18
7.5234277e-18
7.4972854e-18
-7.4714372e-18
-1.4891764e-17
4.1211157e-30
2.218693e-17
1.170058e-48
-7.346555e-18
-1.4644873e-17
4.0492025e-30
1.4550078e-17
-7.2517545e-18
7.2287433e-18
-7.206003e-18
-7.1835313e-18
1.4322652e-17
0
0
-1.4192572e-17
-8.0153896e-48
1.410844e-17
0
0
-1.3986058e-17
-7.5327113e-48
1.3906964e-17
0
0
-1.3791958e-17
-6.8772846e-18
1.3717646e-17
6.8405911e-18
0
-1.3609615e-17
3.7693689e-30
1.3539828e-17
-6.7527946e-18
0
6.7191987e-18
-6.7027171e-18
9.5020074e-34
6.6703751e-18
-6.6545106e-18
6.6388479e-18
6.6233851e-18
-6.6081205e-18
-6.5930524e-18
1.8266293e-30
6.5634978e-18
-6.5490081e-18
-1.8145584e-30
6.5205964e-18
-6.5066721e-18
6.4929341e-18
6.4793815e-18
-6.4660132e-18
-6.4528283e-18
1.7882115e-30
6.4270053e-18
-6.4143658e-18
9.0976571e-34
6.3896281e-18
-6.3775284e-18
6.3656067e-18
6.3538622e-18
-6.3422939e-18
-1.2661802e-17
3.5114963e-30
1.2617275e-17
-6.2977656e-18
8.9344562e-34
1.2553066e-17
1.7809523e-33
-6.2559693e-18
0
6.2360553e-18
0
-6.2167708e-18
0
0
0
-6.1799859e-18
-4.1461782e-49
6.1624221e-18
0
6.1453675e-18
-1.7041286e-30
-6.1287885e-18
0
0
0
-6.0969072e-18
1.690843e-30
6.081531e-18
0
6.0664831e-18
1.6816228e-30
-6.0517335e-18
0
6.03726e-18
-6.0301197e-18
3.346668e-30
6.0160147e-18
-6.0090441e-18
0
-5.9952584e-18
-1.6628706e-30
5.9816681e-18
0
5.9682529e-18
-5.9616083e-18
-3.3071743e-30
5.948453e-18
-3.2990748e-30
-8.4348199e-34
1.6472208e-30
-8.4165912e-34
-5.9162866e-18
0
5.9036857e-18
-1.6367684e-30
-1.6350527e-30
2.8804983e-49
-1.6324795e-30
0
-1.1733627e-17
-1.6274276e-30
5.8548517e-18
-5.8489551e-18
1.6216781e-30
5.8372225e-18
5.8313641e-18
1.6176335e-30
-1.6160295e-30
5.8140562e-18
-5.8084272e-18
-5.80283e-18
0
-5.791612e-18
1.606653e-30
5.7803987e-18
0
0
0
-1.1517641e-17
6.3904934e-30
1.149612e-17
0
0
0
0
0
0
0
-1.1412591e-17
3.1677363e-30
1.1391527e-17
5.6906624e-18
-5.6857431e-18
-5.6809128e-18
1.5769319e-30
3.146267e-30
5.6659898e-18
-5.6608275e-18
5.6556938e-18
5.6506983e-18
-5.6458778e-18
-5.6411749e-18
3.1286827e-30
5.6317551e-18
5.626898e-18
-1.5594926e-30
-5.6168225e-18
-5.6117909e-18
5.6069448e-18
5.6023159e-18
-5.597788e-18
5.593212e-18
0
-5.5837406e-18
-5.5788794e-18
1.5462025e-30
5.5691285e-18
-5.564329e-18
5.5596171e-18
5.5549915e-18
-5.5504271e-18
5.5458851e-18
1.5387174e-30
-5.5367459e-18
-5.5321171e-18
-7.8549328e-34
1.1045219e-17
3.0635199e-30
-5.5127279e-18
-5.5078796e-18
0
5.4990044e-18
0
0
0
5.4816035e-18
5.476652e-18
-5.4715372e-18
-5.4664066e-18
0
5.4567545e-18
-1.5148055e-30
-5.4483898e-18
0
0
5.4361356e-18
-3.0149812e-30
-5.4269821e-18
0
0
5.4119461e-18
-3.0011821e-30
-5.4018594e-18
0
5.3934184e-18
-1.4966772e-30
1.4949824e-30
-1.4947702e-30
-5.3791904e-18
0
-5.3702382e-18
2.9773981e-30
5.3603173e-18
0
5.3506575e-18
-5.3461275e-18
-5.3417792e-18
1.0675182e-17
1.4825424e-30
-1.0659477e-17
1.4789464e-30
5.3225276e-18
0
0
5.3119559e-18
-1.4732623e-30
-5.3046553e-18
0
5.2971918e-18
-5.2933547e-18
-5.2894101e-18
5.2853439e-18
0
-5.276939e-18
5.2727122e-18
2.9244493e-30
-2.9222058e-30
5.2605863e-18
-4.3775655e-30
5.2528265e-18
-5.248812e-18
1.4555814e-30
-2.9102343e-30
-1.0471656e-17
1.4511782e-30
5.2271891e-18
0
0
0
-1.0422943e-17
-5.2073859e-18
1.0406255e-17
5.1987687e-18
0
0
5.1860412e-18
1.8653294e-49
-5.177997e-18
0
-1.0339161e-17
-5.1651124e-18
1.0321132e-17
5.1560914e-18
0
-1.0295735e-17
-1.4620422e-33
1.5420853e-17
-1.4247713e-30
-1.0263888e-17
5.1274389e-18
2.911971e-33
-5.1181027e-18
1.4206312e-30
2.8343752e-30
5.1044236e-18
0
5.0953878e-18
-2.8264318e-30
-1.0171634e-17
5.0809224e-18
-8.45142e-30
-5.0714291e-18
1.0133869e-17
-7.1943782e-34
-5.0583621e-18
0
0
0
-5.0406946e-18
5.0358152e-18
1.0061648e-17
-5.0258294e-18
-1.3942227e-30
-1.3915248e-30
-5.0122081e-18
0
5.0046334e-18
-7.1062045e-34
-9.9919715e-18
4.9909922e-18
2.7660355e-30
-4.9804049e-18
-4.9753275e-18
2.7619453e-30
9.9332797e-18
0
4.9593544e-18
4.9554053e-18
0
-4.946005e-18
-4.9407071e-18
4.9352796e-18
0
-4.9249909e-18
0
0
4.911839e-18
-4.0867e-30
-4.9027842e-18
0
0
4.8878241e-18
4.8830446e-18
-4.8786873e-18
-4.8748243e-18
4.8712337e-18
4.8674651e-18
-9.726403e-18
-4.8583384e-18
1.3482518e-30
4.8472125e-18
-2.6860575e-30
-2.6831748e-30
4.8318639e-18
-4.828071e-18
4.8246471e-18
-4.8210015e-18
-4.107012e-33
4.8118638e-18
-9.6130018e-18
-4.8009895e-18
-4.79569e-18
9.5817319e-18
9.5731965e-18
-4.7826899e-18
4.7787276e-18
-4.7744209e-18
2.6489259e-30
9.529599e-18
-4.7597367e-18
1.3196122e-30
-1.3196057e-30
-4.7451149e-18
0
0
4.7318068e-18
4.7274438e-18
0
-4.7183794e-18
-4.7135693e-18
0
-4.7034773e-18
1.3046868e-30
4.6939457e-18
-4.6898939e-18
1.2999529e-30
4.6827226e-18
0
4.6744069e-18
2.5925543e-30
-4.6641148e-18
4.6587398e-18
-1.2902385e-30
-4.6490403e-18
-4.6449924e-18
-1.2881232e-30
4.6374045e-18
0
-4.6287797e-18
4.6242016e-18
-1.3129957e-33
2.5632033e-30
4.611297e-18
-4.6072601e-18
0
-9.1975331e-18
1.0200901e-29
4.5900267e-18
2.5454824e-30
9.1635581e-18
-9.155551e-18
-9.14736e-18
9.1389397e-18
9.1305216e-18
4.5612473e-18
0
-4.5542689e-18
-9.1016859e-18
6.4616844e-34
-4.5426899e-18
4.5379825e-18
4.5330786e-18
-4.5282349e-18
9.0473709e-18
-9.0391392e-18
-7.5213081e-30
9.0251766e-18
-9.0187149e-18
2.5011797e-30
-4.5023997e-18
4.4984129e-18
4.4940272e-18
-4.4893e-18
-1.2439488e-30
-8.9589708e-18
8.9496478e-18
8.9410524e-18
-8.9332223e-18
-1.2386403e-30
-4.4593708e-18
2.4745355e-30
4.4519832e-18
1.2345221e-30
7.6030766e-49
4.4399941e-18
8.8712684e-18
-4.4311118e-18
-1.9334932e-48
-4.422127e-18
-7.3594269e-30
4.4140985e-18
-8.8208149e-18
2.4460147e-30
8.8050544e-18
2.3048225e-49
-4.3927181e-18
0
0
-4.3758407e-18
4.3709649e-18
8.7337518e-18
0
0
0
-4.3533573e-18
-4.3490397e-18
0
4.338979e-18
-4.3337436e-18
-7.2096937e-30
8.6488426e-18
0
0
0
-4.3098338e-18
-4.3054993e-18
4.3005567e-18
-4.2950741e-18
-2.3820708e-30
8.5667086e-18
0
0
-8.5370886e-18
1.2121526e-33
4.2614378e-18
-4.2578515e-18
4.2539873e-18
-4.2498739e-18
2.3578528e-30
8.4825389e-18
0
0
-4.2268473e-18
-4.2215963e-18
0
0
4.2069733e-18
4.2029194e-18
0
-4.1952351e-18
-4.1912103e-18
4.1870398e-18
-4.1828318e-18
-4.1786685e-18
4.1744728e-18
4.1700834e-18
-2.3132904e-30
-4.1603787e-18
4.1551756e-18
1.1517768e-30
-4.1449648e-18
0
-4.1356281e-18
2.2936905e-30
4.126692e-18
-4.1222199e-18
2.2862425e-30
4.1132364e-18
0
-4.1040462e-18
1.1383082e-30
5.8188992e-34
-4.0901759e-18
4.0859211e-18
4.0818789e-18
0
-8.1469511e-18
4.5193585e-30
4.0640575e-18
5.7685897e-34
8.1094696e-18
-8.1010403e-18
-8.093102e-18
8.0851232e-18
4.0383763e-18
0
-8.0591268e-18
6.7015283e-30
8.0411651e-18
0
-8.0228695e-18
-2.2251982e-30
4.0021594e-18
1.1101069e-30
7.9875909e-18
-7.9802333e-18
-9.9570042e-30
7.9651213e-18
-7.9565513e-18
2.2051378e-30
7.9379708e-18
3.9643041e-18
-7.9194574e-18
-3.9552391e-18
7.9015709e-18
-7.8927714e-18
-9.8463439e-30
7.8766078e-18
-7.8697946e-18
1.0917845e-30
-3.9286991e-18
4.3553648e-30
1.1763675e-17
-2.1741226e-30
-7.82437e-18
3.907589e-18
7.8062547e-18
-3.8987705e-18
2.1622513e-30
-3.8900339e-18
-4.3159776e-30
3.8818022e-18
-7.7568646e-18
3.2273937e-30
-4.2998566e-30
2.1467393e-30
3.8655454e-18
0
3.8562948e-18
3.8514939e-18
0
0
0
0
0
-3.8283975e-18
-3.8246424e-18
0
3.8183672e-18
-3.8155116e-18
-6.3501372e-30
7.6155215e-18
0
0
0
-3.7874735e-18
-3.7839302e-18
3.7811828e-18
3.778633e-18
-7.5514281e-18
-6.2848294e-30
7.5365134e-18
0
-7.5196014e-18
-6.2560729e-30
3.7513943e-18
-3.7470572e-18
3.7425666e-18
-3.7380591e-18
-2.0725304e-30
7.4598655e-18
0
0
-3.7200999e-18
-3.7162756e-18
0
-3.7075183e-18
-1.0524773e-33
-3.6989128e-18
3.6950924e-18
1.1074213e-17
0
7.3663932e-18
7.3572395e-18
0
-1.1009131e-17
-7.3317193e-18
7.3248051e-18
-3.6589511e-18
-3.6551466e-18
1.0952914e-17
3.6466036e-18
5.1759703e-34
3.6381442e-18
-3.6342934e-18
-3.6305416e-18
-3.626618e-18
-2.0420094e-49
-3.6180776e-18
-3.6137379e-18
3.6096049e-18
0
7.2044373e-18
7.1972288e-18
0
-3.5905769e-18
-7.1723115e-18
-1.9875689e-30
-3.5771914e-18
-7.1459402e-18
7.1379757e-18
7.1302869e-18
3.5613029e-18
3.5573962e-18
0
-3.5494071e-18
-1.0636137e-17
3.5413587e-18
2.0469912e-47
-1.0600132e-17
7.0588362e-18
3.5254752e-18
3.5215432e-18
7.0352351e-18
-7.0273872e-18
-3.5097648e-18
3.5058222e-18
3.501857e-18
3.4978606e-18
-1.0481468e-17
-3.4897323e-18
1.0456762e-17
3.4814093e-18
-3.4772504e-18
-6.9463589e-18
3.4692482e-18
-3.4654628e-18
5.7636419e-30
-5.7594475e-30
-1.0362953e-17
3.4505166e-18
3.4466614e-18
6.8855046e-18
3.4387858e-18
-6.8695216e-18
-9.7506036e-34
-3.4265969e-18
3.4225245e-18
1.0255521e-17
-1.0243682e-17
-3.4106756e-18
1.0220468e-17
0
-1.0197267e-17
-3.3951822e-18
1.0173797e-17
-3.3873673e-18
-6.7670147e-18
-1.8759829e-30
3.7472675e-30
3.3720798e-18
0
6.7287444e-18
6.7209461e-18
-3.3565645e-18
-3.352663e-18
-6.697552e-18
3.3449008e-18
3.3410296e-18
-6.674314e-18
0
6.6588406e-18
6.6511483e-18
-3.3217504e-18
-6.6358885e-18
1.8396018e-30
3.3103374e-18
-6.6130399e-18
3.3026998e-18
-1.0986824e-29
-6.590249e-18
3.2913985e-18
0
6.5680751e-18
0
-7.2760468e-30
-3.2728673e-18
-6.5381512e-18
9.7958499e-18
-9.269797e-34
-6.5156093e-18
0
6.5010096e-18
3.2468787e-18
-6.4864789e-18
3.5968886e-30
3.2359182e-18
-6.4645372e-18
3.2286485e-18
-5.369543e-30
-6.442991e-18
3.2179389e-18
-3.2143674e-18
6.4215344e-18
9.6214034e-18
0
-9.5993232e-18
-6.3920858e-18
9.5768215e-18
6.3769455e-18
-3.1846581e-18
-6.3617135e-18
3.1770958e-18
3.1733881e-18
-6.3394538e-18
3.1660866e-18
6.3248685e-18
-3.158744e-18
4.4835313e-34
-6.3024456e-18
-6.2948278e-18
9.4307835e-18
-3.1397726e-18
-5.2229544e-30
9.3962936e-18
0
-9.3728185e-18
-6.2405542e-18
3.1162378e-18
3.1121769e-18
3.1081127e-18
0
3.0999674e-18
-1.7184331e-30
-6.1833803e-18
1.7133501e-30
3.0832434e-18
0
3.0746338e-18
-6.140477e-18
-9.1973482e-18
6.1225809e-18
9.1703604e-18
3.0522705e-18
-3.0477079e-18
-6.0861115e-18
3.0383006e-18
-3.0334783e-18
-3.028649e-18
6.0477e-18
-6.0381166e-18
-3.0142074e-18
9.0277227e-18
6.0083285e-18
-2.9990418e-18
-8.9818221e-18
6.6361864e-30
-6.6247961e-30
-2.9784448e-18
-3.3004214e-30
-2.9672858e-18
2.9615831e-18
2.9559364e-18
2.9503508e-18
-2.9447343e-18
-2.9389694e-18
8.7990108e-18
-2.9268914e-18
-5.8415127e-18
8.7441092e-18
8.2671485e-34
-2.902794e-18
5.7934574e-18
2.8904698e-18
0
-2.8774929e-18
-2.8709534e-18
-5.7289101e-18
2.8579745e-18
-9.4966264e-30
-8.5344628e-18
2.8380604e-18
2.8311711e-18
2.8241781e-18
-2.8171177e-18
-2.8100223e-18
8.4086987e-18
-2.7957186e-18
-5.5768568e-18
-4.6318064e-30
-2.773519e-18
5.5321219e-18
8.2761107e-18
1.5268384e-30
-1.5230904e-30
-3.8882844e-34
-2.7279435e-18
-5.438988e-18
-2.7110579e-18
8.1085622e-18
-2.9917756e-30
-5.3743374e-18
0
0
2.6633051e-18
-1.4736436e-30
1.4684518e-30
2.6373108e-18
-5.2565991e-18
-2.619211e-18
-2.8969049e-30
2.6011365e-18
7.7766345e-18
2.5832889e-18
0
0
0
-7.6394555e-18
-5.074384e-18
7.5839527e-18
-2.7969782e-30
-5.0190863e-18
0
0
4.9602509e-18
-5.4837922e-30
-2.7297439e-30
4.8986166e-18
-2.4392624e-18
-4.8587201e-18
-4.8390117e-18
2.4095792e-18
7.1984667e-18
2.3892105e-18
0
0
0
-7.0421148e-18
-4.6738182e-18
6.9791382e-18
-5.1416327e-30
-2.3049494e-18
3.2600056e-34
-2.2829713e-18
4.5436284e-18
-2.5096135e-30
-2.2494081e-18
4.4765781e-18
0
-1.2305316e-30
-4.4106509e-18
-4.3885202e-18
6.5492206e-18
4.3435667e-18
-2.1604389e-18
-1.1925991e-30
2.1377237e-18
-6.3789832e-18
-4.2296953e-18
2.1032539e-18
2.0915545e-18
-2.0797906e-18
-2.0680162e-18
2.0562749e-18
2.044586e-18
-1.1284371e-30
1.1216954e-30
2.0096658e-18
0
1.9862204e-18
-3.9488566e-18
-5.8878622e-18
3.9016438e-18
3.8780826e-18
1.9272696e-18
-2.1262073e-30
-3.8073315e-18
1.8918007e-18
-1.8798927e-18
-1.8679555e-18
3.7120171e-18
-3.6881489e-18
-1.8321767e-18
1.8203327e-18
3.6170876e-18
1.7967912e-18
-3.5700945e-18
9.8380989e-31
-1.7615434e-18
-1.749809e-18
5.214298e-18
-1.7263958e-18
-1.7146715e-18
5.1087719e-18
-2.4033231e-34
-5.038538e-18
-1.6679138e-18
4.9690754e-18
-1.6447947e-18
-6.0232996e-47
-2.6999434e-30
-3.2203348e-18
3.1976135e-18
3.1750261e-18
-1.576208e-18
1.7372231e-30
3.1069556e-18
-1.5421727e-18
-4.5930503e-18
-1.5200224e-18
1.5091035e-18
0
1.4870018e-18
2.9516355e-18
-2.0815295e-34
-4.3617692e-18
-1.4433407e-18
2.8657236e-18
-2.0212342e-34
-2.8232411e-18
2.8016606e-18
-2.3152313e-30
-2.7591221e-18
4.1076544e-18
2.7179817e-18
0
0
-1.328384e-18
-3.9546938e-18
-1.3081484e-18
3.8943245e-18
-1.4299338e-30
-2.5559547e-18
2.5359993e-18
2.5165794e-18
-1.248905e-18
-2.4793525e-18
1.2303641e-18
1.2208716e-18
-3.6336336e-18
-1.201476e-18
-1.9850024e-30
6.5597928e-31
1.1731787e-18
-1.164128e-18
2.310288e-18
3.4385022e-18
0
-3.384759e-18
-2.2387967e-18
3.3319266e-18
-3.131973e-34
-1.0933721e-18
2.1698537e-18
-1.0766683e-18
-1.0685245e-18
-1.1771823e-30
1.0521709e-18
2.0877702e-18
-1.0355366e-18
-2.0543619e-18
-2.0378543e-18
1.1225366e-30
1.0031188e-18
-9.9549353e-19
1.9758145e-18
2.9409801e-18
0
-2.8957226e-18
-1.9155477e-18
2.851313e-18
-1.0474777e-30
-9.3630534e-19
9.2930037e-19
9.2224089e-19
-5.0771586e-31
-1.8160877e-18
5.0011233e-31
1.7880495e-18
-9.8486114e-31
-9.7756951e-31
-1.7484476e-18
-2.6032803e-18
1.7225542e-18
-9.4920991e-31
-2.8252709e-30
8.4204401e-19
8.3582805e-19
1.6595751e-18
-2.4716693e-18
-8.1802263e-19
1.6242652e-18
-1.6124896e-18
-4.549729e-34
2.3838476e-18
7.8892854e-19
-7.8337525e-19
-2.3339255e-18
2.5735704e-30
1.5347568e-18
7.6206979e-19
-1.5135645e-18
-2.2546492e-18
2.2391952e-18
7.4136264e-19
8.1737285e-31
7.3168334e-19
-1.4539638e-18
4.0091558e-31
-7.1754496e-19
7.1285695e-19
-2.3591959e-30
-2.1112401e-18
2.0980822e-18
2.0852868e-18
0
0
0
-6.7857415e-19
-2.0235431e-18
-6.7055444e-19
-7.4013958e-31
-6.6296498e-19
1.9780411e-18
6.5582729e-19
-6.5233617e-19
-6.4881084e-19
-6.452987e-19
1.283769e-18
-6.3859676e-19
6.3542962e-19
-2.1061368e-30
-1.258928e-18
1.8798315e-18
1.2474913e-18
0
-1.2360424e-18
-6.8311326e-31
6.1278199e-19
-1.8310887e-18
-6.0807925e-19
6.0590342e-19
0
0
5.9937572e-19
1.1946556e-18
-1.3220613e-30
-1.1874213e-18
-5.9213224e-19
5.9068389e-19
-5.893014e-19
5.8789306e-19
7.4980421e-48
-9.7448151e-31
1.7518e-18
0
0
-1.16301e-18
-1.1619063e-18
-5.8039745e-19
6.435596e-31
1.7375915e-18
-6.4272996e-31
-1.1573057e-18
0
1.1578014e-18
5.7923224e-19
-1.1591819e-18
5.7988191e-19
5.8014685e-19
-1.7417e-18
5.8125591e-19
-1.9389598e-30
-1.1666247e-18
1.7537156e-18
1.1717693e-18
0
0
0
-1.7733114e-18
-1.1859132e-18
1.7850601e-18
1.1944552e-18
0
-1.203445e-18
6.70329e-31
6.0594113e-19
-1.2166697e-18
6.1108086e-19
-6.1408682e-19
-6.1724561e-19
1.861436e-18
-1.2473353e-18
-1.2534213e-18
6.2968815e-19
-6.3286298e-19
1.2728754e-18
1.9211005e-18
0
-1.9459622e-18
-1.3055437e-18
6.5668475e-19
6.6046164e-19
-7.3757689e-31
6.6874961e-19
-2.2435801e-30
-6.7854009e-19
-3.7953688e-31
9.4394086e-49
6.9330789e-19
0
7.0251248e-19
-1.4151084e-18
-2.1392501e-18
2.1566214e-18
2.174055e-18
0
-1.4719299e-18
-1.4825921e-18
1.4932513e-18
-7.5224974e-19
-7.5831281e-19
2.2940681e-18
-1.5423631e-18
-1.5553383e-18
7.8396247e-19
1.5798774e-18
7.9576975e-19
-2.4054341e-18
-8.0840258e-19
-1.3579951e-30
1.645287e-18
4.715459e-34
-2.5086384e-18
1.685288e-18
2.5471892e-18
8.5579945e-19
-2.588881e-18
-1.7406216e-18
2.6329101e-18
-1.9650556e-30
-1.7842174e-18
-8.9912208e-19
5.0291432e-31
1.8260239e-18
-1.0217237e-30
9.2806874e-19
9.3587997e-19
-2.8305772e-18
-9.5094614e-19
-1.063685e-30
1.9304657e-18
-3.2387564e-30
-2.9402462e-18
1.9760154e-18
-1.1062063e-30
-1.1151808e-30
-2.2460743e-30
-1.0190585e-18
3.0796812e-18
-1.0340296e-18
-1.7340938e-30
-3.4943235e-30
-3.1712021e-18
1.0650078e-18
2.1457299e-18
-1.1995782e-30
1.0880715e-18
1.0955065e-18
-2.2061652e-18
-2.2219418e-18
1.2420925e-30
3.3804989e-18
-1.2590498e-30
-1.1417936e-18
2.2981104e-18
-1.1564135e-18
-1.1640879e-18
6.5019769e-31
-6.5483527e-31
1.187238e-18
-2.3891389e-18
1.2017602e-18
-4.0268594e-30
-4.0501456e-30
3.6702351e-18
-2.4615746e-18
3.5190622e-34
2.4909809e-18
-1.2526777e-18
-3.7790314e-18
-1.2665232e-18
3.8198781e-18
-1.4211882e-30
-1.2872837e-18
2.5888428e-18
-2.6026118e-18
-6.5348875e-30
1.3142398e-18
-1.3204959e-18
1.3268753e-18
-2.6671092e-18
1.3403329e-18
4.0405106e-18
0
0
-2.7294133e-18
-3.895174e-34
2.7528507e-18
-1.3824767e-18
-4.165333e-18
-1.394256e-18
4.199798e-18
3.9944979e-34
1.5661814e-30
2.831991e-18
-4.2634463e-18
-7.126204e-30
1.4317704e-18
-1.4370801e-18
-1.4421067e-18
1.6070226e-30
1.4513268e-18
-2.9114827e-18
2.9205711e-18
-4.879346e-30
-2.9396965e-18
4.4228735e-18
2.956695e-18
-1.4821439e-18
-4.4575366e-18
-1.4896191e-18
1.4935743e-18
0
-1.5014339e-18
1.5050359e-18
4.5254098e-18
8.391367e-31
-3.0298292e-18
1.5179885e-18
1.5210313e-18
-3.0482987e-18
1.527328e-18
-1.5303802e-18
-3.0663003e-18
4.6069282e-18
-5.1221468e-30
3.4203414e-30
3.0854724e-18
-3.0906358e-18
-1.5477782e-18
-1.5499201e-18
-1.7240409e-30
1.5535015e-18
-3.1103434e-18
3.1137181e-18
4.6757438e-18
0
-1.561985e-18
8.6790955e-31
4.4479563e-34
-4.6984103e-18
-1.567131e-18
4.7042809e-18
-1.5691427e-18
6.2834651e-48
4.7142303e-18
-1.5723245e-18
-4.7191871e-18
-1.5736438e-18
3.1481452e-18
-1.574402e-18
1.5747141e-18
-5.2458549e-30
-3.1513204e-18
4.7285754e-18
1.7510432e-30
-7.0016569e-30
3.1528191e-18
-3.1524723e-18
-1.749684e-30
1.5759223e-18
-3.1514188e-18
-1.5753892e-18
0
0
3.1487785e-18
-3.4947694e-30
-8.9437682e-34
-1.7458367e-30
-1.5717196e-18
-1.5708293e-18
1.569988e-18
1.5691858e-18
-3.136741e-18
3.1350191e-18
-1.739172e-30
-3.1312722e-18
3.1291354e-18
5.2068403e-30
-1.7342212e-30
1.5608397e-18
-3.1190461e-18
1.558226e-18
-3.4568171e-30
-3.1109728e-18
0
3.1044253e-18
1.5505013e-18
-3.0977071e-18
-1.5472825e-18
1.5456974e-18
-2.5715462e-30
-1.5421913e-18
0
0
3.0730304e-18
3.0691996e-18
0
-3.0616254e-18
-1.5287956e-18
1.52667e-18
-1.5245252e-18
1.5224421e-18
0
-3.0367486e-18
0
0
1.5113989e-18
-1.6751831e-30
-1.5066134e-18
0
1.502237e-18
8.3257887e-31
-1.497414e-18
0
2.9840517e-18
2.9787538e-18
-1.4868482e-18
-1.6477177e-30
1.4819796e-18
-2.9588351e-18
-2.9533739e-18
2.947705e-18
4.1808866e-34
3.2603707e-30
4.1652908e-34
-2.9256762e-18
1.4601644e-18
-1.6180215e-30
1.4546847e-18
-1.4517858e-18
-4.3465967e-18
4.3378865e-18
1.4430366e-18
-1.4400634e-18
-1.5952015e-30
-1.4342214e-18
2.8625812e-18
2.8563088e-18
-2.8497839e-18
-4.7344342e-30
-1.41858e-18
-1.4154982e-18
2.824605e-18
-1.4090321e-18
1.5604244e-30
-7.7891149e-31
1.3992776e-18
2.7920058e-18
-2.7854559e-18
-2.7788875e-18
0
1.3828453e-18
1.5315619e-30
-2.7526764e-18
-1.5242342e-30
4.1087521e-18
2.7323052e-18
0
-2.7186296e-18
-3.0101388e-30
-1.3524636e-18
-1.348955e-18
4.0361719e-18
-7.4460773e-31
-2.676369e-18
1.3345686e-18
2.6619196e-18
-1.3273481e-18
-2.6473907e-18
-1.3199919e-18
0
2.6251783e-18
-1.308911e-18
-3.9156152e-18
1.3014881e-18
1.2977909e-18
2.5881905e-18
1.2903846e-18
-2.5733692e-18
-1.2830038e-18
-1.2793304e-18
1.4161915e-30
1.272043e-18
1.2684022e-18
2.5294112e-18
1.2609596e-18
0
0
0
-2.4910651e-18
-2.4833342e-18
2.4755728e-18
1.3697908e-30
1.3654479e-30
-1.3607979e-30
-2.7141009e-30
2.4367516e-18
0
-2.4211376e-18
-1.2066287e-18
1.2026629e-18
-1.1986721e-18
-1.1946097e-18
0
0
2.3647125e-18
-3.9249109e-30
-2.6086694e-30
2.3432952e-18
-2.3371426e-18
-2.3308788e-18
0
2.3156483e-18
-1.2800097e-30
-2.2974839e-18
2.2889397e-18
1.266423e-30
-2.2731309e-18
0
2.257444e-18
1.1248029e-18
-2.2417578e-18
1.1170116e-18
2.4733151e-30
-2.2202108e-18
2.2118414e-18
2.2037071e-18
0
0
0
-2.1722298e-18
-2.1651106e-18
2.1585537e-18
0
-2.1445225e-18
0
-1.0633393e-18
2.1172527e-18
1.0541261e-18
-1.0499485e-18
2.0921175e-18
1.0423529e-18
-2.0774516e-18
-1.0351051e-18
-1.1452194e-30
1.0277698e-18
-2.2737088e-30
5.799826e-34
2.0331416e-18
0
-1.0090934e-18
-2.010756e-18
-1.001686e-18
0
0
0
-9.8709316e-19
1.9668716e-18
9.7975229e-19
-9.7604007e-19
-9.723043e-19
9.6855661e-19
9.648121e-19
-1.9221715e-18
0
1.9074617e-18
1.9002239e-18
0
0
-1.8789315e-18
-1.0390697e-30
-9.3249485e-19
-9.2903559e-19
9.2559155e-19
-9.2216215e-19
9.1874697e-19
1.83069e-18
9.1195415e-19
0
-1.8103841e-18
-1.0008928e-30
8.9842953e-19
-8.9504042e-19
-8.916449e-19
-1.7764887e-18
1.7696839e-18
8.8144188e-19
-2.4955656e-34
8.7466844e-19
-1.742608e-18
8.6795887e-19
-8.646348e-19
-7.5997014e-48
8.580509e-19
-1.7095783e-18
1.7030905e-18
1.6966338e-18
0
-8.4189728e-19
-1.6774022e-18
4.6377191e-31
8.3232348e-19
8.2913699e-19
-1.6518975e-18
-1.6455134e-18
8.1955905e-19
1.6327098e-18
1.6262877e-18
-8.0992648e-19
-1.6134077e-18
8.0347763e-19
-8.002498e-19
1.3269976e-30
7.937979e-19
-1.5811559e-18
1.5747284e-18
8.7031122e-31
-4.335135e-30
1.5555334e-18
-1.549163e-18
-3.425493e-30
7.6822633e-19
-1.530107e-18
7.6188149e-19
-2.1563786e-34
3.3550205e-30
7.5235011e-19
-1.498323e-18
1.6562682e-30
-4.1218198e-31
7.3954321e-19
-2.0927407e-34
-1.466164e-18
1.4596735e-18
4.1301444e-34
-3.2119848e-30
1.4401063e-18
-1.4335614e-18
-1.5841981e-30
1.4204539e-18
-7.0694707e-19
-7.0366578e-19
-7.0038345e-19
6.9710025e-19
-7.7024115e-31
-1.3810599e-18
0
0
1.3612979e-18
1.9251239e-34
-1.3480564e-18
6.7070445e-19
-7.4069294e-31
6.640254e-19
1.4668847e-30
-1.3145981e-18
0
-6.5052379e-19
1.2942393e-18
6.4370603e-19
-1.4218072e-30
6.3685466e-19
-1.2668374e-18
6.2997723e-19
-6.953668e-31
-1.2461635e-18
0
0
6.1271873e-19
-3.3818542e-31
6.0579761e-19
-6.0233206e-19
-1.7965875e-18
1.7861652e-18
5.9190917e-19
-1.1768481e-18
5.849324e-19
9.6813715e-31
5.7792793e-19
-3.2651707e-34
-1.9015023e-30
5.6736786e-19
-1.1276687e-18
-5.6029468e-19
0
-5.5319973e-19
5.4964616e-19
5.4608957e-19
5.4253048e-19
-1.1966755e-30
5.942299e-31
-5.9027348e-31
-1.0565503e-18
5.247079e-19
8.6774175e-31
-1.0351382e-18
7.3043311e-35
5.1042124e-19
1.0136852e-18
1.0065208e-18
-9.9934913e-19
-5.5101169e-31
-4.9249142e-19
-4.8889384e-19
9.7058466e-19
-9.6337458e-19
-4.7807944e-19
1.4234089e-18