/*--------------------------------*- C++ -*----------------------------------*\
  =========                 |
  \\      /  F ield         | OpenFOAM: The Open Source CFD Toolbox
   \\    /   O peration     | Website:  https://openfoam.org
    \\  /    A nd           | Version:  7
     \\/     M anipulation  |
\*---------------------------------------------------------------------------*/
FoamFile
{
    version     2.0;
    format      ascii;
    class       volScalarField;
    location    "0.00289";
    object      p;
}
// * * * * * * * * * * * * * * * * * * * * * * * * * * * * * * * * * * * * * //

dimensions      [1 -1 -2 0 0 0 0];

internalField   nonuniform List<scalar> 
5000
(
67576.16
67581.789
67587.671
67593.559
67599.438
67605.299
67611.143
67616.97
67622.781
67628.576
67634.355
67640.118
67645.865
67651.595
67657.309
67663.007
67668.688
67674.353
67680.001
67685.633
67691.248
67696.846
67702.428
67707.994
67713.542
67719.075
67724.59
67730.09
67735.573
67741.039
67746.489
67751.923
67757.34
67762.742
67768.127
67773.496
67778.849
67784.186
67789.507
67794.813
67800.102
67805.377
67810.635
67815.878
67821.106
67826.318
67831.515
67836.697
67841.863
67847.015
67852.151
67857.273
67862.38
67867.472
67872.55
67877.613
67882.661
67887.695
67892.715
67897.72
67902.711
67907.688
67912.651
67917.6
67922.536
67927.457
67932.365
67937.259
67942.14
67947.007
67951.86
67956.701
67961.528
67966.342
67971.143
67975.931
67980.706
67985.469
67990.218
67994.955
67999.679
68004.391
68009.091
68013.778
68018.453
68023.116
68027.767
68032.405
68037.032
68041.647
68046.251
68050.842
68055.423
68059.991
68064.549
68069.095
68073.629
68078.153
68082.666
68087.167
68091.658
68096.138
68100.607
68105.066
68109.514
68113.952
68118.379
68122.797
68127.203
68131.6
68135.987
68140.364
68144.731
68149.089
68153.436
68157.774
68162.103
68166.422
68170.732
68175.033
68179.325
68183.607
68187.881
68192.145
68196.401
68200.648
68204.887
68209.117
68213.338
68217.551
68221.756
68225.952
68230.141
68234.321
68238.493
68242.658
68246.814
68250.963
68255.104
68259.238
68263.363
68267.482
68271.593
68275.697
68279.794
68283.884
68287.966
68292.042
68296.11
68300.172
68304.227
68308.275
68312.317
68316.352
68320.381
68324.403
68328.419
68332.428
68336.431
68340.429
68344.42
68348.405
68352.384
68356.357
68360.324
68364.286
68368.242
68372.192
68376.137
68380.076
68384.01
68387.938
68391.861
68395.779
68399.691
68403.598
68407.5
68411.397
68415.289
68419.176
68423.058
68426.936
68430.808
68434.676
68438.539
68442.397
68446.25
68450.099
68453.944
68457.784
68461.62
68465.451
68469.278
68473.1
68476.919
68480.733
68484.543
68488.349
68492.15
68495.948
68499.741
68503.531
68507.317
68511.099
68514.877
68518.651
68522.421
68526.188
68529.95
68533.71
68537.465
68541.217
68544.965
68548.71
68552.451
68556.189
68559.923
68563.654
68567.381
68571.105
68574.825
68578.543
68582.257
68585.967
68589.675
68593.379
68597.08
68600.778
68604.472
68608.164
68611.852
68615.538
68619.22
68622.899
68626.576
68630.249
68633.919
68637.587
68641.251
68644.912
68648.571
68652.227
68655.879
68659.53
68663.177
68666.821
68670.463
68674.101
68677.737
68681.371
68685.001
68688.629
68692.254
68695.877
68699.496
68703.113
68706.728
68710.34
68713.949
68717.556
68721.16
68724.761
68728.36
68731.956
68735.55
68739.141
68742.73
68746.316
68749.9
68753.481
68757.06
68760.636
68764.21
68767.781
68771.35
68774.916
68778.48
68782.042
68785.601
68789.157
68792.712
68796.264
68799.813
68803.36
68806.905
68810.447
68813.987
68817.525
68821.06
68824.593
68828.124
68831.652
68835.178
68838.702
68842.223
68845.742
68849.259
68852.773
68856.285
68859.795
68863.303
68866.808
68870.311
68873.812
68877.31
68880.806
68884.3
68887.791
68891.281
68894.768
68898.253
68901.735
68905.216
68908.694
68912.169
68915.643
68919.114
68922.583
68926.05
68929.515
68932.977
68936.438
68939.896
68943.351
68946.805
68950.256
68953.705
68957.152
68960.597
68964.039
68967.479
68970.918
68974.353
68977.787
68981.218
68984.648
68988.074
68991.499
68994.922
68998.342
69001.76
69005.176
69008.59
69012.002
69015.411
69018.818
69022.223
69025.626
69029.027
69032.425
69035.821
69039.215
69042.607
69045.997
69049.384
69052.77
69056.153
69059.534
69062.912
69066.289
69069.663
69073.035
69076.405
69079.773
69083.139
69086.502
69089.863
69093.222
69096.579
69099.934
69103.286
69106.637
69109.985
69113.331
69116.674
69120.016
69123.355
69126.692
69130.027
69133.36
69136.691
69140.019
69143.345
69146.67
69149.991
69153.311
69156.629
69159.944
69163.257
69166.568
69169.877
69173.183
69176.488
69179.79
69183.09
69186.388
69189.683
69192.977
69196.268
69199.557
69202.844
69206.129
69209.411
69212.691
69215.97
69219.246
69222.519
69225.791
69229.06
69232.327
69235.592
69238.855
69242.116
69245.374
69248.63
69251.884
69255.136
69258.385
69261.632
69264.877
69268.12
69271.361
69274.599
69277.835
69281.069
69284.3
69287.529
69290.756
69293.981
69297.203
69300.423
69303.641
69306.857
69310.07
69313.282
69316.491
69319.698
69322.902
69326.105
69329.306
69332.505
69335.701
69338.896
69342.089
69345.28
69348.469
69351.656
69354.842
69358.026
69361.208
69364.388
69367.567
69370.744
69373.919
69377.093
69380.265
69383.436
69386.605
69389.772
69392.937
69396.101
69399.263
69402.424
69405.582
69408.739
69411.894
69415.046
69418.198
69421.347
69424.494
69427.639
69430.782
69433.924
69437.063
69440.2
69443.335
69446.468
69449.599
69452.728
69455.854
69458.979
69462.101
69465.221
69468.34
69471.455
69474.569
69477.681
69480.79
69483.897
69487.002
69490.105
69493.206
69496.304
69499.4
69502.495
69505.586
69508.676
69511.764
69514.849
69517.932
69521.013
69524.092
69527.169
69530.243
69533.315
69536.385
69539.453
69542.519
69545.582
69548.644
69551.703
69554.76
69557.815
69560.867
69563.918
69566.966
69570.012
69573.056
69576.097
69579.137
69582.174
69585.209
69588.242
69591.273
69594.302
69597.328
69600.352
69603.374
69606.394
69609.412
69612.428
69615.441
69618.452
69621.461
69624.468
69627.473
69630.475
69633.476
69636.474
69639.47
69642.464
69645.455
69648.445
69651.432
69654.417
69657.4
69660.381
69663.359
69666.336
69669.31
69672.282
69675.252
69678.22
69681.185
69684.149
69687.11
69690.069
69693.026
69695.98
69698.933
69701.883
69704.831
69707.777
69710.721
69713.663
69716.602
69719.539
69722.474
69725.407
69728.338
69731.267
69734.193
69737.117
69740.039
69742.959
69745.877
69748.793
69751.706
69754.618
69757.527
69760.434
69763.339
69766.243
69769.144
69772.043
69774.94
69777.835
69780.728
69783.62
69786.509
69789.396
69792.282
69795.166
69798.048
69800.928
69803.806
69806.682
69809.557
69812.43
69815.301
69818.17
69821.038
69823.904
69826.768
69829.63
69832.49
69835.349
69838.206
69841.062
69843.915
69846.767
69849.616
69852.464
69855.311
69858.155
69860.997
69863.838
69866.677
69869.513
69872.348
69875.181
69878.012
69880.841
69883.668
69886.493
69889.316
69892.137
69894.956
69897.773
69900.587
69903.4
69906.211
69909.02
69911.826
69914.631
69917.433
69920.233
69923.031
69925.827
69928.621
69931.413
69934.203
69936.991
69939.776
69942.56
69945.341
69948.12
69950.898
69953.673
69956.445
69959.216
69961.985
69964.751
69967.516
69970.278
69973.038
69975.796
69978.552
69981.306
69984.058
69986.808
69989.555
69992.301
69995.044
69997.785
70000.524
70003.261
70005.996
70008.729
70011.46
70014.188
70016.915
70019.639
70022.361
70025.082
70027.8
70030.516
70033.23
70035.941
70038.651
70041.359
70044.064
70046.768
70049.469
70052.168
70054.865
70057.56
70060.253
70062.944
70065.633
70068.32
70071.004
70073.687
70076.367
70079.046
70081.722
70084.396
70087.068
70089.738
70092.406
70095.072
70097.736
70100.398
70103.057
70105.715
70108.371
70111.024
70113.675
70116.325
70118.972
70121.617
70124.26
70126.901
70129.54
70132.177
70134.812
70137.445
70140.075
70142.704
70145.331
70147.955
70150.577
70153.198
70155.816
70158.432
70161.047
70163.659
70166.269
70168.877
70171.483
70174.086
70176.688
70179.288
70181.886
70184.481
70187.075
70189.667
70192.256
70194.844
70197.43
70200.013
70202.595
70205.175
70207.752
70210.328
70212.902
70215.474
70218.044
70220.612
70223.179
70225.743
70228.306
70230.867
70233.426
70235.983
70238.538
70241.092
70243.644
70246.194
70248.743
70251.289
70253.834
70256.378
70258.92
70261.46
70263.998
70266.535
70269.07
70271.603
70274.135
70276.665
70279.193
70281.72
70284.245
70286.769
70289.29
70291.81
70294.329
70296.845
70299.361
70301.874
70304.385
70306.895
70309.403
70311.91
70314.414
70316.917
70319.418
70321.917
70324.415
70326.91
70329.404
70331.896
70334.386
70336.874
70339.361
70341.845
70344.328
70346.809
70349.288
70351.765
70354.24
70356.714
70359.185
70361.655
70364.122
70366.588
70369.052
70371.514
70373.974
70376.432
70378.888
70381.343
70383.795
70386.245
70388.694
70391.14
70393.585
70396.028
70398.469
70400.908
70403.345
70405.78
70408.213
70410.645
70413.074
70415.501
70417.927
70420.35
70422.772
70425.192
70427.61
70430.026
70432.441
70434.853
70437.263
70439.672
70442.078
70444.482
70446.884
70449.285
70451.684
70454.081
70456.476
70458.87
70461.262
70463.651
70466.039
70468.425
70470.808
70473.19
70475.569
70477.947
70480.322
70482.696
70485.069
70487.439
70489.808
70492.175
70494.54
70496.904
70499.265
70501.624
70503.982
70506.337
70508.69
70511.042
70513.391
70515.738
70518.083
70520.426
70522.768
70525.108
70527.446
70529.782
70532.117
70534.45
70536.781
70539.111
70541.439
70543.764
70546.088
70548.41
70550.73
70553.049
70555.365
70557.68
70559.992
70562.303
70564.611
70566.918
70569.223
70571.526
70573.827
70576.126
70578.423
70580.718
70583.011
70585.302
70587.592
70589.879
70592.165
70594.449
70596.731
70599.012
70601.291
70603.568
70605.843
70608.116
70610.387
70612.657
70614.925
70617.192
70619.456
70621.72
70623.981
70626.241
70628.5
70630.757
70633.012
70635.266
70637.518
70639.769
70642.018
70644.265
70646.511
70648.755
70650.997
70653.237
70655.476
70657.713
70659.948
70662.182
70664.415
70666.645
70668.875
70671.102
70673.328
70675.551
70677.773
70679.993
70682.212
70684.429
70686.645
70688.859
70691.072
70693.282
70695.491
70697.698
70699.903
70702.106
70704.308
70706.508
70708.706
70710.903
70713.098
70715.291
70717.483
70719.672
70721.86
70724.046
70726.23
70728.412
70730.593
70732.772
70734.949
70737.123
70739.296
70741.466
70743.634
70745.8
70747.965
70750.128
70752.29
70754.45
70756.608
70758.764
70760.918
70763.07
70765.22
70767.368
70769.514
70771.658
70773.801
70775.942
70778.081
70780.218
70782.353
70784.486
70786.617
70788.746
70790.873
70792.998
70795.122
70797.244
70799.364
70801.482
70803.598
70805.711
70807.823
70809.933
70812.041
70814.147
70816.252
70818.355
70820.456
70822.554
70824.651
70826.745
70828.838
70830.928
70833.017
70835.104
70837.189
70839.272
70841.353
70843.433
70845.511
70847.586
70849.66
70851.732
70853.802
70855.87
70857.935
70859.999
70862.061
70864.122
70866.18
70868.236
70870.29
70872.342
70874.393
70876.441
70878.488
70880.532
70882.575
70884.616
70886.655
70888.692
70890.726
70892.759
70894.789
70896.818
70898.845
70900.87
70902.894
70904.916
70906.936
70908.954
70910.97
70912.984
70914.995
70917.005
70919.012
70921.018
70923.021
70925.024
70927.024
70929.023
70931.019
70933.015
70935.008
70936.999
70938.988
70940.975
70942.959
70944.942
70946.923
70948.902
70950.88
70952.856
70954.831
70956.803
70958.774
70960.743
70962.71
70964.675
70966.638
70968.6
70970.56
70972.519
70974.477
70976.433
70978.387
70980.339
70982.289
70984.236
70986.182
70988.125
70990.067
70992.008
70993.947
70995.884
70997.82
70999.755
71001.687
71003.617
71005.545
71007.472
71009.397
71011.321
71013.243
71015.164
71017.083
71019
71020.916
71022.831
71024.743
71026.653
71028.561
71030.466
71032.37
71034.271
71036.171
71038.069
71039.966
71041.861
71043.755
71045.647
71047.537
71049.425
71051.312
71053.196
71055.078
71056.959
71058.837
71060.713
71062.588
71064.46
71066.331
71068.2
71070.067
71071.933
71073.797
71075.659
71077.52
71079.378
71081.234
71083.089
71084.941
71086.791
71088.639
71090.486
71092.33
71094.172
71096.012
71097.85
71099.686
71101.52
71103.352
71105.182
71107.01
71108.837
71110.661
71112.483
71114.304
71116.122
71117.939
71119.753
71121.566
71123.376
71125.185
71126.991
71128.796
71130.6
71132.401
71134.2
71135.998
71137.793
71139.586
71141.377
71143.167
71144.954
71146.739
71148.522
71150.303
71152.083
71153.861
71155.637
71157.412
71159.184
71160.954
71162.721
71164.487
71166.25
71168.012
71169.771
71171.529
71173.284
71175.038
71176.79
71178.541
71180.29
71182.037
71183.783
71185.526
71187.266
71189.004
71190.741
71192.475
71194.207
71195.937
71197.666
71199.392
71201.117
71202.84
71204.562
71206.281
71207.999
71209.714
71211.427
71213.138
71214.846
71216.552
71218.257
71219.959
71221.661
71223.361
71225.059
71226.755
71228.449
71230.141
71231.831
71233.519
71235.205
71236.888
71238.57
71240.249
71241.927
71243.603
71245.278
71246.951
71248.623
71250.292
71251.96
71253.625
71255.288
71256.949
71258.609
71260.267
71261.923
71263.577
71265.229
71266.879
71268.528
71270.175
71271.82
71273.464
71275.106
71276.746
71278.384
71280.02
71281.654
71283.287
71284.918
71286.547
71288.174
71289.8
71291.424
71293.046
71294.666
71296.285
71297.902
71299.517
71301.131
71302.743
71304.352
71305.961
71307.567
71309.172
71310.775
71312.376
71313.976
71315.574
71317.17
71318.764
71320.357
71321.948
71323.537
71325.124
71326.709
71328.293
71329.875
71331.454
71333.033
71334.609
71336.183
71337.756
71339.327
71340.896
71342.463
71344.029
71345.592
71347.154
71348.714
71350.272
71351.829
71353.383
71354.936
71356.487
71358.036
71359.583
71361.128
71362.671
71364.212
71365.751
71367.289
71368.824
71370.358
71371.89
71373.42
71374.948
71376.474
71377.998
71379.521
71381.042
71382.56
71384.077
71385.592
71387.104
71388.615
71390.124
71391.631
71393.136
71394.64
71396.141
71397.64
71399.138
71400.633
71402.127
71403.618
71405.108
71406.596
71408.082
71409.566
71411.048
71412.529
71414.007
71415.483
71416.958
71418.43
71419.901
71421.37
71422.836
71424.301
71425.764
71427.225
71428.684
71430.141
71431.596
71433.049
71434.5
71435.95
71437.397
71438.843
71440.287
71441.728
71443.168
71444.606
71446.042
71447.476
71448.908
71450.338
71451.766
71453.193
71454.617
71456.04
71457.46
71458.879
71460.296
71461.711
71463.124
71464.535
71465.944
71467.351
71468.757
71470.16
71471.562
71472.962
71474.359
71475.755
71477.149
71478.541
71479.931
71481.319
71482.705
71484.089
71485.471
71486.852
71488.23
71489.607
71490.981
71492.354
71493.725
71495.094
71496.462
71497.827
71499.19
71500.552
71501.912
71503.27
71504.626
71505.98
71507.332
71508.683
71510.031
71511.378
71512.723
71514.066
71515.408
71516.747
71518.085
71519.421
71520.755
71522.088
71523.418
71524.747
71526.074
71527.4
71528.723
71530.045
71531.365
71532.683
71534
71535.315
71536.628
71537.94
71539.25
71540.558
71541.864
71543.169
71544.472
71545.774
71547.074
71548.372
71549.668
71550.962
71552.255
71553.546
71554.836
71556.124
71557.41
71558.694
71559.977
71561.258
71562.537
71563.815
71565.091
71566.366
71567.639
71568.91
71570.179
71571.447
71572.714
71573.978
71575.241
71576.503
71577.762
71579.02
71580.276
71581.53
71582.783
71584.035
71585.284
71586.533
71587.779
71589.024
71590.267
71591.508
71592.747
71593.984
71595.22
71596.455
71597.687
71598.919
71600.148
71601.376
71602.603
71603.827
71605.05
71606.271
71607.49
71608.708
71609.924
71611.138
71612.35
71613.561
71614.769
71615.976
71617.182
71618.386
71619.589
71620.789
71621.989
71623.186
71624.382
71625.575
71626.768
71627.958
71629.146
71630.333
71631.519
71632.702
71633.884
71635.064
71636.243
71637.42
71638.595
71639.769
71640.941
71642.111
71643.28
71644.448
71645.613
71646.777
71647.939
71649.099
71650.257
71651.414
71652.57
71653.723
71654.875
71656.025
71657.174
71658.321
71659.466
71660.61
71661.752
71662.893
71664.032
71665.169
71666.305
71667.439
71668.571
71669.702
71670.83
71671.958
71673.083
71674.207
71675.33
71676.45
71677.569
71678.687
71679.803
71680.917
71682.029
71683.14
71684.25
71685.357
71686.464
71687.568
71688.671
71689.772
71690.871
71691.969
71693.065
71694.16
71695.253
71696.344
71697.434
71698.522
71699.608
71700.693
71701.777
71702.858
71703.938
71705.017
71706.094
71707.169
71708.242
71709.314
71710.384
71711.453
71712.52
71713.585
71714.649
71715.711
71716.772
71717.831
71718.888
71719.944
71720.998
71722.05
71723.101
71724.15
71725.198
71726.244
71727.288
71728.331
71729.373
71730.412
71731.45
71732.487
71733.521
71734.555
71735.586
71736.616
71737.645
71738.671
71739.697
71740.72
71741.742
71742.762
71743.781
71744.797
71745.813
71746.826
71747.839
71748.849
71749.858
71750.865
71751.871
71752.875
71753.877
71754.878
71755.876
71756.873
71757.869
71758.863
71759.855
71760.845
71761.833
71762.82
71763.805
71764.788
71765.77
71766.75
71767.729
71768.706
71769.681
71770.654
71771.625
71772.595
71773.563
71774.529
71775.493
71776.456
71777.416
71778.375
71779.332
71780.288
71781.241
71782.193
71783.144
71784.092
71785.039
71785.983
71786.926
71787.867
71788.807
71789.744
71790.68
71791.614
71792.546
71793.476
71794.404
71795.331
71796.255
71797.178
71798.099
71799.018
71799.935
71800.851
71801.765
71802.676
71803.586
71804.494
71805.401
71806.305
71807.208
71808.108
71809.007
71809.904
71810.8
71811.693
71812.585
71813.474
71814.362
71815.248
71816.133
71817.015
71817.896
71818.775
71819.651
71820.527
71821.4
71822.271
71823.141
71824.009
71824.875
71825.74
71826.602
71827.463
71828.322
71829.179
71830.034
71830.888
71831.739
71832.589
71833.438
71834.284
71835.129
71835.972
71836.813
71837.652
71838.49
71839.326
71840.16
71840.992
71841.823
71842.652
71843.479
71844.305
71845.129
71845.951
71846.771
71847.589
71848.406
71849.221
71850.035
71850.847
71851.657
71852.466
71853.272
71854.077
71854.88
71855.682
71856.482
71857.281
71858.077
71858.872
71859.666
71860.457
71861.247
71862.036
71862.823
71863.608
71864.391
71865.173
71865.954
71866.732
71867.509
71868.284
71869.058
71869.83
71870.601
71871.37
71872.137
71872.903
71873.667
71874.43
71875.191
71875.95
71876.708
71877.464
71878.219
71878.972
71879.724
71880.474
71881.222
71881.969
71882.714
71883.458
71884.201
71884.941
71885.68
71886.418
71887.154
71887.888
71888.621
71889.353
71890.083
71890.811
71891.538
71892.263
71892.986
71893.709
71894.429
71895.149
71895.866
71896.583
71897.297
71898.01
71898.721
71899.43
71900.139
71900.846
71901.551
71902.255
71902.957
71903.657
71904.355
71905.052
71905.748
71906.442
71907.135
71907.826
71908.515
71909.202
71909.888
71910.572
71911.254
71911.935
71912.615
71913.292
71913.968
71914.642
71915.314
71915.984
71916.653
71917.32
71917.985
71918.649
71919.31
71919.97
71920.627
71921.283
71921.937
71922.589
71923.24
71923.888
71924.535
71925.179
71925.821
71926.461
71927.1
71927.736
71928.37
71929.002
71929.632
71930.26
71930.886
71931.509
71932.131
71932.75
71933.367
71933.982
71934.594
71935.204
71935.812
71936.417
71937.02
71937.621
71938.22
71938.816
71939.409
71940
71940.588
71941.174
71941.757
71942.338
71942.916
71943.492
71944.065
71944.635
71945.203
71945.768
71946.33
71946.889
71947.446
71948
71948.551
71949.099
71949.644
71950.186
71950.725
71951.262
71951.795
71952.326
71952.853
71953.378
71953.899
71954.417
71954.932
71955.444
71955.953
71956.459
71956.961
71957.46
71957.956
71958.448
71958.937
71959.423
71959.906
71960.385
71960.861
71961.333
71961.802
71962.267
71962.729
71963.187
71963.642
71964.094
71964.541
71964.985
71965.425
71965.862
71966.295
71966.724
71967.15
71967.572
71967.99
71968.404
71968.815
71969.221
71969.624
71970.023
71970.418
71970.81
71971.197
71971.58
71971.96
71972.335
71972.706
71973.074
71973.437
71973.797
71974.152
71974.503
71974.85
71975.193
71975.532
71975.866
71976.197
71976.523
71976.845
71977.163
71977.477
71977.786
71978.091
71978.392
71978.688
71978.98
71979.268
71979.552
71979.831
71980.106
71980.376
71980.642
71980.904
71981.161
71981.414
71981.663
71981.907
71982.146
71982.381
71982.612
71982.838
71983.06
71983.277
71983.49
71983.698
71983.902
71984.101
71984.295
71984.486
71984.671
71984.852
71985.029
71985.201
71985.369
71985.532
71985.69
71985.844
71985.994
71986.138
71986.279
71986.414
71986.545
71986.672
71986.794
71986.912
71987.025
71987.134
71987.238
71987.337
71987.432
71987.523
71987.609
71987.69
71987.767
71987.84
71987.907
71987.971
71988.03
71988.084
71988.134
71988.18
71988.221
71988.258
71988.29
71988.318
71988.341
71988.36
71988.375
71988.385
71988.391
71988.393
71988.39
71988.383
71988.372
71988.356
71988.336
71988.312
71988.283
71988.251
71988.214
71988.173
71988.128
71988.078
71988.025
71987.967
71987.905
71987.839
71987.769
71987.695
71987.617
71987.535
71987.449
71987.359
71987.265
71987.167
71987.065
71986.959
71986.849
71986.735
71986.618
71986.496
71986.371
71986.242
71986.109
71985.973
71985.832
71985.688
71985.541
71985.389
71985.234
71985.076
71984.913
71984.748
71984.578
71984.405
71984.229
71984.049
71983.865
71983.679
71983.488
71983.295
71983.098
71982.897
71982.694
71982.487
71982.276
71982.063
71981.846
71981.626
71981.403
71981.177
71980.948
71980.715
71980.48
71980.241
71979.999
71979.755
71979.507
71979.257
71979.003
71978.747
71978.488
71978.225
71977.961
71977.693
71977.423
71977.149
71976.874
71976.595
71976.314
71976.03
71975.743
71975.454
71975.163
71974.869
71974.572
71974.273
71973.972
71973.668
71973.362
71973.053
71972.742
71972.429
71972.113
71971.796
71971.476
71971.153
71970.829
71970.503
71970.174
71969.844
71969.511
71969.176
71968.839
71968.501
71968.16
71967.818
71967.473
71967.127
71966.779
71966.429
71966.078
71965.725
71965.37
71965.013
71964.655
71964.295
71963.933
71963.57
71963.206
71962.84
71962.473
71962.104
71961.733
71961.362
71960.989
71960.615
71960.239
71959.863
71959.485
71959.106
71958.725
71958.344
71957.962
71957.578
71957.194
71956.809
71956.423
71956.036
71955.648
71955.259
71954.869
71954.479
71954.088
71953.696
71953.304
71952.911
71952.518
71952.124
71951.729
71951.334
71950.939
71950.543
71950.147
71949.751
71949.354
71948.957
71948.56
71948.163
71947.766
71947.368
71946.971
71946.573
71946.176
71945.779
71945.382
71944.985
71944.588
71944.192
71943.795
71943.4
71943.004
71942.609
71942.215
71941.821
71941.427
71941.034
71940.642
71940.25
71939.859
71939.469
71939.079
71938.691
71938.303
71937.916
71937.53
71937.145
71936.761
71936.379
71935.997
71935.616
71935.237
71934.859
71934.482
71934.106
71933.732
71933.359
71932.987
71932.617
71932.248
71931.881
71931.515
71931.151
71930.789
71930.428
71930.069
71929.712
71929.356
71929.002
71928.65
71928.3
71927.952
71927.606
71927.261
71926.919
71926.578
71926.24
71925.904
71925.57
71925.237
71924.907
71924.58
71924.254
71923.931
71923.61
71923.291
71922.975
71922.66
71922.349
71922.039
71921.732
71921.428
71921.126
71920.826
71920.529
71920.234
71919.942
71919.653
71919.366
71919.082
71918.8
71918.521
71918.244
71917.971
71917.699
71917.431
71917.165
71916.903
71916.642
71916.385
71916.13
71915.879
71915.63
71915.383
71915.14
71914.9
71914.662
71914.427
71914.195
71913.966
71913.74
71913.517
71913.296
71913.079
71912.865
71912.653
71912.444
71912.239
71912.036
71911.836
71911.639
71911.446
71911.255
71911.067
71910.882
71910.7
71910.521
71910.344
71910.171
71910.001
71909.834
71909.669
71909.508
71909.349
71909.194
71909.041
71908.891
71908.745
71908.601
71908.459
71908.321
71908.186
71908.053
71907.923
71907.796
71907.672
71907.551
71907.432
71907.316
71907.203
71907.093
71906.985
71906.88
71906.778
71906.678
71906.581
71906.487
71906.395
71906.305
71906.219
71906.134
71906.053
71905.973
71905.897
71905.822
71905.75
71905.681
71905.613
71905.548
71905.486
71905.425
71905.367
71905.311
71905.257
71905.206
71905.156
71905.109
71905.064
71905.02
71904.979
71904.94
71904.902
71904.867
71904.833
71904.801
71904.771
71904.743
71904.716
71904.692
71904.669
71904.647
71904.627
71904.609
71904.592
71904.577
71904.563
71904.55
71904.539
71904.53
71904.521
71904.514
71904.508
71904.504
71904.5
71904.498
71904.497
71904.497
71904.498
71904.5
71904.503
71904.507
71904.511
71904.517
71904.524
71904.531
71904.539
71904.548
71904.558
71904.568
71904.579
71904.591
71904.603
71904.615
71904.629
71904.642
71904.657
71904.671
71904.686
71904.702
71904.717
71904.733
71904.75
71904.766
71904.783
71904.8
71904.817
71904.834
71904.851
71904.868
71904.886
71904.903
71904.921
71904.938
71904.955
71904.972
71904.989
71905.006
71905.023
71905.039
71905.055
71905.071
71905.087
71905.102
71905.118
71905.132
71905.147
71905.161
71905.174
71905.187
71905.2
71905.212
71905.223
71905.234
71905.245
71905.255
71905.264
71905.273
71905.281
71905.288
71905.295
71905.301
71905.306
71905.311
71905.315
71905.318
71905.32
71905.322
71905.322
71905.322
71905.321
71905.319
71905.317
71905.313
71905.308
71905.303
71905.297
71905.289
71905.281
71905.271
71905.261
71905.25
71905.237
71905.224
71905.21
71905.194
71905.178
71905.16
71905.142
71905.122
71905.101
71905.079
71905.056
71905.032
71905.007
71904.981
71904.953
71904.924
71904.895
71904.864
71904.831
71904.798
71904.764
71904.728
71904.691
71904.653
71904.614
71904.573
71904.532
71904.489
71904.445
71904.4
71904.353
71904.305
71904.256
71904.206
71904.155
71904.102
71904.048
71903.993
71903.937
71903.879
71903.82
71903.76
71903.698
71903.636
71903.572
71903.506
71903.44
71903.372
71903.303
71903.232
71903.161
71903.088
71903.014
71902.938
71902.861
71902.783
71902.704
71902.623
71902.541
71902.458
71902.374
71902.288
71902.201
71902.112
71902.022
71901.931
71901.839
71901.745
71901.65
71901.554
71901.456
71901.357
71901.257
71901.156
71901.053
71900.948
71900.843
71900.736
71900.628
71900.518
71900.408
71900.296
71900.182
71900.067
71899.951
71899.834
71899.715
71899.595
71899.473
71899.351
71899.226
71899.101
71898.974
71898.846
71898.717
71898.586
71898.454
71898.32
71898.185
71898.049
71897.912
71897.773
71897.633
71897.491
71897.348
71897.204
71897.058
71896.912
71896.763
71896.614
71896.463
71896.31
71896.157
71896.002
71895.845
71895.688
71895.529
71895.368
71895.206
71895.043
71894.879
71894.713
71894.546
71894.378
71894.208
71894.037
71893.865
71893.691
71893.515
71893.338
71893.16
71892.98
71892.799
71892.616
71892.431
71892.245
71892.057
71891.868
71891.678
71891.486
71891.293
71891.1
71890.905
71890.709
71890.512
71890.313
71890.114
71889.913
71889.71
71889.505
71889.299
71889.09
71888.88
71888.669
71888.456
71888.242
71888.028
71887.812
71887.595
71887.378
71887.158
71886.937
71886.714
71886.489
71886.262
71886.034
71885.804
71885.574
71885.342
71885.11
71884.877
71884.642
71884.405
71884.166
71883.926
71883.683
71883.44
71883.195
71882.95
71882.704
71882.456
71882.207
71881.956
71881.703
71881.448
71881.193
71880.935
71880.678
71880.419
71880.158
71879.896
71879.633
71879.367
71879.1
71878.832
71878.563
71878.293
71878.021
71877.748
71877.474
71877.198
71876.92
71876.641
71876.361
71876.08
71875.798
71875.515
71875.23
71874.943
71874.655
71874.367
71874.077
71873.787
71873.495
71873.201
71872.907
71872.611
71872.314
71872.016
71871.716
71871.415
71871.112
71870.808
71870.503
71870.196
71869.887
71869.577
71869.265
71868.952
71868.637
71868.321
71868.003
71867.683
71867.362
71867.039
71866.715
71866.39
71866.063
71865.734
71865.404
71865.072
71864.739
71864.405
71864.068
71863.731
71863.391
71863.051
71862.709
71862.365
71862.02
71861.673
71861.325
71860.976
71860.625
71860.272
71859.918
71859.563
71859.206
71858.848
71858.488
71858.127
71857.765
71857.401
71857.036
71856.669
71856.301
71855.931
71855.56
71855.188
71854.814
71854.438
71854.062
71853.684
71853.304
71852.923
71852.541
71852.157
71851.772
71851.385
71850.997
71850.608
71850.217
71849.825
71849.432
71849.037
71848.64
71848.242
71847.843
71847.442
71847.04
71846.637
71846.232
71845.826
71845.418
71845.009
71844.599
71844.187
71843.774
71843.359
71842.943
71842.525
71842.106
71841.686
71841.264
71840.841
71840.416
71839.99
71839.563
71839.134
71838.703
71838.271
71837.838
71837.403
71836.967
71836.529
71836.09
71835.649
71835.207
71834.763
71834.318
71833.871
71833.422
71832.972
71832.521
71832.068
71831.613
71831.157
71830.7
71830.24
71829.779
71829.316
71828.852
71828.386
71827.918
71827.449
71826.978
71826.505
71826.031
71825.554
71825.076
71824.596
71824.114
71823.63
71823.144
71822.656
71822.167
71821.675
71821.182
71820.687
71820.19
71819.691
71819.189
71818.684
71818.177
71817.668
71817.157
71816.644
71816.129
71815.613
71815.093
71814.571
71814.046
71813.517
71812.984
71812.449
71811.911
71811.372
71810.83
71810.287
71809.741
71809.192
71808.638
71808.079
71807.515
71806.946
71806.373
71805.798
71805.222
71804.644
71804.065
71803.481
71802.892
71802.296
71801.691
71801.078
71800.459
71799.836
71799.211
71798.587
71797.962
71797.335
71796.702
71796.06
71795.404
71794.734
71794.051
71793.36
71792.667
71791.975
71791.288
71790.604
71789.918
71789.22
71788.502
71787.759
71786.991
71786.206
71785.413
71784.622
71783.842
71783.076
71782.324
71781.574
71780.794
71779.952
71779.054
71778.142
71777.254
71776.368
71775.553
71774.669
71773.685
71772.715
71771.788
71770.865
71769.933
71768.989
71768.024
71767.031
71766.015
71764.979
71763.929
71762.868
71761.799
71760.721
71759.632
71758.528
71757.407
71756.265
71755.102
71753.917
71752.712
71751.487
71750.244
71748.983
71747.704
71746.405
71745.086
71743.745
71742.38
71740.993
71739.581
71738.146
71736.687
71735.204
71733.698
71732.169
71730.615
71729.036
71727.432
71725.802
71724.146
71722.464
71720.755
71719.019
71717.257
71715.467
71713.651
71711.808
71709.937
71708.039
71706.113
71704.159
71702.177
71700.167
71698.129
71696.063
71693.968
71691.846
71689.695
71687.517
71685.31
71683.075
71680.813
71678.522
71676.204
71673.858
71671.485
71669.085
71666.658
71664.204
71661.723
71659.217
71656.684
71654.126
71651.542
71648.933
71646.3
71643.643
71640.962
71638.257
71635.53
71632.78
71630.008
71627.215
71624.401
71621.567
71618.713
71615.839
71612.947
71610.037
71607.11
71604.166
71601.206
71598.231
71595.241
71592.237
71589.22
71586.191
71583.15
71580.097
71577.035
71573.963
71570.882
71567.794
71564.698
71561.597
71558.489
71555.377