/*--------------------------------*- C++ -*----------------------------------*\
  =========                 |
  \\      /  F ield         | OpenFOAM: The Open Source CFD Toolbox
   \\    /   O peration     | Website:  https://openfoam.org
    \\  /    A nd           | Version:  7
     \\/     M anipulation  |
\*---------------------------------------------------------------------------*/
FoamFile
{
    version     2.0;
    format      ascii;
    class       volScalarField;
    location    "0.0024";
    object      Uy;
}
// * * * * * * * * * * * * * * * * * * * * * * * * * * * * * * * * * * * * * //

dimensions      [0 1 -1 0 0 0 0];

internalField   nonuniform List<scalar> 
5000
(
3.9584216e-21
5.5808708e-21
0
0
-2.6920885e-21
2.9229485e-36
2.3211325e-21
0
0
-2.6636051e-21
-5.4179579e-21
2.7172367e-21
2.7110883e-21
-2.6979609e-21
0
-2.6627156e-21
-9.9969321e-51
2.6284917e-21
0
2.6140146e-21
-2.6313909e-21
-2.6509115e-21
5.3241668e-21
-2.6633687e-21
-2.6557433e-21
-2.175825e-35
2.6242702e-21
2.6056103e-21
-5.1794791e-21
4.497614e-35
-4.5711589e-35
2.637323e-21
5.2792141e-21
-5.2397352e-21
4.5056348e-35
-2.2405347e-34
-8.8691273e-35
5.1247568e-21
-5.1700728e-21
-5.2287735e-21
5.2476046e-21
-1.7889622e-34
-5.1328946e-21
2.5305376e-21
7.4795864e-21
-2.4889745e-21
-2.5278661e-21
-1.7606809e-34
-5.1946004e-21
0
2.5681189e-21
3.6144552e-37
-2.5170499e-21
4.9960333e-21
-8.7694538e-35
-5.0730577e-21
2.5648085e-21
-8.8851538e-35
-2.5587306e-21
0
2.5249606e-21
8.5596404e-35
7.1303471e-37
2.5227315e-21
-2.5350183e-21
8.8756146e-35
2.5310638e-21
-2.5203763e-21
-2.5096734e-21
2.5003621e-21
2.5195279e-21
-2.5498758e-21
-2.5043833e-21
4.9846879e-21
2.5221636e-21
-2.4940407e-21
0
2.4880125e-21
-3.5601396e-37
-2.5038933e-21
2.4929351e-21
-7.0171759e-37
6.9682302e-37
2.4635315e-21
2.4930014e-21
8.7479738e-35
-2.5035827e-21
0
-2.4661192e-21
-2.5483423e-34
-8.6057947e-35
2.4716267e-21
2.4744569e-21
-4.9463786e-21
-1.7157458e-34
2.4866328e-21
0
0
-2.4560009e-21
-1.690963e-34
4.8636588e-21
-2.4462937e-21
-4.9193407e-21
0
2.4395101e-21
2.4330871e-21
-2.453088e-21
-2.4620376e-21
0
0
2.373623e-21
2.341571e-21
0
-2.4181709e-21
8.5849199e-35
2.4626507e-21
-2.4466667e-21
6.8969257e-37
-8.4283545e-35
3.4140778e-52
4.7599674e-21
-1.0202837e-36
-2.4211432e-21
0
-2.4236992e-21
2.4049582e-21
2.3757519e-21
-4.7040029e-21
-2.3578599e-21
4.7792627e-21
2.4135742e-21
-2.414585e-21
-2.3976098e-21
-2.3736077e-21
0
2.3451052e-21
2.3690678e-21
-2.3894742e-21
-8.2961926e-35
2.3840196e-21
-2.3655775e-21
-2.351239e-21
0
2.3660633e-21
2.372513e-21
-2.3686352e-21
2.3480617e-21
-1.324895e-36
-2.3366779e-21
2.3511194e-21
-2.3577194e-21
1.6314493e-34
2.302558e-21
-2.266051e-21
2.2711529e-21
2.3168723e-21
-2.3583489e-21
0
0
-2.2888753e-21
-2.2341045e-21
2.2143708e-21
2.2651623e-21
-2.3180515e-21
-1.627772e-34
2.3440566e-21
-2.3163903e-21
-2.290525e-21
0
2.2367142e-21
2.2524318e-21
0
-2.3149434e-21
-2.3159417e-21
0
2.2723785e-21
4.6692735e-34
-2.2292466e-21
2.2514638e-21
2.2843428e-21
-2.2984691e-21
-1.5776391e-34
1.5570959e-34
9.5483932e-37
2.2236507e-21
-2.2382836e-21
-3.1391759e-34
1.564972e-34
-1.5581479e-34
2.2480041e-21
0
0
-2.2330108e-21
-2.2500924e-21
0
0
2.2308433e-21
-3.1535589e-52
-2.2251479e-21
0
2.2368491e-21
-2.2234163e-21
-6.1131753e-34
4.3928205e-21
-2.2113741e-21
-4.6200344e-34
-3.1564483e-37
-2.2085914e-21
2.1842101e-21
-3.0804658e-37
-3.0209447e-34
1.5247972e-34
-2.2100373e-21
0
2.1654305e-21
1.4790564e-34
5.9363531e-34
2.1730634e-21
0
-2.2011011e-21
-2.1861372e-21
0
0
0
2.162084e-21
1.5112831e-34
-2.1853856e-21
0
0
2.1591419e-21
2.1597293e-21
-2.1644131e-21
-2.1635536e-21
0
2.1376266e-21
2.1404848e-21
-2.1490214e-21
-2.1541007e-21
0
2.128358e-21
-5.8612244e-34
-1.466256e-34
2.1340012e-21
-2.1485545e-21
-2.1413519e-21
0
2.0993373e-21
-2.9054201e-34
2.1122241e-21
2.9552598e-34
-4.2638451e-21
2.1220027e-21
-2.9126724e-34
-7.2325837e-34
-1.4458971e-34
-2.1103575e-21
2.1255881e-21
2.120746e-21
0
-2.0922706e-21
-2.0825886e-21
0
2.1092702e-21
2.1124217e-21
-4.2098259e-21
-2.0970484e-21
2.0931621e-21
2.0962224e-21
5.8168737e-34
-2.0930563e-21
2.0821236e-21
-1.4384942e-34
-2.0791316e-21
2.0891807e-21
-1.4504906e-34
1.4435323e-34
-5.8463813e-37
-1.4174302e-34
2.0673637e-21
0
0
-2.0646323e-21
-2.0450073e-21
0
0
0
0
2.0598056e-21
1.4062917e-34
-4.0536172e-21
8.6864895e-37
2.0518689e-21
2.0564571e-21
-2.8479397e-34
-2.8139543e-34
-2.8647922e-37
-2.0254831e-21
-2.0402904e-21
-2.0470735e-21
4.082589e-21
6.0512333e-21
-1.9977867e-21
-4.0097592e-21
0
2.0484705e-21
2.040721e-21
-2.0228747e-21
5.6816153e-37
-8.4652186e-37
5.7020375e-37
2.0279686e-21
2.0341025e-21
-2.0265243e-21
-4.0150222e-21
1.991964e-21
-4.9264042e-52
2.0102808e-21
5.6070956e-34
-4.0466837e-21
0
0
4.0008145e-21
-1.1151387e-33
-4.022852e-21
0
1.9925335e-21
1.9805819e-21
-1.991392e-21
2.8466578e-37
-2.7798171e-34
2.8330026e-37
1.9688665e-21
-1.9524888e-21
-1.968216e-21
0
2.0009351e-21
-2.7659743e-34
-1.9671414e-21
3.8878644e-21
-5.3943152e-34
-1.9735726e-21
-5.5349073e-34
-3.9806463e-21
3.9564938e-21
1.9546933e-21
-1.9386833e-21
-2.7734572e-37
-1.9717671e-21
0
0
1.953256e-21
-2.6797287e-34
-3.8684473e-21
2.7879977e-37
5.9502294e-21
-1.9747456e-21
-1.9542216e-21
3.8465677e-21
-1.9054928e-21
1.9302849e-21
3.9263297e-21
-1.9760908e-21
-1.9595478e-21
-1.9279781e-21
1.8912202e-21
-2.6373016e-51
-1.9224111e-21
1.9652337e-21
-1.9790417e-21
1.9548855e-21
5.3337646e-34
5.3410156e-37
1.8577106e-21
-3.7927452e-21
1.9477857e-21
5.4720718e-34
-5.4318459e-34
-1.9289863e-21
-3.7648748e-21
5.5384482e-21
5.1626956e-34
-1.0593496e-33
5.4108875e-34
-3.9322667e-21
3.8937084e-21
-5.3324355e-34
-3.7841467e-21
0
0
1.9205027e-21
-2.6925005e-34
-1.9404112e-21
-1.9274444e-21
1.9049694e-21
5.6565371e-21
-1.8881596e-21
-1.9138517e-21
-5.4893418e-37
-1.9299939e-21
0
3.8043966e-21
3.778819e-21
-1.8994713e-21
-3.8279881e-21
-1.9205707e-21
3.834493e-21
3.7995453e-21
-3.7731324e-21
-3.7889457e-21
0
3.8259652e-21
-1.9090502e-21
-3.7780124e-21
1.8740985e-21
1.8834817e-21
-2.6979573e-37
2.6462527e-34
1.9011955e-21
-1.8777437e-21
-1.8596977e-21
1.8682505e-21
-2.6204427e-34
-2.7045016e-37
-2.6305563e-34
-1.8721914e-21
1.8479433e-21
-7.6920163e-34
-2.6054515e-34
-5.2578947e-34
-1.8881e-21
1.8727772e-21
-2.5525189e-34
-5.0404525e-34
-2.6136325e-37
-3.7539686e-21
-1.8974406e-21
1.88547e-21
3.7281074e-21
-2.5512789e-34
-3.6425677e-21
-1.8385784e-21
3.7302329e-21
1.8793688e-21
-1.8742787e-21
-1.8603694e-21
-5.1220169e-34
1.8395608e-21
0
0
1.8620486e-21
0
-1.8324037e-21
1.8316533e-21
2.6182819e-37
-5.1425096e-34
0
-1.8266005e-21
1.8053575e-21
1.8063395e-21
-3.6618419e-21
-1.8512538e-21
1.8437632e-21
0
0
-1.7798406e-21
5.0163817e-34
1.8299217e-21
0
0
-1.7872005e-21
7.3288337e-34
1.7664074e-21
0
0
0
0
0
0
0
0
3.6313874e-21
1.0041147e-33
-1.794607e-21
1.7668539e-21
-1.7479263e-21
1.7615506e-21
-4.971746e-34
-1.8047718e-21
-4.9891263e-34
-1.7759141e-21
0
0
1.7652717e-21
4.9550156e-34
-1.7860119e-21
0
0
0
0
0
0
0
3.4780442e-21
-1.4266612e-33
-3.440518e-21
1.7542097e-21
2.5220696e-37
1.7658329e-21
-9.6880616e-34
-3.4256747e-21
-1.6929876e-21
6.9519047e-52
5.2502017e-21
0
-3.5099084e-21
0
0
3.3865049e-21
-4.7774804e-34
-5.234889e-21
1.7471364e-21
1.7367291e-21
-1.705192e-21
1.6814075e-21
-1.6938418e-21
-4.7923725e-34
1.7500025e-21
-1.7405288e-21
0
-1.6843512e-21
1.665999e-21
3.391599e-21
-1.7275028e-21
-1.7383333e-21
-1.7250174e-21
-1.6930281e-21
3.3184939e-21
1.658848e-21
-1.6970245e-21
0
1.7279687e-21
-1.7173908e-21
-1.6883915e-21
4.9906195e-21
4.7472561e-37
-3.4043528e-21
1.7269286e-21
2.3912526e-34
1.7050803e-21
-4.7636461e-37
-3.3170151e-21
1.6827904e-21
0
-4.7488539e-34
-2.4167704e-37
-1.6573996e-21
1.6256474e-21
-4.5660775e-34
-2.344713e-34
-2.4385717e-37
-1.712202e-21
1.6876107e-21
1.5418452e-52
-4.372189e-34
-2.2832675e-37
-3.3327378e-21
-2.3763793e-34
1.73034e-21
0
0
-1.6325202e-21
-6.6212502e-34
1.6088738e-21
-1.6584822e-21
2.3635756e-34
2.4803289e-51
-2.3536374e-34
1.675427e-21
1.6272681e-21
2.2158675e-34
-1.6256755e-21
0
0
1.7183328e-21
-1.7005704e-21
1.3823266e-33
1.5771429e-21
-1.5211654e-21
0
1.630494e-21
1.6717326e-21
-1.6911328e-21
-1.7052725e-21
0
1.676874e-21
1.6482827e-21
-3.1671919e-21
-1.5570716e-21
1.6132435e-21
1.6633279e-21
2.3381515e-34
1.6883786e-21
4.6629802e-34
-3.3421652e-21
0
0
0
1.6574908e-21
1.6169178e-21
0
-1.5993855e-21
-2.275295e-34
1.6745188e-21
0
0
-1.6082169e-21
-2.1537786e-34
2.1594067e-34
-1.6166015e-21
1.659275e-21
-7.0049751e-34
-1.6868316e-21
0
-1.643393e-21
-2.2175678e-34
1.5514993e-21
-1.5629194e-21
1.6125799e-21
1.6559818e-21
-1.6808274e-21
0
1.6477163e-21
1.5989144e-21
-1.5433212e-21
-1.5491473e-21
0
-1.6530816e-21
1.6727562e-21
1.6763092e-21
-1.6737935e-21
-3.3460465e-21
9.2675924e-34
4.993035e-21
5.3534356e-52
-1.6474548e-21
-3.2743626e-21
8.9502973e-34
3.1767611e-21
-1.5946653e-21
1.6215018e-21
-1.6502658e-21
-1.6700712e-21
3.3387641e-21
0
0
-3.1398925e-21
9.5109049e-51
3.2112288e-21
0
0
-3.3108909e-21
-1.0762795e-50
3.1483188e-21
0
0
-3.2673443e-21
-1.6623534e-21
3.3289316e-21
1.6586342e-21
0
-3.2656195e-21
9.0770237e-34
3.3019737e-21
-1.6661328e-21
0
1.655456e-21
-1.6416056e-21
2.2995911e-37
1.6071871e-21
-1.6285106e-21
1.652889e-21
1.6635737e-21
-1.6636059e-21
-1.6628277e-21
4.6277565e-34
1.6681104e-21
-1.6658802e-21
-4.6195911e-34
1.6581322e-21
-1.6524162e-21
1.6532629e-21
1.6604004e-21
-1.6674608e-21
-1.6712778e-21
4.6427283e-34
1.6708296e-21
-1.6689281e-21
2.3703767e-37
1.6704072e-21
-1.6733837e-21
1.6738766e-21
1.671798e-21
-1.6685311e-21
-3.3234149e-21
9.1966714e-34
3.3173514e-21
-1.6724628e-21
2.3837774e-37
3.3312634e-21
4.6988352e-37
-1.6262548e-21
0
1.6255238e-21
0
-1.6710998e-21
0
0
0
-1.6639416e-21
5.7852057e-53
1.6660971e-21
0
1.668124e-21
-4.6302509e-34
-1.6677146e-21
0
0
0
-1.6698148e-21
4.6267917e-34
1.6623816e-21
0
1.6545342e-21
4.6027747e-34
-1.6637114e-21
0
1.6659055e-21
-1.6651783e-21
9.2426417e-34
1.6614233e-21
-1.6608304e-21
0
-1.6622234e-21
-4.611575e-34
1.6591094e-21
0
1.6525222e-21
-1.6514282e-21
-9.182447e-34
1.6553174e-21
-9.1934101e-34
-2.3518992e-37
4.5908937e-34
-2.3435262e-37
-1.6472385e-21
0
1.6500584e-21
-4.5824071e-34
-4.580072e-34
7.9478285e-53
-4.5687696e-34
0
-3.2814294e-21
-4.5638592e-34
1.6441223e-21
-1.6385809e-21
4.5281301e-34
1.6241419e-21
1.6147069e-21
4.4706951e-34
-4.4867217e-34
1.6224148e-21
-1.6234331e-21
-1.6205762e-21
0
-1.6109325e-21
4.4674432e-34
1.6103252e-21
0
0
0
-3.2007337e-21
1.7740756e-33
3.1945737e-21
0
0
0
0
0
0
0
-3.1716736e-21
8.7830648e-34
3.1476751e-21
1.5667893e-21
-1.5650882e-21
-1.5671763e-21
4.3591082e-34
8.7103079e-34
1.5671322e-21
-1.5620029e-21
1.557442e-21
1.5501952e-21
-1.543113e-21
-1.5408533e-21
8.5603704e-34
1.5425727e-21
1.5414921e-21
-4.2678342e-34
-1.5331689e-21
-1.5271155e-21
1.520932e-21
1.5143579e-21
-1.5098755e-21
1.5084841e-21
0
-1.504157e-21
-1.5012603e-21
4.1570379e-34
1.4958529e-21
-1.4928694e-21
1.4890417e-21
1.4843638e-21
-1.4792079e-21
1.4735542e-21
4.0754979e-34
-1.4629068e-21
-1.4596302e-21
-2.0696503e-37
2.9050806e-21
8.039601e-34
-1.4430938e-21
-1.4380208e-21
0
1.4265058e-21
0
0
0
1.4077487e-21
1.4035739e-21
-1.3990642e-21
-1.3942443e-21
0
1.3821241e-21
-3.8206602e-34
-1.3696104e-21
0
0
1.3551346e-21
-7.4722351e-34
-1.3375099e-21
0
0
1.3166081e-21
-7.2983588e-34
-1.3107098e-21
0
1.2974758e-21
-3.5799728e-34
3.5559797e-34
-3.5400988e-34
-1.2698101e-21
0
-1.2587412e-21
6.9497284e-34
1.2457841e-21
0
1.2303126e-21
-1.2220644e-21
-1.213467e-21
2.4101483e-21
3.3300829e-34
-2.3841735e-21
3.2932462e-34
1.1791916e-21
0
0
1.1567345e-21
-3.1896856e-34
-1.1419792e-21
0
1.1273277e-21
-1.1196811e-21
-1.111757e-21
1.1036172e-21
0
-1.0874695e-21
1.0799753e-21
5.9554142e-34
-5.9166122e-34
1.0587164e-21
-8.7422267e-34
1.0387979e-21
-1.0278978e-21
2.8232126e-34
-5.6001741e-34
-2.0052296e-21
2.7670517e-34
9.8969231e-22
0
0
0
-1.8883185e-21
-9.3755495e-22
1.8658656e-21
9.2697852e-22
0
0
8.9185837e-22
3.0645855e-52
-8.7184471e-22
0
-1.7183559e-21
-8.505286e-22
1.6804324e-21
8.2934415e-22
0
-1.6207039e-21
-2.2793612e-37
2.3789863e-21
-2.1725984e-34
-1.5456379e-21
7.6215706e-22
4.2745229e-37
-7.4240393e-22
2.0363183e-34
4.0127829e-34
7.1343129e-22
0
6.9372781e-22
-3.7970116e-34
-1.3475074e-21
6.6281613e-22
-1.0836502e-33
-6.3893725e-22
1.2562995e-21
-8.794907e-38
-6.1038341e-22
0
0
0
-5.6417106e-22
5.5184783e-22
1.0835961e-21
-5.3313471e-22
-1.4549726e-34
-1.4236209e-34
-5.0114553e-22
0
4.7673483e-22
-6.6199012e-38
-9.1106021e-22
4.4487382e-22
2.4052197e-34
-4.2177527e-22
-4.0997052e-22
2.2132069e-34
7.7348916e-22
0
3.6311336e-22
3.5099639e-22
0
-3.2710236e-22
-3.1533608e-22
3.0333617e-22
0
-2.7811764e-22
0
0
2.4038938e-22
-1.8978056e-34
-2.1499255e-22
0
0
1.7543312e-22
1.6261423e-22
-1.4951302e-22
-1.3557997e-22
1.2064648e-22
1.0533893e-22
-1.8159718e-22
-7.7515934e-23
1.7990276e-35
5.1350325e-23
-2.0337182e-35
-1.1556693e-35
4.7523666e-24
1.063106e-23
-2.5436858e-23
4.0373803e-23
4.7950652e-38
-7.3546145e-23
1.832688e-22
1.0919827e-22
1.2559976e-22
-2.8271917e-22
-3.1522607e-22
1.7519033e-22
-1.9398622e-22
2.1316159e-22
-1.2883364e-34
-5.0102145e-22
2.694662e-22
-8.0318089e-35
8.6125747e-35
3.3034267e-22
0
0
-3.8863392e-22
-4.1086629e-22
0
4.6199474e-22
4.8849142e-22
0
5.3557238e-22
-1.5475334e-34
-5.8040627e-22
6.0598567e-22
-1.7587973e-34
-6.6386751e-22
0
-7.248937e-22
-4.1876672e-34
7.8247416e-22
-8.1065596e-22
2.3306773e-34
8.7408454e-22
9.1125645e-22
2.6377681e-34
-9.8925821e-22
0
1.0587107e-21
-1.0925129e-21
3.2134951e-37
-6.5211979e-34
-1.2209672e-21
1.2669564e-21
0
2.7032854e-21
-3.1002531e-33
-1.4471347e-21
-8.3437065e-34
-3.1202841e-21
3.2262733e-21
3.3219188e-21
-3.416958e-21
-3.5243623e-21
-1.8253529e-21
0
1.9688238e-21
4.0775486e-21
-2.9897864e-37
2.1657353e-21
-2.2306696e-21
-2.3030713e-21
2.3827987e-21
-4.9340446e-21
5.1060507e-21
4.3965458e-33
-5.4552958e-21
5.6346737e-21
-1.6146186e-33
3.002118e-21
-3.0984435e-21
-3.2002078e-21
3.3091844e-21
9.4988569e-34
7.0825083e-21
-7.3111455e-21
-7.5344487e-21
7.7640016e-21
1.1122481e-33
4.147808e-21
-2.3878503e-33
-4.4534118e-21
-1.2764186e-33
2.8316529e-50
-4.8725287e-21
-1.0046186e-20
5.1933194e-21
-7.8374665e-50
5.572772e-21
9.5964956e-33
-5.9409516e-21
1.224019e-20
-3.5023609e-33
-1.3032522e-20
1.0577923e-50
6.9685108e-21
0
0
7.6690611e-21
-7.9150173e-21
-1.6346813e-20
0
0
0
9.2862987e-21
9.584306e-21
0
-1.0220862e-20
1.055633e-20
1.8152483e-32
-2.2495818e-20
0
0
0
1.2748376e-20
1.3158267e-20
-1.3582724e-20
1.4020139e-20
8.0357178e-33
-2.9856542e-20
0
0
3.2751086e-20
-4.8019564e-36
-1.7434326e-20
1.7987909e-20
-1.8554161e-20
1.9131662e-20
-1.0954293e-32
-4.0675731e-20
0
0
2.2306115e-20
2.2998076e-20
0
0
-2.5192718e-20
-2.5967089e-20
0
2.7577974e-20
2.8420118e-20
-2.9290857e-20
3.0188764e-20
3.1108876e-20
-3.2047292e-20
-3.3005665e-20
1.8877287e-32
3.5010997e-20
-3.606805e-20
-1.0313032e-32
3.8278656e-20
0
4.0599471e-20
-2.3211127e-32
-4.304246e-20
4.4307717e-20
-2.5318359e-32
-4.6928031e-20
0
4.9729444e-20
-1.4220174e-32
-7.4935272e-36
5.427339e-20
-5.583073e-20
-5.7413568e-20
0
1.2148162e-19
-6.942851e-32
-6.4332363e-20
-9.407097e-36
-1.3617681e-19
1.4002029e-19
1.4395046e-19
-1.4799697e-19
-7.6087696e-20
0
1.6091355e-19
-1.3773567e-31
-1.7010065e-19
0
1.7971132e-19
5.1282064e-32
-9.4885124e-20
-2.7073225e-32
-2.0037005e-19
2.0589713e-19
2.6421927e-31
-2.1737636e-19
2.2330729e-19
-6.3641083e-32
-2.3555959e-19
-1.2095357e-19
2.4841891e-19
1.2755058e-19
-2.6195571e-19
2.689814e-19
3.4489992e-31
-2.8352678e-19
2.9103392e-19
-4.1471189e-32
1.5326623e-19
-1.7451652e-31
-4.8421117e-19
9.1940634e-32
3.3993992e-19
-1.7439191e-19
-3.5778811e-19
1.8348176e-19
-1.0447675e-31
1.9298495e-19
2.1984182e-31
-2.0299166e-19
4.1632284e-19
-1.7773005e-31
2.4291125e-31
-1.2441136e-31
-2.2984649e-19
0
-2.414575e-19
-2.4745309e-19
0
0
0
0
0
2.8603052e-19
2.9294284e-19
0
-3.0714589e-19
3.1445641e-19
5.3626595e-31
-6.5913022e-19
0
0
0
3.6156309e-19
3.6992694e-19
-3.7847164e-19
-3.8720262e-19
7.9221283e-19
6.750322e-31
-8.2871446e-19
0
8.6643671e-19
7.3783175e-31
-4.5284307e-19
4.6294319e-19
-4.7321016e-19
4.8363306e-19
2.7432939e-31
-1.0099808e-18
0
0
5.3853035e-19
5.5009495e-19
0
5.7375513e-19
1.6651526e-34
5.9820374e-19
6.1074882e-19
-6.2350012e-19
0
-1.2991662e-18
-1.3258374e-18
0
2.0707132e-18
1.4084598e-18
-1.436867e-18
7.3283976e-19
7.4744974e-19
-2.2868253e-18
-7.7732952e-19
-1.1263777e-34
-8.0813255e-19
8.2386092e-19
8.3979702e-19
8.5594863e-19
-7.9376045e-49
8.8896147e-19
9.0583415e-19
-9.2293603e-19
0
-1.9155561e-18
-1.9510575e-18
0
1.0117769e-18
2.0605653e-18
5.8213941e-31
1.0679874e-18
2.1743348e-18
-2.2131524e-18
-2.2524614e-18
-1.1461412e-18
-1.1663058e-18
0
1.2073558e-18
3.684688e-18
-1.2493401e-18
1.1157827e-46
3.8769024e-18
-2.628308e-18
-1.3362517e-18
-1.3585914e-18
-2.7623462e-18
2.8079968e-18
1.4270689e-18
-1.4503852e-18
-1.4739468e-18
-1.4977533e-18
4.565411e-18
1.5460968e-18
-4.7118963e-18
-1.5954103e-18
1.620433e-18
3.2914026e-18
-1.6712143e-18
1.6969694e-18
-2.8686384e-30
2.9133097e-30
5.3270098e-18
-1.8023822e-18
-1.8293339e-18
-3.7130488e-18
-1.8839537e-18
3.8232436e-18
5.5124674e-34
1.9676654e-18
-1.996032e-18
-6.073876e-18
6.1603456e-18
2.0825068e-18
-6.335405e-18
0
6.5132349e-18
2.2010448e-18
-6.6936847e-18
2.2616331e-18
4.5845252e-18
1.289505e-30
-2.6131658e-30
-2.385463e-18
0
-4.8973281e-18
-4.9611682e-18
2.5127083e-18
2.5450285e-18
5.1550869e-18
-2.6102609e-18
-2.6431898e-18
5.3526604e-18
0
-5.486375e-18
-5.5537509e-18
2.8107377e-18
5.6895799e-18
-1.5980881e-30
-2.9134958e-18
5.896256e-18
-2.9829201e-18
1.0050859e-29
6.1059242e-18
-3.0882313e-18
0
-6.3186019e-18
0
7.1747469e-30
3.2670779e-18
6.6065647e-18
-1.0018892e-17
9.595529e-34
6.8255385e-18
0
-6.9729249e-18
-3.5234937e-18
7.1212818e-18
-3.9947339e-30
-3.6352942e-18
7.3456122e-18
-3.7104342e-18
6.2404821e-30
7.5719649e-18
-3.8238867e-18
3.8618851e-18
-7.7999769e-18
-1.1814594e-17
0
1.2044617e-17
8.1066002e-18
-1.2275346e-17
-8.2606613e-18
4.1689577e-18
8.4153261e-18
-4.246432e-18
-4.2852451e-18
8.6481805e-18
-4.3629675e-18
-8.8037679e-18
4.4408432e-18
-6.3662361e-34
9.0377282e-18
9.1158089e-18
-1.3790872e-17
4.636023e-18
7.7864372e-30
-1.4142555e-17
0
1.4377029e-17
9.6628154e-18
-4.8704605e-18
-4.9094969e-18
-4.9485091e-18
0
-5.0264371e-18
2.8116552e-30
1.0208466e-17
-2.8540655e-30
-5.1818598e-18
0
-5.2592444e-18
1.0595689e-17
1.6009155e-17
-1.0749715e-17
-1.6239743e-17
-5.4515455e-18
5.4897528e-18
1.1055757e-17
-5.5659258e-18
5.6038844e-18
5.6417319e-18
-1.1358898e-17
1.1434066e-17
5.7544969e-18
-1.7375575e-17
-1.165824e-17
5.8662657e-18
1.7709802e-17
-1.3188838e-29
1.3270258e-29
6.0132918e-18
6.7160523e-30
6.0859112e-18
-6.1220058e-18
-6.1579338e-18
-6.1936787e-18
6.2292343e-18
6.2646032e-18
-1.8899374e-17
6.3348016e-18
1.2739262e-17
-1.9212811e-17
-1.8299904e-33
6.472928e-18
-1.3013863e-17
-6.5407214e-18
0
6.6076877e-18
6.6408565e-18
1.3347582e-17
-6.7064707e-18
2.2443579e-29
2.0313197e-17
-6.8030171e-18
-6.8347562e-18
-6.8662707e-18
6.8975296e-18
6.9285017e-18
-2.0877524e-17
6.9895615e-18
1.4039376e-17
1.174115e-29
7.0792156e-18
-1.4217192e-17
-2.1413065e-17
-3.9769188e-30
3.9937415e-30
1.0264659e-33
7.2509841e-18
1.4557143e-17
7.3058762e-18
-2.1998678e-17
8.170286e-30
1.4772029e-17
0
0
-7.4632354e-18
4.156593e-30
-4.1692878e-30
-7.5376116e-18
1.5123547e-17
7.5855937e-18
8.445055e-30
-7.6321874e-18
-2.2964918e-17
-7.6774272e-18
0
0
0
2.3291561e-17
1.5569157e-17
-2.3414832e-17
8.6891099e-30
1.568921e-17
0
0
-1.5802897e-17
1.7584087e-29
8.8096051e-30
-1.5909998e-17
7.9720997e-18
1.597768e-17
1.6010446e-17
-8.0212416e-18
-2.4110644e-17
-8.0521326e-18
0
0
0
2.4328084e-17
1.6245471e-17
-2.4407148e-17
1.8091707e-29
8.1605041e-18
-1.1613588e-33
8.1838012e-18
-1.6389779e-17
9.1094433e-30
8.2158676e-18
-1.6451504e-17
0
4.5774295e-30
1.6506284e-17
1.6523048e-17
-2.4808529e-17
-1.6554185e-17
8.2842777e-18
4.6010008e-30
-8.2975029e-18
2.491062e-17
1.6618372e-17
-8.3144425e-18
-8.3193099e-18
8.3237987e-18
8.3279124e-18
-8.3316383e-18
-8.3349668e-18
4.6281682e-30
-4.6283942e-30
-8.34261e-18
0
-8.3458332e-18
1.6693757e-17
2.5042598e-17
-1.6695578e-17
-1.6695275e-17
-8.3470797e-18
9.2642935e-30
1.6689637e-17
-8.3431303e-18
8.3410712e-18
8.3386385e-18
-1.6671662e-17
1.66653e-17
8.3290987e-18
-8.3251836e-18
-1.6641818e-17
-8.316276e-18
1.662256e-17
-4.6080552e-30
8.3001914e-18
8.2941033e-18
-2.4862982e-17
8.2808695e-18
8.2737326e-18
-2.4798742e-17
1.1735909e-33
2.4750677e-17
8.2416924e-18
-2.4698445e-17
8.2235981e-18
5.0813682e-47
1.3659459e-29
1.6387872e-17
-1.6366772e-17
-1.6345013e-17
8.1612984e-18
-9.0474743e-30
-1.6275798e-17
8.1257144e-18
2.4339647e-17
8.1004085e-18
-8.0872939e-18
0
-8.0601294e-18
-1.6092159e-17
1.1413766e-33
2.4051212e-17
8.0021271e-18
-1.5973791e-17
1.1328003e-33
1.5911116e-17
-1.5878904e-17
1.3195951e-29
1.5812774e-17
-2.366833e-17
-1.5744465e-17
0
0
7.8189786e-18
2.3402062e-17
7.7821344e-18
-2.3289989e-17
8.5973295e-30
1.5449982e-17
-1.5410911e-17
-1.5371344e-17
7.665641e-18
1.5290732e-17
-7.6248557e-18
-7.6041196e-18
2.2749494e-17
7.5619909e-18
1.2558956e-29
-4.1714696e-30
-7.4971513e-18
7.4751067e-18
-1.4905708e-17
-2.2291197e-17
0
2.2154697e-17
1.4723721e-17
-2.20159e-17
2.0791102e-33
7.2916193e-18
-1.4535673e-17
7.2438748e-18
7.2197418e-18
7.988039e-30
-7.1709917e-18
-1.4292752e-17
7.1215983e-18
1.4193316e-17
1.414312e-17
-7.8244824e-30
-7.0209317e-18
6.9954174e-18
-1.393954e-17
-2.0831957e-17
0
2.0676024e-17
1.3731649e-17
-2.0518574e-17
7.5655321e-30
6.7866037e-18
-6.7599816e-18
-6.7332503e-18
3.7206619e-30
1.3358938e-17
-3.6926034e-30
-1.3250598e-17
7.3239407e-30
7.2936435e-30
1.3086831e-17
1.9547878e-17
-1.2976851e-17
7.1743249e-30
2.1423455e-29
-6.4053964e-18
-6.3775962e-18
-1.269948e-17
1.8965484e-17
6.2938618e-18
-1.2531688e-17
1.2475558e-17
3.5297904e-33
-1.8544593e-17
-6.1533555e-18
6.1251468e-18
1.8290716e-17
-2.0213039e-29
-1.2080668e-17
-6.0120155e-18
1.1967368e-17
1.7866022e-17
-1.778096e-17
-5.8986209e-18
-6.5151952e-30
-5.8418609e-18
1.1626952e-17
-3.211168e-30
5.7567244e-18
-5.7283612e-18
1.8986862e-29
1.701499e-17
-1.6929999e-17
-1.6845057e-17
0
0
0
5.5019974e-18
1.6421434e-17
5.445657e-18
6.0142882e-30
5.3894496e-18
-1.6084202e-17
-5.333393e-18
5.3054294e-18
5.277512e-18
5.2496418e-18
-1.044364e-17
5.1940483e-18
-5.1663286e-18
1.7114091e-29
1.0222107e-17
-1.5250503e-17
-1.0112014e-17
0
1.0002414e-17
5.5217916e-30
-4.946672e-18
1.4758512e-17
4.8924017e-18
-4.8653667e-18
0
0
-4.7847039e-18
-9.5159382e-18
1.0504946e-29
9.4094528e-18
4.6782196e-18
-4.6517921e-18
4.6254463e-18
-4.5991825e-18
-1.3600992e-46
7.5729224e-30
-1.3562669e-17
0
0
8.8867243e-18
8.8353774e-18
4.3921021e-18
-4.846975e-30
-1.30236e-17
4.7925151e-30
8.5813188e-18
0
-8.4809339e-18
-4.2155041e-18
8.3812696e-18
-4.1658598e-18
-4.1411776e-18
1.2349756e-17
-4.0920803e-18
1.3547174e-29
8.0866774e-18
-1.2057327e-17
-7.9899486e-18
0
0
0
1.1698015e-17
7.7513051e-18
-1.1556182e-17
-7.6571249e-18
0
7.5636782e-18
-4.1726264e-30
-3.7354646e-18
7.424821e-18
-3.6894476e-18
3.6665755e-18
3.6437919e-18
-1.0863281e-17
7.1969599e-18
7.1519035e-18
-3.553511e-18
3.5311582e-18
-7.017785e-18
-1.0460133e-17
0
1.0327782e-17
6.8413177e-18
-3.3988076e-18
-3.3770398e-18
3.7249523e-30
-3.3337466e-18
1.1033081e-29
3.2907704e-18
1.8152312e-30
4.093981e-48
-3.2269019e-18
0
-3.1847025e-18
6.3274324e-18
9.4284213e-18
-9.3659252e-18
-9.3036546e-18
0
6.1198306e-18
6.0787358e-18
-6.037786e-18
2.9984918e-18
2.9781641e-18
-8.8737208e-18
5.8754322e-18
5.8351789e-18
-2.8975287e-18
-5.7550733e-18
-2.8576144e-18
8.5132841e-18
2.8179745e-18
4.6597236e-30
-5.5571706e-18
-1.5683005e-33
8.21834e-18
-5.4399524e-18
-8.1017146e-18
-2.6812299e-18
7.9858413e-18
5.2854434e-18
-7.8706674e-18
5.7834152e-30
5.1708226e-18
2.5664333e-18
-1.4140645e-30
-5.0573059e-18
2.7863104e-30
-2.491097e-18
-2.4724083e-18
7.3613444e-18
2.4352159e-18
2.6829126e-30
-4.7965044e-18
7.9259842e-30
7.0845088e-18
-4.6864315e-18
2.5824138e-30
2.5628943e-30
5.0823047e-30
2.2706664e-18
-6.7579894e-18
2.2347134e-18
3.6908823e-30
7.3236362e-30
6.5436573e-18
-2.1635099e-18
-4.291714e-18
2.3626876e-30
-2.1107068e-18
-2.0932127e-18
4.1515539e-18
4.1168032e-18
-2.2656277e-30
-6.0715063e-18
2.2271066e-30
1.9895021e-18
-3.9448334e-18
1.9553875e-18
1.9384174e-18
-1.0660371e-30
1.0572325e-30
-1.8878804e-18
3.742319e-18
-1.8544965e-18
6.1220583e-30
6.0659058e-30
-5.414577e-18
3.5768747e-18
-5.0365549e-34
-3.5115752e-18
1.7395584e-18
5.1701755e-18
1.7072881e-18
-5.0737468e-18
1.8598102e-30
1.6593669e-18
-3.2870476e-18
3.2554934e-18
8.0546e-30
-1.5963951e-18
1.580823e-18
-1.5653199e-18
3.0997681e-18
-1.5345157e-18
-4.5576489e-18
0
0
2.9475e-18
4.1459878e-34
-2.8875994e-18
1.4289305e-18
4.2424023e-18
1.3994129e-18
-4.1543074e-18
-3.8943498e-34
-1.5050446e-30
-2.6825832e-18
3.9808415e-18
6.558104e-30
-1.2984907e-18
1.2843833e-18
1.2703559e-18
-1.395516e-30
-1.2425335e-18
2.4574782e-18
-2.4300511e-18
4.0011943e-30
2.3756979e-18
-3.5231523e-18
-2.3219985e-18
1.147695e-18
3.4034196e-18
1.1213369e-18
-1.1082882e-18
0
1.0824461e-18
-1.0696482e-18
-3.1708004e-18
-5.7966817e-31
2.0635279e-18
-1.019315e-18
-1.0069554e-18
1.9893616e-18
-9.8248986e-19
9.7038385e-19
1.9167303e-18
-2.8393114e-18
3.1126522e-30
-2.0492917e-30
-1.8224109e-18
1.799274e-18
8.8815537e-19
8.7676226e-19
9.6153018e-31
-8.5425149e-19
1.6862729e-18
-1.6642241e-18
-2.4635274e-18
0
7.9956961e-19
-4.3790102e-31
-2.2121466e-34
2.3035526e-18
7.574631e-19
-2.2414936e-18
7.3695515e-19
5.2387147e-47
-2.1504252e-18
7.0687502e-19
2.0911058e-18
6.8728633e-19
-1.3552529e-18
6.6805552e-19
-6.5857456e-19
2.1620849e-30
1.2797827e-18
-1.8920691e-18
-6.9039902e-31
2.7204586e-30
-1.2072349e-18
1.1895404e-18
6.5056507e-31
-5.7735215e-19
1.1375634e-18
5.6029956e-19
0
0
-1.0707455e-18
1.1706345e-30
2.9513116e-34
5.6756501e-31
5.0338599e-19
4.9560681e-19
-4.8791202e-19
-4.8030227e-19
9.4556009e-19
-9.3069451e-19
5.0845203e-31
9.0148299e-19
-8.8712613e-19
-1.4536319e-30
4.7675685e-31
-4.2252181e-19
8.3135678e-19
-4.0892042e-19
8.9310466e-31
7.9129551e-19
0
-7.653806e-19
-3.7633125e-19
7.4011013e-19
3.6386187e-19
-3.5774857e-19
5.8578074e-31
3.45751e-19
0
0
-6.5664119e-19
-6.453324e-19
0
6.2317477e-19
3.0615786e-19
-3.0080011e-19
2.9551371e-19
-2.902992e-19
0
5.6017938e-19
0
0
-2.6531002e-19
2.8921727e-31
2.5579821e-19
0
-2.4655541e-19
-1.3434824e-31
2.3758412e-19
0
-4.5775428e-19
-4.4923676e-19
2.204212e-19
2.4007898e-31
-2.1221272e-19
4.1640894e-19
4.0851924e-19
-4.0075114e-19
-5.5862955e-35
-4.280906e-31
-5.373737e-35
3.708362e-19
-1.8182363e-19
1.9792682e-31
-1.748094e-19
1.7138572e-19
5.0404743e-19
-4.940973e-19
-1.6143573e-19
1.5822636e-19
1.7213039e-31
1.5196848e-19
-2.9783386e-19
-2.918306e-19
2.8592543e-19
4.6641923e-31
1.3720356e-19
1.3439819e-19
-2.6328349e-19
1.2893256e-19
-1.4016025e-31
6.86709e-32
-1.2107732e-19
-2.3709826e-19
2.3213354e-19
2.2725758e-19
0
-1.0887916e-19
-1.1830257e-31
2.0857997e-19
1.1330047e-31
-2.996117e-19
-1.9544828e-19
0
1.8709333e-19
2.031572e-31
8.9510854e-20
8.7547528e-20
-2.5687062e-19
4.646913e-32
1.6377894e-19
-8.0075542e-20
-1.5658948e-19
7.6546302e-20
1.4965931e-19
7.3144994e-20
0
-1.397517e-19
6.8291957e-20
2.0021722e-19
-6.5216058e-20
-6.3723938e-20
-1.2452513e-19
-6.0821736e-20
1.1882348e-19
5.8030162e-20
5.6678556e-20
-6.145539e-32
-5.4062675e-20
-5.2794487e-20
-1.0309308e-19
-5.032524e-20
0
0
0
9.1378487e-20
8.9186727e-20
-8.7041371e-20
-4.7148252e-32
-4.6004614e-32
4.4871311e-32
8.7579922e-32
-7.6946487e-20
0
7.3212007e-20
3.5703022e-20
-3.4818451e-20
3.3951991e-20
3.3104785e-20
0
0
-6.1356569e-20
9.9592516e-32
6.470888e-32
-5.680422e-20
5.5358006e-20
5.3948303e-20
0
-5.1229283e-20
2.7695825e-32
4.861001e-20
-4.7341395e-20
-2.5600386e-32
4.4911074e-20
0
-4.2609669e-20
-2.0746283e-20
4.0390666e-20
-1.965524e-20
-4.2485798e-32
3.7243577e-20
-3.6257358e-20
-3.5299056e-20
0
0
0
3.1634678e-20
3.0770355e-20
-2.9935057e-20
0
2.8341679e-20
0
1.3407322e-20
-2.6064571e-20
-1.2666128e-20
1.2312122e-20
-2.3941814e-20
-1.1641538e-20
2.2645595e-20
1.1010391e-20
1.187992e-32
-1.0392497e-20
2.2409493e-32
-5.5731331e-36
-1.905449e-20
0
9.0034195e-21
1.7501786e-20
8.4988112e-21
0
0
0
7.5464227e-21
-1.4662491e-20
-7.1239602e-21
6.9218602e-21
6.719892e-21
-6.5181389e-21
-6.3213632e-21
1.226428e-20
0
-1.1554849e-20
-1.122191e-20
0
0
1.0257051e-20
5.5185106e-33
4.8187081e-21
4.6731045e-21
-4.5342929e-21
4.4018384e-21
-4.2738457e-21
-8.292856e-21
-4.018357e-21
0
7.5425837e-21
4.0573036e-33
-3.5460995e-21
3.4423974e-21
3.3415924e-21
6.4798327e-21
-6.2751339e-21
-3.0374748e-21
8.3609942e-37
-2.8511621e-21
5.5322782e-21
-2.6857119e-21
2.6059658e-21
1.9022184e-49
-2.4429913e-21
4.7283427e-21
-4.5787842e-21
-4.4386728e-21
0
2.0915704e-21
4.0557693e-21
-1.0894567e-33
-1.8985061e-21
-1.8371202e-21
3.5587653e-21
3.4519369e-21
-1.6761974e-21
-3.2536082e-21
-3.1509763e-21
1.5236898e-21
2.9470533e-21
-1.4259429e-21
1.3819764e-21
-2.2342445e-33
-1.3033949e-21
2.526704e-21
-2.4430921e-21
-1.3099681e-33
6.3360532e-33
-2.210896e-21
2.1460413e-21
4.6307364e-33
-1.0115994e-21
1.9554757e-21
-9.4329668e-22
2.5899593e-37
-3.9161018e-33
-8.5543353e-22
1.6631342e-21
-1.7920967e-33
4.3273242e-34
-7.5104916e-22
2.0584556e-37
1.399902e-21
-1.3564001e-21
-3.7447822e-37
2.8369162e-33
-1.2320866e-21
1.1834942e-21
1.2639302e-33
-1.0983992e-21
5.3174828e-22
5.1626008e-22
4.9943571e-22
-4.7902203e-22
5.0738586e-34
8.7462663e-22
0
0
-7.9027245e-22
-1.0845693e-37
7.2647271e-22
-3.4252293e-22
3.5942454e-34
-3.0864909e-22
-6.5907623e-34
5.7567452e-22
0
2.6407212e-22
-4.9110575e-22
-2.2724511e-22
4.7049166e-34
-1.9968611e-22
3.8091581e-22
-1.8294639e-22
1.9269232e-34
3.2016185e-22
0
0
-1.1536151e-22
5.8199896e-35
-9.6762585e-23
8.9487795e-23
2.4030954e-22
-2.0320665e-22
-5.4040846e-23
8.2080902e-23
-2.9916303e-23
-3.5448155e-35
-1.4592631e-23
4.2187583e-39
-6.9322073e-36
1.3695098e-23
-5.1774385e-23
-3.6865293e-23
0
-5.0998801e-23
5.6228851e-23
6.3565351e-23
7.3404961e-23
-1.8757534e-34
1.0548444e-34
-1.1478734e-34
-2.1752033e-22
1.1227893e-22
1.9465998e-34
-2.4833156e-22
1.8965625e-38
1.4328244e-22
3.0365365e-22
3.1510477e-22
-3.2086885e-22
-1.8106303e-34
-1.6740101e-22
-1.7384018e-22
3.632575e-22
-3.7865312e-22
-1.9520047e-22
5.9552239e-22
4.0084462e-22
-2.0297366e-22