/*--------------------------------*- C++ -*----------------------------------*\
  =========                 |
  \\      /  F ield         | OpenFOAM: The Open Source CFD Toolbox
   \\    /   O peration     | Website:  https://openfoam.org
    \\  /    A nd           | Version:  7
     \\/     M anipulation  |
\*---------------------------------------------------------------------------*/
FoamFile
{
    version     2.0;
    format      ascii;
    class       volScalarField;
    location    "0.0024";
    object      Uz;
}
// * * * * * * * * * * * * * * * * * * * * * * * * * * * * * * * * * * * * * //

dimensions      [0 1 -1 0 0 0 0];

internalField   nonuniform List<scalar> 
5000
(
0
0
0
0
0
-2.5710527e-21
-4.9477916e-36
6.8884864e-21
2.5341105e-21
-5.3272103e-21
-5.4179579e-21
2.7172367e-21
-2.3116129e-35
-2.3771005e-35
5.3622112e-21
-5.3254313e-21
-4.9984661e-51
-2.3158931e-35
-2.6119853e-21
5.2280293e-21
2.6313909e-21
0
0
-2.6633687e-21
2.2644229e-35
-2.175825e-35
-2.6242702e-21
2.6056103e-21
2.5897396e-21
-2.5941922e-21
4.5711589e-35
-2.2487168e-35
-2.639607e-21
2.6198676e-21
2.5988185e-21
0
0
-2.5623784e-21
-2.5850364e-21
2.6143867e-21
-4.3998038e-35
-2.6009716e-21
2.5664473e-21
-4.2793711e-35
-2.4931955e-21
2.4889745e-21
-8.6933995e-35
8.8034044e-35
-8.932185e-35
4.4245492e-35
2.5681189e-21
0
0
0
0
0
0
0
0
0
0
0
0
-2.5227315e-21
-2.5350183e-21
2.5388856e-21
-4.3521982e-35
-3.0161822e-52
2.5096734e-21
0
0
-2.5498758e-21
-2.5043833e-21
0
2.5221636e-21
8.6125152e-35
-2.4751013e-21
-2.4880125e-21
2.5052255e-21
5.0077867e-21
-4.9858703e-21
1.4034352e-36
7.3551841e-21
-4.9270629e-21
-2.5933062e-34
5.025175e-21
-7.510748e-21
2.4829929e-21
2.4661192e-21
-2.4564883e-21
2.4617031e-21
2.4716267e-21
8.6152161e-35
-4.9463786e-21
-1.7157458e-34
-2.4866328e-21
-2.4866141e-21
-8.6837656e-35
1.7101917e-34
4.8766781e-21
2.4318294e-21
-2.4462937e-21
3.4954018e-37
2.4563368e-21
0
-2.4330871e-21
-8.5408169e-35
2.4620376e-21
-2.4487099e-21
-2.4241957e-21
4.747246e-21
2.341571e-21
-7.0999299e-21
-2.4181709e-21
7.3671955e-21
-2.4626507e-21
-2.4466667e-21
-1.3793851e-36
-2.410946e-21
7.1748475e-21
-1.6640228e-34
-4.7864057e-21
4.8422865e-21
2.4335375e-21
-2.4236992e-21
2.4049582e-21
-2.3757519e-21
-4.7040029e-21
2.3578599e-21
8.2519651e-35
2.4135742e-21
4.8291699e-21
-2.3976098e-21
-2.3736077e-21
-2.3501863e-21
-8.1648577e-35
-8.2146207e-35
8.3193354e-35
4.7851857e-21
2.3840196e-21
-2.3655775e-21
-4.702478e-21
-2.3553701e-21
-2.3660633e-21
1.6453134e-34
4.7372705e-21
-6.6735927e-37
6.6244749e-37
-5.1391418e-51
2.3511194e-21
-1.6350541e-34
3.2628985e-34
2.302558e-21
-2.266051e-21
2.2711529e-21
8.0336354e-35
-2.3583489e-21
2.3634087e-21
-3.3091743e-37
-2.2888753e-21
0
2.2143708e-21
1.5676478e-34
-4.636103e-21
2.3472186e-21
-6.6622097e-37
-2.3163903e-21
2.290525e-21
-2.2587918e-21
2.2367142e-21
-9.3850334e-34
-6.3464678e-34
2.3149434e-21
-4.6318834e-21
0
-1.5758711e-34
-4.6692735e-34
2.2292466e-21
2.2514638e-21
1.5744295e-34
-2.2984691e-21
2.2842898e-21
1.5570959e-34
9.5483932e-37
3.0809978e-34
-4.4765672e-21
2.2633183e-21
2.2753123e-21
-1.5581479e-34
1.5493839e-34
-4.6324125e-34
1.5313457e-34
-2.2330108e-21
0
0
0
0
-2.2202363e-21
4.638838e-34
2.238256e-21
2.2368491e-21
-2.2234163e-21
-2.2060332e-21
4.3928205e-21
1.5304226e-34
-4.6200344e-34
-2.221153e-21
-2.2085914e-21
2.1842101e-21
0
2.1825471e-21
1.5247972e-34
-2.2100373e-21
-2.1966222e-21
3.0157165e-34
2.1371527e-21
-4.277867e-21
2.1730634e-21
2.1989084e-21
-2.2011011e-21
2.1861372e-21
0
0
0
2.162084e-21
-2.1837186e-21
-4.3707713e-21
2.1759845e-21
-1.5048129e-34
2.1591419e-21
2.1597293e-21
-4.3288263e-21
6.1491891e-37
-6.1105028e-37
2.1376266e-21
2.1404848e-21
-4.2980429e-21
3.0611611e-37
-4.4768053e-34
2.128358e-21
-1.1722449e-33
-2.9325119e-34
2.1340012e-21
-2.1485545e-21
0
-2.1218939e-21
2.0993373e-21
2.0904986e-21
-2.1122241e-21
0
-2.1319226e-21
2.1220027e-21
2.1000113e-21
-7.2325837e-34
-4.1784789e-21
-4.2207151e-21
6.3767644e-21
4.2414919e-21
0
-4.1845412e-21
-2.0825886e-21
2.0924788e-21
2.1092702e-21
2.1124217e-21
-4.2098259e-21
-4.1940968e-21
2.0931621e-21
4.1924449e-21
5.8168737e-34
-4.1861127e-21
2.0821236e-21
-2.8769883e-34
-2.0791316e-21
4.1783614e-21
-2.0873047e-21
2.8870646e-34
2.0570125e-21
-2.0523206e-21
2.0673637e-21
-4.1672919e-21
8.6766512e-34
4.1292646e-21
-4.0900145e-21
-1.4073091e-34
2.050437e-21
0
0
2.0598056e-21
-2.0403913e-21
-4.0536172e-21
2.0375245e-21
-5.8317621e-37
2.0564571e-21
2.0512379e-21
-2.0309172e-21
0
-2.0254831e-21
-2.0402904e-21
0
4.082589e-21
2.0170778e-21
-3.9955733e-21
1.3875143e-34
-5.7712458e-37
2.0484705e-21
2.040721e-21
-2.0228747e-21
1.9990407e-21
-1.9856227e-21
1.1404075e-36
4.0559372e-21
-2.0341025e-21
-2.0265243e-21
-2.0075111e-21
-2.762813e-34
1.9948865e-21
0
0
-2.0233419e-21
2.7918048e-34
-5.5494407e-34
-2.7802092e-34
2.0079558e-21
-2.011426e-21
2.8541483e-37
1.9925335e-21
0
0
0
0
0
0
0
-1.968216e-21
0
2.0009351e-21
0
-1.9671414e-21
-5.392388e-34
1.944627e-21
0
0
-1.9903231e-21
-2.746599e-34
1.9546933e-21
0
0
-1.9717671e-21
-1.9824675e-21
1.9765602e-21
1.953256e-21
0
-1.9342237e-21
2.7879977e-37
1.9834098e-21
-1.9747456e-21
-1.9542216e-21
1.9232839e-21
1.9054928e-21
0
-1.9631648e-21
-1.9760908e-21
1.9595478e-21
1.9279781e-21
0
-1.884019e-21
-1.9224111e-21
1.9652337e-21
1.9790417e-21
0
0
0
0
0
0
0
0
-1.9289863e-21
-3.6790644e-51
1.8461494e-21
0
0
0
-1.9661334e-21
-2.7002467e-34
1.9223196e-21
-1.8920733e-21
2.5981697e-34
-2.6802042e-37
-2.6664269e-34
1.9412692e-21
-1.9404112e-21
1.9274444e-21
-1.0584856e-33
-1.8855124e-21
1.8881596e-21
0
0
-1.9299939e-21
-2.6666282e-34
1.9021983e-21
-1.8894095e-21
-1.8994713e-21
0
1.9205707e-21
1.9172465e-21
-1.8997726e-21
-5.235938e-34
-1.7639937e-51
-2.6479733e-34
1.9129826e-21
-1.9090502e-21
1.0902429e-51
-2.6019993e-34
-1.8834817e-21
0
0
1.9011955e-21
2.6684344e-37
-7.7380872e-34
1.8682505e-21
0
0
-1.896608e-21
5.1907214e-34
1.8479433e-21
0
0
0
-1.8881e-21
2.6613765e-37
1.8384601e-21
-1.8179924e-21
1.8391804e-21
-5.2173466e-34
-3.7948812e-21
1.88547e-21
7.7641593e-34
2.5512789e-34
-2.5286714e-34
-1.8385784e-21
0
0
1.8742787e-21
2.5829378e-34
-5.1220169e-34
-4.2564928e-52
-1.8488407e-21
1.8618161e-21
1.8620486e-21
0
-1.8324037e-21
-2.5430684e-34
1.8424521e-21
0
0
-1.8266005e-21
5.1311346e-37
-7.2807849e-52
-1.8309209e-21
1.8512538e-21
-2.5546414e-34
2.5319515e-34
-4.9811106e-34
-1.7798406e-21
1.8056086e-21
-5.0813283e-34
5.097526e-34
-5.0595225e-34
-1.7872005e-21
1.7589387e-21
-4.904962e-34
2.5096289e-34
0
-1.8223084e-21
1.807246e-21
-2.4630426e-34
2.4862538e-37
-2.4462602e-34
2.4986275e-34
1.8156937e-21
-1.8089681e-21
-1.794607e-21
1.7668539e-21
1.7479263e-21
0
-1.7886274e-21
-1.8047718e-21
0
1.7759141e-21
-2.4312266e-34
2.4758961e-37
2.4483955e-34
-1.7844331e-21
1.7860119e-21
2.4637105e-34
-4.8593245e-34
-1.7321774e-21
-1.746597e-21
3.5332269e-21
-2.5239564e-37
2.4532073e-34
1.7390221e-21
-1.7137651e-21
2.3884085e-34
1.7542097e-21
0
0
0
-1.7128374e-21
-1.6929876e-21
1.7171036e-21
1.7500672e-21
0
-1.7549542e-21
-1.732994e-21
1.7039829e-21
1.6932525e-21
0
-1.744963e-21
-1.7471364e-21
1.7367291e-21
4.7349788e-34
-1.6814075e-21
0
0
0
0
1.7192076e-21
-4.6723209e-34
-1.665999e-21
1.6957995e-21
2.3984658e-34
-2.4159732e-34
1.3915171e-51
1.6930281e-21
1.6592469e-21
-3.317696e-21
-2.3561497e-34
2.3907481e-34
-1.7279687e-21
0
1.6883915e-21
1.6635398e-21
-1.6702923e-21
-4.7217673e-34
1.7269286e-21
0
0
-1.676059e-21
2.3003158e-34
1.6827904e-21
0
-1.7101888e-21
2.4167704e-37
-4.6022689e-34
-2.2547395e-34
1.6443661e-21
-1.6905175e-21
2.4385717e-37
-4.7544443e-34
-1.6876107e-21
1.6200759e-21
4.372189e-34
2.2832675e-37
-2.3135874e-34
-1.7133487e-21
1.73034e-21
0
-9.343789e-34
-2.264272e-34
-6.6212502e-34
-2.2863472e-37
-1.6584822e-21
1.702373e-21
2.4803289e-51
-2.3536374e-34
4.6523273e-34
-2.2592999e-34
3.1952421e-21
-1.6256755e-21
-1.6693092e-21
-2.3655218e-34
2.3857341e-34
3.4011407e-21
-1.6605085e-21
-1.5771429e-21
-1.5592131e-51
0
-5.2741447e-52
-1.6717326e-21
1.6911328e-21
6.3075392e-53
-2.3629348e-34
-2.3829813e-37
-1.6482827e-21
3.1671919e-21
4.3236781e-34
-1.6132435e-21
2.3070016e-34
-2.3381515e-34
1.6883786e-21
-1.6792634e-21
7.1666457e-52
-6.977891e-34
4.6518508e-34
-4.6294583e-34
-4.6025222e-34
-4.5234653e-53
0
1.5993855e-21
0
0
-1.6808951e-21
-4.6052469e-34
1.6082169e-21
0
0
-3.2332029e-21
-1.3812998e-33
3.3670171e-21
-1.6868316e-21
2.3705434e-37
-2.2816876e-34
-1.5972105e-21
0
0
0
-1.6559818e-21
-4.662546e-34
1.6762349e-21
0
0
-1.5433212e-21
2.2014707e-37
1.6088579e-21
0
0
-1.6763092e-21
-4.6430342e-34
-4.6480301e-34
4.6337962e-34
1.664345e-21
-1.6589951e-21
4.5723129e-34
-4.5438001e-34
4.4751486e-34
1.5883805e-21
0
0
-1.6502658e-21
-2.390332e-51
1.6693821e-21
0
0
-1.5699463e-21
1.902181e-50
1.6056144e-21
0
0
-1.6554454e-21
-2.1525589e-50
1.5741594e-21
0
0
-1.6336722e-21
2.3623463e-37
1.6644658e-21
-1.6586342e-21
4.5721236e-34
-4.5363081e-34
4.5385118e-34
1.6509869e-21
0
0
0
0
0
-1.6071871e-21
4.5197357e-34
1.652889e-21
0
0
0
0
0
0
0
-1.6581322e-21
9.1721656e-34
1.6532629e-21
0
0
0
0
0
0
0
-1.6704072e-21
4.6442756e-34
1.6738766e-21
0
0
-1.6617075e-21
4.5983357e-34
1.6586757e-21
0
0
0
-1.6532556e-21
-4.5180969e-34
1.6070364e-21
0
0
0
0
0
0
0
-1.6637299e-21
2.3676664e-37
1.6680095e-21
0
0
0
0
0
0
0
-1.6662309e-21
-2.3623863e-37
1.6570207e-21
0
0
0
-1.6659732e-21
9.2494089e-34
1.6651783e-21
0
-1.6614233e-21
-4.6141557e-34
1.6621507e-21
0
0
-1.6591094e-21
-1.6560612e-21
1.6525222e-21
1.6514282e-21
0
0
0
0
1.6524574e-21
-2.3435262e-37
-3.294477e-21
-1.6479804e-21
3.3001167e-21
3.3021837e-21
-1.6502505e-21
-1.6486173e-21
0
0
0
0
-1.6441223e-21
-4.5523416e-34
1.6315352e-21
0
0
0
0
0
0
0
0
0
0
0
0
0
0
-1.6003668e-21
8.8703778e-34
1.5972869e-21
0
0
1.5987531e-21
-4.4405315e-34
2.2698918e-37
-1.5947416e-21
-1.5916e-21
-8.804853e-34
4.3915324e-34
1.5738375e-21
0
0
0
0
0
-1.5671322e-21
8.6725225e-34
1.557442e-21
0
0
0
0
0
0
0
-1.5331689e-21
8.4766516e-34
1.520932e-21
0
0
0
0
0
0
0
-1.4958529e-21
1.2431961e-33
1.4890417e-21
0
0
0
0
0
0
0
0
-1.4480078e-21
2.0507597e-37
1.4380208e-21
0
0
0
0
-1.4120412e-21
1.4077487e-21
1.4035739e-21
-2.7981284e-21
-3.8715389e-34
1.3888135e-21
0
0
0
0
-1.3615032e-21
3.7610133e-34
2.6923287e-21
-1.3375099e-21
-1.3279175e-21
1.3197569e-21
0
0
0
-1.3045655e-21
-3.5991444e-34
1.2892435e-21
1.2812587e-21
-1.2748839e-21
-1.2698101e-21
1.2645928e-21
0
0
-1.2457841e-21
-1.2384516e-21
1.2303126e-21
1.2220644e-21
1.213467e-21
6.6925021e-34
-1.1980253e-21
0
0
0
-1.1718717e-21
-1.1643146e-21
1.1567345e-21
1.1492789e-21
1.1419792e-21
3.1492802e-34
-1.1273277e-21
0
0
0
-1.0954277e-21
3.0181411e-34
1.0799753e-21
0
0
0
0
0
0
0
-1.0083859e-21
2.782637e-34
1.99502e-21
2.7481786e-34
-9.7912286e-22
0
0
-9.4415926e-22
1.3323457e-37
-2.5905687e-34
2.5727176e-34
9.1755563e-22
9.0470049e-22
-2.4765132e-34
-8.80542e-22
0
0
-8.5917797e-22
7.0828287e-34
2.3319192e-34
-1.1785689e-37
8.1925652e-22
-8.1035193e-22
-8.0197892e-22
1.5859909e-21
-4.3451969e-34
-7.7281897e-22
7.6215706e-22
0
-7.4240393e-22
-2.0363183e-34
7.2329533e-22
0
-7.035454e-22
6.9372781e-22
-7.5940232e-34
-6.7375372e-22
6.6281613e-22
0
-6.3893725e-22
0
6.1888656e-22
0
-6.0133263e-22
5.903269e-22
-3.2037876e-34
-5.6417106e-22
5.5184783e-22
0
-5.3313471e-22
-1.4549726e-34
5.1320909e-22
0
-4.887095e-22
4.7673483e-22
-1.3239802e-37
-4.5553011e-22
4.4487382e-22
0
-4.2177527e-22
-4.0997052e-22
3.9831353e-22
3.8674458e-22
-3.7505758e-22
3.6311336e-22
3.5099639e-22
-3.3894553e-22
0
0
0
0
0
0
-2.5275519e-22
-5.9183513e-52
4.5578906e-22
-2.1499255e-22
-2.0172804e-22
1.8844037e-22
0
0
-1.4951302e-22
-1.3557997e-22
1.2064648e-22
1.0533893e-22
0
-7.7515934e-23
-1.7990276e-35
5.1350325e-23
0
0
-4.7523666e-24
1.063106e-23
-2.5436858e-23
-4.0373803e-23
0
7.3546145e-23
-2.5445049e-35
-1.0919827e-22
1.2559976e-22
7.8505488e-35
2.2398159e-38
1.7519033e-22
-1.9398622e-22
-2.1316159e-22
0
0
2.694662e-22
-8.0318089e-35
-3.100031e-22
0
3.4976012e-22
3.6871839e-22
-3.8863392e-22
-4.1086629e-22
0
0
0
0
0
0
5.8040627e-22
-1.6818405e-34
-6.3403872e-22
0
0
0
0
0
0
8.4062958e-22
-1.638441e-51
-9.1125645e-22
-9.5041693e-22
-2.7441616e-34
1.025439e-21
0
0
0
0
1.2209672e-21
3.5162855e-34
-1.3099529e-21
1.3516427e-21
1.3963192e-21
-1.4471347e-21
8.3437065e-34
1.2992178e-33
1.3428909e-33
-4.6145141e-34
9.4882123e-34
-4.8907222e-34
-1.8253529e-21
0
1.9688238e-21
-1.697512e-33
2.9897864e-37
2.1657353e-21
-2.2306696e-21
-2.3030713e-21
2.3827987e-21
-6.8469242e-34
2.124959e-33
1.4656403e-33
1.5132766e-33
-7.8151764e-34
1.6146186e-33
3.002118e-21
-3.0984435e-21
-3.2002078e-21
3.3091844e-21
-9.4988569e-34
3.9313303e-33
1.0145603e-33
-1.0460832e-33
-1.076851e-33
-1.1122481e-33
4.147808e-21
0
-4.4534118e-21
1.2764186e-33
-2.8316529e-50
-4.8725287e-21
0
5.1933194e-21
-5.3799451e-21
-5.572772e-21
5.7609055e-21
0
0
0
0
6.7381504e-21
-1.9340265e-33
3.9979466e-33
-7.4328669e-21
-7.6690611e-21
7.9150173e-21
0
0
0
0
9.2862987e-21
1.3620118e-36
-9.8958783e-21
0
0
0
0
0
0
0
1.2748376e-20
1.3158267e-20
-1.3582724e-20
-1.4020139e-20
0
0
0
0
0
0
1.7434326e-20
1.7987909e-20
-1.8554161e-20
-1.9131662e-20
0
0
0
0
0
0
2.3708272e-20
2.4439436e-20
-2.5192718e-20
-2.5967089e-20
0
0
0
0
0
0
3.2047292e-20
-1.8325343e-32
-3.399107e-20
0
0
0
0
0
0
4.1805422e-20
-1.1952035e-32
-4.4307717e-20
0
0
0
0
5.1210635e-20
7.4935272e-36
-5.427339e-20
5.583073e-20
-7.8207757e-50
-5.9044007e-20
6.0740808e-20
-3.4714255e-32
-6.4332363e-20
6.619656e-20
3.7803915e-32
3.8870898e-32
-1.5441258e-48
4.1074783e-32
2.1106414e-32
-7.8242148e-20
8.0456773e-20
8.2726923e-20
-1.7010065e-19
4.8503463e-32
1.7971132e-19
0
-9.4885124e-20
2.7073225e-32
2.7833625e-32
8.5701785e-32
8.8078101e-32
6.0299307e-32
-9.2964385e-32
6.3641083e-32
-3.2721843e-32
-1.2095357e-19
0
1.2755058e-19
1.8613072e-35
1.1195973e-31
1.1497318e-31
-2.014579e-35
-8.077297e-32
4.1471189e-32
1.5326623e-19
0
-1.6140372e-19
9.1940634e-32
2.4154184e-35
-1.7439191e-19
0
1.8348176e-19
-1.8817245e-19
-1.9298495e-19
1.9792724e-19
0
0
2.134239e-19
-2.4291125e-31
1.2441136e-31
-1.2761493e-31
6.5450528e-32
-2.414575e-19
-2.4745309e-19
2.535605e-19
0
0
0
0
2.8603052e-19
8.1344398e-32
3.3302321e-31
-3.0714589e-19
-3.1445641e-19
3.2192767e-19
0
0
0
0
3.6156309e-19
3.6992694e-19
-3.7847164e-19
-3.8720262e-19
0
0
0
0
0
0
4.5284307e-19
4.6294319e-19
-4.7321016e-19
-4.8363306e-19
0
0
0
0
0
0
5.6183436e-19
-4.7779807e-31
-1.171747e-18
5.9820374e-19
6.1074882e-19
-6.2350012e-19
0
-1.2991662e-18
7.361289e-31
2.2527511e-30
6.9023774e-19
1.4084598e-18
-1.436867e-18
7.3283976e-19
7.4744974e-19
-7.6227511e-19
7.7732952e-19
-1.1263777e-34
-8.0813255e-19
-8.2386092e-19
8.3979702e-19
8.5594863e-19
-8.7233249e-19
8.8896147e-19
1.2872678e-34
-9.2293603e-19
0
0
0
-1.9870484e-18
1.0117769e-18
2.0605653e-18
-1.0490248e-18
1.0679874e-18
1.0871674e-18
-2.2131524e-18
7.6114629e-48
1.1461412e-18
-1.1663058e-18
-2.3734279e-18
-1.2073558e-18
3.684688e-18
-1.2493401e-18
1.1157827e-46
3.8769024e-18
-2.628308e-18
-1.3362517e-18
-1.3585914e-18
-2.7623462e-18
2.8079968e-18
1.4270689e-18
1.4503852e-18
-1.4739468e-18
-1.4977533e-18
4.565411e-18
-1.5460968e-18
-1.5706321e-18
1.5954103e-18
1.620433e-18
2.3386822e-34
-5.0136429e-18
1.6969694e-18
-2.8686384e-30
2.9133097e-30
5.3270098e-18
-1.8023822e-18
-1.8293339e-18
-3.7130488e-18
1.8839537e-18
3.8232436e-18
-3.8790541e-18
1.9676654e-18
-1.996032e-18
-2.0246253e-18
6.1603456e-18
-2.0825068e-18
-2.1118017e-18
4.2826569e-18
2.1710783e-18
-2.2010448e-18
-6.6936847e-18
2.2616331e-18
9.1690503e-18
-1.289505e-30
-4.7083651e-18
-2.385463e-18
0
-4.8973281e-18
-5.5069456e-30
7.538125e-18
-2.5450285e-18
5.7229299e-30
-2.6102609e-18
-2.6431898e-18
5.3526604e-18
0
0
0
2.8107377e-18
-1.5794788e-30
-5.7580875e-18
2.9134958e-18
5.896256e-18
-8.9487603e-18
1.0050859e-29
6.1059242e-18
-3.0882313e-18
0
0
0
-6.4620239e-18
3.2670779e-18
6.6065647e-18
-1.0018892e-17
9.595529e-34
6.8255385e-18
0
0
3.5234937e-18
-1.9769323e-30
-7.1958123e-18
3.6352942e-18
7.3456122e-18
-1.1131303e-17
6.2404821e-30
7.5719649e-18
-3.8238867e-18
3.8618851e-18
-7.7999769e-18
-3.9381978e-18
1.3242427e-29
4.0148725e-18
8.1066002e-18
-1.2275346e-17
2.3478212e-33
4.1689577e-18
-2.3355727e-30
4.246432e-18
4.2852451e-18
-2.4001987e-30
-1.3088903e-17
1.2510907e-33
1.332253e-17
-8.9596808e-18
9.0030196e-47
9.1158089e-18
-4.5969573e-18
4.636023e-18
-9.3502015e-18
-4.714185e-18
1.055505e-29
4.792343e-18
9.6628154e-18
4.8704605e-18
4.9094969e-18
-1.4845527e-17
0
5.0264371e-18
2.8116552e-30
-2.8332372e-30
2.8540655e-30
-5.1818598e-18
5.7956417e-30
-5.2592444e-18
1.7644238e-29
1.6009155e-17
-1.0749715e-17
-1.6239743e-17
-5.4515455e-18
1.6469258e-17
1.1055757e-17
-1.6697778e-17
5.6038844e-18
1.6925196e-17
0
0
-5.7544969e-18
-5.7918583e-18
0
5.8662657e-18
5.9032674e-18
-1.1880209e-17
1.3270258e-29
1.8039875e-17
-6.7160523e-30
-6.0859112e-18
-6.1220058e-18
-6.1579338e-18
6.1936787e-18
6.2292343e-18
-6.2646032e-18
-1.8899374e-17
6.3348016e-18
2.5478525e-17
-6.4042704e-18
-1.2877413e-17
-6.472928e-18
0
6.5407214e-18
0
6.6076877e-18
-6.6408565e-18
1.4817844e-29
-6.7064707e-18
2.2443579e-29
2.0313197e-17
-6.8030171e-18
-6.8347562e-18
6.8662707e-18
6.8975296e-18
-6.9285017e-18
-2.0877524e-17
6.9895615e-18
2.8078751e-17
-1.174115e-29
-7.0792156e-18
-1.4217192e-17
-7.1376883e-18
1.4332947e-17
3.9937415e-30
1.0264659e-33
-7.2509841e-18
1.6160641e-29
7.3058762e-18
-2.1998678e-17
8.170286e-30
1.4772029e-17
0
0
7.4632354e-18
-4.156593e-30
-1.5026251e-17
7.5376116e-18
1.5123547e-17
7.5855937e-18
-8.445055e-30
-2.2896562e-17
-7.6549726e-18
7.6774272e-18
-1.5399101e-17
4.3890708e-33
2.5789159e-29
7.7638535e-18
1.5569157e-17
-2.3414832e-17
8.6891099e-30
1.568921e-17
0
0
-1.5802897e-17
1.7584087e-29
8.8096051e-30
2.2609467e-33
2.3916299e-17
1.597768e-17
-1.3332796e-29
-2.4063725e-17
-8.0368814e-18
8.0521326e-18
-1.6133994e-17
-8.9693797e-30
2.6959761e-29
8.1093612e-18
1.6245471e-17
-2.4407148e-17
8.1483019e-18
8.1605041e-18
-8.172336e-18
8.1838012e-18
-1.6389779e-17
9.1094433e-30
8.2158676e-18
1.1689497e-33
1.6470504e-17
-1.6488762e-17
1.3741017e-29
1.6523048e-17
-8.2695098e-18
0
8.2842777e-18
4.6010008e-30
-2.4892509e-17
8.30354e-18
1.6618372e-17
8.3144425e-18
8.3193099e-18
-8.3237987e-18
-8.3279124e-18
-8.3316383e-18
8.3349668e-18
-4.6281682e-30
4.6283942e-30
-8.34261e-18
9.2659337e-30
-8.3458332e-18
2.7798911e-29
2.5042598e-17
-1.6695578e-17
-1.6438151e-49
8.3470797e-18
9.2642935e-30
-4.6331943e-30
-2.5029391e-17
8.3410712e-18
2.5015916e-17
0
0
-8.3290987e-18
-8.3251836e-18
-1.6641818e-17
8.316276e-18
1.662256e-17
-1.6611837e-17
8.3001914e-18
2.488231e-17
-8.2876606e-18
-8.2808695e-18
-8.2737326e-18
-8.2662475e-18
1.6516823e-17
8.2502257e-18
-8.2416924e-18
-2.4698445e-17
8.2235981e-18
5.0813682e-47
1.3659459e-29
1.6387872e-17
-1.6366772e-17
-1.6345013e-17
8.1612984e-18
1.6299524e-17
-1.6275798e-17
-8.1257144e-18
2.4339647e-17
2.4301226e-17
-8.0872939e-18
-1.6147736e-17
-8.0601294e-18
4.4661856e-30
1.6063448e-17
8.0170707e-18
-8.0021271e-18
-1.5973791e-17
1.1328003e-33
1.5911116e-17
-1.5878904e-17
1.3195951e-29
1.5812774e-17
-7.8894434e-18
-1.5744465e-17
-1.5709506e-17
0
7.8189786e-18
2.3402062e-17
7.7821344e-18
-7.7633298e-18
0
0
0
0
7.665641e-18
-4.2437592e-30
-2.2874567e-17
7.6041196e-18
2.2749494e-17
7.5619909e-18
-1.2558956e-29
-1.5037965e-17
-7.4971513e-18
7.4751067e-18
-1.4905708e-17
-7.4303989e-18
2.4673277e-29
7.384899e-18
1.4723721e-17
-2.20159e-17
2.0791102e-33
7.2916193e-18
-1.0328217e-33
7.2438748e-18
7.2197418e-18
-7.988039e-30
-2.1512975e-17
2.0311223e-33
2.1364795e-17
1.4193316e-17
-3.9232434e-30
-1.4092629e-17
-7.0209317e-18
6.9954174e-18
-1.393954e-17
-6.9439858e-18
2.3038342e-29
6.892008e-18
1.3731649e-17
-2.0518574e-17
7.5655321e-30
6.7866037e-18
6.7599816e-18
6.7332503e-18
3.7206619e-30
-3.7066635e-30
-1.3304857e-17
-3.676603e-30
1.3196172e-17
-1.3141583e-17
3.2690696e-29
1.9547878e-17
-1.2976851e-17
7.1743249e-30
1.2866277e-17
-6.4053964e-18
-6.3775962e-18
-1.269948e-17
6.3218279e-18
1.8881585e-17
0
0
0
-1.8544593e-17
-1.8460067e-17
1.837544e-17
1.8290716e-17
-1.2137265e-17
1.7167661e-33
-6.0120155e-18
1.9931796e-29
1.7866022e-17
-1.778096e-17
2.9472675e-29
1.1740489e-17
3.2418465e-30
-3.2277471e-30
-1.1570193e-17
5.7567244e-18
-5.7283612e-18
1.8986862e-29
1.701499e-17
-1.6929999e-17
-5.615019e-18
1.2404229e-29
-1.1116912e-17
1.1060426e-17
5.5019974e-18
5.4738114e-18
1.6336971e-17
-6.0142882e-30
-5.3894496e-18
-1.6084202e-17
3.552526e-29
1.5916288e-17
0
-5.2496418e-18
-1.044364e-17
5.1940483e-18
-5.1663286e-18
1.7114091e-29
1.0222107e-17
-1.5250503e-17
1.1224435e-29
5.5853402e-30
5.5520998e-30
5.5217916e-30
-4.946672e-18
1.4758512e-17
1.4677205e-17
-4.8653667e-18
-9.6768064e-18
0
4.7847039e-18
-5.2807165e-30
1.0504946e-29
-5.2229613e-30
-4.6782196e-18
4.6517921e-18
4.6254463e-18
-1.3797548e-17
-1.3600992e-46
7.5729224e-30
-4.5208897e-18
4.9875357e-30
-8.9382396e-18
8.8867243e-18
8.8353774e-18
4.3921021e-18
-4.846975e-30
-4.3411999e-18
0
0
0
-8.4809339e-18
4.2155041e-18
8.3812696e-18
-1.2497579e-17
4.1411776e-18
1.2349756e-17
-1.2276241e-17
1.3547174e-29
8.0866774e-18
-1.2057327e-17
-7.9899486e-18
0
7.8939616e-18
1.3064649e-29
3.8993384e-18
7.7513051e-18
-3.8520606e-18
0
-7.6103125e-18
-1.0748633e-33
-4.1726264e-30
3.7354646e-18
1.1137232e-17
-1.1068343e-17
6.1088103e-30
1.0931376e-17
-1.0863281e-17
1.7979936e-29
7.1519035e-18
-3.553511e-18
3.5311582e-18
-7.017785e-18
-3.4867111e-18
1.5384982e-29
3.4425939e-18
6.8413177e-18
3.3988076e-18
3.3770398e-18
-6.710707e-18
-3.3337466e-18
0
3.2907704e-18
-1.8152312e-30
-4.093981e-48
-3.2269019e-18
9.1113321e-34
-3.1847025e-18
-4.8430136e-47
9.4284213e-18
-9.3659252e-18
-9.3036546e-18
6.1610649e-18
6.1198306e-18
0
-6.037786e-18
2.9984918e-18
8.9344922e-18
-8.8737208e-18
4.892802e-30
5.8351789e-18
-2.8975287e-18
0
2.8576144e-18
2.8377614e-18
-2.8179745e-18
4.6597236e-30
-5.5571706e-18
-1.5683005e-33
8.21834e-18
0
-8.1017146e-18
-5.3624598e-18
7.9858413e-18
5.2854434e-18
-7.8706674e-18
-2.604452e-18
1.0341645e-17
2.5664333e-18
-5.0950302e-18
-5.0573059e-18
2.7863104e-30
2.491097e-18
2.4724083e-18
2.4537815e-18
-2.4352159e-18
2.6829126e-30
-4.7965044e-18
7.9259842e-30
7.0845088e-18
0
0
-4.613652e-18
5.0823047e-30
2.2706664e-18
-6.7579894e-18
2.2347134e-18
3.6908823e-30
7.3236362e-30
6.5436573e-18
-2.1635099e-18
1.1908087e-30
-2.3626876e-30
-2.1107068e-18
2.0932127e-18
-2.9498565e-34
1.1425693e-30
-2.2656277e-30
-2.0238354e-18
0
1.9895021e-18
-3.9448334e-18
-1.9553875e-18
3.8768348e-18
0
-1.9046627e-18
1.8878804e-18
3.742319e-18
-5.5634894e-18
6.1220583e-30
6.0659058e-30
-1.804859e-18
5.3653121e-18
-2.5182775e-34
-1.7557876e-18
-1.7395584e-18
1.7233918e-18
1.7072881e-18
-1.6912489e-18
0
1.6593669e-18
-3.2870476e-18
2.7110319e-30
1.6120367e-18
3.544936e-30
3.5094583e-30
4.4489066e-34
3.0997681e-18
-4.6035471e-18
-4.5576489e-18
0
2.9776641e-18
4.42125e-18
2.0729939e-34
-1.4437997e-18
-1.4289305e-18
1.4141341e-18
1.3994129e-18
-1.3847691e-18
0
-2.7114209e-18
-2.6825832e-18
3.9808415e-18
1.3126793e-18
-1.2984907e-18
3.6504368e-34
1.2703559e-18
2.5128123e-18
1.2425335e-18
-2.0464799e-30
-4.8601023e-18
4.0011943e-30
3.5635469e-18
-1.1743841e-18
-1.1609992e-18
-1.147695e-18
1.1344732e-18
1.1213369e-18
1.1082882e-18
3.1131028e-34
-1.0824461e-18
1.0696482e-18
-3.1708004e-18
-2.0886084e-18
3.0952918e-18
-1.019315e-18
-2.0139108e-18
1.9893616e-18
-9.8248986e-19
9.7038385e-19
1.9167303e-18
-2.8393114e-18
9.3460242e-19
-3.0740686e-30
-2.7336163e-18
1.799274e-18
8.8815537e-19
8.7676226e-19
1.7309202e-18
-8.5425149e-19
-3.6754615e-74
-1.6642241e-18
-8.2117581e-19
8.9958713e-31
7.9956961e-19
1.5778057e-18
-1.5566598e-18
7.6785085e-19
2.2723893e-18
-2.2414936e-18
-7.3695515e-19
5.2387147e-47
-7.1680839e-19
2.120625e-18
6.9703526e-19
-6.8728633e-19
-1.3552529e-18
6.6805552e-19
-6.5857456e-19
2.1620849e-30
1.2797827e-18
-1.8920691e-18
-6.9039902e-31
2.7204586e-30
-1.3400427e-30
1.1895404e-18
-1.1720289e-18
5.7735215e-19
2.2751268e-18
-5.6029956e-19
-1.1038079e-18
0
-1.0707455e-18
1.1706345e-30
2.9513116e-34
5.6756501e-31
5.0338599e-19
4.9560681e-19
-4.8791202e-19
-4.8030227e-19
9.4556009e-19
-9.3069451e-19
5.0845203e-31
9.0148299e-19
-8.8712613e-19
-1.4536319e-30
4.7675685e-31
4.2252181e-19
8.3135678e-19
-4.0892042e-19
4.0224433e-19
-2.1961457e-31
-3.8912973e-19
-7.653806e-19
3.7633125e-19
7.4011013e-19
-3.6386187e-19
3.5774857e-19
-5.8578074e-31
3.45751e-19
7.5479625e-31
-6.6810781e-19
-6.5664119e-19
-7.1632533e-31
1.0561425e-30
-1.0378166e-30
3.0615786e-19
3.0080011e-19
2.9551371e-19
-2.902992e-19
0
0
2.7509356e-19
-1.4996348e-31
-3.7702821e-35
-2.8921727e-31
-2.5579821e-19
0
2.4655541e-19
4.8407152e-19
-2.3758412e-19
-4.6639721e-19
-4.5775428e-19
-4.4923676e-19
6.612636e-19
7.2032915e-31
-6.3663816e-19
4.1640894e-19
4.0851924e-19
0
1.965503e-19
-3.8556505e-19
-1.8907156e-19
3.708362e-19
1.8182363e-19
-1.9792682e-31
-5.2442819e-19
1.7138572e-19
5.0404743e-19
-4.940973e-19
-1.6143573e-19
4.7467909e-19
-1.7213039e-31
-1.5196848e-19
-2.9783386e-19
-1.6194669e-31
2.8592543e-19
-2.8011722e-19
1.3720356e-19
4.0319458e-19
0
-1.2893256e-19
-2.5253874e-19
6.86709e-32
-1.2107732e-19
-2.3709826e-19
2.3213354e-19
2.2725758e-19
0
1.0887916e-19
1.1830257e-31
1.1579255e-31
1.1330047e-31
-2.996117e-19
-1.9544828e-19
0
1.8709333e-19
2.031572e-31
8.9510854e-20
2.6264258e-19
-8.5623539e-20
4.646913e-32
-1.1637194e-35
-8.0075542e-20
-1.5658948e-19
7.6546302e-20
1.4965931e-19
-7.3144994e-20
0
-1.397517e-19
6.8291957e-20
2.0021722e-19
-6.5216058e-20
-6.3723938e-20
-1.2452513e-19
6.0821736e-20
1.7823522e-19
-5.8030162e-20
6.2913756e-32
1.1071527e-19
-5.4062675e-20
-5.2794487e-20
-1.0309308e-19
-1.5097572e-19
9.8255337e-20
9.5911037e-20
-9.3619078e-20
-5.0709018e-32
8.9186727e-20
-8.7041371e-20
-4.7148252e-32
8.2879849e-20
0
-7.8879932e-20
-7.6946487e-20
0
1.0981801e-19
3.5703022e-20
9.8959989e-36
3.3951991e-20
3.3104785e-20
3.5823487e-32
-6.2937748e-20
-6.1356569e-20
9.9592516e-32
5.8288308e-20
-5.680422e-20
-9.2183699e-32
5.3948303e-20
0
0
0
0
-4.7341395e-20
-2.5600386e-32
4.4911074e-20
2.1873026e-20
-4.2609669e-20
6.9106372e-32
4.0390666e-20
-3.931048e-20
-2.1242899e-32
1.8621788e-20
-3.6257358e-20
5.8791007e-32
3.4362512e-20
-3.343839e-20
-3.2526381e-20
3.1634678e-20
3.0770355e-20
0
0
0
0
1.3407322e-20
-1.3032285e-20
-1.2666128e-20
1.3668326e-32
-1.1816884e-75
1.1641538e-20
2.2645595e-20
1.1010391e-20
-2.1399592e-20
-3.117749e-20
1.0092984e-20
1.9608719e-20
-2.8581735e-20
-1.8521459e-20
2.7010258e-20
1.7501786e-20
8.4988112e-21
9.1574191e-33
-1.6010379e-20
0
7.5464227e-21
-7.3312455e-21
1.5817357e-32
1.967311e-36
2.2378394e-32
6.5181389e-21
6.3213632e-21
-1.7428591e-36
-1.1901773e-20
-1.1554849e-20
1.8685444e-32
1.0898628e-20
0
0
0
4.8187081e-21
4.6731045e-21
-4.5342929e-21
-4.4018384e-21
4.2738457e-21
-8.292856e-21
-1.2055071e-20
0
7.5425837e-21
4.0573036e-33
3.5460995e-21
1.0327192e-20
-3.3415924e-21
5.3951993e-33
-6.2751339e-21
2.0234078e-32
5.8835266e-21
1.5826116e-33
3.9309201e-37
-2.6857119e-21
2.6059658e-21
-5.0489344e-21
-2.4429913e-21
4.7283427e-21
-4.5787842e-21
-6.3077335e-37
2.3920601e-33
2.0915704e-21
6.083654e-21
-3.9254327e-21
-6.0734723e-51
-1.8371202e-21
2.9635834e-33
3.4519369e-21
-1.6761974e-21
-3.2536082e-21
1.7485835e-33
4.5710694e-21
-4.1880146e-37
-1.4259429e-21
1.3819764e-21
-2.6838679e-21
-1.3033949e-21
2.526704e-21
-2.4430921e-21
-1.3099681e-33
6.3360532e-33
-2.4547448e-33
2.1460413e-21
-2.0856318e-21
1.0115994e-21
1.9554757e-21
-9.4329668e-22
9.1126092e-22
-1.7637683e-21
1.424735e-33
2.4947013e-21
0
0
-2.2531475e-21
-7.2425468e-22
1.399902e-21
-1.3564001e-21
-3.7447822e-37
2.8369162e-33
6.839017e-34
1.1834942e-21
-1.13852e-21
-1.0983992e-21
5.3174828e-22
1.5487802e-21
4.9943571e-22
-4.7902203e-22
0
0
4.2044719e-22
-2.2574173e-34
-1.1854087e-21
-1.0845693e-37
7.2647271e-22
3.4252293e-22
-3.5942454e-34
-9.2594726e-22
-6.5907623e-34
5.7567452e-22
0
2.6407212e-22
-4.9110575e-22
-2.2724511e-22
4.7049166e-34
1.9968611e-22
3.8091581e-22
-1.8294639e-22
0
0
0
0
1.1536151e-22
-5.8199896e-35
-2.9028775e-22
8.9487795e-23
2.4030954e-22
-2.0320665e-22
-5.4040846e-23
8.2080902e-23
2.9916303e-23
3.5448155e-35
-4.3777892e-23
4.2187583e-39
-6.9322073e-36
-1.3695098e-23
-5.1774385e-23
-3.6865293e-23
-5.0264673e-35
5.0998801e-23
5.6228851e-23
6.3565351e-23
7.3404961e-23
-1.8757534e-34
-1.9008471e-22
0
0
-1.1227893e-22
-1.9465998e-34
-1.7645018e-38
1.8965625e-38
1.4328244e-22
3.0365365e-22
3.1510477e-22
-3.2086885e-22
-1.8106303e-34
-1.6740101e-22
-5.2152055e-22
0
0
1.9520047e-22
1.9850746e-22
0
-2.0297366e-22
1.1489062e-34
2.121621e-22
-2.1782705e-22
4.4500646e-22
-7.5052745e-34
-6.8098264e-22
2.2884884e-22
2.3162867e-22
4.7035806e-22
-2.390134e-22
-7.2536783e-22
2.4276638e-22
-1.3505342e-34
4.8882074e-22
2.4648788e-22
-4.988177e-22
5.044006e-22
8.3719914e-52
-5.0500905e-22
0
0
5.0555254e-22
-2.8292703e-34
-8.5676178e-34
2.4987435e-51
-7.66844e-22
-2.8164335e-34
2.5279337e-22
5.0611681e-22
5.0860445e-22
-5.1003393e-22
-5.6399696e-34
-2.5160841e-22
-8.3055807e-34
2.4826173e-22
-4.9663462e-22
0
-2.482544e-22
2.7242346e-34
2.4190489e-22
4.7836294e-22
2.6417247e-34
-4.7644193e-22
0
0
-2.3365312e-22
1.2717039e-34
6.7735691e-22
2.4894415e-34
-4.4826367e-22
0
2.2265813e-22
-2.1839225e-22
-2.1360267e-22
-2.1022363e-22
-2.0851719e-22
4.1628473e-22
6.2337897e-22
-2.0552229e-22
-4.0127627e-22
5.8617407e-22
7.8632685e-52
-3.7955232e-22
0
0
0
0
3.5457371e-22
3.4892415e-22
-1.728357e-22
-5.1502454e-22
-1.8799317e-34
1.6459688e-22
-3.1759532e-22
-3.0816603e-22
1.5163351e-22
6.0392728e-22
3.018276e-22
-4.5036465e-22
-2.9529146e-22
4.3007266e-22
3.0729586e-34
-2.6760389e-22
0
0
0
2.4618868e-22
1.3573817e-34
-2.6887889e-34
1.1886012e-22
-3.4572911e-22
1.1084384e-22
1.0677913e-22
-3.1021118e-22
-2.0097458e-22
9.8073215e-23
1.9296616e-22
1.9146781e-22
-3.1730364e-34
1.0450531e-34
-2.5814961e-38
-1.7000793e-22
0
-7.5970636e-23
-7.6100838e-23
7.8067515e-23
7.952478e-23
-7.8498576e-23
-7.387377e-23
1.3381387e-22
6.1455395e-23
-5.9966635e-23
6.1743438e-23
-6.4415322e-23
-1.3126984e-22
0
0
1.6088261e-22
4.9697657e-23
-9.8161014e-23
-5.0830034e-23
-5.3027997e-23
1.0795835e-22
-5.8542821e-35
-9.8040346e-23
0
4.1554121e-23
1.2465708e-22
9.6560447e-35
-2.5340865e-34
9.3044988e-23
-1.3518199e-22
-4.1351937e-23
-1.0715334e-38