/*--------------------------------*- C++ -*----------------------------------*\
  =========                 |
  \\      /  F ield         | OpenFOAM: The Open Source CFD Toolbox
   \\    /   O peration     | Website:  https://openfoam.org
    \\  /    A nd           | Version:  7
     \\/     M anipulation  |
\*---------------------------------------------------------------------------*/
FoamFile
{
    version     2.0;
    format      ascii;
    class       volScalarField;
    location    "0.00193";
    object      rho;
}
// * * * * * * * * * * * * * * * * * * * * * * * * * * * * * * * * * * * * * //

dimensions      [1 -3 0 0 0 0 0];

internalField   nonuniform List<scalar> 
5000
(
1.0528588
1.0529231
1.0530228
1.0531021
1.0532019
1.0532817
1.0533816
1.0534615
1.0535615
1.0536414
1.0537414
1.0538214
1.0539214
1.0540014
1.0541014
1.0541813
1.0542814
1.0543613
1.0544614
1.0545413
1.0546413
1.0547212
1.0548212
1.054901
1.0550011
1.0550809
1.0551809
1.0552607
1.0553607
1.0554404
1.0555405
1.0556201
1.0557202
1.0557998
1.0558998
1.0559794
1.0560794
1.056159
1.056259
1.0563386
1.0564386
1.0565181
1.0566181
1.0566976
1.0567975
1.056877
1.0569769
1.0570564
1.0571563
1.0572357
1.0573357
1.0574149
1.0575149
1.0575942
1.0576941
1.0577734
1.0578734
1.0579525
1.0580525
1.0581317
1.0582315
1.0583108
1.0584106
1.0584898
1.0585898
1.0586686
1.0587688
1.0588476
1.0589474
1.0590268
1.0591262
1.0592056
1.0593052
1.0593841
1.0594844
1.0595626
1.0596631
1.0597417
1.059841
1.0599216
1.0600182
1.0601018
1.0601953
1.0602818
1.0603727
1.0604613
1.0605505
1.0606402
1.0607287
1.0608188
1.0609071
1.0609972
1.0610856
1.0611755
1.0612639
1.0613537
1.0614422
1.0615319
1.0616204
1.06171
1.0617986
1.0618881
1.0619766
1.0620661
1.0621547
1.0622441
1.0623327
1.0624222
1.0625107
1.0626002
1.0626887
1.0627782
1.0628668
1.0629563
1.0630448
1.0631344
1.0632229
1.0633124
1.063401
1.0634905
1.0635791
1.0636686
1.0637571
1.0638466
1.0639351
1.0640246
1.0641131
1.0642026
1.064291
1.0643805
1.0644689
1.0645584
1.0646468
1.0647362
1.0648247
1.0649139
1.0650026
1.0650916
1.0651804
1.0652693
1.0653581
1.0654469
1.0655358
1.0656245
1.0657135
1.0658021
1.0658911
1.0659797
1.0660686
1.0661572
1.0662461
1.0663346
1.0664236
1.0665121
1.066601
1.0666895
1.0667783
1.0668668
1.0669557
1.0670441
1.0671329
1.0672214
1.0673102
1.0673986
1.0674874
1.0675758
1.0676646
1.0677529
1.0678417
1.06793
1.0680188
1.0681071
1.0681958
1.0682841
1.0683728
1.0684611
1.0685497
1.068638
1.0687267
1.0688149
1.0689035
1.0689918
1.0690804
1.0691686
1.0692572
1.0693453
1.0694339
1.0695221
1.0696106
1.0696988
1.0697873
1.0698754
1.0699639
1.070052
1.0701405
1.0702286
1.0703171
1.0704051
1.0704936
1.0705816
1.07067
1.070758
1.0708465
1.0709345
1.0710228
1.0711108
1.0711992
1.0712871
1.0713755
1.0714634
1.0715517
1.0716397
1.071728
1.0718159
1.0719042
1.071992
1.0720803
1.0721681
1.0722564
1.0723442
1.0724324
1.0725203
1.0726085
1.0726962
1.0727844
1.0728722
1.0729603
1.0730481
1.0731362
1.0732239
1.0733121
1.0733998
1.0734878
1.0735755
1.0736636
1.0737513
1.0738393
1.0739269
1.074015
1.0741026
1.0741906
1.0742782
1.0743662
1.0744538
1.0745418
1.0746293
1.0747173
1.0748049
1.0748929
1.0749804
1.0750684
1.0751559
1.0752439
1.0753314
1.0754194
1.0755069
1.0755949
1.0756824
1.0757703
1.0758579
1.0759458
1.0760333
1.0761213
1.0762088
1.0762967
1.0763842
1.0764721
1.0765596
1.0766475
1.0767349
1.0768228
1.0769103
1.0769982
1.0770856
1.0771735
1.0772609
1.0773487
1.0774361
1.077524
1.0776113
1.0776992
1.0777865
1.0778743
1.0779617
1.0780494
1.0781368
1.0782245
1.0783118
1.0783996
1.0784868
1.0785746
1.0786618
1.0787495
1.0788368
1.0789245
1.0790117
1.0790994
1.0791866
1.0792742
1.0793614
1.0794491
1.0795362
1.0796238
1.079711
1.0797985
1.0798857
1.0799732
1.0800605
1.0801479
1.0802351
1.0803225
1.0804097
1.0804971
1.0805843
1.0806716
1.0807589
1.0808461
1.0809334
1.0810206
1.0811079
1.0811951
1.0812823
1.0813695
1.0814567
1.0815439
1.081631
1.0817182
1.0818053
1.0818925
1.0819796
1.0820668
1.0821539
1.082241
1.0823281
1.0824152
1.0825023
1.0825893
1.0826764
1.0827634
1.0828505
1.0829375
1.0830246
1.0831116
1.0831986
1.0832856
1.0833726
1.0834596
1.0835465
1.0836335
1.0837205
1.0838074
1.0838943
1.0839813
1.0840682
1.0841551
1.084242
1.0843289
1.0844158
1.0845027
1.0845895
1.0846764
1.0847633
1.0848501
1.0849369
1.0850237
1.0851106
1.0851974
1.0852842
1.085371
1.0854577
1.0855445
1.0856313
1.085718
1.0858048
1.0858915
1.0859782
1.0860649
1.0861517
1.0862383
1.086325
1.0864117
1.0864984
1.086585
1.0866717
1.0867583
1.086845
1.0869316
1.0870182
1.0871048
1.0871914
1.087278
1.0873646
1.0874512
1.0875377
1.0876243
1.0877108
1.0877974
1.0878839
1.0879704
1.0880569
1.0881435
1.08823
1.0883165
1.088403
1.0884895
1.088576
1.0886625
1.0887489
1.0888354
1.0889219
1.0890084
1.0890948
1.0891813
1.0892677
1.0893542
1.0894406
1.0895271
1.0896135
1.0897
1.0897864
1.0898728
1.0899592
1.0900457
1.0901321
1.0902185
1.0903049
1.0903912
1.0904776
1.090564
1.0906504
1.0907367
1.0908231
1.0909094
1.0909957
1.091082
1.0911683
1.0912546
1.0913409
1.0914272
1.0915134
1.0915997
1.0916859
1.0917721
1.0918583
1.0919445
1.0920306
1.0921168
1.0922029
1.0922891
1.0923752
1.0924612
1.0925473
1.0926334
1.0927194
1.0928054
1.0928914
1.0929774
1.0930633
1.0931493
1.0932352
1.0933211
1.093407
1.0934928
1.0935786
1.0936644
1.0937502
1.093836
1.0939217
1.0940074
1.0940931
1.0941787
1.0942643
1.0943499
1.0944355
1.094521
1.0946065
1.094692
1.0947775
1.0948629
1.0949483
1.0950336
1.0951189
1.0952042
1.0952895
1.0953747
1.0954599
1.095545
1.0956301
1.0957152
1.0958003
1.0958853
1.0959702
1.0960551
1.09614
1.0962249
1.0963097
1.0963944
1.0964792
1.0965638
1.0966485
1.0967331
1.0968176
1.0969021
1.0969866
1.097071
1.0971553
1.0972396
1.0973239
1.0974081
1.0974923
1.0975764
1.0976605
1.0977445
1.0978285
1.0979124
1.0979963
1.0980801
1.0981639
1.0982476
1.0983313
1.0984149
1.0984984
1.0985819
1.0986654
1.0987488
1.0988321
1.0989154
1.0989986
1.0990818
1.0991649
1.099248
1.099331
1.0994139
1.0994968
1.0995796
1.0996624
1.0997451
1.0998277
1.0999103
1.0999928
1.1000752
1.1001576
1.10024
1.1003223
1.1004045
1.1004866
1.1005687
1.1006507
1.1007327
1.1008146
1.1008964
1.1009782
1.1010599
1.1011415
1.1012231
1.1013046
1.1013861
1.1014675
1.1015488
1.10163
1.1017112
1.1017924
1.1018734
1.1019544
1.1020354
1.1021162
1.102197
1.1022778
1.1023585
1.1024391
1.1025196
1.1026001
1.1026806
1.1027609
1.1028412
1.1029215
1.1030017
1.1030818
1.1031619
1.1032419
1.1033218
1.1034017
1.1034815
1.1035613
1.103641
1.1037207
1.1038003
1.1038798
1.1039593
1.1040387
1.1041181
1.1041974
1.1042767
1.1043559
1.1044351
1.1045142
1.1045933
1.1046723
1.1047512
1.1048301
1.104909
1.1049878
1.1050666
1.1051453
1.1052239
1.1053025
1.1053811
1.1054596
1.1055381
1.1056165
1.1056949
1.1057733
1.1058516
1.1059298
1.106008
1.1060862
1.1061643
1.1062424
1.1063205
1.1063985
1.1064764
1.1065543
1.1066322
1.1067101
1.1067879
1.1068657
1.1069434
1.1070211
1.1070988
1.1071764
1.107254
1.1073315
1.1074091
1.1074866
1.107564
1.1076414
1.1077188
1.1077962
1.1078735
1.1079508
1.1080281
1.1081054
1.1081826
1.1082598
1.1083369
1.1084141
1.1084912
1.1085683
1.1086453
1.1087224
1.1087994
1.1088764
1.1089533
1.1090303
1.1091072
1.1091841
1.1092609
1.1093378
1.1094146
1.1094915
1.1095682
1.109645
1.1097218
1.1097985
1.1098753
1.109952
1.1100287
1.1101054
1.110182
1.1102587
1.1103353
1.1104119
1.1104886
1.1105652
1.1106418
1.1107183
1.1107949
1.1108715
1.110948
1.1110246
1.1111011
1.1111776
1.1112541
1.1113306
1.1114071
1.1114836
1.1115601
1.1116366
1.1117131
1.1117896
1.111866
1.1119425
1.112019
1.1120954
1.1121719
1.1122483
1.1123248
1.1124012
1.1124777
1.1125541
1.1126306
1.112707
1.1127835
1.11286
1.1129364
1.1130129
1.1130893
1.1131658
1.1132423
1.1133187
1.1133952
1.1134717
1.1135482
1.1136247
1.1137012
1.1137778
1.1138543
1.1139308
1.1140074
1.114084
1.1141605
1.1142371
1.1143138
1.1143904
1.114467
1.1145437
1.1146204
1.1146971
1.1147738
1.1148506
1.1149274
1.1150042
1.115081
1.1151579
1.1152348
1.1153117
1.1153886
1.1154656
1.1155426
1.1156196
1.1156967
1.1157738
1.115851
1.1159282
1.1160054
1.1160827
1.11616
1.1162373
1.1163147
1.1163921
1.1164696
1.1165471
1.1166247
1.1167023
1.11678
1.1168577
1.1169355
1.1170133
1.1170912
1.1171691
1.1172471
1.1173251
1.1174032
1.1174813
1.1175595
1.1176378
1.1177161
1.1177945
1.1178729
1.1179514
1.1180299
1.1181086
1.1181872
1.118266
1.1183448
1.1184237
1.1185026
1.1185816
1.1186607
1.1187398
1.118819
1.1188983
1.1189776
1.119057
1.1191365
1.119216
1.1192956
1.1193753
1.1194551
1.1195349
1.1196148
1.1196948
1.1197748
1.119855
1.1199352
1.1200154
1.1200958
1.1201762
1.1202567
1.1203372
1.1204179
1.1204986
1.1205794
1.1206603
1.1207412
1.1208222
1.1209033
1.1209845
1.1210657
1.1211471
1.1212285
1.12131
1.1213915
1.1214732
1.1215549
1.1216366
1.1217185
1.1218005
1.1218825
1.1219646
1.1220468
1.122129
1.1222113
1.1222937
1.1223762
1.1224588
1.1225414
1.1226242
1.1227069
1.1227898
1.1228728
1.1229558
1.1230389
1.123122
1.1232053
1.1232886
1.123372
1.1234554
1.123539
1.1236226
1.1237063
1.12379
1.1238738
1.1239577
1.1240417
1.1241257
1.1242098
1.124294
1.1243782
1.1244625
1.1245468
1.1246313
1.1247158
1.1248003
1.1248849
1.1249696
1.1250544
1.1251392
1.125224
1.1253089
1.1253939
1.1254789
1.125564
1.1256492
1.1257344
1.1258196
1.1259049
1.1259902
1.1260756
1.1261611
1.1262466
1.1263322
1.1264178
1.1265034
1.1265891
1.1266748
1.1267606
1.1268464
1.1269322
1.1270182
1.1271041
1.1271901
1.1272761
1.1273621
1.1274482
1.1275344
1.1276206
1.1277068
1.127793
1.1278793
1.1279656
1.1280519
1.1281382
1.1282246
1.128311
1.1283975
1.1284839
1.1285704
1.128657
1.1287435
1.1288301
1.1289166
1.1290033
1.1290899
1.1291766
1.1292633
1.1293499
1.1294367
1.1295234
1.1296102
1.129697
1.1297837
1.1298706
1.1299574
1.1300443
1.1301311
1.130218
1.1303049
1.1303918
1.1304787
1.1305657
1.1306526
1.1307396
1.1308265
1.1309135
1.1310005
1.1310875
1.1311745
1.1312615
1.1313486
1.1314356
1.1315227
1.1316097
1.1316968
1.1317838
1.1318709
1.1319579
1.132045
1.1321321
1.1322192
1.1323063
1.1323933
1.1324804
1.1325675
1.1326546
1.1327417
1.1328288
1.1329159
1.133003
1.1330901
1.1331772
1.1332643
1.1333515
1.1334385
1.1335257
1.1336128
1.1336999
1.133787
1.1338741
1.1339612
1.1340483
1.1341354
1.1342225
1.1343096
1.1343968
1.1344838
1.134571
1.1346581
1.1347452
1.1348323
1.1349193
1.1350064
1.1350935
1.1351806
1.1352677
1.1353548
1.1354419
1.135529
1.1356161
1.1357031
1.1357902
1.1358773
1.1359643
1.1360514
1.1361385
1.1362256
1.1363126
1.1363997
1.1364868
1.1365738
1.1366609
1.1367479
1.136835
1.136922
1.137009
1.1370961
1.1371831
1.1372701
1.1373572
1.1374442
1.1375312
1.1376182
1.1377052
1.1377922
1.1378792
1.1379662
1.1380532
1.1381402
1.1382272
1.1383142
1.1384011
1.1384881
1.1385751
1.138662
1.138749
1.138836
1.1389229
1.1390099
1.1390968
1.1391837
1.1392706
1.1393576
1.1394445
1.1395314
1.1396184
1.1397053
1.1397922
1.1398791
1.139966
1.1400529
1.1401398
1.1402267
1.1403135
1.1404004
1.1404873
1.1405742
1.1406611
1.1407479
1.1408348
1.1409216
1.1410085
1.1410953
1.1411822
1.1412691
1.1413559
1.1414427
1.1415296
1.1416164
1.1417032
1.14179
1.1418768
1.1419636
1.1420504
1.1421373
1.1422241
1.1423109
1.1423977
1.1424844
1.1425712
1.142658
1.1427448
1.1428315
1.1429183
1.143005
1.1430918
1.1431785
1.1432653
1.143352
1.1434387
1.1435254
1.1436122
1.1436989
1.1437856
1.1438723
1.143959
1.1440457
1.1441323
1.144219
1.1443057
1.1443923
1.144479
1.1445656
1.1446523
1.1447389
1.1448255
1.1449122
1.1449988
1.1450854
1.145172
1.1452586
1.1453452
1.1454318
1.1455184
1.145605
1.1456915
1.1457781
1.1458647
1.1459512
1.1460378
1.1461243
1.1462108
1.1462974
1.1463839
1.1464704
1.1465569
1.1466435
1.14673
1.1468165
1.146903
1.1469895
1.147076
1.1471625
1.147249
1.1473355
1.147422
1.1475084
1.1475949
1.1476814
1.1477679
1.1478543
1.1479408
1.1480272
1.1481137
1.1482001
1.1482866
1.148373
1.1484594
1.1485459
1.1486323
1.1487187
1.1488052
1.1488916
1.148978
1.1490645
1.1491509
1.1492373
1.1493237
1.14941
1.1494964
1.1495828
1.1496692
1.1497556
1.149842
1.1499284
1.1500148
1.1501012
1.1501875
1.1502739
1.1503602
1.1504466
1.1505329
1.1506193
1.1507056
1.1507919
1.1508783
1.1509646
1.1510509
1.1511372
1.1512235
1.1513098
1.1513962
1.1514825
1.1515688
1.1516551
1.1517413
1.1518276
1.1519139
1.1520002
1.1520865
1.1521727
1.152259
1.1523453
1.1524315
1.1525178
1.1526041
1.1526903
1.1527766
1.1528628
1.152949
1.1530353
1.1531215
1.1532077
1.153294
1.1533802
1.1534664
1.1535526
1.1536388
1.1537251
1.1538113
1.1538975
1.1539837
1.1540699
1.1541561
1.1542423
1.1543284
1.1544146
1.1545008
1.154587
1.1546732
1.1547593
1.1548455
1.1549317
1.1550179
1.155104
1.1551902
1.1552764
1.1553625
1.1554487
1.1555348
1.1556209
1.155707
1.1557932
1.1558793
1.1559654
1.1560516
1.1561377
1.1562238
1.1563099
1.1563961
1.1564822
1.1565683
1.1566543
1.1567404
1.1568265
1.1569126
1.1569987
1.1570848
1.1571708
1.1572569
1.157343
1.1574291
1.1575152
1.1576012
1.1576873
1.1577733
1.1578593
1.1579454
1.1580314
1.1581175
1.1582035
1.1582895
1.1583756
1.1584616
1.1585476
1.1586337
1.1587197
1.1588057
1.1588917
1.1589777
1.1590637
1.1591497
1.1592357
1.1593217
1.1594077
1.1594937
1.1595796
1.1596656
1.1597516
1.1598376
1.1599236
1.1600095
1.1600955
1.1601814
1.1602674
1.1603533
1.1604393
1.1605252
1.1606112
1.1606971
1.160783
1.160869
1.1609549
1.1610408
1.1611268
1.1612127
1.1612986
1.1613845
1.1614704
1.1615563
1.1616422
1.1617281
1.1618139
1.1618999
1.1619857
1.1620716
1.1621575
1.1622433
1.1623292
1.162415
1.1625009
1.1625867
1.1626726
1.1627584
1.1628442
1.16293
1.1630158
1.1631017
1.1631875
1.1632733
1.1633591
1.1634449
1.1635307
1.1636164
1.1637022
1.163788
1.1638738
1.1639595
1.1640453
1.164131
1.1642168
1.1643025
1.1643883
1.164474
1.1645597
1.1646455
1.1647312
1.1648169
1.1649026
1.1649883
1.165074
1.1651597
1.1652455
1.1653311
1.1654168
1.1655025
1.1655882
1.1656738
1.1657596
1.1658452
1.1659309
1.1660166
1.1661022
1.1661879
1.1662735
1.1663592
1.1664448
1.1665305
1.1666161
1.1667018
1.1667874
1.166873
1.1669587
1.1670443
1.1671299
1.1672155
1.1673011
1.1673867
1.1674724
1.167558
1.1676436
1.1677292
1.1678148
1.1679004
1.167986
1.1680716
1.1681572
1.1682427
1.1683283
1.1684139
1.1684995
1.1685851
1.1686706
1.1687562
1.1688418
1.1689273
1.1690129
1.1690985
1.169184
1.1692696
1.1693551
1.1694407
1.1695262
1.1696118
1.1696973
1.1697828
1.1698684
1.1699539
1.1700394
1.170125
1.1702105
1.170296
1.1703815
1.170467
1.1705526
1.1706381
1.1707236
1.1708091
1.1708946
1.1709801
1.1710656
1.1711511
1.1712365
1.171322
1.1714075
1.171493
1.1715785
1.1716639
1.1717494
1.1718349
1.1719204
1.1720058
1.1720913
1.1721768
1.1722622
1.1723477
1.1724331
1.1725186
1.172604
1.1726895
1.1727749
1.1728603
1.1729458
1.1730312
1.1731166
1.1732021
1.1732875
1.1733729
1.1734583
1.1735438
1.1736292
1.1737146
1.1738
1.1738854
1.1739708
1.1740562
1.1741416
1.174227
1.1743124
1.1743978
1.1744831
1.1745685
1.1746539
1.1747393
1.1748246
1.17491
1.1749954
1.1750807
1.1751661
1.1752514
1.1753367
1.1754221
1.1755074
1.1755927
1.1756781
1.1757634
1.1758487
1.175934
1.1760193
1.1761046
1.1761899
1.1762752
1.1763604
1.1764457
1.176531
1.1766162
1.1767015
1.1767867
1.176872
1.1769572
1.1770425
1.1771277
1.1772129
1.1772981
1.1773833
1.1774685
1.1775537
1.1776389
1.1777241
1.1778093
1.1778944
1.1779796
1.1780648
1.1781499
1.1782351
1.1783202
1.1784053
1.1784905
1.1785756
1.1786607
1.1787458
1.1788309
1.178916
1.1790011
1.1790862
1.1791712
1.1792563
1.1793414
1.1794264
1.1795115
1.1795965
1.1796816
1.1797666
1.1798516
1.1799366
1.1800217
1.1801067
1.1801917
1.1802767
1.1803617
1.1804467
1.1805317
1.1806166
1.1807016
1.1807866
1.1808715
1.1809565
1.1810415
1.1811264
1.1812114
1.1812963
1.1813812
1.1814662
1.1815511
1.181636
1.181721
1.1818059
1.1818908
1.1819757
1.1820606
1.1821456
1.1822305
1.1823154
1.1824002
1.1824851
1.18257
1.1826549
1.1827398
1.1828247
1.1829096
1.1829944
1.1830793
1.1831642
1.183249
1.1833339
1.1834188
1.1835036
1.1835885
1.1836733
1.1837581
1.183843
1.1839278
1.1840126
1.1840975
1.1841823
1.1842671
1.1843519
1.1844367
1.1845215
1.1846064
1.1846912
1.1847759
1.1848607
1.1849455
1.1850303
1.1851151
1.1851998
1.1852846
1.1853693
1.1854541
1.1855388
1.1856236
1.1857083
1.185793
1.1858777
1.1859624
1.1860471
1.1861318
1.1862165
1.1863012
1.1863858
1.1864705
1.1865551
1.1866398
1.1867244
1.186809
1.1868936
1.1869782
1.1870627
1.1871473
1.1872319
1.1873164
1.1874009
1.1874854
1.1875699
1.1876544
1.1877389
1.1878233
1.1879077
1.1879922
1.1880766
1.1881609
1.1882453
1.1883296
1.188414
1.1884983
1.1885826
1.1886668
1.1887511
1.1888353
1.1889195
1.1890036
1.1890878
1.1891719
1.189256
1.1893401
1.1894241
1.1895081
1.1895921
1.1896761
1.18976
1.1898439
1.1899278
1.1900116
1.1900954
1.1901792
1.1902629
1.1903466
1.1904303
1.1905139
1.1905975
1.1906811
1.1907646
1.190848
1.1909314
1.1910148
1.1910981
1.1911814
1.1912647
1.1913479
1.191431
1.1915141
1.1915971
1.1916801
1.191763
1.1918459
1.1919287
1.1920115
1.1920942
1.1921768
1.1922594
1.1923419
1.1924243
1.1925067
1.192589
1.1926712
1.1927534
1.1928355
1.1929175
1.1929995
1.1930813
1.1931631
1.1932448
1.1933264
1.1934079
1.1934893
1.1935707
1.1936519
1.1937331
1.1938141
1.1938951
1.1939759
1.1940567
1.1941373
1.1942179
1.1942983
1.1943786
1.1944589
1.1945389
1.1946189
1.1946988
1.1947785
1.1948581
1.1949376
1.195017
1.1950962
1.1951753
1.1952542
1.195333
1.1954117
1.1954902
1.1955685
1.1956468
1.1957248
1.1958027
1.1958805
1.1959581
1.1960355
1.1961127
1.1961898
1.1962667
1.1963434
1.19642
1.1964963
1.1965725
1.1966485
1.1967243
1.1968
1.1968754
1.1969506
1.1970256
1.1971004
1.197175
1.1972494
1.1973236
1.1973975
1.1974712
1.1975447
1.197618
1.1976911
1.1977639
1.1978364
1.1979088
1.1979809
1.1980527
1.1981243
1.1981957
1.1982668
1.1983376
1.1984081
1.1984785
1.1985485
1.1986182
1.1986877
1.198757
1.1988259
1.1988945
1.1989629
1.199031
1.1990988
1.1991663
1.1992335
1.1993004
1.199367
1.1994332
1.1994992
1.1995649
1.1996302
1.1996953
1.19976
1.1998244
1.1998885
1.1999522
1.2000157
1.2000787
1.2001415
1.2002039
1.200266
1.2003277
1.2003891
1.2004502
1.2005109
1.2005713
1.2006313
1.2006909
1.2007503
1.2008092
1.2008678
1.200926
1.2009839
1.2010414
1.2010985
1.2011553
1.2012117
1.2012678
1.2013235
1.2013788
1.2014337
1.2014883
1.2015425
1.2015963
1.2016497
1.2017028
1.2017555
1.2018078
1.2018597
1.2019113
1.2019625
1.2020133
1.2020637
1.2021137
1.2021634
1.2022127
1.2022616
1.2023101
1.2023582
1.202406
1.2024534
1.2025004
1.202547
1.2025933
1.2026391
1.2026846
1.2027297
1.2027745
1.2028188
1.2028628
1.2029064
1.2029497
1.2029925
1.203035
1.2030772
1.2031189
1.2031603
1.2032013
1.203242
1.2032823
1.2033222
1.2033618
1.203401
1.2034398
1.2034784
1.2035165
1.2035543
1.2035918
1.2036288
1.2036656
1.203702
1.203738
1.2037738
1.2038091
1.2038442
1.2038789
1.2039133
1.2039473
1.203981
1.2040144
1.2040474
1.2040802
1.2041126
1.2041447
1.2041765
1.204208
1.2042392
1.20427
1.2043006
1.2043309
1.2043608
1.2043905
1.2044199
1.2044489
1.2044777
1.2045062
1.2045345
1.2045624
1.2045901
1.2046174
1.2046446
1.2046714
1.204698
1.2047243
1.2047504
1.2047762
1.2048017
1.204827
1.204852
1.2048768
1.2049014
1.2049257
1.2049497
1.2049736
1.2049972
1.2050205
1.2050437
1.2050666
1.2050893
1.2051117
1.205134
1.205156
1.2051778
1.2051995
1.2052209
1.2052421
1.2052631
1.205284
1.2053046
1.205325
1.2053453
1.2053653
1.2053852
1.2054049
1.2054244
1.2054437
1.2054629
1.2054819
1.2055007
1.2055194
1.2055378
1.2055562
1.2055743
1.2055923
1.2056102
1.2056279
1.2056455
1.2056629
1.2056802
1.2056973
1.2057143
1.2057311
1.2057479
1.2057644
1.2057809
1.2057972
1.2058134
1.2058295
1.2058454
1.2058612
1.2058769
1.2058925
1.205908
1.2059233
1.2059386
1.2059537
1.2059687
1.2059837
1.2059985
1.2060132
1.2060278
1.2060423
1.2060568
1.2060711
1.2060853
1.2060994
1.2061135
1.2061274
1.2061413
1.2061551
1.2061688
1.2061824
1.2061959
1.2062094
1.2062228
1.2062361
1.2062493
1.2062624
1.2062755
1.2062885
1.2063014
1.2063143
1.2063271
1.2063398
1.2063525
1.2063651
1.2063776
1.20639
1.2064024
1.2064148
1.206427
1.2064392
1.2064514
1.2064635
1.2064755
1.2064875
1.2064995
1.2065113
1.2065231
1.2065349
1.2065466
1.2065583
1.2065699
1.2065815
1.206593
1.2066045
1.2066159
1.2066273
1.2066386
1.2066499
1.2066612
1.2066723
1.2066835
1.2066946
1.2067057
1.2067167
1.2067277
1.2067387
1.2067496
1.2067604
1.2067713
1.2067821
1.2067928
1.2068035
1.2068142
1.2068248
1.2068354
1.206846
1.2068566
1.2068671
1.2068775
1.2068879
1.2068983
1.2069087
1.206919
1.2069293
1.2069396
1.2069498
1.20696
1.2069702
1.2069803
1.2069904
1.2070005
1.2070105
1.2070205
1.2070305
1.2070405
1.2070504
1.2070603
1.2070702
1.20708
1.2070898
1.2070996
1.2071094
1.2071191
1.2071288
1.2071385
1.2071481
1.2071577
1.2071673
1.2071769
1.2071864
1.207196
1.2072054
1.2072149
1.2072244
1.2072338
1.2072432
1.2072525
1.2072619
1.2072712
1.2072805
1.2072898
1.207299
1.2073083
1.2073175
1.2073266
1.2073358
1.2073449
1.207354
1.2073631
1.2073722
1.2073812
1.2073902
1.2073992
1.2074082
1.2074171
1.2074261
1.207435
1.2074439
1.2074528
1.2074616
1.2074705
1.2074793
1.2074881
1.2074968
1.2075056
1.2075143
1.207523
1.2075317
1.2075404
1.207549
1.2075576
1.2075662
1.2075748
1.2075834
1.207592
1.2076005
1.207609
1.2076175
1.207626
1.2076345
1.2076429
1.2076513
1.2076597
1.2076681
1.2076765
1.2076848
1.2076931
1.2077015
1.2077097
1.207718
1.2077263
1.2077345
1.2077427
1.2077509
1.2077591
1.2077673
1.2077754
1.2077835
1.2077916
1.2077997
1.2078078
1.2078158
1.2078238
1.2078318
1.2078398
1.2078478
1.2078557
1.2078637
1.2078716
1.2078795
1.2078874
1.2078952
1.2079031
1.2079109
1.2079187
1.2079265
1.2079342
1.207942
1.2079497
1.2079574
1.2079651
1.2079728
1.2079804
1.207988
1.2079956
1.2080032
1.2080108
1.2080183
1.2080258
1.2080334
1.2080408
1.2080483
1.2080557
1.2080632
1.2080706
1.2080779
1.2080853
1.2080926
1.2081
1.2081073
1.2081145
1.2081218
1.208129
1.2081363
1.2081434
1.2081506
1.2081578
1.2081649
1.208172
1.2081791
1.2081861
1.2081932
1.2082002
1.2082072
1.2082142
1.2082211
1.208228
1.2082349
1.2082418
1.2082487
1.2082555
1.2082623
1.2082691
1.2082759
1.2082827
1.2082894
1.2082961
1.2083028
1.2083094
1.208316
1.2083226
1.2083292
1.2083358
1.2083423
1.2083488
1.2083553
1.2083618
1.2083682
1.2083747
1.2083811
1.2083874
1.2083938
1.2084001
1.2084064
1.2084127
1.2084189
1.2084252
1.2084314
1.2084375
1.2084437
1.2084498
1.2084559
1.208462
1.208468
1.2084741
1.2084801
1.2084861
1.208492
1.2084979
1.2085038
1.2085097
1.2085156
1.2085214
1.2085272
1.208533
1.2085387
1.2085445
1.2085502
1.2085559
1.2085616
1.2085672
1.2085728
1.2085784
1.208584
1.2085895
1.208595
1.2086005
1.2086059
1.2086114
1.2086168
1.2086221
1.2086275
1.2086328
1.2086381
1.2086434
1.2086486
1.2086539
1.2086591
1.2086643
1.2086694
1.2086745
1.2086797
1.2086847
1.2086898
1.2086948
1.2086998
1.2087048
1.2087098
1.2087147
1.2087196
1.2087244
1.2087293
1.2087341
1.2087389
1.2087437
1.2087484
1.2087531
1.2087578
1.2087625
1.2087671
1.2087718
1.2087764
1.2087809
1.2087855
1.20879
1.2087945
1.208799
1.2088034
1.2088078
1.2088122
1.2088166
1.2088209
1.2088252
1.2088295
1.2088338
1.208838
1.2088422
1.2088464
1.2088505
1.2088547
1.2088588
1.2088628
1.2088669
1.2088709
1.2088749
1.2088789
1.2088829
1.2088868
1.2088907
1.2088946
1.2088984
1.2089022
1.208906
1.2089098
1.2089135
1.2089173
1.208921
1.2089247
1.2089283
1.2089319
1.2089355
1.2089391
1.2089427
1.2089462
1.2089497
1.2089532
1.2089567
1.2089601
1.2089635
1.2089669
1.2089703
1.2089736
1.2089769
1.2089802
1.2089835
1.2089868
1.20899
1.2089932
1.2089964
1.2089995
1.2090027
1.2090058
1.2090088
1.2090119
1.2090149
1.2090179
1.2090209
1.2090238
1.2090267
1.2090296
1.2090324
1.2090353
1.2090381
1.2090408
1.2090436
1.2090463
1.209049
1.2090516
1.2090543
1.2090569
1.2090595
1.209062
1.2090646
1.2090671
1.2090695
1.209072
1.2090744
1.2090768
1.2090791
1.2090815
1.2090838
1.2090861
1.2090884
1.2090906
1.2090928
1.209095
1.2090972
1.2090993
1.2091015
1.2091036
1.2091056
1.2091077
1.2091097
1.2091117
1.2091137
1.2091157
1.2091176
1.2091195
1.2091214
1.2091233
1.2091251
1.209127
1.2091287
1.2091305
1.2091323
1.209134
1.2091357
1.2091374
1.209139
1.2091406
1.2091423
1.2091438
1.2091454
1.2091469
1.2091484
1.2091499
1.2091513
1.2091528
1.2091542
1.2091555
1.2091569
1.2091582
1.2091595
1.2091608
1.2091621
1.2091633
1.2091645
1.2091657
1.2091668
1.2091679
1.209169
1.2091701
1.2091712
1.2091722
1.2091732
1.2091742
1.2091751
1.209176
1.2091769
1.2091778
1.2091787
1.2091795
1.2091803
1.2091811
1.2091818
1.2091826
1.2091833
1.209184
1.2091846
1.2091853
1.2091859
1.2091864
1.209187
1.2091875
1.209188
1.2091885
1.209189
1.2091894
1.2091898
1.2091902
1.2091905
1.2091909
1.2091912
1.2091915
1.2091917
1.209192
1.2091922
1.2091924
1.2091926
1.2091927
1.2091928
1.2091929
1.209193
1.2091931
1.2091931
1.2091931
1.2091931
1.209193
1.209193
1.2091929
1.2091927
1.2091926
1.2091925
1.2091923
1.2091921
1.2091918
1.2091916
1.2091913
1.209191
1.2091907
1.2091904
1.20919
1.2091896
1.2091892
1.2091888
1.2091883
1.2091878
1.2091873
1.2091868
1.2091862
1.2091856
1.209185
1.2091844
1.2091838
1.2091831
1.2091824
1.2091817
1.2091809
1.2091802
1.2091794
1.2091786
1.2091777
1.2091769
1.209176
1.2091751
1.2091742
1.2091732
1.2091723
1.2091713
1.2091703
1.2091692
1.2091682
1.2091671
1.209166
1.2091649
1.2091638
1.2091626
1.2091614
1.2091602
1.209159
1.2091577
1.2091564
1.2091551
1.2091538
1.2091525
1.2091511
1.2091497
1.2091483
1.2091469
1.2091454
1.2091439
1.2091424
1.2091409
1.2091393
1.2091378
1.2091362
1.2091345
1.2091329
1.2091312
1.2091296
1.2091278
1.2091261
1.2091244
1.2091226
1.2091208
1.209119
1.2091172
1.2091153
1.2091134
1.2091115
1.2091096
1.2091076
1.2091057
1.2091037
1.2091016
1.2090996
1.2090975
1.2090954
1.2090933
1.2090912
1.2090891
1.2090869
1.2090847
1.2090825
1.2090803
1.209078
1.2090757
1.2090734
1.2090711
1.2090687
1.2090663
1.2090639
1.2090615
1.209059
1.2090566
1.2090541
1.2090516
1.209049
1.2090465
1.2090439
1.2090413
1.2090386
1.209036
1.2090333
1.2090306
1.2090279
1.2090252
1.2090224
1.2090196
1.2090168
1.209014
1.2090112
1.2090083
1.2090054
1.2090025
1.2089995
1.2089966
1.2089936
1.2089906
1.2089875
1.2089845
1.2089814
1.2089783
1.2089752
1.208972
1.2089689
1.2089657
1.2089625
1.2089592
1.208956
1.2089527
1.2089493
1.208946
1.2089426
1.2089392
1.2089358
1.2089323
1.2089288
1.2089254
1.2089219
1.2089184
1.2089148
1.2089112
1.2089077
1.208904
1.2089003
1.2088966
1.2088929
1.2088892
1.2088854
1.2088817
1.2088779
1.2088741
1.2088702
1.2088663
1.2088624
1.2088585
1.2088546
1.2088506
1.2088466
1.2088426
1.2088386
1.2088345
1.2088304
1.2088263
1.2088221
1.208818
1.2088137
1.2088095
1.2088052
1.208801
1.2087966
1.2087923
1.2087879
1.2087835
1.2087792
1.2087746
1.2087703
1.2087657
1.2087612
1.2087567
1.2087521
1.2087475
1.2087429
1.2087382
1.2087336
1.2087289
1.2087242
1.2087195
1.2087147
1.2087099
1.2087052
1.2087003
1.2086954
1.2086906
1.2086858
1.2086809
1.208676
1.2086711
1.2086661
1.2086612
1.2086564
1.2086514
1.2086464
1.2086416
1.2086367
1.2086317
1.2086268
1.208622
1.2086172
1.2086122
1.2086073
1.2086025
1.2085976
1.2085927
1.2085878
1.2085831
1.2085784
1.2085736
1.2085687
1.2085639
1.2085592
1.2085543
1.2085493
1.2085444
1.2085396
1.2085349
1.2085299
1.2085248
1.2085198
1.2085149
1.2085098
1.2085045
1.2084988
1.208493
1.2084875
1.2084819
1.2084762
1.20847
1.2084637
1.2084575
1.2084516
1.2084456
1.2084393
1.2084326
1.2084256
1.2084186
1.2084121
1.2084058
1.2083996
1.2083931
1.208386
1.2083788
1.2083718
1.2083654
1.2083596
1.2083538
1.2083475
1.2083405
1.2083332
1.2083259
1.2083191
1.2083131
1.2083079
1.2083032
1.2082986
1.2082935
1.2082877
1.208281
1.2082735
1.2082654
1.2082567
1.2082479
1.2082387
1.2082283
1.208214
1.2081882
1.2081295
1.2079777
1.2075631
1.2064038
1.2034823
1.1996415
1.1955412
1.1912746
1.1869453
1.1826492
1.1784718
1.1744854
1.1707469
1.1672979
1.1641645
1.1613587
1.1588801
1.1567183
1.1548556
1.1532691
1.151933
1.1508204
1.1499042
1.1491579
1.1485566
1.1480771
1.1476981
1.1474012
1.1471701
1.1469915
1.1468543
1.1467496
1.1466701
1.1466103
1.1465656
1.1465323
1.1465075
1.1464891
1.146475
1.1464639
1.1464544
1.1464456
1.1464378
1.1464331
1.1464303
1.1464271
1.1464234
1.1464194
1.1464152
1.1464107
1.146406
1.1464012
1.1463962
1.1463911
1.1463859
1.1463806
1.1463752
1.1463697
1.1463642
1.1463585
1.1463529
1.1463471
1.1463414
1.1463357
1.1463299
1.1463242
1.1463185
1.1463128
1.1463071
1.1463016
1.146296
1.1462905
1.146285
1.1462796
1.1462742
1.1462688
1.1462633
1.1462579
1.1462525
1.146247
1.1462415
1.146236
1.1462303
1.1462247
1.1462189
1.1462131
1.1462072
1.1462013
1.1461952
1.1461891
1.1461829
1.1461766
1.1461702
1.1461637
1.1461572
1.1461506
1.1461439
1.1461372
1.1461304
1.1461235
1.1461166
1.1461096
1.1461026
1.1460955
1.1460884
1.1460812
1.146074
1.1460668
1.1460595
1.1460522
1.1460448
1.1460374
1.14603
1.1460225
1.146015
1.1460074
1.1459999
1.1459922
1.1459846
1.1459769
1.1459692
1.1459615
1.1459537
1.1459459
1.1459381
1.1459302
1.1459224
1.1459145
1.1459065
1.1458985
1.1458906
1.1458825
1.1458745
1.1458664
1.1458583
1.1458501
1.145842
1.1458338
1.1458256
1.1458173
1.145809
1.1458007
1.1457924
1.145784
1.1457756
1.1457672
1.1457587
1.1457503
1.1457418
1.1457333
1.1457247
1.1457161
1.1457075
1.1456989
1.1456903
1.1456816
1.1456729
1.1456642
1.1456554
1.1456467
1.1456378
1.145629
1.1456202
1.1456113
1.1456024
1.1455934
1.1455845
1.1455755
1.1455665
1.1455574
1.1455484
1.1455393
1.1455302
1.145521
1.1455119
1.1455027
1.1454935
1.1454842
1.145475
1.1454657
1.1454564
1.145447
1.1454377
1.1454283
1.1454189
1.1454094
1.1454
1.1453905
1.145381
1.1453714
1.1453619
1.1453523
1.1453427
1.145333
1.1453234
1.1453137
1.145304
1.1452943
1.1452845
1.1452747
1.1452649
1.1452551
1.1452452
1.1452353
1.1452254
1.1452155
1.1452055
1.1451956
1.1451856
1.1451755
1.1451655
1.1451554
1.1451453
1.1451352
1.145125
1.1451149
1.1451047
1.1450945
1.1450842
1.145074
1.1450637
1.1450533
1.145043
1.1450326
1.1450223
1.1450118
1.1450014
1.1449909
1.1449805
1.1449699
1.1449594
1.1449488
1.1449383
1.1449277
1.144917
1.1449064
1.1448957
1.144885
1.1448743
1.1448635
1.1448528
1.144842
1.1448312
1.1448203
1.1448094
1.1447986
1.1447877
1.1447767
1.1447658