/*--------------------------------*- C++ -*----------------------------------*\
  =========                 |
  \\      /  F ield         | OpenFOAM: The Open Source CFD Toolbox
   \\    /   O peration     | Website:  https://openfoam.org
    \\  /    A nd           | Version:  7
     \\/     M anipulation  |
\*---------------------------------------------------------------------------*/
FoamFile
{
    version     2.0;
    format      ascii;
    class       volScalarField;
    location    "0.00325";
    object      p;
}
// * * * * * * * * * * * * * * * * * * * * * * * * * * * * * * * * * * * * * //

dimensions      [1 -1 -2 0 0 0 0];

internalField   nonuniform List<scalar> 
5000
(
99789.102
99789.102
99789.102
99789.102
99789.102
99789.102
99789.102
99789.102
99789.102
99789.102
99789.103
99789.103
99789.103
99789.103
99789.103
99789.103
99789.103
99789.103
99789.103
99789.103
99789.103
99789.103
99789.103
99789.103
99789.103
99789.103
99789.103
99789.104
99789.104
99789.104
99789.104
99789.104
99789.104
99789.104
99789.104
99789.104
99789.104
99789.104
99789.104
99789.104
99789.104
99789.104
99789.104
99789.104
99789.104
99789.105
99789.105
99789.105
99789.105
99789.105
99789.105
99789.105
99789.105
99789.105
99789.105
99789.105
99789.105
99789.105
99789.105
99789.105
99789.105
99789.105
99789.105
99789.105
99789.106
99789.106
99789.106
99789.106
99789.106
99789.106
99789.106
99789.106
99789.106
99789.106
99789.106
99789.106
99789.106
99789.106
99789.106
99789.106
99789.106
99789.106
99789.106
99789.106
99789.107
99789.107
99789.107
99789.107
99789.107
99789.107
99789.107
99789.107
99789.107
99789.107
99789.107
99789.107
99789.107
99789.107
99789.107
99789.107
99789.107
99789.107
99789.107
99789.107
99789.108
99789.108
99789.108
99789.108
99789.108
99789.108
99789.108
99789.108
99789.108
99789.108
99789.108
99789.108
99789.108
99789.108
99789.108
99789.108
99789.108
99789.108
99789.108
99789.109
99789.109
99789.109
99789.109
99789.109
99789.109
99789.109
99789.109
99789.109
99789.109
99789.109
99789.109
99789.109
99789.109
99789.109
99789.109
99789.109
99789.109
99789.109
99789.11
99789.11
99789.11
99789.11
99789.11
99789.11
99789.11
99789.11
99789.11
99789.11
99789.11
99789.11
99789.11
99789.11
99789.11
99789.11
99789.11
99789.11
99789.111
99789.111
99789.111
99789.111
99789.111
99789.111
99789.111
99789.111
99789.111
99789.111
99789.111
99789.111
99789.111
99789.111
99789.111
99789.111
99789.111
99789.112
99789.112
99789.112
99789.112
99789.112
99789.112
99789.112
99789.112
99789.112
99789.112
99789.112
99789.112
99789.112
99789.112
99789.112
99789.112
99789.112
99789.112
99789.113
99789.113
99789.113
99789.113
99789.113
99789.113
99789.113
99789.113
99789.113
99789.113
99789.113
99789.113
99789.113
99789.113
99789.113
99789.113
99789.114
99789.114
99789.114
99789.114
99789.114
99789.114
99789.114
99789.114
99789.114
99789.114
99789.114
99789.114
99789.114
99789.114
99789.114
99789.114
99789.114
99789.115
99789.115
99789.115
99789.115
99789.115
99789.115
99789.115
99789.115
99789.115
99789.115
99789.115
99789.115
99789.115
99789.115
99789.115
99789.115
99789.115
99789.116
99789.116
99789.116
99789.116
99789.116
99789.116
99789.116
99789.116
99789.116
99789.116
99789.116
99789.116
99789.116
99789.116
99789.116
99789.116
99789.116
99789.117
99789.117
99789.117
99789.117
99789.117
99789.117
99789.117
99789.117
99789.117
99789.117
99789.117
99789.117
99789.117
99789.117
99789.117
99789.117
99789.117
99789.117
99789.118
99789.118
99789.118
99789.118
99789.118
99789.118
99789.118
99789.118
99789.118
99789.118
99789.118
99789.118
99789.118
99789.118
99789.118
99789.118
99789.118
99789.118
99789.119
99789.119
99789.119
99789.119
99789.119
99789.119
99789.119
99789.119
99789.119
99789.119
99789.119
99789.119
99789.119
99789.119
99789.119
99789.119
99789.119
99789.119
99789.119
99789.12
99789.12
99789.12
99789.12
99789.12
99789.12
99789.12
99789.12
99789.12
99789.12
99789.12
99789.12
99789.12
99789.12
99789.12
99789.12
99789.12
99789.12
99789.12
99789.12
99789.121
99789.121
99789.121
99789.121
99789.121
99789.121
99789.121
99789.121
99789.121
99789.121
99789.121
99789.121
99789.121
99789.121
99789.121
99789.121
99789.121
99789.121
99789.121
99789.121
99789.121
99789.121
99789.122
99789.122
99789.122
99789.122
99789.122
99789.122
99789.122
99789.122
99789.122
99789.122
99789.122
99789.122
99789.122
99789.122
99789.122
99789.122
99789.122
99789.122
99789.122
99789.122
99789.122
99789.122
99789.122
99789.123
99789.123
99789.123
99789.123
99789.123
99789.123
99789.123
99789.123
99789.123
99789.123
99789.123
99789.123
99789.123
99789.123
99789.123
99789.123
99789.123
99789.123
99789.123
99789.123
99789.123
99789.123
99789.123
99789.123
99789.123
99789.124
99789.124
99789.124
99789.124
99789.124
99789.124
99789.124
99789.124
99789.124
99789.124
99789.124
99789.124
99789.124
99789.124
99789.124
99789.124
99789.124
99789.124
99789.124
99789.124
99789.124
99789.124
99789.124
99789.124
99789.124
99789.124
99789.125
99789.125
99789.125
99789.125
99789.125
99789.125
99789.125
99789.125
99789.125
99789.125
99789.125
99789.125
99789.125
99789.125
99789.125
99789.125
99789.125
99789.125
99789.125
99789.125
99789.125
99789.125
99789.126
99789.126
99789.126
99789.126
99789.126
99789.126
99789.126
99789.126
99789.126
99789.126
99789.126
99789.126
99789.126
99789.126
99789.126
99789.126
99789.126
99789.126
99789.126
99789.126
99789.126
99789.127
99789.127
99789.127
99789.127
99789.127
99789.127
99789.127
99789.127
99789.127
99789.127
99789.127
99789.127
99789.127
99789.127
99789.127
99789.127
99789.127
99789.127
99789.127
99789.128
99789.128
99789.128
99789.128
99789.128
99789.128
99789.128
99789.128
99789.128
99789.128
99789.128
99789.128
99789.128
99789.128
99789.128
99789.128
99789.128
99789.128
99789.129
99789.129
99789.129
99789.129
99789.129
99789.129
99789.129
99789.129
99789.129
99789.129
99789.129
99789.129
99789.129
99789.129
99789.129
99789.129
99789.129
99789.13
99789.13
99789.13
99789.13
99789.13
99789.13
99789.13
99789.13
99789.13
99789.13
99789.13
99789.13
99789.13
99789.13
99789.13
99789.13
99789.131
99789.131
99789.131
99789.131
99789.131
99789.131
99789.131
99789.131
99789.131
99789.131
99789.131
99789.131
99789.131
99789.131
99789.131
99789.131
99789.132
99789.132
99789.132
99789.132
99789.132
99789.132
99789.132
99789.132
99789.132
99789.132
99789.132
99789.132
99789.132
99789.132
99789.132
99789.132
99789.133
99789.133
99789.133
99789.133
99789.133
99789.133
99789.133
99789.133
99789.133
99789.133
99789.133
99789.133
99789.133
99789.133
99789.134
99789.134
99789.134
99789.134
99789.134
99789.134
99789.134
99789.134
99789.134
99789.134
99789.134
99789.134
99789.134
99789.134
99789.134
99789.135
99789.135
99789.135
99789.135
99789.135
99789.135
99789.135
99789.135
99789.135
99789.135
99789.135
99789.135
99789.135
99789.136
99789.136
99789.136
99789.136
99789.136
99789.136
99789.136
99789.136
99789.136
99789.136
99789.136
99789.136
99789.136
99789.136
99789.137
99789.137
99789.137
99789.137
99789.137
99789.137
99789.137
99789.137
99789.137
99789.137
99789.137
99789.137
99789.137
99789.138
99789.138
99789.138
99789.138
99789.138
99789.138
99789.138
99789.138
99789.138
99789.138
99789.138
99789.138
99789.139
99789.139
99789.139
99789.139
99789.139
99789.139
99789.139
99789.139
99789.139
99789.139
99789.139
99789.139
99789.14
99789.14
99789.14
99789.14
99789.14
99789.14
99789.14
99789.14
99789.14
99789.14
99789.14
99789.141
99789.141
99789.141
99789.141
99789.141
99789.141
99789.141
99789.141
99789.141
99789.141
99789.141
99789.142
99789.142
99789.142
99789.142
99789.142
99789.142
99789.142
99789.142
99789.142
99789.142
99789.143
99789.143
99789.143
99789.143
99789.143
99789.143
99789.143
99789.143
99789.143
99789.143
99789.143
99789.144
99789.144
99789.144
99789.144
99789.144
99789.144
99789.144
99789.144
99789.144
99789.144
99789.145
99789.145
99789.145
99789.145
99789.145
99789.145
99789.145
99789.145
99789.145
99789.145
99789.146
99789.146
99789.146
99789.146
99789.146
99789.146
99789.146
99789.146
99789.146
99789.147
99789.147
99789.147
99789.147
99789.147
99789.147
99789.147
99789.147
99789.147
99789.147
99789.148
99789.148
99789.148
99789.148
99789.148
99789.148
99789.148
99789.148
99789.148
99789.149
99789.149
99789.149
99789.149
99789.149
99789.149
99789.149
99789.149
99789.149
99789.149
99789.15
99789.15
99789.15
99789.15
99789.15
99789.15
99789.15
99789.15
99789.15
99789.151
99789.151
99789.151
99789.151
99789.151
99789.151
99789.151
99789.151
99789.151
99789.152
99789.152
99789.152
99789.152
99789.152
99789.152
99789.152
99789.152
99789.152
99789.153
99789.153
99789.153
99789.153
99789.153
99789.153
99789.153
99789.153
99789.153
99789.154
99789.154
99789.154
99789.154
99789.154
99789.154
99789.154
99789.154
99789.154
99789.155
99789.155
99789.155
99789.155
99789.155
99789.155
99789.155
99789.155
99789.155
99789.156
99789.156
99789.156
99789.156
99789.156
99789.156
99789.156
99789.156
99789.156
99789.157
99789.157
99789.157
99789.157
99789.157
99789.157
99789.157
99789.157
99789.158
99789.158
99789.158
99789.158
99789.158
99789.158
99789.158
99789.158
99789.158
99789.159
99789.159
99789.159
99789.159
99789.159
99789.159
99789.159
99789.159
99789.159
99789.16
99789.16
99789.16
99789.16
99789.16
99789.16
99789.16
99789.16
99789.16
99789.161
99789.161
99789.161
99789.161
99789.161
99789.161
99789.161
99789.161
99789.161
99789.162
99789.162
99789.162
99789.162
99789.162
99789.162
99789.162
99789.162
99789.163
99789.163
99789.163
99789.163
99789.163
99789.163
99789.163
99789.163
99789.163
99789.164
99789.164
99789.164
99789.164
99789.164
99789.164
99789.164
99789.164
99789.165
99789.165
99789.165
99789.165
99789.165
99789.165
99789.165
99789.165
99789.165
99789.166
99789.166
99789.166
99789.166
99789.166
99789.166
99789.166
99789.166
99789.167
99789.167
99789.167
99789.167
99789.167
99789.167
99789.167
99789.167
99789.167
99789.168
99789.168
99789.168
99789.168
99789.168
99789.168
99789.168
99789.168
99789.169
99789.169
99789.169
99789.169
99789.169
99789.169
99789.169
99789.169
99789.17
99789.17
99789.17
99789.17
99789.17
99789.17
99789.17
99789.17
99789.171
99789.171
99789.171
99789.171
99789.171
99789.171
99789.171
99789.171
99789.172
99789.172
99789.172
99789.172
99789.172
99789.172
99789.172
99789.172
99789.173
99789.173
99789.173
99789.173
99789.173
99789.173
99789.173
99789.173
99789.174
99789.174
99789.174
99789.174
99789.174
99789.174
99789.174
99789.174
99789.175
99789.175
99789.175
99789.175
99789.175
99789.175
99789.175
99789.176
99789.176
99789.176
99789.176
99789.176
99789.176
99789.176
99789.176
99789.177
99789.177
99789.177
99789.177
99789.177
99789.177
99789.177
99789.178
99789.178
99789.178
99789.178
99789.178
99789.178
99789.178
99789.178
99789.179
99789.179
99789.179
99789.179
99789.179
99789.179
99789.179
99789.18
99789.18
99789.18
99789.18
99789.18
99789.18
99789.18
99789.18
99789.181
99789.181
99789.181
99789.181
99789.181
99789.181
99789.181
99789.182
99789.182
99789.182
99789.182
99789.182
99789.182
99789.182
99789.183
99789.183
99789.183
99789.183
99789.183
99789.183
99789.183
99789.184
99789.184
99789.184
99789.184
99789.184
99789.184
99789.184
99789.185
99789.185
99789.185
99789.185
99789.185
99789.185
99789.185
99789.186
99789.186
99789.186
99789.186
99789.186
99789.186
99789.186
99789.186
99789.187
99789.187
99789.187
99789.187
99789.187
99789.187
99789.187
99789.188
99789.188
99789.188
99789.188
99789.188
99789.188
99789.188
99789.189
99789.189
99789.189
99789.189
99789.189
99789.189
99789.189
99789.19
99789.19
99789.19
99789.19
99789.19
99789.19
99789.19
99789.191
99789.191
99789.191
99789.191
99789.191
99789.191
99789.191
99789.192
99789.192
99789.192
99789.192
99789.192
99789.192
99789.192
99789.192
99789.193
99789.193
99789.193
99789.193
99789.193
99789.193
99789.193
99789.194
99789.194
99789.194
99789.194
99789.194
99789.194
99789.194
99789.195
99789.195
99789.195
99789.195
99789.195
99789.195
99789.195
99789.196
99789.196
99789.196
99789.196
99789.196
99789.196
99789.196
99789.196
99789.197
99789.197
99789.197
99789.197
99789.197
99789.197
99789.197
99789.197
99789.198
99789.198
99789.198
99789.198
99789.198
99789.198
99789.198
99789.199
99789.199
99789.199
99789.199
99789.199
99789.199
99789.199
99789.199
99789.2
99789.2
99789.2
99789.2
99789.2
99789.2
99789.2
99789.2
99789.201
99789.201
99789.201
99789.201
99789.201
99789.201
99789.201
99789.201
99789.201
99789.202
99789.202
99789.202
99789.202
99789.202
99789.202
99789.202
99789.202
99789.202
99789.203
99789.203
99789.203
99789.203
99789.203
99789.203
99789.203
99789.203
99789.203
99789.204
99789.204
99789.204
99789.204
99789.204
99789.204
99789.204
99789.204
99789.204
99789.204
99789.205
99789.205
99789.205
99789.205
99789.205
99789.205
99789.205
99789.205
99789.205
99789.205
99789.206
99789.206
99789.206
99789.206
99789.206
99789.206
99789.206
99789.206
99789.206
99789.206
99789.206
99789.206
99789.207
99789.207
99789.207
99789.207
99789.207
99789.207
99789.207
99789.207
99789.207
99789.207
99789.207
99789.207
99789.207
99789.207
99789.208
99789.208
99789.208
99789.208
99789.208
99789.208
99789.208
99789.208
99789.208
99789.208
99789.208
99789.208
99789.208
99789.208
99789.208
99789.208
99789.208
99789.209
99789.209
99789.209
99789.209
99789.209
99789.209
99789.209
99789.209
99789.209
99789.209
99789.209
99789.209
99789.209
99789.209
99789.209
99789.209
99789.209
99789.209
99789.209
99789.209
99789.209
99789.209
99789.209
99789.209
99789.209
99789.209
99789.209
99789.209
99789.209
99789.209
99789.209
99789.209
99789.209
99789.209
99789.21
99789.21
99789.21
99789.21
99789.21
99789.21
99789.21
99789.21
99789.21
99789.21
99789.21
99789.21
99789.21
99789.21
99789.21
99789.21
99789.209
99789.209
99789.209
99789.209
99789.209
99789.209
99789.209
99789.209
99789.209
99789.209
99789.209
99789.209
99789.209
99789.209
99789.209
99789.209
99789.209
99789.209
99789.209
99789.209
99789.209
99789.209
99789.209
99789.209
99789.209
99789.209
99789.209
99789.209
99789.209
99789.209
99789.209
99789.209
99789.209
99789.209
99789.208
99789.208
99789.208
99789.208
99789.208
99789.208
99789.208
99789.208
99789.208
99789.208
99789.208
99789.208
99789.208
99789.208
99789.208
99789.208
99789.208
99789.207
99789.207
99789.207
99789.207
99789.207
99789.207
99789.207
99789.207
99789.207
99789.207
99789.207
99789.207
99789.207
99789.207
99789.207
99789.206
99789.206
99789.206
99789.206
99789.206
99789.206
99789.206
99789.206
99789.206
99789.206
99789.206
99789.206
99789.206
99789.205
99789.205
99789.205
99789.205
99789.205
99789.205
99789.205
99789.205
99789.205
99789.205
99789.205
99789.205
99789.205
99789.204
99789.204
99789.204
99789.204
99789.204
99789.204
99789.204
99789.204
99789.204
99789.204
99789.204
99789.204
99789.203
99789.203
99789.203
99789.203
99789.203
99789.203
99789.203
99789.203
99789.203
99789.203
99789.203
99789.203
99789.203
99789.203
99789.202
99789.202
99789.202
99789.202
99789.202
99789.202
99789.202
99789.202
99789.202
99789.202
99789.202
99789.202
99789.202
99789.202
99789.202
99789.202
99789.202
99789.202
99789.202
99789.202
99789.202
99789.202
99789.202
99789.202
99789.202
99789.202
99789.202
99789.202
99789.202
99789.202
99789.202
99789.202
99789.202
99789.202
99789.202
99789.202
99789.203
99789.203
99789.203
99789.203
99789.203
99789.203
99789.203
99789.204
99789.204
99789.204
99789.204
99789.204
99789.205
99789.205
99789.205
99789.205
99789.206
99789.206
99789.206
99789.207
99789.207
99789.208
99789.208
99789.208
99789.209
99789.209
99789.21
99789.211
99789.211
99789.212
99789.212
99789.213
99789.214
99789.215
99789.215
99789.216
99789.217
99789.218
99789.219
99789.22
99789.221
99789.222
99789.223
99789.225
99789.226
99789.227
99789.229
99789.23
99789.232
99789.233
99789.235
99789.237
99789.239
99789.241
99789.243
99789.245
99789.247
99789.249
99789.252
99789.254
99789.257
99789.259
99789.262
99789.265
99789.268
99789.272
99789.275
99789.278
99789.282
99789.286
99789.29
99789.294
99789.299
99789.303
99789.308
99789.313
99789.318
99789.323
99789.329
99789.335
99789.341
99789.347
99789.354
99789.361
99789.368
99789.376
99789.384
99789.392
99789.4
99789.409
99789.418
99789.428
99789.438
99789.449
99789.459
99789.471
99789.483
99789.495
99789.508
99789.521
99789.535
99789.55
99789.565
99789.581
99789.597
99789.614
99789.632
99789.65
99789.669
99789.689
99789.71
99789.732
99789.755
99789.778
99789.803
99789.828
99789.855
99789.882
99789.911
99789.941
99789.972
99790.004
99790.038
99790.073
99790.11
99790.147
99790.187
99790.228
99790.271
99790.315
99790.361
99790.409
99790.459
99790.511
99790.565
99790.621
99790.68
99790.74
99790.804
99790.869
99790.938
99791.009
99791.082
99791.159
99791.239
99791.322
99791.408
99791.497
99791.59
99791.687
99791.788
99791.892
99792.001
99792.114
99792.231
99792.353
99792.479
99792.611
99792.748
99792.89
99793.037
99793.19
99793.349
99793.515
99793.687
99793.865
99794.05
99794.243
99794.443
99794.65
99794.866
99795.089
99795.322
99795.563
99795.814
99796.074
99796.344
99796.625
99796.916
99797.218
99797.532
99797.858
99798.196
99798.547
99798.911
99799.289
99799.681
99800.089
99800.511
99800.95
99801.405
99801.877
99802.367
99802.875
99803.402
99803.949
99804.517
99805.106
99805.717
99806.35
99807.007
99807.689
99808.396
99809.129
99809.889
99810.678
99811.496
99812.344
99813.223
99814.134
99815.08
99816.06
99817.076
99818.129
99819.221
99820.353
99821.526
99822.742
99824.003
99825.311
99826.666
99828.069
99829.524
99831.032
99832.593
99834.211
99835.888
99837.625
99839.423
99841.287
99843.217
99845.216
99847.286
99849.43
99851.65
99853.949
99856.329
99858.794
99861.345
99863.986
99866.72
99869.55
99872.479
99875.51
99878.647
99881.894
99885.253
99888.729
99892.325
99896.045
99899.894
99903.874
99907.992
99912.251
99916.655
99921.209
99925.918
99930.787
99935.821
99941.025
99946.404
99951.964
99957.71
99963.648
99969.785
99976.125
99982.676
99989.443
99996.434
100003.65
100011.11
100018.81
100026.76
100034.97
100043.45
100052.2
100061.23
100070.55
100080.16
100090.09
100100.32
100110.88
100121.78
100133.01
100144.6
100156.54
100168.86
100181.55
100194.63
100208.12
100222.01
100236.32
100251.07
100266.25
100281.89
100298
100314.57
100331.64
100349.2
100367.27
100385.86
100404.99
100424.66
100444.89
100465.69
100487.06
100509.04
100531.61
100554.81
100578.63
100603.1
100628.22
100654
100680.47
100707.63
100735.48
100764.06
100793.36
100823.39
100854.18
100885.72
100918.03
100951.13
100985.01
101019.7
101055.19
101091.51
101128.66
101166.64
101205.46
101245.14
101285.68
101327.08
101369.35
101412.49
101456.52
101501.43
101547.23
101593.91
101641.49
101689.96
101739.31
101789.56
101840.69
101892.71
101945.61
101999.39
102054.03
102109.54
102165.9
102223.12
102281.16
102340.04
102399.73
102460.22
102521.49
102583.54
102646.34
102709.88
102774.14
102839.11
102904.75
102971.04
103037.98
103105.53
103173.66
103242.36
103311.59
103381.33
103451.56
103522.23
103593.33
103664.83
103736.68
103808.87
103881.36
103954.12
104027.11
104100.3
104173.66
104247.16
104320.76
104394.42
104468.12
104541.82
104615.48
104689.08
104762.57
104835.93
104909.12
104982.11
105054.87
105127.36
105199.56
105271.43
105342.94
105414.06
105484.77
105555.04
105624.83
105694.13
105762.91
105831.13
105898.79
105965.84
106032.29
106098.09
106163.24
106227.71
106291.48
106354.54
106416.87
106478.46
106539.29
106599.35
106658.62
106717.1
106774.78
106831.64
106887.68
106942.89
106997.27
107050.8
107103.49
107155.33
107206.32
107256.46
107305.74
107354.16
107401.73
107448.44
107494.31
107539.32
107583.49
107626.81
107669.29
107710.94
107751.77
107791.77
107830.95
107869.32
107906.89
107943.67
107979.66
108014.87
108049.32
108083
108115.93
108148.12
108179.58
108210.32
108240.34
108269.67
108298.3
108326.25
108353.54
108380.16
108406.14
108431.48
108456.2
108480.3
108503.8
108526.71
108549.03
108570.79
108591.98
108612.63
108632.74
108652.33
108671.4
108689.96
108708.04
108725.62
108742.74
108759.39
108775.59
108791.35
108806.68
108821.58
108836.07
108850.16
108863.86
108877.17
108890.11
108902.68
108914.89
108926.76
108938.28
108949.48
108960.35
108970.91
108981.17
108991.12
109000.78
109010.16
109019.27
109028.1
109036.68
109044.99
109053.07
109060.9
109068.49
109075.86
109083.01
109089.94
109096.66
109103.17
109109.49
109115.62
109121.55
109127.31
109132.89
109138.3
109143.54
109148.61
109153.53
109158.3
109162.92
109167.4
109171.73
109175.93
109180
109183.94
109187.75
109191.45
109195.02
109198.49
109201.84
109205.09
109208.24
109211.28
109214.23
109217.08
109219.84
109222.51
109225.1
109227.6
109230.02
109232.37
109234.63
109236.83
109238.95
109241.01
109242.99
109244.92
109246.78
109248.57
109250.32
109252
109253.63
109255.2
109256.73
109258.2
109259.62
109261
109262.33
109263.62
109264.87
109266.07
109267.24
109268.36
109269.45
109270.5
109271.52
109272.51
109273.46
109274.38
109275.27
109276.12
109276.96
109277.76
109278.53
109279.29
109280.01
109280.71
109281.39
109282.04
109282.68
109283.29
109283.88
109284.45
109285.01
109285.54
109286.06
109286.56
109287.04
109287.51
109287.96
109288.39
109288.81
109289.22
109289.61
109290
109290.36
109290.72
109291.06
109291.4
109291.72
109292.03
109292.33
109292.62
109292.9
109293.17
109293.44
109293.69
109293.94
109294.18
109294.41
109294.63
109294.85
109295.06
109295.26
109295.46
109295.65
109295.83
109296.01
109296.18
109296.35
109296.51
109296.67
109296.82
109296.97
109297.11
109297.25
109297.38
109297.51
109297.64
109297.76
109297.88
109298
109298.11
109298.22
109298.33
109298.43
109298.54
109298.63
109298.73
109298.82
109298.91
109299
109299.09
109299.17
109299.26
109299.34
109299.41
109299.49
109299.57
109299.64
109299.71
109299.78
109299.85
109299.92
109299.98
109300.05
109300.11
109300.17
109300.24
109300.3
109300.36
109300.41
109300.47
109300.53
109300.59
109300.64
109300.7
109300.75
109300.8
109300.86
109300.91
109300.96
109301.01
109301.06
109301.11
109301.16
109301.21
109301.26
109301.31
109301.36
109301.41
109301.45
109301.5
109301.55
109301.6
109301.65
109301.69
109301.74
109301.79
109301.84
109301.88
109301.93
109301.98
109302.03
109302.07
109302.12
109302.17
109302.22
109302.26
109302.31
109302.36
109302.41
109302.46
109302.51
109302.56
109302.61
109302.66
109302.7
109302.75
109302.81
109302.86
109302.91
109302.96
109303.01
109303.06
109303.11
109303.17
109303.22
109303.27
109303.33
109303.38
109303.43
109303.49
109303.54
109303.6
109303.65
109303.71
109303.77
109303.82
109303.88
109303.94
109304
109304.06
109304.12
109304.18
109304.24
109304.3
109304.36
109304.42
109304.49
109304.55
109304.61
109304.68
109304.74
109304.81
109304.87
109304.94
109305
109305.07
109305.14
109305.21
109305.28
109305.35
109305.42
109305.49
109305.56
109305.63
109305.7
109305.77
109305.85
109305.92
109306
109306.07
109306.15
109306.22
109306.3
109306.38
109306.46
109306.54
109306.61
109306.69
109306.78
109306.86
109306.94
109307.02
109307.1
109307.19
109307.27
109307.36
109307.44
109307.53
109307.62
109307.7
109307.79
109307.88
109307.97
109308.06
109308.15
109308.24
109308.33
109308.43
109308.52
109308.62
109308.71
109308.81
109308.9
109309
109309.1
109309.2
109309.29
109309.39
109309.49
109309.59
109309.7
109309.8
109309.9
109310
109310.11
109310.21
109310.32
109310.42
109310.53
109310.64
109310.75
109310.86
109310.97
109311.08
109311.19
109311.3
109311.41
109311.53
109311.64
109311.75
109311.87
109311.99
109312.1
109312.22
109312.34
109312.46
109312.58
109312.7
109312.82
109312.94
109313.07
109313.19
109313.32
109313.44
109313.57
109313.7
109313.82
109313.95
109314.08
109314.21
109314.34
109314.47
109314.61
109314.74
109314.87
109315.01
109315.14
109315.28
109315.42
109315.56
109315.7
109315.84
109315.98
109316.12
109316.26
109316.4
109316.55
109316.69
109316.84
109316.98
109317.13
109317.28
109317.43
109317.58
109317.73
109317.88
109318.03
109318.18
109318.34
109318.49
109318.65
109318.81
109318.97
109319.12
109319.28
109319.44
109319.61
109319.77
109319.93
109320.09
109320.26
109320.43
109320.59
109320.76
109320.93
109321.1
109321.27
109321.44
109321.62
109321.79
109321.97
109322.14
109322.32
109322.5
109322.68
109322.86
109323.04
109323.23
109323.41
109323.59
109323.78
109323.97
109324.16
109324.35
109324.54
109324.73
109324.93
109325.12
109325.32
109325.52
109325.71
109325.92
109326.12
109326.32
109326.52
109326.73
109326.94
109327.15
109327.36
109327.57
109327.78
109328
109328.22
109328.44
109328.66
109328.88
109329.1
109329.33
109329.56
109329.78
109330.02
109330.25
109330.49
109330.72
109330.96
109331.2
109331.45
109331.69
109331.94
109332.19
109332.45
109332.7
109332.96
109333.22
109333.49
109333.75
109334.02
109334.29
109334.57
109334.84
109335.12
109335.41
109335.69
109335.98
109336.27
109336.57
109336.87
109337.17
109337.47
109337.78
109338.09
109338.41
109338.73
109339.05
109339.38
109339.71
109340.04
109340.38
109340.73
109341.07
109341.43
109341.78
109342.14
109342.51
109342.88
109343.26
109343.64
109344.02
109344.41
109344.81
109345.21
109345.62
109346.04
109346.46
109346.89
109347.33
109347.77
109348.21
109348.67
109349.12
109349.59
109350.06
109350.54
109351.02
109351.51
109352.01
109352.52
109353.03
109353.55
109354.08
109354.62
109355.16
109355.71
109356.28
109356.85
109357.43
109358.02
109358.61
109359.22
109359.84
109360.46
109361.1
109361.75
109362.41
109363.07
109363.75
109364.44
109365.14
109365.85
109366.58
109367.31
109368.06
109368.82
109369.59
109370.38
109371.18
109371.99
109372.81
109373.65
109374.5
109375.37
109376.25
109377.14
109378.05
109378.98
109379.92
109380.88
109381.85
109382.84
109383.84
109384.86
109385.9
109386.95
109388.03
109389.12
109390.23
109391.35
109392.5
109393.66
109394.85
109396.05
109397.27
109398.52
109399.78
109401.06
109402.37
109403.7
109405.04
109406.41
109407.81
109409.22
109410.66
109412.12
109413.61
109415.11
109416.65
109418.2
109419.79
109421.39
109423.03
109424.69
109426.37
109428.08
109429.82
109431.59
109433.38
109435.2
109437.05
109438.93
109440.84
109442.77
109444.74
109446.73
109448.76
109450.82
109452.91
109455.02
109457.18
109459.36
109461.58
109463.82
109466.11
109468.42
109470.77
109473.16
109475.57
109478.03
109480.52
109483.04
109485.6
109488.2
109490.83
109493.51
109496.21
109498.96
109501.75
109504.57
109507.43
109510.33
109513.28
109516.26
109519.28
109522.34
109525.45
109528.59
109531.78
109535.01
109538.28
109541.59
109544.95
109548.35
109551.8
109555.28
109558.82
109562.4
109566.02
109569.69
109573.4
109577.16
109580.97
109584.82
109588.73
109592.67
109596.67
109600.71
109604.81
109608.95
109613.14
109617.38
109621.67
109626.01
109630.4
109634.83
109639.32
109643.87
109648.46
109653.1
109657.8
109662.55
109667.35
109672.2
109677.1
109682.06
109687.08
109692.14
109697.26
109702.43
109707.66
109712.94
109718.28
109723.67
109729.12
109734.63
109740.18
109745.8
109751.47
109757.19
109762.98
109768.82
109774.72
109780.67
109786.68
109792.74
109798.87
109805.05
109811.3
109817.6
109823.96
109830.38
109836.85
109843.38
109849.97
109856.62
109863.33
109870.1
109876.93
109883.82
109890.76
109897.77
109904.83
109911.96
109919.14
109926.39
109933.7
109941.07
109948.49
109955.98
109963.52
109971.13
109978.79
109986.52
109994.3
110002.15
110010.06
110018.03
110026.06
110034.15
110042.3
110050.51
110058.78
110067.11
110075.5
110083.96
110092.48
110101.05
110109.69
110118.38
110127.14
110135.96
110144.83
110153.77
110162.77
110171.83
110180.94
110190.12
110199.36
110208.66
110218.02
110227.44
110236.92
110246.46
110256.05
110265.71
110275.43
110285.21
110295.04
110304.94
110314.89
110324.9
110334.98
110345.11
110355.3
110365.55
110375.86
110386.22
110396.64
110407.12
110417.66
110428.26
110438.91
110449.63
110460.4
110471.22
110482.11
110493.05
110504.04
110515.1
110526.2
110537.37
110548.59
110559.87
110571.2
110582.59
110594.03
110605.53
110617.09
110628.7
110640.36
110652.08
110663.85
110675.67
110687.55
110699.49
110711.47
110723.51
110735.6
110747.75
110759.95
110772.2
110784.5
110796.85
110809.25
110821.71
110834.22
110846.78
110859.39
110872.05
110884.76
110897.52
110910.33
110923.19
110936.1
110949.06
110962.06
110975.12
110988.22
111001.38
111014.58
111027.82
111041.12
111054.46
111067.85
111081.28
111094.76
111108.28
111121.83
111135.42
111149.03
111162.67
111176.32
111189.99
111203.68
111217.38
111231.08
111244.78
111258.48
111272.18
111285.88
111299.58
111313.3
111327.02
111340.75
111354.49
111368.25
111382.04
111395.84
111409.66
111423.51
111437.39
111451.29
111465.23
111479.2
111493.2
111507.23
111521.29
111535.39
111549.51
111563.68
111577.87
111592.11
111606.37
111620.67
111635
111649.37
111663.78
111678.21
111692.68
111707.19
111721.72
111736.29
111750.9
111765.53
111780.2
111794.9
111809.63
111824.4
111839.19
111854.02
111868.88
111883.77
111898.69
111913.64
111928.62
111943.63
111958.68
111973.75
111988.85
112003.98
112019.13
112034.32
112049.54
112064.78
112080.05
112095.35
112110.68
112126.04
112141.42
112156.83
112172.26
112187.72
112203.21
112218.73
112234.27
112249.84
112265.43
112281.05
112296.69
112312.35
112328.04
112343.76
112359.5
112375.26
112391.05
112406.86
112422.7
112438.55
112454.43
112470.33
112486.26
112502.21
112518.18
112534.17
112550.18
112566.21
112582.27
112598.34
112614.44
112630.56
112646.69
112662.85
112679.03
112695.23
112711.44
112727.68
112743.93
112760.21
112776.5
112792.81
112809.14
112825.49
112841.85
112858.23
112874.63
112891.05
112907.49
112923.94
112940.4
112956.89
112973.39
112989.91
113006.44
113022.99
113039.55
113056.13
113072.73
113089.33
113105.96
113122.6
113139.25
113155.92
113172.6
113189.29
113206
113222.72
113239.46
113256.2
113272.96
113289.74
113306.52
113323.32
113340.13
113356.95
113373.79
113390.63
113407.49
113424.35
113441.23
113458.12
113475.02
113491.93
113508.85
113525.78
113542.72
113559.67
113576.63
113593.6
113610.58
113627.56
113644.56
113661.56
113678.57
113695.59
113712.62
113729.66
113746.7
113763.75
113780.81
113797.88
113814.95
113832.03
113849.11
113866.21
113883.31
113900.41
113917.52
113934.64
113951.76
113968.89
113986.02
114003.16
114020.3