/*--------------------------------*- C++ -*----------------------------------*\
  =========                 |
  \\      /  F ield         | OpenFOAM: The Open Source CFD Toolbox
   \\    /   O peration     | Website:  https://openfoam.org
    \\  /    A nd           | Version:  7
     \\/     M anipulation  |
\*---------------------------------------------------------------------------*/
FoamFile
{
    version     2.0;
    format      ascii;
    class       surfaceScalarField;
    location    "0.00279";
    object      phi;
}
// * * * * * * * * * * * * * * * * * * * * * * * * * * * * * * * * * * * * * //

dimensions      [1 0 -1 0 0 0 0];

internalField   nonuniform List<scalar> 
4999
(
-3.3083232
-3.3074902
-3.3066566
-3.3058227
-3.3049882
-3.3041534
-3.303318
-3.3024822
-3.3016459
-3.3008091
-3.2999717
-3.2991339
-3.2982955
-3.2974566
-3.2966171
-3.2957771
-3.2949365
-3.2940953
-3.2932535
-3.2924111
-3.2915681
-3.2907244
-3.2898801
-3.2890351
-3.2881894
-3.287343
-3.286496
-3.2856482
-3.2847996
-3.2839503
-3.2831003
-3.2822494
-3.2813978
-3.2805453
-3.2796921
-3.2788379
-3.2779829
-3.2771271
-3.2762703
-3.2754126
-3.274554
-3.2736944
-3.2728339
-3.2719723
-3.2711098
-3.2702462
-3.2693816
-3.268516
-3.2676492
-3.2667814
-3.2659124
-3.2650423
-3.264171
-3.2632986
-3.2624249
-3.2615501
-3.2606739
-3.2597966
-3.2589179
-3.2580379
-3.2571566
-3.256274
-3.2553899
-3.2545045
-3.2536177
-3.2527294
-3.2518397
-3.2509485
-3.2500557
-3.2491615
-3.2482656
-3.2473683
-3.2464693
-3.2455686
-3.2446664
-3.2437624
-3.2428568
-3.2419495
-3.2410404
-3.2401295
-3.2392169
-3.2383024
-3.2373861
-3.2364679
-3.2355479
-3.2346259
-3.233702
-3.2327761
-3.2318483
-3.2309184
-3.2299865
-3.2290526
-3.2281165
-3.2271784
-3.2262381
-3.2252956
-3.224351
-3.2234042
-3.2224551
-3.2215038
-3.2205502
-3.2195943
-3.218636
-3.2176755
-3.2167125
-3.2157471
-3.2147794
-3.2138091
-3.2128364
-3.2118612
-3.2108835
-3.2099033
-3.2089205
-3.2079351
-3.206947
-3.2059564
-3.2049631
-3.2039672
-3.2029685
-3.2019671
-3.200963
-3.1999561
-3.1989464
-3.197934
-3.1969187
-3.1959006
-3.1948796
-3.1938557
-3.1928289
-3.1917992
-3.1907666
-3.189731
-3.1886924
-3.1876508
-3.1866062
-3.1855586
-3.1845079
-3.1834542
-3.1823974
-3.1813375
-3.1802744
-3.1792083
-3.178139
-3.1770665
-3.1759909
-3.1749121
-3.1738301
-3.1727449
-3.1716564
-3.1705647
-3.1694696
-3.1683714
-3.1672697
-3.1661651
-3.1650568
-3.1639456
-3.1628307
-3.1617129
-3.1605913
-3.1594668
-3.1583386
-3.1572074
-3.1560724
-3.1549345
-3.1537927
-3.152648
-3.1514995
-3.150348
-3.1491927
-3.1480344
-3.1468722
-3.1457071
-3.1445381
-3.1433662
-3.1421904
-3.1410116
-3.1398289
-3.1386432
-3.1374537
-3.1362612
-3.1350648
-3.1338654
-3.1326622
-3.131456
-3.1302459
-3.1290328
-3.1278159
-3.126596
-3.1253722
-3.1241455
-3.1229149
-3.1216814
-3.120444
-3.1192037
-3.1179596
-3.1167125
-3.1154616
-3.1142078
-3.1129502
-3.1116896
-3.1104253
-3.1091581
-3.1078872
-3.1066133
-3.1053357
-3.1040553
-3.1027711
-3.1014841
-3.1001934
-3.0988999
-3.0976026
-3.0963026
-3.094999
-3.0936925
-3.0923825
-3.0910696
-3.0897532
-3.0884341
-3.0871113
-3.0857859
-3.084457
-3.0831253
-3.0817902
-3.0804524
-3.0791111
-3.0777672
-3.0764199
-3.0750699
-3.0737166
-3.0723607
-3.0710014
-3.0696396
-3.0682745
-3.0669068
-3.0655359
-3.0641625
-3.0627858
-3.0614067
-3.0600244
-3.0586396
-3.0572518
-3.0558615
-3.054468
-3.0530723
-3.0516734
-3.0502723
-3.0488681
-3.0474616
-3.0460521
-3.0446404
-3.0432257
-3.0418088
-3.040389
-3.038967
-3.0375421
-3.0361151
-3.0346853
-3.0332534
-3.0318187
-3.0303819
-3.0289425
-3.0275009
-3.0260567
-3.0246105
-3.0231617
-3.0217109
-3.0202575
-3.0188022
-3.0173443
-3.0158845
-3.0144223
-3.0129582
-3.0114916
-3.0100232
-3.0085525
-3.0070799
-3.005605
-3.0041283
-3.0026493
-3.0011686
-2.9996857
-2.9982011
-2.9967142
-2.9952257
-2.9937351
-2.9922428
-2.9907485
-2.9892525
-2.9877545
-2.9862549
-2.9847534
-2.9832503
-2.9817452
-2.9802387
-2.9787302
-2.9772203
-2.9757085
-2.9741953
-2.9726803
-2.9711639
-2.9696457
-2.9681262
-2.9666049
-2.9650824
-2.9635581
-2.9620326
-2.9605054
-2.958977
-2.957447
-2.9559158
-2.954383
-2.9528491
-2.9513136
-2.949777
-2.9482388
-2.9466996
-2.9451589
-2.9436171
-2.9420738
-2.9405295
-2.9389837
-2.9374369
-2.9358887
-2.9343394
-2.9327888
-2.9312372
-2.9296842
-2.9281302
-2.9265749
-2.9250186
-2.9234611
-2.9219026
-2.9203428
-2.9187821
-2.9172203
-2.9156575
-2.9140936
-2.9125288
-2.9109629
-2.9093962
-2.9078284
-2.9062598
-2.9046902
-2.9031198
-2.9015484
-2.8999763
-2.8984032
-2.8968295
-2.8952548
-2.8936794
-2.8921031
-2.8905262
-2.8889485
-2.8873701
-2.8857908
-2.884211
-2.8826306
-2.8810493
-2.879467
-2.8778847
-2.8763018
-2.8747173
-2.8731336
-2.8715477
-2.8699628
-2.8683757
-2.8667895
-2.8652015
-2.863614
-2.8620251
-2.8604363
-2.8588464
-2.8572565
-2.8556657
-2.8540747
-2.852483
-2.8508909
-2.8492983
-2.8477053
-2.8461117
-2.8445178
-2.8429234
-2.8413286
-2.8397333
-2.8381377
-2.8365416
-2.8349451
-2.8333483
-2.8317511
-2.8301534
-2.8285555
-2.8269571
-2.8253585
-2.8237594
-2.82216
-2.8205603
-2.8189603
-2.81736
-2.8157593
-2.8141583
-2.8125571
-2.8109555
-2.8093536
-2.8077516
-2.8061491
-2.8045465
-2.8029435
-2.8013403
-2.7997368
-2.7981332
-2.7965292
-2.7949251
-2.7933206
-2.791716
-2.7901111
-2.7885061
-2.7869008
-2.7852953
-2.7836896
-2.7820837
-2.7804776
-2.7788713
-2.7772648
-2.7756582
-2.7740513
-2.7724443
-2.7708371
-2.7692298
-2.7676223
-2.7660146
-2.7644068
-2.7627988
-2.7611906
-2.7595824
-2.757974
-2.7563654
-2.7547567
-2.7531479
-2.751539
-2.7499299
-2.7483207
-2.7467114
-2.7451019
-2.7434924
-2.7418827
-2.740273
-2.7386631
-2.7370531
-2.735443
-2.7338328
-2.7322226
-2.7306122
-2.7290017
-2.7273911
-2.7257804
-2.7241697
-2.7225588
-2.7209478
-2.7193367
-2.7177256
-2.7161143
-2.7145029
-2.7128915
-2.7112799
-2.7096682
-2.7080564
-2.7064445
-2.7048325
-2.7032204
-2.7016082
-2.6999959
-2.6983835
-2.6967709
-2.6951583
-2.6935455
-2.6919326
-2.6903197
-2.6887066
-2.6870934
-2.6854801
-2.6838667
-2.6822532
-2.6806397
-2.679026
-2.6774122
-2.6757984
-2.6741844
-2.6725704
-2.6709563
-2.6693422
-2.6677279
-2.6661136
-2.6644992
-2.6628848
-2.6612703
-2.6596557
-2.6580411
-2.6564264
-2.6548117
-2.6531969
-2.6515821
-2.6499672
-2.6483523
-2.6467373
-2.6451223
-2.6435073
-2.6418922
-2.640277
-2.6386618
-2.6370466
-2.6354314
-2.6338161
-2.6322007
-2.6305853
-2.6289699
-2.6273545
-2.625739
-2.6241235
-2.6225079
-2.6208923
-2.6192767
-2.617661
-2.6160453
-2.6144296
-2.6128138
-2.611198
-2.6095821
-2.6079663
-2.6063503
-2.6047344
-2.6031184
-2.6015024
-2.5998864
-2.5982703
-2.5966542
-2.595038
-2.5934218
-2.5918056
-2.5901894
-2.5885731
-2.5869568
-2.5853404
-2.583724
-2.5821076
-2.5804912
-2.5788747
-2.5772581
-2.5756416
-2.574025
-2.5724084
-2.5707917
-2.5691751
-2.5675583
-2.5659416
-2.5643248
-2.562708
-2.5610911
-2.5594742
-2.5578573
-2.5562404
-2.5546234
-2.5530064
-2.5513893
-2.5497722
-2.5481551
-2.5465379
-2.5449207
-2.5433035
-2.5416863
-2.540069
-2.5384516
-2.5368343
-2.5352169
-2.5335994
-2.531982
-2.5303645
-2.5287469
-2.5271293
-2.5255117
-2.5238941
-2.5222764
-2.5206587
-2.519041
-2.5174232
-2.5158054
-2.5141875
-2.5125696
-2.5109517
-2.5093337
-2.5077157
-2.5060977
-2.5044797
-2.5028616
-2.5012434
-2.4996253
-2.4980071
-2.4963888
-2.4947706
-2.4931523
-2.4915339
-2.4899156
-2.4882972
-2.4866787
-2.4850602
-2.4834417
-2.4818232
-2.4802046
-2.478586
-2.4769673
-2.4753486
-2.4737299
-2.4721111
-2.4704923
-2.4688734
-2.4672545
-2.4656356
-2.4640166
-2.4623975
-2.4607784
-2.4591593
-2.4575401
-2.4559208
-2.4543015
-2.4526821
-2.4510626
-2.4494431
-2.4478235
-2.4462039
-2.4445842
-2.4429644
-2.4413445
-2.4397245
-2.4381045
-2.4364844
-2.4348642
-2.433244
-2.4316236
-2.4300032
-2.4283827
-2.4267621
-2.4251414
-2.4235207
-2.4218998
-2.4202789
-2.418658
-2.4170369
-2.4154158
-2.4137946
-2.4121733
-2.4105519
-2.4089305
-2.407309
-2.4056875
-2.4040659
-2.4024442
-2.4008224
-2.3992006
-2.3975788
-2.3959569
-2.3943349
-2.3927129
-2.3910908
-2.3894686
-2.3878464
-2.3862242
-2.3846019
-2.3829796
-2.3813572
-2.3797347
-2.3781122
-2.3764897
-2.3748671
-2.3732445
-2.3716218
-2.3699991
-2.3683764
-2.3667536
-2.3651307
-2.3635078
-2.3618849
-2.3602619
-2.3586389
-2.3570158
-2.3553927
-2.3537696
-2.3521464
-2.3505231
-2.3488998
-2.3472765
-2.3456531
-2.3440297
-2.3424063
-2.3407828
-2.3391592
-2.3375356
-2.335912
-2.3342884
-2.3326646
-2.3310409
-2.3294171
-2.3277933
-2.3261694
-2.3245454
-2.3229215
-2.3212975
-2.3196734
-2.3180493
-2.3164252
-2.314801
-2.3131768
-2.3115525
-2.3099282
-2.3083039
-2.3066795
-2.305055
-2.3034305
-2.301806
-2.3001815
-2.2985569
-2.2969322
-2.2953075
-2.2936828
-2.292058
-2.2904332
-2.2888083
-2.2871834
-2.2855585
-2.2839335
-2.2823085
-2.2806834
-2.2790583
-2.2774332
-2.275808
-2.2741828
-2.2725575
-2.2709322
-2.2693068
-2.2676814
-2.266056
-2.2644305
-2.262805
-2.2611794
-2.2595538
-2.2579282
-2.2563025
-2.2546768
-2.253051
-2.2514252
-2.2497994
-2.2481735
-2.2465476
-2.2449216
-2.2432956
-2.2416696
-2.2400435
-2.2384174
-2.2367912
-2.235165
-2.2335388
-2.2319125
-2.2302862
-2.2286598
-2.2270334
-2.2254069
-2.2237804
-2.2221538
-2.2205272
-2.2189006
-2.2172739
-2.2156471
-2.2140203
-2.2123935
-2.2107665
-2.2091396
-2.2075126
-2.2058855
-2.2042583
-2.2026311
-2.2010039
-2.1993766
-2.1977492
-2.1961217
-2.1944942
-2.1928666
-2.191239
-2.1896112
-2.1879834
-2.1863556
-2.1847276
-2.1830996
-2.1814716
-2.1798434
-2.1782152
-2.1765869
-2.1749585
-2.1733301
-2.1717016
-2.170073
-2.1684443
-2.1668156
-2.1651868
-2.1635579
-2.161929
-2.1603
-2.1586709
-2.1570418
-2.1554126
-2.1537833
-2.152154
-2.1505246
-2.1488951
-2.1472656
-2.145636
-2.1440064
-2.1423767
-2.140747
-2.1391172
-2.1374873
-2.1358574
-2.1342275
-2.1325975
-2.1309674
-2.1293373
-2.1277072
-2.126077
-2.1244467
-2.1228165
-2.1211861
-2.1195557
-2.1179253
-2.1162949
-2.1146644
-2.1130338
-2.1114032
-2.1097726
-2.1081419
-2.1065112
-2.1048804
-2.1032497
-2.1016188
-2.0999879
-2.098357
-2.0967261
-2.0950951
-2.093464
-2.091833
-2.0902019
-2.0885707
-2.0869395
-2.0853083
-2.083677
-2.0820457
-2.0804144
-2.078783
-2.0771516
-2.0755202
-2.0738887
-2.0722572
-2.0706256
-2.068994
-2.0673624
-2.0657307
-2.064099
-2.0624672
-2.0608354
-2.0592036
-2.0575718
-2.0559399
-2.054308
-2.052676
-2.051044
-2.049412
-2.0477799
-2.0461478
-2.0445156
-2.0428835
-2.0412512
-2.039619
-2.0379867
-2.0363544
-2.034722
-2.0330897
-2.0314572
-2.0298248
-2.0281923
-2.0265598
-2.0249272
-2.0232946
-2.021662
-2.0200294
-2.0183967
-2.016764
-2.0151312
-2.0134984
-2.0118656
-2.0102328
-2.0085999
-2.006967
-2.0053341
-2.0037011
-2.0020681
-2.0004351
-1.998802
-1.9971689
-1.9955358
-1.9939026
-1.9922694
-1.9906362
-1.989003
-1.9873697
-1.9857364
-1.9841031
-1.9824697
-1.9808363
-1.9792029
-1.9775695
-1.975936
-1.9743025
-1.9726689
-1.9710353
-1.9694017
-1.9677681
-1.9661344
-1.9645007
-1.962867
-1.9612332
-1.9595994
-1.9579656
-1.9563317
-1.9546978
-1.9530638
-1.9514298
-1.9497958
-1.9481617
-1.9465276
-1.9448935
-1.9432593
-1.941625
-1.9399908
-1.9383564
-1.9367221
-1.9350876
-1.9334532
-1.9318187
-1.9301841
-1.9285495
-1.9269149
-1.9252802
-1.9236454
-1.9220106
-1.9203758
-1.9187409
-1.9171059
-1.9154709
-1.9138359
-1.9122008
-1.9105656
-1.9089304
-1.9072952
-1.9056599
-1.9040245
-1.9023891
-1.9007537
-1.8991182
-1.8974827
-1.8958471
-1.8942115
-1.8925758
-1.8909401
-1.8893044
-1.8876686
-1.8860328
-1.8843969
-1.882761
-1.8811251
-1.8794891
-1.8778531
-1.8762171
-1.8745811
-1.872945
-1.8713088
-1.8696727
-1.8680365
-1.8664003
-1.8647641
-1.8631278
-1.8614915
-1.8598552
-1.8582189
-1.8565825
-1.8549461
-1.8533097
-1.8516733
-1.8500369
-1.8484004
-1.846764
-1.8451275
-1.843491
-1.8418544
-1.8402179
-1.8385813
-1.8369447
-1.8353081
-1.8336715
-1.8320349
-1.8303983
-1.8287616
-1.827125
-1.8254883
-1.8238516
-1.8222149
-1.8205781
-1.8189414
-1.8173046
-1.8156679
-1.8140311
-1.8123943
-1.8107575
-1.8091207
-1.8074839
-1.8058471
-1.8042102
-1.8025733
-1.8009365
-1.7992996
-1.7976627
-1.7960258
-1.7943889
-1.7927519
-1.791115
-1.7894781
-1.7878411
-1.7862041
-1.7845671
-1.7829301
-1.7812931
-1.7796561
-1.7780191
-1.7763821
-1.774745
-1.773108
-1.7714709
-1.7698338
-1.7681967
-1.7665596
-1.7649225
-1.7632854
-1.7616483
-1.7600111
-1.758374
-1.7567368
-1.7550997
-1.7534625
-1.7518253
-1.7501881
-1.7485509
-1.7469137
-1.7452765
-1.7436392
-1.742002
-1.7403648
-1.7387275
-1.7370902
-1.7354529
-1.7338157
-1.7321784
-1.7305411
-1.7289037
-1.7272664
-1.7256291
-1.7239917
-1.7223544
-1.720717
-1.7190796
-1.7174422
-1.7158049
-1.7141674
-1.71253
-1.7108926
-1.7092551
-1.7076177
-1.7059802
-1.7043427
-1.7027053
-1.7010677
-1.6994302
-1.6977927
-1.6961551
-1.6945176
-1.69288
-1.6912424
-1.6896047
-1.6879671
-1.6863294
-1.6846918
-1.6830541
-1.6814163
-1.6797786
-1.6781408
-1.676503
-1.6748652
-1.6732273
-1.6715895
-1.6699515
-1.6683136
-1.6666757
-1.6650377
-1.6633996
-1.6617616
-1.6601235
-1.6584854
-1.6568472
-1.655209
-1.6535708
-1.6519325
-1.6502942
-1.6486559
-1.6470175
-1.6453791
-1.6437407
-1.6421022
-1.6404637
-1.6388251
-1.6371865
-1.6355479
-1.6339092
-1.6322705
-1.6306317
-1.6289929
-1.6273541
-1.6257152
-1.6240763
-1.6224374
-1.6207984
-1.6191594
-1.6175204
-1.6158813
-1.6142422
-1.612603
-1.6109639
-1.6093246
-1.6076854
-1.6060461
-1.6044068
-1.6027675
-1.6011281
-1.5994887
-1.5978493
-1.5962098
-1.5945703
-1.5929308
-1.5912913
-1.5896517
-1.5880121
-1.5863725
-1.5847328
-1.5830932
-1.5814535
-1.5798137
-1.578174
-1.5765342
-1.5748945
-1.5732546
-1.5716148
-1.569975
-1.5683351
-1.5666952
-1.5650553
-1.5634153
-1.5617754
-1.5601354
-1.5584954
-1.5568554
-1.5552154
-1.5535753
-1.5519352
-1.5502951
-1.548655
-1.5470149
-1.5453747
-1.5437345
-1.5420943
-1.5404541
-1.5388139
-1.5371736
-1.5355334
-1.5338931
-1.5322527
-1.5306124
-1.5289721
-1.5273317
-1.5256913
-1.5240509
-1.5224105
-1.52077
-1.5191295
-1.517489
-1.5158485
-1.514208
-1.5125674
-1.5109269
-1.5092863
-1.5076457
-1.506005
-1.5043644
-1.5027237
-1.501083
-1.4994423
-1.4978016
-1.4961608
-1.49452
-1.4928792
-1.4912384
-1.4895976
-1.4879567
-1.4863158
-1.4846749
-1.483034
-1.4813931
-1.4797521
-1.4781111
-1.4764701
-1.4748291
-1.473188
-1.4715469
-1.4699059
-1.4682647
-1.4666236
-1.4649824
-1.4633413
-1.4617001
-1.4600588
-1.4584176
-1.4567763
-1.455135
-1.4534937
-1.4518524
-1.450211
-1.4485696
-1.4469282
-1.4452868
-1.4436453
-1.4420039
-1.4403624
-1.4387209
-1.4370793
-1.4354377
-1.4337961
-1.4321545
-1.4305129
-1.4288712
-1.4272295
-1.4255878
-1.423946
-1.4223043
-1.4206625
-1.4190206
-1.4173788
-1.4157369
-1.4140949
-1.412453
-1.410811
-1.409169
-1.407527
-1.4058849
-1.4042428
-1.4026006
-1.4009584
-1.3993162
-1.397674
-1.3960317
-1.3943893
-1.392747
-1.3911046
-1.3894621
-1.3878196
-1.3861771
-1.3845345
-1.3828919
-1.3812492
-1.3796065
-1.3779638
-1.376321
-1.3746782
-1.3730353
-1.3713924
-1.3697494
-1.3681064
-1.3664633
-1.3648202
-1.363177
-1.3615338
-1.3598905
-1.3582472
-1.3566038
-1.3549604
-1.353317
-1.3516734
-1.3500299
-1.3483863
-1.3467426
-1.3450989
-1.3434551
-1.3418113
-1.3401675
-1.3385236
-1.3368796
-1.3352356
-1.3335916
-1.3319475
-1.3303034
-1.3286592
-1.327015
-1.3253707
-1.3237264
-1.322082
-1.3204376
-1.3187932
-1.3171487
-1.3155041
-1.3138596
-1.312215
-1.3105703
-1.3089256
-1.3072809
-1.3056361
-1.3039913
-1.3023465
-1.3007016
-1.2990567
-1.2974117
-1.2957667
-1.2941217
-1.2924766
-1.2908315
-1.2891864
-1.2875412
-1.285896
-1.2842508
-1.2826056
-1.2809603
-1.2793149
-1.2776696
-1.2760242
-1.2743788
-1.2727333
-1.2710879
-1.2694423
-1.2677968
-1.2661512
-1.2645056
-1.26286
-1.2612144
-1.2595687
-1.257923
-1.2562772
-1.2546314
-1.2529856
-1.2513398
-1.249694
-1.2480481
-1.2464022
-1.2447562
-1.2431103
-1.2414643
-1.2398182
-1.2381722
-1.2365261
-1.23488
-1.2332339
-1.2315877
-1.2299415
-1.2282953
-1.2266491
-1.2250028
-1.2233565
-1.2217102
-1.2200639
-1.2184175
-1.2167711
-1.2151247
-1.2134782
-1.2118318
-1.2101853
-1.2085387
-1.2068922
-1.2052456
-1.203599
-1.2019523
-1.2003057
-1.198659
-1.1970123
-1.1953656
-1.1937188
-1.192072
-1.1904252
-1.1887784
-1.1871315
-1.1854846
-1.1838377
-1.1821907
-1.1805438
-1.1788968
-1.1772497
-1.1756027
-1.1739556
-1.1723085
-1.1706614
-1.1690142
-1.167367
-1.1657198
-1.1640726
-1.1624253
-1.160778
-1.1591306
-1.1574833
-1.1558359
-1.1541885
-1.152541
-1.1508935
-1.149246
-1.1475985
-1.1459509
-1.1443033
-1.1426557
-1.141008
-1.1393603
-1.1377125
-1.1360647
-1.1344169
-1.1327691
-1.1311212
-1.1294733
-1.1278253
-1.1261773
-1.1245293
-1.1228812
-1.1212331
-1.1195849
-1.1179367
-1.1162885
-1.1146402
-1.1129919
-1.1113435
-1.1096951
-1.1080467
-1.1063982
-1.1047496
-1.103101
-1.1014524
-1.0998037
-1.098155
-1.0965063
-1.0948575
-1.0932086
-1.0915597
-1.0899108
-1.0882618
-1.0866127
-1.0849636
-1.0833145
-1.0816653
-1.0800161
-1.0783668
-1.0767175
-1.0750682
-1.0734188
-1.0717693
-1.0701198
-1.0684703
-1.0668207
-1.065171
-1.0635214
-1.0618716
-1.0602219
-1.0585721
-1.0569222
-1.0552723
-1.0536224
-1.0519724
-1.0503224
-1.0486723
-1.0470222
-1.0453721
-1.0437219
-1.0420717
-1.0404214
-1.0387711
-1.0371208
-1.0354704
-1.03382
-1.0321696
-1.0305191
-1.0288686
-1.027218
-1.0255674
-1.0239168
-1.0222661
-1.0206154
-1.0189647
-1.017314
-1.0156632
-1.0140124
-1.0123615
-1.0107106
-1.0090597
-1.0074088
-1.0057578
-1.0041068
-1.0024557
-1.0008047
-0.99915356
-0.99750244
-0.99585128
-0.9942001
-0.99254889
-0.99089765
-0.98924638
-0.98759508
-0.98594376
-0.98429241
-0.98264103
-0.98098962
-0.97933819
-0.97768673
-0.97603524
-0.97438373
-0.97273219
-0.97108062
-0.96942902
-0.9677774
-0.96612575
-0.96447408
-0.96282238
-0.96117065
-0.9595189
-0.95786712
-0.95621532
-0.95456349
-0.95291164
-0.95125976
-0.94960786
-0.94795593
-0.94630397
-0.94465199
-0.94299998
-0.94134794
-0.93969588
-0.9380438
-0.9363917
-0.93473956
-0.93308741
-0.93143523
-0.92978303
-0.9281308
-0.92647855
-0.92482627
-0.92317397
-0.92152164
-0.91986929
-0.91821692
-0.91656452
-0.9149121
-0.91325966
-0.91160719
-0.90995469
-0.90830217
-0.90664962
-0.90499705
-0.90334445
-0.90169183
-0.90003919
-0.89838652
-0.89673383
-0.89508112
-0.89342839
-0.89177563
-0.89012285
-0.88847005
-0.88681722
-0.88516437
-0.8835115
-0.8818586
-0.88020568
-0.87855274
-0.87689978
-0.87524679
-0.87359378
-0.87194075
-0.87028769
-0.86863461
-0.8669815
-0.86532838
-0.86367523
-0.86202206
-0.86036886
-0.85871564
-0.8570624
-0.85540914
-0.85375585
-0.85210254
-0.8504492
-0.84879585
-0.84714246
-0.84548906
-0.84383564
-0.84218219
-0.84052872
-0.83887522
-0.8372217
-0.83556816
-0.83391459
-0.832261
-0.83060739
-0.82895375
-0.82730009
-0.82564641
-0.82399271
-0.82233898
-0.82068524
-0.81903147
-0.81737767
-0.81572386
-0.81407002
-0.81241616
-0.81076227
-0.80910837
-0.80745444
-0.80580049
-0.80414652
-0.80249253
-0.80083853
-0.7991845
-0.79753046
-0.7958764
-0.79422232
-0.79256823
-0.79091413
-0.78926001
-0.78760588
-0.78595174
-0.78429759
-0.78264342
-0.78098924
-0.77933506
-0.77768087
-0.77602667
-0.77437247
-0.77271826
-0.77106406
-0.76940986
-0.76775566
-0.76610146
-0.76444727
-0.76279308
-0.7611389
-0.75948474
-0.75783058
-0.75617644
-0.75452232
-0.75286821
-0.75121413
-0.74956006
-0.74790602
-0.74625201
-0.74459802
-0.74294407
-0.74129015
-0.73963626
-0.73798242
-0.73632862
-0.73467486
-0.73302115
-0.73136749
-0.72971388
-0.72806032
-0.72640682
-0.72475338
-0.7231
-0.72144668
-0.71979343
-0.71814026
-0.71648715
-0.71483413
-0.71318118
-0.71152832
-0.70987554
-0.70822286
-0.70657026
-0.70491776
-0.70326536
-0.70161305
-0.69996085
-0.69830876
-0.69665677
-0.6950049
-0.69335314
-0.69170151
-0.69005
-0.68839861
-0.68674736
-0.68509623
-0.68344525
-0.6817944
-0.68014369
-0.67849313
-0.67684271
-0.67519245
-0.67354234
-0.67189239
-0.67024259
-0.66859297
-0.66694351
-0.66529422
-0.66364511
-0.66199617
-0.66034742
-0.65869885
-0.65705046
-0.65540227
-0.65375427
-0.65210647
-0.65045887
-0.64881147
-0.64716428
-0.64551729
-0.64387052
-0.64222397
-0.64057764
-0.63893152
-0.63728563
-0.63563997
-0.63399454
-0.63234934
-0.63070438
-0.62905966
-0.62741519
-0.62577096
-0.62412698
-0.62248326
-0.62083979
-0.61919658
-0.61755362
-0.61591094
-0.61426852
-0.61262637
-0.61098449
-0.60934289
-0.60770156
-0.60606052
-0.60441975
-0.60277928
-0.60113909
-0.5994992
-0.59785959
-0.59622029
-0.59458128
-0.59294258
-0.59130418
-0.58966608
-0.5880283
-0.58639082
-0.58475366
-0.58311681
-0.58148028
-0.57984407
-0.57820819
-0.57657262
-0.57493739
-0.57330248
-0.57166791
-0.57003367
-0.56839976
-0.56676619
-0.56513296
-0.56350007
-0.56186752
-0.56023532
-0.55860347
-0.55697196
-0.5553408
-0.55370999
-0.55207954
-0.55044943
-0.54881969
-0.5471903
-0.54556127
-0.5439326
-0.54230429
-0.54067635
-0.53904876
-0.53742154
-0.53579469
-0.53416821
-0.53254209
-0.53091635
-0.52929097
-0.52766597
-0.52604133
-0.52441707
-0.52279319
-0.52116967
-0.51954654
-0.51792377
-0.51630138
-0.51467937
-0.51305773
-0.51143647
-0.50981558
-0.50819507
-0.50657494
-0.50495519
-0.50333581
-0.5017168
-0.50009818
-0.49847993
-0.49686205
-0.49524455
-0.49362742
-0.49201067
-0.4903943
-0.4887783
-0.48716267
-0.48554741
-0.48393253
-0.48231801
-0.48070387
-0.4790901
-0.4774767
-0.47586366
-0.47425099
-0.47263868
-0.47102673
-0.46941515
-0.46780392
-0.46619306
-0.46458255
-0.4629724
-0.4613626
-0.45975315
-0.45814406
-0.45653531
-0.45492692
-0.45331887
-0.45171116
-0.4501038
-0.44849678
-0.44689009
-0.44528374
-0.44367773
-0.44207206
-0.44046671
-0.43886169
-0.43725701
-0.43565264
-0.4340486
-0.43244488
-0.43084148
-0.42923839
-0.42763562
-0.42603316
-0.42443101
-0.42282917
-0.42122763
-0.41962639
-0.41802545
-0.41642481
-0.41482446
-0.41322441
-0.41162465
-0.41002517
-0.40842598
-0.40682707
-0.40522845
-0.4036301
-0.40203203
-0.40043424
-0.39883671
-0.39723945
-0.39564246
-0.39404573
-0.39244926
-0.39085304
-0.38925708
-0.38766138
-0.38606592
-0.38447071
-0.38287574
-0.38128102
-0.37968653
-0.37809228
-0.37649826
-0.37490447
-0.37331091
-0.37171757
-0.37012445
-0.36853155
-0.36693886
-0.36534639
-0.36375413
-0.36216207
-0.36057022
-0.35897856
-0.3573871
-0.35579583
-0.35420476
-0.35261388
-0.35102318
-0.34943267
-0.34784233
-0.34625218
-0.34466219
-0.34307238
-0.34148274
-0.33989326
-0.33830394
-0.33671478
-0.33512578
-0.33353693
-0.33194823
-0.33035967
-0.32877126
-0.32718298
-0.32559484
-0.32400683
-0.32241895
-0.32083119
-0.31924356
-0.31765605
-0.31606865
-0.31448137
-0.31289419
-0.31130712
-0.30972016
-0.30813329
-0.30654652
-0.30495984
-0.30337325
-0.30178675
-0.30020033
-0.29861399
-0.29702773
-0.29544154
-0.29385542
-0.29226937
-0.29068337
-0.28909744
-0.28751156
-0.28592573
-0.28433995
-0.28275421
-0.2811685
-0.27958284
-0.2779972
-0.2764116
-0.27482601
-0.27324045
-0.2716549
-0.27006937
-0.26848385
-0.26689833
-0.26531281
-0.26372728
-0.26214176
-0.26055622
-0.25897066
-0.25738509
-0.25579949
-0.25421387
-0.25262821
-0.25104252
-0.24945679
-0.24787102
-0.24628519
-0.24469932
-0.24311338
-0.24152738
-0.23994131
-0.23835517
-0.23676895
-0.23518265
-0.23359626
-0.23200977
-0.23042319
-0.22883651
-0.22724971
-0.22566281
-0.22407578
-0.22248863
-0.22090135
-0.21931394
-0.21772639
-0.2161387
-0.21455086
-0.21296287
-0.21137471
-0.20978639
-0.20819791
-0.20660925
-0.2050204
-0.20343137
-0.20184215
-0.20025273
-0.19866311
-0.19707328
-0.19548323
-0.19389296
-0.19230247
-0.19071174
-0.18912077
-0.18752955
-0.18593809
-0.18434636
-0.18275437
-0.18116211
-0.17956958
-0.17797676
-0.17638365
-0.17479026
-0.17319656
-0.17160256
-0.17000825
-0.16841362
-0.16681867
-0.16522339
-0.16362778
-0.16203183
-0.16043554
-0.1588389
-0.15724191
-0.15564456
-0.15404684
-0.15244876
-0.15085029
-0.14925145
-0.14765221
-0.14605259
-0.14445256
-0.14285213
-0.14125129
-0.13965004
-0.13804836
-0.13644625
-0.13484372
-0.13324074
-0.13163733
-0.13003347
-0.12842916
-0.12682439
-0.12521916
-0.12361347
-0.12200731
-0.12040067
-0.11879356
-0.11718597
-0.11557789
-0.11396932
-0.11236025
-0.11075068
-0.10914062
-0.10753004
-0.10591896
-0.10430737
-0.10269526
-0.10108263
-0.099469485
-0.097855818
-0.096241627
-0.094626911
-0.093011665
-0.091395888
-0.089779575
-0.088162721
-0.086545323
-0.084927375
-0.083308874
-0.081689816
-0.080070197
-0.078450016
-0.076829271
-0.075207961
-0.073586083
-0.071963638
-0.070340623
-0.068717037
-0.067092879
-0.065468147
-0.06384284
-0.062216957
-0.060590495
-0.058963455
-0.057335835
-0.055707633
-0.054078848
-0.052449479
-0.050819525
-0.049188987
-0.047557863
-0.045926152
-0.044293854
-0.042660969
-0.041027496
-0.039393435
-0.037758786
-0.036123548
-0.034487722
-0.032851308
-0.031214305
-0.029576715
-0.027938537
-0.026299771
-0.024660419
-0.02302048
-0.021379955
-0.019738846
-0.018097151
-0.016454874
-0.014812013
-0.01316857
-0.011524546
-0.0098799418
-0.0082347567
-0.0065889906
-0.0049426407
-0.0032956988
-0.0016481388
1.2744853e-07
0.0016485035
0.0032975836
0.0049472746
0.0065975469
0.0082483885
0.0098997932
0.011551757
0.013204276
0.014857348
0.016510969
0.018165138
0.019819851
0.021475106
0.023130899
0.024787228
0.02644409
0.028101482
0.029759401
0.031417845
0.033076809
0.03473629
0.036396286
0.038056794
0.039717809
0.041379328
0.043041349
0.044703867
0.046366879
0.048030382
0.049694371
0.051358843
0.053023795
0.054689222
0.056355121
0.058021489
0.05968832
0.061355611
0.063023359
0.064691558
0.066360206
0.068029299
0.069698832
0.071368802
0.073039205
0.074710039
0.076381299
0.078052981
0.079725083
0.0813976
0.083070526
0.084743857
0.086417587
0.08809171
0.089766219
0.091441109
0.093116375
0.094792012
0.096468015
0.098144382
0.099821109
0.10149819
0.10317563
0.10485342
0.10653155
0.10821003
0.10988885
0.111568
0.11324749
0.1149273
0.11660744
0.11828789
0.11996866
0.12164974
0.12333112
0.12501281
0.12669479
0.12837706
0.13005963
0.13174248
0.1334256
0.13510901
0.13679269
0.13847663
0.14016084
0.14184531
0.14353003
0.14521501
0.14690023
0.14858569
0.15027139
0.15195732
0.15364348
0.15532986
0.15701647
0.15870329
0.16039033
0.16207758
0.16376503
0.16545269
0.16714056
0.16882861
0.17051687
0.17220531
0.17389394
0.17558275
0.17727175
0.17896093
0.18065027
0.18233979
0.18402948
0.18571933
0.18740935
0.18909952
0.19078984
0.19248031
0.19417093
0.1958617
0.1975526
0.19924364
0.20093481
0.20262612
0.20431755
0.20600911
0.20770079
0.20939258
0.2110845
0.21277653
0.21446867
0.21616092
0.21785328
0.21954574
0.22123831
0.22293097
0.22462373
0.22631659
0.22800954
0.22970259
0.23139572
0.23308894
0.23478224
0.23647562
0.23816908
0.23986262
0.24155623
0.24324992
0.24494367
0.24663749
0.24833137
0.25002532
0.25171933
0.2534134
0.25510753
0.25680171
0.25849594
0.26019023
0.26188457
0.26357896
0.2652734
0.26696788
0.26866241
0.27035698
0.27205159
0.27374625
0.27544094
0.27713567
0.27883044
0.28052525
0.28222009
0.28391496
0.28560986
0.28730479
0.28899975
0.29069473
0.29238974
0.29408477
0.29577983
0.29747491
0.29917001
0.30086513
0.30256027
0.30425543
0.30595061
0.3076458
0.30934101
0.31103623
0.31273147
0.31442672
0.31612199
0.31781726
0.31951255
0.32120785
0.32290317
0.32459849
0.32629382
0.32798916
0.32968451
0.33137987
0.33307523
0.3347706
0.33646598
0.33816136
0.33985675
0.34155214
0.34324754
0.34494294
0.34663834
0.34833375
0.35002917
0.35172459
0.35342001
0.35511544
0.35681087
0.3585063
0.36020174
0.36189718
0.36359262
0.36528807
0.36698353
0.36867898
0.37037444
0.37206991
0.37376538
0.37546086
0.37715633
0.37885182
0.38054731
0.3822428
0.3839383
0.3856338
0.38732931
0.38902483
0.39072035
0.39241587
0.3941114
0.39580693
0.39750248
0.39919802
0.40089357
0.40258913
0.4042847
0.40598027
0.40767585
0.40937144
0.41106704
0.41276264
0.41445825
0.41615388
0.41784951
0.41954515
0.4212408
0.42293645
0.42463212
0.42632779
0.42802347
0.42971917
0.43141487
0.43311057
0.43480629
0.43650202
0.43819776
0.43989351
0.44158927
0.44328503
0.44498081
0.44667659
0.44837239
0.45006819
0.451764
0.45345982
0.45515564
0.45685148
0.45854732
0.46024317
0.46193902
0.46363489
0.46533075
0.46702663
0.46872251
0.47041839
0.47211428
0.47381017
0.47550607
0.47720196
0.47889786
0.48059376
0.48228966
0.48398557
0.48568147
0.48737737
0.48907327
0.49076917
0.49246507
0.49416097
0.49585687
0.49755276
0.49924866
0.50094455
0.50264043
0.50433631
0.50603219
0.50772806
0.50942393
0.5111198
0.51281565
0.5145115
0.51620735
0.51790319
0.51959902
0.52129484
0.52299066
0.52468647
0.52638227
0.52807806
0.52977384
0.53146961
0.53316538
0.53486113
0.53655688
0.53825261
0.53994834
0.54164405
0.54333976
0.54503545
0.54673113
0.5484268
0.55012246
0.55181811
0.55351374
0.55520936
0.55690497
0.55860056
0.56029614
0.56199171
0.56368726
0.56538281
0.56707833
0.56877384
0.57046934
0.57216482
0.57386029
0.57555575
0.57725119
0.57894661
0.58064202
0.58233742
0.5840328
0.58572816
0.58742352
0.58911885
0.59081418
0.59250948
0.59420477
0.59590005
0.59759531
0.59929055
0.60098578
0.60268099
0.60437619
0.60607137
0.60776653
0.60946168
0.61115681
0.61285192
0.61454702
0.61624211
0.61793718
0.61963223
0.62132726
0.62302228
0.62471729
0.62641228
0.62810725
0.62980221
0.63149715
0.63319207
0.63488698
0.63658188
0.63827676
0.63997162
0.64166647
0.6433613
0.64505611
0.64675091
0.64844569
0.65014045
0.6518352
0.65352994
0.65522466
0.65691936
0.65861404
0.66030872
0.66200337
0.66369801
0.66539263
0.66708724
0.66878183
0.67047641
0.67217097
0.67386552
0.67556005
0.67725456
0.67894907
0.68064354
0.68233802
0.68403247
0.68572692
0.68742135
0.68911576
0.69081017
0.69250456
0.69419894
0.69589331
0.69758766
0.69928201
0.70097633
0.70267066
0.70436496
0.70605925
0.70775354
0.7094478
0.71114206
0.7128363
0.71453053
0.71622476
0.71791897
0.71961316
0.72130736
0.72300153
0.72469571
0.72638987
0.72808402
0.72977817
0.7314723
0.73316643
0.73486055
0.73655466
0.73824875
0.73994285
0.74163693
0.743331
0.74502507
0.74671913
0.74841318
0.75010723
0.75180127
0.7534953
0.75518933
0.75688335
0.75857737
0.76027138
0.76196539
0.76365939
0.76535339
0.76704738
0.76874136
0.77043534
0.77212932
0.77382329
0.77551725
0.77721122
0.77890517
0.78059912
0.78229306
0.783987
0.78568093
0.78737487
0.78906879
0.79076271
0.79245663
0.79415054
0.79584444
0.79753834
0.79923224
0.80092613
0.80262001
0.80431389
0.80600776
0.80770162
0.80939548
0.81108934
0.81278318
0.81447702
0.81617085
0.81786467
0.81955848
0.82125228
0.82294608
0.82463987
0.82633364
0.82802741
0.82972118
0.83141493