/*--------------------------------*- C++ -*----------------------------------*\
  =========                 |
  \\      /  F ield         | OpenFOAM: The Open Source CFD Toolbox
   \\    /   O peration     | Website:  https://openfoam.org
    \\  /    A nd           | Version:  7
     \\/     M anipulation  |
\*---------------------------------------------------------------------------*/
FoamFile
{
    version     2.0;
    format      ascii;
    class       volScalarField;
    location    "0.0002";
    object      rho;
}
// * * * * * * * * * * * * * * * * * * * * * * * * * * * * * * * * * * * * * //

dimensions      [1 -3 0 0 0 0 0];

internalField   nonuniform List<scalar> 
5000
(
1.4235637
1.4235637
1.4235637
1.4235637
1.4235637
1.4235637
1.4235637
1.4235637
1.4235637
1.4235637
1.4235637
1.4235637
1.4235637
1.4235637
1.4235637
1.4235637
1.4235637
1.4235637
1.4235637
1.4235637
1.4235637
1.4235637
1.4235637
1.4235637
1.4235637
1.4235637
1.4235637
1.4235637
1.4235637
1.4235637
1.4235637
1.4235637
1.4235637
1.4235637
1.4235637
1.4235637
1.4235637
1.4235637
1.4235637
1.4235637
1.4235637
1.4235637
1.4235637
1.4235637
1.4235637
1.4235637
1.4235637
1.4235637
1.4235637
1.4235637
1.4235637
1.4235637
1.4235637
1.4235637
1.4235637
1.4235637
1.4235637
1.4235637
1.4235637
1.4235637
1.4235637
1.4235637
1.4235637
1.4235637
1.4235637
1.4235637
1.4235637
1.4235637
1.4235637
1.4235637
1.4235637
1.4235637
1.4235637
1.4235637
1.4235637
1.4235637
1.4235637
1.4235637
1.4235637
1.4235637
1.4235637
1.4235637
1.4235637
1.4235637
1.4235637
1.4235637
1.4235637
1.4235637
1.4235637
1.4235637
1.4235637
1.4235637
1.4235637
1.4235637
1.4235637
1.4235637
1.4235637
1.4235637
1.4235637
1.4235637
1.4235637
1.4235637
1.4235637
1.4235637
1.4235637
1.4235637
1.4235637
1.4235637
1.4235637
1.4235637
1.4235637
1.4235637
1.4235637
1.4235637
1.4235637
1.4235637
1.4235637
1.4235637
1.4235637
1.4235637
1.4235637
1.4235637
1.4235637
1.4235637
1.4235637
1.4235637
1.4235637
1.4235637
1.4235637
1.4235637
1.4235637
1.4235637
1.4235637
1.4235637
1.4235637
1.4235637
1.4235637
1.4235637
1.4235637
1.4235637
1.4235637
1.4235637
1.4235637
1.4235637
1.4235637
1.4235637
1.4235637
1.4235637
1.4235637
1.4235637
1.4235637
1.4235637
1.4235637
1.4235637
1.4235637
1.4235637
1.4235637
1.4235637
1.4235637
1.4235637
1.4235637
1.4235637
1.4235637
1.4235637
1.4235637
1.4235637
1.4235637
1.4235637
1.4235637
1.4235637
1.4235637
1.4235637
1.4235637
1.4235637
1.4235637
1.4235637
1.4235637
1.4235637
1.4235637
1.4235637
1.4235637
1.4235637
1.4235637
1.4235637
1.4235637
1.4235637
1.4235637
1.4235637
1.4235637
1.4235637
1.4235637
1.4235637
1.4235637
1.4235637
1.4235637
1.4235637
1.4235637
1.4235637
1.4235637
1.4235637
1.4235637
1.4235637
1.4235637
1.4235637
1.4235637
1.4235637
1.4235637
1.4235637
1.4235637
1.4235637
1.4235637
1.4235637
1.4235637
1.4235637
1.4235637
1.4235637
1.4235637
1.4235637
1.4235637
1.4235637
1.4235637
1.4235637
1.4235637
1.4235637
1.4235637
1.4235637
1.4235637
1.4235637
1.4235637
1.4235637
1.4235637
1.4235637
1.4235637
1.4235637
1.4235637
1.4235637
1.4235637
1.4235637
1.4235637
1.4235637
1.4235637
1.4235637
1.4235637
1.4235637
1.4235637
1.4235637
1.4235637
1.4235637
1.4235637
1.4235637
1.4235637
1.4235637
1.4235637
1.4235637
1.4235637
1.4235637
1.4235637
1.4235637
1.4235637
1.4235637
1.4235637
1.4235637
1.4235637
1.4235637
1.4235637
1.4235637
1.4235637
1.4235637
1.4235637
1.4235637
1.4235637
1.4235637
1.4235637
1.4235637
1.4235637
1.4235637
1.4235637
1.4235637
1.4235637
1.4235637
1.4235637
1.4235637
1.4235637
1.4235637
1.4235637
1.4235637
1.4235637
1.4235637
1.4235637
1.4235637
1.4235637
1.4235637
1.4235637
1.4235637
1.4235637
1.4235637
1.4235637
1.4235637
1.4235637
1.4235637
1.4235637
1.4235637
1.4235637
1.4235637
1.4235637
1.4235637
1.4235637
1.4235637
1.4235637
1.4235637
1.4235637
1.4235637
1.4235637
1.4235637
1.4235637
1.4235637
1.4235637
1.4235637
1.4235637
1.4235637
1.4235637
1.4235637
1.4235637
1.4235637
1.4235637
1.4235637
1.4235637
1.4235637
1.4235637
1.4235637
1.4235637
1.4235637
1.4235637
1.4235637
1.4235637
1.4235637
1.4235637
1.4235637
1.4235637
1.4235637
1.4235637
1.4235637
1.4235637
1.4235637
1.4235637
1.4235637
1.4235637
1.4235637
1.4235637
1.4235637
1.4235637
1.4235637
1.4235637
1.4235637
1.4235637
1.4235637
1.4235637
1.4235637
1.4235637
1.4235637
1.4235637
1.4235637
1.4235637
1.4235637
1.4235637
1.4235637
1.4235637
1.4235637
1.4235637
1.4235637
1.4235637
1.4235637
1.4235637
1.4235637
1.4235637
1.4235637
1.4235637
1.4235637
1.4235637
1.4235637
1.4235637
1.4235637
1.4235637
1.4235637
1.4235637
1.4235637
1.4235637
1.4235637
1.4235637
1.4235637
1.4235637
1.4235637
1.4235637
1.4235637
1.4235637
1.4235637
1.4235637
1.4235637
1.4235637
1.4235637
1.4235637
1.4235637
1.4235637
1.4235637
1.4235637
1.4235637
1.4235637
1.4235637
1.4235637
1.4235637
1.4235637
1.4235637
1.4235637
1.4235637
1.4235637
1.4235637
1.4235637
1.4235637
1.4235637
1.4235637
1.4235637
1.4235637
1.4235637
1.4235637
1.4235637
1.4235637
1.4235637
1.4235637
1.4235637
1.4235637
1.4235637
1.4235637
1.4235637
1.4235637
1.4235637
1.4235637
1.4235637
1.4235637
1.4235637
1.4235637
1.4235637
1.4235637
1.4235637
1.4235637
1.4235637
1.4235637
1.4235637
1.4235637
1.4235637
1.4235637
1.4235637
1.4235637
1.4235637
1.4235637
1.4235637
1.4235637
1.4235637
1.4235637
1.4235637
1.4235637
1.4235637
1.4235637
1.4235637
1.4235637
1.4235637
1.4235637
1.4235637
1.4235637
1.4235637
1.4235637
1.4235637
1.4235637
1.4235637
1.4235637
1.4235637
1.4235637
1.4235637
1.4235637
1.4235637
1.4235637
1.4235637
1.4235637
1.4235637
1.4235637
1.4235637
1.4235637
1.4235637
1.4235637
1.4235637
1.4235637
1.4235637
1.4235637
1.4235637
1.4235637
1.4235637
1.4235637
1.4235637
1.4235637
1.4235637
1.4235637
1.4235637
1.4235637
1.4235637
1.4235637
1.4235637
1.4235637
1.4235637
1.4235637
1.4235637
1.4235637
1.4235637
1.4235637
1.4235637
1.4235637
1.4235637
1.4235637
1.4235637
1.4235637
1.4235637
1.4235637
1.4235637
1.4235637
1.4235637
1.4235637
1.4235637
1.4235637
1.4235637
1.4235637
1.4235637
1.4235637
1.4235637
1.4235637
1.4235637
1.4235637
1.4235637
1.4235637
1.4235637
1.4235637
1.4235637
1.4235637
1.4235637
1.4235637
1.4235637
1.4235637
1.4235637
1.4235637
1.4235637
1.4235637
1.4235637
1.4235637
1.4235637
1.4235637
1.4235637
1.4235637
1.4235637
1.4235637
1.4235637
1.4235637
1.4235637
1.4235637
1.4235637
1.4235637
1.4235637
1.4235637
1.4235637
1.4235637
1.4235637
1.4235637
1.4235637
1.4235637
1.4235637
1.4235637
1.4235637
1.4235637
1.4235637
1.4235637
1.4235637
1.4235637
1.4235637
1.4235637
1.4235637
1.4235637
1.4235637
1.4235637
1.4235637
1.4235637
1.4235637
1.4235637
1.4235637
1.4235637
1.4235637
1.4235637
1.4235637
1.4235637
1.4235637
1.4235637
1.4235637
1.4235637
1.4235637
1.4235637
1.4235637
1.4235637
1.4235637
1.4235637
1.4235637
1.4235637
1.4235637
1.4235637
1.4235637
1.4235637
1.4235637
1.4235637
1.4235637
1.4235637
1.4235637
1.4235637
1.4235637
1.4235637
1.4235637
1.4235637
1.4235637
1.4235637
1.4235637
1.4235637
1.4235637
1.4235637
1.4235637
1.4235637
1.4235637
1.4235637
1.4235637
1.4235637
1.4235637
1.4235637
1.4235637
1.4235637
1.4235637
1.4235637
1.4235637
1.4235637
1.4235637
1.4235637
1.4235637
1.4235637
1.4235637
1.4235637
1.4235637
1.4235637
1.4235637
1.4235637
1.4235637
1.4235637
1.4235637
1.4235637
1.4235637
1.4235637
1.4235637
1.4235637
1.4235637
1.4235637
1.4235637
1.4235637
1.4235637
1.4235637
1.4235637
1.4235637
1.4235637
1.4235637
1.4235637
1.4235637
1.4235637
1.4235637
1.4235637
1.4235637
1.4235637
1.4235637
1.4235637
1.4235637
1.4235637
1.4235637
1.4235637
1.4235637
1.4235637
1.4235637
1.4235637
1.4235637
1.4235637
1.4235637
1.4235637
1.4235637
1.4235637
1.4235637
1.4235637
1.4235637
1.4235637
1.4235637
1.4235637
1.4235637
1.4235637
1.4235637
1.4235637
1.4235637
1.4235637
1.4235637
1.4235637
1.4235637
1.4235637
1.4235637
1.4235637
1.4235637
1.4235637
1.4235637
1.4235637
1.4235637
1.4235637
1.4235637
1.4235637
1.4235637
1.4235637
1.4235637
1.4235637
1.4235637
1.4235637
1.4235637
1.4235637
1.4235637
1.4235637
1.4235637
1.4235637
1.4235637
1.4235637
1.4235637
1.4235637
1.4235637
1.4235637
1.4235637
1.4235637
1.4235637
1.4235637
1.4235637
1.4235637
1.4235637
1.4235637
1.4235637
1.4235637
1.4235637
1.4235637
1.4235637
1.4235637
1.4235637
1.4235637
1.4235637
1.4235637
1.4235637
1.4235637
1.4235637
1.4235637
1.4235637
1.4235637
1.4235637
1.4235637
1.4235637
1.4235637
1.4235637
1.4235637
1.4235637
1.4235637
1.4235637
1.4235637
1.4235637
1.4235637
1.4235637
1.4235637
1.4235637
1.4235637
1.4235637
1.4235637
1.4235637
1.4235637
1.4235637
1.4235637
1.4235637
1.4235637
1.4235637
1.4235637
1.4235637
1.4235637
1.4235637
1.4235637
1.4235637
1.4235637
1.4235637
1.4235637
1.4235637
1.4235637
1.4235637
1.4235637
1.4235637
1.4235637
1.4235637
1.4235637
1.4235637
1.4235637
1.4235637
1.4235637
1.4235637
1.4235637
1.4235637
1.4235637
1.4235637
1.4235637
1.4235637
1.4235637
1.4235637
1.4235637
1.4235637
1.4235637
1.4235637
1.4235637
1.4235637
1.4235637
1.4235637
1.4235637
1.4235637
1.4235637
1.4235637
1.4235637
1.4235637
1.4235637
1.4235637
1.4235637
1.4235637
1.4235637
1.4235637
1.4235637
1.4235637
1.4235637
1.4235637
1.4235637
1.4235637
1.4235637
1.4235637
1.4235637
1.4235637
1.4235637
1.4235637
1.4235637
1.4235637
1.4235637
1.4235637
1.4235637
1.4235637
1.4235637
1.4235637
1.4235637
1.4235637
1.4235637
1.4235637
1.4235637
1.4235637
1.4235637
1.4235637
1.4235637
1.4235637
1.4235637
1.4235637
1.4235637
1.4235637
1.4235637
1.4235637
1.4235637
1.4235637
1.4235637
1.4235637
1.4235637
1.4235637
1.4235637
1.4235637
1.4235637
1.4235637
1.4235637
1.4235637
1.4235637
1.4235637
1.4235637
1.4235637
1.4235637
1.4235637
1.4235637
1.4235637
1.4235637
1.4235637
1.4235637
1.4235637
1.4235637
1.4235637
1.4235637
1.4235637
1.4235637
1.4235637
1.4235637
1.4235637
1.4235637
1.4235637
1.4235637
1.4235637
1.4235637
1.4235637
1.4235637
1.4235637
1.4235637
1.4235637
1.4235637
1.4235637
1.4235637
1.4235637
1.4235637
1.4235637
1.4235637
1.4235637
1.4235637
1.4235637
1.4235637
1.4235637
1.4235637
1.4235637
1.4235637
1.4235637
1.4235637
1.4235637
1.4235637
1.4235637
1.4235637
1.4235637
1.4235637
1.4235637
1.4235637
1.4235637
1.4235637
1.4235637
1.4235637
1.4235637
1.4235637
1.4235637
1.4235637
1.4235637
1.4235637
1.4235637
1.4235637
1.4235637
1.4235637
1.4235637
1.4235637
1.4235637
1.4235637
1.4235637
1.4235637
1.4235637
1.4235637
1.4235637
1.4235637
1.4235637
1.4235637
1.4235637
1.4235637
1.4235637
1.4235637
1.4235637
1.4235637
1.4235637
1.4235637
1.4235637
1.4235637
1.4235637
1.4235637
1.4235637
1.4235637
1.4235637
1.4235637
1.4235637
1.4235637
1.4235637
1.4235637
1.4235637
1.4235637
1.4235637
1.4235637
1.4235637
1.4235637
1.4235637
1.4235637
1.4235637
1.4235637
1.4235637
1.4235637
1.4235637
1.4235637
1.4235637
1.4235637
1.4235637
1.4235637
1.4235637
1.4235637
1.4235637
1.4235637
1.4235637
1.4235637
1.4235637
1.4235637
1.4235637
1.4235637
1.4235637
1.4235637
1.4235637
1.4235637
1.4235637
1.4235637
1.4235637
1.4235637
1.4235637
1.4235637
1.4235637
1.4235637
1.4235637
1.4235637
1.4235637
1.4235637
1.4235637
1.4235637
1.4235637
1.4235637
1.4235637
1.4235637
1.4235637
1.4235637
1.4235637
1.4235637
1.4235637
1.4235637
1.4235637
1.4235637
1.4235637
1.4235637
1.4235637
1.4235637
1.4235637
1.4235637
1.4235637
1.4235637
1.4235637
1.4235637
1.4235637
1.4235637
1.4235637
1.4235637
1.4235637
1.4235637
1.4235637
1.4235637
1.4235637
1.4235637
1.4235637
1.4235637
1.4235637
1.4235637
1.4235637
1.4235637
1.4235637
1.4235637
1.4235637
1.4235637
1.4235637
1.4235637
1.4235637
1.4235637
1.4235637
1.4235637
1.4235637
1.4235637
1.4235637
1.4235637
1.4235637
1.4235637
1.4235637
1.4235637
1.4235637
1.4235637
1.4235637
1.4235637
1.4235637
1.4235637
1.4235637
1.4235637
1.4235637
1.4235637
1.4235637
1.4235637
1.4235637
1.4235637
1.4235637
1.4235637
1.4235637
1.4235637
1.4235637
1.4235637
1.4235637
1.4235637
1.4235637
1.4235637
1.4235637
1.4235637
1.4235637
1.4235637
1.4235637
1.4235637
1.4235637
1.4235637
1.4235637
1.4235637
1.4235637
1.4235637
1.4235637
1.4235637
1.4235637
1.4235637
1.4235637
1.4235637
1.4235637
1.4235637
1.4235637
1.4235637
1.4235637
1.4235637
1.4235637
1.4235637
1.4235637
1.4235637
1.4235637
1.4235637
1.4235637
1.4235637
1.4235637
1.4235637
1.4235637
1.4235637
1.4235637
1.4235637
1.4235637
1.4235637
1.4235637
1.4235637
1.4235637
1.4235637
1.4235637
1.4235637
1.4235637
1.4235637
1.4235637
1.4235637
1.4235637
1.4235637
1.4235637
1.4235637
1.4235637
1.4235637
1.4235637
1.4235637
1.4235637
1.4235637
1.4235637
1.4235637
1.4235637
1.4235637
1.4235637
1.4235637
1.4235637
1.4235637
1.4235637
1.4235637
1.4235637
1.4235637
1.4235637
1.4235637
1.4235637
1.4235637
1.4235637
1.4235637
1.4235637
1.4235637
1.4235637
1.4235637
1.4235637
1.4235637
1.4235637
1.4235637
1.4235637
1.4235637
1.4235637
1.4235637
1.4235637
1.4235637
1.4235637
1.4235637
1.4235637
1.4235637
1.4235637
1.4235637
1.4235637
1.4235637
1.4235637
1.4235637
1.4235637
1.4235637
1.4235637
1.4235637
1.4235637
1.4235637
1.4235637
1.4235637
1.4235637
1.4235637
1.4235637
1.4235637
1.4235637
1.4235637
1.4235637
1.4235637
1.4235637
1.4235637
1.4235637
1.4235637
1.4235637
1.4235637
1.4235637
1.4235637
1.4235637
1.4235637
1.4235637
1.4235637
1.4235637
1.4235637
1.4235637
1.4235637
1.4235637
1.4235637
1.4235637
1.4235637
1.4235637
1.4235637
1.4235637
1.4235637
1.4235637
1.4235637
1.4235637
1.4235637
1.4235637
1.4235637
1.4235637
1.4235637
1.4235637
1.4235637
1.4235637
1.4235637
1.4235637
1.4235637
1.4235637
1.4235637
1.4235637
1.4235637
1.4235637
1.4235637
1.4235637
1.4235637
1.4235637
1.4235637
1.4235637
1.4235637
1.4235637
1.4235637
1.4235637
1.4235637
1.4235637
1.4235637
1.4235637
1.4235637
1.4235637
1.4235637
1.4235637
1.4235637
1.4235637
1.4235637
1.4235637
1.4235637
1.4235637
1.4235637
1.4235637
1.4235637
1.4235637
1.4235637
1.4235637
1.4235637
1.4235637
1.4235637
1.4235637
1.4235637
1.4235637
1.4235637
1.4235637
1.4235637
1.4235637
1.4235637
1.4235637
1.4235637
1.4235637
1.4235637
1.4235637
1.4235637
1.4235637
1.4235637
1.4235637
1.4235637
1.4235637
1.4235637
1.4235637
1.4235637
1.4235637
1.4235637
1.4235637
1.4235637
1.4235637
1.4235637
1.4235637
1.4235637
1.4235637
1.4235637
1.4235637
1.4235637
1.4235637
1.4235637
1.4235637
1.4235637
1.4235637
1.4235637
1.4235637
1.4235637
1.4235637
1.4235637
1.4235637
1.4235637
1.4235637
1.4235637
1.4235637
1.4235637
1.4235637
1.4235637
1.4235637
1.4235637
1.4235637
1.4235637
1.4235637
1.4235637
1.4235637
1.4235637
1.4235637
1.4235637
1.4235637
1.4235637
1.4235637
1.4235637
1.4235637
1.4235637
1.4235637
1.4235637
1.4235637
1.4235637
1.4235637
1.4235637
1.4235637
1.4235637
1.4235637
1.4235637
1.4235637
1.4235637
1.4235637
1.4235637
1.4235637
1.4235637
1.4235637
1.4235637
1.4235637
1.4235637
1.4235637
1.4235637
1.4235637
1.4235637
1.4235637
1.4235637
1.4235637
1.4235637
1.4235637
1.4235637
1.4235637
1.4235637
1.4235637
1.4235637
1.4235637
1.4235637
1.4235637
1.4235637
1.4235637
1.4235637
1.4235637
1.4235637
1.4235637
1.4235637
1.4235637
1.4235637
1.4235637
1.4235637
1.4235637
1.4235637
1.4235637
1.4235637
1.4235637
1.4235637
1.4235637
1.4235637
1.4235637
1.4235637
1.4235637
1.4235637
1.4235637
1.4235637
1.4235637
1.4235637
1.4235637
1.4235637
1.4235637
1.4235637
1.4235637
1.4235637
1.4235637
1.4235637
1.4235637
1.4235637
1.4235637
1.4235637
1.4235637
1.4235637
1.4235637
1.4235637
1.4235637
1.4235637
1.4235637
1.4235637
1.4235637
1.4235637
1.4235637
1.4235637
1.4235637
1.4235637
1.4235637
1.4235637
1.4235637
1.4235637
1.4235637
1.4235637
1.4235637
1.4235637
1.4235637
1.4235637
1.4235637
1.4235637
1.4235637
1.4235637
1.4235637
1.4235637
1.4235637
1.4235637
1.4235637
1.4235637
1.4235637
1.4235637
1.4235637
1.4235637
1.4235637
1.4235637
1.4235637
1.4235637
1.4235637
1.4235637
1.4235637
1.4235637
1.4235637
1.4235637
1.4235637
1.4235637
1.4235637
1.4235637
1.4235637
1.4235637
1.4235637
1.4235637
1.4235637
1.4235637
1.4235637
1.4235637
1.4235637
1.4235637
1.4235637
1.4235637
1.4235637
1.4235637
1.4235637
1.4235637
1.4235637
1.4235637
1.4235637
1.4235637
1.4235637
1.4235637
1.4235637
1.4235637
1.4235637
1.4235637
1.4235637
1.4235637
1.4235637
1.4235637
1.4235637
1.4235637
1.4235637
1.4235637
1.4235637
1.4235637
1.4235637
1.4235637
1.4235637
1.4235637
1.4235637
1.4235637
1.4235637
1.4235637
1.4235637
1.4235637
1.4235637
1.4235637
1.4235637
1.4235637
1.4235637
1.4235637
1.4235637
1.4235637
1.4235637
1.4235637
1.4235637
1.4235637
1.4235637
1.4235637
1.4235637
1.4235637
1.4235637
1.4235637
1.4235637
1.4235637
1.4235637
1.4235637
1.4235637
1.4235637
1.4235637
1.4235637
1.4235637
1.4235637
1.4235637
1.4235637
1.4235637
1.4235637
1.4235637
1.4235637
1.4235637
1.4235637
1.4235637
1.4235637
1.4235637
1.4235637
1.4235637
1.4235637
1.4235637
1.4235637
1.4235637
1.4235637
1.4235637
1.4235637
1.4235637
1.4235637
1.4235637
1.4235637
1.4235637
1.4235637
1.4235637
1.4235637
1.4235637
1.4235637
1.4235637
1.4235637
1.4235637
1.4235637
1.4235637
1.4235637
1.4235637
1.4235637
1.4235637
1.4235637
1.4235637
1.4235637
1.4235637
1.4235637
1.4235637
1.4235637
1.4235637
1.4235637
1.4235637
1.4235637
1.4235637
1.4235637
1.4235637
1.4235637
1.4235637
1.4235637
1.4235637
1.4235637
1.4235637
1.4235637
1.4235637
1.4235637
1.4235637
1.4235637
1.4235637
1.4235637
1.4235637
1.4235637
1.4235637
1.4235637
1.4235637
1.4235637
1.4235637
1.4235637
1.4235637
1.4235637
1.4235637
1.4235637
1.4235637
1.4235637
1.4235637
1.4235637
1.4235637
1.4235637
1.4235637
1.4235637
1.4235637
1.4235637
1.4235637
1.4235637
1.4235637
1.4235637
1.4235637
1.4235637
1.4235637
1.4235637
1.4235637
1.4235637
1.4235637
1.4235637
1.4235637
1.4235637
1.4235637
1.4235637
1.4235637
1.4235637
1.4235637
1.4235637
1.4235637
1.4235637
1.4235637
1.4235637
1.4235637
1.4235637
1.4235637
1.4235637
1.4235637
1.4235637
1.4235637
1.4235637
1.4235637
1.4235637
1.4235637
1.4235637
1.4235637
1.4235637
1.4235637
1.4235637
1.4235637
1.4235637
1.4235637
1.4235637
1.4235637
1.4235637
1.4235637
1.4235637
1.4235637
1.4235637
1.4235637
1.4235637
1.4235637
1.4235637
1.4235637
1.4235637
1.4235637
1.4235637
1.4235637
1.4235637
1.4235637
1.4235637
1.4235637
1.4235637
1.4235637
1.4235637
1.4235637
1.4235637
1.4235637
1.4235637
1.4235637
1.4235637
1.4235637
1.4235637
1.4235637
1.4235637
1.4235637
1.4235637
1.4235637
1.4235637
1.4235637
1.4235637
1.4235637
1.4235637
1.4235637
1.4235637
1.4235637
1.4235637
1.4235637
1.4235637
1.4235637
1.4235637
1.4235637
1.4235637
1.4235637
1.4235637
1.4235637
1.4235637
1.4235637
1.4235637
1.4235637
1.4235637
1.4235637
1.4235637
1.4235637
1.4235637
1.4235637
1.4235637
1.4235637
1.4235637
1.4235637
1.4235637
1.4235637
1.4235637
1.4235637
1.4235637
1.4235637
1.4235637
1.4235637
1.4235637
1.4235637
1.4235637
1.4235637
1.4235637
1.4235637
1.4235637
1.4235637
1.4235637
1.4235637
1.4235637
1.4235637
1.4235637
1.4235637
1.4235637
1.4235637
1.4235637
1.4235637
1.4235637
1.4235637
1.4235637
1.4235637
1.4235637
1.4235637
1.4235637
1.4235637
1.4235637
1.4235637
1.4235637
1.4235637
1.4235637
1.4235637
1.4235637
1.4235637
1.4235637
1.4235637
1.4235637
1.4235637
1.4235637
1.4235637
1.4235637
1.4235637
1.4235637
1.4235637
1.4235637
1.4235637
1.4235637
1.4235637
1.4235637
1.4235637
1.4235637
1.4235637
1.4235637
1.4235637
1.4235637
1.4235637
1.4235637
1.4235637
1.4235637
1.4235637
1.4235637
1.4235637
1.4235637
1.4235637
1.4235637
1.4235637
1.4235637
1.4235637
1.4235637
1.4235637
1.4235637
1.4235637
1.4235637
1.4235637
1.4235637
1.4235637
1.4235637
1.4235637
1.4235637
1.4235637
1.4235637
1.4235637
1.4235637
1.4235637
1.4235637
1.4235637
1.4235637
1.4235637
1.4235637
1.4235637
1.4235637
1.4235637
1.4235637
1.4235637
1.4235637
1.4235637
1.4235637
1.4235637
1.4235637
1.4235637
1.4235637
1.4235637
1.4235637
1.4235637
1.4235637
1.4235637
1.4235637
1.4235637
1.4235637
1.4235637
1.4235637
1.4235637
1.4235637
1.4235637
1.4235637
1.4235637
1.4235637
1.4235637
1.4235637
1.4235637
1.4235637
1.4235637
1.4235637
1.4235637
1.4235637
1.4235637
1.4235637
1.4235637
1.4235637
1.4235637
1.4235637
1.4235637
1.4235637
1.4235637
1.4235637
1.4235637
1.4235637
1.4235637
1.4235637
1.4235637
1.4235637
1.4235637
1.4235637
1.4235637
1.4235637
1.4235637
1.4235637
1.4235637
1.4235637
1.4235637
1.4235637
1.4235637
1.4235637
1.4235637
1.4235637
1.4235637
1.4235637
1.4235637
1.4235637
1.4235637
1.4235637
1.4235637
1.4235637
1.4235637
1.4235637
1.4235637
1.4235637
1.4235637
1.4235637
1.4235637
1.4235637
1.4235637
1.4235637
1.4235637
1.4235637
1.4235637
1.4235637
1.4235637
1.4235637
1.4235637
1.4235637
1.4235637
1.4235637
1.4235637
1.4235637
1.4235637
1.4235637
1.4235637
1.4235637
1.4235637
1.4235637
1.4235637
1.4235637
1.4235637
1.4235637
1.4235637
1.4235637
1.4235637
1.4235637
1.4235637
1.4235637
1.4235637
1.4235637
1.4235637
1.4235637
1.4235637
1.4235637
1.4235637
1.4235637
1.4235637
1.4235637
1.4235637
1.4235637
1.4235637
1.4235636
1.4235636
1.4235636
1.4235636
1.4235636
1.4235636
1.4235636
1.4235636
1.4235636
1.4235636
1.4235636
1.4235636
1.4235636
1.4235636
1.4235636
1.4235635
1.4235635
1.4235635
1.4235635
1.4235635
1.4235634
1.4235634
1.4235634
1.4235633
1.4235633
1.4235632
1.4235632
1.4235631
1.423563
1.4235629
1.4235628
1.4235627
1.4235626
1.4235624
1.4235623
1.4235621
1.4235619
1.4235617
1.4235614
1.4235611
1.4235608
1.4235604
1.42356
1.4235596
1.423559
1.4235585
1.4235578
1.4235571
1.4235563
1.4235554
1.4235544
1.4235533
1.4235521
1.4235508
1.4235492
1.4235476
1.4235457
1.4235436
1.4235414
1.4235388
1.423536
1.4235329
1.4235295
1.4235258
1.4235216
1.4235171
1.423512
1.4235065
1.4235004
1.4234938
1.4234864
1.4234784
1.4234696
1.42346
1.4234494
1.4234379
1.4234254
1.4234117
1.4233967
1.4233804
1.4233627
1.4233434
1.4233225
1.4232997
1.423275
1.4232483
1.4232193
1.423188
1.4231541
1.4231175
1.423078
1.4230354
1.4229896
1.4229402
1.422887
1.4228299
1.4227686
1.4227029
1.4226324
1.422557
1.4224762
1.4223899
1.4222978
1.4221994
1.4220946
1.4219829
1.4218641
1.4217378
1.4216036
1.4214612
1.4213102
1.4211503
1.420981
1.4208019
1.4206128
1.4204132
1.4202027
1.4199808
1.4197473
1.4195018
1.4192437
1.4189728
1.4186886
1.4183908
1.418079
1.4177528
1.4174119
1.4170559
1.4166845
1.4162974
1.4158941
1.4154745
1.4150383
1.4145851
1.4141148
1.4136271
1.4131218
1.4125986
1.4120575
1.4114983
1.4109209
1.4103251
1.4097109
1.4090783
1.4084272
1.4077576
1.4070696
1.4063633
1.4056386
1.4048959
1.4041351
1.4033566
1.4025604
1.4017469
1.4009163
1.4000689
1.3992051
1.3983252
1.3974295
1.3965186
1.3955929
1.3946528
1.3936988
1.3927315
1.3917514
1.3907592
1.3897554
1.3887406
1.3877156
1.386681
1.3856375
1.3845858
1.3835268
1.382461
1.3813895
1.3803129
1.3792321
1.3781479
1.3770611
1.3759727
1.3748835
1.3737944
1.3727063
1.3716202
1.3705368
1.3694571
1.3683821
1.3673127
1.3662497
1.3651941
1.3641469
1.3631088
1.3620807
1.3610637
1.3600585
1.3590659
1.3580869
1.3571221
1.3561725
1.3552387
1.3543216
1.3534217
1.3525398
1.3516766
1.3508326
1.3500083
1.3492044
1.3484212
1.3476593
1.346919
1.3462006
1.3455045
1.3448309
1.34418
1.3435519
1.3429466
1.3423643
1.341805
1.3412685
1.3407547
1.3402634
1.3397945
1.3393476
1.3389224
1.3385186
1.3381358
1.3377735
1.3374312
1.3371084
1.3368045
1.3365191
1.3362514
1.3360009
1.3357668
1.3355487
1.3353457
1.3351572
1.3349826
1.3348211
1.334672
1.3345348
1.3344087
1.3342931
1.3341873
1.3340907
1.3340027
1.3339227
1.3338502
1.3337846
1.3337254
1.333672
1.3336241
1.3335811
1.3335426
1.3335083
1.3334777
1.3334505
1.3334265
1.3334052
1.3333864
1.3333699
1.3333553
1.3333426
1.3333315
1.3333218
1.3333133
1.3333059
1.3332996
1.333294
1.3332893
1.3332852
1.3332816
1.3332785
1.3332759
1.3332736
1.3332717
1.33327
1.3332686
1.3332673
1.3332662
1.3332653
1.3332645
1.3332637
1.3332631
1.3332625
1.333262
1.3332615
1.3332611
1.3332607
1.3332603
1.3332599
1.3332595
1.3332592
1.3332588
1.3332585
1.3332581
1.3332578
1.3332575
1.3332572
1.3332569
1.3332565
1.3332563
1.3332559
1.3332556
1.3332553
1.333255
1.3332547
1.3332542
1.3332539
1.3332537
1.3332534
1.333253
1.3332526
1.3332523
1.3332519
1.3332516
1.3332513
1.3332509
1.3332505
1.3332501
1.3332497
1.3332493
1.3332491
1.3332489
1.3332485
1.3332481
1.3332478
1.3332475
1.3332471
1.3332468
1.3332466
1.3332463
1.333246
1.3332456
1.3332453
1.333245
1.3332447
1.3332443
1.3332438
1.3332435
1.3332432
1.333243
1.3332427
1.3332424
1.3332421
1.3332418
1.3332415
1.3332413
1.333241
1.3332408
1.3332405
1.3332401
1.3332397
1.3332392
1.3332388
1.3332385
1.3332382
1.3332379
1.3332375
1.3332371
1.3332369
1.3332366
1.3332364
1.3332362
1.333236
1.3332357
1.3332355
1.3332353
1.333235
1.3332348
1.3332345
1.3332342
1.3332338
1.3332335
1.3332333
1.333233
1.3332327
1.3332323
1.3332319
1.3332314
1.3332311
1.3332307
1.3332303
1.3332299
1.3332297
1.3332294
1.3332289
1.3332284
1.3332279
1.3332275
1.3332272
1.333227
1.3332267
1.3332265
1.3332261
1.3332258
1.3332254
1.3332251
1.3332248
1.3332245
1.3332243
1.333224
1.3332238
1.3332234
1.333223
1.3332226
1.3332223
1.333222
1.3332216
1.3332211
1.3332207
1.3332202
1.3332199
1.3332195
1.3332192
1.3332187
1.3332182
1.3332177
1.3332171
1.3332166
1.3332161
1.3332157
1.3332153
1.3332149
1.3332144
1.3332138
1.3332132
1.3332126
1.333212
1.3332114
1.3332107
1.3332102
1.3332098
1.3332093
1.3332088
1.3332082
1.3332077
1.3332072
1.3332068
1.3332063
1.3332058
1.3332053
1.3332047
1.3332042
1.3332036
1.3332031
1.3332027
1.3332022
1.3332017
1.3332012
1.3332008
1.3332004
1.3332
1.3331997
1.3331996
1.3331995
1.3331993
1.3331992
1.3331989
1.3331987
1.3331985
1.3331984
1.3331984
1.3331985
1.3331986
1.3331988
1.333199
1.3331992
1.3331995
1.3331999
1.3332002
1.3332004
1.3332006
1.3332008
1.3332009
1.3332011
1.3332011
1.3332011
1.3332011
1.333201
1.3332007
1.3332001
1.3331993
1.3331983
1.3331973
1.3331962
1.333195
1.3331936
1.3331921
1.3331906
1.3331891
1.3331876
1.3331863
1.3331851
1.333184
1.3331829
1.3331816
1.3331802
1.3331788
1.3331774
1.3331761
1.3331748
1.3331737
1.333173
1.3331727
1.3331726
1.3331727
1.3331731
1.3331737
1.333174
1.333174
1.3331737
1.3331726
1.3331701
1.3331681
1.3331676
1.3331678
1.3331687
1.3331689
1.3331673
1.3331569
1.3331145
1.3329687
1.3325096
1.3311396
1.3272891
1.3174759
1.304918
1.293451
1.2840881
1.2771125
1.2723015
1.2692007
1.2673217
1.2662481
1.2656702
1.2653794
1.2652455
1.2651923
1.2651775
1.2651774
1.2651843
1.2651979
1.265208
1.2652153
1.265221
1.265226
1.2652311
1.2652369
1.2652435
1.2652509
1.2652586
1.2652662
1.2652735
1.2652801
1.2652859
1.265291
1.2652953
1.2652988
1.2653016
1.2653037
1.2653054
1.2653068
1.2653082
1.2653096
1.265311
1.2653127
1.2653144
1.2653161
1.2653178
1.2653195
1.265321
1.2653226
1.265324
1.2653252
1.2653265
1.2653277
1.2653289
1.26533
1.2653313
1.2653328
1.2653345
1.2653363
1.2653383
1.2653403
1.2653424
1.2653447
1.2653471
1.2653496
1.2653521
1.2653546
1.265357
1.2653592
1.2653613
1.2653635
1.2653655
1.2653673
1.2653692
1.265371
1.2653726
1.2653741
1.2653755
1.2653767
1.2653779
1.265379
1.26538
1.265381
1.2653819
1.2653827
1.2653836
1.2653845
1.2653854
1.2653862
1.2653869
1.2653876
1.2653882
1.2653888
1.2653894
1.2653901
1.2653907
1.2653913
1.2653919
1.2653925
1.2653931
1.2653936
1.2653941
1.2653946
1.265395
1.2653955
1.2653961
1.2653966
1.2653971
1.2653975
1.265398
1.2653984
1.2653988
1.2653992
1.2653996
1.2654
1.2654004
1.2654008
1.2654011
1.2654016
1.265402
1.2654024
1.2654028
1.2654032
1.2654035
1.2654038
1.2654042
1.2654045
1.2654047
1.2654051
1.2654055
1.2654057
1.265406
1.2654063
1.2654066
1.2654069
1.2654072
1.2654075
1.2654078
1.2654081
1.2654084
1.2654087
1.2654089
1.2654091
1.2654093
1.2654096
1.2654098
1.2654101
1.2654104
1.2654105
1.2654108
1.2654111
1.2654114
1.2654116
1.2654118
1.2654119
1.2654121
1.2654124
1.2654126
1.2654127
1.2654129
1.2654132
1.2654134
1.2654135
1.2654137
1.2654139
1.265414
1.2654142
1.2654144
1.2654146
1.2654148
1.265415
1.2654152
1.2654153
1.2654154
1.2654156
1.2654158
1.2654159
1.265416
1.2654162
1.2654163
1.2654165
1.2654167
1.2654168
1.265417
1.2654171
1.2654172
1.2654173
1.2654175
1.2654178
1.265418
1.2654182
1.2654183
1.2654184
1.2654185
1.2654186
1.2654188
1.265419
1.2654192
1.2654194
1.2654196
1.2654197
1.2654199
1.2654201
1.2654204
1.2654206
1.2654209
1.2654211
1.2654213
1.2654215
1.2654217
1.2654219
1.2654222
1.2654224
1.2654226
1.2654228
1.2654231
1.2654234
1.2654237
1.2654239
1.2654242
1.2654244
1.2654247
1.265425
1.2654253
1.2654257
1.2654261
1.2654264
1.2654267
1.265427
1.2654273
1.2654275
1.2654277
1.265428
1.2654281
1.2654283
1.2654284
1.2654284
1.2654286
1.2654287
1.2654287
1.2654285
1.2654283
1.265428
1.2654275
1.265427
1.2654264
1.2654257
1.2654248
1.2654237
1.2654225
1.2654211
1.2654194
1.2654175
1.2654152
1.2654126
1.2654095
1.265406
1.265402
1.2653974
1.265392
1.2653859
1.265379
1.265371
1.265362
1.2653517
1.26534
1.2653268
1.2653119
1.2652951
1.2652761
1.2652548
1.2652308
1.265204
1.265174
1.2651405
1.2651031
1.2650615
1.2650153
1.264964
1.2649072
1.2648445
1.2647752
1.2646988
1.2646148
1.2645225
1.2644214
1.2643106
1.2641895
1.2640573
1.2639133
1.2637566
1.2635864
1.2634018
1.2632019
1.2629858
1.2627525
1.2625011
1.2622306
1.2619399
1.2616281
1.2612941
1.2609369
1.2605555
1.2601489
1.2597161
1.2592562
1.2587681
1.2582511
1.2577042
1.2571267
1.2565178
1.2558768
1.2552032
1.2544965
1.2537562
1.252982
1.2521738
1.2513314
1.2504549
1.2495446
1.2486007
1.2476236
1.2466141
1.2455728
1.2445007
1.2433989
1.2422685
1.2411111
1.239928
1.238721
1.237492
1.2362427
1.2349754
1.2336922
1.2323953
1.2310871
1.2297701
1.2284468
1.2271196
1.2257912
1.224464
1.2231406
1.2218236
1.2205155
1.2192186
1.2179353
1.2166679
1.2154184
1.214189
1.2129816
1.2117978
1.2106394
1.2095079
1.2084045
1.2073304
1.2062867
1.2052742
1.2042937
1.2033456
1.2024305
1.2015485
1.2006998
1.1998844
1.1991022
1.1983529
1.1976362
1.1969517
1.1962988
1.1956769
1.1950854
1.1945235
1.1939904
1.1934852
1.1930072
1.1925554
1.1921289
1.1917267
1.1913479
1.1909916
1.1906567
1.1903423
1.1900475
1.1897714
1.189513
1.1892715
1.1890459
1.1888355
1.1886394
1.1884567
1.1882869
1.188129
1.1879824
1.1878463
1.1877203
1.1876035
1.1874955
1.1873957
1.1873035
1.1872184
1.1871399
1.1870676
1.187001
1.1869398
1.1868836
1.1868319
1.1867845
1.186741
1.1867012
1.1866648
1.1866314
1.1866009
1.1865731
1.1865477
1.1865246
1.1865034
1.1864842
1.1864667
1.1864508
1.1864364
1.1864233
1.1864114
1.1864006
1.1863908