/*--------------------------------*- C++ -*----------------------------------*\
  =========                 |
  \\      /  F ield         | OpenFOAM: The Open Source CFD Toolbox
   \\    /   O peration     | Website:  https://openfoam.org
    \\  /    A nd           | Version:  7
     \\/     M anipulation  |
\*---------------------------------------------------------------------------*/
FoamFile
{
    version     2.0;
    format      ascii;
    class       volScalarField;
    location    "0.00189";
    object      T;
}
// * * * * * * * * * * * * * * * * * * * * * * * * * * * * * * * * * * * * * //

dimensions      [0 0 0 1 0 0 0];

internalField   nonuniform List<scalar> 
5000
(
285.38468
285.38468
285.38468
285.38468
285.38468
285.38468
285.38468
285.38468
285.38469
285.38469
285.38469
285.38469
285.3847
285.3847
285.38471
285.38472
285.38476
285.38481
285.38486
285.38496
285.38518
285.38568
285.38645
285.38743
285.38878
285.39082
285.3939
285.39826
285.40398
285.41102
285.4193
285.42887
285.43995
285.45285
285.46784
285.48496
285.50391
285.52406
285.54454
285.56439
285.58273
285.59892
285.6126
285.62368
285.63233
285.63885
285.64363
285.64706
285.64947
285.65115
285.65231
285.65311
285.65367
285.65405
285.65432
285.65452
285.65465
285.65475
285.65482
285.65486
285.65489
285.65491
285.65492
285.65493
285.65494
285.65494
285.65495
285.65495
285.65495
285.65496
285.65496
285.65496
285.65496
285.65496
285.65496
285.65496
285.65496
285.65496
285.65496
285.65496
285.65496
285.65496
285.65496
285.65496
285.65496
285.65496
285.65496
285.65496
285.65496
285.65496
285.65496
285.65496
285.65496
285.65497
285.65497
285.65497
285.65497
285.65497
285.65497
285.65497
285.65497
285.65497
285.65497
285.65497
285.65497
285.65497
285.65497
285.65497
285.65497
285.65498
285.65498
285.65498
285.65498
285.65498
285.65498
285.65498
285.65498
285.65498
285.65498
285.65498
285.65498
285.65498
285.65499
285.65499
285.65499
285.65499
285.65499
285.65499
285.65499
285.65499
285.65499
285.65499
285.65499
285.65499
285.65499
285.655
285.655
285.655
285.655
285.655
285.655
285.655
285.655
285.655
285.655
285.655
285.655
285.65501
285.65501
285.65501
285.65501
285.65501
285.65501
285.65501
285.65501
285.65501
285.65501
285.65502
285.65502
285.65502
285.65502
285.65502
285.65502
285.65502
285.65502
285.65502
285.65503
285.65503
285.65503
285.65503
285.65503
285.65503
285.65503
285.65503
285.65503
285.65503
285.65504
285.65504
285.65504
285.65504
285.65504
285.65504
285.65504
285.65504
285.65504
285.65505
285.65505
285.65505
285.65505
285.65505
285.65505
285.65505
285.65505
285.65505
285.65505
285.65506
285.65506
285.65506
285.65506
285.65506
285.65506
285.65506
285.65506
285.65507
285.65507
285.65507
285.65507
285.65507
285.65507
285.65507
285.65507
285.65507
285.65507
285.65507
285.65507
285.65507
285.65508
285.65508
285.65508
285.65508
285.65508
285.65508
285.65508
285.65508
285.65508
285.65508
285.65508
285.65509
285.65509
285.65509
285.65509
285.65509
285.65509
285.65509
285.65509
285.65509
285.65509
285.6551
285.6551
285.6551
285.6551
285.6551
285.6551
285.6551
285.6551
285.6551
285.6551
285.65511
285.65511
285.65511
285.65511
285.65511
285.65511
285.65511
285.65511
285.65511
285.65511
285.65511
285.65511
285.65511
285.65511
285.65511
285.65511
285.65511
285.65511
285.65511
285.65511
285.65511
285.65511
285.65511
285.65511
285.65511
285.65511
285.65511
285.65511
285.65511
285.65511
285.65511
285.65511
285.65511
285.65511
285.65511
285.65511
285.65511
285.65511
285.6551
285.6551
285.6551
285.6551
285.6551
285.6551
285.6551
285.65509
285.65509
285.65509
285.65508
285.65508
285.65508
285.65508
285.65508
285.65507
285.65507
285.65506
285.65506
285.65506
285.65505
285.65505
285.65504
285.65503
285.65503
285.65502
285.65502
285.65501
285.65501
285.655
285.65499
285.65498
285.65498
285.65497
285.65496
285.65496
285.65495
285.65494
285.65493
285.65492
285.65491
285.6549
285.65489
285.65488
285.65487
285.65486
285.65485
285.65483
285.65482
285.65481
285.6548
285.65479
285.65477
285.65476
285.65475
285.65473
285.65472
285.6547
285.65469
285.65467
285.65466
285.65464
285.65462
285.65461
285.65459
285.65457
285.65455
285.65453
285.65451
285.65449
285.65446
285.65444
285.65442
285.65439
285.65436
285.65434
285.65431
285.65428
285.65425
285.65422
285.65419
285.65416
285.65412
285.65409
285.65405
285.65401
285.65398
285.65394
285.65389
285.65385
285.65381
285.65376
285.65371
285.65367
285.65362
285.65356
285.65351
285.65346
285.6534
285.65334
285.65329
285.65323
285.65316
285.6531
285.65303
285.65297
285.6529
285.65282
285.65275
285.65267
285.6526
285.65252
285.65244
285.65235
285.65227
285.65218
285.65209
285.652
285.65191
285.65181
285.65171
285.65161
285.65151
285.6514
285.65129
285.65118
285.65107
285.65095
285.65083
285.65071
285.65059
285.65047
285.65034
285.65021
285.65007
285.64994
285.6498
285.64966
285.64951
285.64936
285.64921
285.64906
285.6489
285.64874
285.64858
285.64841
285.64825
285.64807
285.6479
285.64772
285.64754
285.64735
285.64717
285.64698
285.64678
285.64659
285.64639
285.64618
285.64597
285.64576
285.64554
285.64532
285.6451
285.64487
285.64464
285.64441
285.64418
285.64393
285.64369
285.64344
285.64319
285.64293
285.64267
285.64241
285.64214
285.64187
285.64159
285.64132
285.64103
285.64075
285.64045
285.64016
285.63986
285.63956
285.63925
285.63894
285.63862
285.6383
285.63798
285.63765
285.63732
285.63698
285.63664
285.6363
285.63595
285.6356
285.63524
285.63488
285.63451
285.63414
285.63377
285.63339
285.633
285.63262
285.63222
285.63183
285.63143
285.63102
285.63061
285.6302
285.62979
285.62937
285.62894
285.62851
285.62808
285.62764
285.62719
285.62675
285.62629
285.62584
285.62538
285.62491
285.62444
285.62397
285.62349
285.62301
285.62253
285.62204
285.62154
285.62105
285.62054
285.62004
285.61953
285.61902
285.6185
285.61798
285.61745
285.61692
285.61639
285.61585
285.61531
285.61476
285.61421
285.61366
285.6131
285.61254
285.61197
285.6114
285.61083
285.61026
285.60968
285.60909
285.60851
285.60792
285.60732
285.60672
285.60612
285.60552
285.60491
285.6043
285.60369
285.60307
285.60245
285.60182
285.60119
285.60056
285.59993
285.59929
285.59865
285.59801
285.59736
285.59671
285.59606
285.59541
285.59475
285.59409
285.59343
285.59276
285.59209
285.59142
285.59075
285.59007
285.58939
285.58871
285.58802
285.58734
285.58665
285.58596
285.58527
285.58457
285.58387
285.58317
285.58247
285.58177
285.58106
285.58035
285.57964
285.57893
285.57822
285.5775
285.57679
285.57607
285.57535
285.57463
285.5739
285.57318
285.57245
285.57172
285.57099
285.57026
285.56952
285.56879
285.56806
285.56732
285.56658
285.56584
285.56511
285.56437
285.56362
285.56288
285.56214
285.56139
285.56065
285.5599
285.55915
285.55841
285.55766
285.55691
285.55616
285.55542
285.55467
285.55392
285.55317
285.55241
285.55166
285.55091
285.55016
285.54941
285.54866
285.54791
285.54715
285.5464
285.54565
285.5449
285.54415
285.5434
285.54265
285.5419
285.54115
285.5404
285.53965
285.5389
285.53816
285.53741
285.53666
285.53592
285.53517
285.53443
285.53368
285.53294
285.5322
285.53146
285.53072
285.52998
285.52925
285.52851
285.52777
285.52704
285.52631
285.52557
285.52484
285.52411
285.52339
285.52266
285.52193
285.52121
285.52049
285.51977
285.51905
285.51834
285.51762
285.51691
285.51619
285.51548
285.51478
285.51407
285.51337
285.51266
285.51196
285.51126
285.51057
285.50987
285.50918
285.50849
285.5078
285.50711
285.50643
285.50575
285.50507
285.50439
285.50371
285.50304
285.50237
285.5017
285.50104
285.50037
285.49971
285.49905
285.4984
285.49774
285.49709
285.49644
285.4958
285.49515
285.49451
285.49388
285.49324
285.49261
285.49198
285.49135
285.49072
285.4901
285.48948
285.48886
285.48825
285.48764
285.48703
285.48642
285.48582
285.48522
285.48462
285.48403
285.48344
285.48285
285.48226
285.48168
285.4811
285.48052
285.47995
285.47937
285.47881
285.47824
285.47768
285.47711
285.47656
285.476
285.47545
285.4749
285.47435
285.47381
285.47327
285.47274
285.4722
285.47167
285.47114
285.47062
285.47009
285.46957
285.46906
285.46854
285.46803
285.46752
285.46702
285.46652
285.46602
285.46552
285.46503
285.46453
285.46405
285.46356
285.46308
285.4626
285.46212
285.46165
285.46118
285.46071
285.46024
285.45978
285.45932
285.45886
285.45841
285.45796
285.45751
285.45706
285.45662
285.45618
285.45574
285.4553
285.45487
285.45444
285.45401
285.45358
285.45316
285.45274
285.45232
285.45191
285.45149
285.45108
285.45068
285.45027
285.44987
285.44947
285.44907
285.44868
285.44828
285.44789
285.44751
285.44712
285.44674
285.44636
285.44598
285.44561
285.44523
285.44486
285.44449
285.44413
285.44376
285.4434
285.44304
285.44269
285.44233
285.44198
285.44163
285.44128
285.44093
285.44059
285.44025
285.43991
285.43957
285.43924
285.4389
285.43857
285.43824
285.43792
285.43759
285.43727
285.43695
285.43663
285.43632
285.436
285.43569
285.43538
285.43507
285.43477
285.43446
285.43416
285.43386
285.43356
285.43327
285.43297
285.43268
285.43239
285.43211
285.43182
285.43154
285.43125
285.43097
285.4307
285.43042
285.43015
285.42987
285.4296
285.42933
285.42907
285.4288
285.42854
285.42828
285.42802
285.42776
285.42751
285.42725
285.427
285.42675
285.4265
285.42626
285.42601
285.42577
285.42553
285.42529
285.42505
285.42482
285.42459
285.42435
285.42413
285.4239
285.42367
285.42345
285.42323
285.42301
285.42279
285.42257
285.42235
285.42214
285.42193
285.42172
285.42151
285.4213
285.4211
285.4209
285.4207
285.4205
285.4203
285.4201
285.41991
285.41972
285.41953
285.41934
285.41915
285.41897
285.41879
285.41861
285.41843
285.41825
285.41807
285.41789
285.41772
285.41755
285.41738
285.41721
285.41705
285.41688
285.41672
285.41656
285.4164
285.41624
285.41608
285.41593
285.41578
285.41563
285.41548
285.41533
285.41518
285.41504
285.4149
285.41476
285.41462
285.41448
285.41434
285.41421
285.41407
285.41394
285.41381
285.41368
285.41356
285.41343
285.41331
285.41319
285.41307
285.41295
285.41283
285.41272
285.4126
285.41249
285.41238
285.41227
285.41216
285.41205
285.41195
285.41184
285.41174
285.41164
285.41153
285.41144
285.41134
285.41124
285.41115
285.41106
285.41096
285.41087
285.41079
285.4107
285.41061
285.41053
285.41044
285.41036
285.41028
285.4102
285.41012
285.41004
285.40997
285.40989
285.40982
285.40975
285.40968
285.40961
285.40954
285.40947
285.4094
285.40934
285.40927
285.40921
285.40915
285.40909
285.40903
285.40897
285.40891
285.40885
285.4088
285.40874
285.40869
285.40863
285.40858
285.40853
285.40848
285.40843
285.40838
285.40834
285.40829
285.40824
285.4082
285.40815
285.40811
285.40807
285.40803
285.40799
285.40795
285.40791
285.40787
285.40783
285.4078
285.40776
285.40773
285.40769
285.40766
285.40763
285.40759
285.40756
285.40753
285.4075
285.40747
285.40744
285.40742
285.40739
285.40736
285.40734
285.40731
285.40729
285.40726
285.40724
285.40721
285.40719
285.40717
285.40714
285.40712
285.4071
285.40708
285.40706
285.40704
285.40703
285.40701
285.40699
285.40697
285.40696
285.40694
285.40692
285.40691
285.40689
285.40688
285.40686
285.40685
285.40683
285.40682
285.40681
285.4068
285.40678
285.40677
285.40676
285.40675
285.40674
285.40673
285.40672
285.40671
285.4067
285.40669
285.40668
285.40667
285.40666
285.40666
285.40665
285.40664
285.40663
285.40663
285.40662
285.40661
285.4066
285.4066
285.40659
285.40659
285.40658
285.40657
285.40657
285.40656
285.40656
285.40656
285.40655
285.40655
285.40654
285.40654
285.40653
285.40653
285.40653
285.40652
285.40652
285.40652
285.40651
285.40651
285.40651
285.40651
285.40651
285.4065
285.4065
285.4065
285.4065
285.4065
285.40649
285.40649
285.40649
285.40649
285.40649
285.40649
285.40649
285.40649
285.40648
285.40648
285.40648
285.40648
285.40648
285.40648
285.40648
285.40648
285.40648
285.40648
285.40648
285.40648
285.40648
285.40648
285.40648
285.40648
285.40648
285.40648
285.40648
285.40648
285.40648
285.40648
285.40648
285.40648
285.40649
285.40649
285.40649
285.40649
285.40649
285.40649
285.40649
285.40649
285.40649
285.4065
285.4065
285.4065
285.4065
285.4065
285.4065
285.4065
285.4065
285.40651
285.40651
285.40651
285.40651
285.40651
285.40651
285.40651
285.40651
285.40651
285.40651
285.40652
285.40652
285.40652
285.40652
285.40652
285.40652
285.40653
285.40653
285.40653
285.40653
285.40653
285.40653
285.40653
285.40654
285.40654
285.40654
285.40654
285.40654
285.40654
285.40654
285.40655
285.40655
285.40655
285.40655
285.40655
285.40656
285.40656
285.40656
285.40656
285.40656
285.40656
285.40656
285.40657
285.40657
285.40657
285.40657
285.40657
285.40657
285.40657
285.40658
285.40658
285.40658
285.40658
285.40658
285.40658
285.40659
285.40659
285.40659
285.40659
285.40659
285.4066
285.4066
285.4066
285.4066
285.4066
285.4066
285.40661
285.40661
285.40661
285.40661
285.40661
285.40661
285.40661
285.40662
285.40662
285.40662
285.40662
285.40662
285.40662
285.40663
285.40663
285.40663
285.40663
285.40663
285.40663
285.40664
285.40664
285.40664
285.40664
285.40664
285.40664
285.40665
285.40665
285.40665
285.40665
285.40665
285.40665
285.40666
285.40666
285.40666
285.40666
285.40666
285.40666
285.40666
285.40667
285.40667
285.40667
285.40667
285.40667
285.40668
285.40668
285.40668
285.40668
285.40668
285.40668
285.40668
285.40668
285.40669
285.40669
285.40669
285.40669
285.40669
285.40669
285.4067
285.4067
285.4067
285.4067
285.4067
285.40671
285.40671
285.40671
285.40671
285.40671
285.40671
285.40671
285.40672
285.40672
285.40672
285.40672
285.40672
285.40672
285.40672
285.40672
285.40673
285.40673
285.40673
285.40673
285.40673
285.40674
285.40674
285.40674
285.40674
285.40674
285.40674
285.40675
285.40675
285.40675
285.40675
285.40675
285.40675
285.40675
285.40675
285.40676
285.40676
285.40676
285.40676
285.40676
285.40676
285.40677
285.40677
285.40677
285.40677
285.40678
285.40678
285.40678
285.40678
285.40678
285.40678
285.40678
285.40679
285.40679
285.40679
285.40679
285.40679
285.40679
285.40679
285.4068
285.4068
285.4068
285.4068
285.4068
285.40681
285.40681
285.40681
285.40681
285.40681
285.40682
285.40682
285.40682
285.40682
285.40682
285.40683
285.40683
285.40683
285.40683
285.40683
285.40683
285.40684
285.40684
285.40684
285.40684
285.40684
285.40684
285.40685
285.40685
285.40685
285.40685
285.40685
285.40686
285.40686
285.40686
285.40686
285.40686
285.40687
285.40687
285.40687
285.40687
285.40687
285.40688
285.40688
285.40688
285.40688
285.40688
285.40689
285.40689
285.40689
285.40689
285.40689
285.40689
285.4069
285.4069
285.4069
285.4069
285.4069
285.40691
285.40691
285.40691
285.40691
285.40692
285.40692
285.40692
285.40692
285.40692
285.40692
285.40693
285.40693
285.40693
285.40693
285.40694
285.40694
285.40694
285.40694
285.40694
285.40695
285.40695
285.40695
285.40695
285.40695
285.40696
285.40696
285.40696
285.40696
285.40696
285.40697
285.40697
285.40697
285.40697
285.40697
285.40697
285.40698
285.40698
285.40698
285.40698
285.40698
285.40699
285.40699
285.40699
285.40699
285.40699
285.407
285.407
285.407
285.407
285.407
285.40701
285.40701
285.40701
285.40701
285.40701
285.40702
285.40702
285.40702
285.40702
285.40703
285.40703
285.40703
285.40703
285.40703
285.40704
285.40704
285.40704
285.40704
285.40704
285.40705
285.40705
285.40705
285.40705
285.40705
285.40706
285.40706
285.40706
285.40706
285.40706
285.40707
285.40707
285.40707
285.40707
285.40707
285.40708
285.40708
285.40708
285.40708
285.40708
285.40709
285.40709
285.40709
285.40709
285.4071
285.4071
285.4071
285.4071
285.4071
285.40711
285.40711
285.40711
285.40711
285.40712
285.40712
285.40712
285.40712
285.40712
285.40713
285.40713
285.40713
285.40713
285.40713
285.40714
285.40714
285.40714
285.40714
285.40714
285.40715
285.40715
285.40715
285.40715
285.40715
285.40716
285.40716
285.40716
285.40716
285.40717
285.40717
285.40717
285.40717
285.40718
285.40718
285.40718
285.40718
285.40719
285.40719
285.40719
285.40719
285.40719
285.40719
285.4072
285.4072
285.4072
285.4072
285.40721
285.40721
285.40721
285.40721
285.40721
285.40722
285.40722
285.40722
285.40723
285.40723
285.40723
285.40723
285.40724
285.40724
285.40724
285.40724
285.40725
285.40725
285.40725
285.40725
285.40725
285.40726
285.40726
285.40726
285.40726
285.40726
285.40727
285.40727
285.40727
285.40727
285.40728
285.40728
285.40728
285.40728
285.40729
285.40729
285.40729
285.40729
285.4073
285.4073
285.4073
285.4073
285.4073
285.40731
285.40731
285.40731
285.40731
285.40732
285.40732
285.40732
285.40732
285.40733
285.40733
285.40733
285.40733
285.40733
285.40734
285.40734
285.40734
285.40734
285.40735
285.40735
285.40735
285.40735
285.40736
285.40736
285.40736
285.40736
285.40737
285.40737
285.40737
285.40737
285.40738
285.40738
285.40738
285.40738
285.40739
285.40739
285.40739
285.4074
285.4074
285.4074
285.4074
285.4074
285.40741
285.40741
285.40741
285.40741
285.40742
285.40742
285.40742
285.40742
285.40743
285.40743
285.40743
285.40743
285.40744
285.40744
285.40744
285.40744
285.40745
285.40745
285.40745
285.40745
285.40746
285.40746
285.40746
285.40746
285.40747
285.40747
285.40747
285.40747
285.40748
285.40748
285.40748
285.40749
285.40749
285.40749
285.40749
285.4075
285.4075
285.4075
285.4075
285.4075
285.40751
285.40751
285.40751
285.40752
285.40752
285.40752
285.40752
285.40753
285.40753
285.40753
285.40753
285.40754
285.40754
285.40754
285.40755
285.40755
285.40755
285.40755
285.40756
285.40756
285.40756
285.40756
285.40757
285.40757
285.40757
285.40757
285.40758
285.40758
285.40758
285.40759
285.40759
285.40759
285.4076
285.4076
285.4076
285.4076
285.40761
285.40761
285.40761
285.40761
285.40762
285.40762
285.40762
285.40763
285.40763
285.40763
285.40764
285.40764
285.40764
285.40765
285.40765
285.40765
285.40765
285.40766
285.40766
285.40766
285.40766
285.40767
285.40767
285.40767
285.40767
285.40768
285.40768
285.40768
285.40769
285.40769
285.40769
285.4077
285.4077
285.4077
285.4077
285.40771
285.40771
285.40771
285.40772
285.40772
285.40772
285.40773
285.40773
285.40773
285.40774
285.40774
285.40774
285.40774
285.40775
285.40775
285.40775
285.40776
285.40776
285.40776
285.40777
285.40777
285.40777
285.40778
285.40778
285.40778
285.40778
285.40779
285.40779
285.40779
285.4078
285.4078
285.4078
285.40781
285.40781
285.40781
285.40781
285.40782
285.40782
285.40782
285.40783
285.40783
285.40784
285.40784
285.40784
285.40785
285.40785
285.40785
285.40786
285.40786
285.40786
285.40786
285.40787
285.40787
285.40787
285.40787
285.40788
285.40788
285.40788
285.40789
285.40789
285.40789
285.4079
285.4079
285.4079
285.40791
285.40791
285.40791
285.40792
285.40792
285.40792
285.40793
285.40793
285.40793
285.40794
285.40794
285.40794
285.40795
285.40795
285.40795
285.40796
285.40796
285.40796
285.40797
285.40797
285.40797
285.40798
285.40798
285.40798
285.40799
285.40799
285.40799
285.408
285.408
285.408
285.408
285.40801
285.40801
285.40802
285.40802
285.40802
285.40803
285.40803
285.40803
285.40804
285.40804
285.40804
285.40805
285.40805
285.40805
285.40806
285.40806
285.40806
285.40807
285.40807
285.40808
285.40808
285.40808
285.40809
285.40809
285.40809
285.4081
285.4081
285.4081
285.40811
285.40811
285.40811
285.40812
285.40812
285.40812
285.40813
285.40813
285.40813
285.40814
285.40814
285.40815
285.40815
285.40815
285.40816
285.40816
285.40817
285.40817
285.40817
285.40818
285.40818
285.40818
285.40819
285.40819
285.40819
285.4082
285.4082
285.40821
285.40821
285.40821
285.40822
285.40822
285.40823
285.40823
285.40823
285.40824
285.40824
285.40824
285.40825
285.40825
285.40825
285.40826
285.40826
285.40827
285.40827
285.40828
285.40828
285.40829
285.40829
285.40829
285.4083
285.4083
285.40831
285.40831
285.40831
285.40832
285.40832
285.40833
285.40833
285.40834
285.40834
285.40834
285.40835
285.40835
285.40836
285.40836
285.40836
285.40837
285.40837
285.40837
285.40838
285.40838
285.40839
285.40839
285.40839
285.4084
285.4084
285.40841
285.40841
285.40842
285.40842
285.40843
285.40843
285.40843
285.40844
285.40844
285.40845
285.40845
285.40846
285.40846
285.40846
285.40847
285.40847
285.40848
285.40848
285.40849
285.40849
285.40849
285.4085
285.4085
285.40851
285.40851
285.40852
285.40852
285.40853
285.40853
285.40854
285.40854
285.40854
285.40855
285.40855
285.40856
285.40856
285.40857
285.40857
285.40857
285.40858
285.40858
285.40859
285.40859
285.4086
285.4086
285.40861
285.40861
285.40861
285.40862
285.40862
285.40863
285.40863
285.40864
285.40864
285.40865
285.40865
285.40866
285.40866
285.40866
285.40867
285.40867
285.40868
285.40868
285.40869
285.40869
285.4087
285.4087
285.40871
285.40871
285.40872
285.40872
285.40873
285.40873
285.40874
285.40874
285.40875
285.40875
285.40876
285.40876
285.40877
285.40877
285.40878
285.40878
285.40879
285.40879
285.4088
285.4088
285.40881
285.40881
285.40882
285.40882
285.40883
285.40883
285.40884
285.40884
285.40885
285.40885
285.40886
285.40886
285.40887
285.40887
285.40888
285.40888
285.40889
285.40889
285.4089
285.4089
285.40891
285.40891
285.40892
285.40892
285.40893
285.40894
285.40894
285.40895
285.40895
285.40896
285.40896
285.40897
285.40897
285.40898
285.40898
285.40899
285.40899
285.409
285.409
285.40901
285.40902
285.40902
285.40903
285.40903
285.40904
285.40904
285.40905
285.40906
285.40906
285.40907
285.40907
285.40908
285.40908
285.40909
285.4091
285.4091
285.40911
285.40911
285.40912
285.40912
285.40913
285.40913
285.40914
285.40915
285.40915
285.40916
285.40916
285.40917
285.40917
285.40918
285.40919
285.40919
285.4092
285.40921
285.40921
285.40922
285.40922
285.40923
285.40924
285.40924
285.40925
285.40925
285.40926
285.40926
285.40927
285.40928
285.40928
285.40929
285.40929
285.4093
285.40931
285.40931
285.40932
285.40933
285.40933
285.40934
285.40935
285.40935
285.40936
285.40937
285.40937
285.40938
285.40939
285.40939
285.4094
285.40941
285.40941
285.40942
285.40942
285.40943
285.40944
285.40944
285.40945
285.40946
285.40947
285.40947
285.40948
285.40949
285.40949
285.4095
285.40951
285.40951
285.40952
285.40953
285.40953
285.40954
285.40954
285.40955
285.40956
285.40957
285.40957
285.40958
285.40959
285.40959
285.4096
285.40961
285.40962
285.40962
285.40963
285.40964
285.40964
285.40965
285.40966
285.40966
285.40967
285.40968
285.40969
285.40969
285.4097
285.40971
285.40972
285.40972
285.40973
285.40974
285.40975
285.40975
285.40976
285.40977
285.40978
285.40978
285.40979
285.4098
285.40981
285.40981
285.40982
285.40983
285.40983
285.40984
285.40985
285.40986
285.40987
285.40987
285.40988
285.40989
285.4099
285.40991
285.40991
285.40992
285.40993
285.40994
285.40995
285.40995
285.40996
285.40997
285.40998
285.40999
285.40999
285.41
285.41001
285.41002
285.41003
285.41004
285.41004
285.41005
285.41006
285.41007
285.41008
285.41009
285.41009
285.4101
285.41011
285.41012
285.41013
285.41014
285.41015
285.41015
285.41016
285.41017
285.41018
285.41019
285.4102
285.41021
285.41022
285.41022
285.41023
285.41024
285.41025
285.41026
285.41027
285.41028
285.41029
285.41029
285.41031
285.41031
285.41032
285.41033
285.41034
285.41035
285.41036
285.41037
285.41038
285.41039
285.4104
285.41041
285.41042
285.41043
285.41044
285.41045
285.41045
285.41046
285.41047
285.41048
285.41049
285.4105
285.41051
285.41052
285.41053
285.41054
285.41055
285.41056
285.41057
285.41058
285.41059
285.4106
285.41061
285.41062
285.41063
285.41064
285.41065
285.41066
285.41067
285.41069
285.4107
285.41071
285.41072
285.41073
285.41074
285.41075
285.41076
285.41077
285.41078
285.41079
285.4108
285.41081
285.41082
285.41083
285.41084
285.41085
285.41087
285.41088
285.41089
285.4109
285.41091
285.41092
285.41093
285.41095
285.41096
285.41097
285.41098
285.41099
285.41101
285.41102
285.41103
285.41104
285.41105
285.41107
285.41108
285.41109
285.4111
285.41111
285.41112
285.41114
285.41115
285.41116
285.41117
285.41118
285.4112
285.41121
285.41122
285.41123
285.41125
285.41126
285.41127
285.41129
285.4113
285.41131
285.41133
285.41134
285.41135
285.41137
285.41138
285.41139
285.41141
285.41142
285.41143
285.41145
285.41146
285.41147
285.41149
285.4115
285.41151
285.41153
285.41154
285.41156
285.41157
285.41158
285.4116
285.41161
285.41163
285.41164
285.41166
285.41167
285.41169
285.4117
285.41171
285.41173
285.41174
285.41176
285.41177
285.41179
285.4118
285.41182
285.41183
285.41185
285.41186
285.41188
285.4119
285.41191
285.41193
285.41194
285.41196
285.41197
285.41199
285.41201
285.41202
285.41204
285.41205
285.41207
285.41209
285.4121
285.41212
285.41214
285.41215
285.41217
285.41219
285.41221
285.41222
285.41224
285.41226
285.41227
285.41229
285.41231
285.41233
285.41235
285.41236
285.41238
285.4124
285.41242
285.41243
285.41245
285.41247
285.41249
285.41251
285.41252
285.41254
285.41256
285.41258
285.4126
285.41262
285.41264
285.41266
285.41267
285.41269
285.41271
285.41273
285.41275
285.41277
285.41279
285.41281
285.41283
285.41286
285.41288
285.4129
285.41292
285.41294
285.41296
285.41298
285.413
285.41303
285.41305
285.41307
285.41309
285.41311
285.41313
285.41316
285.41318
285.4132
285.41322
285.41324
285.41326
285.41329
285.41331
285.41333
285.41336
285.41338
285.4134
285.41343
285.41345
285.41348
285.4135
285.41353
285.41355
285.41358
285.4136
285.41363
285.41365
285.41368
285.4137
285.41373
285.41376
285.41378
285.41381
285.41383
285.41386
285.41389
285.41391
285.41394
285.41397
285.41399
285.41402
285.41405
285.41408
285.41411
285.41413
285.41416
285.41419
285.41422
285.41426
285.41429
285.41432
285.41435
285.41438
285.41441
285.41444
285.41447
285.4145
285.41453
285.41456
285.41459
285.41462
285.41465
285.41468
285.41472
285.41475
285.41478
285.41481
285.41485
285.41488
285.41492
285.41495
285.41498
285.41502
285.41505
285.41509
285.41513
285.41516
285.4152
285.41524
285.41528
285.41531
285.41535
285.41539
285.41543
285.41547
285.41551
285.41555
285.41559
285.41563
285.41567
285.41571
285.41575
285.41579
285.41583
285.41587
285.41592
285.41596
285.41601
285.41605
285.41609
285.41614
285.41618
285.41623
285.41627
285.41632
285.41637
285.41641
285.41646
285.41651
285.41656
285.41661
285.41666
285.41671
285.41676
285.41681
285.41686
285.41691
285.41697
285.41702
285.41708
285.41713
285.41719
285.41725
285.41731
285.41736
285.41742
285.41748
285.41754
285.4176
285.41766
285.41772
285.41778
285.41784
285.4179
285.41797
285.41803
285.41809
285.41816
285.41822
285.41829
285.41836
285.41843
285.4185
285.41857
285.41865
285.41872
285.4188
285.41888
285.41895
285.41903
285.41911
285.41919
285.41927
285.41936
285.41944
285.41952
285.41961
285.41969
285.41978
285.41987
285.41996
285.42005
285.42015
285.42024
285.42034
285.42044
285.42054
285.42064
285.42074
285.42084
285.42095
285.42105
285.42116
285.42127
285.42138
285.42149
285.4216
285.42171
285.42182
285.42194
285.42205
285.42217
285.42228
285.4224
285.42252
285.42264
285.42275
285.42287
285.42298
285.4231
285.42321
285.42331
285.42342
285.42352
285.42362
285.42371
285.42379
285.42388
285.42395
285.42402
285.42408
285.42413
285.42417
285.42421
285.42424
285.42426
285.42427
285.42428
285.42428
285.42428
285.42428
285.42427
285.42425
285.42422
285.42419
285.42417
285.42415
285.42413
285.42412
285.42412
285.42412
285.42412
285.42413
285.42415
285.4242
285.4243
285.42443
285.42457
285.42474
285.42492
285.42512
285.42533
285.42556
285.4258
285.42606
285.42632
285.42659
285.42686
285.42713
285.4274
285.42766
285.42791
285.42815
285.42838
285.4286
285.4288
285.42898
285.42914
285.42927
285.42938
285.42947
285.42952
285.42956
285.42959
285.42963
285.4297
285.42987
285.43024
285.43113
285.4333
285.43864
285.45185
285.48468
285.56585
285.76747
286.18107
286.7283
287.39328
288.1631
289.02
289.9425
290.90702
291.88942
292.8665
293.81725
294.72374
295.57172
296.35085
297.05467
297.68027
298.22786
298.70015
299.10178
299.43872
299.71769
299.94574
300.12988
300.27676
300.39253
300.48272
300.55214
300.60494
300.64461
300.67402
300.69553
300.71103
300.722
300.7296
300.73473
300.73807
300.74015
300.74133
300.74191
300.7421
300.74211
300.742
300.74159
300.74096
300.74036
300.7398
300.73927
300.73877
300.73831
300.73787
300.73745
300.73706
300.73668
300.73632
300.73596
300.7356
300.73525
300.73489
300.73453
300.73416
300.73377
300.73337
300.73295
300.73252
300.73207
300.73161
300.73113
300.73065
300.73015
300.72965
300.72915
300.72865
300.72815
300.72766
300.72718
300.72671
300.72626
300.72581
300.72539
300.72498
300.72459
300.72422
300.72386
300.72352
300.7232
300.7229
300.72261
300.72233
300.72207
300.72182
300.72158
300.72136
300.72114
300.72093
300.72073
300.72054
300.72036
300.72018
300.72001
300.71984
300.71968
300.71952
300.71937
300.71922
300.71908
300.71893
300.7188
300.71866
300.71853
300.7184
300.71827
300.71815
300.71803
300.71791
300.71779
300.71767
300.71756
300.71745
300.71734
300.71723
300.71712
300.71702
300.71692
300.71681
300.71672
300.71662
300.71652
300.71643
300.71633
300.71624
300.71615
300.71606
300.71597
300.71588
300.71579
300.71571
300.71562
300.71554
300.71546
300.71538
300.7153
300.71522
300.71514
300.71507
300.71499
300.71492
300.71484
300.71477
300.7147
300.71463
300.71456
300.71449
300.71443
300.71436
300.71429
300.71423
300.71417
300.7141
300.71404
300.71398
300.71391
300.71385
300.71379
300.71373
300.71367
300.71361
300.71355
300.71349
300.71344
300.71338
300.71332
300.71327
300.71321
300.71316
300.71311
300.71305
300.713
300.71295
300.7129
300.71285
300.7128
300.71275
300.7127
300.71265
300.7126
300.71255
300.7125
300.71246
300.71241
300.71236
300.71232
300.71227
300.71223
300.71218
300.71214
300.71209
300.71205
300.71201
300.71196
300.71192
300.71188
300.71184
300.7118
300.71176
300.71172
300.71168
300.71164
300.7116
300.71156
300.71152
300.71148
300.71145
300.71141
300.71137
300.71133
300.7113
300.71126
300.71122
300.71119
300.71115
300.71112
300.71108
300.71105
300.71101
300.71098
300.71094
300.71091
300.71088
300.71084
300.71081
300.71078
300.71075
300.71071
300.71068
300.71065
300.71062
300.71058
300.71055
300.71052
300.71049
300.71046
300.71043
300.7104
300.71037
300.71034
300.71031
300.71028
300.71025
300.71022
300.7102
300.71017
300.71014
300.71011
300.71009
300.71006
300.71003
300.71
300.70998
300.70995
300.70992
300.70989
300.70987
300.70984