/*--------------------------------*- C++ -*----------------------------------*\
  =========                 |
  \\      /  F ield         | OpenFOAM: The Open Source CFD Toolbox
   \\    /   O peration     | Website:  https://openfoam.org
    \\  /    A nd           | Version:  7
     \\/     M anipulation  |
\*---------------------------------------------------------------------------*/
FoamFile
{
    version     2.0;
    format      ascii;
    class       surfaceScalarField;
    location    "0.00113";
    object      phi;
}
// * * * * * * * * * * * * * * * * * * * * * * * * * * * * * * * * * * * * * //

dimensions      [1 0 -1 0 0 0 0];

internalField   nonuniform List<scalar> 
4999
(
2.1316282e-14
2.1316282e-14
2.8421709e-14
2.1316282e-14
4.2632564e-14
5.6843419e-14
6.3948846e-14
7.1054274e-14
7.8159701e-14
9.9475983e-14
9.9475983e-14
9.2370556e-14
1.1368684e-13
1.1368684e-13
1.1368684e-13
1.1368684e-13
1.3500312e-13
1.563194e-13
1.6342483e-13
1.8474111e-13
1.9184654e-13
2.2737368e-13
2.344791e-13
2.5579538e-13
2.7711167e-13
2.9132252e-13
2.9842795e-13
3.4816594e-13
3.5527137e-13
3.907985e-13
4.2632564e-13
4.405365e-13
4.8316906e-13
5.4001248e-13
5.7553962e-13
6.3238303e-13
6.9633188e-13
7.3896445e-13
8.1001872e-13
8.8107299e-13
9.7344355e-13
1.0516032e-12
1.1368684e-12
1.2576606e-12
1.3500312e-12
1.4566126e-12
1.5916157e-12
1.7550406e-12
1.9184654e-12
2.0889956e-12
2.2879476e-12
2.5011104e-12
2.7284841e-12
2.9700686e-12
3.2329694e-12
3.524292e-12
3.8440362e-12
4.1922021e-12
4.5758952e-12
4.9737992e-12
5.4143356e-12
5.8903993e-12
6.4375172e-12
6.9917405e-12
7.631229e-12
8.31335e-12
9.0594199e-12
9.876544e-12
1.080025e-11
1.1752377e-11
1.280398e-11
1.3933743e-11
1.5162982e-11
1.6498802e-11
1.794831e-11
1.9561242e-11
2.1280755e-11
2.3156588e-11
2.5210056e-11
2.742695e-11
2.9814373e-11
3.2436276e-11
3.5299763e-11
3.8426151e-11
4.1772807e-11
4.5417892e-11
4.9389826e-11
5.3667293e-11
5.8314242e-11
6.335199e-11
6.8823169e-11
7.4777518e-11
8.122214e-11
8.8185459e-11
9.5745634e-11
1.0393819e-10
1.1283419e-10
1.2249757e-10
1.3294255e-10
1.442686e-10
1.5651125e-10
1.6982682e-10
1.8417978e-10
1.9975488e-10
2.1661606e-10
2.348699e-10
2.5461588e-10
2.7599611e-10
2.9912428e-10
3.2412828e-10
3.5121417e-10
3.8047432e-10
4.121361e-10
4.4634874e-10
4.8333959e-10
5.2332183e-10
5.6654414e-10
6.1324812e-10
6.6372507e-10
7.1818107e-10
7.7704243e-10
8.4061469e-10
9.0925312e-10
9.8334141e-10
1.0633485e-09
1.1496866e-09
1.24286e-09
1.3433876e-09
1.451852e-09
1.5688428e-09
1.6950281e-09
1.8310899e-09
1.9778099e-09
2.1359554e-09
2.3064146e-09
2.4901539e-09
2.6881395e-09
2.9014444e-09
3.1312339e-09
3.3787515e-09
3.6453258e-09
3.9323567e-09
4.2413717e-09
4.5740052e-09
4.9320477e-09
5.3173466e-09
5.7319269e-09
6.1779133e-09
6.657686e-09
7.1736821e-09
7.7285591e-09
8.3251166e-09
8.966488e-09
9.6558423e-09
1.0396718e-08
1.1192803e-08
1.2048154e-08
1.2966993e-08
1.3953837e-08
1.5013619e-08
1.6151574e-08
1.7373232e-08
1.8684581e-08
2.0091981e-08
2.1602297e-08
2.3222746e-08
2.4961139e-08
2.6825774e-08
2.8825433e-08
3.0969638e-08
3.326852e-08
3.5732825e-08
3.8374012e-08
4.120443e-08
4.4237133e-08
4.7486097e-08
5.0966165e-08
5.4693253e-08
5.86843e-08
6.2957263e-08
6.7531467e-08
7.2427355e-08
7.7666712e-08
8.3272823e-08
8.9270408e-08
9.5685799e-08
1.0254706e-07
1.0988408e-07
1.177286e-07
1.2611441e-07
1.3507753e-07
1.4465618e-07
1.5489108e-07
1.6582548e-07
1.7750534e-07
1.8997959e-07
2.033002e-07
2.1752234e-07
2.3270464e-07
2.4890942e-07
2.6620285e-07
2.8465517e-07
3.0434095e-07
3.2533941e-07
3.4773446e-07
3.7161532e-07
3.9707655e-07
4.2421849e-07
4.5314751e-07
4.8397643e-07
5.1682481e-07
5.5181943e-07
5.8909464e-07
6.2879273e-07
6.7106456e-07
7.1606982e-07
7.6397767e-07
8.1496719e-07
8.69228e-07
9.2696077e-07
9.883779e-07
1.0537041e-06
1.123177e-06
1.1970481e-06
1.2755833e-06
1.3590636e-06
1.4477862e-06
1.5420652e-06
1.6422324e-06
1.7486385e-06
1.8616539e-06
1.9816698e-06
2.1090992e-06
2.2443782e-06
2.3879672e-06
2.5403519e-06
2.702045e-06
2.8735871e-06
3.0555488e-06
3.2485315e-06
3.4531694e-06
3.6701312e-06
3.9001214e-06
4.1438827e-06
4.4021975e-06
4.6758897e-06
4.9658274e-06
5.2729246e-06
5.5981433e-06
5.9424963e-06
6.3070496e-06
6.6929244e-06
7.1013007e-06
7.533419e-06
7.9905843e-06
8.4741684e-06
8.9856132e-06
9.5264345e-06
1.0098225e-05
1.0702656e-05
1.1341487e-05
1.2016562e-05
1.2729819e-05
1.3483291e-05
1.4279114e-05
1.5119527e-05
1.6006879e-05
1.6943637e-05
1.7932383e-05
1.897583e-05
2.0076817e-05
2.1238322e-05
2.2463466e-05
2.3755517e-05
2.5117899e-05
2.6554197e-05
2.8068166e-05
2.9663735e-05
3.1345017e-05
3.3116317e-05
3.4982135e-05
3.6947182e-05
3.9016382e-05
4.1194884e-05
4.3488069e-05
4.5901563e-05
4.8441242e-05
5.1113245e-05
5.3923985e-05
5.6880158e-05
5.9988754e-05
6.3257069e-05
6.6692717e-05
7.0303642e-05
7.409813e-05
7.8084825e-05
8.2272735e-05
8.6671255e-05
9.1290174e-05
9.6139693e-05
0.00010123044
0.00010657348
0.00011218034
0.00011806302
0.00012423401
0.00013070631
0.00013749344
0.00014460947
0.00015206902
0.0001598873
0.00016808012
0.00017666391
0.00018565575
0.00019507336
0.00020493516
0.00021526028
0.00022606856
0.00023738061
0.0002492178
0.00026160231
0.00027455714
0.00028810614
0.00030227402
0.00031708642
0.00033256987
0.00034875189
0.00036566095
0.00038332655
0.00040177922
0.00042105055
0.00044117326
0.00046218115
0.0004841092
0.00050699359
0.00053087169
0.00055578215
0.00058176488
0.00060886112
0.00063711346
0.00066656586
0.00069726369
0.0007292538
0.00076258449
0.0007973056
0.00083346851
0.0008711262
0.00091033325
0.00095114593
0.00099362218
0.0010378217
0.0010838059
0.001131638
0.0011813832
0.0012331083
0.0012868823
0.001342776
0.0014008621
0.0014612154
0.0015239129
0.0015890335
0.0016566582
0.0017268703
0.0017997551
0.0018754005
0.0019538961
0.0020353343
0.0021198095
0.0022074187
0.002298261
0.0023924382
0.0024900544
0.0025912162
0.0026960326
0.0028046154
0.0029170787
0.0030335392
0.0031541164
0.0032789323
0.0034081115
0.0035417813
0.0036800718
0.0038231157
0.0039710483
0.004124008
0.0042821356
0.0044455748
0.0046144721
0.0047889767
0.0049692407
0.0051554188
0.0053476688
0.0055461509
0.0057510284
0.0059624674
0.0061806364
0.0064057072
0.0066378539
0.0068772537
0.0071240864
0.0073785344
0.007640783
0.0079110201
0.0081894363
0.0084762247
0.0087715811
0.0090757038
0.0093887938
0.0097110544
0.010042691
0.010383913
0.01073493
0.011095956
0.011467205
0.011848894
0.012241245
0.012644477
0.013058816
0.013484486
0.013921716
0.014370734
0.014831773
0.015305064
0.015790844
0.016289347
0.016800812
0.017325478
0.017863584
0.018415372
0.018981086
0.019560968
0.020155263
0.020764217
0.021388076
0.022027086
0.022681495
0.023351551
0.024037502
0.024739596
0.025458081
0.026193206
0.026945219
0.027714369
0.028500902
0.029305067
0.030127109
0.030967275
0.03182581
0.032702958
0.033598963
0.034514066
0.035448508
0.036402529
0.037376365
0.038370254
0.03938443
0.040419126
0.04147457
0.042550993
0.04364862
0.044767676
0.04590838
0.047070952
0.048255608
0.049462562
0.050692022
0.051944197
0.053219291
0.054517504
0.055839034
0.057184074
0.058552816
0.059945445
0.061362146
0.062803096
0.064268471
0.065758443
0.067273177
0.068812837
0.070377582
0.071967565
0.073582936
0.075223841
0.076890418
0.078582805
0.080301133
0.082045527
0.083816109
0.085612995
0.087436297
0.089286122
0.09116257
0.093065737
0.094995716
0.096952591
0.098936444
0.10094735
0.10298538
0.10505059
0.10714305
0.10926281
0.11140993
0.11358443
0.11578636
0.11801576
0.12027264
0.12255704
0.12486896
0.12720842
0.12957542
0.13196996
0.13439204
0.13684164
0.13931875
0.14182335
0.14435541
0.1469149
0.14950178
0.152116
0.15475752
0.15742629
0.16012225
0.16284533
0.16559546
0.16837258
0.1711766
0.17400744
0.17686501
0.17974922
0.18265996
0.18559715
0.18856067
0.1915504
0.19456624
0.19760806
0.20067573
0.20376913
0.20688812
0.21003256
0.21320231
0.21639723
0.21961716
0.22286195
0.22613144
0.22942547
0.23274387
0.23608647
0.2394531
0.24284358
0.24625772
0.24969536
0.25315629
0.25664033
0.26014728
0.26367694
0.26722912
0.27080361
0.27440021
0.2780187
0.28165888
0.28532052
0.28900341
0.29270733
0.29643206
0.30017737
0.30394304
0.30772882
0.3115345
0.31535983
0.31920458
0.32306851
0.32695138
0.33085293
0.33477294
0.33871115
0.34266731
0.34664117
0.35063247
0.35464097
0.35866641
0.36270852
0.36676706
0.37084175
0.37493234
0.37903857
0.38316016
0.38729685
0.39144837
0.39561446
0.39979484
0.40398925
0.40819741
0.41241904
0.41665387
0.42090164
0.42516205
0.42943484
0.43371972
0.43801642
0.44232465
0.44664413
0.45097459
0.45531574
0.4596673
0.46402898
0.4684005
0.47278158
0.47717192
0.48157124
0.48597926
0.49039569
0.49482023
0.49925261
0.50369252
0.50813969
0.51259382
0.51705462
0.52152181
0.52599508
0.53047414
0.53495872
0.5394485
0.54394321
0.54844254
0.5529462
0.5574539
0.56196534
0.56648024
0.57099828
0.57551919
0.58004265
0.58456839
0.58909609
0.59362547
0.59815623
0.60268806
0.60722068
0.61175379
0.61628707
0.62082025
0.62535302
0.62988508
0.63441613
0.63894588
0.64347402
0.64800025
0.65252428
0.6570458
0.66156451
0.66608012
0.67059231
0.67510079
0.67960526
0.68410542
0.68860096
0.69309158
0.69757699
0.70205687
0.70653093
0.71099886
0.71546037
0.71991515
0.72436289
0.72880329
0.73323606
0.73766088
0.74207745
0.74648548
0.75088465
0.75527467
0.75965523
0.76402602
0.76838675
0.7727371
0.77707679
0.78140549
0.78572292
0.79002876
0.79432272
0.79860449
0.80287377
0.80713025
0.81137364
0.81560364
0.81981993
0.82402223
0.82821022
0.83238361
0.83654211
0.8406854
0.84481319
0.84892519
0.85302109
0.85710061
0.86116343
0.86520928
0.86923784
0.87324884
0.87724197
0.88121695
0.88517349
0.88911129
0.89303006
0.89692953
0.90080941
0.9046694
0.90850924
0.91232863
0.9161273
0.91990497
0.92366136
0.92739621
0.93110923
0.93480016
0.93846874
0.94211469
0.94573775
0.94933766
0.95291417
0.95646701
0.95999593
0.96350069
0.96698104
0.97043673
0.97386752
0.97727318
0.98065346
0.98400814
0.98733699
0.99063979
0.99391632
0.99716636
1.0003897
1.0035861
1.0067554
1.0098974
1.0130119
1.0160987
1.0191577
1.0221885
1.0251912
1.0281654
1.031111
1.0340279
1.036916
1.0397749
1.0426048
1.0454053
1.0481763
1.0509178
1.0536296
1.0563116
1.0589637
1.0615858
1.0641778
1.0667395
1.0692711
1.0717723
1.074243
1.0766834
1.0790932
1.0814724
1.083821
1.0861391
1.0884264
1.0906831
1.0929092
1.0951046
1.0972693
1.0994033
1.1015068
1.1035796
1.1056219
1.1076337
1.1096151
1.111566
1.1134867
1.1153771
1.1172373
1.1190676
1.1208678
1.1226382
1.1243789
1.12609
1.1277716
1.129424
1.1310471
1.1326412
1.1342065
1.135743
1.1372511
1.1387308
1.1401825
1.1416062
1.1430021
1.1443706
1.1457117
1.1470258
1.1483131
1.1495738
1.1508081
1.1520163
1.1531987
1.1543555
1.155487
1.1565934
1.157675
1.1587322
1.1597652
1.1607742
1.1617597
1.1627218
1.1636609
1.1645773
1.1654713
1.1663432
1.1671933
1.168022
1.1688295
1.1696162
1.1703824
1.1711285
1.1718547
1.1725614
1.1732489
1.1739176
1.1745677
1.1751997
1.1758138
1.1764104
1.1769898
1.1775524
1.1780984
1.1786283
1.1791422
1.1796406
1.1801239
1.1805922
1.1810459
1.1814855
1.181911
1.182323
1.1827217
1.1831074
1.1834805
1.1838412
1.1841898
1.1845266
1.184852
1.1851662
1.1854695
1.1857623
1.1860447
1.1863171
1.1865797
1.1868328
1.1870767
1.1873116
1.1875379
1.1877556
1.1879652
1.1881668
1.1883607
1.1885471
1.1887263
1.1888984
1.1890638
1.1892225
1.1893749
1.1895211
1.1896614
1.1897959
1.1899248
1.1900483
1.1901667
1.19028
1.1903886
1.1904924
1.1905918
1.1906868
1.1907776
1.1908645
1.1909474
1.1910267
1.1911023
1.1911745
1.1912434
1.1913091
1.1913718
1.1914315
1.1914884
1.1915427
1.1915943
1.1916434
1.1916902
1.1917346
1.1917769
1.1918171
1.1918553
1.1918916
1.191926
1.1919587
1.1919898
1.1920192
1.1920471
1.1920736
1.1920986
1.1921224
1.1921448
1.1921661
1.1921862
1.1922053
1.1922233
1.1922403
1.1922563
1.1922715
1.1922858
1.1922993
1.192312
1.1923241
1.1923354
1.192346
1.1923561
1.1923655
1.1923744
1.1923827
1.1923906
1.1923979
1.1924049
1.1924113
1.1924174
1.1924231
1.1924285
1.1924335
1.1924381
1.1924425
1.1924466
1.1924504
1.1924539
1.1924573
1.1924604
1.1924632
1.1924659
1.1924684
1.1924707
1.1924729
1.1924749
1.1924768
1.1924785
1.1924802
1.1924817
1.1924831
1.1924844
1.1924857
1.1924869
1.192488
1.192489
1.1924901
1.192491
1.192492
1.1924929
1.1924937
1.1924946
1.1924955
1.1924965
1.1924974
1.1924984
1.1924995
1.1925005
1.1925014
1.1925024
1.1925034
1.1925044
1.1925053
1.1925062
1.1925071
1.1925079
1.1925086
1.1925093
1.1925099
1.1925104
1.1925109
1.1925112
1.1925115
1.1925117
1.1925119
1.1925119
1.1925122
1.1925127
1.1925133
1.1925137
1.1925143
1.1925151
1.1925158
1.1925165
1.1925172
1.192518
1.1925188
1.1925196
1.1925204
1.1925213
1.1925222
1.1925229
1.1925238
1.1925247
1.1925256
1.1925265
1.1925274
1.1925283
1.1925292
1.19253
1.1925309
1.1925317
1.1925325
1.1925333
1.192534
1.1925347
1.1925353
1.192536
1.1925365
1.1925371
1.1925376
1.1925381
1.1925385
1.1925388
1.1925391
1.1925394
1.1925397
1.1925399
1.19254
1.1925402
1.1925405
1.1925409
1.1925412
1.1925415
1.1925419
1.1925423
1.1925426
1.192543
1.1925435
1.192544
1.1925444
1.1925448
1.1925454
1.192546
1.1925465
1.1925471
1.1925476
1.1925482
1.1925487
1.1925492
1.1925497
1.1925503
1.1925508
1.1925513
1.1925517
1.1925522
1.1925527
1.1925532
1.1925537
1.1925541
1.1925546
1.192555
1.1925554
1.1925557
1.1925561
1.1925565
1.1925568
1.1925572
1.1925576
1.192558
1.1925584
1.1925588
1.1925592
1.1925597
1.1925601
1.1925606
1.1925611
1.1925615
1.192562
1.1925624
1.1925629
1.1925633
1.1925637
1.1925641
1.1925644
1.1925648
1.1925651
1.1925654
1.1925656
1.1925659
1.1925662
1.1925665
1.1925667
1.192567
1.1925673
1.1925676
1.1925679
1.1925682
1.1925685
1.1925688
1.192569
1.1925692
1.1925694
1.1925694
1.1925694
1.1925695
1.1925697
1.19257
1.1925704
1.1925708
1.1925711
1.1925714
1.1925717
1.192572
1.1925723
1.1925727
1.192573
1.1925733
1.1925735
1.1925738
1.1925741
1.1925744
1.1925747
1.1925749
1.1925752
1.1925754
1.1925756
1.1925758
1.1925759
1.192576
1.1925761
1.1925762
1.1925763
1.1925764
1.1925765
1.1925765
1.1925766
1.1925765
1.1925764
1.1925763
1.1925763
1.1925762
1.1925761
1.192576
1.1925759
1.1925758
1.1925757
1.1925756
1.1925754
1.1925753
1.1925753
1.1925753
1.1925753
1.1925754
1.1925756
1.1925757
1.1925759
1.192576
1.1925762
1.1925764
1.1925767
1.192577
1.1925773
1.1925775
1.1925778
1.1925781
1.1925784
1.1925786
1.1925789
1.1925791
1.1925793
1.1925795
1.1925797
1.1925798
1.1925799
1.1925801
1.1925802
1.1925803
1.1925804
1.1925805
1.1925805
1.1925806
1.1925807
1.1925807
1.1925807
1.1925808
1.1925808
1.1925808
1.1925808
1.1925808
1.1925808
1.1925808
1.1925808
1.1925808
1.1925808
1.1925808
1.1925808
1.1925808
1.1925807
1.1925807
1.1925807
1.1925806
1.1925806
1.1925805
1.1925805
1.1925804
1.1925804
1.1925803
1.1925802
1.1925802
1.1925801
1.19258
1.1925799
1.1925798
1.1925797
1.1925796
1.1925795
1.1925794
1.1925793
1.1925792
1.192579
1.1925789
1.1925787
1.1925785
1.1925784
1.1925782
1.192578
1.1925778
1.1925775
1.1925773
1.192577
1.1925768
1.1925765
1.1925763
1.192576
1.1925757
1.1925754
1.1925751
1.1925748
1.1925745
1.1925743
1.192574
1.1925737
1.1925735
1.1925732
1.192573
1.1925728
1.1925725
1.1925724
1.1925722
1.192572
1.1925718
1.1925717
1.1925716
1.1925715
1.1925714
1.1925713
1.1925713
1.1925712
1.1925712
1.1925712
1.1925711
1.1925711
1.1925711
1.1925711
1.1925711
1.1925711
1.1925711
1.1925711
1.1925711
1.1925711
1.1925711
1.1925711
1.1925711
1.1925711
1.1925711
1.192571
1.192571
1.1925709
1.1925709
1.1925708
1.1925707
1.1925707
1.1925706
1.1925705
1.1925704
1.1925703
1.1925702
1.19257
1.1925699
1.1925698
1.1925696
1.1925695
1.1925693
1.1925692
1.192569
1.1925688
1.1925687
1.1925685
1.1925683
1.1925682
1.192568
1.1925678
1.1925677
1.1925675
1.1925673
1.1925672
1.192567
1.1925669
1.1925667
1.1925666
1.1925664
1.1925663
1.1925662
1.192566
1.1925659
1.1925658
1.1925657
1.1925656
1.1925654
1.1925653
1.1925652
1.1925651
1.192565
1.1925649
1.1925649
1.1925648
1.1925647
1.1925646
1.1925645
1.1925644
1.1925643
1.1925643
1.1925642
1.1925641
1.192564
1.1925639
1.1925639
1.1925638
1.1925637
1.1925636
1.1925635
1.1925635
1.1925634
1.1925633
1.1925632
1.1925632
1.1925631
1.192563
1.1925629
1.1925629
1.1925628
1.1925627
1.1925627
1.1925626
1.1925625
1.1925624
1.1925623
1.1925623
1.1925622
1.1925621
1.192562
1.1925619
1.1925619
1.1925618
1.1925617
1.1925616
1.1925615
1.1925614
1.1925613
1.1925612
1.1925611
1.192561
1.1925609
1.1925608
1.1925607
1.1925606
1.1925605
1.1925604
1.1925603
1.1925602
1.1925601
1.1925599
1.1925598
1.1925597
1.1925596
1.1925594
1.1925593
1.1925592
1.1925591
1.1925589
1.1925588
1.1925587
1.1925585
1.1925584
1.1925583
1.1925581
1.192558
1.1925579
1.1925577
1.1925576
1.1925575
1.1925573
1.1925572
1.1925571
1.192557
1.1925568
1.1925567
1.1925566
1.1925564
1.1925563
1.1925562
1.192556
1.1925559
1.1925558
1.1925556
1.1925555
1.1925554
1.1925552
1.1925551
1.192555
1.1925549
1.1925547
1.1925546
1.1925545
1.1925544
1.1925542
1.1925541
1.192554
1.1925539
1.1925538
1.1925537
1.1925535
1.1925534
1.1925533
1.1925532
1.1925531
1.192553
1.1925529
1.1925528
1.1925527
1.1925526
1.1925525
1.1925524
1.1925523
1.1925522
1.1925521
1.192552
1.1925519
1.1925519
1.1925518
1.1925517
1.1925516
1.1925515
1.1925515
1.1925514
1.1925513
1.1925512
1.1925511
1.1925511
1.192551
1.1925509
1.1925508
1.1925508
1.1925507
1.1925506
1.1925505
1.1925504
1.1925504
1.1925503
1.1925502
1.1925501
1.19255
1.19255
1.1925499
1.1925498
1.1925497
1.1925496
1.1925495
1.1925495
1.1925494
1.1925493
1.1925492
1.1925491
1.192549
1.1925489
1.1925488
1.1925487
1.1925486
1.1925485
1.1925484
1.1925483
1.1925482
1.1925481
1.1925481
1.192548
1.1925479
1.1925478
1.1925477
1.1925476
1.1925475
1.1925474
1.1925473
1.1925472
1.1925471
1.192547
1.1925469
1.1925469
1.1925468
1.1925467
1.1925466
1.1925465
1.1925464
1.1925463
1.1925462
1.1925462
1.1925461
1.192546
1.1925459
1.1925458
1.1925457
1.1925457
1.1925456
1.1925455
1.1925454
1.1925453
1.1925452
1.1925451
1.1925451
1.192545
1.1925449
1.1925448
1.1925447
1.1925446
1.1925445
1.1925445
1.1925444
1.1925443
1.1925442
1.1925441
1.192544
1.1925439
1.1925438
1.1925437
1.1925437
1.1925436
1.1925435
1.1925434
1.1925433
1.1925432
1.1925431
1.192543
1.1925429
1.1925428
1.1925427
1.1925426
1.1925425
1.1925424
1.1925424
1.1925423
1.1925422
1.1925421
1.192542
1.1925419
1.1925418
1.1925417
1.1925417
1.1925416
1.1925415
1.1925414
1.1925413
1.1925412
1.1925412
1.1925411
1.192541
1.1925409
1.1925408
1.1925408
1.1925407
1.1925406
1.1925406
1.1925405
1.1925404
1.1925404
1.1925403
1.1925402
1.1925402
1.1925401
1.19254
1.19254
1.1925399
1.1925398
1.1925398
1.1925397
1.1925396
1.1925396
1.1925395
1.1925395
1.1925394
1.1925394
1.1925393
1.1925392
1.1925392
1.1925391
1.192539
1.192539
1.1925389
1.1925389
1.1925388
1.1925387
1.1925387
1.1925386
1.1925386
1.1925385
1.1925384
1.1925384
1.1925383
1.1925383
1.1925382
1.1925381
1.1925381
1.192538
1.192538
1.1925379
1.1925378
1.1925378
1.1925377
1.1925376
1.1925376
1.1925375
1.1925375
1.1925374
1.1925373
1.1925373
1.1925372
1.1925371
1.1925371
1.192537
1.1925369
1.1925369
1.1925368
1.1925367
1.1925367
1.1925366
1.1925365
1.1925365
1.1925364
1.1925364
1.1925363
1.1925362
1.1925361
1.1925361
1.192536
1.1925359
1.1925358
1.1925358
1.1925357
1.1925356
1.1925355
1.1925354
1.1925354
1.1925353
1.1925352
1.1925351
1.192535
1.1925349
1.1925348
1.1925347
1.1925346
1.1925345
1.1925345
1.1925344
1.1925343
1.1925342
1.1925341
1.192534
1.1925339
1.1925338
1.1925337
1.1925336
1.1925334
1.1925333
1.1925332
1.1925331
1.192533
1.1925329
1.1925328
1.1925327
1.1925326
1.1925325
1.1925324
1.1925323
1.1925322
1.1925321
1.192532
1.1925319
1.1925318
1.1925317
1.1925316
1.1925315
1.1925314
1.1925313
1.1925312
1.1925311
1.1925311
1.192531
1.1925309
1.1925308
1.1925307
1.1925307
1.1925306
1.1925305
1.1925304
1.1925304
1.1925303
1.1925302
1.1925302
1.1925301
1.19253
1.19253
1.1925299
1.1925299
1.1925298
1.1925297
1.1925297
1.1925296
1.1925296
1.1925295
1.1925295
1.1925294
1.1925294
1.1925293
1.1925292
1.1925292
1.1925291
1.1925291
1.192529
1.192529
1.1925289
1.1925289
1.1925288
1.1925288
1.1925287
1.1925287
1.1925286
1.1925286
1.1925285
1.1925285
1.1925284
1.1925283
1.1925283
1.1925282
1.1925282
1.1925281
1.1925281
1.192528
1.1925279
1.1925279
1.1925278
1.1925278
1.1925277
1.1925276
1.1925276
1.1925275
1.1925274
1.1925274
1.1925273
1.1925273
1.1925272
1.1925271
1.1925271
1.192527
1.192527
1.1925269
1.1925268
1.1925268
1.1925267
1.1925266
1.1925266
1.1925265
1.1925264
1.1925263
1.1925263
1.1925262
1.1925262
1.1925261
1.192526
1.192526
1.1925259
1.1925258
1.1925258
1.1925257
1.1925256
1.1925256
1.1925255
1.1925254
1.1925254
1.1925253
1.1925252
1.1925252
1.1925251
1.192525
1.192525
1.1925249
1.1925248
1.1925248
1.1925247
1.1925247
1.1925246
1.1925245
1.1925245
1.1925244
1.1925243
1.1925243
1.1925242
1.1925241
1.1925241
1.192524
1.1925239
1.1925239
1.1925238
1.1925238
1.1925237
1.1925236
1.1925236
1.1925235
1.1925234
1.1925234
1.1925233
1.1925232
1.1925232
1.1925231
1.1925231
1.192523
1.1925229
1.1925229
1.1925228
1.1925227
1.1925227
1.1925226
1.1925226
1.1925225
1.1925224
1.1925224
1.1925223
1.1925222
1.1925222
1.1925221
1.1925221
1.192522
1.1925219
1.1925219
1.1925218
1.1925218
1.1925217
1.1925216
1.1925216
1.1925215
1.1925215
1.1925214
1.1925213
1.1925213
1.1925212
1.1925211
1.1925211
1.192521
1.192521
1.1925209
1.1925208
1.1925208
1.1925207
1.1925207
1.1925206
1.1925205
1.1925205
1.1925204
1.1925203
1.1925202
1.1925202
1.1925201
1.1925201
1.19252
1.1925199
1.1925199
1.1925198
1.1925198
1.1925197
1.1925196
1.1925196
1.1925195
1.1925194
1.1925194
1.1925193
1.1925193
1.1925192
1.1925191
1.1925191
1.192519
1.1925189
1.1925189
1.1925188
1.1925188
1.1925187
1.1925186
1.1925186
1.1925185
1.1925184
1.1925184
1.1925183
1.1925182
1.1925182
1.1925181
1.1925181
1.192518
1.1925179
1.1925179
1.1925178
1.1925178
1.1925177
1.1925176
1.1925176
1.1925175
1.1925175
1.1925174
1.1925173
1.1925173
1.1925172
1.1925171
1.1925171
1.192517
1.1925169
1.1925169
1.1925168
1.1925167
1.1925167
1.1925166
1.1925165
1.1925165
1.1925164
1.1925163
1.1925163
1.1925162
1.1925161
1.1925161
1.192516
1.1925159
1.1925159
1.1925158
1.1925157
1.1925156
1.1925156
1.1925155
1.1925154
1.1925154
1.1925153
1.1925152
1.1925152
1.1925151
1.192515
1.192515
1.1925149
1.1925148
1.1925148
1.1925147
1.1925146
1.1925146
1.1925145
1.1925144
1.1925144
1.1925143
1.1925142
1.1925142
1.1925141
1.1925141
1.192514
1.1925139
1.1925139
1.1925138
1.1925138
1.1925137
1.1925136
1.1925136
1.1925135
1.1925135
1.1925134
1.1925134
1.1925133
1.1925133
1.1925132
1.1925132
1.1925131
1.1925131
1.192513
1.192513
1.192513
1.1925129
1.1925129
1.1925128
1.1925128
1.1925127
1.1925127
1.1925127
1.1925126
1.1925126
1.1925125
1.1925125
1.1925124
1.1925124
1.1925123
1.1925123
1.1925123
1.1925122
1.1925122
1.1925121
1.1925121
1.192512
1.192512
1.1925119
1.1925119
1.1925119
1.1925118
1.1925118
1.1925117
1.1925117
1.1925116
1.1925116
1.1925115
1.1925114
1.1925114
1.1925113
1.1925113
1.1925112
1.1925112
1.1925111
1.192511
1.192511
1.1925109
1.1925108
1.1925108
1.1925107
1.1925106
1.1925106
1.1925105
1.1925104
1.1925103
1.1925103
1.1925102
1.1925101
1.19251
1.19251
1.1925099
1.1925098
1.1925097
1.1925096
1.1925095
1.1925095
1.1925094
1.1925093
1.1925092
1.1925091
1.192509
1.1925089
1.1925089
1.1925088
1.1925087
1.1925086
1.1925085
1.1925084
1.1925083
1.1925082
1.1925082
1.1925081
1.192508
1.1925079
1.1925078
1.1925077
1.1925076
1.1925076
1.1925075
1.1925074
1.1925073
1.1925072
1.1925071
1.192507
1.1925069
1.1925069
1.1925068
1.1925067
1.1925066
1.1925065
1.1925064
1.1925063
1.1925063
1.1925062
1.1925061
1.1925061
1.192506
1.1925059
1.1925058
1.1925057
1.1925057
1.1925056
1.1925055
1.1925054
1.1925054
1.1925053
1.1925052
1.1925052
1.1925051
1.192505
1.1925049
1.1925049
1.1925048
1.1925047
1.1925047
1.1925046
1.1925045
1.1925045
1.1925044
1.1925043
1.1925042
1.1925042
1.1925041
1.192504
1.192504
1.1925039
1.1925039
1.1925038
1.1925037
1.1925037
1.1925036
1.1925035
1.1925035
1.1925034
1.1925033
1.1925033
1.1925032
1.1925031
1.192503
1.192503
1.1925029
1.1925028
1.1925028
1.1925027
1.1925026
1.1925026
1.1925025
1.1925024
1.1925023
1.1925023
1.1925022
1.1925021
1.1925021
1.192502
1.1925019
1.1925018
1.1925018
1.1925017
1.1925016
1.1925015
1.1925015
1.1925014
1.1925013
1.1925013
1.1925012
1.1925011
1.192501
1.1925009
1.1925009
1.1925008
1.1925007
1.1925006
1.1925005
1.1925005
1.1925004
1.1925003
1.1925002
1.1925001
1.1925001
1.1925
1.1924999
1.1924998
1.1924997
1.1924997
1.1924996
1.1924995
1.1924994
1.1924993
1.1924992
1.1924991
1.192499
1.192499
1.1924989
1.1924988
1.1924987
1.1924986
1.1924985
1.1924984
1.1924983
1.1924983
1.1924982
1.1924981
1.192498
1.1924979
1.1924978
1.1924977
1.1924977
1.1924976
1.1924975
1.1924974
1.1924973
1.1924972
1.1924971
1.192497
1.1924969
1.1924969
1.1924968
1.1924967
1.1924966
1.1924965
1.1924964
1.1924963
1.1924962
1.1924961
1.192496
1.192496
1.1924959
1.1924958
1.1924957
1.1924956
1.1924955
1.1924954
1.1924953
1.1924952
1.1924951
1.192495
1.1924949
1.1924948
1.1924948
1.1924947
1.1924946
1.1924945
1.1924944
1.1924943
1.1924942
1.1924941
1.192494
1.1924939
1.1924938
1.1924937
1.1924937
1.1924936
1.1924935
1.1924934
1.1924933
1.1924932
1.1924931
1.192493
1.1924929
1.1924928
1.1924927
1.1924926
1.1924925
1.1924924
1.1924923
1.1924923
1.1924922
1.1924921
1.192492
1.1924919
1.1924918
1.1924917
1.1924916
1.1924915
1.1924914
1.1924913
1.1924912
1.1924911
1.1924911
1.192491
1.1924909
1.1924908
1.1924907
1.1924906
1.1924905
1.1924904
1.1924903
1.1924902
1.1924901
1.19249
1.1924899
1.1924898
1.1924897
1.1924896
1.1924896
1.1924895
1.1924894
1.1924893
1.1924892
1.1924891
1.192489
1.1924889
1.1924889
1.1924888
1.1924887
1.1924886
1.1924885
1.1924884
1.1924883
1.1924882
1.1924881
1.192488
1.1924879
1.1924878
1.1924877
1.1924876
1.1924875
1.1924874
1.1924873
1.1924873
1.1924872
1.1924871
1.192487
1.1924869
1.1924868
1.1924867
1.1924866
1.1924865
1.1924864
1.1924863
1.1924862
1.1924861
1.192486
1.1924859
1.1924858
1.1924857
1.1924856
1.1924855
1.1924854
1.1924853
1.1924852
1.1924851
1.192485
1.1924849
1.1924847
1.1924846
1.1924845
1.1924844
1.1924843
1.1924842
1.1924841
1.192484
1.1924838
1.1924837
1.1924836
1.1924835
1.1924834
1.1924833
1.1924832
1.192483
1.1924829
1.1924828
1.1924827
1.1924826
1.1924824
1.1924823
1.1924822
1.192482
1.1924819
1.1924818
1.1924816
1.1924815
1.1924814
1.1924812
1.1924811
1.192481
1.1924808
1.1924807
1.1924806
1.1924804
1.1924803
1.1924801
1.19248
1.1924798
1.1924796
1.1924795
1.1924793
1.1924792
1.192479
1.1924789
1.1924787
1.1924786
1.1924784
1.1924783
1.1924781
1.192478
1.1924778
1.1924776
1.1924775
1.1924773
1.1924771
1.1924769
1.1924768
1.1924766
1.1924764
1.1924763
1.1924761
1.1924759
1.1924757
1.1924755
1.1924753
1.1924751
1.1924749
1.1924748
1.1924746
1.1924744
1.1924742
1.1924741
1.1924739
1.1924737
1.1924735
1.1924733
1.1924732
1.192473
1.1924728
1.1924726
1.1924724
1.1924722
1.192472
1.1924718
1.1924716
1.1924714
1.1924712
1.1924709
1.1924707
1.1924705
1.1924703
1.1924701
1.1924699
1.1924696
1.1924694
1.1924692
1.192469
1.1924687
1.1924685
1.1924683
1.1924681
1.1924678
1.1924676
1.1924674
1.1924671
1.1924669
1.1924667
1.1924665
1.1924662
1.192466
1.1924658
1.1924655
1.1924653
1.192465
1.1924648
1.1924645
1.1924643
1.192464
1.1924638
1.1924635
1.1924633
1.192463
1.1924627
1.1924625
1.1924622
1.1924619
1.1924617
1.1924614
1.1924611
1.1924609
1.1924606
1.1924603
1.19246
1.1924598
1.1924595
1.1924592
1.1924589
1.1924586
1.1924583
1.192458
1.1924577
1.1924574
1.192457
1.1924567
1.1924564
1.1924561
1.1924558
1.1924555
1.1924551
1.1924548
1.1924545
1.1924541
1.1924538
1.1924534
1.192453
1.1924527
1.1924523
1.1924519
1.1924516
1.1924512
1.1924508
1.1924504
1.19245
1.1924496
1.1924492
1.1924488
1.1924484
1.192448
1.1924476
1.1924472
1.1924468
1.1924463
1.1924459
1.1924454
1.192445
1.1924445
1.192444
1.1924435
1.192443
1.1924425
1.192442
1.1924415
1.192441
1.1924405
1.19244
1.1924395
1.192439
1.1924385
1.192438
1.1924375
1.192437
1.1924365
1.1924359
1.1924354
1.1924349
1.1924344
1.1924338
1.1924333
1.1924329
1.1924324
1.192432
1.1924316
1.1924312
1.1924308
1.1924304
1.1924301
1.1924298
1.1924296
1.1924294
1.1924292
1.1924291
1.192429
1.1924289
1.1924288
1.1924288
1.1924288
1.1924288
1.1924289
1.192429
1.1924292
1.1924293
1.1924294
1.1924295
1.1924296
1.1924297
1.1924297
1.1924297
1.1924297
1.1924296
1.1924295
1.1924294
1.192429
1.1924284
1.1924276
1.1924268
1.1924259
1.192425
1.192424
1.192423
1.1924219
1.1924208
1.1924197
1.1924185
1.1924172
1.192416
1.1924147
1.1924134
1.1924122
1.1924111
1.19241
1.1924091
1.1924084
1.1924077
1.1924072
1.1924067
1.1924064
1.192406
1.1924056
1.1924052
1.1924048
1.1924043
1.1924037
1.1924029
1.192402
1.1924008
1.1923987
1.1923943
1.1923832
1.1923551
1.1922827
1.1920982
1.1916289
1.1904539
1.1877085
1.1840893
1.1798382
1.175145
1.1702107
1.1652326
1.1603879
1.1558211
1.1516387
1.1479081
1.1446606
1.141897
1.1395949
1.1377156
1.1362106
1.1350274
1.1341135
1.1334197
1.1329018
1.1325217
1.1322472
1.1320526
1.131917
1.1318245
1.1317629
1.131723
1.1316983
1.1316839
1.1316764
1.1316732
1.1316724
1.1316724
1.1316743
1.1316789
1.1316832
1.131687
1.1316904
1.1316934
1.1316961
1.1316986
1.1317008
1.1317028
1.1317047
1.1317065
1.1317082
1.1317098
1.1317112
1.1317127
1.131714
1.1317153
1.1317166
1.1317178
1.131719
1.1317202
1.1317214
1.1317226
1.1317239
1.1317252
1.1317267
1.1317282
1.1317298
1.1317314
1.1317332
1.131735
1.1317369
1.1317388
1.1317407
1.1317426
1.1317446
1.1317465
1.1317484
1.1317502
1.131752
1.1317538
1.1317554
1.131757
1.1317585
1.1317599
1.1317612
1.1317625
1.1317637
1.1317648
1.1317659
1.1317669
1.1317678
1.1317687
1.1317696
1.1317704
1.1317712
1.1317719
1.1317726
1.1317733
1.1317739
1.1317746
1.1317752
1.1317758
1.1317763
1.1317769
1.1317774
1.1317779
1.1317784
1.1317789
1.1317794
1.1317799
1.1317803
1.1317808
1.1317812
1.1317817
1.1317821
1.1317825
1.1317829
1.1317833
1.1317837
1.131784
1.1317844
1.1317848
1.1317851
1.1317855
1.1317859
1.1317862
1.1317866
1.1317869
1.1317872
1.1317876
1.1317879
1.1317882
1.1317885
1.1317888
1.1317891
1.1317894
1.1317897
1.1317899
1.1317902
1.1317905
1.1317908
1.131791
1.1317913
1.1317916
1.1317918
1.1317921
1.1317923
1.1317925
1.1317928