/*--------------------------------*- C++ -*----------------------------------*\
  =========                 |
  \\      /  F ield         | OpenFOAM: The Open Source CFD Toolbox
   \\    /   O peration     | Website:  https://openfoam.org
    \\  /    A nd           | Version:  7
     \\/     M anipulation  |
\*---------------------------------------------------------------------------*/
FoamFile
{
    version     2.0;
    format      ascii;
    class       volScalarField;
    location    "0.00215";
    object      Ux;
}
// * * * * * * * * * * * * * * * * * * * * * * * * * * * * * * * * * * * * * //

dimensions      [0 1 -1 0 0 0 0];

internalField   nonuniform List<scalar> 
5000
(
23.173657
23.173656
23.173653
23.173652
23.173651
23.173651
23.173651
23.17365
23.173649
23.173648
23.173647
23.173646
23.173645
23.173644
23.173644
23.173643
23.173643
23.173642
23.173641
23.17364
23.173639
23.173638
23.173638
23.173637
23.173636
23.173635
23.173635
23.173634
23.173633
23.173632
23.173631
23.173631
23.17363
23.173629
23.173628
23.173627
23.173626
23.173625
23.173625
23.173624
23.173624
23.173623
23.173622
23.173622
23.173621
23.17362
23.173619
23.173618
23.173617
23.173617
23.173617
23.173616
23.173615
23.173614
23.173613
23.173613
23.173612
23.173611
23.17361
23.173609
23.173608
23.173608
23.173607
23.173607
23.173606
23.173605
23.173604
23.173604
23.173603
23.173602
23.173601
23.1736
23.1736
23.173599
23.173598
23.173597
23.173597
23.173596
23.173595
23.173595
23.173594
23.173593
23.173592
23.173591
23.17359
23.17359
23.173589
23.173588
23.173587
23.173586
23.173586
23.173585
23.173584
23.173583
23.173582
23.173581
23.17358
23.17358
23.17358
23.173579
23.173578
23.173577
23.173576
23.173575
23.173574
23.173573
23.173573
23.173572
23.173571
23.173571
23.17357
23.173569
23.173568
23.173567
23.173566
23.173566
23.173565
23.173564
23.173563
23.173562
23.173561
23.173561
23.17356
23.173559
23.173558
23.173557
23.173556
23.173556
23.173555
23.173554
23.173553
23.173552
23.173551
23.173551
23.17355
23.173549
23.173548
23.173547
23.173546
23.173546
23.173545
23.173544
23.173543
23.173542
23.173541
23.17354
23.173539
23.173539
23.173539
23.173538
23.173537
23.173536
23.173535
23.173534
23.173533
23.173533
23.173532
23.173531
23.173531
23.17353
23.173529
23.173528
23.173527
23.173526
23.173526
23.173525
23.173524
23.173523
23.173522
23.173521
23.173521
23.17352
23.173519
23.173519
23.173518
23.173517
23.173516
23.173515
23.173515
23.173514
23.173513
23.173512
23.173511
23.173511
23.17351
23.173509
23.173508
23.173507
23.173507
23.173506
23.173506
23.173505
23.173504
23.173503
23.173502
23.173502
23.173501
23.1735
23.173499
23.173498
23.173498
23.173497
23.173497
23.173496
23.173495
23.173494
23.173493
23.173492
23.173492
23.173491
23.173491
23.17349
23.173489
23.173488
23.173488
23.173487
23.173486
23.173485
23.173485
23.173484
23.173484
23.173483
23.173482
23.173481
23.17348
23.17348
23.173479
23.173479
23.173478
23.173477
23.173476
23.173475
23.173475
23.173474
23.173474
23.173473
23.173472
23.173471
23.17347
23.17347
23.173469
23.173469
23.173468
23.173467
23.173466
23.173466
23.173465
23.173464
23.173464
23.173463
23.173462
23.173462
23.173461
23.17346
23.173459
23.173459
23.173458
23.173458
23.173457
23.173456
23.173455
23.173455
23.173454
23.173454
23.173453
23.173452
23.173451
23.17345
23.17345
23.173449
23.173449
23.173448
23.173447
23.173446
23.173446
23.173445
23.173445
23.173444
23.173443
23.173442
23.173442
23.173441
23.173441
23.17344
23.173439
23.173438
23.173438
23.173437
23.173437
23.173436
23.173435
23.173434
23.173434
23.173433
23.173433
23.173433
23.173432
23.173431
23.17343
23.17343
23.173429
23.173428
23.173428
23.173427
23.173426
23.173426
23.173425
23.173425
23.173424
23.173423
23.173422
23.173422
23.173422
23.173421
23.17342
23.173419
23.173418
23.173418
23.173418
23.173417
23.173417
23.173416
23.173415
23.173414
23.173414
23.173414
23.173413
23.173412
23.173412
23.173411
23.17341
23.17341
23.173409
23.173409
23.173408
23.173407
23.173406
23.173406
23.173406
23.173405
23.173404
23.173403
23.173402
23.173402
23.173402
23.173402
23.173401
23.1734
23.173399
23.173398
23.173398
23.173398
23.173397
23.173397
23.173396
23.173395
23.173394
23.173394
23.173393
23.173393
23.173393
23.173392
23.173391
23.17339
23.173389
23.173389
23.173389
23.173388
23.173388
23.173387
23.173386
23.173385
23.173385
23.173384
23.173384
23.173384
23.173383
23.173382
23.173381
23.173381
23.17338
23.17338
23.173379
23.173379
23.173378
23.173377
23.173377
23.173376
23.173376
23.173375
23.173374
23.173373
23.173373
23.173373
23.173372
23.173371
23.17337
23.17337
23.173369
23.173369
23.173369
23.173368
23.173367
23.173366
23.173366
23.173365
23.173365
23.173364
23.173363
23.173362
23.173362
23.173362
23.173361
23.173361
23.17336
23.173359
23.173358
23.173357
23.173357
23.173357
23.173356
23.173356
23.173355
23.173354
23.173353
23.173353
23.173353
23.173352
23.173351
23.173351
23.17335
23.173349
23.173349
23.173348
23.173347
23.173346
23.173346
23.173346
23.173345
23.173344
23.173344
23.173342
23.173342
23.173342
23.173342
23.173341
23.17334
23.173339
23.173338
23.173338
23.173338
23.173337
23.173336
23.173335
23.173334
23.173333
23.173333
23.173333
23.173332
23.173332
23.173331
23.17333
23.173329
23.173329
23.173328
23.173328
23.173327
23.173326
23.173325
23.173324
23.173324
23.173324
23.173323
23.173322
23.173321
23.17332
23.17332
23.173319
23.173319
23.173318
23.173317
23.173316
23.173315
23.173315
23.173314
23.173314
23.173312
23.173311
23.173311
23.17331
23.17331
23.173309
23.173308
23.173307
23.173306
23.173305
23.173305
23.173305
23.173304
23.173303
23.173302
23.173301
23.1733
23.1733
23.173299
23.173298
23.173297
23.173296
23.173295
23.173295
23.173295
23.173294
23.173293
23.173292
23.17329
23.17329
23.17329
23.173289
23.173288
23.173287
23.173286
23.173285
23.173284
23.173284
23.173284
23.173283
23.173282
23.17328
23.173279
23.173279
23.173279
23.173278
23.173277
23.173275
23.173274
23.173274
23.173274
23.173273
23.173272
23.173271
23.173269
23.173268
23.173268
23.173268
23.173267
23.173266
23.173265
23.173264
23.173262
23.173261
23.173261
23.173261
23.17326
23.173259
23.173258
23.173257
23.173256
23.173254
23.173254
23.173254
23.173253
23.173252
23.173251
23.173249
23.173248
23.173247
23.173247
23.173247
23.173246
23.173245
23.173243
23.173242
23.17324
23.173239
23.173238
23.173239
23.173238
23.173237
23.173236
23.173235
23.173234
23.173232
23.173231
23.17323
23.17323
23.17323
23.173229
23.173227
23.173226
23.173225
23.173224
23.173222
23.173221
23.17322
23.173218
23.173217
23.173217
23.173217
23.173216
23.173215
23.173213
23.173211
23.173209
23.173208
23.173207
23.173207
23.173206
23.173206
23.173204
23.173203
23.173201
23.1732
23.173199
23.173198
23.173197
23.173195
23.173194
23.173193
23.173191
23.17319
23.173189
23.173188
23.173187
23.173186
23.173184
23.173183
23.173181
23.173179
23.173177
23.173176
23.173175
23.173173
23.173172
23.173171
23.173169
23.173167
23.173166
23.173164
23.173162
23.17316
23.173158
23.173156
23.173155
23.173153
23.173151
23.173149
23.173147
23.173144
23.173142
23.17314
23.173138
23.173136
23.173134
23.173131
23.173129
23.173126
23.173124
23.173121
23.173119
23.173116
23.173113
23.173111
23.173108
23.173105
23.173102
23.173099
23.173096
23.173092
23.173089
23.173085
23.173082
23.173078
23.173074
23.17307
23.173067
23.173063
23.173059
23.173054
23.17305
23.173045
23.173041
23.173036
23.173031
23.173026
23.173021
23.173015
23.17301
23.173004
23.172998
23.172992
23.172986
23.172979
23.172973
23.172966
23.172959
23.172951
23.172944
23.172936
23.172928
23.17292
23.172912
23.172903
23.172894
23.172885
23.172876
23.172866
23.172856
23.172846
23.172836
23.172825
23.172814
23.172802
23.172791
23.172778
23.172766
23.172753
23.17274
23.172726
23.172712
23.172698
23.172683
23.172668
23.172652
23.172636
23.172619
23.172602
23.172585
23.172567
23.172548
23.172529
23.17251
23.172489
23.172469
23.172447
23.172426
23.172403
23.17238
23.172356
23.172331
23.172306
23.172281
23.172254
23.172227
23.172199
23.17217
23.17214
23.17211
23.172078
23.172046
23.172013
23.171979
23.171944
23.171908
23.171871
23.171833
23.171794
23.171754
23.171713
23.171671
23.171627
23.171583
23.171537
23.17149
23.171442
23.171392
23.171341
23.171289
23.171235
23.17118
23.171123
23.171065
23.171005
23.170944
23.170881
23.170816
23.17075
23.170682
23.170613
23.170541
23.170467
23.170392
23.170315
23.170235
23.170154
23.17007
23.169984
23.169896
23.169806
23.169714
23.169619
23.169522
23.169423
23.169321
23.169216
23.169109
23.168999
23.168887
23.168772
23.168654
23.168533
23.16841
23.168283
23.168153
23.168021
23.167885
23.167746
23.167604
23.167458
23.167309
23.167157
23.167001
23.166842
23.166679
23.166512
23.166342
23.166168
23.16599
23.165808
23.165622
23.165432
23.165238
23.16504
23.164837
23.164631
23.16442
23.164204
23.163984
23.16376
23.16353
23.163296
23.163058
23.162814
23.162566
23.162313
23.162054
23.16179
23.161521
23.161248
23.160968
23.160684
23.160394
23.160098
23.159796
23.159489
23.159177
23.158858
23.158534
23.158204
23.157867
23.157525
23.157176
23.156821
23.15646
23.156093
23.155719
23.155338
23.154951
23.154557
23.154157
23.15375
23.153335
23.152914
23.152486
23.152051
23.151609
23.151159
23.150702
23.150238
23.149767
23.149288
23.148801
23.148306
23.147804
23.147295
23.146777
23.146252
23.145718
23.145177
23.144627
23.144069
23.143503
23.142929
23.142347
23.141756
23.141156
23.140548
23.139931
23.139305
23.138671
23.138029
23.137377
23.136717
23.136047
23.135368
23.13468
23.133984
23.133278
23.132563
23.131838
23.131104
23.130361
23.129608
23.128846
23.128074
23.127293
23.126502
23.125701
23.12489
23.12407
23.12324
23.122401
23.121551
23.120691
23.119821
23.118941
23.118051
23.117151
23.116241
23.115321
23.11439
23.113449
23.112498
23.111537
23.110565
23.109583
23.10859
23.107587
23.106573
23.10555
23.104515
23.103471
23.102415
23.101349
23.100272
23.099185
23.098087
23.096979
23.09586
23.09473
23.093589
23.092438
23.091276
23.090104
23.08892
23.087727
23.086522
23.085306
23.08408
23.082844
23.081596
23.080338
23.079069
23.077789
23.076499
23.075198
23.073887
23.072565
23.071232
23.069888
23.068534
23.067169
23.065794
23.064408
23.063012
23.061604
23.060187
23.058759
23.057321
23.055872
23.054413
23.052943
23.051463
23.049973
23.048473
23.046962
23.045442
23.04391
23.042369
23.040818
23.039257
23.037686
23.036105
23.034514
23.032913
23.031302
23.029682
23.028052
23.026412
23.024763
23.023104
23.021435
23.019758
23.01807
23.016374
23.014668
23.012953
23.011229
23.009496
23.007754
23.006003
23.004243
23.002474
23.000697
22.998911
22.997116
22.995313
22.993501
22.991681
22.989853
22.988016
22.986172
22.984319
22.982459
22.98059
22.978713
22.976829
22.974938
22.973038
22.971132
22.969217
22.967295
22.965367
22.963431
22.961488
22.959538
22.957581
22.955617
22.953647
22.95167
22.949687
22.947697
22.945701
22.943699
22.94169
22.939675
22.937655
22.935628
22.933597
22.931559
22.929516
22.927467
22.925413
22.923354
22.921289
22.91922
22.917145
22.915066
22.912982
22.910893
22.9088
22.906703
22.904601
22.902494
22.900384
22.89827
22.896152
22.89403
22.891904
22.889774
22.887641
22.885505
22.883366
22.881223
22.879078
22.876929
22.874777
22.872623
22.870466
22.868306
22.866145
22.86398
22.861814
22.859645
22.857475
22.855302
22.853128
22.850952
22.848775
22.846596
22.844415
22.842234
22.840051
22.837867
22.835683
22.833497
22.831311
22.829124
22.826937
22.824749
22.822561
22.820372
22.818184
22.815996
22.813808
22.81162
22.809432
22.807244
22.805058
22.802872
22.800686
22.798502
22.796318
22.794135
22.791954
22.789774
22.787595
22.785418
22.783242
22.781067
22.778895
22.776724
22.774556
22.772389
22.770224
22.768062
22.765902
22.763744
22.761589
22.759437
22.757287
22.755139
22.752995
22.750854
22.748716
22.746581
22.744449
22.74232
22.740195
22.738074
22.735956
22.733841
22.731731
22.729624
22.727521
22.725422
22.723327
22.721237
22.719151
22.717069
22.714991
22.712917
22.710849
22.708785
22.706726
22.704672
22.702622
22.700577
22.698538
22.696503
22.694474
22.69245
22.690431
22.688417
22.686409
22.684407
22.682409
22.680418
22.678432
22.676452
22.674478
22.67251
22.670547
22.668591
22.666641
22.664696
22.662758
22.660826
22.658901
22.656982
22.655069
22.653162
22.651262
22.649369
22.647482
22.645602
22.643728
22.641861
22.640001
22.638148
22.636301
22.634462
22.632629
22.630803
22.628985
22.627173
22.625368
22.623571
22.621781
22.619998
22.618222
22.616453
22.614691
22.612937
22.611191
22.609451
22.607719
22.605995
22.604277
22.602568
22.600865
22.599171
22.597484
22.595804
22.594132
22.592467
22.59081
22.589161
22.587519
22.585885
22.584259
22.58264
22.581029
22.579425
22.577829
22.576241
22.574661
22.573089
22.571523
22.569966
22.568416
22.566875
22.565341
22.563814
22.562296
22.560785
22.559281
22.557786
22.556298
22.554818
22.553346
22.551881
22.550424
22.548974
22.547533
22.546099
22.544672
22.543254
22.541842
22.540439
22.539043
22.537654
22.536273
22.5349
22.533535
22.532176
22.530825
22.529482
22.528146
22.526818
22.525497
22.524184
22.522877
22.521579
22.520287
22.519003
22.517726
22.516456
22.515194
22.513939
22.512691
22.51145
22.510216
22.50899
22.50777
22.506558
22.505352
22.504154
22.502962
22.501778
22.500601
22.49943
22.498266
22.497109
22.495959
22.494815
22.493679
22.492549
22.491425
22.490309
22.489199
22.488095
22.486998
22.485908
22.484824
22.483747
22.482676
22.481611
22.480553
22.479501
22.478455
22.477416
22.476383
22.475356
22.474335
22.473321
22.472313
22.47131
22.470314
22.469324
22.46834
22.467362
22.46639
22.465423
22.464463
22.463508
22.46256
22.461617
22.46068
22.459748
22.458823
22.457903
22.456988
22.45608
22.455177
22.454279
22.453387
22.452501
22.45162
22.450745
22.449875
22.449011
22.448152
22.447298
22.44645
22.445607
22.44477
22.443938
22.443111
22.442289
22.441473
22.440662
22.439856
22.439055
22.43826
22.43747
22.436684
22.435904
22.435129
22.434359
22.433594
22.432835
22.43208
22.43133
22.430585
22.429846
22.429111
22.428381
22.427656
22.426936
22.426221
22.425511
22.424806
22.424106
22.42341
22.422719
22.422034
22.421353
22.420677
22.420005
22.419339
22.418677
22.41802
22.417368
22.41672
22.416077
22.415439
22.414806
22.414177
22.413553
22.412934
22.41232
22.41171
22.411104
22.410504
22.409908
22.409316
22.40873
22.408148
22.40757
22.406997
22.406429
22.405865
22.405306
22.404751
22.404201
22.403655
22.403114
22.402577
22.402045
22.401518
22.400994
22.400476
22.399962
22.399452
22.398946
22.398445
22.397949
22.397457
22.396969
22.396486
22.396007
22.395532
22.395062
22.394596
22.394134
22.393677
22.393224
22.392775
22.392331
22.39189
22.391454
22.391023
22.390595
22.390172
22.389752
22.389337
22.388926
22.38852
22.388117
22.387719
22.387324
22.386934
22.386547
22.386165
22.385787
22.385413
22.385042
22.384676
22.384314
22.383955
22.383601
22.38325
22.382903
22.382561
22.382222
22.381886
22.381555
22.381227
22.380903
22.380583
22.380267
22.379954
22.379645
22.37934
22.379038
22.37874
22.378445
22.378154
22.377867
22.377583
22.377302
22.377025
22.376752
22.376482
22.376215
22.375952
22.375692
22.375435
22.375182
22.374932
22.374685
22.374442
22.374201
22.373964
22.37373
22.3735
22.373272
22.373047
22.372826
22.372607
22.372392
22.372179
22.37197
22.371763
22.371559
22.371359
22.371161
22.370966
22.370773
22.370584
22.370397
22.370213
22.370032
22.369853
22.369677
22.369503
22.369333
22.369164
22.368999
22.368835
22.368675
22.368517
22.368361
22.368207
22.368056
22.367908
22.367762
22.367618
22.367476
22.367337
22.367199
22.367064
22.366932
22.366801
22.366672
22.366546
22.366422
22.3663
22.366179
22.366061
22.365945
22.365831
22.365718
22.365608
22.365499
22.365393
22.365288
22.365185
22.365084
22.364984
22.364887
22.364791
22.364696
22.364604
22.364513
22.364423
22.364336
22.36425
22.364165
22.364082
22.364
22.36392
22.363842
22.363765
22.363689
22.363615
22.363542
22.363471
22.3634
22.363332
22.363264
22.363198
22.363133
22.363069
22.363007
22.362946
22.362886
22.362827
22.362769
22.362713
22.362657
22.362603
22.36255
22.362497
22.362446
22.362396
22.362347
22.362299
22.362252
22.362206
22.362161
22.362116
22.362073
22.36203
22.361989
22.361948
22.361908
22.361869
22.361831
22.361794
22.361757
22.361721
22.361686
22.361652
22.361619
22.361586
22.361554
22.361522
22.361492
22.361462
22.361432
22.361404
22.361376
22.361348
22.361321
22.361295
22.361269
22.361244
22.36122
22.361196
22.361173
22.36115
22.361127
22.361106
22.361084
22.361064
22.361043
22.361024
22.361004
22.360985
22.360967
22.360948
22.360931
22.360914
22.360897
22.360881
22.360865
22.360849
22.360834
22.360819
22.360804
22.36079
22.360776
22.360763
22.36075
22.360737
22.360724
22.360712
22.3607
22.360689
22.360677
22.360666
22.360656
22.360645
22.360635
22.360625
22.360615
22.360606
22.360597
22.360588
22.360579
22.36057
22.360562
22.360554
22.360546
22.360538
22.360531
22.360524
22.360517
22.36051
22.360503
22.360496
22.36049
22.360484
22.360478
22.360472
22.360466
22.360461
22.360455
22.36045
22.360445
22.36044
22.360435
22.36043
22.360425
22.360421
22.360416
22.360412
22.360408
22.360404
22.3604
22.360396
22.360392
22.360389
22.360385
22.360382
22.360378
22.360375
22.360372
22.360369
22.360366
22.360363
22.36036
22.360357
22.360355
22.360352
22.360349
22.360347
22.360344
22.360342
22.36034
22.360338
22.360335
22.360333
22.360331
22.360329
22.360327
22.360325
22.360323
22.360322
22.36032
22.360318
22.360316
22.360315
22.360313
22.360312
22.36031
22.360309
22.360307
22.360306
22.360304
22.360303
22.360302
22.3603
22.360299
22.360298
22.360297
22.360295
22.360294
22.360293
22.360292
22.360291
22.36029
22.360289
22.360288
22.360287
22.360286
22.360285
22.360284
22.360283
22.360282
22.360282
22.360281
22.36028
22.360279
22.360278
22.360278
22.360277
22.360276
22.360275
22.360274
22.360274
22.360273
22.360272
22.360272
22.360271
22.36027
22.36027
22.360269
22.360269
22.360268
22.360267
22.360267
22.360266
22.360265
22.360265
22.360264
22.360264
22.360263
22.360263
22.360262
22.360262
22.360261
22.360261
22.36026
22.36026
22.360259
22.360259
22.360258
22.360258
22.360257
22.360257
22.360256
22.360256
22.360255
22.360255
22.360254
22.360254
22.360254
22.360253
22.360253
22.360252
22.360252
22.360252
22.360251
22.360251
22.36025
22.36025
22.36025
22.360249
22.360249
22.360248
22.360248
22.360248
22.360247
22.360247
22.360246
22.360246
22.360246
22.360245
22.360245
22.360245
22.360244
22.360244
22.360244
22.360243
22.360243
22.360242
22.360242
22.360242
22.360241
22.360241
22.360241
22.36024
22.36024
22.36024
22.360239
22.360239
22.360239
22.360238
22.360238
22.360238
22.360238
22.360237
22.360237
22.360237
22.360236
22.360236
22.360236
22.360235
22.360235
22.360235
22.360234
22.360234
22.360234
22.360233
22.360233
22.360233
22.360233
22.360232
22.360232
22.360232
22.360231
22.360231
22.360231
22.360231
22.36023
22.36023
22.36023
22.360229
22.360229
22.360229
22.360228
22.360228
22.360228
22.360228
22.360227
22.360227
22.360227
22.360227
22.360226
22.360226
22.360226
22.360225
22.360225
22.360225
22.360225
22.360224
22.360224
22.360224
22.360224
22.360223
22.360223
22.360223
22.360222
22.360222
22.360222
22.360222
22.360221
22.360221
22.360221
22.360221
22.36022
22.36022
22.36022
22.360219
22.360219
22.360219
22.360219
22.360218
22.360218
22.360218
22.360218
22.360217
22.360217
22.360217
22.360217
22.360216
22.360216
22.360216
22.360215
22.360215
22.360215
22.360215
22.360214
22.360214
22.360214
22.360214
22.360213
22.360213
22.360213
22.360212
22.360212
22.360212
22.360212
22.360211
22.360211
22.360211
22.360211
22.36021
22.36021
22.36021
22.36021
22.360209
22.360209
22.360209
22.360208
22.360208
22.360208
22.360208
22.360207
22.360207
22.360207
22.360207
22.360206
22.360206
22.360206
22.360205
22.360205
22.360205
22.360205
22.360204
22.360204
22.360204
22.360204
22.360203
22.360203
22.360203
22.360202
22.360202
22.360202
22.360202
22.360201
22.360201
22.360201
22.360201
22.3602
22.3602
22.3602
22.360199
22.360199
22.360199
22.360199
22.360198
22.360198
22.360198
22.360197
22.360197
22.360197
22.360197
22.360196
22.360196
22.360196
22.360195
22.360195
22.360195
22.360195
22.360194
22.360194
22.360194
22.360193
22.360193
22.360193
22.360193
22.360192
22.360192
22.360192
22.360192
22.360191
22.360191
22.360191
22.36019
22.36019
22.36019
22.36019
22.360189
22.360189
22.360189
22.360188
22.360188
22.360188
22.360188
22.360187
22.360187
22.360187
22.360186
22.360186
22.360186
22.360186
22.360185
22.360185
22.360185
22.360184
22.360184
22.360184
22.360183
22.360183
22.360183
22.360183
22.360182
22.360182
22.360182
22.360181
22.360181
22.360181
22.360181
22.36018
22.36018
22.36018
22.360179
22.360179
22.360179
22.360179
22.360178
22.360178
22.360178
22.360177
22.360177
22.360177
22.360177
22.360176
22.360176
22.360176
22.360175
22.360175
22.360175
22.360175
22.360174
22.360174
22.360174
22.360173
22.360173
22.360173
22.360173
22.360172
22.360172
22.360172
22.360171
22.360171
22.360171
22.36017
22.36017
22.36017
22.36017
22.360169
22.360169
22.360169
22.360168
22.360168
22.360168
22.360168
22.360167
22.360167
22.360167
22.360166
22.360166
22.360166
22.360166
22.360165
22.360165
22.360165
22.360165
22.360164
22.360164
22.360164
22.360163
22.360163
22.360163
22.360163
22.360162
22.360162
22.360162
22.360161
22.360161
22.360161
22.360161
22.36016
22.36016
22.36016
22.360159
22.360159
22.360159
22.360159
22.360158
22.360158
22.360158
22.360158
22.360157
22.360157
22.360157
22.360156
22.360156
22.360156
22.360156
22.360155
22.360155
22.360155
22.360154
22.360154
22.360154
22.360154
22.360153
22.360153
22.360153
22.360153
22.360152
22.360152
22.360152
22.360151
22.360151
22.360151
22.360151
22.36015
22.36015
22.36015
22.36015
22.360149
22.360149
22.360149
22.360149
22.360148
22.360148
22.360148
22.360147
22.360147
22.360147
22.360147
22.360146
22.360146
22.360146
22.360145
22.360145
22.360145
22.360145
22.360144
22.360144
22.360144
22.360144
22.360143
22.360143
22.360143
22.360142
22.360142
22.360142
22.360142
22.360141
22.360141
22.360141
22.360141
22.36014
22.36014
22.36014
22.360139
22.360139
22.360139
22.360139
22.360138
22.360138
22.360138
22.360138
22.360137
22.360137
22.360137
22.360136
22.360136
22.360136
22.360136
22.360135
22.360135
22.360135
22.360135
22.360134
22.360134
22.360134
22.360134
22.360133
22.360133
22.360133
22.360132
22.360132
22.360132
22.360132
22.360131
22.360131
22.360131
22.360131
22.36013
22.36013
22.36013
22.36013
22.360129
22.360129
22.360129
22.360128
22.360128
22.360128
22.360128
22.360127
22.360127
22.360127
22.360127
22.360126
22.360126
22.360126
22.360126
22.360125
22.360125
22.360125
22.360125
22.360124
22.360124
22.360124
22.360124
22.360123
22.360123
22.360123
22.360123
22.360122
22.360122
22.360122
22.360121
22.360121
22.360121
22.360121
22.360121
22.36012
22.36012
22.36012
22.360119
22.360119
22.360119
22.360119
22.360119
22.360118
22.360118
22.360118
22.360117
22.360117
22.360117
22.360117
22.360117
22.360116
22.360116
22.360116
22.360115
22.360115
22.360115
22.360115
22.360114
22.360114
22.360114
22.360114
22.360113
22.360113
22.360113
22.360113
22.360112
22.360112
22.360112
22.360112
22.360111
22.360111
22.360111
22.360111
22.36011
22.36011
22.36011
22.36011
22.360109
22.360109
22.360109
22.360109
22.360108
22.360108
22.360108
22.360108
22.360107
22.360107
22.360107
22.360107
22.360106
22.360106
22.360106
22.360106
22.360105
22.360105
22.360105
22.360105
22.360104
22.360104
22.360104
22.360104
22.360103
22.360103
22.360103
22.360102
22.360102
22.360102
22.360102
22.360101
22.360101
22.360101
22.360101
22.3601
22.3601
22.3601
22.3601
22.360099
22.360099
22.360099
22.360099
22.360098
22.360098
22.360098
22.360098
22.360097
22.360097
22.360097
22.360097
22.360096
22.360096
22.360096
22.360096
22.360095
22.360095
22.360095
22.360094
22.360094
22.360094
22.360094
22.360093
22.360093
22.360093
22.360093
22.360092
22.360092
22.360092
22.360092
22.360091
22.360091
22.360091
22.360091
22.36009
22.36009
22.36009
22.36009
22.360089
22.360089
22.360089
22.360089
22.360088
22.360088
22.360088
22.360088
22.360087
22.360087
22.360087
22.360087
22.360086
22.360086
22.360086
22.360086
22.360085
22.360085
22.360085
22.360085
22.360084
22.360084
22.360084
22.360084
22.360083
22.360083
22.360083
22.360083
22.360082
22.360082
22.360082
22.360082
22.360082
22.360081
22.360081
22.360081
22.360081
22.36008
22.36008
22.36008
22.36008
22.360079
22.360079
22.360079
22.360079
22.360078
22.360078
22.360078
22.360078
22.360078
22.360077
22.360077
22.360077
22.360076
22.360076
22.360076
22.360076
22.360076
22.360075
22.360075
22.360075
22.360075
22.360074
22.360074
22.360074
22.360074
22.360073
22.360073
22.360073
22.360073
22.360072
22.360072
22.360072
22.360072
22.360072
22.360071
22.360071
22.360071
22.360071
22.36007
22.36007
22.36007
22.36007
22.360069
22.360069
22.360069
22.360069
22.360068
22.360068
22.360068
22.360068
22.360067
22.360067
22.360067
22.360067
22.360066
22.360066
22.360066
22.360066
22.360065
22.360065
22.360065
22.360065
22.360064
22.360064
22.360064
22.360064
22.360063
22.360063
22.360063
22.360063
22.360062
22.360062
22.360062
22.360061
22.360061
22.360061
22.360061
22.36006
22.36006
22.36006
22.36006
22.360059
22.360059
22.360059
22.360059
22.360058
22.360058
22.360058
22.360058
22.360057
22.360057
22.360057
22.360056
22.360056
22.360056
22.360056
22.360055
22.360055
22.360055
22.360055
22.360054
22.360054
22.360054
22.360053
22.360053
22.360053
22.360053
22.360052
22.360052
22.360052
22.360052
22.360051
22.360051
22.360051
22.360051
22.36005
22.36005
22.36005
22.360049
22.360049
22.360049
22.360049
22.360048
22.360048
22.360048
22.360048
22.360047
22.360047
22.360047
22.360047
22.360046
22.360046
22.360046
22.360046
22.360045
22.360045
22.360045
22.360044
22.360044
22.360044
22.360044
22.360043
22.360043
22.360043
22.360043
22.360042
22.360042
22.360042
22.360042
22.360041
22.360041
22.360041
22.36004
22.36004
22.36004
22.36004
22.360039
22.360039
22.360039
22.360039
22.360038
22.360038
22.360038
22.360038
22.360037
22.360037
22.360037
22.360037
22.360036
22.360036
22.360036
22.360036
22.360035
22.360035
22.360035
22.360034
22.360034
22.360034
22.360034
22.360033
22.360033
22.360033
22.360033
22.360032
22.360032
22.360032
22.360032
22.360031
22.360031
22.360031
22.360031
22.36003
22.36003
22.36003
22.36003
22.360029
22.360029
22.360029
22.360029
22.360029
22.360028
22.360028
22.360028
22.360028
22.360027
22.360027
22.360027
22.360027
22.360026
22.360026
22.360026
22.360026
22.360026
22.360025
22.360025
22.360025
22.360025
22.360025
22.360024
22.360024
22.360024
22.360024
22.360024
22.360023
22.360023
22.360023
22.360023
22.360023
22.360022
22.360022
22.360022
22.360022
22.360022
22.360021
22.360021
22.360021
22.360021
22.360021
22.360021
22.36002
22.36002
22.36002
22.36002
22.36002
22.36002
22.360019
22.360019
22.360019
22.360019
22.360019
22.360018
22.360018
22.360018
22.360018
22.360018
22.360017
22.360017
22.360017
22.360017
22.360017
22.360016
22.360016
22.360016
22.360016
22.360016
22.360015
22.360015
22.360015
22.360015
22.360014
22.360014
22.360014
22.360014
22.360014
22.360013
22.360013
22.360013
22.360013
22.360012
22.360012
22.360012
22.360012
22.360011
22.360011
22.360011
22.360011
22.36001
22.36001
22.36001
22.360009
22.360009
22.360009
22.360008
22.360008
22.360008
22.360008
22.360007
22.360007
22.360007
22.360006
22.360006
22.360006
22.360006
22.360005
22.360005
22.360005
22.360004
22.360004
22.360004
22.360003
22.360003
22.360003
22.360003
22.360002
22.360001
22.360002
22.360004
22.360005
22.360005
22.360005
22.360005
22.360003
22.360002
22.36
22.359999
22.36
22.36001
22.360037
22.360116
22.360313
22.360768
22.360579
22.359938
22.359902
22.359977
22.359973
22.35996
22.359958
22.359958
22.359957
22.359958
22.35996
22.359963
22.359968
22.359973
22.359979
22.359984
22.35999
22.359995
22.36
22.360004
22.360007
22.36001
22.360012
22.360014
22.360015
22.360015
22.360016
22.360016
22.360016
22.360016
22.360016
22.360016
22.360016
22.360016
22.360015
22.360015
22.360015
22.360015
22.360014
22.360014
22.360014
22.360014
22.360013
22.360009
22.360001
22.360005
22.360014
22.360013
22.360012
22.360012
22.360012
22.360012
22.360012
22.360011
22.360011
22.360011
22.360011
22.360011
22.360011
22.36001
22.36001
22.36001
22.36001
22.36001
22.360009
22.360009
22.360009
22.360009
22.360008
22.360008
22.360008
22.360008
22.360008
22.360007
22.360007
22.360007
22.360007
22.360007
22.360006
22.360006
22.360006
22.360006
22.360005
22.360005
22.360005
22.360005
22.360005
22.360004
22.360004
22.360004
22.360004
22.360003
22.360003
22.360003
22.360003
22.360002
22.360002
22.360002
22.360002
22.360001
22.360001
22.360001
22.360001
22.360001
22.36
22.36
22.36
22.36
22.359999
22.359999
22.359999
22.359999
22.359998
22.359998
22.359998
22.359998
22.359997
22.359997
22.359997
22.359997
22.359996
22.359996
22.359996
22.359996
22.359995
22.359995
22.359995
22.359995
22.359994
22.359994
22.359994
22.359994
22.359993
22.359993
22.359993
22.359993
22.359992
22.359992
22.359992
22.359992
22.359991
22.359991
22.359991
22.35999
22.35999
22.35999
22.35999
22.359989
22.359989
22.359989
22.359989
22.359988
22.359988
22.359988
22.359988
22.359987
22.359987
22.359987
22.359987
22.359986
22.359986
22.359986
22.359986
22.359985
22.359985
22.359985
22.359985
22.359984
22.359984
22.359984
22.359984
22.359983
22.359983
22.359983
22.359983
22.359982
22.359982
22.359982
22.359982
22.359981
22.359981
22.359981
22.359981
22.359981
22.35998
22.35998
22.35998
22.35998
22.359979
22.359979
22.359979
22.359979
22.359978
22.359978
22.359978
22.359978
22.359978
22.359977
22.359977
22.359977
22.359977
22.359976
22.359976
22.359976
22.359976
22.359975
22.359975
22.359975
22.359975
22.359975
22.359974
22.359974
22.359974
22.359974
22.359973
22.359973
22.359973
22.359973
22.359973
22.359972
22.359972
22.359972
22.359972
22.359971
22.359971
22.359971
22.359971
22.35997
22.35997
22.35997
22.35997
22.35997
22.359969
22.359969
22.359969
22.359969
22.359968