/*--------------------------------*- C++ -*----------------------------------*\
  =========                 |
  \\      /  F ield         | OpenFOAM: The Open Source CFD Toolbox
   \\    /   O peration     | Website:  https://openfoam.org
    \\  /    A nd           | Version:  7
     \\/     M anipulation  |
\*---------------------------------------------------------------------------*/
FoamFile
{
    version     2.0;
    format      ascii;
    class       volScalarField;
    location    "0.00024";
    object      Ux;
}
// * * * * * * * * * * * * * * * * * * * * * * * * * * * * * * * * * * * * * //

dimensions      [0 1 -1 0 0 0 0];

internalField   nonuniform List<scalar> 
5000
(
1.1415872e-12
1.2030338e-12
1.192766e-12
1.2777191e-12
1.1507474e-12
1.109035e-12
1.2522038e-12
1.2049068e-12
9.5277736e-13
6.8201645e-13
7.5704349e-13
8.3580207e-13
7.8836073e-13
9.1433482e-13
8.1773097e-13
9.5376287e-13
9.5917753e-13
8.3046373e-13
7.6963617e-13
7.0958651e-13
8.7966658e-13
7.2133476e-13
8.7273057e-13
8.6918853e-13
6.1291525e-13
5.5448103e-13
6.5611441e-13
5.2244029e-13
4.9879567e-13
7.406039e-13
5.5767568e-13
7.4945419e-13
7.4071464e-13
9.6692314e-13
1.0644751e-12
9.9304876e-13
1.0112283e-12
9.9734905e-13
9.7493133e-13
1.2024059e-12
1.1590119e-12
1.2220649e-12
1.227666e-12
1.0235733e-12
1.0609437e-12
1.0500848e-12
9.6448602e-13
7.725367e-13
9.3976242e-13
1.1300337e-12
1.1751082e-12
1.1740268e-12
1.1875782e-12
1.0128593e-12
9.1920281e-13
9.3959999e-13
6.3752169e-13
7.729464e-13
7.0768088e-13
6.3461164e-13
7.1354215e-13
6.2660023e-13
8.6185979e-13
1.0486184e-12
7.2585878e-13
6.3682878e-13
1.0011517e-12
7.243684e-13
7.7636227e-13
8.3013159e-13
4.6045764e-13
3.0633188e-13
4.8241289e-13
5.1177346e-13
2.5198016e-13
3.0533272e-13
6.094049e-13
8.6397501e-13
6.5939659e-13
6.7990344e-13
8.2305322e-13
9.1622057e-13
1.3096663e-12
1.346353e-12
1.2634904e-12
1.4263965e-12
1.0616901e-12
1.106952e-12
1.3115273e-12
1.2683806e-12
1.3486077e-12
1.1451824e-12
1.3666318e-12
1.2153298e-12
1.042627e-12
1.3561217e-12
1.2013876e-12
1.2668641e-12
1.1163994e-12
1.1930147e-12
1.3718034e-12
1.1491392e-12
1.2716117e-12
1.2929114e-12
1.5041062e-12
1.2894298e-12
1.5334231e-12
1.4130035e-12
1.3112831e-12
1.2508794e-12
1.1007131e-12
1.1504982e-12
1.4389466e-12
1.4772806e-12
1.3324949e-12
1.3462835e-12
1.2571465e-12
1.4790872e-12
1.3115419e-12
1.364081e-12
1.1919676e-12
9.8523218e-13
1.2792358e-12
1.210573e-12
9.9672781e-13
9.9348196e-13
1.0221391e-12
1.1199736e-12
9.8906108e-13
1.0927648e-12
1.1412735e-12
1.1000476e-12
1.0055097e-12
1.0285018e-12
1.15545e-12
1.2621326e-12
1.0758569e-12
1.1232739e-12
1.1324393e-12
1.2477998e-12
1.6209555e-12
1.8925581e-12
2.0575864e-12
1.9906852e-12
1.8904039e-12
1.52861e-12
1.7529927e-12
1.773529e-12
1.5056039e-12
1.6164344e-12
1.734405e-12
1.6591337e-12
1.7186499e-12
1.6820716e-12
1.4000334e-12
1.3901978e-12
1.2944838e-12
1.2427375e-12
1.1005069e-12
1.051218e-12
1.0984194e-12
1.2949197e-12
1.4954039e-12
1.5539526e-12
1.1657555e-12
1.0116794e-12
1.3848148e-12
1.3294611e-12
1.4330696e-12
1.4498959e-12
1.4072183e-12
1.4889338e-12
1.4579407e-12
1.4633403e-12
1.6751425e-12
1.5855118e-12
1.4020928e-12
1.0134332e-12
1.0619551e-12
1.0838822e-12
9.8091045e-13
1.0322631e-12
7.8221776e-13
5.340623e-13
9.0379963e-13
9.2806596e-13
7.8094932e-13
7.0712631e-13
6.5986018e-13
7.7968274e-13
6.246831e-13
2.9486181e-13
2.2103488e-13
4.4350191e-13
2.0976962e-13
3.5234313e-13
2.5545892e-13
2.4890516e-13
9.6551822e-14
1.5385297e-13
1.1650822e-13
-3.4998574e-15
3.701998e-14
-7.3056124e-14
-2.2638165e-14
-4.0845265e-14
-1.1268337e-13
-8.4274487e-14
-3.2313804e-15
2.934925e-15
-3.9856626e-14
6.289269e-14
1.1489468e-13
-3.6462241e-14
-1.7229737e-13
-2.432718e-13
2.9507505e-15
-7.4469459e-14
-3.9156449e-14
-1.0265528e-14
7.3840172e-14
1.9399128e-13
1.1398668e-13
1.8820773e-13
1.5794887e-13
2.7971702e-13
3.8635231e-13
2.7615169e-13
3.1487332e-13
3.0155135e-13
5.1931142e-13
4.8429661e-13
4.8494515e-13
5.0419369e-13
6.0516526e-13
6.2172078e-13
5.0076528e-13
6.660365e-13
6.2096797e-13
4.6541108e-13
4.2866352e-13
4.8447303e-13
6.3741306e-13
7.2794312e-13
4.4025356e-13
6.8627647e-13
7.4116875e-13
9.0989307e-13
9.4107956e-13
8.7411744e-13
9.4489725e-13
8.0416681e-13
9.6738935e-13
1.0696889e-12
1.1398344e-12
9.6016783e-13
9.6858878e-13
8.9979691e-13
8.8252478e-13
9.6634414e-13
6.8550962e-13
6.6923791e-13
7.8369176e-13
7.2611469e-13
6.9570323e-13
4.9438066e-13
5.8333215e-13
5.9849667e-13
6.5446235e-13
8.0780665e-13
5.8510802e-13
6.769087e-13
7.1906433e-13
6.4499667e-13
4.4656575e-13
4.2424171e-13
4.1228282e-13
5.3701921e-13
4.3198411e-13
2.1080394e-13
1.3046632e-13
1.5319948e-13
1.2897156e-13
1.8448449e-13
3.6529214e-13
1.3187611e-13
3.5935374e-13
3.9294986e-13
3.743759e-13
3.4812843e-13
3.435074e-13
4.4949124e-13
5.07047e-13
6.7527395e-13
6.3332465e-13
4.5151655e-13
1.1068346e-13
5.3846473e-14
7.8093629e-16
-2.862577e-14
-1.6518289e-13
-2.6012312e-13
-2.4317188e-13
-5.9547361e-14
-9.6874043e-14
-4.8214951e-14
-2.1277973e-14
-1.8257529e-13
-1.4836015e-13
-1.4821349e-13
-6.4135355e-14
-2.2044895e-13
-4.1061582e-14
-3.8263465e-14
-3.3295885e-14
1.1595722e-13
-1.4893358e-13
-6.1979819e-14
-2.1886684e-13
-3.5594953e-14
-6.9073298e-14
-2.579243e-13
-3.4862639e-14
-1.6800112e-13
-1.4254542e-13
-4.621753e-13
-6.7001781e-13
-5.5008405e-13
-6.0336495e-13
-6.5048955e-13
-4.3554151e-13
-5.5937686e-13
-7.7682667e-13
-9.3514285e-13
-7.0805339e-13
-7.5309669e-13
-8.5562687e-13
-6.5109111e-13
-5.9585381e-13
-6.1178985e-13
-6.9232295e-13
-9.725495e-13
-9.7424058e-13
-7.3743433e-13
-8.8483033e-13
-7.266392e-13
-6.224255e-13
-9.1356602e-13
-8.7607074e-13
-7.9356052e-13
-7.329345e-13
-6.9957738e-13
-7.7940534e-13
-9.9161662e-13
-9.2773405e-13
-7.7325193e-13
-9.9988213e-13
-1.2215824e-12
-1.2300981e-12
-9.1478607e-13
-9.6985498e-13
-8.265053e-13
-7.7211375e-13
-7.7985013e-13
-5.8663103e-13
-6.3722642e-13
-4.6428066e-13
-3.4372583e-13
-3.6121702e-13
-3.6955394e-13
-2.9522709e-13
-4.5470983e-13
-4.5568329e-13
-5.2394215e-13
-5.2263466e-13
-4.9988916e-13
-4.8030368e-13
-3.6020588e-13
-2.7364893e-13
-3.3849644e-13
-2.3103463e-13
-2.9114444e-13
-2.2457128e-13
-9.1048278e-14
-1.5264418e-13
-7.8339064e-14
-1.2210513e-13
-5.6495931e-14
4.8552141e-14
-2.3728902e-13
-2.4645913e-13
-6.0056169e-14
-3.5208443e-13
-3.5096252e-13
-3.0636038e-13
-3.2173856e-13
-5.9999504e-13
-4.9984556e-13
-4.3903032e-13
-4.7412474e-13
-3.6773724e-13
-4.3750362e-13
-3.5650683e-13
-3.9052588e-13
-4.3643594e-13
-4.5005102e-13
-4.203348e-13
-5.505471e-13
-3.1048879e-13
-8.7859758e-14
-2.5055461e-13
-5.8997847e-14
-2.0468505e-13
-1.5574523e-13
-2.4473716e-13
-2.0430992e-13
-1.0509916e-13
2.4219748e-14
2.3598714e-13
1.4169817e-13
4.8419057e-13
5.5559742e-13
2.9225863e-13
4.1355496e-13
3.6663212e-13
3.6900864e-13
2.4518968e-13
-1.5731033e-14
2.7125113e-13
1.8954972e-13
1.0561705e-13
2.9766251e-13
1.9329984e-13
1.4900081e-13
1.6106736e-13
3.3011189e-13
3.7769737e-13
5.1043271e-13
3.1108074e-13
4.2307677e-13
5.1044578e-13
4.2998119e-13
6.8111624e-13
7.5700777e-13
7.5502815e-13
7.9956974e-13
9.2265799e-13
7.9963896e-13
7.7662255e-13
7.8354088e-13
8.8045681e-13
8.5197964e-13
9.0984978e-13
8.253199e-13
7.5654253e-13
9.8320642e-13
9.1044654e-13
7.8520299e-13
6.8137308e-13
6.5777558e-13
6.3264707e-13
5.5988493e-13
6.3018723e-13
6.6790554e-13
8.4815089e-13
6.8434361e-13
6.8833074e-13
7.0199841e-13
5.3337705e-13
7.542869e-13
8.0848346e-13
7.9351691e-13
8.4491003e-13
6.9770178e-13
5.9289398e-13
7.2940964e-13
6.6378849e-13
7.3913268e-13
7.6803975e-13
6.132107e-13
5.5838615e-13
6.1248391e-13
7.8703219e-13
7.2158397e-13
7.7420618e-13
5.8290786e-13
5.5046968e-13
4.1563326e-13
1.8803303e-13
3.6678131e-13
4.578649e-13
5.7566775e-13
3.813715e-13
4.0671458e-13
4.7439753e-13
5.4850627e-13
4.0082275e-13
4.6176838e-13
4.4593281e-13
4.1662757e-13
4.1873759e-13
2.8901677e-13
1.679063e-13
2.6289345e-13
3.490892e-13
1.7699883e-13
2.679811e-13
1.6993791e-13
2.2062877e-13
1.6274563e-13
-1.1376928e-13
-7.975521e-14
1.0634293e-13
-5.2054009e-15
4.8257908e-15
-1.2888405e-13
-3.1882141e-14
-1.928205e-13
-1.7759831e-13
-1.0061975e-13
-1.543463e-13
-9.4310317e-14
-1.2404323e-13
-6.4075454e-14
-7.0882775e-15
-1.67852e-13
-1.177408e-13
-8.1586731e-14
2.5497256e-15
6.6008501e-15
-6.0824188e-15
1.8048254e-13
9.897779e-14
1.1123184e-13
8.4467217e-14
3.9715197e-13
2.7600794e-13
2.6945863e-13
2.9420722e-13
1.3093567e-13
1.8348437e-13
1.6777055e-13
6.9162081e-14
-8.5967118e-14
-1.6339161e-13
-1.5113027e-13
-2.4611003e-13
-4.2079528e-13
-3.9929055e-13
-4.3467649e-13
-1.369955e-13
-4.169843e-14
-1.5410963e-13
-3.7406219e-13
-3.5021016e-13
-2.2981377e-13
-2.6964661e-13
-2.4277693e-13
-3.2289389e-13
-8.3191043e-14
-1.9921725e-13
-3.1570926e-13
-3.7294624e-13
-4.4597606e-13
-3.3950244e-13
-6.9782327e-13
-7.5302971e-13
-6.7899409e-13
-9.9367582e-13
-6.5889573e-13
-7.1643224e-13
-7.7299428e-13
-7.4623168e-13
-8.5884564e-13
-6.9534192e-13
-8.4019455e-13
-8.7964515e-13
-8.5129311e-13
-6.7445202e-13
-7.0421905e-13
-6.8540206e-13
-8.0607796e-13
-1.0491032e-12
-1.0049804e-12
-1.0268896e-12
-7.8786095e-13
-6.5403982e-13
-8.5826867e-13
-9.4225086e-13
-1.0531351e-12
-1.087191e-12
-9.2867207e-13
-9.8580972e-13
-9.0298737e-13
-8.7674313e-13
-1.0324074e-12
-1.0943183e-12
-1.2059516e-12
-9.731473e-13
-9.7591788e-13
-1.1292029e-12
-1.1034233e-12
-1.1467448e-12
-1.1632719e-12
-1.1018881e-12
-6.9844476e-13
-8.5141848e-13
-5.9079998e-13
-5.4557008e-13
-5.0169697e-13
-2.4113608e-13
-3.5894774e-13
-3.8156243e-13
-6.4522543e-13
-5.355096e-13
-6.8880856e-13
-6.6261062e-13
-5.3000746e-13
-5.9310118e-13
-6.1075142e-13
-6.2047531e-13
-6.8772432e-13
-6.245444e-13
-7.1817477e-13
-7.7844328e-13
-6.0172919e-13
-5.4424361e-13
-7.0879735e-13
-9.545032e-13
-8.1550029e-13
-1.0069718e-12
-4.5098673e-13
-7.0840619e-13
-7.2271992e-13
-6.7524877e-13
-8.1809207e-13
-7.5223934e-13
-8.298486e-13
-5.0742033e-13
-6.8785903e-13
-6.0078545e-13
-5.9980839e-13
-3.9382957e-13
-4.3142251e-13
-4.3923729e-13
-2.9837724e-13
-1.4001988e-13
-3.5294888e-13
-3.4273331e-13
-1.8762803e-13
-3.9678573e-13
-1.8915639e-13
-2.4098419e-13
-2.2287236e-13
-1.9310311e-13
-3.6635332e-13
-3.3685422e-13
-4.9651978e-13
-5.3966097e-13
-7.3309954e-13
-7.3818862e-13
-7.5456955e-13
-8.5187146e-13
-9.1885863e-13
-1.0350009e-12
-1.0286716e-12
-8.8180104e-13
-8.0665388e-13
-9.1111579e-13
-1.0559978e-12
-1.0472924e-12
-8.9500439e-13
-8.6149137e-13
-6.856074e-13
-5.6682115e-13
-3.4549557e-13
-2.2403956e-13
-1.4336087e-13
-3.3987232e-13
-3.6712741e-13
-3.4228898e-13
-2.7231146e-13
-2.4001182e-13
-4.0543229e-13
-3.2970191e-14
-2.2423955e-13
-2.8076459e-13
-2.1372143e-13
-7.5225998e-14
-1.8711626e-13
-2.6667683e-13
-1.7146443e-13
-3.5073291e-13
-3.3170009e-13
-2.7719333e-13
-2.0203275e-13
-3.1367489e-13
-4.7072874e-13
-5.9152929e-13
-4.6514584e-13
-6.6791617e-13
-4.9688404e-13
-5.9979118e-13
-4.6052027e-13
-4.1055237e-13
-6.559382e-13
-4.7148893e-13
-4.9563319e-13
-2.195556e-13
-2.9606311e-14
-5.9111584e-14
-3.0614765e-13
-2.622241e-13
-1.7718231e-13
-6.7225657e-14
-9.9827519e-14
-1.0678238e-13
-9.9222823e-14
-7.9778211e-14
-1.928958e-13
-3.2030732e-13
-1.1920187e-13
-4.1841568e-13
-3.2463481e-13
-3.6730304e-13
-5.8968615e-13
-4.7641396e-13
-2.2483088e-13
-2.0335504e-13
-4.1574374e-13
-2.2306347e-13
-4.8089507e-13
-3.8508669e-13
-3.3409639e-13
-1.1495408e-13
-2.7086886e-13
-2.2147879e-13
-2.2442952e-13
-2.8072486e-13
-8.6468976e-14
-2.9092891e-13
-1.7492574e-13
-9.2708394e-14
5.3014253e-16
4.8416662e-14
-1.7917475e-13
-1.5763272e-13
-5.1413724e-14
5.503595e-15
-2.0439284e-14
-2.5268273e-13
-2.1804795e-13
-1.5578544e-13
-1.2624128e-14
-2.6704242e-14
-1.3455867e-13
-3.3552103e-14
1.4356921e-14
-4.3882605e-14
3.0960748e-14
-5.2312382e-14
-1.6039942e-13
-1.1361298e-13
2.7007876e-13
-2.9061886e-14
2.3114195e-13
8.8263679e-14
-1.312246e-14
4.5965577e-14
-2.5339113e-14
5.9526578e-14
-1.7259277e-13
-1.0686886e-13
-1.0832429e-13
-8.6460042e-14
-2.0017897e-14
6.5547581e-14
1.4488646e-14
1.5888332e-13
2.0944755e-13
2.0257675e-13
2.7367244e-13
2.4284787e-13
3.0093484e-13
2.8725868e-13
1.4139278e-13
2.5691564e-13
3.1662808e-13
1.226147e-13
8.7842907e-15
1.4176668e-13
3.1629864e-13
2.2974568e-13
2.2995146e-13
3.5806266e-13
2.6270523e-14
2.016599e-13
2.322657e-13
1.8515175e-13
2.7251077e-13
2.0646608e-13
2.4928951e-13
7.2673721e-14
4.4874736e-14
-7.3978112e-14
-8.8489106e-14
1.4314775e-13
1.1874089e-13
8.8631742e-14
1.8249036e-13
1.1908637e-13
2.5627532e-14
-1.0039093e-13
-2.0316766e-13
-1.35161e-13
-1.0882289e-13
2.1884978e-14
-9.3375341e-16
-6.0177922e-14
4.4355968e-14
2.0793957e-13
3.6793874e-13
2.812406e-13
5.9135337e-13
6.0955188e-13
4.2168043e-13
3.8285729e-13
2.6103418e-13
2.0517937e-13
6.7850203e-14
2.2979359e-13
3.7126348e-13
3.3164538e-13
3.0613776e-13
4.2052729e-13
3.7084685e-13
3.2816947e-13
4.5560225e-13
4.5329436e-13
6.5645074e-13
4.6112067e-13
2.700479e-13
2.9088332e-13
4.0125961e-13
5.4458586e-13
2.788338e-13
2.4096126e-13
2.8425719e-13
1.7366164e-13
1.5160871e-13
9.9012991e-14
2.5763106e-13
3.4994622e-13
3.7952151e-13
3.5332537e-13
2.9621996e-13
4.5899597e-13
5.8697747e-13
2.9455366e-13
5.0590882e-13
6.5745786e-13
4.6193425e-13
4.2283415e-13
6.4110244e-13
6.1192071e-13
3.7516151e-13
5.1060657e-13
3.5762473e-13
3.1981577e-13
4.0023714e-13
4.8516212e-13
7.726832e-13
6.9678343e-13
6.4330379e-13
7.1759878e-13
5.9130787e-13
5.3307735e-13
6.3902309e-13
7.4025919e-13
5.6437572e-13
4.8680735e-13
2.9417952e-13
4.4416301e-13
4.750436e-13
4.3508164e-13
4.6788609e-13
4.6944453e-13
4.1026022e-13
3.8008057e-13
4.974304e-13
3.3282859e-13
3.1038931e-13
3.3363489e-13
2.9489722e-13
4.9400783e-13
5.5353244e-13
7.535304e-13
6.0585792e-13
5.0647622e-13
5.0615987e-13
3.8031608e-13
3.4124067e-13
3.6320936e-13
3.5328231e-13
3.020884e-13
4.126019e-13
3.7089632e-13
3.6374754e-13
4.1806847e-13
4.9477593e-13
4.6287146e-13
5.0971858e-13
4.5299065e-13
4.4362653e-13
6.0733926e-13
5.7642075e-13
4.9796777e-13
4.2459087e-13
5.1061125e-13
4.3274563e-13
2.188175e-13
1.7055115e-13
3.1242273e-14
-1.560466e-13
-1.1133432e-14
-1.5657236e-13
-2.0795476e-13
-1.7738762e-13
-3.7167135e-13
-1.0871859e-13
-3.2587555e-13
-3.207263e-13
-2.5376882e-13
-2.616949e-13
-3.0982711e-13
-3.5690963e-14
-4.6548357e-14
-7.3162208e-14
7.528247e-14
1.7158269e-14
1.0029819e-13
7.1324826e-14
1.0732292e-13
8.1965065e-14
6.8770773e-14
2.0420218e-13
1.1067675e-13
-8.0054539e-14
-5.213228e-14
-1.6216489e-13
-1.8713605e-13
-1.9609663e-13
-1.5290617e-13
-9.1613159e-14
-3.4990929e-13
-2.4822616e-13
-1.9930756e-13
-4.0690603e-14
7.4511471e-14
1.6141051e-13
1.9441352e-13
2.1725126e-13
3.2822298e-13
4.4333973e-13
3.8550483e-13
3.4336566e-13
4.686497e-13
6.515155e-13
5.1617966e-13
3.1265296e-13
4.2711732e-13
4.9777752e-13
5.3311066e-13
2.9871337e-13
1.2473423e-13
1.3332733e-13
3.7883028e-13
2.7960915e-13
3.4893783e-13
2.1585024e-13
3.5127478e-13
3.1485366e-13
2.6921017e-13
2.3874315e-13
2.3228462e-13
4.6611175e-13
3.4935024e-13
3.1706381e-13
3.97445e-13
4.7357677e-13
5.3150164e-13
5.5119342e-13
5.2800238e-13
4.2179885e-13
4.8101759e-13
4.2781033e-13
3.7679231e-13
3.6245984e-13
2.8638299e-13
2.9215543e-13
2.5219848e-13
1.6859284e-13
1.4026555e-13
2.3950824e-13
2.0671048e-13
2.750746e-13
2.3018487e-13
2.1051696e-13
5.0283966e-14
-7.7461111e-14
-1.5671548e-13
-1.4195766e-13
-1.5122457e-13
-1.291914e-13
1.3513571e-15
8.5737418e-14
6.5253908e-14
-9.1299014e-14
5.4412118e-14
5.9754211e-15
1.7702479e-13
-4.4054119e-14
1.0908243e-13
-1.7154017e-14
1.4070307e-14
1.4927417e-13
6.0152827e-14
1.4783528e-14
-1.5692664e-14
-6.5925169e-14
-1.5341123e-13
-4.157072e-14
-1.2110193e-13
1.3840636e-14
9.8458257e-15
9.803738e-14
-1.5061255e-13
-1.3715784e-13
-2.2297714e-13
-2.5346351e-13
-3.3713653e-13
-4.9005488e-13
-3.7447539e-13
-5.6595654e-13
-3.6125536e-13
-3.0088195e-13
-3.3882172e-13
-2.624961e-13
-5.2713483e-14
-1.8265829e-13
-2.1636223e-13
-2.2926091e-13
-2.6606713e-13
-3.2270403e-14
7.4008075e-14
2.4453186e-13
2.8659941e-14
1.1271888e-13
-2.6381944e-14
9.6072739e-14
4.289687e-13
4.1776128e-13
2.8626111e-13
1.8817143e-13
1.828503e-13
1.9837012e-13
-1.0360726e-14
-4.256038e-14
1.0513468e-13
-5.384727e-14
-1.882751e-13
-3.7647374e-13
-5.1582332e-13
-4.6972626e-13
-5.0483758e-13
-2.3838652e-13
-2.1916936e-13
-3.765369e-13
-2.9240006e-13
-3.5727226e-13
-1.8828215e-13
-7.7791884e-14
1.0937336e-13
2.4153545e-14
-1.9052199e-13
-2.2896624e-13
-5.4543169e-14
-6.2617259e-14
8.3607608e-14
2.8542503e-13
2.1355738e-13
5.1488695e-13
3.7638304e-13
4.2982334e-13
5.9002421e-13
4.8932142e-13
4.5806464e-13
6.7711793e-13
6.0790387e-13
6.8773859e-13
7.9616696e-13
7.4446446e-13
6.7363843e-13
6.1528892e-13
7.9086938e-13
8.6486092e-13
7.2693095e-13
6.9656074e-13
5.1422434e-13
4.8714213e-13
3.7800953e-13
3.4247107e-13
2.5245382e-13
2.8903785e-13
1.9498695e-13
2.022561e-13
2.0279688e-13
2.7627995e-13
3.3417275e-13
3.0575911e-13
3.8233983e-13
2.3579724e-14
2.7949473e-14
1.809479e-13
2.0133506e-13
1.3439708e-13
2.1244429e-13
5.6146171e-14
1.0121557e-13
2.4766911e-14
8.4168225e-14
1.207431e-13
1.4732102e-13
2.8115497e-13
2.2650436e-13
2.9585636e-13
3.2176193e-13
3.2301836e-13
4.4165226e-13
5.2554514e-13
5.2237408e-13
2.5895752e-13
2.6853792e-13
3.72923e-13
5.2202059e-13
4.0185918e-13
3.6902123e-13
4.9749453e-13
6.2297052e-13
5.9042023e-13
5.078155e-13
5.990419e-13
6.1198739e-13
6.5508608e-13
4.5723457e-13
5.9519399e-13
7.9526881e-13
7.7301128e-13
4.459729e-13
4.729165e-13
6.5033712e-13
6.8869869e-13
5.8937262e-13
7.2324917e-13
7.5489819e-13
8.5495692e-13
8.7028158e-13
6.4492722e-13
8.9909933e-13
6.477125e-13
4.6604276e-13
4.5084133e-13
3.5528194e-13
2.2798273e-13
-3.8787982e-14
-8.7742394e-14
-1.5317783e-13
-3.1693742e-13
-3.2931413e-13
-1.6328476e-13
-2.4134648e-13
-1.6979241e-13
-1.8693332e-13
-3.480988e-13
-3.1650822e-13
-1.4533029e-13
-3.4412218e-13
-3.3603676e-13
-3.3503298e-13
-5.7022527e-13
-6.7061955e-13
-5.9762135e-13
-4.3880049e-13
-4.1663248e-13
-5.4078195e-13
-3.4353782e-13
-4.6353088e-13
-5.0121617e-13
-4.0422072e-13
-2.9955212e-13
-1.7592626e-13
-2.5553296e-13
-1.4583066e-13
-1.8199071e-13
1.1143795e-15
-5.3480214e-15
1.1098785e-13
2.8754246e-13
5.2883802e-13
5.6026299e-13
6.901432e-13
5.9192823e-13
4.981393e-13
4.332501e-13
1.668879e-13
1.9237322e-13
2.8485704e-13
4.4755561e-13
4.6139237e-13
2.5135332e-13
3.0632371e-13
3.286811e-13
2.2407636e-13
3.6794045e-13
3.7311463e-13
4.3534525e-13
4.6134139e-13
3.7254367e-13
5.1465802e-13
7.0016562e-13
4.6831054e-13
2.3363729e-13
4.4881388e-13
5.9544309e-13
6.9588279e-13
3.8802647e-13
2.6023508e-13
3.0837141e-13
2.7976387e-13
4.3477656e-13
2.007361e-13
2.8672571e-13
-1.4572558e-13
-1.2704018e-13
-7.4452728e-14
-1.3693633e-13
-3.1813678e-13
-5.4096257e-13
-2.0656118e-13
-4.9102951e-13
-5.6844238e-13
-5.7673293e-13
-5.3055138e-13
-4.107354e-13
-3.2334926e-13
-3.3110819e-13
-2.7537719e-13
-4.1606252e-13
-3.4484808e-13
-5.1941332e-13
-6.0966535e-13
-6.1491341e-13
-6.3606592e-13
-5.9659888e-13
-5.8070106e-13
-4.0684108e-13
-4.9745477e-13
-5.795896e-13
-6.4804289e-13
-5.2120422e-13
-4.5983207e-13
-2.5989392e-13
-2.8751566e-13
-4.8406239e-13
-2.6478483e-13
-5.5146419e-13
-4.8516299e-13
-2.2421346e-13
-3.6763058e-13
-2.6644222e-13
-4.0528016e-13
-4.9473685e-13
-4.448436e-13
-3.1239609e-13
-1.6853134e-13
-8.707208e-14
1.1117505e-13
1.9346487e-13
9.1581778e-14
-8.029486e-14
-4.5365151e-15
-6.5703912e-15
5.5879248e-14
1.2326761e-13
1.5772902e-13
-6.4329047e-14
-1.3489315e-13
-1.9618534e-13
-3.6856543e-13
-1.7764991e-13
-1.1415011e-13
-1.7019412e-14
3.3725793e-14
1.1692334e-13
5.8801463e-14
-3.0527315e-15
1.9359651e-13
3.3481152e-14
8.5376198e-14
3.5539868e-13
2.5005901e-13
3.3386412e-13
3.7376206e-13
4.8073455e-13
3.0452171e-13
1.5355065e-13
1.4363595e-13
1.2260355e-13
1.3242636e-13
1.0452385e-13
1.5233535e-13
6.1961063e-14
-4.3589127e-15
-3.0217862e-14
3.5315643e-14
-7.7134072e-14
-1.3468198e-13
-8.6720901e-14
-1.9819396e-13
-1.6829559e-13
-1.5310929e-14
-9.9716509e-14
-8.865087e-14
4.7896389e-14
9.1683149e-14
-1.2909383e-14
2.072815e-13
1.1966051e-13
9.6130041e-14
8.1943792e-15
-8.9888028e-15
-1.0606872e-13
-1.9714663e-13
-1.2979352e-13
-6.3948965e-14
-7.347325e-14
-3.6610105e-13
-2.7145082e-13
-3.110218e-13
-1.7347691e-13
3.4519658e-14
1.6510923e-13
1.1849007e-13
2.6502431e-13
6.1544878e-14
7.6284508e-14
2.1005723e-13
1.5185996e-14
-3.5698056e-14
5.4604586e-14
-5.1979666e-14
3.7827353e-14
1.4728992e-13
6.560375e-14
4.0061523e-14
-1.3363469e-14
-6.1613601e-14
-1.8902177e-13
-2.4287316e-13
-4.6365084e-13
-4.7881685e-13
-3.320254e-13
-3.0882019e-13
-2.5522929e-13
-1.8930589e-13
-1.2296295e-13
-1.5738587e-13
-3.0682455e-13
-2.7388336e-13
-3.2146279e-13
-2.6673111e-13
-3.1540673e-13
-3.0273336e-13
-3.0972735e-13
-2.7649229e-13
-2.1864465e-13
-1.6792976e-13
-1.0624723e-13
-3.075014e-13
-2.4333697e-13
-1.7452771e-13
-4.673817e-13
-3.1708008e-13
-3.5922331e-13
-4.071732e-13
-2.9055017e-13
-1.5720343e-13
-1.9084501e-13
-4.6498909e-13
-5.8711635e-13
-5.5583048e-13
-4.983621e-13
-4.4893587e-13
-3.9763467e-13
-3.5843003e-13
-3.4703394e-13
-2.0875752e-13
-1.7458293e-13
-1.4379324e-13
-7.9000846e-14
-1.4504196e-13
-1.0977585e-13
-1.7987607e-13
-1.3724135e-13
-1.1199561e-13
-4.0785333e-14
7.1408049e-14
1.639276e-13
4.1884237e-14
1.8347755e-13
1.4574628e-13
3.6485332e-14
1.6607622e-13
2.1307425e-13
2.9890136e-14
-3.4797821e-14
-2.4182834e-13
-3.0604426e-13
-2.6401353e-13
-3.1604783e-13
-4.4060892e-13
-4.9902777e-13
-3.5642801e-13
-5.7704112e-13
-2.4469535e-13
-1.5684362e-13
-3.6039043e-13
-2.4369404e-13
-3.9527008e-13
-3.5118241e-13
-2.3705535e-13
-1.1585097e-13
-5.5267331e-14
4.2136033e-14
2.9434758e-13
1.5931807e-13
3.7185722e-13
5.0214804e-13
4.6645393e-13
2.3805845e-13
1.4565524e-13
2.6730196e-13
3.9760129e-13
4.5700417e-13
4.524969e-13
5.4582069e-13
6.4316707e-13
5.481326e-13
4.6499956e-13
5.5625319e-13
5.4738082e-13
5.2581715e-13
5.2748126e-13
5.0822545e-13
5.4145882e-13
4.1026625e-13
4.8645397e-13
4.7399245e-13
4.0591509e-13
4.4165723e-13
1.4605021e-13
1.1821687e-13
3.2515663e-14
-1.6302653e-15
2.637851e-13
1.4405396e-13
2.1086831e-13
2.8550805e-13
3.2691109e-13
3.9777423e-13
2.6423812e-13
3.2783971e-13
3.5085973e-13
3.5531081e-13
1.4837464e-13
2.2601825e-13
2.1521315e-13
1.2820981e-13
3.3165639e-13
3.7352369e-13
2.3799966e-13
1.3768406e-13
1.6752823e-14
1.1101311e-13
1.5402057e-13
1.1967586e-13
1.5492979e-13
-1.0284906e-13
-1.5187072e-13
-4.7761915e-14
-2.6599581e-13
-1.3482975e-13
4.7676697e-14
4.8646358e-16
3.5485165e-14
-1.5894515e-14
-3.4687087e-14
-1.6211177e-13
-9.7670039e-14
-4.9756751e-14
-5.4999472e-14
-4.8816188e-14
1.0100828e-13
-7.7723435e-14
-1.3580013e-13
-1.3858636e-14
-1.9280155e-13
2.7385559e-14
2.9492675e-14
-1.7562188e-14
-1.3337872e-13
-1.246377e-13
-1.4638481e-13
-2.3574422e-14
7.6202771e-14
1.3734677e-13
1.6030063e-13
1.0749533e-13
1.5957537e-13
4.2330061e-13
6.3741961e-13
7.620443e-13
7.2800296e-13
7.4272352e-13
7.701406e-13
8.1824666e-13
9.7542302e-13
1.0171963e-12
1.0198661e-12
8.0990068e-13
8.6969471e-13
9.5596403e-13
1.2253221e-12
1.1987869e-12
1.0600019e-12
9.3439547e-13
1.2442693e-12
1.1256204e-12
1.0543635e-12
9.4051195e-13
8.782533e-13
9.4769333e-13
8.0689942e-13
9.9522524e-13
1.2219401e-12
1.17573e-12
9.6088343e-13
1.1320555e-12
1.0581092e-12
1.049508e-12
9.1209434e-13
1.0428539e-12
7.1042581e-13
5.9507407e-13
8.51656e-13
9.0130559e-13
7.7024621e-13
6.7164662e-13
7.2880872e-13
7.3143584e-13
7.1816516e-13
6.2717409e-13
5.9548784e-13
5.702066e-13
6.4324988e-13
4.9834875e-13
5.6117664e-13
5.939373e-13
4.3162784e-13
5.271437e-13
3.8932679e-13
3.8379968e-13
3.9215845e-13
3.9137617e-13
5.1110298e-13
3.4610835e-13
2.2257647e-13
3.2444286e-13
2.1211955e-13
2.4458322e-13
7.9237221e-14
1.8381434e-13
1.7746315e-13
3.6715082e-14
3.9652459e-15
3.6321126e-14
1.3892517e-13
-1.1501276e-13
-3.3061645e-14
-1.4122737e-13
-8.4261764e-14
2.1103498e-13
1.7089515e-13
9.8715474e-14
2.0968196e-13
1.347649e-13
1.5490082e-13
1.8554076e-13
9.8538703e-14
2.0319833e-13
1.9717624e-13
2.3341553e-13
3.7444989e-13
3.043457e-13
3.1601642e-13
3.0083357e-13
1.4822109e-13
1.2322206e-13
1.0604738e-13
6.9586293e-14
1.5168376e-13
7.6293374e-14
-4.9320708e-14
8.1332658e-14
1.5709131e-13
-1.0930895e-14
2.4859853e-13
2.0794974e-13
8.1067266e-14
3.8929823e-13
4.8237777e-13
4.0435117e-13
3.3671437e-13
3.03579e-13
2.002133e-13
-5.8745874e-14
-1.348733e-13
-3.0260827e-13
-2.1948389e-13
-1.0218283e-14
-7.2185019e-14
-1.0978175e-13
-2.5451046e-13
-2.5872484e-13
-4.1233967e-13
-2.6413389e-13
-2.5624303e-13
-2.2143036e-13
-1.522987e-13
-1.513278e-13
-1.4621864e-13
-1.6935012e-13
-2.4177282e-13
-7.4120963e-14
-1.7050213e-14
-9.7350938e-14
7.9287041e-14
8.4399486e-14
-2.479124e-14
-2.6095497e-14
7.4288039e-15
3.3278762e-14
1.6770608e-13
1.4814434e-14
2.2950262e-13
2.9255843e-13
8.0226659e-14
3.5441747e-15
-1.5386163e-13
-1.1908037e-13
-2.3529792e-13
-2.5677051e-13
-2.5922767e-13
-3.098516e-13
-4.4759321e-13
-3.9731081e-13
-3.8013197e-13
-3.829525e-13
-6.0207752e-13
-3.8568392e-13
-3.9620846e-13
-6.4996558e-13
-6.1445265e-13
-7.8132157e-13
-7.1272917e-13
-8.7399737e-13
-5.754875e-13
-7.2887037e-13
-8.0137132e-13
-6.0839217e-13
-6.0895565e-13
-5.2674697e-13
-4.4481857e-13
-3.4575551e-13
-3.1916322e-13
-2.3408397e-13
1.8799665e-14
-1.9075174e-14
-3.761271e-14
8.5989154e-14
-8.1148321e-14
-1.2335133e-14
2.7780957e-14
2.8734839e-14
4.5359878e-14
1.3659058e-13
2.8993066e-13
4.6177579e-14
1.2023733e-15
3.9841622e-14
3.6917474e-15
6.0752169e-14
1.203987e-13
8.9801299e-14
-3.8914352e-14
3.4774157e-14
1.5331696e-14
1.6844399e-13
2.2267252e-13
1.3411264e-13
3.6089348e-13
3.6236476e-13
2.2108998e-13
2.7846174e-13
1.8097653e-13
2.0339262e-13
4.4919841e-13
4.9426869e-13
2.918373e-13
2.6819717e-13
4.2726891e-13
3.9806492e-13
4.5647367e-13
3.4146922e-13
2.1919756e-13
-1.6170109e-14
-1.3619609e-13
-2.9678507e-14
9.6308362e-15
-9.1762707e-14
-1.0228728e-13
-2.0460176e-13
-3.7187681e-13
-5.3588922e-14
-1.7231506e-13
9.480342e-14
-1.4983571e-13
-3.138263e-13
-1.9732728e-13
-3.2338652e-13
-4.659921e-13
-4.1031761e-13
-7.1740097e-13
-9.3051913e-13
-7.3964214e-13
-8.3210952e-13
-5.7541898e-13
-6.7125077e-13
-5.9037175e-13
-4.35283e-13
-7.2182667e-13
-7.9363406e-13
-8.7751505e-13
-7.2106062e-13
-7.5907133e-13
-1.0245154e-12
-7.1389643e-13
-7.4960344e-13
-9.0713578e-13
-1.0319254e-12
-1.0029797e-12
-8.7805936e-13
-1.0989565e-12
-1.1715675e-12
-9.9587915e-13
-9.6922744e-13
-1.1555508e-12
-1.2319632e-12
-1.2365053e-12
-1.1496457e-12
-9.0638291e-13
-5.3158642e-13
-7.0021948e-13
-6.4800361e-13
-7.3290867e-13
-9.8373698e-13
-7.477699e-13
-6.7940419e-13
-5.5938825e-13
-6.7472168e-13
-6.2565942e-13
-6.9758784e-13
-5.6627259e-13
-3.928311e-13
-6.5768036e-13
-5.7858494e-13
-4.3889239e-13
-4.4659397e-13
-4.6572588e-13
-8.3319325e-13
-6.0226406e-13
-5.3140699e-13
-5.6280675e-13
-5.238727e-13
-5.8517571e-13
-3.6254069e-13
-1.521895e-13
-2.6021997e-13
-2.0976965e-13
-6.5991999e-14
1.559349e-13
1.4866658e-13
2.5381694e-13
3.1837779e-13
6.7521612e-13
8.0550113e-13
9.3647418e-13
1.2849253e-12
1.4802944e-12
1.9851919e-12
2.5426931e-12
3.10654e-12
3.8533926e-12
4.9956982e-12
5.7815252e-12
7.0584019e-12
8.3985851e-12
9.9635639e-12
1.1984456e-11
1.4286624e-11
1.6603724e-11
1.9492661e-11
2.3207512e-11
2.7597263e-11
3.2486999e-11
3.8090872e-11
4.513829e-11
5.3598927e-11
6.3535584e-11
7.4850074e-11
8.813832e-11
1.0366257e-10
1.2183569e-10
1.4350219e-10
1.6873626e-10
1.9837752e-10
2.3371342e-10
2.7475021e-10
3.2274748e-10
3.7898971e-10
4.4505037e-10
5.2230365e-10
6.1240371e-10
7.1843856e-10
8.4232603e-10
9.8677432e-10
1.1557433e-09
1.3532594e-09
1.5829956e-09
1.8512497e-09
2.1643082e-09
2.529277e-09
2.9544857e-09
3.4495114e-09
4.0261095e-09
4.6967218e-09
5.4770611e-09
6.3843425e-09
7.4386395e-09
8.6637929e-09
1.0085887e-08
1.1736236e-08
1.3651162e-08
1.5871294e-08
1.8444027e-08
2.1425431e-08
2.4877819e-08
2.8873529e-08
3.3496892e-08
3.8843262e-08
4.5023038e-08
5.2162423e-08
6.0407574e-08
6.9925426e-08
8.0906495e-08
9.3570399e-08
1.0816733e-07
1.2498496e-07
1.4435343e-07
1.6664752e-07
1.9229753e-07
2.2179407e-07
2.5569843e-07
2.9465045e-07
3.393799e-07
3.9071942e-07
4.4961776e-07
5.1715438e-07
5.945578e-07
6.8322807e-07
7.8475523e-07
9.0094569e-07
1.0338523e-06
1.1858043e-06
1.3594445e-06
1.5577712e-06
1.7841793e-06
2.0425162e-06
2.3371365e-06
2.6729664e-06
3.0555762e-06
3.4912608e-06
3.9871291e-06
4.5512064e-06
5.1925455e-06
5.9213535e-06
6.7491309e-06
7.688829e-06
8.7550256e-06
9.9641162e-06
1.1334532e-05
1.288698e-05
1.4644711e-05
1.6633816e-05
1.8883551e-05
2.1426705e-05
2.4300008e-05
2.7544571e-05
3.1206386e-05
3.5336872e-05
3.9993476e-05
4.5240347e-05
5.1149063e-05
5.7799451e-05
6.5280472e-05
7.3691206e-05
8.3141932e-05
9.3755315e-05
0.00010566771
0.00011903057
0.00013401205
0.00015079868
0.00016959726
0.00019063691
0.00021417127
0.000240481
0.00026987639
0.00030270028
0.00033933118
0.00038018674
0.00042572744
0.00047646063
0.0005329449
0.00059579484
0.00066568614
0.00074336113
0.00082963477
0.00092540112
0.0010316402
0.0011494257
0.0012799325
0.0014244462
0.0015843713
0.0017612421
0.0019567327
0.0021726685
0.0024110386
0.0026740083
0.0029639334
0.0032833743
0.0036351121
0.0040221647
0.0044478046
0.0049155775
0.0054293216
0.0059931885
0.0066116648
0.0072895954
0.0080322073
0.0088451348
0.0097344462
0.010706671
0.011768831
0.012928465
0.014193667
0.015573113
0.017076099
0.018712571
0.020493166
0.022429245
0.024532933
0.026817158
0.029295687
0.031983173
0.03489519
0.038048277
0.041459981
0.045148899
0.049134718
0.053438259
0.058081522
0.063087722
0.068481334
0.074288133
0.080535231
0.087251119
0.094465696
0.10221031
0.11051779
0.11942247
0.12896022
0.13916848
0.15008624
0.16175414
0.17421437
0.18751079
0.20168885
0.21679564
0.23287988
0.24999186
0.2681835
0.28750826
0.30802116
0.3297787
0.35283888
0.37726107
0.40310604
0.43043583
0.45931372
0.48980415
0.52197262
0.55588561
0.59161048
0.62921538
0.66876914
0.7103411
0.75400108
0.79981916
0.84786561
0.89821072
0.95092465
1.0060773
1.0637382
1.1239761
1.1868593
1.252455
1.3208294
1.3920475
1.4661726
1.543267
1.6233907
1.7066021
1.7929575
1.8825108
1.9753137
2.0714152
2.1708616
2.2736966
2.3799604
2.4896904
2.6029207
2.7196817
2.8400007
2.963901
3.0914021
3.2225198
3.3572659
3.4956481
3.6376699
3.7833305
3.9326251
4.0855442
4.2420742