/*--------------------------------*- C++ -*----------------------------------*\
  =========                 |
  \\      /  F ield         | OpenFOAM: The Open Source CFD Toolbox
   \\    /   O peration     | Website:  https://openfoam.org
    \\  /    A nd           | Version:  7
     \\/     M anipulation  |
\*---------------------------------------------------------------------------*/
FoamFile
{
    version     2.0;
    format      ascii;
    class       volScalarField;
    location    "0.00056";
    object      mag(U);
}
// * * * * * * * * * * * * * * * * * * * * * * * * * * * * * * * * * * * * * //

dimensions      [0 1 -1 0 0 0 0];

internalField   nonuniform List<scalar> 
5000
(
1.2632797e-12
1.0204949e-12
5.72134e-13
8.3962591e-13
8.9519303e-13
1.0360195e-12
1.2522038e-12
1.0223679e-12
7.3373078e-13
7.9153974e-13
7.2053573e-13
5.8024773e-13
1.0439151e-12
1.2429047e-12
1.2558241e-12
1.0267784e-12
9.2266976e-13
9.3998702e-13
1.2077293e-12
1.0016486e-12
1.3177597e-12
1.4149823e-12
1.0552694e-12
9.4220406e-13
9.4148513e-13
8.1003538e-13
8.7516099e-13
9.9704122e-13
6.4482672e-13
5.9457285e-13
5.5767568e-13
6.0342313e-13
8.1373017e-13
1.0034309e-12
7.7241301e-13
1.1755876e-12
1.4128137e-12
1.2894112e-12
1.1939779e-12
1.0563748e-12
1.451074e-12
1.514127e-12
1.4102048e-12
1.3521432e-12
1.3895136e-12
1.4151624e-12
1.2200404e-12
1.028091e-12
7.9373136e-13
8.0146385e-13
1.1386005e-12
9.9148799e-13
8.5900831e-13
1.0128593e-12
1.1017416e-12
1.2316621e-12
1.2216459e-12
8.824697e-13
7.0768088e-13
7.806427e-13
3.8497228e-13
6.9961576e-13
5.6979768e-13
5.3750972e-13
8.3538207e-13
5.6381326e-13
4.535352e-13
6.5135287e-13
9.9540885e-13
4.2854619e-13
5.3347317e-13
9.9997939e-13
6.6495171e-13
7.3082005e-13
4.7102674e-13
8.1644141e-13
9.7448254e-13
1.0830216e-12
1.3530441e-12
1.4830742e-12
1.480193e-12
1.6463758e-12
1.7112517e-12
1.492384e-12
1.5190447e-12
1.1708422e-12
1.2077212e-12
1.3259986e-12
1.5670817e-12
1.669966e-12
1.6406699e-12
1.7658144e-12
1.6221861e-12
1.3978686e-12
1.7727822e-12
1.7942148e-12
1.6394808e-12
1.7049573e-12
1.9925858e-12
1.8501545e-12
1.9559277e-12
1.9888178e-12
1.9652593e-12
2.1690977e-12
1.9056916e-12
2.2021238e-12
2.2635784e-12
1.8876044e-12
2.1509616e-12
2.3096045e-12
2.0134072e-12
1.8441457e-12
1.9135475e-12
2.1344203e-12
2.39122e-12
2.185962e-12
2.0238095e-12
2.3917813e-12
2.6623292e-12
2.4228061e-12
2.1411695e-12
2.5185583e-12
2.5935153e-12
2.3058059e-12
2.5300539e-12
2.5633158e-12
2.3729264e-12
2.8358385e-12
2.704926e-12
3.1737073e-12
2.8936462e-12
2.6333736e-12
2.9039134e-12
2.7078589e-12
2.7982994e-12
2.8319665e-12
2.7187063e-12
2.7661232e-12
2.6292576e-12
2.7811259e-12
2.6431729e-12
2.4401745e-12
2.6782184e-12
2.5748094e-12
2.5475436e-12
2.4413041e-12
2.2275937e-12
2.3576532e-12
2.7103601e-12
2.4196052e-12
2.5740835e-12
2.1337346e-12
2.2662663e-12
2.3027035e-12
2.1301886e-12
2.3028919e-12
2.0611469e-12
2.2284472e-12
1.7941544e-12
1.8543888e-12
1.8285747e-12
1.5869818e-12
1.2763573e-12
1.2253828e-12
1.1657555e-12
1.5592958e-12
1.4213225e-12
1.3294611e-12
1.7981473e-12
1.0848183e-12
9.6912511e-13
1.0873484e-12
1.3119096e-12
1.353817e-12
1.602127e-12
1.5124963e-12
1.8036782e-12
1.4880341e-12
1.1349706e-12
1.5584832e-12
1.3094803e-12
1.1782942e-12
1.3298342e-12
1.665803e-12
1.926017e-12
1.5486979e-12
1.5841201e-12
1.9483903e-12
1.7185853e-12
1.363807e-12
1.4643617e-12
1.4631103e-12
1.3162678e-12
1.3196882e-12
1.3050025e-12
1.3380527e-12
1.3871996e-12
1.2711225e-12
1.5203546e-12
1.541148e-12
1.6133265e-12
1.9679194e-12
1.6798693e-12
1.2412234e-12
1.5106879e-12
1.5289886e-12
1.3476272e-12
1.4855594e-12
1.4570792e-12
1.8283231e-12
1.8950548e-12
1.2676489e-12
9.91081e-13
1.0587707e-12
1.3975365e-12
9.9799216e-13
1.0616759e-12
1.3128256e-12
1.4211541e-12
1.4135373e-12
1.1325653e-12
1.0336698e-12
1.0266808e-12
7.7233195e-13
7.4207308e-13
1.0828878e-12
1.1165076e-12
1.152338e-12
9.355053e-13
8.1266004e-13
7.3835801e-13
1.2144519e-12
1.3246237e-12
1.1613334e-12
1.1892895e-12
1.1328295e-12
1.3404438e-12
1.359684e-12
1.2781077e-12
1.4511207e-12
1.0858033e-12
1.2511361e-12
1.2215373e-12
7.6445088e-13
7.6882343e-13
7.59292e-13
9.9672309e-13
1.4575095e-12
9.4107956e-13
9.4713296e-13
8.7188173e-13
7.6765905e-13
8.9437383e-13
6.3159571e-13
1.1033266e-12
1.1427066e-12
9.6858878e-13
8.9979691e-13
9.1903254e-13
1.0758674e-12
1.0140795e-12
1.2168544e-12
1.0757539e-12
1.0911923e-12
1.2433197e-12
1.1880282e-12
1.3499952e-12
9.635743e-13
1.2385866e-12
1.5744697e-12
1.5343099e-12
1.2610329e-12
1.1206497e-12
1.1926131e-12
1.2862443e-12
1.5194746e-12
1.2884691e-12
1.0116201e-12
9.0658504e-13
1.1965136e-12
1.2987148e-12
8.8335476e-13
7.1309578e-13
9.876553e-13
1.2414785e-12
1.3366323e-12
1.1625245e-12
8.3104302e-13
9.2199236e-13
1.1512992e-12
1.183186e-12
1.5812319e-12
1.7848187e-12
1.6244758e-12
1.3634799e-12
1.2911951e-12
1.3884552e-12
1.6966958e-12
1.4245837e-12
1.2856537e-12
1.1856044e-12
1.2366952e-12
1.2901542e-12
1.5102865e-12
1.6189908e-12
1.3025723e-12
1.2564938e-12
1.1317042e-12
1.3484582e-12
1.6771747e-12
1.7612528e-12
1.9335091e-12
1.6748033e-12
1.3855393e-12
1.4270147e-12
1.5032522e-12
1.5304235e-12
1.3983307e-12
1.4604903e-12
1.4612234e-12
1.427745e-12
1.6404794e-12
1.8270333e-12
1.6208793e-12
1.7558583e-12
1.4362284e-12
1.520448e-12
1.2387964e-12
1.4410698e-12
1.5399763e-12
1.3533389e-12
1.3755346e-12
1.2676081e-12
1.2188152e-12
1.6649512e-12
1.619908e-12
1.3348389e-12
1.3203281e-12
1.594612e-12
1.6516915e-12
1.6441739e-12
1.6925172e-12
1.5082874e-12
1.6355703e-12
1.4881743e-12
1.6828732e-12
1.6045481e-12
1.3864231e-12
1.3874106e-12
1.6889674e-12
1.6765779e-12
1.8194583e-12
1.8856614e-12
1.9290045e-12
1.7008249e-12
1.5632449e-12
1.3731225e-12
1.3704688e-12
1.3254454e-12
1.3121875e-12
1.2571186e-12
1.0718984e-12
1.1627977e-12
1.1915691e-12
1.2752649e-12
1.5532394e-12
1.8357084e-12
1.5911856e-12
1.5006789e-12
1.492342e-12
1.4206378e-12
9.3258519e-13
9.681195e-13
8.9986064e-13
1.1567225e-12
1.3620068e-12
1.2355612e-12
1.209628e-12
9.3110727e-13
1.0122908e-12
9.7372157e-13
1.0961506e-12
1.1627237e-12
9.6767687e-13
8.3306544e-13
9.8038608e-13
1.0461433e-12
1.1482603e-12
1.1072773e-12
8.9445166e-13
1.0313126e-12
1.1812078e-12
1.0352106e-12
1.0728403e-12
9.3490359e-13
6.6397106e-13
6.7777668e-13
9.9697275e-13
1.2403268e-12
1.3147557e-12
1.4211432e-12
1.6069311e-12
1.4688814e-12
1.5808934e-12
1.9000609e-12
1.7404148e-12
1.8796543e-12
1.749442e-12
1.733946e-12
1.956575e-12
1.7938802e-12
1.9489292e-12
2.3143506e-12
2.582337e-12
2.2377908e-12
2.132187e-12
2.1218744e-12
1.9226235e-12
1.6597899e-12
1.9670864e-12
1.9445011e-12
1.9794002e-12
2.1906623e-12
2.0198966e-12
1.9729737e-12
1.8293192e-12
1.6689925e-12
1.7001339e-12
1.6220384e-12
1.4673214e-12
1.4929121e-12
1.3928954e-12
1.6901181e-12
1.7553424e-12
1.9864555e-12
1.7174069e-12
1.6554691e-12
1.6786811e-12
1.2967904e-12
1.2992631e-12
9.4853895e-13
7.9505882e-13
1.1192094e-12
1.0855776e-12
9.3756697e-13
7.9956974e-13
6.3059588e-13
4.3456133e-13
6.6709925e-13
6.3750983e-13
6.2490246e-13
6.6944082e-13
7.6381872e-13
9.7135095e-13
7.5654253e-13
7.2765207e-13
7.2790772e-13
7.1218747e-13
8.639119e-13
8.7682216e-13
7.056626e-13
4.5036164e-13
4.1114064e-13
4.727356e-14
8.1487851e-14
8.2319426e-14
7.8332295e-14
1.5438196e-13
2.778227e-13
1.2376135e-14
4.1820426e-14
9.6538948e-15
6.7784061e-14
7.7069795e-14
1.3726129e-13
3.2782424e-13
3.7172638e-13
2.6453175e-13
2.204233e-13
5.7670294e-13
5.9489392e-13
6.1248391e-13
6.775089e-13
4.2952186e-13
7.3769841e-13
8.7496997e-13
8.7903956e-13
1.2188041e-12
1.1372349e-12
9.8741329e-13
9.6897359e-13
1.3788385e-12
1.2940656e-12
1.428932e-12
1.3140761e-12
1.6072314e-12
1.6420867e-12
1.4839858e-12
1.7967201e-12
2.0959847e-12
2.0250792e-12
1.8223428e-12
1.8837712e-12
2.0152661e-12
1.918923e-12
1.5642939e-12
1.6187684e-12
1.849295e-12
1.7904626e-12
1.6230562e-12
1.9671733e-12
2.1472184e-12
2.0777622e-12
2.1122449e-12
2.3413227e-12
2.1345973e-12
1.793506e-12
1.9976453e-12
2.2319141e-12
2.3819082e-12
1.9265962e-12
1.8406012e-12
2.1029304e-12
2.2359137e-12
2.3294086e-12
2.3511837e-12
2.5108182e-12
2.1453869e-12
1.5358758e-12
1.7224657e-12
1.8558135e-12
1.6773009e-12
1.5957961e-12
1.5715424e-12
1.50827e-12
1.6019082e-12
2.0648884e-12
2.3504012e-12
2.2656265e-12
1.8833083e-12
2.1914114e-12
2.1391898e-12
2.0770891e-12
1.8124366e-12
1.9905664e-12
1.8567967e-12
1.761817e-12
2.1712559e-12
2.1562529e-12
2.2303903e-12
1.9074393e-12
2.0757519e-12
2.2919105e-12
1.6703726e-12
1.6212091e-12
1.7781132e-12
1.5922493e-12
1.473088e-12
1.1374167e-12
8.2950305e-13
7.4998461e-13
6.3349259e-13
6.4927114e-13
9.048112e-13
4.2716059e-13
4.339174e-13
4.8823426e-13
3.0671553e-13
7.5869684e-13
9.1093811e-13
8.534016e-13
7.9683955e-13
9.6963321e-13
8.9352702e-13
6.1893757e-13
4.3757718e-13
6.1717316e-13
8.6457178e-13
8.2236629e-13
3.9101386e-13
7.0189295e-13
7.2724811e-13
6.3025392e-13
8.5691554e-13
7.6199081e-13
8.1848065e-13
7.332552e-13
7.1156517e-13
7.7361403e-13
6.9923758e-13
8.1121274e-13
8.6020835e-13
6.9354741e-13
7.39862e-13
7.6610624e-13
8.2948857e-13
6.2154661e-13
4.7340554e-13
7.7922536e-13
7.3994701e-13
8.0570859e-13
7.2196484e-13
8.9768995e-13
8.8116285e-13
7.6000785e-13
9.8091237e-13
1.4120629e-12
1.4901425e-12
1.1702948e-12
1.6157533e-12
1.3652055e-12
1.1743783e-12
1.3708102e-12
1.6547637e-12
1.7279718e-12
1.3556262e-12
1.4548397e-12
1.5874428e-12
1.5243491e-12
1.5797144e-12
1.5699905e-12
1.8678191e-12
1.7119525e-12
1.7278454e-12
1.6310691e-12
1.6252444e-12
1.6462222e-12
1.7372228e-12
2.1121489e-12
1.8495665e-12
1.658095e-12
1.9220179e-12
1.4820596e-12
1.7233002e-12
2.0628335e-12
2.1755446e-12
2.2048895e-12
1.9812492e-12
1.8290765e-12
2.1232388e-12
2.2103123e-12
1.5906574e-12
1.9061595e-12
1.7590433e-12
1.9702751e-12
2.1841507e-12
1.8679071e-12
1.8010092e-12
2.3588412e-12
2.586962e-12
2.12225e-12
2.3663871e-12
2.2415437e-12
2.1136245e-12
1.7783161e-12
1.5685582e-12
1.9631349e-12
1.6209305e-12
1.3952505e-12
1.6399051e-12
1.6713238e-12
1.5454196e-12
1.8497031e-12
1.7097004e-12
1.7395891e-12
1.8919495e-12
1.5642191e-12
1.6758741e-12
1.9364898e-12
2.0106544e-12
1.982852e-12
1.9891089e-12
1.9861142e-12
2.0889826e-12
1.9887223e-12
1.8449702e-12
1.4553176e-12
1.7185351e-12
2.4347177e-12
2.0788928e-12
2.1402389e-12
2.1737087e-12
1.6218841e-12
1.712018e-12
1.6828947e-12
1.9662263e-12
1.946209e-12
1.6846823e-12
2.2247631e-12
2.2223961e-12
2.2888666e-12
2.3475713e-12
2.3508416e-12
2.4793977e-12
2.4243812e-12
2.463034e-12
3.0085316e-12
2.9244933e-12
2.5481384e-12
2.5284908e-12
2.6177826e-12
2.2411982e-12
2.1382911e-12
2.3140698e-12
2.1814989e-12
2.0456363e-12
2.0475468e-12
2.0599103e-12
1.9709102e-12
2.087844e-12
2.2408775e-12
2.4684424e-12
2.1472883e-12
2.0497913e-12
2.0867324e-12
2.0541305e-12
1.8646369e-12
1.7991809e-12
1.891641e-12
1.6324924e-12
2.1257128e-12
2.3633261e-12
2.0276045e-12
1.7928155e-12
1.8596705e-12
2.2944272e-12
2.2981761e-12
2.5132514e-12
2.2426651e-12
2.103292e-12
2.0039101e-12
2.1476639e-12
2.1704568e-12
2.2579548e-12
2.3310661e-12
1.7735659e-12
1.6404172e-12
1.3454043e-12
1.289109e-12
1.300826e-12
1.4614437e-12
1.2853848e-12
1.2945866e-12
8.4020871e-13
8.5158746e-13
1.0620892e-12
1.0106157e-12
1.0803269e-12
1.3197831e-12
1.1113014e-12
1.0981045e-12
1.0962315e-12
1.0854785e-12
1.4111787e-12
1.2875752e-12
1.4717829e-12
9.8866528e-13
1.0730821e-12
1.0513503e-12
1.3087325e-12
1.1159361e-12
9.7134125e-13
8.7209663e-13
8.5420298e-13
1.2852176e-12
1.143836e-12
1.0374655e-12
1.1916337e-12
1.3602451e-12
1.8000491e-12
1.6293604e-12
1.2877178e-12
1.2804262e-12
1.4615095e-12
1.6659126e-12
1.9148936e-12
1.7449047e-12
1.8398768e-12
1.6922094e-12
1.4507115e-12
1.6263795e-12
1.4419209e-12
1.4476041e-12
1.4326755e-12
1.4555071e-12
1.346149e-12
1.4981796e-12
1.1928144e-12
1.3638787e-12
1.6516337e-12
1.638585e-12
1.4115316e-12
1.2154553e-12
1.0331223e-12
1.2707567e-12
1.1215034e-12
9.6832293e-13
1.1449598e-12
1.1343536e-12
1.002666e-12
9.0011359e-13
1.1619836e-12
1.1679066e-12
9.9407659e-13
1.3498247e-12
9.7023604e-13
1.0193341e-12
1.1409583e-12
9.6481807e-13
1.0586767e-12
1.5063814e-12
1.7414924e-12
1.5059507e-12
1.4031739e-12
9.9657967e-13
1.2784721e-12
1.3726722e-12
1.1308069e-12
1.1080705e-12
8.11019e-13
7.5555602e-13
8.7904743e-13
6.0981047e-13
3.7230678e-13
2.8098201e-13
3.8517267e-13
2.7333399e-13
2.2452642e-13
5.9148314e-14
1.4086573e-13
2.6630136e-13
2.9824795e-13
1.125988e-13
3.0613776e-13
5.5449658e-14
5.7692148e-15
1.8213841e-13
5.4016849e-14
2.1306566e-14
1.8184981e-13
9.6043031e-14
1.315375e-13
2.932409e-13
4.7492672e-13
6.2366258e-13
6.3386029e-13
8.1776389e-13
7.0145243e-13
4.1046258e-13
5.0553104e-13
4.8511123e-13
5.4553974e-13
1.9767024e-13
2.4111048e-13
1.9429108e-13
2.8790426e-13
2.3465154e-13
3.6222439e-13
6.1814043e-13
6.6233962e-13
6.2031387e-13
4.8726761e-13
4.8985994e-13
5.6365376e-13
4.833122e-13
3.5499376e-13
3.29072e-13
3.7253055e-13
3.3732397e-13
7.4363783e-14
1.3546986e-13
2.8604194e-13
1.794029e-13
5.0343722e-14
1.9509531e-13
4.3090951e-13
5.2564779e-13
1.2763995e-13
1.3592714e-13
5.6256266e-14
2.7985569e-13
5.0899128e-13
3.9551556e-13
3.6065095e-14
2.8905059e-13
7.9730361e-14
2.2420298e-13
1.0084847e-13
2.4055141e-13
3.057404e-13
3.9732669e-13
3.4675044e-13
4.157278e-14
2.8351155e-15
1.289302e-13
1.1543928e-13
4.9640404e-14
1.2429735e-13
4.632476e-15
6.8066709e-14
1.9777726e-13
4.9178563e-14
7.1147246e-14
1.1795326e-14
1.1954958e-13
2.3006308e-13
1.5184974e-13
1.0819319e-13
1.2600636e-13
1.296983e-13
2.0731712e-13
4.3670305e-13
1.6092854e-13
3.09744e-14
2.4226162e-13
2.4785088e-13
9.638237e-14
8.6517824e-14
2.5605179e-13
5.1645623e-13
5.843533e-13
4.1357307e-13
4.4335865e-13
4.4810871e-13
3.0319554e-13
2.2958789e-13
5.0001687e-13
6.8849631e-13
5.5421016e-13
2.5474965e-13
3.6238332e-13
2.1120301e-13
4.728154e-13
7.915608e-14
9.0780524e-14
3.6426084e-13
3.3861047e-13
4.3823984e-13
3.2630293e-13
2.7490384e-13
4.5732868e-14
1.6907016e-15
3.8708131e-14
8.9495377e-15
7.7260281e-14
1.3118665e-13
3.2972333e-13
1.0248428e-13
5.7391011e-14
2.7592827e-13
3.2397264e-13
1.3247325e-13
6.8751194e-15
3.0997224e-13
3.4373822e-13
2.6288253e-13
5.6246783e-14
1.1370613e-13
3.8003708e-14
5.1887215e-14
1.2139799e-13
7.1220209e-14
7.2668637e-14
1.0427673e-13
3.811582e-13
2.7726632e-13
1.5198228e-13
1.8816307e-13
2.6062531e-13
5.682073e-13
3.5410179e-13
1.6920764e-13
4.2358737e-13
3.7172889e-13
4.533041e-13
5.3491273e-13
5.613691e-13
6.8119455e-13
6.4099993e-13
3.6188129e-13
4.2429031e-13
5.7040801e-13
5.6127228e-13
6.0382079e-13
9.2593213e-13
7.5817386e-13
7.1442788e-13
7.5515697e-13
7.2601487e-13
1.1307165e-12
9.3308704e-13
8.7976329e-13
1.3311732e-12
1.4075085e-12
1.503235e-12
1.5230432e-12
1.2529786e-12
1.0195996e-12
9.4352273e-13
1.0223107e-12
1.0188615e-12
1.3368413e-12
1.5275606e-12
1.2617256e-12
1.4114667e-12
1.5163386e-12
1.6174799e-12
1.6343197e-12
1.0725013e-12
9.8126404e-13
9.3851743e-13
1.1723218e-12
1.2725782e-12
1.4771502e-12
1.2426153e-12
1.2174781e-12
1.59858e-12
1.5150426e-12
1.3686916e-12
1.2107316e-12
1.1992422e-12
1.0876866e-12
1.2043153e-12
8.9554007e-13
1.1093032e-12
1.3175226e-12
1.3014168e-12
1.5846174e-12
1.2255713e-12
1.0293077e-12
1.0148372e-12
1.1266777e-12
1.4852397e-12
1.5836745e-12
1.5796797e-12
1.3758091e-12
1.4922368e-12
1.2866449e-12
1.3833645e-12
1.4989091e-12
1.6707905e-12
1.7369187e-12
1.8159904e-12
1.8435559e-12
1.9387338e-12
2.2546615e-12
2.2532295e-12
2.1835241e-12
2.1742601e-12
2.0078075e-12
1.6455337e-12
1.9612049e-12
2.033922e-12
1.9756566e-12
2.0819351e-12
2.1064278e-12
2.1461102e-12
1.7555682e-12
1.5799597e-12
1.9579687e-12
2.1448336e-12
1.9510874e-12
1.4545095e-12
1.6849897e-12
1.5336376e-12
1.4396341e-12
1.267411e-12
1.1256881e-12
1.2733831e-12
1.1874167e-12
1.0894966e-12
9.3780575e-13
7.9845617e-13
8.4455323e-13
6.6341086e-13
5.6478428e-13
6.9352473e-13
6.4568048e-13
4.7426298e-13
1.1732867e-13
1.0377996e-13
1.1429965e-13
4.0173533e-13
4.5044738e-13
3.0004528e-13
9.9196532e-15
1.6450341e-13
2.6595261e-13
1.931309e-13
6.6370754e-15
5.4892064e-15
1.4980932e-13
2.5202356e-14
4.4777592e-14
7.8915518e-14
5.1228257e-14
1.6536289e-14
1.9978189e-14
1.222514e-13
2.6146327e-13
7.0038367e-15
8.7324713e-14
1.2602198e-13
3.1164704e-14
3.4087129e-13
5.5894186e-13
4.7782525e-13
5.4470323e-13
5.8100857e-13
4.6205972e-13
4.6166904e-13
3.5117644e-13
3.316704e-13
2.585786e-13
5.3516832e-13
7.8345352e-13
8.5592826e-13
6.7292191e-13
5.0550581e-13
4.9741169e-13
5.6686203e-13
4.1451344e-13
3.7363593e-13
3.3016079e-13
7.1135903e-13
7.0528149e-13
3.7167993e-13
5.6448581e-13
7.3846299e-13
1.0339582e-12
9.0154139e-13
8.6496651e-13
6.5584978e-13
8.1407794e-13
5.4015868e-13
7.9937655e-13
7.0045545e-13
3.7062915e-13
2.8850302e-13
1.6810237e-13
4.7773155e-14
7.64187e-14
6.0031952e-14
1.5387642e-13
4.8551283e-13
8.3995234e-13
8.0711439e-13
1.2641576e-12
1.791219e-12
2.1602541e-12
2.5522503e-12
2.8625232e-12
3.4230852e-12
4.0868159e-12
4.4730886e-12
5.1951722e-12
6.0888945e-12
7.1253622e-12
8.5141887e-12
9.8554118e-12
1.1274096e-11
1.2444199e-11
1.3841691e-11
1.6202541e-11
1.8716718e-11
2.1262797e-11
2.3870173e-11
2.7478134e-11
3.1200543e-11
3.5330088e-11
4.0113474e-11
4.5282375e-11
5.1028058e-11
5.7654695e-11
6.5091062e-11
7.3694448e-11
8.2755953e-11
9.3179445e-11
1.0568923e-10
1.1896155e-10
1.3366913e-10
1.5057076e-10
1.6968369e-10
1.901129e-10
2.1314439e-10
2.3963766e-10
2.687546e-10
3.0154666e-10
3.3874908e-10
3.8024226e-10
4.2643371e-10
4.7783662e-10
5.3542215e-10
6.0028211e-10
6.7299095e-10
7.5394337e-10
8.4396104e-10
9.447578e-10
1.0574082e-09
1.1832821e-09
1.3235956e-09
1.4796597e-09
1.6544225e-09
1.8492283e-09
2.0664866e-09
2.308198e-09
2.5780337e-09
2.8786326e-09
3.2136501e-09
3.5857687e-09
4.0001522e-09
4.4624613e-09
4.9763603e-09
5.5483721e-09
6.1839249e-09
6.8913613e-09
7.6777215e-09
8.5510769e-09
9.5223433e-09
1.0601303e-08
1.179947e-08
1.3130273e-08
1.4607893e-08
1.6248696e-08
1.8069562e-08
2.0089416e-08
2.233091e-08
2.481689e-08
2.7571908e-08
3.0626406e-08
3.4011137e-08
3.7760907e-08
4.1915122e-08
4.6514918e-08
5.1606902e-08
5.7242225e-08
6.3476199e-08
7.0372382e-08
7.7997803e-08
8.6426322e-08
9.5741519e-08
1.0603318e-07
1.1739995e-07
1.2995287e-07
1.4381251e-07
1.5911136e-07
1.7599562e-07
1.9462574e-07
2.1518046e-07
2.3785796e-07
2.6287855e-07
2.9049261e-07
3.206676e-07
3.5438673e-07
3.9176343e-07
4.3236539e-07
4.7699509e-07
5.2606489e-07
5.8002215e-07
6.3934947e-07
7.0457013e-07
7.7625527e-07
8.5502546e-07
9.415581e-07
1.0365933e-06
1.1409369e-06
1.2554702e-06
1.3811532e-06
1.5190331e-06
1.6702533e-06
1.8360578e-06
2.0178041e-06
2.2169718e-06
2.4351705e-06
2.6741525e-06
2.9358269e-06
3.2222706e-06
3.5357409e-06
3.8786951e-06
4.2538027e-06
4.6639657e-06
5.1123361e-06
5.602337e-06
6.1376867e-06
6.7224201e-06
7.3609141e-06
8.0579193e-06
8.8185844e-06
9.6484923e-06
1.0553694e-05
1.1540744e-05
1.261674e-05
1.3789368e-05
1.5066948e-05
1.645848e-05
1.79737e-05
1.9623136e-05
2.1418166e-05
2.3371088e-05
2.5495187e-05
2.7804809e-05
3.0315438e-05
3.3043789e-05
3.6007893e-05
3.9227198e-05
4.2722669e-05
4.6516905e-05
5.0634252e-05
5.5100934e-05
5.9945187e-05
6.5197401e-05
7.089028e-05
7.7058994e-05
8.3741366e-05
9.097805e-05
9.8812732e-05
0.00010729234
0.00011646725
0.00012639156
0.00013712332
0.00014872477
0.00016126269
0.00017480864
0.00018943931
0.00020523686
0.00022228925
0.00024069064
0.00026054181
0.00028195055
0.00030503211
0.0003299097
0.00035671497
0.00038558854
0.00041668058
0.00045015136
0.00048617188
0.00052492456
0.00056660389
0.00061141715
0.00065958519
0.00071134324
0.00076694172
0.00082664714
0.00089074303
0.00095953092
0.0010333313
0.0011124849
0.0011973534
0.001288321
0.0013857955
0.0014902096
0.0016020221
0.0017217195
0.0018498174
0.0019868621
0.0021334318
0.0022901388
0.0024576309
0.0026365933
0.0028277503
0.0030318675
0.0032497537
0.0034822627
0.0037302962
0.0039948051
0.0042767926
0.0045773161
0.0048974902
0.0052384885
0.005601547
0.0059879666
0.0063991157
0.0068364333
0.0073014319
0.0077957009
0.0083209092
0.0088788088
0.0094712381
0.010100125
0.010767492
0.011475456
0.012226235
0.013022154
0.013865643
0.014759244
0.015705616
0.016707537
0.017767909
0.018889761
0.020076256
0.021330692
0.022656508
0.024057286
0.02553676
0.027098815
0.028747495
0.030487006
0.03232172
0.034256181
0.036295106
0.038443393
0.040706124
0.043088568
0.045596186
0.048234636
0.051009775
0.053927667
0.05699458
0.060216996
0.063601613
0.067155346
0.070885333
0.074798937
0.07890375
0.083207594
0.087718524
0.092444834
0.097395052
0.10257795
0.10800254
0.11367807
0.11961405
0.12582022
0.13230656
0.13908332
0.14616096
0.15355023
0.16126208
0.16930772
0.17769862
0.18644645
0.19556316
0.20506089
0.21495205
0.22524925
0.23596533
0.24711335
0.25870659
0.27075852
0.28328283
0.2962934
0.30980429
0.32382975
0.33838421
0.35348225
0.36913861
0.38536818
0.40218601
0.41960725
0.43764718
0.45632118
0.47564475
0.49563344
0.51630291
0.53766886
0.55974704
0.58255324
0.60610327
0.63041297
0.65549815
0.68137461
0.70805812
0.73556441
0.76390914
0.79310791
0.8231762
0.85412942
0.88598283
0.9187516
0.95245069
0.98709494
1.022699
1.0592773
1.0968442
1.1354135
1.1749992
1.2156147
1.2572734
1.2999881
1.3437715
1.3886362
1.434594
1.4816568
1.5298359
1.5791423
1.6295867
1.6811793
1.73393
1.7878483
1.8429431
1.8992232
1.9566966
2.0153712
2.0752543
2.1363525
2.1986724
2.2622197
2.3269999
2.3930179
2.460278
2.5287843
2.59854
2.6695482
2.7418111
2.8153307
2.8901082
2.9661446
3.0434401
3.1219945
3.201807
3.2828764
3.3652009
3.4487781
3.5336052
3.6196789
3.7069951
3.7955496
3.8853373
3.9763529
4.0685903
4.162043
4.2567042
4.3525663
4.4496214
4.5478609
4.6472759
4.747857
4.8495943
4.9524773
5.0564952
5.1616367
5.26789
5.3752428
5.4836826
5.5931961
5.7037699
5.8153899
5.9280418
6.0417108
6.1563817
6.2720388
6.3886662
6.5062474
6.6247658
6.7442041
6.8645449
6.9857702
7.107862
7.2308015
7.3545699
7.479148
7.6045161
7.7306544
7.8575426
7.9851603
8.1134866
8.2425003
8.3721802
8.5025044
8.6334509
8.7649977
8.897122
9.0298011
9.163012
9.2967314
9.4309357
9.5656011
9.7007037
9.8362192
9.9721231
10.108391
10.244997
10.381917
10.519126
10.656597
10.794306
10.932226
11.070331
11.208595
11.346992
11.485494
11.624076
11.76271
11.90137
12.040028
12.178656
12.317228
12.455715
12.59409
12.732326
12.870393
13.008266
13.145915
13.283312
13.420429
13.557238
13.693712
13.82982
13.965536
14.10083
14.235674
14.370041
14.503902
14.637228
14.769991
14.902164
15.033717
15.164624
15.294856
15.424385
15.553184
15.681224
15.80848
15.934923
16.060526
16.185264
16.309108
16.432034
16.554014
16.675023
16.795036
16.914027
17.031973
17.148847
17.264628
17.379289
17.49281
17.605166
17.716335
17.826298
17.93503
18.042513
18.148725
18.253648
18.357263
18.459551
18.560495
18.660077
18.758283
18.855095
18.9505
19.044484
19.137032
19.228134
19.317777
19.405952
19.492647
19.577854
19.661565
19.743772
19.824471
19.903655
19.98132
20.057462
20.13208
20.205171
20.276736
20.346774
20.415288
20.482279
20.547753
20.611711
20.674161
20.735107
20.794559
20.852524
20.909011
20.964031
21.017594
21.069713
21.1204
21.169669
21.217535
21.264012
21.309118
21.352868
21.395281
21.436374
21.476168
21.514681
21.551933
21.587946
21.622741
21.656339
21.688764
21.720036
21.750181
21.77922
21.807179
21.83408
21.859949
21.88481
21.908686
21.931605
21.953588
21.974664
21.994854
22.014185
22.032683
22.050369
22.067272
22.083412
22.098817
22.113509
22.127512
22.140851
22.153547
22.165624
22.177104
22.18801
22.198364
22.208185
22.217497
22.226319
22.234671
22.242573
22.250044
22.257103
22.263766
22.270054
22.275982
22.281567
22.286826
22.291773
22.296425
22.300794
22.304897
22.308746
22.312354
22.315735
22.318898
22.321859
22.324626
22.32721
22.329623
22.331873
22.33397
22.335923
22.337741
22.339431
22.341001
22.34246
22.343812
22.345067
22.346228
22.347304
22.348299
22.349218
22.350068
22.35085
22.351573
22.352238
22.352851
22.353414
22.353931
22.354407
22.354842
22.355242
22.355608
22.355943
22.35625
22.356529
22.356785
22.357017
22.357229
22.357422
22.357597
22.357757
22.357901
22.358033
22.358151
22.358259
22.358356
22.358443
22.358523
22.358593
22.358657
22.358714
22.358764
22.35881
22.358849
22.358884
22.358914
22.35894
22.358961
22.358979
22.358997
22.359021
22.359048
22.359063
22.359074
22.359102
22.359149
22.359183
22.359197
22.359221
22.35927
22.359312
22.359325
22.359339
22.359384
22.359436
22.359465
22.359484
22.359524
22.359572
22.359599
22.359615
22.359646
22.35969
22.359724
22.359749
22.359776
22.359812
22.359844
22.359864
22.359883
22.359914
22.359946
22.359967
22.359981
22.360006
22.360038
22.360059
22.360069
22.360087
22.360121
22.360146
22.360153
22.360161
22.360192
22.360225
22.360237
22.360241
22.360268
22.360305
22.360327
22.360339
22.360359
22.360393
22.360422
22.360439
22.360455
22.360483
22.360511
22.360526
22.360534
22.360554
22.360583
22.360606
22.360621
22.360639
22.360661
22.36068
22.3607
22.360721
22.360745
22.360767
22.360786
22.36081
22.360841
22.360861
22.360875
22.360893
22.360907
22.360914
22.360921
22.360931
22.360933
22.360925
22.360931
22.360942
22.360941
22.360945
22.360955
22.360966
22.360975
22.360992
22.361014
22.361032
22.361045
22.361062
22.361084
22.361103
22.361115
22.361128
22.361148
22.361166
22.361178
22.361193
22.361213
22.361233
22.361251
22.361266
22.361282
22.361298
22.361316
22.361336
22.361359
22.361379
22.361391
22.361396
22.361402
22.361406
22.361398
22.361384
22.36139
22.361399
22.361398
22.3614
22.361398
22.361389
22.361381
22.361385
22.361387
22.36139
22.361403
22.36142
22.361435
22.361451
22.361464
22.361478
22.361493
22.361507
22.361522
22.361535
22.361546
22.361558
22.361571
22.36158
22.361587
22.361595
22.361601
22.361605
22.36161
22.361615
22.361618
22.361622
22.361623
22.361623
22.361624
22.361624
22.361623
22.361626
22.361631
22.361637
22.361648
22.361654
22.361649
22.361632
22.361629
22.361628
22.361627
22.361631
22.361634
22.361634
22.361635
22.361636
22.36164
22.361646
22.361653
22.361653
22.361648
22.361644
22.361645
22.361647
22.361649
22.361648
22.361644
22.361637
22.361633
22.361633
22.361629
22.36162
22.361615
22.361614
22.361614
22.361608
22.361596
22.361585
22.361584
22.361584
22.361582
22.361579
22.361577
22.361577
22.361578
22.361581
22.361586
22.361589
22.361587
22.36158
22.361572
22.361576
22.361581
22.361579
22.361576
22.36158
22.361582
22.36158
22.361573
22.361574
22.361577
22.361575
22.36157
22.361562
22.36156
22.36156
22.361558
22.361557
22.361555
22.361551
22.361544
22.361538
22.361534
22.361529
22.361521
22.361512
22.361507
22.361502
22.361493
22.361485
22.361482
22.361477
22.361469
22.361457
22.361441
22.361436
22.361436
22.361433
22.361426
22.361422
22.361419
22.361416
22.361412
22.361405
22.361398
22.361391
22.361391
22.361389
22.361384
22.361378
22.361371
22.36137
22.361369
22.361365
22.361358
22.361355
22.361355
22.361353
22.361348
22.361341
22.361336
22.361336
22.361336
22.361333
22.361329
22.361324
22.361318
22.361313
22.361311
22.361309
22.361305
22.3613
22.361296
22.361293
22.361289
22.361283
22.361277
22.361275
22.361272
22.361268
22.361261
22.361257
22.361253
22.361247
22.36124
22.361232
22.36123
22.361228
22.361224
22.361218
22.361211
22.361206
22.361201
22.361198
22.361195
22.361191
22.361186
22.361179
22.361174
22.361173
22.361171
22.361167
22.361162
22.361157
22.361151
22.361148
22.361147
22.361146
22.361142
22.361138
22.361133
22.361131
22.36113
22.361129
22.361125
22.361121
22.361117
22.361116
22.361114
22.361112
22.361108
22.361105
22.361103
22.361101
22.361098
22.361093
22.361089
22.361088
22.361087
22.361084
22.361079
22.361074
22.361072
22.36107
22.361068
22.361063
22.361058
22.361054
22.361053
22.361051
22.361048
22.361043
22.361038
22.361035
22.361034
22.361031
22.361028
22.361024
22.361019
22.361016
22.361015
22.361012
22.361009
22.361004
22.360999
22.360998
22.360996
22.360994
22.360991
22.360987
22.360983
22.36098
22.360978
22.360976
22.360973
22.36097
22.360966
22.360963
22.36096
22.360957
22.360953
22.36095
22.360947
22.360944
22.36094
22.360936
22.360932
22.36093
22.360927
22.360923
22.360919
22.360914
22.360911
22.360908
22.360905
22.3609
22.360896
22.360893
22.36089
22.360886
22.360883
22.36088
22.360877
22.360873
22.360868
22.360863
22.360861
22.36086
22.360858
22.360855
22.360852
22.360848
22.360844
22.360841
22.360839
22.360838
22.360835
22.360832
22.36083
22.360828
22.360826
22.360823
22.360819
22.360817
22.360816
22.360814
22.360812
22.360809
22.360805
22.360802
22.3608
22.360798
22.360796
22.360793
22.360792
22.36079
22.360788
22.360785
22.360782
22.360778
22.360776
22.360774
22.360771
22.360768
22.360765
22.360762
22.360759
22.360756
22.360753
22.360751
22.360748
22.360746
22.360742
22.360738
22.360734
22.360731
22.360729
22.360727
22.360724
22.36072
22.360717
22.360714
22.360712
22.360709
22.360705
22.360701
22.360698
22.360696
22.360694
22.360691
22.360688
22.360684
22.360682
22.36068
22.360678
22.360675
22.360672
22.360669
22.360667
22.360664
22.360662
22.360659
22.360657
22.360655
22.360653
22.36065
22.360648
22.360646
22.360644
22.360642
22.360639
22.360636
22.360634
22.360633
22.360631
22.360629
22.360626
22.360623
22.360621
22.360619
22.360617
22.360614
22.360611
22.36061
22.360608
22.360606
22.360604
22.360601
22.360599
22.360596
22.360593
22.360592
22.360591
22.360589
22.360586
22.360583
22.36058
22.360578
22.360576
22.360575
22.360573
22.360571
22.360568
22.360565
22.360562
22.360561
22.36056
22.360558
22.360556
22.360553
22.36055
22.360549
22.360547
22.360545
22.360543
22.360541
22.360538
22.360535
22.360534
22.360532
22.360531
22.360529
22.360527
22.360524
22.360521
22.360519
22.360518
22.360516
22.360514
22.360511
22.360508
22.360506
22.360504
22.360502
22.3605
22.360497
22.360494
22.360492
22.36049
22.360488
22.360485
22.360482
22.360479
22.360477
22.360475
22.360472
22.36047
22.360467
22.360464
22.360461
22.360459
22.360456
22.360454
22.360451
22.360449
22.360446
22.360444
22.360441
22.360438
22.360436
22.360433
22.360431
22.360429
22.360426
22.360423
22.360421
22.360419
22.360416
22.360413
22.360411
22.360409
22.360407
22.360405
22.360402
22.360399
22.360397
22.360395
22.360393
22.360391
22.360389
22.360386
22.360383
22.360381
22.36038
22.360378
22.360376
22.360374
22.360371
22.360369
22.360366
22.360364