/*--------------------------------*- C++ -*----------------------------------*\
  =========                 |
  \\      /  F ield         | OpenFOAM: The Open Source CFD Toolbox
   \\    /   O peration     | Website:  https://openfoam.org
    \\  /    A nd           | Version:  7
     \\/     M anipulation  |
\*---------------------------------------------------------------------------*/
FoamFile
{
    version     2.0;
    format      ascii;
    class       volScalarField;
    location    "0.0021";
    object      Uz;
}
// * * * * * * * * * * * * * * * * * * * * * * * * * * * * * * * * * * * * * //

dimensions      [0 1 -1 0 0 0 0];

internalField   nonuniform List<scalar> 
5000
(
0
0
0
0
0
-2.2671397e-21
-4.7907061e-36
7.3497776e-21
2.580991e-21
-5.2814741e-21
-5.3051979e-21
2.6425833e-21
-2.2449576e-35
-2.3013201e-35
5.2290984e-21
-5.3276925e-21
6.8615518e-51
-2.4262841e-35
-2.7651194e-21
5.5367261e-21
2.7692882e-21
0
0
-2.7765792e-21
2.3856579e-35
-2.333239e-35
-2.8639141e-21
2.8873921e-21
2.8986144e-21
-2.9052064e-21
5.0931652e-35
-2.494531e-35
-2.9400354e-21
2.9563077e-21
2.9590029e-21
0
0
-2.9807924e-21
-2.9772437e-21
2.9842127e-21
-5.034707e-35
-2.8569313e-21
2.816811e-21
-5.098188e-35
-3.089708e-21
3.0327243e-21
-1.0453848e-34
1.0612935e-34
-1.0703058e-34
5.2838301e-35
3.0875179e-21
0
0
0
0
0
0
0
0
0
0
0
0
-3.1322418e-21
-3.1688855e-21
3.254186e-21
-5.6972844e-35
-1.952004e-51
3.279909e-21
0
0
-3.3002223e-21
-3.3652635e-21
0
3.3660448e-21
1.1487851e-34
-3.2863602e-21
-3.2663564e-21
3.3006678e-21
6.7294541e-21
-6.7946321e-21
1.9260826e-36
1.0100018e-20
-6.6438067e-21
-3.4355842e-34
6.6979892e-21
-1.0219913e-20
3.4299872e-21
3.3957634e-21
-3.3244688e-21
3.267498e-21
3.2872269e-21
1.175095e-34
-6.8905025e-21
-2.3969684e-34
-3.437717e-21
-3.3970467e-21
-1.1806787e-34
2.3130679e-34
6.6184478e-21
3.3593314e-21
-3.4144752e-21
4.8885549e-37
3.4250733e-21
0
-3.3564986e-21
-1.1676056e-34
3.4002432e-21
-3.4209726e-21
-3.4011374e-21
6.7119236e-21
3.2520456e-21
-9.6371422e-21
-3.2947607e-21
1.017233e-20
-3.4465936e-21
-3.4509803e-21
-1.9424341e-36
-3.384976e-21
1.0047465e-20
-2.3262271e-34
-6.703187e-21
6.8014339e-21
3.4336715e-21
-3.4170537e-21
3.3792269e-21
-3.3374186e-21
-6.6529302e-21
3.3771737e-21
1.1820845e-34
3.4201351e-21
6.7866037e-21
-3.356863e-21
-3.3405619e-21
-3.3762305e-21
-1.1855835e-34
-1.1793059e-34
1.1761073e-34
6.6611734e-21
3.3051765e-21
-3.3360809e-21
-6.764658e-21
-3.400782e-21
-3.3716969e-21
2.3025305e-34
6.5433149e-21
-9.286054e-37
9.4434302e-37
6.2152175e-51
3.3565492e-21
-2.310386e-34
4.5854144e-34
3.2696054e-21
-3.2864563e-21
3.3131602e-21
1.1489502e-34
-3.2945177e-21
3.2641646e-21
-4.6158242e-37
-3.2560982e-21
0
3.267468e-21
2.2359438e-34
-6.4084376e-21
3.2171085e-21
-9.2033402e-37
-3.2334442e-21
3.210293e-21
-3.1581764e-21
3.1350338e-21
-1.325686e-33
-8.9250697e-34
3.2145756e-21
-6.3677069e-21
0
-2.1335771e-34
-6.4943983e-34
3.1862199e-21
3.2185793e-21
2.20409e-34
-3.1486893e-21
3.1024117e-21
2.1332917e-34
1.3467906e-36
4.4452177e-34
-6.393544e-21
3.1563056e-21
3.1073833e-21
-2.1262234e-34
2.1668245e-34
-6.63902e-34
2.1995919e-34
-3.1477354e-21
0
0
0
0
-3.1641588e-21
6.5086333e-34
3.0807519e-21
3.074572e-21
-3.1033054e-21
-3.1270458e-21
6.2432221e-21
2.1312051e-34
-6.3392446e-34
-3.0675249e-21
-3.1009131e-21
3.0957638e-21
0
3.0163826e-21
2.0822079e-34
-3.0349163e-21
-3.0512666e-21
4.2375053e-34
3.0113516e-21
-5.9885068e-21
3.0000841e-21
3.0000941e-21
-2.9835147e-21
2.9388431e-21
0
0
0
2.9576937e-21
-2.8998297e-21
-5.658973e-21
2.8097617e-21
-1.9992803e-34
2.9212257e-21
2.9182805e-21
-5.7738408e-21
8.0338807e-37
-7.9362261e-37
2.8196933e-21
2.8558834e-21
-5.7377756e-21
4.0504415e-37
-5.8236156e-34
2.7608274e-21
-1.545231e-33
-3.9005311e-34
2.8190192e-21
-2.7880373e-21
0
-2.6617499e-21
2.6977118e-21
2.7696282e-21
-2.7932635e-21
0
-2.7045485e-21
2.6201879e-21
2.5857011e-21
-9.1672337e-34
-5.4102935e-21
-5.4569574e-21
8.0722925e-21
5.2632382e-21
0
-5.1071491e-21
-2.6139768e-21
2.6441103e-21
2.6262724e-21
2.5801397e-21
-4.9664579e-21
-4.9035568e-21
2.5243276e-21
5.1730576e-21
7.2205041e-34
-5.1539688e-21
2.5208889e-21
-3.4496075e-34
-2.506769e-21
5.0898554e-21
-2.5507636e-21
3.5228538e-34
2.4853405e-21
-2.4723249e-21
2.5062107e-21
-5.0759072e-21
1.0502309e-33
4.883317e-21
-4.7939783e-21
-1.6828102e-34
2.5077052e-21
0
0
2.4172019e-21
-2.3385115e-21
-4.701882e-21
2.4489122e-21
-7.18055e-37
2.5450652e-21
2.4853272e-21
-2.3994635e-21
0
-2.2667443e-21
-2.3408714e-21
0
4.9114999e-21
2.4744606e-21
-4.9104693e-21
1.6543538e-34
-6.6003097e-37
2.2452521e-21
2.2250211e-21
-2.2902493e-21
2.3496683e-21
-2.3749454e-21
1.3419176e-36
4.6092288e-21
-2.2333528e-21
-2.1752303e-21
-2.1827087e-21
-3.1220589e-34
2.2788776e-21
0
0
-2.1047842e-21
2.8875568e-34
-5.9519494e-34
-3.0586046e-34
2.2101934e-21
-2.1672108e-21
2.978578e-37
2.0564297e-21
0
0
0
0
0
0
0
-2.0895886e-21
0
2.020568e-21
0
-2.053626e-21
-5.6521577e-34
1.9861404e-21
0
0
-2.0136434e-21
-2.8347265e-34
1.9947317e-21
0
0
-1.8526728e-21
-1.9301141e-21
1.9658419e-21
1.9403329e-21
0
-1.8040879e-21
2.556853e-37
1.8710759e-21
-1.9264356e-21
-1.9399415e-21
1.9066068e-21
1.8474855e-21
0
-1.7598941e-21
-1.7457278e-21
1.7836831e-21
1.8392841e-21
0
-1.8432155e-21
-1.7629435e-21
1.6523064e-21
1.6260313e-21
0
0
0
0
0
0
0
0
-1.7492678e-21
-2.5976335e-50
1.7127375e-21
0
0
0
-1.6246454e-21
-2.3618803e-34
1.7360376e-21
-1.6946913e-21
2.1801232e-34
-2.0139817e-37
-1.9155785e-34
1.4768554e-21
-1.5794782e-21
1.6140996e-21
-8.8914274e-34
-1.5631678e-21
1.5256968e-21
0
0
-1.5176159e-21
-2.04649e-34
1.4024472e-21
-1.3845673e-21
-1.4324924e-21
0
1.4931052e-21
1.4065659e-21
-1.2885278e-21
-3.4955925e-34
-1.4865937e-50
-1.9688722e-34
1.441043e-21
-1.3922801e-21
-1.0564559e-49
-1.6235783e-34
-1.176749e-21
0
0
1.3734983e-21
1.8702422e-37
-4.9808266e-34
1.070018e-21
0
0
-1.2716915e-21
3.5856058e-34
1.2797581e-21
0
0
0
-1.0679961e-21
1.4874648e-37
1.1016288e-21
-1.1818696e-21
1.2015551e-21
-3.1909586e-34
-2.0912181e-21
9.5734069e-22
4.1581618e-34
1.5410471e-34
-1.6331269e-34
-1.1734144e-21
0
0
9.7436592e-22
1.4091146e-34
-3.0286937e-34
2.4692594e-51
-1.0544032e-21
9.6738373e-22
9.6655984e-22
0
-1.0936611e-21
-1.486997e-34
9.6499775e-22
0
0
-1.0146281e-21
3.0909113e-37
1.0757447e-51
-1.053825e-21
9.4421913e-22
-1.1580586e-34
1.1676523e-34
-2.6048741e-34
-1.0257166e-21
1.035595e-21
-2.6686749e-34
2.3879164e-34
-2.2432051e-34
-8.6191967e-22
9.6115954e-22
-2.7291234e-34
1.2454793e-34
0
-7.3263942e-22
8.0342825e-22
-1.250316e-34
1.299612e-37
-1.1656973e-34
9.6649825e-35
5.8575215e-22
-6.4373164e-22
-7.6633305e-22
8.2329785e-22
8.2537128e-22
0
-5.9270502e-22
-4.3471486e-22
0
6.1176606e-22
-9.3664997e-35
9.787891e-38
9.544326e-35
-6.3952585e-22
4.7402235e-22
4.2194062e-35
-9.4742144e-35
-4.8100086e-22
-5.5742632e-22
1.1503324e-21
-7.6368682e-38
6.032877e-35
3.0367982e-22
-2.5934879e-22
4.8083393e-35
4.5536598e-22
0
0
0
-1.6630252e-22
-2.8528922e-22
3.6258121e-22
3.5007341e-22
0
-1.1560817e-22
-8.5129912e-23
1.740839e-22
2.4904851e-22
0
-5.8863705e-23
1.65117e-23
6.647096e-23
4.7872308e-35
-1.7440188e-22
0
0
0
0
4.6309168e-23
-1.8739544e-35
-1.5795753e-23
-1.5843818e-22
-4.8265667e-35
4.4753823e-35
-6.7270348e-51
-1.002549e-22
-8.8117186e-23
3.1507161e-22
4.9690664e-35
-6.4103041e-35
3.6035569e-22
0
-2.1185247e-22
-2.9634176e-22
4.8655124e-22
1.5017167e-34
-4.1637602e-22
0
0
4.1906246e-22
-9.8277573e-35
-7.8137876e-22
0
5.3291682e-22
-6.7901829e-38
1.2406104e-34
6.5515506e-35
-6.933477e-22
9.7119996e-22
-1.3602919e-37
2.1582747e-34
6.385868e-22
-5.9846038e-22
-2.0984143e-34
-1.5481422e-37
1.7039637e-34
1.0999441e-21
-9.3193689e-22
0
4.4821739e-34
1.336787e-34
5.3413529e-34
1.9757714e-37
1.2639456e-21
-1.1291445e-21
-9.5225975e-51
1.479797e-34
-3.0361292e-34
1.71322e-34
-2.9820983e-21
1.7626611e-21
1.7832273e-21
2.2965787e-34
-2.2396657e-34
-3.2702721e-21
1.7018723e-21
1.7812287e-21
4.138066e-51
0
6.5717544e-51
2.2186702e-21
-2.3106563e-21
2.0148172e-51
3.2838792e-34
3.4519661e-37
2.5677426e-21
-5.5042481e-21
-7.9409042e-34
2.8704391e-21
-3.9956694e-34
4.0988569e-34
-3.1336573e-21
3.3964274e-21
-3.9883331e-50
1.5428053e-33
-1.0197309e-33
1.0316538e-33
1.0714816e-33
1.1288783e-50
0
-4.6934038e-21
0
0
5.0394364e-21
1.4464124e-33
-5.4516146e-21
0
0
1.2654075e-20
5.4623716e-33
-1.3530451e-20
6.9990308e-21
-1.0370093e-36
1.0617438e-33
8.0041189e-21
0
0
0
9.2442239e-21
2.6783016e-33
-1.0105378e-20
0
0
1.1389391e-20
-1.6806686e-36
-1.2309021e-20
0
0
1.387075e-20
3.9944032e-33
4.1573878e-33
-4.3254346e-33
-1.6225462e-20
1.6881914e-20
-4.8651907e-33
5.0463622e-33
-5.2353696e-33
-1.96244e-20
0
0
2.2052116e-20
-1.0080511e-48
-2.3683947e-20
0
0
2.657796e-20
-7.8485428e-49
-2.8543125e-20
0
0
3.1746862e-20
-9.3187588e-49
-3.4245134e-20
0
0
3.8018946e-20
-5.5860904e-36
-4.0666541e-20
4.2110416e-20
-1.2124095e-32
1.2567988e-32
-1.3016607e-32
-4.8529833e-20
0
0
0
0
0
5.9199411e-20
-1.7017071e-32
-6.3489593e-20
0
0
0
0
0
0
0
8.2377237e-20
-4.7211993e-32
-8.7737467e-20
0
0
0
0
0
0
0
1.1304189e-19
-3.2365611e-32
-1.2034796e-19
0
0
1.3217152e-19
-3.7860294e-32
-1.4051431e-19
0
0
0
1.590131e-19
4.5539305e-32
-1.6892503e-19
0
0
0
0
0
0
0
2.1478859e-19
-3.142617e-35
-2.27689e-19
0
0
0
0
0
0
0
2.8713546e-19
4.1994543e-35
-3.0410913e-19
0
0
0
3.4011073e-19
-1.941347e-31
-3.5944835e-19
0
3.7967571e-19
1.0837959e-31
-4.0077872e-19
0
0
4.343492e-19
4.45974e-19
-4.5780428e-19
-4.698791e-19
0
0
0
0
-5.3433627e-19
7.7869508e-35
1.1237109e-18
5.760385e-19
-1.1809856e-18
-1.2104016e-18
6.2016266e-19
6.3539503e-19
0
0
0
0
7.157179e-19
2.0353876e-31
-7.498197e-19
0
0
0
0
0
0
0
0
0
0
0
0
0
0
1.0418351e-18
-5.907204e-31
-1.0857678e-18
0
0
-1.1536079e-18
3.2679455e-31
-1.7060053e-34
1.2244129e-18
1.2485676e-18
7.0676114e-31
-3.6049765e-31
-1.322554e-18
0
0
0
0
0
1.478718e-18
-8.3600841e-31
-1.5330804e-18
0
0
0
0
0
0
0
1.7616929e-18
-9.9444865e-31
-1.8217006e-18
0
0
0
0
0
0
0
2.0719203e-18
-1.7524485e-30
-2.1370402e-18
0
0
0
0
0
0
0
0
2.4415486e-18
-3.5192986e-34
-2.5116864e-18
0
0
0
0
2.690645e-18
-2.7269693e-18
-2.7635071e-18
5.6004971e-18
7.8782602e-31
-2.8742572e-18
0
0
0
0
3.0618918e-18
-8.6032615e-31
-6.2759602e-18
3.176272e-18
3.2146862e-18
-3.2531806e-18
0
0
0
3.4081493e-18
9.5623967e-31
-3.4863157e-18
-3.525469e-18
3.5646816e-18
3.6039881e-18
-3.6433986e-18
0
0
3.7619219e-18
3.8014656e-18
-3.8410623e-18
-3.8807243e-18
-3.9204276e-18
-2.1992996e-30
3.9998158e-18
0
0
0
4.1586217e-18
4.1982822e-18
-4.2378793e-18
-4.2774395e-18
-4.3169965e-18
-1.2091081e-30
4.3960567e-18
0
0
0
4.5532061e-18
-1.2745576e-30
-4.6314567e-18
0
0
0
0
0
0
0
4.939806e-18
-1.3815137e-30
-1.0031016e-17
-1.4031507e-30
5.0905985e-18
0
0
5.202167e-18
-7.445058e-34
1.4649304e-30
-1.4742814e-30
-5.3481897e-18
-5.3841932e-18
1.5050285e-30
5.45562e-18
0
0
5.5610863e-18
-4.6599024e-30
-1.5625883e-30
8.0495208e-34
-5.6982806e-18
5.7319894e-18
5.7654572e-18
-1.159729e-17
3.2352799e-30
5.8640898e-18
-5.8963889e-18
0
5.9602713e-18
1.6646544e-30
-6.0229798e-18
0
6.0843255e-18
-6.1145731e-18
6.8231476e-30
6.1742667e-18
-6.2036227e-18
0
6.2612166e-18
0
-6.3175074e-18
0
6.3725682e-18
-6.3995555e-18
3.5651819e-30
6.4524117e-18
-6.4783289e-18
0
6.5291342e-18
1.8199076e-30
-6.5784291e-18
0
6.6262825e-18
-6.6496678e-18
1.8964817e-33
6.6952243e-18
-6.7174117e-18
0
6.7607339e-18
6.781833e-18
-6.8025045e-18
-6.8227449e-18
6.8425893e-18
-6.8620717e-18
-6.8811888e-18
6.8999025e-18
0
0
0
0
0
0
7.0192886e-18
-7.2564656e-49
-1.4099257e-17
7.0642267e-18
7.0784369e-18
-7.0922107e-18
0
0
7.1308064e-18
7.1428795e-18
-7.1545716e-18
-7.1658291e-18
0
7.18692e-18
1.9994298e-30
-7.2062857e-18
0
0
7.2323964e-18
7.2401809e-18
-7.2474995e-18
-7.2543857e-18
0
7.2670084e-18
-2.0194965e-30
-7.2780291e-18
7.2828311e-18
4.0470023e-30
1.0361224e-33
7.2945519e-18
-7.2976672e-18
-7.3004077e-18
0
0
7.3059678e-18
-2.0279504e-30
-7.3074624e-18
0
7.3073097e-18
7.3065742e-18
-7.305414e-18
-7.3038347e-18
0
0
0
0
0
0
7.281281e-18
-2.0194887e-30
-7.271202e-18
0
0
0
0
0
0
7.2235452e-18
4.1290925e-49
-7.2064816e-18
-7.1973725e-18
-1.9938898e-30
7.1780309e-18
0
0
0
0
7.1233279e-18
1.9736599e-30
-7.0989583e-18
7.0862591e-18
7.0732127e-18
-7.0598183e-18
3.911112e-30
5.8559575e-30
5.8419822e-30
-1.9455675e-30
3.8807935e-30
-1.9351398e-30
-6.9568413e-18
0
6.9245614e-18
-5.7516717e-30
9.7928048e-34
6.8738766e-18
-6.8563848e-18
-6.8386062e-18
6.8205465e-18
-1.8878713e-30
5.6461862e-30
3.7558853e-30
3.7423721e-30
-1.8657978e-30
3.7225797e-30
6.6864908e-18
-6.6663019e-18
-6.6458717e-18
6.6252031e-18
-1.8320038e-30
7.3082839e-30
1.8211332e-30
-1.8160629e-30
-1.8081493e-30
-1.8029608e-30
6.474027e-18
0
-6.4289082e-18
1.7779176e-30
4.4672132e-48
-6.3597184e-18
0
6.3126969e-18
-6.2889209e-18
-6.2649677e-18
6.2408411e-18
0
0
0
0
6.1179024e-18
-1.6910057e-30
3.3689078e-30
-6.0424294e-18
-6.0170169e-18
5.9914879e-18
0
0
0
0
5.862174e-18
8.2934776e-34
-5.8097697e-18
0
0
0
0
0
0
0
5.5970517e-18
5.570182e-18
-5.5432639e-18
-5.5163066e-18
0
0
0
0
0
0
5.3267415e-18
5.2995805e-18
-5.2724067e-18
-5.2452251e-18
0
0
0
0
0
0
5.0551207e-18
5.0280214e-18
-5.0009494e-18
-4.973904e-18
0
0
0
0
0
0
4.785562e-18
-2.6421861e-30
-4.7321432e-18
0
0
0
0
0
0
4.5470094e-18
-1.2553418e-30
-4.494703e-18
0
0
0
0
4.3652154e-18
6.1668623e-34
-4.3139526e-18
4.2884474e-18
1.2222481e-48
-4.2377074e-18
4.2124666e-18
-2.3254615e-30
-4.1622198e-18
4.1372253e-18
2.2832378e-30
2.2694672e-30
1.9007822e-47
2.2415085e-30
1.1133753e-30
-3.9892222e-18
3.9648681e-18
3.9406121e-18
-7.8329136e-18
2.1594727e-30
7.7368841e-18
0
-3.8207824e-18
1.054376e-30
1.0483605e-30
3.1217708e-30
3.1028279e-30
2.0545687e-30
-3.0641093e-30
2.0293866e-30
-1.009595e-30
-3.6110304e-18
0
3.5654648e-18
5.0346561e-34
2.9305276e-30
2.9123236e-30
-4.9388882e-34
-1.9167622e-30
9.5271095e-31
3.408872e-18
0
-3.3649518e-18
1.8556847e-30
4.7199514e-34
-3.2997094e-18
0
3.2566539e-18
-3.2352575e-18
-3.2139429e-18
3.1927077e-18
0
0
3.1294874e-18
-3.4514347e-30
1.7130537e-30
-1.7028427e-30
8.4632781e-31
-3.025685e-18
-3.0051618e-18
2.9847209e-18
0
0
0
0
2.8835103e-18
7.9513009e-31
3.1567344e-30
-2.8236279e-18
-2.8038057e-18
2.7840456e-18
0
0
0
0
2.6861555e-18
2.6667607e-18
-2.6474318e-18
-2.6281664e-18
0
0
0
0
0
0
2.4948286e-18
2.4760045e-18
-2.4572289e-18
-2.4385004e-18
0
0
0
0
0
0
2.3088428e-18
-1.9074377e-30
-4.5444607e-18
2.2540019e-18
6.7074804e-18
2.2177004e-18
0
-4.3631537e-18
2.4025188e-30
7.1453262e-30
2.1277348e-18
4.2197764e-18
-4.1841813e-18
2.0743375e-18
2.0566272e-18
-2.0389614e-18
2.0213428e-18
-2.8475347e-34
-1.9862577e-18
-1.9687902e-18
1.9513683e-18
1.9339911e-18
-1.9166602e-18
1.8993779e-18
2.6746915e-34
-1.8649676e-18
0
0
0
-3.5935009e-18
1.7798229e-18
3.5258948e-18
-1.7461238e-18
1.7293525e-18
1.7126353e-18
-3.3919483e-18
-6.3861385e-48
1.6628198e-18
-1.6463247e-18
-3.2597694e-18
-1.6135019e-18
4.7915368e-18
-1.5809167e-18
-8.4112558e-47
4.6457098e-18
-3.0649699e-18
-1.5164609e-18
-1.5005001e-18
-2.9692087e-18
2.9375478e-18
1.4530094e-18
1.4373118e-18
-1.4216809e-18
-1.4061167e-18
4.1718574e-18
-1.375188e-18
-1.3598259e-18
1.3445367e-18
1.3293225e-18
1.8675659e-34
-3.8973455e-18
1.2841203e-18
-2.1131479e-30
2.0891496e-30
3.7187812e-18
-1.2249054e-18
-1.2102932e-18
-2.3915159e-18
1.181305e-18
2.3338799e-18
-2.3053227e-18
1.1384643e-18
-1.124346e-18
-1.1103065e-18
3.2890446e-18
-1.0824781e-18
-1.0687028e-18
2.1100438e-18
1.0414297e-18
-1.0279225e-18
-3.0435028e-18
1.0011665e-18
3.9516879e-18
-5.4107267e-31
-1.9234419e-18
-9.4876692e-19
0
-1.8462756e-18
-2.0212433e-30
2.6936381e-18
-8.8539296e-19
1.9383406e-30
-8.6072235e-19
-8.4853696e-19
1.672897e-18
0
0
0
7.8907847e-19
-4.3167828e-31
-1.5320189e-18
7.5462548e-19
1.4866808e-18
-2.1964651e-18
2.4015006e-30
1.4201925e-18
-6.9922598e-19
0
0
0
-1.3135569e-18
6.4642533e-19
1.2723532e-18
-1.8780961e-18
1.7507539e-34
1.212113e-18
0
0
5.7687914e-19
-3.1500888e-31
-1.1158921e-18
5.4863788e-19
1.0788727e-18
-1.591019e-18
8.6801148e-31
1.0249053e-18
-5.0365951e-19
4.9496931e-19
-9.7277111e-19
-4.7790821e-19
1.5636306e-30
4.6126216e-19
9.0617999e-19
-1.3350534e-18
2.4843177e-34
4.2917483e-19
-2.3391217e-31
4.1373768e-19
4.0616959e-19
-2.2130902e-31
-1.1739864e-18
1.0915478e-34
1.1306336e-18
-7.3960058e-19
-1.6019719e-47
7.1187308e-19
-3.4914616e-19
3.4244788e-19
-6.7168858e-19
-3.2933779e-19
7.1708846e-31
3.1660997e-19
6.207654e-19
3.0424208e-19
2.9818872e-19
-8.7668282e-19
0
2.8058533e-19
1.5258914e-31
-1.4947895e-31
1.4637644e-31
-2.5833378e-19
2.8084899e-31
-2.4772012e-19
8.0778112e-31
7.1234958e-19
-4.6487072e-19
-6.8249237e-19
-2.2263751e-19
6.5357911e-19
4.2632973e-19
-6.2565076e-19
2.0401285e-19
5.9864793e-19
0
0
-1.8659459e-19
-1.8242897e-19
0
1.7431792e-19
1.7036584e-19
-3.3295824e-19
3.611554e-31
4.7673967e-19
-1.7233697e-31
-1.5162979e-19
-1.4808779e-19
-1.4460751e-19
1.4118711e-19
1.3782961e-19
-1.3453821e-19
-3.9393595e-19
1.2814839e-19
5.0017841e-19
-1.2199691e-19
-2.3800787e-19
-1.1606848e-19
0
1.1037669e-19
0
1.049118e-19
-1.0225763e-19
2.2126335e-31
-9.7104578e-20
3.1508915e-31
2.7649471e-19
-8.9771739e-20
-8.7425701e-20
8.5125499e-20
8.2873224e-20
-8.0670534e-20
-2.355502e-19
7.6410271e-20
2.9739318e-19
-1.2046278e-31
-7.0348781e-20
-1.3682666e-19
-6.6522003e-20
1.2934757e-19
3.4895624e-32
8.6824978e-36
-5.9367721e-20
1.2806175e-31
5.6027386e-20
-1.6324941e-19
5.8662769e-32
1.0260165e-19
0
0
4.6885984e-20
-2.5249159e-32
-8.8248586e-20
4.2791908e-20
8.297538e-20
4.021307e-20
-4.3252752e-32
-1.1328655e-19
-3.6585284e-20
3.5438602e-20
-6.8637713e-20
1.8885622e-35
1.0710027e-31
3.1114598e-20
6.0205726e-20
-8.7357189e-20
3.1272106e-32
5.4458497e-20
0
0
-4.9129586e-20
5.267528e-32
2.5426182e-32
6.2851397e-36
6.4027437e-20
4.1194017e-20
-3.3082876e-32
-5.7444503e-20
-1.8458354e-20
1.7788839e-20
-3.4274698e-20
-1.831555e-32
5.2900469e-32
1.5286896e-20
2.9416141e-20
-4.2444395e-20
1.3603912e-20
1.3072477e-20
-1.2554938e-20
1.2053725e-20
-2.3139771e-20
1.2326838e-32
1.0652989e-20
1.4513993e-36
1.9567433e-20
-1.8734021e-20
1.4926583e-32
1.7158061e-20
-8.2080207e-21
0
7.4960728e-21
3.9691669e-33
-2.0462201e-20
6.5022158e-21
1.2395087e-20
5.9053249e-21
5.6211215e-21
-5.3425007e-21
-5.0715651e-21
-4.8109509e-21
4.5619024e-21
-2.4007116e-33
2.2740764e-33
-3.8759943e-21
4.0621196e-33
-3.4470661e-21
1.080747e-32
9.1599825e-21
-5.7448382e-21
-6.5792115e-50
2.5290643e-21
2.6214811e-33
-1.2214668e-33
-6.138029e-21
1.9012149e-21
5.2971982e-21
0
0
-1.3810142e-21
-1.2598351e-21
-2.2909498e-21
1.039766e-21
1.8847887e-21
-1.6967524e-21
7.5391737e-22
1.9819111e-21
-5.7155293e-22
-4.8853096e-22
-4.1344498e-22
-3.46152e-22
5.6381658e-22
2.1668654e-22
-1.5141377e-22
-2.6639698e-22
3.0902567e-23
2.4445095e-49
-1.0796279e-34
-2.1287958e-22
2.9579245e-22
3.7905059e-22
-2.2949721e-22
-5.3255898e-22
5.9556272e-22
3.2357193e-22
-1.0401474e-21
-1.110279e-21
3.9340004e-22
8.3149958e-22
4.3577444e-22
-2.5017302e-34
-9.212054e-22
-4.6921325e-22
4.7816784e-22
9.7514875e-22
-7.0730738e-38
-1.0108031e-21
1.0132302e-21
-8.3607681e-34
-9.9365051e-22
4.9327612e-22
9.8451293e-22
9.8792672e-22
0
-4.8883023e-22
-1.4267218e-21
-4.5978646e-22
4.4561759e-22
0
0
0
0
-3.9193261e-22
2.0746457e-34
1.062509e-21
-3.3511986e-22
-9.4996076e-22
-2.9858463e-22
4.6721462e-34
5.2408474e-22
2.4296577e-22
-2.2307252e-22
4.0350268e-22
1.7883825e-22
-5.1686119e-34
-1.3231174e-22
-2.230541e-22
2.7643479e-22
-2.0446027e-38
-4.8764509e-23
3.166577e-39
4.7708408e-24
2.8714873e-23
-5.3597771e-35
-1.9778105e-22
2.4289472e-38
3.2640449e-22
2.7198565e-22
-9.108597e-35
-3.7613662e-22
-2.0634141e-22
2.2258373e-22
-4.8118003e-22
-2.6174119e-22
9.5290923e-34
3.1164407e-22
6.6678289e-22
-1.0502507e-21
4.0521036e-34
3.8123854e-22
4.0012526e-22
4.212797e-22
2.4538295e-34
-2.5460532e-34
-9.4147396e-22
-2.6754862e-34
9.9107827e-22
-1.0242352e-21
2.6515505e-33
1.6412404e-21
-1.1146682e-21
6.2529158e-34
1.1388807e-21
-5.7860277e-22
-5.9119449e-22
-1.2116641e-21
6.178358e-22
1.8687924e-21
0
0
0
-1.9023611e-21
-1.9285202e-21
1.9492727e-21
1.9516797e-21
-1.2923832e-21
1.8237189e-37
-6.3941196e-22
2.1318347e-33
1.9270005e-21
-1.9287437e-21
3.1869716e-33
1.25626e-21
3.432454e-34
-3.3939431e-34
-1.2142495e-21
6.0541202e-22
-6.0184961e-22
1.9684809e-33
1.7218736e-21
-1.6711089e-21
-5.4348313e-22
1.1839498e-33
-1.0510969e-21
1.0370144e-21
5.0771406e-22
4.9038734e-22
1.4079731e-21
-4.985703e-34
-4.310164e-22
-1.2445511e-21
2.6625058e-33
1.1527628e-21
0
-3.5019312e-22
-6.5940896e-22
3.0685217e-22
-2.8339737e-22
8.6826751e-34
4.7835285e-22
-6.5708343e-22
4.4385489e-34
1.9974038e-34
1.7425498e-34
1.4665203e-34
-1.0699819e-22
2.482299e-22
1.7873709e-22
-3.6681691e-23
-2.6124045e-23
0
-3.5343059e-23
6.5564029e-35
-1.8178558e-34
1.1714874e-34
1.3077708e-22
-1.5684669e-22
-1.8263395e-22
6.1968991e-22
-1.0660875e-49
-4.1542896e-34
2.7283518e-22
-3.3080922e-34
6.4883516e-22
-6.9922963e-22
-7.419167e-22
-3.8872405e-22
4.5200893e-34
4.282387e-22
0
0
0
1.045457e-21
-5.4040439e-22
-1.1167123e-21
1.7328236e-21
-5.9769888e-22
-1.8490713e-21
1.8978781e-21
-2.1556444e-33
-1.3211007e-21
2.0223924e-21
1.382515e-21
0
-1.4692361e-21
-2.4920406e-33
-7.5500324e-22
-1.5236074e-21
7.652172e-22
0
1.5821624e-21
2.3126047e-37
9.2234942e-34
-8.4030313e-22
-2.5371573e-21
2.5507083e-21
-1.4252492e-33
-2.5746586e-21
2.577273e-21
-4.3203279e-33
-1.7513722e-21
8.8963804e-22
-8.9736017e-22
1.791668e-21
8.93119e-22
-3.9219427e-33
-8.735679e-22
-1.7579863e-21
-8.9320128e-22
-9.0336568e-22
1.8095381e-21
8.995801e-22
0
-8.7095853e-22
4.7977015e-34
-1.8092467e-52
8.8526739e-22
-2.5252463e-37
8.8153266e-22
2.6825715e-50
-2.5609772e-21
2.5072415e-21
2.4972224e-21
-1.6772175e-21
-1.6905954e-21
0
1.6702604e-21
-8.2191004e-22
-2.4167553e-21
2.3652147e-21
-1.298644e-33
-1.5594923e-21
7.8107679e-22
0
-7.7179634e-22
-7.5770072e-22
7.4371167e-22
-1.2116944e-33
1.4259821e-21
4.0180734e-37
-2.1165375e-21
0
2.0913544e-21
1.3671905e-21
-2.0069775e-21
-1.3080702e-21
1.9229944e-21
6.3430798e-22
-2.5258022e-21
-6.2849501e-22
1.243015e-21
1.2188647e-21
-6.6185563e-34
-5.8353059e-22
-5.7251748e-22
-5.6552979e-22
5.617104e-22
-6.1975925e-34
1.1042179e-21
-1.8049576e-33
-1.5932323e-21
0
0
1.0173861e-21
-1.1223632e-33
-5.0045339e-22
1.4767651e-21
-4.8290024e-22
-7.9151725e-34
-1.5696391e-33
-1.4116067e-21
4.6800135e-22
-2.5611504e-34
5.0241161e-34
4.4354151e-22
-4.3871632e-22
6.2458362e-38
-2.4600581e-34
4.9261404e-34
4.3850541e-22
0
-4.2028409e-22
8.3271029e-22
4.1872684e-22
-8.5005616e-22
0
4.2964899e-22
-4.2237479e-22
-8.2891101e-22
1.2290244e-21
-1.3652094e-33
-1.3837928e-33
4.2278854e-22
-1.2830329e-21
6.0668166e-38
4.2127486e-22
4.1638695e-22
-4.1439731e-22
-4.1637255e-22
4.2297604e-22
0
-4.3561407e-22
8.7048818e-22
-7.1837378e-34
-4.2861966e-22
-9.5130789e-34
-9.5788454e-34
-1.2460417e-37
-8.9191952e-22
1.3504298e-21
1.3491674e-21
0
-8.9249244e-22
-1.3423817e-21
-6.4170073e-38
4.5797109e-22
4.6377866e-22
-4.660653e-22
-4.6476751e-22
4.6351451e-22
0
9.3168535e-22
9.420503e-22
-1.4322521e-21
-4.8075732e-22
4.7953003e-22
-1.3557571e-37
-4.7547586e-22
-9.5233011e-22
-4.8000655e-22
8.091882e-34
1.9587285e-21
-1.6296572e-33
-1.4586019e-21
4.8323994e-22
4.8219594e-22
4.8404632e-22
-4.8866116e-22
-4.9210542e-22
-4.9211074e-22
-1.3908809e-37
4.8627373e-22
-4.8461746e-22
1.4549122e-21
9.7240661e-22
-1.4584217e-21
4.8344803e-22
9.5864493e-22
-9.5319294e-22
4.7685501e-22
-4.798955e-22
-9.5948267e-22
1.4220111e-21
-4.6573623e-22
1.523948e-33
1.3613844e-21
-9.1282409e-22
-4.6169012e-22
-4.6431203e-22
-9.2034482e-22
4.4998457e-22
2.7168922e-77
8.6531459e-22
4.2894684e-22
-4.7729135e-34
-4.3212664e-22
-8.6391223e-22
8.5668778e-22
-4.2157164e-22
-1.2394975e-21
1.2167974e-21
3.9916115e-22
-8.2958205e-51
3.9183802e-22
-1.1723069e-21
-3.8924485e-22
3.8441296e-22
7.508697e-22
-3.6569624e-22
3.5764613e-22
-1.1731598e-33
-6.9965859e-22
1.045932e-21
3.84358e-34
-1.5086791e-33
7.3237278e-34
-6.4066685e-22
6.2581032e-22
-3.0816197e-22
-1.2242179e-21
3.0417621e-22
5.992716e-22
0
5.6438534e-22
-6.0812282e-34
-1.5231099e-37
-2.9309227e-34
-2.6078352e-22
-2.5620142e-22
2.4949608e-22
2.4218876e-22
-4.7149994e-22
4.6153963e-22
-2.5185279e-34
-4.4417457e-22
4.3077623e-22
6.915222e-34
-2.2287387e-34
-1.9615082e-22
-3.8665987e-22
1.9066675e-22
-1.8567338e-22
9.852414e-35
1.68843e-22
3.2516003e-22
-1.5948345e-22
-3.1673651e-22
1.5690358e-22
-1.5275643e-22
2.4219652e-34
-1.3727293e-22
-2.9156236e-34
2.5677454e-22
2.5468123e-22
2.8005562e-34
-4.0957857e-34
3.9076831e-34
-1.1081239e-22
-1.0597796e-22
-1.0388497e-22
1.0349793e-22
0
0
-9.6368731e-23
5.0085549e-35
1.2152269e-38
9.3408894e-35
8.5409328e-23
0
-8.776904e-23
-1.7066082e-22
7.98782e-23
1.4905337e-22
1.4511298e-22
1.487351e-22
-2.3409735e-22
-2.7007917e-34
2.4580536e-22
-1.6010557e-22
-1.536282e-22
0
-7.6222404e-23
1.5891134e-22
8.3152052e-23
-1.7149473e-22
-8.6517938e-23
9.5746013e-35
2.6111046e-22
-9.0000622e-23
-2.833734e-22
2.9746828e-22
1.0280311e-22
-3.147014e-22
1.1823118e-34
1.0945803e-22
2.2868333e-22
1.3353686e-34
-2.5221323e-22
2.6093162e-22
-1.3339409e-22
-4.1089865e-22
0
1.5068196e-22
3.18756e-22
-9.2787889e-35
1.7211742e-22
3.4962297e-22
-3.5690512e-22
-3.7032579e-22
0
-2.0574971e-22
-2.3983383e-34
-2.4856796e-34
-2.5465742e-34
7.0522512e-22
4.8546362e-22
0
-5.2466564e-22
-6.0405612e-34
-2.8057555e-22
-8.6674458e-22
2.9820769e-22
-1.7114511e-34
4.535564e-38
3.2892053e-22
6.7333808e-22
-3.4427363e-22
-7.0667078e-22
3.6408968e-22
0
7.7761613e-22
-3.9850983e-22
-1.2164047e-21
4.1278089e-22
4.21727e-22
8.6508996e-22
-4.4592545e-22
-1.3763288e-21
4.6815741e-22
-5.2669677e-34
-9.6251021e-22
4.8926287e-22
4.9910104e-22
1.0243954e-21
1.5755186e-21
-1.0687639e-21
-1.0798144e-21
1.0909842e-21
6.1238353e-34
-1.1187371e-21
1.1414159e-21
6.4718732e-34
-1.1832201e-21
0
1.1986428e-21
1.2057618e-21
0
-1.8504684e-21
-6.2850685e-22
-1.8098463e-37
-6.3915194e-22
-6.3997929e-22
-7.1071603e-34
1.2827192e-21
1.294234e-21
-2.1860487e-33
-1.32624e-21
1.3270571e-21
2.2038471e-33
-1.3164738e-21
0
0
0
0
1.333969e-21
7.3249513e-34
-1.2975751e-21
-6.4003352e-22
1.2849017e-21
-2.1659868e-33
-1.3109733e-21
1.3047709e-21
7.1273581e-34
-6.3084922e-22
1.2332197e-21
-2.015494e-33
-1.2092483e-21
1.2151402e-21
1.2148826e-21
-1.2038967e-21
-1.1823288e-21
0
0
0
0
-5.3086105e-22
5.2608232e-22
5.2088512e-22
-5.6675711e-34
6.7662107e-77
-4.7583957e-22
-9.1562111e-22
-4.4246643e-22
8.6668297e-22
1.2796867e-21
-4.1749021e-22
-8.0579794e-22
1.1497857e-21
7.2676384e-22
-1.0345022e-21
-6.5865374e-22
-3.1798127e-22
-3.4104544e-34
5.8851261e-22
0
-2.5794043e-22
2.3795528e-22
-4.8687416e-34
-5.7583857e-38
-6.2631612e-34
-1.7429617e-22
-1.5958926e-22
4.0537162e-38
2.4688466e-22
2.0715263e-22
-2.8360582e-34
-1.3892878e-22
0
0
0
-8.3831446e-24
1.1073621e-23
-2.9694556e-23
-4.5205611e-23
5.7845626e-23
-1.4029985e-22
-2.516609e-22
0
2.3489144e-22
1.489282e-34
1.4787661e-22
4.7699116e-22
-1.698621e-22
3.0290372e-34
-3.9141157e-22
1.4011024e-33
4.4612133e-22
1.2929543e-34
3.43277e-38
-2.5076139e-22
2.6177388e-22
-5.4818148e-22
-2.8484019e-22
5.8368234e-22
-5.9246385e-22
-8.5546589e-38
3.4147145e-34
3.16578e-22
9.8221935e-22
-6.7207554e-22
1.6391476e-52
-3.3820022e-22
5.6258134e-34
6.7946097e-22
-3.4407359e-22
-6.9997058e-22
3.943159e-34
1.0714727e-21
-1.0104029e-37
-3.5297095e-22
3.5121879e-22
-7.0126474e-22
-3.5026508e-22
6.9665683e-22
-6.8915065e-22
-3.7773021e-34
1.8677603e-33
-7.4036277e-34
6.6107673e-22
-6.5113336e-22
3.1780641e-22
6.1792955e-22
-3.0088202e-22
2.9434826e-22
-5.7905654e-22
4.742834e-34
8.3047551e-22
0
0
-7.21552e-22
-2.3055047e-22
4.4494005e-22
-4.3084477e-22
-1.1771069e-37
8.680965e-34
2.0139364e-34
3.3381899e-22
-3.0623026e-22
-2.8108041e-22
1.2904223e-22
3.5497247e-22
1.0799206e-22
-9.6539208e-23
0
0
5.1073797e-23
-2.0001183e-35
-6.8532325e-23
-3.3698389e-39
2.8832827e-24
-1.1062933e-23
2.9280531e-35
1.2899138e-22
1.3117729e-34
-1.4611812e-22
0
-9.3738245e-23
2.1057447e-22
1.1948656e-22
-3.0012257e-34
-1.508029e-22
-3.2865683e-22
1.7476995e-22
0
0
0
0
-2.3516961e-22
1.360278e-34
7.5828835e-22
-2.6079764e-22
-8.1354026e-22
8.5252029e-22
2.9872844e-22
-6.211473e-22
-3.1693186e-22
-5.3176923e-34
9.6604999e-22
-1.8645315e-37
-1.1297797e-33
-3.539431e-22
-7.3502513e-22
-3.7602533e-22
-4.1949916e-34
3.7738166e-22
3.7800191e-22
3.8074277e-22
3.8752673e-22
-8.8294292e-34
-8.1435772e-22
0
0
-4.1725426e-22
-6.9214737e-34
-5.8911349e-38
5.8855118e-38
4.1655581e-22
8.443551e-22
8.5666601e-22
-8.630646e-22
-4.7764805e-34
-4.2557292e-22
-1.2626245e-21
0
0
4.1997018e-22
4.2403444e-22
0
-4.1932071e-22
2.2912082e-34
4.0588926e-22
-4.0090365e-22
7.9982088e-22
-1.3374063e-33
-1.2071143e-21
3.9871619e-22
3.9010816e-22
7.6214326e-22
-3.7300749e-22
-1.1038291e-21
3.6774398e-22
-2.0471227e-34
7.3505705e-22
3.6130845e-22
-7.0069725e-22
6.7847625e-22
7.688752e-51
-6.4777709e-22
0
0
6.3561978e-22
-3.4710744e-34
-1.0191172e-33
1.2504435e-50
-8.6945008e-22
-3.1306171e-34
2.7406198e-22
5.3240812e-22
5.1789597e-22
-5.0667409e-22
-5.5398822e-34
-2.4613299e-22
-8.0517527e-34
2.3458434e-22
-4.488913e-22
0
-2.0542426e-22
2.2145824e-34
1.9579608e-22
3.8518919e-22
2.0923093e-34
-3.6579467e-22
0
0
-1.6042078e-22
8.4695721e-35
4.3714726e-22
1.5619966e-34
-2.7502208e-22
0
1.3148561e-22
-1.2563799e-22
-1.1701009e-22
-1.0783284e-22
-1.0100799e-22
1.9495839e-22
2.8805158e-22
-9.4567114e-23
-1.8311239e-22
2.5876642e-22
2.9512091e-51
-1.443775e-22
0
0
0
0
1.1483538e-22
1.0823412e-22
-4.9782635e-23
-1.3399071e-22
-4.4361746e-35
3.6755043e-23
-7.0408691e-23
-6.8969912e-23
3.3445326e-23
1.2382661e-22
5.3299998e-23
-6.5974351e-23
-3.8274036e-23
5.5649347e-23
4.2262873e-35
-3.8260176e-23
0
0
0
1.6166407e-23
9.479826e-36
-2.1757713e-35
1.0313744e-23
-2.6153361e-23
5.1313545e-24
2.0676454e-24
-4.7549686e-24
-6.7063073e-24
5.6382032e-24
1.329171e-23
1.0179144e-23
-5.1982399e-36
-1.0526104e-36
1.1360152e-40
-4.9918311e-24
0
-7.2865641e-24
-5.7305026e-24
1.5373465e-24
-1.8239458e-24
1.4354292e-24
-2.2753181e-24
1.3827748e-23
1.0162252e-23
-1.0727428e-23
8.4847022e-24
-5.2610285e-24
-7.6410349e-24
0
0
2.9620097e-23
1.1348168e-23
-2.4087334e-23
-1.292016e-23
-1.4415822e-23
3.2129837e-23
-1.8850916e-35
-3.2241767e-23
0
1.3576715e-23
4.9008845e-23
4.689333e-35
-1.4279112e-34
5.6843524e-23
-8.3730819e-23
-2.457995e-23
-6.2376048e-39