/*--------------------------------*- C++ -*----------------------------------*\
  =========                 |
  \\      /  F ield         | OpenFOAM: The Open Source CFD Toolbox
   \\    /   O peration     | Website:  https://openfoam.org
    \\  /    A nd           | Version:  7
     \\/     M anipulation  |
\*---------------------------------------------------------------------------*/
FoamFile
{
    version     2.0;
    format      ascii;
    class       volScalarField;
    location    "0.00156";
    object      rho;
}
// * * * * * * * * * * * * * * * * * * * * * * * * * * * * * * * * * * * * * //

dimensions      [1 -3 0 0 0 0 0];

internalField   nonuniform List<scalar> 
5000
(
1.1034647
1.1034604
1.103451
1.103448
1.1034434
1.1034415
1.1034395
1.1034397
1.1034402
1.1034427
1.1034456
1.1034505
1.1034558
1.1034631
1.1034708
1.1034805
1.1034905
1.1035027
1.103515
1.1035295
1.1035441
1.1035609
1.1035778
1.1035969
1.1036161
1.1036374
1.1036589
1.1036824
1.103706
1.1037316
1.1037573
1.103785
1.1038128
1.1038426
1.1038724
1.1039043
1.1039361
1.1039699
1.1040037
1.1040395
1.1040753
1.104113
1.1041507
1.1041903
1.1042299
1.1042713
1.1043127
1.1043559
1.104399
1.104444
1.104489
1.1045354
1.1045824
1.1046302
1.104679
1.1047284
1.1047788
1.1048296
1.1048816
1.104934
1.1049874
1.1050413
1.1050962
1.1051514
1.1052077
1.1052643
1.1053219
1.1053798
1.1054387
1.1054979
1.105558
1.1056184
1.1056797
1.1057412
1.1058037
1.1058663
1.1059299
1.1059936
1.1060582
1.1061229
1.1061885
1.1062541
1.1063207
1.1063873
1.1064547
1.1065222
1.1065904
1.1066587
1.1067278
1.1067969
1.1068668
1.1069366
1.1070072
1.1070777
1.107149
1.1072202
1.1072922
1.107364
1.1074365
1.107509
1.1075821
1.107655
1.1077287
1.1078022
1.1078764
1.1079504
1.108025
1.1080994
1.1081745
1.1082494
1.1083249
1.1084001
1.108476
1.1085517
1.1086279
1.1087039
1.1087804
1.1088568
1.1089336
1.1090103
1.1090874
1.1091643
1.1092418
1.109319
1.1093966
1.1094741
1.109552
1.1096296
1.1097077
1.1097856
1.1098639
1.1099419
1.1100205
1.1100987
1.1101773
1.1102557
1.1103345
1.110413
1.110492
1.1105707
1.1106498
1.1107286
1.1108078
1.1108867
1.110966
1.111045
1.1111245
1.1112036
1.1112831
1.1113623
1.111442
1.1115213
1.111601
1.1116804
1.1117602
1.1118396
1.1119195
1.1119991
1.112079
1.1121586
1.1122386
1.1123183
1.1123984
1.1124781
1.1125582
1.1126379
1.1127181
1.1127979
1.1128781
1.1129579
1.1130382
1.113118
1.1131983
1.1132782
1.1133584
1.1134383
1.1135187
1.1135986
1.1136789
1.1137588
1.1138392
1.1139192
1.1139996
1.1140796
1.11416
1.11424
1.1143205
1.1144006
1.1144811
1.1145612
1.1146418
1.114722
1.1148027
1.1148829
1.1149636
1.115044
1.1151248
1.1152052
1.115286
1.1153665
1.1154475
1.115528
1.1156091
1.1156897
1.1157708
1.1158516
1.1159328
1.1160137
1.116095
1.1161759
1.1162574
1.1163384
1.11642
1.1165011
1.1165828
1.1166641
1.1167459
1.1168272
1.1169092
1.1169907
1.1170727
1.1171543
1.1172365
1.1173183
1.1174006
1.1174825
1.1175649
1.117647
1.1177295
1.1178118
1.1178944
1.1179768
1.1180596
1.1181422
1.1182251
1.1183079
1.1183909
1.1184739
1.118557
1.1186402
1.1187235
1.1188069
1.1188903
1.1189738
1.1190574
1.1191411
1.1192249
1.1193088
1.1193927
1.1194768
1.1195609
1.1196451
1.1197294
1.1198138
1.1198983
1.1199829
1.1200675
1.1201523
1.1202371
1.120322
1.120407
1.1204921
1.1205773
1.1206626
1.120748
1.1208335
1.120919
1.1210047
1.1210904
1.1211763
1.1212622
1.1213482
1.1214343
1.1215206
1.1216069
1.1216933
1.1217798
1.1218664
1.1219531
1.1220398
1.1221267
1.1222137
1.1223008
1.1223879
1.1224752
1.1225625
1.12265
1.1227375
1.1228251
1.1229129
1.1230007
1.1230886
1.1231766
1.1232647
1.1233529
1.1234412
1.1235295
1.123618
1.1237066
1.1237952
1.1238839
1.1239727
1.1240616
1.1241506
1.1242397
1.1243289
1.1244181
1.1245075
1.1245969
1.1246864
1.1247759
1.1248656
1.1249553
1.1250451
1.125135
1.125225
1.125315
1.1254051
1.1254953
1.1255855
1.1256758
1.1257662
1.1258566
1.1259471
1.1260376
1.1261282
1.1262189
1.1263096
1.1264004
1.1264912
1.1265821
1.1266731
1.126764
1.1268551
1.1269462
1.1270373
1.1271284
1.1272196
1.1273109
1.1274022
1.1274935
1.1275849
1.1276763
1.1277677
1.1278592
1.1279507
1.1280422
1.1281338
1.1282254
1.128317
1.1284087
1.1285004
1.1285921
1.1286839
1.1287757
1.1288675
1.1289593
1.1290512
1.1291431
1.129235
1.1293269
1.1294189
1.1295109
1.1296029
1.1296949
1.129787
1.1298791
1.1299712
1.1300633
1.1301554
1.1302476
1.1303398
1.1304319
1.1305242
1.1306164
1.1307086
1.1308009
1.1308931
1.1309854
1.1310777
1.1311699
1.1312622
1.1313545
1.1314469
1.1315392
1.1316315
1.1317238
1.1318161
1.1319085
1.1320008
1.1320931
1.1321855
1.1322778
1.1323701
1.1324625
1.1325548
1.1326471
1.1327394
1.1328318
1.1329241
1.1330164
1.1331087
1.133201
1.1332933
1.1333856
1.1334779
1.1335702
1.1336625
1.1337548
1.1338471
1.1339394
1.1340317
1.134124
1.1342162
1.1343085
1.1344008
1.1344931
1.1345854
1.1346776
1.1347699
1.1348622
1.1349544
1.1350467
1.135139
1.1352312
1.1353235
1.1354158
1.135508
1.1356003
1.1356926
1.1357848
1.1358771
1.1359693
1.1360616
1.1361539
1.1362461
1.1363384
1.1364306
1.1365229
1.1366151
1.1367073
1.1367996
1.1368918
1.136984
1.1370762
1.1371685
1.1372607
1.1373529
1.1374451
1.1375373
1.1376294
1.1377216
1.1378138
1.1379059
1.1379981
1.1380902
1.1381824
1.1382745
1.1383666
1.1384587
1.1385508
1.1386429
1.138735
1.1388271
1.1389192
1.1390113
1.1391033
1.1391954
1.1392874
1.1393795
1.1394715
1.1395635
1.1396555
1.1397476
1.1398396
1.1399316
1.1400236
1.1401156
1.1402076
1.1402996
1.1403916
1.1404836
1.1405755
1.1406675
1.1407595
1.1408515
1.1409434
1.1410354
1.1411274
1.1412193
1.1413113
1.1414033
1.1414952
1.1415872
1.1416791
1.1417711
1.141863
1.141955
1.1420469
1.1421388
1.1422308
1.1423227
1.1424146
1.1425065
1.1425984
1.1426904
1.1427822
1.1428741
1.142966
1.1430579
1.1431498
1.1432417
1.1433335
1.1434254
1.1435172
1.143609
1.1437009
1.1437927
1.1438845
1.1439763
1.1440681
1.1441598
1.1442516
1.1443434
1.1444351
1.1445268
1.1446186
1.1447103
1.144802
1.1448937
1.1449854
1.145077
1.1451687
1.1452604
1.145352
1.1454437
1.1455353
1.1456269
1.1457185
1.1458101
1.1459017
1.1459933
1.1460849
1.1461765
1.146268
1.1463596
1.1464512
1.1465427
1.1466343
1.1467258
1.1468173
1.1469089
1.1470004
1.1470919
1.1471835
1.147275
1.1473665
1.147458
1.1475495
1.147641
1.1477326
1.1478241
1.1479156
1.1480071
1.1480986
1.1481901
1.1482816
1.1483731
1.1484646
1.148556
1.1486475
1.148739
1.1488305
1.148922
1.1490134
1.1491049
1.1491964
1.1492878
1.1493793
1.1494708
1.1495622
1.1496536
1.1497451
1.1498365
1.1499279
1.1500193
1.1501108
1.1502022
1.1502936
1.150385
1.1504763
1.1505677
1.1506591
1.1507504
1.1508418
1.1509331
1.1510245
1.1511158
1.1512071
1.1512985
1.1513898
1.1514811
1.1515724
1.1516637
1.151755
1.1518462
1.1519375
1.1520288
1.1521201
1.1522113
1.1523026
1.1523938
1.1524851
1.1525763
1.1526675
1.1527588
1.15285
1.1529412
1.1530324
1.1531237
1.1532149
1.1533061
1.1533973
1.1534885
1.1535797
1.1536709
1.1537621
1.1538533
1.1539445
1.1540357
1.1541268
1.154218
1.1543092
1.1544004
1.1544916
1.1545827
1.1546739
1.1547651
1.1548562
1.1549474
1.1550385
1.1551297
1.1552208
1.155312
1.1554031
1.1554942
1.1555854
1.1556765
1.1557676
1.1558587
1.1559498
1.1560409
1.156132
1.1562231
1.1563142
1.1564053
1.1564964
1.1565874
1.1566785
1.1567696
1.1568606
1.1569517
1.1570427
1.1571337
1.1572248
1.1573158
1.1574068
1.1574978
1.1575888
1.1576798
1.1577708
1.1578618
1.1579528
1.1580438
1.1581348
1.1582258
1.1583167
1.1584077
1.1584987
1.1585896
1.1586806
1.1587715
1.1588625
1.1589535
1.1590444
1.1591353
1.1592263
1.1593172
1.1594081
1.1594991
1.15959
1.1596809
1.1597719
1.1598628
1.1599537
1.1600446
1.1601355
1.1602264
1.1603173
1.1604082
1.1604991
1.16059
1.1606809
1.1607718
1.1608627
1.1609536
1.1610445
1.1611353
1.1612262
1.1613171
1.1614079
1.1614988
1.1615896
1.1616805
1.1617713
1.1618621
1.1619529
1.1620438
1.1621346
1.1622254
1.1623162
1.162407
1.1624978
1.1625885
1.1626793
1.1627701
1.1628608
1.1629516
1.1630423
1.163133
1.1632238
1.1633145
1.1634052
1.1634959
1.1635866
1.1636773
1.1637679
1.1638586
1.1639493
1.1640399
1.1641306
1.1642212
1.1643118
1.1644025
1.1644931
1.1645837
1.1646743
1.1647649
1.1648555
1.1649461
1.1650367
1.1651273
1.1652179
1.1653084
1.165399
1.1654896
1.1655801
1.1656707
1.1657612
1.1658518
1.1659423
1.1660329
1.1661234
1.1662139
1.1663045
1.166395
1.1664855
1.166576
1.1666666
1.1667571
1.1668476
1.1669381
1.1670286
1.1671191
1.1672096
1.1673001
1.1673906
1.1674811
1.1675716
1.1676621
1.1677526
1.1678431
1.1679335
1.168024
1.1681145
1.168205
1.1682954
1.1683859
1.1684764
1.1685668
1.1686573
1.1687477
1.1688382
1.1689286
1.1690191
1.1691095
1.1691999
1.1692903
1.1693808
1.1694712
1.1695616
1.169652
1.1697424
1.1698328
1.1699232
1.1700136
1.170104
1.1701944
1.1702848
1.1703751
1.1704655
1.1705559
1.1706462
1.1707366
1.170827
1.1709173
1.1710077
1.171098
1.1711884
1.1712787
1.171369
1.1714594
1.1715497
1.17164
1.1717304
1.1718207
1.171911
1.1720013
1.1720916
1.172182
1.1722722
1.1723626
1.1724529
1.1725432
1.1726335
1.1727238
1.1728141
1.1729044
1.1729947
1.1730849
1.1731752
1.1732655
1.1733558
1.1734461
1.1735364
1.1736267
1.1737169
1.1738072
1.1738975
1.1739877
1.174078
1.1741682
1.1742585
1.1743488
1.174439
1.1745293
1.1746195
1.1747097
1.1748
1.1748902
1.1749804
1.1750706
1.1751609
1.1752511
1.1753413
1.1754315
1.1755217
1.1756118
1.175702
1.1757922
1.1758824
1.1759725
1.1760627
1.1761528
1.176243
1.1763331
1.1764232
1.1765133
1.1766035
1.1766936
1.1767837
1.1768737
1.1769638
1.1770539
1.1771439
1.177234
1.1773241
1.1774141
1.1775041
1.1775942
1.1776842
1.1777742
1.1778642
1.1779542
1.1780442
1.1781341
1.178224
1.178314
1.1784039
1.1784939
1.1785838
1.1786737
1.1787636
1.1788535
1.1789434
1.1790332
1.1791231
1.1792129
1.1793028
1.1793926
1.1794824
1.1795723
1.179662
1.1797519
1.1798416
1.1799314
1.1800212
1.180111
1.1802008
1.1802905
1.1803803
1.18047
1.1805597
1.1806495
1.1807392
1.1808289
1.1809186
1.1810083
1.181098
1.1811877
1.1812774
1.1813671
1.1814567
1.1815464
1.1816361
1.1817257
1.1818154
1.181905
1.1819947
1.1820843
1.1821739
1.1822636
1.1823532
1.1824428
1.1825325
1.1826221
1.1827117
1.1828013
1.1828909
1.1829805
1.1830701
1.1831597
1.1832493
1.1833389
1.1834285
1.1835181
1.1836077
1.1836973
1.1837869
1.1838764
1.183966
1.1840556
1.1841452
1.1842348
1.1843243
1.1844139
1.1845034
1.184593
1.1846825
1.1847721
1.1848616
1.1849512
1.1850407
1.1851302
1.1852198
1.1853093
1.1853988
1.1854883
1.1855778
1.1856674
1.1857569
1.1858464
1.1859359
1.1860254
1.1861148
1.1862043
1.1862938
1.1863833
1.1864727
1.1865622
1.1866516
1.1867411
1.1868305
1.18692
1.1870094
1.1870988
1.1871882
1.1872776
1.187367
1.1874564
1.1875458
1.1876352
1.1877245
1.1878139
1.1879032
1.1879926
1.1880819
1.1881712
1.1882605
1.1883499
1.1884392
1.1885285
1.1886177
1.188707
1.1887963
1.1888855
1.1889748
1.189064
1.1891533
1.1892425
1.1893317
1.1894209
1.1895101
1.1895993
1.1896884
1.1897776
1.1898667
1.1899559
1.190045
1.1901341
1.1902233
1.1903124
1.1904015
1.1904905
1.1905796
1.1906687
1.1907577
1.1908468
1.1909358
1.1910248
1.1911139
1.1912029
1.1912919
1.1913808
1.1914698
1.1915588
1.1916477
1.1917367
1.1918256
1.1919145
1.1920034
1.1920923
1.1921812
1.1922701
1.192359
1.1924478
1.1925367
1.1926255
1.1927144
1.1928032
1.192892
1.1929808
1.1930696
1.1931583
1.1932471
1.1933359
1.1934246
1.1935134
1.1936021
1.1936908
1.1937795
1.1938682
1.1939569
1.1940456
1.1941343
1.1942229
1.1943116
1.1944002
1.1944889
1.1945775
1.1946662
1.1947548
1.1948434
1.194932
1.1950205
1.1951091
1.1951977
1.1952863
1.1953748
1.1954634
1.1955519
1.1956405
1.195729
1.1958175
1.195906
1.1959946
1.1960831
1.1961716
1.19626
1.1963485
1.196437
1.1965255
1.196614
1.1967024
1.1967909
1.1968794
1.1969678
1.1970562
1.1971447
1.1972331
1.1973216
1.19741
1.1974984
1.1975869
1.1976753
1.1977637
1.1978521
1.1979405
1.1980289
1.1981173
1.1982057
1.1982941
1.1983825
1.1984709
1.1985592
1.1986476
1.198736
1.1988244
1.1989128
1.1990011
1.1990895
1.1991778
1.1992662
1.1993546
1.1994429
1.1995313
1.1996196
1.199708
1.1997963
1.1998846
1.1999729
1.2000613
1.2001496
1.2002379
1.2003263
1.2004146
1.2005029
1.2005912
1.2006795
1.2007678
1.2008561
1.2009444
1.2010327
1.2011209
1.2012092
1.2012975
1.2013857
1.201474
1.2015622
1.2016505
1.2017387
1.201827
1.2019152
1.2020034
1.2020916
1.2021798
1.2022681
1.2023562
1.2024444
1.2025326
1.2026208
1.202709
1.2027971
1.2028853
1.2029735
1.2030616
1.2031497
1.2032379
1.203326
1.2034141
1.2035022
1.2035903
1.2036784
1.2037664
1.2038545
1.2039426
1.2040306
1.2041187
1.2042067
1.2042947
1.2043828
1.2044708
1.2045588
1.2046468
1.2047347
1.2048227
1.2049107
1.2049986
1.2050866
1.2051745
1.2052624
1.2053504
1.2054382
1.2055262
1.2056141
1.2057019
1.2057898
1.2058777
1.2059655
1.2060534
1.2061412
1.206229
1.2063168
1.2064046
1.2064924
1.2065802
1.206668
1.2067558
1.2068435
1.2069313
1.207019
1.2071068
1.2071945
1.2072822
1.2073699
1.2074576
1.2075453
1.2076329
1.2077206
1.2078083
1.2078959
1.2079836
1.2080712
1.2081588
1.2082465
1.2083341
1.2084217
1.2085093
1.2085968
1.2086844
1.208772
1.2088596
1.2089471
1.2090347
1.2091222
1.2092098
1.2092973
1.2093848
1.2094723
1.2095598
1.2096473
1.2097348
1.2098223
1.2099098
1.2099972
1.2100847
1.2101722
1.2102597
1.2103471
1.2104346
1.210522
1.2106094
1.2106969
1.2107843
1.2108717
1.2109591
1.2110465
1.2111339
1.2112213
1.2113087
1.2113961
1.2114835
1.2115709
1.2116583
1.2117456
1.2118331
1.2119204
1.2120078
1.2120951
1.2121825
1.2122698
1.2123572
1.2124445
1.2125319
1.2126192
1.2127065
1.2127939
1.2128812
1.2129685
1.2130558
1.2131431
1.2132305
1.2133177
1.2134051
1.2134923
1.2135797
1.2136669
1.2137543
1.2138415
1.2139288
1.2140161
1.2141034
1.2141907
1.2142779
1.2143652
1.2144524
1.2145397
1.214627
1.2147142
1.2148015
1.2148887
1.2149759
1.2150632
1.2151503
1.2152376
1.2153248
1.215412
1.2154992
1.2155864
1.2156736
1.2157608
1.215848
1.2159351
1.2160223
1.2161095
1.2161967
1.2162838
1.2163709
1.2164581
1.2165452
1.2166324
1.2167195
1.2168066
1.2168937
1.2169808
1.2170679
1.217155
1.2172421
1.2173292
1.2174163
1.2175033
1.2175904
1.2176774
1.2177644
1.2178515
1.2179385
1.2180255
1.2181125
1.2181995
1.2182865
1.2183735
1.2184604
1.2185474
1.2186344
1.2187213
1.2188082
1.2188952
1.2189821
1.219069
1.2191559
1.2192428
1.2193297
1.2194165
1.2195034
1.2195902
1.2196771
1.2197639
1.2198507
1.2199375
1.2200243
1.2201111
1.2201979
1.2202847
1.2203714
1.2204582
1.2205449
1.2206316
1.2207184
1.2208051
1.2208918
1.2209784
1.2210651
1.2211518
1.2212384
1.221325
1.2214117
1.2214983
1.2215849
1.2216715
1.2217581
1.2218446
1.2219312
1.2220177
1.2221043
1.2221908
1.2222773
1.2223638
1.2224503
1.2225368
1.2226232
1.2227097
1.2227962
1.2228826
1.222969
1.2230554
1.2231418
1.2232282
1.2233146
1.223401
1.2234873
1.2235737
1.22366
1.2237464
1.2238327
1.223919
1.2240053
1.2240916
1.2241779
1.2242642
1.2243504
1.2244367
1.2245229
1.2246092
1.2246954
1.2247816
1.2248678
1.224954
1.2250402
1.2251264
1.2252126
1.2252988
1.225385
1.2254711
1.2255573
1.2256434
1.2257296
1.2258157
1.2259018
1.2259879
1.2260741
1.2261602
1.2262463
1.2263324
1.2264185
1.2265046
1.2265906
1.2266767
1.2267628
1.2268489
1.2269349
1.227021
1.227107
1.2271931
1.2272791
1.2273652
1.2274512
1.2275373
1.2276233
1.2277093
1.2277954
1.2278814
1.2279674
1.2280534
1.2281394
1.2282255
1.2283115
1.2283975
1.2284835
1.2285695
1.2286555
1.2287415
1.2288275
1.2289135
1.2289995
1.2290855
1.2291715
1.2292574
1.2293434
1.2294294
1.2295154
1.2296014
1.2296873
1.2297733
1.2298593
1.2299453
1.2300312
1.2301172
1.2302032
1.2302891
1.2303751
1.230461
1.230547
1.2306329
1.2307189
1.2308048
1.2308908
1.2309767
1.2310627
1.2311486
1.2312345
1.2313205
1.2314064
1.2314923
1.2315782
1.2316641
1.23175
1.231836
1.2319219
1.2320078
1.2320937
1.2321795
1.2322654
1.2323513
1.2324372
1.2325231
1.232609
1.2326948
1.2327807
1.2328665
1.2329524
1.2330382
1.2331241
1.2332099
1.2332958
1.2333816
1.2334674
1.2335532
1.233639
1.2337248
1.2338106
1.2338964
1.2339822
1.234068
1.2341538
1.2342396
1.2343253
1.2344111
1.2344968
1.2345826
1.2346683
1.2347541
1.2348398
1.2349255
1.2350112
1.2350969
1.2351826
1.2352683
1.235354
1.2354397
1.2355254
1.235611
1.2356967
1.2357823
1.235868
1.2359536
1.2360392
1.2361249
1.2362105
1.2362961
1.2363817
1.2364673
1.2365529
1.2366384
1.236724
1.2368096
1.2368951
1.2369807
1.2370662
1.2371517
1.2372373
1.2373228
1.2374083
1.2374938
1.2375793
1.2376648
1.2377502
1.2378357
1.2379211
1.2380066
1.238092
1.2381775
1.2382629
1.2383483
1.2384337
1.2385191
1.2386045
1.2386898
1.2387752
1.2388606
1.2389459
1.2390313
1.2391166
1.2392019
1.2392872
1.2393725
1.2394578
1.2395431
1.2396284
1.2397136
1.2397989
1.2398842
1.2399694
1.2400546
1.2401399
1.2402251
1.2403103
1.2403955
1.2404807
1.2405659
1.240651
1.2407362
1.2408213
1.2409065
1.2409916
1.2410767
1.2411618
1.241247
1.241332
1.2414171
1.2415022
1.2415873
1.2416723
1.2417574
1.2418424
1.2419274
1.2420124
1.2420974
1.2421824
1.2422674
1.2423524
1.2424374
1.2425223
1.2426073
1.2426922
1.2427772
1.2428621
1.242947
1.2430319
1.2431168
1.2432017
1.2432865
1.2433714
1.2434563
1.2435411
1.2436259
1.2437108
1.2437956
1.2438804
1.2439651
1.2440499
1.2441347
1.2442194
1.2443042
1.2443889
1.2444736
1.2445583
1.244643
1.2447277
1.2448124
1.2448971
1.2449818
1.2450664
1.245151
1.2452357
1.2453203
1.2454049
1.2454894
1.245574
1.2456585
1.2457431
1.2458276
1.2459121
1.2459966
1.2460811
1.2461656
1.2462501
1.2463346
1.2464191
1.2465036
1.246588
1.2466725
1.2467569
1.2468414
1.2469258
1.2470103
1.2470948
1.2471793
1.2472638
1.2473483
1.2474328
1.2475173
1.2476019
1.2476863
1.2477707
1.247855
1.2479393
1.2480236
1.248108
1.2481923
1.2482767
1.2483611
1.2484454
1.2485298
1.2486141
1.2486985
1.2487829
1.2488672
1.2489516
1.249036
1.2491203
1.2492046
1.249289
1.2493733
1.2494576
1.2495419
1.2496262
1.2497104
1.2497947
1.2498789
1.2499632
1.2500474
1.2501317
1.2502159
1.2503001
1.2503843
1.2504684
1.2505526
1.2506368
1.2507209
1.250805
1.2508892
1.2509733
1.2510574
1.2511415
1.2512256
1.2513096
1.2513937
1.2514777
1.2515618
1.2516458
1.2517299
1.2518139
1.2518979
1.2519819
1.2520659
1.2521498
1.2522338
1.2523178
1.2524017
1.2524857
1.2525696
1.2526535
1.2527374
1.2528213
1.2529052
1.2529891
1.253073
1.2531569
1.2532407
1.2533246
1.2534084
1.2534923
1.2535761
1.2536599
1.2537437
1.2538275
1.2539113
1.2539951
1.2540789
1.2541626
1.2542464
1.2543301
1.2544139
1.2544976
1.2545813
1.2546651
1.2547488
1.2548325
1.2549162
1.2549998
1.2550835
1.2551672
1.2552508
1.2553345
1.2554181
1.2555017
1.2555853
1.255669
1.2557526
1.2558362
1.2559197
1.2560033
1.2560869
1.2561705
1.256254
1.2563376
1.2564211
1.2565047
1.2565882
1.2566717
1.2567552
1.2568387
1.2569222
1.2570057
1.2570891
1.2571726
1.2572561
1.2573395
1.257423
1.2575064
1.2575898
1.2576732
1.2577566
1.25784
1.2579234
1.2580068
1.2580902
1.2581735
1.2582569
1.2583403
1.2584236
1.2585069
1.2585903
1.2586736
1.2587569
1.2588402
1.2589235
1.2590068
1.25909
1.2591733
1.2592566
1.2593398
1.2594231
1.2595063
1.2595895
1.2596728
1.259756
1.2598392
1.2599224
1.2600055
1.2600887
1.2601719
1.2602551
1.2603382
1.2604214
1.2605045
1.2605876
1.2606708
1.2607539
1.260837
1.2609201
1.2610032
1.2610863
1.2611693
1.2612524
1.2613355
1.2614185
1.2615016
1.2615846
1.2616676
1.2617506
1.2618337
1.2619167
1.2619997
1.2620826
1.2621656
1.2622486
1.2623316
1.2624145
1.2624974
1.2625804
1.2626633
1.2627462
1.2628292
1.2629121
1.262995
1.2630779
1.2631608
1.2632437
1.2633265
1.2634094
1.2634923
1.2635751
1.2636579
1.2637408
1.2638236
1.2639064
1.2639892
1.264072
1.2641548
1.2642376
1.2643204
1.2644032
1.2644859
1.2645687
1.2646515
1.2647342
1.264817
1.2648997
1.2649824
1.2650651
1.2651479
1.2652306
1.2653133
1.2653959
1.2654786
1.2655613
1.265644
1.2657266
1.2658093
1.2658919
1.2659745
1.2660572
1.2661398
1.2662224
1.266305
1.2663877
1.2664703
1.2665529
1.2666354
1.266718
1.2668006
1.2668831
1.2669657
1.2670483
1.2671308
1.2672133
1.2672959
1.2673784
1.2674609
1.2675435
1.267626
1.2677085
1.267791
1.2678735
1.2679559
1.2680384
1.2681209
1.2682034
1.2682858
1.2683683
1.2684507
1.2685332
1.2686156
1.268698
1.2687804
1.2688628
1.2689453
1.2690277
1.2691101
1.2691924
1.2692748
1.2693572
1.2694396
1.2695219
1.2696043
1.2696867
1.269769
1.2698514
1.2699337
1.270016
1.2700984
1.2701807
1.270263
1.2703453
1.2704276
1.2705099
1.2705922
1.2706745
1.2707568
1.2708391
1.2709214
1.2710036
1.2710859
1.2711681
1.2712504
1.2713326
1.2714149
1.2714971
1.2715793
1.2716616
1.2717438
1.271826
1.2719082
1.2719904
1.2720726
1.2721548
1.272237
1.2723192
1.2724014
1.2724836
1.2725657
1.2726479
1.27273
1.2728122
1.2728943
1.2729765
1.2730586
1.2731408
1.2732229
1.273305
1.2733871
1.2734693
1.2735514
1.2736335
1.2737156
1.2737976
1.2738797
1.2739618
1.2740439
1.274126
1.2742081
1.2742901
1.2743722
1.2744542
1.2745363
1.2746183
1.2747004
1.2747824
1.2748645
1.2749465
1.2750285
1.2751105
1.2751925
1.2752746
1.2753566
1.2754386
1.2755206
1.2756025
1.2756845
1.2757665
1.2758485
1.2759304
1.2760124
1.2760944
1.2761763
1.2762583
1.2763402
1.2764222
1.2765041
1.276586
1.276668
1.2767499
1.2768318
1.2769137
1.2769957
1.2770776
1.2771595
1.2772414
1.2773233
1.2774051
1.277487
1.2775689
1.2776508
1.2777327
1.2778145
1.2778964
1.2779782
1.2780601
1.2781419
1.2782237
1.2783056
1.2783874
1.2784692
1.278551
1.2786329
1.2787147
1.2787965
1.2788783
1.2789601
1.2790419
1.2791237
1.2792055
1.2792872
1.279369
1.2794508
1.2795325
1.2796143
1.279696
1.2797778
1.2798595
1.2799412
1.280023
1.2801047
1.2801864
1.2802681
1.2803498
1.2804315
1.2805132
1.2805949
1.2806766
1.2807583
1.28084
1.2809217
1.2810033
1.281085
1.2811667
1.2812483
1.28133
1.2814116
1.2814932
1.2815749
1.2816565
1.2817381
1.2818197
1.2819013
1.2819829
1.2820645
1.2821461
1.2822277
1.2823092
1.2823908
1.2824724
1.2825539
1.2826355
1.282717
1.2827986
1.2828801
1.2829616
1.2830431
1.2831247
1.2832062
1.2832877
1.2833692
1.2834507
1.2835321
1.2836136
1.2836951
1.2837766
1.283858
1.2839395
1.2840209
1.2841023
1.2841838
1.2842652
1.2843466
1.284428
1.2845094
1.2845908
1.2846722
1.2847536
1.284835
1.2849164
1.2849977
1.2850791
1.2851604
1.2852418
1.2853231
1.2854044
1.2854858
1.2855671
1.2856484
1.2857297
1.285811
1.2858923
1.2859735
1.2860548
1.2861361
1.2862173
1.2862986
1.2863798
1.2864611
1.2865423
1.2866235
1.2867047
1.2867859
1.2868671
1.2869483
1.2870295
1.2871107
1.2871918
1.287273
1.2873541
1.2874352
1.2875164
1.2875975
1.2876786
1.2877597
1.2878408
1.2879219
1.2880029
1.288084
1.2881651
1.2882461
1.2883272
1.2884082
1.2884892
1.2885702
1.2886512
1.2887322
1.2888132
1.2888941
1.2889751
1.289056
1.2891369
1.2892178
1.2892987
1.2893796
1.2894605
1.2895414
1.2896222
1.2897031
1.2897839
1.2898647
1.2899455
1.2900263
1.2901071
1.2901878
1.2902686
1.2903493
1.29043
1.2905107
1.2905914
1.290672
1.2907527
1.2908333
1.2909139
1.2909945
1.291075
1.2911555
1.2912361
1.2913166
1.291397
1.2914775
1.2915579
1.2916383
1.2917187
1.2917991
1.2918794
1.2919597
1.29204
1.2921202
1.2922005
1.2922806
1.2923608
1.2924409
1.292521
1.2926011
1.2926811
1.2927611
1.292841
1.2929209
1.2930008
1.2930807
1.2931605
1.2932402
1.2933199
1.2933996
1.2934792
1.2935588
1.2936383
1.2937178
1.2937972
1.2938766
1.2939559
1.2940352
1.2941144
1.2941936
1.2942727
1.2943517
1.2944307
1.2945096
1.2945884
1.2946672
1.2947459
1.2948245
1.294903
1.2949815
1.2950599
1.2951382
1.2952164
1.2952946
1.2953727
1.2954506
1.2955285
1.2956063
1.295684
1.2957616
1.2958391
1.2959165
1.2959937
1.2960709
1.296148
1.2962249
1.2963018
1.2963785
1.296455
1.2965315
1.2966078
1.296684
1.2967601
1.296836
1.2969118
1.2969874
1.2970629
1.2971383
1.2972135
1.2972885
1.2973634
1.2974381
1.2975127
1.297587
1.2976612
1.2977352
1.2978091
1.2978827
1.2979562
1.2980295
1.2981025
1.2981754
1.2982481
1.2983206
1.2983928
1.2984648
1.2985366
1.2986082
1.2986796
1.2987507
1.2988216
1.2988922
1.2989626
1.2990328
1.2991027
1.2991723
1.2992417
1.2993108
1.2993797
1.2994483
1.2995166
1.2995846
1.2996523
1.2997197
1.2997869
1.2998537
1.2999202
1.2999865
1.3000524
1.300118
1.3001833
1.3002482
1.3003128
1.3003771
1.300441
1.3005047
1.3005679
1.3006308
1.3006934
1.3007556
1.3008174
1.3008789
1.30094
1.3010007
1.3010611
1.301121
1.3011806
1.3012398
1.3012986
1.301357
1.301415
1.3014726
1.3015298
1.3015866
1.301643
1.3016989
1.3017545
1.3018096
1.3018643
1.3019185
1.3019724
1.3020257
1.3020787
1.3021312
1.3021833
1.3022349
1.3022861
1.3023368
1.3023871
1.3024369
1.3024863
1.3025352
1.3025836
1.3026316
1.3026791
1.3027262
1.3027728
1.3028189
1.3028646
1.3029097
1.3029544
1.3029987
1.3030425
1.3030857
1.3031286
1.3031709
1.3032128
1.3032541
1.303295
1.3033355
1.3033754
1.3034149
1.3034539
1.3034924
1.3035304
1.303568
1.303605
1.3036416
1.3036778
1.3037134
1.3037486
1.3037833
1.3038175
1.3038513
1.3038846
1.3039174
1.3039498
1.3039816
1.3040131
1.304044
1.3040745
1.3041045
1.3041341
1.3041632
1.3041918
1.30422
1.3042478
1.3042751
1.3043019
1.3043283
1.3043543
1.3043798
1.3044049
1.3044295
1.3044538
1.3044776
1.3045009
1.3045239
1.3045464
1.3045685
1.3045903
1.3046116
1.3046325
1.3046529
1.304673
1.3046927
1.304712
1.3047309
1.3047494
1.3047675
1.3047853
1.3048026
1.3048196
1.3048363
1.3048525
1.3048684
1.3048839
1.3048991
1.304914
1.3049284
1.3049426
1.3049563
1.3049698
1.3049829
1.3049957
1.3050082
1.3050203
1.3050321
1.3050436
1.3050548
1.3050658
1.3050764
1.3050867
1.3050967
1.3051064
1.3051158
1.3051249
1.3051338
1.3051424
1.3051507
1.3051588
1.3051665
1.3051741
1.3051813
1.3051884
1.3051951
1.3052017
1.3052079
1.305214
1.3052198
1.3052254
1.3052307
1.3052359
1.3052408
1.3052454
1.3052499
1.3052542
1.3052582
1.3052621
1.3052657
1.3052692
1.3052724
1.3052755
1.3052784
1.3052811
1.3052836
1.3052859
1.3052881
1.3052901
1.3052919
1.3052936
1.3052951
1.3052965
1.3052977
1.3052987
1.3052996
1.3053003
1.3053009
1.3053014
1.3053017
1.3053018
1.3053018
1.3053017
1.3053015
1.3053011
1.3053006
1.3053
1.3052992
1.3052984
1.3052974
1.3052963
1.3052951
1.3052938
1.3052923
1.3052908
1.3052891
1.3052873
1.3052855
1.3052835
1.3052814
1.3052793
1.305277
1.3052746
1.3052722
1.3052696
1.305267
1.3052643
1.3052614
1.3052585
1.3052555
1.3052524
1.3052493
1.305246
1.3052427
1.3052393
1.3052358
1.3052322
1.3052286
1.3052249
1.305221
1.3052172
1.3052132
1.3052092
1.3052051
1.305201
1.3051967
1.3051924
1.305188
1.3051835
1.3051789
1.3051742
1.3051694
1.3051646
1.3051597
1.3051548
1.3051498
1.3051448
1.3051396
1.3051344
1.3051291
1.3051237
1.3051183
1.3051128
1.3051072
1.3051016
1.3050959
1.3050901
1.3050842
1.3050783
1.3050723
1.3050663
1.3050601
1.305054
1.3050477
1.3050414
1.3050351
1.3050286
1.3050222
1.3050157
1.3050091
1.3050025
1.3049958
1.3049891
1.3049823
1.3049755
1.3049687
1.3049618
1.3049549
1.3049478
1.3049407
1.3049336
1.3049264
1.3049191
1.3049119
1.3049046
1.3048972
1.3048898
1.3048822
1.3048746
1.3048667
1.3048588
1.3048507
1.3048425
1.3048343
1.3048259
1.3048174
1.3048088
1.3047998
1.3047905
1.304781
1.3047712
1.3047612
1.3047509
1.3047404
1.3047298
1.3047189
1.3047079
1.3046966
1.3046852
1.3046737
1.3046619
1.3046501
1.3046381
1.304626
1.3046137
1.3046014
1.3045888
1.3045762
1.3045633
1.3045505
1.3045377
1.3045249
1.3045117
1.3044978
1.3044862
1.3044754
1.3044615
1.3044449
1.304429
1.3044177
1.304413
1.3044012
1.3043824
1.3043612
1.3043375
1.3043095
1.304273
1.3042182
1.3041162
1.3038832
1.3032778
1.3016139
1.2976598
1.2927707
1.2875937
1.282276
1.2769682
1.2718089
1.2669166
1.2623815
1.2582636
1.2545982
1.2513979
1.2486532
1.2463365
1.2444099
1.242832
1.2415601
1.2405498
1.2397562
1.2391379
1.2386602
1.2382956
1.2380218
1.2378195
1.2376712
1.2375615
1.2374783
1.2374129
1.23736
1.2373162
1.2372796
1.2372478
1.2372193
1.2371991
1.2371818
1.2371627
1.2371428
1.2371224
1.2371015
1.2370801
1.2370581
1.2370357
1.2370127
1.2369893
1.2369654
1.2369411
1.2369163
1.2368911
1.2368655
1.2368395
1.2368131
1.2367863
1.2367591
1.2367316
1.2367038
1.2366756
1.2366471
1.2366183
1.2365892
1.2365598
1.2365302
1.2365004
1.2364703
1.2364399
1.2364092
1.2363783
1.2363471
1.2363155
1.2362837
1.2362514
1.2362188
1.2361859
1.2361525
1.2361187
1.2360845
1.2360499
1.2360149
1.2359794
1.2359435
1.2359071
1.2358703
1.2358331
1.2357954
1.2357573
1.2357187
1.2356797
1.2356403
1.2356005
1.2355602
1.2355195
1.2354785
1.235437
1.2353951
1.2353528
1.2353102
1.2352671
1.2352237
1.2351798
1.2351356
1.235091
1.235046
1.2350007
1.2349549
1.2349088
1.2348623
1.2348154
1.2347682
1.2347206
1.2346726
1.2346242
1.2345755
1.2345265
1.234477
1.2344272
1.2343771
1.2343266
1.2342757
1.2342245
1.2341729
1.234121
1.2340687
1.2340161
1.2339631
1.2339098
1.2338562
1.2338022
1.2337479
1.2336932
1.2336382
1.2335829
1.2335272
1.2334712
1.2334149
1.2333583
1.2333013
1.2332441
1.2331865
1.2331286
1.2330705
1.233012
1.2329532
1.2328941
1.2328347
1.232775
1.232715
1.2326547
1.2325941
1.2325332
1.2324721
1.2324107
1.232349
1.232287
1.2322247
1.2321622
1.2320994
1.2320363
1.231973
1.2319094
1.2318456
1.2317815
1.2317172
1.2316526
1.2315878
1.2315227
1.2314574
1.2313919
1.2313261
1.2312601
1.2311939
1.2311274
1.2310607
1.2309939
1.2309267
1.2308594
1.2307919
1.2307242
1.2306562
1.2305881
1.2305197
1.2304512
1.2303825
1.2303135
1.2302444
1.2301751
1.2301057
1.230036
1.2299662
1.2298962
1.229826
1.2297556
1.2296851
1.2296145
1.2295436
1.2294727
1.2294015
1.2293302
1.2292588
1.2291872
1.2291154
1.2290436
1.2289715
1.2288994
1.2288271
1.2287547
1.2286821
1.2286094
1.2285366
1.2284637
1.2283906
1.2283174
1.2282441
1.2281707
1.2280972
1.2280235
1.2279498
1.2278759
1.227802
1.2277279
1.2276537
1.2275795
1.2275051
1.2274307
1.2273561
1.2272815
1.2272067
1.2271319
1.227057
1.226982
1.226907
1.2268318
1.2267566
1.2266813
1.2266059
1.2265304
1.2264549
1.2263793
1.2263036
1.2262278
1.226152
1.2260761
1.2260001
1.2259241
1.225848
1.2257719
1.2256957
1.2256194
1.2255431
1.2254667
1.2253903
1.2253138
1.2252373
1.2251607
1.225084
1.2250073
1.2249306
1.2248538
1.2247769
1.2247
1.2246231
1.2245461
1.2244691
1.2243921
1.2243149
1.2242378
1.2241606
1.2240834
1.2240061
1.2239288
1.2238514
1.2237741
1.2236966
1.2236192
1.2235417
1.2234642
1.2233866
1.223309
1.2232314
1.2231537
1.2230761
1.2229984
1.2229206
1.2228428
1.222765
1.2226872
1.2226093
1.2225314
1.2224535
1.2223756
1.2222976
1.2222196
1.2221416
1.2220635
1.2219855