-1.25 	300 	0.1108576839666557 	101370.2413526233
-1.247497497497497 	300.0328013293971 	0.1101015515414179 	101369.9523418533
-1.244994994994995 	300.0374916027975 	0.1092810543119099 	101369.6508881724
-1.242492492492492 	300.037500020424 	0.1087069934240453 	101369.3413413324
-1.23998998998999 	300.0372356429268 	0.107828704261025 	101369.0238210022
-1.237487487487487 	300.0369581399436 	0.1070576639693513 	101368.6981756896
-1.234984984984985 	300.036675921412 	0.1062445844939771 	101368.3644654462
-1.232482482482482 	300.0363869238631 	0.1054043717605905 	101368.0227185751
-1.22997997997998 	300.0360911866184 	0.1045487882626352 	101367.6730015047
-1.227477477477477 	300.0357887565641 	0.1036730738250114 	101367.3153706497
-1.224974974974975 	300.0354797459831 	0.1027772082956791 	101366.9499630215
-1.222472472472472 	300.035164213905 	0.1018630649052734 	101366.5768370933
-1.21996996996997 	300.0348422874342 	0.1009315019907556 	101366.1961495916
-1.217467467467467 	300.0345139762827 	0.09998161390721909 	101365.8079228974
-1.214964964964965 	300.0341793603703 	0.09901056289443454 	101365.412240492
-1.212462462462462 	300.033838464502 	0.09802207046742237 	101365.0091260587
-1.20995995995996 	300.0334912688684 	0.09701620052118282 	101364.5985639832
-1.207457457457457 	300.033137878106 	0.09599304253452698 	101364.1806794828
-1.204954954954955 	300.0327782513308 	0.09495324444290895 	101363.7554204966
-1.202452452452452 	300.032412615119 	0.0938935050586558 	101363.3230571938
-1.19994994994995 	300.032041036822 	0.09281614753025964 	101362.8836713758
-1.197447447447447 	300.0316636155225 	0.09172242286773152 	101362.4373795009
-1.194944944944945 	300.0312804863242 	0.09061326419164514 	101361.9843389653
-1.192442442442442 	300.0308915044823 	0.08948807806033351 	101361.5243748903
-1.18993993993994 	300.0304968927862 	0.08834390122398968 	101361.0577535185
-1.187437437437437 	300.0300966960733 	0.08718349442986173 	101360.5845304966
-1.184934934934935 	300.0296908311295 	0.08600765399873558 	101360.1046054188
-1.182432432432432 	300.0292795293918 	0.08481651552447277 	101359.6182527246
-1.17992992992993 	300.0288627389257 	0.08361005726713124 	101359.1254136021
-1.177427427427427 	300.0284405701061 	0.08238689180500869 	101358.6262199784
-1.174924924924925 	300.0280133365701 	0.08114868644396533 	101358.1210376239
-1.172422422422422 	300.0275808756683 	0.07989575433407123 	101357.6096716631
-1.16991991991992 	300.0271432868649 	0.0786284823119327 	101357.0922441651
-1.167417417417417 	300.0267009311922 	0.07734732202723839 	101356.5691861881
-1.164914914914915 	300.0262535356438 	0.07605115986267393 	101356.0401754021
-1.162412412412412 	300.0258010884519 	0.07474060822690824 	101355.5051935778
-1.15990990990991 	300.0253441624628 	0.07341680512784149 	101354.9649122753
-1.157407407407407 	300.0248825454648 	0.07207971915529961 	101354.4190794798
-1.154904904904904 	300.0244159302896 	0.07072865080979207 	101353.8673371745
-1.152402402402403 	300.0239451315703 	0.06936493116796436 	101353.3106548771
-1.1498998998999 	300.0234702882754 	0.06798895340050734 	101352.7491981887
-1.147397397397397 	300.0229904970134 	0.06659907912960861 	101352.1818970781
-1.144894894894895 	300.0225063800668 	0.06519711930641406 	101351.609483203
-1.142392392392392 	300.0220189571977 	0.06378449507803594 	101351.0331565088
-1.13988988988989 	300.0215272012094 	0.06235969322593773 	101350.4517010595
-1.137387387387387 	300.0210304921753 	0.06092177019944267 	101349.8643867204
-1.134884884884885 	300.0205304631709 	0.05947339177669571 	101349.2731480721
-1.132382382382382 	300.0200276728174 	0.05801635098875496 	101348.678646442
-1.12987987987988 	300.0195204107778 	0.05654663947432167 	101348.0788602176
-1.127377377377377 	300.0190084171741 	0.05506479584479816 	101347.4734856852
-1.124874874874875 	300.0184936966551 	0.05357462773491669 	101346.8648928952
-1.122372372372372 	300.017976877315 	0.0520761753950115 	101346.2538228633
-1.11986986986987 	300.0174563729056 	0.05056779661813526 	101345.6383992878
-1.117367367367367 	300.0169313480816 	0.04904686905838268 	101345.0176340125
-1.114864864864865 	300.0164028660056 	0.0475172659064195 	101344.3927858039
-1.112362362362362 	300.0158720238255 	0.04598063080490537 	101343.7651506245
-1.10985985985986 	300.0153390243959 	0.04443519295489106 	101343.1349682956
-1.107357357357357 	300.0148037334487 	0.04288391542072147 	101342.5020793673
-1.104854854854855 	300.0142655449378 	0.041324257931231 	101341.8657656666
-1.102352352352353 	300.0137233353413 	0.03975433593114396 	101341.2247005266
-1.09984984984985 	300.0131768487486 	0.0381729801633193 	101340.5785818087
-1.097347347347347 	300.0126281200527 	0.03658295383371311 	101339.929817047
-1.094844844844845 	300.0120799908374 	0.03499463381621383 	101339.2817653473
-1.092342342342342 	300.011532686807 	0.03340791827184872 	101338.634690144
-1.08983983983984 	300.0109829501981 	0.03181485580275101 	101337.984739484
-1.087337337337337 	300.0104271361857 	0.03020532374434615 	101337.3276053791
-1.084834834834835 	300.0098649288053 	0.02857709476196839 	101336.6629172438
-1.082332332332332 	300.0092999729576 	0.02694228032401768 	101335.9949851795
-1.07982982982983 	300.0087368749109 	0.02531186819219851 	101335.3292541234
-1.077327327327327 	300.0081774860261 	0.02369041595529782 	101334.6679115039
-1.074824824824825 	300.007619832791 	0.02207408959060445 	101334.0086217648
-1.072322322322323 	300.0070601080121 	0.02045141337597826 	101333.3468838608
-1.06981981981982 	300.0064954678001 	0.01881457092187825 	101332.6793362952
-1.067317317317317 	300.0059254822004 	0.01716374661563506 	101332.0054725423
-1.064814814814815 	300.0053517929451 	0.01550316795110486 	101331.3272350595
-1.062312312312312 	300.0047767743937 	0.01383942601043238 	101330.6474307649
-1.05980980980981 	300.0042023363866 	0.01217635697676346 	101329.9683169668
-1.057307307307307 	300.0036293175466 	0.01051532515612463 	101329.2908837757
-1.054804804804805 	300.0030575689607 	0.008858046945449049 	101328.6149548802
-1.052302302302302 	300.0024864074368 	0.007203157738159132 	101327.9397228015
-1.0497997997998 	300.0019151181768 	0.005548298454876983 	101327.2643425161
-1.047297297297297 	300.0013432256229 	0.003891590741646694 	101326.5882520725
-1.044794794794795 	300.0007705684416 	0.002231988880017204 	101325.9112601698
-1.042292292292292 	300.0001972174038 	0.0007122053576398334 	101325.2334515794
-1.03978978978979 	299.9996234103527 	0.001091000764152519 	101324.5551078531
-1.037287287287287 	299.9990494312854 	0.002753137836287367 	101323.8765633612
-1.034784784784785 	299.9984755124054 	0.004415273435994686 	101323.1980929502
-1.032282282282283 	299.9979018365271 	0.006077193369909763 	101322.5199131872
-1.02977977977978 	299.9973285390297 	0.007738392500075662 	101321.8421847666
-1.027277277277277 	299.9967557175796 	0.009397895786161696 	101321.165022254
-1.024774774774775 	299.9961834531779 	0.01105591896038297 	101320.4885200012
-1.022272272272272 	299.9956118333516 	0.01271162632744719 	101319.8127834386
-1.01976976976977 	299.9950409692835 	0.01436518026385496 	101319.1379448434
-1.017267267267267 	299.9944709907917 	0.01601652076549183 	101318.4641563467
-1.014764764764765 	299.9939020330036 	0.01766442358455347 	101317.7915753237
-1.012262262262262 	299.9933342250171 	0.0193095615632071 	101317.1203553856
-1.00975975975976 	299.9927676831728 	0.02094996640225958 	101316.450638633
-1.007257257257257 	299.9922025062484 	0.02258678150172434 	101315.7825402731
-1.004754754754755 	299.9916387669472 	0.02422071904764171 	101315.1161424386
-1.002252252252252 	299.9910765289264 	0.0258496163438023 	101314.4515181829
-0.9997497497497498 	299.9905158709095 	0.02747480578011254 	101313.7887639601
-0.9972472472472473 	299.9899568970867 	0.02909312968748319 	101313.1280102262
-0.9947447447447449 	299.9893997379686 	0.03070605055025839 	101312.4694088685
-0.9922422422422421 	299.9888445317962 	0.03231565898447086 	101311.813115133
-0.9897397397397399 	299.9882914100145 	0.0339181341335008 	101311.1592792746
-0.9872372372372376 	299.987740487682 	0.03551431801081115 	101310.5080427445
-0.9847347347347346 	299.9871918592766 	0.03710249324352857 	101309.8595297404
-0.9822322322322323 	299.9866456048148 	0.0386842474314325 	101309.2138368399
-0.9797297297297296 	299.9861017954365 	0.04026138563356041 	101308.5710381759
-0.9772272272272275 	299.9855605091593 	0.041830016054404 	101307.9312123339
-0.9747247247247248 	299.9850218378012 	0.04339059394689514 	101307.2944667271
-0.9722222222222224 	299.9844858878175 	0.04494274312208735 	101306.6609412004
-0.9697197197197196 	299.9839527785914 	0.04648660613273549 	101306.0307901954
-0.9672172172172175 	299.9834226321817 	0.04802273751336864 	101305.404160186
-0.9647147147147147 	299.9828955712787 	0.04954964122358062 	101304.7811829793
-0.9622122122122124 	299.9823717096321 	0.05106731371839483 	101304.1619763323
-0.9597097097097099 	299.9818511364137 	0.05257526257645859 	101303.5466396829
-0.9572072072072073 	299.9813339145011 	0.0540738444506755 	101302.9352564111
-0.9547047047047047 	299.9808200964777 	0.05556287041954739 	101302.3279066648
-0.9522022022022023 	299.9803097487342 	0.05704126688551553 	101301.724682649
-0.9496996996996998 	299.979802970293 	0.05850932555620745 	101301.1256998019
-0.9471971971971973 	299.9792998873887 	0.05996655250298761 	101300.5310926865
-0.9446946946946947 	299.9788006329352 	0.06141214702556208 	101299.9409997279
-0.9421921921921923 	299.9783053305952 	0.06284673650878712 	101299.3555556418
-0.93968968968969 	299.9778140836021 	0.06427054426761941 	101298.7748867617
-0.9371871871871872 	299.9773269710098 	0.06568223599580456 	101298.1991025879
-0.9346846846846848 	299.976844056096 	0.06708138870161817 	101297.6282942195
-0.9321821821821823 	299.9763653963598 	0.06846718236255479 	101297.0625393358
-0.9296796796796799 	299.97589105191 	0.06984074200113241 	101296.5019102976
-0.9271771771771771 	299.9754210989574 	0.0712031969420641 	101295.9464893858
-0.9246746746746748 	299.9749556367207 	0.07255216125631331 	101295.3963808296
-0.9221721721721724 	299.9744947822303 	0.07388702530365203 	101294.8517089352
-0.9196696696696698 	299.9740386573 	0.07520764069097693 	101294.3126065747
-0.9171671671671672 	299.9735873685007 	0.07651448890671383 	101293.7791971573
-0.9146646646646649 	299.973140997027 	0.0778085860902111 	101293.2515805529
-0.9121621621621623 	299.972699604244 	0.07908819726923901 	101292.7298368469
-0.9096596596596597 	299.9722632457442 	0.08035237286401331 	101292.2140391485
-0.9071571571571573 	299.971831983176 	0.08160172797747559 	101291.7042660971
-0.9046546546546547 	299.9714058927318 	0.08283566577393632 	101291.2006118344
-0.9021521521521524 	299.9709850617127 	0.0840548504685647 	101290.7031818373
-0.8996496496496498 	299.970569576068 	0.08525905386501632 	101290.2120793275
-0.8971471471471473 	299.9701595184872 	0.08644693491008049 	101289.7274016345
-0.894644644644645 	299.9697549702877 	0.08761923497663053 	101289.2492447434
-0.892142142142142 	299.969356011116 	0.0887739489223472 	101288.7777032139
-0.8896396396396397 	299.9689627169603 	0.08991291438498013 	101288.3128626297
-0.8871371371371374 	299.9685751472211 	0.09103673312884961 	101287.8547928171
-0.8846346346346349 	299.968193354776 	0.09214279063915867 	101287.4035536009
-0.8821321321321324 	299.9678173982687 	0.09323259154427416 	101286.959213689
-0.8796296296296297 	299.9674473524707 	0.09430331489514965 	101286.521864048
-0.8771271271271271 	299.9670833027886 	0.09535718961620857 	101286.0916057031
-0.8746246246246248 	299.9667253294824 	0.096395531383394 	101285.6685321905
-0.8721221221221224 	299.9663735098017 	0.09741483178537134 	101285.2527324108
-0.8696196196196196 	299.9660279231784 	0.09841640759994688 	101284.8442975559
-0.8671171171171175 	299.9656886403402 	0.09939832584083516 	101284.4433118442
-0.8646146146146148 	299.9653557100722 	0.1003623089954938 	101284.0498347138
-0.8621121121121121 	299.9650291592652 	0.1013095407949226 	101283.6639000879
-0.8596096096096097 	299.9647090180426 	0.102237069086626 	101283.2855437671
-0.857107107107107 	299.9643953437497 	0.1031457086195911 	101282.9148339994
-0.8546046046046049 	299.964088221797 	0.1040348919432599 	101282.5518700793
-0.8521021021021022 	299.9637877402778 	0.104905117646275 	101282.1967529171
-0.8495995995995997 	299.9634939734643 	0.1057566567265437 	101281.849569595
-0.8470970970970974 	299.9632069905099 	0.1065883187618368 	101281.5104011105
-0.8445945945945946 	299.9629268473129 	0.1074003169722387 	101281.179315437
-0.8420920920920922 	299.9626535692396 	0.1081920877037023 	101280.8563456158
-0.8395895895895897 	299.9623871600966 	0.1089639632366787 	101280.5414973049
-0.8370870870870872 	299.9621276315378 	0.1097159683821754 	101280.2347842183
-0.8345845845845846 	299.9618750227694 	0.1104475437752705 	101279.9362513925
-0.8320820820820823 	299.9616294040173 	0.1111588231441123 	101279.6459808481
-0.8295795795795798 	299.9613908678323 	0.1118493664930088 	101279.3640797279
-0.8270770770770772 	299.9611594980869 	0.1125194166358991 	101279.0906453323
-0.8245745745745746 	299.9609353502718 	0.1131688590770291 	101278.8257436504
-0.8220720720720721 	299.9607184646645 	0.1137974602877745 	101278.5694228577
-0.8195695695695699 	299.9605088682763 	0.1144052131708743 	101278.3217169534
-0.817067067067067 	299.9603065655165 	0.1149916595417702 	101278.0826319117
-0.8145645645645651 	299.9601115490885 	0.1155565213034109 	101277.8521590712
-0.8120620620620621 	299.9599238306208 	0.1161001396620298 	101277.6303128501
-0.8095595595595597 	299.9597434555543 	0.1166229224579816 	101277.4171475707
-0.8070570570570572 	299.9595704874838 	0.1171240434334768 	101277.212738358
-0.8045545545545546 	299.9594049846268 	0.117603227855409 	101277.0171528394
-0.8020520520520523 	299.9592469980226 	0.1180596636880799 	101276.8304499237
-0.7995495495495494 	299.9590965728539 	0.1184946139175943 	101276.6526822753
-0.7970470470470474 	299.9589537308647 	0.1189096122428835 	101276.4838735168
-0.7945445445445446 	299.9588184669131 	0.1193024108454872 	101276.324018946
-0.7920420420420423 	299.9586907786688 	0.1196725304196828 	101276.1731175754
-0.7895395395395397 	299.9585706714285 	0.1200200549003471 	101276.0311756268
-0.7870370370370371 	299.9584581598085 	0.1203452330109752 	101275.8982106638
-0.7845345345345348 	299.9583532890788 	0.1206494931199924 	101275.7742759797
-0.7820320320320323 	299.9582561197485 	0.1209314831713581 	101275.6594429831
-0.7795295295295296 	299.9581666920106 	0.121190207225565 	101275.5537588685
-0.7770270270270272 	299.9580850194843 	0.1214268796724615 	101275.4572396099
-0.7745245245245247 	299.9580111026074 	0.1216399728243855 	101275.3698855439
-0.7720220220220222 	299.9579449370374 	0.1218316282328543 	101275.2916916581
-0.7695195195195199 	299.9578865023827 	0.1220023842378062 	101275.2226346713
-0.767017017017017 	299.9578357694853 	0.1221495209053142 	101275.1626792921
-0.7645145145145147 	299.9577927493756 	0.1222744339411679 	101275.1118386968
-0.7620120120120122 	299.9577575051558 	0.1223748113864724 	101275.0701880619
-0.7595095095095097 	299.957730087814 	0.1224534986453594 	101275.0377865963
-0.7570070070070072 	299.9577105047652 	0.1225109656193402 	101275.0146437911
-0.7545045045045048 	299.9576987595946 	0.1225447728996972 	101275.0007628635
-0.7520020020020022 	299.957694856904 	0.1225571450050155 	101274.9961508928
-0.7494994994994997 	299.957698779735 	0.1225450808173838 	101275.0007861465
-0.7469969969969972 	299.957710475956 	0.122511040781465 	101275.0146072281
-0.7444944944944945 	299.9577298956996 	0.1224561048081946 	101275.0375571941
-0.7419919919919924 	299.9577570431123 	0.1223774939695206 	101275.0696394736
-0.7394894894894897 	299.9577919552415 	0.1222763785144556 	101275.1108978553
-0.7369869869869872 	299.9578346504384 	0.1221520301894122 	101275.1613533476
-0.7344844844844846 	299.9578851319634 	0.1220054365136018 	101275.2210099408
-0.7319819819819822 	299.9579434158954 	0.1218368957055576 	101275.2898877298
-0.7294794794794797 	299.9580095121664 	0.1216454409748993 	101275.3679984245
-0.7269769769769773 	299.9580833914451 	0.1214316515442241 	101275.4553071951
-0.7244744744744747 	299.9581649891834 	0.1211951486515981 	101275.5517377114
-0.721971971971972 	299.9582542462049 	0.1209366281184134 	101275.6572191706
-0.7194694694694695 	299.9583511451027 	0.1206561637838991 	101275.7717311932
-0.7169669669669674 	299.9584556917774 	0.1203533169479307 	101275.8952809255
-0.7144644644644647 	299.9585678807715 	0.1200283615255396 	101276.0278623773
-0.711961961961962 	299.9586876940435 	0.1196809539826969 	101276.1694555577
-0.7094594594594597 	299.9588151273906 	0.1193116865466459 	101276.3200555698
-0.7069569569569573 	299.9589501895746 	0.1189204023525137 	101276.4796711064
-0.7044544544544545 	299.959092874999 	0.1185069989967343 	101276.6482936471
-0.7019519519519523 	299.9592431297345 	0.1180719193495489 	101276.8258602295
-0.6994494494494495 	299.9594008603896 	0.1176149656326098 	101277.0122621997
-0.6969469469469471 	299.9595659927083 	0.117136560911491 	101277.2074130436
-0.6944444444444446 	299.9597385192911 	0.1166366125240018 	101277.4113050214
-0.6919419419419421 	299.9599184632879 	0.1161152909219488 	101277.6239630554
-0.6894394394394396 	299.9601058050802 	0.1155726590365501 	101277.8453635608
-0.6869369369369374 	299.960300474383 	0.1150085768518303 	101278.0754227122
-0.6844344344344344 	299.9605024256711 	0.1144231298356642 	101278.3140863233
-0.6819319319319321 	299.9607116845127 	0.1138166329874379 	101278.5613856507
-0.6794294294294296 	299.9609282873045 	0.1131897819560174 	101278.8173650724
-0.6769269269269272 	299.961152152825 	0.1125418786804305 	101279.0819303357
-0.6744244244244245 	299.9613830917346 	0.1118729877121923 	101279.3548578003
-0.6719219219219222 	299.9616209647722 	0.1111827053280926 	101279.6359823423
-0.6694194194194195 	299.9618658269321 	0.1104721820347228 	101279.9253644779
-0.6669169169169172 	299.9621178351558 	0.1097430758973544 	101280.2231894935
-0.6644144144144146 	299.9623770070992 	0.1089931826321543 	101280.5294810618
-0.661911911911912 	299.9626431127896 	0.1082221269488953 	101280.8439659877
-0.6594094094094097 	299.962915881187 	0.1074316161928488 	101281.1663262878
-0.656906906906907 	299.9631952916532 	0.1066212132864119 	101281.4965401985
-0.6544044044044046 	299.9634815655198 	0.1057922219113678 	101281.8348672911
-0.6519019019019021 	299.963774825724 	0.104943907314544 	101282.1814538357
-0.6493993993993996 	299.9640748585269 	0.1040746855168119 	101282.5360465118
-0.6468968968968971 	299.9643812777861 	0.1031870961408076 	101282.8981861012
-0.6443943943943946 	299.9646939133788 	0.1022794624395405 	101283.2676722135
-0.6418918918918921 	299.9650129513244 	0.1013546671992222 	101283.644724096
-0.6393893893893897 	299.9653386925825 	0.1004124888950581 	101284.0296970244
-0.6368868868868871 	299.9656712122679 	0.09944916757954078 	101284.4226798719
-0.6343843843843846 	299.9660101705157 	0.09846777139254122 	101284.8232722806
-0.6318818818818821 	299.9663550275707 	0.09746729104103724 	101285.2308367723
-0.6293793793793795 	299.9667055755864 	0.09645126083404325 	101285.645129393
-0.6268768768768773 	299.9670621401114 	0.09541890290864879 	101286.0665409331
-0.6243743743743745 	299.9674251423857 	0.09436688317813194 	101286.4955726057
-0.6218718718718721 	299.9677946525653 	0.09329723182256276 	101286.9322816943
-0.6193693693693696 	299.9681702016434 	0.09220909006166918 	101287.3761350859
-0.6168668668668671 	299.9685511329443 	0.09110557268804981 	101287.8263499094
-0.6143643643643645 	299.9689371968535 	0.08998749717130704 	101288.2826340085
-0.6118618618618621 	299.9693287972397 	0.08885288874202843 	101288.7454630765
-0.6093593593593596 	299.9697265169986 	0.08770083008062451 	101289.2155243995
-0.6068568568568571 	299.9701305872253 	0.08653010526341183 	101289.6930905077
-0.6043543543543546 	299.9705405497945 	0.08534268630001021 	101290.1776190293
-0.6018518518518521 	299.9709555034916 	0.08414072369506578 	101290.6680459181
-0.5993493493493496 	299.9713748545868 	0.08292545175623932 	101291.1636725007
-0.5968468468468471 	299.9717987273262 	0.08169705063005317 	101291.6646485216
-0.5943443443443446 	299.9722278632223 	0.08045325267359496 	101292.1718498811
-0.591841841841842 	299.9726629915281 	0.07919274474141046 	101292.6861380335
-0.5893393393393397 	299.9731042071367 	0.07791509845527321 	101293.2076246971
-0.5868368368368371 	299.973550801647 	0.07662197228735787 	101293.735470867
-0.5843343343343346 	299.9740017130344 	0.07531632958270362 	101294.2684209962
-0.5818318318318321 	299.9744562233981 	0.073999593794719 	101294.805625721
-0.5793293293293297 	299.974914390785 	0.07267226597975845 	101295.3471536133
-0.5768268268268271 	299.9753770330563 	0.07133141396009965 	101295.8939717943
-0.5743243243243245 	299.9758450500732 	0.06997473976426817 	101296.4471439636
-0.5718218218218221 	299.9763187683767 	0.06860232460988719 	101297.0070559898
-0.5693193193193196 	299.976797696637 	0.06721500315711589 	101297.5731268059
-0.5668168168168171 	299.9772808016673 	0.06581584084677797 	101298.1441362451
-0.5643143143143147 	299.977767071486 	0.06440726451427595 	101298.7188883613
-0.5618118118118121 	299.9782561296138 	0.06299078246141014 	101299.2969379093
-0.5593093093093094 	299.9787483355181 	0.0615652033792633 	101299.8787131479
-0.5568068068068072 	299.9792444890246 	0.06012768523581326 	101300.4651583244
-0.5543043043043046 	299.9797454190361 	0.05867601186988563 	101301.057252287
-0.551801801801802 	299.9802513895804 	0.05720963323337999 	101301.6553068491
-0.5492992992992995 	299.9807620058025 	0.0557308543846159 	101302.2588537799
-0.5467967967967969 	299.9812763259355 	0.05424146237324033 	101302.8667808784
-0.5442942942942947 	299.9817933291251 	0.05274388458947901 	101303.4778814095
-0.5417917917917919 	299.9823123569626 	0.05123939695548154 	101304.091378027
-0.5392892892892895 	299.9828333644234 	0.04972884230587904 	101304.7072174386
-0.536786786786787 	299.9833568493258 	0.04821321343259977 	101305.3259874982
-0.5342842842842846 	299.9838835452479 	0.04668821323016614 	101305.9485574558
-0.531781781781782 	299.9844140611609 	0.04515058968992611 	101306.5756452288
-0.5292792792792794 	299.9849487047634 	0.04360166236321037 	101307.2076148732
-0.526776776776777 	299.9854872523595 	0.04203998838725767 	101307.8442021133
-0.5242742742742745 	299.9860291072475 	0.04047033890546219 	101308.4847001895
-0.521771771771772 	299.9865734654721 	0.0388954194446484 	101309.1281606288
-0.5192692692692695 	299.987119595954 	0.03731356830579585 	101309.7737186691
-0.516766766766767 	299.9876669611305 	0.03572847133051767 	101310.4207383621
-0.5142642642642645 	299.9882154626801 	0.03413787906517382 	101311.0691052708
-0.511761761761762 	299.9887652847928 	0.03254482571183427 	101311.7190353664
-0.5092592592592596 	299.9893167700614 	0.03094857462944223 	101312.3709358052
-0.506756756756757 	299.9898702979376 	0.0293445397126179 	101313.0252538676
-0.5042542542542544 	299.9904262459573 	0.02773392088533223 	101313.6824353495
-0.5017517517517521 	299.9909848030629 	0.02611488682998285 	101314.3427046043
-0.4992492492492494 	299.9915459045495 	0.0244893944013231 	101315.005984196
-0.496746746746747 	299.9921092864885 	0.02285788623267525 	101315.6719635195
-0.4942442442442445 	299.9926745937149 	0.02122039884031211 	101316.3402216023
-0.4917417417417421 	299.9932414414262 	0.01957894933737759 	101317.0103029271
-0.4892392392392395 	299.9938094357279 	0.01793342971888851 	101317.681742715
-0.486736736736737 	299.9943782610749 	0.0162857932218697 	101318.3541679022
-0.4842342342342345 	299.9949476764776 	0.01463651363123084 	101319.0272947903
-0.481731731731732 	299.9955175418954 	0.01298548976991071 	101319.7009560961
-0.4792292292292296 	299.9960878214342 	0.01133337228609706 	101320.3751101156
-0.4767267267267268 	299.9966585385141 	0.009679655564194495 	101321.0497847362
-0.4742242242242246 	299.9972296591936 	0.008025080732895274 	101321.724939055
-0.471721721721722 	299.9978011448986 	0.00636964581244623 	101322.4005296645
-0.4692192192192195 	299.9983728878316 	0.004713466435982965 	101323.0764273971
-0.4667167167167169 	299.9989448095355 	0.003056980981564133 	101323.7525393341
-0.4642142142142145 	299.9995168247795 	0.00139990496060005 	101324.4287637752
-0.461711711711712 	300.000088889568 	0.0006607912230848372 	101325.1050502107
-0.4592092092092094 	300.000660992753 	0.001914639737019196 	101325.781386636
-0.456706706706707 	300.0012330870391 	0.003571975299873173 	101326.4577164457
-0.4542042042042045 	300.0018050965981 	0.005229011778592897 	101327.1339497381
-0.451701701701702 	300.0023769294255 	0.006885767058452416 	101327.8099751526
-0.4491991991991995 	300.0029484675855 	0.008541483843188806 	101328.4856547651
-0.4466966966966969 	300.0035195708143 	0.01019591136542218 	101329.1608242993
-0.4441941941941945 	300.0040900862555 	0.01184827575116605 	101329.8353033027
-0.441691691691692 	300.0046598625735 	0.01349845283642558 	101330.5089130043
-0.4391891891891895 	300.0052287684341 	0.01514652705670728 	101331.1814954072
-0.436686686686687 	300.0057966959242 	0.0167919186843827 	101331.8529221741
-0.4341841841841846 	300.0063635541381 	0.01843440603996317 	101332.5230874458
-0.431681681681682 	300.0069292562293 	0.02007289256806209 	101333.1918903308
-0.4291791791791794 	300.0074937056476 	0.02170759288581269 	101333.8592186513
-0.426676676676677 	300.0080567959375 	0.02333873159393568 	101334.5249435748
-0.4241741741741744 	300.0086184121881 	0.02496604740330953 	101335.1889268209
-0.421671671671672 	300.0091784405477 	0.02658907797388851 	101335.8510325896
-0.4191691691691694 	300.0097367729882 	0.02820592104472645 	101336.5111350973
-0.4166666666666669 	300.010293307907 	0.02981751013440104 	101337.1691185326
-0.4141641641641645 	300.0108479505101 	0.03142425633016354 	101337.8248718354
-0.411661661661662 	300.0114006091686 	0.03302611497788123 	101338.4782833451
-0.4091591591591594 	300.011951188505 	0.03462291423999967 	101339.1292375391
-0.406656656656657 	300.0124995889194 	0.0362104730653541 	101339.7776134926
-0.4041541541541545 	300.0130457024486 	0.03779070145820453 	101340.4232861771
-0.401651651651652 	300.0135894190057 	0.0393658746808343 	101341.0661305393
-0.3991491491491494 	300.0141306327616 	0.04093349573569804 	101341.7060231999
-0.396646646646647 	300.0146692383205 	0.04249565721532998 	101342.342840069
-0.3941441441441444 	300.015205136279 	0.04404799782724417 	101342.9764555007
-0.3916416416416419 	300.0157382246027 	0.04559032212804967 	101343.6067473042
-0.3891391391391395 	300.0162684107415 	0.04712635624477696 	101344.233604487
-0.3866366366366368 	300.0167956065384 	0.04865355425957938 	101344.8569284719
-0.3841341341341344 	300.0173197269097 	0.05017302486504397 	101345.4766245818
-0.381631631631632 	300.0178406855074 	0.05168208015201926 	101346.0925922312
-0.3791291291291294 	300.0183583909918 	0.05318126414691332 	101346.7047191037
-0.3766266266266269 	300.0188727431539 	0.05467136659891245 	101347.3128796625
-0.3741241241241244 	300.0193836317049 	0.05615074034518629 	101347.9169393507
-0.371621621621622 	300.0198909430833 	0.05762089561255812 	101348.5167662822
-0.3691191191191194 	300.0203945754698 	0.05907991196234742 	101349.1122454153
-0.366616616616617 	300.0208944428457 	0.06052783433882476 	101349.7032833161
-0.3641141141141143 	300.0213904762107 	0.06196489441363932 	101350.289799706
-0.3616116116116119 	300.0218826108971 	0.06339027605138724 	101350.8717130807
-0.3591091091091095 	300.0223707741171 	0.06480448807871174 	101351.4489293407
-0.356606606606607 	300.0228548763707 	0.06620643255466532 	101352.0213358626
-0.3541041041041044 	300.0233348061928 	0.06759620463923104 	101352.5888012202
-0.3516016016016019 	300.0238104389067 	0.06897379194111064 	101353.1511846316
-0.3490990990990994 	300.0242816546913 	0.07033870382445018 	101353.708354836
-0.346596596596597 	300.0247483605417 	0.07169113376656679 	101354.2602070967
-0.3440940940940944 	300.0252104945891 	0.07303019252199909 	101354.8066657063
-0.3415915915915919 	300.0256680127267 	0.07435586290135027 	101355.3476701434
-0.3390890890890895 	300.0261208691307 	0.07566782677086059 	101355.8831550587
-0.3365865865865869 	300.0265689961607 	0.07696578460102604 	101356.4130357724
-0.3340840840840844 	300.0270123000934 	0.07824988910179267 	101356.9372047552
-0.3315815815815819 	300.0274506693219 	0.07951942203130503 	101357.4555386125
-0.3290790790790794 	300.0278839867718 	0.08077438466749251 	101357.9679103218
-0.3265765765765769 	300.0283121456366 	0.08201427198271863 	101358.4741990044
-0.3240740740740744 	300.0287350544464 	0.08323904545944416 	101358.9742946687
-0.3215715715715718 	300.0291526423115 	0.08444897094892817 	101359.4681045996
-0.3190690690690695 	300.0295648632319 	0.08564347792601981 	101359.9555626932
-0.3165665665665668 	300.0299716902714 	0.0868225686919465 	101360.4366277929
-0.3140640640640644 	300.0303730894024 	0.0879853424915779 	101360.9112592236
-0.311561561561562 	300.0307689903802 	0.089131804720138 	101361.3793830707
-0.3090590590590593 	300.0311592850443 	0.09026218672449689 	101361.840881527
-0.3065565565565568 	300.0315438482189 	0.09137594765434127 	101362.2956179948
-0.3040540540540545 	300.0319225749485 	0.0924731990962511 	101362.7434727552
-0.3015515515515518 	300.0322953933292 	0.09355270083455464 	101363.1843561331
-0.2990490490490494 	300.0326622512415 	0.0946149287766085 	101363.6181987237
-0.2965465465465469 	300.0330231104518 	0.09566045106082127 	101364.044942029
-0.2940440440440444 	300.0333779367334 	0.09668889946923452 	101364.4645374569
-0.2915415415415418 	300.03372669498 	0.09770040293170036 	101364.8769402033