-1.25 	250.0986635785857 	0.002576085131852027 	101325.018221237
-1.247497497497497 	300.0794097974421 	0.00243660580093255 	101325.0172175499
-1.244994994994995 	300.0019660726034 	0.002242786950642567 	101325.0184996434
-1.242492492492492 	300.0000333544808 	0.002048303610128394 	101325.0169305833
-1.23998998998999 	300.0000158739726 	0.001859054181619992 	101325.0186580562
-1.237487487487487 	300.0000140817971 	0.001675465244329966 	101325.0166129226
-1.234984984984985 	300.0000155190074 	0.001499324827885756 	101325.0183797961
-1.232482482482482 	300.0000136307609 	0.001329763614096336 	101325.016080798
-1.22997997997998 	300.0000151194064 	0.001169839953198172 	101325.0179050768
-1.227477477477477 	300.0000132915578 	0.001016256923391682 	101325.0156845022
-1.224974974974975 	300.0000148619623 	0.0008743206840956844 	101325.017598016
-1.222472472472472 	300.000013156137 	0.0007381112361526947 	101325.0155312097
-1.21996996996997 	300.0000147244979 	0.0006147397661400793 	101325.0174350797
-1.217467467467467 	300.0000130966171 	0.000496592371268797 	101325.0154609143
-1.214964964964965 	300.0000146459797 	0.0003918766133141728 	101325.0173379057
-1.212462462462462 	300.0000130236061 	0.0002918748285516626 	101325.0153720278
-1.20995995995996 	300.000014513508 	0.0002052922904094843 	101325.0171776328
-1.207457457457457 	300.0000129683101 	0.0001206960675882856 	101325.0153109133
-1.204954954954955 	300.0000143176062 	4.613263249136068e-05 	101325.0169511785
-1.202452452452452 	300.0000128124934 	7.390414700910472e-05 	101325.0151282363
-1.19994994994995 	300.0000138864427 	9.076174485839097e-05 	101325.0164360876
-1.197447447447447 	300.0000125257254 	0.000154504224442216 	101325.0147860603
-1.194944944944945 	300.0000137716098 	0.0002083287782674841 	101325.0162967164
-1.192442442442442 	300.0000122046713 	0.0002633050361582859 	101325.014409167
-1.18993993993994 	300.0000137076396 	0.0003071142402213011 	101325.0162280319
-1.187437437437437 	300.0000119753474 	0.0003531500767785527 	101325.0141442179
-1.184934934934935 	300.000013583885 	0.0003862073727237068 	101325.016079528
-1.182432432432432 	300.0000119497796 	0.0004217899950023924 	101325.0141100204
-1.17992992992993 	300.0000133470934 	0.0004430993660310732 	101325.0157936525
-1.177427427427427 	300.0000119563705 	0.000465658877096557 	101325.014117832
-1.174924924924925 	300.0000130130369 	0.000468676708343144 	101325.0153979271
-1.172422422422422 	300.0000123014074 	0.0004681579155334443 	101325.0145262379
-1.16991991991992 	300.000012524933 	0.00045410204254538 	101325.0148214246
-1.167417417417417 	300.0000118458219 	0.0004455462945146282 	101325.0139924918
-1.164914914914915 	300.0000119594405 	0.0004279909424862181 	101325.0141531507
-1.162412412412412 	300.0000114134173 	0.0004175181813542715 	101325.0134799489
-1.15990990990991 	300.0000116233954 	0.0003979087599618598 	101325.0137554663
-1.157407407407407 	300.0000113236222 	0.0003871374435586211 	101325.0133743065
-1.154904904904904 	300.0000116326855 	0.0003661873278962992 	101325.0137661024
-1.152402402402403 	300.0000115081447 	0.0003557815351786319 	101325.0135935595
-1.1498998998999 	300.0000118151715 	0.0003343534543394665 	101325.0139817447
-1.147397397397397 	300.000011674435 	0.000324440554008793 	101325.0137908259
-1.144894894894895 	300.000011831889 	0.0003035843890595118 	101325.0139988415
-1.142392392392392 	300.0000114895411 	0.000293986227700407 	101325.0135699292
-1.13988988988989 	300.0000114394591 	0.0002743994160065539 	101325.013532875
-1.137387387387387 	300.0000109365601 	0.0002652244458825869 	101325.0129178899
-1.134884884884885 	300.0000108148952 	0.0002467452564354211 	101325.0127935156
-1.132382382382382 	300.0000104200906 	0.000238629222203516 	101325.0123093559
-1.12987987987988 	300.0000104134915 	0.0002205920325303892 	101325.0123246879
-1.127377377377377 	300.0000103317729 	0.0002143040596673875 	101325.0122062922
-1.124874874874875 	300.0000104959977 	0.0001965045517016684 	101325.0124175445
-1.122372372372372 	300.000010589317 	0.000192194609543734 	101325.0125118075
-1.11986986986987 	300.0000107364267 	0.0001752932264297571 	101325.0127007748
-1.117367367367367 	300.0000107074267 	0.0001723047034504206 	101325.0126500462
-1.114864864864865 	300.0000106374266 	0.0001570891027588037 	101325.012582654
-1.112362362362362 	300.0000103823979 	0.0001548427031622542 	101325.0122676506
-1.10985985985986 	300.0000101582039 	0.000141267818781727 	101325.0120165432
-1.107357357357357 	300.0000098733152 	0.0001399303692149778 	101325.0116663947
-1.104854854854855 	300.0000097150038 	0.0001272334521576756 	101325.0114906985
-1.102352352352353 	300.0000095736584 	0.0001271601739677835 	101325.0113114127
-1.09984984984985 	300.000009553074 	0.0001147808397182639 	101325.0112975634
-1.097347347347347 	300.0000095064941 	0.0001157859661811778 	101325.0112318492
-1.094844844844845 	300.0000095297549 	0.0001036303310936522 	101325.011269589
-1.092342342342342 	300.0000094695932 	0.0001052314714932412 	101325.0111908355
-1.08983983983984 	300.0000094762223 	9.324566495822251e-05 	101325.0112084419
-1.087337337337337 	300.000009394722 	9.519404358475535e-05 	101325.0111046846
-1.084834834834835 	300.0000093996551 	8.322614744805327e-05 	101325.011116913
-1.082332332332332 	300.0000093063001 	8.542838831390823e-05 	101325.0109995194
-1.07982982982983 	300.0000092820199 	7.353237605496024e-05 	101325.0109752547
-1.077327327327327 	300.0000091234369 	7.576683662961261e-05 	101325.0107819503
-1.074824824824825 	300.000009017121 	6.420143884974665e-05 	101325.0106605905
-1.072322322322323 	300.0000087817951 	6.633003105276765e-05 	101325.0103784907
-1.06981981981982 	300.0000086439576 	5.509802300527064e-05 	101325.0102192908
-1.067317317317317 	300.0000084445505 	5.740148603879972e-05 	101325.0099805337
-1.064814814814815 	300.0000083949086 	4.61487271893297e-05 	101325.0099248288
-1.062312312312312 	300.0000083273457 	4.906455679707691e-05 	101325.009842937
-1.05980980980981 	300.0000083828442 	3.759663128149545e-05 	101325.009911198
-1.057307307307307 	300.0000083863626 	4.118968008109364e-05 	101325.0099144252
-1.054804804804805 	300.0000084318113 	2.979138511622467e-05 	101325.0099697
-1.052302302302302 	300.0000083736117 	3.373693230532682e-05 	101325.0098992351
-1.0497997997998 	300.0000083114016 	2.284457228201172e-05 	101325.0098262765
-1.047297297297297 	300.0000081543439 	2.690192131442893e-05 	101325.0096398049
-1.044794794794795 	300.0000080178267 	2.132042067337404e-05 	101325.0094786988
-1.042292292292292 	300.0000078481658 	2.429109135730443e-05 	101325.0092775075
-1.03978978978979 	300.0000077357356 	2.116834196959536e-05 	101325.0091446807
-1.037287287287287 	300.000007634771 	2.308295593897154e-05 	101325.0090247738
-1.034784784784785 	300.0000075865976 	2.127869698002389e-05 	101325.0089677465
-1.032282282282283 	300.00000754797 	2.235589688632529e-05 	101325.008922528
-1.02977977977978 	300.0000075272069 	2.151217848028341e-05 	101325.0088984289
-1.027277277277277 	300.0000074972882 	2.186241980888528e-05 	101325.0088633947
-1.024774774774775 	300.0000074572974 	2.157531597415853e-05 	101325.0088160445
-1.022272272272272 	300.0000074016855 	2.137979503533234e-05 	101325.0087503117
-1.01976976976977 	300.0000073307159 	2.134156221821725e-05 	101325.0086667813
-1.017267267267267 	300.0000072524863 	2.088782222365849e-05 	101325.0085750119
-1.014764764764765 	300.0000071680969 	2.087508324215012e-05 	101325.0084753637
-1.012262262262262 	300.0000070855658 	2.046434942992268e-05 	101325.0083770915
-1.00975975975976 	300.0000070035373 	2.030315104553277e-05 	101325.0082789316
-1.007257257257257 	300.0000069232693 	2.005179437648999e-05 	101325.0081831059
-1.004754754754755 	300.0000068442266 	1.982467778513118e-05 	101325.0080896291
-1.002252252252252 	300.0000067672657 	1.960487136711795e-05 	101325.0079996472
-0.9997497497497498 	300.0000066951662 	1.939829460626333e-05 	101325.0079153586
-0.9972472472472473 	300.0000066308226 	1.921276492170684e-05 	101325.0078393024
-0.9947447447447449 	300.0000065753145 	1.904983858751281e-05 	101325.0077728826
-0.9922422422422421 	300.0000065271091 	1.890629886092796e-05 	101325.0077149279
-0.9897397397397399 	300.0000064815764 	1.877369917188774e-05 	101325.0076612552
-0.9872372372372376 	300.0000064335945 	1.863595486125598e-05 	101325.0076058598
-0.9847347347347346 	300.0000063794654 	1.848254659828264e-05 	101325.0075434505
-0.9822322322322323 	300.0000063190221 	1.831001710447207e-05 	101325.0074723369
-0.9797297297297296 	300.0000062555553 	1.812472592426392e-05 	101325.0073960997
-0.9772272272272275 	300.0000061952518 	1.794890551977178e-05 	101325.0073229328
-0.9747247247247248 	300.0000061458062 	1.780531577929683e-05 	101325.0072631736
-0.9722222222222224 	300.0000061139265 	1.771411787436529e-05 	101325.0072257764
-0.9697197197197196 	300.000006103401 	1.768640164257768e-05 	101325.0072145834
-0.9672172172172175 	300.0000061118649 	1.771140796651884e-05 	101325.007226128
-0.9647147147147147 	300.0000061311214 	1.776447459047684e-05 	101325.0072497983
-0.9622122122122124 	300.0000061480068 	1.780867105442285e-05 	101325.0072697732
-0.9597097097097099 	300.0000061476672 	1.780105186771773e-05 	101325.0072686967
-0.9572072072072073 	300.0000061181092 	1.771156023119509e-05 	101325.0072328321
-0.9547047047047047 	300.0000060546198 	1.752652164031983e-05 	101325.0071566503
-0.9522022022022023 	300.0000059606574 	1.725615643074288e-05 	101325.0070449775
-0.9496996996996998 	300.0000058490983 	1.693920871965644e-05 	101325.0069126895
-0.9471971971971973 	300.000005739244 	1.662781307478254e-05 	101325.0067823241
-0.9446946946946947 	300.0000056525836 	1.638307683033921e-05 	101325.0066796667
-0.9421921921921923 	300.0000056088505 	1.626080701525069e-05 	101325.0066276122
-0.93968968968969 	300.0000056187832 	1.628801682216389e-05 	101325.0066390872
-0.9371871871871872 	300.0000056794985 	1.645816887592831e-05 	101325.0067110126
-0.9346846846846848 	300.0000057731679 	1.672093613902468e-05 	101325.0068223246
-0.9321821821821823 	300.0000058708533 	1.699256882160527e-05 	101325.0069384673
-0.9296796796796799 	300.0000059404613 	1.718615174875975e-05 	101325.0070212992
-0.9271771771771771 	300.0000059560874 	1.722814239339692e-05 	101325.0070403782
-0.9246746746746748 	300.0000059064353 	1.708592372284778e-05 	101325.00698195
-0.9221721721721724 	300.0000057974168 	1.67782979234218e-05 	101325.006853018
-0.9196696696696698 	300.000005650266 	1.636322946708545e-05 	101325.0066790064
-0.9171671671671672 	300.0000054955921 	1.592626654991186e-05 	101325.0064959901
-0.9146646646646649 	300.0000053646418 	1.55554378940877e-05 	101325.006340674
-0.9121621621621623 	300.0000052811766 	1.531727568876827e-05 	101325.0062416598
-0.9096596596596597 	300.0000052575858 	1.524951347744741e-05 	101325.0062138775
-0.9071571571571573 	300.000005294008 	1.535133578344582e-05 	101325.0062569469
-0.9046546546546547 	300.0000053788493 	1.558950127856024e-05 	101325.0063573936
-0.9021521521521524 	300.0000054934227 	1.591515357074081e-05 	101325.0064933583
-0.8996496496496498 	300.0000056169746 	1.626645264723942e-05 	101325.0066397654
-0.8971471471471473 	300.0000057291955 	1.658514631337973e-05 	101325.0067725569
-0.894644644644645 	300.0000058128492 	1.682416128138865e-05 	101325.0068715727
-0.892142142142142 	300.000005855876 	1.69464866397122e-05 	101325.0069224846
-0.8896396396396397 	300.000005852348 	1.693667080097464e-05 	101325.0069182293
-0.8871371371371374 	300.0000058029435 	1.679722097952899e-05 	101325.0068599069
-0.8846346346346349 	300.0000057159523 	1.654888700345941e-05 	101325.0067568661
-0.8821321321321324 	300.0000056053655 	1.62348647202761e-05 	101325.0066258396
-0.8796296296296297 	300.0000054895976 	1.590672276312915e-05 	101325.0064889367
-0.8771271271271271 	300.0000053893843 	1.562315995371155e-05 	101325.0063706599
-0.8746246246246248 	300.0000053247282 	1.544257545865671e-05 	101325.006294392
-0.8721221221221224 	300.0000053109695 	1.540619216650548e-05 	101325.0062783785
-0.8696196196196196 	300.0000053557652 	1.553591482530251e-05 	101325.0063315494
-0.8671171171171175 	300.0000054562973 	1.582313308779559e-05 	101325.0064504381
-0.8646146146146148 	300.0000055983971 	1.622713099971784e-05 	101325.0066187022
-0.8621121121121121 	300.000005760236 	1.668738287170194e-05 	101325.0068100637
-0.8596096096096097 	300.0000059160524 	1.712965483396272e-05 	101325.0069940222
-0.857107107107107 	300.0000060418046 	1.748616310699014e-05 	101325.0071424456
-0.8546046046046049 	300.0000061208704 	1.771158742120508e-05 	101325.0072354575
-0.8521021021021022 	300.0000061466106 	1.778677150720768e-05 	101325.0072655768
-0.8495995995995997 	300.0000061241288 	1.772720222830931e-05 	101325.0072391422
-0.8470970970970974 	300.0000060689692 	1.757686050708567e-05 	101325.007174457
-0.8445945945945946 	300.0000060032921 	1.739462518565524e-05 	101325.0070969791
-0.8420920920920922 	300.0000059494582 	1.724484354346919e-05 	101325.0070329673
-0.8395895895895897 	300.0000059247514 	1.717700750083231e-05 	101325.0070034904
-0.8370870870870872 	300.0000059388302 	1.721718043721772e-05 	101325.0070200109
-0.8345845845845846 	300.0000059915416 	1.736757396701413e-05 	101325.0070824299
-0.8320820820820823 	300.0000060739279 	1.760222737514056e-05 	101325.0071803396
-0.8295795795795798 	300.0000061724718 	1.788344941372874e-05 	101325.0072973542
-0.8270770770770772 	300.0000062735209 	1.817314685934014e-05 	101325.0074169166
-0.8245745745745746 	300.0000063667748 	1.844113728882118e-05 	101325.007527183
-0.8220720720720721 	300.0000064483133 	1.867740900777419e-05 	101325.0076232962
-0.8195695695695699 	300.0000065192626 	1.888378717535055e-05 	101325.0077068199
-0.817067067067067 	300.0000065838155 	1.907176505255566e-05 	101325.0077831146
-0.8145645645645651 	300.0000066468846 	1.925594089190122e-05 	101325.0078577484
-0.8120620620620621 	300.0000067108004 	1.943971368817337e-05 	101325.0079331218
-0.8095595595595597 	300.000006772938 	1.961742963223886e-05 	101325.0080065713
-0.8070570570570572 	300.0000068271665 	1.977302779814616e-05 	101325.0080709802
-0.8045545545545546 	300.0000068668558 	1.988630997459082e-05 	101325.008117973
-0.8020520520520523 	300.0000068880656 	1.994782001778276e-05 	101325.0081425207
-0.7995495495495494 	300.0000068923811 	1.996235529128342e-05 	101325.0081469533
-0.7970470470470474 	300.0000068888024 	1.995612063137463e-05 	101325.0081424649
-0.7945445445445446 	300.0000068926986 	1.997416210323993e-05 	101325.0081472142
-0.7920420420420423 	300.0000069211697 	2.006330784956498e-05 	101325.0081816255
-0.7895395395395397 	300.0000069884546 	2.026319487862356e-05 	101325.0082623091
-0.7870370370370371 	300.0000071010382 	2.058987830631899e-05 	101325.008396287
-0.7845345345345348 	300.0000072542009 	2.1027405060784e-05 	101325.0085773562
-0.7820320320320323 	300.0000074318213 	2.153138427511328e-05 	101325.0087862571
-0.7795295295295296 	300.0000076096233 	2.203470588516979e-05 	101325.0089951132
-0.7770270270270272 	300.0000077625669 	2.246739379386614e-05 	101325.0091747012
-0.7745245245245247 	300.0000078707984 	2.27767448302576e-05 	101325.0093022358
-0.7720220220220222 	300.000007925871 	2.293859088018816e-05 	101325.0093677881
-0.7695195195195199 	300.0000079331908 	2.296900231324308e-05 	101325.0093776513
-0.767017017017017 	300.0000079115948 	2.291873322352627e-05 	101325.0093532459
-0.7645145145145147 	300.0000078875169 	2.285993405590856e-05 	101325.0093253552
-0.7620120120120122 	300.0000078873927 	2.286807148218128e-05 	101325.0093255261
-0.7595095095095097 	300.0000079309035 	2.299906963707691e-05 	101325.0093775408
-0.7570070070070072 	300.0000080264543 	2.327592665282011e-05 	101325.0094912068
-0.7545045045045048 	300.0000081686125 	2.368405482997417e-05 	101325.0096600707
-0.7520020020020022 	300.0000083400889 	2.417445028534628e-05 	101325.0098637956
-0.7494994994994997 	300.0000085181778 	2.468219141744536e-05 	101325.0100745353
-0.7469969969969972 	300.0000086801307 	2.514287428136187e-05 	101325.0102651144
-0.7444944944944945 	300.0000088092645 	2.55109561303815e-05 	101325.0104163937
-0.7419919919919924 	300.0000088999513 	2.577200208574635e-05 	101325.0105220344
-0.7394894894894897 	300.0000089577237 	2.59426671680833e-05 	101325.0105894697
-0.7369869869869872 	300.0000089979614 	2.606495732459287e-05 	101325.0106366243
-0.7344844844844846 	300.0000090388299 	2.619039749543766e-05 	101325.0106852991
-0.7319819819819822 	300.0000090961356 	2.636077309807675e-05 	101325.0107536232
-0.7294794794794797 	300.0000091771958 	2.659749323845588e-05 	101325.0108503564
-0.7269769769769773 	300.0000092802265 	2.689457717059621e-05 	101325.0109729693
-0.7244744744744747 	300.0000093955597 	2.722495778319971e-05 	101325.0111099365
-0.721971971971972 	300.000009510558 	2.755457088980384e-05 	101325.011246017
-0.7194694694694695 	300.0000096148607 	2.785217682287864e-05 	101325.0113682691
-0.7169669669669674 	300.0000097030351 	2.810410034531431e-05 	101325.0114708099
-0.7144644644644647 	300.0000097780542 	2.831927331495324e-05 	101325.0115571323
-0.711961961961962 	300.0000098492158 	2.852533256815973e-05 	101325.0116392494
-0.7094594594594597 	300.0000099297118 	2.876134040770233e-05 	101325.011733591
-0.7069569569569573 	300.0000100319257 	2.906024112177229e-05 	101325.0118546975
-0.7044544544544545 	300.0000101614538 	2.943579042269625e-05 	101325.0120088259
-0.7019519519519523 	300.000010313595 	2.987470085764805e-05 	101325.012190056
-0.6994494494494495 	300.0000104737846 	3.033461732806694e-05 	101325.0123807785
-0.6969469469469471 	300.0000106219401 	3.075856543183476e-05 	101325.012556626
-0.6944444444444446 	300.0000107378187 	3.109088724570483e-05 	101325.0126940558
-0.6919419419419421 	300.0000108089172 	3.129682421760439e-05 	101325.0127782734
-0.6894394394394396 	300.000010834576 	3.137777224827046e-05 	101325.0128092131
-0.6869369369369374 	300.000010829359 	3.137247819155699e-05 	101325.0128034367
-0.6844344344344344 	300.0000108183747 	3.135225149359951e-05 	101325.012790793
-0.6819319319319321 	300.000010831496 	3.140065180744619e-05 	101325.012806662
-0.6794294294294296 	300.000010895577 	3.15912810599878e-05 	101325.0128822698
-0.6769269269269272 	300.0000110255245 	3.196701007731909e-05 	101325.013035512
-0.6744244244244245 	300.0000112199877 	3.252141705059114e-05 	101325.013264508
-0.6719219219219222 	300.0000114586908 	3.319983493849712e-05 	101325.0135461433
-0.6694194194194195 	300.0000117085762 	3.390843623726806e-05 	101325.013841029
-0.6669169169169172 	300.0000119308897 	3.453990638502093e-05 	101325.0141038576
-0.6644144144144146 	300.0000120926312 	3.500319706232905e-05 	101325.0142957061
-0.661911911911912 	300.0000121759418 	3.524586885148242e-05 	101325.0143947962
-0.6594094094094097 	300.0000121825187 	3.527332422915533e-05 	101325.0144029009
-0.656906906906907 	300.000012133949 	3.514567309523993e-05 	101325.014345513
-0.6544044044044046 	300.0000120665185 	3.496446215070216e-05 	101325.0142654388
-0.6519019019019021 	300.0000120214075 	3.484621076595546e-05 	101325.0142115389
-0.6493993993993996 	300.0000120341112 	3.488991004736498e-05 	101325.0142260801
-0.6468968968968971 	300.0000121253743 	3.515482356741286e-05 	101325.0143338377
-0.6443943943943946 	300.0000122960778 	3.564218790266068e-05 	101325.0145355993
-0.6418918918918921 	300.0000125270752 	3.629782757278877e-05 	101325.0148082538
-0.6393893893893897 	300.0000127844093 	3.702750391814705e-05 	101325.0151117879
-0.6368868868868871 	300.0000130294002 	3.772312897384609e-05 	101325.0154008031
-0.6343843843843846 	300.0000132289512 	3.829312421320903e-05 	101325.0156364768
-0.6318818818818821 	300.0000133632301 	3.86825933493544e-05 	101325.0157958487
-0.6293793793793795 	300.0000134308695 	3.88861732998731e-05 	101325.0158766481
-0.6268768768768773 	300.0000134467397 	3.894468306504341e-05 	101325.0158964492
-0.6243743743743745 	300.0000134373893 	3.893003389740031e-05 	101325.0158861217
-0.6218718718718721 	300.0000134320507 	3.892262182956024e-05 	101325.0158795784
-0.6193693693693696 	300.0000134524311 	3.898529011058524e-05 	101325.0159034883
-0.6168668668668671 	300.0000135094794 	3.914862670879038e-05 	101325.015970428
-0.6143643643643645 	300.0000135999991 	3.940607363725503e-05 	101325.0160773594
-0.6118618618618621 	300.0000137113865 	3.972372171638068e-05 	101325.0162095839
-0.6093593593593596 	300.0000138284468 	4.005939549180567e-05 	101325.0163484451
-0.6068568568568571 	300.0000139391231 	4.037903613136144e-05 	101325.0164795496
-0.6043543543543546 	300.0000140397802 	4.067158831455325e-05 	101325.0165981801
-0.6018518518518521 	300.0000141350917 	4.094913028229442e-05 	101325.0167099486
-0.5993493493493496 	300.0000142345448 	4.12383136879457e-05 	101325.0168266742
-0.5968468468468471 	300.000014347163 	4.156474799748484e-05 	101325.0169593696
-0.5943443443443446 	300.0000144755656 	4.193462945227715e-05 	101325.0171112614
-0.591841841841842 	300.0000146123425 	4.232691590405205e-05 	101325.0172737292
-0.5893393393393397 	300.0000147414418 	4.269526709008923e-05 	101325.0174271662
-0.5868368368368371 	300.0000148423769 	4.298213075731829e-05 	101325.0175468947
-0.5843343343343346 	300.0000148975395 	4.313997870845055e-05 	101325.0176122832
-0.5818318318318321 	300.0000149005522 	4.315232665569485e-05 	101325.0176158785
-0.5793293293293297 	300.0000148606971 	4.304604020571963e-05 	101325.0175690007
-0.5768268268268271 	300.0000148032794 	4.289159298663369e-05 	101325.0175011037
-0.5743243243243245 	300.0000147622789 	4.278442768004829e-05 	101325.0174523873
-0.5718218218218221 	300.0000147706832 	4.281580695294915e-05 	101325.0174619125
-0.5693193193193196 	300.0000148500334 	4.304450337424714e-05 	101325.0175547624
-0.5668168168168171 	300.0000150008743 	4.347200687989988e-05 	101325.0177322586
-0.5643143143143147 	300.0000152020261 	4.403851413530527e-05 	101325.0179691617
-0.5618118118118121 	300.0000154150027 	4.463680769602821e-05 	101325.0182198708
-0.5593093093093094 	300.0000155946652 	4.51426534399984e-05 	101325.0184318901
-0.5568068068068072 	300.0000157042415 	4.54542887157957e-05 	101325.0185618235
-0.5543043043043046 	300.0000157266372 	4.552383442082045e-05 	101325.0185892174
-0.551801801801802 	300.000015670309 	4.537564587068457e-05 	101325.0185241094
-0.5492992992992995 	300.0000155687958 	4.510155160197243e-05 	101325.018405136
-0.5467967967967969 	300.0000154688225 	4.483102902636925e-05 	101325.0182877699
-0.5442942942942947 	300.000015416683 	4.469312217826359e-05 	101325.0182266619
-0.5417917917917919 	300.0000154431833 	4.477397402527774e-05 	101325.0182584332
-0.5392892892892895 	300.0000155546625 	4.508994876077994e-05 	101325.0183903321
-0.536786786786787 	300.0000157310116 	4.55870370705211e-05 	101325.0185987132
-0.5342842842842846 	300.000015933548 	4.615755110439901e-05 	101325.018838207
-0.531781781781782 	300.0000161194369 	4.668296709816863e-05 	101325.0190579533
-0.5292792792792794 	300.0000162551929 	4.706969574455646e-05 	101325.0192180787
-0.526776776776777 	300.0000163255023 	4.727304161268973e-05 	101325.0193005461
-0.5242742742742745 	300.0000163354847 	4.730692662504944e-05 	101325.0193112275
-0.521771771771772 	300.0000163044971 	4.722286112058351e-05 	101325.019273302
-0.5192692692692695 	300.0000162566364 	4.708923409254268e-05 	101325.0192157826
-0.516766766766767 	300.000016212819 	4.696476101574971e-05 	101325.0191628535
-0.5142642642642645 	300.0000161842054 	4.688187125011179e-05 	101325.0191285039
-0.511761761761762 	300.0000161752208 	4.685562992542768e-05 	101325.0191175217
-0.5092592592592596 	300.000016186225 	4.688743087261316e-05 	101325.0191305574
-0.506756756756757 	300.0000162183915 	4.698305069241151e-05 	101325.0191693281
-0.5042542542542544 	300.0000162761244 	4.715440153624251e-05 	101325.0192384276
-0.5017517517517521 	300.0000163629805 	4.740768864055816e-05 	101325.0193422252
-0.4992492492492494 	300.0000164770671 	4.773735723547186e-05 	101325.0194784097
-0.496746746746747 	300.0000166061815 	4.810573067013783e-05 	101325.0196323205
-0.4942442442442445 	300.0000167271861 	4.844788574013703e-05 	101325.0197764375
-0.4917417417417421 	300.0000168114433 	4.868567077425638e-05 	101325.0198767587
-0.4892392392392395 	300.0000168343463 	4.87486151987665e-05 	101325.0199042055
-0.486736736736737 	300.0000167854288 	4.861137950431918e-05 	101325.0198465833
-0.4842342342342345 	300.0000166747584 	4.830129504501134e-05 	101325.0197158639
-0.481731731731732 	300.0000165324137 	4.790186635877704e-05 	101325.0195470385
-0.4792292292292296 	300.0000163981836 	4.752774648920377e-05 	101325.0193881014
-0.4767267267267268 	300.0000163109669 	4.728335228732053e-05 	101325.0192849114
-0.4742242242242246 	300.0000162959466 	4.724043743919582e-05 	101325.0192666864
-0.471721721721722 	300.0000163556142 	4.740552393091873e-05 	101325.0193370612
-0.4692192192192195 	300.0000164715289 	4.77277702792826e-05 	101325.0194737968
-0.4667167167167169 	300.0000166097315 	4.811566683696051e-05 	101325.01963712
-0.4642142142142145 	300.0000167335627 	4.846112547808694e-05 	101325.0197829741
-0.461711711711712 	300.0000168122827 	4.868353890805919e-05 	101325.0198758056
-0.4592092092092094 	300.0000168304883 	4.873552594360613e-05 	101325.0198971515
-0.456706706706707 	300.0000167894889 	4.862160514588874e-05 	101325.0198484118
-0.4542042042042045 	300.000016704219 	4.838535578286606e-05 	101325.0197478761
-0.451701701701702 	300.0000165993649 	4.808966657147227e-05 	101325.0196237761
-0.4491991991991995 	300.0000164999026 	4.780981344866523e-05 	101325.0195061455
-0.4466966966966969 	300.0000164271275 	4.760245898126945e-05 	101325.0194200212
-0.4441941941941945 	300.0000163944805 	4.750848962639876e-05 	101325.0193811584
-0.441691691691692 	300.0000164052579 	4.753852251031647e-05 	101325.0193939665
-0.4391891891891895 	300.0000164537263 	4.767216188846873e-05 	101325.0194511655
-0.436686686686687 	300.0000165247117 	4.787156817650287e-05 	101325.0195352581
-0.4341841841841846 	300.0000165978964 	4.807473241808593e-05 	101325.0196218767
-0.431681681681682 	300.0000166506867 	4.822200480258553e-05 	101325.0196846153
-0.4291791791791794 	300.0000166640659 	4.825802573207311e-05 	101325.0197006304
-0.426676676676677 	300.0000166263126 	4.814773666314228e-05 	101325.0196560996
-0.4241741741741744 	300.0000165370904 	4.789361795668855e-05 	101325.019550376
-0.421671671671672 	300.0000164080243 	4.752575296938842e-05 	101325.0193974542
-0.4191691691691694 	300.000016261182 	4.710942598876579e-05 	101325.0192235298
-0.4166666666666669 	300.0000161236293 	4.671983048020025e-05 	101325.0190606389
-0.4141641641641645 	300.0000160199031 	4.642516737239848e-05 	101325.0189382942
-0.411661661661662 	300.0000159671004 	4.627361890519075e-05 	101325.0188755903
-0.4091591591591594 	300.0000159672105 	4.626945547839573e-05 	101325.0188758313
-0.406656656656657 	300.0000160089172 	4.638312746692981e-05 	101325.0189253851
-0.4041541541541545 	300.0000160699398 	4.654998445330298e-05 	101325.0189973687
-0.401651651651652 	300.0000161218662 	4.669198913065079e-05 	101325.0190592749
-0.3991491491491494 	300.0000161411916 	4.674344367137512e-05 	101325.0190821521
-0.396646646646647 	300.0000161123476 	4.665909027513149e-05 	101325.0190484543
-0.3941441441441444 	300.0000160342072 	4.64375058793063e-05 	101325.0189563009
-0.3916416416416419 	300.000015917877 	4.610910565346146e-05 	101325.0188192442
-0.3891391391391395 	300.0000157846617 	4.573189952551527e-05 	101325.0186619053
-0.3866366366366368 	300.0000156586225 	4.537602079021071e-05 	101325.0185129692
-0.3841341341341344 	300.0000155613043 	4.509830775253413e-05 	101325.0183977752
-0.381631631631632 	300.0000155059453 	4.493989430104898e-05 	101325.0183323678
-0.3791291291291294 	300.0000154960747 	4.490648716899218e-05 	101325.0183202238
-0.3766266266266269 	300.0000155236286 	4.497937128571987e-05 	101325.0183523948
-0.3741241241241244 	300.0000155732183 	4.511578326201258e-05 	101325.0184105753
-0.371621621621622 	300.0000156252459 	4.525754478822445e-05 	101325.0184717287
-0.3691191191191194 	300.0000156605625 	4.535349440243635e-05 	101325.0185130583
-0.366616616616617 	300.000015663585 	4.535676863380794e-05 	101325.0185163327
-0.3641141141141143 	300.0000156252684 	4.524558071803674e-05 	101325.0184710365
-0.3616116116116119 	300.0000155449499 	4.501648191071908e-05 	101325.0183759592
-0.3591091091091095 	300.0000154289598 	4.468428959055391e-05 	101325.0182387353
-0.356606606606607 	300.0000152889593 	4.428575508476593e-05 	101325.0180735211
-0.3541041041041044 	300.0000151401274 	4.385947349133136e-05 	101325.0178978085
-0.3516016016016019 	300.0000149971174 	4.345095727510367e-05 	101325.0177290957
-0.3490990990990994 	300.0000148722037 	4.309378672696684e-05 	101325.0175818375
-0.346596596596597 	300.0000147733073 	4.280776124917313e-05 	101325.0174651642
-0.3440940940940944 	300.000014702444 	4.260246935186149e-05 	101325.0173817215
-0.3415915915915919 	300.0000146565969 	4.246628196075619e-05 	101325.0173278494
-0.3390890890890895 	300.0000146286628 	4.238290478902288e-05 	101325.0172949975
-0.3365865865865869 	300.00001460906 	4.232239091948369e-05 	101325.0172716189
-0.3340840840840844 	300.0000145866089 	4.225290688636204e-05 	101325.0172449903
-0.3315815815815819 	300.0000145513364 	4.21478433245521e-05 	101325.0172030403
-0.3290790790790794 	300.0000144948199 	4.198106454854438e-05 	101325.0171360646
-0.3265765765765769 	300.0000144117139 	4.17411702901319e-05 	101325.0170379781
-0.3240740740740744 	300.0000143011378 	4.142007282520888e-05 	101325.0169069423
-0.3215715715715718 	300.0000141644897 	4.102524463612675e-05 	101325.0167452893
-0.3190690690690695 	300.0000140067237 	4.0572429823952e-05 	101325.0165590697
-0.3165665665665668 	300.0000138363813 	4.008146809364911e-05 	101325.0163575737