/*--------------------------------*- C++ -*----------------------------------*\
  =========                 |
  \\      /  F ield         | OpenFOAM: The Open Source CFD Toolbox
   \\    /   O peration     | Website:  https://openfoam.org
    \\  /    A nd           | Version:  7
     \\/     M anipulation  |
\*---------------------------------------------------------------------------*/
FoamFile
{
    version     2.0;
    format      ascii;
    class       volScalarField;
    location    "0.0025";
    object      p;
}
// * * * * * * * * * * * * * * * * * * * * * * * * * * * * * * * * * * * * * //

dimensions      [1 -1 -2 0 0 0 0];

internalField   nonuniform List<scalar> 
5000
(
109846.13
109846.14
109846.14
109846.14
109846.14
109846.14
109846.14
109846.14
109846.14
109846.14
109846.14
109846.14
109846.14
109846.14
109846.14
109846.14
109846.14
109846.14
109846.14
109846.14
109846.14
109846.14
109846.14
109846.14
109846.14
109846.14
109846.14
109846.14
109846.14
109846.14
109846.14
109846.14
109846.14
109846.14
109846.14
109846.14
109846.14
109846.14
109846.14
109846.14
109846.15
109846.15
109846.15
109846.15
109846.15
109846.15
109846.15
109846.15
109846.15
109846.15
109846.15
109846.15
109846.15
109846.15
109846.15
109846.15
109846.15
109846.15
109846.15
109846.15
109846.15
109846.15
109846.15
109846.15
109846.15
109846.15
109846.15
109846.15
109846.15
109846.15
109846.15
109846.15
109846.15
109846.15
109846.15
109846.15
109846.15
109846.15
109846.15
109846.15
109846.16
109846.16
109846.16
109846.16
109846.16
109846.16
109846.16
109846.16
109846.16
109846.16
109846.16
109846.16
109846.16
109846.16
109846.16
109846.16
109846.16
109846.16
109846.16
109846.16
109846.16
109846.16
109846.16
109846.16
109846.16
109846.16
109846.16
109846.16
109846.16
109846.16
109846.16
109846.16
109846.16
109846.16
109846.16
109846.16
109846.16
109846.16
109846.16
109846.16
109846.16
109846.16
109846.17
109846.17
109846.17
109846.17
109846.17
109846.17
109846.17
109846.17
109846.17
109846.17
109846.17
109846.17
109846.17
109846.17
109846.17
109846.17
109846.17
109846.17
109846.17
109846.17
109846.17
109846.17
109846.17
109846.17
109846.17
109846.17
109846.17
109846.17
109846.17
109846.17
109846.17
109846.17
109846.17
109846.17
109846.17
109846.17
109846.17
109846.17
109846.17
109846.17
109846.17
109846.17
109846.17
109846.18
109846.18
109846.18
109846.18
109846.18
109846.18
109846.18
109846.18
109846.18
109846.18
109846.18
109846.18
109846.18
109846.18
109846.18
109846.18
109846.18
109846.18
109846.18
109846.18
109846.18
109846.18
109846.18
109846.18
109846.18
109846.18
109846.18
109846.18
109846.18
109846.18
109846.18
109846.18
109846.18
109846.18
109846.18
109846.18
109846.18
109846.18
109846.18
109846.18
109846.18
109846.18
109846.18
109846.18
109846.18
109846.19
109846.19
109846.19
109846.19
109846.19
109846.19
109846.19
109846.19
109846.19
109846.19
109846.19
109846.19
109846.19
109846.19
109846.19
109846.19
109846.19
109846.19
109846.19
109846.19
109846.19
109846.19
109846.19
109846.19
109846.19
109846.19
109846.19
109846.19
109846.19
109846.19
109846.19
109846.19
109846.19
109846.19
109846.19
109846.19
109846.19
109846.19
109846.19
109846.19
109846.19
109846.19
109846.19
109846.19
109846.19
109846.2
109846.2
109846.2
109846.2
109846.2
109846.2
109846.2
109846.2
109846.2
109846.2
109846.2
109846.2
109846.2
109846.2
109846.2
109846.2
109846.2
109846.2
109846.2
109846.2
109846.2
109846.2
109846.2
109846.2
109846.2
109846.2
109846.2
109846.2
109846.2
109846.2
109846.2
109846.2
109846.2
109846.2
109846.2
109846.2
109846.2
109846.2
109846.2
109846.2
109846.2
109846.2
109846.2
109846.2
109846.2
109846.2
109846.2
109846.21
109846.21
109846.21
109846.21
109846.21
109846.21
109846.21
109846.21
109846.21
109846.21
109846.21
109846.21
109846.21
109846.21
109846.21
109846.21
109846.21
109846.21
109846.21
109846.21
109846.21
109846.21
109846.21
109846.21
109846.21
109846.21
109846.21
109846.21
109846.21
109846.21
109846.21
109846.21
109846.21
109846.21
109846.21
109846.21
109846.21
109846.21
109846.21
109846.21
109846.21
109846.21
109846.21
109846.21
109846.21
109846.21
109846.21
109846.21
109846.21
109846.22
109846.22
109846.22
109846.22
109846.22
109846.22
109846.22
109846.22
109846.22
109846.22
109846.22
109846.22
109846.22
109846.22
109846.22
109846.22
109846.22
109846.22
109846.22
109846.22
109846.22
109846.22
109846.22
109846.22
109846.22
109846.22
109846.22
109846.22
109846.22
109846.22
109846.22
109846.22
109846.22
109846.22
109846.22
109846.22
109846.22
109846.22
109846.22
109846.22
109846.22
109846.22
109846.22
109846.22
109846.22
109846.22
109846.22
109846.22
109846.22
109846.22
109846.22
109846.22
109846.23
109846.23
109846.23
109846.23
109846.23
109846.23
109846.23
109846.23
109846.23
109846.23
109846.23
109846.23
109846.23
109846.23
109846.23
109846.23
109846.23
109846.23
109846.23
109846.23
109846.23
109846.23
109846.23
109846.23
109846.23
109846.23
109846.23
109846.23
109846.23
109846.23
109846.23
109846.23
109846.23
109846.23
109846.23
109846.23
109846.23
109846.23
109846.23
109846.23
109846.23
109846.23
109846.23
109846.23
109846.23
109846.23
109846.23
109846.23
109846.23
109846.23
109846.23
109846.23
109846.23
109846.23
109846.24
109846.24
109846.24
109846.24
109846.24
109846.24
109846.24
109846.24
109846.24
109846.24
109846.24
109846.24
109846.24
109846.24
109846.24
109846.24
109846.24
109846.24
109846.24
109846.24
109846.24
109846.24
109846.24
109846.24
109846.24
109846.24
109846.24
109846.24
109846.24
109846.24
109846.24
109846.24
109846.24
109846.24
109846.24
109846.24
109846.24
109846.24
109846.24
109846.24
109846.24
109846.24
109846.24
109846.24
109846.24
109846.24
109846.24
109846.24
109846.24
109846.24
109846.24
109846.24
109846.24
109846.24
109846.24
109846.24
109846.24
109846.25
109846.25
109846.25
109846.25
109846.25
109846.25
109846.25
109846.25
109846.25
109846.25
109846.25
109846.25
109846.25
109846.25
109846.25
109846.25
109846.25
109846.25
109846.25
109846.25
109846.25
109846.25
109846.25
109846.25
109846.25
109846.25
109846.25
109846.25
109846.25
109846.25
109846.25
109846.25
109846.25
109846.25
109846.25
109846.25
109846.25
109846.25
109846.25
109846.25
109846.25
109846.25
109846.25
109846.25
109846.25
109846.25
109846.25
109846.25
109846.25
109846.25
109846.25
109846.25
109846.25
109846.25
109846.25
109846.25
109846.25
109846.25
109846.25
109846.26
109846.26
109846.26
109846.26
109846.26
109846.26
109846.26
109846.26
109846.26
109846.26
109846.26
109846.26
109846.26
109846.26
109846.26
109846.26
109846.26
109846.26
109846.26
109846.26
109846.26
109846.26
109846.26
109846.26
109846.26
109846.26
109846.26
109846.26
109846.26
109846.26
109846.26
109846.26
109846.26
109846.26
109846.26
109846.26
109846.26
109846.26
109846.26
109846.26
109846.26
109846.26
109846.26
109846.26
109846.26
109846.26
109846.26
109846.26
109846.26
109846.26
109846.26
109846.26
109846.26
109846.26
109846.26
109846.26
109846.26
109846.26
109846.26
109846.26
109846.26
109846.27
109846.27
109846.27
109846.27
109846.27
109846.27
109846.27
109846.27
109846.27
109846.27
109846.27
109846.27
109846.27
109846.27
109846.27
109846.27
109846.27
109846.27
109846.27
109846.27
109846.27
109846.27
109846.27
109846.27
109846.27
109846.27
109846.27
109846.27
109846.27
109846.27
109846.27
109846.27
109846.27
109846.27
109846.27
109846.27
109846.27
109846.27
109846.27
109846.27
109846.27
109846.27
109846.27
109846.27
109846.27
109846.27
109846.27
109846.27
109846.27
109846.27
109846.27
109846.27
109846.27
109846.27
109846.27
109846.27
109846.27
109846.27
109846.27
109846.27
109846.27
109846.27
109846.28
109846.28
109846.28
109846.28
109846.28
109846.28
109846.28
109846.28
109846.28
109846.28
109846.28
109846.28
109846.28
109846.28
109846.28
109846.28
109846.28
109846.28
109846.28
109846.28
109846.28
109846.28
109846.28
109846.28
109846.28
109846.28
109846.28
109846.28
109846.28
109846.28
109846.28
109846.28
109846.28
109846.28
109846.28
109846.28
109846.28
109846.28
109846.28
109846.28
109846.28
109846.28
109846.28
109846.28
109846.28
109846.28
109846.28
109846.28
109846.28
109846.28
109846.28
109846.28
109846.28
109846.28
109846.28
109846.28
109846.28
109846.28
109846.28
109846.28
109846.28
109846.28
109846.29
109846.29
109846.29
109846.29
109846.29
109846.29
109846.29
109846.29
109846.29
109846.29
109846.29
109846.29
109846.29
109846.29
109846.29
109846.29
109846.29
109846.29
109846.29
109846.29
109846.29
109846.29
109846.29
109846.29
109846.29
109846.29
109846.29
109846.29
109846.29
109846.29
109846.29
109846.29
109846.29
109846.29
109846.29
109846.29
109846.29
109846.29
109846.29
109846.29
109846.29
109846.29
109846.29
109846.29
109846.29
109846.29
109846.29
109846.29
109846.29
109846.29
109846.29
109846.29
109846.29
109846.29
109846.29
109846.29
109846.29
109846.29
109846.29
109846.29
109846.29
109846.3
109846.3
109846.3
109846.3
109846.3
109846.3
109846.3
109846.3
109846.3
109846.3
109846.3
109846.3
109846.3
109846.3
109846.3
109846.3
109846.3
109846.3
109846.3
109846.3
109846.3
109846.3
109846.3
109846.3
109846.3
109846.3
109846.3
109846.3
109846.3
109846.3
109846.3
109846.3
109846.3
109846.3
109846.3
109846.3
109846.3
109846.3
109846.3
109846.3
109846.3
109846.3
109846.3
109846.3
109846.3
109846.3
109846.3
109846.3
109846.3
109846.3
109846.3
109846.3
109846.3
109846.3
109846.3
109846.3
109846.3
109846.3
109846.3
109846.3
109846.3
109846.31
109846.31
109846.31
109846.31
109846.31
109846.31
109846.31
109846.31
109846.31
109846.31
109846.31
109846.31
109846.31
109846.31
109846.31
109846.31
109846.31
109846.31
109846.31
109846.31
109846.31
109846.31
109846.31
109846.31
109846.31
109846.31
109846.31
109846.31
109846.31
109846.31
109846.31
109846.31
109846.31
109846.31
109846.31
109846.31
109846.31
109846.31
109846.31
109846.31
109846.31
109846.31
109846.31
109846.31
109846.31
109846.31
109846.31
109846.31
109846.31
109846.31
109846.31
109846.31
109846.31
109846.31
109846.31
109846.31
109846.31
109846.31
109846.31
109846.31
109846.31
109846.31
109846.32
109846.32
109846.32
109846.32
109846.32
109846.32
109846.32
109846.32
109846.32
109846.32
109846.32
109846.32
109846.32
109846.32
109846.32
109846.32
109846.32
109846.32
109846.32
109846.32
109846.32
109846.32
109846.32
109846.32
109846.32
109846.32
109846.32
109846.32
109846.32
109846.32
109846.32
109846.32
109846.32
109846.32
109846.32
109846.32
109846.32
109846.32
109846.32
109846.32
109846.32
109846.32
109846.32
109846.32
109846.32
109846.32
109846.32
109846.32
109846.32
109846.32
109846.32
109846.32
109846.32
109846.32
109846.32
109846.32
109846.32
109846.32
109846.32
109846.32
109846.32
109846.32
109846.32
109846.32
109846.32
109846.32
109846.32
109846.32
109846.32
109846.33
109846.33
109846.33
109846.33
109846.33
109846.33
109846.33
109846.33
109846.33
109846.33
109846.33
109846.33
109846.33
109846.33
109846.33
109846.33
109846.33
109846.33
109846.33
109846.33
109846.33
109846.33
109846.33
109846.33
109846.33
109846.33
109846.33
109846.33
109846.33
109846.33
109846.33
109846.33
109846.33
109846.33
109846.33
109846.33
109846.33
109846.33
109846.33
109846.33
109846.33
109846.33
109846.33
109846.33
109846.33
109846.33
109846.33
109846.33
109846.33
109846.33
109846.33
109846.33
109846.33
109846.33
109846.33
109846.33
109846.33
109846.33
109846.33
109846.33
109846.33
109846.33
109846.33
109846.33
109846.33
109846.33
109846.33
109846.33
109846.33
109846.33
109846.33
109846.33
109846.33
109846.33
109846.33
109846.33
109846.33
109846.33
109846.33
109846.33
109846.33
109846.33
109846.33
109846.33
109846.33
109846.33
109846.33
109846.33
109846.33
109846.33
109846.33
109846.33
109846.33
109846.33
109846.33
109846.33
109846.33
109846.33
109846.33
109846.33
109846.33
109846.33
109846.33
109846.33
109846.33
109846.33
109846.33
109846.33
109846.33
109846.33
109846.33
109846.33
109846.34
109846.34
109846.34
109846.34
109846.34
109846.34
109846.34
109846.34
109846.34
109846.34
109846.34
109846.34
109846.34
109846.34
109846.34
109846.34
109846.34
109846.34
109846.34
109846.34
109846.34
109846.34
109846.34
109846.34
109846.34
109846.34
109846.34
109846.34
109846.34
109846.34
109846.34
109846.34
109846.34
109846.34
109846.34
109846.34
109846.34
109846.34
109846.34
109846.34
109846.34
109846.34
109846.34
109846.34
109846.34
109846.34
109846.33
109846.33
109846.33
109846.33
109846.33
109846.33
109846.33
109846.33
109846.33
109846.33
109846.33
109846.33
109846.33
109846.33
109846.33
109846.33
109846.33
109846.33
109846.33
109846.33
109846.33
109846.33
109846.33
109846.33
109846.33
109846.33
109846.33
109846.33
109846.33
109846.33
109846.33
109846.33
109846.33
109846.33
109846.33
109846.33
109846.33
109846.33
109846.33
109846.33
109846.33
109846.33
109846.33
109846.33
109846.33
109846.33
109846.33
109846.33
109846.33
109846.33
109846.33
109846.33
109846.33
109846.33
109846.33
109846.33
109846.33
109846.33
109846.33
109846.33
109846.33
109846.33
109846.33
109846.33
109846.33
109846.33
109846.32
109846.32
109846.32
109846.32
109846.32
109846.32
109846.32
109846.32
109846.32
109846.32
109846.32
109846.32
109846.32
109846.32
109846.32
109846.32
109846.32
109846.32
109846.32
109846.32
109846.31
109846.31
109846.31
109846.31
109846.31
109846.31
109846.31
109846.31
109846.31
109846.31
109846.31
109846.31
109846.3
109846.3
109846.3
109846.3
109846.3
109846.3
109846.3
109846.3
109846.3
109846.29
109846.29
109846.29
109846.29
109846.29
109846.29
109846.29
109846.28
109846.28
109846.28
109846.28
109846.28
109846.28
109846.27
109846.27
109846.27
109846.27
109846.27
109846.26
109846.26
109846.26
109846.26
109846.25
109846.25
109846.25
109846.25
109846.24
109846.24
109846.24
109846.23
109846.23
109846.23
109846.22
109846.22
109846.22
109846.21
109846.21
109846.21
109846.2
109846.2
109846.19
109846.19
109846.19
109846.18
109846.18
109846.17
109846.17
109846.16
109846.16
109846.15
109846.14
109846.14
109846.13
109846.13
109846.12
109846.11
109846.11
109846.1
109846.09
109846.09
109846.08
109846.07
109846.06
109846.05
109846.05
109846.04
109846.03
109846.02
109846.01
109846
109845.99
109845.98
109845.97
109845.96
109845.95
109845.94
109845.93
109845.92
109845.9
109845.89
109845.88
109845.86
109845.85
109845.84
109845.82
109845.81
109845.79
109845.78
109845.76
109845.75
109845.73
109845.71
109845.7
109845.68
109845.66
109845.64
109845.62
109845.6
109845.58
109845.56
109845.54
109845.52
109845.5
109845.47
109845.45
109845.43
109845.4
109845.38
109845.35
109845.32
109845.3
109845.27
109845.24
109845.21
109845.18
109845.15
109845.12
109845.09
109845.05
109845.02
109844.99
109844.95
109844.92
109844.88
109844.84
109844.8
109844.76
109844.72
109844.68
109844.64
109844.6
109844.55
109844.51
109844.46
109844.41
109844.37
109844.32
109844.27
109844.22
109844.16
109844.11
109844.06
109844
109843.94
109843.88
109843.83
109843.76
109843.7
109843.64
109843.57
109843.51
109843.44
109843.37
109843.3
109843.23
109843.16
109843.08
109843.01
109842.93
109842.85
109842.77
109842.69
109842.61
109842.52
109842.43
109842.35
109842.26
109842.16
109842.07
109841.97
109841.88
109841.78
109841.68
109841.57
109841.47
109841.36
109841.25
109841.14
109841.03
109840.92
109840.8
109840.68
109840.56
109840.44
109840.31
109840.19
109840.06
109839.93
109839.79
109839.66
109839.52
109839.38
109839.23
109839.09
109838.94
109838.79
109838.64
109838.48
109838.32
109838.16
109838
109837.83
109837.67
109837.5
109837.32
109837.15
109836.97
109836.78
109836.6
109836.41
109836.22
109836.03
109835.83
109835.64
109835.43
109835.23
109835.02
109834.81
109834.6
109834.38
109834.16
109833.94
109833.71
109833.48
109833.25
109833.01
109832.77
109832.53
109832.28
109832.03
109831.78
109831.53
109831.27
109831
109830.74
109830.47
109830.19
109829.92
109829.64
109829.35
109829.07
109828.78
109828.48
109828.18
109827.88
109827.57
109827.26
109826.95
109826.63
109826.31
109825.99
109825.66
109825.33
109824.99
109824.65
109824.31
109823.96
109823.61
109823.25
109822.89
109822.53
109822.16
109821.79
109821.41
109821.03
109820.65
109820.26
109819.87
109819.47
109819.07
109818.67
109818.26
109817.84
109817.43
109817
109816.58
109816.15
109815.71
109815.28
109814.83
109814.39
109813.93
109813.48
109813.02
109812.55
109812.09
109811.61
109811.14
109810.65
109810.17
109809.68
109809.18
109808.68
109808.18
109807.67
109807.16
109806.64
109806.12
109805.6
109805.07
109804.53
109803.99
109803.45
109802.9
109802.35
109801.8
109801.24
109800.67
109800.1
109799.53
109798.95
109798.37
109797.78
109797.19
109796.59
109795.99
109795.39
109794.78
109794.17
109793.55
109792.93
109792.3
109791.67
109791.04
109790.4
109789.76
109789.11
109788.46
109787.8
109787.14
109786.48
109785.81
109785.14
109784.46
109783.78
109783.1
109782.41
109781.72
109781.02
109780.32
109779.61
109778.9
109778.19
109777.47
109776.75
109776.03
109775.3
109774.57
109773.83
109773.09
109772.34
109771.6
109770.84
109770.09
109769.33
109768.57
109767.8
109767.03
109766.25
109765.48
109764.7
109763.91
109763.12
109762.33
109761.54
109760.74
109759.94
109759.13
109758.32
109757.51
109756.69
109755.87
109755.05
109754.23
109753.4
109752.57
109751.73
109750.9
109750.06
109749.21
109748.37
109747.52
109746.67
109745.81
109744.95
109744.09
109743.23
109742.36
109741.49
109740.62
109739.75
109738.87
109737.99
109737.11
109736.23
109735.34
109734.45
109733.56
109732.67
109731.78
109730.88
109729.98
109729.08
109728.17
109727.27
109726.36
109725.45
109724.54
109723.62
109722.71
109721.79
109720.87
109719.95
109719.03
109718.11
109717.18
109716.25
109715.33
109714.4
109713.46
109712.53
109711.6
109710.66
109709.73
109708.79
109707.85
109706.91
109705.97
109705.03
109704.08
109703.14
109702.2
109701.25
109700.3
109699.36
109698.41
109697.46
109696.51
109695.56
109694.61
109693.66
109692.71
109691.76
109690.8
109689.85
109688.9
109687.95
109686.99
109686.04
109685.09
109684.13
109683.18
109682.23
109681.27
109680.32
109679.37
109678.42
109677.46
109676.51
109675.56
109674.61
109673.66
109672.7
109671.75
109670.8
109669.85
109668.91
109667.96
109667.01
109666.06
109665.12
109664.17
109663.23
109662.29
109661.34
109660.4
109659.46
109658.52
109657.58
109656.65
109655.71
109654.77
109653.84
109652.91
109651.98
109651.05
109650.12
109649.19
109648.27
109647.34
109646.42
109645.5
109644.58
109643.66
109642.74
109641.83
109640.92
109640
109639.09
109638.19
109637.28
109636.38
109635.48
109634.57
109633.68
109632.78
109631.89
109630.99
109630.1
109629.22
109628.33
109627.45
109626.56
109625.69
109624.81
109623.93
109623.06
109622.19
109621.32
109620.46
109619.59
109618.73
109617.88
109617.02
109616.17
109615.32
109614.47
109613.62
109612.78
109611.94
109611.1
109610.27
109609.43
109608.6
109607.78
109606.95
109606.13
109605.31
109604.5
109603.68
109602.87
109602.06
109601.26
109600.46
109599.66
109598.86
109598.07
109597.28
109596.49
109595.71
109594.92
109594.15
109593.37
109592.6
109591.83
109591.06
109590.3
109589.54
109588.78
109588.03
109587.27
109586.53
109585.78
109585.04
109584.3
109583.56
109582.83
109582.1
109581.38
109580.65
109579.93
109579.22
109578.5
109577.79
109577.08
109576.38
109575.68
109574.98
109574.29
109573.6
109572.91
109572.22
109571.54
109570.86
109570.19
109569.51
109568.84
109568.18
109567.52
109566.86
109566.2
109565.55
109564.9
109564.25
109563.61
109562.97
109562.33
109561.7
109561.06
109560.44
109559.81
109559.19
109558.57
109557.96
109557.35
109556.74
109556.13
109555.53
109554.93
109554.34
109553.74
109553.15
109552.57
109551.98
109551.4
109550.83
109550.25
109549.68
109549.11
109548.55
109547.99
109547.43
109546.87
109546.32
109545.77
109545.23
109544.68
109544.14
109543.61
109543.07
109542.54
109542.01
109541.49
109540.96
109540.44
109539.93
109539.41
109538.9
109538.4
109537.89
109537.39
109536.89
109536.4
109535.9
109535.41
109534.93
109534.44
109533.96
109533.48
109533
109532.53
109532.06
109531.59
109531.13
109530.67
109530.21
109529.75
109529.3
109528.85
109528.4
109527.95
109527.51
109527.07
109526.63
109526.2
109525.77
109525.34
109524.91
109524.49
109524.07
109523.65
109523.23
109522.82
109522.41
109522
109521.59
109521.19
109520.79
109520.39
109520
109519.6
109519.21
109518.82
109518.44
109518.06
109517.68
109517.3
109516.92
109516.55
109516.18
109515.81
109515.44
109515.08
109514.72
109514.36
109514.01
109513.65
109513.3
109512.95
109512.61
109512.26
109511.92
109511.58
109511.24
109510.91
109510.58
109510.24
109509.92
109509.59
109509.27
109508.95
109508.63
109508.31
109508
109507.69
109507.38
109507.07
109506.76
109506.46
109506.16
109505.86
109505.56
109505.27
109504.98
109504.69
109504.4
109504.11
109503.83
109503.55
109503.27
109502.99
109502.72
109502.45
109502.18
109501.91
109501.64
109501.38
109501.11
109500.85
109500.6
109500.34
109500.08
109499.83
109499.58
109499.34
109499.09
109498.85
109498.6
109498.36
109498.13
109497.89
109497.66
109497.42
109497.19
109496.97
109496.74
109496.52
109496.29
109496.07
109495.86
109495.64
109495.42
109495.21
109495
109494.79
109494.59
109494.38
109494.18
109493.98
109493.78
109493.58
109493.38
109493.19
109493
109492.81
109492.62
109492.43
109492.25
109492.06
109491.88
109491.7
109491.52
109491.35
109491.17
109491
109490.83
109490.66
109490.49
109490.33
109490.16
109490
109489.84
109489.68
109489.52
109489.37
109489.21
109489.06
109488.91
109488.76
109488.61
109488.47
109488.32
109488.18
109488.04
109487.9
109487.76
109487.62
109487.49
109487.35
109487.22
109487.09
109486.96
109486.83
109486.71
109486.58
109486.46
109486.34
109486.22
109486.1
109485.98
109485.86
109485.75
109485.63
109485.52
109485.41
109485.3
109485.19
109485.09
109484.98
109484.88
109484.77
109484.67
109484.57
109484.47
109484.38
109484.28
109484.18
109484.09
109484
109483.9
109483.81
109483.73
109483.64
109483.55
109483.46
109483.38
109483.3
109483.21
109483.13
109483.05
109482.97
109482.9
109482.82
109482.74
109482.67
109482.59
109482.52
109482.45
109482.38
109482.31
109482.24
109482.17
109482.11
109482.04
109481.98
109481.91
109481.85
109481.79
109481.73
109481.67
109481.61
109481.55
109481.49
109481.44
109481.38
109481.33
109481.27
109481.22
109481.17
109481.12
109481.07
109481.02
109480.97
109480.92
109480.87
109480.82
109480.78
109480.73
109480.69
109480.64
109480.6
109480.56
109480.52
109480.48
109480.43
109480.4
109480.36
109480.32
109480.28
109480.24
109480.21
109480.17
109480.14
109480.1
109480.07
109480.03
109480
109479.97
109479.94
109479.91
109479.87
109479.84
109479.81
109479.79
109479.76
109479.73
109479.7
109479.67
109479.65
109479.62
109479.6
109479.57
109479.55
109479.52
109479.5
109479.48
109479.45
109479.43
109479.41
109479.39
109479.37
109479.34
109479.32
109479.3
109479.28
109479.27
109479.25
109479.23
109479.21
109479.19
109479.17
109479.16
109479.14
109479.12
109479.11
109479.09
109479.08
109479.06
109479.05
109479.03
109479.02
109479
109478.99
109478.98
109478.96
109478.95
109478.94
109478.93
109478.91
109478.9
109478.89
109478.88
109478.87
109478.86
109478.85
109478.84
109478.83
109478.82
109478.81
109478.8
109478.79
109478.78
109478.77
109478.76
109478.75
109478.74
109478.74
109478.73
109478.72
109478.71
109478.71
109478.7
109478.69
109478.68
109478.68
109478.67
109478.66
109478.66
109478.65
109478.65
109478.64
109478.63
109478.63
109478.62
109478.62
109478.61
109478.61
109478.6
109478.6
109478.59
109478.59
109478.58
109478.58
109478.57
109478.57
109478.57
109478.56
109478.56
109478.55
109478.55
109478.55
109478.54
109478.54
109478.54
109478.53
109478.53
109478.53
109478.52
109478.52
109478.52
109478.51
109478.51
109478.51
109478.51
109478.5
109478.5
109478.5
109478.5
109478.49
109478.49
109478.49
109478.49
109478.48
109478.48
109478.48
109478.48
109478.48
109478.47
109478.47
109478.47
109478.47
109478.47
109478.47
109478.46
109478.46
109478.46
109478.46
109478.46
109478.46
109478.46
109478.45
109478.45
109478.45
109478.45
109478.45
109478.45
109478.45
109478.45
109478.45
109478.44
109478.44
109478.44
109478.44
109478.44
109478.44
109478.44
109478.44
109478.44
109478.44
109478.44
109478.44
109478.43
109478.43
109478.43
109478.43
109478.43
109478.43
109478.43
109478.43
109478.43
109478.43
109478.43
109478.43
109478.43
109478.43
109478.43
109478.43
109478.43
109478.43
109478.42
109478.42
109478.42
109478.42
109478.42
109478.42
109478.42
109478.42
109478.42
109478.42
109478.42
109478.42
109478.42
109478.42
109478.42
109478.42
109478.42
109478.42
109478.42
109478.42
109478.42
109478.42
109478.42
109478.42
109478.42
109478.42
109478.42
109478.42
109478.42
109478.42
109478.42
109478.42
109478.42
109478.42
109478.42
109478.42
109478.42
109478.42
109478.42
109478.42
109478.42
109478.42
109478.41
109478.41
109478.41
109478.41
109478.41
109478.41
109478.41
109478.41
109478.41
109478.41
109478.41
109478.41
109478.41
109478.41
109478.41
109478.41
109478.41
109478.41
109478.41
109478.41
109478.41
109478.41
109478.41
109478.41
109478.41
109478.41
109478.41
109478.41
109478.41
109478.41
109478.41
109478.41
109478.41
109478.41
109478.41
109478.41
109478.41
109478.41
109478.41
109478.41
109478.41
109478.41
109478.41
109478.41
109478.41
109478.41
109478.41
109478.41
109478.41
109478.41
109478.41
109478.41
109478.41
109478.41
109478.41
109478.41
109478.41
109478.41
109478.41
109478.41
109478.41
109478.41
109478.41
109478.41
109478.41
109478.41
109478.41
109478.41
109478.41
109478.41
109478.41
109478.41
109478.41
109478.41
109478.41
109478.41
109478.41
109478.41
109478.41
109478.41
109478.41
109478.41
109478.41
109478.41
109478.41
109478.41
109478.41
109478.41
109478.41
109478.41
109478.41
109478.41
109478.41
109478.41
109478.41
109478.41
109478.41
109478.41
109478.41
109478.41
109478.41
109478.41
109478.41
109478.41
109478.41
109478.41
109478.41
109478.41
109478.41
109478.41
109478.41
109478.41
109478.41
109478.41
109478.41
109478.41
109478.41
109478.41
109478.41
109478.41
109478.41
109478.41
109478.41
109478.41
109478.41
109478.41
109478.41
109478.41
109478.41
109478.41
109478.41
109478.41
109478.41
109478.41
109478.41
109478.41
109478.41
109478.41
109478.41
109478.41
109478.41
109478.41
109478.41
109478.41
109478.41
109478.41
109478.41
109478.41
109478.41
109478.41
109478.41
109478.41
109478.41
109478.41
109478.41
109478.41
109478.41
109478.41
109478.41
109478.41
109478.41
109478.41
109478.41
109478.41
109478.41
109478.41
109478.41
109478.41
109478.41
109478.41
109478.41
109478.41
109478.41
109478.41
109478.41
109478.41
109478.41
109478.41
109478.41
109478.41
109478.41
109478.41
109478.41
109478.41
109478.41
109478.41
109478.41
109478.41
109478.41
109478.41
109478.41
109478.41
109478.41
109478.41
109478.41
109478.41
109478.41
109478.41
109478.41
109478.41
109478.41
109478.41
109478.41
109478.41
109478.41
109478.41
109478.41
109478.41
109478.41
109478.41
109478.41
109478.41
109478.41
109478.41
109478.41
109478.41
109478.41
109478.41
109478.41
109478.41
109478.41
109478.41
109478.41
109478.41
109478.41
109478.41
109478.41
109478.41
109478.41
109478.41
109478.41
109478.41
109478.41
109478.41
109478.41
109478.41
109478.41
109478.41
109478.41
109478.41
109478.41
109478.41
109478.41
109478.41
109478.41
109478.41
109478.41
109478.41
109478.41
109478.41
109478.41
109478.41
109478.41
109478.41
109478.41
109478.41
109478.41
109478.41
109478.41
109478.41
109478.41
109478.41
109478.41
109478.41
109478.41
109478.41
109478.41
109478.41
109478.41
109478.41
109478.41
109478.41
109478.41
109478.41
109478.41
109478.41
109478.41
109478.41
109478.41
109478.41
109478.41
109478.41
109478.41
109478.41
109478.41
109478.41
109478.41
109478.41
109478.41
109478.41
109478.41
109478.41
109478.41
109478.41
109478.41
109478.41
109478.41
109478.41
109478.41
109478.41
109478.41
109478.41
109478.41
109478.41
109478.41
109478.41
109478.41
109478.41
109478.41
109478.41
109478.41
109478.41
109478.41
109478.41
109478.41
109478.41
109478.41
109478.41
109478.41
109478.41
109478.41
109478.41
109478.41
109478.41
109478.41
109478.41
109478.41
109478.41
109478.41
109478.41
109478.41
109478.41
109478.41
109478.41
109478.41
109478.41
109478.41
109478.41
109478.41
109478.41
109478.41
109478.41
109478.41
109478.41
109478.41
109478.41
109478.41
109478.4
109478.4
109478.4
109478.4
109478.4
109478.41
109478.41
109478.41
109478.41
109478.42
109478.42
109478.43
109478.38
109478.39
109478.4
109478.4
109478.4
109478.4
109478.4
109478.41
109478.41
109478.41
109478.41
109478.41
109478.41
109478.4
109478.4
109478.4
109478.4
109478.4
109478.4
109478.4
109478.4
109478.4
109478.4
109478.4
109478.4
109478.4
109478.4
109478.4
109478.4
109478.4
109478.4
109478.4
109478.4
109478.4
109478.4
109478.4
109478.4
109478.4
109478.4
109478.4
109478.4
109478.4
109478.4
109478.4
109478.4
109478.4
109478.39
109478.39
109478.39
109478.39
109478.39
109478.39
109478.39
109478.39
109478.39
109478.39
109478.39
109478.39
109478.39
109478.39
109478.38
109478.38
109478.38
109478.38
109478.38
109478.38
109478.38
109478.38
109478.38
109478.38
109478.37
109478.37
109478.37
109478.37
109478.37
109478.37
109478.36
109478.36
109478.36
109478.36
109478.36
109478.36
109478.35
109478.35
109478.35
109478.35
109478.34
109478.34
109478.34
109478.34
109478.33
109478.33
109478.33
109478.32
109478.32
109478.32
109478.31
109478.31
109478.31
109478.3
109478.3
109478.3
109478.29
109478.29
109478.28
109478.28
109478.27
109478.27
109478.26
109478.26
109478.25
109478.25
109478.24
109478.23
109478.23
109478.22
109478.21
109478.21
109478.2
109478.19
109478.18
109478.18
109478.17
109478.16
109478.15
109478.14
109478.13
109478.12
109478.11
109478.1
109478.09
109478.08
109478.06
109478.05
109478.04
109478.03
109478.01
109478
109477.99
109477.97
109477.96
109477.94
109477.92
109477.91
109477.89
109477.87
109477.85
109477.83
109477.81
109477.79
109477.77
109477.75
109477.73
109477.71
109477.68
109477.66
109477.63
109477.61
109477.58
109477.55
109477.52
109477.49
109477.46
109477.43
109477.4
109477.37
109477.33
109477.3
109477.26
109477.22
109477.19
109477.15
109477.1
109477.06
109477.02
109476.97
109476.93
109476.88
109476.83
109476.78
109476.73
109476.68
109476.62
109476.57
109476.51
109476.45
109476.39
109476.32
109476.26
109476.19
109476.12
109476.05
109475.98
109475.91
109475.83
109475.75