/*--------------------------------*- C++ -*----------------------------------*\
  =========                 |
  \\      /  F ield         | OpenFOAM: The Open Source CFD Toolbox
   \\    /   O peration     | Website:  https://openfoam.org
    \\  /    A nd           | Version:  7
     \\/     M anipulation  |
\*---------------------------------------------------------------------------*/
FoamFile
{
    version     2.0;
    format      ascii;
    class       volScalarField;
    location    "0.00319";
    object      p;
}
// * * * * * * * * * * * * * * * * * * * * * * * * * * * * * * * * * * * * * //

dimensions      [1 -1 -2 0 0 0 0];

internalField   nonuniform List<scalar> 
5000
(
62191.327
62194.575
62198.027
62201.492
62204.958
62208.422
62211.883
62215.342
62218.799
62222.254
62225.708
62229.16
62232.612
62236.062
62239.512
62242.96
62246.408
62249.855
62253.3
62256.745
62260.188
62263.63
62267.071
62270.51
62273.948
62277.385
62280.82
62284.253
62287.685
62291.116
62294.545
62297.972
62301.397
62304.821
62308.243
62311.664
62315.083
62318.5
62321.916
62325.329
62328.741
62332.152
62335.56
62338.967
62342.372
62345.776
62349.177
62352.577
62355.975
62359.372
62362.766
62366.159
62369.55
62372.94
62376.327
62379.713
62383.097
62386.48
62389.86
62393.239
62396.616
62399.992
62403.365
62406.737
62410.107
62413.476
62416.842
62420.207
62423.57
62426.932
62430.291
62433.649
62437.005
62440.36
62443.713
62447.063
62450.413
62453.76
62457.106
62460.45
62463.792
62467.132
62470.471
62473.808
62477.143
62480.477
62483.809
62487.139
62490.467
62493.794
62497.119
62500.442
62503.763
62507.083
62510.401
62513.717
62517.031
62520.344
62523.655
62526.964
62530.272
62533.578
62536.882
62540.184
62543.485
62546.783
62550.081
62553.376
62556.67
62559.961
62563.252
62566.54
62569.827
62573.112
62576.395
62579.677
62582.957
62586.235
62589.512
62592.786
62596.059
62599.331
62602.6
62605.868
62609.134
62612.399
62615.661
62618.922
62622.182
62625.439
62628.695
62631.949
62635.202
62638.453
62641.702
62644.949
62648.194
62651.438
62654.681
62657.921
62661.16
62664.397
62667.632
62670.866
62674.098
62677.328
62680.557
62683.784
62687.009
62690.233
62693.454
62696.674
62699.893
62703.11
62706.325
62709.538
62712.749
62715.959
62719.168
62722.374
62725.579
62728.782
62731.984
62735.184
62738.382
62741.578
62744.773
62747.966
62751.158
62754.348
62757.536
62760.722
62763.907
62767.09
62770.271
62773.451
62776.629
62779.806
62782.98
62786.154
62789.325
62792.495
62795.663
62798.829
62801.994
62805.157
62808.319
62811.479
62814.637
62817.793
62820.948
62824.101
62827.253
62830.403
62833.551
62836.698
62839.843
62842.987
62846.128
62849.269
62852.407
62855.544
62858.68
62861.813
62864.946
62868.076
62871.205
62874.332
62877.458
62880.582
62883.705
62886.826
62889.945
62893.063
62896.179
62899.294
62902.407
62905.519
62908.629
62911.737
62914.844
62917.95
62921.053
62924.156
62927.256
62930.356
62933.453
62936.55
62939.644
62942.738
62945.829
62948.92
62952.008
62955.096
62958.181
62961.266
62964.348
62967.43
62970.51
62973.588
62976.665
62979.741
62982.815
62985.888
62988.959
62992.029
62995.097
62998.165
63001.23
63004.295
63007.358
63010.419
63013.479
63016.538
63019.596
63022.652
63025.707
63028.761
63031.813
63034.864
63037.914
63040.963
63044.01
63047.056
63050.101
63053.145
63056.187
63059.229
63062.269
63065.308
63068.345
63071.382
63074.417
63077.452
63080.485
63083.517
63086.549
63089.579
63092.608
63095.636
63098.663
63101.689
63104.714
63107.738
63110.761
63113.783
63116.804
63119.825
63122.844
63125.863
63128.881
63131.897
63134.913
63137.929
63140.943
63143.957
63146.97
63149.982
63152.994
63156.004
63159.014
63162.024
63165.032
63168.041
63171.048
63174.055
63177.061
63180.067
63183.072
63186.077
63189.081
63192.085
63195.088
63198.091
63201.093
63204.095
63207.096
63210.097
63213.098
63216.099
63219.099
63222.098
63225.098
63228.097
63231.096
63234.095
63237.093
63240.091
63243.089
63246.087
63249.085
63252.082
63255.08
63258.077
63261.074
63264.071
63267.068
63270.065
63273.062
63276.059
63279.056
63282.053
63285.05
63288.046
63291.043
63294.04
63297.037
63300.034
63303.031
63306.029
63309.026
63312.023
63315.021
63318.018
63321.016
63324.014
63327.012
63330.01
63333.008
63336.007
63339.005
63342.004
63345.002
63348.001
63351
63354
63356.999
63359.998
63362.998
63365.997
63368.997
63371.997
63374.997
63377.997
63380.997
63383.998
63386.998
63389.998
63392.999
63395.999
63399
63402
63405.001
63408.002
63411.002
63414.003
63417.004
63420.004
63423.005
63426.005
63429.005
63432.006
63435.006
63438.006
63441.005
63444.005
63447.005
63450.004
63453.003
63456.002
63459
63461.999
63464.997
63467.994
63470.992
63473.989
63476.985
63479.981
63482.977
63485.973
63488.967
63491.962
63494.956
63497.949
63500.942
63503.934
63506.925
63509.916
63512.907
63515.896
63518.885
63521.873
63524.861
63527.847
63530.833
63533.818
63536.803
63539.786
63542.768
63545.75
63548.731
63551.71
63554.689
63557.667
63560.643
63563.619
63566.593
63569.567
63572.539
63575.51
63578.48
63581.449
63584.416
63587.383
63590.348
63593.312
63596.274
63599.235
63602.195
63605.154
63608.111
63611.067
63614.021
63616.974
63619.926
63622.876
63625.824
63628.771
63631.717
63634.661
63637.604
63640.545
63643.484
63646.422
63649.358
63652.293
63655.226
63658.157
63661.087
63664.015
63666.941
63669.866
63672.788
63675.71
63678.629
63681.547
63684.463
63687.377
63690.29
63693.201
63696.109
63699.017
63701.922
63704.826
63707.727
63710.627
63713.525
63716.421
63719.316
63722.208
63725.099
63727.988
63730.875
63733.76
63736.643
63739.524
63742.403
63745.281
63748.157
63751.03
63753.902
63756.772
63759.64
63762.506
63765.369
63768.232
63771.092
63773.95
63776.806
63779.66
63782.513
63785.363
63788.212
63791.058
63793.903
63796.745
63799.586
63802.424
63805.261
63808.095
63810.928
63813.759
63816.588
63819.414
63822.239
63825.062
63827.883
63830.701
63833.518
63836.333
63839.146
63841.957
63844.766
63847.572
63850.377
63853.18
63855.981
63858.78
63861.577
63864.372
63867.165
63869.955
63872.744
63875.531
63878.316
63881.099
63883.88
63886.659
63889.436
63892.21
63894.983
63897.754
63900.523
63903.29
63906.055
63908.818
63911.579
63914.337
63917.094
63919.849
63922.602
63925.353
63928.102
63930.849
63933.593
63936.336
63939.077
63941.816
63944.553
63947.288
63950.02
63952.751
63955.48
63958.207
63960.932
63963.655
63966.375
63969.094
63971.811
63974.526
63977.239
63979.95
63982.658
63985.365
63988.07
63990.773
63993.474
63996.172
63998.869
64001.564
64004.257
64006.948
64009.637
64012.323
64015.008
64017.691
64020.372
64023.051
64025.728
64028.403
64031.075
64033.746
64036.415
64039.082
64041.747
64044.41
64047.071
64049.73
64052.387
64055.042
64057.694
64060.345
64062.994
64065.641
64068.286
64070.929
64073.57
64076.209
64078.846
64081.481
64084.114
64086.745
64089.374
64092.001
64094.626
64097.25
64099.871
64102.49
64105.107
64107.722
64110.335
64112.946
64115.556
64118.163
64120.768
64123.371
64125.972
64128.572
64131.169
64133.764
64136.358
64138.949
64141.538
64144.126
64146.711
64149.295
64151.876
64154.456
64157.033
64159.609
64162.182
64164.754
64167.323
64169.891
64172.456
64175.02
64177.582
64180.142
64182.699
64185.255
64187.809
64190.361
64192.91
64195.458
64198.004
64200.548
64203.09
64205.63
64208.168
64210.704
64213.238
64215.77
64218.301
64220.829
64223.355
64225.879
64228.401
64230.922
64233.44
64235.957
64238.471
64240.983
64243.494
64246.002
64248.509
64251.014
64253.516
64256.017
64258.516
64261.012
64263.507
64266
64268.491
64270.98
64273.467
64275.952
64278.435
64280.916
64283.395
64285.872
64288.348
64290.821
64293.292
64295.762
64298.229
64300.694
64303.158
64305.619
64308.079
64310.537
64312.992
64315.446
64317.898
64320.348
64322.796
64325.242
64327.686
64330.128
64332.568
64335.006
64337.442
64339.876
64342.309
64344.739
64347.167
64349.594
64352.018
64354.441
64356.861
64359.28
64361.697
64364.112
64366.524
64368.935
64371.344
64373.751
64376.156
64378.559
64380.961
64383.36
64385.757
64388.153
64390.546
64392.937
64395.327
64397.715
64400.1
64402.484
64404.866
64407.246
64409.624
64411.999
64414.374
64416.746
64419.116
64421.484
64423.85
64426.215
64428.577
64430.938
64433.296
64435.653
64438.008
64440.36
64442.711
64445.06
64447.407
64449.752
64452.095
64454.436
64456.776
64459.113
64461.448
64463.782
64466.113
64468.443
64470.771
64473.096
64475.42
64477.742
64480.062
64482.38
64484.696
64487.01
64489.322
64491.633
64493.941
64496.247
64498.552
64500.854
64503.155
64505.454
64507.75
64510.045
64512.338
64514.629
64516.918
64519.205
64521.49
64523.773
64526.054
64528.334
64530.611
64532.887
64535.16
64537.432
64539.702
64541.97
64544.235
64546.499
64548.762
64551.022
64553.28
64555.537
64557.792
64560.045
64562.297
64564.546
64566.794
64569.039
64571.283
64573.526
64575.766
64578.005
64580.242
64582.478
64584.712
64586.944
64589.175
64591.404
64593.631
64595.856
64598.08
64600.302
64602.523
64604.742
64606.959
64609.175
64611.389
64613.602
64615.813
64618.023
64620.231
64622.437
64624.642
64626.845
64629.046
64631.245
64633.443
64635.639
64637.834
64640.026
64642.218
64644.407
64646.595
64648.782
64650.966
64653.149
64655.331
64657.51
64659.688
64661.864
64664.038
64666.209
64668.38
64670.548
64672.714
64674.879
64677.041
64679.202
64681.361
64683.519
64685.675
64687.829
64689.981
64692.132
64694.28
64696.428
64698.573
64700.716
64702.858
64704.998
64707.136
64709.272
64711.407
64713.539
64715.67
64717.798
64719.925
64722.05
64724.173
64726.294
64728.413
64730.53
64732.645
64734.759
64736.87
64738.98
64741.088
64743.194
64745.298
64747.4
64749.5
64751.598
64753.695
64755.789
64757.882
64759.973
64762.062
64764.149
64766.234
64768.318
64770.4
64772.48
64774.558
64776.635
64778.71
64780.783
64782.854
64784.924
64786.992
64789.057
64791.121
64793.183
64795.244
64797.302
64799.359
64801.414
64803.467
64805.519
64807.568
64809.616
64811.661
64813.705
64815.747
64817.788
64819.826
64821.863
64823.898
64825.931
64827.963
64829.992
64832.02
64834.046
64836.07
64838.093
64840.114
64842.133
64844.15
64846.166
64848.18
64850.192
64852.202
64854.21
64856.218
64858.223
64860.227
64862.229
64864.23
64866.229
64868.226
64870.221
64872.214
64874.205
64876.195
64878.183
64880.17
64882.154
64884.138
64886.119
64888.099
64890.077
64892.054
64894.029
64896.003
64897.975
64899.945
64901.914
64903.882
64905.848
64907.812
64909.775
64911.736
64913.696
64915.654
64917.611
64919.566
64921.52
64923.472
64925.423
64927.373
64929.321
64931.267
64933.212
64935.156
64937.098
64939.039
64940.979
64942.917
64944.853
64946.789
64948.722
64950.654
64952.585
64954.514
64956.442
64958.368
64960.292
64962.216
64964.137
64966.058
64967.976
64969.894
64971.81
64973.724
64975.637
64977.548
64979.458
64981.367
64983.273
64985.179
64987.082
64988.984
64990.884
64992.783
64994.68
64996.576
64998.47
65000.362
65002.254
65004.143
65006.031
65007.917
65009.801
65011.684
65013.564
65015.443
65017.321
65019.197
65021.071
65022.944
65024.815
65026.685
65028.553
65030.42
65032.284
65034.147
65036.008
65037.867
65039.725
65041.58
65043.435
65045.287
65047.138
65048.988
65050.836
65052.682
65054.526
65056.369
65058.209
65060.048
65061.885
65063.721
65065.554
65067.387
65069.217
65071.046
65072.873
65074.698
65076.521
65078.342
65080.161
65081.979
65083.795
65085.61
65087.423
65089.235
65091.045
65092.854
65094.66
65096.465
65098.268
65100.068
65101.867
65103.664
65105.46
65107.254
65109.046
65110.836
65112.624
65114.41
65116.195
65117.977
65119.758
65121.536
65123.313
65125.089
65126.863
65128.635
65130.406
65132.175
65133.942
65135.708
65137.472
65139.234
65140.994
65142.751
65144.507
65146.261
65148.013
65149.763
65151.511
65153.257
65155.002
65156.745
65158.487
65160.227
65161.965
65163.701
65165.435
65167.167
65168.898
65170.626
65172.353
65174.077
65175.8
65177.521
65179.24
65180.958
65182.674
65184.389
65186.101
65187.812
65189.521
65191.229
65192.934
65194.638
65196.34
65198.041
65199.739
65201.435
65203.13
65204.823
65206.514
65208.203
65209.89
65211.576
65213.26
65214.942
65216.622
65218.301
65219.978
65221.653
65223.327
65224.998
65226.668
65228.337
65230.003
65231.669
65233.332
65234.995
65236.655
65238.315
65239.972
65241.628
65243.282
65244.935
65246.586
65248.235
65249.883
65251.529
65253.173
65254.816
65256.458
65258.099
65259.738
65261.375
65263.011
65264.645
65266.277
65267.908
65269.537
65271.164
65272.789
65274.413
65276.036
65277.657
65279.277
65280.895
65282.512
65284.128
65285.742
65287.354
65288.965
65290.573
65292.18
65293.785
65295.389
65296.991
65298.591
65300.19
65301.788
65303.384
65304.979
65306.572
65308.164
65309.753
65311.34
65312.926
65314.51
65316.092
65317.673
65319.252
65320.83
65322.406
65323.981
65325.555
65327.126
65328.696
65330.264
65331.831
65333.395
65334.958
65336.519
65338.079
65339.637
65341.193
65342.748
65344.301
65345.853
65347.404
65348.952
65350.499
65352.044
65353.588
65355.13
65356.67
65358.208
65359.745
65361.28
65362.814
65364.346
65365.876
65367.405
65368.932
65370.458
65371.982
65373.505
65375.026
65376.545
65378.062
65379.578
65381.092
65382.605
65384.115
65385.625
65387.132
65388.639
65390.143
65391.646
65393.147
65394.647
65396.145
65397.641
65399.136
65400.629
65402.12
65403.61
65405.099
65406.585
65408.071
65409.554
65411.036
65412.516
65413.995
65415.472
65416.947
65418.421
65419.893
65421.364
65422.832
65424.299
65425.765
65427.229
65428.691
65430.151
65431.61
65433.067
65434.523
65435.977
65437.429
65438.88
65440.329
65441.777
65443.223
65444.667
65446.11
65447.551
65448.991
65450.429
65451.865
65453.299
65454.732
65456.163
65457.592
65459.02
65460.447
65461.871
65463.295
65464.716
65466.136
65467.555
65468.972
65470.387
65471.801
65473.213
65474.623
65476.032
65477.439
65478.845
65480.249
65481.652
65483.053
65484.452
65485.85
65487.246
65488.641
65490.034
65491.426
65492.816
65494.205
65495.592
65496.977
65498.361
65499.744
65501.125
65502.504
65503.882
65505.259
65506.634
65508.007
65509.379
65510.749
65512.118
65513.485
65514.851
65516.215
65517.577
65518.938
65520.298
65521.656
65523.012
65524.367
65525.721
65527.072
65528.423
65529.771
65531.118
65532.464
65533.808
65535.15
65536.491
65537.831
65539.168
65540.504
65541.839
65543.172
65544.503
65545.833
65547.161
65548.487
65549.813
65551.136
65552.458
65553.778
65555.097
65556.414
65557.729
65559.043
65560.355
65561.665
65562.974
65564.281
65565.586
65566.89
65568.192
65569.492
65570.791
65572.088
65573.384
65574.678
65575.97
65577.26
65578.549
65579.837
65581.122
65582.406
65583.688
65584.969
65586.248
65587.526
65588.801
65590.076
65591.348
65592.619
65593.888
65595.156
65596.422
65597.686
65598.949
65600.21
65601.469
65602.727
65603.983
65605.238
65606.491
65607.742
65608.991
65610.24
65611.486
65612.731
65613.974
65615.216
65616.456
65617.694
65618.931
65620.166
65621.4
65622.632
65623.863
65625.092
65626.319
65627.545
65628.769
65629.991
65631.212
65632.431
65633.649
65634.865
65636.079
65637.292
65638.504
65639.713
65640.921
65642.128
65643.332
65644.536
65645.737
65646.938
65648.136
65649.334
65650.529
65651.723
65652.915
65654.106
65655.295
65656.482
65657.669
65658.853
65660.036
65661.218
65662.398
65663.577
65664.753
65665.929
65667.102
65668.274
65669.445
65670.614
65671.781
65672.947
65674.111
65675.274
65676.436
65677.596
65678.754
65679.911
65681.067
65682.22
65683.373
65684.524
65685.673
65686.82
65687.966
65689.11
65690.253
65691.394
65692.535
65693.673
65694.81
65695.946
65697.08
65698.213
65699.344
65700.474
65701.602
65702.728
65703.854
65704.977
65706.099
65707.22
65708.339
65709.456
65710.572
65711.687
65712.8
65713.912
65715.023
65716.132
65717.239
65718.345
65719.45
65720.553
65721.655
65722.755
65723.853
65724.951
65726.046
65727.14
65728.233
65729.324
65730.413
65731.501
65732.588
65733.673
65734.757
65735.84
65736.92
65738
65739.077
65740.154
65741.228
65742.301
65743.373
65744.443
65745.512
65746.578
65747.644
65748.708
65749.77
65750.831
65751.89
65752.947
65754.003
65755.058
65756.111
65757.162
65758.212
65759.26
65760.306
65761.351
65762.395
65763.436
65764.476
65765.515
65766.551
65767.586
65768.62
65769.652
65770.682
65771.711
65772.738
65773.763
65774.787
65775.809
65776.829
65777.848
65778.865
65779.88
65780.894
65781.906
65782.917
65783.925
65784.932
65785.938
65786.941
65787.943
65788.944
65789.943
65790.94
65791.935
65792.929
65793.921
65794.911
65795.9
65796.887
65797.872
65798.856
65799.838
65800.818
65801.797
65802.774
65803.749
65804.723
65805.695
65806.665
65807.634
65808.601
65809.567
65810.53
65811.492
65812.453
65813.411
65814.369
65815.324
65816.278
65817.23
65818.181
65819.13
65820.077
65821.023
65821.967
65822.91
65823.85
65824.79
65825.727
65826.663
65827.597
65828.529
65829.46
65830.389
65831.317
65832.243
65833.167
65834.09
65835.012
65835.931
65836.85
65837.766
65838.681
65839.594
65840.506
65841.416
65842.325
65843.232
65844.137
65845.04
65845.943
65846.843
65847.742
65848.64
65849.536
65850.43
65851.323
65852.215
65853.104
65853.993
65854.88
65855.765
65856.649
65857.531
65858.412
65859.291
65860.168
65861.044
65861.919
65862.792
65863.664
65864.534
65865.402
65866.27
65867.135
65868
65868.862
65869.724
65870.583
65871.442
65872.299
65873.154
65874.008
65874.861
65875.712
65876.562
65877.41
65878.257
65879.103
65879.947
65880.789
65881.631
65882.47
65883.309
65884.146
65884.982
65885.816
65886.649
65887.48
65888.31
65889.139
65889.967
65890.792
65891.617
65892.44
65893.262
65894.083
65894.902
65895.719
65896.536
65897.351
65898.164
65898.977
65899.787
65900.597
65901.405
65902.212
65903.017
65903.821
65904.623
65905.425
65906.225
65907.023
65907.82
65908.616
65909.41
65910.202
65910.994
65911.784
65912.572
65913.36
65914.145
65914.93
65915.713
65916.494
65917.274
65918.052
65918.83
65919.605
65920.38
65921.152
65921.924
65922.693
65923.462
65924.228
65924.994
65925.758
65926.52
65927.281
65928.041
65928.799
65929.555
65930.31
65931.064
65931.816
65932.566
65933.315
65934.063
65934.808
65935.553
65936.295
65937.037
65937.776
65938.515
65939.252
65939.987
65940.721
65941.453
65942.183
65942.912
65943.639
65944.365
65945.09
65945.813
65946.534
65947.254
65947.972
65948.688
65949.403
65950.117
65950.829
65951.54
65952.249
65952.956
65953.662
65954.366
65955.069
65955.77
65956.47
65957.168
65957.865
65958.56
65959.253
65959.945
65960.635
65961.324
65962.012
65962.698
65963.382
65964.065
65964.746
65965.425
65966.104
65966.78
65967.456
65968.129
65968.802
65969.472
65970.141
65970.809
65971.475
65972.139
65972.802
65973.464
65974.124
65974.783
65975.44
65976.096
65976.75
65977.402
65978.053
65978.703
65979.352
65979.998
65980.643
65981.287
65981.929
65982.57
65983.209
65983.847
65984.484
65985.119
65985.753
65986.385
65987.015
65987.644
65988.272
65988.898
65989.523
65990.146
65990.768
65991.389
65992.008
65992.625
65993.242
65993.856
65994.47
65995.082
65995.692
65996.301
65996.909
65997.515
65998.12
65998.724
65999.326
65999.927
66000.526
66001.124
66001.721
66002.316
66002.909
66003.502
66004.093
66004.683
66005.271
66005.858
66006.444
66007.028
66007.611
66008.193
66008.773
66009.352
66009.929
66010.505
66011.08
66011.654
66012.226
66012.797
66013.367
66013.935
66014.502
66015.068
66015.632
66016.195
66016.757
66017.317
66017.877
66018.435
66018.991
66019.547
66020.101
66020.653
66021.205
66021.755
66022.304
66022.851
66023.398
66023.943
66024.486
66025.029
66025.57
66026.11
66026.649
66027.186
66027.722
66028.257
66028.79
66029.322
66029.853
66030.383
66030.912
66031.439
66031.965
66032.489
66033.012
66033.534
66034.055
66034.574
66035.092
66035.609
66036.124
66036.638
66037.151
66037.662
66038.172
66038.681
66039.189
66039.695
66040.2
66040.703
66041.206
66041.706
66042.206
66042.704
66043.201
66043.697
66044.191
66044.684
66045.175
66045.665
66046.153
66046.641
66047.127
66047.611
66048.095
66048.576
66049.057
66049.536
66050.013
66050.489
66050.964
66051.438
66051.91
66052.381
66052.85
66053.318
66053.784
66054.249
66054.713
66055.175
66055.635
66056.095
66056.553
66057.009
66057.464
66057.918
66058.37
66058.821
66059.27
66059.718
66060.165
66060.61
66061.053
66061.496
66061.936
66062.376
66062.813
66063.25
66063.685
66064.118
66064.55
66064.981
66065.41
66065.838
66066.264
66066.689
66067.112
66067.534
66067.955
66068.374
66068.792
66069.208
66069.622
66070.036
66070.447
66070.858
66071.267
66071.674
66072.08
66072.485
66072.888
66073.29
66073.69
66074.089
66074.486
66074.882
66075.277
66075.67
66076.062
66076.452
66076.841
66077.228
66077.614
66077.999
66078.382
66078.763
66079.144
66079.522
66079.9
66080.276
66080.651
66081.024
66081.396
66081.766
66082.135
66082.503
66082.869
66083.234
66083.597
66083.959
66084.32
66084.679
66085.037
66085.393
66085.748
66086.102
66086.455
66086.806
66087.155
66087.504
66087.85
66088.196
66088.54
66088.883
66089.225
66089.565
66089.904
66090.241
66090.577
66090.912
66091.246
66091.578
66091.909
66092.238
66092.566
66092.893
66093.219
66093.543
66093.866
66094.187
66094.508
66094.827
66095.145
66095.461
66095.776
66096.09
66096.402
66096.714
66097.023
66097.332
66097.639
66097.946
66098.25
66098.554
66098.856
66099.157
66099.457
66099.755
66100.052
66100.348
66100.642
66100.936
66101.228
66101.518
66101.808
66102.096
66102.383
66102.668
66102.953
66103.236
66103.517
66103.798
66104.077
66104.355
66104.632
66104.907
66105.181
66105.454
66105.725
66105.995
66106.264
66106.532
66106.798
66107.063
66107.327
66107.589
66107.85
66108.11
66108.369
66108.626
66108.882
66109.136
66109.389
66109.641
66109.892
66110.141
66110.389
66110.636
66110.881
66111.125
66111.368
66111.609
66111.849
66112.088
66112.325
66112.561
66112.796
66113.029
66113.261
66113.492
66113.721
66113.949
66114.176
66114.401
66114.625
66114.848
66115.069
66115.289
66115.507
66115.724
66115.94
66116.154
66116.367
66116.579
66116.79
66116.999
66117.206
66117.412
66117.617
66117.821
66118.023
66118.224
66118.423
66118.621
66118.818
66119.013
66119.207
66119.399
66119.591
66119.78
66119.969
66120.156
66120.341
66120.526
66120.709
66120.89
66121.07
66121.249
66121.426
66121.602
66121.777
66121.95
66122.122
66122.292
66122.461
66122.629
66122.795
66122.96
66123.124
66123.286
66123.447
66123.606
66123.764
66123.921
66124.076
66124.23
66124.382
66124.533
66124.683
66124.831
66124.978
66125.124
66125.268
66125.41
66125.552
66125.692
66125.83
66125.967
66126.103
66126.238
66126.371
66126.502
66126.632
66126.761
66126.889
66127.015
66127.139
66127.263
66127.385
66127.505
66127.624
66127.742
66127.858
66127.973
66128.086
66128.198
66128.309
66128.418
66128.526
66128.633
66128.738
66128.842
66128.944
66129.045
66129.145
66129.243
66129.339
66129.435
66129.529
66129.621
66129.712
66129.802
66129.891
66129.978
66130.063
66130.147
66130.23
66130.312
66130.392
66130.47
66130.547
66130.623
66130.698
66130.771
66130.843
66130.913
66130.982
66131.049
66131.115
66131.18
66131.244
66131.306
66131.366
66131.425
66131.483
66131.54
66131.595
66131.648
66131.701
66131.751
66131.801
66131.849
66131.896
66131.941
66131.985
66132.027
66132.069
66132.108
66132.147
66132.184
66132.219
66132.253
66132.286
66132.317
66132.347
66132.375
66132.402
66132.428
66132.452
66132.475
66132.496
66132.516
66132.534
66132.551
66132.566
66132.58
66132.592
66132.603
66132.613
66132.621
66132.627
66132.632
66132.635
66132.637
66132.637
66132.636
66132.633
66132.628
66132.622
66132.615
66132.605
66132.594
66132.582
66132.567
66132.551
66132.534
66132.514
66132.493
66132.47
66132.446
66132.419
66132.391
66132.361
66132.329
66132.296
66132.26
66132.223
66132.184
66132.143
66132.099
66132.054
66132.007
66131.958
66131.907
66131.854
66131.799
66131.741
66131.682
66131.62
66131.557
66131.491
66131.422
66131.352
66131.279
66131.204
66131.126
66131.047
66130.964
66130.88
66130.792
66130.703
66130.61
66130.515
66130.418
66130.318
66130.215
66130.109
66130.001
66129.889
66129.775
66129.658
66129.538
66129.415
66129.289
66129.16
66129.028
66128.892
66128.753
66128.611
66128.465
66128.316
66128.164
66128.008
66127.848
66127.685
66127.518
66127.347
66127.172
66126.993
66126.81
66126.623
66126.432
66126.237
66126.037
66125.833
66125.624
66125.411
66125.193
66124.97
66124.742
66124.51
66124.272
66124.029
66123.781
66123.527
66123.268
66123.003
66122.732
66122.456
66122.173
66121.885
66121.59
66121.289
66120.981
66120.666
66120.345
66120.017
66119.682
66119.339
66118.989
66118.632
66118.267
66117.894
66117.513
66117.123
66116.726
66116.319
66115.904
66115.48
66115.047
66114.604
66114.152
66113.691
66113.219
66112.737
66112.245
66111.742
66111.228
66110.704
66110.168
66109.621
66109.062
66108.491
66107.908
66107.313
66106.705
66106.084
66105.45
66104.802
66104.141
66103.467
66102.778
66102.074
66101.356
66100.623
66099.875
66099.112
66098.333
66097.537
66096.726
66095.898
66095.054
66094.192
66093.314
66092.417
66091.503
66090.571
66089.62
66088.651
66087.663
66086.656
66085.63
66084.584
66083.518
66082.432
66081.326
66080.199
66079.052
66077.883
66076.693
66075.482
66074.249
66072.994
66071.717
66070.418
66069.096
66067.752
66066.385
66064.995
66063.582
66062.145
66060.685
66059.202
66057.695
66056.164
66054.609
66053.03
66051.427
66049.8
66048.149
66046.473
66044.774
66043.05
66041.301
66039.528
66037.731
66035.91
66034.064
66032.194
66030.3
66028.382
66026.44
66024.474
66022.484
66020.47
66018.433
66016.372
66014.288
66012.181
66010.052
66007.899
66005.725
66003.528
66001.309
65999.068
65996.806
65994.523
65992.219
65989.894
65987.55
65985.185
65982.801
65980.398
65977.976
65975.536
65973.078
65970.603
65968.11
65965.601
65963.075
65960.534
65957.978
65955.406
65952.821
65950.221
65947.609
65944.983
65942.345
65939.696
65937.035
65934.364
65931.683
65928.992
65926.292
65923.584
65920.868
65918.145
65915.415
65912.68
65909.938
65907.192
65904.442
65901.688
65898.93
65896.171
65893.409
65890.646
65887.883
65885.119
65882.356
65879.593
65876.833
65874.074
65871.318
65868.566
65865.817
65863.073
65860.334
65857.6
65854.872
65852.151
65849.437
65846.73
65844.032
65841.341
65838.66
65835.988
65833.326
65830.675
65828.034
65825.404
65822.786
65820.179
65817.585
65815.004
65812.436
65809.881
65807.339
65804.812
65802.298
65799.8
65797.316
65794.846
65792.392
65789.954
65787.531
65785.123
65782.732
65780.357
65777.998
65775.656
65773.331
65771.022
65768.731
65766.458
65764.201
65761.962
65759.74
65757.536
65755.348
65753.178
65751.024
65748.888
65746.768
65744.665
65742.579
65740.51
65738.458
65736.423
65734.405
65732.405
65730.421
65728.454
65726.503
65724.568
65722.648
65720.744
65718.855
65716.982
65715.124
65713.282
65711.456
65709.644
65707.847
65706.065
65704.297
65702.543
65700.802
65699.074
65697.36
65695.659
65693.971
65692.297
65690.635
65688.986
65687.349
65685.724
65684.11
65682.507
65680.915
65679.334
65677.765
65676.206
65674.658
65673.12
65671.592
65670.074
65668.564
65667.064
65665.574
65664.092
65662.619
65661.155
65659.7
65658.253
65656.813
65655.381
65653.957
65652.54
65651.131
65649.73
65648.335
65646.948
65645.567
65644.192
65642.824
65641.462
65640.106
65638.757
65637.413
65636.074
65634.741
65633.413
65632.09
65630.772
65629.459
65628.151
65626.847
65625.547
65624.252
65622.961
65621.674
65620.391
65619.113
65617.838
65616.567
65615.299
65614.036
65612.775
65611.519
65610.266
65609.016
65607.769
65606.526
65605.286
65604.049
65602.815
65601.584
65600.356
65599.131
65597.908
65596.689
65595.472
65594.258
65593.047
65591.838
65590.632
65589.428
65588.227
65587.029
65585.833
65584.639
65583.448
65582.259
65581.073
65579.889
65578.707
65577.528
65576.351
65575.176
65574.003
65572.833
65571.665
65570.498
65569.335
65568.173
65567.013
65565.856
65564.7
65563.547
65562.396
65561.247
65560.1
65558.955
65557.812
65556.671
65555.532
65554.395
65553.26
65552.128
65550.997
65549.868
65548.742
65547.617
65546.494
65545.374
65544.255
65543.138
65542.024
65540.911
65539.801
65538.692
65537.585
65536.481
65535.378
65534.277
65533.179
65532.082
65530.987
65529.895
65528.804
65527.715
65526.628
65525.544
65524.461
65523.38
65522.301
65521.225
65520.15
65519.077
65518.006
65516.937
65515.87
65514.805
65513.742
65512.681
65511.622
65510.565
65509.51
65508.457
65507.405
65506.356
65505.309
65504.263
65503.22
65502.178
65501.139
65500.101
65499.065
65498.032
65497
65495.97
65494.941
65493.915
65492.891
65491.868
65490.848
65489.829
65488.812
65487.797
65486.784
65485.772
65484.763
65483.755
65482.749
65481.744
65480.742
65479.741
65478.742
65477.745
65476.75
65475.756
65474.764
65473.774
65472.785
65471.798
65470.813
65469.829
65468.847
65467.866
65466.888
65465.911
65464.935
65463.961
65462.988
65462.017
65461.048
65460.079
65459.113
65458.148
65457.184
65456.222
65455.261
65454.301
65453.343
65452.386
65451.431
65450.477
65449.524
65448.572
65447.622
65446.673
65445.725
65444.779
65443.833
65442.889
65441.945
65441.003
65440.062
65439.122
65438.184
65437.246
65436.31
65435.375
65434.44
65433.506
65432.572
65431.639
65430.708
65429.778
65428.849
65427.921
65426.994
65426.068
65425.141
65424.214
65423.287
65422.362
65421.438
65420.515
65419.595
65418.675
65417.756
65416.837
65415.916
65414.995
65414.073
65413.153
65412.235
65411.32
65410.407
65409.495
65408.582
65407.666
65406.746
65405.822
65404.898
65403.975
65403.057
65402.145
65401.237
65400.33
65399.42
65398.503
65397.577
65396.645
65395.712
65394.784
65393.867
65392.963
65392.067
65391.171
65390.266
65389.344
65388.403
65387.45
65386.499
65385.561
65384.646
65383.759
65382.894
65382.03
65381.126
65380.163
65379.177
65378.229
65377.296
65376.444
65375.533
65374.544
65373.59
65372.692
65371.805
65370.915
65370.021
65369.115
65368.2
65367.279
65366.36
65365.446
65364.54
65363.641
65362.746
65361.852
65360.957
65360.058
65359.156
65358.253
65357.349
65356.447
65355.546
65354.647
65353.749
65352.85
65351.95
65351.048
65350.145
65349.241
65348.336
65347.43
65346.523
65345.617
65344.71
65343.801
65342.892
65341.982
65341.07
65340.157
65339.243
65338.327
65337.411
65336.494
65335.575
65334.656
65333.735
65332.814
65331.891
65330.967
65330.041
65329.115
65328.186
65327.257
65326.328
65325.396
65324.463
65323.529
65322.594
65321.658
65320.72