/*--------------------------------*- C++ -*----------------------------------*\
  =========                 |
  \\      /  F ield         | OpenFOAM: The Open Source CFD Toolbox
   \\    /   O peration     | Website:  https://openfoam.org
    \\  /    A nd           | Version:  7
     \\/     M anipulation  |
\*---------------------------------------------------------------------------*/
FoamFile
{
    version     2.0;
    format      ascii;
    class       surfaceScalarField;
    location    "0.0025";
    object      phi;
}
// * * * * * * * * * * * * * * * * * * * * * * * * * * * * * * * * * * * * * //

dimensions      [1 0 -1 0 0 0 0];

internalField   nonuniform List<scalar> 
4999
(
0.0037801801
0.0037801703
0.0037801619
0.003780153
0.003780144
0.003780135
0.0037801258
0.0037801166
0.0037801074
0.0037800982
0.0037800889
0.0037800797
0.0037800706
0.0037800615
0.0037800524
0.0037800434
0.0037800344
0.0037800255
0.0037800166
0.0037800077
0.003779999
0.0037799902
0.0037799816
0.0037799729
0.0037799644
0.0037799558
0.0037799474
0.0037799389
0.0037799306
0.0037799222
0.003779914
0.0037799058
0.0037798976
0.0037798895
0.0037798814
0.0037798734
0.0037798654
0.0037798575
0.0037798496
0.0037798418
0.0037798341
0.0037798264
0.0037798187
0.0037798111
0.0037798036
0.0037797961
0.0037797886
0.0037797812
0.0037797739
0.0037797666
0.0037797593
0.0037797522
0.003779745
0.0037797379
0.0037797309
0.0037797239
0.003779717
0.0037797101
0.0037797033
0.0037796966
0.0037796898
0.0037796832
0.0037796766
0.0037796701
0.0037796636
0.0037796572
0.0037796508
0.0037796445
0.0037796383
0.0037796321
0.0037796259
0.0037796198
0.0037796138
0.0037796079
0.003779602
0.0037795961
0.0037795903
0.0037795846
0.0037795789
0.0037795733
0.0037795677
0.0037795622
0.0037795568
0.0037795514
0.003779546
0.0037795407
0.0037795355
0.0037795303
0.0037795252
0.0037795202
0.0037795151
0.0037795102
0.0037795053
0.0037795005
0.0037794957
0.0037794909
0.0037794863
0.0037794817
0.0037794771
0.0037794726
0.0037794681
0.0037794638
0.0037794594
0.0037794551
0.0037794509
0.0037794468
0.0037794427
0.0037794387
0.0037794347
0.0037794308
0.0037794269
0.0037794231
0.0037794194
0.0037794157
0.0037794121
0.0037794086
0.0037794051
0.0037794017
0.0037793983
0.003779395
0.0037793918
0.0037793886
0.0037793855
0.0037793824
0.0037793794
0.0037793765
0.0037793736
0.0037793708
0.003779368
0.0037793653
0.0037793627
0.0037793601
0.0037793575
0.003779355
0.0037793526
0.0037793502
0.0037793479
0.0037793457
0.0037793435
0.0037793413
0.0037793392
0.0037793372
0.0037793353
0.0037793334
0.0037793315
0.0037793298
0.003779328
0.0037793264
0.0037793247
0.0037793232
0.0037793217
0.0037793202
0.0037793188
0.0037793175
0.0037793162
0.0037793149
0.0037793137
0.0037793126
0.0037793115
0.0037793104
0.0037793094
0.0037793085
0.0037793076
0.0037793067
0.0037793059
0.0037793052
0.0037793045
0.0037793038
0.0037793033
0.0037793027
0.0037793023
0.0037793019
0.0037793015
0.0037793013
0.003779301
0.0037793009
0.0037793008
0.0037793007
0.0037793007
0.0037793007
0.0037793008
0.003779301
0.0037793012
0.0037793015
0.0037793018
0.0037793022
0.0037793026
0.0037793031
0.0037793037
0.0037793043
0.0037793049
0.0037793054
0.0037793061
0.0037793069
0.0037793077
0.0037793086
0.0037793095
0.0037793105
0.0037793115
0.0037793125
0.0037793136
0.0037793147
0.0037793158
0.003779317
0.0037793183
0.0037793195
0.0037793208
0.0037793222
0.0037793236
0.003779325
0.0037793265
0.0037793279
0.0037793295
0.003779331
0.0037793326
0.0037793342
0.0037793358
0.0037793374
0.0037793391
0.0037793407
0.0037793424
0.0037793441
0.0037793458
0.0037793475
0.0037793492
0.003779351
0.0037793527
0.0037793545
0.0037793563
0.0037793582
0.00377936
0.0037793619
0.0037793639
0.0037793659
0.0037793679
0.00377937
0.0037793722
0.0037793744
0.0037793765
0.0037793786
0.0037793808
0.003779383
0.0037793853
0.0037793876
0.0037793898
0.0037793921
0.0037793944
0.0037793968
0.0037793993
0.0037794018
0.0037794044
0.0037794071
0.00377941
0.0037794128
0.0037794157
0.0037794186
0.0037794215
0.0037794244
0.0037794273
0.0037794302
0.0037794333
0.0037794364
0.0037794395
0.0037794426
0.0037794458
0.0037794489
0.0037794521
0.0037794553
0.0037794586
0.0037794618
0.0037794651
0.0037794685
0.0037794718
0.0037794752
0.0037794787
0.0037794822
0.0037794857
0.0037794892
0.0037794927
0.0037794963
0.0037794998
0.0037795034
0.0037795071
0.0037795108
0.0037795145
0.0037795183
0.0037795222
0.0037795261
0.00377953
0.003779534
0.003779538
0.0037795421
0.0037795462
0.0037795504
0.0037795546
0.0037795588
0.003779563
0.0037795674
0.0037795717
0.0037795762
0.0037795807
0.0037795853
0.0037795898
0.0037795942
0.0037795988
0.0037796034
0.003779608
0.0037796128
0.0037796176
0.0037796224
0.0037796273
0.0037796322
0.0037796372
0.0037796422
0.0037796471
0.0037796521
0.0037796571
0.0037796623
0.0037796676
0.003779673
0.0037796786
0.0037796844
0.0037796901
0.0037796957
0.0037797014
0.0037797073
0.0037797134
0.0037797195
0.0037797257
0.0037797319
0.0037797382
0.0037797445
0.003779751
0.0037797575
0.003779764
0.0037797705
0.0037797771
0.0037797837
0.0037797903
0.003779797
0.0037798036
0.0037798103
0.003779817
0.0037798238
0.0037798306
0.0037798375
0.0037798444
0.0037798514
0.0037798584
0.0037798654
0.0037798726
0.0037798798
0.003779887
0.0037798944
0.0037799018
0.0037799092
0.0037799168
0.0037799244
0.003779932
0.0037799398
0.0037799476
0.0037799555
0.0037799634
0.0037799715
0.0037799796
0.0037799877
0.003779996
0.0037800043
0.0037800127
0.0037800212
0.0037800298
0.0037800384
0.0037800471
0.0037800559
0.0037800648
0.0037800737
0.0037800827
0.0037800918
0.003780101
0.0037801103
0.0037801196
0.003780129
0.0037801385
0.0037801481
0.0037801577
0.0037801675
0.0037801773
0.0037801872
0.0037801972
0.0037802072
0.0037802174
0.0037802276
0.0037802379
0.0037802483
0.0037802588
0.0037802693
0.0037802799
0.0037802907
0.0037803015
0.0037803123
0.0037803233
0.0037803344
0.0037803455
0.0037803567
0.003780368
0.0037803794
0.0037803909
0.0037804024
0.0037804141
0.0037804258
0.0037804376
0.0037804495
0.0037804615
0.0037804735
0.0037804857
0.0037804979
0.0037805102
0.0037805226
0.0037805351
0.0037805476
0.0037805603
0.003780573
0.0037805858
0.0037805987
0.0037806117
0.0037806248
0.0037806379
0.0037806512
0.0037806645
0.0037806779
0.0037806914
0.003780705
0.0037807186
0.0037807324
0.0037807462
0.0037807601
0.0037807741
0.0037807882
0.0037808024
0.0037808167
0.003780831
0.0037808455
0.00378086
0.0037808746
0.0037808893
0.0037809041
0.0037809189
0.0037809339
0.0037809489
0.003780964
0.0037809792
0.0037809945
0.0037810099
0.0037810254
0.003781041
0.0037810566
0.0037810723
0.0037810881
0.003781104
0.00378112
0.0037811361
0.0037811523
0.0037811685
0.0037811848
0.0037812012
0.0037812177
0.0037812343
0.003781251
0.0037812678
0.0037812846
0.0037813016
0.0037813186
0.0037813357
0.0037813529
0.0037813702
0.0037813876
0.003781405
0.0037814226
0.0037814402
0.003781458
0.0037814758
0.0037814937
0.0037815117
0.0037815298
0.0037815479
0.0037815662
0.0037815846
0.003781603
0.0037816215
0.0037816402
0.0037816589
0.0037816777
0.0037816966
0.0037817156
0.0037817347
0.0037817539
0.0037817732
0.0037817926
0.0037818121
0.0037818316
0.0037818513
0.0037818711
0.0037818909
0.0037819109
0.0037819309
0.0037819511
0.0037819714
0.0037819917
0.0037820122
0.0037820327
0.0037820534
0.0037820741
0.003782095
0.0037821159
0.003782137
0.0037821581
0.0037821794
0.0037822007
0.0037822222
0.0037822438
0.0037822654
0.0037822872
0.0037823091
0.0037823311
0.0037823532
0.0037823753
0.0037823976
0.00378242
0.0037824425
0.0037824651
0.0037824878
0.0037825106
0.0037825335
0.0037825565
0.0037825796
0.0037826029
0.0037826262
0.0037826496
0.0037826731
0.0037826967
0.0037827205
0.0037827443
0.0037827683
0.0037827923
0.0037828165
0.0037828407
0.0037828651
0.0037828896
0.0037829142
0.0037829389
0.0037829638
0.0037829887
0.0037830138
0.0037830389
0.0037830642
0.0037830895
0.003783115
0.0037831406
0.0037831663
0.0037831921
0.003783218
0.003783244
0.0037832701
0.0037832964
0.0037833227
0.0037833492
0.0037833758
0.0037834025
0.0037834293
0.0037834562
0.0037834833
0.0037835104
0.0037835378
0.0037835652
0.0037835927
0.0037836204
0.0037836482
0.0037836762
0.0037837042
0.0037837324
0.0037837608
0.0037837892
0.0037838178
0.0037838466
0.0037838754
0.0037839044
0.0037839335
0.0037839627
0.0037839921
0.0037840217
0.0037840513
0.0037840812
0.0037841113
0.0037841414
0.0037841714
0.0037842016
0.0037842319
0.0037842624
0.003784293
0.0037843238
0.0037843548
0.003784386
0.0037844173
0.0037844488
0.0037844804
0.0037845122
0.003784544
0.003784576
0.0037846082
0.0037846404
0.0037846727
0.0037847052
0.0037847378
0.0037847705
0.0037848033
0.0037848363
0.0037848694
0.0037849027
0.0037849361
0.0037849698
0.0037850036
0.0037850376
0.0037850717
0.003785106
0.0037851404
0.003785175
0.0037852098
0.0037852447
0.0037852797
0.003785315
0.0037853504
0.0037853859
0.0037854215
0.0037854571
0.0037854929
0.0037855288
0.0037855648
0.003785601
0.0037856374
0.003785674
0.0037857108
0.0037857477
0.0037857849
0.0037858222
0.0037858597
0.0037858973
0.0037859351
0.003785973
0.0037860112
0.0037860495
0.003786088
0.0037861266
0.0037861654
0.0037862045
0.0037862437
0.003786283
0.0037863226
0.0037863624
0.0037864023
0.0037864424
0.0037864827
0.0037865232
0.0037865638
0.0037866047
0.0037866457
0.0037866869
0.0037867283
0.0037867699
0.0037868117
0.0037868536
0.0037868958
0.0037869381
0.0037869806
0.0037870233
0.0037870662
0.0037871093
0.0037871525
0.003787196
0.0037872396
0.0037872835
0.0037873275
0.0037873718
0.0037874162
0.0037874608
0.0037875056
0.0037875507
0.0037875959
0.0037876413
0.0037876869
0.0037877328
0.0037877788
0.0037878251
0.0037878715
0.0037879182
0.0037879651
0.0037880122
0.0037880596
0.0037881072
0.003788155
0.003788203
0.0037882512
0.0037882997
0.0037883485
0.0037883974
0.0037884466
0.0037884961
0.0037885458
0.0037885957
0.0037886459
0.0037886963
0.003788747
0.003788798
0.0037888491
0.0037889006
0.0037889523
0.0037890042
0.0037890565
0.0037891089
0.0037891617
0.0037892147
0.003789268
0.0037893215
0.0037893753
0.0037894294
0.0037894838
0.0037895384
0.0037895934
0.0037896486
0.003789704
0.0037897598
0.0037898159
0.0037898722
0.0037899288
0.0037899857
0.0037900429
0.0037901004
0.0037901582
0.0037902163
0.0037902747
0.0037903334
0.0037903924
0.0037904517
0.0037905114
0.0037905713
0.0037906316
0.0037906922
0.0037907531
0.0037908144
0.0037908759
0.0037909378
0.0037910001
0.0037910626
0.0037911255
0.0037911887
0.0037912523
0.0037913162
0.0037913805
0.0037914451
0.0037915101
0.0037915754
0.0037916411
0.0037917072
0.0037917736
0.0037918404
0.0037919076
0.0037919751
0.003792043
0.0037921113
0.00379218
0.0037922491
0.0037923186
0.0037923884
0.0037924587
0.0037925293
0.0037926004
0.0037926719
0.0037927438
0.0037928161
0.0037928889
0.0037929621
0.0037930357
0.0037931097
0.0037931842
0.0037932591
0.0037933345
0.0037934103
0.0037934866
0.0037935634
0.0037936406
0.0037937183
0.0037937964
0.0037938751
0.0037939542
0.0037940339
0.003794114
0.0037941947
0.0037942758
0.0037943575
0.0037944397
0.0037945224
0.0037946056
0.0037946894
0.0037947738
0.0037948587
0.0037949441
0.0037950302
0.0037951168
0.0037952039
0.0037952917
0.00379538
0.003795469
0.0037955585
0.0037956487
0.0037957395
0.0037958309
0.0037959229
0.0037960157
0.003796109
0.0037962031
0.0037962978
0.0037963931
0.0037964892
0.003796586
0.0037966834
0.0037967816
0.0037968805
0.0037969801
0.0037970805
0.0037971816
0.0037972835
0.0037973861
0.0037974896
0.0037975938
0.0037976988
0.0037978046
0.0037979113
0.0037980188
0.0037981271
0.0037982363
0.0037983464
0.0037984573
0.0037985691
0.0037986818
0.0037987954
0.00379891
0.0037990255
0.0037991419
0.0037992593
0.0037993776
0.0037994969
0.0037996173
0.0037997386
0.003799861
0.0037999843
0.0038001088
0.0038002343
0.0038003608
0.0038004885
0.0038006173
0.0038007471
0.0038008781
0.0038010103
0.0038011435
0.003801278
0.0038014136
0.0038015505
0.0038016885
0.0038018278
0.0038019683
0.0038021101
0.0038022531
0.0038023975
0.0038025431
0.0038026901
0.0038028384
0.003802988
0.003803139
0.0038032914
0.0038034452
0.0038036003
0.003803757
0.003803915
0.0038040745
0.0038042355
0.003804398
0.003804562
0.0038047275
0.0038048946
0.0038050633
0.0038052335
0.0038054053
0.0038055787
0.0038057537
0.0038059304
0.0038061087
0.0038062887
0.0038064705
0.0038066539
0.003806839
0.0038070259
0.0038072146
0.003807405
0.0038075972
0.0038077913
0.0038079872
0.0038081849
0.0038083845
0.003808586
0.0038087894
0.0038089947
0.003809202
0.0038094112
0.0038096224
0.0038098356
0.0038100508
0.003810268
0.0038104873
0.0038107086
0.003810932
0.0038111575
0.0038113852
0.0038116149
0.0038118469
0.003812081
0.0038123172
0.0038125557
0.0038127964
0.0038130394
0.0038132846
0.0038135321
0.0038137819
0.003814034
0.0038142884
0.0038145452
0.0038148044
0.0038150659
0.0038153299
0.0038155962
0.003815865
0.0038161363
0.00381641
0.0038166863
0.003816965
0.0038172463
0.0038175301
0.0038178165
0.0038181054
0.003818397
0.0038186912
0.003818988
0.0038192875
0.0038195896
0.0038198944
0.0038202019
0.0038205122
0.0038208251
0.0038211409
0.0038214594
0.0038217807
0.0038221048
0.0038224317
0.0038227615
0.0038230941
0.0038234297
0.0038237681
0.0038241094
0.0038244537
0.0038248009
0.0038251511
0.0038255043
0.0038258605
0.0038262197
0.0038265819
0.0038269472
0.0038273156
0.003827687
0.0038280616
0.0038284392
0.0038288201
0.003829204
0.0038295912
0.0038299816
0.0038303751
0.003830772
0.003831172
0.0038315754
0.003831982
0.0038323919
0.0038328051
0.0038332217
0.0038336417
0.003834065
0.0038344917
0.0038349218
0.0038353554
0.0038357924
0.0038362328
0.0038366768
0.0038371243
0.0038375753
0.0038380298
0.0038384879
0.0038389496
0.0038394149
0.0038398838
0.0038403564
0.0038408326
0.0038413125
0.0038417961
0.0038422834
0.0038427744
0.0038432693
0.0038437679
0.0038442703
0.0038447765
0.0038452866
0.0038458006
0.0038463184
0.0038468401
0.0038473658
0.0038478954
0.003848429
0.0038489666
0.0038495083
0.0038500539
0.0038506036
0.0038511575
0.0038517154
0.0038522775
0.0038528437
0.0038534142
0.0038539888
0.0038545677
0.0038551508
0.0038557383
0.00385633
0.0038569261
0.0038575265
0.0038581314
0.0038587406
0.0038593544
0.0038599726
0.0038605953
0.0038612225
0.0038618543
0.0038624907
0.0038631317
0.0038637774
0.0038644278
0.0038650829
0.0038657428
0.0038664074
0.0038670769
0.0038677512
0.0038684304
0.0038691145
0.0038698037
0.0038704978
0.0038711969
0.0038719011
0.0038726105
0.003873325
0.0038740446
0.0038747696
0.0038754998
0.0038762353
0.0038769762
0.0038777225
0.0038784743
0.0038792316
0.0038799944
0.0038807629
0.003881537
0.0038823169
0.0038831025
0.0038838939
0.0038846912
0.0038854945
0.0038863037
0.0038871191
0.0038879405
0.0038887682
0.003889602
0.0038904423
0.0038912889
0.003892142
0.0038930016
0.0038938679
0.0038947408
0.0038956206
0.0038965072
0.0038974008
0.0038983014
0.0038992092
0.0039001242
0.0039010466
0.0039019764
0.0039029138
0.0039038588
0.0039048117
0.0039057724
0.0039067411
0.003907718
0.0039087032
0.0039096968
0.0039106989
0.0039117097
0.0039127294
0.0039137582
0.003914796
0.0039158433
0.0039169
0.0039179665
0.0039190428
0.0039201293
0.003921226
0.0039223333
0.0039234512
0.0039245801
0.0039257202
0.0039268718
0.003928035
0.0039292102
0.0039303976
0.0039315976
0.0039328103
0.0039340362
0.0039352756
0.0039365287
0.0039377959
0.0039390777
0.0039403743
0.0039416862
0.0039430137
0.0039443573
0.0039457175
0.0039470946
0.0039484892
0.0039499017
0.0039513327
0.0039527826
0.0039542521
0.0039557417
0.003957252
0.0039587837
0.0039603373
0.0039619135
0.003963513
0.0039651366
0.003966785
0.0039684589
0.0039701593
0.0039718868
0.0039736424
0.0039754271
0.0039772416
0.003979087
0.0039809644
0.0039828747
0.003984819
0.0039867985
0.0039888143
0.0039908677
0.0039929599
0.0039950921
0.0039972659
0.0039994824
0.0040017433
0.0040040501
0.0040064041
0.0040088072
0.004011261
0.0040137671
0.0040163275
0.0040189439
0.0040216183
0.0040243527
0.0040271491
0.0040300097
0.0040329367
0.0040359324
0.0040389991
0.0040421393
0.0040453556
0.0040486504
0.0040520267
0.0040554871
0.0040590345
0.0040626719
0.0040664025
0.0040702294
0.0040741559
0.0040781854
0.0040823214
0.0040865676
0.0040909277
0.0040954056
0.0041000053
0.0041047308
0.0041095864
0.0041145766
0.0041197058
0.0041249786
0.0041304
0.0041359748
0.0041417082
0.0041476055
0.0041536719
0.0041599132
0.0041663351
0.0041729435
0.0041797445
0.0041867443
0.0041939496
0.0042013668
0.0042090029
0.0042168649
0.00422496
0.0042332958
0.0042418798
0.0042507199
0.0042598243
0.0042692012
0.0042788593
0.0042888073
0.0042990542
0.0043096094
0.0043204823
0.0043316828
0.0043432208
0.0043551068
0.0043673512
0.0043799649
0.0043929591
0.0044063451
0.0044201348
0.0044343401
0.0044489734
0.0044640472
0.0044795745
0.0044955686
0.0045120431
0.0045290118
0.0045464891
0.0045644896
0.0045830281
0.00460212
0.0046217809
0.0046420269
0.0046628744
0.0046843402
0.0047064413
0.0047291955
0.0047526204
0.0047767346
0.0048015568
0.0048271061
0.0048534021
0.0048804648
0.0049083146
0.0049369724
0.0049664594
0.0049967974
0.0050280086
0.0050601155
0.0050931414
0.0051271098
0.0051620447
0.0051979705
0.0052349124
0.0052728957
0.0053119465
0.0053520911
0.0053933566
0.0054357704
0.0054793604
0.0055241551
0.0055701835
0.0056174751
0.00566606
0.0057159686
0.0057672322
0.0058198822
0.0058739509
0.005929471
0.0059864756
0.0060449986
0.0061050744
0.0061667377
0.006230024
0.0062949694
0.0063616103
0.0064299839
0.0065001278
0.0065720803
0.0066458801
0.0067215666
0.0067991797
0.0068787599
0.0069603481
0.007043986
0.0071297158
0.0072175802
0.0073076225
0.0073998864
0.0074944164
0.0075912575
0.0076904552
0.0077920554
0.007896105
0.0080026509
0.0081117409
0.0082234232
0.0083377467
0.0084547605
0.0085745147
0.0086970594
0.0088224457
0.0089507249
0.0090819488
0.00921617
0.0093534413
0.009493816
0.0096373482
0.009784092
0.0099341025
0.010087435
0.010244144
0.010404288
0.010567922
0.010735103
0.01090589
0.011080339
0.011258509
0.011440458
0.011626247
0.011815933
0.012009578
0.012207241
0.012408982
0.012614863
0.012824944
0.013039287
0.013257953
0.013481005
0.013708504
0.013940514
0.014177097
0.014418316
0.014664233
0.014914913
0.015170419
0.015430815
0.015696164
0.01596653
0.016241978
0.016522571
0.016808375
0.017099453
0.01739587
0.01769769
0.018004978
0.018317798
0.018636215
0.018960294
0.019290098
0.019625693
0.019967142
0.020314509
0.02066786
0.021027257
0.021392766
0.021764449
0.022142369
0.022526592
0.022917179
0.023314193
0.023717697
0.024127755
0.024544426
0.024967775
0.025397862
0.025834748
0.026278494
0.026729162
0.02718681
0.027651499
0.028123289
0.028602237
0.029088403
0.029581844
0.030082619
0.030590784
0.031106396
0.031629511
0.032160184
0.03269847
0.033244425
0.033798101
0.034359552
0.034928831
0.035505989
0.036091078
0.036684149
0.037285252
0.037894436
0.03851175
0.039137242
0.039770959
0.040412948
0.041063255
0.041721925
0.042389003
0.043064531
0.043748553
0.044441111
0.045142246
0.045851998
0.046570407
0.047297513
0.048033352
0.048777963
0.049531381
0.050293642
0.05106478
0.05184483
0.052633824
0.053431794
0.054238771
0.055054785
0.055879866
0.056714043
0.057557342
0.05840979
0.059271413
0.060142236
0.061022283
0.061911576
0.062810138
0.06371799
0.064635152
0.065561643
0.066497482
0.067442686
0.068397271
0.069361254
0.070334648
0.071317468
0.072309727
0.073311435
0.074322605
0.075343246
0.076373368
0.077412978
0.078462084
0.079520693
0.080588809
0.081666438
0.082753583
0.083850247
0.084956433
0.08607214
0.08719737
0.088332121
0.089476392
0.090630181
0.091793484
0.092966297
0.094148616
0.095340434
0.096541745
0.097752541
0.098972815
0.10020256
0.10144176
0.1026904
0.10394849
0.105216
0.10649292
0.10777923
0.10907493
0.11038
0.11169442
0.11301817
0.11435124
0.11569361
0.11704526
0.11840617
0.11977632
0.1211557
0.12254427
0.12394201
0.12534891
0.12676494
0.12819008
0.1296243
0.13106757
0.13251987
0.13398118
0.13545147
0.1369307
0.13841885
0.13991589
0.1414218
0.14293654
0.14446008
0.1459924
0.14753345
0.14908321
0.15064165
0.15220874
0.15378443
0.1553687
0.15696151
0.15856283
0.16017262
0.16179085
0.16341748
0.16505247
0.1666958
0.16834741
0.17000729
0.17167537
0.17335164
0.17503605
0.17672855
0.17842912
0.18013772
0.1818543
0.18357882
0.18531124
0.18705153
0.18879964
0.19055553
0.19231916
0.19409049
0.19586947
0.19765607
0.19945024
0.20125194
0.20306113
0.20487776
0.20670179
0.20853318
0.21037188
0.21221786
0.21407106
0.21593144
0.21779896
0.21967358
0.22155524
0.22344391
0.22533955
0.22724209
0.22915151
0.23106776
0.23299079
0.23492055
0.236857
0.2388001
0.2407498
0.24270605
0.24466881
0.24663803
0.24861367
0.25059568
0.25258402
0.25457864
0.25657949
0.25858653
0.26059971
0.26261898
0.26464431
0.26667564
0.26871292
0.27075612
0.27280518
0.27486007
0.27692072
0.2789871
0.28105917
0.28313686
0.28522015
0.28730898
0.2894033
0.29150308
0.29360826
0.2957188
0.29783465
0.29995577
0.30208211
0.30421362
0.30635026
0.30849199
0.31063875
0.31279051
0.31494721
0.31710881
0.31927527
0.32144654
0.32362257
0.32580332
0.32798875
0.3301788
0.33237344
0.33457261
0.33677628
0.3389844
0.34119692
0.3434138
0.34563499
0.34786045
0.35009014
0.352324
0.354562
0.35680409
0.35905023
0.36130037
0.36355447
0.36581248
0.36807436
0.37034007
0.37260956
0.37488278
0.37715971
0.37944028
0.38172446
0.3840122
0.38630346
0.3885982
0.39089638
0.39319794
0.39550285
0.39781107
0.40012255
0.40243724
0.40475512
0.40707612
0.40940022
0.41172736
0.41405751
0.41639062
0.41872665
0.42106556
0.4234073
0.42575184
0.42809913
0.43044913
0.4328018
0.43515709
0.43751497
0.43987539
0.44223831
0.4446037
0.44697149
0.44934167
0.45171418
0.45408898
0.45646604
0.4588453
0.46122674
0.46361031
0.46599596
0.46838366
0.47077337
0.47316504
0.47555863
0.47795411
0.48035144
0.48275056
0.48515145
0.48755406
0.48995835
0.49236428
0.49477181
0.49718089
0.4995915
0.50200359
0.50441711
0.50683204
0.50924832
0.51166592
0.5140848
0.51650492
0.51892623
0.52134871
0.5237723
0.52619697
0.52862268
0.53104939
0.53347706
0.53590564
0.53833511
0.54076541
0.54319652
0.54562838
0.54806096
0.55049423
0.55292813
0.55536264
0.55779771
0.56023329
0.56266937
0.56510588
0.5675428
0.56998008
0.57241768
0.57485557
0.5772937
0.57973204
0.58217054
0.58460917
0.58704788
0.58948664
0.59192541
0.59436414
0.5968028
0.59924135
0.60167975
0.60411795
0.60655593
0.60899363
0.61143103
0.61386807
0.61630472
0.61874095
0.6211767
0.62361194
0.62604664
0.62848075
0.63091422
0.63334703
0.63577913
0.63821048
0.64064104
0.64307077
0.64549964
0.64792759
0.6503546
0.65278062
0.65520561
0.65762953
0.66005234
0.662474
0.66489447
0.66731371
0.66973168
0.67214834
0.67456364
0.67697756
0.67939004
0.68180105
0.68421054
0.68661848
0.68902482
0.69142953
0.69383256
0.69623387
0.69863342
0.70103117
0.70342708
0.70582111
0.70821322
0.71060336
0.7129915
0.71537759
0.71776159
0.72014347
0.72252317
0.72490066
0.72727589
0.72964883
0.73201943
0.73438766
0.73675346
0.7391168
0.74147764
0.74383593
0.74619163
0.7485447
0.7508951
0.75324279
0.75558771
0.75792984
0.76026913
0.76260554
0.76493902
0.76726954
0.76959704
0.77192149
0.77424284
0.77656106
0.7788761
0.78118791
0.78349645
0.78580169
0.78810358
0.79040207
0.79269712
0.79498869
0.79727674
0.79956122
0.80184209
0.80411931
0.80639283
0.80866261
0.81092861
0.81319079
0.81544909
0.81770348
0.81995392
0.82220036
0.82444275
0.82668106
0.82891524
0.83114524
0.83337103
0.83559256
0.83780978
0.84002266
0.84223114
0.84443519
0.84663477
0.84882982
0.8510203
0.85320618
0.8553874
0.85756392
0.85973571
0.86190271
0.86406488
0.86622219
0.86837458
0.87052201
0.87266443
0.87480182
0.87693411
0.87906128
0.88118326
0.88330003
0.88541154
0.88751774
0.88961859
0.89171405
0.89380408
0.89588863
0.89796765
0.90004111
0.90210897
0.90417117
0.90622768
0.90827846
0.91032345
0.91236263
0.91439594
0.91642334
0.9184448
0.92046027
0.9224697
0.92447306
0.92647031
0.92846139
0.93044628
0.93242492
0.93439729
0.93636332
0.938323
0.94027626
0.94222309
0.94416342
0.94609722
0.94802446
0.94994509
0.95185907
0.95376636
0.95566692
0.95756072
0.95944771
0.96132785
0.96320111
0.96506745
0.96692682
0.9687792
0.97062454
0.9724628
0.97429395
0.97611794
0.97793475
0.97974434
0.98154667
0.9833417
0.98512939
0.98690972
0.98868265
0.99044813
0.99220614
0.99395665
0.99569961
0.99743499
0.99916277
1.0008829
1.0025954
1.0043001
1.0059971
1.0076863
1.0093678
1.0110413
1.0127071
1.0143649
1.0160148
1.0176567
1.0192907
1.0209166
1.0225345
1.0241443
1.0257461
1.0273397
1.0289251
1.0305024
1.0320715
1.0336323
1.0351849
1.0367292
1.0382651
1.0397928
1.0413121
1.042823
1.0443256
1.0458197
1.0473054
1.0487826
1.0502514
1.0517116
1.0531633
1.0546065
1.0560411
1.0574672
1.0588847
1.0602935
1.0616938
1.0630854
1.0644683
1.0658426
1.0672082
1.0685652
1.0699134
1.0712529
1.0725836
1.0739057
1.0752189
1.0765235
1.0778192
1.0791062
1.0803844
1.0816538
1.0829144
1.0841662
1.0854092
1.0866434
1.0878688
1.0890854
1.0902931
1.0914921
1.0926822
1.0938635
1.0950359
1.0961996
1.0973544
1.0985004
1.0996376
1.1007659
1.1018855
1.1029962
1.1040982
1.1051914
1.1062758
1.1073514
1.1084182
1.1094763
1.1105257
1.1115663
1.1125981
1.1136213
1.1146357
1.1156415
1.1166386
1.117627
1.1186068
1.1195779
1.1205404
1.1214944
1.1224397
1.1233765
1.1243047
1.1252244
1.1261356
1.1270384
1.1279326
1.1288185
1.1296959
1.1305649
1.1314256
1.1322779
1.1331219
1.1339576
1.134785
1.1356042
1.1364152
1.1372181
1.1380127
1.1387993
1.1395777
1.1403481
1.1411105
1.1418649
1.1426113
1.1433498
1.1440804
1.1448031
1.145518
1.1462252
1.1469245
1.1476162
1.1483001
1.1489765
1.1496452
1.1503063
1.15096
1.1516061
1.1522448
1.1528761
1.1535
1.1541166
1.154726
1.155328
1.1559229
1.1565107
1.1570913
1.1576649
1.1582314
1.158791
1.1593436
1.1598893
1.1604282
1.1609603
1.1614857
1.1620044
1.1625164
1.1630218
1.1635206
1.1640129
1.1644988
1.1649783
1.1654513
1.1659181
1.1663786
1.1668329
1.167281
1.167723
1.1681589
1.1685888
1.1690128
1.1694308
1.169843
1.1702493
1.1706499
1.1710447
1.1714339
1.1718175
1.1721955
1.1725681
1.1729351
1.1732968
1.1736531
1.174004
1.1743498
1.1746903
1.1750257
1.175356
1.1756812
1.1760015
1.1763168
1.1766272
1.1769327
1.1772335
1.1775296
1.1778209
1.1781076
1.1783898
1.1786674
1.1789405
1.1792092
1.1794735
1.1797335
1.1799892
1.1802406
1.1804879
1.180731
1.1809701
1.1812051
1.1814362
1.1816633
1.1818865
1.1821059
1.1823215
1.1825333
1.1827415
1.182946
1.1831469
1.1833443
1.1835382
1.1837286
1.1839155
1.1840992
1.1842795
1.1844565
1.1846303
1.1848009
1.1849684
1.1851327
1.1852941
1.1854524
1.1856077
1.1857601
1.1859097
1.1860564
1.1862003
1.1863414
1.1864798
1.1866156
1.1867487
1.1868793
1.1870072
1.1871327
1.1872557
1.1873763
1.1874944
1.1876102
1.1877237
1.1878349
1.1879439
1.1880506
1.1881552
1.1882576
1.1883579
1.1884562
1.1885524
1.1886466
1.1887388
1.1888291
1.1889176
1.1890041
1.1890888
1.1891717
1.1892529
1.1893323
1.18941
1.189486
1.1895603
1.1896331
1.1897042
1.1897738
1.1898419
1.1899084
1.1899735
1.1900371
1.1900993
1.1901601
1.1902196
1.1902777
1.1903345
1.1903899
1.1904442
1.1904971
1.1905489
1.1905994
1.1906488
1.1906971
1.1907442
1.1907902
1.1908351
1.190879
1.1909218
1.1909636
1.1910045
1.1910443
1.1910832
1.1911211
1.1911582
1.1911943
1.1912295
1.1912639
1.1912975
1.1913302
1.1913621
1.1913932
1.1914236
1.1914532
1.1914821
1.1915102
1.1915376
1.1915644
1.1915904
1.1916158
1.1916405
1.1916647
1.1916882
1.191711
1.1917333
1.1917551
1.1917762
1.1917968
1.1918169
1.1918364
1.1918555
1.191874
1.191892
1.1919096
1.1919267
1.1919433
1.1919595
1.1919752
1.1919905
1.1920055
1.19202
1.1920341
1.1920478
1.1920611
1.1920741
1.1920867
1.192099
1.1921109
1.1921225
1.1921338
1.1921448
1.1921554
1.1921658
1.1921758
1.1921856
1.1921951
1.1922043
1.1922133
1.192222
1.1922304
1.1922386
1.1922466
1.1922543
1.1922619
1.1922692
1.1922762
1.1922831
1.1922898
1.1922963
1.1923025
1.1923086
1.1923145
1.1923203
1.1923258
1.1923312
1.1923365
1.1923415
1.1923465
1.1923512
1.1923558
1.1923603
1.1923647
1.1923689
1.192373
1.1923769
1.1923807
1.1923844
1.192388
1.1923915
1.1923949
1.1923982
1.1924013
1.1924044
1.1924073
1.1924102
1.192413
1.1924157
1.1924183
1.1924208
1.1924232
1.1924256
1.1924279
1.1924301
1.1924322
1.1924342
1.1924362
1.1924382
1.19244
1.1924418
1.1924435
1.1924452
1.1924468
1.1924484
1.1924499
1.1924514
1.1924528
1.1924542
1.1924555
1.1924567
1.192458
1.1924591
1.1924603
1.1924614
1.1924624
1.1924635
1.1924645
1.1924654
1.1924663
1.1924672
1.1924681
1.1924689
1.1924697
1.1924704
1.1924712
1.1924719
1.1924725
1.1924732
1.1924738
1.1924744
1.192475
1.1924756
1.1924761
1.1924766
1.1924771
1.1924776
1.1924781
1.1924785
1.1924789
1.1924793
1.1924797
1.1924801
1.1924804
1.1924808
1.1924811
1.1924814
1.1924817
1.192482
1.1924823
1.1924825
1.1924828
1.192483
1.1924833
1.1924835
1.1924837
1.1924839
1.1924841
1.1924843
1.1924844
1.1924846
1.1924847
1.1924849
1.192485
1.1924852
1.1924853
1.1924854
1.1924855
1.1924856
1.1924857
1.1924858
1.1924859
1.192486
1.1924861
1.1924861
1.1924862
1.1924863
1.1924863
1.1924864
1.1924864
1.1924865
1.1924865
1.1924865
1.1924866
1.1924866
1.1924866
1.1924867
1.1924867
1.1924867
1.1924867
1.1924867
1.1924867
1.1924867
1.1924867
1.1924867
1.1924867
1.1924867
1.1924867
1.1924867
1.1924867
1.1924867
1.1924866
1.1924866
1.1924866
1.1924866
1.1924866
1.1924865
1.1924865
1.1924865
1.1924864
1.1924864
1.1924864
1.1924863
1.1924863
1.1924863
1.1924862
1.1924862
1.1924861
1.1924861
1.1924861
1.192486
1.192486
1.1924859
1.1924859
1.1924858
1.1924858
1.1924857
1.1924857
1.1924856
1.1924856
1.1924855
1.1924855
1.1924854
1.1924853
1.1924853
1.1924852
1.1924852
1.1924851
1.192485
1.192485
1.1924849
1.1924849
1.1924848
1.1924847
1.1924847
1.1924846
1.1924845
1.1924845
1.1924844
1.1924843
1.1924842
1.1924842
1.1924841
1.192484
1.192484
1.1924839
1.1924838
1.1924837
1.1924837
1.1924836
1.1924835
1.1924835
1.1924834
1.1924833
1.1924832
1.1924832
1.1924831
1.192483
1.1924829
1.1924828
1.1924828
1.1924827
1.1924826
1.1924825
1.1924824
1.1924823
1.1924823
1.1924822
1.1924821
1.192482
1.1924819
1.1924819
1.1924818
1.1924817
1.1924816
1.1924815
1.1924814
1.1924813
1.1924813
1.1924812
1.1924811
1.192481
1.1924809
1.1924808
1.1924807
1.1924806