/*--------------------------------*- C++ -*----------------------------------*\
| =========                 |                                                 |
| \\      /  F ield         | OpenFOAM: The Open Source CFD Toolbox           |
|  \\    /   O peration     | Version:  4.x                                   |
|   \\  /    A nd           | Web:      www.OpenFOAM.org                      |
|    \\/     M anipulation  |                                                 |
\*---------------------------------------------------------------------------*/
FoamFile
{
    version     2.0;
    format      ascii;
    class       volVectorField;
    location    "0.21";
    object      U;
}
// * * * * * * * * * * * * * * * * * * * * * * * * * * * * * * * * * * * * * //

dimensions      [0 1 -1 0 0 0 0];

internalField   nonuniform List<vector> 
25344
(
(0.02685540538 0.003072360305 0.003072360186)
(0.03052168439 0.004149578691 0.003678718057)
(0.03059715975 0.002113734345 0.00371668148)
(0.03028875655 0.001641642727 0.003751695949)
(0.03013801177 0.0009614368644 0.003753350613)
(0.03005364719 0.0007174885654 0.003758115384)
(0.03052168491 0.003678718058 0.004149578165)
(0.03531066989 0.005077912326 0.005077912275)
(0.03536020093 0.00263945698 0.005169339921)
(0.03503398724 0.001951796941 0.005164514529)
(0.03490736232 0.001128989745 0.005148439695)
(0.03485518565 0.0008282827228 0.005140753153)
(0.03059716024 0.003716681416 0.002113734026)
(0.03536020044 0.005169339299 0.002639458173)
(0.03541397178 0.002649956964 0.002649957823)
(0.03510213724 0.001961161022 0.002632020117)
(0.03499150109 0.001126596722 0.002611651539)
(0.03494613287 0.0008270030861 0.002605903298)
(0.03028875741 0.003751695578 0.001641644255)
(0.03503398781 0.005164513796 0.001951800731)
(0.03510213732 0.002632019613 0.001961163589)
(0.03479967847 0.001930950338 0.00193095258)
(0.03469571803 0.001102040927 0.001911159229)
(0.03465341621 0.0008065595392 0.001898168462)
(0.03013801282 0.003753350436 0.0009614397396)
(0.03490736252 0.00514843938 0.001128994706)
(0.03499150017 0.002611651508 0.001126600026)
(0.03469571726 0.001911157473 0.00110204431)
(0.03459513416 0.001087123418 0.001087126747)
(0.03455524645 0.0007971056189 0.001076825986)
(0.03005364787 0.0037581152 0.0007174923525)
(0.03485518508 0.005140752752 0.0008282876939)
(0.03494613118 0.002605903744 0.0008270068821)
(0.03465341441 0.001898167551 0.0008065641362)
(0.03455524472 0.001076822981 0.0007971103706)
(0.0345179161 0.0007890088896 0.0007890137971)
(0.02268645308 0.002060094033 0.002060094572)
(0.02831494473 0.003846351346 0.002904271982)
(0.02879756617 0.002670340714 0.002994428852)
(0.0281535904 0.002334951566 0.003030645451)
(0.0277528875 0.001648659159 0.003030418209)
(0.02747594995 0.001349140632 0.003045759772)
(0.02831494459 0.002904271736 0.003846348864)
(0.03706272936 0.005279347474 0.005279340552)
(0.0383524117 0.003890259135 0.005517204017)
(0.0376091079 0.003368728252 0.005528208489)
(0.03700245136 0.002426263028 0.005529485631)
(0.03659140205 0.001973014055 0.005537309794)
(0.02879756579 0.002994428009 0.002670335604)
(0.03835241102 0.005517209105 0.003890245554)
(0.03971670574 0.004108844397 0.004108841124)
(0.03888541963 0.003495814325 0.004132957981)
(0.03823239132 0.002464048025 0.004142426115)
(0.03781198643 0.001978820337 0.004156882088)
(0.02815358994 0.00303064521 0.00233494831)
(0.03760910597 0.005528210904 0.003368716497)
(0.03888541895 0.004132957216 0.003495816492)
(0.03800548853 0.003517347076 0.003517353739)
(0.03733230272 0.002482834729 0.003531423614)
(0.03691203805 0.001989880052 0.003538513318)
(0.02775288803 0.003030418581 0.001648657626)
(0.03700245071 0.005529486502 0.002426252703)
(0.03823239145 0.004142422878 0.002464052775)
(0.03733230319 0.003531415346 0.002482845717)
(0.0366546272 0.0024964081 0.002496421787)
(0.03623099121 0.002002510055 0.002503024645)
(0.0274759509 0.003045760581 0.001349141218)
(0.03659140302 0.005537310961 0.001973006917)
(0.03781198724 0.004156879671 0.001978828967)
(0.03691204047 0.003538506251 0.001989895593)
(0.03623099405 0.002503011509 0.002002529488)
(0.03580714624 0.002007629044 0.002007650545)
(0.01420676263 0.001298073797 0.001298071989)
(0.02189153422 0.003122701788 0.001996735956)
(0.02335773191 0.002489457881 0.002028277498)
(0.02277953633 0.002378025739 0.00201776139)
(0.02223992686 0.001839340753 0.001990119828)
(0.02182619928 0.001564268571 0.001990848799)
(0.02189153383 0.001996738199 0.003122694232)
(0.03507442282 0.004774207255 0.004774196454)
(0.03759870897 0.003958400475 0.005008469036)
(0.03707776957 0.003693597915 0.005001761858)
(0.03642481212 0.002834437118 0.005005139023)
(0.03592650826 0.002349839098 0.005009274827)
(0.02335773289 0.002028280683 0.002489443824)
(0.03759870909 0.005008478961 0.003958376866)
(0.04062491517 0.004222126358 0.00422209988)
(0.04018654845 0.004042402249 0.004302691843)
(0.03946831438 0.003146528333 0.004320386003)
(0.038916246 0.002626574953 0.004301356509)
(0.02277953894 0.002017765349 0.002378011059)
(0.03707776845 0.005001768738 0.003693572224)
(0.04018654954 0.004302706678 0.004042376852)
(0.03975486396 0.004085029761 0.004085015031)
(0.03904452755 0.003198682685 0.004090268037)
(0.03848343221 0.002682156311 0.004078766492)
(0.02223993285 0.001990125219 0.001839326531)
(0.0364248144 0.005005144478 0.002834414718)
(0.03946831812 0.004320400382 0.003146508676)
(0.03904453318 0.004090280473 0.003198667872)
(0.03832479817 0.003209132354 0.003209118886)
(0.03775486042 0.002692551566 0.003203075037)
(0.02182620815 0.001990854611 0.001564257235)
(0.03592651627 0.005009281149 0.002349822515)
(0.03891625739 0.00430137232 0.002626560969)
(0.03848344782 0.00407877935 0.002682146206)
(0.03775487355 0.00320308761 0.002692543823)
(0.03718015274 0.002691225853 0.002691223774)
(0.0108166286 0.0006373100698 0.0006373089458)
(0.01809408116 0.001815709759 0.001093678528)
(0.02001140898 0.001808891296 0.001129051736)
(0.01976329958 0.001895125448 0.001092253764)
(0.01935864775 0.001626839153 0.001049654504)
(0.01898386768 0.001458359369 0.001036766096)
(0.0180940809 0.001093681646 0.001815699391)
(0.0324638371 0.003239378851 0.003239354072)
(0.03640061274 0.003280457643 0.003544070233)
(0.03627111078 0.003303346287 0.003507069755)
(0.03566352034 0.002797374316 0.003412784875)
(0.03508888222 0.00243799082 0.003355437257)
(0.02001140816 0.001129057033 0.00180886906)
(0.03640061045 0.003544101212 0.003280408815)
(0.04081113819 0.003633888943 0.003633830932)
(0.04077760136 0.003676945387 0.003586649838)
(0.04019620558 0.003147098959 0.003494367339)
(0.03959564003 0.002742594486 0.003444818656)
(0.01976329922 0.001092260474 0.001895097739)
(0.03627110777 0.003507103548 0.003303285796)
(0.04077759649 0.003586714295 0.003676873004)
(0.04079733564 0.00368712903 0.003687050427)
(0.04020677342 0.003185668013 0.003637335912)
(0.03959855009 0.002793717609 0.003599552601)
(0.01935864979 0.001049662426 0.001626805823)
(0.03566352171 0.003412821458 0.002797302457)
(0.04019620729 0.003494434649 0.003147010508)
(0.0402067798 0.003637418525 0.003185574951)
(0.03960681741 0.003162863973 0.003162763885)
(0.03899776203 0.002791643279 0.003141297623)
(0.01898387077 0.00103677435 0.001458328044)
(0.0350888884 0.003355473978 0.002437919942)
(0.03959565041 0.003444885871 0.002742503965)
(0.03959856603 0.003599633457 0.002793620544)
(0.03899777488 0.003141397076 0.002791538545)
(0.03839096608 0.002784103049 0.002784001786)
(0.008531084997 0.000336849647 0.0003368518785)
(0.01561863993 0.00104949955 0.0005601954634)
(0.01771785503 0.001186556219 0.0005649922061)
(0.01776387653 0.001358321317 0.0005325657259)
(0.01752256236 0.001288251062 0.0005011101141)
(0.01724433179 0.001226087136 0.000490770389)
(0.01561863537 0.0005601945757 0.001049499585)
(0.03030587708 0.001953502801 0.001953486059)
(0.03480466164 0.002296483063 0.00214563689)
(0.03513486008 0.002544049631 0.002084859023)
(0.03474737237 0.002376906706 0.002008067175)
(0.03427294921 0.002199762686 0.001964467865)
(0.01771784478 0.0005649940259 0.001186547456)
(0.03480464987 0.002145664013 0.002296439352)
(0.0401092697 0.002590351503 0.002590289866)
(0.04055237986 0.002880167781 0.002551009955)
(0.04014123987 0.00270192657 0.002479307334)
(0.03962101019 0.002495321723 0.002437808906)
(0.01776386042 0.0005325692295 0.001358308232)
(0.03513483648 0.00208489094 0.002543990937)
(0.04055236648 0.002551078788 0.002880086509)
(0.04103094306 0.002898914562 0.002898826419)
(0.04062252398 0.002741492141 0.002855539546)
(0.04010327964 0.002547733313 0.002824737102)
(0.01752254231 0.0005011146958 0.001288233371)
(0.03474734511 0.002008102047 0.002376835259)
(0.04014122395 0.002479379575 0.002701827351)
(0.04062252084 0.002855630924 0.002741385654)
(0.04022459952 0.002721081609 0.002720969359)
(0.03971621323 0.002547685109 0.0027053516)
(0.01724430841 0.0004907753948 0.00122607329)
(0.03427291637 0.001964503285 0.002199695106)
(0.0396209875 0.002437880099 0.002495222262)
(0.04010326928 0.002824822322 0.00254762358)
(0.03971620839 0.002705456675 0.002547570502)
(0.0392208179 0.002545856274 0.00254575485)
(0.007320468121 0.0001736886821 0.0001736911885)
(0.01409918688 0.000602629587 0.0002828281897)
(0.016248566 0.0007883821551 0.0002768918907)
(0.01650740626 0.0009842433415 0.000257463025)
(0.01640618179 0.001020488662 0.0002381620605)
(0.01623914041 0.001026977113 0.0002335094201)
(0.01409918178 0.0002828254017 0.0006026393967)
(0.02858458954 0.001142081316 0.001142087404)
(0.03329774408 0.001562260197 0.001256345063)
(0.03397517558 0.001900254568 0.001218416833)
(0.03380146698 0.001931657704 0.001171476889)
(0.03348304497 0.001892160115 0.001148900303)
(0.01624855392 0.0002768899598 0.0007883935247)
(0.03329773023 0.001256345258 0.001562257466)
(0.0389017681 0.00177328148 0.001773265906)
(0.03973879274 0.00217599715 0.001765917259)
(0.03955171273 0.00221222783 0.001726827266)
(0.03919192004 0.002160274823 0.001706771453)
(0.01650738636 0.0002574623056 0.0009842568892)
(0.0339751449 0.001218420941 0.001900248406)
(0.0397387741 0.001765937987 0.002175974159)
(0.04061230001 0.002202573402 0.002202546475)
(0.04043568669 0.002258501044 0.002182848825)
(0.04008296379 0.002217305096 0.002171269641)
(0.01640615282 0.0002381623261 0.00102050187)
(0.03380142246 0.001171483763 0.001931646268)
(0.03955168112 0.001726850781 0.002212194837)
(0.04043567324 0.002182876902 0.002258464805)
(0.04027722499 0.00225555184 0.00225551372)
(0.03994257653 0.002228449136 0.002255822571)
(0.01623910346 0.0002335082997 0.001026994557)
(0.03348298702 0.001148907736 0.001892158334)
(0.0391918726 0.001706795521 0.002160249828)
(0.04008293238 0.002171291525 0.002217276477)
(0.03994255969 0.00225585068 0.002228421538)
(0.0396253235 0.002242113567 0.002242105163)
(0.006607164563 9.454679647e-05 9.454792565e-05)
(0.01315859801 0.0003828820664 0.0001504516579)
(0.01530772303 0.0005782370669 0.0001452226869)
(0.01569745707 0.0007724263112 0.00013608765)
(0.01569924703 0.0008634162171 0.0001268201108)
(0.01562607665 0.0009073023566 0.0001268023161)
(0.01315859611 0.0001504493578 0.0003828915691)
(0.02730393924 0.0007112317053 0.0007112489811)
(0.03204633477 0.001126009632 0.00078316378)
(0.03294786941 0.001477465029 0.0007692551351)
(0.03294917208 0.001618040261 0.000750447788)
(0.03278625462 0.001661082145 0.0007484244362)
(0.01530771695 0.0001452191 0.0005782543228)
(0.03204632716 0.0007831442479 0.00112603577)
(0.03770363724 0.001283449311 0.001283474815)
(0.03879435699 0.001698483029 0.00129726867)
(0.03880366216 0.001857734424 0.001289862313)
(0.03861705069 0.001900400256 0.001295460427)
(0.01569744391 0.0001360843284 0.0007724506571)
(0.03294784793 0.0007692373323 0.001477499792)
(0.03879434253 0.001297245281 0.001698514385)
(0.03993881878 0.001739741923 0.001739772135)
(0.03996718183 0.001916966258 0.001749566164)
(0.03979266231 0.001969560808 0.001765454293)
(0.01569922201 0.000126816668 0.0008634423118)
(0.03294913059 0.0007504312134 0.001618076207)
(0.03880362864 0.001289840353 0.001857763433)
(0.03996716196 0.001749536524 0.001916994752)
(0.0400181481 0.001942308402 0.001942334324)
(0.03986224526 0.002007279097 0.001969148325)
(0.01562604236 0.0001267968922 0.0009073304336)
(0.0327861948 0.0007484061339 0.001661125285)
(0.03861699806 0.001295437939 0.001900437504)
(0.0397926211 0.001765419901 0.001969599824)
(0.03986222417 0.001969115991 0.002007315232)
(0.03971657991 0.00204528814 0.002045333891)
(0.006131502629 5.815765442e-05 5.815736843e-05)
(0.01248400538 0.0002889903073 9.367080427e-05)
(0.01461256297 0.0004924950778 9.229439457e-05)
(0.01508198059 0.0006861438186 8.97921511e-05)
(0.01515854669 0.000807086701 8.764795107e-05)
(0.01516161269 0.0008732564939 9.128340081e-05)
(0.01248400554 9.367051129e-05 0.0002889943447)
(0.02627545284 0.0005195453164 0.0005195591317)
(0.03097890505 0.0009189030129 0.0005753422746)
(0.03202229569 0.001266265022 0.0005807769752)
(0.03216230523 0.001465204442 0.0005850090522)
(0.0321339506 0.001558802116 0.0006012037559)
(0.01461256114 9.229257895e-05 0.0004925072446)
(0.03097890355 0.0005753227152 0.0009189328249)
(0.0365988593 0.001048102898 0.001048138891)
(0.03785453366 0.001453460592 0.001081239907)
(0.03802476374 0.00167901652 0.001103131748)
(0.03799225843 0.001780926194 0.001136480318)
(0.01508197434 8.978903259e-05 0.0006861633153)
(0.03202228766 0.0005807561983 0.001266306738)
(0.0378545276 0.001081203038 0.001453506732)
(0.0391754076 0.001512280358 0.001512326939)
(0.03937255683 0.001756397038 0.001553499405)
(0.03935965623 0.001870223 0.001604112327)
(0.01515853239 8.764445396e-05 0.0008071074267)
(0.03216228132 0.0005849867524 0.001465247921)
(0.03802473991 0.001103094541 0.001679063136)
(0.03937253737 0.001553453283 0.00175644521)
(0.03959660817 0.001815222073 0.001815266059)
(0.03960913925 0.001940608251 0.001878768583)
(0.01516159432 9.127826189e-05 0.0008732742918)
(0.03213390962 0.0006011775236 0.001558846278)
(0.03799221021 0.001136442557 0.001780975513)
(0.03935960903 0.00160406259 0.001870276619)
(0.0396091114 0.001878720041 0.001940656304)
(0.03964818115 0.00202555908 0.002025610252)
(0.005749365553 4.345592467e-05 4.345480814e-05)
(0.01190496773 0.000262195456 7.116145434e-05)
(0.01400333688 0.0004834052567 7.34160363e-05)
(0.01452220795 0.0006874793409 7.567422588e-05)
(0.01465521948 0.0008322837191 7.907316907e-05)
(0.01472099937 0.0009168959651 8.616818243e-05)
(0.01190496889 7.116060861e-05 0.000262194713)
(0.02533232527 0.0004569167297 0.0004569250363)
(0.02997724592 0.0008643412389 0.0005114704311)
(0.03111445317 0.001220868998 0.0005332318241)
(0.03136490213 0.001461005365 0.000556731506)
(0.03145396308 0.001591645851 0.0005895072185)
(0.01400333732 7.341428764e-05 0.0004834091163)
(0.02997724857 0.0005114573386 0.0008643608515)
(0.0355363225 0.0009859370343 0.0009859630932)
(0.03690462706 0.001396427427 0.001038426585)
(0.03720656217 0.001667968304 0.001087119385)
(0.03731337477 0.001812773426 0.001146360027)
(0.01452220655 7.567019996e-05 0.0006874874177)
(0.0311144556 0.0005332155904 0.001220896716)
(0.03690462795 0.001038398118 0.001396461399)
(0.03834956471 0.001475639879 0.00147567511)
(0.03868893728 0.001766692597 0.001547339618)
(0.03882746267 0.001923182088 0.001630258454)
(0.01465521648 7.906993569e-05 0.0008322916547)
(0.03136489704 0.0005567146237 0.001461031882)
(0.03720655179 0.001087090997 0.001668000329)
(0.03868892326 0.001547305321 0.001766727272)
(0.03906566617 0.00185722312 0.001857255299)
(0.03924629805 0.002024988744 0.001958638562)
(0.01472099838 8.616644989e-05 0.0009169051108)
(0.03145394749 0.0005894891979 0.001591672501)
(0.03731334131 0.00114633284 0.001812805291)
(0.03882742123 0.001630223587 0.001923219651)
(0.03924627177 0.001958604155 0.002025021867)
(0.03948768442 0.002134798329 0.002134836491)
(0.00538723856 3.947374758e-05 3.947125373e-05)
(0.01132742748 0.000271892478 6.471365136e-05)
(0.01338826939 0.0005238954026 7.007628353e-05)
(0.01393914916 0.0007537166559 7.630537617e-05)
(0.0141181963 0.0009264912759 8.460651544e-05)
(0.01423779798 0.001031638756 9.586500001e-05)
(0.01132742745 6.471522795e-05 0.0002718876871)
(0.02436166195 0.0004646629777 0.0004646632411)
(0.02894055312 0.000912049204 0.0005263812221)
(0.03014432193 0.001304305116 0.0005646166595)
(0.03048797804 0.001589468861 0.0006081944659)
(0.03068187551 0.001756378841 0.0006614317677)
(0.0133882686 7.007558736e-05 0.0005238923101)
(0.02894055502 0.0005263761782 0.0009120549429)
(0.03443487827 0.001042813969 0.001042825714)
(0.03588828763 0.001491193789 0.001119536513)
(0.03630589967 0.001813828176 0.001200251621)
(0.03654209875 0.002001046848 0.00129449619)
(0.0139391476 7.630317604e-05 0.0007537165098)
(0.03014432469 0.0005646091319 0.001304314232)
(0.03588828995 0.001119522846 0.001491208393)
(0.03743239786 0.001600702752 0.001600718342)
(0.03790214797 0.001948006671 0.001713574018)
(0.03818723332 0.002150436921 0.001843109912)
(0.01411819668 8.46060795e-05 0.0009264940244)
(0.0304879776 0.0006081882482 0.001589478759)
(0.03630589376 0.001200239063 0.001813841352)
(0.03790213587 0.001713559101 0.001948021532)
(0.03842431689 0.002086268424 0.002086280613)
(0.03876858344 0.002307664321 0.002247702874)
(0.0142378035 9.586541713e-05 0.001031644048)
(0.03068187115 0.0006614261613 0.001756390583)
(0.03654207577 0.001294485756 0.002001058881)
(0.03818719821 0.001843094807 0.002150452787)
(0.03876855905 0.002247688664 0.002307674465)
(0.0391897002 0.002480057621 0.002480069735)
(0.005003959171 3.967704982e-05 3.967497167e-05)
(0.01069425828 0.0003024516074 6.533811038e-05)
(0.0127073888 0.0005999411732 7.321094294e-05)
(0.01327932477 0.000871008588 8.278172428e-05)
(0.01349744497 0.001080970015 9.575685023e-05)
(0.01366520034 0.001212628613 0.0001120225235)
(0.01069425827 6.533975969e-05 0.0003024456697)
(0.02327743158 0.0005146842049 0.0005146815693)
(0.02777893604 0.001034329276 0.0005901135242)
(0.02903391556 0.0014918671 0.0006466560885)
(0.02946121546 0.001837617779 0.0007135101998)
(0.02975367894 0.00204911378 0.0007931293065)
(0.01270738896 7.320960219e-05 0.0005999351946)
(0.02777893764 0.0005901091401 0.001034328978)
(0.03320250078 0.001189544906 0.001189552343)
(0.03472788429 0.001712133948 0.001297904769)
(0.03525441533 0.002104977564 0.001419542596)
(0.03561774725 0.002344688028 0.001561483605)
(0.01327932384 8.278046599e-05 0.000871006416)
(0.0290339163 0.0006466515047 0.0014918678)
(0.03472788534 0.001297897285 0.001712138802)
(0.03636210808 0.001864784001 0.001864788504)
(0.03696090477 0.002292446141 0.002034049822)
(0.03739692167 0.002555319377 0.002230205718)
(0.01349744506 9.575719543e-05 0.001080971232)
(0.02946121368 0.0007135085974 0.001837620796)
(0.03525441036 0.001419536933 0.002104981396)
(0.03696089519 0.002034045741 0.002292449194)
(0.03763450285 0.002500226421 0.002500224773)
(0.03815595725 0.002790710227 0.002742299001)
(0.01366520278 0.0001120227715 0.001212632738)
(0.02975367405 0.0007931299045 0.002049121256)
(0.03561772883 0.001561480004 0.002344691545)
(0.03739689398 0.002230197973 0.002555323399)
(0.03815593926 0.002742295148 0.002790705706)
(0.03877311306 0.003064899628 0.003064895797)
(0.004575559776 4.120057768e-05 4.11989723e-05)
(0.009966330037 0.0003457282636 6.796312767e-05)
(0.0119153455 0.0007033110676 7.796027896e-05)
(0.01249871103 0.001031360028 9.074326668e-05)
(0.01274933721 0.001290816747 0.0001089781027)
(0.01295948335 0.001457828087 0.000131746125)
(0.009966330598 6.796428109e-05 0.0003457221317)
(0.02200566815 0.0005925900941 0.000592586411)
(0.02640545136 0.001217354312 0.0006876990821)
(0.02769915829 0.001771883813 0.0007666003205)
(0.02820233066 0.002201464105 0.0008631495225)
(0.02858749458 0.002473000038 0.0009787338834)
(0.01191534814 7.796046241e-05 0.0007033038269)
(0.02640545322 0.0006876963184 0.001217350261)
(0.03173650691 0.001412450557 0.001412453672)
(0.03332392915 0.002049656789 0.001563917332)
(0.0339543027 0.002542298948 0.001741362791)
(0.03444234802 0.002854439719 0.001950876119)
(0.01249871108 9.074479346e-05 0.001031358183)
(0.02769915431 0.0007665987139 0.00177188419)
(0.03332392504 0.001563915097 0.002049660216)
(0.0350418796 0.002264562819 0.002264564772)
(0.03576829977 0.0028092218 0.002514622848)
(0.03635691925 0.003158589863 0.002809300692)
(0.01274933576 0.0001089803267 0.00129081935)
(0.02820232376 0.0008631507661 0.002201470775)
(0.0339542942 0.001741361355 0.002542306232)
(0.0357682916 0.002514620805 0.002809227673)
(0.03659474307 0.003120742167 0.003120744906)
(0.03729808418 0.003517303076 0.003488569567)
(0.01295948339 0.000131747513 0.001457832198)
(0.02858748581 0.0009787373555 0.002473011791)
(0.03444232772 0.001950877358 0.002854449591)
(0.03635689219 0.002809298658 0.003158601998)
(0.03729806026 0.003488567351 0.003517312241)
(0.03813298202 0.003943084853 0.003943073427)
(0.004090629603 4.191341635e-05 4.191139482e-05)
(0.009117199119 0.0003952596232 6.882524663e-05)
(0.01097902859 0.0008264829476 7.990291993e-05)
(0.01156355726 0.00122666463 9.530946243e-05)
(0.01184011999 0.001549015871 0.0001188938412)
(0.0120871365 0.001761493668 0.0001489185246)
(0.009117199753 6.882914482e-05 0.0003952543471)
(0.02048277287 0.0006873340738 0.0006873268085)
(0.02474061747 0.00144901393 0.000806585636)
(0.02605943495 0.002132899649 0.0009115082622)
(0.02663235346 0.002673109182 0.001043692137)
(0.02710715517 0.0030238042 0.001204034276)
(0.01097903247 7.990714248e-05 0.0008264757333)
(0.02474061982 0.0008065893133 0.001449004417)
(0.02993865906 0.001698265646 0.001698260385)
(0.03157773367 0.00249163025 0.001903987152)
(0.03231081288 0.003118135623 0.002151293936)
(0.03292761433 0.003526695978 0.002447028537)
(0.01156355763 9.531520526e-05 0.001226661364)
(0.02605942848 0.0009115132506 0.002132895947)
(0.03157772605 0.001903993259 0.002491628142)
(0.03337432871 0.00278724508 0.002787241073)
(0.0342348129 0.003489637879 0.003139539279)
(0.03499078149 0.003953751446 0.003559999381)
(0.01184011739 0.0001188991102 0.001549015512)
(0.02663234442 0.001043697639 0.002673110627)
(0.03231080381 0.002151298185 0.003118135664)
(0.03423480774 0.003139541356 0.003489634269)
(0.03523251505 0.003932910344 0.003932900946)
(0.03615097715 0.004463856507 0.004464412634)
(0.01208713158 0.0001489227339 0.001761491871)
(0.02710714486 0.001204039657 0.003023807445)
(0.03292759983 0.002447030982 0.00352669488)
(0.03499076487 0.003559992015 0.003953749033)
(0.03615096059 0.004464410442 0.004463848849)
(0.03727018445 0.005077308526 0.00507730371)
(0.003546374593 4.029016528e-05 4.028897197e-05)
(0.008129794635 0.0004458191008 6.521188593e-05)
(0.009873232705 0.0009631780278 7.597021502e-05)
(0.01044535076 0.001450488661 9.333570803e-05)
(0.01073836629 0.001850435873 0.0001227166201)
(0.01101325441 0.002120410133 0.0001613366246)
(0.008129795665 6.521562776e-05 0.0004458164967)
(0.01865026282 0.000790591646 0.0007905870713)
(0.02270475257 0.001721055904 0.0009383304405)
(0.02402697982 0.002569355534 0.001074367762)
(0.02465784868 0.003252454245 0.001251446174)
(0.02521313492 0.003707859339 0.001470558296)
(0.00987323735 7.5973078e-05 0.0009631721875)
(0.02270475751 0.0009383313828 0.001721048558)
(0.02770238049 0.002040940679 0.002040938097)
(0.02937273483 0.003038220252 0.002316945162)
(0.03020058381 0.00384271176 0.002657064465)
(0.03094334164 0.004383604667 0.003070776759)
(0.01044535211 9.333964827e-05 0.001450484144)
(0.02402697808 0.001074370213 0.002569352389)
(0.02937272901 0.002316949616 0.003038220476)
(0.0312319011 0.003442986382 0.003442984492)
(0.03222477 0.004360055072 0.003937254228)
(0.03315628447 0.004986895827 0.004537538754)
(0.01073836144 0.0001227200862 0.00185043251)
(0.024657842 0.001251448625 0.003252454894)
(0.03020057614 0.002657067799 0.003842712698)
(0.03222476829 0.003937255044 0.004360053734)
(0.03339905902 0.004993632244 0.004993627338)
(0.03455365142 0.0057323186 0.005767665032)
(0.0110132401 0.0001613412926 0.002120404056)
(0.02521311848 0.001470564262 0.003707861286)
(0.03094332138 0.003070783229 0.00438360534)
(0.03315626563 0.004537540257 0.004986895795)
(0.0345536121 0.005767672035 0.005732313892)
(0.03600907688 0.006640507914 0.006640489588)
(0.03001051987 0.003755895691 0.00049105749)
(0.03483446083 0.005136931864 0.0005666102697)
(0.03492569672 0.002603673229 0.0005609307217)
(0.03463409328 0.001891018489 0.0005453781028)
(0.03453762225 0.001070834519 0.0005400394362)
(0.03450226218 0.0007842846114 0.0005354465487)
(0.02998854556 0.003755664647 0.0003606758021)
(0.03482785019 0.005136390586 0.0004164781812)
(0.03491790248 0.002604782727 0.0004103862109)
(0.03462683467 0.001887336731 0.0003988304244)
(0.03453147729 0.001067473738 0.0003964351851)
(0.03449758945 0.0007813187185 0.0003942353289)
(0.02997731655 0.003754692031 0.0002556857521)
(0.0348264371 0.005137018623 0.0002963601268)
(0.03491486809 0.002606731873 0.0002902703373)
(0.03462376429 0.001885819869 0.0002820777957)
(0.0345290671 0.001066021464 0.0002813754872)
(0.03449620016 0.0007799840001 0.0002808100976)
(0.02997165538 0.00375426707 0.0001726017694)
(0.03482700041 0.00513794008 0.0002007973934)
(0.03491415843 0.002608564124 0.0001957269229)
(0.03462285121 0.001885331524 0.0001902888806)
(0.03452858232 0.00106550629 0.0001903332113)
(0.03449643478 0.0007795288731 0.0001905326424)
(0.02996895507 0.00375399961 9.990750406e-05)
(0.03482793874 0.005138704926 0.0001165577153)
(0.03491424673 0.002609904847 0.0001132258744)
(0.0346227195 0.001885311663 0.0001101333683)
(0.03452871205 0.001065454469 0.0001103763455)
(0.03449702699 0.0007795231293 0.0001107517922)
(0.029967867 0.003753890357 3.277069083e-05)
(0.03482853601 0.005139122858 3.828590128e-05)
(0.03491442986 0.002610600201 3.712872527e-05)
(0.03462277137 0.00188537954 3.6123372e-05)
(0.03452889066 0.001065504471 3.623652013e-05)
(0.03449743503 0.0007796030315 3.640200355e-05)
(0.02996786696 0.003753890611 -3.276576143e-05)
(0.0348285354 0.005139122968 -3.828334852e-05)
(0.03491442932 0.002610599072 -3.712733099e-05)
(0.03462277077 0.001885377414 -3.612454676e-05)
(0.03452889046 0.001065502633 -3.624042793e-05)
(0.03449743536 0.0007796017692 -3.640859093e-05)
(0.02996895513 0.003754000064 -9.99028735e-05)
(0.03482793672 0.005138704674 -0.0001165558544)
(0.03491424498 0.002609901953 -0.0001132257529)
(0.03462271771 0.001885307067 -0.0001101344668)
(0.03452871114 0.001065449806 -0.0001103788718)
(0.03449702754 0.00077951972 -0.0001107560329)
(0.0299716549 0.003754267399 -0.0001725994146)
(0.03482699728 0.005137938799 -0.0002007975468)
(0.03491415551 0.002608559618 -0.0001957285602)
(0.03462284894 0.001885325599 -0.0001902906391)
(0.03452858145 0.001065500488 -0.0001903349543)
(0.03449643519 0.0007795241568 -0.0001905345457)
(0.02997731571 0.003754692177 -0.0002556875268)
(0.03482643416 0.005137016767 -0.0002963637671)
(0.03491486545 0.002606727116 -0.0002902739774)
(0.03462376288 0.001885814381 -0.0002820801606)
(0.03452906726 0.001066016118 -0.0002813767167)
(0.03449620129 0.0007799791003 -0.0002808104782)
(0.02998854487 0.003755664981 -0.0003606809127)
(0.0348278489 0.005136389412 -0.0004164845897)
(0.03491790151 0.002604779327 -0.0004103909178)
(0.03462683507 0.001887332735 -0.0003988329797)
(0.03453147922 0.001067469602 -0.000396435726)
(0.03449759229 0.0007813142732 -0.0003942346492)
(0.0300105197 0.003755896206 -0.0004910641475)
(0.03483446196 0.005136932161 -0.0005666182779)
(0.03492569794 0.002603672184 -0.0005609363484)
(0.03463409562 0.00189101699 -0.0005453809977)
(0.03453762577 0.001070832424 -0.0005400397586)
(0.03450226635 0.0007842813321 -0.0005354453012)
(0.02732618727 0.003048426564 0.001026511199)
(0.03636811269 0.005542750076 0.001512182371)
(0.03759380997 0.004165606542 0.001496506401)
(0.03669772424 0.003542569099 0.001503259061)
(0.03601537514 0.002506118403 0.001513871423)
(0.03559196321 0.002009637063 0.001518517272)
(0.02723602135 0.003053912298 0.0007985916655)
(0.03623780798 0.005548372621 0.00117555167)
(0.03747023418 0.004172406214 0.00115480064)
(0.03657834831 0.003545185459 0.001158565704)
(0.03589493888 0.002507678515 0.001167147983)
(0.03547224144 0.002010142498 0.001171130478)
(0.02718424783 0.003056057462 0.0005941952709)
(0.03616361687 0.005552867729 0.0008757948679)
(0.0374019175 0.004177575572 0.0008553115486)
(0.0365141012 0.003547009028 0.0008571466257)
(0.03582960031 0.002508820174 0.0008637947963)
(0.03540738716 0.00201035023 0.0008671486767)
(0.0271538911 0.003057687488 0.0004124493399)
(0.03612064558 0.005556291682 0.0006083055838)
(0.03736303753 0.004181522053 0.0005917129117)
(0.03647858111 0.003548422142 0.0005925679946)
(0.03579318023 0.002509760974 0.0005973095233)
(0.03537129163 0.002010513398 0.0005998637524)
(0.02713722874 0.003058571246 0.0002430551399)
(0.03609719015 0.005558534793 0.0003586376254)
(0.03734209377 0.004184219914 0.000347950818)
(0.03645997053 0.003549445356 0.0003483056121)
(0.03577392556 0.002510484723 0.000351165444)
(0.03535222708 0.002010654844 0.0003527680213)
(0.02712981443 0.003058970137 8.033877265e-05)
(0.03608679059 0.005559646224 0.0001185659987)
(0.03733285116 0.004185603099 0.0001148899591)
(0.0364519106 0.003549988328 0.000114980918)
(0.03576553808 0.002510874348 0.000115934739)
(0.03534393501 0.002010724278 0.0001164762399)
(0.02712981465 0.003058970353 -8.034319711e-05)
(0.03608679111 0.005559646108 -0.000118576049)
(0.03733285125 0.004185601489 -0.0001149085596)
(0.03645191015 0.003549985936 -0.0001150092225)
(0.03576553814 0.002510871413 -0.0001159676147)
(0.03534393494 0.002010722161 -0.000116516038)
(0.02713722852 0.003058570255 -0.0002430607365)
(0.03609719095 0.005558533843 -0.0003586502378)
(0.03734209278 0.004184213934 -0.0003479695041)
(0.03645996769 0.003549437714 -0.0003483323155)
(0.03577392452 0.002510476935 -0.0003511967533)
(0.03535222624 0.002010650368 -0.0003528050669)
(0.02715389065 0.003057685896 -0.000412458314)
(0.03612064833 0.005556289469 -0.0006083245226)
(0.03736303777 0.00418151259 -0.0005917337931)