/*--------------------------------*- C++ -*----------------------------------*\
  =========                 |
  \\      /  F ield         | OpenFOAM: The Open Source CFD Toolbox
   \\    /   O peration     | Website:  https://openfoam.org
    \\  /    A nd           | Version:  7
     \\/     M anipulation  |
\*---------------------------------------------------------------------------*/
FoamFile
{
    version     2.0;
    format      ascii;
    class       volVectorField;
    location    "0.00048";
    object      U;
}
// * * * * * * * * * * * * * * * * * * * * * * * * * * * * * * * * * * * * * //

dimensions      [0 1 -1 0 0 0 0];

internalField   nonuniform List<vector> 
5000
(
(-1.9018585e-13 1.3510587e-28 0)
(-1.311733e-13 4.053176e-28 0)
(-9.7046579e-14 0 0)
(-3.0232091e-13 0 0)
(-2.3402107e-13 -1.013294e-28 0)
(-2.8442851e-13 -5.7599095e-44 5.06647e-29)
(-5.3670427e-13 1.013294e-28 -2.1599661e-43)
(-4.3449246e-13 0 6.079764e-28)
(-6.1732201e-13 0 2.533235e-28)
(-7.2699555e-13 -3.546529e-28 -7.093058e-28)
(-6.6495063e-13 -2.026588e-28 -2.026588e-28)
(-8.9137618e-13 -1.2504712e-42 -1.2504712e-42)
(-1.1364989e-12 1.519941e-28 -1.2959796e-42)
(-1.1409546e-12 -5.06647e-29 -4.4639299e-43)
(-9.6266443e-13 0 -3.039882e-28)
(-9.8543924e-13 1.013294e-28 2.026588e-28)
(-9.2016776e-13 7.806133e-56 3.9030665e-56)
(-9.0582241e-13 1.519941e-28 -1.339179e-42)
(-7.2612196e-13 0 1.67365e-42)
(-8.189172e-13 -2.026588e-28 -4.053176e-28)
(-9.449647e-13 1.519941e-28 -1.519941e-28)
(-9.1132782e-13 5.06647e-29 0)
(-1.1102174e-12 -1.013294e-28 0)
(-9.7822554e-13 -5.8503249e-43 -5.8503249e-43)
(-1.0387852e-12 1.1623497e-42 -9.7651173e-56)
(-1.2249248e-12 8.3518688e-43 8.3518688e-43)
(-1.0045596e-12 -5.06647e-29 5.06647e-29)
(-1.2726917e-12 1.013294e-28 1.013294e-28)
(-1.2497147e-12 -2.026588e-28 1.013294e-28)
(-1.0222498e-12 -8.783862e-43 5.06647e-29)
(-9.2207967e-13 -2.6567583e-42 2.6567583e-42)
(-1.0566227e-12 4.053176e-28 -3.4559457e-42)
(-9.3366348e-13 5.06647e-28 -2.533235e-28)
(-8.4263766e-13 -3.6570647e-43 1.8285324e-43)
(-9.3696293e-13 -1.7567724e-42 -1.013294e-28)
(-1.0375621e-12 8.8126615e-42 0)
(-8.3948532e-13 3.0509648e-56 0)
(-7.0151602e-13 1.013294e-28 -5.06647e-29)
(-7.5439401e-13 -4.053176e-28 -2.026588e-28)
(-6.4054987e-13 -7.093058e-28 3.546529e-28)
(-7.2524507e-13 4.053176e-28 -3.3983466e-42)
(-6.566602e-13 6.9694905e-42 1.013294e-28)
(-6.0376972e-13 3.039882e-28 -1.519941e-28)
(-7.7762847e-13 -4.8109765e-43 8.1358024e-57)
(-6.7077833e-13 -6.079764e-28 2.026588e-28)
(-4.7342801e-13 4.053176e-28 -4.053176e-28)
(-5.9901466e-13 4.053176e-28 1.3938981e-41)
(-5.7545677e-13 2.7762764e-41 -1.3881382e-41)
(-6.0143654e-13 3.039882e-28 5.2271179e-42)
(-7.966635e-13 0 3.4559457e-42)
(-9.6167934e-13 3.039882e-28 3.039882e-28)
(-8.9402302e-13 3.5999434e-44 0)
(-9.4025311e-13 5.06647e-29 0)
(-7.7613256e-13 -3.039882e-28 0)
(-7.7178937e-13 -1.7711722e-42 0)
(-6.246427e-13 3.2896783e-42 0)
(-6.001472e-13 -5.06647e-29 0)
(-8.04931e-13 -5.2487175e-42 0)
(-6.7950274e-13 -2.026588e-28 0)
(-4.7066449e-13 0 0)
(-5.3143187e-13 1.81748e-43 0)
(-5.864852e-13 -3.4559457e-42 0)
(-6.1037148e-13 -4.3199321e-44 0)
(-9.0180528e-13 2.5701684e-42 -2.5701684e-42)
(-1.0043236e-12 -1.013294e-28 -1.013294e-28)
(-8.2810452e-13 -7.6980401e-56 -1.919119e-42)
(-7.8527993e-13 -1.519941e-28 2.6135589e-42)
(-8.0764792e-13 5.06647e-29 1.4636499e-56)
(-9.9318089e-13 -1.519941e-28 1.519941e-28)
(-1.4023774e-12 1.013294e-28 0)
(-1.1607727e-12 -1.013294e-28 0)
(-1.2046889e-12 1.013294e-28 1.013294e-28)
(-1.165397e-12 2.026588e-28 2.026588e-28)
(-9.9987433e-13 -6.079764e-28 0)
(-1.1705093e-12 -1.013294e-28 -1.013294e-28)
(-9.8344703e-13 5.06647e-29 -1.7495725e-42)
(-6.8604938e-13 0 1.013294e-28)
(-5.9781956e-13 -1.519941e-28 1.519941e-28)
(-5.8700218e-13 2.1599661e-44 -1.519941e-28)
(-5.7978508e-13 5.06647e-29 -1.013294e-28)
(-4.1975046e-13 5.06647e-29 -1.013294e-28)
(-2.8893628e-13 1.4399774e-44 -2.8799547e-44)
(-2.7876641e-13 -5.7599095e-44 -6.079764e-28)
(-3.0197255e-13 -1.013294e-28 2.026588e-28)
(-3.5283158e-13 -1.013294e-28 1.0540634e-41)
(-3.8107916e-13 -1.7639723e-42 -1.013294e-28)
(-1.6200626e-13 1.519941e-28 4.559823e-28)
(-1.766408e-13 0 -2.533235e-28)
(8.5834849e-14 -1.737371e-42 1.7314729e-42)
(-5.3200404e-14 1.0511835e-41 1.013294e-28)
(-1.8209523e-13 5.3135165e-42 -1.519941e-28)
(5.6794721e-14 -5.06647e-29 -5.06647e-29)
(1.3392087e-14 -1.519941e-28 -5.2919169e-42)
(-2.0342988e-14 6.079764e-28 6.079764e-28)
(-1.822642e-13 1.0519035e-41 1.0519035e-41)
(-1.505656e-13 1.519941e-28 -1.519941e-28)
(-1.6320504e-13 0 -2.026588e-28)
(2.080833e-13 0 -3.5567441e-42)
(-5.1821133e-17 -5.06647e-29 3.5279446e-42)
(8.8539898e-14 3.5135448e-42 -1.013294e-28)
(1.0897618e-13 -2.026588e-28 -1.013294e-28)
(2.1967524e-13 -1.013294e-28 -1.013294e-28)
(3.7272305e-13 -1.013294e-28 7.1998869e-45)
(1.8838085e-13 0 1.519941e-28)
(2.3163996e-13 3.039882e-28 0)
(1.540383e-13 1.519941e-28 -1.519941e-28)
(2.6706008e-13 -1.519941e-28 -5.2919169e-42)
(1.7601735e-13 -1.519941e-28 1.519941e-28)
(2.4388733e-13 0 -5.06647e-29)
(3.8821613e-14 0 -2.026588e-28)
(1.297773e-13 3.546529e-28 7.093058e-28)
(2.6059063e-14 3.039882e-28 3.039882e-28)
(1.6710737e-13 0 -7.599705e-28)
(1.2056079e-13 -3.039882e-28 -3.039882e-28)
(2.9567442e-13 8.8558609e-42 7.599705e-28)
(5.8053314e-13 5.06647e-29 -5.06647e-29)
(4.539757e-13 1.519941e-28 1.519941e-28)
(2.3873595e-13 -7.1998869e-44 1.4399774e-43)
(2.6513812e-13 7.0846887e-42 2.026588e-28)
(4.6370827e-13 4.8788331e-57 -4.559823e-28)
(7.7111788e-14 1.013294e-28 -3.5423443e-42)
(3.4204936e-14 -8.6398642e-44 -4.053176e-28)
(-1.7246141e-14 -1.519941e-28 3.039882e-28)
(-9.7317665e-14 0 1.013294e-28)
(-1.2451688e-13 -4.7557147e-44 -4.7557147e-44)
(-2.5736529e-13 -1.013294e-28 -1.013294e-28)
(-2.583707e-13 -1.519941e-28 1.519941e-28)
(-2.6914685e-13 3.039882e-28 3.039882e-28)
(-4.9452317e-13 -1.013294e-28 1.013294e-28)
(-2.8859775e-13 5.06647e-28 8.7478626e-42)
(-2.6473172e-13 2.533235e-28 2.533235e-28)
(-2.0647403e-13 -1.013294e-28 2.026588e-28)
(-2.4898832e-13 5.6150576e-42 5.6150576e-42)
(-3.1315854e-13 -5.1815171e-42 -5.1815171e-42)
(-3.8700301e-13 0 5.06647e-29)
(-4.9617253e-13 -5.06647e-29 1.7639723e-42)
(-3.6346167e-13 -2.533235e-28 8.783862e-42)
(-6.1403932e-13 2.026588e-28 -7.0558891e-42)
(-7.1257185e-13 1.7567724e-42 -1.013294e-28)
(-4.7171588e-13 -5.06647e-29 -5.06647e-29)
(-5.3665331e-13 -1.013294e-28 -1.013294e-28)
(-6.5340208e-13 -7.3395271e-42 -1.4679054e-41)
(-6.7547606e-13 0 2.533235e-28)
(-6.8487751e-13 -1.013294e-28 1.013294e-28)
(-3.4980379e-13 5.06647e-29 3.5135448e-42)
(-4.1679745e-13 -2.1382118e-44 4.2764235e-44)
(-4.5161983e-13 -5.06647e-29 1.4399774e-44)
(-5.9582484e-13 2.8799547e-44 -1.4399774e-44)
(-5.6027917e-13 1.519941e-28 1.3172849e-55)
(-3.230405e-13 -1.519941e-28 -1.519941e-28)
(-2.4203409e-13 1.519941e-28 1.0540634e-41)
(-2.8627379e-13 -7.0558891e-42 -1.4111778e-41)
(-3.093564e-13 5.06647e-29 5.06647e-29)
(-5.159086e-14 2.026588e-28 2.026588e-28)
(-4.0390651e-13 -1.519941e-28 -1.519941e-28)
(-3.7495259e-13 2.1152458e-42 1.614643e-55)
(-4.3872224e-13 2.026588e-28 2.026588e-28)
(-2.9697738e-13 0 -3.546529e-28)
(-1.6220536e-13 0 4.3199321e-44)
(-4.6431053e-13 1.519941e-28 1.519941e-28)
(-4.9742618e-13 -5.06647e-29 0)
(-3.2693766e-13 5.06647e-29 5.06647e-29)
(-4.1440848e-13 -5.06647e-29 -3.5063449e-42)
(-3.6498668e-13 -1.013294e-28 -2.026588e-28)
(-3.7441582e-13 -1.0540634e-41 1.519941e-28)
(-3.7972278e-13 4.6450844e-43 1.9382733e-56)
(-4.0589105e-13 3.039882e-28 3.039882e-28)
(-3.3209854e-13 4.053176e-28 -4.053176e-28)
(-2.221011e-13 0 4.559823e-28)
(-2.2352868e-13 -4.053176e-28 -4.053176e-28)
(-8.0473099e-14 -1.013294e-28 4.2220137e-41)
(-7.8845197e-15 0 1.4054179e-41)
(1.2084385e-13 1.519941e-28 -1.519941e-28)
(-8.3789058e-15 2.026588e-28 4.053176e-28)
(4.6896267e-14 0 0)
(2.1327627e-13 1.519941e-28 -1.0540634e-41)
(1.3755519e-13 6.3243806e-41 -6.3243806e-41)
(1.4683018e-13 -1.519941e-28 1.519941e-28)
(2.222765e-13 -1.013294e-28 -1.013294e-28)
(2.5378697e-13 -2.533235e-28 -1.7459726e-41)
(3.4430632e-13 2.533235e-28 2.533235e-28)
(1.6200933e-13 1.0497435e-41 -1.519941e-28)
(2.9245136e-14 -1.0454236e-41 -1.0454236e-41)
(-1.0816069e-14 -1.2959796e-43 -1.2959796e-43)
(1.8942704e-14 -2.533235e-28 -3.5099449e-41)
(7.1046205e-14 2.533235e-28 5.06647e-28)
(-8.6110063e-14 5.6216717e-41 -4.053176e-28)
(-7.6877917e-14 -2.4393217e-41 -3.546529e-28)
(-1.8940167e-13 1.7423726e-41 1.7423726e-41)
(-2.2062998e-13 -5.06647e-29 -3.4919451e-42)
(-3.4642342e-13 0 -3.1600303e-41)
(-3.4904387e-13 0 1.0497435e-41)
(-2.0291152e-13 -5.06647e-29 -5.06647e-29)
(-3.2270478e-13 3.63496e-43 0)
(-3.5792611e-13 0 0)
(-5.0011316e-13 0 0)
(-3.2227644e-13 1.519941e-28 0)
(-3.4297696e-13 4.8788331e-57 5.06647e-29)
(-3.3743422e-13 -5.06647e-29 1.0562234e-41)
(-3.5588668e-13 0 1.013294e-28)
(-5.3606805e-13 5.3455294e-44 5.3455294e-44)
(-6.4284207e-13 5.06647e-29 5.06647e-29)
(-6.2194515e-13 2.8079559e-41 1.013294e-28)
(-5.937481e-13 -1.013294e-28 -1.013294e-28)
(-6.738454e-13 -4.4902447e-43 3.1075575e-56)
(-4.9582327e-13 4.2076139e-41 4.2076139e-41)
(-4.5220558e-13 5.0399208e-44 3.546529e-28)
(-4.607608e-13 1.519941e-28 1.519941e-28)
(-5.8826829e-13 1.519941e-28 1.519941e-28)
(-4.4519787e-13 -1.4399774e-44 0)
(-2.9769271e-13 1.054044e-54 -7.5319661e-42)
(-4.0486303e-13 1.402538e-41 1.402538e-41)
(-5.8012187e-13 -3.546529e-28 -3.546529e-28)
(-5.5578518e-13 0 -1.013294e-28)
(-5.9533109e-13 1.4120165e-41 1.9848035e-54)
(-7.4388451e-13 1.7531725e-41 2.533235e-28)
(-7.7147019e-13 9.8429653e-41 -7.093058e-28)
(-7.4849405e-13 3.039882e-28 3.039882e-28)
(-6.1278469e-13 0 1.013294e-28)
(-4.9855687e-13 -5.06647e-29 -5.06647e-29)
(-6.6909282e-13 -1.013294e-28 1.013294e-28)
(-4.7273175e-13 0 0)
(-4.5553443e-13 0 0)
(-5.3555868e-13 0 0)
(-3.4312019e-13 3.3586176e-42 3.3586176e-42)
(-5.1934666e-13 -1.7531725e-41 2.533235e-28)
(-3.3695776e-13 3.039882e-28 6.079764e-28)
(-5.5622532e-13 0 7.0423879e-42)
(-5.6633282e-13 0 -7.0414894e-42)
(-4.8701635e-13 3.4211388e-43 3.4211388e-43)
(-1.6201472e-13 -2.026588e-28 -2.026588e-28)
(-2.161961e-13 3.546529e-28 7.093058e-28)
(-1.8132154e-13 2.533235e-28 -7.1998869e-44)
(-1.8169592e-13 0 7.1998869e-44)
(-3.3856043e-13 -1.013294e-28 -1.013294e-28)
(-4.2924647e-13 5.06647e-29 5.06647e-29)
(-3.1335785e-13 -1.013294e-28 -2.026588e-28)
(-5.7385842e-13 -2.533235e-28 3.5999434e-44)
(-6.6775609e-13 0 -4.2220137e-41)
(-4.8196539e-13 -5.06647e-29 -5.06647e-29)
(-3.1381312e-13 1.4068579e-41 2.8137158e-41)
(-2.1921411e-13 -1.4054179e-41 -2.8108358e-41)
(-2.18694e-13 3.039882e-28 3.039882e-28)
(-2.502951e-14 -5.06647e-29 -5.06647e-29)
(-4.5756042e-14 1.013294e-28 0)
(2.4316349e-13 0 -5.06647e-29)
(6.8969548e-14 1.519941e-28 1.519941e-28)
(-7.364492e-15 -3.5207447e-41 2.533235e-28)
(-3.7784852e-14 1.519941e-28 -1.519941e-28)
(9.3397837e-15 -1.4054179e-41 0)
(2.7183345e-14 4.053176e-28 2.026588e-28)
(6.7166336e-14 -1.519941e-28 -1.519941e-28)
(-7.3994604e-14 -1.0783074e-54 7.1316041e-42)
(-1.0357938e-13 -3.5178647e-41 -3.5178647e-41)
(4.5970493e-14 3.5063449e-42 1.013294e-28)
(9.7215566e-14 -5.06647e-29 -1.013294e-28)
(1.9690592e-13 1.519941e-28 4.559823e-28)
(2.0888749e-13 -1.519941e-28 -3.039882e-28)
(3.5590029e-13 0 0)
(2.3074796e-14 5.06647e-29 1.013294e-28)
(1.4291298e-13 1.013294e-28 1.013294e-28)
(1.0473661e-13 0 5.06647e-29)
(1.7446845e-13 6.9664453e-42 6.9664453e-42)
(1.8032362e-13 -5.06647e-29 -5.06647e-29)
(9.357272e-15 -2.026588e-28 -2.026588e-28)
(1.484696e-13 -3.546529e-28 -7.093058e-28)
(-1.5851524e-14 5.06647e-28 5.06647e-28)
(-1.6314655e-13 3.039882e-28 6.079764e-28)
(-9.9789521e-15 1.4054179e-41 1.4054179e-41)
(2.6840445e-13 -1.013294e-28 -2.026588e-28)
(2.2888461e-14 1.013294e-28 1.013294e-28)
(9.4153527e-14 -3.5135448e-42 -7.0270896e-42)
(9.2043494e-14 -2.026588e-28 -2.026588e-28)
(9.692387e-14 3.546529e-28 7.093058e-28)
(3.2335204e-13 -1.7603723e-41 -2.533235e-28)
(5.5064984e-13 -3.5279446e-42 -7.0558891e-42)
(4.761714e-13 4.3199321e-44 -1.519941e-28)
(3.070203e-13 6.99829e-42 1.013294e-28)
(2.8412767e-13 -5.06647e-29 -5.06647e-29)
(3.8421582e-13 0 -1.013294e-28)
(3.5681445e-13 0 -2.9369727e-54)
(4.3887273e-13 2.026588e-28 -4.053176e-28)
(5.4287833e-13 2.026588e-28 4.053176e-28)
(4.2634843e-13 0 1.0519035e-41)
(4.7299005e-13 0 -2.026588e-28)
(4.6957292e-13 0 0)
(4.1457173e-13 0 0)
(2.624346e-13 1.81748e-43 1.81748e-43)
(3.4288796e-13 -6.9838903e-42 1.013294e-28)
(3.22573e-13 2.8145959e-41 2.8098774e-41)
(2.0797232e-13 8.6398642e-44 2.026588e-28)
(1.7568301e-13 1.013294e-28 -2.8799547e-44)
(1.1002507e-13 5.06647e-29 5.06647e-29)
(3.1824611e-14 -2.1102868e-41 1.519941e-28)
(-8.633464e-14 -2.8079559e-41 -2.026588e-28)
(1.0149837e-13 -7.1998869e-45 0)
(-8.6914811e-14 -5.06647e-29 -5.06647e-29)
(-3.126002e-13 -3.039882e-28 -3.039882e-28)
(-1.7263094e-13 -4.559823e-28 0)
(-1.7465682e-13 7.093058e-28 7.093058e-28)
(1.2687922e-13 3.039882e-28 1.013294e-28)
(9.1216405e-15 8.5528471e-44 1.7105694e-43)
(1.3559617e-13 1.7802802e-56 -7.1483267e-70)
(4.4243439e-13 0 -1.4399774e-44)
(1.4042642e-13 1.519941e-28 1.519941e-28)
(2.4841063e-13 2.026588e-28 2.026588e-28)
(2.297129e-13 -1.519941e-28 -1.519941e-28)
(2.6464482e-13 -1.4399774e-44 -5.06647e-29)
(4.9508918e-13 4.3199321e-44 1.013294e-28)
(4.9523584e-13 -1.4399774e-44 -2.8799547e-44)
(7.1621809e-13 -7.3336289e-42 -1.4667258e-41)
(4.1843692e-13 2.026588e-28 -2.026588e-28)
(4.3353935e-13 -1.013294e-28 -1.013294e-28)
(5.6411464e-13 2.026588e-28 1.013294e-28)
(3.5916257e-13 5.06647e-29 -7.0270896e-42)
(4.7647139e-13 1.9237499e-71 2.026588e-28)
(3.9868287e-13 1.519941e-28 0)
(4.4000193e-13 5.6159118e-41 0)
(5.8430396e-13 -2.026588e-28 -1.013294e-28)
(6.8086991e-13 0 -1.4068579e-41)
(5.5612215e-13 0 4.2184137e-41)
(6.0000814e-13 2.026588e-28 -1.4082979e-41)
(5.9489628e-13 -1.4068579e-40 2.533235e-28)
(5.4846374e-13 -6.079764e-28 -3.039882e-28)
(6.6975232e-13 0 7.1998869e-44)
(6.2849414e-13 4.053176e-28 4.053176e-28)
(8.9525256e-13 1.519941e-28 0)
(1.0014959e-12 5.06647e-29 0)
(9.8472277e-13 -2.8799547e-44 0)
(1.2205333e-12 4.9240026e-41 0)
(1.3122677e-12 -2.1599661e-44 0)
(1.1747419e-12 1.519941e-28 0)
(1.0211807e-12 -2.533235e-28 0)
(1.1549266e-12 -2.026588e-28 -2.026588e-28)
(9.1654209e-13 0 0)
(9.6733168e-13 -1.013294e-28 -1.013294e-28)
(1.0655942e-12 3.5171447e-41 0)
(1.2108048e-12 3.039882e-28 3.039882e-28)
(8.2794897e-13 -4.053176e-28 5.6216717e-41)
(7.4812434e-13 4.2162538e-41 -1.519941e-28)
(6.8128166e-13 1.519941e-28 0)
(7.9807704e-13 2.8137158e-41 0)
(7.7813208e-13 2.026588e-28 1.013294e-28)
(5.4490087e-13 -1.013294e-28 7.0342895e-42)
(6.2111492e-13 5.06647e-29 5.06647e-29)
(4.5986312e-13 -1.013294e-28 0)
(4.1804577e-13 2.1599661e-44 0)
(4.0527694e-13 4.559823e-28 4.559823e-28)
(2.5110646e-13 0 3.546529e-28)
(9.6316221e-14 0 -1.519941e-28)
(2.8471941e-13 -5.06647e-29 -5.06647e-29)
(9.9029953e-14 7.0270896e-42 0)
(4.6582812e-14 2.026588e-28 1.013294e-28)
(-1.2455723e-13 -7.1998869e-45 -7.1998869e-45)
(8.0792921e-14 -1.519941e-28 -5.06647e-29)
(-1.1152361e-14 5.06647e-29 5.06647e-29)
(1.7771779e-14 -1.519941e-28 -1.519941e-28)
(1.9765688e-13 6.079764e-28 3.039882e-28)
(1.5719692e-13 -2.026588e-28 2.026588e-28)
(2.169546e-13 -5.06647e-29 0)
(3.3529757e-13 -5.06647e-28 2.533235e-28)
(2.230929e-13 2.533235e-28 2.533235e-28)
(1.9077852e-13 3.039882e-28 -3.039882e-28)
(2.4236726e-13 2.026588e-28 -2.026588e-28)
(2.4874015e-14 -5.06647e-29 0)
(2.0245214e-13 3.9030665e-56 3.039882e-28)
(1.1984356e-13 3.546529e-28 3.546529e-28)
(1.8107327e-13 -2.026588e-28 -2.026588e-28)
(4.4931851e-14 -1.013294e-28 1.013294e-28)
(3.2031463e-14 2.533235e-28 0)
(1.4286607e-13 -2.8079559e-41 0)
(-1.2053192e-14 -2.8799547e-44 0)
(2.8044582e-14 2.026588e-28 0)
(2.1534007e-13 -4.053176e-28 0)
(3.0791697e-13 -5.06647e-29 0)
(3.9455105e-13 -1.4068579e-41 0)
(1.8596301e-13 -2.8108358e-41 0)
(3.380051e-13 1.519941e-28 1.519941e-28)
(4.5650634e-13 7.093058e-28 7.806133e-56)
(3.0951636e-13 -7.599705e-28 -2.533235e-28)
(3.1658183e-13 -3.9419568e-54 0)
(1.195679e-13 -8.4325075e-41 0)
(1.9070453e-13 4.2119338e-41 0)
(1.0974442e-13 -2.026588e-28 -1.013294e-28)
(-7.9628649e-14 0 0)
(-1.8329888e-13 -3.5587869e-56 1.2829271e-43)
(1.9362458e-14 -1.013294e-28 -5.06647e-29)
(-6.2977561e-15 0 7.0342895e-42)
(-8.8351973e-14 0 9.115745e-60)
(-1.1407532e-13 -5.06647e-29 7.0342895e-42)
(3.6476043e-14 7.0270896e-42 -5.06647e-29)
(4.9467122e-14 -5.06647e-29 -5.06647e-29)
(1.225165e-13 -4.053176e-28 4.053176e-28)
(-7.2590822e-14 6.079764e-28 -3.3781869e-40)
(6.7844198e-14 1.2159528e-27 -4.053176e-28)
(2.4413178e-13 -2.026588e-28 2.026588e-28)
(2.123027e-13 -1.013294e-28 0)
(1.9836542e-13 1.4399774e-44 0)
(3.8239436e-13 2.026588e-28 2.026588e-28)
(3.5642689e-13 0 2.8137158e-41)
(4.3087009e-13 -4.053176e-28 -2.026588e-28)
(4.0217495e-13 -3.039882e-28 1.519941e-28)
(2.869425e-13 4.0257256e-43 3.9077627e-43)
(4.2633533e-13 -4.053176e-28 0)
(5.4927368e-13 -3.039882e-28 3.039882e-28)
(7.2732436e-13 4.053176e-28 2.026588e-28)
(9.1676205e-13 2.026588e-28 -1.013294e-28)
(8.1393057e-13 -3.039882e-28 -4.2184137e-41)
(6.9347471e-13 -1.013294e-28 5.8545997e-56)
(5.9666081e-13 0 2.1102868e-41)
(6.0281436e-13 -1.013294e-28 -5.06647e-29)
(8.3544236e-13 1.013294e-28 1.013294e-28)
(8.3578621e-13 6.079764e-28 4.598806e-68)
(1.0261936e-12 -1.519941e-28 2.1102868e-41)
(8.5049575e-13 -4.7040659e-43 4.7040659e-43)
(8.270344e-13 -7.1998869e-45 0)
(8.8973739e-13 1.4068579e-41 0)
(9.6885813e-13 2.533235e-28 2.533235e-28)
(8.0185748e-13 -2.533235e-28 3.5999434e-44)
(9.9050367e-13 -1.519941e-28 -6.3243806e-41)
(1.1550207e-12 1.4455647e-41 1.4467443e-41)
(1.1442851e-12 -1.905734e-54 0)
(9.0832714e-13 -4.3199321e-44 0)
(6.6454584e-13 -1.4054179e-41 -1.013294e-28)
(7.864714e-13 2.026588e-28 -5.6187917e-41)
(8.0253833e-13 -2.026588e-28 -2.026588e-28)
(6.9697325e-13 -1.8033132e-53 0)
(7.1442424e-13 -2.8137158e-41 0)
(6.3632877e-13 -4.2184137e-41 0)
(8.6494334e-13 -5.06647e-29 -5.06647e-29)
(9.5898603e-13 -5.06647e-29 -7.1998869e-45)
(9.182945e-13 2.8137158e-41 -2.026588e-28)
(9.6908982e-13 9.8328855e-41 3.546529e-28)
(8.2895791e-13 2.1599661e-44 -1.519941e-28)
(7.4062811e-13 2.026588e-28 2.8165957e-41)
(1.0146325e-12 4.053176e-28 8.106352e-28)
(8.5686177e-13 -3.039882e-28 -3.039882e-28)
(8.6181994e-13 -4.053176e-28 -8.4411474e-41)
(7.2179308e-13 1.4068579e-41 -1.4068579e-41)
(4.8696536e-13 -3.039882e-28 -2.1102868e-41)
(5.4695355e-13 -1.519941e-28 -1.519941e-28)
(5.3494101e-13 -1.013294e-28 0)
(5.3052171e-13 -1.013294e-28 0)
(3.0522419e-13 1.013294e-28 -1.013294e-28)
(7.9634525e-14 5.06647e-29 -7.0342895e-42)
(5.1160589e-14 -5.6245516e-41 -5.6245516e-41)
(-1.2853455e-14 2.026588e-28 9.7576662e-57)
(-1.5412636e-13 0 1.013294e-28)
(-9.5000312e-14 0 -2.533235e-28)
(-1.7022444e-13 -1.519941e-28 -1.519941e-28)
(-4.0187839e-13 0 0)
(-2.4781674e-13 1.013294e-28 1.013294e-28)
(-1.2605802e-13 -1.519941e-28 2.1102868e-41)
(-9.1937665e-14 -2.8799547e-44 -2.026588e-28)
(6.2895018e-14 7.0306895e-41 0)
(-7.0955255e-14 0 0)
(-1.4371514e-13 -1.519941e-28 -1.519941e-28)
(-9.0983335e-14 2.533235e-28 7.1998869e-44)
(-1.2179772e-13 1.519941e-28 4.8788331e-57)
(-2.1841075e-13 -1.013294e-28 -5.06647e-29)
(-1.3401597e-13 2.3520329e-43 -2.3520329e-43)
(-2.0677811e-13 -1.519941e-28 2.1059669e-41)
(-2.8250686e-13 0 -2.8137158e-41)
(-2.8129631e-13 0 1.4061379e-41)
(-3.2009755e-13 -1.013294e-28 -1.013294e-28)
(-2.6485824e-13 5.6303115e-41 2.026588e-28)
(-3.703944e-13 1.013294e-28 -2.8137158e-41)
(-1.7418792e-13 0 1.4075779e-41)
(-1.9677823e-13 0 -5.6303115e-41)
(-3.4094601e-13 -2.533235e-28 -2.533235e-28)
(-3.5976497e-13 4.2220137e-41 1.013294e-28)
(-3.3822377e-13 -1.519941e-28 4.2205737e-41)
(-3.2333841e-13 0 -2.8194757e-41)
(-3.2451561e-13 0 0)
(-3.1980011e-13 0 1.519941e-28)
(-5.1185433e-13 0 5.06647e-29)
(-3.5842889e-13 0 -2.1102868e-41)
(-2.4657694e-13 0 2.1599661e-44)
(-4.0020868e-13 0 -1.4068579e-41)
(-5.1852997e-13 0 2.1124468e-41)
(-5.0033899e-13 3.039882e-28 1.519941e-28)
(-3.7322571e-13 5.6245516e-41 -1.013294e-28)
(-4.1772401e-13 -3.039882e-28 -3.039882e-28)
(-5.1967999e-13 2.026588e-28 2.026588e-28)
(-3.9404226e-13 -1.013294e-28 1.013294e-28)
(-5.1232505e-13 1.519941e-28 0)
(-6.1777875e-13 -5.6331915e-41 -2.026588e-28)
(-5.7007636e-13 -1.013294e-28 -1.013294e-28)
(-4.6910671e-13 2.8137158e-41 0)
(-4.3638949e-13 -7.3107696e-42 7.3107696e-42)
(-4.5482919e-13 0 -7.0342895e-42)
(-6.2908845e-13 0 7.1998869e-45)
(-7.1386141e-13 5.06647e-29 7.0270896e-42)
(-5.7899504e-13 -4.2205737e-41 1.519941e-28)
(-5.8432761e-13 1.519941e-28 -1.519941e-28)
(-5.832344e-13 0 -4.2162538e-41)
(-5.1187134e-13 0 1.2661721e-40)
(-5.60449e-13 0 1.519941e-28)
(-2.1120694e-13 0 1.519941e-28)
(-4.5955876e-13 0 -3.039882e-28)
(-5.6697203e-13 0 7.1998869e-45)
(-2.9510745e-13 0 9.5717372e-55)
(5.8383013e-14 1.3412344e-41 6.7061722e-42)
(-1.7519972e-13 4.2176937e-41 5.06647e-29)
(-8.9003966e-14 -3.039882e-28 2.1102868e-41)
(-3.7061762e-13 2.026588e-28 2.026588e-28)
(-3.5265088e-13 7.1998869e-45 0)
(-2.6815525e-13 -1.013294e-28 0)
(-4.0000321e-13 1.4046979e-40 0)
(-3.4836306e-13 4.053176e-28 2.026588e-28)
(-4.4233915e-13 2.026588e-28 2.026588e-28)
(-5.1784837e-13 4.8788331e-57 -2.533235e-28)
(-7.3333563e-13 -1.519941e-28 -5.06647e-29)
(-6.2583738e-13 0 0)
(-6.8882172e-13 1.3174931e-41 6.5874653e-42)
(-5.6697722e-13 0 -1.013294e-28)
(-6.8902189e-13 0 1.519941e-28)
(-5.944059e-13 1.013294e-28 5.06647e-29)
(-8.7124582e-13 -4.2162538e-41 0)
(-7.9426726e-13 -4.559823e-28 -1.519941e-28)
(-8.1148604e-13 5.06647e-29 -5.06647e-29)
(-6.7843454e-13 -5.06647e-29 -5.06647e-29)
(-5.621364e-13 1.519941e-28 -4.2205737e-41)
(-5.0216862e-13 -1.519941e-28 1.519941e-28)
(-6.6422802e-13 5.06647e-29 0)
(-8.6149951e-13 2.8108358e-41 0)
(-5.5583396e-13 -2.7863571e-41 0)
(-5.1967989e-13 -1.013294e-28 0)
(-5.4506673e-13 0 1.519941e-28)
(-3.5847679e-13 -3.546529e-28 -9.8379254e-41)
(-1.8862124e-13 4.053176e-28 -4.053176e-28)
(-2.9411839e-13 3.039882e-28 1.519941e-28)
(-4.8514643e-13 1.013294e-28 -1.4068579e-41)
(-5.0940015e-13 5.06647e-29 7.0414894e-42)
(-4.99657e-13 -1.013294e-28 -9.7576662e-57)
(-5.8855764e-13 -1.3568289e-41 1.3568289e-41)
(-5.2716286e-13 -7.093058e-28 -3.546529e-28)
(-4.9720441e-13 -5.573117e-28 1.1146234e-27)
(-8.3753345e-13 3.039882e-28 4.2205737e-41)
(-9.2778948e-13 0 1.4054179e-41)
(-8.0222525e-13 1.519941e-28 -1.519941e-28)
(-7.0841578e-13 -1.013294e-28 0)
(-5.1496214e-13 1.013294e-28 -1.013294e-28)
(-4.1453699e-13 -9.119646e-28 -3.039882e-28)
(-2.729149e-13 -4.3199321e-44 1.519941e-28)
(-3.7017685e-13 -4.7474139e-56 -6.6423406e-69)
(-1.730945e-13 -1.013294e-28 -1.013294e-28)
(-4.5730304e-13 -2.1102868e-41 0)
(-2.8976726e-13 -5.06647e-29 0)
(-3.6166097e-13 -5.7599095e-44 -2.026588e-28)
(-5.385809e-13 -6.079764e-28 4.2162538e-41)
(-1.8772948e-13 1.013294e-28 1.013294e-28)
(-1.5410963e-13 0 0)
(1.0053873e-13 -4.2205737e-41 -1.519941e-28)
(1.4867478e-14 -7.1998869e-45 7.1998869e-45)
(1.3526387e-13 5.06647e-29 1.4068579e-41)
(3.1447761e-13 -5.06647e-29 7.0270896e-42)
(4.1436282e-13 -2.8137158e-41 1.013294e-28)
(2.6123033e-13 -2.1081269e-41 -1.519941e-28)
(3.5490212e-13 -2.8799547e-44 2.8799547e-44)
(1.2935263e-13 -3.039882e-28 -8.4411474e-41)
(1.9539943e-13 2.533235e-28 -2.533235e-28)
(3.5720903e-13 4.8788331e-57 1.519941e-28)
(4.3021027e-13 -4.2205737e-41 4.2205737e-41)
(3.176373e-13 -2.8799547e-44 2.8799547e-44)
(4.7042516e-13 -1.013294e-28 -7.0342895e-42)
(4.1521873e-13 -7.0270896e-42 -5.06647e-29)
(2.7020776e-13 3.039882e-28 3.039882e-28)
(2.4758815e-13 0 0)
(1.077673e-13 0 -1.9690971e-40)
(2.6927738e-13 -3.546529e-28 -4.9189627e-41)
(2.1271533e-13 -1.6865015e-40 -1.6865015e-40)
(2.759857e-13 5.06647e-28 -7.1998869e-44)
(2.3638727e-13 -7.093058e-28 -7.093058e-28)
(5.824298e-13 6.3308605e-41 4.559823e-28)
(4.7408494e-13 7.0006783e-71 7.0006783e-71)
(6.1717316e-13 -3.5171447e-41 -3.5171447e-41)
(3.5346309e-13 3.039882e-28 8.4411474e-41)
(2.0173431e-13 2.533235e-28 -3.5171447e-41)
(6.2443983e-14 3.5135448e-41 5.06647e-28)
(2.2729203e-13 -2.533235e-28 -2.533235e-28)
(7.0108367e-14 0 -1.519941e-28)
(9.6219355e-15 0 -2.1102868e-41)
(-9.2286319e-14 2.533235e-28 3.5171447e-41)
(-2.6022657e-13 -4.053176e-28 8.106352e-28)
(-5.7705674e-14 2.5306162e-40 -3.039882e-28)
(-1.0642336e-13 -4.2174421e-43 4.2174421e-43)
(-9.1605629e-14 5.06647e-29 -4.8788331e-57)
(-2.8511111e-13 0 0)
(-2.8647204e-13 -2.533235e-28 4.8788331e-57)
(-3.9354346e-13 -2.533235e-28 2.533235e-28)
(-4.5407115e-13 2.533235e-28 -2.533235e-28)
(-6.2073209e-13 1.519941e-28 -1.4636499e-56)
(-9.0298737e-13 0 -4.2162538e-41)
(-6.5769655e-13 3.039882e-28 -4.3199321e-44)
(-7.7685303e-13 -3.63496e-43 3.63496e-43)
(-8.752717e-13 3.039882e-28 -3.039882e-28)
(-9.5039724e-13 2.533235e-28 -7.0342895e-41)
(-1.0096551e-12 -1.519941e-28 1.519941e-28)
(-9.0290236e-13 -5.06647e-29 -7.0270896e-42)
(-9.8317183e-13 2.1081269e-41 -2.1081269e-41)
(-8.8437676e-13 5.06647e-29 5.06647e-29)
(-9.64206e-13 -9.8480053e-41 3.546529e-28)
(-1.1267642e-12 1.013294e-27 2.7158525e-68)
(-1.1018881e-12 0 1.6888055e-40)
(-8.4447581e-13 0 -4.2227337e-41)
(-1.2530039e-12 0 -4.510106e-55)
(-1.2844475e-12 1.013294e-28 -2.8137158e-41)
(-1.2757254e-12 1.7960979e-42 1.9515332e-56)
(-1.122329e-12 0 0)
(-1.1903379e-12 1.519941e-28 -1.519941e-28)
(-1.1986263e-12 3.5099449e-41 0)
(-1.2942565e-12 -1.519941e-28 0)
(-1.4483962e-12 0 -1.519941e-28)
(-1.1196338e-12 0 -5.6274316e-41)
(-1.1999173e-12 -1.013294e-28 1.013294e-28)
(-1.1007038e-12 2.1081269e-41 0)
(-1.1871472e-12 -3.5099449e-41 0)
(-1.1042099e-12 1.519941e-28 3.039882e-28)
(-9.0281353e-13 -1.519941e-28 1.2653081e-40)
(-1.0220607e-12 2.1081269e-41 -1.013294e-28)
(-1.3083563e-12 -5.06647e-29 -5.06647e-29)
(-1.1356531e-12 0 -7.1998869e-45)
(-1.2657912e-12 1.519941e-28 2.1102868e-41)
(-1.4720908e-12 7.0342895e-42 5.06647e-29)
(-1.2223612e-12 1.519941e-28 0)
(-1.0918601e-12 -3.039882e-28 0)
(-1.1468905e-12 1.519941e-28 0)
(-1.0640265e-12 -5.06647e-29 5.06647e-29)
(-1.0345469e-12 2.026588e-28 5.6216717e-41)
(-1.1895106e-12 0 -2.026588e-28)
(-1.2176498e-12 1.4078878e-41 0)
(-1.0004683e-12 -1.3885333e-41 0)
(-6.8621216e-13 3.039882e-28 3.039882e-28)
(-8.5778759e-13 4.053176e-28 -5.7599095e-44)
(-8.911076e-13 0 -2.533235e-28)
(-7.8874711e-13 1.519941e-28 0)
(-6.8381755e-13 -1.519941e-28 0)
(-7.9948244e-13 -3.546529e-28 3.546529e-28)
(-4.6881245e-13 5.06647e-28 1.4054179e-40)
(-2.7221558e-13 8.106352e-28 1.1260623e-40)
(-5.6330062e-13 -2.8137158e-41 -1.4068579e-41)
(-4.668451e-13 6.079764e-28 2.026588e-28)
(-4.6793027e-13 4.8788331e-57 -1.519941e-28)
(-4.0272952e-13 -5.06647e-29 1.4061379e-41)
(-4.4440829e-13 -2.026588e-28 -2.8122758e-41)
(-4.3208199e-13 2.8108358e-41 1.4054179e-41)
(-1.7041006e-13 -2.026588e-28 -1.013294e-28)
(-3.0622555e-13 2.026588e-28 0)
(-2.9715132e-13 -1.519941e-28 0)
(-1.7773914e-13 -5.06647e-29 -5.06647e-29)
(-2.2566415e-13 5.06647e-29 -3.6591248e-55)
(1.4570157e-14 -4.053176e-28 -2.026588e-28)
(-1.4985683e-13 0 0)
(-1.0564294e-14 0 0)
(2.9078643e-13 2.026588e-28 1.013294e-28)
(1.7425447e-13 -3.9030665e-56 -7.806133e-56)
(4.1617432e-13 -5.06647e-28 -2.533235e-28)
(3.3652536e-13 0 0)
(3.2562561e-13 0 0)
(1.7450548e-13 5.06647e-28 2.533235e-28)
(2.6764783e-13 1.1709199e-55 2.3418399e-55)
(6.0822635e-14 3.039882e-28 1.519941e-28)
(6.6850987e-14 0 0)
(9.6739724e-14 0 0)
(6.1997828e-14 2.026588e-28 1.013294e-28)
(1.7692411e-13 1.013294e-28 -1.4399774e-44)
(1.8361921e-13 -3.039882e-28 -1.519941e-28)
(7.4593834e-14 -1.3906715e-41 1.3906715e-41)
(-7.0288145e-14 0 1.4075779e-41)
(1.2095601e-13 3.039882e-28 4.2227337e-41)
(-5.532583e-14 -1.6882295e-40 -8.4411474e-41)
(1.4694956e-14 -5.06647e-28 -2.533235e-28)
(-6.4975413e-14 3.546529e-28 0)
(1.9984189e-13 0 0)
(-1.6925701e-14 -1.013294e-28 0)
(-4.9929822e-15 -5.06647e-29 0)
(2.5822453e-13 -1.4399774e-44 0)
(3.5377519e-13 -1.519941e-28 1.519941e-28)
(3.265201e-13 5.06647e-29 -1.4061379e-41)
(1.3231195e-13 1.519941e-28 1.519941e-28)
(1.657817e-13 2.026588e-28 0)
(2.7109687e-13 -5.06647e-29 0)
(2.8821522e-13 -5.06647e-29 0)
(2.2258415e-13 4.2205737e-41 0)
(2.1385362e-13 2.533235e-28 0)
(8.4313046e-14 -3.039882e-28 0)
(1.1484845e-13 -5.6274316e-41 0)
(3.263594e-13 5.06647e-29 -5.06647e-29)
(3.2399243e-13 5.06647e-29 -2.8122758e-41)
(-4.7630245e-14 -5.06647e-29 -5.06647e-29)
(1.5710545e-13 -1.519941e-28 0)
(2.3339131e-13 2.026588e-28 0)
(1.0639308e-13 -1.4239244e-41 0)
(2.3391537e-13 9.8480053e-41 0)
(5.3521593e-14 5.06647e-28 0)
(8.7910511e-14 -2.533235e-28 0)
(2.2291877e-13 1.4399774e-44 0)
(2.9102693e-14 5.06647e-29 -5.06647e-29)
(4.5962851e-14 -4.2764235e-44 1.18687e-56)
(-8.3791954e-14 -1.013294e-28 -1.013294e-28)
(1.9676347e-13 -2.026588e-28 0)
(1.6687186e-13 2.533235e-28 0)
(3.0614277e-13 4.053176e-28 2.026588e-28)
(1.0055632e-13 5.6303115e-41 2.8151558e-41)
(1.1072484e-13 7.093058e-28 3.546529e-28)
(1.1263529e-13 -3.546529e-28 0)
(1.9801432e-13 4.3199321e-44 0)
(1.4552204e-13 2.026588e-28 0)
(2.9896356e-13 -7.1998869e-44 2.533235e-28)
(1.9644276e-13 3.546529e-28 9.8530452e-41)
(5.8929982e-14 0 -2.026588e-28)
(1.393613e-13 -2.026588e-28 0)
(-6.7659021e-14 0 0)
(1.1531316e-13 2.026588e-28 0)
(4.6203536e-14 0 0)
(2.5829525e-13 0 0)
(1.1982376e-13 0 0)
(-1.5279374e-13 5.06647e-29 0)
(-1.0356978e-14 4.8788331e-57 -5.06647e-29)
(8.26255e-15 1.013294e-28 1.4399774e-44)
(-1.5570964e-13 0 1.013294e-28)
(-5.3338047e-14 5.06647e-29 0)
(-1.0558822e-13 1.4068579e-41 0)
(-2.2254047e-15 -5.06647e-29 0)
(-2.6111627e-13 0 0)
(-2.5736738e-13 0 0)
(-1.1530759e-13 0 0)
(-1.6684727e-13 -5.06647e-29 0)
(-8.7173868e-14 2.8137158e-41 -1.013294e-28)
(-1.1354018e-13 5.06647e-29 -7.1998869e-45)
(-1.523252e-13 0 -1.013294e-28)
(-1.6604011e-13 -9.585823e-45 0)
(-1.5155757e-13 7.0306895e-41 0)
(-1.1495408e-13 -1.519941e-28 0)
(-5.1822274e-14 0 1.548397e-44)
(-7.5447737e-14 -2.7999972e-41 -1.5555074e-53)
(1.4064812e-13 3.546529e-28 -3.546529e-28)
(4.7845011e-14 -1.6890935e-40 0)
(9.6069842e-14 0 0)
(2.2017978e-13 5.06647e-29 1.4075779e-41)
(1.1713637e-13 0 5.06647e-29)
(8.9830425e-14 -1.519941e-28 0)
(-3.5977621e-14 -1.4068579e-41 0)
(1.1908898e-14 -1.519941e-28 1.519941e-28)
(1.4939512e-13 0 3.039882e-28)