/*--------------------------------*- C++ -*----------------------------------*\
  =========                 |
  \\      /  F ield         | OpenFOAM: The Open Source CFD Toolbox
   \\    /   O peration     | Website:  https://openfoam.org
    \\  /    A nd           | Version:  7
     \\/     M anipulation  |
\*---------------------------------------------------------------------------*/
FoamFile
{
    version     2.0;
    format      ascii;
    class       volScalarField;
    location    "0.00098";
    object      p;
}
// * * * * * * * * * * * * * * * * * * * * * * * * * * * * * * * * * * * * * //

dimensions      [1 -1 -2 0 0 0 0];

internalField   nonuniform List<scalar> 
5000
(
100958.82
100970.4
100982.28
100994.22
101006.2
101018.19
101030.18
101042.19
101054.21
101066.24
101078.26
101090.3
101102.33
101114.37
101126.4
101138.44
101150.48
101162.51
101174.55
101186.58
101198.61
101210.64
101222.67
101234.7
101246.72
101258.75
101270.77
101282.79
101294.81
101306.83
101318.85
101330.86
101342.88
101354.89
101366.9
101378.91
101390.91
101402.92
101414.92
101426.92
101438.91
101450.91
101462.9
101474.89
101486.87
101498.85
101510.83
101522.8
101534.77
101546.74
101558.7
101570.66
101582.62
101594.58
101606.54
101618.5
101630.46
101642.42
101654.39
101666.35
101678.33
101690.3
101702.28
101714.27
101726.25
101738.25
101750.25
101762.25
101774.25
101786.26
101798.27
101810.29
101822.3
101834.32
101846.34
101858.36
101870.38
101882.4
101894.42
101906.44
101918.46
101930.48
101942.5
101954.52
101966.54
101978.56
101990.57
102002.59
102014.6
102026.61
102038.62
102050.63
102062.64
102074.65
102086.66
102098.66
102110.66
102122.66
102134.66
102146.66
102158.66
102170.66
102182.65
102194.64
102206.64
102218.63
102230.61
102242.6
102254.59
102266.57
102278.56
102290.54
102302.52
102314.5
102326.48
102338.45
102350.43
102362.4
102374.37
102386.35
102398.31
102410.28
102422.25
102434.21
102446.18
102458.14
102470.1
102482.06
102494.02
102505.98
102517.93
102529.89
102541.84
102553.79
102565.74
102577.69
102589.64
102601.58
102613.53
102625.47
102637.41
102649.35
102661.29
102673.23
102685.17
102697.1
102709.03
102720.97
102732.9
102744.83
102756.75
102768.68
102780.61
102792.53
102804.45
102816.37
102828.29
102840.21
102852.13
102864.04
102875.95
102887.87
102899.78
102911.69
102923.59
102935.5
102947.4
102959.31
102971.21
102983.11
102995.01
103006.9
103018.8
103030.69
103042.58
103054.47
103066.36
103078.24
103090.12
103102
103113.88
103125.76
103137.63
103149.51
103161.38
103173.25
103185.11
103196.98
103208.84
103220.7
103232.56
103244.42
103256.28
103268.13
103279.99
103291.84
103303.69
103315.54
103327.39
103339.24
103351.09
103362.94
103374.79
103386.63
103398.48
103410.33
103422.18
103434.03
103445.88
103457.74
103469.59
103481.44
103493.3
103505.15
103517.01
103528.87
103540.73
103552.59
103564.45
103576.32
103588.18
103600.05
103611.92
103623.79
103635.66
103647.53
103659.4
103671.27
103683.14
103695.02
103706.89
103718.77
103730.64
103742.52
103754.39
103766.27
103778.14
103790.02
103801.89
103813.77
103825.64
103837.52
103849.39
103861.26
103873.13
103885.01
103896.88
103908.75
103920.61
103932.48
103944.35
103956.22
103968.08
103979.94
103991.81
104003.67
104015.53
104027.39
104039.24
104051.1
104062.96
104074.81
104086.66
104098.51
104110.36
104122.21
104134.06
104145.91
104157.75
104169.6
104181.44
104193.28
104205.12
104216.96
104228.79
104240.63
104252.46
104264.29
104276.13
104287.96
104299.78
104311.61
104323.44
104335.26
104347.08
104358.91
104370.73
104382.54
104394.36
104406.18
104417.99
104429.8
104441.61
104453.42
104465.23
104477.04
104488.84
104500.65
104512.45
104524.25
104536.05
104547.85
104559.64
104571.44
104583.23
104595.02
104606.81
104618.6
104630.38
104642.17
104653.95
104665.73
104677.51
104689.29
104701.06
104712.84
104724.61
104736.38
104748.15
104759.92
104771.69
104783.45
104795.22
104806.98
104818.74
104830.5
104842.26
104854.01
104865.77
104877.52
104889.28
104901.03
104912.78
104924.53
104936.28
104948.03
104959.78
104971.52
104983.27
104995.02
105006.76
105018.51
105030.25
105041.99
105053.74
105065.48
105077.23
105088.97
105100.71
105112.46
105124.2
105135.95
105147.69
105159.44
105171.18
105182.93
105194.67
105206.42
105218.17
105229.91
105241.66
105253.41
105265.16
105276.91
105288.66
105300.41
105312.16
105323.91
105335.66
105347.41
105359.16
105370.92
105382.67
105394.42
105406.18
105417.93
105429.68
105441.44
105453.19
105464.94
105476.7
105488.45
105500.2
105511.96
105523.71
105535.46
105547.22
105558.97
105570.72
105582.47
105594.22
105605.97
105617.72
105629.47
105641.22
105652.97
105664.72
105676.46
105688.21
105699.95
105711.7
105723.44
105735.18
105746.92
105758.66
105770.4
105782.14
105793.88
105805.61
105817.35
105829.08
105840.82
105852.55
105864.28
105876.01
105887.74
105899.47
105911.19
105922.92
105934.64
105946.36
105958.09
105969.81
105981.53
105993.24
106004.96
106016.68
106028.39
106040.1
106051.81
106063.52
106075.23
106086.94
106098.65
106110.35
106122.06
106133.76
106145.46
106157.16
106168.86
106180.55
106192.25
106203.94
106215.63
106227.32
106239.01
106250.7
106262.38
106274.07
106285.75
106297.43
106309.11
106320.78
106332.46
106344.13
106355.8
106367.47
106379.13
106390.8
106402.46
106414.12
106425.78
106437.43
106449.08
106460.74
106472.38
106484.03
106495.68
106507.32
106518.96
106530.6
106542.23
106553.86
106565.49
106577.12
106588.75
106600.37
106612
106623.62
106635.24
106646.85
106658.47
106670.08
106681.69
106693.3
106704.9
106716.51
106728.11
106739.72
106751.32
106762.92
106774.51
106786.11
106797.71
106809.3
106820.9
106832.49
106844.08
106855.67
106867.26
106878.85
106890.44
106902.03
106913.62
106925.21
106936.8
106948.39
106959.98
106971.57
106983.16
106994.75
107006.33
107017.92
107029.51
107041.1
107052.69
107064.28
107075.88
107087.47
107099.06
107110.65
107122.25
107133.84
107145.43
107157.03
107168.62
107180.22
107191.82
107203.41
107215.01
107226.61
107238.2
107249.8
107261.4
107273
107284.6
107296.2
107307.79
107319.39
107330.99
107342.59
107354.19
107365.79
107377.38
107388.98
107400.58
107412.17
107423.77
107435.36
107446.95
107458.55
107470.14
107481.73
107493.32
107504.91
107516.49
107528.08
107539.66
107551.24
107562.82
107574.4
107585.97
107597.54
107609.12
107620.68
107632.25
107643.81
107655.37
107666.93
107678.48
107690.03
107701.58
107713.12
107724.66
107736.2
107747.73
107759.26
107770.78
107782.3
107793.81
107805.32
107816.82
107828.32
107839.81
107851.3
107862.78
107874.25
107885.72
107897.18
107908.64
107920.08
107931.52
107942.95
107954.37
107965.79
107977.19
107988.59
107999.97
108011.35
108022.71
108034.06
108045.41
108056.74
108068.06
108079.37
108090.66
108101.94
108113.21
108124.46
108135.69
108146.91
108158.12
108169.31
108180.48
108191.63
108202.77
108213.88
108224.97
108236.05
108247.1
108258.13
108269.14
108280.12
108291.08
108302.01
108312.92
108323.8
108334.65
108345.47
108356.27
108367.03
108377.75
108388.45
108399.11
108409.74
108420.32
108430.88
108441.39
108451.86
108462.29
108472.68
108483.02
108493.32
108503.57
108513.77
108523.92
108534.02
108544.07
108554.07
108564.01
108573.89
108583.71
108593.47
108603.17
108612.8
108622.37
108631.87
108641.3
108650.66
108659.94
108669.15
108678.28
108687.34
108696.31
108705.19
108714
108722.71
108731.33
108739.87
108748.31
108756.65
108764.89
108773.03
108781.07
108789
108796.83
108804.54
108812.14
108819.63
108827
108834.25
108841.37
108848.37
108855.25
108861.99
108868.6
108875.07
108881.41
108887.6
108893.66
108899.56
108905.32
108910.93
108916.38
108921.68
108926.82
108931.8
108936.61
108941.25
108945.73
108950.03
108954.16
108958.11
108961.89
108965.47
108968.88
108972.09
108975.12
108977.95
108980.59
108983.03
108985.26
108987.3
108989.13
108990.75
108992.16
108993.36
108994.35
108995.11
108995.66
108995.98
108996.08
108995.95
108995.59
108995.01
108994.19
108993.13
108991.84
108990.31
108988.54
108986.53
108984.27
108981.77
108979.02
108976.02
108972.78
108969.27
108965.52
108961.51
108957.24
108952.72
108947.93
108942.89
108937.58
108932.01
108926.18
108920.08
108913.71
108907.08
108900.19
108893.02
108885.58
108877.88
108869.9
108861.66
108853.14
108844.35
108835.29
108825.95
108816.35
108806.47
108796.32
108785.9
108775.2
108764.23
108752.99
108741.48
108729.69
108717.63
108705.3
108692.7
108679.83
108666.7
108653.29
108639.61
108625.66
108611.45
108596.97
108582.23
108567.22
108551.95
108536.42
108520.62
108504.57
108488.26
108471.69
108454.86
108437.78
108420.44
108402.85
108385.02
108366.93
108348.59
108330.01
108311.19
108292.12
108272.81
108253.27
108233.48
108213.46
108193.21
108172.73
108152.01
108131.07
108109.91
108088.52
108066.9
108045.07
108023.03
108000.77
107978.29
107955.61
107932.72
107909.62
107886.32
107862.82
107839.12
107815.22
107791.14
107766.86
107742.39
107717.73
107692.9
107667.88
107642.68
107617.31
107591.77
107566.05
107540.17
107514.12
107487.92
107461.55
107435.02
107408.34
107381.51
107354.53
107327.41
107300.14
107272.74
107245.2
107217.52
107189.71
107161.78
107133.71
107105.53
107077.23
107048.81
107020.27
106991.63
106962.88
106934.02
106905.07
106876.01
106846.86
106817.62
106788.29
106758.87
106729.37
106699.78
106670.12
106640.39
106610.59
106580.72
106550.78
106520.78
106490.73
106460.62
106430.46
106400.25
106369.99
106339.69
106309.35
106278.98
106248.57
106218.14
106187.67
106157.19
106126.68
106096.16
106065.63
106035.08
106004.53
105973.98
105943.42
105912.87
105882.33
105851.79
105821.27
105790.76
105760.28
105729.82
105699.38
105668.98
105638.6
105608.27
105577.97
105547.72
105517.52
105487.36
105457.26
105427.22
105397.24
105367.32
105337.47
105307.69
105277.98
105248.35
105218.81
105189.35
105159.97
105130.69
105101.5
105072.42
105043.43
105014.55
104985.78
104957.12
104928.58
104900.16
104871.86
104843.69
104815.64
104787.74
104759.97
104732.33
104704.85
104677.51
104650.32
104623.29
104596.41
104569.7
104543.15
104516.77
104490.56
104464.53
104438.68
104413
104387.52
104362.22
104337.12
104312.21
104287.5
104262.99
104238.68
104214.59
104190.71
104167.04
104143.59
104120.37
104097.37
104074.6
104052.06
104029.75
104007.69
103985.86
103964.27
103942.94
103921.85
103901.01
103880.43
103860.11
103840.04
103820.24
103800.71
103781.44
103762.44
103743.72
103725.27
103707.1
103689.22
103671.61
103654.29
103637.25
103620.5
103604.05
103587.88
103572.02
103556.44
103541.17
103526.19
103511.51
103497.14
103483.07
103469.31
103455.85
103442.7
103429.85
103417.32
103405.09
103393.17
103381.57
103370.28
103359.29
103348.63
103338.27
103328.22
103318.49
103309.07
103299.96
103291.17
103282.68
103274.51
103266.65
103259.09
103251.85
103244.91
103238.28
103231.96
103225.94
103220.22
103214.81
103209.69
103204.88
103200.36
103196.13
103192.2
103188.56
103185.21
103182.15
103179.37
103176.87
103174.65
103172.71
103171.04
103169.64
103168.51
103167.65
103167.05
103166.71
103166.63
103166.79
103167.21
103167.88
103168.78
103169.93
103171.32
103172.94
103174.79
103176.86
103179.16
103181.67
103184.4
103187.34
103190.49
103193.85
103197.4
103201.15
103205.09
103209.22
103213.54
103218.03
103222.71
103227.55
103232.57
103237.75
103243.1
103248.6
103254.25
103260.06
103266.01
103272.11
103278.35
103284.72
103291.23
103297.86
103304.62
103311.5
103318.5
103325.61
103332.84
103340.17
103347.61
103355.15
103362.79
103370.53
103378.35
103386.27
103394.28
103402.36
103410.53
103418.78
103427.1
103435.5
103443.96
103452.5
103461.1
103469.76
103478.48
103487.26
103496.1
103504.99
103513.93
103522.92
103531.96
103541.05
103550.17
103559.35
103568.56
103577.81
103587.09
103596.42
103605.77
103615.16
103624.58
103634.03
103643.5
103653.01
103662.53
103672.09
103681.66
103691.26
103700.88
103710.52
103720.18
103729.85
103739.54
103749.25
103758.98
103768.71
103778.47
103788.23
103798.01
103807.8
103817.59
103827.4
103837.22
103847.05
103856.89
103866.73
103876.58
103886.44
103896.31
103906.18
103916.06
103925.94
103935.83
103945.72
103955.62
103965.52
103975.43
103985.33
103995.25
104005.16
104015.08
104025
104034.92
104044.84
104054.77
104064.69
104074.62
104084.55
104094.48
104104.42
104114.35
104124.28
104134.22
104144.15
104154.09
104164.02
104173.96
104183.9
104193.83
104203.77
104213.7
104223.64
104233.58
104243.51
104253.45
104263.38
104273.32
104283.25
104293.19
104303.12
104313.05
104322.98
104332.91
104342.85
104352.78
104362.71
104372.63
104382.56
104392.49
104402.42
104412.34
104422.27
104432.19
104442.12
104452.04
104461.96
104471.88
104481.8
104491.72
104501.64
104511.56
104521.48
104531.39
104541.31
104551.22
104561.14
104571.05
104580.96
104590.87
104600.78
104610.69
104620.6
104630.51
104640.42
104650.32
104660.23
104670.13
104680.04
104689.94
104699.84
104709.74
104719.64
104729.54
104739.44
104749.34
104759.24
104769.13
104779.03
104788.92
104798.81
104808.71
104818.6
104828.49
104838.38
104848.27
104858.15
104868.04
104877.93
104887.81
104897.7
104907.58
104917.46
104927.34
104937.22
104947.1
104956.98
104966.86
104976.74
104986.62
104996.49
105006.37
105016.24
105026.11
105035.98
105045.85
105055.72
105065.59
105075.46
105085.33
105095.2
105105.06
105114.93
105124.79
105134.65
105144.51
105154.38
105164.24
105174.1
105183.95
105193.81
105203.67
105213.52
105223.38
105233.23
105243.09
105252.94
105262.79
105272.64
105282.49
105292.34
105302.19
105312.03
105321.88
105331.72
105341.57
105351.41
105361.25
105371.09
105380.94
105390.78
105400.61
105410.45
105420.29
105430.13
105439.96
105449.8
105459.63
105469.46
105479.29
105489.12
105498.95
105508.78
105518.61
105528.44
105538.27
105548.09
105557.92
105567.74
105577.56
105587.39
105597.21
105607.03
105616.85
105626.67
105636.48
105646.3
105656.12
105665.93
105675.75
105685.56
105695.37
105705.19
105715
105724.81
105734.61
105744.42
105754.23
105764.04
105773.84
105783.65
105793.45
105803.25
105813.06
105822.86
105832.66
105842.46
105852.26
105862.05
105871.85
105881.65
105891.44
105901.24
105911.03
105920.82
105930.61
105940.4
105950.19
105959.98
105969.77
105979.56
105989.34
105999.13
106008.91
106018.7
106028.48
106038.26
106048.04
106057.82
106067.6
106077.38
106087.16
106096.93
106106.71
106116.48
106126.26
106136.03
106145.8
106155.57
106165.34
106175.11
106184.88
106194.65
106204.42
106214.18
106223.95
106233.71
106243.48
106253.24
106263
106272.76
106282.52
106292.28
106302.04
106311.79
106321.55
106331.3
106341.06
106350.81
106360.57
106370.32
106380.07
106389.82
106399.57
106409.31
106419.06
106428.81
106438.55
106448.3
106458.04
106467.78
106477.53
106487.27
106497.01
106506.75
106516.48
106526.22
106535.96
106545.69
106555.43
106565.16
106574.89
106584.63
106594.36
106604.09
106613.82
106623.55
106633.27
106643
106652.72
106662.45
106672.17
106681.9
106691.62
106701.34
106711.06
106720.78
106730.5
106740.21
106749.93
106759.65
106769.36
106779.07
106788.79
106798.5
106808.21
106817.92
106827.63
106837.34
106847.04
106856.75
106866.46
106876.16
106885.86
106895.57
106905.27
106914.97
106924.67
106934.37
106944.07
106953.76
106963.46
106973.15
106982.85
106992.54
107002.23
107011.93
107021.62
107031.31
107041
107050.68
107060.37
107070.06
107079.74
107089.43
107099.11
107108.79
107118.47
107128.15
107137.83
107147.51
107157.19
107166.86
107176.54
107186.21
107195.89
107205.56
107215.23
107224.9
107234.57
107244.24
107253.91
107263.58
107273.24
107282.91
107292.57
107302.24
107311.9
107321.56
107331.22
107340.88
107350.54
107360.19
107369.85
107379.51
107389.16
107398.81
107408.46
107418.12
107427.77
107437.41
107447.06
107456.71
107466.35
107476
107485.64
107495.28
107504.92
107514.56
107524.2
107533.84
107543.48
107553.11
107562.74
107572.38
107582.01
107591.64
107601.26
107610.89
107620.52
107630.14
107639.76
107649.38
107659
107668.62
107678.24
107687.85
107697.47
107707.08
107716.69
107726.3
107735.9
107745.51
107755.11
107764.71
107774.31
107783.9
107793.5
107803.09
107812.68
107822.27
107831.85
107841.44
107851.02
107860.6
107870.17
107879.74
107889.31
107898.88
107908.45
107918.01
107927.57
107937.12
107946.67
107956.22
107965.77
107975.31
107984.84
107994.38
108003.91
108013.43
108022.95
108032.47
108041.98
108051.49
108060.99
108070.49
108079.98
108089.47
108098.96
108108.43
108117.9
108127.37
108136.83
108146.28
108155.73
108165.17
108174.6
108184.03
108193.44
108202.86
108212.26
108221.65
108231.04
108240.42
108249.79
108259.15
108268.5
108277.85
108287.18
108296.5
108305.82
108315.12
108324.41
108333.69
108342.96
108352.22
108361.46
108370.69
108379.91
108389.12
108398.31
108407.49
108416.66
108425.81
108434.94
108444.06
108453.17
108462.26
108471.33
108480.39
108489.43
108498.45
108507.45
108516.43
108525.4
108534.35
108543.27
108552.18
108561.06
108569.93
108578.77
108587.59
108596.39
108605.16
108613.92
108622.64
108631.35
108640.03
108648.68
108657.31
108665.91
108674.48
108683.03
108691.54
108700.03
108708.49
108716.93
108725.33
108733.7
108742.03
108750.34
108758.62
108766.86
108775.07
108783.24
108791.38
108799.49
108807.56
108815.59
108823.59
108831.54
108839.47
108847.35
108855.19
108863
108870.76
108878.49
108886.17
108893.82
108901.42
108908.97
108916.49
108923.96
108931.38
108938.77
108946.1
108953.39
108960.64
108967.84
108974.99
108982.09
108989.15
108996.16
109003.11
109010.02
109016.88
109023.69
109030.45
109037.15
109043.81
109050.41
109056.96
109063.46
109069.9
109076.29
109082.63
109088.91
109095.14
109101.31
109107.43
109113.49
109119.49
109125.44
109131.34
109137.18
109142.96
109148.68
109154.34
109159.95
109165.5
109171
109176.43
109181.81
109187.13
109192.39
109197.59
109202.73
109207.81
109212.84
109217.81
109222.71
109227.56
109232.35
109237.08
109241.75
109246.37
109250.92
109255.41
109259.85
109264.23
109268.55
109272.81
109277.01
109281.15
109285.24
109289.27
109293.24
109297.15
109301.01
109304.8
109308.55
109312.23
109315.86
109319.43
109322.95
109326.41
109329.82
109333.17
109336.47
109339.71
109342.9
109346.03
109349.11
109352.14
109355.12
109358.04
109360.92
109363.74
109366.51
109369.23
109371.9
109374.52
109377.1
109379.62
109382.1
109384.52
109386.91
109389.24
109391.53
109393.77
109395.97
109398.13
109400.24
109402.3
109404.32
109406.31
109408.24
109410.14
109412
109413.82
109415.59
109417.33
109419.03
109420.69
109422.31
109423.9
109425.45
109426.96
109428.44
109429.88
109431.29
109432.67
109434.01
109435.32
109436.6
109437.85
109439.06
109440.25
109441.4
109442.53
109443.63
109444.7
109445.74
109446.75
109447.74
109448.7
109449.64
109450.55
109451.43
109452.3
109453.13
109453.95
109454.74
109455.51
109456.26
109456.99
109457.7
109458.38
109459.05
109459.69
109460.32
109460.93
109461.52
109462.1
109462.65
109463.19
109463.72
109464.23
109464.72
109465.19
109465.66
109466.1
109466.54
109466.95
109467.36
109467.75
109468.13
109468.5
109468.86
109469.2
109469.53
109469.86
109470.17
109470.47
109470.76
109471.04
109471.31
109471.57
109471.82
109472.07
109472.3
109472.53
109472.75
109472.96
109473.16
109473.36
109473.55
109473.73
109473.91
109474.08
109474.24
109474.4
109474.55
109474.7
109474.84
109474.97
109475.1
109475.23
109475.35
109475.46
109475.58
109475.68
109475.79
109475.88
109475.98
109476.07
109476.16
109476.24
109476.32
109476.4
109476.48
109476.55
109476.62
109476.68
109476.74
109476.81
109476.86
109476.92
109476.97
109477.02
109477.07
109477.12
109477.16
109477.21
109477.25
109477.29
109477.33
109477.36
109477.4
109477.43
109477.46
109477.49
109477.52
109477.55
109477.58
109477.6
109477.63
109477.65
109477.67
109477.69
109477.71
109477.73
109477.75
109477.77
109477.79
109477.8
109477.82
109477.83
109477.85
109477.86
109477.88
109477.89
109477.9
109477.91
109477.92
109477.93
109477.94
109477.95
109477.96
109477.97
109477.98
109477.99
109477.99
109478
109478.01
109478.01
109478.02
109478.03
109478.03
109478.04
109478.04
109478.05
109478.05
109478.06
109478.06
109478.07
109478.07
109478.08
109478.08
109478.08
109478.09
109478.09
109478.09
109478.1
109478.1
109478.1
109478.11
109478.11
109478.11
109478.11
109478.12
109478.12
109478.12
109478.12
109478.12
109478.13
109478.13
109478.13
109478.13
109478.13
109478.14
109478.14
109478.14
109478.14
109478.14
109478.14
109478.15
109478.15
109478.15
109478.15
109478.15
109478.15
109478.15
109478.15
109478.15
109478.16
109478.16
109478.16
109478.16
109478.16
109478.16
109478.16
109478.16
109478.16
109478.16
109478.16
109478.17
109478.17
109478.17
109478.17
109478.17
109478.17
109478.17
109478.17
109478.17
109478.17
109478.17
109478.17
109478.17
109478.17
109478.17
109478.17
109478.17
109478.17
109478.17
109478.17
109478.17
109478.17
109478.17
109478.17
109478.17
109478.17
109478.17
109478.17
109478.17
109478.17
109478.17
109478.17
109478.17
109478.17
109478.17
109478.17
109478.17
109478.17
109478.17
109478.17
109478.17
109478.17
109478.17
109478.17
109478.17
109478.17
109478.17
109478.16
109478.16
109478.16
109478.16
109478.16
109478.16
109478.16
109478.16
109478.16
109478.16
109478.16
109478.16
109478.15
109478.15
109478.15
109478.15
109478.15
109478.15
109478.15
109478.15
109478.15
109478.15
109478.14
109478.14
109478.14
109478.14
109478.14
109478.14
109478.14
109478.14
109478.13
109478.13
109478.13
109478.13
109478.13
109478.13
109478.13
109478.13
109478.12
109478.12
109478.12
109478.12
109478.12
109478.12
109478.12
109478.12
109478.11
109478.11
109478.11
109478.11
109478.11
109478.11
109478.11
109478.1
109478.1
109478.1
109478.1
109478.1
109478.1
109478.1
109478.1
109478.09
109478.09
109478.09
109478.09
109478.09
109478.09
109478.09
109478.08
109478.08
109478.08
109478.08
109478.08
109478.08
109478.08
109478.08
109478.07
109478.07
109478.07
109478.07
109478.07
109478.07
109478.07
109478.06
109478.06
109478.06
109478.06
109478.06
109478.06
109478.06
109478.06
109478.06
109478.05
109478.05
109478.05
109478.05
109478.05
109478.05
109478.05
109478.05
109478.04
109478.04
109478.04
109478.04
109478.04
109478.04
109478.04
109478.04
109478.04
109478.04
109478.04
109478.03
109478.03
109478.03
109478.03
109478.03
109478.03
109478.03
109478.03
109478.03
109478.03
109478.03
109478.03
109478.03
109478.03
109478.02
109478.02
109478.02
109478.02
109478.02
109478.02
109478.02
109478.02
109478.02
109478.02
109478.02
109478.02
109478.02
109478.02
109478.02
109478.02
109478.02
109478.02
109478.02
109478.02
109478.02
109478.02
109478.02
109478.02
109478.02
109478.02
109478.02
109478.02
109478.02
109478.02
109478.02
109478.02
109478.02
109478.02
109478.02
109478.02
109478.02
109478.03
109478.03
109478.03
109478.03
109478.03
109478.03
109478.03
109478.03
109478.03
109478.03
109478.03
109478.03
109478.03
109478.03
109478.03
109478.03
109478.03
109478.03
109478.03
109478.03
109478.03
109478.03
109478.03
109478.04
109478.04
109478.04
109478.04
109478.04
109478.04
109478.04
109478.04
109478.04
109478.04
109478.04
109478.04
109478.04
109478.04
109478.04
109478.04
109478.04
109478.04
109478.04
109478.04
109478.04
109478.04
109478.05
109478.05
109478.05
109478.05
109478.05
109478.05
109478.05
109478.05
109478.05
109478.05
109478.05
109478.05
109478.05
109478.05
109478.05
109478.05
109478.05
109478.05
109478.05
109478.06
109478.06
109478.06
109478.06
109478.06
109478.06
109478.06
109478.06
109478.06
109478.06
109478.06
109478.06
109478.06
109478.06
109478.06
109478.06
109478.06
109478.06
109478.06
109478.06
109478.06
109478.06
109478.06
109478.06
109478.06
109478.06
109478.06
109478.06
109478.07
109478.07
109478.07
109478.07
109478.07
109478.07
109478.07
109478.07
109478.07
109478.07
109478.07
109478.07
109478.07
109478.07
109478.07
109478.07
109478.07
109478.06
109478.06
109478.06
109478.06
109478.06
109478.06
109478.06
109478.06
109478.06
109478.06
109478.06
109478.06
109478.06
109478.06
109478.06
109478.06
109478.06
109478.06
109478.06
109478.06
109478.06
109478.06
109478.06
109478.06
109478.06
109478.06
109478.06
109478.06
109478.06
109478.06
109478.06
109478.06
109478.06
109478.06
109478.06
109478.06
109478.06
109478.06
109478.06
109478.06
109478.06
109478.06
109478.06
109478.06
109478.06
109478.06
109478.06
109478.06
109478.06
109478.06
109478.06
109478.06
109478.06
109478.06
109478.06
109478.06
109478.06
109478.06
109478.06
109478.06
109478.06
109478.06
109478.06
109478.06
109478.06
109478.06
109478.06
109478.06
109478.06
109478.06
109478.06
109478.06
109478.06
109478.06
109478.06
109478.06
109478.06
109478.06
109478.06
109478.06
109478.06
109478.06
109478.06
109478.06
109478.06
109478.06
109478.06
109478.06
109478.06
109478.06
109478.06
109478.06
109478.06
109478.06
109478.06
109478.06
109478.06
109478.06
109478.06
109478.06
109478.06
109478.06
109478.06
109478.06
109478.06
109478.06
109478.06
109478.06
109478.06
109478.06
109478.06
109478.06
109478.06
109478.06
109478.06
109478.06
109478.06
109478.06
109478.06
109478.06
109478.06
109478.07
109478.07
109478.07
109478.07
109478.07
109478.07
109478.07
109478.07
109478.07
109478.07
109478.07
109478.07
109478.07
109478.07
109478.07
109478.07
109478.07
109478.07
109478.07
109478.07
109478.07
109478.07
109478.07
109478.07
109478.07
109478.07
109478.07
109478.07
109478.07
109478.07
109478.07
109478.07
109478.07
109478.07
109478.07
109478.07
109478.07
109478.07
109478.07
109478.07
109478.07
109478.07
109478.07
109478.07
109478.07
109478.07
109478.07
109478.07
109478.07
109478.07
109478.07
109478.07
109478.07
109478.07
109478.07
109478.07
109478.07
109478.07
109478.07
109478.07
109478.07
109478.07
109478.07
109478.07
109478.07
109478.07
109478.07
109478.07
109478.07
109478.07
109478.07
109478.07
109478.07
109478.07
109478.07
109478.07
109478.07
109478.07
109478.07
109478.07
109478.07
109478.07
109478.07
109478.07
109478.07
109478.07
109478.07
109478.07
109478.07
109478.07
109478.07
109478.07
109478.07
109478.07
109478.07
109478.07
109478.07
109478.07
109478.07
109478.07
109478.07
109478.07
109478.07
109478.07
109478.07
109478.07
109478.07
109478.07
109478.07
109478.07
109478.07
109478.07
109478.07
109478.07
109478.07
109478.07
109478.07
109478.07
109478.07
109478.07
109478.07
109478.07
109478.07
109478.07
109478.07
109478.07
109478.07
109478.07
109478.07
109478.07
109478.07
109478.07
109478.07
109478.07
109478.07
109478.07
109478.07
109478.07
109478.07
109478.07
109478.07
109478.07
109478.07
109478.07
109478.07
109478.07
109478.07
109478.07
109478.07
109478.07
109478.07
109478.07
109478.07
109478.07
109478.07
109478.08
109478.08
109478.08
109478.08
109478.07
109478.07
109478.07
109478.06
109478.06
109478.06
109478.06
109478.06
109478.06
109478.07
109478.08
109478.09
109478.1
109478.1
109478.1
109478.1
109478.09
109478.07
109478.05
109478.03
109478.01
109478
109477.99
109477.99
109478.01
109478.08
109478.26
109477.93
109478.08
109478.12
109478.12
109478.12
109478.12
109478.11
109478.1
109478.09
109478.08
109478.07
109478.06
109478.06
109478.06
109478.06
109478.06
109478.06
109478.07
109478.07
109478.07
109478.07
109478.08
109478.08
109478.07
109478.07
109478.07
109478.07
109478.07
109478.07
109478.07
109478.07
109478.07
109478.07
109478.07
109478.07
109478.07
109478.07
109478.07
109478.07
109478.07
109478.07
109478.07
109478.07
109478.07
109478.07
109478.07
109478.07
109478.07
109478.07
109478.07
109478.07
109478.07
109478.07
109478.07
109478.07
109478.07
109478.07
109478.07
109478.07
109478.07
109478.07
109478.07
109478.07
109478.07
109478.07
109478.07
109478.07
109478.07
109478.07
109478.07
109478.07
109478.07
109478.07
109478.07
109478.07
109478.07
109478.07
109478.07
109478.07
109478.07
109478.07
109478.07
109478.07
109478.07
109478.07
109478.07
109478.07
109478.07
109478.07
109478.07
109478.07
109478.07
109478.07
109478.07
109478.07
109478.07
109478.07
109478.07
109478.07
109478.07
109478.07
109478.07
109478.07
109478.07
109478.07
109478.07
109478.07
109478.07
109478.07
109478.07
109478.07
109478.07
109478.07
109478.07
109478.07
109478.07
109478.07
109478.07
109478.07
109478.07
109478.07
109478.07
109478.07
109478.07
109478.07
109478.07
109478.07
109478.07
109478.07
109478.07
109478.07
109478.07
109478.07
109478.07
109478.07
109478.07
109478.07
109478.07
109478.07
109478.07
109478.07
109478.07
109478.07
109478.07
109478.07
109478.07
109478.07
109478.07
109478.07
109478.07
109478.07
109478.07
109478.07
109478.07
109478.07
109478.07
109478.07
109478.07
109478.07
109478.07
109478.07
109478.07
109478.07
109478.07
109478.07
109478.07
109478.07
109478.07
109478.07
109478.07
109478.07
109478.07
109478.07
109478.07
109478.07
109478.07
109478.07
109478.07
109478.07
109478.07
109478.07
109478.07
109478.07
109478.07
109478.07
109478.07
109478.07
109478.07
109478.07
109478.07
109478.07
109478.07
109478.07
109478.07
109478.07
109478.07
109478.07
109478.07
109478.07
109478.07
109478.07
109478.07
109478.07
109478.07
109478.07
109478.07
109478.07
109478.07
109478.07
109478.07
109478.07
109478.07
109478.07
109478.07
109478.07
109478.07
109478.07
109478.07
109478.07
109478.07
109478.07
109478.07
109478.07
109478.07
109478.07
109478.06
109478.06
109478.06
109478.06
109478.06
109478.06
109478.06
109478.06
109478.06
109478.06
109478.06
109478.06
109478.06
109478.06
109478.06
109478.06
109478.06
109478.06
109478.06
109478.06
109478.06
109478.06
109478.06
109478.06
109478.06
109478.06
109478.06
109478.06
109478.06
109478.06
109478.06
109478.06
109478.06
109478.06
109478.06
109478.06
109478.06
109478.06
109478.06
109478.06
109478.06
109478.06
109478.06
109478.06
109478.06
109478.06
109478.06
109478.06
109478.06
109478.06
109478.06
109478.06
109478.06
109478.06
109478.06
109478.06
109478.06
109478.06
109478.06
109478.06
109478.06
109478.06
109478.06
109478.06
109478.06
109478.06
109478.06
109478.06
109478.06
109478.06
109478.06
109478.06
109478.06
109478.06
109478.06
109478.06
109478.06
109478.06
109478.06
109478.06
109478.06
109478.06
109478.06
109478.06
109478.06
109478.06
109478.06
109478.06
109478.06
109478.06
109478.06
109478.06
109478.06
109478.06
109478.06
109478.06
109478.06
109478.06
109478.06
109478.06
109478.06
109478.06
109478.06
109478.06
109478.06
109478.06
109478.06
109478.06
109478.06
109478.06
109478.06
109478.06
109478.06
109478.06
109478.06
109478.06
109478.06
109478.06
109478.06
109478.06
109478.06
109478.06
109478.06
109478.06
109478.06