/*--------------------------------*- C++ -*----------------------------------*\
  =========                 |
  \\      /  F ield         | OpenFOAM: The Open Source CFD Toolbox
   \\    /   O peration     | Website:  https://openfoam.org
    \\  /    A nd           | Version:  7
     \\/     M anipulation  |
\*---------------------------------------------------------------------------*/
FoamFile
{
    version     2.0;
    format      ascii;
    class       surfaceScalarField;
    location    "0.00086";
    object      phi;
}
// * * * * * * * * * * * * * * * * * * * * * * * * * * * * * * * * * * * * * //

dimensions      [1 0 -1 0 0 0 0];

internalField   nonuniform List<scalar> 
4999
(
1.4210855e-14
7.1054274e-15
7.1054274e-15
2.1316282e-14
1.4210855e-14
1.4210855e-14
-2.1316282e-14
-7.1054274e-15
1.4199496e-29
7.1054274e-15
0
1.4210855e-14
1.4210855e-14
1.4210855e-14
2.1316282e-14
3.5527137e-14
4.2632564e-14
4.9737992e-14
5.6843419e-14
2.8421709e-14
4.2632564e-14
6.3948846e-14
2.8421709e-14
3.5527137e-14
4.9737992e-14
2.8421709e-14
4.9737992e-14
4.9737992e-14
4.2632564e-14
2.1316282e-14
4.2632564e-14
6.3948846e-14
7.8159701e-14
8.5265128e-14
7.8159701e-14
9.2370556e-14
9.2370556e-14
9.9475983e-14
1.0658141e-13
7.8159701e-14
9.2370556e-14
7.8159701e-14
1.1368684e-13
9.9475983e-14
9.9475983e-14
1.4921397e-13
1.2789769e-13
1.0658141e-13
1.0658141e-13
1.2079227e-13
1.1368684e-13
9.2370556e-14
1.1368684e-13
1.1368684e-13
1.2079227e-13
9.9475983e-14
1.1368684e-13
1.0658141e-13
1.2079227e-13
1.1368684e-13
9.2370556e-14
7.8159701e-14
9.2370556e-14
9.9475983e-14
9.9475983e-14
1.0658141e-13
9.2370556e-14
1.1368684e-13
1.2789769e-13
1.2789769e-13
1.2789769e-13
1.2789769e-13
1.4210855e-13
1.1368684e-13
1.1368684e-13
1.2079227e-13
1.2079227e-13
9.2370556e-14
7.1054274e-14
7.8159701e-14
9.2370556e-14
9.9475983e-14
7.8159701e-14
7.1054274e-14
9.2370556e-14
8.5265128e-14
9.2370556e-14
7.1054274e-14
7.1054274e-14
7.8159701e-14
3.5527137e-14
3.5527137e-14
7.1054274e-14
6.3948846e-14
7.1054274e-14
7.1054274e-14
7.1054274e-14
6.3948846e-14
8.5265128e-14
6.3948846e-14
6.3948846e-14
6.3948846e-14
4.9737992e-14
4.9737992e-14
3.5527137e-14
4.9737992e-14
5.6843419e-14
0
-7.1054274e-15
3.5527137e-14
4.2632564e-14
2.8421709e-14
5.6843419e-14
5.6843419e-14
7.1054274e-14
5.6843419e-14
4.9737992e-14
5.6843419e-14
2.8421709e-14
3.5527137e-14
1.4210855e-14
1.4210855e-14
4.2632564e-14
3.5527137e-14
5.6843419e-14
2.8421709e-14
3.5527137e-14
3.5527137e-14
2.1316282e-14
2.8421709e-14
3.5527137e-14
3.5527137e-14
4.2632564e-14
5.6843419e-14
4.9737992e-14
3.5527137e-14
4.2632564e-14
3.5527137e-14
2.8421709e-14
2.8421709e-14
1.4210855e-14
-1.5777218e-30
1.4210855e-14
7.1054274e-15
0
7.1054274e-15
-2.8421709e-14
1.4210855e-14
2.8421709e-14
2.8421709e-14
2.8421709e-14
1.4210855e-14
7.1054274e-15
2.1316282e-14
2.1316282e-14
-1.4210855e-14
-2.1316282e-14
-2.1316282e-14
-1.4210855e-14
7.1054274e-15
3.5527137e-14
3.5527137e-14
3.5527137e-14
3.5527137e-14
3.5527137e-14
3.5527137e-14
3.5527137e-14
3.5527137e-14
2.8421709e-14
6.3948846e-14
7.1054274e-15
3.5527137e-14
4.2632564e-14
4.2632564e-14
2.1316282e-14
1.4210855e-14
7.1054274e-15
1.4210855e-14
2.1316282e-14
4.2632564e-14
2.8421709e-14
7.1054274e-15
-3.7865323e-29
2.1316282e-14
3.5527137e-14
2.8421709e-14
2.1316282e-14
7.1054274e-15
6.3108872e-30
1.4210855e-14
1.4210855e-14
2.1316282e-14
1.4210855e-14
2.8421709e-14
1.4210855e-14
4.2632564e-14
4.2632564e-14
7.1054274e-14
4.2632564e-14
5.6843419e-14
6.3948846e-14
6.3948846e-14
7.8159701e-14
4.9737992e-14
5.6843419e-14
5.6843419e-14
3.5527137e-14
4.9737992e-14
3.5527137e-14
3.5527137e-14
2.1316282e-14
2.8421709e-14
-7.1054274e-15
3.5527137e-14
3.5527137e-14
4.9737992e-14
2.8421709e-14
2.8421709e-14
4.9737992e-14
4.9737992e-14
4.9737992e-14
4.2632564e-14
4.2632564e-14
6.3948846e-14
4.9737992e-14
9.2370556e-14
1.2789769e-13
1.2079227e-13
1.0658141e-13
9.2370556e-14
7.8159701e-14
9.2370556e-14
1.0658141e-13
9.2370556e-14
8.5265128e-14
7.8159701e-14
9.2370556e-14
7.8159701e-14
7.8159701e-14
1.0658141e-13
8.5265128e-14
9.2370556e-14
7.8159701e-14
7.8159701e-14
7.1054274e-14
7.1054274e-14
5.6843419e-14
4.2632564e-14
4.2632564e-14
3.5527137e-14
2.1316282e-14
1.4210855e-14
-7.1054274e-15
-2.1316282e-14
3.5498741e-29
-7.1054274e-15
-2.8421709e-14
-3.5527137e-14
-4.9737992e-14
-3.5527137e-14
-5.6843419e-14
-6.3948846e-14
-9.2370556e-14
-8.5265128e-14
-5.6843419e-14
-9.2370556e-14
-7.1054274e-14
-6.3948846e-14
-7.1054274e-14
-7.1054274e-14
-4.2632564e-14
-4.9737992e-14
-2.8421709e-14
-5.6843419e-14
-6.3948846e-14
-4.9737992e-14
-2.1316282e-14
-2.1316282e-14
-2.1316282e-14
-7.1054274e-15
-3.5527137e-14
-4.2632564e-14
-2.8421709e-14
-7.1054274e-15
7.1054274e-15
2.1316282e-14
3.5527137e-14
3.5527137e-14
4.2632564e-14
4.2632564e-14
3.5527137e-14
4.2632564e-14
1.4210855e-14
3.5527137e-14
1.4210855e-14
1.4210855e-14
2.8421709e-14
4.2632564e-14
2.8421709e-14
1.4210855e-14
4.2632564e-14
4.2632564e-14
2.8421709e-14
4.9737992e-14
3.5527137e-14
2.1316282e-14
2.8421709e-14
4.2632564e-14
4.2632564e-14
2.8421709e-14
3.5527137e-14
7.1054274e-15
1.4210855e-14
2.1316282e-14
2.1316282e-14
7.1054274e-15
7.1054274e-15
7.1054274e-15
1.4210855e-14
6.3108872e-30
1.4210855e-14
-1.4210855e-14
1.4210855e-14
2.8421709e-14
-2.0510384e-29
-1.4210855e-14
-7.1054274e-15
-2.8421709e-14
2.3665827e-29
-2.1316282e-14
-4.2632564e-14
-4.2632564e-14
-2.1316282e-14
-2.1316282e-14
-7.1054274e-15
3.0027824e-43
-6.0055648e-43
-7.1054274e-15
1.5777218e-30
-2.1316282e-14
-1.4210855e-14
1.1862214e-29
-1.5777218e-30
2.1316282e-14
7.1054274e-15
1.4210855e-14
-7.1054274e-15
2.1316282e-14
-1.4210855e-14
-7.1054274e-15
8.2041534e-29
7.1054274e-15
1.4210855e-14
7.1054274e-15
1.4210855e-14
-7.8886091e-30
-7.8886091e-30
-7.1054274e-15
-1.2621774e-29
-2.1316282e-14
-2.8421709e-14
-2.8421709e-14
-2.8421709e-14
-2.1316282e-14
-7.1054274e-15
-4.2632564e-14
-4.9737992e-14
-2.8421709e-14
-3.5527137e-14
-8.5265128e-14
-6.3948846e-14
-6.3948846e-14
-8.5265128e-14
-7.8159701e-14
-7.1054274e-14
-7.8159701e-14
-8.5265128e-14
-7.1054274e-14
-6.3948846e-14
-7.8159701e-14
-6.3948846e-14
-9.2370556e-14
-7.1054274e-14
-8.5265128e-14
-6.3948846e-14
-4.9737992e-14
-6.3948846e-14
-8.5265128e-14
-7.8159701e-14
-9.9475983e-14
-1.1368684e-13
-1.0658141e-13
-9.2370556e-14
-7.8159701e-14
-6.3948846e-14
-7.8159701e-14
-9.2370556e-14
-9.2370556e-14
-9.9475983e-14
-1.1368684e-13
-1.2789769e-13
-1.3500312e-13
-1.3500312e-13
-1.2079227e-13
-1.1368684e-13
-9.9475983e-14
-1.2079227e-13
-1.0658141e-13
-1.0658141e-13
-1.1368684e-13
-1.2789769e-13
-1.3500312e-13
-1.4210855e-13
-1.2079227e-13
-1.2079227e-13
-1.4210855e-13
-1.3500312e-13
-1.4921397e-13
-1.4921397e-13
-1.563194e-13
-1.6342483e-13
-1.7053026e-13
-1.563194e-13
-1.4210855e-13
-1.563194e-13
-1.4921397e-13
-1.4921397e-13
-1.4210855e-13
-1.3500312e-13
-1.1368684e-13
-1.2079227e-13
-1.2079227e-13
-9.9475983e-14
-1.0658141e-13
-1.0658141e-13
-1.0658141e-13
-1.1368684e-13
-1.2079227e-13
-1.1368684e-13
-1.1368684e-13
-1.2079227e-13
-9.9475983e-14
-7.8159701e-14
-5.6843419e-14
-4.9737992e-14
-6.3948846e-14
-8.5265128e-14
-9.2370556e-14
-9.9475983e-14
-9.9475983e-14
-9.2370556e-14
-9.2370556e-14
-1.2079227e-13
-1.1368684e-13
-9.9475983e-14
-9.9475983e-14
-1.1368684e-13
-9.2370556e-14
-4.9737992e-14
-8.5265128e-14
-7.8159701e-14
-8.5265128e-14
-1.0658141e-13
-9.9475983e-14
-8.5265128e-14
-7.8159701e-14
-7.1054274e-14
-9.9475983e-14
-9.2370556e-14
-9.2370556e-14
-8.5265128e-14
-9.2370556e-14
-1.1368684e-13
-1.0658141e-13
-1.2079227e-13
-1.2079227e-13
-8.5265128e-14
-1.2789769e-13
-1.3500312e-13
-1.2079227e-13
-1.563194e-13
-1.4210855e-13
-1.563194e-13
-1.2079227e-13
-1.1368684e-13
-1.2789769e-13
-1.2789769e-13
-1.3500312e-13
-1.3500312e-13
-1.4210855e-13
-1.2079227e-13
-9.2370556e-14
-8.5265128e-14
-9.9475983e-14
-1.1368684e-13
-9.2370556e-14
-7.8159701e-14
-6.3948846e-14
-8.5265128e-14
-5.6843419e-14
-3.5527137e-14
-2.8421709e-14
-2.8421709e-14
-3.5527137e-14
-2.1316282e-14
-2.8421709e-14
-2.1316282e-14
-7.1054274e-15
1.4210855e-14
3.5527137e-14
2.1316282e-14
3.5527137e-14
2.8421709e-14
3.5527137e-14
3.5527137e-14
4.2632564e-14
4.9737992e-14
4.9737992e-14
2.8421709e-14
4.2632564e-14
3.5527137e-14
3.5527137e-14
2.8421709e-14
1.4210855e-14
7.1054274e-15
7.1054274e-15
2.1316282e-14
2.1316282e-14
7.1054274e-15
2.1316282e-14
-3.6287602e-29
-1.4210855e-14
1.2621774e-29
4.7331654e-30
7.1054274e-15
2.1316282e-14
2.1316282e-14
4.2632564e-14
3.5527137e-14
4.2632564e-14
4.9737992e-14
5.6843419e-14
4.2632564e-14
5.6843419e-14
6.3948846e-14
1.0658141e-13
1.0658141e-13
1.2789769e-13
1.6342483e-13
1.7763568e-13
1.9895197e-13
2.2737368e-13
2.344791e-13
2.5579538e-13
3.0553338e-13
3.3395509e-13
3.7658765e-13
3.9790393e-13
4.2632564e-13
4.4764192e-13
5.186962e-13
5.4711791e-13
5.968559e-13
6.8212103e-13
7.8159701e-13
8.7396756e-13
9.5212727e-13
1.0373924e-12
1.1652901e-12
1.2931878e-12
1.4068746e-12
1.5702994e-12
1.7479351e-12
1.9326762e-12
2.1387336e-12
2.3732127e-12
2.6290081e-12
2.9203306e-12
3.225864e-12
3.5669245e-12
3.907985e-12
4.3485215e-12
4.8174797e-12
5.3361759e-12
5.8903993e-12
6.5156769e-12
7.1693762e-12
7.9367624e-12
8.7538865e-12
9.6633812e-12
1.064393e-11
1.171685e-11
1.2910562e-11
1.4232171e-11
1.5688784e-11
1.7301716e-11
1.9049651e-11
2.0961011e-11
2.3064217e-11
2.5366376e-11
2.7903013e-11
3.0716762e-11
3.3764991e-11
3.7118753e-11
4.0770942e-11
4.4828141e-11
4.9240612e-11
5.4107829e-11
5.94369e-11
6.526335e-11
7.1679551e-11
7.8678397e-11
8.6345153e-11
9.4786401e-11
1.0402346e-10
1.1413448e-10
1.2519763e-10
1.3726975e-10
1.5051427e-10
1.6499513e-10
1.8084023e-10
1.9818458e-10
2.1712765e-10
2.3786839e-10
2.6054181e-10
2.8528291e-10
3.1235459e-10
3.4193448e-10
3.7422865e-10
4.095142e-10
4.4805404e-10
4.901537e-10
5.3606186e-10
5.8618355e-10
6.4093086e-10
7.0059514e-10
7.6572348e-10
8.3674934e-10
9.1419849e-10
9.9862518e-10
1.0906902e-09
1.191033e-09
1.30035e-09
1.4194654e-09
1.5492247e-09
1.6905659e-09
1.8444695e-09
2.0120439e-09
2.1944473e-09
2.3929516e-09
2.6089282e-09
2.8439118e-09
3.0995011e-09
3.3774441e-09
3.6796735e-09
4.0082639e-09
4.3653756e-09
4.7534883e-09
5.175167e-09
5.6332539e-09
6.1307972e-09
6.6710797e-09
7.2576682e-09
7.8944424e-09
8.5855234e-09
9.3354728e-09
1.0149087e-08
1.1031617e-08
1.198876e-08
1.3026586e-08
1.4151702e-08
1.5371171e-08
1.6692766e-08
1.8124688e-08
1.967588e-08
2.1355966e-08
2.3175311e-08
2.5145091e-08
2.7277331e-08
2.9584967e-08
3.2081999e-08
3.4783433e-08
3.7705476e-08
4.086548e-08
4.4282267e-08
4.7975895e-08
5.1968144e-08
5.6282225e-08
6.0943279e-08
6.5978242e-08
7.141599e-08
7.7287709e-08
8.3626766e-08
9.0469058e-08
9.7853089e-08
1.0582023e-07
1.1441485e-07
1.2368464e-07
1.3368064e-07
1.4445772e-07
1.560746e-07
1.6859429e-07
1.8208434e-07
1.9661719e-07
2.1227032e-07
2.2912685e-07
2.4727571e-07
2.668122e-07
2.8783827e-07
3.1046304e-07
3.3480337e-07
3.6098412e-07
3.8913893e-07
4.1941067e-07
4.5195213e-07
4.8692653e-07
5.2450836e-07
5.6488401e-07
6.0825258e-07
6.5482667e-07
7.0483329e-07
7.5851472e-07
8.1612952e-07
8.7795358e-07
9.4428113e-07
1.0154261e-06
1.0917229e-06
1.1735285e-06
1.2612227e-06
1.3552107e-06
1.4559238e-06
1.5638215e-06
1.679393e-06
1.8031592e-06
1.935674e-06
2.0775274e-06
2.2293466e-06
2.3917987e-06
2.565593e-06
2.7514836e-06
2.9502719e-06
3.1628093e-06
3.3900004e-06
3.6328057e-06
3.8922452e-06
4.1694015e-06
4.4654237e-06
4.7815308e-06
5.1190161e-06
5.4792511e-06
5.8636897e-06
6.2738734e-06
6.7114354e-06
7.1781065e-06
7.6757197e-06
8.2062162e-06
8.7716512e-06
9.3742001e-06
1.0016165e-05
1.069998e-05
1.1428223e-05
1.2203616e-05
1.302904e-05
1.3907536e-05
1.4842322e-05
1.5836794e-05
1.6894538e-05
1.8019344e-05
1.921521e-05
2.0486355e-05
2.1837231e-05
2.3272534e-05
2.4797215e-05
2.6416495e-05
2.8135876e-05
2.9961156e-05
3.1898443e-05
3.3954167e-05
3.6135103e-05
3.8448378e-05
4.0901495e-05
4.3502346e-05
4.6259232e-05
4.9180884e-05
5.2276477e-05
5.5555656e-05
5.9028554e-05
6.2705815e-05
6.6598616e-05
7.0718693e-05
7.5078361e-05
7.9690545e-05
8.4568801e-05
8.9727347e-05
9.5181088e-05
0.00010094565
0.0001070374
0.00011347349
0.00012027189
0.0001274514
0.00013503169
0.00014303338
0.00015147801
0.0001603881
0.00016978723
0.00017970003
0.00019015222
0.00020117068
0.00021278351
0.00022501999
0.00023791074
0.00025148767
0.00026578409
0.00028083472
0.00029667576
0.00031334496
0.00033088162
0.00034932671
0.00036872285
0.00038911445
0.0004105477
0.00043307066
0.00045673333
0.00048158767
0.00050768771
0.00053508959
0.00056385162
0.00059403435
0.00062570067
0.0006589158
0.00069374744
0.0007302658
0.00076854368
0.00080865653
0.00085068253
0.00089470267
0.00094080082
0.00098906378
0.0010395814
0.0010924467
0.0011477556
0.0012056077
0.0012661056
0.0013293553
0.0013954666
0.0014645525
0.0015367299
0.0016121192
0.0016908447
0.0017730345
0.0018588207
0.0019483394
0.0020417308
0.0021391392
0.0022407131
0.0023466053
0.0024569732
0.0025719782
0.0026917866
0.002816569
0.0029465008
0.003081762
0.0032225372
0.003369016
0.0035213928
0.0036798669
0.0038446424
0.0040159286
0.0041939397
0.0043788951
0.004571019
0.004770541
0.0049776958
0.0051927232
0.0054158683
0.0056473814
0.0058875179
0.0061365386
0.0063947092
0.0066623011
0.0069395906
0.0072268591
0.0075243935
0.0078324856
0.0081514323
0.0084815358
0.0088231031
0.0091764463
0.0095418824
0.0099197333
0.010310326
0.010713991
0.011131065
0.011561889
0.012006807
0.01246617
0.01294033
0.013429647
0.01393448
0.014455197
0.014992168
0.015545764
0.016116364
0.016704346
0.017310095
0.017933996
0.018576439
0.019237815
0.019918519
0.020618948
0.021339499
0.022080574
0.022842575
0.023625906
0.024430972
0.025258179
0.026107934
0.026980645
0.027876719
0.028796566
0.029740593
0.030709208
0.031702817
0.032721829
0.033766646
0.034837675
0.035935317
0.037059972
0.038212039
0.039391914
0.04059999
0.041836659
0.043102306
0.044397318
0.045722072
0.047076947
0.048462314
0.049878541
0.051325991
0.052805022
0.054315987
0.055859234
0.057435104
0.059043933
0.06068605
0.06236178
0.064071437
0.065815333
0.06759377
0.069407043
0.071255439
0.07313924
0.075058717
0.077014134
0.079005746
0.081033802
0.08309854
0.085200189
0.08733897
0.089515095
0.091728767
0.093980177
0.09626951
0.09859694
0.10096263
0.10336673
0.10580939
0.10829075
0.11081091
0.11337001
0.11596814
0.11860539
0.12128185
0.12399759
0.12675266
0.12954713
0.13238102
0.13525437
0.1381672
0.14111952
0.14411131
0.14714257
0.15021328
0.1533234
0.15647288
0.15966167
0.1628897
0.16615689
0.16946317
0.17280843
0.17619256
0.17961544
0.18307695
0.18657695
0.1901153
0.19369183
0.19730637
0.20095875
0.20464879
0.20837628
0.21214102
0.2159428
0.2197814
0.22365657
0.22756808
0.23151568
0.23549911
0.23951811
0.24357239
0.24766167
0.25178566
0.25594407
0.26013658
0.26436288
0.26862265
0.27291556
0.27724127
0.28159943
0.2859897
0.29041172
0.29486512
0.29934954
0.30386459
0.3084099
0.31298507
0.31758971
0.32222342
0.32688579
0.33157641
0.33629486
0.34104072
0.34581357
0.35061297
0.35543848
0.36028966
0.36516606
0.37006724
0.37499274
0.3799421
0.38491486
0.38991054
0.39492868
0.3999688
0.40503043
0.41011308
0.41521627
0.42033951
0.4254823
0.43064416
0.43582457
0.44102305
0.44623909
0.45147219
0.45672183
0.4619875
0.46726869
0.47256488
0.47787555
0.48320019
0.48853827
0.49388927
0.49925265
0.50462789
0.51001446
0.51541182
0.52081945
0.5262368
0.53166334
0.53709853
0.54254182
0.54799268
0.55345056
0.55891492
0.5643852
0.56986087
0.57534137
0.58082616
0.58631468
0.59180637
0.5973007
0.60279709
0.60829501
0.61379388
0.61929316
0.62479228
0.6302907
0.63578784
0.64128315
0.64677606
0.65226603
0.65775247
0.66323484
0.66871255
0.67418506
0.67965179
0.68511219
0.69056568
0.69601171
0.7014497
0.7068791
0.71229933
0.71770984
0.72311005
0.7284994
0.73387733
0.73924327
0.74459665
0.74993692
0.7552635
0.76057583
0.76587336
0.77115551
0.77642172
0.78167144
0.7869041
0.79211915
0.79731602
0.80249416
0.80765301
0.81279201
0.81791062
0.82300829
0.82808445
0.83313857
0.8381701
0.84317849
0.8481632
0.8531237
0.85805943
0.86296988
0.86785451
0.87271278
0.87754418
0.88234818
0.88712427
0.89187192
0.89659063
0.90127988
0.90593918
0.91056803
0.91516593
0.91973239
0.92426693
0.92876907
0.93323834
0.93767427
0.94207639
0.94644425
0.95077741
0.95507541
0.95933783
0.96356424
0.96775421
0.97190732
0.97602319
0.9801014
0.98414158
0.98814333
0.99210629
0.9960301
0.9999144
1.0037589
1.0075631
1.0113269
1.0150499
1.0187317
1.0223722
1.0259709
1.0295278
1.0330424
1.0365145
1.0399441
1.0433307
1.0466742
1.0499744
1.0532312
1.0564444
1.0596138
1.0627393
1.0658207
1.068858
1.0718511
1.0747999
1.0777043
1.0805643
1.0833798
1.0861509
1.0888775
1.0915596
1.0941974
1.0967907
1.0993397
1.1018445
1.1043052
1.1067218
1.1090945
1.1114234
1.1137087
1.1159505
1.1181491
1.1203046
1.1224173
1.1244874
1.1265151
1.1285007
1.1304445
1.1323468
1.1342079
1.1360281
1.1378077
1.139547
1.1412466
1.1429066
1.1445276
1.1461098
1.1476538
1.1491599
1.1506286
1.1520603
1.1534554
1.1548145
1.156138
1.1574263
1.1586801
1.1598997
1.1610857
1.1622386
1.1633589
1.1644471
1.1655039
1.1665296
1.1675249
1.1684902
1.1694262
1.1703335
1.1712124
1.1720637
1.1728878
1.1736853
1.1744569
1.175203
1.1759241
1.176621
1.177294
1.1779438
1.178571
1.179176
1.1797595
1.1803219
1.1808638
1.1813858
1.1818883
1.182372
1.1828373
1.1832846
1.1837147
1.1841279
1.1845247
1.1849057
1.1852712
1.1856219
1.1859581
1.1862804
1.186589
1.1868847
1.1871676
1.1874383
1.1876972
1.1879447
1.1881812
1.1884071
1.1886227
1.1888285
1.1890248
1.189212
1.1893904
1.1895603
1.1897222
1.1898762
1.1900227
1.190162
1.1902945
1.1904203
1.1905398
1.1906533
1.1907609
1.190863
1.1909597
1.1910514
1.1911383
1.1912205
1.1912983
1.1913718
1.1914414
1.1915071
1.1915692
1.1916278
1.1916831
1.1917352
1.1917844
1.1918307
1.1918743
1.1919154
1.1919541
1.1919904
1.1920246
1.1920567
1.1920868
1.1921151
1.1921416
1.1921665
1.1921898
1.1922117
1.1922321
1.1922513
1.1922692
1.1922859
1.1923015
1.1923161
1.1923297
1.1923424
1.1923542
1.1923652
1.1923755
1.192385
1.1923938
1.1924021
1.1924097
1.1924168
1.1924233
1.1924294
1.192435
1.1924402
1.192445
1.1924494
1.1924535
1.1924572
1.1924607
1.1924639
1.1924668
1.1924695
1.1924719
1.1924742
1.1924763
1.1924782
1.19248
1.1924816
1.1924831
1.1924845
1.1924857
1.1924869
1.1924881
1.1924891
1.1924902
1.1924912
1.1924922
1.1924933
1.1924943
1.1924954
1.1924966
1.1924978
1.192499
1.1925002
1.1925014
1.1925027
1.1925038
1.192505
1.1925062
1.1925072
1.1925082
1.1925092
1.1925101
1.1925109
1.1925116
1.1925122
1.1925126
1.192513
1.1925133
1.1925135
1.1925136
1.1925138
1.1925142
1.1925145
1.1925149
1.1925155
1.1925162
1.1925167
1.1925172
1.192518
1.1925189
1.1925197
1.1925204
1.1925214
1.1925224
1.1925233
1.1925242
1.1925251
1.192526
1.1925269
1.1925278
1.1925286
1.1925295
1.1925304
1.1925313
1.1925321
1.1925329
1.1925337
1.1925344
1.1925351
1.1925359
1.1925366
1.1925372
1.1925378
1.1925384
1.192539
1.1925396
1.19254
1.1925405
1.1925411
1.1925416
1.1925421
1.1925425
1.1925432
1.1925438
1.1925445
1.192545
1.1925456
1.1925462
1.1925469
1.1925475
1.1925482
1.1925488
1.1925495
1.1925501
1.1925507
1.1925512
1.1925518
1.1925524
1.1925529
1.1925533
1.1925538
1.1925543
1.1925548
1.1925552
1.1925557
1.1925562
1.1925567
1.192557
1.1925574
1.1925578
1.1925583
1.1925588
1.1925592
1.1925596
1.1925602
1.1925608
1.1925613
1.1925618
1.1925624
1.192563
1.1925635
1.192564
1.1925645
1.192565
1.1925655
1.192566
1.1925665
1.1925669
1.1925674
1.1925678
1.1925682
1.1925685
1.1925689
1.1925693
1.1925696
1.19257
1.1925703
1.1925706
1.1925709
1.1925712
1.1925714
1.1925716
1.1925718
1.192572
1.1925721
1.1925722
1.1925722
1.1925721
1.1925721
1.192572
1.1925719
1.1925717
1.1925716
1.1925715
1.1925714
1.1925715
1.1925718
1.1925722
1.1925725
1.1925729
1.1925732
1.1925737
1.1925742
1.1925747
1.1925751
1.1925754
1.1925758
1.192576
1.1925762
1.1925763
1.1925763
1.1925763
1.1925764
1.1925765
1.1925765
1.1925766
1.1925766
1.1925767
1.1925768
1.192577
1.1925772
1.1925776
1.1925778
1.1925781
1.1925783
1.1925785
1.1925788
1.192579
1.1925793
1.1925795
1.1925797
1.1925798
1.19258
1.1925801
1.1925803
1.1925804
1.1925805
1.1925805
1.1925806
1.1925807
1.1925807
1.1925807
1.1925808
1.1925808
1.1925808
1.1925808
1.1925808
1.1925808
1.1925808
1.1925809
1.1925809
1.1925809
1.1925808
1.1925808
1.1925808
1.1925808
1.1925807
1.1925807
1.1925807
1.1925806
1.1925805
1.1925805
1.1925803
1.1925802
1.1925801
1.19258
1.1925799
1.1925797
1.1925796
1.1925794
1.1925792
1.192579
1.1925788
1.1925786
1.1925784
1.1925781
1.1925779
1.1925776
1.1925774
1.1925772
1.1925769
1.1925767
1.1925764
1.1925762
1.1925759
1.1925757
1.1925754
1.1925751
1.1925749
1.1925746
1.1925744
1.1925742
1.1925739
1.1925737
1.1925735
1.1925733
1.1925731
1.1925729
1.1925727
1.1925726
1.1925725
1.1925723
1.1925722
1.1925721
1.192572
1.1925719
1.1925719
1.1925718
1.1925718
1.1925717
1.1925717
1.1925716
1.1925716
1.1925715
1.1925715
1.1925714
1.1925714
1.1925713
1.1925712
1.1925711
1.192571
1.1925709
1.1925708
1.1925707
1.1925706
1.1925704
1.1925703
1.1925702
1.19257
1.1925699
1.1925697
1.1925696
1.1925694
1.1925693
1.1925691
1.1925689
1.1925688
1.1925686
1.1925685
1.1925683
1.1925682
1.192568
1.1925678
1.1925677
1.1925675
1.1925674
1.1925672
1.192567
1.1925668
1.1925667
1.1925665
1.1925663
1.1925661
1.192566
1.1925658
1.1925656
1.1925654
1.1925652
1.192565
1.1925649
1.1925647
1.1925645
1.1925643
1.1925642
1.192564
1.1925638
1.1925637
1.1925635
1.1925633
1.1925632
1.192563
1.1925629
1.1925628
1.1925626
1.1925625
1.1925623
1.1925622
1.1925621
1.1925619
1.1925618
1.1925617
1.1925615
1.1925614
1.1925613
1.1925612
1.192561
1.1925609
1.1925608
1.1925606
1.1925605
1.1925603
1.1925602
1.19256
1.1925599
1.1925597
1.1925596
1.1925594
1.1925593
1.1925591
1.192559
1.1925588
1.1925586
1.1925585
1.1925583
1.1925581
1.1925579
1.1925578
1.1925576
1.1925574
1.1925572
1.192557
1.1925569
1.1925567
1.1925565
1.1925563
1.1925562
1.192556
1.1925558
1.1925556
1.1925555
1.1925553
1.1925551
1.192555
1.1925548
1.1925546
1.1925545
1.1925543
1.1925542
1.192554
1.1925539
1.1925537
1.1925536
1.1925535
1.1925533
1.1925532
1.1925531
1.1925529
1.1925528
1.1925527
1.1925526
1.1925525
1.1925524
1.1925522
1.1925521
1.192552
1.1925519
1.1925518
1.1925517
1.1925516
1.1925514
1.1925513
1.1925512
1.1925511
1.192551
1.1925509
1.1925508
1.1925506
1.1925505
1.1925504
1.1925503
1.1925502
1.19255
1.1925499
1.1925498
1.1925496
1.1925495
1.1925494
1.1925492
1.1925491
1.1925489
1.1925488
1.1925487
1.1925485
1.1925484
1.1925482
1.1925481
1.1925479
1.1925478
1.1925476
1.1925475
1.1925474
1.1925472
1.1925471
1.1925469
1.1925468
1.1925466
1.1925465
1.1925463
1.1925462
1.192546
1.1925459
1.1925457
1.1925456
1.1925455
1.1925453
1.1925452
1.1925451
1.1925449
1.1925448
1.1925447
1.1925445
1.1925444
1.1925443
1.1925441
1.192544
1.1925439
1.1925438
1.1925437
1.1925436
1.1925435
1.1925434
1.1925433
1.1925431
1.1925431
1.192543
1.1925429
1.1925428
1.1925427
1.1925426
1.1925425
1.1925424
1.1925423
1.1925422
1.1925421
1.1925421
1.192542
1.1925419
1.1925418
1.1925417
1.1925416
1.1925415
1.1925415
1.1925414
1.1925413
1.1925412
1.1925411
1.192541
1.192541
1.1925409
1.1925408
1.1925407
1.1925406
1.1925406
1.1925405
1.1925404
1.1925403
1.1925402
1.1925401
1.19254
1.1925399
1.1925398
1.1925398
1.1925397
1.1925396
1.1925396
1.1925395
1.1925394
1.1925393
1.1925392
1.1925391
1.1925391
1.192539
1.1925389
1.1925388
1.1925387
1.1925387
1.1925386
1.1925385
1.1925384
1.1925383
1.1925382
1.1925381
1.192538
1.192538
1.1925379
1.1925378
1.1925377
1.1925376
1.1925375
1.1925374
1.1925373
1.1925372
1.1925371
1.192537
1.1925369
1.1925368
1.1925367
1.1925366
1.1925365
1.1925364
1.1925363
1.1925362
1.1925361
1.1925359
1.1925358
1.1925357
1.1925356
1.1925354
1.1925353
1.1925352
1.192535
1.1925349
1.1925347
1.1925346
1.1925345
1.1925343
1.1925342
1.192534
1.1925339
1.1925337
1.1925336
1.1925334
1.1925333
1.1925331
1.192533
1.1925328
1.1925327
1.1925325
1.1925323
1.1925322
1.192532
1.1925319
1.1925317
1.1925316
1.1925314
1.1925313
1.1925311
1.192531
1.1925308
1.1925307
1.1925305
1.1925304
1.1925302
1.1925301
1.1925299
1.1925298
1.1925296
1.1925295
1.1925293
1.1925292
1.1925291
1.1925289
1.1925288
1.1925287
1.1925285
1.1925284
1.1925283
1.1925281
1.192528
1.1925279
1.1925277
1.1925276
1.1925275
1.1925274
1.1925272
1.1925271
1.192527
1.1925269
1.1925268
1.1925267
1.1925266
1.1925264
1.1925263
1.1925262
1.1925261
1.192526
1.1925259
1.1925258
1.1925257
1.1925256
1.1925254
1.1925253
1.1925252
1.1925251
1.192525
1.1925249
1.1925248
1.1925246
1.1925245
1.1925244
1.1925243
1.1925242
1.1925241
1.192524
1.1925239
1.1925238
1.1925237
1.1925236
1.1925235
1.1925233
1.1925232
1.1925231
1.192523
1.1925229
1.1925228
1.1925227
1.1925226
1.1925225
1.1925224
1.1925223
1.1925222
1.1925221
1.192522
1.1925219
1.1925218
1.1925217
1.1925216
1.1925215
1.1925214
1.1925213
1.1925212
1.1925211
1.192521
1.1925209
1.1925208
1.1925207
1.1925207
1.1925206
1.1925205
1.1925204
1.1925203
1.1925202
1.1925202
1.1925201
1.19252
1.1925199
1.1925198
1.1925197
1.1925197
1.1925196
1.1925195
1.1925194
1.1925194
1.1925193
1.1925192
1.1925191
1.1925191
1.192519
1.1925189
1.1925188
1.1925187
1.1925187
1.1925186
1.1925185
1.1925184
1.1925183
1.1925182
1.1925182
1.1925181
1.192518
1.1925179
1.1925178
1.1925177
1.1925176
1.1925175
1.1925174
1.1925173
1.1925172
1.1925171
1.192517
1.1925169
1.1925168
1.1925167
1.1925166
1.1925165
1.1925164
1.1925163
1.1925162
1.1925161
1.192516
1.1925159
1.1925158
1.1925157
1.1925156
1.1925155
1.1925154
1.1925153
1.1925152
1.1925151
1.1925149
1.1925148
1.1925147
1.1925146
1.1925145
1.1925144
1.1925143
1.1925142
1.1925141
1.192514
1.1925139
1.1925138
1.1925137
1.1925136
1.1925135
1.1925134
1.1925133
1.1925132
1.1925131
1.192513
1.1925129
1.1925128
1.1925127
1.1925126
1.1925125
1.1925124
1.1925123
1.1925123
1.1925122
1.1925121
1.192512
1.1925119
1.1925118
1.1925117
1.1925116
1.1925115
1.1925114
1.1925113
1.1925112
1.1925111
1.1925111
1.192511
1.1925109
1.1925108
1.1925107
1.1925106
1.1925105
1.1925104
1.1925104
1.1925103
1.1925102
1.1925101
1.19251
1.1925099
1.1925099
1.1925098
1.1925097
1.1925096
1.1925095
1.1925094
1.1925094
1.1925093
1.1925092
1.1925091
1.192509
1.1925089
1.1925088
1.1925088
1.1925087
1.1925086
1.1925085
1.1925084
1.1925084
1.1925083
1.1925082
1.1925081
1.192508
1.1925079
1.1925078
1.1925077
1.1925076
1.1925076
1.1925075
1.1925074
1.1925073
1.1925072
1.1925071
1.192507
1.1925069
1.1925068
1.1925067
1.1925066
1.1925065
1.1925064
1.1925063
1.1925062
1.1925061
1.192506
1.1925059
1.1925058
1.1925057
1.1925056
1.1925055
1.1925054
1.1925053
1.1925051
1.192505
1.1925049
1.1925048
1.1925047
1.1925046
1.1925044
1.1925043
1.1925042
1.1925041
1.192504
1.1925039
1.1925037
1.1925036
1.1925035
1.1925034
1.1925033
1.1925031
1.192503
1.1925029
1.1925027
1.1925026
1.1925025
1.1925024
1.1925022
1.1925021
1.192502
1.1925019
1.1925018
1.1925016
1.1925015
1.1925014
1.1925012
1.1925011
1.192501
1.1925008
1.1925007
1.1925006
1.1925005
1.1925003
1.1925002
1.1925001
1.1924999
1.1924998
1.1924997
1.1924996
1.1924994
1.1924993
1.1924992
1.1924991
1.1924989
1.1924988
1.1924987
1.1924986
1.1924984
1.1924983
1.1924982
1.1924981
1.1924979
1.1924978
1.1924977
1.1924976
1.1924974
1.1924973
1.1924972
1.1924971
1.1924969
1.1924968
1.1924967
1.1924966
1.1924965
1.1924963
1.1924962
1.1924961
1.1924959
1.1924958
1.1924957
1.1924955
1.1924954
1.1924953
1.1924952
1.192495
1.1924949
1.1924948
1.1924947
1.1924946
1.1924944
1.1924943
1.1924942
1.1924941
1.1924939
1.1924938
1.1924937
1.1924935
1.1924934
1.1924933
1.1924931
1.192493
1.1924929
1.1924927
1.1924926
1.1924924
1.1924923
1.1924922
1.1924921
1.1924919
1.1924918
1.1924917
1.1924915
1.1924914
1.1924913
1.1924911
1.192491
1.1924908
1.1924907
1.1924906
1.1924904
1.1924903
1.1924902
1.19249
1.1924899
1.1924897
1.1924896
1.1924894
1.1924893
1.1924891
1.192489
1.1924889
1.1924887
1.1924886
1.1924884
1.1924883
1.1924881
1.192488
1.1924878
1.1924877
1.1924875
1.1924874
1.1924873
1.1924871
1.192487
1.1924868
1.1924867
1.1924866
1.1924864
1.1924863
1.1924861
1.192486
1.1924858
1.1924857
1.1924856
1.1924854
1.1924853
1.1924851
1.1924849
1.1924848
1.1924846
1.1924845
1.1924843
1.1924842
1.192484
1.1924839
1.1924838
1.1924836
1.1924835
1.1924833
1.1924832
1.192483
1.1924828
1.1924827
1.1924825
1.1924823
1.1924822
1.192482
1.1924818
1.1924817
1.1924815
1.1924814
1.1924812
1.1924811
1.1924809
1.1924808
1.1924806
1.1924805
1.1924803
1.1924801
1.1924799
1.1924797
1.1924796
1.1924794
1.1924792
1.1924791
1.1924789
1.1924787
1.1924785
1.1924783
1.1924781
1.1924779
1.1924777
1.1924776
1.1924774
1.1924772
1.192477
1.1924769
1.1924767
1.1924765
1.1924763
1.1924761
1.192476
1.1924758
1.1924756
1.1924754
1.1924752
1.1924749
1.1924747
1.1924745
1.1924743
1.1924741
1.1924739
1.1924737
1.1924735
1.1924732
1.192473
1.1924728
1.1924726
1.1924724
1.1924721
1.1924719
1.1924717
1.1924715
1.1924712
1.192471
1.1924707
1.1924705
1.1924703
1.19247
1.1924698
1.1924696
1.1924693
1.1924691
1.1924688
1.1924686
1.1924684
1.1924681
1.1924679
1.1924676
1.1924674
1.1924671
1.1924668
1.1924666
1.1924663
1.192466
1.1924658
1.1924655
1.1924652
1.1924649
1.1924647
1.1924644
1.1924641
1.1924638
1.1924636
1.1924633
1.192463
1.1924627
1.1924624
1.1924621
1.1924618
1.1924615
1.1924612
1.1924608
1.1924605
1.1924602
1.1924599
1.1924595
1.1924592
1.1924589
1.1924585
1.1924582
1.1924578
1.1924575
1.1924571
1.1924568
1.1924564
1.1924561
1.1924557
1.1924553
1.1924549
1.1924545
1.1924541
1.1924537
1.1924533
1.1924529
1.1924525
1.1924521
1.1924517
1.1924513
1.1924508
1.1924504
1.19245
1.1924495
1.1924491
1.1924487
1.1924482
1.1924478
1.1924473
1.1924468
1.1924463
1.1924458
1.1924453
1.1924448
1.1924443
1.1924437
1.1924432
1.1924427
1.1924422
1.1924416
1.1924411
1.1924406
1.1924401
1.1924396
1.192439
1.1924385
1.192438
1.1924374
1.1924369
1.1924363
1.1924358
1.1924352
1.1924347
1.1924341
1.1924336
1.1924332
1.1924327
1.1924323
1.1924319
1.1924315
1.1924312
1.1924308
1.1924305
1.1924303
1.19243
1.1924298
1.1924297
1.1924295
1.1924294
1.1924294
1.1924293
1.1924293
1.1924293
1.1924294
1.1924295
1.1924297
1.1924298
1.19243
1.1924301
1.1924302
1.1924302
1.1924303
1.1924302
1.1924302
1.1924302
1.1924301
1.1924299
1.1924295
1.1924289