/*--------------------------------*- C++ -*----------------------------------*\
  =========                 |
  \\      /  F ield         | OpenFOAM: The Open Source CFD Toolbox
   \\    /   O peration     | Website:  https://openfoam.org
    \\  /    A nd           | Version:  7
     \\/     M anipulation  |
\*---------------------------------------------------------------------------*/
FoamFile
{
    version     2.0;
    format      ascii;
    class       volScalarField;
    location    "0.00078";
    object      p;
}
// * * * * * * * * * * * * * * * * * * * * * * * * * * * * * * * * * * * * * //

dimensions      [1 -1 -2 0 0 0 0];

internalField   nonuniform List<scalar> 
5000
(
104578.69
104590.44
104602.44
104614.5
104626.6
104638.72
104650.85
104663
104675.15
104687.31
104699.48
104711.65
104723.82
104735.99
104748.16
104760.33
104772.49
104784.66
104796.82
104808.98
104821.14
104833.3
104845.46
104857.61
104869.76
104881.91
104894.05
104906.19
104918.32
104930.46
104942.58
104954.7
104966.81
104978.92
104991.02
105003.12
105015.21
105027.3
105039.38
105051.46
105063.54
105075.61
105087.69
105099.77
105111.86
105123.94
105136.04
105148.13
105160.24
105172.35
105184.47
105196.59
105208.72
105220.86
105233
105245.15
105257.3
105269.45
105281.61
105293.78
105305.94
105318.11
105330.28
105342.45
105354.62
105366.8
105378.97
105391.14
105403.31
105415.48
105427.65
105439.82
105451.99
105464.16
105476.33
105488.49
105500.66
105512.82
105524.98
105537.14
105549.3
105561.46
105573.61
105585.77
105597.92
105610.07
105622.22
105634.37
105646.52
105658.66
105670.81
105682.95
105695.09
105707.23
105719.37
105731.5
105743.64
105755.77
105767.9
105780.03
105792.16
105804.29
105816.42
105828.54
105840.66
105852.78
105864.9
105877.02
105889.14
105901.26
105913.37
105925.48
105937.59
105949.7
105961.81
105973.92
105986.03
105998.13
106010.23
106022.33
106034.43
106046.53
106058.63
106070.73
106082.82
106094.91
106107.01
106119.1
106131.19
106143.27
106155.36
106167.45
106179.53
106191.62
106203.7
106215.78
106227.86
106239.94
106252.02
106264.1
106276.18
106288.25
106300.33
106312.4
106324.48
106336.55
106348.62
106360.69
106372.75
106384.82
106396.88
106408.95
106421.01
106433.06
106445.12
106457.17
106469.22
106481.27
106493.31
106505.35
106517.39
106529.42
106541.45
106553.47
106565.49
106577.51
106589.51
106601.52
106613.52
106625.51
106637.5
106649.49
106661.47
106673.44
106685.41
106697.38
106709.34
106721.29
106733.24
106745.19
106757.13
106769.07
106781.01
106792.95
106804.88
106816.81
106828.74
106840.66
106852.59
106864.51
106876.44
106888.36
106900.29
106912.22
106924.14
106936.07
106948
106959.94
106971.87
106983.81
106995.75
107007.69
107019.64
107031.58
107043.54
107055.49
107067.45
107079.41
107091.37
107103.34
107115.31
107127.28
107139.26
107151.23
107163.22
107175.2
107187.18
107199.17
107211.16
107223.15
107235.15
107247.14
107259.14
107271.14
107283.14
107295.14
107307.14
107319.14
107331.14
107343.14
107355.15
107367.15
107379.15
107391.16
107403.16
107415.16
107427.16
107439.16
107451.17
107463.17
107475.17
107487.16
107499.16
107511.16
107523.16
107535.15
107547.15
107559.14
107571.13
107583.12
107595.11
107607.1
107619.09
107631.08
107643.06
107655.04
107667.03
107679.01
107690.99
107702.97
107714.94
107726.92
107738.89
107750.87
107762.84
107774.81
107786.78
107798.74
107810.71
107822.68
107834.64
107846.6
107858.56
107870.52
107882.48
107894.43
107906.39
107918.34
107930.3
107942.25
107954.2
107966.14
107978.09
107990.04
108001.98
108013.92
108025.86
108037.8
108049.74
108061.68
108073.62
108085.55
108097.48
108109.41
108121.34
108133.27
108145.2
108157.13
108169.05
108180.97
108192.9
108204.82
108216.74
108228.65
108240.57
108252.49
108264.4
108276.31
108288.22
108300.13
108312.04
108323.95
108335.85
108347.76
108359.66
108371.56
108383.46
108395.36
108407.26
108419.15
108431.05
108442.94
108454.83
108466.72
108478.61
108490.5
108502.39
108514.27
108526.15
108538.04
108549.92
108561.8
108573.67
108585.55
108597.43
108609.3
108621.17
108633.05
108644.92
108656.78
108668.65
108680.52
108692.38
108704.25
108716.11
108727.97
108739.83
108751.69
108763.54
108775.4
108787.25
108799.1
108810.96
108822.81
108834.65
108846.5
108858.35
108870.19
108882.04
108893.88
108905.72
108917.56
108929.4
108941.23
108953.07
108964.9
108976.73
108988.57
109000.4
109012.22
109024.05
109035.88
109047.7
109059.53
109071.35
109083.17
109094.99
109106.81
109118.62
109130.44
109142.25
109154.06
109165.88
109177.69
109189.5
109201.3
109213.11
109224.91
109236.72
109248.52
109260.32
109272.12
109283.92
109295.72
109307.51
109319.31
109331.1
109342.89
109354.68
109366.47
109378.26
109390.04
109401.83
109413.61
109425.4
109437.18
109448.96
109460.74
109472.51
109484.29
109496.06
109507.84
109519.61
109531.38
109543.15
109554.92
109566.69
109578.45
109590.22
109601.98
109613.74
109625.5
109637.26
109649.02
109660.78
109672.53
109684.29
109696.04
109707.79
109719.54
109731.29
109743.04
109754.78
109766.53
109778.27
109790.02
109801.76
109813.5
109825.24
109836.97
109848.71
109860.44
109872.18
109883.91
109895.64
109907.37
109919.1
109930.83
109942.55
109954.28
109966
109977.72
109989.44
110001.16
110012.88
110024.6
110036.32
110048.03
110059.74
110071.46
110083.17
110094.88
110106.58
110118.29
110130
110141.7
110153.4
110165.11
110176.81
110188.51
110200.2
110211.9
110223.6
110235.29
110246.98
110258.68
110270.37
110282.06
110293.74
110305.43
110317.12
110328.8
110340.48
110352.17
110363.85
110375.53
110387.2
110398.88
110410.56
110422.23
110433.9
110445.58
110457.25
110468.92
110480.58
110492.25
110503.92
110515.58
110527.24
110538.91
110550.57
110562.23
110573.88
110585.54
110597.2
110608.85
110620.5
110632.16
110643.81
110655.46
110667.11
110678.75
110690.4
110702.04
110713.69
110725.33
110736.97
110748.61
110760.25
110771.88
110783.52
110795.16
110806.79
110818.42
110830.05
110841.68
110853.31
110864.94
110876.56
110888.19
110899.81
110911.44
110923.06
110934.68
110946.3
110957.91
110969.53
110981.15
110992.76
111004.37
111015.98
111027.59
111039.2
111050.81
111062.42
111074.02
111085.63
111097.23
111108.83
111120.43
111132.03
111143.63
111155.23
111166.82
111178.42
111190.01
111201.6
111213.19
111224.78
111236.37
111247.96
111259.55
111271.13
111282.71
111294.3
111305.88
111317.46
111329.04
111340.62
111352.19
111363.77
111375.34
111386.91
111398.49
111410.06
111421.63
111433.19
111444.76
111456.33
111467.89
111479.46
111491.02
111502.58
111514.14
111525.7
111537.26
111548.82
111560.37
111571.93
111583.48
111595.03
111606.58
111618.13
111629.68
111641.23
111652.78
111664.32
111675.87
111687.41
111698.96
111710.5
111722.04
111733.58
111745.12
111756.66
111768.19
111779.73
111791.26
111802.8
111814.33
111825.86
111837.39
111848.92
111860.45
111871.98
111883.51
111895.03
111906.56
111918.08
111929.61
111941.13
111952.65
111964.17
111975.69
111987.21
111998.73
112010.25
112021.77
112033.28
112044.8
112056.31
112067.83
112079.34
112090.85
112102.36
112113.87
112125.38
112136.89
112148.4
112159.91
112171.42
112182.92
112194.43
112205.93
112217.44
112228.94
112240.44
112251.95
112263.45
112274.95
112286.45
112297.95
112309.45
112320.94
112332.44
112343.94
112355.44
112366.93
112378.43
112389.92
112401.41
112412.91
112424.4
112435.89
112447.38
112458.87
112470.36
112481.85
112493.34
112504.83
112516.32
112527.8
112539.29
112550.77
112562.26
112573.74
112585.23
112596.71
112608.19
112619.68
112631.16
112642.64
112654.12
112665.6
112677.08
112688.56
112700.03
112711.51
112722.99
112734.47
112745.94
112757.42
112768.89
112780.37
112791.84
112803.31
112814.78
112826.26
112837.73
112849.2
112860.67
112872.14
112883.61
112895.08
112906.54
112918.01
112929.48
112940.95
112952.41
112963.88
112975.34
112986.81
112998.27
113009.73
113021.2
113032.66
113044.12
113055.58
113067.04
113078.5
113089.96
113101.42
113112.88
113124.34
113135.8
113147.25
113158.71
113170.17
113181.62
113193.08
113204.53
113215.99
113227.44
113238.89
113250.35
113261.8
113273.25
113284.7
113296.15
113307.6
113319.05
113330.5
113341.95
113353.4
113364.84
113376.29
113387.74
113399.18
113410.63
113422.07
113433.52
113444.96
113456.4
113467.85
113479.29
113490.73
113502.17
113513.61
113525.05
113536.49
113547.93
113559.37
113570.8
113582.24
113593.68
113605.11
113616.55
113627.98
113639.41
113650.85
113662.28
113673.71
113685.14
113696.57
113708
113719.43
113730.86
113742.28
113753.71
113765.13
113776.56
113787.98
113799.41
113810.83
113822.25
113833.67
113845.09
113856.51
113867.93
113879.35
113890.76
113902.18
113913.59
113925.01
113936.42
113947.83
113959.24
113970.65
113982.06
113993.47
114004.88
114016.28
114027.69
114039.09
114050.5
114061.9
114073.3
114084.7
114096.1
114107.5
114118.89
114130.29
114141.68
114153.08
114164.47
114175.86
114187.25
114198.64
114210.03
114221.42
114232.81
114244.19
114255.57
114266.96
114278.34
114289.72
114301.1
114312.48
114323.85
114335.23
114346.61
114357.98
114369.35
114380.72
114392.09
114403.46
114414.83
114426.2
114437.56
114448.92
114460.29
114471.65
114483.01
114494.37
114505.73
114517.08
114528.44
114539.79
114551.15
114562.5
114573.85
114585.2
114596.55
114607.89
114619.24
114630.58
114641.93
114653.27
114664.61
114675.95
114687.29
114698.62
114709.96
114721.29
114732.63
114743.96
114755.29
114766.62
114777.95
114789.28
114800.6
114811.93
114823.25
114834.57
114845.89
114857.21
114868.53
114879.85
114891.16
114902.48
114913.79
114925.1
114936.41
114947.72
114959.03
114970.34
114981.64
114992.94
115004.25
115015.55
115026.85
115038.15
115049.45
115060.74
115072.04
115083.33
115094.62
115105.91
115117.2
115128.49
115139.77
115151.06
115162.34
115173.63
115184.91
115196.18
115207.46
115218.74
115230.01
115241.29
115252.56
115263.83
115275.09
115286.36
115297.63
115308.89
115320.15
115331.41
115342.67
115353.92
115365.17
115376.43
115387.68
115398.92
115410.17
115421.41
115432.65
115443.89
115455.13
115466.36
115477.59
115488.82
115500.05
115511.27
115522.49
115533.71
115544.92
115556.13
115567.34
115578.55
115589.75
115600.95
115612.14
115623.33
115634.52
115645.7
115656.87
115668.05
115679.21
115690.38
115701.53
115712.69
115723.83
115734.97
115746.11
115757.24
115768.36
115779.47
115790.58
115801.68
115812.77
115823.86
115834.93
115846
115857.06
115868.1
115879.14
115890.17
115901.18
115912.19
115923.18
115934.16
115945.13
115956.08
115967.02
115977.94
115988.85
115999.75
116010.62
116021.48
116032.32
116043.14
116053.94
116064.72
116075.48
116086.22
116096.93
116107.62
116118.28
116128.92
116139.53
116150.11
116160.66
116171.19
116181.67
116192.13
116202.55
116212.94
116223.28
116233.59
116243.86
116254.09
116264.27
116274.41
116284.5
116294.54
116304.54
116314.48
116324.37
116334.2
116343.97
116353.69
116363.34
116372.93
116382.45
116391.91
116401.29
116410.6
116419.84
116428.99
116438.07
116447.06
116455.97
116464.79
116473.52
116482.16
116490.7
116499.14
116507.47
116515.7
116523.83
116531.84
116539.73
116547.51
116555.17
116562.7
116570.1
116577.37
116584.5
116591.5
116598.36
116605.06
116611.62
116618.03
116624.27
116630.36
116636.28
116642.03
116647.61
116653.01
116658.24
116663.27
116668.12
116672.78
116677.23
116681.49
116685.54
116689.38
116693.01
116696.42
116699.6
116702.56
116705.29
116707.79
116710.04
116712.06
116713.82
116715.33
116716.59
116717.59
116718.32
116718.78
116718.97
116718.89
116718.52
116717.87
116716.92
116715.69
116714.16
116712.33
116710.19
116707.75
116704.99
116701.92
116698.53
116694.81
116690.77
116686.4
116681.7
116676.66
116671.28
116665.55
116659.49
116653.07
116646.3
116639.18
116631.69
116623.85
116615.65
116607.08
116598.15
116588.84
116579.16
116569.11
116558.69
116547.88
116536.7
116525.13
116513.19
116500.86
116488.14
116475.04
116461.55
116447.67
116433.4
116418.74
116403.69
116388.25
116372.42
116356.2
116339.58
116322.57
116305.17
116287.38
116269.2
116250.62
116231.65
116212.3
116192.55
116172.41
116151.89
116130.98
116109.68
116088
116065.94
116043.49
116020.67
115997.46
115973.88
115949.93
115925.6
115900.9
115875.84
115850.4
115824.61
115798.45
115771.93
115745.06
115717.83
115690.26
115662.33
115634.06
115605.45
115576.51
115547.22
115517.61
115487.66
115457.4
115426.81
115395.9
115364.68
115333.15
115301.31
115269.17
115236.73
115204
115170.98
115137.67
115104.08
115070.21
115036.07
115001.66
114966.99
114932.05
114896.86
114861.42
114825.74
114789.81
114753.65
114717.25
114680.63
114643.78
114606.72
114569.45
114531.97
114494.29
114456.41
114418.34
114380.08
114341.64
114303.02
114264.24
114225.29
114186.17
114146.9
114107.49
114067.92
114028.22
113988.39
113948.43
113908.34
113868.14
113827.83
113787.41
113746.89
113706.27
113665.57
113624.78
113583.92
113542.98
113501.98
113460.92
113419.8
113378.63
113337.42
113296.17
113254.89
113213.58
113172.25
113130.91
113089.56
113048.21
113006.86
112965.52
112924.19
112882.89
112841.61
112800.36
112759.15
112717.99
112676.88
112635.82
112594.82
112553.89
112513.04
112472.26
112431.58
112390.98
112350.48
112310.08
112269.79
112229.62
112189.57
112149.64
112109.85
112070.2
112030.69
111991.33
111952.12
111913.08
111874.21
111835.51
111796.98
111758.65
111720.5
111682.55
111644.8
111607.26
111569.93
111532.82
111495.93
111459.27
111422.85
111386.67
111350.73
111315.05
111279.62
111244.45
111209.54
111174.91
111140.56
111106.49
111072.7
111039.21
111006.01
110973.11
110940.52
110908.24
110876.27
110844.62
110813.3
110782.3
110751.63
110721.3
110691.31
110661.66
110632.36
110603.4
110574.81
110546.57
110518.69
110491.17
110464.02
110437.24
110410.83
110384.8
110359.14
110333.87
110308.97
110284.46
110260.34
110236.6
110213.25
110190.29
110167.72
110145.55
110123.77
110102.38
110081.39
110060.79
110040.59
110020.78
110001.37
109982.35
109963.73
109945.5
109927.66
109910.22
109893.17
109876.5
109860.22
109844.33
109828.82
109813.7
109798.95
109784.58
109770.59
109756.96
109743.71
109730.82
109718.29
109706.12
109694.3
109682.84
109671.73
109660.95
109650.52
109640.42
109630.65
109621.21
109612.09
109603.28
109594.78
109586.59
109578.71
109571.11
109563.81
109556.79
109550.05
109543.59
109537.39
109531.46
109525.78
109520.36
109515.18
109510.24
109505.53
109501.05
109496.79
109492.75
109488.92
109485.29
109481.86
109478.62
109475.57
109472.71
109470.01
109467.49
109465.13
109462.92
109460.87
109458.97
109457.21
109455.58
109454.09
109452.72
109451.47
109450.34
109449.32
109448.41
109447.6
109446.88
109446.25
109445.72
109445.27
109444.89
109444.59
109444.37
109444.21
109444.11
109444.07
109444.09
109444.16
109444.29
109444.45
109444.66
109444.91
109445.2
109445.52
109445.88
109446.26
109446.67
109447.11
109447.56
109448.04
109448.53
109449.04
109449.56
109450.1
109450.65
109451.2
109451.76
109452.33
109452.9
109453.48
109454.06
109454.64
109455.22
109455.79
109456.37
109456.94
109457.51
109458.07
109458.63
109459.19
109459.73
109460.27
109460.81
109461.33
109461.85
109462.36
109462.86
109463.35
109463.83
109464.3
109464.76
109465.22
109465.66
109466.09
109466.51
109466.92
109467.32
109467.72
109468.1
109468.47
109468.83
109469.18
109469.52
109469.85
109470.17
109470.49
109470.79
109471.08
109471.37
109471.64
109471.91
109472.17
109472.41
109472.65
109472.89
109473.11
109473.33
109473.54
109473.74
109473.93
109474.12
109474.3
109474.48
109474.64
109474.8
109474.96
109475.11
109475.25
109475.39
109475.52
109475.65
109475.77
109475.88
109475.99
109476.1
109476.2
109476.29
109476.38
109476.47
109476.55
109476.63
109476.7
109476.77
109476.84
109476.9
109476.96
109477.02
109477.07
109477.12
109477.17
109477.21
109477.25
109477.3
109477.33
109477.37
109477.4
109477.44
109477.47
109477.5
109477.53
109477.55
109477.58
109477.6
109477.62
109477.64
109477.66
109477.68
109477.7
109477.72
109477.73
109477.75
109477.76
109477.77
109477.79
109477.8
109477.81
109477.82
109477.83
109477.84
109477.84
109477.85
109477.86
109477.86
109477.87
109477.87
109477.87
109477.88
109477.88
109477.88
109477.89
109477.89
109477.89
109477.89
109477.89
109477.89
109477.89
109477.89
109477.89
109477.89
109477.89
109477.89
109477.89
109477.89
109477.89
109477.89
109477.89
109477.89
109477.89
109477.89
109477.89
109477.89
109477.89
109477.89
109477.89
109477.88
109477.88
109477.88
109477.88
109477.88
109477.88
109477.87
109477.87
109477.87
109477.87
109477.87
109477.86
109477.86
109477.86
109477.85
109477.85
109477.85
109477.85
109477.84
109477.84
109477.84
109477.83
109477.83
109477.83
109477.83
109477.82
109477.82
109477.82
109477.81
109477.81
109477.81
109477.8
109477.8
109477.8
109477.79
109477.79
109477.79
109477.79
109477.78
109477.78
109477.78
109477.78
109477.77
109477.77
109477.77
109477.77
109477.76
109477.76
109477.76
109477.76
109477.75
109477.75
109477.75
109477.75
109477.75
109477.75
109477.74
109477.74
109477.74
109477.74
109477.74
109477.74
109477.74
109477.74
109477.74
109477.73
109477.73
109477.73
109477.73
109477.73
109477.73
109477.73
109477.73
109477.73
109477.72
109477.72
109477.72
109477.72
109477.72
109477.72
109477.72
109477.71
109477.71
109477.71
109477.71
109477.7
109477.7
109477.7
109477.7
109477.7
109477.69
109477.69
109477.69
109477.69
109477.69
109477.69
109477.69
109477.69
109477.68
109477.68
109477.68
109477.68
109477.68
109477.68
109477.68
109477.68
109477.68
109477.68
109477.68
109477.68
109477.68
109477.67
109477.67
109477.67
109477.67
109477.67
109477.67
109477.67
109477.67
109477.66
109477.66
109477.66
109477.66
109477.66
109477.65
109477.65
109477.65
109477.65
109477.65
109477.65
109477.64
109477.64
109477.64
109477.64
109477.64
109477.64
109477.64
109477.64
109477.64
109477.64
109477.64
109477.63
109477.64
109477.64
109477.63
109477.63
109477.63
109477.63
109477.64
109477.64
109477.63
109477.63
109477.63
109477.63
109477.63
109477.63
109477.63
109477.63
109477.63
109477.63
109477.63
109477.63
109477.63
109477.63
109477.63
109477.63
109477.63
109477.63
109477.63
109477.63
109477.63
109477.63
109477.63
109477.62
109477.62
109477.62
109477.62
109477.62
109477.62
109477.62
109477.62
109477.62
109477.62
109477.62
109477.62
109477.62
109477.62
109477.62
109477.62
109477.61
109477.61
109477.61
109477.61
109477.61
109477.61
109477.61
109477.61
109477.61
109477.61
109477.61
109477.61
109477.61
109477.61
109477.61
109477.61
109477.61
109477.61
109477.61
109477.61
109477.61
109477.61
109477.61
109477.61
109477.61
109477.61
109477.61
109477.61
109477.61
109477.61
109477.61
109477.61
109477.61
109477.61
109477.61
109477.61
109477.61
109477.61
109477.61
109477.61
109477.61
109477.61
109477.61
109477.61
109477.61
109477.61
109477.61
109477.61
109477.61
109477.61
109477.61
109477.61
109477.61
109477.61
109477.61
109477.61
109477.61
109477.61
109477.61
109477.61
109477.61
109477.61
109477.61
109477.62
109477.62
109477.62
109477.62
109477.62
109477.63
109477.63
109477.63
109477.63
109477.63
109477.64
109477.64
109477.64
109477.64
109477.65
109477.65
109477.65
109477.65
109477.66
109477.66
109477.66
109477.66
109477.66
109477.67
109477.67
109477.67
109477.67
109477.67
109477.67
109477.67
109477.68
109477.68
109477.68
109477.68
109477.68
109477.68
109477.68
109477.68
109477.68
109477.68
109477.68
109477.68
109477.68
109477.69
109477.69
109477.69
109477.69
109477.69
109477.69
109477.69
109477.69
109477.69
109477.69
109477.69
109477.69
109477.69
109477.69
109477.69
109477.69
109477.7
109477.7
109477.7
109477.7
109477.7
109477.7
109477.7
109477.7
109477.71
109477.71
109477.71
109477.71
109477.71
109477.72
109477.72
109477.72
109477.72
109477.72
109477.72
109477.73
109477.73
109477.73
109477.73
109477.73
109477.74
109477.74
109477.74
109477.74
109477.74
109477.74
109477.75
109477.75
109477.75
109477.75
109477.75
109477.75
109477.75
109477.75
109477.76
109477.76
109477.76
109477.76
109477.76
109477.76
109477.76
109477.76
109477.76
109477.76
109477.76
109477.76
109477.76
109477.76
109477.76
109477.76
109477.76
109477.76
109477.77
109477.77
109477.77
109477.77
109477.77
109477.77
109477.77
109477.77
109477.77
109477.77
109477.77
109477.77
109477.77
109477.77
109477.77
109477.77
109477.77
109477.77
109477.77
109477.77
109477.77
109477.77
109477.77
109477.77
109477.77
109477.77
109477.77
109477.77
109477.77
109477.77
109477.77
109477.77
109477.77
109477.77
109477.77
109477.77
109477.77
109477.77
109477.77
109477.77
109477.77
109477.77
109477.77
109477.77
109477.77
109477.77
109477.77
109477.77
109477.77
109477.77
109477.77
109477.77
109477.77
109477.77
109477.77
109477.78
109477.78
109477.78
109477.78
109477.78
109477.78
109477.78
109477.78
109477.78
109477.78
109477.78
109477.78
109477.78
109477.78
109477.78
109477.79
109477.79
109477.79
109477.79
109477.79
109477.79
109477.79
109477.79
109477.79
109477.79
109477.79
109477.79
109477.79
109477.79
109477.79
109477.79
109477.8
109477.8
109477.8
109477.8
109477.8
109477.8
109477.8
109477.8
109477.8
109477.8
109477.8
109477.8
109477.8
109477.8
109477.8
109477.8
109477.8
109477.81
109477.81
109477.81
109477.81
109477.81
109477.81
109477.81
109477.81
109477.81
109477.81
109477.81
109477.81
109477.81
109477.81
109477.81
109477.82
109477.82
109477.82
109477.82
109477.82
109477.82
109477.82
109477.82
109477.82
109477.82
109477.82
109477.82
109477.82
109477.82
109477.82
109477.83
109477.83
109477.83
109477.83
109477.83
109477.83
109477.83
109477.83
109477.83
109477.83
109477.83
109477.83
109477.83
109477.83
109477.83
109477.83
109477.83
109477.83
109477.83
109477.83
109477.83
109477.84
109477.84
109477.84
109477.84
109477.84
109477.84
109477.84
109477.84
109477.84
109477.84
109477.84
109477.84
109477.84
109477.84
109477.84
109477.84
109477.84
109477.84
109477.84
109477.84
109477.84
109477.84
109477.84
109477.84
109477.84
109477.84
109477.84
109477.84
109477.84
109477.84
109477.84
109477.84
109477.85
109477.85
109477.85
109477.85
109477.85
109477.85
109477.85
109477.85
109477.85
109477.85
109477.85
109477.85
109477.85
109477.85
109477.85
109477.85
109477.85
109477.85
109477.85
109477.85
109477.85
109477.85
109477.85
109477.85
109477.85
109477.85
109477.85
109477.85
109477.85
109477.85
109477.85
109477.85
109477.85
109477.85
109477.85
109477.85
109477.85
109477.86
109477.86
109477.86
109477.86
109477.86
109477.86
109477.86
109477.86
109477.86
109477.86
109477.86
109477.86
109477.86
109477.86
109477.86
109477.86
109477.86
109477.86
109477.86
109477.86
109477.86
109477.86
109477.86
109477.86
109477.86
109477.86
109477.86
109477.86
109477.86
109477.86
109477.86
109477.86
109477.86
109477.86
109477.86
109477.86
109477.86
109477.86
109477.86
109477.86
109477.86
109477.86
109477.86
109477.86
109477.86
109477.87
109477.87
109477.87
109477.87
109477.87
109477.87
109477.87
109477.87
109477.87
109477.87
109477.87
109477.87
109477.87
109477.87
109477.87
109477.87
109477.87
109477.87
109477.87
109477.87
109477.87
109477.88
109477.88
109477.88
109477.88
109477.88
109477.88
109477.88
109477.88
109477.88
109477.88
109477.88
109477.88
109477.88
109477.88
109477.88
109477.88
109477.88
109477.88
109477.88
109477.88
109477.88
109477.88
109477.88
109477.88
109477.88
109477.88
109477.88
109477.88
109477.88
109477.88
109477.88
109477.88
109477.88
109477.88
109477.88
109477.88
109477.88
109477.88
109477.88
109477.88
109477.88
109477.88
109477.88
109477.88
109477.88
109477.88
109477.88
109477.88
109477.88
109477.88
109477.88
109477.89
109477.89
109477.89
109477.89
109477.89
109477.89
109477.89
109477.89
109477.89
109477.89
109477.89
109477.89
109477.89
109477.89
109477.89
109477.89
109477.89
109477.89
109477.89
109477.89
109477.89
109477.89
109477.89
109477.89
109477.89
109477.89
109477.89
109477.89
109477.89
109477.89
109477.89
109477.89
109477.89
109477.89
109477.89
109477.89
109477.89
109477.89
109477.89
109477.89
109477.89
109477.9
109477.9
109477.9
109477.9
109477.9
109477.9
109477.9
109477.9
109477.9
109477.9
109477.9
109477.9
109477.9
109477.9
109477.9
109477.9
109477.9
109477.9
109477.9
109477.9
109477.9
109477.9
109477.9
109477.9
109477.9
109477.9
109477.9
109477.9
109477.9
109477.9
109477.9
109477.9
109477.9
109477.9
109477.9
109477.9
109477.9
109477.91
109477.91
109477.91
109477.91
109477.91
109477.91
109477.91
109477.91
109477.91
109477.91
109477.91
109477.91
109477.91
109477.91
109477.91
109477.91
109477.91
109477.91
109477.91
109477.91
109477.91
109477.91
109477.91
109477.91
109477.91
109477.91
109477.91
109477.91
109477.91
109477.91
109477.91
109477.91
109477.91
109477.91
109477.91
109477.91
109477.91
109477.91
109477.91
109477.91
109477.91
109477.91
109477.91
109477.91
109477.91
109477.91
109477.91
109477.91
109477.91
109477.91
109477.91
109477.91
109477.91
109477.91
109477.91
109477.91
109477.91
109477.91
109477.91
109477.91
109477.91
109477.91
109477.91
109477.91
109477.91
109477.91
109477.91
109477.91
109477.91
109477.91
109477.91
109477.91
109477.91
109477.91
109477.91
109477.91
109477.91
109477.91
109477.91
109477.91
109477.91
109477.91
109477.91
109477.91
109477.91
109477.91
109477.91
109477.91
109477.91
109477.91
109477.91
109477.91
109477.91
109477.91
109477.91
109477.91
109477.91
109477.92
109477.92
109477.92
109477.92
109477.92
109477.92
109477.92
109477.92
109477.92
109477.92
109477.92
109477.92
109477.92
109477.92
109477.92
109477.92
109477.92
109477.92
109477.92
109477.92
109477.92
109477.92
109477.92
109477.92
109477.92
109477.92
109477.92
109477.92
109477.92
109477.92
109477.92
109477.92
109477.92
109477.92
109477.92
109477.92
109477.92
109477.92
109477.92
109477.92
109477.92
109477.92
109477.92
109477.92
109477.92
109477.92
109477.92
109477.92
109477.92
109477.92
109477.92
109477.92
109477.92
109477.92
109477.92
109477.92
109477.92
109477.92
109477.92
109477.92
109477.92
109477.92
109477.92
109477.92
109477.92
109477.92
109477.92
109477.92
109477.92
109477.92
109477.92
109477.92
109477.92
109477.92
109477.92
109477.92
109477.92
109477.92
109477.92
109477.92
109477.92
109477.92
109477.92
109477.92
109477.92
109477.92
109477.92
109477.92
109477.92
109477.92
109477.92
109477.92
109477.92
109477.92
109477.92
109477.92
109477.92
109477.92
109477.92
109477.92
109477.92
109477.92
109477.92
109477.92
109477.92
109477.92
109477.92
109477.92
109477.92
109477.92
109477.92
109477.92
109477.92
109477.92
109477.92
109477.92
109477.92
109477.92
109477.92
109477.92
109477.92
109477.93
109477.93
109477.93
109477.94
109477.94
109477.94
109477.93
109477.93
109477.92
109477.9
109477.89
109477.88
109477.87
109477.87
109477.88
109477.9
109477.94
109477.99
109478.05
109478.16
109477.71
109477.83
109477.88
109477.9
109477.92
109477.94
109477.95
109477.95
109477.95
109477.95
109477.94
109477.94
109477.93
109477.93
109477.92
109477.92
109477.92
109477.92
109477.92
109477.92
109477.92
109477.92
109477.93
109477.93
109477.93
109477.93
109477.93
109477.93
109477.93
109477.93
109477.93
109477.93
109477.93
109477.93
109477.93
109477.93
109477.93
109477.93
109477.93
109477.93
109477.93
109477.93
109477.93
109477.93
109477.93
109477.93
109477.93
109477.93
109477.93
109477.93
109477.93
109477.93
109477.93
109477.93
109477.93
109477.93
109477.93
109477.93
109477.93
109477.93
109477.93
109477.93
109477.93
109477.93
109477.93
109477.93
109477.93
109477.93
109477.93
109477.93
109477.93
109477.93
109477.93
109477.93
109477.93
109477.93
109477.93
109477.93
109477.93
109477.93
109477.93
109477.93
109477.93
109477.93
109477.93
109477.93
109477.93
109477.93
109477.93
109477.93
109477.93
109477.93
109477.93
109477.93
109477.93
109477.93
109477.93
109477.93
109477.93
109477.93
109477.93
109477.93
109477.93
109477.93
109477.93
109477.93
109477.93
109477.93
109477.93
109477.93
109477.93
109477.93
109477.93
109477.93
109477.93
109477.93
109477.93
109477.93
109477.93
109477.93
109477.93
109477.93
109477.93
109477.93
109477.93
109477.93
109477.93
109477.93
109477.93
109477.93
109477.93
109477.93
109477.93
109477.93
109477.93
109477.93
109477.93
109477.93
109477.93
109477.93
109477.93
109477.93
109477.93
109477.93
109477.93
109477.93
109477.93
109477.93
109477.93
109477.93
109477.93
109477.93
109477.93
109477.93
109477.93
109477.93
109477.93
109477.93
109477.93
109477.93
109477.93
109477.93
109477.93
109477.93
109477.93
109477.93
109477.93
109477.93
109477.93
109477.93
109477.93
109477.92
109477.92
109477.92
109477.92
109477.92
109477.92
109477.92
109477.92
109477.92
109477.92
109477.92
109477.92
109477.92
109477.92
109477.92
109477.92
109477.92
109477.92
109477.92
109477.92
109477.92
109477.92
109477.92
109477.92
109477.92
109477.92
109477.92
109477.92
109477.92
109477.92
109477.92
109477.92
109477.92
109477.92
109477.92
109477.92
109477.92
109477.92
109477.92
109477.92
109477.92
109477.92
109477.92
109477.92
109477.92
109477.92
109477.92
109477.92
109477.92
109477.92
109477.92
109477.92
109477.92
109477.92
109477.92
109477.92
109477.92
109477.92
109477.92
109477.92
109477.91
109477.91
109477.91
109477.91
109477.91
109477.91
109477.91
109477.91
109477.91
109477.91
109477.91
109477.91
109477.91
109477.91
109477.91
109477.91
109477.91
109477.91
109477.91
109477.91
109477.91
109477.91
109477.91
109477.91
109477.91
109477.91
109477.91
109477.91
109477.91
109477.91
109477.91
109477.91
109477.91
109477.91
109477.91
109477.91
109477.91
109477.91
109477.91
109477.91
109477.91
109477.91
109477.91
109477.91
109477.91
109477.91
109477.91
109477.91
109477.91
109477.91
109477.91
109477.91
109477.91
109477.91
109477.91
109477.91
109477.91
109477.91
109477.91
109477.91
109477.91
109477.91
109477.91
109477.91
109477.91
109477.91
109477.91
109477.91
109477.91
109477.91
109477.91
109477.91
109477.91
109477.91
109477.91
109477.91
109477.91
109477.91
109477.91
109477.91
109477.91
109477.91
109477.91
109477.91
109477.91
109477.91
109477.91
109477.91
109477.91
109477.91
109477.91
109477.91
109477.91
109477.91
109477.91
109477.91
109477.91
109477.91
109477.91
109477.91
109477.91
109477.91
109477.91
109477.91
109477.91
109477.91
109477.91
109477.91
109477.91
109477.91
109477.91
109477.91
109477.91
109477.91
109477.91
109477.91
109477.91
109477.91
109477.91
109477.91
109477.91
109477.91
109477.91
109477.91
109477.91
109477.91
109477.91
109477.91
109477.91
109477.91
109477.91
109477.91
109477.91
109477.91
109477.91
109477.91
109477.91
109477.91
109477.91
109477.91
109477.91
109477.91
109477.91