/*--------------------------------*- C++ -*----------------------------------*\
| =========                 |                                                 |
| \\      /  F ield         | OpenFOAM: The Open Source CFD Toolbox           |
|  \\    /   O peration     | Version:  4.x                                   |
|   \\  /    A nd           | Web:      www.OpenFOAM.org                      |
|    \\/     M anipulation  |                                                 |
\*---------------------------------------------------------------------------*/
FoamFile
{
    version     2.0;
    format      ascii;
    class       surfaceScalarField;
    location    "0.6";
    object      phi;
}
// * * * * * * * * * * * * * * * * * * * * * * * * * * * * * * * * * * * * * //

dimensions      [1 0 -1 0 0 0 0];

internalField   nonuniform List<scalar> 
18092
(
3.572862571e-10
2.801591013e-08
1.45974803e-07
-2.569989964e-15
2.801798494e-08
1.459504069e-07
-3.572887779e-10
2.801798556e-08
1.459504095e-07
-7.368994997e-10
2.801590614e-08
1.459748101e-07
-1.167741828e-09
2.80121354e-08
1.460298217e-07
-1.694944474e-09
2.800690341e-08
1.461314232e-07
-2.394554375e-09
2.80031493e-08
1.463075913e-07
2.799752669e-08
1.466201344e-07
-3.401088486e-09
3.54457231e-10
2.234727002e-08
1.796583569e-07
-1.086842418e-15
2.235307598e-08
1.796304688e-07
-3.54463581e-10
2.235307747e-08
1.796304705e-07
-7.330895659e-10
2.234727858e-08
1.796583653e-07
-1.167651959e-09
2.233602537e-08
1.797217915e-07
-1.710556983e-09
2.232040089e-08
1.798405332e-07
-2.449793346e-09
2.230316056e-08
1.800503511e-07
2.228917977e-08
1.804331516e-07
-3.563486665e-09
3.887339447e-10
1.36341563e-08
1.827390954e-07
1.72411638e-15
1.363784568e-08
1.827150636e-07
-3.887313913e-10
1.363785253e-08
1.827150664e-07
-8.036181085e-10
1.363417342e-08
1.827391026e-07
-1.277934787e-09
1.362777414e-08
1.827936833e-07
-1.864337596e-09
1.362126502e-08
1.828966639e-07
-2.650450233e-09
1.361876071e-08
1.830816281e-07
1.362940143e-08
1.834248909e-07
-3.804464167e-09
4.069968244e-10
8.40405255e-09
1.792730422e-07
8.740324174e-15
8.403990798e-09
1.792519511e-07
-4.069835788e-10
8.403997165e-09
1.792519523e-07
-8.388218394e-10
8.404070002e-09
1.792730461e-07
-1.327684478e-09
8.405417017e-09
1.793223315e-07
-1.925027814e-09
8.411021732e-09
1.794186937e-07
-2.716879286e-09
8.425278231e-09
1.795964319e-07
8.457106261e-09
1.799305973e-07
-3.864089793e-09
4.140441132e-10
5.405478469e-09
1.770472487e-07
1.533873698e-14
5.404057165e-09
1.770250753e-07
-4.14018675e-10
5.404061447e-09
1.770250757e-07
-8.515884977e-10
5.405492528e-09
1.770472499e-07
-1.343402672e-09
5.409536983e-09
1.77098794e-07
-1.938955856e-09
5.418957311e-09
1.771987148e-07
-2.721698769e-09
5.437591406e-09
1.773815251e-07
5.472132641e-09
1.777225842e-07
-3.848220352e-09
4.137669343e-10
1.757599233e-07
3.692460355e-09
2.005448545e-14
1.757383544e-07
3.690555395e-09
-4.137307245e-10
1.757383533e-07
3.690554548e-09
-8.495279667e-10
1.75759921e-07
3.692461174e-09
-1.336587076e-09
1.758103907e-07
3.697293634e-09
-1.922938516e-09
1.7590921e-07
3.707187907e-09
-2.690727483e-09
1.7609159e-07
3.724880938e-09
1.764347456e-07
3.754420732e-09
-3.796676504e-09
8.828319476e-10
2.822915104e-08
1.186643966e-07
3.661400634e-15
2.823925582e-08
1.185939651e-07
-8.828224219e-10
2.823925534e-08
1.185939701e-07
-1.801576698e-09
2.822914914e-08
1.186644131e-07
-2.798176749e-09
2.820775843e-08
1.188186696e-07
-3.927493338e-09
2.81719072e-08
1.19088845e-07
-5.270372971e-09
2.812087488e-08
1.195296067e-07
2.804145011e-08
1.202541678e-07
-6.94585522e-09
1.315557549e-09
3.069168704e-08
1.785670496e-07
7.603766984e-15
3.070187972e-08
1.784833753e-07
-1.315540807e-09
3.070188297e-08
1.784833798e-07
-2.686789546e-09
3.069169479e-08
1.785670614e-07
-4.179205356e-09
3.06703068e-08
1.787516597e-07
-5.879664313e-09
3.063506938e-08
1.790778373e-07
-7.908220679e-09
3.058206102e-08
1.796177199e-07
3.049902525e-08
1.805214097e-07
-1.045407169e-08
1.205810083e-09
2.426222017e-08
1.904258626e-07
9.251571408e-15
2.426860594e-08
1.903541244e-07
-1.205792626e-09
2.426861088e-08
1.903541263e-07
-2.463104411e-09
2.426223249e-08
1.904258683e-07
-3.834827384e-09
2.425018527e-08
1.905855292e-07
-5.40936598e-09
2.423317937e-08
1.908730903e-07
-7.315479691e-09
2.420827988e-08
1.913615111e-07
2.416206675e-08
1.922039832e-07
-9.757629177e-09
1.194633373e-09
1.766878755e-08
1.87110096e-07
1.463536159e-14
1.766984314e-08
1.870453261e-07
-1.194608361e-09
1.766984786e-08
1.870453269e-07
-2.4382376e-09
1.766879997e-08
1.871100981e-07
-3.790595256e-09
1.766786443e-08
1.872570001e-07
-5.336206955e-09
1.766888717e-08
1.875285884e-07
-7.202982354e-09
1.767101121e-08
1.88000466e-07
1.766562788e-08
1.888258771e-07
-9.601840923e-09
1.194958654e-09
1.280175408e-08
1.831588098e-07
1.947485686e-14
1.279924194e-08
1.830906114e-07
-1.194926307e-09
1.279924392e-08
1.830906106e-07
-2.43946323e-09
1.28017628e-08
1.831588069e-07
-3.793484227e-09
1.280796443e-08
1.833127026e-07
-5.341101524e-09
1.281979864e-08
1.835954102e-07
-7.208744022e-09
1.283749348e-08
1.840826718e-07
1.285591893e-08
1.849308525e-07
-9.607322268e-09
1.197206094e-09
1.802926743e-07
9.514644337e-09
2.207258427e-14
1.802238351e-07
9.510932319e-09
-1.197166954e-09
1.80223834e-07
9.510932237e-09
-2.442816108e-09
1.802926694e-07
9.514642797e-09
-3.795927487e-09
1.804485623e-07
9.522886374e-09
-5.340495232e-09
1.807362468e-07
9.537315457e-09
-7.204530806e-09
1.812345105e-07
9.558593934e-09
1.82106917e-07
9.583598597e-09
-9.604399804e-09
1.17507021e-09
2.499578163e-08
9.487917145e-08
1.082890202e-14
2.501049503e-08
9.475851815e-08
-1.175043461e-09
2.501049457e-08
9.475852193e-08
-2.385588554e-09
2.499577534e-08
9.487917671e-08
-3.67258836e-09
2.496568033e-08
9.513999073e-08
-5.087540725e-09
2.49183911e-08
9.558541145e-08
-6.707254507e-09
2.48586658e-08
9.629066181e-08
2.478091879e-08
9.739294819e-08
-8.626952155e-09
1.696498273e-09
3.292446079e-08
1.723990487e-07
1.494527141e-14
3.295849651e-08
1.722318412e-07
-1.696467851e-09
3.295849587e-08
1.722318442e-07
-3.457155055e-09
3.292445931e-08
1.723990569e-07
-5.356991706e-09
3.285810762e-08
1.727590676e-07
-7.488256867e-09
3.276522015e-08
1.733622782e-07
-9.981592366e-09
3.266916526e-08
1.743005583e-07
3.258925133e-08
1.757741096e-07
-1.304262301e-08
1.800533802e-09
3.002796302e-08
1.952111996e-07
8.266527332e-15
3.00658779e-08
1.950472549e-07
-1.800518049e-09
3.006588037e-08
1.950472577e-07
-3.689370295e-09
3.002796728e-08
1.952112058e-07
-5.75880256e-09
2.995761358e-08
1.955554554e-07
-8.105441755e-09
2.986724233e-08
1.961177123e-07
-1.085454321e-08
2.978840936e-08
1.969913789e-07
2.974837013e-08
1.984240632e-07
-1.423373593e-08
1.839614151e-09
2.402060005e-08
1.950326417e-07
7.402067636e-15
2.403640457e-08
1.949144007e-07
-1.839603383e-09
2.403640674e-08
1.949144019e-07
-3.754795329e-09
2.402060508e-08
1.950326457e-07
-5.830445744e-09
2.399273867e-08
1.952975293e-07
-8.170073326e-09
2.396041704e-08
1.95775053e-07
-1.091873275e-08
2.393818649e-08
1.965993627e-07
2.394344976e-08
1.980137449e-07
-1.430167181e-08
1.865289757e-09
1.835118741e-08
1.907603409e-07
4.600938144e-15
1.835552524e-08
1.90636768e-07
-1.865285506e-09
1.835552837e-08
1.906367688e-07
-3.797415257e-09
1.835119717e-08
1.907603422e-07
-5.874421923e-09
1.834559455e-08
1.910368593e-07
-8.197906227e-09
1.834472045e-08
1.915346021e-07
-1.091676066e-08
1.835684524e-08
1.923828824e-07
1.839049971e-08
1.938219284e-07
-1.425487828e-08
1.882058758e-09
1.865027089e-07
1.408424142e-08
5.233094371e-15
1.863784756e-07
1.408293331e-08
-1.882053151e-09
1.863784749e-07
1.408293555e-08
-3.825148161e-09
1.865027084e-07
1.408424909e-08
-5.902435589e-09
1.867823836e-07
1.408905921e-08
-8.212655839e-09
1.872895708e-07
1.410162582e-08
-1.090698706e-08
1.881593168e-07
1.412638085e-08
1.896373018e-07
1.416516768e-08
-1.421203978e-08
2.638426012e-09
1.836504032e-08
7.817339563e-08
1.304232199e-09
1.834381249e-08
7.786952571e-08
1.560605716e-14
1.833204743e-08
7.773068048e-08
-1.304205892e-09
1.833204638e-08
7.773068439e-08
-2.638387417e-09
1.834381222e-08
7.786953593e-08
-4.036845055e-09
1.83650247e-08
7.817341584e-08
-5.539491168e-09
1.838997837e-08
7.869808144e-08
-7.191628097e-09
1.841063285e-08
7.953217443e-08
1.843243729e-08
8.079822761e-08
-9.029334979e-09
4.247199017e-09
2.954081461e-08
1.638746371e-07
2.092405144e-09
2.946151919e-08
1.634361215e-07
1.897715375e-14
2.941907197e-08
1.632371837e-07
-2.092368631e-09
2.941907075e-08
1.632371874e-07
-4.247164647e-09
2.946151485e-08
1.634361307e-07
-6.538539389e-09
2.954080597e-08
1.638746541e-07
-9.075168515e-09
2.964610209e-08
1.646427901e-07
-1.197164194e-08
2.970542198e-08
1.659022567e-07
2.971426749e-08
1.678828965e-07
-1.536224738e-08
4.938085037e-09
3.070148598e-08
1.96965186e-07
2.454884625e-09
3.064832269e-08
1.965075913e-07
1.867381145e-14
3.062354223e-08
1.962976395e-07
-2.454851503e-09
3.062354143e-08
1.96297641e-07
-4.938059033e-09
3.064832221e-08
1.965075966e-07
-7.508474369e-09
3.070148459e-08
1.969651953e-07
-1.030589981e-08
3.079501727e-08
1.977662393e-07
-1.353983959e-08
3.086802515e-08
1.990627429e-07
3.090243297e-08
2.011075914e-07
-1.74115128e-08
5.013927633e-09
2.707289413e-08
2.015917126e-07
2.477991684e-09
2.707412677e-08
2.011427787e-07
8.090519222e-15
2.707858578e-08
2.009373341e-07
-2.477977917e-09
2.707858764e-08
2.009373345e-07
-5.013920037e-09
2.707412991e-08
2.011427788e-07
-7.679501779e-09
2.707289837e-08
2.015917091e-07
-1.057118531e-08
2.709056811e-08
2.023712134e-07
-1.385864564e-08
2.712629378e-08
2.03628588e-07
2.717740057e-08
2.056384914e-07
-1.775833458e-08
5.012011738e-09
2.211559641e-08
1.98671684e-07
2.473976321e-09
2.211353992e-08
1.982589664e-07
4.992210125e-15
2.211535236e-08
1.980739704e-07
-2.473969954e-09
2.21153544e-08
1.980739698e-07
-5.012010185e-09
2.211354918e-08
1.98258965e-07
-7.689526034e-09
2.211560865e-08
1.986716781e-07
-1.060449383e-08
2.213194982e-08
1.994082155e-07
-1.390131426e-08
2.216744542e-08
2.006385809e-07
2.222234894e-08
2.026539971e-07
-1.777830923e-08
5.043967321e-09
1.9399761e-07
1.758138876e-08
2.49254962e-09
1.935912228e-07
1.757645142e-08
4.616559602e-15
1.934103988e-07
1.75759647e-08
-2.492540382e-09
1.934103982e-07
1.757596798e-08
-5.043967222e-09
1.935912192e-07
1.75764583e-08
-7.724973816e-09
1.939976056e-07
1.75814007e-08
-1.063094966e-08
1.947300327e-07
1.759748339e-08
-1.390150234e-08
1.959681126e-07
1.762922137e-08
1.98015073e-07
1.767538245e-08
-1.773229204e-08
2.757861658e-09
1.277858262e-08
6.679030142e-08
1.376313198e-09
1.277567265e-08
6.647535628e-08
1.417817326e-14
1.277619545e-08
6.633076731e-08
-1.376292957e-09
1.277619503e-08
6.633077081e-08
-2.757825491e-09
1.277567226e-08
6.647536962e-08
-4.153323942e-09
1.277856504e-08
6.679033077e-08
-5.577193579e-09
1.279377765e-08
6.732817358e-08
-7.04982356e-09
1.283851404e-08
6.816629883e-08
1.2926667e-08
6.939207125e-08
-8.570323947e-09
4.938899626e-09
2.494312241e-08
1.542954171e-07
2.448523324e-09
2.49568801e-08
1.537452523e-07
2.728689687e-14
2.496709136e-08
1.534947509e-07
-2.448475014e-09
2.496708998e-08
1.534947565e-07
-4.938853487e-09
2.495687728e-08
1.537452706e-07
-7.524217968e-09
2.494311263e-08
1.542954603e-07
-1.027401624e-08
2.493661328e-08
1.55249758e-07
-1.327943909e-08
2.497468441e-08
1.567715276e-07
2.507877792e-08
1.590622374e-07
-1.661087578e-08
5.674415816e-09
2.93551726e-08
1.95555267e-07
2.807154873e-09
2.93514556e-08
1.949802542e-07
3.123108912e-14
2.935092079e-08
1.947209104e-07
-2.807096343e-09
2.935092091e-08
1.947209155e-07
-5.674361617e-09
2.935145403e-08
1.949802731e-07
-8.676517889e-09
2.935516106e-08
1.955553056e-07
-1.190293284e-08
2.9362748e-08
1.965665424e-07
-1.546120621e-08
2.939894788e-08
1.981967862e-07
2.948530504e-08
2.006749255e-07
-1.943503905e-08
5.968436437e-09
2.802599946e-08
2.060396666e-07
2.959955373e-09
2.802503632e-08
2.054776739e-07
4.169367437e-14
2.802670186e-08
2.052214597e-07
-2.959879344e-09
2.802670084e-08
2.052214652e-07
-5.968374982e-09
2.802503239e-08
2.05477691e-07
-9.087177769e-09
2.80259898e-08
2.060396955e-07
-1.240923175e-08
2.803722048e-08
2.070188257e-07
-1.605250081e-08
2.807140297e-08
2.085994392e-07
2.814209515e-08
2.110465113e-07
-2.011727324e-08
6.048438401e-09
2.443691333e-08
2.054165703e-07
3.000086739e-09
2.444112661e-08
2.048912313e-07
4.748022714e-14
2.444571543e-08
2.046549854e-07
-2.999998501e-09
2.444571194e-08
2.0465499e-07
-6.04836859e-09
2.444111597e-08
2.048912445e-07
-9.204178226e-09
2.443689968e-08
2.054165876e-07
-1.254976542e-08
2.444132594e-08
2.063497236e-07
-1.619354895e-08
2.446321475e-08
2.078905874e-07
2.450825377e-08
2.103262158e-07
-2.02318886e-08
6.134294615e-09
2.014032142e-07
2.021062432e-08
3.046911186e-09
2.009010481e-07
2.021867447e-08
5.167277963e-14
2.006780981e-07
2.022485691e-08
-3.04681459e-09
2.00678103e-07
2.022484965e-08
-6.134214597e-09
2.009010639e-07
2.0218656e-08
-9.313539486e-09
2.014032373e-07
2.021059644e-08
-1.265882343e-08
2.0230954e-07
2.020712271e-08
-1.627166844e-08
2.038308845e-07
2.021331734e-08
2.062687942e-07
2.022846731e-08
-2.024556664e-08
2.792006074e-09
8.862345398e-09
5.926991954e-08
1.407425161e-09
8.873675284e-09
5.898619929e-08
-6.025478366e-15
8.883181875e-09
5.885497376e-08
-1.407437496e-09
8.883182464e-09
5.885497754e-08
-2.791991212e-09
8.87367462e-09
5.898620604e-08
-4.133931111e-09
8.862336374e-09
5.926991037e-08
-5.419448286e-09
8.866257635e-09
5.974742543e-08
-6.643478736e-09
8.917455216e-09
6.047287957e-08
9.04619334e-09
6.148812768e-08
-7.785721666e-09
5.467406344e-09
2.033102069e-08
1.455796387e-07
2.731195731e-09
2.03818829e-08
1.449731864e-07
-3.090230816e-16
2.041490019e-08
1.446941692e-07
-2.73120263e-09
2.041489814e-08
1.446941771e-07
-5.467399252e-09
2.038188021e-08
1.449732109e-07
-8.220299827e-09
2.033100206e-08
1.455796677e-07
-1.101057452e-08
2.029521739e-08
1.466110717e-07
-1.387832312e-08
2.035363622e-08
1.482031085e-07
2.057174452e-08
1.504815543e-07
-1.682318066e-08
6.417148091e-09
2.676473035e-08
1.924403591e-07
3.186927935e-09
2.680210679e-08
1.917902172e-07
3.807619871e-14
2.682599923e-08
1.914966605e-07
-3.186856019e-09
2.682599757e-08
1.914966721e-07
-6.417081153e-09
2.680209606e-08
1.917902531e-07
-9.735895853e-09
2.676469367e-08
1.924404182e-07
-1.31840621e-08
2.673464204e-08
1.935752955e-07
-1.680254227e-08
2.67803602e-08
1.953885665e-07
2.697151159e-08
1.980594567e-07
-2.058680871e-08
6.814882821e-09
2.761956696e-08
2.086877534e-07
3.390529098e-09
2.764911926e-08
2.080550016e-07
7.29474986e-14
2.766846585e-08
2.0776943e-07
-3.390394508e-09
2.766845783e-08
2.077694459e-07
-6.814773414e-09
2.764909407e-08
2.080550504e-07
-1.031774325e-08
2.761951743e-08
2.086878375e-07
-1.395877535e-08
2.75982543e-08
2.097962631e-07
-1.778922811e-08
2.76259254e-08
2.115843645e-07
2.774971653e-08
2.142741522e-07
-2.179502811e-08
7.030276107e-09
2.567487948e-08
2.109411085e-07
3.504310549e-09
2.571439551e-08
2.103519042e-07
9.133425899e-14
2.573807906e-08
2.100895672e-07
-3.504141731e-09
2.573806653e-08
2.10089585e-07
-7.030145087e-09
2.571436067e-08
2.103519585e-07
-1.061007736e-08
2.567483046e-08
2.109412066e-07
-1.428975085e-08
2.563616994e-08
2.119915084e-07
-1.811381917e-08
2.562607561e-08
2.137145486e-07
2.566644544e-08
2.16355406e-07
-2.205969019e-08
7.179711729e-09
2.083973082e-07
2.230499693e-08
3.584998684e-09
2.07856569e-07
2.235356534e-08
9.544010397e-14
2.076199116e-07
2.238113793e-08
-3.584820612e-09
2.076199298e-07
2.238112125e-08
-7.179568536e-09
2.078566282e-07
2.23535231e-08
-1.080384733e-08
2.083974133e-07
2.230494008e-08
-1.449081952e-08
2.09384698e-07
2.224801478e-08
-1.827536753e-08
2.110427566e-07
2.219879544e-08
2.136274807e-07
2.216321753e-08
-2.213077589e-08
4.06229125e-09
6.229321344e-09
5.466008731e-08
2.787409313e-09
6.222580896e-09
5.432212237e-08
1.418091053e-09
6.231153918e-09
5.412431078e-08
-2.865792388e-14
6.238822012e-09
5.403422509e-08
-1.418151027e-09
6.238823589e-09
5.403422619e-08
-2.787464399e-09
6.231160122e-09
5.412431128e-08
-4.062293703e-09
6.222590309e-09
5.432211517e-08
-5.204244441e-09
6.229320138e-09
5.466004079e-08
-6.185286728e-09
6.279653147e-09
5.51742684e-08
6.406321457e-09
5.587176475e-08
-6.975247894e-09
8.627931812e-09
1.624027791e-08
1.393036251e-07
5.817827847e-09
1.624429933e-08
1.383679031e-07
2.929507255e-09
1.627758545e-08
1.378149805e-07
-8.166029428e-14
1.630194074e-08
1.375605369e-07
-2.929674456e-09
1.630194258e-08
1.375605433e-07
-5.817991449e-09
1.627759482e-08
1.378150043e-07
-8.628049321e-09
1.624431675e-08
1.383679426e-07
-1.133161629e-08
1.624028033e-08
1.393036589e-07
-1.390587692e-08
1.633287286e-08
1.407241449e-07
1.659671247e-08
1.426762763e-07
-1.629098748e-08
1.063396136e-08
2.363789337e-08
1.897027734e-07
7.098631879e-09
2.366530008e-08
1.885546054e-07
3.552746476e-09
2.372258735e-08
1.878910107e-07
-4.613889393e-14
2.376165038e-08
1.87589649e-07
-3.552843483e-09
2.376165451e-08
1.875896651e-07
-7.098734252e-09
2.372259641e-08
1.878910635e-07
-1.06340511e-08
2.366530603e-08
1.885547001e-07
-1.415926056e-08
2.363787739e-08
1.89702898e-07
-1.765796845e-08
2.371850311e-08
1.91501654e-07
2.398675582e-08
1.940618103e-07
-2.105034475e-08
1.149947084e-08
2.641091688e-08
2.10850801e-07
7.674567442e-09
2.645687579e-08
2.097210336e-07
3.841780289e-09
2.65259043e-08
2.090844204e-07
1.016055972e-14
2.657290372e-08
2.087998863e-07
-3.841772204e-09
2.657290261e-08
2.087999105e-07
-7.674583572e-09
2.652590041e-08
2.090844975e-07
-1.149950687e-08
2.645686834e-08
2.09721172e-07
-1.532723928e-08
2.641088284e-08
2.108509921e-07
-1.913641783e-08
2.644589518e-08
2.12666168e-07
2.661317171e-08
2.153190374e-07
-2.280769339e-08
1.196632927e-08
2.599963383e-08
2.163169949e-07
8.005966742e-09
2.60741353e-08
2.152841814e-07
4.011996675e-09
2.615338648e-08
2.147183468e-07
3.419661053e-14
2.620362177e-08
2.144707621e-07
-4.011942516e-09
2.620361588e-08
2.144707896e-07
-8.005941057e-09
2.615337693e-08
2.14718439e-07
-1.196635077e-08
2.607412681e-08
2.152843451e-07
-1.588080571e-08
2.599962667e-08
2.163172255e-07
-1.97098439e-08
2.596669335e-08
2.180228123e-07
2.600821658e-08
2.20595132e-07
-2.334458926e-08
1.223510049e-08
2.155891188e-07
2.372576421e-08
8.211038928e-09
2.146631174e-07
2.383236014e-08
4.122335622e-09
2.141738695e-07
2.392475204e-08
3.549601653e-14
2.139667665e-07
2.397901835e-08
-4.12227362e-09
2.139667958e-07
2.39790118e-08
-8.211001414e-09
2.141739662e-07
2.392474061e-08
-1.223510717e-08
2.146632853e-07
2.383235431e-08
-1.616588529e-08
2.155893513e-07
2.372576745e-08
-1.995340502e-08
2.171696137e-07
2.362738639e-08
2.196118192e-07
2.355331094e-08
-2.34828086e-08
5.832303389e-09
4.6878053e-09
5.167059147e-08
5.061084104e-09
4.59546888e-09
5.135007598e-08
4.039640832e-09
4.576061482e-09
5.110539446e-08
2.813378577e-09
4.588962328e-09
5.095938742e-08
1.443620317e-09
4.607831851e-09
5.088620352e-08
-3.015757006e-14
4.620031925e-09
5.085780857e-08
-1.443687127e-09
4.620033429e-09
5.085780048e-08
-2.813448658e-09
4.607843699e-09
5.088618205e-08
-4.039702299e-09
4.588980513e-09
5.095935197e-08
-5.061112393e-09
4.576088439e-09
5.110534706e-08
-5.832352915e-09
4.595491993e-09
5.13500054e-08
4.687824882e-09
5.167052469e-08
-6.318949157e-09
1.354703116e-08
1.33813412e-08
1.356996424e-07
1.136528904e-08
1.31624131e-08
1.343388496e-07
8.838856898e-09
1.311301727e-08
1.332929937e-07
6.045297113e-09
1.314423048e-08
1.326061048e-07
3.068986397e-09
1.318978066e-08
1.322092519e-07
-1.548161451e-13
1.321898458e-08
1.320306113e-07
-3.06929332e-09
1.321899559e-08
1.320306053e-07
-6.045596193e-09
1.31898126e-08
1.322092377e-07
-8.839119028e-09
1.314428535e-08
1.326060971e-07
-1.136549139e-08
1.311308966e-08
1.332929925e-07
-1.35472068e-08
1.316248914e-08
1.343388433e-07
1.33814322e-08
1.356996474e-07
-1.52641876e-08
1.791212594e-08
2.098029939e-08
1.891726872e-07
1.474011229e-08
2.074295482e-08
1.870928923e-07
1.128110737e-08
2.0716069e-08
1.855586149e-07
7.622256032e-09
2.078400766e-08
1.845735625e-07
3.839274355e-09
2.085104386e-08
1.840126103e-07
-1.966288065e-13
2.088438348e-08
1.837635964e-07
-3.839666232e-09
2.088440254e-08
1.83763603e-07
-7.622632273e-09
2.085109689e-08
1.840126408e-07
-1.128143969e-08
2.078408954e-08
1.845736355e-07
-1.47403812e-08
2.0716167e-08
1.855587278e-07
-1.791233238e-08
2.074306167e-08
1.870930264e-07
2.098041801e-08
1.891728315e-07
-2.062232949e-08
1.995666767e-08
2.495453415e-08
2.144500364e-07
1.63533632e-08
2.482231305e-08
2.121897992e-07
1.24660146e-08
2.487766393e-08
2.10576451e-07
8.385620231e-09
2.500866539e-08
2.095766665e-07
4.204979739e-09
2.513112651e-08
2.089848654e-07
-1.942664023e-13
2.519823066e-08
2.086910985e-07
-4.205369134e-09
2.519824633e-08
2.086911194e-07
-8.385991733e-09
2.513117732e-08
2.089849407e-07
-1.246634353e-08
2.50087501e-08
2.095768032e-07
-1.635362656e-08
2.48777657e-08
2.105766559e-07
-1.995685405e-08
2.482242136e-08
2.121900402e-07
2.495466727e-08
2.144502947e-07
-2.306234696e-08
2.084652544e-08
2.228338009e-07
1.716000981e-08
2.207613622e-07
1.31442481e-08
2.591794083e-08
2.192923651e-07
8.889077341e-09
2.611701687e-08
2.1843091e-07
4.480564329e-09
2.628984611e-08
2.179680443e-07
-1.668689741e-13
2.638682885e-08
2.177627891e-07
-4.48089727e-09
2.638684627e-08
2.177628143e-07
-8.889399517e-09
2.628990354e-08
2.179681357e-07
-1.314454803e-08
2.611711643e-08
2.184310853e-07
-1.716025573e-08
2.591807059e-08
2.192926207e-07
-2.084665595e-08
2.576997438e-08
2.207616687e-07
2.575706482e-08
2.228341101e-07
-2.388802389e-08
1.362267532e-08
2.206990123e-07
2.486684879e-08
9.25519219e-09
2.200211156e-07
2.512642862e-08
4.67996546e-09
2.197054544e-07
2.533340702e-08
-1.506880854e-13
2.195866204e-07
2.544699953e-08
-4.680261876e-09
2.195866472e-07
2.544702458e-08
-9.255478631e-09
2.197055483e-07
2.533348312e-08
-1.362294971e-08
2.200212946e-07
2.512655722e-08
-1.768182142e-08
2.206992705e-07
2.486702322e-08
-2.130460263e-08
2.219472172e-07
2.461516655e-08
2.238510288e-07
2.441945042e-08
-2.420618955e-08
5.733573539e-09
3.654016597e-09
4.827021102e-08
5.115591258e-09
3.642658881e-09
4.832536444e-08
4.163834258e-09
3.686496532e-09
4.837063909e-08
2.939157545e-09
3.745981817e-09
4.84380669e-08
1.52036246e-09
3.798419857e-09
4.850656527e-08
-1.290821143e-14
3.82932963e-09
4.85488213e-08
-1.520387771e-09
3.829330499e-09
4.854880452e-08
-2.939192403e-09
3.798424557e-09
4.850651861e-08
-4.163865487e-09
3.745998772e-09
4.843800136e-08
-5.115615856e-09
3.686521212e-09
4.837056142e-08
-5.733591682e-09
3.642689238e-09
4.83252783e-08
3.654057824e-09
4.827012358e-08
-5.987254588e-09
1.312361152e-08
1.104886352e-08
1.293835537e-07
1.134788691e-08
1.100249961e-08
1.287546574e-07
9.024073802e-09
1.109220431e-08
1.282110347e-07
6.268302194e-09
1.123015492e-08
1.278776451e-07
3.212442862e-09
1.135608902e-08
1.277073623e-07
-1.492281614e-13
1.143185822e-08
1.276405783e-07
-3.212739403e-09
1.143187018e-08
1.27640552e-07
-6.268582576e-09
1.135612681e-08
1.277072947e-07
-9.024323889e-09
1.123022095e-08
1.278775572e-07
-1.134808973e-08
1.109229295e-08
1.282109399e-07
-1.312375334e-08
1.100260661e-08
1.287545584e-07
1.104898557e-08
1.293834533e-07
-1.420250199e-08
1.773310947e-08
1.840561492e-08
1.837088262e-07
1.501754602e-08
1.839582792e-08
1.824150216e-07
1.174955503e-08
1.855475023e-08
1.813639566e-07
8.072577749e-09
1.877773518e-08
1.807028619e-07
4.115415366e-09
1.898028742e-08
1.803454686e-07
-2.627848615e-13
1.911628434e-08
1.801947337e-07
-4.115933918e-09
1.911630408e-08
1.801947203e-07
-8.073065248e-09
1.898035306e-08
1.803454428e-07
-1.174998915e-08
1.877785274e-08
1.807028478e-07
-1.501789636e-08
1.855490724e-08
1.81363967e-07
-1.773335159e-08
1.839601663e-08
1.824150481e-07
1.840583711e-08
1.837088572e-07
-1.962623447e-08
2.02559654e-08
2.319123415e-08
2.119482881e-07
1.704745623e-08
2.332817245e-08
2.104658386e-07
1.326126827e-08
2.360659859e-08
2.093106875e-07
9.083603733e-09
2.394070987e-08
2.085912521e-07
4.635280904e-09
2.423429973e-08
2.081790754e-07
-2.860506946e-13
2.443754348e-08
2.080052907e-07
-4.635847758e-09
2.443757137e-08
2.080052908e-07
-9.084151724e-09
2.423439394e-08
2.081790999e-07
-1.326177011e-08
2.394087295e-08
2.085913271e-07
-1.704786436e-08
2.360680966e-08
2.093108131e-07
-2.025623569e-08
2.3328431e-08
2.104659983e-07
2.319153736e-08
2.11948464e-07
-2.254009938e-08
2.160145363e-08
2.231127582e-07
1.825658196e-08
2.21905843e-07
1.421305316e-08
2.59173139e-08
2.210250656e-07
9.717998913e-09
2.633811952e-08
2.205284526e-07
4.929608188e-09
2.667957815e-08
2.2031105e-07
-3.137222949e-13
2.688043811e-08
2.202496966e-07
-4.930224032e-09
2.688048046e-08
2.202497026e-07
-9.718580369e-09
2.667970728e-08
2.203110918e-07
-1.421357391e-08
2.633833113e-08
2.205285676e-07
-1.825700363e-08
2.591758916e-08
2.210252627e-07
-2.160170817e-08
2.552873061e-08
2.219060879e-07
2.515382966e-08
2.231130469e-07
-2.384293368e-08
1.491420061e-08
2.248234337e-07
2.590933048e-08
1.024455052e-08
2.246485181e-07
2.638028375e-08
5.213101457e-09
2.246693206e-07
2.674706691e-08
-3.065094635e-13
2.247283698e-07
2.695199714e-08
-5.213698146e-09
2.247283774e-07
2.695205433e-08
-1.024510619e-08
2.246693623e-07
2.67472338e-08
-1.491469702e-08
2.246486313e-07
2.638054979e-08
-1.903114549e-08
2.248236298e-07
2.590967697e-08
-2.233949077e-08
2.253760484e-07
2.540825715e-08
2.262635362e-07
2.489004561e-08
-2.448821436e-08
6.007791375e-09
3.187043166e-09
4.518307704e-08
5.469528775e-09
3.29623674e-09
4.556738234e-08
4.518767118e-09
3.436925139e-09
4.588446689e-08
3.222512855e-09
3.577777851e-09
4.615653629e-08
1.676567828e-09
3.691022436e-09
4.63614715e-08
1.617131965e-14
3.753227511e-09
4.647211747e-08
-1.676538847e-09
3.753226586e-09
4.647209733e-08
-3.222488936e-09
3.691024327e-09
4.636141951e-08
-4.518746427e-09
3.577786678e-09
4.615646247e-08
-5.469513911e-09
3.436937164e-09
4.588437771e-08
-6.007778441e-09
3.296249331e-09
4.556728493e-08
3.187065777e-09
4.518298224e-08
-6.107699404e-09
1.305141553e-08
9.810571698e-09
1.233364243e-07
1.16149541e-08
1.005913324e-08
1.234281805e-07
9.427347043e-09
1.039338863e-08
1.234421414e-07
6.64439442e-09
1.073561444e-08
1.235027225e-07
3.433895312e-09
1.102102737e-08
1.235877988e-07
-7.760439839e-14
1.118045606e-08
1.236472488e-07
-3.434047296e-09
1.118046685e-08
1.236472077e-07
-6.644536428e-09
1.102105756e-08
1.235876889e-07
-9.427478171e-09
1.073565836e-08
1.235025674e-07
-1.161506606e-08
1.039344843e-08
1.234419629e-07
-1.305149002e-08
1.00592028e-08
1.234279943e-07
9.810653217e-09
1.233362409e-07
-1.362789108e-08
1.757440518e-08
1.699402164e-08
1.776837815e-07
1.534920536e-08
1.739817239e-08
1.773010935e-07
1.229264047e-08
1.790577565e-08
1.76908065e-07
8.595317773e-09
1.844589543e-08
1.76689836e-07
4.42454514e-09
1.892972843e-08
1.766074677e-07
-2.172861537e-13
1.920846073e-08
1.765914008e-07
-4.424972301e-09
1.920847946e-08
1.765913633e-07
-8.595719626e-09
1.892978186e-08
1.766073706e-07
-1.229299748e-08
1.844598814e-08
1.766897131e-07
-1.534949824e-08
1.79059159e-08
1.769079379e-07
-1.757460295e-08
1.739833756e-08
1.773009726e-07
1.699421322e-08
1.776836652e-07
-1.873301164e-08
2.043468203e-08
2.252510743e-08
2.079215768e-07
1.77078013e-08
2.314213602e-08
2.074486376e-07
1.410127354e-08
2.377868726e-08
2.070442115e-07
9.826314358e-09
2.44631176e-08
2.068489115e-07
5.050887568e-09
2.506946045e-08
2.068146861e-07
-2.920043496e-13
2.540458395e-08
2.068602448e-07
-5.051465039e-09
2.540462082e-08
2.068602179e-07
-9.82686064e-09
2.506956348e-08
2.068146236e-07
-1.410176426e-08
2.44632849e-08
2.068488607e-07
-1.770820549e-08
2.377893295e-08
2.07044186e-07
-2.04349481e-08
2.314240789e-08
2.074486409e-07
2.252542344e-08
2.079215948e-07
-2.19393266e-08
2.2293556e-08
2.217652483e-07
1.942076506e-08
2.215569799e-07
1.544226565e-08
2.724460165e-08
2.215375548e-07
1.071263484e-08
2.805927145e-08
2.216618325e-07
5.48735448e-09
2.873442145e-08
2.218712669e-07
-3.50233136e-13
2.910858831e-08
2.220332907e-07
-5.48803742e-09
2.91086438e-08
2.220332721e-07
-1.071327056e-08
2.87345803e-08
2.218712309e-07
-1.544282228e-08
2.805952316e-08
2.216618271e-07
-1.942119338e-08
2.724493045e-08
2.215376069e-07
-2.229381445e-08
2.636401248e-08
2.215570985e-07
2.542914e-08
2.21765422e-07
-2.38499405e-08
1.652783679e-08
2.279563822e-07
2.823909611e-08
1.151488468e-08
2.285281581e-07
2.919249275e-08
5.90933066e-09
2.290773522e-07
2.993185409e-08
-3.536958915e-13
2.29411467e-07
3.03350909e-08
-5.910020405e-09
2.294114521e-07
3.033516042e-08
-1.151552233e-08
2.290773286e-07
2.993205844e-08
-1.652839589e-08
2.285281717e-07
2.919281279e-08
-2.065581013e-08
2.279564582e-07
2.823950072e-08
-2.358966514e-08
2.275149765e-07
2.715893963e-08
2.270827879e-07
2.608057497e-08
-2.506039026e-08
6.698216184e-09
3.129685182e-09
4.205247917e-08
6.168517504e-09
3.396281941e-09
4.270079501e-08
5.137843712e-09
3.662307149e-09
4.325283104e-08
3.683332368e-09
3.89724135e-09
4.37138046e-08
1.921607018e-09
4.073075729e-09
4.405010732e-08
3.935371263e-14
4.165065988e-09
4.42285948e-08
-1.921528308e-09
4.165066291e-09
4.422857773e-08
-3.683257948e-09
4.073078697e-09
4.40500606e-08
-5.137781696e-09
3.897243787e-09
4.371373425e-08
-6.168471343e-09
3.662305474e-09
4.325274705e-08
-6.698174044e-09
3.396275867e-09
4.27007099e-08
3.129683196e-09
4.205240456e-08
-6.697271931e-09
1.36402803e-08
9.593893196e-09
1.171136235e-07
1.238348273e-08
1.024144365e-08
1.178397831e-07
1.020373693e-08
1.090183879e-08
1.183823343e-07
7.263038096e-09
1.149161806e-08
1.188490169e-07
3.773583638e-09
1.194169216e-08
1.19208593e-07
1.954874534e-14
1.217797329e-08
1.194078554e-07
-3.773544561e-09
1.217798332e-08
1.194078096e-07
-7.263007715e-09
1.194171516e-08
1.192084647e-07
-1.020372491e-08
1.149164353e-08
1.188488289e-07
-1.238348489e-08
1.090186161e-08
1.183821177e-07
-1.364027477e-08
1.024146117e-08
1.178395655e-07
9.593908763e-09
1.171134213e-07
-1.388171492e-08
1.790967658e-08
1.684416315e-08
1.7104409e-07
1.603671319e-08
1.785620742e-08
1.715592359e-07
1.30773077e-08
1.887739437e-08
1.718918789e-07
9.248372294e-09
1.979116623e-08
1.722191928e-07
4.786324534e-09
2.05135388e-08