/*--------------------------------*- C++ -*----------------------------------*\
  =========                 |
  \\      /  F ield         | OpenFOAM: The Open Source CFD Toolbox
   \\    /   O peration     | Website:  https://openfoam.org
    \\  /    A nd           | Version:  7
     \\/     M anipulation  |
\*---------------------------------------------------------------------------*/
FoamFile
{
    version     2.0;
    format      ascii;
    class       volScalarField;
    location    "0.00335";
    object      p;
}
// * * * * * * * * * * * * * * * * * * * * * * * * * * * * * * * * * * * * * //

dimensions      [1 -1 -2 0 0 0 0];

internalField   nonuniform List<scalar> 
5000
(
109846.32
109846.32
109846.32
109846.32
109846.32
109846.32
109846.32
109846.32
109846.32
109846.32
109846.32
109846.32
109846.32
109846.32
109846.32
109846.32
109846.32
109846.32
109846.32
109846.32
109846.32
109846.32
109846.32
109846.32
109846.32
109846.32
109846.32
109846.32
109846.32
109846.32
109846.32
109846.32
109846.32
109846.32
109846.32
109846.32
109846.32
109846.32
109846.32
109846.32
109846.32
109846.32
109846.32
109846.32
109846.32
109846.32
109846.32
109846.32
109846.32
109846.32
109846.32
109846.32
109846.32
109846.33
109846.33
109846.33
109846.33
109846.33
109846.33
109846.33
109846.33
109846.33
109846.33
109846.33
109846.33
109846.33
109846.33
109846.33
109846.33
109846.33
109846.33
109846.33
109846.33
109846.33
109846.33
109846.33
109846.33
109846.33
109846.33
109846.33
109846.33
109846.33
109846.33
109846.33
109846.33
109846.33
109846.33
109846.33
109846.33
109846.33
109846.33
109846.33
109846.33
109846.33
109846.33
109846.33
109846.33
109846.33
109846.33
109846.33
109846.33
109846.33
109846.33
109846.33
109846.33
109846.33
109846.33
109846.33
109846.33
109846.33
109846.33
109846.33
109846.33
109846.33
109846.33
109846.33
109846.33
109846.33
109846.33
109846.33
109846.33
109846.33
109846.33
109846.33
109846.33
109846.33
109846.33
109846.33
109846.33
109846.33
109846.33
109846.33
109846.33
109846.33
109846.33
109846.33
109846.33
109846.33
109846.33
109846.33
109846.33
109846.33
109846.33
109846.33
109846.33
109846.33
109846.33
109846.33
109846.33
109846.33
109846.33
109846.33
109846.33
109846.33
109846.33
109846.33
109846.33
109846.33
109846.33
109846.33
109846.33
109846.33
109846.33
109846.33
109846.33
109846.33
109846.33
109846.33
109846.33
109846.33
109846.33
109846.34
109846.34
109846.34
109846.34
109846.34
109846.34
109846.34
109846.34
109846.34
109846.34
109846.34
109846.34
109846.34
109846.34
109846.34
109846.34
109846.34
109846.34
109846.34
109846.34
109846.34
109846.34
109846.34
109846.34
109846.34
109846.34
109846.34
109846.34
109846.34
109846.34
109846.34
109846.34
109846.34
109846.34
109846.34
109846.34
109846.34
109846.34
109846.34
109846.34
109846.34
109846.34
109846.34
109846.34
109846.34
109846.34
109846.34
109846.34
109846.34
109846.34
109846.34
109846.34
109846.34
109846.34
109846.34
109846.34
109846.34
109846.34
109846.34
109846.34
109846.34
109846.34
109846.34
109846.34
109846.34
109846.34
109846.34
109846.34
109846.34
109846.34
109846.34
109846.34
109846.34
109846.34
109846.34
109846.34
109846.34
109846.34
109846.34
109846.34
109846.34
109846.34
109846.34
109846.34
109846.34
109846.34
109846.34
109846.34
109846.34
109846.34
109846.34
109846.34
109846.34
109846.34
109846.34
109846.34
109846.34
109846.34
109846.34
109846.34
109846.34
109846.34
109846.34
109846.34
109846.34
109846.34
109846.34
109846.34
109846.34
109846.34
109846.34
109846.34
109846.34
109846.34
109846.34
109846.34
109846.34
109846.34
109846.34
109846.34
109846.35
109846.35
109846.35
109846.35
109846.35
109846.35
109846.35
109846.35
109846.35
109846.35
109846.35
109846.35
109846.35
109846.35
109846.35
109846.35
109846.35
109846.35
109846.35
109846.35
109846.35
109846.35
109846.35
109846.35
109846.35
109846.35
109846.35
109846.35
109846.35
109846.35
109846.35
109846.35
109846.35
109846.35
109846.35
109846.35
109846.35
109846.35
109846.35
109846.35
109846.35
109846.35
109846.35
109846.35
109846.35
109846.35
109846.35
109846.35
109846.35
109846.35
109846.35
109846.35
109846.35
109846.35
109846.35
109846.35
109846.35
109846.35
109846.35
109846.35
109846.35
109846.35
109846.35
109846.35
109846.35
109846.35
109846.35
109846.35
109846.35
109846.35
109846.35
109846.35
109846.35
109846.35
109846.35
109846.35
109846.35
109846.35
109846.35
109846.35
109846.35
109846.35
109846.35
109846.35
109846.35
109846.35
109846.35
109846.35
109846.35
109846.35
109846.35
109846.35
109846.35
109846.35
109846.35
109846.35
109846.35
109846.35
109846.35
109846.35
109846.35
109846.35
109846.35
109846.35
109846.35
109846.35
109846.35
109846.35
109846.35
109846.35
109846.35
109846.35
109846.35
109846.35
109846.35
109846.35
109846.35
109846.35
109846.35
109846.35
109846.35
109846.35
109846.35
109846.35
109846.35
109846.35
109846.35
109846.35
109846.35
109846.36
109846.36
109846.36
109846.36
109846.36
109846.36
109846.36
109846.36
109846.36
109846.36
109846.36
109846.36
109846.36
109846.36
109846.36
109846.36
109846.36
109846.36
109846.36
109846.36
109846.36
109846.36
109846.36
109846.36
109846.36
109846.36
109846.36
109846.36
109846.36
109846.36
109846.36
109846.36
109846.36
109846.36
109846.36
109846.36
109846.36
109846.36
109846.36
109846.36
109846.36
109846.36
109846.36
109846.36
109846.36
109846.36
109846.36
109846.36
109846.36
109846.36
109846.36
109846.36
109846.36
109846.36
109846.36
109846.36
109846.36
109846.36
109846.36
109846.36
109846.36
109846.36
109846.36
109846.36
109846.36
109846.36
109846.36
109846.36
109846.36
109846.36
109846.36
109846.36
109846.36
109846.36
109846.36
109846.36
109846.36
109846.36
109846.36
109846.36
109846.36
109846.36
109846.36
109846.36
109846.36
109846.36
109846.36
109846.36
109846.36
109846.36
109846.36
109846.36
109846.36
109846.36
109846.36
109846.36
109846.36
109846.36
109846.36
109846.36
109846.36
109846.36
109846.36
109846.36
109846.36
109846.36
109846.36
109846.36
109846.36
109846.36
109846.36
109846.36
109846.36
109846.36
109846.36
109846.36
109846.36
109846.36
109846.36
109846.36
109846.36
109846.36
109846.36
109846.36
109846.36
109846.36
109846.36
109846.36
109846.36
109846.36
109846.36
109846.36
109846.36
109846.36
109846.36
109846.36
109846.36
109846.36
109846.36
109846.36
109846.36
109846.37
109846.37
109846.37
109846.37
109846.37
109846.37
109846.37
109846.37
109846.37
109846.37
109846.37
109846.37
109846.37
109846.37
109846.37
109846.37
109846.37
109846.37
109846.37
109846.37
109846.37
109846.37
109846.37
109846.37
109846.37
109846.37
109846.37
109846.37
109846.37
109846.37
109846.37
109846.37
109846.37
109846.37
109846.37
109846.37
109846.37
109846.37
109846.37
109846.37
109846.37
109846.37
109846.37
109846.37
109846.37
109846.37
109846.37
109846.37
109846.37
109846.37
109846.37
109846.37
109846.37
109846.37
109846.37
109846.37
109846.37
109846.37
109846.37
109846.37
109846.37
109846.37
109846.37
109846.37
109846.37
109846.37
109846.37
109846.37
109846.37
109846.37
109846.37
109846.37
109846.37
109846.37
109846.37
109846.37
109846.37
109846.37
109846.37
109846.37
109846.37
109846.37
109846.37
109846.37
109846.37
109846.37
109846.37
109846.37
109846.37
109846.37
109846.37
109846.37
109846.37
109846.37
109846.37
109846.37
109846.37
109846.37
109846.37
109846.37
109846.37
109846.37
109846.37
109846.37
109846.37
109846.37
109846.37
109846.37
109846.37
109846.37
109846.37
109846.37
109846.37
109846.37
109846.37
109846.37
109846.37
109846.37
109846.37
109846.37
109846.37
109846.37
109846.37
109846.37
109846.37
109846.37
109846.37
109846.37
109846.37
109846.37
109846.37
109846.37
109846.37
109846.37
109846.37
109846.37
109846.37
109846.37
109846.37
109846.37
109846.37
109846.37
109846.37
109846.37
109846.37
109846.38
109846.38
109846.38
109846.38
109846.38
109846.38
109846.38
109846.38
109846.38
109846.38
109846.38
109846.38
109846.38
109846.38
109846.38
109846.38
109846.38
109846.38
109846.38
109846.38
109846.38
109846.38
109846.38
109846.38
109846.38
109846.38
109846.38
109846.38
109846.38
109846.38
109846.38
109846.38
109846.38
109846.38
109846.38
109846.38
109846.38
109846.38
109846.38
109846.38
109846.38
109846.38
109846.38
109846.38
109846.38
109846.38
109846.38
109846.38
109846.38
109846.38
109846.38
109846.38
109846.38
109846.38
109846.38
109846.38
109846.38
109846.38
109846.38
109846.38
109846.38
109846.38
109846.38
109846.38
109846.38
109846.38
109846.38
109846.38
109846.38
109846.38
109846.38
109846.38
109846.38
109846.38
109846.38
109846.38
109846.38
109846.38
109846.38
109846.38
109846.38
109846.38
109846.38
109846.38
109846.38
109846.38
109846.38
109846.38
109846.38
109846.38
109846.38
109846.38
109846.38
109846.38
109846.38
109846.38
109846.38
109846.38
109846.38
109846.38
109846.38
109846.38
109846.38
109846.38
109846.38
109846.38
109846.38
109846.38
109846.38
109846.38
109846.38
109846.38
109846.38
109846.38
109846.38
109846.38
109846.38
109846.38
109846.38
109846.38
109846.38
109846.38
109846.38
109846.38
109846.38
109846.38
109846.38
109846.38
109846.38
109846.38
109846.38
109846.38
109846.38
109846.38
109846.38
109846.38
109846.38
109846.38
109846.38
109846.38
109846.38
109846.38
109846.38
109846.38
109846.38
109846.38
109846.38
109846.38
109846.38
109846.38
109846.38
109846.38
109846.38
109846.38
109846.38
109846.39
109846.39
109846.39
109846.39
109846.39
109846.39
109846.39
109846.39
109846.39
109846.39
109846.39
109846.39
109846.39
109846.39
109846.39
109846.39
109846.39
109846.39
109846.39
109846.39
109846.39
109846.39
109846.39
109846.39
109846.39
109846.39
109846.39
109846.39
109846.39
109846.39
109846.39
109846.39
109846.39
109846.39
109846.39
109846.39
109846.39
109846.39
109846.39
109846.39
109846.39
109846.39
109846.39
109846.39
109846.39
109846.39
109846.39
109846.39
109846.39
109846.39
109846.39
109846.39
109846.39
109846.39
109846.39
109846.39
109846.39
109846.39
109846.39
109846.39
109846.39
109846.39
109846.39
109846.39
109846.39
109846.39
109846.39
109846.39
109846.39
109846.39
109846.39
109846.39
109846.39
109846.39
109846.39
109846.39
109846.39
109846.39
109846.39
109846.39
109846.39
109846.39
109846.39
109846.39
109846.39
109846.39
109846.39
109846.39
109846.39
109846.39
109846.39
109846.39
109846.39
109846.39
109846.39
109846.39
109846.39
109846.39
109846.39
109846.39
109846.39
109846.39
109846.39
109846.39
109846.39
109846.39
109846.39
109846.39
109846.39
109846.39
109846.39
109846.39
109846.39
109846.39
109846.39
109846.39
109846.39
109846.39
109846.39
109846.39
109846.39
109846.39
109846.39
109846.39
109846.39
109846.39
109846.39
109846.39
109846.39
109846.39
109846.39
109846.39
109846.39
109846.39
109846.39
109846.39
109846.39
109846.39
109846.39
109846.39
109846.39
109846.39
109846.39
109846.39
109846.39
109846.39
109846.39
109846.39
109846.39
109846.39
109846.39
109846.39
109846.39
109846.39
109846.39
109846.39
109846.4
109846.4
109846.4
109846.4
109846.4
109846.4
109846.4
109846.4
109846.4
109846.4
109846.4
109846.4
109846.4
109846.4
109846.4
109846.4
109846.4
109846.4
109846.4
109846.4
109846.4
109846.4
109846.4
109846.4
109846.4
109846.4
109846.4
109846.4
109846.4
109846.4
109846.4
109846.4
109846.4
109846.4
109846.4
109846.4
109846.4
109846.4
109846.4
109846.4
109846.4
109846.4
109846.4
109846.4
109846.4
109846.4
109846.4
109846.4
109846.4
109846.4
109846.4
109846.4
109846.4
109846.4
109846.4
109846.4
109846.4
109846.4
109846.4
109846.4
109846.4
109846.4
109846.4
109846.4
109846.4
109846.4
109846.4
109846.4
109846.4
109846.4
109846.4
109846.4
109846.4
109846.4
109846.4
109846.4
109846.4
109846.4
109846.4
109846.4
109846.4
109846.4
109846.4
109846.4
109846.4
109846.4
109846.4
109846.4
109846.4
109846.4
109846.4
109846.4
109846.4
109846.4
109846.4
109846.4
109846.4
109846.4
109846.4
109846.4
109846.4
109846.4
109846.4
109846.4
109846.4
109846.4
109846.4
109846.4
109846.4
109846.4
109846.4
109846.4
109846.4
109846.4
109846.4
109846.4
109846.4
109846.4
109846.4
109846.4
109846.4
109846.4
109846.4
109846.4
109846.4
109846.4
109846.4
109846.4
109846.4
109846.4
109846.4
109846.4
109846.4
109846.4
109846.4
109846.4
109846.4
109846.4
109846.4
109846.4
109846.4
109846.4
109846.4
109846.4
109846.4
109846.4
109846.4
109846.4
109846.4
109846.4
109846.4
109846.4
109846.4
109846.4
109846.4
109846.4
109846.4
109846.4
109846.4
109846.4
109846.4
109846.4
109846.4
109846.4
109846.4
109846.4
109846.4
109846.4
109846.4
109846.4
109846.4
109846.4
109846.4
109846.4
109846.41
109846.41
109846.41
109846.41
109846.41
109846.41
109846.41
109846.41
109846.41
109846.41
109846.41
109846.41
109846.41
109846.41
109846.41
109846.41
109846.41
109846.41
109846.41
109846.41
109846.41
109846.41
109846.41
109846.41
109846.41
109846.41
109846.41
109846.41
109846.41
109846.41
109846.41
109846.41
109846.41
109846.41
109846.41
109846.41
109846.41
109846.41
109846.41
109846.41
109846.41
109846.41
109846.41
109846.41
109846.41
109846.41
109846.41
109846.41
109846.41
109846.41
109846.41
109846.41
109846.41
109846.41
109846.41
109846.41
109846.41
109846.41
109846.41
109846.41
109846.41
109846.41
109846.41
109846.41
109846.41
109846.41
109846.41
109846.41
109846.41
109846.41
109846.41
109846.41
109846.41
109846.41
109846.41
109846.41
109846.41
109846.41
109846.41
109846.41
109846.41
109846.41
109846.41
109846.41
109846.41
109846.41
109846.41
109846.41
109846.41
109846.41
109846.41
109846.41
109846.41
109846.41
109846.41
109846.41
109846.41
109846.41
109846.41
109846.41
109846.41
109846.41
109846.41
109846.41
109846.41
109846.41
109846.41
109846.41
109846.41
109846.41
109846.41
109846.41
109846.41
109846.41
109846.41
109846.41
109846.41
109846.41
109846.41
109846.41
109846.41
109846.41
109846.41
109846.41
109846.41
109846.41
109846.41
109846.41
109846.41
109846.41
109846.41
109846.41
109846.41
109846.41
109846.41
109846.41
109846.41
109846.41
109846.41
109846.41
109846.41
109846.41
109846.41
109846.41
109846.41
109846.41
109846.41
109846.41
109846.41
109846.41
109846.41
109846.41
109846.41
109846.41
109846.41
109846.41
109846.41
109846.41
109846.41
109846.41
109846.41
109846.41
109846.41
109846.41
109846.41
109846.41
109846.41
109846.41
109846.41
109846.41
109846.41
109846.41
109846.41
109846.41
109846.41
109846.41
109846.41
109846.41
109846.41
109846.41
109846.41
109846.41
109846.41
109846.41
109846.41
109846.41
109846.41
109846.41
109846.41
109846.41
109846.41
109846.41
109846.4
109846.4
109846.4
109846.4
109846.4
109846.4
109846.4
109846.4
109846.4
109846.4
109846.4
109846.4
109846.4
109846.4
109846.4
109846.4
109846.4
109846.4
109846.4
109846.4
109846.4
109846.4
109846.4
109846.4
109846.39
109846.39
109846.39
109846.39
109846.39
109846.39
109846.39
109846.39
109846.39
109846.39
109846.39
109846.39
109846.39
109846.38
109846.38
109846.38
109846.38
109846.38
109846.38
109846.38
109846.38
109846.37
109846.37
109846.37
109846.37
109846.37
109846.37
109846.37
109846.36
109846.36
109846.36
109846.36
109846.36
109846.36
109846.35
109846.35
109846.35
109846.35
109846.34
109846.34
109846.34
109846.34
109846.33
109846.33
109846.33
109846.33
109846.32
109846.32
109846.32
109846.31
109846.31
109846.31
109846.3
109846.3
109846.3
109846.29
109846.29
109846.28
109846.28
109846.27
109846.27
109846.26
109846.26
109846.25
109846.25
109846.24
109846.24
109846.23
109846.23
109846.22
109846.21
109846.21
109846.2
109846.19
109846.19
109846.18
109846.17
109846.16
109846.16
109846.15
109846.14
109846.13
109846.12
109846.11
109846.1
109846.09
109846.08
109846.07
109846.06
109846.05
109846.04
109846.03
109846.01
109846
109845.99
109845.98
109845.96
109845.95
109845.93
109845.92
109845.9
109845.89
109845.87
109845.86
109845.84
109845.82
109845.8
109845.78
109845.77
109845.75
109845.73
109845.7
109845.68
109845.66
109845.64
109845.62
109845.59
109845.57
109845.54
109845.52
109845.49
109845.46
109845.44
109845.41
109845.38
109845.35
109845.32
109845.29
109845.25
109845.22
109845.18
109845.15
109845.11
109845.08
109845.04
109845
109844.96
109844.92
109844.88
109844.83
109844.79
109844.74
109844.7
109844.65
109844.6
109844.55
109844.5
109844.44
109844.39
109844.33
109844.28
109844.22
109844.16
109844.1
109844.03
109843.97
109843.9
109843.84
109843.77
109843.7
109843.62
109843.55
109843.47
109843.39
109843.31
109843.23
109843.15
109843.06
109842.98
109842.89
109842.79
109842.7
109842.6
109842.51
109842.41
109842.3
109842.2
109842.09
109841.98
109841.87
109841.75
109841.63
109841.51
109841.39
109841.26
109841.14
109841
109840.87
109840.73
109840.59
109840.45
109840.3
109840.15
109840
109839.84
109839.69
109839.52
109839.36
109839.19
109839.01
109838.84
109838.66
109838.47
109838.28
109838.09
109837.89
109837.69
109837.49
109837.28
109837.07
109836.85
109836.63
109836.41
109836.18
109835.94
109835.7
109835.46
109835.21
109834.95
109834.7
109834.43
109834.16
109833.89
109833.61
109833.33
109833.04
109832.74
109832.44
109832.13
109831.82
109831.5
109831.18
109830.85
109830.52
109830.17
109829.83
109829.47
109829.11
109828.74
109828.37
109827.99
109827.6
109827.21
109826.81
109826.4
109825.99
109825.57
109825.14
109824.7
109824.26
109823.81
109823.35
109822.88
109822.41
109821.93
109821.44
109820.94
109820.43
109819.92
109819.4
109818.87
109818.33
109817.78
109817.22
109816.66
109816.08
109815.5
109814.91
109814.31
109813.7
109813.08
109812.45
109811.81
109811.17
109810.51
109809.84
109809.17
109808.48
109807.79
109807.08
109806.36
109805.64
109804.9
109804.15
109803.4
109802.63
109801.85
109801.06
109800.26
109799.45
109798.63
109797.8
109796.95
109796.1
109795.23
109794.35
109793.47
109792.57
109791.65
109790.73
109789.8
109788.85
109787.89
109786.92
109785.94
109784.95
109783.94
109782.92
109781.9
109780.85
109779.8
109778.73
109777.66
109776.56
109775.46
109774.35
109773.22
109772.08
109770.92
109769.76
109768.58
109767.39
109766.18
109764.97
109763.74
109762.5
109761.24
109759.97
109758.69
109757.4
109756.09
109754.77
109753.44
109752.1
109750.74
109749.37
109747.98
109746.59
109745.18
109743.75
109742.32
109740.87
109739.41
109737.93
109736.45
109734.95
109733.43
109731.91
109730.37
109728.82
109727.25
109725.68
109724.09
109722.48
109720.87
109719.24
109717.6
109715.95
109714.29
109712.61
109710.92
109709.22
109707.5
109705.78
109704.04
109702.29
109700.53
109698.75
109696.97
109695.17
109693.36
109691.54
109689.71
109687.87
109686.01
109684.15
109682.27
109680.38
109678.48
109676.57
109674.65
109672.72
109670.78
109668.83
109666.87
109664.9
109662.92
109660.92
109658.92
109656.91
109654.89
109652.86
109650.82
109648.78
109646.72
109644.66
109642.58
109640.5
109638.41
109636.31
109634.2
109632.09
109629.97
109627.84
109625.7
109623.56
109621.4
109619.25
109617.08
109614.91
109612.73
109610.55
109608.36
109606.16
109603.96
109601.76
109599.54
109597.33
109595.1
109592.88
109590.65
109588.41
109586.17
109583.93
109581.68
109579.43
109577.18
109574.92
109572.66
109570.4
109568.13
109565.86
109563.59
109561.32
109559.05
109556.77
109554.5
109552.22
109549.94
109547.66
109545.38
109543.1
109540.82
109538.54
109536.26
109533.98
109531.7
109529.43
109527.15
109524.87
109522.6
109520.33
109518.06
109515.79
109513.53
109511.27
109509.01
109506.75
109504.5
109502.25
109500
109497.76
109495.52
109493.29
109491.06
109488.83
109486.61
109484.4
109482.19
109479.98
109477.78
109475.59
109473.4
109471.22
109469.05
109466.88
109464.72
109462.57
109460.42
109458.28
109456.15
109454.02
109451.91
109449.8
109447.7
109445.6
109443.52
109441.45
109439.38
109437.32
109435.27
109433.23
109431.21
109429.19
109427.18
109425.18
109423.19
109421.21
109419.24
109417.28
109415.33
109413.39
109411.46
109409.55
109407.64
109405.75
109403.87
109402
109400.14
109398.29
109396.45
109394.63
109392.82
109391.02
109389.23
109387.46
109385.69
109383.94
109382.21
109380.48
109378.77
109377.07
109375.38
109373.71
109372.05
109370.4
109368.77
109367.15
109365.54
109363.94
109362.36
109360.8
109359.24
109357.7
109356.17
109354.66
109353.16
109351.68
109350.2
109348.74
109347.3
109345.87
109344.45
109343.05
109341.66
109340.28
109338.92
109337.57
109336.24
109334.92
109333.61
109332.32
109331.04
109329.77
109328.52
109327.28
109326.06
109324.85
109323.65
109322.47
109321.3
109320.14
109319
109317.87
109316.76
109315.66
109314.57
109313.49
109312.43
109311.38
109310.35
109309.33
109308.32
109307.32
109306.34
109305.37
109304.41
109303.47
109302.54
109301.62
109300.71
109299.82
109298.94
109298.07
109297.21
109296.37
109295.53
109294.71
109293.9
109293.11
109292.32
109291.55
109290.79
109290.04
109289.3
109288.58
109287.86
109287.16
109286.46
109285.78
109285.11
109284.45
109283.8
109283.16
109282.53
109281.91
109281.3
109280.7
109280.12
109279.54
109278.97
109278.41
109277.86
109277.32
109276.8
109276.27
109275.76
109275.26
109274.77
109274.29
109273.81
109273.35
109272.89
109272.44
109272
109271.57
109271.14
109270.73
109270.32
109269.92
109269.53
109269.14
109268.77
109268.4
109268.03
109267.68
109267.33
109266.99
109266.66
109266.33
109266.01
109265.7
109265.39
109265.09
109264.8
109264.51
109264.23
109263.96
109263.69
109263.42
109263.17
109262.91
109262.67
109262.43
109262.19
109261.96
109261.74
109261.52
109261.3
109261.09
109260.89
109260.69
109260.49
109260.3
109260.12
109259.94
109259.76
109259.59
109259.42
109259.25
109259.09
109258.94
109258.78
109258.64
109258.49
109258.35
109258.21
109258.08
109257.95
109257.82
109257.7
109257.57
109257.46
109257.34
109257.23
109257.12
109257.02
109256.91
109256.81
109256.72
109256.62
109256.53
109256.44
109256.35
109256.27
109256.19
109256.11
109256.03
109255.95
109255.88
109255.81
109255.74
109255.67
109255.61
109255.55
109255.49
109255.43
109255.37
109255.31
109255.26
109255.21
109255.15
109255.1
109255.06
109255.01
109254.97
109254.92
109254.88
109254.84
109254.8
109254.76
109254.72
109254.69
109254.65
109254.62
109254.59
109254.55
109254.52
109254.49
109254.47
109254.44
109254.41
109254.39
109254.36
109254.34
109254.31
109254.29
109254.27
109254.25
109254.23
109254.21
109254.19
109254.17
109254.15
109254.14
109254.12
109254.1
109254.09
109254.07
109254.06
109254.04
109254.03
109254.02
109254.01
109253.99
109253.98
109253.97
109253.96
109253.95
109253.94
109253.93
109253.92
109253.91
109253.9
109253.89
109253.88
109253.88
109253.87
109253.86
109253.85
109253.85
109253.84
109253.83
109253.83
109253.82
109253.81
109253.81
109253.8
109253.8
109253.79
109253.79
109253.78
109253.78
109253.77
109253.77
109253.76
109253.76
109253.75
109253.75
109253.74
109253.74
109253.74
109253.73
109253.73
109253.72
109253.72
109253.72
109253.71
109253.71
109253.7
109253.7
109253.7
109253.69
109253.69
109253.69
109253.68
109253.68
109253.68
109253.67
109253.67
109253.67
109253.66
109253.66
109253.65
109253.65
109253.65
109253.64
109253.64
109253.64
109253.63
109253.63
109253.63
109253.62
109253.62
109253.62
109253.61
109253.61
109253.61
109253.6
109253.6
109253.59
109253.59
109253.59
109253.58
109253.58
109253.58
109253.57
109253.57
109253.56
109253.56
109253.56
109253.55
109253.55
109253.54
109253.54
109253.54
109253.53
109253.53
109253.52
109253.52
109253.51
109253.51
109253.5
109253.5
109253.5
109253.49
109253.49
109253.48
109253.48
109253.47
109253.47
109253.46
109253.46
109253.45
109253.45
109253.44
109253.44
109253.43
109253.43
109253.42
109253.42
109253.41
109253.41
109253.4
109253.4
109253.39
109253.39
109253.38
109253.37
109253.37
109253.36
109253.36
109253.35
109253.35
109253.34
109253.33
109253.33
109253.32
109253.32
109253.31
109253.3
109253.3
109253.29
109253.29
109253.28
109253.27
109253.27
109253.26
109253.25
109253.25
109253.24
109253.23
109253.23
109253.22
109253.21
109253.21
109253.2
109253.19
109253.19
109253.18
109253.17
109253.17
109253.16
109253.15
109253.15
109253.14
109253.13
109253.12
109253.12
109253.11
109253.1
109253.09
109253.09
109253.08
109253.07
109253.06
109253.06
109253.05
109253.04
109253.03
109253.03
109253.02
109253.01
109253
109252.99
109252.99
109252.98
109252.97
109252.96
109252.95
109252.95
109252.94
109252.93
109252.92
109252.91
109252.9
109252.9
109252.89
109252.88
109252.87
109252.86
109252.85
109252.84
109252.84
109252.83
109252.82
109252.81
109252.8
109252.79
109252.78
109252.77
109252.76
109252.76
109252.75
109252.74
109252.73
109252.72
109252.71
109252.7
109252.69
109252.68
109252.67
109252.66
109252.65
109252.65
109252.64
109252.63
109252.62
109252.61
109252.6
109252.59
109252.58
109252.57
109252.56
109252.55
109252.54
109252.53
109252.52
109252.51
109252.5
109252.49
109252.48
109252.47
109252.46
109252.45
109252.44
109252.43
109252.42
109252.41
109252.4
109252.39
109252.38
109252.37
109252.36
109252.35
109252.34
109252.33
109252.32
109252.31
109252.3
109252.28
109252.27
109252.26
109252.25
109252.24
109252.23
109252.22
109252.21
109252.2
109252.19
109252.18
109252.17
109252.16
109252.15
109252.14
109252.12
109252.11
109252.1
109252.09
109252.08
109252.07
109252.06
109252.05
109252.04
109252.03
109252.02
109252
109251.99
109251.98
109251.97
109251.96
109251.95
109251.94
109251.93
109251.92
109251.9
109251.89
109251.88
109251.87
109251.86
109251.85
109251.84
109251.83
109251.81
109251.8
109251.79
109251.78
109251.77
109251.76
109251.75
109251.74
109251.72
109251.71
109251.7
109251.69
109251.68
109251.67
109251.66
109251.64
109251.63
109251.62
109251.61
109251.6
109251.59
109251.58
109251.57
109251.55
109251.54
109251.53
109251.52
109251.51
109251.5
109251.49
109251.47
109251.46
109251.45
109251.44
109251.43
109251.42
109251.41
109251.39
109251.38
109251.37
109251.36
109251.35
109251.34
109251.33
109251.32
109251.3
109251.29
109251.28
109251.27
109251.26
109251.25
109251.24
109251.23
109251.21
109251.2
109251.19
109251.18
109251.17
109251.16
109251.15
109251.14
109251.12
109251.11
109251.1
109251.09
109251.08
109251.07
109251.06
109251.05
109251.04
109251.03
109251.01
109251
109250.99
109250.98
109250.97
109250.96
109250.95
109250.94
109250.93
109250.92
109250.91
109250.9
109250.88
109250.87
109250.86
109250.85
109250.84
109250.83
109250.82
109250.81
109250.8
109250.79
109250.78
109250.77
109250.76
109250.75
109250.74
109250.73
109250.72
109250.71
109250.7
109250.69
109250.68
109250.67
109250.66
109250.65
109250.64
109250.63
109250.62
109250.61
109250.6
109250.59
109250.58
109250.57
109250.56
109250.55
109250.54
109250.53
109250.52
109250.51
109250.5
109250.49
109250.48
109250.47
109250.46
109250.45
109250.44
109250.43
109250.43
109250.42
109250.41
109250.4
109250.39
109250.38
109250.37
109250.36
109250.35
109250.34
109250.34
109250.33
109250.32
109250.31
109250.3
109250.29
109250.28
109250.27
109250.27
109250.26
109250.25
109250.24
109250.23
109250.22
109250.22
109250.21
109250.2
109250.19
109250.18
109250.18
109250.17
109250.16
109250.15
109250.14
109250.14
109250.13
109250.12
109250.11
109250.11
109250.1
109250.09
109250.08
109250.07
109250.07
109250.06
109250.05
109250.05
109250.04
109250.03
109250.02
109250.02
109250.01
109250
109250
109249.99
109249.98
109249.98
109249.97
109249.96
109249.95
109249.95
109249.94
109249.94
109249.93
109249.92
109249.92
109249.91
109249.9
109249.9
109249.89
109249.88
109249.88
109249.87
109249.87
109249.86
109249.85
109249.85
109249.84
109249.84
109249.83
109249.82
109249.82
109249.81
109249.81
109249.8
109249.8
109249.79
109249.78
109249.78
109249.77
109249.77
109249.76
109249.76
109249.75
109249.75
109249.74
109249.74
109249.73
109249.73
109249.72
109249.72
109249.71
109249.71
109249.7
109249.7
109249.69
109249.69
109249.68
109249.68
109249.67
109249.67
109249.66
109249.66
109249.66
109249.65
109249.65
109249.64
109249.64
109249.63
109249.63
109249.62
109249.62
109249.62
109249.61
109249.61
109249.6
109249.6
109249.6
109249.59
109249.59
109249.58
109249.58
109249.58
109249.57
109249.57
109249.56
109249.56
109249.56
109249.55
109249.55
109249.54
109249.54
109249.54
109249.53
109249.53
109249.53
109249.52
109249.52
109249.52
109249.51
109249.51
109249.5
109249.5
109249.5
109249.49
109249.49
109249.49
109249.48
109249.48
109249.48
109249.47
109249.47
109249.47
109249.46
109249.46
109249.46
109249.45
109249.45
109249.45
109249.44
109249.44
109249.44
109249.43
109249.43
109249.42
109249.42
109249.42
109249.41
109249.41
109249.41
109249.4
109249.4
109249.4
109249.39
109249.39
109249.38
109249.38
109249.38
109249.37
109249.37
109249.36
109249.36
109249.36
109249.35
109249.35
109249.34
109249.34
109249.34
109249.33
109249.33
109249.32
109249.32
109249.31
109249.31
109249.3
109249.3
109249.29
109249.29
109249.28
109249.28
109249.27
109249.27
109249.26
109249.26
109249.25
109249.24
109249.24
109249.23
109249.23
109249.22
109249.22
109249.21
109249.2
109249.2
109249.19
109249.18
109249.18
109249.17
109249.17
109249.16
109249.15
109249.14
109249.14
109249.13
109249.12
109249.11
109249.1
109249.1
109249.09
109249.08
109249.07
109249.06
109249.05
109249.05
109249.04
109249.03
109249.02
109249.01
109249
109248.99
109248.98
109248.97
109248.96
109248.95
109248.94
109248.92
109248.91
109248.9
109248.89
109248.88
109248.87
109248.85
109248.84
109248.83
109248.81
109248.8
109248.79
109248.77
109248.75
109248.74
109248.72
109248.71
109248.7
109248.69
109248.66
109248.65
109248.63
109248.62
109248.6
109248.58
109248.56
109248.54
109248.52
109248.5
109248.48
109248.46
109248.44
109248.42
109248.4
109248.38
109248.36
109248.33
109248.31
109248.29
109248.26
109248.24
109248.22
109248.19
109248.16
109248.14
109248.11
109248.09
109248.06
109248.03
109248
109247.97
109247.94
109247.91
109247.88
109247.85
109247.82
109247.79
109247.75
109247.72
109247.69
109247.65
109247.62
109247.58
109247.54
109247.51
109247.47
109247.43
109247.39
109247.35
109247.31
109247.27
109247.22
109247.18
109247.14
109247.09
109247.05
109247
109246.95
109246.9
109246.85
109246.81
109246.75
109246.7
109246.65
109246.6
109246.54
109246.49
109246.43
109246.37
109246.32
109246.26
109246.2
109246.14
109246.08
109246.01
109245.95
109245.88
109245.82
109245.75
109245.68
109245.61
109245.54
109245.47
109245.4
109245.32
109245.25
109245.17
109245.09
109245.02
109244.94
109244.85
109244.77
109244.69
109244.6
109244.52
109244.43
109244.34
109244.25
109244.16
109244.07
109243.97
109243.88
109243.78
109243.68
109243.58
109243.48
109243.37