/*--------------------------------*- C++ -*----------------------------------*\
| =========                 |                                                 |
| \\      /  F ield         | OpenFOAM: The Open Source CFD Toolbox           |
|  \\    /   O peration     | Version:  4.x                                   |
|   \\  /    A nd           | Web:      www.OpenFOAM.org                      |
|    \\/     M anipulation  |                                                 |
\*---------------------------------------------------------------------------*/
FoamFile
{
    version     2.0;
    format      ascii;
    class       volScalarField;
    location    "0.37";
    object      rho;
}
// * * * * * * * * * * * * * * * * * * * * * * * * * * * * * * * * * * * * * //

dimensions      [1 -3 0 0 0 0 0];

internalField   nonuniform List<scalar> 
6279
(
1.158630986
1.15863092
1.158630987
1.158631329
1.158632084
1.158632772
1.158632951
1.158632489
1.15863165
1.15863078
1.15863029
1.158630152
1.158631042
1.158631055
1.158631178
1.158631432
1.158631745
1.158632022
1.158632094
1.158631852
1.158631414
1.158631005
1.158630823
1.158630767
1.158631209
1.158631333
1.158631459
1.15863154
1.158631596
1.158631713
1.158631831
1.158631788
1.158631596
1.1586315
1.158631537
1.158631539
1.158631338
1.158631531
1.158631617
1.1586316
1.158631602
1.158631759
1.158632014
1.158632123
1.158632118
1.158632184
1.15863222
1.158632143
1.158631061
1.158631025
1.15863111
1.158631435
1.158632125
1.158632757
1.158632889
1.158632471
1.158631668
1.158630855
1.158630348
1.158630126
1.158631109
1.158631137
1.158631221
1.158631452
1.158631764
1.158632026
1.158632086
1.158631841
1.158631406
1.158631013
1.158630808
1.158630711
1.158631318
1.158631428
1.158631478
1.158631539
1.158631582
1.158631679
1.158631749
1.158631662
1.158631469
1.158631389
1.158631422
1.158631426
1.158631506
1.158631658
1.158631671
1.1586316
1.158631557
1.158631653
1.158631803
1.158631848
1.158631837
1.158631914
1.158632045
1.158632071
1.158631127
1.158631129
1.158631216
1.158631545
1.158632179
1.158632731
1.158632843
1.158632457
1.158631697
1.15863092
1.158630387
1.158630106
1.15863118
1.158631221
1.158631304
1.158631528
1.15863181
1.158632067
1.158632114
1.158631861
1.15863143
1.158631035
1.158630791
1.158630639
1.158631398
1.15863147
1.158631501
1.158631538
1.158631586
1.158631684
1.158631721
1.158631607
1.158631414
1.158631285
1.158631268
1.158631249
1.158631637
1.158631723
1.158631687
1.158631588
1.158631543
1.158631594
1.158631678
1.158631675
1.158631632
1.158631683
1.158631808
1.158631872
1.158631205
1.158631204
1.158631302
1.158631637
1.158632214
1.158632701
1.158632799
1.158632439
1.15863172
1.158630981
1.158630433
1.158630094
1.158631249
1.158631302
1.158631385
1.158631596
1.158631888
1.158632139
1.158632167
1.15863191
1.158631475
1.158631065
1.158630777
1.158630571
1.158631437
1.158631499
1.158631524
1.158631558
1.158631634
1.158631734
1.158631729
1.158631594
1.158631386
1.158631217
1.158631152
1.158631088
1.158631679
1.158631731
1.158631669
1.158631576
1.158631547
1.158631584
1.15863161
1.158631562
1.158631494
1.158631508
1.158631581
1.158631648
1.158631214
1.158631215
1.158631338
1.158631692
1.158632238
1.15863263
1.158632705
1.158632403
1.15863175
1.158631042
1.158630469
1.158630057
1.158631254
1.158631306
1.158631408
1.158631646
1.158631965
1.158632203
1.158632223
1.158631975
1.158631526
1.158631086
1.158630741
1.158630463
1.158631419
1.158631481
1.158631516
1.158631585
1.158631698
1.158631796
1.158631776
1.158631618
1.158631386
1.158631167
1.158631003
1.158630876
1.158631658
1.158631685
1.158631625
1.158631573
1.158631568
1.158631592
1.15863159
1.158631522
1.158631422
1.15863135
1.158631349
1.158631366
1.158631252
1.158631296
1.158631483
1.158631836
1.158632274
1.158632574
1.158632629
1.158632402
1.158631871
1.158631266
1.1586307
1.158630193
1.15863128
1.158631348
1.158631516
1.158631792
1.158632124
1.158632326
1.158632341
1.158632143
1.158631726
1.15863126
1.15863086
1.15863048
1.158631373
1.158631449
1.158631549
1.158631703
1.15863188
1.158631982
1.158631957
1.158631796
1.158631521
1.158631241
1.158630998
1.158630732
1.158631563
1.158631593
1.158631611
1.158631643
1.158631691
1.158631713
1.158631679
1.158631599
1.158631465
1.15863133
1.158631219
1.158631082
1.158631159
1.158631198
1.15863135
1.158631685
1.158632099
1.158632385
1.158632425
1.158632162
1.158631604
1.158630963
1.158630385
1.158630072
1.158631235
1.158631292
1.158631429
1.158631663
1.158631958
1.158632129
1.158632119
1.15863189
1.158631457
1.158631014
1.15863063
1.158630403
1.158631388
1.158631436
1.158631518
1.158631626
1.15863173
1.158631782
1.15863174
1.158631596
1.158631359
1.15863111
1.158630888
1.158630714
1.158631588
1.158631595
1.158631603
1.158631596
1.158631598
1.158631594
1.158631563
1.15863149
1.158631354
1.158631215
1.158631102
1.158631027
1.158631067
1.158631068
1.158631168
1.158631448
1.158631812
1.158632051
1.158632042
1.158631702
1.158631108
1.158630525
1.158630138
1.158629973
1.158631212
1.158631225
1.158631317
1.158631497
1.158631675
1.158631757
1.158631699
1.158631473
1.158631129
1.158630782
1.158630504
1.158630358
1.158631463
1.158631461
1.158631478
1.15863151
1.158631536
1.158631535
1.158631485
1.158631365
1.158631173
1.158630978
1.15863082
1.158630747
1.15863167
1.158631642
1.158631592
1.158631524
1.158631478
1.15863145
1.158631414
1.158631345
1.158631236
1.158631119
1.158631061
1.158631056
1.158631051
1.158630973
1.158630991
1.158631194
1.158631523
1.158631734
1.158631693
1.158631343
1.158630791
1.158630291
1.158630022
1.158629985
1.158631279
1.158631238
1.158631225
1.158631313
1.158631441
1.158631507
1.158631441
1.158631219
1.158630902
1.158630607
1.158630446
1.158630437
1.1586315
1.158631507
1.158631476
1.158631433
1.158631406
1.158631384
1.158631333
1.158631217
1.158631046
1.158630905
1.158630843
1.158630837
1.158631623
1.158631629
1.158631601
1.158631524
1.158631433
1.158631378
1.158631336
1.158631271
1.158631169
1.158631077
1.158631039
1.158631034
1.15863077
1.158630703
1.158630754
1.158630881
1.158631111
1.158631296
1.158631239
1.158630876
1.158630349
1.158629931
1.158629839
1.158629964
1.158630949
1.158631037
1.158631071
1.158631024
1.158631011
1.158631018
1.158630944
1.158630762
1.158630555
1.158630391
1.158630293
1.158630361
1.15863111
1.158631195
1.158631213
1.158631114
1.158630987
1.158630931
1.15863088
1.158630794
1.158630696
1.158630613
1.158630533
1.158630575
1.158631143
1.158631175
1.158631114
1.158631044
1.158631006
1.158630971
1.158630924
1.158630845
1.158630714
1.158630624
1.158630616
1.158630692
1.158630475
1.15862983
1.158629779
1.158629884
1.158630252
1.158630607
1.158630565
1.158630009
1.158629208
1.158628752
1.15862876
1.158629643
1.158630413
1.158629913
1.15862996
1.158630077
1.158630249
1.158630399
1.158630328
1.158629977
1.158629496
1.15862918
1.158629168
1.15862988
1.158630353
1.158630041
1.158630147
1.158630206
1.158630205
1.158630186
1.158630109
1.158629941
1.158629706
1.158629488
1.158629454
1.158629995
1.158630288
1.15863003
1.158630152
1.158630196
1.158630156
1.158630125
1.158630066
1.158629943
1.158629778
1.158629612
1.158629594
1.15863001
1.158630352
1.158630182
1.158630374
1.158630504
1.158630593
1.158630618
1.158630547
1.158630381
1.15863017
1.158629993
1.158629936
1.158630183
1.158629116
1.158629223
1.158628877
1.158628922
1.158629188
1.158629541
1.158629479
1.158628854
1.158628164
1.15862792
1.158628688
1.15862881
1.158628973
1.158629207
1.158629199
1.158629272
1.158629248
1.158629344
1.158629258
1.158628908
1.158628659
1.158628571
1.158628939
1.158628896
1.158628968
1.158629496
1.158629582
1.158629386
1.158629224
1.158629153
1.158629068
1.158628944
1.158628946
1.158629183
1.158629311
1.158629048
1.158629281
1.158629575
1.158629513
1.158629278
1.15862927
1.158629251
1.158629139
1.15862899
1.158628944
1.158629215
1.158629472
1.158629329
1.158629635
1.158629256
1.158628933
1.15862895
1.158629053
1.158629042
1.158628906
1.158628755
1.158628688
1.158628811
1.158629225
1.158629658
1.158631268
1.158631329
1.15863158
1.158631867
1.15863155
1.158631719
1.158632112
1.158632392
1.158631775
1.158631913
1.158632255
1.158632386
1.158631672
1.158631695
1.158631858
1.158631786
1.158631228
1.15863121
1.158631301
1.158631276
1.158632165
1.158632198
1.158632313
1.158632415
1.158631257
1.158631364
1.158631668
1.158631986
1.158631479
1.158631674
1.158632055
1.158632324
1.158631647
1.158631776
1.158632097
1.158632217
1.158631548
1.158631561
1.158631666
1.158631548
1.158631174
1.158631127
1.158631164
1.15863113
1.158632111
1.158632149
1.158632238
1.158632323
1.158631258
1.158631388
1.158631687
1.158632008
1.158631406
1.158631597
1.158631979
1.158632223
1.15863154
1.158631684
1.158631985
1.158632097
1.15863146
1.158631499
1.158631581
1.158631465
1.1586311
1.158631047
1.158631077
1.158631026
1.158631986
1.158632038
1.15863216
1.158632217
1.15863126
1.158631379
1.158631651
1.158631962
1.158631349
1.158631542
1.158631875
1.158632111
1.158631453
1.158631616
1.158631863
1.158631976
1.15863139
1.158631436
1.158631488
1.158631378
1.158631116
1.158631053
1.158631054
1.15863105
1.158631934
1.158632007
1.158632104
1.158632331
1.158631241
1.15863134
1.158631582
1.158631863
1.158631288
1.158631469
1.158631761
1.158631988
1.158631379
1.158631512
1.158631744
1.158631892
1.158631294
1.158631348
1.158631454
1.158631386
1.158630963
1.158630893
1.15863092
1.158630882
1.158631522
1.158631572
1.158631679
1.158631642
1.15863123
1.158631299
1.158631452
1.158631701
1.158631196
1.158631328
1.158631554
1.158631802
1.158631263
1.158631394
1.158631598
1.158631783
1.158631176
1.15863124
1.158631401
1.158631491
1.158631074
1.158631063
1.158631143
1.158631478
1.158631603
1.158631942
1.158632305
1.158633565
1.158631902
1.158631892
1.158631812
1.158631638
1.15863153
1.158631626
1.158631873
1.158632043
1.158632151
1.158632322
1.158632406
1.158632307
1.158632229
1.158632031
1.158631835
1.158631589
1.158631412
1.158631458
1.158631644
1.158631804
1.158631946
1.158632123
1.158632203
1.158632111
1.158632063
1.158631775
1.158631534
1.158631333
1.158631295
1.158631401
1.158631495
1.158631466
1.158631444
1.158631497
1.158631571
1.158631641
1.158631323
1.158630974
1.158630839
1.158630946
1.158631246
1.158631423
1.158631348
1.158631004
1.158630845
1.158630883
1.158631043
1.158631266
1.15863102
1.158630776
1.158630768
1.158630983
1.158631321
1.158631392
1.158631091
1.158630849
1.158630816
1.158630928
1.158631084
1.158631224
1.158632341
1.158632219
1.158632237
1.158632356
1.158632397
1.158632287
1.158632107
1.1586321
1.158632239
1.158632407
1.158632494
1.158632527
1.158632035
1.158631983
1.158631865
1.158631656
1.158631522
1.158631557
1.158631704
1.158631801
1.158631872
1.158632033
1.158632186
1.158632226
1.158632227
1.158632074
1.158631869
1.158631625
1.158631448
1.158631448
1.158631581
1.158631676
1.158631762
1.158631901
1.158632024
1.158632048
1.15863199
1.158631773
1.158631561
1.158631382
1.158631309
1.15863139
1.158631477
1.158631434
1.158631385
1.158631399
1.158631469
1.158631576
1.158631194
1.158630947
1.158630851
1.15863096
1.158631238
1.158631403
1.158631335
1.158630988
1.158630791
1.158630779
1.158630899
1.158631129
1.158630914
1.158630739
1.158630765
1.158630984
1.158631307
1.158631382
1.158631121
1.158630849
1.158630757
1.158630816
1.158630949
1.158631106
1.158632272
1.158632176
1.158632198
1.158632302
1.15863236
1.158632277
1.158632111
1.158632062
1.15863216
1.158632315
1.158632402
1.15863246
1.158632063
1.158632005
1.158631863
1.158631658
1.158631523
1.158631526
1.158631607
1.158631643
1.158631678
1.158631798
1.158631943
1.158632034
1.158632172
1.15863206
1.158631869
1.158631635
1.158631466
1.158631451
1.158631542
1.158631582
1.158631626
1.158631727
1.158631845
1.158631909
1.158631942
1.1586318
1.158631624
1.158631444
1.158631345
1.158631399
1.158631472
1.158631426
1.158631374
1.158631377
1.158631422
1.158631514
1.158631179
1.158631017
1.158630957
1.158631018
1.158631235
1.158631389
1.158631327
1.15863101
1.158630782
1.158630751
1.158630844
1.158631041
1.158630843
1.158630708
1.158630726
1.158630936
1.158631249
1.158631333
1.158631072
1.15863078
1.158630675
1.158630719
1.158630835
1.158630979
1.158632171
1.158632098
1.158632076
1.158632172
1.158632236
1.15863216
1.158631992
1.158631927
1.158632018
1.158632168
1.15863229
1.158632346
1.158632038
1.158631959
1.158631821
1.158631648
1.158631542
1.158631525
1.158631557
1.158631553
1.158631551
1.158631623
1.158631723
1.158631816
1.158632114
1.158632023
1.15863185
1.158631641
1.158631501
1.158631474
1.158631518
1.158631526
1.158631528
1.158631592
1.158631675
1.158631732
1.15863189
1.15863182
1.158631671
1.158631504
1.158631416
1.158631432
1.158631465
1.158631421
1.158631366
1.158631359
1.158631381
1.158631414
1.158631172
1.15863108
1.158631033
1.158631073
1.158631245
1.15863137
1.158631313
1.15863104
1.158630827
1.15863076
1.158630811
1.158630963
1.158630935
1.158630806
1.158630836
1.158631002
1.15863124
1.158631319
1.158631106
1.158630822
1.158630695
1.158630716
1.158630795
1.158630977
1.158632308
1.158632085
1.158632058
1.158632092
1.158632144
1.158632081
1.158631921
1.158631828
1.158631886
1.158632049
1.158632181
1.158632422
1.158631936
1.158631865
1.158631752
1.158631641
1.158631561
1.158631534
1.15863154
1.15863152
1.158631464
1.158631453
1.158631489
1.15863155
1.158632006
1.158631928
1.158631797
1.158631634
1.158631513
1.158631472
1.158631489
1.158631488
1.158631453
1.158631443
1.158631479
1.158631524
1.158631856
1.1586318
1.158631676
1.158631539
1.158631449
1.15863144
1.158631443
1.158631402
1.158631345
1.158631316
1.158631317
1.158631347
1.158631242
1.158631189
1.158631139
1.158631164
1.158631252
1.158631317
1.158631265
1.158631057
1.158630851
1.15863077
1.158630796
1.158630901
1.158630779
1.158630706
1.158630708
1.158630861
1.158631084
1.158631159
1.158630953
1.15863066
1.158630517
1.158630527
1.158630629
1.158630746
1.158631613
1.158631647
1.15863161
1.158631679
1.158631716
1.15863165
1.158631477
1.158631372
1.158631434
1.158631544
1.158631686
1.158631679
1.1586318
1.158631762
1.158631722
1.158631662
1.158631632
1.158631607
1.158631583
1.158631545
1.158631456
1.158631363
1.158631288
1.158631288
1.158631883
1.158631822
1.158631734
1.158631614
1.158631528
1.158631484
1.158631465
1.158631438
1.158631384
1.158631345
1.158631306
1.158631315
1.158631811
1.158631747
1.15863166
1.158631532
1.158631462
1.158631437
1.158631411
1.158631371
1.158631314
1.158631276
1.158631239
1.15863125
1.158631392
1.158631327
1.158631259
1.158631158
1.158631186
1.158631207
1.158631153
1.158631062
1.15863095
1.15863089
1.158630872
1.158630975
1.158631377
1.158630998
1.158630916
1.158630952
1.158631072
1.158631099
1.158630949
1.158630723
1.158630584
1.158630682
1.158630787
1.158631282
1.158633561
1.158632321
1.158632007
1.158631655
1.158631501
1.158631382
1.158631216
1.158631175
1.158631354
1.158631836
1.158632247
1.158633579
1.158632124
1.158631725
1.158631028
1.158630373
1.15863208
1.158631904
1.158631393
1.15863078
1.158631841
1.158631909
1.158631712
1.158631331
1.158631494
1.158631718
1.158631695
1.158631527
1.158631198
1.158631236
1.158631287
1.158631238
1.158632397
1.158632292
1.158632239
1.158632178
1.158632113
1.158631657
1.158630961
1.158630291
1.158632057
1.158631826
1.158631291
1.158630699
1.158631796
1.158631812
1.158631574
1.1586312
1.158631384
1.158631593
1.158631574
1.158631415
1.158631127
1.158631168
1.15863123
1.158631194
1.158632378
1.158632264
1.158632211
1.158632135
1.158631965
1.158631477
1.158630845
1.158630214
1.158631914
1.158631638
1.158631138
1.158630557
1.158631687
1.158631647
1.158631396
1.158631019
1.158631287
1.15863147
1.158631415
1.158631269
1.158631033
1.158631097
1.158631161
1.158631125
1.158632276
1.158632199
1.158632111
1.158632021
1.158631737
1.158631276
1.158630706
1.158630144
1.158631716
1.158631439
1.158630961
1.15863039
1.158631535
1.158631458
1.158631206
1.158630829
1.158631161
1.158631315
1.158631283
1.158631163
1.158631049
1.158631077
1.158631138
1.158631111
1.158632393
1.158632159
1.158632076
1.158631965
1.158631464
1.158631014
1.158630525
1.158630058
1.158631493
1.158631175
1.15863071
1.158630199
1.158631402
1.158631259
1.158630985
1.158630608
1.15863108
1.158631148
1.158631076
1.158630935
1.158630833
1.158630913
1.158630946
1.158630912
1.158631679
1.158631711
1.158631627
1.158631561
1.15863112
1.158630737
1.158630386
1.158630018
1.158631178
1.158630804
1.158630413
1.158630015
1.158631205
1.158630957
1.158630625
1.15863022
1.158631104
1.158630974
1.158630827
1.158630637
1.158631407
1.158631082
1.158631019
1.158630888
1.158633647
1.158632411
1.158632053
1.158631655
1.158616968
1.158619277
1.158618812
1.158618427
1.15861829
1.158618139
1.158617955
1.158617855
1.158617946
1.158618479
1.158619116
1.158616693
1.158619936
1.15862451
1.158624804
1.158624738
1.158624803
1.158624914
1.158624993
1.158624964
1.158624935
1.158624954
1.158624329
1.158619458
1.158619979
1.158625636
1.158626189
1.158625896
1.158626083
1.158626417
1.158626669
1.1586267
1.158626603
1.158626343
1.158625271
1.158619296
1.158619814
1.158625941
1.158626598
1.158626414
1.15862665
1.158626964
1.158627084
1.158627021
1.158626871
1.158626493
1.158625315
1.158618926
1.158619611
1.158625981
1.158626856
1.158626853
1.158627133
1.158627338
1.158627223
1.158626792
1.158626376
1.158626069
1.158625062
1.158618675
1.158619482
1.158625987
1.158627028
1.158627185
1.158627562
1.158627839
1.158627643
1.158626884
1.158626147
1.158625816
1.158624987
1.158618616
1.158619379
1.158625914
1.15862702
1.158627238
1.158627706
1.158628219
1.158628114
1.158627151
1.158626222
1.158625882
1.158625088
1.158618725
1.15861923
1.158625739
1.158626891
1.158627235
1.158627671
1.158628097
1.15862801
1.158627228
1.158626482
1.158626158
1.158625277
1.158618919
1.158619083
1.1586255
1.158626722
1.158627244
1.158627549
1.158627692
1.158627583
1.158627158
1.158626698
1.15862632
1.158625321
1.158619033
1.158619135
1.158625164
1.158626392
1.15862685
1.158627072
1.158627132
1.158627023
1.158626781
1.158626457
1.158626101
1.158625098
1.158619224
1.158619299
1.158624278
1.158625179
1.158625526
1.158625749
1.158625801
1.158625678
1.158625459
1.158625234
1.158624978
1.158624208
1.158619346
1.158616624
1.158619286
1.158619115
1.158619067
1.158619152
1.158619141
1.158619007
1.158618866
1.158618825
1.158619021
1.158619266
1.158616644
1.158620608
1.158620512
1.158620301
1.158620204
1.158620199
1.158620116
1.158619944
1.158619818
1.158619813
1.158620055
1.158620378
1.158620427
1.158620907
1.158623157
1.15862326
1.158623332
1.1586234
1.158623472
1.158623498
1.158623428
1.158623351
1.158623245
1.158622958
1.158620548
1.15862113
1.158624007
1.158624341
1.158624263
1.158624411
1.158624727
1.158624974
1.15862499
1.158624851
1.158624434
1.158623593
1.158620613
1.158621334
1.158624482
1.15862493
1.158624916
1.158625147
1.158625477
1.15862564
1.158625578
1.158625358
1.15862481
1.158623864
1.158620629
1.158621335
1.158624593
1.158625223
1.158625422
1.158625733
1.158625974
1.158625869
1.158625461
1.158624992
1.15862448
1.158623721
1.158620542
1.158621269
1.158624585
1.158625388
1.158625757
1.158626186
1.158626489
1.15862629
1.158625497
1.158624731
1.158624259
1.158623654
1.158620531
1.158621157
1.158624493
1.158625377
1.158625816
1.158626338
1.158626855
1.158626742
1.158625727
1.158624792
1.15862433
1.158623748
1.158620618
1.158620933
1.158624269
1.15862522
1.158625779
1.158626289
1.158626708
1.158626603
1.158625811
1.158625056
1.158624558
1.158623913
1.158620727
1.15862066
1.158623944
1.158625004
1.158625681
1.158626072
1.158626224
1.158626098
1.158625682
1.158625175
1.158624635
1.158623839
1.158620656
1.15862045
1.15862346
1.1586245
1.158625099
1.158625397
1.158625479
1.158625363
1.158625096
1.158624723
1.158624221
1.158623442
1.158620522
1.158620428
1.15862291
1.15862348
1.158623975
1.158624274
1.158624369
1.15862424
1.158623999
1.158623722
1.158623328
1.158622867
1.158620463
1.15862038
1.158620429
1.158620446
1.158620669
1.158620907
1.158620982
1.158620857
1.158620667
1.158620486
1.158620388
1.158620424
1.158620385
1.15862225
1.15862128
1.158621121
1.158621052
1.158621029
1.158620962
1.158620803
1.158620675
1.158620685
1.158620894
1.158621156
1.158622176
1.158621618
1.15862246
1.158622648
1.158622699
1.158622758
1.15862281
1.158622815
1.158622745
1.158622685
1.158622603
1.158622241
1.1586213
1.158621867
1.158623382
1.158623697
1.158623572
1.158623567
1.158623821
1.158624066
1.158624115
1.158624073
1.158623731
1.158622961
1.158621391
1.158622095
1.158623837
1.1586242
1.158624156
1.158624231
1.158624514
1.15862469
1.158624672
1.15862456
1.158624077
1.158623219
1.158621439
1.158622098
1.15862395
1.15862439
1.158624536
1.158624706
1.158624908
1.15862482
1.158624479
1.158624148
1.158623698
1.158623096
1.158621353
1.15862204
1.158623923
1.158624498
1.158624813
1.158625112
1.158625369
1.158625169
1.158624429
1.158623818
1.158623411
1.158623017
1.15862135
1.15862193
1.158623823
1.158624488
1.15862488
1.158625274
1.158625729
1.158625607
1.158624644
1.15862388
1.15862348
1.158623109
1.158621432
1.158621703
1.158623604
1.158624375
1.158624886
1.158625272
1.158625629
1.15862551
1.158624773
1.158624176
1.158623747
1.158623272
1.158621519
1.15862145
1.15862327
1.158624229
1.158624849
1.158625145
1.158625259
1.158625126
1.15862476
1.158624381
1.158623893
1.158623181
1.158621451
1.158621227
1.15862282
1.15862378
1.15862432
1.15862454
1.158624585
1.158624464
1.158624233
1.158623963
1.158623542
1.158622812
1.158621293
1.158621189
1.158622199
1.15862284
1.158623304
1.158623609
1.158623704
1.158623574
1.158623335
1.158623061
1.158622698
1.158622171
1.158621214
1.158622153
1.158621188
1.15862123
1.158621469
1.158621691
1.158621779
1.158621659
1.158621463
1.158621295
1.158621175
1.158621183
1.158622142
1.158622323
1.158621584
1.158621202
1.15862106
1.158620992
1.158620929
1.158620793
1.158620693
1.158620749
1.158621004
1.158621456
1.158622245
1.158621845
1.158622194
1.158622292
1.158622313
1.158622321
1.158622375
1.158622377
1.158622298
1.158622259
1.158622208
1.158621973
1.158621579
1.158621818
1.158622995
1.15862335
1.158623268
1.158623181
1.158623392
1.158623627
1.158623702
1.158623696
1.158623368
1.158622566
1.158621404
1.158621951
1.158623407
1.158623864
1.15862381
1.158623753
1.158623984
1.158624166
1.158624198
1.158624173
1.158623722
1.158622793
1.158621381
1.158621931
1.158623492
1.158623995
1.15862407
1.158624079
1.158624226
1.158624151
1.158623889
1.158623717
1.158623347
1.158622663
1.158621278
1.15862187
1.158623477
1.158624065
1.158624294
1.158624425
1.158624628
1.15862443
1.158623757
1.158623328
1.158623021
1.158622602
1.158621264
1.158621766
1.158623376
1.158624057
1.158624363
1.158624595
1.158624986
1.158624853
1.158623962
1.158623389
1.158623089
1.158622698
1.158621336
1.158621562
1.158623127
1.158623973
1.158624414
1.158624651
1.15862494
1.158624814
1.15862415
1.158623726
1.158623378
1.158622829
1.158621409
1.158621368
1.158622816
1.158623852
1.158624449
1.158624655
1.15862473
1.158624594
1.158624268
1.158623987
1.158623539
1.158622746
1.158621374
1.158621252
1.158622413
1.158623406
1.158623945
1.158624131
1.158624163
1.158624038
1.158623821
1.158623593
1.158623184
1.158622418
1.15862131
1.158621477
1.158621911
1.158622438
1.158622864
1.158623153
1.158623265
1.158623135
1.158622878
1.158622624
1.15862231
1.158621893
1.158621495
1.15862221
1.158621478
1.158621269
1.158621412
1.158621577
1.158621651
1.158621545
1.158621369
1.158621245
1.158621213
1.158621469
1.158622202
1.158622664
1.15862202
1.158621524
1.158621281
1.158621189
1.158621132
1.158621014
1.158620924
1.158621006
1.158621333
1.158621883
1.158622594
1.158622221
1.158622104
1.158622098
1.158622074
1.158622082
1.158622137
1.158622131
1.158622046
1.158622012
1.158621997
1.158621878
1.158621988
1.158622035
1.158622762
1.158623141
1.158623082
1.158622967
1.15862316
1.158623391
1.158623462
1.158623464
1.158623139
1.158622345
1.158621672
1.158622047
1.158623131
1.158623645
1.158623593
1.15862348
1.158623683
1.158623865
1.158623917
1.15862393
1.1586235
1.158622529
1.158621546
1.158622013
1.158623225
1.15862377
1.158623802
1.158623729
1.158623848
1.158623783
1.158623561
1.158623472
1.158623151
1.158622422
1.158621434
1.158621969
1.158623211
1.158623837
1.158624002
1.158624049
1.158624228
1.158624031
1.158623395
1.158623063
1.158622812
1.158622358
1.158621426
1.158621873
1.158623108
1.158623829
1.158624075
1.158624227
1.158624582
1.158624439
1.158623592
1.158623123
1.158622879
1.158622456
1.158621491
1.158621689
1.158622861
1.158623743
1.158624142
1.158624311
1.158624563
1.158624428
1.158623804
1.158623472
1.15862317
1.158622568
1.158621543
1.158621545
1.15862254
1.158623619
1.158624195
1.158624374
1.158624435
1.158624294
1.158623982
1.158623744
1.158623317
1.158622482
1.158621542
1.158621553
1.158622176
1.15862316
1.158623713
1.158623901
1.158623932
1.158623802
1.158623583
1.158623367
1.158622956
1.158622196
1.158621595
1.158621901
1.158621806
1.158622209
1.158622599
1.158622897
1.158623014
1.158622885
1.15862262
1.158622361
1.158622089
1.158621794
1.158621913
1.158622579
1.158621917
1.158621584
1.158621598
1.158621713
1.158621782
1.158621689
1.158621524
1.158621441
1.158621519
1.158621893
1.15862256
1.158622796
1.158622308
1.158621854
1.158621576
1.158621455
1.158621406
1.158621306
1.158621226
1.158621332
1.158621679
1.158622176
1.158622728
1.158622466
1.158622105
1.158622033
1.158621977
1.158621978
1.158622026
1.15862202
1.158621937
1.158621903
1.158621906
1.15862187
1.158622264
1.158622295
1.158622648
1.158622987
1.158622947
1.158622836
1.158623017
1.158623238
1.158623304
1.158623289
1.158622961
1.158622228
1.158621971
1.158622257
1.158622999
1.158623493
1.158623444
1.158623302
1.158623488
1.158623669
1.158623727
1.158623747
1.158623338
1.158622403
1.158621802
1.158622207
1.158623095
1.158623621
1.158623624
1.158623522
1.158623638
1.158623578
1.158623367
1.158623305
1.158623022
1.158622303
1.158621673
1.158622173
1.158623081
1.158623693
1.158623816
1.15862384
1.158624019
1.158623823
1.158623198
1.158622896
1.158622691
1.15862223
1.158621665
1.158622084
1.158622979
1.158623683
1.158623894
1.158624024
1.15862437
1.158624219
1.158623388
1.158622958
1.158622757
1.158622328
1.158621721
1.158621914
1.158622734
1.158623587
1.158623961
1.158624109
1.158624351
1.158624209
1.158623599
1.158623305
1.158623042
1.158622439
1.158621759
1.158621816
1.158622409
1.158623442
1.158624017
1.158624184
1.158624246
1.158624102
1.15862379
1.15862357
1.158623161
1.158622352
1.158621795
1.15862188
1.158622077
1.158622973
1.15862354
1.158623751
1.158623798
1.158623663
1.158623427
1.158623202
1.158622785
1.158622092
1.158621897
1.158622203
1.158621808
1.158622113
1.158622478
1.158622774
1.158622889
1.158622761
1.158622496
1.158622239
1.158621998
1.158621794
1.158622193
1.158622729
1.158622219
1.158621914
1.158621866
1.158621936
1.158622002
1.15862192
1.158621766
1.158621723
1.158621836
1.158622176
1.158622694
1.158622894
1.1586225
1.158622105
1.158621806
1.158621675
1.158621615
1.158621531
1.158621478
1.158621586
1.158621939
1.158622375
1.158622833
1.158622631
1.158622132
1.158622038
1.158621953
1.158621942
1.158621995
1.158621991
1.158621899
1.158621864
1.158621898
1.158621889
1.158622449
1.158622491
1.158622602
1.15862288
1.158622866
1.15862276
1.15862293
1.158623147
1.158623208
1.158623167
1.158622814
1.158622198
1.158622196
1.158622422
1.158622938
1.158623393
1.158623332
1.158623177
1.158623351
1.158623529
1.158623585
1.158623602
1.158623224
1.15862235
1.158622003
1.158622372
1.158623042
1.15862353
1.158623498
1.158623387
1.158623502
1.158623446
1.158623241
1.158623189
1.158622954
1.158622261
1.158621874
1.158622328
1.158623042
1.158623603
1.158623684
1.158623706
1.158623885
1.158623692
1.15862308
1.158622791
1.158622623
1.158622192
1.158621848
1.158622247
1.15862294
1.158623593
1.158623768
1.158623896
1.158624233
1.158624076
1.158623265
1.158622852
1.158622687
1.158622288
1.158621894
1.158622107
1.158622683
1.158623495
1.158623833
1.15862398
1.158624219
1.158624071
1.158623471
1.158623188
1.158622957
1.158622382
1.158621941
1.158622032
1.158622359
1.158623328
1.158623879
1.158624052
1.15862412
1.158623972
1.158623654
1.158623437
1.158623053
1.158622293
1.158621985
1.15862213
1.158622064
1.158622834
1.158623431
1.158623663
1.158623715
1.158623578
1.158623335
1.158623091
1.158622655
1.158622062
1.158622118
1.158622412
1.158621843
1.158622098
1.158622435
1.158622731
1.158622854
1.158622727
1.158622451
1.158622189
1.158621977
1.158621808
1.158622376
1.158622838
1.158622417
1.158622155
1.158622074
1.158622123
1.15862217
1.158622098
1.158621971
1.158621939
1.158622069
1.158622363
1.158622799
1.15862295
1.158622625
1.158622288
1.158621983
1.15862183
1.158621775
1.158621704
1.158621668
1.158621793
1.158622139
1.15862251
1.158622901
1.158622734
1.158622161
1.158622053
1.158621951
1.158621932
1.158621985
1.158621985
1.158621896
1.158621858
1.1586219
1.158621918
1.158622578
1.158622627
1.158622575
1.158622793
1.158622806
1.15862271
1.158622875
1.158623085
1.158623137
1.158623074
1.158622702
1.158622191
1.158622365
1.158622544
1.158622897
1.158623319
1.158623252
1.158623092
1.158623254
1.15862343
1.158623489
1.158623503
1.158623139
1.158622331
1.158622159
1.158622476
1.158623006
1.158623466
1.158623406
1.158623296
1.158623408
1.158623359
1.158623165
1.158623115
1.158622905
1.158622248
1.158622013
1.158622434
1.158623011
1.15862354
1.158623586
1.158623613
1.158623786
1.158623597
1.158623008
1.15862272
1.158622582
1.158622174
1.158621981
1.15862236
1.158622909
1.158623531
1.158623679
1.158623811
1.158624132
1.158623971
1.158623186
1.158622779
1.15862264
1.158622258
1.158622018
1.158622236
1.158622654
1.158623428
1.15862375
1.1586239
1.15862413
1.158623977
1.158623388
1.158623108
1.158622899
1.158622348
1.158622064
1.158622199
1.158622338
1.158623244
1.158623784
1.158623965
1.158624032
1.15862388
1.158623562
1.158623343
1.158622968
1.158622263
1.158622132
1.158622311
1.158622066
1.158622725
1.15862334
1.158623601
1.158623664
1.158623524
1.158623268
1.158623003
1.15862255
1.158622046
1.158622283
1.158622543