/*--------------------------------*- C++ -*----------------------------------*\
  =========                 |
  \\      /  F ield         | OpenFOAM: The Open Source CFD Toolbox
   \\    /   O peration     | Website:  https://openfoam.org
    \\  /    A nd           | Version:  7
     \\/     M anipulation  |
\*---------------------------------------------------------------------------*/
FoamFile
{
    version     2.0;
    format      ascii;
    class       volScalarField;
    location    "0.00133";
    object      Uy;
}
// * * * * * * * * * * * * * * * * * * * * * * * * * * * * * * * * * * * * * //

dimensions      [0 1 -1 0 0 0 0];

internalField   nonuniform List<scalar> 
5000
(
-7.1092723e-18
-7.9797303e-18
0
0
4.3536353e-18
-5.1067317e-33
-4.6346683e-18
0
0
5.0904153e-18
1.0503641e-17
-5.4181332e-18
-5.5894527e-18
5.7658804e-18
0
6.134472e-18
-1.5028212e-46
-6.5247413e-18
0
-6.9375374e-18
7.152652e-18
7.3737228e-18
-1.5201718e-17
7.8341717e-18
8.073771e-18
6.8573993e-32
-8.5722762e-18
-8.8314061e-18
1.8194542e-17
-1.6244968e-31
1.6866975e-31
-9.9364054e-18
-2.0460682e-17
2.1063155e-17
-1.8793967e-31
9.7027753e-31
3.9807094e-31
-2.3623598e-17
2.4302475e-17
2.4997308e-17
-2.570832e-17
9.0913192e-31
2.7179766e-17
-1.397032e-17
-4.3077859e-17
1.4756889e-17
1.5163236e-17
1.0670652e-30
3.2005162e-17
0
-1.6878153e-17
-2.4627096e-33
1.7790762e-17
-3.6522403e-17
6.5516776e-31
3.8461657e-17
-1.9730202e-17
6.9891467e-31
2.0758518e-17
0
-2.1826834e-17
-7.6316381e-31
-6.5187489e-33
-2.3505738e-17
2.4086061e-17
-8.6267058e-31
-2.5278167e-17
2.5890084e-17
2.6512661e-17
-2.7145956e-17
-2.7790026e-17
2.8444924e-17
2.91107e-17
-5.9574798e-17
-3.0475064e-17
3.1173736e-17
0
-3.2604235e-17
4.7373481e-33
3.4079139e-17
-3.4833303e-17
1.0117739e-32
-1.0338436e-32
-3.7162829e-17
-3.7961714e-17
-1.3499018e-30
3.9593061e-17
0
4.1269134e-17
4.3699026e-30
1.5028685e-30
-4.3866851e-17
-4.4754959e-17
9.1308236e-17
3.2225684e-30
-4.7485434e-17
0
0
5.0314215e-17
3.5561281e-30
-1.0450794e-16
5.323983e-17
1.084725e-16
0
-5.6260452e-17
-5.7288072e-17
5.832592e-17
5.9373904e-17
0
0
-6.2577666e-17
-6.3665171e-17
0
6.5868881e-17
-2.3417033e-30
-6.8110052e-17
6.9244369e-17
-2.0005377e-32
2.5009385e-30
-5.5891494e-47
-1.4774005e-16
3.1994812e-32
7.6233881e-17
0
7.8630149e-17
-7.9840042e-17
-8.1057556e-17
1.6456505e-16
8.351478e-17
-1.695083e-16
-8.6000455e-17
8.7253522e-17
8.851317e-17
8.9779216e-17
0
-9.232976e-17
-9.3613881e-17
9.4903649e-17
3.3356463e-30
-9.7499346e-17
9.8804884e-17
1.0011529e-16
0
-1.0274987e-16
-1.0407366e-16
1.054015e-16
-1.0673319e-16
6.1429846e-32
1.094073e-16
-1.1074931e-16
1.1209434e-16
-7.8993408e-30
-1.1479263e-16
1.1614548e-16
-1.1750051e-16
-1.1885752e-16
1.2021629e-16
0
0
1.2430112e-16
1.2566486e-16
-1.2702932e-16
-1.2839429e-16
1.2975957e-16
9.0933794e-30
-1.3249019e-16
1.3385513e-16
1.3521955e-16
0
-1.3794601e-16
-1.3930764e-16
0
1.4202671e-16
1.4338376e-16
0
-1.4609188e-16
-3.067497e-29
1.4879074e-16
-1.5013622e-16
-1.5147882e-16
1.5281835e-16
1.0646651e-29
-1.0694511e-29
-6.6854965e-32
-1.5814207e-16
1.594635e-16
2.2299963e-29
-1.1148894e-29
1.1238889e-29
-1.6470596e-16
0
0
1.6858762e-16
1.6987108e-16
0
0
-1.7368792e-16
5.9298472e-47
1.7620302e-16
0
-1.7869314e-16
1.7992849e-16
5.0200763e-29
-3.6475805e-16
1.8359395e-16
3.8368658e-29
2.6432536e-32
1.8719575e-16
-1.8838159e-16
2.6938075e-32
2.6399705e-29
-1.3280321e-29
1.9304791e-16
0
-1.9533319e-16
-1.359662e-29
-5.4837439e-29
-1.9869873e-16
0
2.008996e-16
2.0198689e-16
0
0
0
-2.0624612e-16
-1.4345752e-29
2.0832051e-16
0
0
-2.1136109e-16
-2.1235536e-16
2.1333987e-16
2.1431455e-16
0
-2.162341e-16
-2.1717883e-16
2.1811344e-16
2.1903786e-16
0
-2.2085589e-16
6.1575384e-29
1.5439327e-29
-2.2350492e-16
2.2436689e-16
2.2521825e-16
0
-2.268889e-16
3.1647361e-29
-2.2851644e-16
-3.180537e-29
4.6020097e-16
-2.3087607e-16
3.2128078e-29
8.0680543e-29
1.6134646e-29
2.3386775e-16
-2.3458778e-16
-2.3529658e-16
0
2.3668032e-16
2.3735517e-16
0
-2.3867066e-16
-2.3931122e-16
4.7988056e-16
2.405578e-16
-2.4116375e-16
-2.417581e-16
-6.7224344e-29
2.4291185e-16
-2.4347119e-16
1.6922452e-29
2.4455464e-16
-2.4507868e-16
1.7066377e-29
-1.713612e-29
7.0082182e-32
1.7062885e-29
-2.4752096e-16
0
0
2.4884293e-16
2.4925952e-16
0
0
0
0
-2.5116073e-16
-1.7334351e-29
5.036718e-16
-1.0750018e-31
-2.52462e-16
-2.5275659e-16
3.5131923e-29
3.5097396e-29
3.6033917e-32
2.5381119e-16
2.5404377e-16
2.5426387e-16
-5.0894294e-16
-7.639996e-16
2.5484903e-16
5.1003789e-16
0
-2.553209e-16
-2.5545288e-16
2.5557217e-16
-7.2668265e-32
1.0904239e-31
-7.2717954e-32
-2.5592177e-16
-2.5597714e-16
2.5601965e-16
5.1209852e-16
-2.5606595e-16
-2.9230967e-48
-2.5606005e-16
-7.0950803e-29
5.1200065e-16
0
0
-5.1162407e-16
1.4201835e-28
5.1124131e-16
0
-2.5537631e-16
-2.552342e-16
2.5507875e-16
-3.6224882e-32
3.5366412e-29
-3.6171189e-32
-2.5432303e-16
2.5410046e-16
2.5386437e-16
0
-2.5335153e-16
3.5136905e-29
2.5278425e-16
-5.0496024e-16
6.9948784e-29
2.5183075e-16
6.9832503e-29
5.022527e-16
-5.0150689e-16
-2.503667e-16
2.4996609e-16
3.5463411e-32
2.4912314e-16
0
0
-2.4775403e-16
3.4295791e-29
4.9354242e-16
-3.4995467e-32
-7.3719633e-16
2.451914e-16
2.4463655e-16
-4.8813509e-16
2.4348437e-16
-2.4288701e-16
-4.8455088e-16
2.4164965e-16
2.4100962e-16
2.4035535e-16
-2.3968682e-16
-7.1240525e-47
2.3830696e-16
-2.375956e-16
2.3686996e-16
-2.3613004e-16
-6.5225385e-29
-6.6679407e-32
-2.3382451e-16
4.6605486e-16
-2.3221608e-16
-6.4252524e-29
6.395378e-29
2.2969645e-16
4.576562e-16
-6.8383662e-16
-6.29824e-29
1.2545943e-28
-6.2409102e-29
4.4854733e-16
-4.4664085e-16
6.1679847e-29
4.4274371e-16
0
0
-2.1834438e-16
3.0140105e-29
2.1625688e-16
2.1519254e-16
-2.1411454e-16
-6.3906891e-16
2.1191788e-16
2.1079935e-16
5.9591077e-32
2.0852229e-16
0
-4.1238489e-16
-4.1001591e-16
2.0381055e-16
4.0520067e-16
2.0137742e-16
-4.002838e-16
-3.9778783e-16
3.9526713e-16
3.9272199e-16
0
-3.8755937e-16
1.9247123e-16
3.823022e-16
-1.8981945e-16
-1.8847643e-16
2.6591664e-32
-2.5790502e-29
-1.843808e-16
1.8299398e-16
1.8159665e-16
-1.80189e-16
2.4795201e-29
2.5202031e-32
2.4397815e-29
1.7445917e-16
-1.7300295e-16
7.1448885e-29
2.3611624e-29
4.6787554e-29
1.6708957e-16
-1.6559028e-16
2.2781306e-29
4.5072672e-29
2.2886027e-32
3.1903358e-16
1.5798064e-16
-1.5643791e-16
-3.097778e-16
2.1288883e-29
3.0354626e-16
1.5020696e-16
-2.9727134e-16
-1.4705955e-16
1.4547891e-16
1.4389407e-16
3.949514e-29
-1.4071305e-16
0
0
-1.3591801e-16
0
1.3270952e-16
-1.3110276e-16
-1.8402313e-32
3.5493194e-29
0
1.2466693e-16
-1.2305754e-16
-1.2144869e-16
2.3968146e-16
1.1823403e-16
-1.1662894e-16
0
0
1.11827e-16
-3.0624901e-29
-1.0864045e-16
0
0
1.0388999e-16
-4.2631129e-29
-1.0074683e-16
0
0
0
0
0
0
0
0
-1.738411e-16
-4.7416445e-29
8.3935173e-17
-8.2456366e-17
8.0987241e-17
-7.9528108e-17
2.1703253e-29
7.6641049e-17
2.0885353e-29
7.3797579e-17
0
0
-6.9619094e-17
-1.8951799e-29
6.6894399e-17
0
0
0
0
0
0
0
-1.1305059e-16
4.6029266e-29
1.0814784e-16
-5.2870378e-17
-7.3444277e-33
-5.0508374e-17
2.7365054e-29
9.641479e-17
4.7080104e-17
5.3239694e-47
-1.3461739e-16
0
8.5456053e-17
0
0
-7.9262328e-17
1.0716092e-29
1.1294119e-16
-3.6679255e-17
-3.5727632e-17
3.4792202e-17
-3.3872961e-17
3.2969896e-17
8.8996895e-30
-3.1212212e-17
3.0357524e-17
0
2.8696231e-17
-2.7889508e-17
-5.4197289e-17
2.6323564e-17
2.5564179e-17
2.4820398e-17
2.4092122e-17
-4.6758488e-17
-2.2681651e-17
2.1999223e-17
0
-2.0679357e-17
2.0041647e-17
1.9418564e-17
-5.6429876e-17
-5.1772071e-33
3.5271123e-17
-1.7069448e-17
-2.2932446e-30
-1.5978552e-17
4.3921263e-33
2.9883192e-17
-1.4442896e-17
0
3.7442712e-30
1.8507734e-33
1.2575563e-17
-1.2139632e-17
3.2532076e-30
1.5677678e-30
1.5493858e-33
1.0513559e-17
-1.013544e-17
-1.7421549e-47
2.6134826e-30
1.2883502e-33
1.7460803e-17
1.1657516e-30
-8.089448e-18
0
0
7.2003189e-18
2.8803671e-30
-6.6533649e-18
6.3930163e-18
-8.5263749e-31
-4.6131104e-47
7.8612092e-31
-5.4344453e-18
-5.2145179e-18
-6.9377914e-31
4.7969613e-18
0
0
-4.2235269e-18
4.0457474e-18
-3.2252854e-30
-3.70915e-18
3.5499813e-18
0
-3.2490403e-18
-3.1069315e-18
2.9701792e-18
2.8386219e-18
0
-2.5904628e-18
-2.4735543e-18
4.7224553e-18
2.2533357e-18
-2.1497367e-18
-2.0502915e-18
-2.7113534e-31
-1.8633166e-18
-4.9302748e-31
3.3827117e-18
0
0
0
-1.3885015e-18
-1.3206597e-18
0
1.1936462e-18
1.5715917e-31
-1.0775009e-18
0
0
9.2194194e-19
1.2131807e-31
-1.1494572e-31
7.8657622e-19
-7.4554185e-19
2.9393621e-31
6.6912702e-19
0
5.9974672e-19
7.8793651e-32
-5.3682903e-19
5.0762349e-19
-4.7983465e-19
-4.5339949e-19
4.2825732e-19
0
-3.8161449e-19
-3.600023e-19
3.3945497e-19
3.1992088e-19
0
2.8368721e-19
-2.6688915e-19
-2.5090586e-19
2.3569417e-19
4.4241664e-19
-1.1518555e-31
-5.8274848e-19
-5.9018603e-49
1.6971466e-19
3.1653274e-19
-8.1733699e-32
-2.7371125e-19
1.2683886e-19
-1.1725133e-19
1.0807389e-19
9.9294167e-20
-1.8180013e-19
0
0
1.3599458e-19
2.5726793e-48
-1.0928712e-19
0
0
8.0102187e-20
-1.4092004e-48
-8.2810777e-20
0
0
9.9802249e-20
5.1818671e-20
-9.9506416e-20
-5.6224848e-20
0
1.2926133e-19
-3.3148098e-32
-1.2797901e-19
7.2654689e-20
0
-6.8738195e-20
6.8895711e-20
-1.0571742e-35
-7.5898092e-20
7.2115842e-20
-7.0606205e-20
-7.3420897e-20
7.4505581e-20
7.2026523e-20
-1.9314445e-32
-6.9923338e-20
7.0666171e-20
1.9321711e-32
-6.739455e-20
6.6474172e-20
-6.6504834e-20
-6.5485515e-20
6.3171368e-20
6.102677e-20
-1.6524386e-32
-5.7730223e-20
5.5499532e-20
-7.545843e-36
-5.0690619e-20
4.8149015e-20
-4.5427857e-20
-4.2455581e-20
3.9160148e-20
7.1071516e-20
-1.7545299e-32
-5.448489e-20
2.4755036e-20
-3.4587207e-36
-4.1392087e-20
-5.1783952e-36
2.4728144e-20
0
-2.2711114e-20
0
3.026451e-20
0
0
0
4.4150511e-20
4.4560334e-49
-3.9267522e-20
0
-4.8634944e-20
1.3879978e-32
4.4060113e-20
0
0
0
4.6574789e-20
-1.2719107e-32
-4.9831827e-20
0
-4.8442902e-20
-1.2465028e-32
4.5250491e-20
0
-4.4944912e-20
4.1929542e-20
-2.2682252e-32
-4.1640124e-20
4.1529422e-20
0
3.7345478e-20
1.0177978e-32
-3.6061853e-20
0
-3.3365013e-20
3.2296363e-20
1.7493065e-32
-3.0612038e-20
1.6268321e-32
3.9490062e-36
-7.5540449e-33
3.9958644e-36
2.879562e-20
0
-2.5425253e-20
7.4062799e-33
8.1524418e-33
-1.5421384e-49
7.2710977e-33
0
5.6259071e-20
8.6472901e-33
-3.0023021e-20
2.6327364e-20
-6.882803e-33
-2.6702399e-20
-2.9033554e-20
-7.8524285e-33
7.0065996e-33
-2.481056e-20
2.70379e-20
2.7379467e-20
0
2.3921025e-20
-7.4336303e-33
-2.8630965e-20
0
0
0
5.9655021e-20
-3.2115201e-32
-4.7886487e-20
0
0
0
0
0
0
0
5.4685425e-20
-1.3162249e-32
-4.2013015e-20
-2.3087542e-20
2.6637073e-20
2.7089123e-20
-6.7143099e-33
-1.3244397e-32
-2.7261276e-20
2.8982847e-20
-2.6472304e-20
-2.4168607e-20
2.6156581e-20
2.8879066e-20
-1.5438144e-32
-2.4091019e-20
-2.2669116e-20
6.6250444e-33
2.4500216e-20
2.3085876e-20
-2.1219186e-20
-2.0654577e-20
2.0665467e-20
-2.0207575e-20
0
1.9021338e-20
1.8751749e-20
-5.089274e-33
-1.7983847e-20
1.7770193e-20
-1.7640729e-20
-1.7423599e-20
1.7231368e-20
-1.7535426e-20
-5.1184214e-33
1.9773467e-20
2.1043216e-20
3.0736862e-36
-4.3387773e-20
-1.3406329e-32
2.8335176e-20
3.0679508e-20
0
-3.0487026e-20
0
0
0
-3.4954435e-20
-3.4606333e-20
3.4956813e-20
3.1895531e-20
0
-2.1915593e-20
4.6710061e-33
1.6248675e-20
0
0
-1.3587772e-20
5.4133989e-33
8.6300062e-21
0
0
-1.8678219e-20
9.0161548e-33
1.3739606e-20
0
-1.8701002e-20
5.6744246e-33
-5.7367416e-33
5.2855771e-33
1.5698401e-20
0
1.3044644e-20
-7.1205076e-33
-9.5667569e-21
0
-3.8774821e-21
1.9753308e-21
-9.7677644e-22
5.0646772e-21
7.3736025e-34
-5.7183903e-21
9.2333116e-34
3.4284534e-21
0
0
2.959506e-21
-7.692448e-34
-2.508682e-21
0
1.8458654e-21
-1.5122823e-21
-1.2249859e-21
9.3385947e-22
0
-1.933762e-22
-2.8732585e-22
-4.4580557e-34
6.4918748e-34
-1.4478978e-21
1.5301242e-33
-2.3071789e-21
2.79743e-21
-9.2407356e-34
2.1635351e-33
9.4549235e-21
-1.5597624e-33
-6.6784849e-21
0
0
0
1.6334933e-20
7.413308e-21
-1.2743178e-20
-6.042038e-21
0
0
-3.0189093e-21
-3.9221118e-50
2.1367458e-21
0
1.4079863e-21
-9.0461492e-22
2.1569383e-21
1.0403946e-21
0
-5.6099026e-21
-9.1036843e-37
9.1877409e-21
-7.7720999e-34
-5.270563e-21
2.46954e-21
1.3700723e-36
-2.4783602e-21
6.639481e-34
1.1146051e-33
1.5350966e-21
0
2.8790551e-22
-1.3640333e-34
-9.3051394e-22
7.9542255e-22
-1.9552852e-33
-1.116056e-21
1.1833504e-21
-6.7924692e-38
-6.3691152e-22
0
0
0
-2.4638355e-21
2.5501252e-21
3.7601777e-21
-1.7824472e-21
-5.9376957e-34
-5.9029907e-34
-2.4404797e-21
0
3.7660476e-21
-4.3311283e-37
-4.9621393e-21
2.6759528e-21
1.6598543e-33
-3.6369338e-21
-4.2612103e-21
2.4440551e-33
8.3089187e-21
0
2.9276756e-21
2.3167772e-21
0
-2.6638795e-21
-3.079609e-21
3.1292219e-21
0
-2.5910625e-21
0
0
2.3974709e-21
-1.7900644e-33
-2.1961054e-21
0
0
2.1295331e-21
2.163373e-21
-2.3515984e-21
-2.4511629e-21
2.4981206e-21
2.7879163e-21
-6.4552463e-21
-3.5021533e-21
1.0128215e-33
3.9035479e-21
-2.429765e-33
-2.7814236e-33
5.6196033e-21
-6.0146184e-21
6.133341e-21
-6.1506084e-21
-5.2283479e-36
6.6410974e-21
-1.5178466e-20
-8.1266452e-21
-8.2558144e-21
1.6884702e-20
1.7824352e-20
-9.3592261e-21
9.5583424e-21
-8.5985209e-21
4.3404272e-33
1.6233843e-20
-9.0207969e-21
2.7478319e-33
-2.6932036e-33
-9.1977367e-21
0
0
9.5678949e-21
9.3316698e-21
0
-7.9885026e-21
-8.4293909e-21
0
-7.8583944e-21
2.0407518e-33
7.1146836e-21
-6.920034e-21
1.800624e-33
6.050729e-21
0
5.3770811e-21
2.6305002e-33
-4.3462949e-21
4.317795e-21
-1.1975873e-33
-3.9889154e-21
-3.4675976e-21
-8.5646965e-34
3.0074358e-21
0
-3.0271875e-21
2.9937474e-21
-8.7928961e-37
1.7807826e-33
3.1671564e-21
-3.1000619e-21
0
-6.9366157e-21
8.4090712e-33
4.0339278e-21
2.3486758e-33
8.904198e-21
-9.4916072e-21
-1.0205953e-20
1.0801308e-20
1.1247892e-20
5.9188148e-21
0
-6.7022737e-21
-1.4075826e-20
1.0242352e-36
-7.4638678e-21
7.8344266e-21
8.2380271e-21
-8.5284567e-21
1.6947858e-20
-1.7051623e-20
-1.4897902e-32
1.8632537e-20
-1.9002452e-20
4.9104525e-33
-8.310122e-21
8.7624587e-21
9.3734163e-21
-9.6868227e-21
-2.7378016e-33
-1.9792974e-20
1.8130259e-20
1.7439678e-20
-1.8388701e-20
-2.630273e-33
-9.4731238e-21
5.0223269e-33
8.6939775e-21
2.4209149e-33
5.1272034e-50
8.4621405e-21
1.6385255e-20
-7.9257465e-21
-1.1595241e-49
-7.0710966e-21
-1.1455311e-32
6.7665513e-21
-1.3099338e-20
3.4402773e-33
1.147858e-20
6.5264697e-51
-5.3302233e-21
0
0
-4.3487395e-21
4.0850922e-21
8.0249007e-21
0
0
0
-2.9391431e-21
-2.8078363e-21
0
2.6851145e-21
-2.4820461e-21
-3.8079129e-33
4.4468391e-21
0
0
0
-1.8748011e-21
-1.9259505e-21
2.0386056e-21
-2.0809629e-21
-1.1350361e-33
4.0824866e-21
0
0
-4.7604065e-21
6.8484226e-37
2.5186879e-21
-2.7251191e-21
2.9416621e-21
-3.0672083e-21
1.709192e-33
6.1535662e-21
0
0
-3.8373621e-21
-4.0578016e-21
0
0
4.3873599e-21
4.4984398e-21
0
-4.8491877e-21
-5.0535045e-21
5.1840457e-21
-5.2709081e-21
-5.3357349e-21
5.4351997e-21
5.5909924e-21
-3.1908697e-33
-5.8430437e-21
5.8625719e-21
1.6377715e-33
-5.9882094e-21
0
-6.1182354e-21
3.3386093e-33
5.992933e-21
-6.1300997e-21
3.4790891e-33
6.2963411e-21
0
-5.9759696e-21
1.6901029e-33
8.8269854e-37
-6.2624039e-21
6.1945713e-21
5.8005663e-21
0
-1.1587465e-20
6.6648672e-33
6.0837257e-21
8.5445553e-37
1.1732357e-20
-1.1189821e-20
-1.0901354e-20
1.1071042e-20
5.6357953e-21
0
-1.0628467e-20
8.549723e-33
1.0418212e-20
0
-1.0756633e-20
-2.95e-33
5.1925417e-21
1.4126051e-33
1.0059378e-20
-1.0069634e-20
-1.2515415e-32
9.9204284e-21
-9.9022967e-21
2.764181e-33
9.9580535e-21
4.9386418e-21
-9.7716043e-21
-4.8458986e-21
9.7576429e-21
-9.8073847e-21
-1.2099236e-32
9.609379e-21
-9.7169136e-21
1.3680418e-33
-4.9433627e-21
5.4349694e-33
1.4388437e-20
-2.625807e-33
-9.5375622e-21
4.8603428e-21
9.8461294e-21
-4.941151e-21
2.7375098e-33
-4.9064198e-21
-5.4084301e-33
4.8246612e-21
-9.5996314e-21
3.969608e-33
-5.2098528e-33
2.5600658e-33
4.5635657e-21
0
4.4396491e-21
4.3145435e-21
0
0
0
0
0
-3.6154833e-21
-3.5558954e-21
0
3.3471459e-21
-3.1688185e-21
-4.959311e-33
5.6563123e-21
0
0
0
-2.2511363e-21
-2.0917926e-21
1.9743496e-21
1.8536341e-21
-3.380576e-21
-2.5066115e-33
2.6861081e-21
0
-2.2872884e-21
-1.7021557e-33
8.5169935e-22
-6.910896e-22
5.9254314e-22
-5.3514065e-22
-2.6014764e-34
7.2598381e-22
0
0
-1.1005765e-22
-9.1230159e-23
0
4.5661053e-23
3.0698855e-38
1.0768772e-22
-7.3959037e-23
-1.6273186e-22
0
-2.4129746e-22
-2.5197314e-22
0
-4.3978369e-23
-1.5721417e-22
1.9954351e-22
-9.8354935e-23
-1.363536e-22
7.0117194e-22
3.5259826e-22
6.448585e-38
5.174067e-22
-5.5892872e-22
-6.2490304e-22
-7.3845927e-22
6.594209e-51
-9.9695975e-22
-1.0775832e-21
1.1404811e-21
0
2.7297652e-21
3.0417967e-21
0
-1.7906987e-21
-3.7724896e-21
-1.0989967e-33
-2.0797618e-21
-4.3496821e-21
4.5524072e-21
4.7921756e-21
2.5438325e-21
2.7139784e-21
0
-2.9575581e-21
-9.120461e-21
3.1325204e-21
-7.9881403e-49
-1.0216773e-20
7.1309742e-21
3.703303e-21
3.8195431e-21
7.8574855e-21
-8.0570098e-21
-4.1231602e-21
4.2165598e-21
4.3366999e-21
4.4803456e-21
-1.3817351e-20
-4.709108e-21
1.4327834e-20
4.8559671e-21
-4.971161e-21
-1.0224479e-20
5.2253235e-21
-5.2496357e-21
8.7629785e-33
-8.9310552e-33
-1.6643323e-20
5.6700376e-21
5.7024566e-21
1.128783e-20
5.6434179e-21
-1.1527278e-20
-1.6816674e-36
-6.0214645e-21
5.7958229e-21
1.6944492e-20
-1.7498443e-20
-6.0216617e-21
1.8468238e-20
0
-1.8113458e-20
-5.8766078e-21
1.7774755e-20
-6.1012873e-21
-1.2411465e-20
-3.270752e-33
6.283734e-33
5.7670638e-21
0
1.2109679e-20
1.1573569e-20
-5.5147323e-21
-5.5134213e-21
-1.1197021e-20
5.664527e-21
5.6301774e-21
-1.0433404e-20
0
1.0041395e-20
1.0230421e-20
-5.1462954e-21
-1.0152583e-20
2.7150926e-33
4.6887114e-21
-9.1263453e-21
4.5011619e-21
-1.4796446e-32
-8.6554323e-21
4.1282209e-21
0
7.6560062e-21
0
-8.1491006e-33
-3.5388958e-21
-6.7513122e-21
9.6622472e-21
-8.7917681e-37
-5.9177118e-21
0
5.3329314e-21
2.576285e-21
-4.9515563e-21
2.5747123e-33
2.140123e-21
-3.9835551e-21
1.9069412e-21
-3.1045377e-33
-3.5961902e-21
1.6791918e-21
-1.517013e-21
2.7317556e-21
3.833122e-21
0
-3.69668e-21
-2.3740362e-21
3.2916817e-21
1.9535102e-21
-8.8007902e-22
-1.702921e-21
8.7056881e-22
8.9180852e-22
-1.755111e-21
8.1817376e-22
1.4831113e-21
-7.0322145e-22
1.039446e-37
-1.5938365e-21
-1.716519e-21
2.646907e-21
-8.6036048e-22
-1.3815685e-33
2.5261457e-21
0
-3.053738e-21
-2.2218244e-21
1.1649529e-21
1.1773469e-21
1.1938319e-21
0
1.3418729e-21
-8.080958e-34
-3.0998165e-21
8.9045988e-34
1.6471659e-21
0
1.7942765e-21
-3.8053116e-21
-5.9919515e-21
4.0963372e-21
6.2545763e-21
2.135726e-21
-2.2117508e-21
-4.6354271e-21
2.4062004e-21
-2.4496389e-21
-2.4724e-21
4.9883668e-21
-5.0748245e-21
-2.6123436e-21
8.0648293e-21
5.4444536e-21
-2.7316626e-21
-8.2175437e-21
6.1217794e-33
-6.2018533e-33
-2.823061e-21
-3.1324205e-33
-2.7968724e-21
2.7750131e-21
2.773446e-21
2.7906732e-21
-2.7914342e-21
-2.7686414e-21
8.1924796e-21
-2.7001436e-21
-5.361126e-21
7.9407973e-21
7.3815552e-37
-2.5337772e-21
4.9750794e-21
2.4712744e-21
0
-2.3976371e-21
-2.3166791e-21
-4.4986039e-21
2.2153196e-21
-7.3363736e-33
-6.5273608e-21
2.110514e-21
2.0283116e-21
1.9658576e-21
-1.9376318e-21
-1.932776e-21
5.7433623e-21
-1.859416e-21
-3.5850457e-21
-2.9044343e-33
-1.7233702e-21
3.4543687e-21
5.1550605e-21
9.2842341e-34
-8.9901748e-34
-2.2518626e-37
-1.582273e-21
-3.2209828e-21
-1.6358421e-21
4.8995517e-21
-1.7782619e-33
-3.1482938e-21
0
0
1.6343402e-21
-9.3221634e-34
9.4337155e-34
1.692371e-21
-3.3708983e-21
-1.7013053e-21
-1.9404808e-33
1.8216919e-21
5.6315502e-21
1.9002817e-21
0
0
0
-6.1102585e-21
-4.254785e-21
6.5735192e-21
-2.4558066e-33
-4.4429399e-21
0
0
4.7304747e-21
-5.4621923e-33
-2.8077738e-33
5.132424e-21
-2.5956867e-21
-5.2565515e-21
-5.3366364e-21
2.7314912e-21
8.4286302e-21
2.8684689e-21
0
0
0
-8.7541237e-21
-6.0050497e-21
9.2775308e-21
-6.9934294e-33
-3.1646236e-21
4.4956007e-37
-3.140173e-21
6.2880114e-21
-3.5778821e-33
-3.2899343e-21
6.6405554e-21
0
-1.8278465e-33
-6.524731e-21
-6.5821516e-21
1.0074335e-20
6.8218977e-21
-3.4172696e-21
-1.886015e-33
3.3784524e-21
-1.0076781e-20
-6.7037771e-21
3.3530582e-21
3.3525644e-21
-3.3548304e-21
-3.3555373e-21
3.3396826e-21
3.3112821e-21
-1.8081393e-33
1.7807639e-33
3.2061727e-21
0
3.1989137e-21
-6.2587775e-21
-9.1341239e-21
6.0072226e-21
6.0597818e-21
3.0358968e-21
-3.3351451e-33
-5.889292e-21
2.8284895e-21
-2.7470933e-21
-2.7566233e-21
5.5902477e-21
-5.6054303e-21
-2.7621511e-21
2.6820422e-21
5.1685722e-21
2.4971489e-21
-4.9376339e-21
1.381855e-33
-2.5044842e-21
-2.4854611e-21
7.2858792e-21
-2.3618615e-21
-2.3003767e-21
6.7574708e-21
-3.1678898e-37
-6.6424293e-21
-2.1892582e-21
6.4531306e-21
-2.107852e-21
-1.3151313e-49
-3.4024718e-33
-4.0154803e-21
3.9243182e-21
3.8172467e-21
-1.8744657e-21
2.0751697e-33
3.7461219e-21
-1.8600247e-21
-5.4530484e-21
-1.7684942e-21
1.7333357e-21
0
1.7270404e-21
3.4522153e-21
-2.4205487e-37
-5.0072651e-21
-1.6385143e-21
3.2473363e-21
-2.3082103e-37
-3.2602645e-21
3.2599559e-21
-2.6978757e-33
-3.2086007e-21
4.7679188e-21
3.1519764e-21
0
0
-1.5728435e-21
-4.7462815e-21
-1.5796006e-21
4.6896624e-21
-1.7150437e-33
-3.087079e-21
3.1240518e-21
3.163367e-21
-1.5841672e-21
-3.1301489e-21
1.5416403e-21
1.5413088e-21
-4.7067492e-21
-1.609715e-21
-2.7070023e-33
8.8938099e-34
1.563504e-21
-1.5295843e-21
3.0651178e-21
4.7228719e-21
0
-4.9598639e-21
-3.2988235e-21
4.8498646e-21
-4.5083117e-37
-1.5690705e-21
3.1487339e-21
-1.6056249e-21
-1.6402355e-21
-1.8322883e-33
1.6305698e-21
3.2051935e-21
-1.581411e-21
-3.1583796e-21
-3.1968544e-21
1.7982373e-33
1.6217323e-21
-1.5987492e-21
3.1411654e-21
4.6639878e-21
0
-4.7303347e-21
-3.1657968e-21
4.6915264e-21
-1.7035248e-33
-1.5076005e-21
1.4997085e-21
1.5117933e-21
-8.4547368e-34
-3.0419445e-21
8.3348652e-34
2.9586108e-21
-1.6274867e-33
-1.6190763e-33
-2.9063603e-21
-4.323886e-21
2.8482784e-21
-1.5717308e-33
-4.726996e-33
1.4245543e-21
1.4154988e-21
2.7728281e-21
-4.0654304e-21
-1.3414791e-21
2.7002512e-21
-2.7456024e-21
-7.8687069e-37
4.126803e-21
1.3589482e-21
-1.3470767e-21
-4.0391482e-21
4.5129338e-33
2.7223031e-21
1.3521706e-21
-2.6771111e-21
-4.0042933e-21
4.0398764e-21
1.3733967e-21
1.540781e-33
1.3797662e-21
-2.7209795e-21
7.4696141e-34
-1.3559522e-21
1.3915738e-21
-4.7710297e-33
-4.3608936e-21
4.3494673e-21
4.316717e-21
0
0
0
-1.5093844e-21
-4.5915676e-21
-1.5319265e-21
-1.6987905e-33
-1.5355391e-21
4.6572957e-21
1.5859461e-21
-1.6128476e-21
-1.6200412e-21
-1.6190274e-21
3.2380428e-21
-1.6314386e-21
1.6622595e-21
-5.6259813e-33
-3.3988608e-21
5.0947261e-21
3.3829562e-21
0
-3.4506177e-21
-1.9579194e-33
1.7862313e-21
-5.3271245e-21
-1.754036e-21
1.7384592e-21
0
0
1.7901215e-21
3.6091187e-21
-4.0026687e-33
-3.5981783e-21
-1.8058774e-21
1.808515e-21
-1.7961166e-21
1.7685887e-21
3.1950943e-50
-2.8425463e-33
5.1671037e-21
0
0
-3.5350581e-21
-3.4817558e-21
-1.7109835e-21
1.869667e-33
4.98318e-21
-1.8305273e-33
-3.2966353e-21
0
3.2743231e-21
1.5988105e-21
-3.1107929e-21
1.5156255e-21
1.4911339e-21
-4.4721469e-21
1.4944724e-21
-4.9338859e-33
-2.8847067e-21
4.1847567e-21
2.7091194e-21
0
0
0
-3.7777802e-21
-2.4583124e-21
3.6006923e-21
2.3408232e-21
0
-2.1944069e-21
1.1734345e-33
1.0273661e-21
-2.0200346e-21
9.9381609e-22
-9.6417526e-22
-9.1566977e-22
2.5970431e-21
-1.6592752e-21
-1.6192552e-21
7.9906275e-22
-7.8249344e-22
1.5089609e-21
2.1649143e-21
0
-1.9927898e-21
-1.2723627e-21
6.0455786e-22
5.7538371e-22
-6.1906904e-34
5.496226e-22
-1.8056352e-33
-5.2240366e-22
-2.6997447e-34
-5.2002288e-51
4.3269939e-22
0
4.3660116e-22
-8.6428949e-22
-1.2333619e-21
1.141369e-21
1.0763428e-21
0
-7.3263629e-22
-7.5060586e-22
7.4148025e-22
-3.4962081e-22
-3.291622e-22
9.7542722e-22
-6.7587161e-22
-7.1546603e-22
3.6997154e-22
7.248134e-22
3.3617454e-22
-9.4729447e-22
-3.212918e-22
-5.8184188e-34
7.6625777e-22
2.3100534e-37
-1.2387012e-21
8.03708e-22
1.1508733e-21
3.7553842e-22
-1.1560452e-21
-8.2223445e-22
1.3311879e-21
-1.0475649e-33
-9.8054956e-22
-4.9500864e-22
2.700961e-34
9.5791955e-22
-5.3843393e-34
5.0790862e-22
5.418187e-22
-1.7254063e-21
-5.9563357e-22
-6.6144181e-34
1.1632805e-21
-1.9144593e-33
-1.7771872e-21
1.2618071e-21
-7.4906858e-34
-7.864107e-34
-1.5953931e-33
-7.0349745e-22
2.0585973e-21
-6.8625005e-22
-1.183619e-33
-2.5065519e-33
-2.374123e-21
8.1693945e-22
1.6561233e-21
-9.238385e-34
8.3790808e-22
8.4806588e-22
-1.7240553e-21
-1.7594822e-21
1.0008577e-33
2.7693844e-21
-1.0415775e-33
-9.4625735e-22
1.9070522e-21
-9.6538135e-22
-9.8343033e-22
5.5922004e-34
-5.696515e-34
1.0322292e-21
-2.0667583e-21
1.0364284e-21
-3.4968607e-33
-3.58231e-33
3.3124831e-21
-2.2426615e-21
3.186191e-37
2.2351216e-21
-1.1198377e-21
-3.3947577e-21
-1.1564273e-21
3.5318369e-21
-1.3149712e-33
-1.184471e-21
2.3667019e-21
-2.3800517e-21
-6.0392792e-33
1.2270211e-21
-1.2335256e-21
1.2258049e-21
-2.4267624e-21
1.2094064e-21
3.6657838e-21
0
0
-2.527154e-21
-3.5245035e-37
2.4244669e-21
-1.1985354e-21
-3.6388152e-21
-1.2461439e-21
3.8162453e-21
3.6463103e-37
1.4107882e-33
2.4744858e-21
-3.6119898e-21
-5.879209e-33
1.1714545e-21
-1.1947758e-21
-1.2194743e-21
1.3674669e-33
1.2304991e-21
-2.4466658e-21
2.4171681e-21
-3.9562342e-33
-2.3320523e-21
3.4336221e-21
2.2756548e-21
-1.1507819e-21
-3.5057639e-21
-1.1751577e-21
1.1630738e-21
0
-1.1173471e-21
1.1053227e-21
3.3227114e-21
6.2309439e-34
-2.2745091e-21
1.1380782e-21
1.123166e-21
-2.210686e-21
1.0930251e-21
-1.0931051e-21
-2.2143599e-21
3.3783116e-21
-3.7843249e-33
2.5147903e-33
2.2507622e-21
-2.2473954e-21
-1.1305962e-21
-1.1467355e-21
-1.290552e-33
1.1681095e-21
-2.3424354e-21
2.3526893e-21
3.5691218e-21
0
-1.2342932e-21
6.9127307e-34
3.5535735e-37
-3.7676771e-21
-1.2716016e-21
3.8988984e-21
-1.3324452e-21
7.007588e-50
4.1195463e-21
-1.3853628e-21
-4.2088303e-21
-1.4255186e-21
2.9040567e-21
-1.4785905e-21
1.5028993e-21
-5.0830809e-33
-3.1014409e-21
4.7233052e-21
1.7712206e-33
-7.1693761e-33
3.2684288e-21
-3.3127553e-21
-1.8727092e-33
1.7162857e-21
-3.4670663e-21
-1.7458412e-21
0
0
3.6068405e-21
-4.0766398e-33
-1.0561297e-36
-2.0744342e-33
-1.8687903e-21
-1.8716293e-21
1.8923214e-21
1.9312968e-21
-3.9256854e-21
3.9505964e-21
-2.1948308e-33
-3.9536779e-21
3.9539457e-21
6.6055332e-33
-2.2212586e-33
2.0198357e-21
-4.0682521e-21
2.0397701e-21
-4.5248537e-33
-4.0660652e-21
0
4.0287544e-21
2.0085593e-21
-4.0280962e-21
-2.0224811e-21
2.0188918e-21
-3.3350194e-33
-1.9818834e-21
0
0
3.9374899e-21
3.9099843e-21
0
-3.7864536e-21
-1.8727947e-21
1.8760405e-21
-1.8748726e-21
1.8587746e-21
0
-3.5855892e-21
0
0
1.7429456e-21
-1.927077e-33
-1.7070107e-21
0
1.6280461e-21
8.8449339e-34
-1.580942e-21
0
3.1194903e-21
3.0585919e-21
-1.4910119e-21
-1.6145847e-33
1.4261897e-21
-2.8121838e-21
-2.7712789e-21
2.7101956e-21
3.7375038e-37
2.8419765e-33
3.5760613e-37
-2.4954101e-21
1.2280589e-21
-1.3234957e-33
1.1482332e-21
-1.10316e-21
-3.2148619e-21
3.1765542e-21
1.0530686e-21
-1.0380997e-21
-1.118546e-33
-9.663867e-22
1.8517148e-21
1.7901213e-21
-1.7546667e-21
-2.8924424e-33
-8.5617692e-22
-8.305641e-22
1.5812057e-21
-7.5050051e-22
8.0105943e-34
-3.9311236e-34
7.0425831e-22
1.3920864e-21
-1.3449266e-21
-1.2657637e-21
0
5.6896132e-22
6.2135835e-34
-1.1179767e-21
-6.1367768e-34
1.5965385e-21
9.9539632e-22
0
-8.8619922e-22
-9.6594416e-34
-4.3403078e-22
-4.2880917e-22
1.235242e-21
-2.1253477e-34
-7.1011002e-22
3.3789377e-22
6.6449275e-22
-3.3222716e-22
-6.5683005e-22
-3.1374035e-22
0
5.2802543e-22
-2.5053097e-22
-7.4378497e-22
2.4961229e-22
2.4625121e-22
4.6493036e-22
2.109094e-22
-3.8663196e-22
-1.8737614e-22
-1.8973214e-22
2.1392925e-34
1.8933454e-22
1.772729e-22
3.2235207e-22
1.4953313e-22
0
0
0
-2.6253186e-22
-2.5320914e-22
2.563128e-22
1.4784118e-34
1.499721e-34
-1.3978684e-34
-2.3444399e-34
1.7975618e-22
0
-2.2116486e-22
-1.3000088e-22
1.4043309e-22
-1.3324213e-22
-1.0666271e-22
0
0
1.8472631e-22
-3.9851977e-34
-3.1037127e-34
2.9505025e-22
-2.8437624e-22
-2.5351983e-22
0
2.1174211e-22
-1.2820622e-34
-2.6741901e-22
3.0315166e-22
1.8209262e-34
-3.4071259e-22
0
3.4065703e-22
1.670762e-22
-3.349666e-22
1.7605114e-22
4.2603992e-34
-4.1973897e-22
4.4887446e-22
4.610294e-22
0
0
0
-5.0105319e-22
-5.4206162e-22
5.752022e-22
0
-5.8729015e-22
0
-3.0764399e-22
6.5511181e-22
3.4922278e-22
-3.6448952e-22
7.3973953e-22
3.7081833e-22
-7.5452726e-22
-3.9323626e-22
-4.604759e-34
4.3505402e-22
-9.9430488e-34
2.5729398e-37
9.1697989e-22
0
-4.9209303e-22
-1.0298568e-21
-5.3116403e-22
0
0
0
-5.6294893e-22
1.1756486e-21
6.1306943e-22
-6.2953937e-22
-6.3337864e-22
6.3459916e-22
6.4267569e-22
-1.3174773e-21
0
1.405758e-21
1.4375221e-21
0
0
-1.4885361e-21
-8.4102332e-34
-7.715254e-22
-7.8411099e-22
7.9492732e-22
-8.0546774e-22
8.1686523e-22
1.6584071e-21
8.4221847e-22
0
-1.7188201e-21
-9.5947988e-34
8.707897e-22
-8.7859027e-22
-8.8825141e-22
-1.8007585e-21
1.8222752e-21
9.1752411e-22
-2.6158311e-37
9.2293661e-22
-1.8548717e-21
9.3425227e-22
-9.4151134e-22
1.4018379e-51
9.4753324e-22
-1.8969846e-21
1.9021515e-21
1.9103874e-21
0
-9.5639943e-22
-1.901915e-21
5.2635593e-34
9.5199749e-22
9.6161966e-22
-1.9308419e-21
-1.9080918e-21
9.3860708e-22
1.8532311e-21
1.8484578e-21
-9.3561042e-22
-1.8963239e-21
9.4833269e-22
-9.3189084e-22
1.5192534e-33
8.9792181e-22
-1.7846111e-21
1.79705e-21
1.0049432e-33
-5.0131676e-33
1.7782804e-21
-1.7453606e-21
-3.8198458e-33
8.5414741e-22
-1.7106814e-21
8.5277335e-22
-2.3912416e-37
3.6617255e-33
8.0769685e-22
-1.5966149e-21
1.7724447e-33
-4.4481664e-34
7.9655038e-22
-2.2077556e-37
-1.5083792e-21
1.4756964e-21
4.1653474e-37
-3.2853455e-33
1.4955928e-21
-1.4794516e-21
-1.5757387e-33
1.3513585e-21
-6.5267037e-22
-6.5141267e-22
-6.6744489e-22
6.8165949e-22
-7.5957351e-34
-1.3452338e-21
0
0
1.2187942e-21
1.7071668e-37
-1.1986039e-21
6.0268108e-22
-6.7284367e-34
6.0801447e-22
1.3490563e-33
-1.1996834e-21
0
-5.6229714e-22
1.0964964e-21
5.4748886e-22
-1.2391345e-33
5.7072314e-22
-1.1553378e-21
5.725016e-22
-6.1596636e-34
-1.0741367e-21
0
0
5.4392707e-22
-3.0890646e-34
5.6353918e-22
-5.6040201e-22
-1.6442883e-21
1.6095645e-21
5.3268552e-22
-1.0763969e-21
5.5069327e-22
9.3830358e-34
5.6901255e-22
-3.2084864e-37
-1.8490294e-33
5.5006474e-22
-1.1083411e-21
-5.6581701e-22
0
-5.8850715e-22
5.8776389e-22
5.8078698e-22
5.7651453e-22
-1.2872943e-33
6.5435623e-34
-6.6882245e-34
-1.2242312e-21
6.1513765e-22
1.0240033e-33
-1.2332059e-21
8.8303723e-38
6.2651947e-22
1.2591992e-21
1.259783e-21
-1.2610129e-21
-7.0551925e-34
-6.4465295e-22
-6.5691888e-22
1.3297738e-21
-1.3285464e-21
-6.5853304e-22
1.9654857e-21
1.31524e-21