/*--------------------------------*- C++ -*----------------------------------*\
  =========                 |
  \\      /  F ield         | OpenFOAM: The Open Source CFD Toolbox
   \\    /   O peration     | Website:  https://openfoam.org
    \\  /    A nd           | Version:  7
     \\/     M anipulation  |
\*---------------------------------------------------------------------------*/
FoamFile
{
    version     2.0;
    format      ascii;
    class       volVectorField;
    location    "0.00071";
    object      U;
}
// * * * * * * * * * * * * * * * * * * * * * * * * * * * * * * * * * * * * * //

dimensions      [0 1 -1 0 0 0 0];

internalField   nonuniform List<vector> 
5000
(
(1.0187626e-13 -6.7552933e-29 0)
(8.7873283e-14 -2.026588e-28 0)
(1.22e-13 0 0)
(-4.6766562e-14 0 0)
(5.8041035e-14 5.06647e-29 0)
(1.5366465e-13 5.7599095e-44 -5.06647e-29)
(1.2043547e-13 -1.013294e-28 2.1599661e-43)
(4.0108466e-14 0 -6.079764e-28)
(3.9817738e-14 0 -1.013294e-28)
(3.1597276e-15 2.533235e-28 5.06647e-28)
(-1.1733418e-13 7.093058e-28 7.093058e-28)
(-1.5189853e-14 -4.053176e-28 -4.053176e-28)
(-7.7773761e-14 -2.026588e-28 1.7279728e-42)
(-8.2229428e-14 -5.06647e-29 -4.4639299e-43)
(-8.6478101e-14 0 3.039882e-28)
(-7.2745153e-14 5.06647e-29 1.013294e-28)
(-4.3981429e-14 1.5612266e-55 7.806133e-56)
(-2.121749e-13 5.06647e-29 -4.4639299e-43)
(-4.7056762e-13 0 -2.026588e-28)
(-4.173318e-13 2.026588e-28 4.053176e-28)
(-4.7036377e-13 -2.533235e-28 2.533235e-28)
(-5.0974242e-13 -3.039882e-28 0)
(-4.5307763e-13 7.093058e-28 0)
(-3.5759356e-13 -4.053176e-28 -4.053176e-28)
(-5.2767653e-13 -2.026588e-28 1.7279728e-42)
(-4.582618e-13 1.6703738e-42 1.6703738e-42)
(-4.2043539e-13 -2.026588e-28 2.026588e-28)
(-3.5999758e-13 -1.519941e-28 -1.519941e-28)
(-2.640051e-13 5.06647e-28 -2.533235e-28)
(-2.5558681e-13 -2.6351586e-42 1.519941e-28)
(-2.2843216e-13 2.6567583e-42 -2.6567583e-42)
(-3.9948291e-13 -3.546529e-28 3.0239525e-42)
(-1.3049268e-13 -8.106352e-28 4.053176e-28)
(-4.4105226e-13 6.079764e-28 -3.039882e-28)
(-3.5283871e-13 -8.783862e-43 -5.06647e-29)
(-2.3439134e-13 -8.8126615e-42 0)
(-3.6488439e-13 7.0270896e-42 0)
(-2.6342285e-13 -5.06647e-28 2.533235e-28)
(-4.9883966e-13 -1.013294e-28 -5.06647e-29)
(-5.3102658e-13 -5.06647e-28 2.533235e-28)
(-3.966752e-13 4.053176e-28 -3.3983466e-42)
(-1.8205927e-13 1.3938981e-41 2.026588e-28)
(-3.4821538e-13 1.013294e-27 -5.06647e-28)
(-4.490586e-13 -1.519941e-28 2.5703596e-42)
(-6.7077833e-13 6.079764e-28 -2.026588e-28)
(-8.0199789e-13 -5.06647e-29 5.06647e-29)
(-9.2758454e-13 -1.519941e-28 -5.2271179e-42)
(-9.7704217e-13 -1.7351727e-41 8.6758637e-42)
(-8.5699088e-13 -3.039882e-28 -5.2271179e-42)
(-1.0887256e-12 0 5.1839185e-42)
(-9.981871e-13 2.533235e-28 2.533235e-28)
(-6.7497643e-13 2.1599661e-44 0)
(-9.7676087e-13 -5.06647e-29 0)
(-7.396248e-13 -7.093058e-28 0)
(-6.6226608e-13 2.1254066e-41 0)
(-4.7861164e-13 1.3172822e-27 0)
(-4.1760838e-13 -5.06647e-28 0)
(-5.1286889e-13 1.0497435e-41 0)
(-5.3347169e-13 2.533235e-28 0)
(-3.611412e-13 0 0)
(-2.7587753e-13 -3.039882e-28 0)
(-2.2140756e-13 -8.6398642e-42 0)
(-2.6247264e-14 -5.7599095e-44 0)
(-9.8634479e-14 -1.519941e-28 1.519941e-28)
(2.0043265e-13 1.013294e-28 1.013294e-28)
(1.2109734e-13 -8.8558609e-42 -2.533235e-28)
(-1.6464795e-13 -5.06647e-28 8.7118631e-42)
(6.8538412e-14 4.053176e-28 9.7576662e-57)
(-7.4712732e-15 5.06647e-28 -5.06647e-28)
(2.4047193e-13 -5.573117e-28 0)
(4.4556887e-13 -3.546529e-28 0)
(2.9212943e-13 2.533235e-28 2.533235e-28)
(2.9491354e-13 2.026588e-28 2.026588e-28)
(1.3186634e-13 -3.039882e-28 0)
(2.8980127e-13 -1.013294e-28 -1.013294e-28)
(4.4035575e-13 -5.06647e-29 1.7495725e-42)
(5.5521459e-13 0 3.812435e-42)
(4.9741335e-13 -2.533235e-28 2.533235e-28)
(4.3521521e-13 4.3199321e-44 -3.039882e-28)
(4.0592454e-13 3.039882e-28 -6.079764e-28)
(5.4850464e-14 -2.026588e-28 4.053176e-28)
(-3.3381937e-14 -4.3199321e-44 8.6398642e-44)
(-2.4225865e-13 7.1998869e-44 7.599705e-28)
(-3.7498808e-13 2.026588e-28 -4.053176e-28)
(-2.0680052e-13 2.026588e-28 -2.1081269e-41)
(-8.9017054e-14 3.5279446e-42 2.026588e-28)
(-1.6200626e-13 -1.519941e-28 -4.559823e-28)
(-6.7117509e-14 0 3.546529e-28)
(1.9535814e-13 -5.06647e-28 5.06647e-28)
(2.0235394e-13 -4.2047339e-41 -4.053176e-28)
(3.2901346e-13 -1.2398205e-41 3.546529e-28)
(3.1234907e-13 5.06647e-28 5.06647e-28)
(4.1497749e-13 3.546529e-28 1.2347806e-41)
(6.7330452e-13 -1.013294e-28 -1.013294e-28)
(8.3995318e-13 -3.5063449e-42 -3.5063449e-42)
(6.8911297e-13 5.06647e-29 -5.06647e-29)
(8.2250458e-13 0 -5.06647e-29)
(9.0173081e-13 0 -1.7783721e-42)
(7.3010345e-13 1.013294e-28 -7.0558891e-42)
(1.0742495e-12 1.4054179e-41 -4.053176e-28)
(9.8516251e-13 -3.039882e-28 -1.519941e-28)
(9.8633828e-13 2.026588e-28 2.026588e-28)
(9.9335503e-13 7.093058e-28 -5.0399208e-44)
(1.0280594e-12 0 -3.039882e-28)
(8.5227194e-13 -3.039882e-28 0)
(9.9371687e-13 -3.039882e-28 3.039882e-28)
(9.9721536e-13 2.533235e-28 8.8198614e-42)
(8.3315709e-13 2.533235e-28 -2.533235e-28)
(9.3753484e-13 0 3.039882e-28)
(7.3246912e-13 0 4.559823e-28)
(8.9644034e-13 -4.053176e-28 -8.106352e-28)
(6.8319881e-13 -2.026588e-28 -2.026588e-28)
(6.7821606e-13 0 3.039882e-28)
(4.4913066e-13 5.06647e-29 5.06647e-29)
(4.0519771e-13 -7.0846887e-42 -6.079764e-28)
(3.2497879e-13 -2.533235e-28 2.533235e-28)
(1.6191359e-13 2.026588e-28 2.026588e-28)
(1.2921266e-13 -4.3199321e-44 8.6398642e-44)
(-9.9939514e-14 -9.3436387e-57 -2.6727647e-43)
(-1.9343148e-13 -2.059023e-71 1.2829271e-43)
(-3.2411503e-14 3.039882e-28 -1.0627033e-41)
(-2.3028281e-15 -1.2959796e-43 -6.079764e-28)
(-1.2676943e-13 -3.546529e-28 7.093058e-28)
(-3.8937977e-13 0 4.559823e-28)
(-4.8959451e-13 -5.573117e-28 -5.573117e-28)
(-5.8593516e-13 4.053176e-28 4.053176e-28)
(-6.9646387e-13 1.013294e-28 -1.013294e-28)
(-6.7073225e-13 -3.039882e-28 -3.039882e-28)
(-6.7706199e-13 -5.06647e-29 5.06647e-29)
(-7.2669092e-13 -3.039882e-28 -5.2487175e-42)
(-7.3933265e-13 -5.06647e-29 -5.06647e-29)
(-6.8107496e-13 5.06647e-29 -1.013294e-28)
(-6.8708149e-13 2.026588e-28 2.026588e-28)
(-4.5918959e-13 2.026588e-28 2.026588e-28)
(-7.8858841e-13 0 -5.06647e-29)
(-7.5172687e-13 3.4618405e-42 -1.4096425e-55)
(-8.7457036e-13 -2.026588e-28 7.0270896e-42)
(-1.2346713e-12 5.06647e-29 -1.7639723e-42)
(-1.2601883e-12 1.7567724e-42 -1.013294e-28)
(-1.2383789e-12 7.1802664e-42 7.1802664e-42)
(-1.3763319e-12 -1.013294e-28 -1.013294e-28)
(-1.3470496e-12 5.06647e-29 1.013294e-28)
(-1.3691236e-12 0 2.026588e-28)
(-1.4150328e-12 -5.3146027e-42 5.3146027e-42)
(-1.4815445e-12 2.533235e-28 1.7567724e-41)
(-1.6580614e-12 -2.026588e-28 4.053176e-28)
(-1.6928838e-12 3.546529e-28 -1.0079842e-43)
(-1.5450267e-12 -2.0159683e-43 1.0079842e-43)
(-1.4729733e-12 -3.546529e-28 -1.3172849e-55)
(-1.3452579e-12 3.546529e-28 3.546529e-28)
(-1.3737748e-12 -2.533235e-28 -1.7567724e-41)
(-1.3815067e-12 1.7639723e-41 3.5279446e-41)
(-1.3315738e-12 1.013294e-28 1.013294e-28)
(-1.1833315e-12 -1.519941e-28 -1.519941e-28)
(-1.097554e-12 3.546529e-28 3.546529e-28)
(-1.0686001e-12 3.546529e-28 1.2297407e-41)
(-1.0593542e-12 -2.533235e-28 -2.533235e-28)
(-1.4652258e-12 0 1.013294e-28)
(-1.2574383e-12 0 2.1599661e-44)
(-1.3770046e-12 1.013294e-28 1.013294e-28)
(-1.300597e-12 -1.013294e-28 0)
(-1.349155e-12 -5.06647e-29 -5.06647e-29)
(-1.4001181e-12 1.013294e-28 7.0126898e-42)
(-1.4602196e-12 -2.533235e-28 -5.06647e-28)
(-1.3601254e-12 -7.0270896e-42 1.013294e-28)
(-1.2559091e-12 5.06647e-29 -1.4399774e-44)
(-1.4646162e-12 1.013294e-28 1.013294e-28)
(-1.646378e-12 -1.013294e-28 1.013294e-28)
(-1.6824116e-12 0 -2.026588e-28)
(-1.720347e-12 1.013294e-28 1.013294e-28)
(-1.7233225e-12 5.06647e-29 -2.1110068e-41)
(-1.7602572e-12 0 -2.8108358e-41)
(-1.8140676e-12 -1.519941e-28 1.519941e-28)
(-1.7972593e-12 -1.013294e-28 -2.026588e-28)
(-1.8880152e-12 0 0)
(-1.6121119e-12 2.533235e-28 -1.7567724e-41)
(-1.4322787e-12 7.3784441e-41 -7.3784441e-41)
(-1.532527e-12 -2.026588e-28 2.026588e-28)
(-1.6761272e-12 1.013294e-28 1.013294e-28)
(-1.608109e-12 2.533235e-28 1.7459726e-41)
(-1.7366362e-12 -2.533235e-28 -2.533235e-28)
(-1.5903633e-12 3.499145e-42 -5.06647e-29)
(-1.1390033e-12 -1.7423726e-41 -1.7423726e-41)
(-1.6536654e-12 -8.6398642e-44 -8.6398642e-44)
(-1.8064455e-12 -2.026588e-28 -2.8079559e-41)
(-1.8638653e-12 2.026588e-28 4.053176e-28)
(-1.801975e-12 2.2903529e-54 -1.5246786e-41)
(-1.5736962e-12 5.7477317e-55 5.7860078e-42)
(-1.7227277e-12 6.9694905e-42 6.9694905e-42)
(-1.8634793e-12 1.519941e-28 1.0475835e-41)
(-1.7337184e-12 0 -1.0533434e-41)
(-1.5903078e-12 0 -1.399658e-41)
(-1.6632221e-12 2.533235e-28 2.533235e-28)
(-1.6369843e-12 4.053176e-28 0)
(-1.4166513e-12 0 0)
(-1.4858228e-12 0 0)
(-1.7460792e-12 3.039882e-28 0)
(-1.730272e-12 1.9515332e-56 -4.053176e-28)
(-1.761237e-12 -2.026588e-28 4.2248936e-41)
(-1.7066739e-12 0 2.026588e-28)
(-1.8138398e-12 2.026588e-28 2.026588e-28)
(-1.8475983e-12 -2.026588e-28 -2.026588e-28)
(-1.8997169e-12 -4.2119338e-41 -1.519941e-28)
(-2.0175509e-12 4.053176e-28 4.053176e-28)
(-2.1341559e-12 -1.013294e-28 7.0126898e-42)
(-2.2847037e-12 2.7562405e-54 2.7562405e-54)
(-2.3506093e-12 -4.3199321e-44 -3.039882e-28)
(-2.2131335e-12 -1.013294e-28 -1.013294e-28)
(-2.2311177e-12 2.2045686e-42 2.2517538e-42)
(-2.2705861e-12 -2.1599661e-44 0)
(-1.9770498e-12 -1.402538e-41 1.013294e-28)
(-1.9016813e-12 -3.5063449e-42 -3.5063449e-42)
(-2.0039247e-12 3.546529e-28 3.546529e-28)
(-1.8335569e-12 0 4.559823e-28)
(-1.9096106e-12 -4.559823e-28 -6.3503002e-41)
(-1.6200708e-12 -3.1557104e-41 -4.559823e-28)
(-1.9032109e-12 -5.6245516e-41 4.053176e-28)
(-2.0262658e-12 1.519941e-28 1.519941e-28)
(-2.1826185e-12 0 1.013294e-28)
(-2.0683907e-12 1.519941e-28 1.519941e-28)
(-1.9833723e-12 3.546529e-28 -3.546529e-28)
(-2.3346277e-12 0 0)
(-2.061876e-12 0 0)
(-2.1419003e-12 0 0)
(-2.2415239e-12 -2.533235e-28 -2.533235e-28)
(-2.0526727e-12 -1.0519035e-41 1.519941e-28)
(-1.687745e-12 -1.013294e-28 -2.026588e-28)
(-1.8705048e-12 0 2.026588e-28)
(-1.9536278e-12 0 -1.7603723e-41)
(-1.6552648e-12 3.546529e-28 3.546529e-28)
(-1.5493097e-12 -1.2412763e-41 -1.2365578e-41)
(-1.7860299e-12 1.519941e-28 3.039882e-28)
(-2.0797252e-12 -1.5395125e-42 4.3755576e-58)
(-2.1166074e-12 0 -1.4399774e-44)
(-1.798871e-12 -5.06647e-29 -5.06647e-29)
(-1.9990803e-12 -2.026588e-28 -2.026588e-28)
(-1.7371606e-12 1.013294e-28 2.026588e-28)
(-1.4500448e-12 1.013294e-28 -1.4399774e-44)
(-1.4709269e-12 0 1.0555034e-41)
(-1.7597371e-12 2.026588e-28 2.026588e-28)
(-1.8106314e-12 -1.4068579e-40 -2.8137158e-40)
(-1.789048e-12 -3.8648993e-41 -7.7297985e-41)
(-1.6790045e-12 4.053176e-28 4.053176e-28)
(-1.6678789e-12 -2.533235e-28 -2.533235e-28)
(-1.7981287e-12 5.06647e-29 0)
(-1.6187325e-12 0 2.026588e-28)
(-1.4643565e-12 -5.06647e-29 -5.06647e-29)
(-1.5406906e-12 7.8815952e-55 -5.0324688e-42)
(-1.4250799e-12 -1.5560662e-41 1.556656e-41)
(-1.4509708e-12 1.4054179e-41 0)
(-1.5426505e-12 5.06647e-28 2.533235e-28)
(-1.429652e-12 -4.053176e-28 -4.053176e-28)
(-1.096212e-12 3.5135448e-41 -2.533235e-28)
(-1.2353201e-12 8.7946618e-41 8.7946618e-41)
(-1.7064022e-12 7.0126898e-42 2.026588e-28)
(-1.6186493e-12 5.06647e-29 1.013294e-28)
(-1.4459434e-12 -3.039882e-28 -9.119646e-28)
(-1.5799929e-12 -3.039882e-28 -6.079764e-28)
(-1.5059957e-12 0 0)
(-1.2181892e-12 1.013294e-28 2.026588e-28)
(-1.2078743e-12 2.1382118e-44 2.1382118e-44)
(-9.904963e-13 0 5.06647e-29)
(-8.4774893e-13 1.013294e-28 1.013294e-28)
(-4.7681613e-13 5.06647e-29 5.06647e-29)
(-3.9222813e-13 3.039882e-28 3.039882e-28)
(-2.8962357e-13 2.026588e-28 4.053176e-28)
(-4.5394469e-13 -7.4678198e-42 -7.4678198e-42)
(-3.0917761e-13 -1.013294e-28 -2.026588e-28)
(-3.7505659e-13 -5.6216717e-41 -5.6216717e-41)
(-4.2524306e-13 3.039882e-28 6.079764e-28)
(-4.152047e-13 -1.519941e-28 -1.519941e-28)
(-3.4393964e-13 -7.0270896e-42 -1.4054179e-41)
(-3.0954191e-13 1.013294e-28 1.013294e-28)
(-1.9513824e-13 -3.039882e-28 -6.079764e-28)
(6.7797699e-14 1.4082979e-41 2.026588e-28)
(-3.3474378e-14 -1.0583834e-41 -2.1167667e-41)
(-7.1445051e-14 1.0079842e-43 -3.546529e-28)
(-2.1549569e-14 3.1492305e-41 4.559823e-28)
(-1.1745773e-13 -5.06647e-28 -5.06647e-28)
(-1.7369584e-14 0 5.06647e-28)
(6.4752341e-14 0 0)
(1.1030286e-13 5.06647e-29 -1.013294e-28)
(3.1769637e-14 1.013294e-28 2.026588e-28)
(-1.1744735e-14 0 3.5063449e-42)
(-1.6108824e-15 0 -5.06647e-29)
(2.1401857e-13 0 0)
(1.9552515e-13 0 0)
(6.8802564e-15 2.026588e-28 2.026588e-28)
(2.6987243e-13 2.4443616e-41 -3.546529e-28)
(-4.250464e-14 -5.06647e-28 -5.06647e-28)
(6.194127e-14 2.1599661e-44 5.06647e-29)
(2.4869854e-13 -5.06647e-29 1.4399774e-44)
(1.830406e-13 5.06647e-29 5.06647e-29)
(3.2388672e-13 1.072242e-54 -7.0899451e-42)
(2.4223523e-13 1.4039779e-41 1.013294e-28)
(2.1102166e-13 -4.0811214e-59 0)
(2.051473e-13 5.06647e-29 5.06647e-29)
(2.7152401e-13 2.026588e-28 2.026588e-28)
(3.7498551e-13 -2.1209376e-41 0)
(2.999441e-13 5.06647e-28 5.06647e-28)
(4.5544909e-13 1.0639587e-27 3.546529e-28)
(1.9166046e-13 -3.039882e-28 -6.079764e-28)
(3.9115052e-13 -3.039882e-28 1.0519035e-41)
(5.8846544e-13 0 -5.7599095e-44)
(1.4042642e-13 3.039882e-28 3.039882e-28)
(1.0237957e-13 1.013294e-28 1.013294e-28)
(2.6622067e-13 1.013294e-28 1.013294e-28)
(1.1861376e-13 -2.8799547e-44 -1.013294e-28)
(9.3503785e-14 -8.7864332e-56 -1.0322291e-43)
(-1.2539614e-13 5.7599095e-44 1.1519819e-43)
(-1.96476e-13 2.026588e-28 4.053176e-28)
(-1.2917954e-13 2.026588e-28 -2.026588e-28)
(-4.1061582e-14 -2.533235e-28 -2.533235e-28)
(-9.3025111e-14 -4.053176e-28 -2.026588e-28)
(-4.2422825e-14 1.519941e-28 -2.1081269e-41)
(-3.4637301e-14 1.4636499e-56 -5.06647e-29)
(7.0112997e-14 -3.039882e-28 0)
(1.4793982e-13 -1.1231824e-40 0)
(1.462108e-13 8.106352e-28 4.053176e-28)
(-4.9285365e-14 0 -4.9240026e-41)
(8.5056993e-15 0 7.0306895e-41)
(-5.7131602e-14 -2.026588e-28 1.4082979e-41)
(1.0772066e-14 1.1254863e-40 -2.026588e-28)
(2.1989386e-13 4.053176e-28 2.026588e-28)
(1.2213586e-13 0 6.4798982e-44)
(2.2690874e-13 7.093058e-28 7.093058e-28)
(1.6509729e-13 2.533235e-28 0)
(8.8801815e-14 -1.013294e-28 0)
(3.5520917e-14 4.3199321e-44 0)
(1.6180819e-13 -4.9240026e-41 0)
(4.7258911e-13 3.5999434e-44 0)
(5.1760217e-13 1.519941e-28 0)
(2.5451765e-13 7.7255104e-42 0)
(1.3270923e-13 -5.06647e-29 -5.06647e-29)
(-6.9167527e-14 0 0)
(2.0066864e-13 1.013294e-28 1.013294e-28)
(7.9884571e-14 -2.1102868e-41 0)
(1.1557193e-13 -4.559823e-28 -4.559823e-28)
(2.4382475e-13 1.013294e-27 -1.4054179e-40)
(2.7352341e-13 -9.8379254e-41 3.546529e-28)
(3.1620402e-13 -2.026588e-28 0)
(5.0601493e-13 -1.4068579e-41 0)
(5.2257773e-13 1.013294e-28 5.06647e-29)
(5.4490087e-13 -5.06647e-28 3.5171447e-41)
(4.0206834e-13 -3.546529e-28 -3.546529e-28)
(9.4785485e-14 2.026588e-28 0)
(2.7201471e-13 2.8799547e-44 0)
(3.3226141e-13 2.026588e-28 2.026588e-28)
(3.9713751e-13 0 5.06647e-29)
(5.3440939e-13 0 -5.06647e-29)
(5.7678152e-13 -2.533235e-28 -2.533235e-28)
(5.3712312e-13 3.5135448e-41 0)
(4.4816821e-13 3.039882e-28 1.519941e-28)
(6.0559804e-13 -3.5999434e-44 -3.5999434e-44)
(6.6491714e-13 -1.3679469e-27 -4.559823e-28)
(4.9995633e-13 5.06647e-28 5.06647e-28)
(3.8284942e-13 1.519941e-28 1.519941e-28)
(1.6114911e-13 4.053176e-28 2.026588e-28)
(1.1165869e-14 -4.559823e-28 4.559823e-28)
(7.0923546e-14 5.573117e-28 0)
(-1.3930336e-13 8.106352e-28 -4.053176e-28)
(-3.2461443e-14 -1.013294e-28 -1.013294e-28)
(1.1776299e-13 2.026588e-28 -2.026588e-28)
(5.9828439e-14 3.039882e-28 -3.039882e-28)
(6.1381778e-14 -2.026588e-28 0)
(2.3895991e-13 6.7893918e-70 1.013294e-28)
(8.3335793e-14 1.519941e-28 1.519941e-28)
(2.540888e-13 -2.026588e-28 -2.026588e-28)
(4.4931851e-14 1.519941e-28 -1.519941e-28)
(1.0504699e-13 -6.9926203e-42 0)
(3.2540489e-13 -2.8079559e-41 0)
(1.7048563e-13 -8.6398642e-44 0)
(2.4709116e-13 -2.533235e-28 0)
(1.788323e-13 4.053176e-28 0)
(4.1744026e-13 -1.519941e-28 0)
(4.6756658e-13 1.4068579e-41 0)
(4.7802512e-13 -8.4325075e-41 0)
(2.2848181e-13 -4.053176e-28 -4.053176e-28)
(1.6444423e-13 -7.093058e-28 -7.806133e-56)
(1.2697754e-13 6.079764e-28 2.026588e-28)
(2.8007406e-13 1.991738e-54 0)
(1.9258343e-13 1.1243343e-40 0)
(1.9070453e-13 -2.8079559e-41 0)
(2.1926771e-13 -1.013294e-28 -5.06647e-29)
(-6.613122e-15 -1.013294e-28 7.0270896e-42)
(3.5747697e-14 -1.4054179e-41 5.06647e-29)
(-5.3653069e-14 -3.039882e-28 -1.519941e-28)
(-2.618521e-13 0 2.1102868e-41)
(-1.5336446e-14 0 2.6927957e-59)
(-1.8709084e-13 -2.533235e-28 3.5171447e-41)
(-2.9209383e-13 7.0270896e-42 -5.06647e-29)
(-3.1561052e-13 -1.519941e-28 -1.519941e-28)
(-3.1557667e-13 7.3321517e-42 -7.3203554e-42)
(-2.916374e-13 -2.026588e-28 1.1260623e-40)
(-4.0675673e-13 -6.079764e-28 2.026588e-28)
(-7.0507007e-13 6.923681e-42 -6.923681e-42)
(-5.908681e-13 -1.013294e-28 0)
(-4.9528209e-13 -1.4399774e-44 0)
(-4.572842e-13 0 0)
(-2.642051e-13 0 -7.0342895e-42)
(-1.5325413e-13 3.039882e-28 1.519941e-28)
(-7.2425981e-14 3.039882e-28 -1.519941e-28)
(-4.1627371e-14 -2.026588e-28 -2.026588e-28)
(-1.2128113e-13 -5.06647e-28 0)
(3.8164991e-14 -1.519941e-28 1.519941e-28)
(-3.9338674e-14 1.013294e-28 5.06647e-29)
(-1.0545534e-13 -3.039882e-28 1.519941e-28)
(1.9329859e-13 7.093058e-28 9.8429653e-41)
(1.4585825e-13 4.053176e-28 -7.806133e-56)
(1.2536592e-14 0 -7.0342895e-42)
(5.5197908e-14 2.026588e-28 1.013294e-28)
(1.0528709e-13 -5.06647e-29 -5.06647e-29)
(2.1515423e-13 1.013294e-28 -7.806133e-56)
(3.3254611e-13 5.06647e-29 -7.0342895e-42)
(1.93356e-13 2.533235e-28 -2.533235e-28)
(2.7941795e-13 -2.1599661e-44 0)
(1.9608989e-13 1.4068579e-41 0)
(2.021951e-13 5.06647e-29 5.06647e-29)
(4.7328761e-13 1.013294e-28 -1.4399774e-44)
(3.6987169e-13 2.0598881e-41 8.5812326e-54)
(1.3280334e-13 -1.013294e-28 -1.013294e-28)
(3.0460655e-13 4.9189627e-41 0)
(3.2420292e-13 5.7599095e-44 0)
(5.1851478e-13 2.1081269e-41 1.519941e-28)
(3.84886e-13 -2.533235e-28 7.0234896e-41)
(5.4698398e-13 3.039882e-28 3.039882e-28)
(3.6840338e-13 -6.3308605e-41 0)
(2.0331555e-13 -3.5171447e-41 0)
(5.2204549e-14 -8.4368274e-41 0)
(-4.7750748e-14 -1.519941e-28 -1.519941e-28)
(-2.6723594e-14 -1.1796295e-44 -9.7582155e-57)
(5.6004052e-15 2.8137158e-41 -2.026588e-28)
(-5.3127567e-14 5.6187917e-41 2.026588e-28)
(-2.2976724e-13 -1.4399774e-44 1.013294e-28)
(-1.3555822e-13 -4.053176e-28 -5.6331915e-41)
(-7.5849255e-15 -3.039882e-28 -6.079764e-28)
(1.6321426e-13 2.533235e-28 2.533235e-28)
(4.6023454e-13 -2.026588e-28 -4.2205737e-41)
(2.8369992e-13 7.0342895e-42 -7.0342895e-42)
(1.5839549e-13 1.3816394e-41 9.5983766e-55)
(3.6441473e-13 5.06647e-29 5.06647e-29)
(2.0637113e-13 -1.013294e-28 0)
(9.242855e-14 -2.026588e-28 0)
(-2.3345683e-14 2.026588e-28 -2.026588e-28)
(1.5265005e-13 1.519941e-28 -2.1102868e-41)
(1.2417612e-13 5.6245516e-41 5.6245516e-41)
(2.4270089e-13 -2.026588e-28 1.3798812e-69)
(2.1095128e-13 0 1.519941e-28)
(2.3356956e-13 0 -2.026588e-28)
(3.7739201e-13 -1.013294e-28 -1.013294e-28)
(4.3780018e-13 0 0)
(4.4583077e-13 -5.06647e-29 -5.06647e-29)
(4.580662e-13 1.013294e-28 -1.4068579e-41)
(6.3821761e-13 -1.4399774e-44 -1.013294e-28)
(7.9305029e-13 1.4061379e-41 0)
(7.3221555e-13 0 0)
(5.1342461e-13 -2.026588e-28 -2.026588e-28)
(9.3123405e-13 -1.5833819e-42 -1.0206197e-56)
(6.8137308e-13 -5.06647e-29 -4.8788331e-57)
(4.7523676e-13 5.7731718e-43 2.8865859e-43)
(5.9613931e-13 2.026588e-28 -2.026588e-28)
(5.2337716e-13 -2.533235e-28 3.5099449e-41)
(4.8415617e-13 0 -2.1102868e-41)
(2.6632014e-13 0 2.8122758e-41)
(1.9101114e-13 5.06647e-29 5.06647e-29)
(2.0974268e-13 -5.6303115e-41 -2.026588e-28)
(2.5023758e-13 -2.533235e-28 7.0342895e-41)
(4.4644407e-13 0 -4.2227337e-41)
(2.778227e-13 0 1.4075779e-41)
(2.4317821e-13 5.06647e-29 5.06647e-29)
(4.4340583e-13 -6.3330205e-41 -1.519941e-28)
(2.8240821e-13 -5.06647e-29 1.4068579e-41)
(7.8246994e-14 0 -7.0486892e-42)
(4.0562031e-14 0 0)
(-2.7737998e-14 0 -2.026588e-28)
(-2.5629998e-13 0 3.546529e-28)
(-1.7589007e-13 0 -2.8137158e-41)
(1.1850069e-13 0 2.1599661e-44)
(7.4392243e-14 0 -1.4068579e-41)
(-8.0436807e-14 0 2.8165957e-41)
(-1.7176912e-13 5.06647e-28 2.533235e-28)
(-1.9068689e-13 8.4368274e-41 -1.519941e-28)
(-8.9154137e-14 -2.026588e-28 -2.026588e-28)
(-1.5460236e-13 1.013294e-28 1.013294e-28)
(-2.1150344e-13 5.06647e-29 -5.06647e-29)
(-2.9327847e-13 -1.519941e-28 0)
(-3.2571664e-13 1.4082979e-41 5.06647e-29)
(-3.5102977e-13 -1.519941e-28 -1.519941e-28)
(-2.1355237e-13 -8.4411474e-41 0)
(-2.1734291e-13 -3.546529e-28 3.546529e-28)
(-5.3243788e-14 0 2.949134e-54)
(-4.4964235e-14 0 -2.1599661e-44)
(1.6293867e-14 1.519941e-28 2.1081269e-41)
(-6.7886345e-14 9.8480053e-41 -3.546529e-28)
(-1.4623445e-13 -3.546529e-28 3.546529e-28)
(7.3905344e-14 0 4.2162538e-41)
(2.547917e-13 0 -5.6274316e-41)
(2.367522e-14 0 -3.039882e-28)
(4.4347411e-14 0 -3.546529e-28)
(-5.7973358e-14 0 3.039882e-28)
(1.2667548e-13 0 -1.4399774e-44)
(-3.9553105e-14 0 -7.0270896e-42)
(-5.1140278e-14 -2.9219486e-41 -1.4609743e-41)
(-1.0218419e-13 -1.6870775e-40 -2.026588e-28)
(-1.6201949e-13 -3.039882e-28 2.1102868e-41)
(-1.5157104e-13 1.519941e-28 1.519941e-28)
(-1.336043e-13 7.1998869e-45 0)
(-1.221242e-13 -2.1097673e-41 0)
(-1.8095663e-13 -8.4281876e-41 0)
(-1.2931648e-13 2.876383e-41 1.4393711e-41)
(-6.9789349e-13 5.06647e-29 5.06647e-29)
(-5.908639e-13 -3.2435014e-70 1.013294e-28)
(-6.9682787e-13 3.039882e-28 1.013294e-28)
(-7.3536067e-13 0 0)
(-9.4437606e-13 4.053176e-28 2.026588e-28)
(-8.9554709e-13 0 3.039882e-28)
(-1.0540995e-12 0 -5.06647e-29)
(-1.2880534e-12 4.053176e-28 2.026588e-28)
(-1.2728312e-12 4.0125655e-54 0)
(-1.5244225e-12 3.7051841e-41 1.2350614e-41)
(-1.3591025e-12 4.3991444e-41 -4.3979648e-41)
(-1.0435122e-12 -2.026588e-28 -2.026588e-28)
(-1.0732451e-12 2.533235e-28 -7.0342895e-41)
(-1.0132773e-12 -2.533235e-28 2.533235e-28)
(-1.1753367e-12 5.06647e-29 0)
(-1.1170539e-12 -1.4054179e-41 0)
(-9.9392712e-13 -2.026588e-28 0)
(-1.1038041e-12 1.519941e-28 0)
(-1.1291909e-12 0 5.06647e-29)
(-1.0521243e-12 -1.519941e-28 -4.2162538e-41)
(-1.0282998e-12 1.013294e-28 -1.013294e-28)
(-9.1475037e-13 -1.013294e-28 -5.06647e-29)
(-9.9625512e-13 1.013294e-28 -1.4068579e-41)
(-1.0935244e-12 1.48855e-41 2.0870007e-54)
(-8.6473464e-13 -1.013294e-28 9.7576662e-57)
(-8.4411199e-13 5.06647e-29 -5.06647e-29)
(-7.0970168e-13 -5.06647e-28 -2.533235e-28)
(-7.1625099e-13 -2.533235e-28 5.06647e-28)
(-6.1848687e-13 6.9022989e-42 9.6788416e-55)
(-5.6271184e-13 0 1.4054179e-41)
(-5.8317867e-13 1.519941e-28 -1.519941e-28)
(-5.6238472e-13 -5.06647e-29 0)
(-6.2448543e-13 1.519941e-28 -1.519941e-28)
(-5.2406028e-13 -9.119646e-28 -3.039882e-28)
(-5.2846925e-13 -8.6398642e-44 3.039882e-28)
(-7.3525448e-13 5.06647e-28 7.0270896e-41)
(-7.5721872e-13 -4.053176e-28 -4.053176e-28)
(-5.6682633e-13 -7.0342895e-41 0)
(-4.3579832e-13 -4.559823e-28 0)
(-5.8070755e-13 1.2959796e-43 4.559823e-28)
(-5.0207314e-13 7.093058e-28 -4.9189627e-41)
(-5.8931488e-13 -1.417989e-41 -1.417989e-41)
(-5.5569503e-13 0 0)
(-7.3913983e-13 -1.1254863e-40 -4.053176e-28)
(-8.2481109e-13 -7.1998869e-45 7.1998869e-45)
(-6.6790693e-13 1.013294e-28 2.8137158e-41)
(-6.3472425e-13 5.06647e-29 -7.0270896e-42)
(-4.2531575e-13 -2.8137158e-41 1.013294e-28)
(-5.0543271e-13 -3.5135448e-41 -2.533235e-28)
(-2.292221e-13 -2.1599661e-44 2.1599661e-44)
(-8.9693956e-14 1.519941e-28 4.2205737e-41)
(-9.6662682e-14 -2.026588e-28 2.026588e-28)
(-1.173919e-13 -1.4636499e-56 -5.06647e-29)
(-8.0898424e-14 -3.9454675e-54 3.9454675e-54)
(-8.3948098e-14 2.1599661e-44 -2.1599661e-44)
(-4.1757634e-15 2.026588e-28 1.4068579e-41)
(8.6648858e-14 7.0270896e-42 5.06647e-29)
(1.2417671e-13 -1.013294e-28 -1.013294e-28)
(-1.1748949e-13 0 0)
(-3.826375e-14 0 -1.4064979e-40)
(1.9626185e-13 -3.546529e-28 -4.9189627e-41)
(1.3969981e-13 -6.3243806e-41 -6.3243806e-41)
(9.3446881e-14 -1.013294e-28 1.4399774e-44)
(5.3848452e-14 2.026588e-28 2.026588e-28)
(2.1735217e-13 -7.0342895e-42 -5.06647e-29)
(-7.3531516e-14 -5.8545997e-56 -5.8545997e-56)
(1.7907999e-13 -2.1102868e-41 -2.1102868e-41)
(3.1695533e-13 5.06647e-29 1.4068579e-41)
(2.0173431e-13 6.8536365e-42 -9.6060569e-55)
(1.7196727e-13 7.0270896e-42 1.013294e-28)
(1.9078426e-13 -1.519941e-28 -1.519941e-28)
(2.1613942e-13 0 1.519941e-28)
(1.1914523e-13 0 4.2205737e-41)
(-9.2286319e-14 -1.013294e-28 -1.4068579e-41)
(-4.672228e-15 5.06647e-29 -1.013294e-28)
(-5.7705674e-14 -1.2653081e-40 1.519941e-28)
(-6.9915597e-14 -2.026588e-28 2.026588e-28)
(-9.1605629e-14 1.519941e-28 -4.8788331e-57)
(-2.9556767e-14 0 0)
(-1.0393322e-13 1.519941e-28 -1.4636499e-56)
(-1.0148135e-13 2.533235e-28 -2.533235e-28)
(-1.985168e-13 -1.519941e-28 1.519941e-28)
(-3.6607868e-14 -5.06647e-29 4.8788331e-57)
(4.6214488e-14 0 -7.0270896e-42)
(1.0896649e-13 1.013294e-28 -1.4399774e-44)
(1.3584106e-13 2.026588e-28 -2.026588e-28)
(1.1043791e-13 -7.093058e-28 7.093058e-28)
(5.099133e-13 -1.519941e-28 4.2205737e-41)
(4.8716325e-13 -7.1519571e-43 7.1519571e-43)
(5.2090043e-13 5.06647e-29 7.0270896e-42)
(2.945999e-13 7.0270896e-42 -7.0270896e-42)
(4.6641049e-13 -1.519941e-28 -1.519941e-28)
(2.405502e-13 -9.8480053e-41 3.546529e-28)
(2.9703863e-13 6.079764e-28 1.624431e-68)
(2.123914e-13 0 1.8999061e-40)
(2.1424934e-13 0 -1.2668201e-40)
(2.0730667e-13 0 2.8122758e-41)
(-6.6757608e-15 3.546529e-28 -9.8480053e-41)
(-7.0969151e-14 7.093058e-28 -9.7576662e-57)
(-2.0963486e-13 0 0)
(-5.8597261e-14 -2.026588e-28 2.026588e-28)
(-6.5100985e-13 -2.1059669e-41 0)
(-7.1013231e-13 1.519941e-28 0)
(-7.9125649e-13 0 -2.026588e-28)
(-9.37095e-13 0 -2.8137158e-41)
(-8.7134738e-13 -3.4211388e-43 3.4211388e-43)
(-1.0276883e-12 -9.5286698e-55 0)
(-1.0776239e-12 -2.1059669e-41 0)
(-1.3232565e-12 1.4273899e-41 2.8547798e-41)
(-1.3409067e-12 3.039882e-28 -2.5306162e-40)
(-1.0950762e-12 -1.0540634e-40 5.06647e-28)
(-1.1258175e-12 -1.519941e-28 -1.519941e-28)
(-1.2086686e-12 0 1.4399774e-44)
(-1.0102369e-12 2.1382118e-43 2.9686943e-56)
(-8.1495105e-13 7.0342895e-42 5.06647e-29)
(-8.5728353e-13 -5.06647e-29 0)
(-7.2678243e-13 1.519941e-28 0)
(-8.1832064e-13 -3.039882e-28 0)
(-9.9101096e-13 -4.053176e-28 4.053176e-28)
(-1.1440702e-12 3.039882e-28 8.4325075e-41)
(-1.1895106e-12 0 -2.026588e-28)
(-1.181142e-12 -2.026588e-28 0)
(-1.1830071e-12 -1.519941e-28 0)
(-1.3433519e-12 2.8678302e-41 2.8678302e-41)
(-1.0403264e-12 -5.06647e-29 7.1998869e-45)
(-8.911076e-13 0 -3.039882e-28)
(-1.2268403e-12 2.533235e-28 0)
(-1.3774651e-12 -5.06647e-29 0)
(-1.2010678e-12 -1.2040573e-41 1.2040573e-41)
(-1.1259522e-12 -5.06647e-29 -1.4054179e-41)
(-1.0023709e-12 -3.039882e-28 -4.2227337e-41)
(-4.5377733e-13 1.4068579e-40 7.0342895e-41)
(-4.668451e-13 4.559823e-28 1.519941e-28)
(-2.1237592e-13 9.7576662e-57 7.3289015e-43)
(-1.8368294e-13 5.06647e-29 -1.4061379e-41)
(-3.7139276e-13 2.026588e-28 2.8122758e-41)
(-2.4954318e-13 1.5511297e-53 7.9916794e-54)
(-5.7199547e-13 3.039882e-28 1.519941e-28)
(-7.4431871e-13 -3.039882e-28 0)
(-5.5270567e-13 2.533235e-28 0)
(-4.3329349e-13 -1.519941e-28 -1.519941e-28)
(-7.3677284e-13 -2.026588e-28 -2.4394166e-55)
(-5.6955406e-13 4.053176e-28 2.026588e-28)
(-6.2445776e-13 0 0)
(-8.1373509e-13 0 0)
(-1.1695241e-12 -2.026588e-28 -1.013294e-28)
(-1.3590716e-12 -3.9030665e-56 -7.806133e-56)
(-1.1171518e-12 -2.8134163e-41 -1.4067081e-41)
(-1.306324e-12 0 0)
(-1.1711927e-12 0 0)
(-1.3588206e-12 -3.039882e-28 -1.519941e-28)
(-1.3386938e-12 -3.9030665e-56 -7.806133e-56)
(-1.3629801e-12 1.013294e-28 5.06647e-29)
(-1.5394906e-12 0 0)
(-1.5096019e-12 0 0)
(-1.507836e-12 -7.093058e-28 -3.546529e-28)
(-1.7579874e-12 -5.06647e-28 7.1998869e-44)
(-1.6052612e-12 9.119646e-28 4.559823e-28)
(-1.4587322e-12 1.519941e-28 -1.519941e-28)
(-1.5671065e-12 0 -4.3264292e-54)
(-1.4488778e-12 2.026588e-28 2.8151558e-41)
(-1.4061131e-12 8.6390459e-54 4.4348561e-54)
(-1.3726001e-12 2.026588e-28 1.013294e-28)
(-1.2332239e-12 1.4282008e-41 0)
(-1.3334842e-12 0 0)
(-1.1486664e-12 -1.519941e-28 0)
(-1.3557802e-12 -5.06647e-29 0)
(-1.6401792e-12 7.1998869e-45 0)
(-1.471613e-12 2.533235e-28 -2.533235e-28)
(-1.4988681e-12 -4.559823e-28 1.2655241e-40)
(-1.2914908e-12 2.533235e-28 2.533235e-28)
(-1.2945288e-12 1.519941e-28 0)
(-1.2257214e-12 -1.519941e-28 0)
(-1.1355876e-12 -5.06647e-29 0)
(-9.8217205e-13 -8.312344e-56 0)
(-9.9090258e-13 5.06647e-29 0)
(-9.744121e-13 -1.013294e-28 0)
(-9.0736893e-13 -2.8137158e-41 0)
(-8.4188903e-13 1.013294e-28 -1.013294e-28)
(-8.8076377e-13 1.013294e-28 -5.6245516e-41)
(-9.6032434e-13 -2.026588e-28 -2.026588e-28)
(-9.3812746e-13 -1.013294e-28 0)
(-9.3485713e-13 1.519941e-28 0)
(-1.0983631e-12 -5.06647e-29 0)
(-1.1533797e-12 5.6274316e-41 0)
(-1.1147268e-12 5.06647e-29 0)
(-1.226369e-12 -1.013294e-28 0)
(-9.4532967e-13 2.8799547e-44 0)
(-1.0296225e-12 1.013294e-28 -1.013294e-28)
(-7.2070019e-13 1.519941e-28 -4.2184137e-41)
(-7.7743946e-13 -5.06647e-29 -5.06647e-29)
(-7.5243839e-13 2.533235e-28 0)
(-6.7280671e-13 -3.039882e-28 0)
(-7.5258238e-13 -7.093058e-28 -3.546529e-28)
(-5.9309119e-13 1.970609e-40 9.8530452e-41)
(-7.2895373e-13 3.039882e-28 1.519941e-28)
(-9.095821e-13 -1.1225612e-42 0)
(-7.876953e-13 -7.1998869e-45 0)
(-7.6717205e-13 2.026588e-28 0)
(-7.5976158e-13 1.0079842e-43 -3.546529e-28)
(-5.7022028e-13 -3.546529e-28 -9.8530452e-41)
(-7.8074858e-13 0 2.533235e-28)
(-7.0031726e-13 1.519941e-28 0)
(-4.6924442e-13 0 0)
(-5.7833435e-13 2.533235e-28 0)
(-6.4744397e-13 0 0)
(-7.2741437e-13 0 0)
(-9.3890139e-13 0 0)
(-8.8294901e-13 -4.559823e-28 0)
(-5.5797343e-13 -9.7576662e-57 -3.039882e-28)
(-6.1236943e-13 2.026588e-28 2.8799547e-44)
(-3.7475622e-13 0 5.06647e-29)
(-4.9143121e-13 -1.519941e-28 0)
(-4.7066586e-13 -1.4068579e-41 0)
(-3.3079528e-13 -2.533235e-28 0)
(-5.5317838e-13 0 0)
(-6.2244502e-13 0 0)
(-5.5340076e-13 0 0)
(-4.2240162e-13 5.06647e-29 0)
(-5.2526703e-13 -5.6274316e-41 2.026588e-28)
(-3.6909453e-13 -2.533235e-28 3.5999434e-44)
(-2.9835626e-13 0 -2.533235e-28)
(-5.3111775e-13 -5.06647e-29 0)
(-2.245731e-13 3.8788154e-54 0)
(-1.5146184e-13 1.519941e-28 0)
(1.6722431e-13 0 3.546529e-28)
(1.0709108e-13 -5.06647e-28 -2.8129958e-40)
(2.1366365e-13 6.586411e-28 -6.586411e-28)
(1.9387607e-13 -4.2227337e-40 0)
(9.6069842e-14 -5.06647e-28 5.06647e-28)
(-7.1882325e-14 1.519941e-28 4.2227337e-41)
(8.0628604e-14 0 -1.013294e-28)
(4.184003e-13 1.519941e-28 0)
(3.6560778e-13 7.0342895e-41 0)