/*--------------------------------*- C++ -*----------------------------------*\
  =========                 |
  \\      /  F ield         | OpenFOAM: The Open Source CFD Toolbox
   \\    /   O peration     | Website:  https://openfoam.org
    \\  /    A nd           | Version:  7
     \\/     M anipulation  |
\*---------------------------------------------------------------------------*/
FoamFile
{
    version     2.0;
    format      ascii;
    class       volScalarField;
    location    "0.00096";
    object      T;
}
// * * * * * * * * * * * * * * * * * * * * * * * * * * * * * * * * * * * * * //

dimensions      [0 0 0 1 0 0 0];

internalField   nonuniform List<scalar> 
5000
(
293
293
293
293
293
293
293
293
293
293
293
293
293
293
293
293
293
293
293
293
293
293
293
293
293
293
293
293
293
293
293
293
293
293
293
293
293
293
293
293
293
293
293
293
293
293
293
293
293
293
293
293
293
293
293
293
293
293
293
293
293
293
293
293
293
293
293
293
293
293
293
293
293
293
293
293
293
293
293
293
293
293
293
293
293
293
293
293
293
293
293
293
293
293
293
293
293
293
293
293
293
293
293
293
293
293
293
293
293
293
293
293
293
293
293
293
293
293
293
293
293
293
293
293
293
293
293
293
293
293
293
293
293
293
293
293
293
293
293
293
293
293
293
293
293
293
293
293
293
293
293
293
293
293
293
293
293
293
293
293
293
293
293
293
293
293
293
293
293
293
293
293
293
293
293
293
293
293
293
293
293
293
293
293
293
293
293
293
293
293
293
293
293
293
293
293
293
293
293
293
293
293
293
293
293
293
293
293
293
293
293
293
293
293
293
293
293
293
293
293
293
293
293
293
293
293
293
293
293
293
293
293
293
293
293
293
293
293
293
293
293
293
293
293
293
293
293
293
293
293
293
293
293
293
293
293
293
293
293
293
293
293
293
293
293
293
293
293
293
293
293
293
293
293
293
293
293
293
293
293
293
293
293
293
293
293
293
293
293
293
293
293
293
293
293
293
293
293
293
293
293
293
293
293
293
293
293
293
293
293
293
293
293
293
293
293
293
293
293
293
293
293
293
293
293
293
293
293
293
293
293
293
293
293
293
293
293
293
293
293
293
293
293
293
293
293
293
293
293
293
293
293
293
293
293
293
293
293
293
293
293
293
293
293
293
293
293
293
293
293
293
293
293
293
293
293
293
293
293
293
293
293
293
293
293
293
293
293
293
293
293
293
293
293
293
293
293
293
293
293
293
293
293
293
293
293
293
293
293
293
293
293
293
293
293
293
293
293
293
293
293
293
293
293
293
293
293
293
293
293
293
293
293
293
293
293
293
293
293
293
293
293
293
293
293
293
293
293
293
293
293
293
293
293
293
293
293
293
293
293
293
293
293
293
293
293
293
293
293
293
293
293
293
293
293
293
293
293
293
293
293
293
293
293
293
293
293
293
293
293
293
293
293
293
293
293
293
293
293
293
293
293
293
293
293
293
293
293
293
293
293
293
293
293
293
293
293
293
293
293
293
293
293
293
293
293
293
293
293
293
293
293
293
293
293
293
292.99999
292.99999
292.99999
292.99999
292.99999
292.99999
292.99999
292.99999
292.99999
292.99999
292.99999
292.99999
292.99999
292.99999
292.99999
292.99999
292.99998
292.99998
292.99998
292.99998
292.99998
292.99998
292.99998
292.99998
292.99997
292.99997
292.99997
292.99997
292.99997
292.99996
292.99996
292.99996
292.99996
292.99995
292.99995
292.99995
292.99994
292.99994
292.99994
292.99993
292.99993
292.99992
292.99992
292.99991
292.99991
292.9999
292.99989
292.99989
292.99988
292.99987
292.99986
292.99986
292.99985
292.99984
292.99983
292.99982
292.99981
292.99979
292.99978
292.99977
292.99975
292.99974
292.99972
292.99971
292.99969
292.99967
292.99965
292.99963
292.99961
292.99959
292.99956
292.99954
292.99951
292.99948
292.99945
292.99942
292.99939
292.99935
292.99931
292.99928
292.99924
292.99919
292.99915
292.9991
292.99905
292.999
292.99894
292.99888
292.99882
292.99876
292.99869
292.99862
292.99854
292.99846
292.99838
292.99829
292.9982
292.99811
292.99801
292.9979
292.99779
292.99767
292.99755
292.99743
292.99729
292.99715
292.99701
292.99685
292.99669
292.99653
292.99635
292.99617
292.99597
292.99577
292.99556
292.99534
292.99511
292.99487
292.99462
292.99436
292.99409
292.9938
292.9935
292.99319
292.99286
292.99253
292.99217
292.9918
292.99142
292.99102
292.9906
292.99016
292.98971
292.98924
292.98875
292.98823
292.9877
292.98715
292.98657
292.98597
292.98534
292.98469
292.98402
292.98332
292.98259
292.98183
292.98105
292.98023
292.97938
292.97851
292.97759
292.97665
292.97566
292.97465
292.97359
292.9725
292.97136
292.97019
292.96897
292.96771
292.96641
292.96506
292.96366
292.96221
292.96071
292.95917
292.95757
292.95591
292.9542
292.95243
292.95061
292.94872
292.94678
292.94477
292.94269
292.94055
292.93834
292.93606
292.93371
292.93128
292.92878
292.92621
292.92355
292.92082
292.918
292.9151
292.91212
292.90905
292.90588
292.90263
292.89928
292.89584
292.8923
292.88867
292.88493
292.88108
292.87714
292.87308
292.86892
292.86465
292.86026
292.85576
292.85114
292.84641
292.84155
292.83657
292.83146
292.82623
292.82087
292.81537
292.80974
292.80398
292.79808
292.79204
292.78586
292.77954
292.77307
292.76645
292.75969
292.75277
292.7457
292.73847
292.73109
292.72355
292.71585
292.70798
292.69995
292.69176
292.68339
292.67486
292.66615
292.65727
292.64822
292.63899
292.62958
292.61999
292.61022
292.60026
292.59012
292.5798
292.56928
292.55858
292.54769
292.5366
292.52533
292.51386
292.50219
292.49033
292.47826
292.466
292.45354
292.44088
292.42802
292.41495
292.40168
292.38821
292.37452
292.36064
292.34654
292.33224
292.31773
292.30301
292.28809
292.27295
292.2576
292.24204
292.22627
292.21029
292.1941
292.17769
292.16107
292.14424
292.1272
292.10995
292.09249
292.07481
292.05692
292.03882
292.02051
292.00198
291.98325
291.9643
291.94515
291.92578
291.90621
291.88642
291.86643
291.84623
291.82582
291.80521
291.78439
291.76337
291.74215
291.72072
291.69909
291.67725
291.65522
291.63299
291.61056
291.58793
291.56511
291.5421
291.51889
291.49549
291.47189
291.44811
291.42414
291.39998
291.37564
291.35112
291.32641
291.30152
291.27645
291.2512
291.22578
291.20019
291.17442
291.14848
291.12237
291.09609
291.06965
291.04304
291.01627
290.98934
290.96226
290.93501
290.90761
290.88006
290.85236
290.82451
290.79651
290.76837
290.74009
290.71166
290.6831
290.6544
290.62557
290.59661
290.56751
290.53829
290.50894
290.47947
290.44988
290.42017
290.39035
290.36041
290.33036
290.3002
290.26993
290.23956
290.20908
290.17851
290.14784
290.11707
290.08621
290.05526
290.02423
289.99311
289.9619
289.93062
289.89925
289.86782
289.8363
289.80472
289.77308
289.74136
289.70959
289.67775
289.64586
289.61391
289.58191
289.54986
289.51776
289.48562
289.45344
289.42122
289.38896
289.35667
289.32435
289.292
289.25962
289.22723
289.19481
289.16237
289.12992
289.09746
289.06499
289.03252
289.00004
288.96756
288.93508
288.9026
288.87014
288.83769
288.80524
288.77282
288.74041
288.70803
288.67567
288.64334
288.61104
288.57878
288.54655
288.51436
288.48221
288.45011
288.41805
288.38605
288.3541
288.3222
288.29037
288.2586
288.2269
288.19526
288.16369
288.1322
288.10079
288.06946
288.03821
288.00705
287.97598
287.945
287.91411
287.88332
287.85264
287.82206
287.79158
287.76122
287.73097
287.70083
287.67081
287.64092
287.61115
287.58151
287.552
287.52262
287.49338
287.46428
287.43532
287.40651
287.37784
287.34933
287.32097
287.29276
287.26472
287.23683
287.20912
287.18157
287.15419
287.12698
287.09995
287.0731
287.04643
287.01994
286.99364
286.96753
286.94161
286.91588
286.89035
286.86502
286.83989
286.81497
286.79025
286.76573
286.74143
286.71734
286.69347
286.66981
286.64637
286.62316
286.60016
286.57739
286.55485
286.53254
286.51045
286.4886
286.46698
286.4456
286.42445
286.40354
286.38287
286.36244
286.34226
286.32231
286.30261
286.28316
286.26395
286.24499
286.22628
286.20782
286.1896
286.17164
286.15392
286.13646
286.11925
286.10229
286.08559
286.06913
286.05293
286.03698
286.02128
286.00583
285.99063
285.97569
285.96099
285.94655
285.93235
285.91841
285.90471
285.89125
285.87805
285.86509
285.85237
285.8399
285.82766
285.81567
285.80391
285.7924
285.78111
285.77007
285.75925
285.74866
285.73831
285.72817
285.71827
285.70858
285.69912
285.68987
285.68084
285.67202
285.66341
285.65501
285.64682
285.63883
285.63104
285.62345
285.61605
285.60885
285.60184
285.59501
285.58837
285.58191
285.57563
285.56953
285.56359
285.55783
285.55224
285.5468
285.54153
285.53642
285.53146
285.52665
285.522
285.51748
285.51311
285.50888
285.50479
285.50083
285.497
285.4933
285.48972
285.48627
285.48293
285.47971
285.4766
285.4736
285.47071
285.46793
285.46524
285.46266
285.46017
285.45777
285.45547
285.45325
285.45112
285.44907
285.4471
285.44521
285.4434
285.44166
285.43999
285.43839
285.43685
285.43538
285.43398
285.43263
285.43134
285.43011
285.42893
285.4278
285.42672
285.42569
285.42471
285.42377
285.42288
285.42202
285.42121
285.42044
285.4197
285.419
285.41833
285.41769
285.41709
285.41651
285.41597
285.41545
285.41496
285.41449
285.41404
285.41362
285.41323
285.41285
285.41249
285.41215
285.41183
285.41153
285.41125
285.41098
285.41072
285.41048
285.41025
285.41004
285.40984
285.40965
285.40947
285.4093
285.40914
285.40899
285.40885
285.40872
285.40859
285.40848
285.40837
285.40827
285.40817
285.40808
285.408
285.40792
285.40784
285.40778
285.40771
285.40765
285.4076
285.40754
285.4075
285.40745
285.40741
285.40737
285.40734
285.4073
285.40727
285.40724
285.40722
285.40719
285.40717
285.40715
285.40713
285.40711
285.4071
285.40708
285.40707
285.40706
285.40705
285.40704
285.40703
285.40702
285.40701
285.407
285.407
285.40699
285.40699
285.40698
285.40698
285.40697
285.40697
285.40696
285.40695
285.40695
285.40694
285.40694
285.40693
285.40692
285.40691
285.40691
285.4069
285.40689
285.40689
285.40688
285.40688
285.40687
285.40686
285.40686
285.40686
285.40685
285.40685
285.40685
285.40684
285.40684
285.40684
285.40684
285.40684
285.40684
285.40683
285.40683
285.40683
285.40683
285.40682
285.40682
285.40681
285.40681
285.40681
285.4068
285.4068
285.40679
285.40679
285.40678
285.40677
285.40677
285.40677
285.40676
285.40676
285.40675
285.40675
285.40674
285.40674
285.40673
285.40673
285.40673
285.40672
285.40672
285.40671
285.40671
285.40671
285.40671
285.40671
285.4067
285.4067
285.4067
285.4067
285.4067
285.4067
285.40669
285.40669
285.40669
285.40669
285.40668
285.40668
285.40668
285.40668
285.40667
285.40667
285.40667
285.40667
285.40667
285.40666
285.40666
285.40666
285.40665
285.40665
285.40665
285.40665
285.40665
285.40664
285.40664
285.40664
285.40664
285.40664
285.40664
285.40664
285.40664
285.40664
285.40664
285.40663
285.40663
285.40663
285.40663
285.40663
285.40663
285.40663
285.40663
285.40662
285.40662
285.40662
285.40662
285.40662
285.40662
285.40662
285.40662
285.40661
285.40661
285.40661
285.40661
285.40661
285.40661
285.40661
285.40661
285.40661
285.40661
285.40661
285.40661
285.40661
285.4066
285.4066
285.4066
285.4066
285.4066
285.4066
285.4066
285.4066
285.4066
285.4066
285.4066
285.4066
285.4066
285.4066
285.4066
285.40659
285.40659
285.40659
285.40659
285.40659
285.40659
285.40659
285.40659
285.40658
285.40659
285.40659
285.40659
285.40659
285.40659
285.40659
285.40659
285.40659
285.40659
285.40659
285.40659
285.40659
285.40659
285.4066
285.4066
285.4066
285.4066
285.40659
285.40659
285.40659
285.40659
285.4066
285.4066
285.4066
285.4066
285.4066
285.4066
285.4066
285.4066
285.4066
285.40661
285.40661
285.40661
285.40661
285.40661
285.40661
285.40661
285.40661
285.40662
285.40662
285.40662
285.40662
285.40662
285.40662
285.40662
285.40662
285.40662
285.40662
285.40662
285.40662
285.40662
285.40662
285.40663
285.40663
285.40664
285.40664
285.40664
285.40664
285.40664
285.40665
285.40665
285.40665
285.40665
285.40666
285.40666
285.40667
285.40667
285.40667
285.40667
285.40667
285.40667
285.40667
285.40667
285.40667
285.40668
285.40668
285.40668
285.40669
285.40669
285.40669
285.40669
285.40669
285.40669
285.4067
285.4067
285.4067
285.40671
285.40671
285.40671
285.40671
285.40671
285.40671
285.40672
285.40672
285.40672
285.40672
285.40673
285.40673
285.40673
285.40673
285.40673
285.40674
285.40674
285.40675
285.40675
285.40676
285.40676
285.40676
285.40677
285.40677
285.40677
285.40677
285.40677
285.40678
285.40678
285.40678
285.40679
285.40679
285.4068
285.4068
285.4068
285.4068
285.4068
285.40681
285.40681
285.40681
285.40682
285.40682
285.40682
285.40682
285.40683
285.40683
285.40683
285.40684
285.40684
285.40684
285.40685
285.40685
285.40685
285.40686
285.40686
285.40686
285.40687
285.40687
285.40687
285.40688
285.40688
285.40689
285.40689
285.40689
285.40689
285.4069
285.4069
285.4069
285.40691
285.40691
285.40691
285.40692
285.40692
285.40692
285.40693
285.40693
285.40693
285.40694
285.40694
285.40694
285.40695
285.40695
285.40696
285.40696
285.40696
285.40696
285.40697
285.40697
285.40698
285.40698
285.40698
285.40699
285.40699
285.40699
285.407
285.407
285.407
285.40701
285.40701
285.40701
285.40701
285.40702
285.40703
285.40703
285.40704
285.40704
285.40704
285.40704
285.40705
285.40705
285.40705
285.40705
285.40706
285.40706
285.40706
285.40707
285.40707
285.40708
285.40708
285.40708
285.40709
285.40709
285.40709
285.40709
285.4071
285.4071
285.4071
285.40711
285.40711
285.40711
285.40712
285.40712
285.40712
285.40713
285.40713
285.40713
285.40713
285.40714
285.40714
285.40715
285.40715
285.40715
285.40716
285.40716
285.40716
285.40717
285.40717
285.40717
285.40717
285.40718
285.40718
285.40718
285.40719
285.40719
285.4072
285.4072
285.4072
285.40721
285.40721
285.40722
285.40722
285.40723
285.40723
285.40723
285.40723
285.40723
285.40724
285.40724
285.40724
285.40724
285.40725
285.40725
285.40726
285.40726
285.40727
285.40727
285.40727
285.40728
285.40728
285.40728
285.40728
285.40729
285.40729
285.4073
285.4073
285.40731
285.40731
285.40731
285.40732
285.40732
285.40732
285.40733
285.40733
285.40733
285.40733
285.40734
285.40734
285.40734
285.40735
285.40735
285.40736
285.40736
285.40737
285.40737
285.40737
285.40738
285.40738
285.40738
285.40738
285.40739
285.40739
285.4074
285.4074
285.4074
285.40741
285.40741
285.40742
285.40742
285.40742
285.40743
285.40743
285.40744
285.40744
285.40744
285.40745
285.40745
285.40745
285.40746
285.40746
285.40747
285.40747
285.40747
285.40748
285.40748
285.40748
285.40749
285.40749
285.40749
285.4075
285.4075
285.4075
285.40751
285.40751
285.40752
285.40752
285.40753
285.40753
285.40754
285.40754
285.40754
285.40754
285.40755
285.40755
285.40755
285.40756
285.40756
285.40757
285.40757
285.40758
285.40758
285.40758
285.40759
285.40759
285.40759
285.4076
285.4076
285.40761
285.40761
285.40761
285.40762
285.40762
285.40763
285.40763
285.40763
285.40764
285.40764
285.40764
285.40764
285.40765
285.40765
285.40765
285.40766
285.40766
285.40767
285.40767
285.40768
285.40768
285.40768
285.40769
285.40769
285.40769
285.4077
285.4077
285.40771
285.40771
285.40772
285.40772
285.40772
285.40773
285.40773
285.40773
285.40773
285.40774
285.40774
285.40775
285.40775
285.40776
285.40776
285.40777
285.40777
285.40777
285.40777
285.40778
285.40778
285.40778
285.40779
285.40779
285.4078
285.4078
285.40781
285.40781
285.40782
285.40782
285.40782
285.40783
285.40783
285.40784
285.40784
285.40784
285.40785
285.40785
285.40785
285.40786
285.40786
285.40787
285.40787
285.40788
285.40788
285.40789
285.40789
285.40789
285.4079
285.4079
285.4079
285.40791
285.40791
285.40791
285.40792
285.40792
285.40793
285.40793
285.40794
285.40795
285.40795
285.40796
285.40796
285.40797
285.40797
285.40797
285.40797
285.40798
285.40798
285.40799
285.40799
285.408
285.408
285.40801
285.40801
285.40802
285.40802
285.40802
285.40803
285.40803
285.40803
285.40804
285.40804
285.40805
285.40805
285.40806
285.40806
285.40807
285.40807
285.40808
285.40808
285.40808
285.40809
285.40809
285.4081
285.4081
285.40811
285.40811
285.40812
285.40812
285.40813
285.40813
285.40814
285.40814
285.40815
285.40815
285.40816
285.40816
285.40817
285.40817
285.40817
285.40818
285.40818
285.40819
285.40819
285.4082
285.4082
285.40821
285.40821
285.40822
285.40822
285.40823
285.40823
285.40824
285.40824
285.40825
285.40825
285.40826
285.40826
285.40826
285.40827
285.40827
285.40828
285.40829
285.40829
285.4083
285.4083
285.4083
285.40831
285.40831
285.40832
285.40832
285.40833
285.40833
285.40834
285.40834
285.40835
285.40835
285.40836
285.40836
285.40836
285.40837
285.40837
285.40838
285.40839
285.40839
285.4084
285.4084
285.40841
285.40841
285.40842
285.40842
285.40843
285.40843
285.40844
285.40844
285.40844
285.40845
285.40845
285.40846
285.40847
285.40847
285.40848
285.40848
285.40849
285.40849
285.4085
285.4085
285.40851
285.40851
285.40852
285.40852
285.40853
285.40853
285.40854
285.40854
285.40855
285.40855
285.40856
285.40857
285.40857
285.40858
285.40858
285.40859
285.40859
285.4086
285.4086
285.40861
285.40861
285.40862
285.40863
285.40863
285.40864
285.40865
285.40865
285.40866
285.40866
285.40867
285.40867
285.40868
285.40868
285.40869
285.40869
285.4087
285.40871
285.40871
285.40872
285.40872
285.40873
285.40874
285.40874
285.40875
285.40876
285.40876
285.40877
285.40877
285.40878
285.40878
285.40879
285.40879
285.4088
285.40881
285.40881
285.40882
285.40882
285.40883
285.40884
285.40884
285.40885
285.40885
285.40886
285.40886
285.40887
285.40888
285.40888
285.40889
285.40889
285.4089
285.40891
285.40891
285.40892
285.40893
285.40893
285.40894
285.40895
285.40895
285.40896
285.40896
285.40897
285.40897
285.40898
285.40899
285.40899
285.409
285.40901
285.40901
285.40902
285.40903
285.40903
285.40904
285.40905
285.40906
285.40906
285.40907
285.40908
285.40908
285.40909
285.4091
285.4091
285.40911
285.40912
285.40912
285.40913
285.40914
285.40914
285.40915
285.40916
285.40916
285.40917
285.40918
285.40918
285.40919
285.4092
285.40921
285.40922
285.40922
285.40923
285.40924
285.40924
285.40925
285.40926
285.40926
285.40927
285.40927
285.40928
285.40929
285.40929
285.4093
285.40931
285.40932
285.40933
285.40934
285.40934
285.40935
285.40936
285.40936
285.40937
285.40938
285.40938
285.40939
285.4094
285.4094
285.40941
285.40942
285.40943
285.40944
285.40944
285.40945
285.40946
285.40947
285.40947
285.40948
285.40949
285.4095
285.4095
285.40951
285.40952
285.40953
285.40953
285.40954
285.40955
285.40956
285.40956
285.40957
285.40958
285.40959
285.4096
285.4096
285.40961
285.40962
285.40963
285.40964
285.40965
285.40965
285.40966
285.40967
285.40968
285.40969
285.40969
285.4097
285.40971
285.40972
285.40973
285.40974
285.40975
285.40975
285.40976
285.40977
285.40978
285.40979
285.4098
285.4098
285.40981
285.40982
285.40983
285.40984
285.40984
285.40985
285.40986
285.40987
285.40988
285.40989
285.4099
285.40991
285.40992
285.40993
285.40993
285.40994
285.40995
285.40996
285.40997
285.40998
285.40999
285.41
285.41001
285.41002
285.41003
285.41004
285.41005
285.41006
285.41006
285.41007
285.41008
285.41009
285.4101
285.41011
285.41012
285.41013
285.41014
285.41015
285.41016
285.41017
285.41018
285.41019
285.4102
285.41021
285.41022
285.41022
285.41023
285.41024
285.41025
285.41026
285.41028
285.41029
285.4103
285.41031
285.41032
285.41033
285.41034
285.41035
285.41036
285.41037
285.41038
285.41039
285.4104
285.41041
285.41042
285.41043
285.41045
285.41046
285.41047
285.41048
285.41049
285.4105
285.41051
285.41052
285.41053
285.41054
285.41055
285.41056
285.41057
285.41058
285.41059
285.41061
285.41062
285.41063
285.41064
285.41065
285.41066
285.41067
285.41068
285.4107
285.41071
285.41072
285.41074
285.41075
285.41076
285.41077
285.41079
285.4108
285.41081
285.41082
285.41083
285.41084
285.41085
285.41087
285.41088
285.41089
285.4109
285.41091
285.41093
285.41094
285.41095
285.41097
285.41098
285.41099
285.41101
285.41102
285.41103
285.41105
285.41106
285.41107
285.41109
285.4111
285.41111
285.41113
285.41114
285.41115
285.41117
285.41118
285.41119
285.41121
285.41122
285.41124
285.41125
285.41126
285.41128
285.41129
285.41131
285.41132
285.41133
285.41135
285.41136
285.41138
285.41139
285.41141
285.41142
285.41144
285.41145
285.41147
285.41148
285.4115
285.41151
285.41153
285.41154
285.41155
285.41157
285.41158
285.4116
285.41162
285.41163
285.41165
285.41167
285.41168
285.4117
285.41172
285.41173
285.41175
285.41176
285.41178
285.4118
285.41181
285.41183
285.41184
285.41186
285.41187
285.41189
285.41191
285.41193
285.41195
285.41196
285.41198
285.412
285.41202
285.41203
285.41205
285.41207
285.41209
285.4121
285.41212
285.41214
285.41216
285.41218
285.41219
285.41221
285.41223
285.41225
285.41227
285.41229
285.4123
285.41232
285.41234
285.41236
285.41237
285.41239
285.41241
285.41243
285.41246
285.41248
285.4125
285.41252
285.41254
285.41256
285.41258
285.41259
285.41261
285.41263
285.41266
285.41268
285.41271
285.41273
285.41275
285.41277
285.41279
285.41281
285.41283
285.41285
285.41287
285.4129
285.41292
285.41295
285.41297
285.41299
285.41301
285.41303
285.41305
285.41307
285.4131
285.41312
285.41314
285.41316
285.41319
285.41322
285.41324
285.41327
285.4133
285.41332
285.41335
285.41337
285.4134
285.41342
285.41345
285.41347
285.4135
285.41353
285.41355
285.41358
285.4136
285.41363
285.41366
285.41368
285.41371
285.41374
285.41376
285.41379
285.41382
285.41385
285.41388
285.41391
285.41394
285.41397
285.414
285.41403
285.41406
285.41409
285.41412
285.41415
285.41419
285.41422
285.41425
285.41428
285.41431
285.41434
285.41437
285.4144
285.41443
285.41445
285.41449
285.41452
285.41455
285.41459
285.41462
285.41466
285.41469
285.41473
285.41476
285.4148
285.41483
285.41487
285.41491
285.41494
285.41498
285.41502
285.41505
285.41509
285.41513
285.41517
285.41521
285.41525
285.4153
285.41534
285.41538
285.41541
285.41545
285.41549
285.41553
285.41557
285.41561
285.41566
285.4157
285.41575
285.41579
285.41584
285.41589
285.41593
285.41598
285.41602
285.41607
285.41611
285.41616
285.4162
285.41625
285.4163
285.41635
285.4164
285.41645
285.4165
285.41655
285.4166
285.41666
285.41671
285.41676
285.41682
285.41688
285.41693
285.41699
285.41705
285.41711
285.41717
285.41723
285.41729
285.41735
285.41741
285.41746
285.41752
285.41758
285.41765
285.41771
285.41777
285.41784
285.4179
285.41797
285.41804
285.4181
285.41817
285.41824
285.41831
285.41838
285.41845
285.41853
285.41861
285.41869
285.41877
285.41885
285.41894
285.41902
285.4191
285.41919
285.41927
285.41935
285.41943
285.41952
285.4196
285.41969
285.41979
285.41988
285.41998
285.42007
285.42017
285.42027
285.42037
285.42047
285.42058
285.42068
285.42079
285.42089
285.421
285.42111
285.42122
285.42134
285.42145
285.42156
285.42168
285.42179
285.42191
285.42202
285.42214
285.42226
285.42237
285.42249
285.42261
285.42273
285.42285
285.42297
285.42308
285.42319
285.42329
285.4234
285.42349
285.42358
285.42367
285.42374
285.42382
285.42388
285.42394
285.42399
285.42403
285.42406
285.42408
285.4241
285.42411
285.42411
285.42411
285.42411
285.42409
285.42406
285.42401
285.42396
285.42392
285.42388
285.42384
285.42381
285.42379
285.42378
285.42378
285.42378
285.42378
285.4238
285.42384
285.42395
285.4241
285.42428
285.42448
285.42471
285.42494
285.42519
285.42545
285.42571
285.42597
285.42624
285.42652
285.4268
285.42709
285.42739
285.42768
285.42797
285.42825
285.4285
285.42871
285.4289
285.42906
285.42919
285.42931
285.4294
285.42949
285.42956
285.42961
285.42964
285.42966
285.42969
285.42972
285.42981
285.42999
285.43042
285.43148
285.43413
285.44083
285.45784
285.50099
285.61096
285.88714
286.55431
287.54255
288.70337
289.98326
291.32182
292.66027
293.94711
295.14163
296.21568
297.1535
297.95039
298.61053
299.14447
299.56668
299.89344
300.14117
300.32529
300.45951
300.55551
300.62286
300.66918
300.70035
300.72083
300.73386
300.74183
300.74639
300.74874
300.74969
300.74986
300.74973
300.74906
300.74766
300.74631
300.7451
300.74402
300.74306
300.74222
300.74147
300.7408
300.7402
300.73965
300.73915
300.73867
300.73822
300.73779
300.73738
300.73699
300.73662
300.73626
300.73591
300.73558
300.73526
300.73494
300.73462
300.7343
300.73397
300.73362
300.73325
300.73286
300.73244
300.732
300.73153
300.73105
300.73055
300.73003
300.7295
300.72897
300.72844
300.72791
300.72739
300.72688
300.72638
300.7259
300.72544
300.72499
300.72457
300.72418
300.7238
300.72344
300.72311
300.72279
300.7225
300.72221
300.72195
300.72169
300.72145
300.72122
300.72101
300.7208
300.7206
300.72041
300.72022
300.72004
300.71987
300.7197
300.71954
300.71939
300.71923
300.71908
300.71893
300.71879
300.71865
300.71851
300.71838
300.71825
300.71812
300.718
300.71788
300.71776
300.71764
300.71752
300.7174
300.71729
300.71718
300.71707
300.71696
300.71685
300.71675
300.71665
300.71655
300.71645
300.71635
300.71625
300.71616
300.71606
300.71597
300.71588
300.7158
300.71571
300.71562
300.71553
300.71545
300.71536
300.71528
300.7152
300.71511
300.71503
300.71495
300.71488
300.7148
300.71472
300.71465
300.71458
300.71451
300.71444
300.71437
300.7143
300.71423
300.71417
300.7141
300.71403
300.71397
300.7139
300.71384
300.71378
300.71372
300.71366
300.7136
300.71353
300.71347
300.71341
300.71335
300.71329
300.71323
300.71318
300.71312
300.71306
300.71301
300.71295
300.7129
300.71285
300.71279
300.71274
300.71269
300.71264
300.71259
300.71254
300.71249
300.71244
300.71239
300.71234
300.71229
300.71225
300.7122
300.71215
300.7121
300.71206
300.71201
300.71197
300.71192
300.71188
300.71183
300.71179
300.71175
300.7117
300.71166
300.71162
300.71158
300.71154
300.7115
300.71146
300.71142
300.71138
300.71134
300.7113
300.71127
300.71123
300.71119
300.71115
300.71111
300.71107
300.71103
300.71099
300.71096
300.71092
300.71089
300.71085
300.71082
300.71078
300.71075
300.71072
300.71068
300.71065
300.71062
300.71058
300.71055
300.71052
300.71048
300.71045
300.71042
300.71039
300.71035
300.71032
300.71029
300.71026
300.71023
300.7102
300.71017
300.71013
300.7101
300.71007
300.71004
300.71001
300.70998
300.70996
300.70993
300.7099
300.70988
300.70985
300.70983
300.7098
300.70977
300.70974
300.70972
300.70969
300.70966
300.70963
300.7096
300.70957
300.70955
300.70952
300.7095
300.70947
300.70945
300.70942
300.70939
300.70937
300.70934
300.70932
300.70929
300.70927
300.70924
300.70922
300.70919
300.70917
300.70915
300.70912
300.7091
300.70908
300.70906
300.70904
300.70902
300.70899
300.70897
300.70895
300.70892
300.7089
300.70887
300.70885
300.70883
300.7088
300.70878
300.70876
300.70874
300.70872
300.7087
300.70868
300.70867
300.70864
300.70862
300.7086
300.70858
300.70856
300.70854
300.70852
300.7085
300.70848
300.70846
300.70844
300.70842
300.7084
300.70838
300.70836
300.70834
300.70832
300.7083
300.70828
300.70827
300.70825
300.70823
300.70821
300.70819
300.70818
300.70816
300.70814
300.70812
300.7081
300.70809
300.70807
300.70805
300.70804
300.70802
300.708
300.70798
300.70796
300.70794
300.70792
300.70791
300.70789
300.70787
300.70785
300.70784
300.70782
300.70781
300.70779
300.70777
300.70776
300.70774
300.70772
300.70771
300.70769
300.70768
300.70766
300.70764
300.70763
300.70761
300.7076
300.70758
300.70756
300.70755
300.70753
300.70752
300.70751
300.70749
300.70748
300.70746
300.70745
300.70744
300.70742
300.70741
300.70739
300.70737
300.70736
300.70734
300.70732
300.70731
300.70729
300.70728
300.70726
300.70725
300.70724
300.70722
300.70721
300.7072
300.70719
300.70717
300.70716
300.70714
300.70713
300.70712
300.7071
300.70709
300.70708
300.70706
300.70705
300.70704
300.70703
300.70701
300.707
300.70699
300.70698
300.70696
300.70695
300.70694
300.70692
300.70691
300.7069
300.70689
300.70688
300.70686
300.70685
300.70684
300.70683
300.70682
300.7068
300.70679
300.70678
300.70676
300.70675
300.70674
300.70673
300.70671
300.7067
300.70669
300.70668
300.70666
300.70665
300.70664
300.70663
300.70662
300.70661
300.7066
300.70659
300.70658
300.70657
300.70655
300.70654
300.70653
300.70652
300.7065
300.70649
300.70648
300.70647
300.70646
300.70645
300.70644
300.70643
300.70643
300.70641
300.7064
300.70639
300.70638
300.70637
300.70635
300.70634
300.70633
300.70632
300.70632
300.7063
300.70629
300.70628
300.70627
300.70626
300.70625
300.70624
300.70623
300.70622
300.70621
300.7062
300.70619
300.70618
300.70617
300.70616
300.70615
300.70615
300.70614
300.70613
300.70611
300.7061
300.70609
300.70608
300.70607
300.70606
300.70605
300.70604
300.70603
300.70602
300.70601
300.706
300.706
300.70599
300.70598
300.70597
300.70596
300.70595
300.70594
300.70593
300.70592
300.70591
300.7059
300.70589
300.70589
300.70588
300.70587
300.70586
300.70585
300.70584
300.70583
300.70582
300.70581
300.7058
300.7058
300.70579
300.70578
300.70577
300.70576
300.70575
300.70574
300.70573
300.70572
300.70571
300.7057
300.7057
300.70569
300.70568
300.70567
300.70566
300.70565
300.70564
300.70564
300.70563
300.70562
300.70561
300.70561
300.7056
300.70559
300.70559
300.70558
300.70557
300.70556
300.70555
300.70555
300.70554
300.70553
300.70552
300.70552
300.70551
300.7055
300.70549
300.70548
300.70548
300.70547
300.70546
300.70545
300.70544
300.70544
300.70543
300.70542
300.70542
300.70541
300.7054
300.7054
300.70539
300.70538
300.70537
300.70536
300.70535
300.70534
300.70534
300.70533
300.70533
300.70532
300.70531
300.70531
300.7053
300.70529
300.70528
300.70528
300.70527
300.70526
300.70526
300.70525
300.70524
300.70523
300.70523
300.70522
300.70521
300.7052
300.7052
300.70519
300.70518
300.70518
300.70517
300.70516
300.70516
300.70515
300.70514
300.70514
300.70513
300.70512
300.70511
300.7051
300.7051
300.70509
300.70508
300.70508
300.70507
300.70506
300.70506
300.70505
300.70505
300.70504
300.70504
300.70503
300.70502
300.70501
300.705
300.70499
300.70499
300.70498
300.70498
300.70497
300.70496
300.70496
300.70495
300.70495
300.70494
300.70493
300.70493
300.70492
300.70491
300.70491
300.7049
300.70489
300.70489
300.70488
300.70487
300.70487
300.70486
300.70485
300.70485
300.70484
300.70484
300.70483
300.70483
300.70482
300.70481
300.70481
300.7048
300.70479
300.70478
300.70478
300.70477
300.70477
300.70476
300.70476
300.70475
300.70475
300.70474
300.70474
300.70473
300.70472
300.70471
300.70471
300.7047
300.70469
300.70469
300.70468
300.70468
300.70467
300.70467
300.70466
300.70465
300.70465
300.70464
300.70464
300.70463
300.70463
300.70462
300.70461
300.70461
300.7046
300.7046
300.70459