/*--------------------------------*- C++ -*----------------------------------*\
| =========                 |                                                 |
| \\      /  F ield         | OpenFOAM: The Open Source CFD Toolbox           |
|  \\    /   O peration     | Version:  4.x                                   |
|   \\  /    A nd           | Web:      www.OpenFOAM.org                      |
|    \\/     M anipulation  |                                                 |
\*---------------------------------------------------------------------------*/
FoamFile
{
    version     2.0;
    format      ascii;
    class       surfaceScalarField;
    location    "0.64";
    object      phi;
}
// * * * * * * * * * * * * * * * * * * * * * * * * * * * * * * * * * * * * * //

dimensions      [1 0 -1 0 0 0 0];

internalField   nonuniform List<scalar> 
72816
(
2.28850861e-08
2.288508377e-08
1.278409504e-07
1.810605364e-08
2.750353182e-08
1.508866161e-07
1.156191588e-08
2.789095702e-08
1.52264293e-07
7.497118455e-09
2.801032877e-08
1.496655783e-07
4.953898642e-09
2.79963589e-08
1.481579665e-07
2.800782527e-08
1.471536468e-07
3.403532157e-09
2.750353367e-08
1.810604853e-08
1.508866161e-07
2.219714846e-08
2.219714357e-08
1.842238842e-07
1.375025088e-08
2.246206898e-08
1.874868889e-07
8.485661259e-09
2.240902857e-08
1.844769891e-07
5.353869015e-09
2.231571281e-08
1.824235376e-07
2.229523013e-08
1.811117174e-07
3.565846296e-09
2.789095804e-08
1.156191134e-08
1.522642918e-07
2.246207456e-08
1.375024779e-08
1.874868867e-07
1.394866225e-08
1.394865702e-08
1.906379266e-07
8.724906645e-09
1.386886239e-08
1.873750195e-07
5.618946914e-09
1.374141827e-08
1.852913495e-07
1.366816025e-08
1.840517906e-07
3.805322544e-09
2.801032886e-08
7.497118429e-09
1.496655766e-07
2.240903365e-08
8.485663152e-09
1.844769864e-07
1.386886774e-08
8.724905018e-09
1.873750185e-07
8.704887656e-09
8.704885205e-09
1.839390535e-07
5.653710951e-09
8.606656082e-09
1.817970333e-07
8.515742846e-09
1.805533756e-07
3.863846101e-09
2.799635804e-08
4.953906713e-09
1.481579643e-07
2.231571709e-08
5.353878633e-09
1.824235337e-07
1.374142342e-08
5.618951676e-09
1.852913476e-07
8.606658923e-09
5.653714538e-09
1.817970326e-07
5.601061253e-09
5.601063692e-09
1.796222845e-07
5.525782572e-09
1.783553003e-07
3.846811127e-09
2.800782327e-08
1.471536442e-07
3.403550147e-09
2.229523288e-08
1.811117131e-07
3.565865716e-09
1.366816432e-08
1.840517882e-07
3.805336732e-09
8.515745316e-09
1.80553375e-07
3.863859167e-09
5.525780164e-09
1.783553004e-07
3.846822751e-09
1.770729044e-07
3.794878084e-09
3.794866437e-09
1.902745188e-08
1.902744802e-08
8.978605215e-08
2.01525661e-08
2.672384353e-08
1.230376579e-07
1.61532494e-08
2.763798846e-08
1.286256171e-07
1.218950261e-08
2.785060341e-08
1.257787108e-07
9.160548944e-09
2.784934985e-08
1.23337557e-07
2.797510837e-08
1.213839225e-07
6.955152913e-09
2.672385018e-08
2.015255632e-08
1.230376575e-07
2.909148511e-08
2.909146605e-08
1.794886219e-07
2.389381506e-08
2.991302691e-08
1.904095078e-07
1.830836358e-08
3.016982478e-08
1.877431981e-07
1.378828593e-08
3.025620793e-08
1.845367338e-07
3.042267132e-08
1.819831382e-07
1.046928255e-08
2.763799322e-08
1.615323845e-08
1.286256162e-07
2.991304239e-08
2.389379051e-08
1.904095058e-07
2.384242877e-08
2.384241225e-08
2.027791386e-07
1.771860183e-08
2.388851736e-08
1.997801322e-07
1.304407212e-08
2.399272475e-08
1.962293382e-07
2.412687524e-08
1.936145824e-07
9.777052576e-09
2.785060675e-08
1.218949543e-08
1.257787101e-07
3.016983783e-08
1.830833969e-08
1.877431958e-07
2.388853086e-08
1.771858934e-08
1.997801319e-07
1.757142783e-08
1.757141867e-08
1.965732327e-07
1.285905265e-08
1.761927097e-08
1.928828355e-07
1.768096255e-08
1.902322302e-07
9.626081756e-09
2.78493511e-08
9.160549366e-09
1.233375565e-07
3.025621814e-08
1.378826603e-08
1.845367313e-07
2.399273586e-08
1.304406693e-08
1.962293388e-07
1.761927807e-08
1.285905147e-08
1.928828374e-07
1.288130947e-08
1.288131035e-08
1.890981868e-07
1.290215319e-08
1.863786574e-07
9.636729593e-09
2.797510782e-08
1.213839229e-07
6.95516284e-09
3.042267891e-08
1.819831372e-07
1.046926965e-08
2.412688485e-08
1.93614586e-07
9.777057092e-09
1.76809689e-08
1.902322362e-07
9.626090909e-09
1.290215168e-08
1.86378662e-07
9.636740957e-09
1.836027333e-07
9.637226565e-09
9.637214601e-09
1.483869171e-08
1.483868647e-08
6.01086777e-08
1.862544255e-08
2.323865302e-08
9.60122588e-08
1.691887556e-08
2.456137388e-08
1.057708083e-07
1.388011685e-08
2.46967913e-08
1.04120669e-07
1.100562995e-08
2.465972251e-08
1.015523076e-07
2.473535859e-08
9.901505406e-08
8.639126438e-09
2.323866223e-08
1.862542948e-08
9.601225757e-08
2.98926296e-08
2.98926038e-08
1.661807051e-07
2.693642787e-08
3.238734129e-08
1.855397309e-07
2.181446672e-08
3.26386186e-08
1.849233126e-07
1.690843983e-08
3.254499197e-08
1.815574684e-07
3.256214823e-08
1.78000462e-07
1.306430476e-08
2.456138166e-08
1.69188598e-08
1.057708069e-07
3.238736277e-08
2.693639318e-08
1.855397304e-07
2.990358712e-08
2.990356265e-08
2.077466791e-07
2.417080048e-08
3.00591074e-08
2.080924101e-07
1.858440171e-08
2.985388767e-08
2.045068169e-07
2.979171722e-08
2.006988947e-07
1.427049672e-08
2.469679724e-08
1.388010423e-08
1.041206684e-07
3.263863615e-08
2.181443058e-08
1.849233126e-07
3.00591279e-08
2.417077743e-08
2.080924117e-07
2.427377916e-08
2.427376053e-08
2.081439081e-07
1.867411163e-08
2.411911683e-08
2.042172498e-07
2.403916252e-08
2.003101699e-07
1.434870407e-08
2.465972625e-08
1.100562431e-08
1.015523089e-07
3.25450073e-08
1.690840567e-08
1.815574702e-07
2.985390642e-08
1.858438307e-08
2.045068231e-07
2.411913193e-08
1.86741002e-08
2.042172539e-07
1.857944591e-08
1.857943978e-08
2.001775271e-07
1.85098813e-08
1.961760909e-07
1.431127294e-08
2.473536136e-08
9.901505758e-08
8.639129896e-09
3.256216354e-08
1.780004675e-07
1.306427609e-08
2.979173671e-08
2.006989045e-07
1.427048647e-08
2.403917819e-08
2.00310179e-07
1.434870212e-08
1.850988795e-08
1.961760958e-07
1.431127708e-08
1.920705709e-07
1.427595827e-08
1.427595464e-08
9.012393382e-09
9.012388613e-09
4.208390244e-08
1.387588744e-08
1.671286773e-08
7.443590522e-08
1.476681988e-08
1.875536689e-08
8.612450794e-08
1.323891379e-08
1.896302918e-08
8.668553686e-08
1.113135061e-08
1.872166842e-08
8.493818766e-08
1.853372454e-08
8.257092997e-08
9.041736598e-09
1.67128759e-08
1.387587568e-08
7.443590351e-08
2.639545031e-08
2.63954269e-08
1.468155729e-07
2.722865018e-08
2.959147283e-08
1.738704149e-07
2.38339277e-08
3.010420443e-08
1.771768409e-07
1.943426553e-08
3.007337226e-08
1.746054053e-07
2.983976716e-08
1.707503039e-07
1.537836471e-08
1.875537605e-08
1.47668057e-08
8.612450534e-08
2.959150024e-08
2.722861654e-08
1.738704136e-07
3.051805204e-08
3.051801393e-08
2.058935754e-07
2.701175329e-08
3.115561083e-08
2.105472833e-07
2.208595521e-08
3.126730636e-08
2.082386599e-07
3.105108165e-08
2.041407695e-07
1.743275064e-08
1.896303861e-08
1.323890222e-08
8.668553441e-08
3.010423122e-08
2.38338909e-08
1.771768395e-07
3.115564236e-08
2.701171866e-08
2.105472822e-07
2.745907867e-08
2.745905104e-08
2.155370109e-07
2.243576234e-08
2.74647285e-08
2.130431223e-07
2.730784473e-08
2.087024477e-07
1.778670372e-08
1.872167686e-08
1.113134575e-08
8.493818711e-08
3.00733942e-08
1.943423249e-08
1.746054057e-07
3.126733154e-08
2.208592906e-08
2.082386619e-07
2.746475317e-08
2.243573987e-08
2.130431237e-07
2.24348971e-08
2.243487737e-08
2.102372126e-07
2.233316633e-08
2.05776607e-07
1.780904168e-08
1.85337324e-08
8.257093185e-08
9.041740791e-09
2.983978645e-08
1.707503054e-07
1.537833834e-08
3.10511057e-08
2.041407725e-07
1.743273171e-08
2.730786957e-08
2.087024492e-07
1.778668893e-08
2.233318549e-08
2.057766074e-07
1.780903054e-08
2.012160289e-07
1.776043461e-08
1.776044425e-08
5.886201752e-09
5.886197266e-09
3.03115112e-08
1.022593408e-08
1.164950345e-08
5.844667505e-08
1.189529961e-08
1.363855265e-08
7.081658622e-08
1.140206464e-08
1.378520692e-08
7.339355313e-08
1.015340945e-08
1.341392044e-08
7.277290725e-08
1.312084447e-08
7.100797148e-08
8.595512079e-09
1.164950928e-08
1.022592381e-08
5.844667439e-08
2.15662269e-08
2.156620786e-08
1.269821481e-07
2.483531612e-08
2.574280105e-08
1.584970655e-07
2.339884889e-08
2.617429221e-08
1.662242032e-07
2.025896326e-08
2.559164312e-08
1.655675498e-07
2.531856976e-08
1.621949529e-07
1.661657405e-08
1.363856157e-08
1.189528708e-08
7.081658294e-08
2.574282854e-08
2.483528843e-08
1.5849706e-07
2.933198743e-08
2.933194486e-08
1.987152576e-07
2.755443104e-08
3.0203673e-08
2.082954385e-07
2.378891307e-08
2.981235747e-08
2.077834429e-07
2.966107517e-08
2.04157362e-07
1.942979355e-08
1.378521708e-08
1.140205392e-08
7.339354813e-08
2.617431998e-08
2.339881915e-08
1.662241939e-07
3.020370551e-08
2.755438993e-08
2.082954333e-07
2.862932356e-08
2.862929747e-08
2.186857441e-07
2.461549164e-08
2.846339481e-08
2.184058874e-07
2.826045667e-08
2.146224022e-07
2.009612798e-08
1.341392914e-08
1.015340478e-08
7.277290214e-08
2.559166361e-08
2.025893789e-08
1.655675386e-07
2.981237937e-08
2.378888271e-08
2.077834335e-07
2.846341426e-08
2.461547198e-08
2.18405885e-07
2.464104077e-08
2.464102857e-08
2.178819178e-07
2.453990668e-08
2.139437038e-07
2.019446837e-08
1.312085053e-08
7.100796522e-08
8.595515528e-09
2.531858313e-08
1.621949404e-07
1.661655822e-08
2.966108999e-08
2.041573533e-07
1.942977619e-08
2.826046853e-08
2.146223969e-07
2.009611802e-08
2.453990783e-08
2.139436994e-07
2.019446717e-08
2.099187288e-07
2.018855324e-08
2.01885412e-08
3.839666411e-09
3.839661631e-09
2.263219063e-08
7.449202997e-09
8.058528302e-09
4.677860422e-08
9.353707463e-09
9.810370055e-09
5.91016992e-08
9.508413087e-09
1.004208697e-08
6.319674347e-08
8.896898458e-09
9.711297636e-09
6.367310507e-08
9.370493948e-09
6.268126895e-08
7.853086077e-09
8.058536619e-09
7.44919081e-09
4.67786039e-08
1.704296065e-08
1.704293798e-08
1.090132977e-07
2.15839048e-08
2.13852005e-08
1.423812696e-07
2.169289442e-08
2.22242025e-08
1.539330714e-07
1.974785097e-08
2.176108378e-08
1.554627764e-07
2.114875598e-08
1.532846271e-07
1.687987411e-08
9.810380186e-09
9.353690243e-09
5.910169596e-08
2.138522799e-08
2.158387076e-08
1.423812618e-07
2.707297593e-08
2.707293331e-08
1.873397534e-07
2.704205933e-08
2.808009915e-08
2.024704318e-07
2.43458996e-08
2.796232847e-08
2.042783204e-07
2.749547987e-08
2.015727587e-07
2.058374134e-08
1.004209696e-08
9.508394433e-09
6.319673697e-08
2.222422751e-08
2.169285599e-08
1.539330554e-07
2.808013442e-08
2.70420148e-08
2.024704217e-07
2.82112097e-08
2.821118789e-08
2.184235484e-07
2.568748206e-08
2.831262249e-08
2.20579278e-07
2.807195936e-08
2.179839721e-07
2.174939785e-08
9.711305094e-09
8.896880667e-09
6.367309565e-08
2.176110167e-08
1.9747816e-08
1.55462758e-07
2.796234279e-08
2.43458709e-08
2.042783074e-07
2.831261992e-08
2.568748378e-08
2.205792701e-07
2.581445359e-08
2.581447287e-08
2.228781911e-07
2.573583549e-08
2.201128314e-07
2.198141732e-08
9.370496088e-09
6.268125716e-08
7.853075368e-09
2.114876461e-08
1.532846132e-07
1.687985317e-08
2.749548099e-08
2.015727444e-07
2.058373356e-08
2.807194581e-08
2.179839644e-07
2.174941698e-08
2.573580183e-08
2.201128307e-07
2.198145301e-08
2.173225502e-07
2.203392119e-08
2.203386846e-08
2.591940033e-09
2.591936886e-09
1.744831295e-08
5.473501133e-09
5.58836534e-09
3.830865422e-08
7.304249216e-09
7.044321847e-09
5.022660114e-08
7.847468557e-09
7.342321806e-09
5.531117449e-08
7.690668185e-09
7.100941799e-09
5.672893e-08
6.802386077e-09
5.647349809e-08
7.096015101e-09
5.588376554e-09
5.473488516e-09
3.830865353e-08
1.312936045e-08
1.312932606e-08
9.39313098e-08
1.804444244e-08
1.719633399e-08
1.273141311e-07
1.934709003e-08
1.833233683e-08
1.416403589e-07
1.847605392e-08
1.80459815e-08
1.453887074e-07
1.747458427e-08
1.445977075e-07
1.64907004e-08
7.044335634e-09
7.304225824e-09
5.022659784e-08
1.719637317e-08
1.804438504e-08
1.273141238e-07
2.387475748e-08
2.387469688e-08
1.739829629e-07
2.548415193e-08
2.563699378e-08
1.935563345e-07
2.409642303e-08
2.536439608e-08
1.983475777e-07
2.4904322e-08
1.970603695e-07
2.117899571e-08
7.342333529e-09
7.847436408e-09
5.531116869e-08
1.833237014e-08
1.934701772e-08
1.41640346e-07
2.563704192e-08
2.548408375e-08
1.935563262e-07
2.735771014e-08
2.735766027e-08
2.149821696e-07
2.59244961e-08
2.745815205e-08
2.19918682e-07
2.725317536e-08
2.186899582e-07
2.28695957e-08
7.100948953e-09
7.690631644e-09
5.672892254e-08
1.804600597e-08
1.847598133e-08
1.453886987e-07
2.536441824e-08
2.409636134e-08
1.983475728e-07
2.745815862e-08
2.592446335e-08
2.199186785e-07
2.634920896e-08
2.634922443e-08
2.250960199e-07
2.630619512e-08
2.240387511e-07
2.337021053e-08
6.802390722e-09
5.647348747e-08
7.095984986e-09
1.747459792e-08
1.445977079e-07
1.64906427e-08
2.490431895e-08
1.970603771e-07
2.117896314e-08
2.72531553e-08
2.186899577e-07
2.286959759e-08
2.630616356e-08
2.240387578e-07
2.337025078e-08
2.229242275e-07
2.350534622e-08
2.350528646e-08
1.820622909e-09
1.82062524e-09
1.3807056e-08
4.099454933e-09
3.96074819e-09
3.206903241e-08
5.745028871e-09
5.153916481e-09
4.342706966e-08
6.506908007e-09
5.480569451e-09
4.906868952e-08
6.693922687e-09
5.324224139e-09
5.121764856e-08
5.086187169e-09
5.161157823e-08
6.469578647e-09
3.96075656e-09
4.099451008e-09
3.206903026e-08
1.001525587e-08
1.001522161e-08
8.182227055e-08
1.466026875e-08
1.367221646e-08
1.141507432e-07
1.667884687e-08
1.497673418e-08
1.301255351e-07
1.674029133e-08
1.487472588e-08
1.357766713e-07
1.441550942e-08
1.363795042e-07
1.562908801e-08
5.153931159e-09
5.745012024e-09
4.34270656e-08
1.367226827e-08
1.466019885e-08
1.141507359e-07
2.036554689e-08
2.036545617e-08
1.605963659e-07
2.312024943e-08
2.263917768e-08
1.831391095e-07
2.292359996e-08
2.27538979e-08
1.906649473e-07
2.226809744e-08
1.911040586e-07
2.102719222e-08
5.480585023e-09
6.506876277e-09
4.906868397e-08
1.497678803e-08
1.667874798e-08
1.301255236e-07
2.26392616e-08
2.312013071e-08
1.831391057e-07
2.581752995e-08
2.581742808e-08
2.086255733e-07
2.557020716e-08
2.612115625e-08
2.167986486e-07
2.59962383e-08
2.171234839e-07
2.340841472e-08
5.324240598e-09
6.693878244e-09
5.121764337e-08
1.487477491e-08
1.674018153e-08
1.357766624e-07
2.275396874e-08
2.292347556e-08
1.906649536e-07
2.612124419e-08
2.557009627e-08
2.167986596e-07
2.61317125e-08
2.613161497e-08
2.250750018e-07
2.633978141e-08
2.255801787e-07
2.424661293e-08
5.086208978e-09
5.161157793e-08
6.469551862e-09
1.441555179e-08
1.363795032e-07
1.562897964e-08
2.226815273e-08
1.911040824e-07
2.102708882e-08
2.599629407e-08
2.17123515e-07
2.340832669e-08
2.633984376e-08
2.255801913e-07
2.424654527e-08
2.264581742e-07
2.457276986e-08
2.457282074e-08
1.345717165e-09
1.345726345e-09
1.111559508e-08
3.199740156e-09
2.885076948e-09
2.732987983e-08
4.691072098e-09
3.836043831e-09
3.809965038e-08
5.602877758e-09
4.167552775e-09
4.39892943e-08
6.060584263e-09
4.116154987e-09
4.664374656e-08
3.977758196e-09
4.757338679e-08
6.120955025e-09
2.885072942e-09
3.199753824e-09
2.732987744e-08
7.677408218e-09
7.677398954e-09
7.223753512e-08
1.182182398e-08
1.075521935e-08
1.030870668e-07
1.420764203e-08
1.208790336e-08
1.198192806e-07
1.500699993e-08
1.223967187e-08
1.268536953e-07
1.198502027e-08
1.287308158e-07
1.46483275e-08
3.836050427e-09
4.691078753e-09
3.809964445e-08
1.075525995e-08
1.182178063e-08
1.030870574e-07
1.693280743e-08
1.693271513e-08
1.482412309e-07
2.035960561e-08
1.936638372e-08
1.724337338e-07
2.119295496e-08
1.993423709e-08
1.8213692e-07
1.973593059e-08
1.842799596e-07
2.02660189e-08
4.16756638e-09
5.602871203e-09
4.398928392e-08
1.208796271e-08
1.420756082e-08
1.198192597e-07
1.936649631e-08
2.035946511e-08
1.724337231e-07
2.349248133e-08
2.349232527e-08
2.003735337e-07
2.442306573e-08
2.446639013e-08
2.113357907e-07
2.442000547e-08
2.135969749e-07
2.326534483e-08
4.116171926e-09
6.060568784e-09
4.664373359e-08
1.223974052e-08
1.500690254e-08
1.268536669e-07
1.993435684e-08
2.119279117e-08
1.821369075e-07
2.446655075e-08
2.442288455e-08
2.113357956e-07
2.560052518e-08
2.560032929e-08
2.228069712e-07
2.591656452e-08
2.250930026e-07
2.459099864e-08
3.977784526e-09
4.757337383e-08
6.120959389e-09
1.198509085e-08
1.287307789e-07
1.464823887e-08
1.973605096e-08
1.842799462e-07
2.026586879e-08
2.442017426e-08
2.135969938e-07
2.326518446e-08
2.591676391e-08
2.250930159e-07
2.459081195e-08
2.278343523e-07
2.522842303e-08
2.522861252e-08
1.059641006e-09
1.059654303e-09
8.99627427e-09
2.672577213e-09
2.188791172e-09
2.352810596e-08
4.128422455e-09
2.920083814e-09
3.372368176e-08
5.204173355e-09
3.250646541e-09
3.966286223e-08
5.900406869e-09
3.320662218e-09
4.262681139e-08
3.336295907e-09
4.394978818e-08
6.187662957e-09
2.188774511e-09
2.672606061e-09
2.352810376e-08
6.09025874e-09
6.090286391e-09
6.44344797e-08
9.821003149e-09
8.539076176e-09
9.373725309e-08
1.24256489e-08
9.823648625e-09
1.10641553e-07
1.379109513e-08
1.024403842e-08
1.185647825e-07
1.035553943e-08
1.214651845e-07
1.403738497e-08
2.920076087e-09
4.128455297e-09
3.372367325e-08
8.539079146e-09
9.821016102e-09
9.373723958e-08
1.409305132e-08
1.409300639e-08
1.371332355e-07
1.784768998e-08
1.652153719e-08
1.619811077e-07
1.952095915e-08
1.74949538e-08
1.732126395e-07
1.783604989e-08
1.768598948e-07
1.946040788e-08
3.250648869e-09
5.20420191e-09
3.966284523e-08
9.823681897e-09
1.242563369e-08
1.106415197e-07
1.652162833e-08
1.784759245e-08
1.619810854e-07
2.11030766e-08
2.110291849e-08
1.912105905e-07
2.305749213e-08
2.264800979e-08
2.042282066e-07
2.332410931e-08
2.083059016e-07
2.286035725e-08
3.320671269e-09
5.90043399e-09
4.262678679e-08
1.024409187e-08
1.379106227e-08
1.185647296e-07
1.749506768e-08
1.952082227e-08
1.732125959e-07
2.264819761e-08
2.305728574e-08
2.042281914e-07
2.496048339e-08
2.496024873e-08
2.181823371e-07
2.591013282e-08
2.226540999e-07
2.481322575e-08
3.336312261e-09
4.394975745e-08
6.187701206e-09
1.035559964e-08
1.214651088e-07
1.403736135e-08
1.783617063e-08
1.768598298e-07
1.946027026e-08
2.332431662e-08
2.083058807e-07
2.286015714e-08
2.591038447e-08
2.226541064e-07
2.481298723e-08
2.274934225e-07
2.60805476e-08
2.608079705e-08
9.049227898e-10
9.04935632e-10
7.186392952e-09
2.438078438e-09
1.772360962e-09
2.02225568e-08
3.989855252e-09
2.324217913e-09
2.984765656e-08
5.288750104e-09
2.652846254e-09
3.571109172e-08
6.226974241e-09
2.852758824e-09
3.883579109e-08
3.042889449e-09
4.042039701e-08
6.713430126e-09
1.772338726e-09
2.438110739e-09
2.02225552e-08
5.186730671e-09
5.186781541e-09
5.760561328e-08
8.752765396e-09
7.095651864e-09
8.539972348e-08
1.159791764e-08
8.306069574e-09
1.021431122e-07
1.343146772e-08
9.005867923e-09
1.105780605e-07
9.538216037e-09
1.142227082e-07
1.417854394e-08
2.324197582e-09
3.989901709e-09
2.984764822e-08
7.095614863e-09
8.752829337e-09
8.539971043e-08
1.220616642e-08
1.220619287e-08
1.269120584e-07
1.617719403e-08
1.451299446e-08
1.518030693e-07
1.850068797e-08
1.588282552e-08
1.640121089e-07
1.684961302e-08
1.688706687e-07
1.917843682e-08
2.652834079e-09
5.288804042e-09
3.571107343e-08
8.306058495e-09
1.159797786e-08
1.021430754e-07
1.451301693e-08
1.617718856e-08
1.518030403e-07
1.93575565e-08
1.935747656e-08
1.815214752e-07
2.210497229e-08
2.136125104e-08
1.960022707e-07
2.279713227e-08
2.016881217e-07
2.277513037e-08
2.852755178e-09
6.227035749e-09
3.88357628e-08
9.005877001e-09
1.343151998e-08
1.105779955e-07
1.588287931e-08
1.850065016e-08
1.640120434e-07
2.136137775e-08
2.210484432e-08
1.960022367e-07
2.456408657e-08
2.456390003e-08
2.117768827e-07
2.637101154e-08
2.182753308e-07
2.53688725e-08
3.042890969e-09
4.042036232e-08
6.71350813e-09
9.538234088e-09
1.142226143e-07
1.41786074e-08
1.684968123e-08
1.688705637e-07
1.917839222e-08
2.279728364e-08
2.016880531e-07
2.277499433e-08
2.637122742e-08
2.182753066e-07
2.536867742e-08
2.254611235e-07
2.738711194e-08
2.738733552e-08
8.345882634e-10
8.345971409e-10
5.517196859e-09
2.409076721e-09
1.557732467e-09
1.709031793e-08
4.170303044e-09
1.982293725e-09
2.610412082e-08
5.766501308e-09
2.314323506e-09
3.180055235e-08
6.98588424e-09
2.644082504e-09
3.497229985e-08
3.020801233e-09
3.67075761e-08
7.677895187e-09
1.557713167e-09
2.409102449e-09
1.709031777e-08
4.83488454e-09
4.83493647e-09
5.105121187e-08
8.528915206e-09
6.372519467e-09
7.731542446e-08
1.174554912e-08
7.536929418e-09
9.370382271e-08
1.404969774e-08
8.529176517e-09
1.023887778e-07
9.524813058e-09
1.065401316e-07
1.522823221e-08
1.982269963e-09
4.170347886e-09
2.610411575e-08
6.372462494e-09
8.528998314e-09
7.731541527e-08
1.138191227e-08
1.138199143e-08
1.16893074e-07
1.565184465e-08
1.357245763e-08
1.414975465e-07
1.854205874e-08
1.53541566e-08
1.542968536e-07
1.701608506e-08
1.600778626e-07
1.984352145e-08
2.314301595e-09
5.76656393e-09
3.180053783e-08
7.53688336e-09
1.174565399e-08
9.370379274e-08
1.35724066e-08
1.565192545e-08
1.4149752e-07
1.871474392e-08
1.871477424e-08
1.712367563e-07
2.211568614e-08
2.122209504e-08
1.867333211e-07
2.350812132e-08
1.937703131e-07
2.354136876e-08
2.644066432e-09
6.985968615e-09
3.497227445e-08
8.529141312e-09
1.404981551e-08
1.023887183e-07
1.535413195e-08
1.854213209e-08
1.542967873e-07
2.122210815e-08
2.211569095e-08
1.867332802e-07
2.514262196e-08
2.514256749e-08
2.03935829e-07
2.793622699e-08
2.12169301e-07
2.682045609e-08
3.020785988e-09
3.670753832e-08
7.677992879e-09
9.524781489e-09
1.065400373e-07
1.522836265e-08
1.701607763e-08
1.600777479e-07
1.984361002e-08
2.350816505e-08
1.937702202e-07
2.354138453e-08
2.793632883e-08
2.121692498e-07
2.682039751e-08
2.216238682e-07
2.985480832e-08
2.98549316e-08
8.094403459e-10
8.094452953e-10
3.898306742e-09
2.500376125e-09
1.466896506e-09
1.393248374e-08
4.549888332e-09
1.814642174e-09
2.22399611e-08
6.521440213e-09
2.157472271e-09
2.76715136e-08
8.086796543e-09
2.613117182e-09
3.079380691e-08
3.185646297e-09
3.258426006e-08
9.024467072e-09
1.466883854e-09
2.500391833e-09
1.393248513e-08
4.857029544e-09
4.857066908e-09
4.427088482e-08
8.945340869e-09
6.207103727e-09
6.883461666e-08
1.272624182e-08
7.388701173e-09
8.4691651e-08
1.559954059e-08
8.698597022e-09
9.342996302e-08
1.021050734e-08
9.788803191e-08
1.7226743e-08
1.814622346e-09
4.549921414e-09
2.223996044e-08
6.207051569e-09
8.945412755e-09
6.883461329e-08
1.150373195e-08
1.150382361e-08
1.062996312e-07
1.630118065e-08
1.369290604e-08
1.303958494e-07
1.982147916e-08
1.59547991e-08
1.43520309e-07
1.84395206e-08
1.499749915e-07
2.169525744e-08
2.157449777e-09
6.521496783e-09
2.767150816e-08
7.388646704e-09
1.272634856e-08
8.469163692e-08
1.36928167e-08
1.630130094e-08
1.303958337e-07
1.937347423e-08
1.937358197e-08
1.598753739e-07
2.348018027e-08
2.249712236e-08
1.760842385e-07
2.587121277e-08
1.842324231e-07
2.558628758e-08
2.61309506e-09
8.086879851e-09
3.079379423e-08
8.698543971e-09
1.559967339e-08
9.342992788e-08
1.595472287e-08
1.982161402e-08
1.435202649e-07
2.249703873e-08
2.348029027e-08
1.760842068e-07
2.724528881e-08
2.724536199e-08
1.944392793e-07
3.136821444e-08
2.042361299e-07
2.968137654e-08
3.18562032e-09
3.258423499e-08
9.02456376e-09
1.021045256e-08
9.788797019e-08
1.722690042e-08
1.84394575e-08
1.49974911e-07
2.169543163e-08
2.58711517e-08
1.842323504e-07
2.558642663e-08
3.136817082e-08
2.042360807e-07
2.9681453e-08
2.157955346e-07
3.428234239e-08
3.428232282e-08
7.91410307e-10
7.914132463e-10
2.315484997e-09
2.62178089e-09
1.42131873e-09
1.068080061e-08
5.006590238e-09
1.721706953e-09
1.813343721e-08
7.426942835e-09
2.075246575e-09
2.317589592e-08
9.426608368e-09
2.646193118e-09
2.614792815e-08
3.418490725e-09
1.068886374e-08
2.790349573e-08
1.421312642e-09
2.621789724e-09
1.068080251e-08
5.058924788e-09
5.058947154e-09
3.699563382e-08
9.747087701e-09
6.362876193e-09
5.950525108e-08
1.431071576e-08
7.627905093e-09
7.457532634e-08
1.793976288e-08
9.282335068e-09
8.316473713e-08
1.136035861e-08
2.014344941e-08
8.774242917e-08
1.72169393e-09
5.006613906e-09
1.813344213e-08
6.362839551e-09
9.747141003e-09
5.950525589e-08
1.229841644e-08
1.229849417e-08
9.442839961e-08
1.794185229e-08
1.464439142e-08
1.177358857e-07
2.23112983e-08
1.748422511e-08
1.309489311e-07
2.092475191e-08
2.487380401e-08
1.378480301e-07
2.075231235e-09
7.426991115e-09
2.317590328e-08
7.62786085e-09
1.431080563e-08
7.457533144e-08
1.46443018e-08
1.794197214e-08
1.177358828e-07
2.124699292e-08
2.124712667e-08
1.46669902e-07
2.630594027e-08
2.516219099e-08
1.633472796e-07
2.983546707e-08
2.922151927e-08
1.724061102e-07
2.646177577e-09
9.426681126e-09
2.614793388e-08
9.282289758e-09
1.793988493e-08
8.316473315e-08
1.748413799e-08
2.231145111e-08
1.309489122e-07
2.516206138e-08
2.630610823e-08
1.633472597e-07
3.107748967e-08
3.107764236e-08
1.826083512e-07
3.679396975e-08
3.453092289e-08
1.938241437e-07
3.418471746e-09
1.068895651e-08
2.790349774e-08
1.136031568e-08
2.014360679e-08
8.774241052e-08
2.092467931e-08
2.487399781e-08
1.378479857e-07
2.983534506e-08
2.92217067e-08
1.724060525e-07
3.67938477e-08
3.453109769e-08
1.938240894e-07
4.09279163e-08
4.092776095e-08
2.075275906e-07
2.799863843e-08
2.396898426e-09
1.466191266e-07
2.229171135e-08
2.452326679e-09
1.804315839e-07
1.363144151e-08
2.651517223e-09
1.834252021e-07
8.456956453e-09
2.716576354e-09
1.799328728e-07
5.470578916e-09
2.720347074e-09
1.777239486e-07
2.689073394e-09
1.764348511e-07
3.752617647e-09
2.800431737e-08
1.697081028e-09
1.463066179e-07
2.230580092e-08
1.713105728e-09
1.800488661e-07
1.362107485e-08
1.865564866e-09
1.830817978e-07
8.425480427e-09
1.92477595e-09
1.795985043e-07
5.436360947e-09
1.937855011e-09
1.773827106e-07
1.921676359e-09
1.760914861e-07
3.723357858e-09
2.800823814e-08
1.169545071e-09
1.461304217e-07
2.23234442e-08
1.169960201e-09
1.798390748e-07
1.362425681e-08
1.279061592e-09
1.82896815e-07
8.411915796e-09
1.327371597e-09
1.794208587e-07
5.4182815e-09
1.342533162e-09
1.772000582e-07
1.33570863e-09
1.759092602e-07
3.70607553e-09
2.801370276e-08
7.382162703e-10
1.46028754e-07
2.233969556e-08
7.348377004e-10
1.797202694e-07
1.363168848e-08
8.044166943e-10
1.827937799e-07
8.407118642e-09
8.384994345e-10
1.79324559e-07
5.409463446e-09
8.509833317e-10
1.771003078e-07
8.489997627e-10
1.758106689e-07
3.696589787e-09
2.801768461e-08
3.579967565e-10
1.459736654e-07
2.235150542e-08
3.554138093e-10
1.796567456e-07
1.363883318e-08
3.891398776e-10
1.827390782e-07
8.406377684e-09
4.06791003e-10
1.792752811e-07
5.405864707e-09
4.137198818e-10
1.770488772e-07
4.134993237e-10
1.757603927e-07
3.692057218e-09
2.801988187e-08
2.904488956e-14
1.459492183e-07
2.235761044e-08
3.249977328e-14
1.796287936e-07
1.36429087e-08
2.87402474e-14
1.827149393e-07
8.406618539e-09
2.507455537e-14
1.792541682e-07
5.404663063e-09
1.86048483e-14
1.770267523e-07
1.142694336e-14
1.757389292e-07
3.690305461e-09
2.801988432e-08
-3.579425958e-10
1.459492206e-07
2.235760936e-08
-3.553551349e-10
1.796287946e-07
1.364290542e-08
-3.890889471e-10
1.827149404e-07
8.406612379e-09
-4.06746644e-10
1.792541682e-07
5.404655928e-09
-4.136870133e-10
1.77026752e-07
-4.134786076e-10
1.7573893e-07
3.690300713e-09
2.801768856e-08
-7.381754974e-10
1.459736717e-07
2.235150046e-08
-7.347945077e-10
1.796567493e-07
1.363882313e-08
-8.043807798e-10
1.827390801e-07
8.406361146e-09
-8.384689372e-10
1.792752812e-07
5.405845661e-09
-8.509607017e-10
1.770488775e-07
-8.48985121e-10
1.757603959e-07
3.692043656e-09
2.80137056e-08
-1.169522994e-09
1.460287617e-07
2.233968786e-08
-1.169935165e-09
1.797202777e-07
1.363167309e-08
-1.279042906e-09
1.827937846e-07
8.407095154e-09
-1.327356971e-09
1.793245617e-07
5.409436862e-09
-1.342522576e-09
1.771003118e-07
-1.335701323e-09
1.758106762e-07
3.696569859e-09
2.80082401e-08
-1.697074775e-09
1.461304316e-07
2.232343463e-08
-1.713095087e-09
1.79839087e-07
1.362423764e-08
-1.865560252e-09
1.828968234e-07
8.41188922e-09
-1.924774006e-09
1.794208656e-07
5.418252136e-09
-1.937854868e-09
1.772000666e-07
-1.92167458e-09
1.75909272e-07
3.706053928e-09
2.800431995e-08
-2.396899679e-09
1.463066305e-07
2.230578975e-08
-2.452325738e-09
1.800488807e-07
1.362105324e-08
-2.651522731e-09
1.830818089e-07
8.425452679e-09
-2.716583707e-09
1.795985143e-07
5.436333418e-09
-2.720353575e-09
1.773827212e-07
-2.689074556e-09
1.760914994e-07
3.723339153e-09
2.799863978e-08
1.466191401e-07
-3.403555788e-09
2.229169694e-08
1.804315993e-07
-3.565872693e-09
1.363141828e-08
1.834252144e-07
-3.805350834e-09
8.456930596e-09
1.799328838e-07
-3.863873167e-09
5.470557214e-09
1.777239592e-07
-3.846831968e-09
1.76434863e-07
-3.794878408e-09
3.752605534e-09
2.80485605e-08
5.278484752e-09
1.202472508e-07
3.051626201e-08
7.921316381e-09
1.805118468e-07
2.419047749e-08
7.331840518e-09
1.921962066e-07
1.770166675e-08
7.223393609e-09
1.888243713e-07
1.289386853e-08
7.233800604e-09
1.849346642e-07
7.232701132e-09
1.821143491e-07
9.618863131e-09
2.812865492e-08
3.933980684e-09
1.195224832e-07
3.060067772e-08
5.889978842e-09
1.796082038e-07
2.423836701e-08
5.422468337e-09
1.913534926e-07
1.770864537e-08
5.352914868e-09
1.879987009e-07
1.287711877e-08
5.361554027e-09
1.840864657e-07
5.363301159e-09
1.812424306e-07
9.59554746e-09
2.818018184e-08
2.802768764e-09
1.190814768e-07
3.065448567e-08
4.186307655e-09
1.79068474e-07
2.426388923e-08
3.844865523e-09
1.908650309e-07
1.770701632e-08
3.804095258e-09
1.875265525e-07
1.286018668e-08
3.809404194e-09
1.835990251e-07
3.813232302e-09
1.807442779e-07
9.575214356e-09
2.821614247e-08
1.804409322e-09
1.188110012e-07
3.068930729e-08
2.691120127e-09
1.787423261e-07
2.427982718e-08
2.470195713e-09
1.905779466e-07
1.770537135e-08
2.448033879e-09
1.87255079e-07
1.28483577e-08
2.45046962e-09
1.833162445e-07
2.454442307e-09
1.804566255e-07
9.561167856e-09
2.823747342e-08
8.841686778e-10
1.186564649e-07
3.071008675e-08
1.317595282e-09
1.78557683e-07
2.429081837e-08
1.209549347e-09
1.904190073e-07
1.770572453e-08
1.199818014e-09
1.871085909e-07
1.284203837e-08
1.200577964e-09
1.831624403e-07
1.203015159e-09
1.803007635e-07
9.553070571e-09
2.824751873e-08
2.867173108e-14
1.185858657e-07
3.071992161e-08
1.312634841e-14
1.784739901e-07
2.42966449e-08
1.979554376e-14
1.903477542e-07
1.770647487e-08
1.710737393e-14
1.870441332e-07