/*--------------------------------*- C++ -*----------------------------------*\
  =========                 |
  \\      /  F ield         | OpenFOAM: The Open Source CFD Toolbox
   \\    /   O peration     | Website:  https://openfoam.org
    \\  /    A nd           | Version:  7
     \\/     M anipulation  |
\*---------------------------------------------------------------------------*/
FoamFile
{
    version     2.0;
    format      ascii;
    class       volScalarField;
    location    "0.00019";
    object      Ux;
}
// * * * * * * * * * * * * * * * * * * * * * * * * * * * * * * * * * * * * * //

dimensions      [0 1 -1 0 0 0 0];

internalField   nonuniform List<scalar> 
5000
(
-6.8493302e-14
-2.1650008e-14
-1.7006211e-13
-3.3882867e-13
-4.5306766e-13
-6.8601391e-13
-5.0019651e-13
-2.1544588e-13
-3.9827543e-13
-5.8096449e-13
-5.1891958e-13
-4.8979078e-13
-4.0634363e-13
-3.7429154e-13
-4.880635e-13
-5.4734608e-13
-4.0905907e-13
-2.8519043e-13
-2.1501327e-13
-2.7130075e-13
-3.2270607e-14
-3.6371136e-13
-4.1656987e-13
-1.3854698e-13
5.6447687e-14
1.9887795e-13
9.0673305e-14
1.8761887e-13
-8.4507574e-15
-7.3047989e-14
-3.3795545e-13
-5.4551397e-13
-5.3207808e-13
-6.6009884e-13
-7.9093188e-13
-8.9153108e-13
-6.569465e-13
-7.0151602e-13
-7.1788624e-13
-5.6753435e-13
-6.8873731e-13
-4.7412138e-13
-3.4821538e-13
-5.9508965e-13
-8.8982492e-13
-5.4644354e-13
-4.1647584e-13
-5.7545677e-13
-3.4588219e-13
-5.046014e-13
-4.8707841e-13
-2.7339103e-13
-1.3708231e-13
-2.6502387e-13
-4.7972726e-13
-3.3258059e-13
-1.985618e-13
-1.760197e-15
-9.5378526e-14
-2.1511014e-13
-5.6830943e-14
4.3573218e-13
5.9438472e-13
3.3945868e-13
1.7893828e-14
8.4589574e-14
-1.8616897e-14
-4.4771156e-15
-8.0486801e-14
-5.1590184e-14
2.9953781e-13
1.0959061e-13
-1.0667186e-13
-2.332113e-13
7.0754685e-14
3.8770349e-14
8.0613659e-14
2.4185901e-13
2.8918415e-13
6.2497112e-13
6.0246692e-13
5.5074228e-13
6.3392768e-13
6.1072154e-13
4.5033922e-13
3.1256835e-13
9.3548084e-14
1.5192907e-13
7.4297459e-13
3.48385e-13
1.4647465e-13
2.3933354e-13
1.9593091e-13
4.1775018e-13
2.5582897e-13
3.2403533e-13
4.5742694e-13
4.6363765e-13
5.1105687e-13
3.8060201e-13
4.0103829e-13
4.7522959e-13
4.0923081e-13
4.8044296e-13
5.9671759e-13
5.9213147e-13
8.511843e-13
5.0458722e-13
2.0737956e-13
4.0389925e-13
5.313627e-13
3.911367e-13
3.1313843e-13
6.3166948e-13
4.7821323e-13
2.8847103e-13
5.2390304e-14
-5.3326155e-14
2.6513812e-13
5.0021603e-13
1.8663508e-13
7.0712699e-14
-2.3629272e-13
-9.7317665e-14
2.0405299e-13
1.4422011e-13
3.3691405e-14
-1.9613132e-13
-1.2944553e-13
-2.5208999e-13
-5.9330159e-13
-6.4456719e-13
-4.6803491e-13
-6.0522065e-13
-8.2509618e-13
-8.6125016e-13
-9.4758589e-13
-7.6007038e-13
-2.7447869e-13
-5.4473141e-13
-5.7316107e-13
-1.7880116e-13
-7.4849159e-13
-7.9440081e-13
-5.3234261e-13
-6.3584404e-13
-8.89713e-13
-1.1799491e-12
-1.1078956e-12
-1.016688e-12
-7.1663502e-13
-6.5135143e-13
-7.8395732e-13
-1.0007927e-12
-8.0549191e-13
-9.9558457e-13
-1.1323697e-12
-1.1366559e-12
-9.6537616e-13
-6.4684935e-13
-7.8948829e-13
-6.5550754e-13
-5.6043954e-13
-5.1101773e-13
-3.0140029e-13
-2.7019948e-13
-4.7890658e-13
-4.7812959e-13
-7.6971755e-13
-7.7114514e-13
-5.9158179e-13
-4.4597768e-13
-4.267726e-13
-4.8297983e-13
-2.0865808e-13
-2.6132466e-13
-1.1799916e-13
-2.5475522e-13
-2.888322e-13
-1.843062e-13
-5.7279078e-14
5.248604e-14
-7.2626277e-15
-8.3831596e-14
-2.3661164e-13
-3.305392e-13
-4.1467994e-13
-4.0544779e-13
-6.640026e-13
-4.031688e-13
-1.638846e-13
5.2541532e-14
5.2642822e-14
-2.1318149e-13
-2.1189506e-13
-2.0805105e-13
-1.3973763e-13
-5.0914853e-14
-8.8643458e-15
-2.0985563e-13
-1.3448265e-13
-1.6824114e-13
-1.3131719e-15
6.3391643e-14
-2.7226e-13
-9.4237869e-14
5.8903116e-14
-9.5683163e-14
-2.2319066e-13
-1.16628e-13
-1.1515389e-13
-1.4930869e-13
-3.2456753e-13
-2.6372307e-13
-1.5723792e-13
-1.5976029e-13
-7.7822677e-14
-3.1040088e-13
-3.5723034e-13
-2.7951028e-13
-2.6750742e-13
-3.267007e-13
-3.0950338e-13
-9.7465519e-14
-1.6058137e-13
-4.4633113e-13
-7.3854316e-13
-6.6574861e-13
-5.6633282e-13
-7.4257069e-13
-1.6201472e-13
-1.4318057e-13
-2.178293e-13
-2.9121922e-13
-1.5602161e-13
4.5354458e-14
-5.7803503e-14
-2.6241969e-14
-2.2966292e-13
-1.8990328e-13
-1.312743e-13
-2.1921411e-13
-1.8218624e-13
-2.502951e-14
2.7259485e-14
1.336402e-13
-7.7061507e-14
-2.2641107e-13
-1.4730814e-13
4.5847547e-14
2.4622993e-13
2.4970515e-13
7.2036451e-14
1.8848273e-13
1.9200155e-13
1.7023109e-13
3.4293698e-13
1.7237972e-13
6.3838179e-14
2.0561361e-13
3.3389692e-14
-7.7802206e-14
-3.0013247e-13
-3.6729284e-13
-2.0968931e-13
-2.531158e-13
-3.444214e-13
-4.9171643e-13
-3.7505659e-13
-9.6673191e-14
-8.663483e-14
2.0367682e-13
2.3807455e-13
2.4295492e-13
1.4081323e-13
1.1255668e-13
4.3966364e-13
4.8955912e-13
4.6666649e-13
6.3977016e-13
8.3141538e-13
7.6744261e-13
6.5240162e-13
4.9936396e-13
6.190211e-13
5.7909621e-13
5.6060279e-13
6.6402e-13
5.984423e-13
5.0511182e-13
3.9051114e-13
4.6774512e-13
5.84626e-13
4.6991778e-13
4.9778958e-13
5.0308377e-13
8.9879481e-13
6.7310941e-13
4.845088e-13
5.5549845e-13
6.3798791e-13
5.9324586e-13
2.8162723e-13
2.9640333e-13
3.0903129e-14
1.0237957e-13
2.6622067e-13
-1.0043282e-13
2.3953484e-13
2.0317373e-13
-1.96476e-13
-1.656873e-13
1.0496947e-13
-2.7556393e-13
-4.0750046e-13
-2.5368388e-13
-5.1401122e-13
-3.6316887e-13
-3.2839013e-13
6.0237926e-14
1.9104452e-13
2.3493051e-13
3.0283418e-13
1.4687834e-13
4.9120335e-14
-2.8645605e-14
9.2081759e-14
2.7134063e-13
1.4504421e-13
1.5777139e-14
-2.210584e-13
1.1601677e-13
7.1978835e-14
9.620147e-14
4.7844893e-13
4.5622298e-13
3.3543892e-13
3.7112628e-13
2.0731699e-13
1.2749236e-13
3.8921955e-13
3.1413998e-14
-1.7106978e-13
-3.9223353e-14
7.3498466e-14
-1.4737806e-14
1.2598366e-13
2.2273812e-13
2.5110646e-13
-8.6222597e-14
1.0218059e-13
1.3553772e-13
1.0075049e-14
-5.1541708e-14
-2.1126919e-13
1.3487869e-13
3.4634165e-13
2.3416464e-13
-9.8357422e-14
-1.4812304e-13
2.2577428e-13
2.9610843e-13
4.4747464e-14
-4.9694852e-14
6.1381778e-14
1.6594438e-13
8.3335793e-14
1.8107327e-13
8.1439615e-14
-4.0984064e-14
-1.1268827e-13
-2.3109977e-13
-2.6401753e-13
3.2486336e-13
3.0791697e-13
1.389967e-13
1.8596301e-13
2.2848181e-13
2.7396752e-13
3.0951636e-13
9.7535244e-14
-9.9478683e-14
-3.5691193e-13
-3.2834874e-13
-7.9628649e-14
-2.9282218e-13
-3.0920741e-13
-2.9835987e-13
-3.8041408e-13
-3.331219e-13
-1.4606278e-13
1.2959358e-14
-9.6530084e-14
-2.916374e-13
6.7844198e-14
1.7111625e-13
2.976388e-14
1.6185766e-13
4.9191765e-13
8.3102781e-13
9.4197878e-13
5.48206e-13
2.869425e-13
1.7078098e-13
1.1118052e-13
7.0184617e-14
3.6914559e-13
1.9329859e-13
-3.6680565e-14
1.2205988e-13
1.647212e-13
3.2433367e-13
2.5166199e-13
2.5953058e-13
1.0817181e-14
-8.565969e-14
-2.7851104e-13
-1.6288254e-13
-7.432885e-14
-6.8221473e-14
1.3280334e-13
1.5857549e-13
1.0515634e-13
2.2645267e-13
1.6583942e-13
-6.3247036e-16
-1.4270531e-13
-1.2525432e-13
5.2204549e-14
2.5264779e-14
8.2799697e-14
-3.0907358e-14
-2.3566639e-13
-4.4881382e-13
-3.1809704e-13
-3.7266256e-13
-2.7487891e-13
-5.0874155e-14
-2.6391654e-13
-2.4143331e-14
2.913992e-13
3.5240219e-13
3.1147513e-13
4.1474748e-13
5.1772769e-13
5.6226928e-13
6.4428629e-13
9.7761431e-13
1.1462637e-12
1.1805628e-12
1.3139865e-12
1.2490016e-12
1.1882215e-12
1.2223418e-12
1.304159e-12
1.279832e-12
1.3531032e-12
1.2963117e-12
1.1194662e-12
9.4983769e-13
9.6121694e-13
9.6147033e-13
9.2224934e-13
5.9489001e-13
4.8307325e-13
5.7482032e-13
7.2483851e-13
7.3850618e-13
8.2543916e-13
7.9079467e-13
1.02753e-12
1.1951023e-12
8.0840227e-13
1.1723027e-12
1.213526e-12
9.8496398e-13
8.0981954e-13
5.9310162e-13
4.3946988e-13
2.8464083e-13
4.4886286e-13
2.4740628e-13
2.0369154e-14
6.4444225e-14
2.6309749e-13
1.4481469e-13
-2.8920888e-13
-1.6849096e-13
-3.2307566e-13
-3.9988173e-13
-2.3578261e-13
-4.4964235e-14
-1.2973719e-13
-3.1378581e-14
7.2812134e-14
1.1041311e-13
3.5745116e-14
1.6970627e-13
1.538707e-13
5.1549933e-14
1.6318324e-13
2.1600124e-13
2.0441407e-13
2.2638568e-13
4.5861249e-13
3.096778e-14
1.5845781e-13
1.6993791e-13
1.8412101e-13
1.2623787e-13
6.8769543e-14
6.6275845e-14
-3.1803609e-15
-5.2054009e-15
-3.1681973e-14
2.7270135e-13
1.8716444e-13
-1.0281682e-14
-2.871216e-13
-3.561741e-13
-6.2894722e-13
-7.8795783e-13
-7.4467521e-13
-8.6724625e-13
-6.6422802e-13
-3.5039082e-13
-2.6377185e-13
-6.2920319e-13
-9.4665213e-13
-8.3307771e-13
-7.3623769e-13
-5.4967273e-13
-4.4863866e-13
-6.554312e-13
-8.6473464e-13
-7.345887e-13
-8.1922497e-13
-1.0448209e-12
-9.1054898e-13
-1.0738205e-12
-9.1174854e-13
-9.2746236e-13
-9.8956307e-13
-8.8913792e-13
-8.9354688e-13
-9.9080883e-13
-9.0324978e-13
-4.2079528e-13
-3.6278279e-13
-4.3467649e-13
-2.4651879e-13
-3.3376054e-13
-3.0014068e-13
-4.4707772e-13
-9.3433438e-13
-8.8695351e-13
-7.807553e-13
-7.9039338e-13
-8.3400258e-13
-4.8477644e-13
-3.452483e-13
-5.7126361e-13
-4.4596177e-13
-5.5549935e-13
-5.9505679e-13
-7.3433104e-13
-9.7207629e-13
-6.0597857e-13
-2.6352054e-13
-7.4771513e-14
1.9626185e-13
1.0319204e-13
2.0431354e-14
1.7340688e-14
7.1321113e-14
3.5991775e-14
1.4257223e-13
2.4893217e-14
1.2871878e-13
-1.0571544e-14
2.6379979e-13
3.9867824e-13
2.6517628e-13
2.3628355e-13
6.8343299e-14
-1.307212e-13
-2.1594665e-13
1.7917662e-14
1.1647429e-13
1.5162112e-13
1.1756523e-13
3.1259189e-13
2.1894648e-13
4.6214488e-14
-2.5611115e-13
-3.0225211e-13
-3.2765525e-13
-5.8531961e-13
-6.0806966e-13
-4.6480919e-13
-5.8158643e-13
-5.1929913e-13
-4.5309731e-13
-2.8708559e-13
-3.7173282e-13
-5.524137e-13
-6.6887966e-13
-7.733388e-13
-6.5509337e-13
-6.4772803e-13
-7.5224477e-13
-6.5100985e-13
-6.3711678e-13
-5.7220991e-13
-4.259863e-13
-6.1579303e-13
-7.7213392e-13
-6.7603852e-13
-4.1056237e-13
-5.0122813e-13
-2.9190543e-13
-2.4963116e-13
-4.0549782e-13
-1.7055832e-13
-1.2130354e-13
-6.3823695e-13
-7.9979796e-13
-8.5482841e-13
-6.9894885e-13
-3.4089936e-13
-2.768165e-13
-3.0495568e-13
-1.972975e-13
-2.1161123e-13
-2.371556e-13
-3.4349114e-13
-6.0620829e-13
-5.0127873e-13
-3.9789704e-13
-1.7675034e-13
-1.9920005e-13
-1.9822299e-13
-1.0176746e-13
-2.8539145e-13
-2.9320623e-13
-7.9330655e-14
7.9026698e-14
3.7720639e-13
-5.0671203e-14
-2.6064356e-13
4.1307439e-14
-1.8915639e-13
-4.6003077e-13
-6.2445776e-13
-5.9468851e-13
-2.9333779e-13
-3.3685422e-13
-4.6001201e-13
-3.2061439e-13
-3.9452031e-14
1.3799771e-13
-9.7429804e-14
-1.5822395e-13
-1.1568783e-13
6.0231961e-14
3.905677e-13
2.1343187e-13
-1.084429e-13
7.4593834e-14
2.9478949e-13
5.2254141e-13
4.192751e-13
3.4326483e-13
2.270867e-13
3.4587294e-13
4.2116746e-13
1.7754584e-13
1.1219348e-13
6.171308e-14
2.9001234e-13
2.0532748e-13
2.0228947e-13
1.6157358e-13
3.2472298e-13
6.2416956e-13
6.5194678e-13
8.5097608e-13
9.1801925e-13
5.8191375e-13
4.3351572e-13
5.3649397e-13
6.6821414e-13
8.5402329e-13
8.7305611e-13
1.974076e-13
5.3521593e-14
2.3394157e-13
2.959343e-13
4.6719586e-13
3.7453272e-13
2.4477792e-13
1.2374794e-13
2.0840804e-14
-5.8934871e-14
-3.0102908e-13
-3.2736833e-13
-1.7942682e-13
-1.3055555e-13
-3.7016778e-14
6.9014524e-15
-9.5619348e-14
-2.6963989e-13
-2.2571633e-13
5.3565068e-15
1.5182092e-13
1.5572683e-13
1.4877196e-13
8.3315995e-14
-4.3270448e-14
-1.0356978e-14
1.9080137e-13
7.2047669e-13
7.4983275e-13
4.7853599e-13
5.4539105e-13
3.2300794e-13
2.1723355e-13
2.4977005e-13
4.5378471e-13
3.8742706e-13
5.070918e-13
2.8576796e-13
1.6252976e-13
4.3256665e-13
6.152012e-13
6.78333e-13
3.9915319e-13
4.6921799e-13
5.9546147e-13
6.436863e-13
5.8525742e-13
3.3618295e-13
-1.6572392e-13
-2.550242e-13
1.1908898e-14
1.4939512e-13
2.4395268e-13
5.8109567e-14
1.1502689e-13
2.3511506e-13
-1.4315943e-13
-2.9106348e-13
-3.3832425e-13
-2.3167071e-13
3.0186563e-13
1.2099567e-13
-1.7958316e-13
1.4356921e-14
-2.2642142e-13
-2.9760913e-13
-3.0786673e-13
-2.6992272e-13
-2.5964404e-13
-1.3150664e-13
-2.9061886e-14
-1.7044345e-13
-2.1259612e-14
2.3385304e-14
-3.9212759e-13
-3.1740122e-13
-8.6504477e-14
-3.1862382e-13
-2.5289992e-13
-3.2737087e-13
-5.9756873e-13
-5.3112659e-13
-4.8206887e-13
-4.6011228e-13
-2.4270208e-13
-1.9213785e-13
-4.1805523e-13
-1.6442072e-13
2.3801289e-14
4.5380499e-14
-2.2385001e-13
-1.8717709e-13
-3.5146467e-14
-4.8449562e-14
1.309141e-14
-2.1026229e-13
-1.5029542e-13
-3.408411e-13
-3.1787077e-13
-3.17665e-13
-5.1812367e-13
-2.6579159e-13
-1.999255e-13
-3.1535076e-13
-3.9897246e-13
-4.5764451e-13
-4.141659e-13
-4.8086576e-13
-4.0192721e-13
-3.9321843e-13
-5.1207128e-13
-4.1705898e-13
-1.4891436e-13
-1.3681345e-13
-3.8596919e-13
-4.3814162e-13
-3.9202232e-13
-2.2992681e-13
-1.7340646e-13
-5.682453e-13
-8.2880851e-13
-8.7548592e-13
-8.5430135e-13
-9.1362785e-13
-7.5382543e-13
-6.4929154e-13
-7.7777005e-13
-1.055864e-12
-8.8700784e-13
-9.4197271e-13
-9.6028196e-13
-7.1006024e-13
-8.9491444e-13
-6.1515215e-13
-5.9799143e-13
-5.8928954e-13
-7.5591602e-13
-7.604772e-13
-5.4454094e-13
-5.3354081e-13
-5.6518232e-13
-6.5137053e-13
-3.6547804e-13
-5.6661513e-13
-5.3241526e-13
-3.2925888e-13
-3.4205013e-13
-1.315375e-13
-7.4194321e-14
-3.2579186e-16
3.3477165e-14
-2.3227489e-13
-5.9871731e-13
-7.0145243e-13
-4.8347811e-13
-4.3251551e-13
-3.3908017e-13
-5.0903198e-13
-7.4528669e-13
-6.7920364e-13
-6.6889201e-13
-6.8948966e-13
-3.4417483e-13
-3.3654517e-14
-2.530628e-13
-1.1472316e-13
1.0984141e-13
-4.9174442e-14
-5.1766778e-14
2.3951704e-13
1.3731979e-13
8.3099404e-14
-3.7009887e-14
-1.5348397e-13
-1.1827739e-13
-2.9341037e-13
-1.3546986e-13
-2.1302642e-13
-3.6194172e-13
1.6870286e-13
2.3951275e-14
-6.5831874e-14
5.8476425e-14
1.279144e-13
2.6565826e-13
2.3580584e-13
3.0426853e-13
2.5767176e-13
2.9813195e-13
1.0996596e-13
3.2555835e-13
2.4883951e-13
3.5992124e-13
5.5629128e-13
5.9912716e-13
6.0695369e-13
3.3282859e-13
2.3737378e-13
2.9712713e-13
3.3140499e-13
4.5750007e-13
3.7099362e-13
6.4400711e-13
6.4236569e-13
3.9695292e-13
4.3314435e-13
2.7079279e-13
5.2377949e-13
8.0130252e-13
9.0089877e-13
8.8621262e-13
7.4117177e-13
4.4391185e-13
2.9073201e-13
2.3552965e-13
3.1223712e-13
1.7080935e-13
1.0813318e-13
3.069596e-13
3.3410324e-13
3.1527715e-13
2.4785088e-13
-8.6156449e-14
1.3252876e-13
1.8204138e-13
-1.1487083e-13
3.6278684e-14
-8.5003197e-14
-4.0685089e-13
-5.57632e-13
-4.8573436e-13
-5.5815776e-13
-8.2858675e-13
-9.0754289e-13
-1.1018266e-12
-7.6585834e-13
-6.9095319e-13
-5.3977289e-13
-3.6329211e-13
-3.7121819e-13
-3.8284263e-13
-5.4679965e-13
-3.021027e-13
-3.6522432e-13
-4.3582622e-13
-3.8442713e-13
6.3790423e-14
-3.8198465e-14
-3.8708131e-14
-2.4660481e-13
-3.3281463e-13
-1.243677e-13
-2.9090865e-13
-3.3560888e-13
-3.8070215e-13
-6.3676582e-13
-7.3475251e-13
-8.1672861e-13
-1.0656003e-12
-1.0043073e-12
-1.007049e-12
-8.6885815e-13
-7.4692402e-13
-6.2481482e-13
-5.4612051e-13
-6.4176029e-13
-3.5320294e-13
-2.208419e-13
-2.1939347e-13
-1.0427673e-13
-1.6211162e-13
5.1303549e-14
6.70643e-14
2.8643786e-13
5.0709652e-15
2.0590848e-14
-1.0975847e-14
-8.6346701e-14
-3.0656791e-13
-5.7747296e-13
-3.1335893e-13
-4.8730465e-13
-3.8783276e-13
-6.3308494e-13
-6.0026403e-13
-5.8732056e-13
-5.2491154e-13
-6.3434819e-13
-4.2443733e-13
-3.8188883e-13
-5.7088618e-13
-2.2753576e-13
-5.2683609e-13
-7.4166134e-13
-5.8826462e-13
-2.565785e-13
-2.351614e-13
-1.4245409e-13
-1.6564513e-13
-5.2802082e-14
1.8895548e-13
3.1828704e-13
4.8222442e-14
-2.946799e-13
-7.8694648e-14
9.3319159e-17
2.8870624e-13
2.051006e-13
2.1328108e-13
3.1252377e-13
2.7972601e-13
9.2535779e-14
1.5716934e-13
2.4702472e-13
4.8837713e-13
6.8920193e-13
2.8137769e-13
4.7867432e-13
5.789307e-13
2.3588624e-13
-1.0817193e-13
-1.3330916e-13
-1.5379267e-13
-4.5637665e-13
-5.6621986e-13
-6.1465656e-13
-7.7217707e-13
-8.8373268e-13
-1.1686893e-12
-1.0758792e-12
-9.3513155e-13
-9.4595874e-13
-7.7952574e-13
-9.3441833e-13
-6.3632465e-13
-7.5957268e-13
-1.1756286e-12
-9.1775705e-13
-5.5919509e-13
-6.7980687e-13
-8.663405e-13
-9.9719553e-13
-6.6172124e-13
-5.0223548e-13
-4.7853148e-13
-3.9949457e-13
-7.0221417e-13
-7.4560923e-13
-6.665375e-13
-3.8341772e-13
-4.3427089e-13
-5.564363e-13
-3.3882172e-13
-4.0852716e-13
-3.8128336e-13
-4.0170487e-13
-5.8143986e-13
-5.5783078e-13
-3.025749e-13
-1.4179369e-13
-3.6408509e-13
-5.2213117e-13
-6.284798e-13
-3.9838981e-13
-4.2796734e-13
-4.8805148e-13
-3.3769434e-13
-4.9493281e-13
-3.3437087e-13
-3.9595279e-13
-6.5682827e-13
-2.7623081e-13
-8.3376253e-14
-3.3462249e-13
-4.0597401e-13
-3.8241714e-13
-5.1684497e-13
-3.3996598e-13
-1.8725345e-13
-3.9671073e-13
-4.3182205e-13
-3.4790981e-13
-2.5567712e-13
-8.4474794e-14
7.2677575e-14
1.1732867e-13
1.0377996e-13
6.8239171e-14
2.1889665e-13
3.8923118e-13
6.0808534e-13
6.8372786e-13
5.7065228e-13
4.4849143e-13
5.947163e-13
3.9494832e-13
2.865729e-13
3.3234813e-13
1.5733646e-13
-8.2698283e-15
7.8915518e-14
-2.178727e-14
-5.3044053e-14
9.2993716e-14
-4.9235877e-14
-7.8924452e-14
-7.0038367e-15
8.7324713e-14
-2.0009075e-14
-4.1850823e-14
-8.5316944e-14
-1.5735646e-13
-1.4925538e-13
1.1243652e-13
2.9517776e-13
3.0460332e-13
2.3197847e-13
1.39012e-14
1.4293053e-13
3.6205338e-13
2.6800248e-13
1.6574834e-13
5.6765827e-14
5.7233366e-14
1.5163393e-13
1.9623582e-13
1.2678548e-13
-1.292804e-14
-3.006204e-13
-2.206375e-13
-1.7711523e-14
1.7090484e-13
1.3942877e-13
-1.6869357e-14
-8.3077174e-15
2.4766911e-14
-2.8090941e-13
-2.808423e-13
-2.5426438e-13
-1.0907136e-14
1.899966e-13
1.498253e-13
1.0271535e-13
-5.5515148e-15
2.5911344e-13
1.2395974e-13
4.7773155e-14
3.9910936e-14
8.5999102e-14
4.0943076e-13
5.5852835e-13
6.5741352e-13
5.8806781e-13
4.6098677e-13
3.6741617e-13
5.5391246e-13
3.982922e-13
3.7999531e-13
5.3897186e-13
5.4556279e-13
6.7628115e-13
9.9677939e-13
9.047921e-13
1.1015812e-12
1.2491437e-12
9.8402519e-13
1.1249381e-12
1.0172686e-12
8.084192e-13
8.6928023e-13
6.453749e-13
7.8194139e-13
9.432971e-13
8.2746603e-13
9.3560709e-13
7.2072802e-13
7.215971e-13
6.3338014e-13
3.917897e-13
2.2798273e-13
4.3581295e-13
6.7892064e-13
7.5951626e-13
7.4178773e-13
6.9290325e-13
4.9385499e-13
5.9833209e-13
6.3337839e-13
2.5115984e-13
5.645953e-13
3.0412377e-13
1.4673182e-13
3.1301756e-13
5.036418e-13
3.951223e-13
4.8849988e-13
4.9762889e-13
4.9761156e-13
8.75479e-13
8.6113925e-13
1.0290519e-12
7.5169509e-13
9.6027191e-13
9.9560214e-13
8.0053548e-13
8.6869632e-13
9.9232217e-13
9.85731e-13
9.4940225e-13
1.0592733e-12
1.1328551e-12
9.803616e-13
8.7765089e-13
7.6214339e-13
8.2090013e-13
8.523251e-13
5.0760438e-13
7.7446705e-13
8.997247e-13
9.0785102e-13
1.1525975e-12
1.1050673e-12
9.4199678e-13
1.0681876e-12
1.2280554e-12
1.2370629e-12
1.0729867e-12
6.9375874e-13
6.2566176e-13
8.7904914e-13
7.7470003e-13
5.8137631e-13
3.5181809e-13
7.0111354e-13
1.0257667e-12
1.0287355e-12
6.8735712e-13
5.9871493e-13
9.5992257e-13
8.1448967e-13
9.879449e-13
8.2611964e-13
7.7134377e-13
6.7344905e-13
4.9881046e-13
1.4271445e-13
-1.8310485e-14
2.1371019e-13
4.3839864e-13
4.2057627e-13
4.001482e-13
4.8369565e-13
4.4852626e-13
5.1776257e-13
1.9502422e-13
4.2166458e-13
5.9980606e-13
8.0406811e-14
1.9960389e-13
7.5751304e-13
4.7982154e-13
2.895238e-13
5.6430137e-13
3.8710828e-13
2.3927613e-13
3.5677301e-13
3.3953651e-13
5.1682727e-13
2.7662817e-13
-1.2474664e-14
-3.3084603e-14
-1.1477897e-13
1.3653925e-14
7.7550145e-14
1.1862015e-13
9.942776e-14
2.3381544e-13
1.7819924e-13
-6.8469078e-14
-4.5969225e-14
-9.2304879e-15
-4.03555e-14
-4.7069829e-14
-1.877057e-13
-4.0413834e-13
-5.5850433e-13
-2.9575687e-13
-2.0267474e-13
6.6265087e-14
8.9189307e-14
-2.250029e-14
3.1451332e-13
1.8419058e-13
1.5695711e-13
9.1581778e-14
-4.3787097e-14
-2.6009086e-13
-1.8910921e-13
2.019103e-13
2.6929867e-13
1.9423679e-13
3.0074859e-13
2.6669225e-13
2.0540006e-13
1.4254326e-13
-3.1618851e-14
-4.1134585e-14
-1.9955823e-13
-1.4881303e-13
-6.5615479e-14
2.2293699e-14
3.3455032e-14
-1.7148112e-13
-1.8556543e-13
-2.0668591e-13
-3.0174107e-13
-1.5152639e-13
-2.5026009e-13
-3.5639321e-13
-2.4942072e-13
-1.3357145e-13
-2.1152699e-13
-2.2144168e-13
-1.329508e-13
-5.2471339e-13
-6.9864695e-13
-7.968665e-13
-6.6819421e-13
-4.4245208e-13
-5.0481879e-13
-6.5833187e-13
-9.533204e-13
-8.6483725e-13
-8.898917e-13
-7.8231818e-13
-7.1591204e-13
-7.8197397e-13
-7.5685626e-13
-8.1880614e-13
-9.3781323e-13
-1.0765653e-12
-1.0716345e-12
-7.4192036e-13
-6.8351029e-13
-7.4354852e-13
-5.0291431e-13
-5.2009749e-13
-2.5209977e-13
-3.4317768e-13
-5.3137892e-13
-4.6553436e-13
-6.2108971e-13
-5.8514763e-13
-3.4446635e-13
-4.5705285e-13
-3.5601573e-13
-1.9881057e-15
-1.6346064e-13
-2.8309533e-13
-3.9211544e-13
6.1544878e-14
1.1279227e-13
-8.9893537e-15
1.6121705e-13
3.7317471e-14
5.4604586e-14
2.1035861e-14
4.3941275e-13
5.8538308e-13
7.227435e-13
6.9720127e-13
7.5329957e-13
4.4949509e-13
6.6532572e-14
1.5871224e-13
2.6650443e-13
2.1483066e-13
-3.4555317e-15
3.4831956e-13
3.2889492e-13
2.1227951e-13
2.0560692e-13
3.1721506e-13
3.5031519e-13
4.9277967e-13
4.8170801e-13
3.5390087e-13
5.2427184e-13
6.8297626e-13
6.3947451e-13
4.9017074e-13
6.5754168e-13
5.9873328e-13
4.7787699e-13
8.6074703e-13
7.4237265e-13
7.0165862e-13
8.4689779e-13
8.1466059e-13
7.7251737e-13
9.8012182e-13
7.6817497e-13
7.5549067e-13
8.6788014e-13
4.8421277e-13
6.9065538e-13
4.663869e-13
1.9528541e-13
9.8680586e-14
4.7855166e-13
5.5426406e-13
5.2915239e-13
5.2139775e-13
5.1906458e-13
6.228698e-13
6.8766219e-13
6.946366e-13
5.4736389e-13
5.1377144e-13
6.2942169e-13
1.8006649e-13
1.7826125e-13
6.190245e-13
4.5598971e-13
5.1648517e-13
7.3109401e-13
7.6637827e-13
7.666406e-13
1.0422625e-12
8.3370623e-13
7.9655317e-13
9.509118e-13
8.5340457e-13
7.8918865e-13
7.9471162e-13
7.7918508e-13
5.8160846e-13
4.1366632e-13
5.5626608e-13
5.5469955e-13
4.4895216e-13
5.7331165e-13
5.157959e-13
5.22969e-13
8.4599389e-13
6.3452721e-13
4.200844e-13
5.4128878e-13
2.7330254e-13
2.9769038e-13
4.4037864e-13
4.1487241e-13
5.5439604e-13
6.1167134e-13
9.0454709e-13
1.0412293e-12
1.0583493e-12
1.1434883e-12
8.3569445e-13
7.4906628e-13
1.0366211e-12
7.6486728e-13
7.161826e-13
9.1321023e-13
9.7610825e-13
1.0673619e-12
1.131505e-12
8.9089478e-13
4.5446574e-13
1.7965558e-13
5.0495106e-13
5.9280507e-13
4.8645397e-13
3.6446916e-13
2.5988404e-13
1.4959512e-13
-3.648861e-14
1.912324e-13
2.1505448e-13
-1.6302653e-15
-6.4784768e-14
-2.2102368e-13
-2.2722486e-13
-4.4464723e-13
-3.6673642e-13
-4.0539657e-13
-3.5639386e-13
-1.8326899e-13
-3.0628002e-13
-2.6532117e-13
-3.4164174e-14
2.9903378e-13
-4.0341193e-14
9.170205e-14
-1.0643678e-13
-2.8061708e-14
-2.000935e-13
-4.4644016e-13
-1.975494e-14
3.7997588e-14
-3.2058036e-13
-3.5492507e-13
-2.1014784e-13
-2.4888012e-13
-3.3440954e-13
-5.2236284e-13
-6.6758121e-13
-7.1895397e-13
-6.4597081e-13
-3.6459117e-13
-2.5657694e-13
-2.349411e-13
-3.267492e-13
-5.6369717e-13
-2.8020886e-13
2.3258776e-14
-2.0103053e-13
-4.5040159e-13
-6.29147e-13
-6.6184765e-13
-5.0087777e-13
-4.1544404e-13
-1.9280155e-13
-9.122205e-15
-7.0150888e-15
1.6497663e-13
2.3169891e-13
-1.5114406e-14
-3.6861517e-14
4.9441106e-14
4.0477264e-13
5.3893217e-13
1.968084e-13
2.5352638e-13
4.1512972e-13
6.4234719e-13
2.3583421e-13
2.8744337e-13
2.5340203e-13
-2.3939519e-14
-6.9537961e-14
8.809139e-14
6.2728929e-14
-2.2406766e-13
-2.3512621e-15
-2.9777882e-14
3.001615e-14
4.3269941e-14
9.3581466e-14
-5.9693378e-15
1.4730783e-13
1.6773243e-13
7.6020821e-14
-1.1564356e-13
-1.503927e-13
-2.6424425e-13
-3.6301067e-13
-1.8404735e-13
-6.8991889e-13
-6.8413189e-13
-5.6694029e-13
-6.1315039e-13
-6.0895041e-13
-6.5682496e-13
-8.7680225e-13
-1.0314345e-12
-6.2123173e-13
-7.4602651e-13
-8.5940803e-13
-1.0842831e-12
-9.3722442e-13
-6.6852825e-13
-8.7260315e-13
-6.4263287e-13
-7.6800959e-13
-8.0189024e-13
-5.5960657e-13
-6.871054e-13
-8.648227e-13
-6.7105736e-13
-5.2499855e-13
-8.8894627e-13
-8.6262614e-13
-7.5684995e-13
-7.0011283e-13
-6.4110474e-13
-8.8844494e-13
-8.9397205e-13
-7.3958222e-13
-7.7687227e-13
-1.0222231e-12
-9.6817114e-13
-8.3614868e-13
-9.5332887e-13
-1.1751755e-12
-1.2157273e-12
-1.125519e-12
-1.3495117e-12
-8.81262e-13
-6.2042466e-13
-7.9920555e-13
-6.2081862e-13
-6.2773787e-13
-8.8167579e-13
-1.0187713e-12
-7.6185935e-13
-6.6838598e-13
-4.4610477e-13
-7.4179894e-13
-4.4890098e-13
-1.5539568e-13
-3.0332827e-13
-5.7525445e-13
-5.4461451e-13
-4.8558552e-13
-6.72988e-13
-6.4250233e-13
-8.2530962e-13
-5.7475197e-13
-3.5279405e-13
-2.3160003e-13
-3.1979841e-13
-3.2637984e-13
-3.5137887e-13
-3.3204579e-13
-4.415224e-13
-5.0545598e-13
-3.6179979e-13
-2.6836729e-13
-2.8190633e-14
3.0312236e-13
4.2716227e-13
1.3907524e-13
-4.7604606e-14
8.0517388e-15
-1.2181046e-13
-1.0174645e-13
-1.0675752e-13
8.116002e-14
1.2104018e-13
5.4182242e-14
-2.2238111e-14
-6.1857775e-14
9.8977135e-14
4.0114809e-13
5.3739817e-13
6.2146249e-13
5.8386576e-13
6.5818363e-13
8.7301583e-13
7.5590876e-13
7.2157572e-13
7.2946659e-13
7.277715e-13
6.508721e-13
6.1533523e-13
5.4742887e-13
5.6080516e-13
5.2489022e-13
6.5603431e-13
8.5913611e-13
9.2486644e-13
1.0649967e-12
7.78047e-13
8.8790285e-13
1.0691374e-12
1.0296462e-12
1.3475583e-12
1.3724623e-12
1.3290939e-12
1.25172e-12
9.1319041e-13
8.1038193e-13
1.0257616e-12
1.0874023e-12
1.1586914e-12
1.0789816e-12
1.0940167e-12
1.1280673e-12
1.0409357e-12
9.3970181e-13
6.979221e-13
4.5954659e-13
4.5672607e-13
4.5664763e-13
3.4447135e-13
2.9743905e-13
-2.93336e-14
-6.6836197e-14
2.1849226e-14
5.3933869e-14
3.8696724e-14
-1.739021e-13
-1.4474615e-13
-1.4423157e-13
4.8747577e-14
1.2119962e-13
2.0869482e-14
1.0279788e-13
2.383687e-13
4.8400758e-13
1.6750143e-13
3.838773e-13
3.4600246e-13
-3.761271e-14
2.6852797e-13
2.1091379e-13
2.4172631e-14
-8.726807e-15
-7.7729248e-15
-6.4163413e-14
-9.4404754e-15
7.0884074e-14
-9.9853476e-14
7.4217901e-14
3.9841622e-14
-1.0583154e-13
-4.8771122e-14
-6.2140118e-14
-1.9721992e-14
-1.4843764e-13
-1.4776466e-13
-2.7673041e-13
-1.6012588e-13
3.6259332e-15
-4.8426179e-14
-4.0691918e-14
-7.5728406e-14
7.5058923e-14
2.7846174e-13
3.4945478e-14
-5.2161722e-14
-1.7143357e-13
-3.0890211e-13
-4.0181021e-13
-2.4291152e-13
-2.663786e-13
-2.9558259e-13
-4.1971265e-13
-3.1567053e-13
-1.8238784e-13
-2.7172446e-13
-3.5524267e-13
-2.8523285e-13
4.61386e-14
2.002994e-13
1.167593e-13
-5.85707e-14
1.3923188e-13
1.289499e-13
2.2927034e-13
2.0432671e-13
1.422264e-13
1.9728239e-13
-5.1296223e-14
-1.7735546e-13
8.6088263e-15
1.7380661e-13
1.2227759e-13
-9.0840562e-14
6.3528657e-14
7.5690422e-15
8.1720765e-14
2.2396738e-14
-1.1577083e-13
-2.5274418e-13
-7.9484219e-13
-9.0315735e-13
-8.4100729e-13
-9.7661497e-13
-1.0146257e-12
-1.1340387e-12
-1.2615129e-12
-1.0781733e-12
-9.0713578e-13
-7.0335556e-13
-5.6488655e-13
-4.7647396e-13
-6.6086338e-13
-6.2395101e-13
-6.3080152e-13
-6.7716533e-13
-5.349188e-13
-2.827613e-13
-3.6031894e-13
-2.7345934e-13
-1.7622764e-13
1.603003e-14
-1.5260303e-13
-3.1943373e-13
-1.8529222e-13
-1.4405842e-13
-3.461845e-13
-2.4131103e-13
-4.133572e-13
-7.1122945e-13
-5.1613613e-13
-6.9758784e-13
-6.7579589e-13
-6.4838545e-13
-2.9260273e-13
-1.4049178e-13
-2.198458e-13
-5.5611726e-13
-4.2921812e-13
-2.1256127e-13
-3.1020195e-13
-2.3934489e-13
-3.072524e-13
-4.1434941e-13
-5.1216019e-13
-3.6254069e-13
-2.2520503e-13
-4.1173386e-14
9.2769291e-15
-1.0249976e-13
-2.0914274e-13
-4.3545764e-13
-2.2078399e-13
-4.4828525e-13
-4.9303232e-13
-6.1830165e-13
-5.968519e-13
-6.8649389e-13
-3.0858599e-13
-4.9733603e-13
-1.0350677e-12
-9.4582177e-13
-9.2912442e-13
-6.9951295e-13
-8.2638e-13
-1.1193371e-12
-1.0204179e-12
-9.1574971e-13
-1.1583393e-12
-1.1926681e-12
-1.2850802e-12
-1.0977177e-12
-1.1431665e-12
-1.061331e-12
-8.0808114e-13
-7.8989589e-13
-7.5196844e-13
-7.246257e-13
-4.9903392e-13
-3.5591943e-13
-3.5649903e-13
1.7027447e-14
8.2298791e-14
1.3620632e-13
-1.1214459e-13
6.7346841e-14
-9.2812317e-15
-1.8975723e-13
-2.7321358e-13
-1.7992538e-13
2.0327043e-13
9.6597654e-14
5.8989493e-14
3.879014e-14
4.5699607e-13
2.6152639e-13
3.8205342e-13
6.1022485e-13
4.5709708e-13
2.6956267e-13
-2.0063904e-13
-1.7370996e-14
2.0442527e-13
3.3094108e-13
4.7143716e-13
1.0752737e-13
-1.6111844e-14
3.7592203e-13
5.8423516e-13
4.64029e-13
4.7166404e-13
3.4111484e-13
3.9797755e-13
3.4657206e-13
4.9291792e-14
1.5622582e-13
1.1423114e-13
-2.0591602e-13
-3.6800739e-13
-5.2425813e-13
-4.5386805e-13
-1.6191748e-13
-1.7927865e-13
-2.2985525e-13
-2.2202769e-13
-1.3131189e-13
-3.5495214e-13
-2.7907819e-13
-9.1004959e-14
-9.1382649e-14
-1.102259e-13
1.3769381e-13
4.9823526e-13
1.9967298e-13
2.2196031e-13
3.7339138e-13
4.8327428e-13
2.5378177e-13
2.1476062e-13
2.0113606e-14
-2.5133136e-13
-1.6321573e-13
-9.7909378e-15
-1.1741957e-13
1.7036942e-14
1.4153494e-13
-5.1761205e-14
-2.9436236e-13
-3.5269654e-13
-8.7551362e-14
-5.6933156e-13
-4.7933736e-13
-4.4241312e-13
-5.3595887e-13
-3.1256821e-13
-2.2820753e-13
-1.7324154e-13
-1.2373157e-13
1.8052021e-13
4.5108163e-13
2.4062626e-13
2.3994063e-13
1.7588081e-13
8.7238367e-14
2.6005453e-13
3.5153749e-13
6.2990066e-13
8.4102631e-13
1.338297e-12
1.8637788e-12
2.2410874e-12
2.6742872e-12
3.0905694e-12
3.6650068e-12
4.3111245e-12
5.3825474e-12
6.4333409e-12
7.8604284e-12
9.7761292e-12
1.1412939e-11
1.3572141e-11
1.6630736e-11
2.0256683e-11
2.4269704e-11
2.9068842e-11
3.5261669e-11
4.2450597e-11
5.1366142e-11
6.1508647e-11
7.3477562e-11
8.7825275e-11
1.0500618e-10
1.2536369e-10
1.4970978e-10
1.7915562e-10
2.1380494e-10
2.5510004e-10
3.0442236e-10
3.6281412e-10
4.3196994e-10
5.1484908e-10
6.1290318e-10
7.2943378e-10
8.6793949e-10
1.0317765e-09
1.226499e-09
1.457099e-09
1.729801e-09
2.0525278e-09
2.4341523e-09
2.8854979e-09
3.4193698e-09
4.0498246e-09
4.7937884e-09
5.6719677e-09
6.7080768e-09
7.9294506e-09
9.3680983e-09
1.1062226e-08
1.3056209e-08
1.5402216e-08
1.8160465e-08
2.1402137e-08
2.5209673e-08
2.9679326e-08
3.4924307e-08
4.1075122e-08
4.8284318e-08
5.6729858e-08
6.6619179e-08
7.8191162e-08
9.1724799e-08
1.0754599e-07
1.2602976e-07
1.4761309e-07
1.7280224e-07
2.0218229e-07
2.3643264e-07
2.7633857e-07
3.2280664e-07
3.7688623e-07
4.3979004e-07
5.1291552e-07
5.9787546e-07
6.9652971e-07
8.1101976e-07
9.4381132e-07
1.097741e-06
1.2760704e-06
1.4825479e-06
1.721477e-06
1.9977961e-06
2.3171677e-06
2.6860823e-06
3.1119732e-06
3.6033469e-06
4.1699324e-06
4.8228503e-06
5.5748017e-06
6.4402817e-06
7.4358252e-06
8.5802799e-06
9.8951118e-06
1.1404755e-05
1.3136999e-05
1.5123433e-05
1.7399934e-05
2.0007224e-05
2.2991488e-05
2.6405067e-05
3.0307244e-05
3.4765106e-05
3.985452e-05
4.5661217e-05
5.2282004e-05
5.9826108e-05
6.8416684e-05