/*--------------------------------*- C++ -*----------------------------------*\
| =========                 |                                                 |
| \\      /  F ield         | OpenFOAM: The Open Source CFD Toolbox           |
|  \\    /   O peration     | Version:  4.x                                   |
|   \\  /    A nd           | Web:      www.OpenFOAM.org                      |
|    \\/     M anipulation  |                                                 |
\*---------------------------------------------------------------------------*/
FoamFile
{
    version     2.0;
    format      ascii;
    class       surfaceScalarField;
    location    "0.34";
    object      phi;
}
// * * * * * * * * * * * * * * * * * * * * * * * * * * * * * * * * * * * * * //

dimensions      [1 0 -1 0 0 0 0];

internalField   nonuniform List<scalar> 
17723
(
-7.880264377e-08
4.447352315e-08
2.156183213e-07
9.33857494e-08
-6.438178492e-08
4.544300696e-08
2.379407182e-07
-4.980441825e-08
4.75553848e-08
2.608685434e-07
-3.428235629e-08
4.980392783e-08
2.818184983e-07
-1.754356123e-08
5.170069764e-08
2.981258178e-07
-6.665019007e-14
5.27837158e-08
3.070554067e-07
1.754334805e-08
5.278368268e-08
3.070556561e-07
3.428196953e-08
5.170055872e-08
2.981261069e-07
4.980378513e-08
4.980364296e-08
2.818186077e-07
6.438026335e-08
4.755504255e-08
2.608687038e-07
7.880226933e-08
4.544150045e-08
2.379396207e-07
4.447144497e-08
2.156163127e-07
9.338711632e-08
-7.643214772e-08
5.864197629e-08
2.036802264e-07
9.146144444e-08
-6.19972853e-08
5.976416305e-08
2.230240275e-07
-4.755578362e-08
6.199683249e-08
2.427908912e-07
-3.249549369e-08
6.438071294e-08
2.60868672e-07
-1.654254212e-08
6.632870046e-08
2.749004149e-07
-1.027036609e-13
6.742900948e-08
2.826049258e-07
1.654231218e-08
6.742892712e-08
2.826051144e-07
3.249518604e-08
6.632835361e-08
2.749007681e-07
4.755544231e-08
6.438001171e-08
2.608689957e-07
6.199676802e-08
6.199582869e-08
2.427912444e-07
7.643236403e-08
5.97621133e-08
2.230235337e-07
5.863990126e-08
2.036788304e-07
9.146297583e-08
-7.415132515e-08
7.247323897e-08
1.908690697e-07
8.967842835e-08
-5.976382853e-08
7.415129427e-08
2.068922742e-07
-4.544270256e-08
7.643180746e-08
2.230237594e-07
-3.082372805e-08
7.880206887e-08
2.379403329e-07
-1.561325407e-08
8.067233168e-08
2.494249704e-07
1.217951205e-13
8.169259494e-08
2.557330938e-07
1.561350957e-08
8.169268518e-08
2.557332225e-07
3.082399296e-08
8.067243698e-08
2.494252555e-07
4.544301056e-08
7.880208624e-08
2.379406333e-07
5.976406793e-08
7.643164719e-08
2.230238921e-07
7.415149982e-08
7.415049015e-08
2.06891765e-07
7.24723182e-08
1.908675708e-07
8.967945415e-08
-7.247310953e-08
1.763766569e-07
8.793143154e-08
8.793163781e-08
-5.864158345e-08
1.908692684e-07
8.967813295e-08
-4.447297287e-08
2.03680161e-07
9.146103253e-08
-3.0047384e-08
2.156179465e-07
9.338543587e-08
-1.516932913e-08
2.244576474e-07
9.509338153e-08
4.24919105e-14
2.293189523e-07
9.595338433e-08
1.516940947e-08
2.293190627e-07
9.595353095e-08
3.004744435e-08
2.244578444e-07
9.509369036e-08
4.447300043e-08
2.156180444e-07
9.33858902e-08
5.86414229e-08
2.036798159e-07
9.146179317e-08
7.247312979e-08
1.908681753e-07
8.96783578e-08
1.76374965e-07
8.793225311e-08
8.793194039e-08
-7.380941792e-08
4.146571544e-08
1.907114461e-07
8.54632361e-08
-6.100388209e-08
4.267454153e-08
2.115777603e-07
-4.744784756e-08
4.516406127e-08
2.331072604e-07
-3.264454441e-08
4.744760191e-08
2.522117729e-07
-1.666858488e-08
4.928642991e-08
2.669014718e-07
-3.750711988e-14
5.03412367e-08
2.749105324e-07
1.666852327e-08
5.034127671e-08
2.749107168e-07
3.264456257e-08
4.928656596e-08
2.669016858e-07
4.744813465e-08
4.744776555e-08
2.522116973e-07
6.100443952e-08
4.516445017e-08
2.331070782e-07
7.381004347e-08
4.267398013e-08
2.115764867e-07
4.14648389e-08
1.907099906e-07
8.546312669e-08
-7.094895611e-08
5.42749131e-08
1.793676732e-07
8.245230069e-08
-5.840060865e-08
5.566656763e-08
1.974836658e-07
-4.516441022e-08
5.840041619e-08
2.163184617e-07
-3.095911323e-08
6.100370255e-08
2.331071854e-07
-1.577463432e-08
6.303596644e-08
2.45966441e-07
-7.733433503e-14
6.41939189e-08
2.529777201e-07
1.577448805e-08
6.419396203e-08
2.529778166e-07
3.09590821e-08
6.303607827e-08
2.459666585e-07
4.516470355e-08
6.100385555e-08
2.331073334e-07
5.840117083e-08
5.840072798e-08
2.163185118e-07
7.094953867e-08
5.566622791e-08
1.974829856e-07
5.427425957e-08
1.793666009e-07
8.24524003e-08
-6.815955674e-08
6.591883923e-08
1.669080941e-07
8.047660628e-08
-5.566638918e-08
6.815951629e-08
1.819062074e-07
-4.267436526e-08
7.094875685e-08
1.974833757e-07
-2.911694118e-08
7.3809391e-08
2.115772669e-07
-1.478236197e-08
7.581821314e-08
2.223081601e-07
4.512548469e-14
7.700347683e-08
2.281411205e-07
1.47824766e-08
7.700348867e-08
2.281412468e-07
2.91171676e-08
7.581822162e-08
2.223084634e-07
4.26747241e-08
7.380942166e-08
2.115775424e-07
5.566681092e-08
7.0948988e-08
1.97483548e-07
6.815975162e-08
6.815946834e-08
1.81905603e-07
6.591847957e-08
1.66906787e-07
8.047631616e-08
-6.591873894e-08
1.529139335e-07
7.765007288e-08
7.7650246e-08
-5.427470423e-08
1.669082763e-07
8.047648555e-08
-4.146542648e-08
1.793676971e-07
8.245198149e-08
-2.821233316e-08
1.907111677e-07
8.546304447e-08
-1.427518281e-08
1.990854002e-07
8.725331842e-08
1.408691855e-16
2.035818313e-07
8.846541702e-08
1.427521846e-08
2.035818911e-07
8.846542137e-08
2.821241336e-08
1.990855077e-07
8.725333157e-08
4.146560573e-08
1.907111598e-07
8.546307926e-08
5.427493085e-08
1.793673277e-07
8.245218779e-08
6.591898781e-08
1.669069131e-07
8.047671017e-08
1.529121208e-07
7.765016858e-08
7.765020223e-08
-7.041092883e-08
3.987344929e-08
1.693198649e-07
7.940144428e-08
-5.950129641e-08
4.08141734e-08
1.880372328e-07
-4.714882542e-08
4.408807265e-08
2.072733229e-07
-3.283689242e-08
4.714869466e-08
2.235876707e-07
-1.686628564e-08
4.945546647e-08
2.359843203e-07
7.229369841e-14
5.066272427e-08
2.427575481e-07
1.68664987e-08
5.066270963e-08
2.427576322e-07
3.283723493e-08
4.945543366e-08
2.359844389e-07
4.71492681e-08
4.714854162e-08
2.235876028e-07
5.950174956e-08
4.408799261e-08
2.072731784e-07
7.041093803e-08
4.081349353e-08
1.880364307e-07
3.987263154e-08
1.693189002e-07
7.94007961e-08
-6.67722814e-08
5.13156775e-08
1.582491612e-07
7.644859634e-08
-5.599515943e-08
5.239763743e-08
1.751230985e-07
-4.408817073e-08
5.599511841e-08
1.925044013e-07
-3.060683979e-08
5.950127533e-08
2.072733338e-07
-1.569099645e-08
6.211830282e-08
2.183878096e-07
-2.43906538e-14
6.35155306e-08
2.244339154e-07
1.569101822e-08
6.351549241e-08
2.244339735e-07
3.060703614e-08
6.211820845e-08
2.183879287e-07
4.408850527e-08
5.950108173e-08
2.072733556e-07
5.599555859e-08
5.599509069e-08
1.925043821e-07
6.677225643e-08
5.239719761e-08
1.751226024e-07
5.131513735e-08
1.582485603e-07
7.644775875e-08
-6.31362276e-08
6.103572407e-08
1.463696698e-07
7.395462967e-08
-5.239736551e-08
6.313625216e-08
1.604286931e-07
-4.081390735e-08
6.677210753e-08
1.751229326e-07
-2.818318983e-08
7.041078758e-08
1.880370187e-07
-1.440319764e-08
7.30941122e-08
1.975523512e-07
-5.859633752e-15
7.448068267e-08
2.027727369e-07
1.440325357e-08
7.448065592e-08
2.027728074e-07
2.818338629e-08
7.30940576e-08
1.975524716e-07
4.08142104e-08
7.041067293e-08
1.880370862e-07
5.239770735e-08
6.677218721e-08
1.75122935e-07
6.31361946e-08
6.313604595e-08
1.604282071e-07
6.103539216e-08
1.463688248e-07
7.395389664e-08
-6.103565522e-08
1.321249181e-07
7.143015102e-08
7.143028229e-08
-5.131548148e-08
1.463698041e-07
7.395453508e-08
-3.987319664e-08
1.582492e-07
7.644831476e-08
-2.747218226e-08
1.693197735e-07
7.940114687e-08
-1.398798704e-08
1.766744096e-07
8.202090324e-08
-1.819828237e-14
1.80878532e-07
8.319596841e-08
1.398798624e-08
1.808785444e-07
8.31959586e-08
2.747219188e-08
1.766744231e-07
8.202092257e-08
3.987330824e-08
1.693196541e-07
7.940103759e-08
5.131555864e-08
1.582488826e-07
7.644841255e-08
6.103530385e-08
1.463688831e-07
7.395432449e-08
1.321238503e-07
7.143035155e-08
7.142861535e-08
-6.762118152e-08
3.65766734e-08
1.487670412e-07
7.702728719e-08
-5.683707909e-08
3.827520947e-08
1.655403499e-07
-4.481818206e-08
4.20098789e-08
1.823567579e-07
-3.101837493e-08
4.481805522e-08
1.959879666e-07
-1.591061556e-08
4.698189526e-08
2.064797257e-07
1.054737602e-13
4.829412792e-08
2.121091728e-07
1.591086675e-08
4.829411976e-08
2.121092411e-07
3.101870918e-08
4.698190402e-08
2.06479848e-07
4.481856043e-08
4.48179231e-08
1.959879651e-07
5.683740162e-08
4.200976428e-08
1.823566743e-07
6.762093777e-08
3.82746741e-08
1.655398702e-07
3.657612511e-08
1.487665757e-07
7.70264855e-08
-6.305366962e-08
4.717477172e-08
1.393228571e-07
7.138187922e-08
-5.333289373e-08
4.919615025e-08
1.544813554e-07
-4.200996517e-08
5.333286649e-08
1.69858519e-07
-2.911232536e-08
5.68370305e-08
1.823567537e-07
-1.494628992e-08
5.929006366e-08
1.919135973e-07
3.294358497e-14
6.075720135e-08
1.970244983e-07
1.494642191e-08
6.075718958e-08
1.970245499e-07
2.91125784e-08
5.929001127e-08
1.919137085e-07
4.201025243e-08
5.68368151e-08
1.82356754e-07
5.333317794e-08
5.333270121e-08
1.698584817e-07
6.30536964e-08
4.919573731e-08
1.544810047e-07
4.717434552e-08
1.393224666e-07
7.138153877e-08
-5.886668517e-08
5.484332611e-08
1.279975384e-07
6.95702763e-08
-4.919599374e-08
5.886676e-08
1.410873244e-07
-3.827505418e-08
6.305356348e-08
1.544813061e-07
-2.656225192e-08
6.762096473e-08
1.655402503e-07
-1.358057745e-08
6.998589741e-08
1.738748211e-07
3.833382778e-14
7.164158901e-08
1.783077188e-07
1.358070903e-08
7.164155242e-08
1.78307759e-07
2.656245765e-08
6.998582557e-08
1.738749012e-07
3.827525772e-08
6.762079978e-08
1.655402484e-07
4.919620987e-08
6.305344162e-08
1.544812641e-07
5.886658525e-08
5.88664758e-08
1.410870316e-07
5.484287321e-08
1.27997161e-07
6.956971642e-08
-5.484329945e-08
1.151626279e-07
6.332441724e-08
6.332447654e-08
-4.717467657e-08
1.279976323e-07
6.957029836e-08
-3.657654183e-08
1.393229369e-07
7.138171174e-08
-2.54298678e-08
1.487670435e-07
7.702700512e-08
-1.288394523e-08
1.554586064e-07
7.865574721e-08
3.489516619e-14
1.591233241e-07
8.051278394e-08
1.288405367e-08
1.591233197e-07
8.051275056e-08
2.542999903e-08
1.554586131e-07
7.865569211e-08
3.657665673e-08
1.487669238e-07
7.702685734e-08
4.717472385e-08
1.39322667e-07
7.138160227e-08
5.484289793e-08
1.279970324e-07
6.957019042e-08
1.151618911e-07
6.332406427e-08
6.332370283e-08
-6.833513492e-08
3.860888703e-08
1.309746289e-07
7.4845626e-08
-6.062712557e-08
4.047395058e-08
1.459431191e-07
-4.894047914e-08
4.464270357e-08
1.575517682e-07
-3.463851969e-08
4.894040781e-08
1.673840047e-07
-1.79995423e-08
5.233321785e-08
1.746015355e-07
9.621874664e-14
5.393857888e-08
1.78237325e-07
1.799978336e-08
5.393859224e-08
1.782373694e-07
3.463882555e-08
5.233326031e-08
1.746016332e-07
4.894078013e-08
4.894031489e-08
1.673840145e-07
6.062736337e-08
4.46426539e-08
1.575517055e-07
6.833519351e-08
4.0473821e-08
1.45942746e-07
3.860869769e-08
1.309743988e-07
7.484538395e-08
-6.299474375e-08
4.83593152e-08
1.22923002e-07
6.96441516e-08
-5.561693456e-08
5.071121742e-08
1.368662458e-07
-4.464272546e-08
5.561692646e-08
1.479101431e-07
-3.152440586e-08
6.062707014e-08
1.575517669e-07
-1.631833818e-08
6.445635899e-08
1.645844017e-07
6.690871735e-14
6.640558814e-08
1.682390981e-07
1.631851151e-08
6.640558419e-08
1.682391246e-07
3.152464e-08
6.445637048e-08
1.645844694e-07
4.464296876e-08
6.062696177e-08
1.575517574e-07
5.561714588e-08
5.561688577e-08
1.479100993e-07
6.299483161e-08
5.071119147e-08
1.368659465e-07
4.835926267e-08
1.229228226e-07
6.964387275e-08
-5.782273851e-08
5.393817671e-08
1.146241823e-07
6.561721169e-08
-5.071110699e-08
5.782278945e-08
1.268641048e-07
-4.047385465e-08
6.299462994e-08
1.36866333e-07
-2.8584695e-08
6.833496838e-08
1.459431547e-07
-1.478665833e-08
7.219127036e-08
1.523418716e-07
4.937131702e-14
7.427217953e-08
1.556543897e-07
1.478679631e-08
7.427214518e-08
1.556544232e-07
2.858488019e-08
7.219125382e-08
1.523419198e-07
4.047406908e-08
6.833490413e-08
1.459431012e-07
5.071135999e-08
6.29947249e-08
1.368661481e-07
5.782290135e-08
5.7822763e-08
1.268638358e-07
5.393821536e-08
1.146238867e-07
6.56171832e-08
-5.393809688e-08
1.010169593e-07
6.10108842e-08
6.10110577e-08
-4.835921822e-08
1.146242763e-07
6.561727271e-08
-3.860878369e-08
1.229230889e-07
6.964404135e-08
-2.732694444e-08
1.309747193e-07
7.484544976e-08
-1.40930873e-08
1.35779054e-07
7.863695317e-08
3.269732744e-14
1.38509285e-07
8.079306457e-08
1.409319565e-08
1.385092807e-07
8.079302115e-08
2.732707248e-08
1.35779047e-07
7.863692794e-08
3.860896106e-08
1.30974603e-07
7.484532511e-08
4.835931071e-08
1.229229257e-07
6.964414126e-08
5.393804077e-08
1.146238765e-07
6.561720036e-08
1.010167269e-07
6.101121244e-08
6.101023526e-08
-7.538783024e-08
3.818156832e-08
1.093613491e-07
8.546445722e-08
-6.231717899e-08
4.083523731e-08
1.203919497e-07
-4.827386055e-08
4.544633044e-08
1.294384945e-07
-3.294715915e-08
4.827382162e-08
1.367306269e-07
-1.675425612e-08
4.98383195e-08
1.422929798e-07
1.117675636e-13
5.072305015e-08
1.454569572e-07
1.675452335e-08
5.072303678e-08
1.454569693e-07
3.294754438e-08
4.983832256e-08
1.422929865e-07
4.827425178e-08
4.827371353e-08
1.367305688e-07
6.231744387e-08
4.544621475e-08
1.294384072e-07
7.538767644e-08
4.083507857e-08
1.203918497e-07
3.818149118e-08
1.093612237e-07
8.546409075e-08
-6.996262071e-08
5.012011024e-08
1.027997566e-07
7.814729882e-08
-5.851716663e-08
5.323733878e-08
1.130186939e-07
-4.544633529e-08
5.85171092e-08
1.217685529e-07
-3.137631216e-08
6.231707623e-08
1.294384989e-07
-1.609139143e-08
6.444838797e-08
1.346894316e-07
1.109543674e-13
6.558000718e-08
1.372906315e-07
1.609165477e-08
6.557997654e-08
1.372906301e-07
3.137666275e-08
6.444835922e-08
1.346894222e-07
4.544668134e-08
6.231697947e-08
1.294384495e-07
5.851742644e-08
5.85170566e-08
1.217684896e-07
6.996254934e-08
5.323725074e-08
1.130186282e-07
5.012009167e-08
1.027996684e-07
7.814710373e-08
-6.451636815e-08
5.732106519e-08
9.527417616e-08
7.66654005e-08
-5.323732068e-08
6.451636485e-08
1.043060344e-07
-4.083516147e-08
6.996255981e-08
1.130187135e-07
-2.835460658e-08
7.538770547e-08
1.203919729e-07
-1.444751612e-08
7.752063199e-08
1.253625158e-07
1.058377943e-13
7.895921961e-08
1.27827486e-07
1.44477756e-08
7.895918164e-08
1.278274835e-07
2.835493023e-08
7.752056508e-08
1.253625053e-07
4.083548699e-08
7.538753832e-08
1.203919369e-07
5.323754927e-08
6.996243386e-08
1.130186733e-07
6.451631138e-08
6.45162973e-08
1.043059612e-07
5.732099008e-08
9.527406385e-08
7.666519421e-08
-5.732105365e-08
8.60697935e-08
6.479459057e-08
6.479470053e-08
-5.012008085e-08
9.527419884e-08
7.666549549e-08
-3.818151717e-08
1.027997939e-07
7.814729526e-08
-2.664488188e-08
1.093613994e-07
8.546439041e-08
-1.33482819e-08
1.132785595e-07
8.672449601e-08
9.40864747e-14
1.154223366e-07
8.869773904e-08
1.334850904e-08
1.154223258e-07
8.869768906e-08
2.664515326e-08
1.132785325e-07
8.672441287e-08
3.818178306e-08
1.09361326e-07
8.546419324e-08
5.012027828e-08
1.027997186e-07
7.81471517e-08
5.732094114e-08
9.527411762e-08
7.666534896e-08
8.606972753e-08
6.479461668e-08
6.479434123e-08
7.371947772e-08
-3.941016138e-08
1.338604402e-07
-8.464006821e-08
6.138013695e-08
-4.269649517e-08
1.474390009e-07
4.660724145e-08
-4.74153891e-08
1.597842305e-07
3.065503085e-08
-4.660732166e-08
1.686351039e-07
1.486453731e-08
-4.459855793e-08
1.74369015e-07
1.026383223e-13
-4.345452722e-08
1.767543249e-07
-1.486434246e-08
-4.345454126e-08
1.767543214e-07
-3.065485917e-08
-4.459856891e-08
1.743690181e-07
-4.66071756e-08
-4.660734725e-08
1.686351023e-07
-6.138019278e-08
-4.741537288e-08
1.597842256e-07
-7.371969114e-08
-4.269653189e-08
1.474389823e-07
-3.941016283e-08
1.338603548e-07
-8.464039519e-08
7.385474654e-08
-5.169356358e-08
1.248727768e-07
-8.364436198e-08
6.194979185e-08
-5.588749882e-08
1.381146557e-07
4.741533659e-08
-6.194987332e-08
1.508375253e-07
3.184251998e-08
-6.138024944e-08
1.597842581e-07
1.604537182e-08
-6.021154342e-08
1.660995669e-07
8.261117434e-14
-5.931728741e-08
1.691986766e-07
-1.604521016e-08
-5.931730601e-08
1.691986666e-07
-3.184237408e-08
-6.021155742e-08
1.660995528e-07
-4.741525271e-08
-6.138027617e-08
1.597842479e-07
-6.194981324e-08
-6.194985369e-08
1.508375454e-07
-7.385487806e-08
-5.588748197e-08
1.381146773e-07
-5.169352613e-08
1.248727595e-07
-8.364459714e-08
6.73871766e-08
-6.442862881e-08
1.147445984e-07
-7.412251224e-08
5.588748243e-08
-6.73871546e-08
1.273054022e-07
4.269648689e-08
-7.385480755e-08
1.381146638e-07
2.798880523e-08
-7.371960469e-08
1.474390139e-07
1.393386674e-08
-7.448552929e-08
1.536914212e-07
5.994222524e-14
-7.438948497e-08
1.568334445e-07
-1.393372503e-08
-7.438949967e-08
1.568334394e-07
-2.798865738e-08
-7.448554072e-08
1.536914166e-07
-4.269637362e-08
-7.371964099e-08
1.474390278e-07
-5.588745279e-08
-7.385477954e-08
1.381146929e-07
-6.738730052e-08
-6.738710887e-08
1.273054143e-07
-6.442848588e-08
1.147445217e-07
-7.412281168e-08
6.442868856e-08
1.021250226e-07
-7.245631849e-08
-7.245619749e-08
5.169360316e-08
1.147446018e-07
-7.412244227e-08
3.941020463e-08
1.24872801e-07
-8.364440852e-08
2.583170199e-08
1.338604591e-07
-8.464016906e-08
1.298631383e-08
1.396384111e-07
-8.800001757e-08
6.236718129e-14
1.426654241e-07
-8.864634144e-08
-1.298616479e-08
1.426654168e-07
-8.864638299e-08
-2.58315022e-08
1.396383882e-07
-8.800006886e-08
-3.941000034e-08
1.33860435e-07
-8.464024968e-08
-5.169348529e-08
1.248728005e-07
-8.364440213e-08
-6.44287853e-08
1.147446312e-07
-7.41223524e-08
1.021250168e-07
-7.245599451e-08
-7.245656506e-08
1.127199545e-07
-6.781667023e-08
1.616848731e-07
-1.192375972e-07
1.008940099e-07
-7.017123136e-08
1.800642146e-07
8.383218019e-08
-7.48008263e-08
1.998976357e-07
5.967855059e-08
-8.383226895e-08
2.169424192e-07
3.102312952e-08
-8.962161892e-08
2.278120129e-07
5.584376473e-14
-9.143431381e-08
2.330245903e-07
-3.102304482e-08
-9.143432154e-08
2.330245918e-07
-5.967848989e-08
-8.962161492e-08
2.278120186e-07
-8.383215936e-08
-8.383225342e-08
2.169424189e-07
-1.00894024e-07
-7.480076005e-08
1.998976255e-07
-1.127199877e-07
-7.017115701e-08
1.800641826e-07
-6.781651388e-08
1.616848003e-07
-1.192377091e-07
1.045103008e-07
-8.32865274e-08
1.483108071e-07
-1.12478468e-07
9.12874777e-08
-8.506060157e-08
1.662268297e-07
7.480078707e-08
-9.128745811e-08
1.838108903e-07
5.174921619e-08
-1.008940904e-07
1.998976587e-07
2.612103622e-08
-1.078893608e-07
2.099955012e-07
3.154370908e-14
-1.107092904e-07
2.145946537e-07
-2.612097189e-08
-1.107093015e-07
2.145946451e-07
-5.174913804e-08
-1.07889373e-07
2.099954902e-07
-7.480070431e-08
-1.008940815e-07
1.998976625e-07
-9.128741802e-08
-9.128739361e-08
1.838109188e-07
-1.045102494e-07
-8.506045237e-08
1.662268473e-07
-8.328637255e-08
1.483107916e-07
-1.124784169e-07
9.625086166e-08
-9.536410488e-08
1.303214731e-07
-9.975015614e-08
8.506074163e-08
-9.625071384e-08
1.496856466e-07
7.017133981e-08
-1.045102234e-07
1.662268502e-07
4.937203203e-08
-1.127200106e-07
1.800642393e-07
2.540508276e-08
-1.196643308e-07
1.894333109e-07
4.602092482e-14
-1.225627659e-07
1.940919378e-07
-2.540498663e-08
-1.225627679e-07
1.940919332e-07
-4.937192179e-08
-1.196643334e-07
1.894333095e-07
-7.017124204e-08
-1.127199905e-07
1.800642537e-07
-8.506066944e-08
-1.04510142e-07
1.662268834e-07
-9.625087316e-08
-9.625053794e-08
1.496856726e-07
-9.536385318e-08
1.303214318e-07
-9.975028875e-08
9.536428379e-08
1.085306445e-07
-9.856712443e-08
-9.856686286e-08
8.32867335e-08
1.303214736e-07
-9.975002737e-08
6.781686837e-08
1.483108291e-07
-1.124783968e-07
4.65100164e-08
1.616849035e-07
-1.192376308e-07
2.364549303e-08
1.692772476e-07
-1.264386649e-07
7.706051644e-14
1.729169334e-07
-1.29168887e-07
-2.36453368e-08
1.72916932e-07
-1.291689105e-07
-4.650982498e-08
1.692772458e-07
-1.264387175e-07
-6.781667713e-08
1.616849235e-07
-1.192376105e-07
-8.328656969e-08
1.483108862e-07
-1.124783445e-07
-9.536424509e-08
1.30321579e-07
-9.974979072e-08
1.085307034e-07
-9.856655992e-08
-9.856724562e-08
1.453632741e-07
-7.782290458e-08
1.98318087e-07
-1.559678094e-07
1.187172623e-07
-8.731642761e-08
2.36515398e-07
8.51740367e-08
-9.007009073e-08
2.629686407e-07
5.339069575e-08
-8.517406131e-08
2.805090824e-07
2.537213387e-08
-8.371557327e-08
2.899308387e-07
4.997839313e-14
-8.278173237e-08
2.927904863e-07
-2.537205229e-08
-8.278173823e-08
2.927904716e-07
-5.339061624e-08
-8.371555148e-08
2.899308145e-07
-8.51739599e-08
-8.517399241e-08
2.805090694e-07
-1.1871721e-07
-9.006996167e-08
2.629686404e-07
-1.453632608e-07
-8.731622608e-08
2.365153668e-07
-7.782273385e-08
1.983180473e-07
-1.559678012e-07
1.452917726e-07
-1.023752124e-07
1.792010841e-07
-1.516297681e-07
1.208354904e-07
-1.162350683e-07
2.196017684e-07
9.0070251e-08
-1.20835295e-07
2.453413598e-07
6.054240789e-08
-1.187172096e-07
2.62968669e-07
3.078749251e-08
-1.194175825e-07
2.754524323e-07
6.930482343e-14
-1.191720746e-07
2.817724039e-07
-3.078735811e-08
-1.191720757e-07
2.817724e-07
-6.054227526e-08
-1.194175643e-07
2.754524356e-07
-9.007013563e-08
-1.187171464e-07
2.629686971e-07
-1.208353846e-07
-1.208351673e-07
2.453414009e-07
-1.452916735e-07
-1.162348686e-07
2.196017983e-07
-1.023750586e-07
1.792010886e-07
-1.516296556e-07
1.382078339e-07
-1.280119858e-07
1.521127441e-07
-1.343623394e-07
1.162352985e-07
-1.382076861e-07
1.936308212e-07
8.731671097e-08
-1.452916333e-07
2.196017863e-07
5.751150881e-08
-1.453632241e-07
2.365154392e-07
2.850112055e-08
-1.478272799e-07
2.468533528e-07
8.463440408e-14
-1.485863276e-07
2.520071874e-07
-2.85009382e-08
-1.485863213e-07
2.520071949e-07
-5.751132071e-08
-1.478272623e-07
2.468533786e-07
-8.731653919e-08
-1.453631677e-07
2.365154905e-07
-1.162351526e-07
-1.452915065e-07
2.196018662e-07
-1.382077358e-07
-1.38207513e-07
1.936308869e-07
-1.280118228e-07
1.52112734e-07
-1.34362269e-07
1.280120881e-07
1.134158901e-07
-1.304547244e-07
-1.304545717e-07
1.023753459e-07
1.521127399e-07
-1.343622065e-07
7.78230987e-08
1.79201094e-07
-1.516296684e-07
5.17944115e-08
1.983181133e-07
-1.559677889e-07
2.608119711e-08
2.095307434e-07
-1.623676011e-07
1.916725067e-13
2.150509069e-07
-1.646393263e-07
-2.608082159e-08
2.150509202e-07
-1.646393287e-07
-5.179405561e-08
2.095307932e-07
-1.62367578e-07
-7.782279016e-08
1.983181981e-07
-1.559676723e-07
-1.023751322e-07
1.79201219e-07
-1.516294996e-07
-1.280119698e-07
1.521128867e-07
-1.34361967e-07
1.134159561e-07
-1.304544355e-07
-1.304546376e-07
2.425009993e-07
-1.314728256e-07
2.606831315e-07
-2.601952329e-07
2.116501214e-07
-1.256026501e-07
3.112121746e-07
1.697327472e-07
-1.464697693e-07
3.571333344e-07
1.1676109e-07
-1.697326434e-07
3.864523557e-07
5.933939476e-08
-1.764484248e-07
3.996846771e-07
6.40427458e-14
-1.769676566e-07
4.055424802e-07
-5.933927484e-08
-1.769676444e-07
4.055424722e-07
-1.167609606e-07
-1.764483651e-07
3.996846542e-07
-1.697325997e-07
-1.697324972e-07
3.864523191e-07
-2.116499549e-07
-1.464695255e-07
3.571333103e-07
-2.425007701e-07
-1.256024902e-07
3.112121646e-07
-1.31472913e-07
2.606831609e-07
-2.601949355e-07
2.273689613e-07
-1.671628889e-07
2.323053421e-07
-2.447831655e-07
1.922660453e-07
-1.650882372e-07
2.94190254e-07
1.464699659e-07
-1.922658858e-07
3.369335708e-07
9.422263726e-08
-2.116500106e-07
3.57133386e-07
4.515296106e-08
-2.20194138e-07
3.682678119e-07
4.497946271e-14
-2.235317175e-07
3.734893768e-07
-4.515284206e-08
-2.235317068e-07
3.734893692e-07
-9.422245329e-08
-2.201940902e-07
3.682678104e-07
-1.464697414e-07
-2.116499117e-07
3.571334021e-07
-1.9226574e-07
-1.922657015e-07
3.3693359e-07
-2.273685841e-07
-1.650881308e-07
2.941902771e-07
-1.67163008e-07
2.323053675e-07
-2.447827671e-07
1.972561643e-07
-1.935860145e-07
1.882133613e-07
-2.069336676e-07
1.650883053e-07
-1.972560496e-07
2.579664955e-07
1.256027831e-07
-2.273688102e-07
2.941902835e-07
8.17568916e-08
-2.425009189e-07
3.112122365e-07
4.019136632e-08
-2.510797461e-07
3.193044505e-07
1.66793485e-13
-2.54639246e-07
3.233059098e-07
-4.01910294e-08
-2.546392213e-07
3.233059193e-07
-8.175657575e-08
-2.510796589e-07
3.193044822e-07
-1.256025046e-07
-2.425007686e-07
3.11212289e-07
-1.650880305e-07
-2.273686222e-07
2.941903394e-07
-1.97255855e-07
-1.972559294e-07
2.579665159e-07
-1.935861053e-07
1.882133293e-07
-2.069333574e-07
1.935861337e-07
1.168500268e-07
-1.953032655e-07
-1.953030146e-07
1.671629897e-07
1.882133496e-07
-2.069334931e-07
1.314729715e-07
2.323053394e-07
-2.44783034e-07
8.680216834e-08
2.606831566e-07
-2.601951859e-07
4.28694891e-08
2.740616553e-07
-2.716779975e-07
2.079614865e-13
2.795461698e-07
-2.762652419e-07
-4.286910012e-08
2.795461984e-07
-2.762652123e-07
-8.680184666e-08
2.740617406e-07
-2.716778526e-07
-1.314726981e-07
2.606832714e-07
-2.601949848e-07
-1.671627554e-07
2.323054631e-07
-2.447828211e-07
-1.935859152e-07
1.882134121e-07
-2.069332976e-07
1.168499922e-07
-1.953028697e-07
-1.953031782e-07
3.633452476e-07
-9.541451924e-08
3.610198188e-07
2.311904336e-07
-1.140280271e-07
5.090373848e-07
1.425220013e-07
-1.051279013e-07
5.082732926e-07
9.308488414e-08
-9.104911827e-08
4.951168607e-07
4.698159576e-08
-9.308494932e-08
5.064016313e-07
-5.170400886e-15
-9.461342938e-08
5.122893194e-07
-4.698158678e-08
-9.461339426e-08
5.122893092e-07
-9.308485701e-08
-9.308486209e-08
5.064016006e-07
-1.425219507e-07
-9.104891669e-08
4.95116778e-07
-2.311902818e-07
-1.051276335e-07
5.082731492e-07
-3.633449622e-07
-1.140279918e-07
5.090373187e-07
-9.541466063e-08
3.610198431e-07
3.49910292e-07
-1.46503824e-07
3.51280394e-07
-3.894182573e-07
2.252284494e-07
-1.747718627e-07
4.966378564e-07
1.407154405e-07
-1.573705318e-07
4.938889705e-07
9.104921442e-08
-1.407152781e-07
4.857847428e-07
4.505404172e-08
-1.425220326e-07
4.95116944e-07
5.207297252e-14
-1.46208759e-07
5.021918207e-07
-4.505392329e-08
-1.462087593e-07
5.021918113e-07
-9.104906357e-08
-1.425219851e-07
4.951169182e-07
-1.407152324e-07
-1.40715119e-07
4.857846883e-07
-2.252280973e-07
-1.573703997e-07
4.938889045e-07
-3.499098468e-07
-1.747720053e-07
4.96637876e-07
-1.465040017e-07
3.512805248e-07
-3.894179172e-07
3.36987979e-07
-2.042369135e-07
3.291351593e-07
-3.760846941e-07
2.288196808e-07
-2.379168725e-07
4.655035429e-07
1.573707525e-07
-2.288194927e-07
4.798314688e-07
1.051281199e-07
-2.252282784e-07
4.938890252e-07
5.379096669e-08
-2.311904721e-07
5.082733991e-07
2.122711881e-13
-2.347068723e-07
5.157782293e-07
-5.37905409e-08
-2.347068608e-07
5.157782196e-07
-1.05127735e-07
-2.311903735e-07
5.082734031e-07
-1.573703986e-07
-2.252281011e-07
4.938890348e-07
-2.288192837e-07
-2.288193916e-07
4.798314693e-07
-3.369875421e-07
-2.379170233e-07
4.655035404e-07
-2.042370907e-07
3.29135239e-07
-3.760843432e-07
3.168575064e-07
-2.777155614e-07
2.908119171e-07
-3.459774212e-07
2.37917109e-07
-3.168572604e-07
4.158472785e-07
1.747721129e-07
-3.369877617e-07
4.655035699e-07
1.140282822e-07
-3.499101465e-07
4.966379312e-07
5.645008757e-08
-3.63345303e-07
5.09037439e-07
2.824633355e-13
-3.682677611e-07
5.133165993e-07
-5.644957978e-08
-3.682676834e-07
5.133166212e-07
-1.14027878e-07
-3.633450769e-07
5.090374906e-07
-1.747718001e-07
-3.499098574e-07
4.966379867e-07
-2.37916867e-07
-3.369875639e-07
4.655035833e-07
-3.168572929e-07
-3.168573062e-07
4.158472328e-07
-2.777157244e-07
2.908118724e-07
-3.459772e-07
2.777158051e-07
1.961730562e-07
-3.173772932e-07
-3.173771078e-07
2.042371773e-07
2.908119113e-07
-3.459771933e-07
1.465040954e-07
3.291351903e-07
-3.760845421e-07
9.541479084e-08
3.512804459e-07
-3.894181681e-07
4.746272817e-08
3.610198346e-07
-4.023514278e-07
4.152808364e-14
3.655891946e-07
-4.068480914e-07
-4.746266743e-08
3.655892299e-07
-4.068480158e-07
-9.541473421e-08
3.610199373e-07
-4.023512081e-07
-1.465040176e-07
3.512805789e-07
-3.894179015e-07
-2.042370833e-07
3.291352876e-07
-3.760843207e-07
-2.777157491e-07
2.908119017e-07
-3.459771334e-07
1.961729792e-07
-3.173771939e-07
-3.173772781e-07
6.146707609e-07
-1.00023626e-07
6.112968093e-07
4.423486423e-07
-1.278621754e-07
7.492249304e-07
2.950946623e-07
-1.67913109e-07
7.488378353e-07
1.712387901e-07
-1.751140422e-07
7.133757637e-07
7.982613557e-08
-1.712388145e-07
6.892269332e-07
6.737140254e-14
-1.689262759e-07
6.824253846e-07
-7.982598574e-08
-1.689262193e-07
6.824253656e-07
-1.712386109e-07
-1.712386217e-07
6.892268414e-07
-2.950943781e-07
-1.751137504e-07
7.133756078e-07
-4.423482846e-07
-1.679130483e-07
7.48837689e-07
-6.146705025e-07
-1.27862392e-07
7.49224909e-07
-1.000238352e-07
6.112969496e-07
6.024793105e-07
-1.66344618e-07
-7.981228628e-07
6.132449697e-07
4.382149435e-07
-2.215334105e-07
7.545734835e-07
2.978837528e-07
-2.941117639e-07
7.60418806e-07
1.751142434e-07
-2.978835275e-07
7.313237274e-07
8.071113571e-08
-2.950946623e-07
7.133758905e-07
1.632106106e-13
-2.944385058e-07
7.084150294e-07
-8.071079598e-08
-2.944384647e-07
7.084150051e-07
-1.751138663e-07
-2.950944508e-07
7.133758124e-07
-2.978832994e-07
-2.978832675e-07
7.31323619e-07
-4.382144646e-07
-2.941117303e-07
7.604187335e-07
-6.024789869e-07
-2.215336168e-07
7.545735458e-07
-1.663447763e-07
-7.981227357e-07
6.132451832e-07
5.871027494e-07
-2.68350614e-07
-7.727284057e-07
6.167668209e-07
4.404167774e-07
-3.63720882e-07
7.543769864e-07
2.941120167e-07
-4.404165821e-07
7.724410246e-07
1.679134006e-07
-4.382147782e-07
7.604188866e-07
7.460282068e-08
-4.423486521e-07
7.488379672e-07
1.941506093e-13
-4.482910409e-07
7.442333657e-07
-7.46024491e-08
-4.482909444e-07
7.442333543e-07
-1.679130429e-07
-4.423483739e-07
7.488379377e-07
-2.941116338e-07
-4.382145035e-07
7.604188416e-07
-4.404164233e-07
-4.404164793e-07
7.72440988e-07
-5.871025257e-07
-3.637209803e-07
7.543769896e-07
-2.683506659e-07
-7.727283481e-07
6.167669681e-07
5.211457275e-07
-4.032024557e-07
-7.068604687e-07
6.113784845e-07
3.63721046e-07
-5.211455986e-07
7.306967138e-07
2.215336414e-07
-5.871026142e-07
7.543770137e-07
1.278624301e-07
-6.024792317e-07
7.545735689e-07
5.999701215e-08
-6.146707847e-07
7.492249727e-07
-8.241778452e-15
-6.213332245e-07
7.46355823e-07
-5.999703589e-08
-6.213330972e-07
7.463558308e-07
-1.278624291e-07
-6.146704836e-07
7.492249759e-07