/*--------------------------------*- C++ -*----------------------------------*\
  =========                 |
  \\      /  F ield         | OpenFOAM: The Open Source CFD Toolbox
   \\    /   O peration     | Website:  https://openfoam.org
    \\  /    A nd           | Version:  7
     \\/     M anipulation  |
\*---------------------------------------------------------------------------*/
FoamFile
{
    version     2.0;
    format      ascii;
    class       volScalarField;
    location    "0.00166";
    object      T;
}
// * * * * * * * * * * * * * * * * * * * * * * * * * * * * * * * * * * * * * //

dimensions      [0 0 0 1 0 0 0];

internalField   nonuniform List<scalar> 
5000
(
285.54359
285.54374
285.54461
285.54718
285.55135
285.5591
285.56873
285.57906
285.59015
285.60282
285.61778
285.63512
285.65421
285.67352
285.69131
285.70608
285.71713
285.72438
285.72831
285.72969
285.72957
285.7282
285.72609
285.7241
285.72208
285.72
285.71785
285.71568
285.71349
285.71131
285.70914
285.707
285.70489
285.70282
285.70079
285.6988
285.69685
285.69494
285.69308
285.69125
285.68946
285.68772
285.68601
285.68433
285.6827
285.6811
285.67954
285.67801
285.67651
285.67505
285.67361
285.67221
285.67084
285.66949
285.66818
285.66689
285.66562
285.66439
285.66317
285.66199
285.66082
285.65968
285.65856
285.65746
285.65638
285.65532
285.65428
285.65325
285.65225
285.65126
285.65029
285.64933
285.64839
285.64746
285.64655
285.64565
285.64476
285.64389
285.64303
285.64217
285.64133
285.64049
285.63966
285.63885
285.63804
285.63725
285.63646
285.63568
285.63491
285.63415
285.63339
285.63264
285.6319
285.63116
285.63043
285.6297
285.62898
285.62826
285.62754
285.62683
285.62612
285.62542
285.62471
285.62401
285.62332
285.62262
285.62193
285.62124
285.62055
285.61986
285.61917
285.61849
285.6178
285.61712
285.61643
285.61575
285.61507
285.61439
285.61371
285.61303
285.61234
285.61166
285.61098
285.6103
285.60961
285.60893
285.60825
285.60756
285.60688
285.60619
285.60551
285.60482
285.60413
285.60344
285.60275
285.60206
285.60136
285.60067
285.59997
285.59928
285.59858
285.59788
285.59718
285.59647
285.59577
285.59506
285.59435
285.59364
285.59293
285.59222
285.5915
285.59078
285.59007
285.58935
285.58863
285.5879
285.58718
285.58645
285.58572
285.58499
285.58426
285.58352
285.58279
285.58205
285.58131
285.58057
285.57983
285.57908
285.57834
285.57759
285.57684
285.57609
285.57534
285.57459
285.57383
285.57308
285.57232
285.57156
285.5708
285.57004
285.56927
285.56851
285.56774
285.56698
285.56621
285.56544
285.56467
285.5639
285.56313
285.56236
285.56159
285.56081
285.56004
285.55926
285.55849
285.55771
285.55694
285.55616
285.55538
285.5546
285.55382
285.55304
285.55226
285.55148
285.5507
285.54993
285.54915
285.54837
285.54759
285.54681
285.54603
285.54525
285.54447
285.54369
285.54292
285.54214
285.54136
285.54059
285.53981
285.53903
285.53826
285.53748
285.53671
285.53594
285.53517
285.5344
285.53363
285.53286
285.53209
285.53133
285.53056
285.5298
285.52903
285.52827
285.52751
285.52675
285.526
285.52524
285.52449
285.52373
285.52298
285.52223
285.52148
285.52074
285.51999
285.51925
285.51851
285.51777
285.51703
285.5163
285.51556
285.51483
285.5141
285.51338
285.51265
285.51193
285.51121
285.51049
285.50977
285.50906
285.50835
285.50764
285.50693
285.50623
285.50552
285.50482
285.50413
285.50343
285.50274
285.50205
285.50136
285.50067
285.49999
285.49931
285.49863
285.49796
285.49729
285.49662
285.49596
285.49529
285.49463
285.49397
285.49332
285.49267
285.49202
285.49137
285.49073
285.49009
285.48945
285.48881
285.48818
285.48755
285.48693
285.48631
285.48569
285.48507
285.48446
285.48385
285.48324
285.48264
285.48204
285.48144
285.48084
285.48025
285.47966
285.47908
285.4785
285.47792
285.47734
285.47677
285.4762
285.47563
285.47507
285.47451
285.47396
285.4734
285.47285
285.47231
285.47176
285.47122
285.47068
285.47015
285.46962
285.46909
285.46856
285.46804
285.46752
285.46701
285.4665
285.46599
285.46548
285.46498
285.46448
285.46398
285.46349
285.463
285.46251
285.46202
285.46154
285.46106
285.46059
285.46011
285.45964
285.45918
285.45871
285.45825
285.45779
285.45734
285.45689
285.45644
285.45599
285.45555
285.45511
285.45467
285.45423
285.4538
285.45337
285.45294
285.45252
285.4521
285.45168
285.45126
285.45085
285.45044
285.45003
285.44962
285.44922
285.44882
285.44842
285.44803
285.44763
285.44724
285.44685
285.44647
285.44609
285.44571
285.44533
285.44495
285.44458
285.44421
285.44384
285.44347
285.4431
285.44274
285.44238
285.44202
285.44167
285.44131
285.44096
285.44061
285.44027
285.43992
285.43958
285.43924
285.4389
285.43857
285.43823
285.4379
285.43757
285.43724
285.43691
285.43659
285.43627
285.43595
285.43563
285.43532
285.43501
285.4347
285.43439
285.43408
285.43377
285.43347
285.43317
285.43286
285.43257
285.43227
285.43198
285.43169
285.4314
285.43111
285.43082
285.43053
285.43025
285.42997
285.42969
285.42941
285.42914
285.42886
285.42859
285.42832
285.42805
285.42778
285.42751
285.42725
285.42699
285.42673
285.42648
285.42622
285.42597
285.42571
285.42546
285.42521
285.42497
285.42472
285.42448
285.42424
285.424
285.42376
285.42352
285.42329
285.42305
285.42282
285.42259
285.42237
285.42214
285.42192
285.4217
285.42148
285.42126
285.42104
285.42082
285.42061
285.4204
285.42019
285.41998
285.41978
285.41957
285.41937
285.41917
285.41897
285.41877
285.41858
285.41839
285.4182
285.41801
285.41782
285.41763
285.41745
285.41726
285.41708
285.4169
285.41672
285.41655
285.41638
285.4162
285.41603
285.41586
285.4157
285.41553
285.41537
285.41521
285.41505
285.41489
285.41474
285.41459
285.41443
285.41428
285.41413
285.41399
285.41384
285.4137
285.41355
285.41341
285.41327
285.41314
285.413
285.41287
285.41274
285.41261
285.41248
285.41235
285.41223
285.41211
285.41198
285.41186
285.41175
285.41163
285.41151
285.4114
285.41129
285.41118
285.41107
285.41097
285.41086
285.41076
285.41065
285.41055
285.41045
285.41035
285.41025
285.41016
285.41007
285.40998
285.40989
285.4098
285.40971
285.40962
285.40954
285.40946
285.40938
285.40929
285.40921
285.40913
285.40906
285.40898
285.40891
285.40884
285.40877
285.4087
285.40863
285.40856
285.4085
285.40843
285.40837
285.4083
285.40824
285.40818
285.40812
285.40807
285.40801
285.40795
285.4079
285.40785
285.40779
285.40774
285.40769
285.40764
285.40759
285.40754
285.4075
285.40745
285.40741
285.40736
285.40732
285.40728
285.40724
285.4072
285.40716
285.40713
285.40709
285.40705
285.40701
285.40698
285.40694
285.40691
285.40688
285.40685
285.40682
285.40679
285.40676
285.40673
285.4067
285.40667
285.40665
285.40662
285.40659
285.40657
285.40654
285.40652
285.4065
285.40647
285.40645
285.40643
285.40641
285.40639
285.40637
285.40635
285.40633
285.40631
285.4063
285.40628
285.40626
285.40625
285.40623
285.40621
285.4062
285.40618
285.40617
285.40616
285.40614
285.40613
285.40612
285.40611
285.40609
285.40608
285.40607
285.40606
285.40605
285.40604
285.40603
285.40602
285.40601
285.406
285.40599
285.40598
285.40597
285.40597
285.40596
285.40595
285.40595
285.40594
285.40593
285.40593
285.40592
285.40591
285.40591
285.4059
285.4059
285.40589
285.40589
285.40588
285.40588
285.40587
285.40587
285.40586
285.40586
285.40586
285.40586
285.40585
285.40585
285.40585
285.40584
285.40584
285.40584
285.40584
285.40583
285.40583
285.40583
285.40583
285.40583
285.40582
285.40582
285.40582
285.40582
285.40582
285.40582
285.40582
285.40582
285.40582
285.40582
285.40582
285.40582
285.40582
285.40582
285.40582
285.40582
285.40582
285.40582
285.40582
285.40582
285.40582
285.40582
285.40582
285.40582
285.40582
285.40582
285.40582
285.40582
285.40582
285.40583
285.40583
285.40583
285.40583
285.40583
285.40583
285.40583
285.40583
285.40583
285.40583
285.40583
285.40584
285.40584
285.40584
285.40584
285.40584
285.40584
285.40584
285.40584
285.40585
285.40585
285.40585
285.40585
285.40585
285.40585
285.40585
285.40586
285.40586
285.40586
285.40586
285.40586
285.40586
285.40586
285.40586
285.40587
285.40587
285.40587
285.40587
285.40587
285.40587
285.40588
285.40588
285.40588
285.40588
285.40588
285.40588
285.40589
285.40589
285.40589
285.40589
285.40589
285.40589
285.40589
285.40589
285.40589
285.4059
285.4059
285.4059
285.4059
285.4059
285.4059
285.4059
285.4059
285.40591
285.40591
285.40591
285.40591
285.40591
285.40591
285.40592
285.40592
285.40592
285.40592
285.40592
285.40592
285.40592
285.40593
285.40593
285.40593
285.40593
285.40593
285.40593
285.40593
285.40593
285.40594
285.40594
285.40594
285.40594
285.40594
285.40594
285.40595
285.40595
285.40595
285.40595
285.40595
285.40595
285.40596
285.40596
285.40596
285.40596
285.40596
285.40596
285.40596
285.40596
285.40597
285.40597
285.40597
285.40597
285.40597
285.40598
285.40598
285.40598
285.40598
285.40598
285.40598
285.40599
285.40599
285.40599
285.40599
285.40599
285.40599
285.40599
285.406
285.406
285.406
285.406
285.406
285.406
285.406
285.406
285.40601
285.40601
285.40601
285.40601
285.40601
285.40601
285.40601
285.40601
285.40602
285.40602
285.40602
285.40602
285.40602
285.40602
285.40602
285.40602
285.40603
285.40603
285.40603
285.40603
285.40603
285.40603
285.40603
285.40603
285.40604
285.40604
285.40604
285.40604
285.40604
285.40604
285.40604
285.40604
285.40604
285.40604
285.40605
285.40605
285.40605
285.40605
285.40605
285.40605
285.40606
285.40606
285.40606
285.40606
285.40606
285.40606
285.40606
285.40606
285.40606
285.40606
285.40606
285.40606
285.40607
285.40607
285.40607
285.40607
285.40607
285.40607
285.40607
285.40608
285.40608
285.40608
285.40608
285.40608
285.40608
285.40608
285.40608
285.40609
285.40609
285.40609
285.40609
285.40609
285.40609
285.40609
285.40609
285.40609
285.40609
285.4061
285.4061
285.4061
285.4061
285.4061
285.40611
285.40611
285.40611
285.40611
285.40611
285.40611
285.40611
285.40611
285.40611
285.40611
285.40611
285.40612
285.40612
285.40612
285.40612
285.40612
285.40612
285.40612
285.40613
285.40613
285.40613
285.40613
285.40613
285.40613
285.40613
285.40614
285.40614
285.40614
285.40614
285.40614
285.40614
285.40615
285.40615
285.40615
285.40615
285.40615
285.40615
285.40615
285.40616
285.40616
285.40616
285.40616
285.40616
285.40617
285.40617
285.40617
285.40617
285.40617
285.40617
285.40617
285.40618
285.40618
285.40618
285.40618
285.40618
285.40618
285.40619
285.40619
285.40619
285.40619
285.40619
285.40619
285.40619
285.4062
285.4062
285.4062
285.4062
285.4062
285.4062
285.40621
285.40621
285.40621
285.40621
285.40621
285.40621
285.40621
285.40622
285.40622
285.40622
285.40622
285.40622
285.40623
285.40623
285.40623
285.40623
285.40623
285.40623
285.40623
285.40624
285.40624
285.40624
285.40624
285.40624
285.40624
285.40624
285.40625
285.40625
285.40625
285.40625
285.40625
285.40625
285.40626
285.40626
285.40626
285.40626
285.40626
285.40626
285.40626
285.40626
285.40627
285.40627
285.40627
285.40627
285.40627
285.40627
285.40628
285.40628
285.40628
285.40628
285.40628
285.40628
285.40628
285.40629
285.40629
285.40629
285.40629
285.40629
285.4063
285.4063
285.4063
285.4063
285.4063
285.4063
285.4063
285.4063
285.4063
285.40631
285.40631
285.40631
285.40631
285.40631
285.40631
285.40632
285.40632
285.40632
285.40632
285.40632
285.40632
285.40632
285.40632
285.40633
285.40633
285.40633
285.40633
285.40633
285.40633
285.40634
285.40634
285.40634
285.40634
285.40634
285.40634
285.40635
285.40635
285.40635
285.40635
285.40635
285.40635
285.40635
285.40635
285.40636
285.40636
285.40636
285.40636
285.40636
285.40636
285.40637
285.40637
285.40637
285.40637
285.40637
285.40637
285.40638
285.40638
285.40638
285.40638
285.40638
285.40638
285.40638
285.40639
285.40639
285.40639
285.40639
285.40639
285.40639
285.40639
285.4064
285.4064
285.4064
285.4064
285.40641
285.40641
285.40641
285.40641
285.40641
285.40641
285.40642
285.40642
285.40642
285.40642
285.40642
285.40642
285.40643
285.40643
285.40643
285.40643
285.40643
285.40643
285.40643
285.40643
285.40644
285.40644
285.40644
285.40644
285.40644
285.40644
285.40645
285.40645
285.40645
285.40645
285.40645
285.40646
285.40646
285.40646
285.40646
285.40646
285.40646
285.40646
285.40646
285.40647
285.40647
285.40647
285.40647
285.40648
285.40648
285.40648
285.40648
285.40648
285.40648
285.40649
285.40649
285.40649
285.40649
285.40649
285.40649
285.40649
285.40649
285.4065
285.4065
285.4065
285.4065
285.4065
285.4065
285.40651
285.40651
285.40651
285.40651
285.40651
285.40651
285.40652
285.40652
285.40652
285.40652
285.40652
285.40652
285.40653
285.40653
285.40653
285.40653
285.40653
285.40653
285.40654
285.40654
285.40654
285.40654
285.40654
285.40654
285.40654
285.40655
285.40655
285.40655
285.40655
285.40655
285.40655
285.40656
285.40656
285.40656
285.40656
285.40656
285.40656
285.40657
285.40657
285.40657
285.40657
285.40657
285.40658
285.40658
285.40658
285.40658
285.40658
285.40658
285.40658
285.40659
285.40659
285.40659
285.40659
285.40659
285.4066
285.4066
285.4066
285.4066
285.4066
285.40661
285.40661
285.40661
285.40661
285.40661
285.40661
285.40661
285.40661
285.40662
285.40662
285.40662
285.40662
285.40662
285.40663
285.40663
285.40663
285.40663
285.40663
285.40664
285.40664
285.40664
285.40664
285.40664
285.40664
285.40665
285.40665
285.40665
285.40665
285.40665
285.40665
285.40665
285.40665
285.40666
285.40666
285.40666
285.40666
285.40666
285.40667
285.40667
285.40667
285.40667
285.40668
285.40668
285.40668
285.40668
285.40668
285.40668
285.40668
285.40668
285.40668
285.40669
285.40669
285.40669
285.40669
285.40669
285.4067
285.4067
285.4067
285.4067
285.40671
285.40671
285.40671
285.40671
285.40671
285.40672
285.40672
285.40672
285.40672
285.40672
285.40672
285.40672
285.40673
285.40673
285.40673
285.40673
285.40673
285.40674
285.40674
285.40674
285.40674
285.40675
285.40675
285.40675
285.40675
285.40675
285.40675
285.40676
285.40676
285.40676
285.40676
285.40677
285.40677
285.40677
285.40677
285.40677
285.40677
285.40678
285.40678
285.40678
285.40678
285.40678
285.40679
285.40679
285.40679
285.40679
285.40679
285.4068
285.4068
285.4068
285.4068
285.4068
285.40681
285.40681
285.40681
285.40681
285.40682
285.40682
285.40682
285.40682
285.40682
285.40682
285.40683
285.40683
285.40683
285.40683
285.40683
285.40684
285.40684
285.40684
285.40684
285.40684
285.40685
285.40685
285.40685
285.40685
285.40685
285.40686
285.40686
285.40686
285.40686
285.40686
285.40686
285.40687
285.40687
285.40687
285.40687
285.40687
285.40688
285.40688
285.40688
285.40688
285.40689
285.40689
285.40689
285.40689
285.40689
285.40689
285.4069
285.4069
285.4069
285.4069
285.4069
285.4069
285.40691
285.40691
285.40691
285.40691
285.40691
285.40692
285.40692
285.40692
285.40692
285.40692
285.40692
285.40693
285.40693
285.40693
285.40693
285.40693
285.40694
285.40694
285.40694
285.40694
285.40694
285.40694
285.40695
285.40695
285.40695
285.40695
285.40695
285.40696
285.40696
285.40696
285.40696
285.40697
285.40697
285.40697
285.40697
285.40697
285.40698
285.40698
285.40698
285.40698
285.40698
285.40699
285.40699
285.40699
285.40699
285.40699
285.407
285.407
285.407
285.407
285.407
285.40701
285.40701
285.40701
285.40701
285.40701
285.40701
285.40702
285.40702
285.40702
285.40702
285.40703
285.40703
285.40703
285.40703
285.40704
285.40704
285.40704
285.40704
285.40705
285.40705
285.40705
285.40705
285.40705
285.40706
285.40706
285.40706
285.40706
285.40707
285.40707
285.40707
285.40707
285.40708
285.40708
285.40708
285.40708
285.40708
285.40709
285.40709
285.40709
285.40709
285.40709
285.4071
285.4071
285.4071
285.4071
285.40711
285.40711
285.40711
285.40711
285.40712
285.40712
285.40712
285.40712
285.40713
285.40713
285.40713
285.40713
285.40714
285.40714
285.40714
285.40714
285.40714
285.40715
285.40715
285.40715
285.40715
285.40716
285.40716
285.40716
285.40716
285.40717
285.40717
285.40717
285.40717
285.40718
285.40718
285.40718
285.40718
285.40719
285.40719
285.40719
285.40719
285.4072
285.4072
285.4072
285.4072
285.4072
285.40721
285.40721
285.40721
285.40721
285.40721
285.40722
285.40722
285.40722
285.40723
285.40723
285.40723
285.40723
285.40723
285.40724
285.40724
285.40724
285.40724
285.40725
285.40725
285.40725
285.40725
285.40726
285.40726
285.40726
285.40726
285.40726
285.40727
285.40727
285.40727
285.40727
285.40728
285.40728
285.40728
285.40728
285.40729
285.40729
285.40729
285.40729
285.40729
285.4073
285.4073
285.4073
285.4073
285.40731
285.40731
285.40731
285.40732
285.40732
285.40732
285.40732
285.40733
285.40733
285.40733
285.40733
285.40734
285.40734
285.40734
285.40734
285.40735
285.40735
285.40735
285.40735
285.40736
285.40736
285.40736
285.40736
285.40737
285.40737
285.40737
285.40737
285.40738
285.40738
285.40738
285.40738
285.40739
285.40739
285.40739
285.40739
285.4074
285.4074
285.4074
285.4074
285.40741
285.40741
285.40741
285.40741
285.40742
285.40742
285.40742
285.40742
285.40743
285.40743
285.40743
285.40744
285.40744
285.40744
285.40744
285.40745
285.40745
285.40745
285.40745
285.40746
285.40746
285.40746
285.40746
285.40747
285.40747
285.40747
285.40748
285.40748
285.40748
285.40748
285.40749
285.40749
285.40749
285.40749
285.4075
285.4075
285.4075
285.40751
285.40751
285.40751
285.40751
285.40752
285.40752
285.40752
285.40753
285.40753
285.40753
285.40753
285.40754
285.40754
285.40754
285.40755
285.40755
285.40755
285.40755
285.40756
285.40756
285.40756
285.40756
285.40757
285.40757
285.40757
285.40758
285.40758
285.40758
285.40759
285.40759
285.40759
285.4076
285.4076
285.4076
285.4076
285.40761
285.40761
285.40761
285.40761
285.40762
285.40762
285.40762
285.40763
285.40763
285.40763
285.40763
285.40764
285.40764
285.40764
285.40765
285.40765
285.40765
285.40766
285.40766
285.40766
285.40767
285.40767
285.40767
285.40768
285.40768
285.40768
285.40768
285.40769
285.40769
285.40769
285.40769
285.4077
285.4077
285.4077
285.40771
285.40771
285.40771
285.40772
285.40772
285.40772
285.40773
285.40773
285.40773
285.40773
285.40774
285.40774
285.40774
285.40775
285.40775
285.40775
285.40776
285.40776
285.40776
285.40777
285.40777
285.40777
285.40778
285.40778
285.40778
285.40779
285.40779
285.40779
285.4078
285.4078
285.4078
285.40781
285.40781
285.40781
285.40782
285.40782
285.40782
285.40782
285.40783
285.40783
285.40783
285.40784
285.40784
285.40784
285.40785
285.40785
285.40785
285.40786
285.40786
285.40786
285.40787
285.40787
285.40787
285.40788
285.40788
285.40788
285.40789
285.40789
285.4079
285.4079
285.4079
285.40791
285.40791
285.40791
285.40792
285.40792
285.40792
285.40793
285.40793
285.40793
285.40794
285.40794
285.40794
285.40795
285.40795
285.40795
285.40796
285.40796
285.40796
285.40797
285.40797
285.40797
285.40798
285.40798
285.40798
285.40799
285.40799
285.40799
285.408
285.408
285.408
285.40801
285.40801
285.40802
285.40802
285.40802
285.40803
285.40803
285.40803
285.40804
285.40804
285.40804
285.40805
285.40805
285.40806
285.40806
285.40806
285.40807
285.40807
285.40807
285.40808
285.40808
285.40808
285.40808
285.40809
285.40809
285.4081
285.4081
285.4081
285.40811
285.40811
285.40811
285.40812
285.40812
285.40813
285.40813
285.40813
285.40814
285.40814
285.40814
285.40815
285.40815
285.40815
285.40816
285.40816
285.40817
285.40817
285.40817
285.40818
285.40818
285.40818
285.40819
285.40819
285.40819
285.4082
285.4082
285.4082
285.40821
285.40821
285.40822
285.40822
285.40823
285.40823
285.40823
285.40824
285.40824
285.40825
285.40825
285.40826
285.40826
285.40826
285.40827
285.40827
285.40828
285.40828
285.40828
285.40829
285.40829
285.4083
285.4083
285.4083
285.40831
285.40831
285.40832
285.40832
285.40832
285.40833
285.40833
285.40833
285.40834
285.40834
285.40835
285.40835
285.40836
285.40836
285.40836
285.40837
285.40837
285.40838
285.40838
285.40839
285.40839
285.4084
285.4084
285.4084
285.40841
285.40841
285.40842
285.40842
285.40843
285.40843
285.40844
285.40844
285.40844
285.40845
285.40845
285.40846
285.40846
285.40847
285.40847
285.40848
285.40848
285.40849
285.40849
285.40849
285.4085
285.4085
285.40851
285.40851
285.40852
285.40852
285.40853
285.40853
285.40853
285.40854
285.40854
285.40855
285.40855
285.40856
285.40856
285.40857
285.40857
285.40858
285.40858
285.40858
285.40859
285.40859
285.4086
285.4086
285.40861
285.40861
285.40862
285.40862
285.40863
285.40863
285.40864
285.40864
285.40865
285.40865
285.40866
285.40866
285.40867
285.40867
285.40868
285.40868
285.40869
285.40869
285.4087
285.4087
285.40871
285.40871
285.40872
285.40872
285.40873
285.40873
285.40874
285.40874
285.40875
285.40875
285.40876
285.40876
285.40876
285.40877
285.40877
285.40878
285.40878
285.40879
285.40879
285.4088
285.4088
285.40881
285.40881
285.40882
285.40883
285.40883
285.40884
285.40884
285.40885
285.40885
285.40886
285.40886
285.40887
285.40887
285.40888
285.40888
285.40889
285.40889
285.4089
285.4089
285.40891
285.40891
285.40892
285.40893
285.40893
285.40894
285.40894
285.40895
285.40895
285.40896
285.40896
285.40897
285.40897
285.40898
285.40899
285.40899
285.409
285.409
285.40901
285.40901
285.40902
285.40903
285.40903
285.40904
285.40904
285.40905
285.40905
285.40906
285.40906
285.40907
285.40908
285.40908
285.40909
285.40909
285.4091
285.4091
285.40911
285.40912
285.40912
285.40913
285.40913
285.40914
285.40914
285.40915
285.40916
285.40916
285.40917
285.40918
285.40918
285.40919
285.40919
285.4092
285.4092
285.40921
285.40922
285.40922
285.40923
285.40923
285.40924
285.40925
285.40925
285.40926
285.40927
285.40927
285.40928
285.40929
285.40929
285.4093
285.40931
285.40931
285.40932
285.40933
285.40933
285.40934
285.40935
285.40935
285.40936
285.40936
285.40937
285.40938
285.40938
285.40939
285.4094
285.4094
285.40941
285.40942
285.40942
285.40943
285.40944
285.40945
285.40945
285.40946
285.40947
285.40947
285.40948
285.40949
285.40949
285.4095
285.4095
285.40951
285.40952
285.40952
285.40953
285.40954
285.40955
285.40955
285.40956
285.40957
285.40958
285.40958
285.40959
285.4096
285.4096
285.40961
285.40962
285.40962
285.40963
285.40964
285.40965
285.40965
285.40966
285.40967
285.40968
285.40968
285.40969
285.4097
285.40971
285.40971
285.40972
285.40973
285.40974
285.40974
285.40975
285.40976
285.40977
285.40977
285.40978
285.40979
285.4098
285.4098
285.40981
285.40982
285.40983
285.40984
285.40984
285.40985
285.40986
285.40987
285.40988
285.40988
285.40989
285.4099
285.40991
285.40992
285.40992
285.40993
285.40994
285.40995
285.40996
285.40997
285.40998
285.40998
285.40999
285.41
285.41001
285.41002
285.41002
285.41003
285.41004
285.41005
285.41006
285.41007
285.41007
285.41008
285.41009
285.4101
285.41011
285.41012
285.41013
285.41014
285.41014
285.41015
285.41016
285.41017
285.41018
285.41019
285.4102
285.41021
285.41021
285.41022
285.41023
285.41024
285.41025
285.41026
285.41027
285.41028
285.41029
285.4103
285.41031
285.41032
285.41033
285.41034
285.41035
285.41036
285.41037
285.41037
285.41038
285.41039
285.4104
285.41041
285.41042
285.41043
285.41044
285.41045
285.41046
285.41047
285.41048
285.41049
285.4105
285.41051
285.41052
285.41053
285.41054
285.41055
285.41056
285.41057
285.41058
285.41059
285.4106
285.41061
285.41062
285.41063
285.41064
285.41065
285.41066
285.41068
285.41069
285.4107
285.41071
285.41072
285.41073
285.41074
285.41075
285.41076
285.41077
285.41078
285.41079
285.4108
285.41081
285.41082
285.41083
285.41085
285.41086
285.41087
285.41088
285.41089
285.4109
285.41092
285.41093
285.41094
285.41095
285.41097
285.41098
285.41099
285.411
285.41101
285.41103
285.41104
285.41105
285.41106
285.41107
285.41108
285.41109
285.41111
285.41112
285.41113
285.41114
285.41115
285.41117
285.41118
285.41119
285.41121
285.41122
285.41123
285.41125
285.41126
285.41127
285.41129
285.4113
285.41131
285.41132
285.41134
285.41135
285.41136
285.41138
285.41139
285.4114
285.41142
285.41143
285.41144
285.41146
285.41147
285.41149
285.4115
285.41151
285.41153
285.41154
285.41156
285.41157
285.41158
285.4116
285.41161
285.41163
285.41164
285.41166
285.41167
285.41169
285.4117
285.41171
285.41173
285.41174
285.41176
285.41177
285.41179
285.4118
285.41182
285.41184
285.41185
285.41187
285.41188
285.4119
285.41192
285.41193
285.41195
285.41196
285.41198
285.41199
285.41201
285.41203
285.41204
285.41206
285.41207
285.41209
285.41211
285.41213
285.41214
285.41216
285.41218
285.41219
285.41221
285.41223
285.41225
285.41226
285.41228
285.4123
285.41232
285.41234
285.41235
285.41237
285.41239
285.41241
285.41243
285.41244
285.41246
285.41248
285.4125
285.41251
285.41253
285.41255
285.41257
285.41259
285.41261
285.41263
285.41265
285.41267
285.41269
285.41271
285.41273
285.41275
285.41277
285.41279
285.41281
285.41283
285.41285
285.41287
285.41289
285.41291
285.41294
285.41296
285.41298
285.413
285.41302
285.41304
285.41306
285.41309
285.41311
285.41313
285.41315
285.41317
285.41319
285.41322
285.41324
285.41326
285.41328
285.41331
285.41333
285.41335
285.41338
285.4134
285.41343
285.41345
285.41348
285.4135
285.41353
285.41355
285.41358
285.4136
285.41363
285.41366
285.41368
285.41371
285.41373
285.41376
285.41378
285.41381
285.41384
285.41386
285.41389
285.41392
285.41394
285.41397
285.414
285.41403
285.41406
285.41408
285.41411
285.41414
285.41417
285.4142
285.41423
285.41427
285.4143
285.41433
285.41436
285.41439
285.41442
285.41445
285.41448
285.41451
285.41454
285.41457
285.4146
285.41463
285.41466
285.4147
285.41473
285.41476
285.41479
285.41483
285.41486
285.4149
285.41493
285.41497
285.415
285.41504
285.41507
285.41511
285.41515
285.41518
285.41522
285.41526
285.4153
285.41534
285.41538
285.41542
285.41545
285.41549
285.41553
285.41557
285.41561
285.41565
285.41569
285.41573
285.41578
285.41582
285.41586
285.41591
285.41595
285.416
285.41604
285.41608
285.41613
285.41617
285.41622
285.41626
285.41631
285.41636
285.4164
285.41645
285.4165
285.41655
285.4166
285.41665
285.4167
285.41675
285.4168
285.41686
285.41691
285.41696
285.41702
285.41708
285.41713
285.41719
285.41725
285.4173
285.41736
285.41742
285.41748
285.41754
285.4176
285.41766
285.41772
285.41778
285.41784
285.41791
285.41797
285.41803
285.4181
285.41816
285.41823
285.4183
285.41836
285.41843
285.41851
285.41858
285.41866
285.41873
285.41881
285.41889
285.41897
285.41905
285.41913
285.41921
285.41929
285.41937
285.41946
285.41954
285.41963
285.41971
285.4198
285.41989
285.41998
285.42008
285.42017
285.42027
285.42036
285.42046
285.42056
285.42067
285.42077
285.42087
285.42098
285.42109
285.42119
285.4213
285.42141
285.42152
285.42164
285.42175
285.42186
285.42198
285.42209
285.42221
285.42233
285.42244
285.42256
285.42268
285.4228
285.42291
285.42303
285.42314
285.42325
285.42336
285.42346
285.42356
285.42365
285.42374
285.42382
285.4239
285.42397
285.42404
285.42409
285.42414
285.42418
285.42421
285.42423
285.42425
285.42426
285.42426
285.42426
285.42426
285.42425
285.42423
285.4242
285.42417
285.42414
285.42411
285.42409
285.42407
285.42407
285.42406
285.42406
285.42406
285.42407
285.4241
285.42418
285.4243
285.42445
285.42461
285.42479
285.42498
285.4252
285.42542
285.42566
285.42591
285.42618
285.42645
285.42672
285.427
285.42728
285.42755
285.42782
285.42807
285.4283
285.42853
285.42873
285.42892
285.42909
285.42924
285.42936
285.42946
285.42954
285.42959
285.42962
285.42965
285.42969
285.42977
285.42994
285.43033
285.43128
285.43361
285.43939
285.45375
285.48956
285.57857
285.79987
286.26751
286.89083
287.64304
288.50586
289.4555
290.46457
291.50425
292.54631
293.56489
294.53775
295.44722
296.28049
297.02962
297.69115
298.26547
298.75604
299.16862
299.51047
299.78968
300.01457
300.19329
300.33344
300.44191
300.5248
300.58729
300.63379
300.6679
300.69255
300.71007
300.72228
300.73059
300.73609
300.73958
300.74166
300.74277
300.74325
300.74336
300.74332
300.74306
300.74241
300.74169
300.74102
300.7404
300.73983
300.73929
300.73879
300.73832
300.73788
300.73747
300.73707
300.7367
300.73634
300.73599
300.73564
300.7353
300.73495
300.7346
300.73424
300.73386
300.73347
300.73306
300.73264
300.73219
300.73174
300.73126
300.73078
300.73028
300.72978
300.72927
300.72876
300.72826
300.72776
300.72727
300.72679
300.72632
300.72587
300.72543
300.72502
300.72462
300.72424
300.72388
300.72354
300.72321
300.72291
300.72261
300.72234
300.72207
300.72182
300.72158
300.72135
300.72114
300.72093
300.72073
300.72054
300.72035
300.72018
300.72
300.71984
300.71967
300.71952
300.71936
300.71921
300.71907
300.71893
300.71879
300.71865
300.71852
300.71839
300.71826
300.71814
300.71802
300.7179
300.71778
300.71766
300.71755
300.71744
300.71733
300.71722
300.71711
300.71701
300.7169
300.7168
300.7167
300.7166
300.71651
300.71641
300.71632
300.71622
300.71613
300.71604
300.71595
300.71587
300.71578
300.71569
300.71561
300.71552
300.71544
300.71536
300.71528
300.7152
300.71512
300.71505
300.71497
300.7149
300.71482
300.71475
300.71468
300.71461
300.71454
300.71447
300.71441
300.71434
300.71427
300.71421
300.71414
300.71408
300.71402
300.71395
300.71389
300.71383
300.71377
300.71371
300.71365
300.71359
300.71353
300.71347
300.71341
300.71336
300.7133
300.71324
300.71319
300.71314
300.71308
300.71303
300.71298
300.71293
300.71288
300.71283
300.71277
300.71272
300.71267
300.71263
300.71258
300.71253
300.71248
300.71243
300.71238
300.71234
300.71229
300.71225
300.7122
300.71216
300.71211
300.71207
300.71202
300.71198
300.71194
300.7119
300.71185
300.71181
300.71177
300.71173
300.71169
300.71165
300.71161
300.71157
300.71154
300.7115
300.71146
300.71142
300.71138
300.71134
300.7113
300.71127
300.71123
300.71119
300.71116
300.71112
300.71109
300.71105
300.71102
300.71098
300.71095
300.71091
300.71088
300.71085
300.71081
300.71078
300.71075
300.71072
300.71068
300.71065
300.71062
300.71059
300.71055
300.71052
300.71049
300.71046
300.71043
300.7104
300.71036
300.71033
300.7103
300.71028
300.71025
300.71022
300.71019
300.71016
300.71014
300.71011
300.71008
300.71005
300.71003
300.71
300.70997
300.70994
300.70992
300.70989
300.70986
300.70983
300.70981
300.70978
300.70975
300.70973
300.7097
300.70968
300.70965
300.70962
300.7096
300.70957
300.70955
300.70952
300.7095
300.70947
300.70945
300.70943
300.7094
300.70938
300.70936
300.70933
300.70931
300.70929
300.70927
300.70924
300.70922
300.7092