/*--------------------------------*- C++ -*----------------------------------*\
  =========                 |
  \\      /  F ield         | OpenFOAM: The Open Source CFD Toolbox
   \\    /   O peration     | Website:  https://openfoam.org
    \\  /    A nd           | Version:  7
     \\/     M anipulation  |
\*---------------------------------------------------------------------------*/
FoamFile
{
    version     2.0;
    format      ascii;
    class       volScalarField;
    location    "0.00245";
    object      Uy;
}
// * * * * * * * * * * * * * * * * * * * * * * * * * * * * * * * * * * * * * //

dimensions      [0 1 -1 0 0 0 0];

internalField   nonuniform List<scalar> 
5000
(
3.8139908e-17
3.8797236e-17
0
0
-2.0472431e-17
2.3280561e-32
2.0483187e-17
0
0
-2.0491499e-17
-4.0985999e-17
2.0494307e-17
2.0494652e-17
-2.0494814e-17
0
-2.0493351e-17
2.3858636e-49
2.0490102e-17
0
2.0485683e-17
-2.0482919e-17
-2.0480274e-17
4.0954243e-17
-2.0474212e-17
-2.0470782e-17
-1.6870023e-31
2.0463994e-17
2.0460658e-17
-4.0913736e-17
3.5460547e-31
-3.5744368e-31
2.0445899e-17
4.0883776e-17
-4.0876425e-17
3.5427105e-31
-1.7768335e-30
-7.0826286e-31
4.0844051e-17
-4.08348e-17
-4.0825726e-17
4.08152e-17
-1.4032866e-30
-4.079307e-17
2.0391054e-17
6.1156309e-17
-2.0380814e-17
-2.0376828e-17
-1.3955653e-30
-4.074523e-17
0
2.0372935e-17
2.8954068e-33
-2.037627e-17
4.0756491e-17
-7.1243953e-31
-4.0760485e-17
2.0379714e-17
-7.0372613e-31
-2.0376662e-17
0
2.0371333e-17
6.9468332e-31
5.7880029e-33
2.0361363e-17
-2.0357526e-17
7.1155024e-31
2.0350107e-17
-2.0346566e-17
-2.0342637e-17
2.0339098e-17
2.0335178e-17
-2.0331651e-17
-2.032774e-17
4.0648434e-17
2.0320306e-17
-2.0316779e-17
0
2.0309327e-17
-2.8855715e-33
-2.030187e-17
2.0297952e-17
-5.768023e-33
5.7669128e-33
2.0287011e-17
2.0283119e-17
7.0606737e-31
-2.0275742e-17
0
-2.0268379e-17
-2.1022647e-30
-7.0829896e-31
2.0257534e-17
2.0253657e-17
-4.0500336e-17
-1.401182e-30
2.0242794e-17
0
0
-2.0231529e-17
-1.4027935e-30
4.0448306e-17
-2.0220664e-17
-4.0433572e-17
0
2.0209432e-17
2.0205956e-17
-2.0202093e-17
-2.0198627e-17
0
0
2.0187479e-17
2.0184037e-17
0
-2.0176772e-17
7.0522001e-31
2.0169513e-17
-2.0165687e-17
5.7304569e-33
-7.0471243e-31
-9.5869674e-50
4.0302345e-17
-8.5895016e-33
-2.0143934e-17
0
-2.0136707e-17
2.013329e-17
2.0129476e-17
-4.0252104e-17
-2.012223e-17
4.02376e-17
2.0114976e-17
-2.0111552e-17
-2.0107738e-17
-2.0104328e-17
0
2.0097136e-17
2.0093348e-17
-2.0089958e-17
-6.9647758e-31
2.0082775e-17
-2.0078981e-17
-2.0075584e-17
0
2.0068403e-17
2.0064622e-17
-2.0061247e-17
2.0057481e-17
-1.1399445e-32
-2.0050356e-17
2.0046991e-17
-2.0043224e-17
1.3954386e-30
2.0036073e-17
-2.0032691e-17
2.0028911e-17
2.0025533e-17
-2.0021762e-17
0
0
-2.0011289e-17
-2.0007542e-17
2.0004197e-17
2.0000452e-17
-1.9997107e-17
-1.3865191e-30
1.999002e-17
-1.998628e-17
-1.9982945e-17
0
1.9975884e-17
1.9972152e-17
0
-1.9965068e-17
-1.9961705e-17
0
1.9954503e-17
4.1506719e-30
-1.9947168e-17
1.9943236e-17
1.9939657e-17
-1.9935624e-17
-1.3765944e-30
1.3706444e-30
8.4941141e-33
1.991977e-17
-1.9915914e-17
-2.7617045e-30
1.3692696e-30
-1.3689811e-30
1.9899905e-17
0
0
-1.9888819e-17
-1.9885774e-17
0
0
1.9877233e-17
3.0090535e-50
-1.9872866e-17
0
1.9869334e-17
-1.986802e-17
-5.5052167e-30
3.9730623e-17
-1.986384e-17
-4.1239231e-30
-2.8224592e-33
-1.9860143e-17
1.9858493e-17
-2.8218685e-33
-2.7482367e-30
1.3740047e-30
-1.9851383e-17
0
1.9846907e-17
1.373386e-30
5.5068654e-30
1.9839325e-17
0
-1.9833549e-17
-1.9830323e-17
0
0
0
1.9817598e-17
1.3713002e-30
-1.981098e-17
0
0
1.9801106e-17
1.9797496e-17
-1.9794316e-17
-1.9790699e-17
0
1.9783896e-17
1.9780671e-17
-1.97771e-17
-1.9773845e-17
0
1.9767026e-17
-5.4879393e-30
-1.3703503e-30
1.9756748e-17
-1.9753398e-17
-1.9749963e-17
0
1.9743178e-17
-2.743479e-30
1.9736394e-17
2.7369265e-30
-3.9459223e-17
1.9726215e-17
-2.7355164e-30
-6.8460208e-30
-1.364487e-30
-1.9712676e-17
1.970931e-17
1.9705926e-17
0
-1.9699187e-17
-1.969583e-17
0
1.9689104e-17
1.9685734e-17
-3.9364772e-17
-1.967902e-17
1.9675675e-17
1.9672312e-17
5.4560916e-30
-1.9665612e-17
1.9662274e-17
-1.3633258e-30
-1.9655583e-17
1.965223e-17
-1.3654229e-30
1.3679816e-30
-5.5826506e-33
-1.3563525e-30
1.9635522e-17
0
0
-1.9625511e-17
-1.9622194e-17
0
0
0
0
1.9605528e-17
1.3510355e-30
-3.9197725e-17
8.3540819e-33
1.9592219e-17
1.9588911e-17
-2.7192661e-30
-2.7132421e-30
-2.7823429e-33
-1.9575692e-17
-1.9572382e-17
-1.9569065e-17
3.9131494e-17
5.8687267e-17
-1.9559103e-17
-3.9111558e-17
0
1.9549148e-17
1.9545842e-17
-1.9542532e-17
5.5533833e-33
-8.3286643e-33
5.5515038e-33
1.9529301e-17
1.9525985e-17
-1.9522652e-17
-3.9038632e-17
1.9515962e-17
8.2876983e-50
1.9509231e-17
5.4053001e-30
-3.9004931e-17
0
0
3.8984573e-17
-1.0823351e-29
-3.8970979e-17
0
1.94787e-17
1.9475313e-17
-1.9471945e-17
2.7666529e-33
-2.7025585e-30
2.765712e-33
1.9458718e-17
-1.945551e-17
-1.9452365e-17
0
1.9446268e-17
-2.6995128e-30
-1.9440481e-17
3.887543e-17
-5.3912025e-30
-1.9432469e-17
-5.3953222e-30
-3.8855202e-17
3.8850617e-17
1.9423094e-17
-1.9420966e-17
-2.7595918e-33
-1.9416905e-17
0
0
1.9411165e-17
-2.6920306e-30
-3.8814878e-17
2.7576977e-33
5.8211037e-17
-1.9401763e-17
-1.93998e-17
3.8795595e-17
-1.9395735e-17
1.9393621e-17
3.8782876e-17
-1.9389199e-17
-1.9386888e-17
-1.9384519e-17
1.9382077e-17
8.7627162e-50
-1.937701e-17
1.9374387e-17
-1.9371698e-17
1.9368961e-17
5.3665898e-30
5.503388e-33
1.9360436e-17
-3.871503e-17
1.9354552e-17
5.3735451e-30
-5.3672076e-30
-1.9345513e-17
-3.8684901e-17
5.8018133e-17
5.3638052e-30
-1.072589e-29
5.3565865e-30
-3.8653894e-17
3.864763e-17
-5.3594788e-30
-3.863509e-17
0
0
1.9308113e-17
-2.6775578e-30
-1.9301805e-17
-1.9298644e-17
1.9295491e-17
5.7876996e-17
-1.9289183e-17
-1.928603e-17
-5.4805265e-33
-1.9279743e-17
0
3.8546937e-17
3.8540675e-17
-1.9267199e-17
-3.8528135e-17
-1.9260927e-17
3.8515588e-17
3.8509305e-17
-3.850304e-17
-3.8496761e-17
0
3.8484233e-17
-1.9238993e-17
-3.8471728e-17
1.9232745e-17
1.9229621e-17
-2.7322507e-33
2.6689753e-30
1.9220266e-17
-1.9217141e-17
-1.9214023e-17
1.9210896e-17
-2.6640794e-30
-2.7291456e-33
-2.6632143e-30
-1.9198424e-17
1.9195318e-17
-7.9939412e-30
-2.6642168e-30
-5.3248448e-30
-1.9182907e-17
1.9179803e-17
-2.6624951e-30
-5.315954e-30
-2.7242931e-33
-3.8334809e-17
-1.916431e-17
1.9161208e-17
3.8316234e-17
-2.6594836e-30
-3.8303859e-17
-1.9148833e-17
3.8291494e-17
1.9142653e-17
-1.9139567e-17
-1.9136474e-17
-5.3102424e-30
1.9130297e-17
0
0
1.9121031e-17
0
-1.9114847e-17
1.9111751e-17
2.7155032e-33
-5.3025171e-30
0
-1.9099343e-17
1.9096234e-17
1.9093119e-17
-3.8180004e-17
-1.9086881e-17
1.9083758e-17
0
0
-1.9074373e-17
5.2984146e-30
1.906811e-17
0
0
-1.9058718e-17
7.9397465e-30
1.9052474e-17
0
0
0
0
0
0
0
0
3.8050452e-17
1.0558851e-29
-1.9019523e-17
1.9016737e-17
-1.9014e-17
1.9011314e-17
-5.2837348e-30
-1.90061e-17
-5.2769145e-30
-1.9001104e-17
0
0
1.8994014e-17
5.2736323e-30
-1.8989544e-17
0
0
0
0
0
0
0
3.7946179e-17
-1.5792911e-29
-3.7938231e-17
1.8967118e-17
2.6951037e-33
1.8963075e-17
-1.0514029e-29
-3.7917879e-17
-1.8956829e-17
-2.9545093e-50
5.685753e-17
0
-3.7896091e-17
0
0
3.7882094e-17
-5.253498e-30
-5.6808514e-17
1.8933672e-17
1.8931134e-17
-1.8928559e-17
1.8925949e-17
-1.8923306e-17
-5.248505e-30
1.8917925e-17
-1.8915189e-17
0
-1.8909638e-17
1.8906825e-17
3.7807982e-17
-1.8901137e-17
-1.8898266e-17
-1.8895381e-17
-1.8892483e-17
3.7779147e-17
1.8886654e-17
-1.8883727e-17
0
1.8877849e-17
-1.88749e-17
-1.8871945e-17
5.6606954e-17
5.3620453e-33
-3.7726102e-17
1.8860079e-17
2.6181213e-30
1.8854128e-17
-5.3578189e-33
-3.7696338e-17
1.8845187e-17
0
-5.2312746e-30
-2.6767879e-33
-1.8833224e-17
1.8830222e-17
-5.2279431e-30
-2.6108786e-30
-2.6746524e-33
-1.8818178e-17
1.8815162e-17
7.2299784e-50
-5.2229206e-30
-2.6725089e-33
-3.7606176e-17
-2.6075301e-30
1.8797033e-17
0
0
-1.8787907e-17
-7.8162608e-30
1.878179e-17
-1.8778722e-17
2.6068117e-30
3.0382765e-49
-2.6059544e-30
1.876637e-17
1.876326e-17
2.6019928e-30
-1.8757011e-17
0
0
1.8747569e-17
-1.8744404e-17
1.5601546e-29
1.8738044e-17
-1.8734848e-17
0
1.8728414e-17
1.8725175e-17
-1.872192e-17
-1.8718648e-17
0
1.8712052e-17
1.8708727e-17
-3.7410766e-17
-1.8702019e-17
1.8698635e-17
1.8695229e-17
2.5925141e-30
1.8688346e-17
5.1884159e-30
-3.7362726e-17
0
0
0
1.8667064e-17
1.8663414e-17
0
-1.865602e-17
-2.5843812e-30
1.8648491e-17
0
0
-1.8636925e-17
-2.5843579e-30
2.5811598e-30
-1.8625012e-17
1.8620962e-17
-7.7463657e-30
-1.8612743e-17
0
-1.8604362e-17
-2.5824402e-30
1.8595817e-17
-1.8591482e-17
1.8587107e-17
1.858269e-17
-1.8578234e-17
0
1.8569202e-17
1.8564628e-17
-1.8560015e-17
-1.8555362e-17
0
-1.8545933e-17
1.8541156e-17
1.8536337e-17
-1.8531474e-17
-3.7053135e-17
1.0286171e-29
5.5549883e-17
1.7381498e-49
-1.8506478e-17
-3.7002645e-17
1.0261491e-29
3.6981683e-17
-1.8485507e-17
1.8480103e-17
-1.8474626e-17
-1.8469069e-17
3.6926854e-17
0
0
-3.6891875e-17
-1.7863899e-48
3.6867504e-17
0
0
-3.6829141e-17
-2.033482e-48
3.6802225e-17
0
0
-3.6759601e-17
-1.8372373e-17
3.6729545e-17
1.8356994e-17
0
-3.6681762e-17
1.0181161e-29
3.6647985e-17
-1.8315246e-17
0
1.829713e-17
-1.8287753e-17
2.5974824e-33
1.826834e-17
-1.8258297e-17
1.8248025e-17
1.8237521e-17
-1.8226783e-17
-1.8215807e-17
5.0550525e-30
1.8193131e-17
-1.8181425e-17
-5.0453004e-30
1.8157264e-17
-1.8144803e-17
1.8132083e-17
1.8119103e-17
-1.8105858e-17
-1.8092347e-17
5.0200578e-30
1.806451e-17
-1.8050179e-17
2.5630083e-33
1.8020673e-17
-1.8005493e-17
1.7990022e-17
1.7974256e-17
-1.7958193e-17
-3.5883658e-17
9.9600152e-30
3.5816365e-17
-1.7890892e-17
2.5399467e-33
3.5710719e-17
5.0696113e-33
-1.7818531e-17
0
1.7780377e-17
0
-1.7740867e-17
0
0
0
-1.7657646e-17
-9.8983087e-49
1.7613874e-17
0
1.7568621e-17
-4.8720167e-30
-1.7521857e-17
0
0
0
-1.7423681e-17
4.8311198e-30
1.7372216e-17
0
1.7319131e-17
4.7991791e-30
-1.7264398e-17
0
1.7207994e-17
-1.7179161e-17
9.5292479e-30
1.7120218e-17
-1.7090105e-17
0
-1.702858e-17
-4.7197742e-30
1.696531e-17
0
1.6900276e-17
-1.6867093e-17
-9.3486355e-30
1.6799386e-17
-9.3081544e-30
-2.3774601e-33
4.6380931e-30
-2.3673282e-33
-1.6622265e-17
0
1.6548253e-17
-4.5823095e-30
-4.571724e-30
1.8138336e-48
-4.5525039e-30
0
-3.2630626e-17
-4.5192165e-30
1.6234043e-17
-1.6192735e-17
4.4825098e-30
1.6108769e-17
1.606611e-17
4.4492695e-30
-4.4371774e-30
1.5935475e-17
-1.5891058e-17
-1.5846205e-17
0
-1.5755177e-17
4.3620795e-30
1.5662422e-17
0
0
0
-3.0943993e-17
1.7131033e-29
3.0748597e-17
0
0
0
0
0
0
0
-2.99368e-17
8.2880011e-30
2.9726668e-17
1.4810369e-17
-1.4757097e-17
-1.4703468e-17
4.0699469e-30
8.0972502e-30
1.454046e-17
-1.4485543e-17
1.4430413e-17
1.4375082e-17
-1.4319484e-17
-1.4263543e-17
7.8861055e-30
1.415066e-17
1.4093798e-17
-3.8937306e-30
-1.3979544e-17
-1.3922266e-17
1.3864777e-17
1.3806946e-17
-1.3748772e-17
1.3690322e-17
0
-1.3572771e-17
-1.3513846e-17
3.7323422e-30
1.3395924e-17
-1.333665e-17
1.3277025e-17
1.3217093e-17
-1.3156946e-17
1.3096662e-17
3.619926e-30
-1.297599e-17
-1.2915675e-17
-1.8268462e-33
2.5589446e-17
7.0700958e-30
-1.2672831e-17
-1.2611548e-17
0
1.2488765e-17
0
0
0
1.2243449e-17
1.2182051e-17
-1.2120651e-17
-1.2059175e-17
0
1.1935634e-17
-3.2987636e-30
-1.1811676e-17
0
0
1.1626752e-17
-6.4198679e-30
-1.1504906e-17
0
0
1.1321342e-17
-6.2499219e-30
-1.11977e-17
0
1.1074679e-17
-3.0583314e-30
3.0400207e-30
-3.0249175e-30
-1.0833789e-17
0
-1.0714815e-17
5.9129869e-30
1.0595643e-17
0
1.0475611e-17
-1.0415429e-17
-1.0355428e-17
2.0591641e-17
2.8454728e-30
-2.0357119e-17
2.8103901e-30
1.0063837e-17
0
0
9.8935759e-18
-2.7301374e-30
-9.7805734e-18
0
9.6685255e-18
-9.6128421e-18
-9.5573177e-18
9.5019492e-18
0
-9.3917496e-18
9.3370203e-18
5.1525543e-30
-5.1225587e-30
9.1748703e-18
-7.5959377e-30
9.0682922e-18
-9.015514e-18
2.4876278e-30
-4.9489774e-30
-1.7719392e-17
2.4434013e-30
8.7572729e-18
0
0
0
-1.7111915e-17
-8.5067195e-18
1.6916088e-17
8.4098443e-18
0
0
8.2671849e-18
2.2523693e-48
-8.1731052e-18
0
-1.6160982e-17
-8.0350711e-18
1.5980325e-17
7.9456584e-18
0
-1.5715443e-17
-2.2209088e-33
2.3312295e-17
-2.1436627e-30
-1.5370896e-17
7.6436895e-18
4.3214582e-33
-7.5614076e-18
2.089399e-30
4.1498139e-30
7.4393175e-18
0
7.3588974e-18
-4.0639421e-30
-1.4561685e-17
7.2426902e-18
-1.1995866e-29
-7.1675982e-18
1.4261e-17
-1.0080644e-33
-7.0570365e-18
0
0
0
-6.9162296e-18
6.8822786e-18
1.3697002e-17
-6.8148337e-18
-1.8830476e-30
-1.8719269e-30
-6.7155105e-18
0
6.6516252e-18
-9.4084254e-34
-1.3180476e-17
6.5604101e-18
3.6232287e-30
-6.5011896e-18
-6.471677e-18
3.5796783e-30
1.2826702e-17
0
6.3562168e-18
6.3286129e-18
0
-6.2759258e-18
-6.25031e-18
6.2247271e-18
0
-6.1730279e-18
0
0
6.0952732e-18
-5.0554344e-30
-6.0472032e-18
0
0
5.9797272e-18
5.9574723e-18
-5.9351435e-18
-5.9127922e-18
5.8906211e-18
5.8689719e-18
-1.1696204e-17
-5.8279481e-18
1.6136354e-30
5.7883356e-18
-3.2002318e-30
-3.1891194e-30
5.7282812e-18
-5.7081794e-18
5.6882367e-18
-5.6689868e-18
-4.8181684e-33
5.6335618e-18
-1.1233556e-17
-5.6000445e-18
-5.5831272e-18
1.1131739e-17
1.1096212e-17
-5.5299979e-18
5.5122002e-18
-5.4953228e-18
3.0431035e-30
1.0928993e-17
-5.4498701e-18
1.5084937e-30
-1.5058893e-30
-5.4048585e-18
0
0
5.3580385e-18
5.3436984e-18
0
-5.317032e-18
-5.3040454e-18
0
-5.2773408e-18
1.4616296e-30
5.2502567e-18
-5.2371781e-18
1.4492666e-30
5.212289e-18
0
5.1888374e-18
2.8745936e-30
-5.1659288e-18
5.1544346e-18
-1.4259264e-30
-5.1314589e-18
-5.1194632e-18
-1.417499e-30
5.0957969e-18
0
-5.07468e-18
5.0650742e-18
-1.4369824e-33
2.8027927e-30
5.0370718e-18
-5.026639e-18
0
-1.0011341e-17
1.109229e-29
4.9865738e-18
2.7630693e-30
9.9386759e-18
-9.9214851e-18
-9.9036529e-18
9.885463e-18
9.867485e-18
4.9250268e-18
0
-4.9087966e-18
-9.8024182e-18
6.9543658e-34
-4.8858702e-18
4.8775664e-18
4.869206e-18
-4.8612474e-18
9.7073104e-18
-9.6920637e-18
-8.0580238e-30
9.6604651e-18
-9.6449835e-18
2.6727585e-30
-4.8084048e-18
4.8025864e-18
4.7971633e-18
-4.7911285e-18
-1.3270851e-30
-9.552677e-18
9.5367395e-18
9.5212031e-18
-9.5066748e-18
-1.317391e-30
-4.7406496e-18
2.6295873e-30
4.7293222e-18
1.3110657e-30
9.8656909e-49
4.7132339e-18
9.4147333e-18
-4.7012352e-18
-2.6531418e-48
-4.6888011e-18
-7.8002554e-30
4.676574e-18
-9.3418179e-18
2.5897588e-30
9.3206124e-18
2.6528599e-49
-4.6492088e-18
0
0
-4.6319289e-18
4.6257361e-18
9.2388404e-18
0
0
0
-4.59822e-18
-4.5948362e-18
0
4.5874315e-18
-4.5825381e-18
-7.6229827e-30
9.1419698e-18
0
0
0
-4.5497658e-18
-4.5461685e-18
4.5426908e-18
-4.5386848e-18
-2.517952e-30
9.0568495e-18
0
0
-9.0205248e-18
1.2803357e-33
4.500083e-18
-4.4963064e-18
4.4933245e-18
-4.490634e-18
2.4922651e-30
8.9681362e-18
0
0
-4.4700996e-18
-4.4649334e-18
0
0
4.4503787e-18
4.4462527e-18
0
-4.4386776e-18
-4.4347941e-18
4.4309341e-18
-4.4273888e-18
-4.4241689e-18
4.4208702e-18
4.4170639e-18
-2.4506035e-30
-4.4077629e-18
4.4027695e-18
1.2206061e-30
-4.3935086e-18
0
-4.3848863e-18
2.4320271e-30
4.3755373e-18
-4.3707925e-18
2.4242785e-30
4.3624414e-18
0
-4.3552796e-18
1.2081933e-30
6.1763504e-34
-4.3412034e-18
4.3363539e-18
4.3318923e-18
0
-8.6475448e-18
4.7977455e-30
4.3149276e-18
6.1252359e-34
8.6111497e-18
-8.6017875e-18
-8.5922347e-18
8.5823654e-18
4.2861383e-18
0
-8.5525061e-18
7.1120293e-30
8.5342308e-18
0
-8.5137131e-18
-2.3607918e-30
4.2448141e-18
1.1770631e-30
8.4668833e-18
-8.4567537e-18
-1.0548892e-29
8.4364906e-18
-8.4253416e-18
2.334541e-30
8.4021043e-18
4.1952072e-18
-8.3783788e-18
-4.1828006e-18
8.3519923e-18
-8.3379483e-18
-1.0395617e-29
8.3111799e-18
-8.2992952e-18
1.1507494e-30
-4.1386721e-18
4.5856241e-30
1.2379003e-17
-2.2867245e-30
-8.2257626e-18
4.1059796e-18
8.197529e-18
-4.0910494e-18
2.2668732e-30
-4.0744507e-18
-4.5164802e-30
4.0586116e-18
-8.1031345e-18
3.3684542e-30
-4.4837067e-30
2.2364661e-30
4.0235342e-18
0
4.0076304e-18
3.9996107e-18
0
0
0
0
0
-3.9456904e-18
-3.9379835e-18
0
3.9234752e-18
-3.9151299e-18
-6.5064362e-30
7.7924251e-18
0
0
0
-3.8579101e-18
-3.8478269e-18
3.8373584e-18
3.8268216e-18
-7.633384e-18
-6.3434051e-30
7.5981447e-18
0
-7.5654497e-18
-6.2845864e-30
3.7612584e-18
-3.7489566e-18
3.7367355e-18
-3.7253275e-18
-2.0620629e-30
7.4102683e-18
0
0
-3.6740079e-18
-3.6628283e-18
0
-3.6411252e-18
-1.0318782e-33
-3.6197885e-18
3.6083066e-18
1.078831e-17
0
7.1423179e-18
7.1187858e-18
0
-1.0611955e-17
-7.0520905e-18
7.0281341e-18
-3.501457e-18
-3.4886749e-18
1.0428787e-17
3.464487e-18
4.9072974e-34
3.4418941e-18
-3.4299299e-18
-3.4170459e-18
-3.4035497e-18
-6.3749456e-49
-3.3772647e-18
-3.3651575e-18
3.3533904e-18
0
6.6573438e-18
6.6306526e-18
0
-3.2884463e-18
-6.5514329e-18
-1.810968e-30
-3.2509753e-18
-6.4758921e-18
6.4482999e-18
6.4198571e-18
3.1959043e-18
3.1825476e-18
0
-3.1574807e-18
-9.4346507e-18
3.1317843e-18
7.1438252e-47
-9.3131288e-18
6.1812273e-18
3.0770936e-18
3.0638242e-18
6.1013695e-18
-6.0750404e-18
-3.0242229e-18
3.0107693e-18
2.9972128e-18
2.983644e-18
-8.9103996e-18
-2.9566871e-18
8.8297462e-18
2.929745e-18
-2.9161529e-18
-5.8050605e-18
2.8889834e-18
-2.8755931e-18
4.7656713e-30
-4.7454235e-30
-8.5083992e-18
2.8230736e-18
2.8100769e-18
5.5942606e-18
2.7841428e-18
-5.5419962e-18
-7.8377434e-34
-2.7442326e-18
2.7308933e-18
8.1533127e-18
-8.1145632e-18
-2.6920263e-18
8.0375427e-18
0
-7.9605614e-18
-2.6408822e-18
7.8852043e-18
-2.6159921e-18
-5.2071121e-18
-1.4382354e-30
2.8622231e-30
2.5661332e-18
0
5.0834352e-18
5.0593529e-18
-2.5176665e-18
-2.5056465e-18
-4.987227e-18
2.4815979e-18
2.4696448e-18
-4.9155905e-18
0
4.8689368e-18
4.8459251e-18
-2.4115174e-18
-4.8002148e-18
1.3259278e-30
2.3774191e-18
-4.7324093e-18
2.3551066e-18
-7.8069678e-30
-4.6663919e-18
2.3223302e-18
0
4.6015499e-18
0
-5.0620444e-30
-2.2691602e-18
-4.5175946e-18
6.7454403e-18
-6.3613205e-34
-4.4558636e-18
0
4.4152505e-18
2.1976576e-18
-4.3756849e-18
2.4184049e-30
2.1685911e-18
-4.3181493e-18
2.1495872e-18
-3.563191e-30
-4.2614468e-18
2.1214176e-18
-2.112238e-18
4.2063647e-18
6.2826699e-18
0
-6.2293463e-18
-4.1351684e-18
6.1762002e-18
4.0998457e-18
-2.0411913e-18
-4.0651462e-18
2.0240829e-18
2.0157161e-18
-4.0149159e-18
1.9993021e-18
3.9825104e-18
-1.9833305e-18
2.8073963e-34
-3.9356559e-18
-3.9203712e-18
5.857702e-18
-1.9449639e-18
-3.2267599e-30
5.7897425e-18
0
-5.7460202e-18
-3.8164824e-18
1.9012193e-18
1.8942417e-18
1.8872975e-18
0
1.8735905e-18
-1.0362699e-30
-3.7206772e-18
1.0287936e-30
1.847561e-18
0
1.8350512e-18
-3.65774e-18
-5.468243e-18
3.6333885e-18
5.4321708e-18
1.804854e-18
-1.7990947e-18
-3.5868676e-18
1.7878464e-18
-1.7823141e-18
-1.7768399e-18
3.5428946e-18
-3.5323271e-18
-1.7609968e-18
5.2677802e-18
3.5018461e-18
-1.7459768e-18
-5.2233514e-18
3.8553059e-30
-3.8450845e-30
-1.7272173e-18
-1.9123396e-30
-1.7179233e-18
1.7133265e-18
1.7089371e-18
1.7047463e-18
-1.7005792e-18
-1.6963223e-18
5.0760806e-18
-1.6878416e-18
-3.3678652e-18
5.0410879e-18
4.7660954e-34
-1.6733223e-18
3.3391451e-18
1.6658582e-18
0
-1.6593385e-18
-1.6565849e-18
-3.3074763e-18
1.650628e-18
-5.4866711e-30
-4.9330436e-18
1.6415598e-18
1.6391629e-18
1.6370423e-18
-1.6348468e-18
-1.6324492e-18
4.8900482e-18
-1.6276739e-18
-3.2510187e-18
-2.704168e-30
-1.6219983e-18
3.2409463e-18
4.8568892e-18
8.9760108e-31
-8.9706221e-31
-2.2948551e-34
-1.6137688e-18
-3.2255619e-18
-1.6118535e-18
4.832839e-18
-1.7874149e-30
-3.2186711e-18
0
0
1.6089591e-18
-8.9339874e-31
8.9359862e-31
1.6108427e-18
-3.2217931e-18
-1.6107205e-18
-1.7876648e-30
1.6110381e-18
4.8355154e-18
1.6130801e-18
0
0
0
-4.8577424e-18
-3.2422656e-18
4.8695835e-18
-1.8049144e-30
-3.2553069e-18
0
0
3.2701841e-18
-3.6369099e-30
-1.8211588e-30
3.2869815e-18
-1.6461184e-18
-3.2981623e-18
-3.3049234e-18
1.6562503e-18
4.9812585e-18
1.664796e-18
0
0
0
-5.0458825e-18
-3.3728585e-18
5.0732671e-18
-3.7655218e-30
-1.7010084e-18
2.4246633e-34
-1.7114818e-18
3.4334975e-18
-1.9116535e-30
-1.7272832e-18
3.4655653e-18
0
-9.6859536e-31
-3.5015391e-18
-3.5143638e-18
5.2911787e-18
3.5407108e-18
-1.7770381e-18
-9.8987499e-31
1.7905365e-18
-5.3919825e-18
-3.6083823e-18
1.811177e-18
1.8183241e-18
-1.8256272e-18
-1.8329889e-18
1.8403289e-18
1.847691e-18
-1.0297757e-30
1.0337905e-30
1.8707946e-18
0
1.887007e-18
-3.7903918e-18
-5.710137e-18
3.8231692e-18
3.8397087e-18
1.9282203e-18
-2.1497322e-30
-3.8904357e-18
1.9538353e-18
-1.9625062e-18
-1.97121e-18
3.9598613e-18
-3.9773275e-18
-1.9974454e-18
2.0063075e-18
4.0305344e-18
2.0243338e-18
-4.0669756e-18
1.1332746e-30
-2.051959e-18
-2.0612354e-18
6.2115626e-18
-2.0798166e-18
-2.089121e-18
6.295312e-18
-2.99533e-34
-6.3514317e-18
-2.1265445e-18
6.4079062e-18
-2.1454028e-18
4.9283973e-47
-3.6034846e-30
-4.3476989e-18
4.3668072e-18
4.3859045e-18
-2.2024642e-18
2.4556076e-30
4.4429652e-18
-2.2310637e-18
-6.7219714e-18
-2.2501983e-18
2.2596566e-18
0
2.278563e-18
4.5762384e-18
-3.2651842e-34
-6.9213567e-18
-2.3164147e-18
4.6512486e-18
-3.3181265e-34
-4.6887444e-18
4.7077027e-18
-3.9360189e-30
-4.7449639e-18
7.1444129e-18
4.7805691e-18
0
0
-2.4174826e-18
-7.2797291e-18
-2.4354939e-18
7.3325598e-18
-2.7228498e-30
-4.9223222e-18
4.9394727e-18
4.9566567e-18
-2.4868316e-18
-4.9905082e-18
2.5036369e-18
2.5120036e-18
-7.5609617e-18
-2.5284415e-18
-4.2242148e-30
1.4113219e-30
2.5512424e-18
-2.5585351e-18
5.132017e-18
7.7210753e-18
0
-7.7663404e-18
-5.1920275e-18
7.8090268e-18
-7.4176431e-34
-2.6166922e-18
5.2471024e-18
-2.6303539e-18
-2.6370701e-18
-2.9348905e-30
2.650136e-18
5.3128339e-18
-2.6625173e-18
-5.3368072e-18
-5.3481951e-18
2.9755479e-30
2.685028e-18
-2.6904559e-18
5.3919377e-18
8.1044309e-18
0
-8.1363577e-18
-5.4342862e-18
8.1658507e-18
-3.0277297e-30
-2.7312228e-18
2.7358192e-18
2.7403324e-18
-1.5227258e-30
-5.4976531e-18
1.5279914e-30
5.5130094e-18
-3.0637332e-30
-3.0676246e-30
-5.5342386e-18
-8.31196e-18
5.5481964e-18
-3.0841074e-30
-9.2595185e-30
2.7834142e-18
2.7861693e-18
5.5776258e-18
-8.3742685e-18
-2.7940332e-18
5.5931502e-18
-5.5979501e-18
-1.5923034e-33
8.4098113e-18
2.8051736e-18
-2.8069545e-18
-8.4260051e-18
9.3606127e-30
5.6240704e-18
2.8135907e-18
-5.6299993e-18
-8.448763e-18
8.4520874e-18
2.8183447e-18
3.128976e-30
2.820083e-18
-5.6418393e-18
1.5662543e-30
-2.8223458e-18
2.8228577e-18
-9.4042358e-30
-8.4703966e-18
8.4708073e-18
8.4710348e-18
0
0
0
-2.8235797e-18
-8.469811e-18
-2.822835e-18
-3.1331786e-30
-2.8216863e-18
8.463153e-18
2.8204183e-18
-2.8197426e-18
-2.818961e-18
-2.8180531e-18
5.6340427e-18
-2.8158814e-18
2.814661e-18
-9.3698973e-30
-5.6242881e-18
8.4327106e-18
5.6192035e-18
0
-5.6132448e-18
-3.1139196e-30
2.8031927e-18
-8.4041924e-18
-2.7996132e-18
2.7978706e-18
0
0
2.7922693e-18
5.580304e-18
-6.1900709e-30
-5.571375e-18
-2.7834514e-18
2.781274e-18
-2.7791366e-18
2.7769403e-18
1.2324676e-47
-4.6170226e-30
8.3086308e-18
0
0
-5.5235229e-18
-5.5186274e-18
-2.7568448e-18
3.0572422e-30
8.2544772e-18
-3.052148e-30
-5.4912999e-18
0
5.4797823e-18
2.7371806e-18
-5.469003e-18
2.7317121e-18
2.7287478e-18
-8.1768625e-18
2.7224013e-18
-9.0561796e-30
-5.4322322e-18
8.139571e-18
5.4207014e-18
0
0
0
-8.0927023e-18
-5.3882719e-18
8.0724821e-18
5.3754359e-18
0
-5.3634637e-18
2.9735497e-30
2.675054e-18
-5.3428916e-18
2.6678171e-18
-2.6643129e-18
-2.661039e-18
7.9738937e-18
-5.3097672e-18
-5.3031901e-18
2.6480419e-18
-2.6442875e-18
5.2809567e-18
7.9103627e-18
0
-7.8905389e-18
-5.2541577e-18
2.6237785e-18
2.6201621e-18
-2.9044584e-30
2.612267e-18
-8.6885993e-30
-2.6048163e-18
-1.4444521e-30
-5.968545e-49
2.595188e-18
0
2.5875099e-18
-5.1667294e-18
-7.7380048e-18
7.7269173e-18
7.7170258e-18
0
-5.131846e-18
-5.1244661e-18
5.1163852e-18
-2.5539658e-18
-2.5498162e-18
7.6379509e-18
-5.0851338e-18
-5.0787596e-18
2.5360591e-18
5.0648265e-18
2.5284438e-18
-7.5727396e-18
-2.5200111e-18
-4.1896736e-30
5.0247312e-18
1.4263104e-33
-7.518129e-18
5.0048726e-18
7.49489e-18
2.4938758e-18
-7.4686734e-18
-4.9713445e-18
7.4468526e-18
-5.504962e-30
-4.9510832e-18
-2.471665e-18
1.3696914e-30
4.9268328e-18
-2.7302232e-30
2.455394e-18
2.4517038e-18
-7.3447589e-18
-2.4448192e-18
-2.7099869e-30
4.8739868e-18
-8.101826e-30
-7.284933e-18
4.8485089e-18
-2.6886505e-30
-2.6856326e-30
-5.3601516e-30
-2.4100438e-18
7.2178697e-18
-2.4017305e-18
-3.9917477e-30
-7.9712887e-30
-7.1685949e-18
2.3857267e-18
4.7639689e-18
-2.6401974e-30
2.3743541e-18
2.3702876e-18
-4.7321546e-18
-4.7237538e-18
2.617258e-30
7.0624379e-18
-2.6087741e-30
-2.3466728e-18
4.6849405e-18
-2.3380518e-18
-2.3336643e-18
1.2924214e-30
-1.2910186e-30
2.3222718e-18
-4.636926e-18
2.3142994e-18
-7.6943616e-30
-7.6783086e-30
6.9036304e-18
-4.594374e-18
6.5180968e-34
4.5790242e-18
-2.2855574e-18
-6.8445102e-18
-2.2773557e-18
6.8193585e-18
-2.5187676e-30
-2.2646421e-18
4.5212324e-18
-4.5135982e-18
-1.1257104e-29
2.2488976e-18
-2.2445216e-18
2.2400263e-18
-4.4713007e-18
2.2316076e-18
6.6837364e-18
0
0
-4.4315481e-18
-6.2846088e-34
4.4134608e-18
-2.202568e-18
-6.5961784e-18
-2.1949756e-18
6.5731541e-18
6.2156153e-34
2.4231236e-30
4.3568839e-18
-6.5226619e-18
-1.0841545e-29
2.1659867e-18
-2.1620582e-18
-2.1582406e-18
2.3928697e-30
2.150208e-18
-4.2917523e-18
4.2830034e-18
-7.118173e-30
-4.2668794e-18
6.389478e-18
4.2521514e-18
-2.1219631e-18
-6.3526711e-18
-2.1130821e-18
2.1088008e-18
0
-2.1012724e-18
2.0976012e-18
6.280998e-18
1.1598418e-30
-4.1705973e-18
2.0811256e-18
2.0770597e-18
-4.1461793e-18
2.0691855e-18
-2.0653595e-18
-4.1231247e-18
6.1729122e-18
-6.8391156e-30
4.5505341e-30
4.0900659e-18
-4.082089e-18
-2.0373344e-18
-2.0336936e-18
-2.2551353e-30
2.0256496e-18
-4.0426894e-18
4.0341972e-18
6.0392005e-18
0
-2.0055253e-18
1.1111035e-30
5.6781897e-34
-5.9816887e-18
-1.9898414e-18
5.9570188e-18
-1.9814979e-18
-2.0229201e-47
5.9211041e-18
-1.970013e-18
-5.8983953e-18
-1.9620255e-18
3.9156564e-18
-1.9536426e-18
1.9495169e-18
-6.4792736e-30
-3.8830209e-18
5.8131922e-18
2.14818e-30
-8.5724215e-30
3.8523166e-18
-3.8439218e-18
-2.1290092e-30
1.9136947e-18
-3.8195752e-18
-1.9059306e-18
0
0
3.7880936e-18
-4.1968475e-30
-1.0722825e-33
-2.0897213e-30
-1.8781951e-18
-1.8739637e-18
1.8698099e-18
1.8658131e-18
-3.7239094e-18
3.7162529e-18
-2.0585021e-30
-3.7007081e-18
3.6928903e-18
6.1364045e-30
-2.0410661e-30
1.8345558e-18
-3.6611409e-18
1.8266299e-18
-4.0470705e-30
-3.6378084e-18
0
3.621962e-18
1.8068993e-18
-3.6056598e-18
-1.7988689e-18
1.7950492e-18
-2.9833551e-30
-1.7873295e-18
0
0
3.5504741e-18
3.5425589e-18
0
-3.5268693e-18
-1.7595547e-18
1.7556376e-18
-1.7516409e-18
1.747636e-18
0
-3.4799267e-18
0
0
1.7281749e-18
-1.9140287e-30
-1.7201339e-18
0
1.7125024e-18
9.4850149e-31
-1.7049201e-18
0
3.3932551e-18
3.3849331e-18
-1.6884619e-18
-1.8699388e-30
1.6808301e-18
-3.3540046e-18
-3.3461416e-18
3.3380272e-18
4.7319086e-34
3.6880256e-30
4.7092418e-34
-3.3062167e-18
1.6493015e-18
-1.8267417e-30
1.6416887e-18
-1.637814e-18
-4.9014767e-18
4.8894751e-18
1.6259029e-18
-1.6220135e-18
-1.7960736e-30
-1.6141149e-18
3.2204876e-18
3.2127129e-18
-3.2045448e-18
-5.3218707e-30
-1.5939922e-18
-1.5901043e-18
3.1724924e-18
-1.5822288e-18
1.7517745e-30
-8.7424621e-31
1.5702989e-18
3.1327732e-18
-3.1249396e-18
-3.1171917e-18
0
1.5508665e-18
1.7174202e-30
-3.0863968e-18
-1.7088978e-30
4.6061281e-18
3.0627273e-18
0
-3.0467556e-18
-3.3731281e-30
-1.5154503e-18
-1.5114563e-18
4.5222485e-18
-8.3426514e-31
-2.9986188e-18
1.495265e-18
2.9824555e-18
-1.4872011e-18
-2.966359e-18
-1.4791487e-18
0
2.9423002e-18
-1.4672957e-18
-4.3905423e-18
1.4597478e-18
1.4560312e-18
2.9046778e-18
1.4485734e-18
-2.8894259e-18
-1.4407678e-18
-1.4367214e-18
1.5903826e-30
1.4284096e-18
1.4242517e-18
2.8401934e-18
1.4159591e-18
0
0
0
-2.7993115e-18
-2.7912023e-18
2.7830381e-18
1.5402033e-30
1.5355559e-30
-1.5304961e-30
-3.0529282e-30
2.7414814e-18
0
-2.7259937e-18
-1.3594352e-18
1.3559429e-18
-1.3523297e-18
-1.3483717e-18
0
0
2.6701334e-18
-4.4323456e-30
-2.945796e-30
2.6453322e-18
-2.6371367e-18
-2.6289457e-18
0
2.6145693e-18
-1.4467451e-30
-2.5979023e-18
2.5893707e-18
1.433025e-30
-2.5727461e-18
0
2.5571851e-18
1.2749232e-18
-2.5421793e-18
1.2668903e-18
2.8035274e-30
-2.5153703e-18
2.5062033e-18
2.4974458e-18
0
0
0
-2.4653218e-18
-2.4574384e-18
2.4495082e-18
0
-2.433553e-18
0
-1.208835e-18
2.4098366e-18
1.2010445e-18
-1.1971995e-18
2.386707e-18
1.1894684e-18
-2.371019e-18
-1.1814573e-18
-1.3071649e-30
1.1731028e-18
-2.5952252e-30
6.6201388e-34
2.3208752e-18
0
-1.1522647e-18
-2.2965726e-18
-1.1443674e-18
0
0
0
-1.1290172e-18
2.2504258e-18
1.1214112e-18
-1.1176087e-18
-1.1138017e-18
1.109986e-18
1.1061578e-18
-2.204628e-18
0
2.1891525e-18
2.1813731e-18
0
0
-2.1580013e-18
-1.1935497e-30
-1.0712634e-18
-1.0674264e-18
1.063614e-18
-1.0598268e-18
1.0560643e-18
2.1046488e-18
1.048604e-18
0
-2.08241e-18
-1.1515067e-30
1.0338304e-18
-1.030141e-18
-1.0264452e-18
-2.0454809e-18
2.0380511e-18
1.0153007e-18
-2.8750485e-34
1.0078299e-18
-2.0081825e-18
1.0003566e-18
-9.9663083e-19
-8.5522784e-48
9.89223e-19
-1.9710949e-18
1.9637863e-18
1.9565206e-18
0
-9.7105404e-19
-1.9349519e-18
5.3504355e-31
9.6035412e-19
9.5680339e-19
-1.9065102e-18
-1.899413e-18
9.4615593e-19
1.885205e-18
1.8780929e-18
-9.3548888e-19
-1.8638632e-18
9.2837709e-19
-9.2482804e-19
1.5338918e-30
9.1775835e-19
-1.8284866e-18
1.8214886e-18
1.0069414e-30
-5.0170232e-30
1.8007011e-18
-1.7938371e-18
-3.9676851e-30
8.9009431e-19
-1.7733958e-18
8.8330866e-19
-2.5008948e-34
3.8923798e-30
8.7316109e-19
-1.7395608e-18
1.9236715e-30
-4.7891943e-31
8.5964307e-19
-2.4336604e-34
-1.705794e-18
1.6990624e-18
4.8099323e-34
-3.7426414e-30
1.6789626e-18
-1.6723024e-18
-1.8491389e-30
1.6590425e-18
-8.2621973e-19
-8.2292582e-19
-8.1963855e-19
8.1635672e-19
-9.0264129e-31
-1.6196077e-18
0
0
1.5999584e-18
2.2643639e-34
-1.5868484e-18
7.9014533e-19
-8.7331662e-31
7.8358472e-19
1.7325099e-30
-1.5540413e-18
0
-7.7045482e-19
1.5343428e-18
7.6388704e-19
-1.688981e-30
7.573112e-19
-1.5080346e-18
7.5071788e-19
-8.295285e-31
-1.4881975e-18
0
0
7.3410518e-19
-4.0562379e-31
7.2739141e-19
-7.240186e-19
-2.1619064e-18
2.1517267e-18
7.138392e-19
-1.4208532e-18
7.0700483e-19
1.1715113e-30
7.0013474e-19
-3.9602046e-34
-2.3089665e-30
6.8976233e-19
-1.3725705e-18
-6.8279748e-19
0
-6.7578798e-19
6.7226503e-19
6.6872893e-19
6.65179e-19
-1.4689858e-30
7.3033281e-31
-7.263446e-31
-1.301669e-18
6.4721195e-19
1.0716071e-30
-1.2798452e-18
9.0417376e-35
6.3257428e-19
1.2577571e-18
1.2503376e-18
-1.24289e-18
-6.8609989e-31
-6.1395494e-19
-6.1018844e-19
1.2128153e-18
-1.2052255e-18
-5.988038e-19