/*--------------------------------*- C++ -*----------------------------------*\
  =========                 |
  \\      /  F ield         | OpenFOAM: The Open Source CFD Toolbox
   \\    /   O peration     | Website:  https://openfoam.org
    \\  /    A nd           | Version:  7
     \\/     M anipulation  |
\*---------------------------------------------------------------------------*/
FoamFile
{
    version     2.0;
    format      ascii;
    class       volVectorField;
    location    "0.00149";
    object      U;
}
// * * * * * * * * * * * * * * * * * * * * * * * * * * * * * * * * * * * * * //

dimensions      [0 1 -1 0 0 0 0];

internalField   nonuniform List<vector> 
5000
(
(8.2937697 -4.0762958e-16 0)
(8.4525154 -4.696637e-16 0)
(8.6088828 0 0)
(8.6451244 0 0)
(8.6880906 2.2626699e-16 0)
(8.7491822 -2.5942171e-31 2.2818975e-16)
(8.8195908 -2.3109741e-16 4.9261377e-31)
(8.8859082 0 -6.9633447e-16)
(8.9499864 0 -2.321929e-16)
(9.0148507 2.3251448e-16 4.6502897e-16)
(9.0803717 4.6597057e-16 4.6597057e-16)
(9.1460279 -2.3340391e-16 -2.3340391e-16)
(9.2116849 -2.3373393e-16 1.9929353e-30)
(9.2774477 2.3404617e-16 2.0621176e-30)
(9.3433619 0 -4.6873827e-16)
(9.4094021 2.3468792e-16 4.6937584e-16)
(9.4755512 -1.9361525e-46 -9.6807623e-47)
(9.5418105 -2.3528743e-16 2.073054e-30)
(9.6081806 0 2.3557365e-16)
(9.674658 -2.358512e-16 -4.7170239e-16)
(9.7412391 2.3611941e-16 -2.3611941e-16)
(9.8079213 2.3637837e-16 0)
(9.8747019 -4.7325641e-16 0)
(9.941578 2.3686888e-16 2.3686888e-16)
(10.008547 2.3710037e-16 -2.0216393e-30)
(10.075606 1.9560835e-30 1.9560835e-30)
(10.142751 -2.3753572e-16 2.3753572e-16)
(10.209982 -2.3773958e-16 -2.3773958e-16)
(10.277293 4.7586839e-16 -2.379342e-16)
(10.344683 -4.1283368e-30 2.3811957e-16)
(10.412149 4.165254e-30 -4.165254e-30)
(10.479688 -2.3846253e-16 2.0332539e-30)
(10.547296 -4.7724019e-16 2.386201e-16)
(10.614972 4.7753673e-16 -2.3876836e-16)
(10.682712 -4.1419942e-30 -2.3890732e-16)
(10.750514 2.0789147e-29 0)
(10.818374 8.2926547e-30 0)
(10.886289 -4.7853639e-16 2.392682e-16)
(10.954257 4.7873954e-16 2.3936977e-16)
(11.022275 4.7892393e-16 -2.3946197e-16)
(11.09034 -4.7908953e-16 4.0168803e-30)
(11.158449 1.6481065e-29 2.3961815e-16)
(11.226599 4.793642e-16 -2.396821e-16)
(11.294787 -2.3973661e-16 4.0541659e-30)
(11.36301 -7.1934495e-16 2.3978165e-16)
(11.431266 2.3981721e-16 -2.3981721e-16)
(11.499551 2.3984328e-16 8.2482748e-30)
(11.567862 1.6429516e-29 -8.2147578e-30)
(11.636196 4.7973369e-16 8.2490852e-30)
(11.704551 0 -4.0904122e-30)
(11.772924 -2.398522e-16 -2.398522e-16)
(11.84131 -3.4081964e-32 0)
(11.909709 2.3979919e-16 0)
(11.978115 -4.795165e-16 0)
(12.046528 8.3798684e-30 0)
(12.114942 4.7929448e-16 0)
(12.183356 -2.3957663e-16 0)
(12.251767 8.2703639e-30 0)
(12.320171 2.394055e-16 0)
(12.388565 0 0)
(12.456946 -2.3919529e-16 0)
(12.525312 -8.1539203e-30 0)
(12.593659 -6.7912485e-32 0)
(12.661984 -2.3880629e-16 2.3880629e-16)
(12.730285 2.3865688e-16 2.3865688e-16)
(12.798557 -8.3375652e-30 -2.3849756e-16)
(12.866798 -2.383283e-16 4.0980871e-30)
(12.935005 2.3814908e-16 1.123971e-47)
(13.003175 2.3795987e-16 -2.3795987e-16)
(13.071304 -2.3776064e-16 0)
(13.13939 -2.3755138e-16 0)
(13.207429 2.3733206e-16 2.3733206e-16)
(13.275419 2.3710264e-16 2.3710264e-16)
(13.343356 -4.7372621e-16 0)
(13.411236 -2.3661343e-16 -2.3661343e-16)
(13.479058 2.3635358e-16 -8.1618511e-30)
(13.546818 0 2.3608354e-16)
(13.614512 -2.3580328e-16 2.3580328e-16)
(13.682137 3.3468376e-32 -2.3551276e-16)
(13.749691 2.3521197e-16 -4.7042394e-16)
(13.81717 -2.3490087e-16 4.6980175e-16)
(13.884571 6.6671489e-32 -1.3334298e-31)
(13.951891 -6.657719e-32 -7.0274299e-16)
(14.019126 -2.3390549e-16 4.6781099e-16)
(14.086273 -2.3355291e-16 2.4294981e-29)
(14.15333 -8.1188779e-30 -4.6637979e-16)
(14.220292 2.3281641e-16 6.9844923e-16)
(14.287158 0 -2.3243244e-16)
(14.353923 2.3203795e-16 -2.3203795e-16)
(14.420584 2.4029422e-29 2.3163291e-16)
(14.487138 8.083057e-30 -2.3121731e-16)
(14.553582 -2.3079111e-16 -2.3079111e-16)
(14.619912 -2.3035429e-16 -8.0201517e-30)
(14.686126 4.5981364e-16 4.5981364e-16)
(14.75222 1.5879424e-29 1.5879424e-29)
(14.81819 -2.2897986e-16 2.2897986e-16)
(14.884034 0 2.2850031e-16)
(14.949749 0 8.0033366e-30)
(15.01533 2.2750897e-16 -1.5842175e-29)
(15.080775 1.5742017e-29 -4.5399426e-16)
(15.146081 -4.5294896e-16 -2.2647448e-16)
(15.211243 2.25941e-16 2.25941e-16)
(15.27626 4.5079336e-16 -3.2030795e-32)
(15.341126 0 -2.2484148e-16)
(15.405841 -2.242754e-16 0)
(15.470399 -2.2369841e-16 2.2369841e-16)
(15.534797 2.231105e-16 7.7679478e-30)
(15.599034 2.2251165e-16 -2.2251165e-16)
(15.663104 0 2.2190184e-16)
(15.727004 0 2.2128107e-16)
(15.790732 -2.2064931e-16 -4.4129861e-16)
(15.854285 -2.2000655e-16 -2.2000655e-16)
(15.917658 0 6.5805837e-16)
(15.980848 2.1868801e-16 2.1868801e-16)
(16.043853 -7.6214241e-30 -6.5403663e-16)
(16.106668 -2.1732538e-16 2.1732538e-16)
(16.169291 2.166275e-16 2.166275e-16)
(16.231717 -6.1367753e-32 1.2273551e-31)
(16.293945 7.5230645e-30 2.1519862e-16)
(16.355971 3.7398983e-47 -6.4340282e-16)
(16.41779 -4.2745109e-16 1.4943136e-29)
(16.4794 9.079561e-32 4.2594487e-16)
(16.540798 2.1220828e-16 -4.2441656e-16)
(16.60198 0 -2.1143309e-16)
(16.662944 2.1064686e-16 2.1064686e-16)
(16.723684 -2.0984961e-16 -2.0984961e-16)
(16.7842 -2.0904135e-16 2.0904135e-16)
(16.844486 4.1644417e-16 4.1644417e-16)
(16.90454 2.0739183e-16 -2.0739183e-16)
(16.964359 -4.1310122e-16 -7.1326835e-30)
(17.023939 -2.0569843e-16 -2.0569843e-16)
(17.083276 2.0483533e-16 -4.0967065e-16)
(17.142369 2.0396131e-16 2.0396131e-16)
(17.201213 2.0307641e-16 2.0307641e-16)
(17.259805 0 2.0218066e-16)
(17.318143 -2.0127408e-16 7.007678e-30)
(17.376222 -2.0035671e-16 6.9472659e-30)
(17.434039 1.9942858e-16 -6.9434241e-30)
(17.491592 6.8825295e-30 -3.9697948e-16)
(17.548877 -1.9754021e-16 -1.9754021e-16)
(17.605892 1.9658005e-16 1.9658005e-16)
(17.662632 1.956093e-16 3.9121861e-16)
(17.719095 0 1.9462801e-16)
(17.775277 -1.9363624e-16 1.9363624e-16)
(17.831176 -1.9263403e-16 -1.3358971e-29)
(17.886789 1.9162144e-16 -3.8324288e-16)
(17.942111 -1.9059854e-16 5.4171363e-32)
(17.997141 1.0775545e-31 -5.3877724e-32)
(18.051875 1.8852205e-16 -4.678315e-46)
(18.106311 -1.8746861e-16 -1.8746861e-16)
(18.160444 1.8640512e-16 1.2927003e-29)
(18.214273 -1.2905235e-29 -2.581047e-29)
(18.267795 -1.8424834e-16 -1.8424834e-16)
(18.321005 1.8315522e-16 1.8315522e-16)
(18.373902 -1.8205238e-16 -1.8205238e-16)
(18.426483 -1.8093993e-16 -6.273999e-30)
(18.478744 1.7981795e-16 1.7981795e-16)
(18.530684 0 -1.7868655e-16)
(18.582298 0 2.5230779e-32)
(18.633585 1.7639588e-16 1.7639588e-16)
(18.684542 1.7523682e-16 0)
(18.735166 -1.7406877e-16 -1.7406877e-16)
(18.785454 -1.7289184e-16 -1.1965302e-29)
(18.835403 1.7170615e-16 3.4341231e-16)
(18.885012 1.182482e-29 -1.7051183e-16)
(18.934278 -1.69309e-16 4.8120513e-32)
(18.983197 1.680978e-16 1.680978e-16)
(19.031768 1.6687837e-16 -1.6687837e-16)
(19.079988 0 1.6565083e-16)
(19.127855 -1.6441535e-16 -1.6441535e-16)
(19.175366 -1.6317206e-16 6.7987639e-29)
(19.22252 0 4.4916251e-29)
(19.269313 1.6066268e-16 -1.6066268e-16)
(19.315744 1.593969e-16 3.187938e-16)
(19.36181 0 0)
(19.407509 -1.56844e-16 1.087697e-29)
(19.45284 -3.23632e-29 3.23632e-29)
(19.4978 1.5426378e-16 -1.5426378e-16)
(19.542387 -1.5296386e-16 -1.5296386e-16)
(19.586599 -1.5165765e-16 -1.0452647e-29)
(19.630435 1.5034534e-16 1.5034534e-16)
(19.673893 1.0292521e-29 -1.4902711e-16)
(19.71697 -1.0159103e-29 -1.0159103e-29)
(19.759665 -6.240286e-32 -6.240286e-32)
(19.801977 -1.4503891e-16 -2.0095987e-29)
(19.843904 1.4369902e-16 2.8739803e-16)
(19.885444 1.9744238e-29 -1.4235422e-16)
(19.926597 -9.6983819e-30 -1.4100474e-16)
(19.967359 9.6052566e-30 9.6052566e-30)
(20.007731 -1.382926e-16 -9.5314916e-30)
(20.047711 0 2.8468483e-29)
(20.087298 0 -9.3627191e-30)
(20.12649 1.3419478e-16 1.3419478e-16)
(20.165287 1.3282186e-16 0)
(20.203687 0 0)
(20.24169 0 0)
(20.279294 -1.2868552e-16 0)
(20.3165 -6.7373857e-47 1.2730168e-16)
(20.353305 1.2591572e-16 -2.6250059e-29)
(20.389711 0 -1.245279e-16)
(20.425715 -1.2313847e-16 -1.2313847e-16)
(20.461317 1.2174769e-16 1.2174769e-16)
(20.496518 3.3351998e-29 1.203558e-16)
(20.531316 -2.3792617e-16 -2.3792617e-16)
(20.565711 1.1756979e-16 -8.1366364e-30)
(20.599704 2.4120569e-29 2.4120569e-29)
(20.633294 1.6311581e-32 1.1478255e-16)
(20.666481 1.1338913e-16 1.1338913e-16)
(20.699265 -1.119962e-16 -1.119962e-16)
(20.731646 1.5717779e-32 0)
(20.763625 1.5116566e-29 -1.0921292e-16)
(20.795201 -7.4620985e-30 -7.4620985e-30)
(20.826375 1.0643487e-16 1.0643487e-16)
(20.857147 0 1.0504849e-16)
(20.887518 -1.0366425e-16 -1.4436945e-29)
(20.917489 -7.0786452e-30 -1.0228242e-16)
(20.94706 -2.800449e-29 2.0180653e-16)
(20.976232 -9.9527071e-17 -9.9527071e-17)
(21.005006 0 -9.815411e-17)
(21.033382 9.6784657e-17 9.6784657e-17)
(21.061362 9.5418986e-17 -9.5418986e-17)
(21.088947 0 0)
(21.116138 0 0)
(21.142935 0 0)
(21.169342 -8.9999582e-17 -8.9999582e-17)
(21.195358 -6.1356662e-30 8.8656905e-17)
(21.220985 8.7319635e-17 1.7463927e-16)
(21.246225 0 -8.5988036e-17)
(21.271079 0 5.8832797e-30)
(21.29555 -8.3342907e-17 -8.3342907e-17)
(21.319639 -8.2029895e-17 -8.2029895e-17)
(21.343347 8.0723595e-17 1.6144719e-16)
(21.366678 7.942426e-17 -2.2573732e-32)
(21.389632 0 2.220649e-32)
(21.412211 -7.6847483e-17 -7.6847483e-17)
(21.434419 -7.5570533e-17 -7.5570533e-17)
(21.456257 7.4301529e-17 1.4860306e-16)
(21.477728 7.304071e-17 -1.0379709e-32)
(21.498833 0 1.4955739e-29)
(21.519575 -7.0544552e-17 -7.0544552e-17)
(21.539958 1.9245916e-29 3.8491831e-29)
(21.559982 4.7215466e-30 9.4430932e-30)
(21.579652 -6.6867388e-17 -6.6867388e-17)
(21.598969 6.566042e-17 6.566042e-17)
(21.617937 6.4463177e-17 0)
(21.636558 0 6.3275861e-17)
(21.654835 -6.2098667e-17 -6.2098667e-17)
(21.672771 8.4684314e-30 -6.0931788e-17)
(21.69037 -5.9775408e-17 5.9775408e-17)
(21.707633 -8.1318199e-30 0)
(21.724564 1.1498972e-16 5.7494862e-17)
(21.741167 -5.6371039e-17 -5.6371039e-17)
(21.757444 7.6642268e-30 -5.5258403e-17)
(21.773399 1.8801788e-29 1.8801788e-29)
(21.789035 3.672622e-30 1.0613462e-16)
(21.804356 5.1989149e-17 1.039783e-16)
(21.819364 -5.0922764e-17 -1.5276829e-16)
(21.834063 -4.9868288e-17 -9.9736577e-17)
(21.848457 0 0)
(21.862549 4.779556e-17 9.559112e-17)
(21.876343 4.6777539e-17 4.6777539e-17)
(21.889842 0 -4.577189e-17)
(21.90305 -4.4778713e-17 -4.4778713e-17)
(21.91597 -4.37981e-17 -4.37981e-17)
(21.928606 8.5660276e-17 8.5660276e-17)
(21.940962 4.1874905e-17 8.374981e-17)
(21.953042 -4.0932475e-17 -4.0932475e-17)
(21.964848 -4.0002913e-17 -8.0005826e-17)
(21.976386 -1.0842373e-29 -1.0842373e-29)
(21.987658 3.8182622e-17 7.6365243e-17)
(21.998669 -3.729199e-17 -3.729199e-17)
(22.009421 2.5253028e-30 5.0506056e-30)
(22.01992 3.5549951e-17 3.5549951e-17)
(22.030169 -3.4698601e-17 -6.9397203e-17)
(22.040171 2.3529952e-30 3.3860391e-17)
(22.049931 -2.3003556e-30 -4.6007112e-30)
(22.059452 9.158451e-33 -3.2223435e-17)
(22.068738 2.1703387e-30 3.1424693e-17)
(22.077793 -3.0639102e-17 -3.0639102e-17)
(22.086621 0 5.9733298e-17)
(22.095225 0 -1.2144465e-29)
(22.10361 2.8361071e-17 -5.6722141e-17)
(22.111778 2.7627888e-17 5.5255776e-17)
(22.119735 0 1.8621995e-30)
(22.127484 0 -2.6200548e-17)
(22.135027 0 0)
(22.142371 0 0)
(22.149517 -2.4156366e-17 -2.4156366e-17)
(22.15647 -1.6197206e-30 2.3500557e-17)
(22.163233 4.5714854e-17 4.5714854e-17)
(22.169811 -9.4758975e-33 -2.22269e-17)
(22.176206 -2.1608894e-17 6.1416172e-33)
(22.182423 -2.1003325e-17 -2.1003325e-17)
(22.188464 2.8337397e-30 -2.0410103e-17)
(22.194335 2.7474416e-30 1.982913e-17)
(22.200037 2.7370545e-33 0)
(22.205575 1.8703535e-17 1.8703535e-17)
(22.210953 1.8158703e-17 1.8158703e-17)
(22.216173 1.7625697e-17 0)
(22.221239 -3.4208812e-17 -3.4208812e-17)
(22.226154 -4.9784126e-17 -1.6594709e-17)
(22.230923 1.6096483e-17 3.2192965e-17)
(22.235547 3.1219205e-17 -1.0802916e-30)
(22.240031 0 4.3013242e-33)
(22.244378 -1.4669362e-17 -1.4669362e-17)
(22.248591 -1.4215734e-17 -1.4215734e-17)
(22.252672 1.377292e-17 1.377292e-17)
(22.256626 -3.7916777e-33 -1.334078e-17)
(22.260456 5.5077736e-33 1.291917e-17)
(22.264163 -3.5549729e-33 -7.1099458e-33)
(22.267753 -1.2106968e-17 -2.4213935e-17)
(22.271226 -1.171608e-17 1.171608e-17)
(22.274587 1.1335135e-17 1.1335135e-17)
(22.277838 2.1927964e-17 1.0963982e-17)
(22.280982 -1.0602469e-17 1.4705407e-30)
(22.284022 -1.6727625e-47 -1.0250441e-17)
(22.286961 -9.9077444e-18 0)
(22.2898 -2.6531286e-30 0)
(22.292544 1.8499436e-17 9.2497178e-18)
(22.295194 0 -1.2404075e-30)
(22.297753 0 2.394358e-30)
(22.300224 -1.6657485e-17 1.1575466e-30)
(22.302609 4.4643936e-30 -8.0387352e-18)
(22.304911 1.5513915e-17 7.7569577e-18)
(22.307131 0 -1.0634338e-33)
(22.309273 -7.2174551e-18 -7.2174551e-18)
(22.311338 -6.9594153e-18 0)
(22.313329 6.7089725e-18 0)
(22.315248 -9.1886964e-34 0)
(22.317097 8.6500843e-31 0)
(22.318878 -8.5288747e-34 0)
(22.320594 -5.7800463e-18 0)
(22.322245 5.5652503e-18 0)
(22.323836 5.3571228e-18 5.3571228e-18)
(22.325366 0 0)
(22.326838 -4.9602649e-18 -4.9602649e-18)
(22.328255 6.6243848e-31 0)
(22.329617 4.5882741e-18 4.5882741e-18)
(22.330926 -8.8224728e-18 1.2236588e-30)
(22.332185 1.1761519e-30 -4.239976e-18)
(22.333394 4.0743514e-18 0)
(22.334556 1.086901e-30 0)
(22.335672 7.5188856e-18 3.7594428e-18)
(22.336744 -7.2197619e-18 5.0119605e-31)
(22.337773 -3.465399e-18 -3.465399e-18)
(22.33876 3.3258631e-18 0)
(22.339708 4.5348825e-34 0)
(22.340616 3.0611003e-18 3.0611003e-18)
(22.341488 0 2.935615e-18)
(22.342323 0 -2.8145584e-18)
(22.343124 -2.6978057e-18 -2.6978057e-18)
(22.343892 3.5856674e-31 0)
(22.344627 4.9534534e-18 2.4767267e-18)
(22.345331 -3.3710454e-34 -3.3710454e-34)
(22.346005 -6.8142814e-18 -2.2714271e-18)
(22.346651 2.1744067e-18 2.1744067e-18)
(22.347268 2.0809904e-18 2.0809904e-18)
(22.347859 -3.9821382e-18 -1.9910691e-18)
(22.348424 1.9045352e-18 -1.9045352e-18)
(22.348965 -1.8212855e-18 0)
(22.349481 -3.4824329e-18 1.7412164e-18)
(22.349975 1.6642288e-18 1.6642288e-18)
(22.350447 1.5902237e-18 -1.5902237e-18)
(22.350898 1.5191057e-18 -1.5191057e-18)
(22.351328 -1.450782e-18 0)
(22.351739 -6.1914017e-48 1.38516e-18)
(22.352131 1.3221519e-18 1.3221519e-18)
(22.352505 -1.2616701e-18 -1.2616701e-18)
(22.352862 1.2036302e-18 -1.2036302e-18)
(22.353203 -1.1479489e-18 0)
(22.353527 -3.0331132e-31 0)
(22.353836 -2.9653589e-34 0)
(22.354131 -9.9426304e-19 0)
(22.354412 1.8944653e-18 0)
(22.354679 -9.0217909e-19 0)
(22.354934 -2.3853613e-31 0)
(22.355176 2.2683295e-31 0)
(22.355406 7.7818411e-19 7.7818411e-19)
(22.355626 1.480706e-18 2.8499035e-47)
(22.355834 -2.1124947e-18 -7.0416491e-19)
(22.356032 -1.8573304e-31 0)
(22.356221 3.531123e-31 0)
(22.3564 -1.6761383e-31 0)
(22.35657 1.1493051e-18 5.7465256e-19)
(22.356731 -1.091597e-18 7.5701131e-32)
(22.356884 1.4375956e-31 -5.182469e-19)
(22.35703 9.8388974e-19 4.9194487e-19)
(22.357168 0 -6.4816451e-32)
(22.357298 0 6.2938657e-35)
(22.357423 -4.2004335e-19 5.831884e-32)
(22.35754 5.5236852e-32 -3.9825286e-19)
(22.357652 3.7747346e-19 3.7747346e-19)
(22.357757 3.5766281e-19 -3.5766281e-19)
(22.357857 -3.3877731e-19 1.8823972e-31)
(22.357952 -9.6232575e-19 3.2077525e-19)
(22.358041 3.0361621e-19 -3.0361621e-19)
(22.358126 2.8725953e-19 0)
(22.358206 7.7212608e-35 0)
(22.358281 2.5680151e-19 2.5680151e-19)
(22.358353 0 3.3686078e-32)
(22.35842 -4.5820458e-19 -2.2910229e-19)
(22.358484 -4.3239593e-19 2.1619796e-19)
(22.358544 2.0387878e-19 2.0387878e-19)
(22.3586 3.8422107e-19 0)
(22.358653 1.8086309e-19 -1.8086309e-19)
(22.358703 -3.4020992e-19 -1.7010496e-19)
(22.35875 -3.1961467e-19 1.5980734e-19)
(22.358794 2.9988567e-19 4.1614833e-32)
(22.358835 2.8097004e-19 -1.7833871e-48)
(22.358874 0 1.8245034e-32)
(22.35891 -2.4539045e-19 -1.2269522e-19)
(22.358943 1.1432077e-19 1.1432077e-19)
(22.358974 2.1253801e-19 6.0827141e-48)
(22.359003 -9.8524449e-20 1.367914e-32)
(22.35903 -9.1075304e-20 9.1075304e-20)
(22.359054 1.1924569e-35 0)
(22.359076 -1.0694588e-32 0)
(22.359097 -7.0419133e-20 -7.0419133e-20)
(22.359116 6.4084861e-20 -9.1070065e-36)
(22.359132 5.8025929e-20 2.4144231e-32)
(22.359147 -5.2240243e-20 -5.2240243e-20)
(22.359161 6.4823826e-33 0)
(22.359174 6.0627716e-36 0)
(22.359186 5.5825481e-33 4.0249682e-20)
(22.359196 3.7224857e-20 -1.0320732e-32)
(22.359206 -3.5197432e-20 -3.5197432e-20)
(22.35922 1.6292879e-32 0)
(22.359238 6.1779265e-33 0)
(22.359249 1.1821152e-32 0)
(22.359256 4.2029471e-20 4.2029471e-20)
(22.359275 -5.0520529e-20 -7.1793989e-36)
(22.3593 7.89855e-33 -5.6889564e-20)
(22.359317 1.4681573e-32 5.2953556e-20)
(22.359326 7.3947842e-36 -5.2036168e-20)
(22.359344 1.2103335e-19 1.6821476e-32)
(22.359372 6.6951911e-20 1.3390382e-19)
(22.359393 -6.4037032e-20 -6.4037032e-20)
(22.359407 -1.2194663e-19 -2.5396614e-32)
(22.359423 9.082831e-33 -9.082831e-33)
(22.359449 1.401458e-19 9.7289247e-33)
(22.359474 6.8184762e-20 6.8184762e-20)
(22.359492 -1.2917347e-19 0)
(22.359509 -6.6250582e-20 0)
(22.359532 6.9783917e-20 -6.9783917e-20)
(22.359557 6.9669088e-20 -9.6728597e-33)
(22.359577 1.8516589e-32 1.8516589e-32)
(22.359595 -6.6014701e-20 9.542422e-50)
(22.359615 0 6.7614937e-20)
(22.359637 0 -6.7571596e-20)
(22.359658 -6.5147553e-20 -6.5147553e-20)
(22.359676 0 0)
(22.359694 6.4051706e-20 6.4051706e-20)
(22.359714 -6.3964865e-20 8.8808851e-33)
(22.359733 -8.8129476e-36 -6.2015606e-20)
(22.359751 1.6593538e-32 0)
(22.359768 0 0)
(22.359786 5.7566075e-20 5.7566075e-20)
(22.359804 -5.5766977e-20 -1.5849928e-35)
(22.35982 -5.3482852e-20 -1.1258785e-49)
(22.359836 1.024804e-19 5.1240202e-20)
(22.35985 4.9046505e-20 -4.9046505e-20)
(22.359864 -4.6731121e-20 6.4748695e-33)
(22.359878 0 -6.1394833e-33)
(22.359892 0 1.1496423e-32)
(22.359904 3.830415e-20 3.830415e-20)
(22.359915 -9.7057889e-33 -3.4935252e-20)
(22.359924 -3.1385377e-20 8.7150945e-33)
(22.359933 0 -7.6775875e-33)
(22.359941 0 6.7653972e-33)
(22.359948 2.1649774e-20 2.1649774e-20)
(22.359954 -7.8525559e-33 -1.8846333e-20)
(22.359962 -1.9476237e-20 5.4081636e-33)
(22.359975 0 -3.3872386e-33)
(22.359983 0 0)
(22.359985 0 2.0587756e-20)
(22.359995 0 -2.6386618e-20)
(22.360015 0 4.9509e-33)
(22.360028 0 -4.7218969e-36)
(22.360033 0 3.9071205e-33)
(22.360042 0 -4.9593226e-33)
(22.360062 -9.3684006e-20 -4.6842003e-20)
(22.360079 -2.5070486e-32 4.5165863e-20)
(22.360085 3.7158901e-20 3.7158901e-20)
(22.360091 -3.8985847e-20 -3.8985847e-20)
(22.36011 4.6651825e-20 -4.6651825e-20)
(22.360131 -4.7081245e-20 0)
(22.360145 1.1467775e-32 4.1256285e-20)
(22.360153 4.1513398e-20 4.1513398e-20)
(22.36017 1.3198405e-32 0)
(22.36019 4.9498521e-20 -4.9498521e-20)
(22.360205 0 6.4022744e-33)
(22.360216 0 -6.3367105e-36)
(22.360231 -4.6954515e-20 -6.5124945e-33)
(22.360249 -1.3357216e-32 4.8102891e-20)
(22.360265 4.631027e-20 -4.631027e-20)
(22.360279 0 -6.1853777e-33)
(22.360292 0 1.2600181e-32)
(22.360307 0 4.6355416e-20)
(22.360323 0 4.5467406e-20)
(22.360335 0 -8.7795542e-20)
(22.360347 0 6.2713594e-36)
(22.360361 0 -6.2725138e-33)
(22.360375 -8.9449842e-20 -4.4724921e-20)
(22.360389 3.5519253e-32 4.2667211e-20)
(22.360401 8.2293233e-20 -5.7127983e-33)
(22.360413 -4.089022e-20 -4.089022e-20)
(22.360425 -5.7784854e-36 0)
(22.360438 -3.9641935e-20 0)
(22.36045 2.1094591e-32 0)
(22.360462 7.3687464e-20 3.6843732e-20)
(22.360473 3.6150721e-20 3.6150721e-20)
(22.360484 4.5439803e-50 -3.5373343e-20)
(22.360495 -1.029934e-19 -3.4331133e-20)
(22.360506 0 0)
(22.360516 6.4630476e-20 3.2315238e-20)
(22.360525 0 3.148134e-20)
(22.360535 0 -3.0630252e-20)
(22.360544 -5.945223e-20 -2.9726115e-20)
(22.360554 7.9863404e-33 0)
(22.360563 8.3950151e-20 2.7983384e-20)
(22.360572 -2.7390729e-20 2.7390729e-20)
(22.360581 -2.6749289e-20 -2.6749289e-20)
(22.36059 2.5866001e-20 -7.1824738e-33)
(22.360599 -2.5356916e-20 2.5356916e-20)
(22.360608 2.532346e-20 0)
(22.360618 6.8746318e-33 0)
(22.360626 -2.3712671e-20 0)
(22.360634 2.3555075e-20 0)
(22.360644 0 -2.4090253e-20)
(22.360654 2.3417641e-20 6.4959572e-33)
(22.360663 -2.2121956e-20 2.2121956e-20)
(22.360671 -4.3732637e-20 -2.1866318e-20)
(22.36068 2.1772739e-20 -3.0229282e-33)
(22.360688 2.0956763e-20 2.9126161e-33)
(22.360696 2.0393447e-20 -8.2681827e-51)
(22.360704 2.1217006e-20 -2.1217006e-20)
(22.360713 -4.5740276e-20 -2.2870138e-20)
(22.360723 -2.3023879e-20 4.6047759e-20)
(22.360729 2.1064086e-20 2.9245387e-33)
(22.360734 0 -2.9255991e-33)
(22.360743 -2.4388443e-20 2.4388443e-20)
(22.360755 2.6069757e-20 0)
(22.360763 2.3131784e-20 -2.3131784e-20)
(22.360768 -6.2608829e-20 -2.086961e-20)
(22.360775 -6.7157968e-36 2.3629109e-20)
(22.360785 5.3965582e-20 7.4849151e-33)
(22.360795 -2.5719346e-20 -2.5719346e-20)
(22.3608 -3.0377945e-33 0)
(22.360806 -2.1726661e-20 0)
(22.360815 7.0411857e-36 2.477397e-20)
(22.360826 5.1050002e-20 -3.5402651e-33)
(22.360834 -2.2479674e-20 -2.2479674e-20)
(22.36084 0 0)
(22.360848 5.9865159e-33 2.1559038e-20)
(22.360859 3.2888449e-36 -3.2888449e-36)
(22.360869 2.2730478e-20 6.3118015e-33)
(22.360877 -2.1103915e-20 2.9270695e-33)
(22.360887 5.7414706e-33 -2.0676565e-20)
(22.360895 3.0330188e-33 2.18678e-20)
(22.360905 3.3115151e-36 -3.3115151e-36)
(22.360914 2.3795224e-20 6.6074602e-33)
(22.360923 -2.3599544e-20 2.3599544e-20)
(22.360932 1.6761372e-50 -2.3653517e-20)
(22.360941 6.8683276e-33 -6.8683276e-33)
(22.360951 3.7751965e-36 -3.7751965e-36)
(22.360962 5.6141104e-20 3.8973168e-33)
(22.36097 4.0882978e-33 2.9476269e-20)
(22.360976 -3.1574614e-20 -3.1574614e-20)
(22.360981 0 0)
(22.360984 0 2.0676605e-32)
(22.360988 4.1970348e-20 5.8212008e-33)
(22.360993 1.8366184e-32 1.8366184e-32)
(22.360984 -4.0482997e-20 5.7529799e-36)
(22.360966 3.6111578e-20 3.6111578e-20)
(22.360965 -4.797722e-33 -3.455575e-20)
(22.360965 -1.5884524e-48 -1.5884524e-48)
(22.360963 4.1413729e-33 4.1413729e-33)
(22.360969 -2.7908949e-20 -7.7497597e-33)
(22.360974 -2.6302182e-20 3.6517963e-33)
(22.360975 -3.0685214e-33 -4.424754e-20)
(22.360978 2.1164009e-20 2.1164009e-20)
(22.360986 0 2.0537599e-20)
(22.360992 0 1.9303384e-33)
(22.360999 -5.5215053e-21 -7.6660608e-34)
(22.361009 1.4611935e-21 -2.922387e-21)
(22.361023 -1.5049193e-33 1.807772e-21)
(22.361038 -2.7733901e-21 2.7733901e-21)
(22.361053 3.043416e-21 -2.3794555e-51)
(22.361069 0 0)
(22.361085 -3.6656649e-21 3.6838005e-50)
(22.361101 -4.391377e-21 4.391377e-21)
(22.361118 4.7532814e-21 -4.7532814e-21)
(22.361128 4.9969966e-21 2.0905876e-50)
(22.361137 0 7.9579161e-34)
(22.361147 -6.6797329e-21 9.4924713e-37)
(22.361155 -7.5826131e-21 7.5826131e-21)
(22.361164 1.7100378e-20 -1.7100378e-20)
(22.361173 9.3932099e-21 -2.6083075e-33)
(22.361182 -1.0007041e-20 1.0007041e-20)
(22.36119 -1.0579204e-20 -1.4673138e-33)
(22.361197 -1.555485e-33 1.555485e-33)
(22.361204 -1.1688523e-20 -1.1688523e-20)
(22.361211 -3.2970232e-33 1.1873459e-20)
(22.361218 2.3762376e-20 -5.1101312e-51)
(22.361225 0 4.9777589e-33)
(22.361231 0 -3.5320273e-33)
(22.361238 0 3.8224223e-33)
(22.36125 -1.5002978e-20 4.1660284e-33)
(22.361256 -1.5200648e-20 4.5033578e-50)
(22.36125 0 0)
(22.361243 1.847517e-20 -1.847517e-20)
(22.361246 2.7366561e-33 0)
(22.361249 -2.0800936e-20 0)
(22.361255 0 2.1087261e-20)
(22.361268 0 6.1612093e-33)
(22.361268 2.0911607e-20 -2.0911607e-20)
(22.361257 2.9196184e-33 0)
(22.361247 -3.2119708e-33 0)
(22.361253 2.5365822e-20 5.0731644e-20)
(22.361256 -2.5631635e-20 2.1337615e-32)
(22.361251 1.073332e-32 -5.1590865e-20)
(22.361248 2.6904072e-20 2.6904072e-20)
(22.361254 0 -3.9214581e-36)
(22.361255 2.7237581e-20 3.7816672e-33)
(22.361248 3.7593958e-33 2.7077171e-20)
(22.361246 -2.8949873e-20 0)
(22.361252 2.9366579e-20 0)
(22.361252 -2.836392e-20 0)
(22.361243 -2.4316103e-20 2.4316103e-20)
(22.361229 2.1764296e-20 6.0373262e-33)
(22.361225 0 -2.2550646e-20)
(22.361227 -2.3695053e-20 0)
(22.361226 -2.3867206e-20 0)
(22.361227 2.1676933e-20 2.1676933e-20)
(22.361226 1.9295146e-20 -2.7420052e-36)
(22.361225 0 -1.7744777e-20)
(22.361228 1.7446548e-20 0)
(22.361232 -1.4494676e-20 0)
(22.361232 -7.9302487e-21 7.9302487e-21)
(22.361235 3.6410155e-21 1.0100027e-33)
(22.361241 4.9896827e-21 6.9312233e-34)
(22.361249 -9.5500272e-34 -4.7750136e-34)
(22.361257 1.4018776e-21 4.6729254e-22)
(22.361266 -8.8560475e-50 -2.8300279e-21)
(22.361276 -4.1359216e-21 1.1478754e-33)
(22.361286 -9.4949979e-21 -1.3176113e-33)
(22.361296 2.8783382e-33 1.4391691e-33)
(22.361305 1.0674306e-20 5.3371532e-21)
(22.361314 -5.0977589e-21 0)
(22.361324 4.7287479e-21 0)
(22.361334 -4.3537574e-21 -4.3537574e-21)
(22.361343 -3.9601103e-21 -4.7567924e-49)
(22.361353 7.3277047e-21 3.6638524e-21)
(22.361362 0 0)
(22.361368 0 0)
(22.361373 -5.3877853e-21 -2.6938926e-21)
(22.361378 -1.829999e-49 -3.6599981e-49)
(22.361383 3.3009162e-21 1.6504581e-21)
(22.361388 0 0)
(22.361393 0 0)
(22.361397 -2.4078724e-22 -1.2039362e-22)
(22.361401 -2.8522565e-49 -5.704513e-49)
(22.361404 -2.4786857e-21 -1.2393428e-21)
(22.361407 0 0)
(22.36141 0 0)
(22.361413 8.7775931e-21 4.3887966e-21)
(22.361416 4.7389724e-21 -6.7344848e-37)
(22.361419 -9.2180956e-21 -4.6090478e-21)
(22.36142 -5.4360766e-21 5.4360766e-21)
(22.361421 0 -1.8019734e-33)
(22.361424 1.346654e-20 1.870652e-33)
(22.361426 -3.691863e-33 -1.8459315e-33)
(22.361427 -1.395224e-20 -6.9761199e-21)
(22.361427 7.2433666e-21 0)
(22.361427 0 0)
(22.361427 -5.173168e-21 0)
(22.361428 2.9133692e-21 0)
(22.36143 -2.4196545e-37 0)
(22.361432 -1.7777621e-21 1.7777621e-21)
(22.361434 1.8050645e-21 -5.0097398e-34)
(22.361437 -1.2291731e-21 -1.2291731e-21)
(22.361439 -4.6491986e-22 0)
(22.361443 -7.0760335e-23 0)
(22.361446 -1.7998772e-22 0)
(22.36145 -3.296111e-35 0)
(22.361455 -5.3976556e-22 0)
(22.36146 1.1291057e-21 0)
(22.361459 3.8582675e-34 0)
(22.361454 -1.2748708e-21 1.2748708e-21)
(22.361452 1.7086861e-21 -9.4845064e-34)
(22.361453 -2.1167457e-21 -2.1167457e-21)
(22.361454 -1.8138043e-21 0)
(22.361454 1.6140934e-21 0)
(22.361455 1.7721096e-21 0)
(22.361456 -6.1091564e-34 0)
(22.361457 -2.6353391e-21 0)
(22.361458 2.8519096e-21 0)
(22.361459 -4.6747392e-37 0)
(22.361461 -4.0567353e-21 4.0567353e-21)
(22.361463 4.5577092e-21 -1.2649375e-33)
(22.361463 -4.4175902e-21 -4.4175902e-21)
(22.361461 -3.9961197e-21 0)
(22.361458 3.5880336e-21 0)
(22.361457 7.2961412e-21 3.6480706e-21)
(22.361457 -2.1090371e-33 -1.0545185e-33)
(22.361458 -7.3266279e-21 -3.6633139e-21)
(22.361457 3.0741901e-21 0)
(22.361454 -2.974533e-37 0)
(22.36145 -2.2639133e-21 0)
(22.361448 -1.3522794e-37 4.7579103e-22)
(22.361448 2.4557027e-22 6.8224875e-35)
(22.361448 0 -2.4288292e-22)
(22.361447 1.5182292e-22 0)
(22.361446 0 0)
(22.361445 -2.2137444e-21 0)
(22.361445 0 0)
(22.361445 0 0)
(22.361445 0 0)
(22.361445 -3.409545e-21 0)
(22.361446 2.3866922e-50 -4.0759258e-21)
(22.361446 4.4618061e-21 6.3406079e-37)
(22.361447 0 4.9522475e-21)
(22.361448 5.0610928e-21 0)
(22.361447 -1.4493383e-33 0)
(22.361446 -5.0467362e-21 0)
(22.361447 0 0)
(22.361446 0 0)
(22.361443 0 0)
(22.361444 -4.3427157e-21 0)
(22.361445 1.2106456e-33 -4.3598574e-21)
(22.361443 4.2443452e-21 -6.0315773e-37)
(22.361439 0 4.4280275e-21)
(22.361438 3.6530492e-21 0)
(22.361439 8.0344593e-34 0)
(22.361439 -3.039625e-21 0)
(22.361436 0 -3.5367306e-21)
(22.361432 3.6855661e-21 2.046293e-33)
(22.361429 -2.6394325e-21 2.6394325e-21)
(22.361431 9.9801284e-34 0)
(22.36143 1.9701516e-21 -1.9701516e-21)
(22.361427 -2.5751242e-21 -7.154267e-34)
(22.361422 0 2.803575e-21)
(22.361415 -1.829109e-21 0)
(22.361416 -2.8002901e-34 0)
(22.361416 1.1688332e-21 -1.1688332e-21)
(22.361415 0 -1.7896712e-21)
(22.361413 2.472392e-21 2.472392e-21)
(22.36141 -2.8354571e-21 2.8354571e-21)
(22.361407 -1.6076505e-33 0)
(22.361402 2.6231198e-21 0)
(22.361402 -1.0578293e-33 0)
(22.361402 -2.4448519e-37 0)
(22.3614 6.4909654e-34 2.3363738e-21)
(22.361396 -4.2579241e-37 -4.2579241e-37)
(22.361392 -3.2459032e-21 -6.4918064e-21)
(22.361389 0 -3.175254e-21)
(22.361387 3.0923137e-21 6.1846273e-21)
(22.361386 -8.6083622e-34 6.2033757e-21)
(22.361384 -8.6639591e-34 -3.12172e-21)
(22.361382 -1.074472e-50 -3.2147251e-21)
(22.36138 -9.5559295e-34 0)
(22.361377 0 0)
(22.361373 -7.6070701e-21 0)
(22.361371 -1.0766965e-33 0)
(22.361369 3.9920551e-21 -3.9920551e-21)
(22.361367 -4.2480308e-21 -1.1801973e-33)
(22.361363 1.2777056e-33 4.6037142e-21)
(22.361361 4.8116554e-21 0)
(22.361359 4.8855396e-21 0)
(22.361357 1.42159e-33 0)
(22.361355 -1.5334783e-33 0)
(22.361351 5.9162623e-21 0)
(22.36135 -6.1732556e-21 0)
(22.361349 -6.2800901e-21 0)
(22.361348 0 0)
(22.361345 -7.1412573e-21 0)
(22.361343 2.1018332e-33 0)
(22.36134 7.751289e-21 0)
(22.361339 0 0)
(22.361339 0 0)
(22.361338 0 0)
(22.361337 -1.5945908e-20 -7.9729541e-21)
(22.361336 9.3464299e-33 4.6732149e-33)
(22.361334 1.7324941e-20 8.6624707e-21)
(22.361331 0 0)
(22.361329 0 0)
(22.361328 0 7.8982403e-21)
(22.361328 0 -2.1192216e-33)
(22.361328 0 1.0962807e-36)
(22.361327 0 -7.6247219e-21)
(22.361326 0 -8.1272143e-21)
(22.361324 -1.6776545e-20 -4.6573207e-33)
(22.361323 4.6762406e-33 2.3381203e-33)
(22.36132 1.6553972e-20 8.2769861e-21)
(22.361319 7.3270942e-21 0)
(22.361319 -6.6018542e-21 0)
(22.361318 -6.797646e-21 0)
(22.361317 2.0073541e-33 0)
(22.361315 4.182849e-33 0)
(22.361313 7.6447798e-21 -7.6447798e-21)
(22.361311 -7.5195474e-21 4.1749888e-33)
(22.36131 7.1072112e-21 7.1072112e-21)
(22.361309 6.8197393e-21 0)
(22.361308 -6.8529472e-21 0)
(22.361305 -7.0618813e-21 0)
(22.361304 3.9378827e-33 0)
(22.361303 6.7710375e-21 0)
(22.361302 6.6550055e-21 0)
(22.361299 -1.8988895e-33 0)
(22.361296 -6.9261307e-21 -6.9261307e-21)
(22.361295 -6.1766259e-21 3.4284967e-33)
(22.361295 5.6296745e-21 5.6296745e-21)
(22.361294 6.0145037e-21 0)
(22.361293 -6.5326513e-21 0)
(22.361291 6.835266e-21 0)
(22.361288 0 0)
(22.361286 -7.0001338e-21 0)
(22.361283 -6.7853317e-21 0)
(22.361283 1.7819927e-33 0)
(22.361283 5.964317e-21 -5.964317e-21)
(22.361282 -6.0052207e-21 5.0008841e-33)
(22.36128 6.4396228e-21 6.4396228e-21)
(22.361277 6.5911155e-21 0)
(22.361275 -6.5400337e-21 0)
(22.361273 6.360632e-21 0)
(22.361272 1.67125e-33 0)
(22.361271 -5.8174714e-21 0)
(22.361269 -5.8303428e-21 0)
(22.361266 -8.3655731e-37 0)
(22.361265 1.1500266e-20 0)