/*--------------------------------*- C++ -*----------------------------------*\
  =========                 |
  \\      /  F ield         | OpenFOAM: The Open Source CFD Toolbox
   \\    /   O peration     | Website:  https://openfoam.org
    \\  /    A nd           | Version:  7
     \\/     M anipulation  |
\*---------------------------------------------------------------------------*/
FoamFile
{
    version     2.0;
    format      ascii;
    class       volScalarField;
    location    "0.00025";
    object      T;
}
// * * * * * * * * * * * * * * * * * * * * * * * * * * * * * * * * * * * * * //

dimensions      [0 0 0 1 0 0 0];

internalField   nonuniform List<scalar> 
5000
(
289.35994
289.37432
289.38016
289.39178
289.39761
289.40952
289.41591
289.42631
289.43432
289.44353
289.45221
289.46109
289.4699
289.47873
289.48756
289.49638
289.5052
289.51401
289.52283
289.53164
289.54044
289.54925
289.55805
289.56685
289.57565
289.58445
289.59324
289.60204
289.61083
289.61962
289.6284
289.63719
289.64597
289.65475
289.66353
289.67231
289.68109
289.68986
289.69863
289.70741
289.71617
289.72494
289.73371
289.74247
289.75123
289.75999
289.76875
289.7775
289.78626
289.79501
289.80376
289.8125
289.82125
289.82999
289.83873
289.84747
289.85621
289.86494
289.87367
289.8824
289.89113
289.89986
289.90858
289.9173
289.92602
289.93474
289.94346
289.95217
289.96088
289.96959
289.9783
289.98701
289.99571
290.00442
290.01312
290.02182
290.03051
290.03921
290.0479
290.05659
290.06528
290.07397
290.08266
290.09134
290.10003
290.10871
290.11739
290.12606
290.13474
290.14341
290.15208
290.16075
290.16942
290.17809
290.18675
290.19542
290.20408
290.21274
290.2214
290.23005
290.23871
290.24736
290.25601
290.26466
290.27331
290.28195
290.2906
290.29924
290.30788
290.31652
290.32515
290.33379
290.34242
290.35105
290.35968
290.36831
290.37694
290.38556
290.39418
290.4028
290.41142
290.42004
290.42866
290.43727
290.44588
290.45449
290.4631
290.47171
290.48031
290.48892
290.49752
290.50612
290.51472
290.52331
290.53191
290.5405
290.54909
290.55768
290.56627
290.57485
290.58344
290.59202
290.6006
290.60918
290.61776
290.62633
290.6349
290.64348
290.65205
290.66062
290.66918
290.67775
290.68631
290.69487
290.70343
290.71199
290.72054
290.7291
290.73765
290.7462
290.75475
290.7633
290.77185
290.78039
290.78893
290.79747
290.80601
290.81455
290.82308
290.83162
290.84015
290.84868
290.85721
290.86573
290.87426
290.88278
290.8913
290.89982
290.90834
290.91686
290.92537
290.93388
290.9424
290.95091
290.95941
290.96792
290.97642
290.98492
290.99343
291.00192
291.01042
291.01892
291.02741
291.0359
291.04439
291.05288
291.06137
291.06985
291.07834
291.08682
291.0953
291.10378
291.11225
291.12073
291.1292
291.13767
291.14614
291.15461
291.16307
291.17154
291.18
291.18846
291.19692
291.20538
291.21383
291.22229
291.23074
291.23919
291.24764
291.25609
291.26453
291.27298
291.28142
291.28986
291.2983
291.30673
291.31517
291.3236
291.33203
291.34046
291.34889
291.35731
291.36574
291.37416
291.38258
291.391
291.39942
291.40784
291.41625
291.42466
291.43307
291.44148
291.44989
291.45829
291.4667
291.4751
291.4835
291.4919
291.50029
291.50869
291.51708
291.52547
291.53386
291.54225
291.55064
291.55902
291.56741
291.57579
291.58417
291.59254
291.60092
291.60929
291.61767
291.62604
291.63441
291.64277
291.65114
291.6595
291.66787
291.67623
291.68458
291.69294
291.7013
291.70965
291.718
291.72635
291.7347
291.74305
291.75139
291.75974
291.76808
291.77642
291.78475
291.79309
291.80143
291.80976
291.81809
291.82642
291.83475
291.84307
291.8514
291.85972
291.86804
291.87636
291.88468
291.893
291.90131
291.90962
291.91793
291.92624
291.93455
291.94286
291.95116
291.95947
291.96777
291.97607
291.98437
291.99266
292.00096
292.00925
292.01754
292.02584
292.03413
292.04241
292.0507
292.05899
292.06727
292.07555
292.08383
292.09211
292.10039
292.10867
292.11694
292.12522
292.13349
292.14176
292.15003
292.1583
292.16657
292.17483
292.1831
292.19136
292.19962
292.20789
292.21614
292.2244
292.23266
292.24091
292.24917
292.25742
292.26567
292.27391
292.28216
292.2904
292.29864
292.30688
292.31511
292.32335
292.33158
292.3398
292.34802
292.35624
292.36445
292.37266
292.38087
292.38906
292.39726
292.40544
292.41362
292.42179
292.42995
292.43811
292.44625
292.45438
292.46251
292.47062
292.47871
292.4868
292.49487
292.50292
292.51096
292.51898
292.52697
292.53495
292.54291
292.55084
292.55875
292.56664
292.57449
292.58232
292.59012
292.59788
292.60561
292.61331
292.62097
292.62858
292.63616
292.64369
292.65118
292.65862
292.66602
292.67336
292.68065
292.68788
292.69506
292.70217
292.70923
292.71622
292.72315
292.73
292.73679
292.74351
292.75015
292.75672
292.76321
292.76962
292.77595
292.78219
292.78835
292.79443
292.80041
292.80631
292.81211
292.81782
292.82343
292.82895
292.83438
292.8397
292.84493
292.85005
292.85508
292.86
292.86482
292.86954
292.87416
292.87867
292.88308
292.88738
292.89158
292.89568
292.89967
292.90356
292.90735
292.91104
292.91462
292.9181
292.92148
292.92476
292.92795
292.93103
292.93402
292.93691
292.93971
292.94242
292.94503
292.94756
292.95
292.95235
292.95461
292.95679
292.95889
292.96091
292.96285
292.96472
292.96651
292.96823
292.96987
292.97145
292.97296
292.97441
292.97579
292.97711
292.97837
292.97957
292.98072
292.98181
292.98285
292.98384
292.98479
292.98568
292.98653
292.98734
292.98811
292.98884
292.98952
292.99017
292.99079
292.99137
292.99192
292.99244
292.99293
292.9934
292.99383
292.99424
292.99463
292.99499
292.99533
292.99565
292.99596
292.99624
292.9965
292.99675
292.99698
292.9972
292.9974
292.99759
292.99777
292.99793
292.99809
292.99823
292.99837
292.99849
292.99861
292.99871
292.99881
292.99891
292.99899
292.99907
292.99915
292.99922
292.99928
292.99934
292.99939
292.99944
292.99949
292.99953
292.99957
292.99961
292.99964
292.99967
292.9997
292.99973
292.99975
292.99977
292.99979
292.99981
292.99983
292.99984
292.99986
292.99987
292.99988
292.99989
292.9999
292.99991
292.99992
292.99993
292.99993
292.99994
292.99995
292.99995
292.99996
292.99996
292.99996
292.99997
292.99997
292.99997
292.99998
292.99998
292.99998
292.99998
292.99998
292.99999
292.99999
292.99999
292.99999
292.99999
292.99999
292.99999
292.99999
292.99999
292.99999
293
293
293
293
293
293
293
293
293
293
293
293
293
293
293
293
293
293
293
293
293
293
293
293
293
293
293
293
293
293
293
293
293
293
293
293
293
293
293
293
293
293
293
293
293
293
293
293
293
293
293
293
293
293
293
293
293
293
293
293
293
293
293
293
293
293
293
293
293
293
293
293
293
293
293
293
293
293
293
293
293
293
293
293
293
293
293
293
293
293
293
293
293
293
293
293
293
293
293
293
293
293
293
293
293
293
293
293
293
293
293
293
293
293
293
293
293
293
293
293
293
293
293
293
293
293
293
293
293
293
293
293
293
293
293
293
293
293
293
293
293
293
293
293
293
293
293
293
293
293
293
293
293
293
293
293
293
293
293
293
293
293
293
293
293
293
293
293
293
293
293
293
293
293
293
293
293
293
293
293
293
293
293
293
293
293
293
293
293
293
293
293
293
293
293
293
293
293
293
293
293
293
293
293
293
293
293
293
293
293
293
293
293
293
293
293
293
293
293
293
293
293
293
293
293
293
293
293
293
293
293
293
293
293
293
293
293
293
293
293
293
293
293
293
293
293
293
293
293
293
293
293
293
293
293
293
293
293
293
293
293
293
293
293
293
293
293
293
293
293
293
293
293
293
293
293
293
293
293
293
293
293
293
293
293
293
293
293
293
293
293
293
293
293
293
293
293
293
293
293
293
293
293
293
293
293
293
293
293
293
293
293
293
293
293
293
293
293
293
293
293
293
293
293
293
293
293
293
293
293
293
293
293
293
293
293
293
293
293
293
293
293
293
293
293
293
293
293
293
293
293
293
293
293
293
293
293
293
293
293
293
293
293
293
293
293
293
293
293
293
293
293
293
293
293
293
293
293
293
293
293
293
293
293
293
293
293
293
293
293
293
293
293
293
293
293
293
293
293
293
293
293
293
293
293
293
293
293
293
293
293
293
293
293
293
293
293
293
293
293
293
293
293
293
293
293
293
293
293
293
293
293
293
293
293
293
293
293
293
293
293
293
293
293
293
293
293
293
293
293
293
293
293
293
293
293
293
293
293
293
293
293
293
293
293
293
293
293
293
293
293
293
293
293
293
293
293
293
293
293
293
293
293
293
293
293
293
293
293
293
293
293
293
293
293
293
293
293
293
293
293
293
293
293
293
293
293
293
293
293
293
293
293
293
293
293
293
293
293
293
293
293
293
293
293
293
293
293
293
293
293
293
293
293
293
293
293
293
293
293
293
293
293
293
293
293
293
293
293
293
293
293
293
293
293
293
293
293
293
293
293
293
293
293
293
293
293
293
293
293
293
293
293
293
293
293
293
293
293
293
293
293
293
293
293
293
293
293
293
293
293
293
293
293
293
293
293
293
293
293
293
293
293
293
293
293
293
293
293
293
293
293
293
293
293
293
293
293
293
293
293
293
293
293
293
293
293
293
293
293
293
293
293
293
293
293
293
293
293
293
293
293
293
293
293
293
293
293
293
293
293
293
293
293
293
293
293
293
293
293
293
293
293
293
293
293
293
293
293
293
293
293
293
293
293
293
293
293
293
293
293
293
293
293
293
293
293
293
293
293
293
293
293
293
293
293
293
293
293
293
293
293
293
293
293
293
293
293
293
293
293
293
293
293
293
293
293
293
293
293
293
293
293
293
293
293
293
293
293
293
293
293
293
293
293
293
293
293
293
293
293
293
293
293
293
293
293
293
293
293
293
293
293
293
293
293
293
293
293
293
293
293
293
293
293
293
293
293
293
293
293
293
293
293
293
293
293
293
293
293
293
293
293
293
293
293
293
293
293
293
293
293
293
293
293
293
293
293
293
293
293
293
293
293
293
293
293
293
293
293
293
293
293
293
293
293
293
293
293
293
293
293
293
293
293
293
293
293
293
293
293
293
293
293
293
293
293
293
293
293
293
293
293
293
293
293
293
293
293
293
293
293
293
293
293
293
293
293
293
293
293
293
293
293
293
293
293
293
293
293
293
293
293
293
293
293
293
293
293
293
293
293
293
293
293
293
293
293
293
293
293
293
293
293
293
293
293
293
293
293
293
293
293
293
293
293
293
293
293
293
293
293
293
293
293
293
293
293
293
293
293
293
293
293
293
293
293
293
293
293
293
293
293
293
293
293
293
293
293
293
293
293
293
293
293
293
293
293
293
293
293
293
293
293
293
293
293
293
293
293
293
293
293
293
293
293
293
293
293
293
293
293
293
293
293
293
293
293
293
293
293
293
293
293
293
293
293
293
293
293
293
293
293
293
293
293
293
293
293
293
293
293
293
293
293
293
293
293
293
293
293
293
293
293
293
293
293
293
293
293
293
293
293
293
293
293
293
293
293
293
293
293
293
293
293
293
293
293
293
293
293
293
293
293
293
293
293
293
293
293
293
293
293
293
293
293
293
293
293
293
293
293
293
293
293
293
293
293
293
293
293
293
293
293
293
293
293
293
293
293
293
293
293
293
293
293
293
293
293
293
293
293
293
293
293
293
293
293
293
293
293
293
293
293
293
293
293
293
293
293
293
293
293
293
293
293
293
293
293
293
293
293
293
293
293
293
293
293
293
293
293
293
293
293
293
293
293
293
293
293
293
293
293
293
293
293
293
293
293
293
293
293
293
293
293
293
293
293
293
293
293
293
293
293
293
293
293
293
293
293
293
293
293
293
293
293
293
293
293
293
293
293
293
293
293
293
293
293
293
293
293
293
293
293
293
293
293
293
293
293
293
293
293
293
293
293
293
293
293
293
293
293
293
293
293
293
293
293
293
293
293
293
293
293
293
293
293
293
293
293
293
293
293
293
293
293
293
293
293
293
293
293
293
293
293
293
293
293
293
293
293
293
293
293
293
293
293
293
293
293
293
293
293
293
293
293
293
293
293
293
293
293
293
293
293
293
293
293
293
293
293
293
293
293
293
293
293
293
293
293
293
293
293
293
293
293
293
293
293
293
293
293
293
293
293
293
293
293
293
293
293
293
293
293
293
293
293
293
293
293
293
293
293
293
293
293
293
293
293
293
293
293
293
293
293
293
293
293
293
293
293
292.99999
292.99999
292.99999
292.99999
292.99999
292.99999
292.99999
292.99999
292.99999
292.99998
292.99998
292.99998
292.99998
292.99998
292.99997
292.99997
292.99996
292.99996
292.99996
292.99995
292.99994
292.99994
292.99993
292.99992
292.99991
292.9999
292.99989
292.99988
292.99986
292.99984
292.99983
292.99981
292.99978
292.99976
292.99973
292.9997
292.99967
292.99963
292.99959
292.99954
292.99949
292.99943
292.99937
292.9993
292.99923
292.99915
292.99906
292.99896
292.99885
292.99872
292.99859
292.99844
292.99828
292.99811
292.99792
292.99771
292.99747
292.99722
292.99695
292.99665
292.99632
292.99596
292.99557
292.99514
292.99468
292.99418
292.99363
292.99304
292.99239
292.99169
292.99093
292.99011
292.98922
292.98825
292.98721
292.98609
292.98487
292.98356
292.98214
292.98062
292.97898
292.97721
292.97531
292.97327
292.97108
292.96873
292.96621
292.96351
292.96062
292.95752
292.95421
292.95068
292.9469
292.94287
292.93858
292.93401
292.92914
292.92396
292.91845
292.9126
292.90639
292.89981
292.89282
292.88543
292.87761
292.86933
292.86058
292.85135
292.8416
292.83133
292.8205
292.8091
292.7971
292.78449
292.77123
292.75732
292.74273
292.72743
292.71141
292.69463
292.67708
292.65874
292.63959
292.6196
292.59874
292.57701
292.55438
292.53082
292.50632
292.48086
292.45442
292.42698
292.39852
292.36903
292.33849
292.30689
292.2742
292.24042
292.20553
292.16952
292.13238
292.09411
292.05468
292.0141
291.97235
291.92944
291.88535
291.84009
291.79365
291.74604
291.69725
291.64729
291.59616
291.54387
291.49041
291.43581
291.38007
291.3232
291.26522
291.20613
291.14595
291.0847
291.02239
290.95905
290.8947
290.82935
290.76303
290.69576
290.62758
290.5585
290.48856
290.41779
290.34621
290.27386
290.20077
290.12698
290.05251
289.97742
289.90173
289.82548
289.74872
289.67149
289.59382
289.51575
289.43734
289.35863
289.27965
289.20046
289.12111
289.04163
288.96208
288.88251
288.80295
288.72347
288.64412
288.56493
288.48596
288.40727
288.32889
288.25089
288.1733
288.09619
288.01959
287.94357
287.86816
287.79343
287.7194
287.64614
287.57369
287.50209
287.43139
287.36163
287.29286
287.22512
287.15845
287.09288
287.02846
286.96521
286.90318
286.8424
286.78289
286.72469
286.66781
286.61229
286.55815
286.5054
286.45407
286.40416
286.3557
286.30868
286.26312
286.21902
286.17639
286.13521
286.0955
286.05724
286.02043
285.98506
285.9511
285.91855
285.8874
285.85761
285.82917
285.80205
285.77623
285.75167
285.72836
285.70625
285.68533
285.66554
285.64686
285.62926
285.61269
285.59712
285.58251
285.56882
285.55602
285.54406
285.53292
285.52254
285.5129
285.50395
285.49567
285.48801
285.48093
285.47442
285.46842
285.46291
285.45787
285.45325
285.44903
285.44518
285.44168
285.43849
285.43561
285.43299
285.43063
285.4285
285.42659
285.42487
285.42332
285.42194
285.42071
285.41961
285.41863
285.41776
285.41699
285.41631
285.41571
285.41519
285.41472
285.41432
285.41397
285.41366
285.41339
285.41316
285.41296
285.41279
285.41265
285.41253
285.41242
285.41233
285.41226
285.4122
285.41216
285.41212
285.41209
285.41207
285.41205
285.41204
285.41203
285.41203
285.41203
285.41204
285.41203
285.41203
285.41203
285.41204
285.41205
285.41204
285.41203
285.41203
285.41203
285.41203
285.41203
285.41202
285.41203
285.41203
285.41203
285.41202
285.41202
285.41202
285.41203
285.41203
285.41203
285.41203
285.41203
285.41204
285.41204
285.41205
285.41206
285.41207
285.41208
285.41209
285.4121
285.41211
285.41213
285.41213
285.41215
285.41216
285.41217
285.41217
285.41218
285.4122
285.41221
285.41221
285.41223
285.41225
285.41227
285.41227
285.41227
285.41227
285.41228
285.4123
285.41233
285.41234
285.41235
285.41235
285.41237
285.41239
285.41241
285.41243
285.41245
285.41248
285.4125
285.41253
285.41255
285.41256
285.41257
285.41259
285.41261
285.41262
285.41263
285.41265
285.41267
285.41269
285.41271
285.41272
285.41273
285.41275
285.41279
285.41282
285.41283
285.41285
285.41287
285.4129
285.41292
285.41293
285.41294
285.41297
285.41302
285.41306
285.41308
285.41309
285.4131
285.41312
285.41316
285.4132
285.41323
285.41326
285.41329
285.4133
285.41332
285.41334
285.41337
285.4134
285.41344
285.41347
285.41349
285.41353
285.41358
285.41362
285.41366
285.41369
285.41372
285.41375
285.41378
285.41381
285.41384
285.41387
285.41391
285.41395
285.41398
285.41401
285.41405
285.41409
285.41413
285.41417
285.41421
285.41424
285.41428
285.41431
285.41434
285.41437
285.41441
285.41445
285.4145
285.41454
285.41459
285.41463
285.41467
285.41471
285.41476
285.4148
285.41485
285.4149
285.41496
285.41502
285.41507
285.41511
285.41514
285.41517
285.41523
285.41529
285.41535
285.41542
285.41548
285.41552
285.41555
285.41558
285.41565
285.41572
285.41578
285.41584
285.41588
285.41592
285.41599
285.41606
285.41613
285.41619
285.41625
285.41633
285.4164
285.41645
285.4165
285.41656
285.41663
285.41669
285.41676
285.41682
285.41689
285.41696
285.41704
285.41712
285.41722
285.41731
285.41739
285.41745
285.4175
285.41757
285.41765
285.41775
285.41783
285.41791
285.41801
285.4181
285.4182
285.41828
285.41835
285.41843
285.41851
285.41859
285.41868
285.41877
285.41888
285.41897
285.41907
285.41917
285.41926
285.41935
285.41945
285.41957
285.41969
285.4198
285.4199
285.42002
285.42015
285.42027
285.42038
285.4205
285.42061
285.42071
285.42082
285.42094
285.42105
285.42117
285.42129
285.42141
285.42154
285.42166
285.42179
285.42192
285.42203
285.42213
285.42223
285.42234
285.42246
285.42259
285.4227
285.42279
285.42286
285.4229
285.42294
285.42298
285.42303
285.42309
285.42314
285.42318
285.4232
285.42321
285.42321
285.4232
285.42318
285.42316
285.42312
285.42307
285.42302
285.42296
285.4229
285.42285
285.4228
285.42275
285.42272
285.4227
285.4227
285.4227
285.42271
285.42275
285.42284
285.42301
285.42321
285.42342
285.42366
285.42391
285.42419
285.4245
285.42484
285.42518
285.42549
285.42576
285.42599
285.42622
285.42647
285.42674
285.42702
285.42731
285.42762
285.42793
285.42822
285.42847
285.42865
285.42875
285.42879
285.42879
285.42875
285.42866
285.42859
285.42857
285.4286
285.42872
285.42908
285.4294
285.42956
285.42963
285.4297
285.42988
285.4305
285.43277
285.44044
285.4647
285.53727
285.74738
286.32874
287.89548
290.34415
292.8091
295.01975
296.82997
298.20272
299.17635
299.82682
300.23816
300.48506
300.62571
300.70144
300.73953
300.75691
300.76357
300.76518
300.765
300.76359
300.76139
300.7597
300.7583
300.75699
300.75559
300.75406
300.75239
300.75062
300.74883
300.7471
300.74547
300.74399
300.7427
300.74158
300.74065
300.7399
300.73931
300.73884
300.73845
300.73809
300.73772
300.73735
300.73697
300.73658
300.73618
300.73579
300.73541
300.73504
300.73469
300.73435
300.73402
300.7337
300.73341
300.73311
300.73282
300.73252
300.73219
300.73183
300.73143
300.73102
300.73056
300.73008
300.72956
300.72902
300.72844
300.72785
300.72727
300.7267
300.72614
300.7256
300.72507
300.72457
300.72409
300.72364
300.72324
300.72286
300.7225
300.72217
300.72185
300.72154
300.72125
300.72097
300.7207
300.72045
300.72023
300.72003
300.71983
300.71965
300.71948
300.7193
300.71911
300.71893
300.71876
300.71859
300.71844
300.7183
300.71814
300.71798
300.71783
300.71768
300.71754
300.71741
300.71729
300.71717
300.71704
300.71692
300.71679
300.71667
300.71656
300.71644
300.71633
300.71622
300.7161
300.716
300.71589
300.71579
300.71568
300.71556
300.71545
300.71535
300.71526
300.71517
300.71509
300.71501
300.71492
300.71482
300.71473
300.71464
300.71456
300.71449
300.71441
300.71433
300.71426
300.71418
300.71409
300.71401
300.71392
300.71384
300.71376
300.71369
300.71362
300.71354
300.71346
300.71339
300.71332
300.71325
300.71319
300.71314
300.71307
300.713
300.71293
300.71286
300.71279
300.71273
300.71267
300.7126
300.71254
300.71248
300.71242
300.71236
300.7123
300.71223
300.71217
300.71211
300.71206
300.712
300.71195
300.71189
300.71183
300.71176
300.7117
300.71165
300.7116
300.71156
300.71151
300.71145
300.71139
300.71134
300.71128
300.71123
300.71119
300.71114
300.7111
300.71105
300.71099
300.71094
300.71089
300.71084
300.7108
300.71076
300.71072
300.71066
300.7106
300.71055
300.7105
300.71045
300.71042
300.71038
300.71034
300.7103
300.71026
300.71022
300.71017
300.71012
300.71008
300.71004
300.71
300.70995
300.70991
300.70988
300.70985
300.70981
300.70977
300.70974
300.7097
300.70965
300.7096
300.70956
300.70952
300.70948
300.70944
300.7094
300.70937
300.70935
300.70931
300.70927
300.70923
300.70919
300.70914
300.7091
300.70908
300.70905
300.70903
300.709
300.70895
300.70891
300.70888
300.70886
300.70882
300.70879
300.70876
300.70871
300.70867
300.70864
300.70861
300.70857
300.70854
300.70851
300.70848
300.70845
300.70843
300.7084
300.70836
300.70834
300.7083
300.70828
300.70825
300.70822
300.70818
300.70814
300.70811
300.70809
300.70808
300.70806
300.70804
300.70801
300.70799
300.70796
300.70793
300.7079
300.70788
300.70786
300.70785
300.70783
300.70779
300.70777
300.70776
300.70774
300.70773
300.70771
300.70769
300.70767
300.70766
300.70764
300.70763
300.70762
300.70761
300.70759
300.70757
300.70755
300.70753
300.70753
300.70752
300.70751
300.70749
300.70749
300.70749
300.70749
300.70748
300.70748
300.70748
300.70748
300.70747
300.70747
300.70745
300.70743
300.70742
300.7074
300.70738
300.70735
300.70733
300.70731
300.70728
300.70724
300.70719
300.70714
300.70707
300.707
300.70693
300.70684
300.70674
300.70663
300.70651
300.70637
300.70622
300.70605
300.70585
300.70564
300.70539
300.70512
300.70481
300.70447
300.70408
300.70365
300.70316
300.70262
300.70201
300.70133
300.70056
300.69972
300.69877
300.69771
300.69654
300.69524
300.69379
300.69219
300.69041
300.68844
300.68627
300.68387
300.68122
300.67831
300.67511
300.67159
300.66773
300.66349
300.65886
300.65379
300.64826
300.64223
300.63565
300.6285
300.62072
300.61228
300.60313
300.59322
300.58249
300.57091
300.55841
300.54493
300.53042
300.51482
300.49806
300.48008
300.46081
300.44019
300.41815
300.39461
300.3695
300.34276
300.3143
300.28405
300.25195
300.21791
300.18187
300.14375
300.10348
300.06099
300.01622
299.96909
299.91955
299.86755
299.81301
299.75591
299.69618
299.6338
299.56873
299.50093
299.43041
299.35713
299.2811
299.20232
299.1208
299.03658
298.94968
298.86014
298.76802
298.67339
298.57631
298.47687
298.37517
298.27132
298.16542
298.05761
297.94803
297.83681
297.72411
297.61009
297.49493
297.37879
297.26186
297.14431
297.02635
296.90816
296.78992
296.67185
296.55411
296.43692
296.32045
296.20488
296.0904
295.97717
295.86536
295.75513
295.64663
295.53999
295.43534
295.33281
295.23251
295.13452
295.03895
294.94587
294.85534
294.76742
294.68216
294.59958
294.51972
294.44258
294.36817
294.29649
294.22753
294.16126
294.09766
294.03669
293.97831
293.92248
293.86915
293.81826
293.76975
293.72357
293.67964
293.6379
293.59828
293.56071
293.52512
293.49144
293.45959
293.4295
293.40111
293.37433
293.3491
293.32536
293.30302
293.28204
293.26233
293.24384
293.2265
293.21027
293.19507
293.18086
293.16758
293.15517
293.1436
293.1328
293.12274
293.11338
293.10466
293.09656
293.08903
293.08204
293.07555
293.06954
293.06396
293.0588
293.05403
293.04961
293.04552
293.04175
293.03827
293.03506
293.0321
293.02938
293.02687
293.02456
293.02243
293.02048
293.01869
293.01704
293.01553
293.01415
293.01288
293.01172
293.01066
293.00969
293.0088
293.00799
293.00725
293.00658
293.00596
293.0054
293.00489
293.00443
293.004
293.00362
293.00327
293.00295
293.00267
293.0024
293.00217
293.00195
293.00176
293.00158
293.00142
293.00128
293.00115
293.00103
293.00093
293.00083
293.00075
293.00067
293.0006
293.00054
293.00048
293.00043
293.00038
293.00034
293.00031
293.00027
293.00024
293.00022
293.00019
293.00017
293.00015
293.00014
293.00012
293.00011
293.0001
293.00009
293.00008
293.00007
293.00006
293.00005
293.00005
293.00004
293.00004
293.00003
293.00003
293.00003
293.00002
293.00002
293.00002
293.00002
293.00001
293.00001
293.00001
293.00001
293.00001
293.00001
293.00001
293.00001
293
293
293
293
293
293
293
293
293
293
293
293
293
293
293
293
293
293
293
293
293
293
293
293
293
293
293
293
293
293
293
293
293
293
293
293
293
293
293
293
293
293
293
293
293
293
293
293
293
293
293
293
293
293
293
293
293
293
293
293
293
293
293
293
293
293
293
293
293
293
293
293
293
293
293
293
293
293
293
293
293
293
293
293
293
293
293
293
293
293
293
293
293
293
293
293
293
293
293
293
293
293
293
293
293
293
293
293
293
293
293
293
293
293
293
293
293
293
293
293
293
293
293
293
293
293
293
293
293
293
293
293
293
293
293
293
293
293
293
293
293
293
293
293
293
293
293
293
293
293
293
293
293
293
293
293
293
293
293
293
293
293
293
293
293
293
293
293
293
293
293
293
293
293
293
293
293
293
293
293
293
293
293
293
293
293
293
293
293
293
293
293
293
293
293
293
293
293
293
293
293
293
293
293
293
293
293
293
293
293
293
293
293
293
293
293
293
293
293
293
293
293
293
293
293
293
293
293
293
293
293
293
293
293
293
293
293
293
293
293
293
293
293
293
293
293
293
293
293
293
293
293
293
293
293
293
293
293
293
293
293
293
293
293
293
293
293
293
293
293
293
293
293
293
293
293
293
293
293
293
293
293
293
293
293
293
293
293
293
293
293
293
293
293
293
293
293
293
293
293
293
293
293
293
293
293
293
293
293
293
293
293
293
293
293
293
293
293
293
293
293
293
293
293
293
293
293
293
293
293
293
293
293
293
293
293
293
293
293
293
293
293
293
293
293
293
293
293
293
293
293
293
293
293
293
293
293
293
293
293
293
293
293
293
293
293
293
293
293
293
293
293
293
293
293
293
293
293
293
293
293
293
293
293
293
293
293
293
293
293
293
293
293
293
293
293
293
293
293
293
293
293
293
293
293
293
293
293
293
293
293
293
293
293
293
293
293
293
293
293
293
293
293
293
293
293
293
293
293
293
293
293
293
293
293
293
293
293
293
293
293
293
293
293
293
293
293
293
293
293
293
293
293
293
293
293
293
293
293
293
293
293
293
293
293
293
293
293
293
293
293
293
293
293
293
293
293
293
293
293
293
293
293
293
293
293
293
293
293
293
293
293
293
293
293
293
293
293
293
293
293
293
293
293
293
293
293
293
293
293
293
293
293
293
293
293
293
293
293
293
293
293
293
293
293
293
293
293
293
293
293
293
293
293
293
293
293
293
293
293
293
293
293
293
293
293
293
293
293
293
293
293
293
293
293
293
293
293
293
293
293
293
293
293
293
293
293
293
293
293
293
293
293
293
293
293
293
293
293
293
293
293
293
293
293
293
293
293
293
293
293
293
293
293
293
293
293
293
293
293
293
293
293
293
293
293
293
293
293
293
293
293
293
293
293
293
293
293
293
293
293
293
293
293
293
293
293
293
293
293
293
293
293
293
293
293
293
293
293
293
293
293
293
293
293
293
293
293
293
293
293
293
293
293
293
293
293
293
293
293
293
293
293
293
293
293
293
293
293
293
293
293
293
293
293
293
293
293
293
293
293
293
293
293
293
293
293
293
293
293
293
293
293
293
293
293
293
293
293
293
293
293
293
293
293
293
293
293
293
293
293
293
293
293
293
293
293
293
293
293
293
293
293
293
293
293
293
293
293
293
293
293
293
293
293
293
293
293
293
293
293
293
293
293
293
293
293
293
293
293
293
293
293
293
293
293
293
293
293
293
293
293
293
293
293
293
293
293
293
293
293
293
293
293
293
293
293
293
293
293
293
293
293
293
293
293
293
293
293
293
293
293
293
293
293
293
293
293
293
293
293
293
293
293
293
293
293
293
293
293
293
293
293
293
293
293
293
293
293
293
293
293
293
293
293
293
293
293
293
293
293
293
293
293
293
293
293
293
293
293
293
293
293
293
293
293
293
293
293
293
293
293
293
293
293
293
293
293
293
293
293
293
293
293
293
293
293
293
293
293
293
293
293
293
293
293
293
293
293
293
293
293
293
293
293
293
293
293
293
293
293
293
293
293
293
293
293
293
293
293
293
293
293
293
293
293
293
293
293
293
293
293
293
293
293
293
293
293
293
293
293
293
293
293
293
293
293
293
293
293
293
293
293
293
293
293
293
293
293
293
293
293
293
293
293
293
293
293
293
293
293
293
293
293
293
293
293
293
293
293
293
293
293
293
293
293
293
293
293
293
293
293
293
293
293
293
293
293
293
293
293
293
293
293
293
293
293
293
293
293
293
293
293
293
293
293
293
293
293
293
293
293
293
293
293
293
293
293
293
293
293
293
293
293
293
293
293
293
293
293
293
293
293
293
293
293
293
293
293
293
293
293
293
293
293
293
293
293
293
293
293
293
293
293
293
293
293
293
293
293
293
293
293
293
293
293
293
293
293
293
293
293
293
293
293
293
293
293
293
293
293
293
293
293
293
293
293
293
293
293
293
293
293
293
293
293
293
293
293
293
293
293
293
293
293
293
293
293
293
293
293
293
293
293
293
293
293
293
293
293
293
293
293
293
293
293
293
293
293
293
293
293
293
293
293
293
293
293
293
293
293
293
293
293
293
293
293
293
293
293
293
293
293
293
293
293
293
293
293
293
293
293
293
293
293
293
293
293
293
293
293
293
293
293
293
293
293
293
293
293
293
293
293
293
293
293
293
293
293
293
293
293
293
293
293
293
293
293
293
293
293
293
293
293
293
293
293
293
293
293
293
293
293
293
293
293
293
293
293
293
293
293
293
293
293
293
293
293
293
293
293
293
293
293
293
293
293
293
293
293
293
293
293
293
293
293
293
293
293
293
293
293
293
293
293
293
293
293
293
293
293
293
293
293
293
293
293
293
293
293
293
293
293
293
293
293
293
293
293
293
293
293
293
293
293
293
293
293
293
293
293
293
293
293
293
293
293
293
293
293
293
293
293
293
293
293
293
293
293
293
293
293
293
293
293
293
293
293
293
293
293
293
293
293
293
293
293
293
293
293
293
293
293
293
293
293
293
293
293
293
293
293
293
293
293
293
292.99999
292.99999
292.99999
292.99999
292.99999
292.99999
292.99999
292.99999
292.99999
292.99999
292.99998
292.99998
292.99998
292.99998
292.99998
292.99997
292.99997
292.99997
292.99996
292.99996
292.99996
292.99995
292.99995
292.99994
292.99993
292.99993
292.99992
292.99991
292.9999
292.99989
292.99988
292.99987
292.99986
292.99984
292.99983
292.99981
292.99979
292.99977
292.99975
292.99973
292.9997
292.99967
292.99964
292.99961
292.99957
292.99953
292.99949
292.99944
292.99939
292.99934
292.99928
292.99922
292.99915
292.99907
292.99899
292.99891
292.99881
292.99871
292.99861
292.99849
292.99837
292.99823
292.99809
292.99793
292.99777
292.99759
292.9974
292.9972
292.99698
292.99675
292.9965
292.99624
292.99596
292.99565
292.99533
292.99499
292.99463
292.99424
292.99383
292.9934
292.99293
292.99244
292.99192
292.99137
292.99079
292.99017
292.98952
292.98884
292.98811
292.98734
292.98653
292.98568
292.98479
292.98384
292.98285
292.98181
292.98072
292.97957
292.97837
292.97711
292.97579
292.97441
292.97296
292.97145
292.96987
292.96823
292.96651
292.96472
292.96285
292.96091
292.95889
292.95679
292.95461
292.95235
292.95
292.94756
292.94503
292.94242