-1.25 	300 	0.07204667422941444 	101295.6107373854
-1.247497497497497 	299.9777878241251 	0.05966581541278608 	101301.3284574981
-1.244994994994995 	299.9853033569157 	0.04185265090012786 	101307.6394879177
-1.242492492492492 	299.9906932416364 	0.0274388196248813 	101313.983980899
-1.23998998998999 	299.9963086356596 	0.01039780548349375 	101320.6350955919
-1.237487487487487 	300.0020546420764 	0.008360183276554547 	101327.4278498148
-1.234984984984985 	300.0077583999662 	0.02251833411533005 	101334.1711362821
-1.232482482482482 	300.013344507802 	0.03865757727517595 	101340.775575694
-1.22997997997998 	300.0187252410652 	0.05415949237239083 	101347.1374526269
-1.227477477477477 	300.0237471596604 	0.06865518774978457 	101353.0754107696
-1.224974974974975 	300.0283145322773 	0.08190390729016019 	101358.4761236605
-1.222472472472472 	300.0324111502865 	0.09370524556968825 	101363.3204225268
-1.21996996996997 	300.0358949467678 	0.1037528464511803 	101367.4402487394
-1.217467467467467 	300.0386487439307 	0.1117366778011246 	101370.6968363823
-1.214964964964965 	300.0406841903655 	0.1176356611904077 	101373.1039992575
-1.212462462462462 	300.042004697727 	0.1214956685626264 	101374.6656946868
-1.20995995995996 	300.0425770669594 	0.1231399257200901 	101375.3426314976
-1.207457457457457 	300.0423723821575 	0.1225072297614889 	101375.1006275387
-1.204954954954955 	300.0413701413244 	0.1195834353883874 	101373.9154516388
-1.202452452452452 	300.0395690529882 	0.1143573997974097 	101371.7856018633
-1.19994994994995 	300.036990571852 	0.1069395702838829 	101368.7364649229
-1.197447447447447 	300.0337223975858 	0.09749489603588707 	101364.8717530488
-1.194944944944945 	300.0298649983607 	0.08630402494463905 	101360.3104077679
-1.192442442442442 	300.0254822826014 	0.07362015886104797 	101355.1280791661
-1.18993993993994 	300.020640809493 	0.05967085669220358 	101349.4034258347
-1.187437437437437 	300.0154425064842 	0.044667296792641 	101343.2571517899
-1.184934934934935 	300.0099605054426 	0.02878997289427428 	101336.7756878469
-1.182432432432432 	300.0042946630912 	0.01240144074668947 	101330.0771798068
-1.17992992992993 	299.9985784891203 	0.008479573324048435 	101323.3195283744
-1.177427427427427 	299.9928833039195 	0.02063305870430768 	101316.5869246225
-1.174924924924925 	299.9872807537071 	0.03682501251027529 	101309.964182257
-1.172422422422422 	299.9818764876588 	0.05242397187078973 	101303.5760718698
-1.16991991991992 	299.9767872482365 	0.06711500662265865 	101297.560625266
-1.167417417417417 	299.972132660457 	0.0805623030414153 	101292.0591830676
-1.164914914914915 	299.9680177637338 	0.09247586334301139 	101287.1957046092
-1.162412412412412 	299.9645166880398 	0.1025947126477029 	101283.0578796368
-1.15990990990991 	299.9616725370611 	0.1108016934724962 	101279.6964908752
-1.157407407407407 	299.9595123831401 	0.1170494309714231 	101277.1435452748
-1.154904904904904 	299.9580750933622 	0.121196100586395 	101275.4448907521
-1.152402402402403 	299.9574217999059 	0.1230930161514208 	101274.6727396519
-1.1498998998999 	299.9575854985428 	0.1226114943334981 	101274.8661884521
-1.147397397397397 	299.958558724474 	0.1197637818190053 	101276.0162267962
-1.144894894894895 	299.9603145985164 	0.114688717527823 	101278.0912473986
-1.142392392392392 	299.9628025439331 	0.1075160829511798 	101281.0315164355
-1.13988988988989 	299.9659551158647 	0.09840799076527038 	101284.7572540998
-1.137387387387387 	299.9697196259701 	0.08750444448153287 	101289.2063993995
-1.134884884884885 	299.9740392983523 	0.07498774907215348 	101294.3118051196
-1.132382382382382 	299.9788388426772 	0.06111468234793271 	101299.9846496223
-1.12987987987988 	299.984024662849 	0.04615578547574867 	101306.1143488873
-1.127377377377377 	299.9894786010498 	0.03042876735535394 	101312.5611788874
-1.124874874874875 	299.99507590532 	0.01421870664434148 	101319.1778464557
-1.122372372372372 	300.0007327494347 	0.00835345521200135 	101325.8651689111
-1.11986986986987 	300.0064025758326 	0.01858739465850875 	101332.5682208523
-1.117367367367367 	300.0120088252393 	0.03476718881387228 	101339.196449352
-1.114864864864865 	300.0174205922753 	0.05039370454703172 	101345.5949730432
-1.112362362362362 	300.022511422112 	0.06511003210438855 	101351.614371222
-1.10985985985986 	300.027182429371 	0.07861945829093429 	101357.1375582325
-1.107357357357357 	300.0313428760705 	0.09062723472111564 	101362.0572836177
-1.104854854854855 	300.034919466539 	0.1009771734669105 	101366.2867696629
-1.102352352352353 	300.0378706249578 	0.1094988511793893 	101369.7766937431
-1.09984984984985 	300.0401456112122 	0.1160626772814524 	101372.4671262008
-1.097347347347347 	300.0416931475605 	0.1205509305999277 	101374.2972821407
-1.094844844844845 	300.0424676936079 	0.1227529938757885 	101375.2133387159
-1.092342342342342 	300.0424315576455 	0.1226264963052449 	101375.1706593335
-1.08983983983984 	300.0415785216737 	0.1201691971526031 	101374.1619044148
-1.087337337337337 	300.0399497217345 	0.1154511773937348 	101372.2358308187
-1.084834834834835 	300.0375825196472 	0.1086328921760474 	101369.4365069184
-1.082332332332332 	300.0345260054912 	0.09978800229829382 	101365.8220786134
-1.07982982982983 	300.0308366678024 	0.08910536229815395 	101361.4594774677
-1.077327327327327 	300.0265774712315 	0.07678679834454594 	101356.4231137577
-1.074824824824825 	300.0218268615079 	0.06308080201501791 	101350.8058769829
-1.072322322322323 	300.0166966587327 	0.04826299870318161 	101344.7400564691
-1.06981981981982 	300.0112683429344 	0.03254136583881686 	101338.3219880921
-1.067317317317317 	300.0056453343106 	0.01627516253332 	101331.6740879429
-1.064814814814815 	299.9999342327125 	0.008168092933297951 	101324.9223226374
-1.062312312312312 	299.9941966299239 	0.01687561351257564 	101318.1395125365
-1.05980980980981 	299.9885312414457 	0.03321388054269397 	101311.4424262703
-1.057307307307307 	299.9830699315771 	0.0489649510029591 	101304.9868091078
-1.054804804804805 	299.9779339251339 	0.06379762499348235 	101298.9160458858
-1.052302302302302 	299.9732246336141 	0.07742871616990107 	101293.3498762092
-1.0497997997998 	299.9690105140499 	0.08965054815662642 	101288.3690949287
-1.047297297297297 	299.9653499219536 	0.1002221957642772 	101284.0427206408
-1.044794794794795 	299.9623128959419 	0.1089766113172793 	101280.4533552766
-1.042292292292292 	299.9599711381875 	0.1157358213381394 	101277.6857934241
-1.03978978978979 	299.9583879237028 	0.1203011419325009 	101275.8146530604
-1.037287287287287 	299.9576027114626 	0.1225867006927448 	101274.8866084004
-1.034784784784785 	299.9576162363439 	0.1225282872920918 	101274.9025850948
-1.032282282282283 	299.9584149374559 	0.1201833470729368 	101275.8463726012
-1.02977977977978 	299.959978238724 	0.1156671926245282 	101277.6938200363
-1.027277277277277 	299.9622722654881 	0.1090399599465038 	101280.4048706007
-1.024774774774775 	299.9652584304501 	0.1004256918774502 	101283.9339390951
-1.022272272272272 	299.9688891510127 	0.08993157097999101 	101288.2249230481
-1.01976976976977 	299.9730912040253 	0.07775691840191577 	101293.1912616485
-1.017267267267267 	299.9777836712319 	0.06419301160706276 	101298.7375065003
-1.014764764764765 	299.9828724525796 	0.04949467175111111 	101304.7524272583
-1.012262262262262 	299.9882494129021 	0.0339632515571236 	101311.108219678
-1.00975975975976 	299.9938087626115 	0.01786869172941205 	101317.6799481866
-1.007257257257257 	299.9994548583172 	0.007608892244563593 	101324.354498152
-1.004754754754755 	300.0051133693222 	0.01486097470217129 	101331.0440933843
-1.002252252252252 	300.0107008617729 	0.03098377112598352 	101337.6500624205
-0.9997497497497498 	300.0160998684191 	0.04657267797337911 	101344.0334476505
-0.9972472472472473 	300.0212130640494 	0.06136255342322686 	101350.0792112561
-0.9947447447447449 	300.0259617248581 	0.07510788275130043 	101355.6941800622
-0.9922422422422421 	300.0302586445815 	0.08749715609267213 	101360.7751990408
-0.9897397397397399 	300.0340131784299 	0.09834404642899361 	101365.2150595582
-0.9872372372372376 	300.037151267949 	0.1073889156360252 	101368.9260511738
-0.9847347347347346 	300.0395939177632 	0.1144708444640185 	101371.8147139662
-0.9822322322322323 	300.0413005897491 	0.1194536954126785 	101373.8330964783
-0.9797297297297296 	300.0422484300617 	0.1221386267995531 	101374.9540584751
-0.9772272272272275 	300.0424083223719 	0.1225676578810528 	101375.1431926342
-0.9747247247247248 	300.0417658134675 	0.1207187964878238 	101374.3834359335
-0.9722222222222224 	300.0403482056968 	0.1166263458522097 	101372.7070768627
-0.9697197197197196 	300.038168353193 	0.1103621816175785 	101370.1293407825
-0.9672172172172175 	300.0352806033015 	0.1019707275760782 	101366.7144469298
-0.9647147147147147 	300.0317450106642 	0.09170625623036194 	101362.5335975292
-0.9622122122122124 	300.0276214977364 	0.07979823199911892 	101357.6576807898
-0.9597097097097099 	300.0229864657551 	0.06645990193290305 	101352.1770409656
-0.9572072072072073 	300.0179389242068 	0.05186547642882886 	101346.2089126247
-0.9547047047047047 	300.0125431014297 	0.03622713022576869 	101339.8291953588
-0.9522022022022023 	300.0069207892265 	0.01996392424926793 	101333.1820231934
-0.9496996996996998 	300.0012046010652 	0.00699333533530419 	101326.42419994
-0.9471971971971973 	299.9954744307261 	0.01315252947674319 	101319.6501022843
-0.9446946946946947 	299.989817648736 	0.0294820922045943 	101312.9631117891
-0.9421921921921923 	299.9843370868497 	0.04529568929293192 	101306.4846859449
-0.93968968968969 	299.979137791965 	0.06032250006403417 	101300.3390357747
-0.9371871871871872 	299.9743185918639 	0.0742717840487038 	101294.6429159197
-0.9346846846846848 	299.9699668529104 	0.08687554688212532 	101289.4994474202
-0.9321821821821823 	299.9661669620111 	0.09784968781377948 	101285.0083966377
-0.9296796796796799 	299.9629980552618 	0.1069941958743364 	101281.2631620105
-0.9271771771771771 	299.9605218033541 	0.1141445719061404 	101278.3366268307
-0.9246746746746748 	299.9587887772931 	0.1191479431635994 	101276.2884434017
-0.9221721721721724 	299.9578316649514 	0.1219157018408901 	101275.1572398628
-0.9196696696696698 	299.9576635198137 	0.1223681348759907 	101274.9585085217
-0.9171671671671672 	299.9582850731866 	0.1205407268646511 	101275.6929773609
-0.9146646646646649 	299.9596786046861 	0.1165248331603072 	101277.3397611464
-0.9121621621621623 	299.9618072621225 	0.1103858565752037 	101279.8553786853
-0.9096596596596597 	299.9646317884108 	0.1022450023817621 	101283.1934137262
-0.9071571571571573 	299.9681016941067 	0.09220648505372817 	101287.294287232
-0.9046546546546547 	299.9721557487172 	0.08045530486933829 	101292.0856963322
-0.9021521521521524 	299.976724953768 	0.06725628484210304 	101297.4861816047
-0.8996496496496498 	299.9817183090597 	0.05283478812787545 	101303.3882537768
-0.8971471471471473 	299.9870242004107 	0.03749860809032944 	101309.6599874344
-0.894644644644645 	299.9925331380546 	0.02154678387434136 	101316.1720335339
-0.892142142142142 	299.9981339555226 	0.00595869073900389 	101322.7930074162
-0.8896396396396397 	300.0037521237441 	0.01093070947457416 	101329.434822224
-0.8871371371371374 	300.0093224537309 	0.02701052706959198 	101336.020418133
-0.8846346346346349 	300.0147442315644 	0.0426687855466998 	101342.4306610975
-0.8821321321321324 	300.019926117729 	0.05764797454086583 	101348.557551367
-0.8796296296296297 	300.0247745113138 	0.07166539231544482 	101354.2903988742
-0.8771271271271271 	300.0291833770208 	0.08437765842895342 	101359.5037441303
-0.8746246246246248 	300.0330643835433 	0.09560045381456223 	101364.0931158882
-0.8721221221221224 	300.036345176833 	0.1050649146156926 	101367.9728299362
-0.8696196196196196 	300.0389517514892 	0.1126382494613437 	101371.0553145817
-0.8671171171171175 	300.0408463321911 	0.1181501734413296 	101373.2959101233
-0.8646146146146148 	300.0419913657284 	0.121389921331039 	101374.6500877056
-0.8621121121121121 	300.0423448972609 	0.1224054123690972 	101375.0682391337
-0.8596096096096097 	300.0419035236623 	0.1211198675577536 	101374.5462963023
-0.857107107107107 	300.0406866310922 	0.1176010148346416 	101373.107295009
-0.8546046046046049 	300.0387054938427 	0.1119101135512539 	101370.7645661488
-0.8521021021021022 	300.0360076505195 	0.1040513473449273 	101367.5742429675
-0.8495995995995997 	300.0326362740515 	0.09427104076614727 	101363.5875655746
-0.8470970970970974 	300.0286367108202 	0.08273582354579662 	101358.8581678142
-0.8445945945945946 	300.0241016289525 	0.06967198357316183 	101353.4956537802
-0.8420920920920922 	300.01912353044 	0.05528659891213961 	101347.6095954492
-0.8395895895895897 	300.0137821697602 	0.03981844038647552 	101341.294208022
-0.8370870870870872 	300.008206733197 	0.02369842536315656 	101334.7024064354
-0.8345845845845846 	300.002527328174 	0.007254021048245829 	101327.9879810066
-0.8320820820820823 	299.9968132790366 	0.01044650594303874 	101321.2328499309
-0.8295795795795798 	299.9911364522077 	0.02566866675144341 	101314.5221146699
-0.8270770770770772 	299.9855968079985 	0.04164663964221331 	101307.9737732688
-0.8245745745745746 	299.9803162118162 	0.05691309249873103 	101301.731981932
-0.8220720720720721 	299.975401899252 	0.07114915530914921 	101295.9233820949
-0.8195695695695699 	299.9709428217564 	0.08406926121073105 	101290.6529818716
-0.817067067067067 	299.9670194516782 	0.09538274006193442 	101286.0159809119
-0.8145645645645651 	299.9637145030768 	0.1049206727500756 	101282.1099304739
-0.8120620620620621 	299.9610888829895 	0.1125041702049102 	101279.0068758158
-0.8095595595595597 	299.9592007039845 	0.1179649532130103 	101276.7753384603
-0.8070570570570572 	299.9580807589396 	0.1212063107716948 	101275.4516456456
-0.8045545545545546 	299.9577433373579 	0.1221339416735325 	101275.0528968754
-0.8020520520520523 	299.9581885767714 	0.1208147698505983 	101275.5789888587
-0.7995495495495494 	299.9594057753178 	0.1173225576361923 	101277.0174082557
-0.7970470470470474 	299.961356239972 	0.1116972692846553 	101279.3224222003
-0.7945445445445446 	299.9640141440213 	0.1040349197610363 	101282.463492718
-0.7920420420420423 	299.9673356431121 	0.09440694283647315 	101286.3889795981
-0.7895395395395397 	299.9712675604681 	0.08302213576820297 	101291.0359805943
-0.7870370370370371 	299.9757315184636 	0.07013345466120845 	101296.3120446871
-0.7845345345345348 	299.9806334423953 	0.05598637300981768 	101302.1059927884
-0.7820320320320323 	299.9858521658572 	0.04088754975846717 	101308.274604846
-0.7795295295295296 	299.9912915803653 	0.02512786836849262 	101314.7044382068
-0.7770270270270272 	299.9968389542322 	0.009056234334354273 	101321.2621327372
-0.7745245245245247 	300.0024202185992 	0.009570942516034136 	101327.8602668691
-0.7720220220220222 	300.0079744706028 	0.02311702425374266 	101334.4267773201
-0.7695195195195199 	300.0134129768791 	0.03882958635238908 	101340.8566949829
-0.767017017017017 	300.0186453227587 	0.05393286364848233 	101347.0432189584
-0.7645145145145147 	300.023569052561 	0.06815880773272155 	101352.8650435957
-0.7620120120120122 	300.0280761388311 	0.08117794989553494 	101358.194503309
-0.7595095095095097 	300.0320826379828 	0.09278324124091693 	101362.9322264588
-0.7570070070070072 	300.0355058209593 	0.1026783994414899 	101366.9802561355
-0.7545045045045048 	300.0382764185438 	0.1106983101444107 	101370.2567382093
-0.7520020020020022 	300.0403476466277 	0.116682703318114 	101372.7061743174
-0.7494994994994997 	300.041672788013 	0.1204610262677381 	101374.2733672304
-0.7469969969969972 	300.0422186161634 	0.1220577425679619 	101374.9189550516
-0.7444944944944945 	300.0419914618367 	0.1213597814756693 	101374.650285347
-0.7419919919919924 	300.040984543096 	0.1184264292243838 	101373.4596482157
-0.7394894894894897 	300.0392052405471 	0.1133125519031256 	101371.3555528694
-0.7369869869869872 	300.0366848708787 	0.105997972815841 	101368.3751149505
-0.7344844844844846 	300.0334645416245 	0.09671512052476698 	101364.5670558279
-0.7319819819819822 	300.0296003665557 	0.08557356302554435 	101359.9976690543
-0.7294794794794797 	300.0251948839417 	0.07282709417251693 	101354.7884205009
-0.7269769769769773 	300.0203183968047 	0.05874896931169207 	101349.0224000616
-0.7244744744744747 	300.0150652146077 	0.04352982410378995 	101342.8112298266
-0.721971971971972 	300.0095473238604 	0.02757756449239097 	101336.2874207819
-0.7194694694694695 	300.0038855764063 	0.01115932782502488 	101329.5937461452
-0.7169669669669674 	299.9981649242474 	0.009082507689390519 	101322.8307889152
-0.7144644644644647 	299.992464330336 	0.02184014837253517 	101316.091838892
-0.711961961961962 	299.9868731760819 	0.03795787642866237 	101309.4825644649
-0.7094594594594597 	299.9815220137143 	0.05340518444265298 	101303.1573152666
-0.7069569569569573 	299.9765148130519 	0.06792390472900091 	101297.2388202158
-0.7044544544544545 	299.9719460920589 	0.08115121287505551 	101291.8388312372
-0.7019519519519523 	299.9679019414787 	0.09278598760463555 	101287.0590083746
-0.6994494494494495 	299.9644720441566 	0.1027165924240006 	101283.0052868174
-0.6969469469469471 	299.961706617055 	0.1107014012841247 	101279.7369961447
-0.6944444444444446 	299.9596671682597 	0.116641147338193 	101277.326662831
-0.6919419419419421 	299.9583756855401 	0.1203814566052576 	101275.8002568519
-0.6894394394394396 	299.957854697813 	0.1218105371843334 	101275.1845343582
-0.6869369369369374 	299.9581136257735 	0.1210339319353287 	101275.4904829384
-0.6844344344344344 	299.9591561614076 	0.1180356812761166 	101276.7224856239
-0.6819319319319321 	299.9609412518893 	0.1128910025887658 	101278.832032571
-0.6794294294294296 	299.9634493619218 	0.1056602394349288 	101281.7960861205
-0.6769269269269272 	299.9666244822215 	0.09642803316375995 	101285.5485198812
-0.6744244244244245 	299.9704190852001 	0.08545745164337497 	101290.033231204
-0.6719219219219222 	299.974758305143 	0.07293113041121693 	101295.1618183951
-0.6694194194194195 	299.9795566456144 	0.05911400421933208 	101300.8332645128
-0.6669169169169172 	299.9846875583916 	0.04426401592544082 	101306.8980436298
-0.6644144144144146 	299.9900639902722 	0.02867592391206628 	101313.2533276514
-0.661911911911912 	299.9955604193031 	0.012769660780809 	101319.7507689186
-0.6594094094094097 	300.0010967147105 	0.00775297847994617 	101326.2956579825
-0.656906906906907 	300.0066254723457 	0.01924627756898819 	101332.8319349068
-0.6544044044044046 	300.0120767730628 	0.03499802506331744 	101339.2769261422
-0.6519019019019021 	300.0173590051448 	0.05023972149135055 	101345.5223263153
-0.6493993993993996 	300.0223581136938 	0.06466415453859449 	101351.4332539188
-0.6468968968968971 	300.0269614511049 	0.0779685300784584 	101356.8764609597
-0.6443943943943946 	300.031085042878 	0.08989969097924214 	101361.7525879461
-0.6418918918918921 	300.0346406102104 	0.1001763210012335 	101365.9571545598
-0.6393893893893897 	300.0375678353245 	0.1086478380250025 	101369.4187992135
-0.6368868868868871 	300.0398157129629 	0.1151319625449203 	101372.077155076
-0.6343843843843846 	300.0413315317319 	0.1194905676144937 	101373.8698339184
-0.6318818818818821 	300.0420803327677 	0.1216866167535652 	101374.7554503937
-0.6293793793793795 	300.0420631991623 	0.12157671836339 	101374.7351677798
-0.6268768768768773 	300.0412542902419 	0.1192228977134999 	101373.7786377617
-0.6243743743743745 	300.0396652253605 	0.114634052045057 	101371.8993269199
-0.6218718718718721 	300.0373183758234 	0.1078171722979302 	101369.124077079
-0.6193693693693696 	300.0342548328163 	0.09899483043453254 	101365.5015574211
-0.6168668668668671 	300.0305342597384 	0.0882507439964207 	101361.1020259198
-0.6143643643643645 	300.0262589808065 	0.07586496734125196 	101356.046677706
-0.6118618618618621 	300.0214780967476 	0.06209002151839994 	101350.3936623451
-0.6093593593593596 	300.0163031325955 	0.04711576292392725 	101344.2749321444
-0.6068568568568571 	300.0108370738874 	0.03132968847207057 	101337.8123164063
-0.6043543543543546 	300.0052013684019 	0.01498754966744673 	101331.1493706992
-0.6018518518518521 	299.9994926952185 	0.006861485329212428 	101324.4004961922
-0.5993493493493496 	299.9937816624456 	0.01804367749301025 	101317.6491318128
-0.5968468468468471 	299.9881501902034 	0.03427733856537946 	101310.9921506188
-0.5943443443443446 	299.9827405256046 	0.04991189563287283 	101304.5976611067
-0.591841841841842 	299.9776551489738 	0.06468218538424064 	101298.5867045151
-0.5893393393393397 	299.9729882900965 	0.07817522755565427 	101293.0706810815
-0.5868368368368371 	299.9688306226892 	0.09011762948323786 	101288.1566408481
-0.5843343343343346 	299.9652714752582 	0.1003964332472171 	101283.9501529782
-0.5818318318318321 	299.9623603387654 	0.1087780493073727 	101280.5096293852
-0.5793293293293297 	299.9601685878425 	0.1151946788203163 	101277.91929793
-0.5768268268268271 	299.9587081021107 	0.1194302553755043 	101276.1931626399
-0.5743243243243245 	299.9580067450343 	0.1213615362489577 	101275.3642566668
-0.5718218218218221 	299.9580904587474 	0.1211041810204304 	101275.4631585482
-0.5693193193193196 	299.958968387322 	0.118605594953371 	101276.5006264365
-0.5668168168168171 	299.960590436271 	0.1139587551235619 	101278.4174813439
-0.5643143143143147 	299.962943523117 	0.1071818170526321 	101281.1983202535
-0.5618118118118121 	299.965958530191 	0.09836606210616006 	101284.7615075623
-0.5593093093093094 	299.9695958068521 	0.08781459454329776 	101289.0602523897
-0.5568068068068072 	299.973793483412 	0.07570410525932848 	101294.0215086821
-0.5543043043043046 	299.9784676307205 	0.06228785032353568 	101299.5461043643
-0.551801801801802 	299.9834913448615 	0.04772253021608142 	101305.4841164295
-0.5492992992992995 	299.9888037366646 	0.03230872695468946 	101311.7636425584
-0.5467967967967969 	299.9942638859023 	0.01652867220131058 	101318.218123885
-0.5442942942942947 	299.9997729389751 	0.005086595572602107 	101324.7307377726
-0.5417917917917919 	300.0052896735704 	0.01535374329241394 	101331.2527223122
-0.5392892892892895 	300.0107553497101 	0.0311391284237262 	101337.7146299095
-0.536786786786787 	300.0160715070349 	0.04648944446101249 	101344.0000878638
-0.5342842842842846 	300.0211232188047 	0.06108670190934391 	101349.9731451789
-0.531781781781782 	300.0258042222428 	0.07463520600176853 	101355.5081279817
-0.5292792792792794 	300.0300332568383 	0.08687744886551596 	101360.5088888575
-0.526776776776777 	300.0337206396345 	0.09755171590268417 	101364.8692759845
-0.5242742742742745 	300.0368082639393 	0.1064843959008371 	101368.5205955594
-0.521771771771772 	300.0392365439878 	0.1134718242932136 	101371.392270114
-0.5192692692692695 	300.0409475901931 	0.118384926289218 	101373.4158049568
-0.516766766766767 	300.0419023841794 	0.1211494413235553 	101374.5450390055
-0.5142642642642645 	300.0420917513931 	0.1216290537259043 	101374.7689699965
-0.511761761761762 	300.0414794925149 	0.1198628781678746 	101374.0449794935
-0.5092592592592596 	300.0400791494988 	0.1158165799729386 	101372.3890740449
-0.506756756756757 	300.0379046750124 	0.1095217717212636 	101369.8176729957
-0.5042542542542544 	300.0349980439744 	0.101178306066526 	101366.3805231931
-0.5017517517517521 	300.0314239171822 	0.0908616301198294 	101362.1540612411
-0.4992492492492494 	300.0272807953599 	0.07885689413674843 	101357.2549711315
-0.496746746746747 	300.0226093626536 	0.06538851809284496 	101351.7313181475
-0.4942442442442445 	300.0175309954629 	0.05065690639019074 	101345.7267342851
-0.4917417417417421 	300.0121302470428 	0.03503704492477405 	101339.3412833385
-0.4892392392392395 	300.0065232550851 	0.01878417245268195 	101332.7121897292
-0.486736736736737 	300.0008198610622 	0.003806150346778283 	101325.9695075106
-0.4842342342342345 	299.9950892420093 	0.01425430686137859 	101319.1949110941
-0.481731731731732 	299.9894205821864 	0.03057631986564642 	101312.4938857995
-0.4792292292292296 	299.9839567586268 	0.04635513996795498 	101306.0353348073
-0.4767267267267268 	299.9787981586558 	0.06132442091643141 	101299.9377482428
-0.4742242242242246 	299.9740399701843 	0.07507557629695813 	101294.3137464726
-0.471721721721722 	299.969779617746 	0.0873471309360374 	101289.278304284
-0.4692192192192195 	299.9660957356726 	0.09801734120227772 	101284.9243547014
-0.4667167167167169 	299.9630455107757 	0.1068277995455602 	101281.319448422
-0.4642142142142145 	299.9606971668607 	0.1137140684720267 	101278.5440266776
-0.461711711711712 	299.9590652786293 	0.1184226872915236 	101276.615347379
-0.4592092092092094 	299.9581855939457 	0.1208398351396055 	101275.5756610913
-0.456706706706707 	299.9580954402454 	0.1210875247776717 	101275.4690967612
-0.4542042042042045 	299.9587926472817 	0.1190677901443703 	101276.2930040625
-0.451701701701702 	299.9602489223507 	0.114893013688157 	101278.0139325647
-0.4491991991991995 	299.9624499451734 	0.1085565635867031 	101280.6150518632
-0.4466966966966969 	299.9653291016085 	0.1001541575218777 	101284.017676767
-0.4441941941941945 	299.9688352204356 	0.09002282863770419 	101288.161382175
-0.441691691691692 	299.972907485487 	0.07831644134366803 	101292.9743760769
-0.4391891891891895 	299.977444974442 	0.06527568344400647 	101298.3373974236
-0.436686686686687 	299.9823589286741 	0.0510265253572855 	101304.1456241138
-0.4341841841841846 	299.9875836909157 	0.0358449966233863 	101310.3215016576
-0.431681681681682 	299.9929916650211 	0.0201994075690279 	101316.7142407419
-0.4291791791791794 	299.9984678013823 	0.004343382513914397 	101323.1878614134
-0.426676676676677 	300.0039622252849 	0.01212033873743546 	101329.683396976
-0.4241741741741744 	300.0094298334447 	0.02733910402692967 	101336.1475250232
-0.421671671671672 	300.0147715054953 	0.04274752841224057 	101342.4630706452
-0.4191691691691694 	300.0198745065563 	0.05747996367954317 	101348.4967103385
-0.4166666666666669 	300.0246391505007 	0.07124445483382937 	101354.1305270547
-0.4141641641641645 	300.0289787651264 	0.08378644421808221 	101359.2619913887
-0.411661661661662 	300.0327961939252 	0.09483605132081815 	101363.776133782
-0.4091591591591594 	300.0360301060027 	0.1042144107712398 	101367.6004038126
-0.406656656656657 	300.0386162121994 	0.1116954694466558 	101370.6587088285
-0.4041541541541545 	300.0405005440063 	0.1171402686235101 	101372.8871563415
-0.401651651651652 	300.0416475787342 	0.120451028320839 	101374.2437252874
-0.3991491491491494 	300.0420363966321 	0.1214965341082331 	101374.7035648221
-0.396646646646647 	300.0416255458381 	0.120309322714655 	101374.2177057096
-0.3941441441441444 	300.0404290801181 	0.1168238720455879 	101372.8029131529
-0.3916416416416419 	300.038451890359 	0.1110737225369082 	101370.4648253417
-0.3891391391391395 	300.0357295551971 	0.1032419597158048 	101367.2455859219
-0.3866366366366368 	300.0323202676655 	0.09339497782596549 	101363.2140381079
-0.3841341341341344 	300.0283082662835 	0.0818164142560525 	101358.4699440031
-0.381631631631632 	300.0237411329322 	0.06868907804109327 	101353.0695771754
-0.3791291291291294 	300.0187487153239 	0.05421117517553213 	101347.1665728141
-0.3766266266266269 	300.0134079165487 	0.03876324412132745 	101340.8519227794
-0.3741241241241244 	300.0078332285259 	0.02260395379899525 	101334.2609672682
-0.371621621621622 	300.0021430606498 	0.006120781790326349 	101327.5338340156
-0.3691191191191194 	299.9964121858873 	0.01151037995410027 	101320.7588703423
-0.366616616616617 	299.9907321389902 	0.02684088900525236 	101314.0443208145
-0.3641141141141143 	299.9852256421622 	0.04277163264140299 	101307.5352427086
-0.3616116116116119 	299.9799909135037 	0.0579236978624681 	101301.3476243624
-0.3591091091091095 	299.9751311391837 	0.07191038971481707 	101295.6034875976
-0.356606606606607 	299.9707544616957 	0.08450979779893818 	101290.4305199338
-0.3541041041041044 	299.9669363735198 	0.09554494120002169 	101285.9179383671
-0.3516016016016019 	299.963746977959 	0.1047803156173165 	101282.1485129569
-0.3490990990990994 	299.9612399713038 	0.1121135132578691 	101279.1855807214
-0.346596596596597 	299.9594429889475 	0.1172846122249692 	101277.0618073842
-0.3440940940940944 	299.9583997987353 	0.1202342541972448 	101275.8288359231
-0.3415915915915919 	299.9581501625432 	0.1210008925765152 	101275.5338338925
-0.3390890890890895 	299.9586747327504 	0.1194778479785973 	101276.1537105219
-0.3365865865865869 	299.9599640695416 	0.1157739711735188 	101277.6773531519
-0.3340840840840844 	299.9619937357596 	0.1098672871688252 	101280.0759635302
-0.3315815815815819 	299.9647156225331 	0.1019024664395614 	101283.2926812117
-0.3290790790790794 	299.9680791213917 	0.0921910537849724 	101287.2678308498
-0.3265765765765769 	299.9720245112587 	0.08086044542466715 	101291.9308259384
-0.3240740740740744 	299.9764309442668 	0.06816277454545934 	101297.1388982565
-0.3215715715715718 	299.981246772816 	0.05421728015963451 	101302.8311084189
-0.3190690690690695 	299.9863900530695 	0.03930792263586582 	101308.9105751063
-0.3165665665665668 	299.9917510298675 	0.0238552344610998 	101315.2477231618
-0.3140640640640644 	299.9971959899574 	0.008102826547014426 	101321.6844101734
-0.311561561561562 	300.002656003182 	0.009263582147124964 	101328.13917978
-0.3090590590590593 	300.0081086412282 	0.02351075960738385 	101334.5855642747
-0.3065565565565568 	300.0134624179643 	0.03897723885495379 	101340.9153112544
-0.3040540540540545 	300.0186059872855 	0.05384073705274391 	101346.9968882351
-0.3015515515515518 	300.0234417481414 	0.06782717899137634 	101352.7147133428
-0.2990490490490494 	300.0278817396019 	0.08065388937506632 	101357.9648062736
-0.2965465465465469 	300.031829477336 	0.09207470805698359 	101362.6330313646
-0.2940440440440444 	300.0352246523279 	0.1018627631858069 	101366.6479256443
-0.2915415415415418 	300.0379853726286 	0.1098026922970364 	101369.9127467511
-0.2890390390390395 	300.0400481665835 	0.1157708569469685 	101372.3521979278