/*--------------------------------*- C++ -*----------------------------------*\
  =========                 |
  \\      /  F ield         | OpenFOAM: The Open Source CFD Toolbox
   \\    /   O peration     | Website:  https://openfoam.org
    \\  /    A nd           | Version:  7
     \\/     M anipulation  |
\*---------------------------------------------------------------------------*/
FoamFile
{
    version     2.0;
    format      ascii;
    class       volScalarField;
    location    "0.00217";
    object      p;
}
// * * * * * * * * * * * * * * * * * * * * * * * * * * * * * * * * * * * * * //

dimensions      [1 -1 -2 0 0 0 0];

internalField   nonuniform List<scalar> 
5000
(
75689.865
75698.794
75707.996
75717.237
75726.494
75735.756
75745.023
75754.293
75763.567
75772.843
75782.12
75791.4
75800.68
75809.962
75819.244
75828.527
75837.809
75847.092
75856.375
75865.657
75874.939
75884.221
75893.502
75902.783
75912.063
75921.342
75930.62
75939.898
75949.176
75958.452
75967.728
75977.002
75986.276
75995.55
76004.822
76014.093
76023.364
76032.634
76041.903
76051.171
76060.438
76069.704
76078.97
76088.235
76097.498
76106.761
76116.024
76125.285
76134.545
76143.805
76153.064
76162.322
76171.579
76180.835
76190.09
76199.345
76208.598
76217.851
76227.103
76236.354
76245.605
76254.854
76264.103
76273.35
76282.597
76291.843
76301.088
76310.333
76319.576
76328.819
76338.061
76347.302
76356.542
76365.781
76375.02
76384.257
76393.494
76402.73
76411.965
76421.199
76430.433
76439.665
76448.897
76458.128
76467.358
76476.587
76485.815
76495.043
76504.27
76513.495
76522.72
76531.945
76541.168
76550.39
76559.612
76568.833
76578.053
76587.272
76596.491
76605.708
76614.925
76624.141
76633.356
76642.57
76651.783
76660.995
76670.207
76679.417
76688.627
76697.836
76707.044
76716.251
76725.457
76734.662
76743.866
76753.069
76762.271
76771.472
76780.672
76789.87
76799.068
76808.265
76817.46
76826.655
76835.848
76845.042
76854.234
76863.426
76872.618
76881.81
76891.001
76900.193
76909.385
76918.578
76927.771
76936.964
76946.158
76955.352
76964.546
76973.741
76982.936
76992.131
77001.325
77010.52
77019.715
77028.909
77038.103
77047.296
77056.489
77065.682
77074.873
77084.064
77093.255
77102.444
77111.633
77120.821
77130.009
77139.195
77148.381
77157.566
77166.75
77175.934
77185.117
77194.298
77203.479
77212.66
77221.839
77231.018
77240.196
77249.373
77258.549
77267.725
77276.899
77286.073
77295.247
77304.419
77313.591
77322.761
77331.931
77341.1
77350.269
77359.437
77368.603
77377.769
77386.935
77396.099
77405.263
77414.426
77423.588
77432.749
77441.91
77451.069
77460.228
77469.387
77478.544
77487.701
77496.856
77506.011
77515.166
77524.319
77533.472
77542.624
77551.775
77560.926
77570.075
77579.224
77588.372
77597.519
77606.666
77615.812
77624.956
77634.101
77643.244
77652.387
77661.528
77670.67
77679.81
77688.949
77698.088
77707.226
77716.363
77725.5
77734.636
77743.77
77752.904
77762.038
77771.17
77780.302
77789.433
77798.564
77807.693
77816.822
77825.95
77835.077
77844.203
77853.329
77862.454
77871.578
77880.701
77889.824
77898.946
77908.067
77917.187
77926.306
77935.425
77944.543
77953.66
77962.776
77971.892
77981.007
77990.121
77999.234
78008.346
78017.457
78026.568
78035.678
78044.787
78053.895
78063.002
78072.108
78081.214
78090.319
78099.422
78108.525
78117.628
78126.729
78135.83
78144.929
78154.029
78163.127
78172.225
78181.322
78190.419
78199.515
78208.611
78217.706
78226.801
78235.896
78244.991
78254.085
78263.179
78272.273
78281.367
78290.461
78299.555
78308.649
78317.743
78326.837
78335.931
78345.025
78354.118
78363.212
78372.305
78381.398
78390.491
78399.584
78408.676
78417.769
78426.86
78435.952
78445.043
78454.133
78463.223
78472.312
78481.401
78490.489
78499.577
78508.664
78517.751
78526.836
78535.921
78545.006
78554.089
78563.173
78572.255
78581.337
78590.418
78599.498
78608.577
78617.656
78626.734
78635.812
78644.888
78653.964
78663.039
78672.114
78681.187
78690.26
78699.333
78708.404
78717.475
78726.545
78735.615
78744.683
78753.751
78762.819
78771.885
78780.951
78790.016
78799.08
78808.144
78817.207
78826.269
78835.331
78844.391
78853.451
78862.511
78871.569
78880.627
78889.684
78898.741
78907.796
78916.851
78925.906
78934.959
78944.012
78953.064
78962.116
78971.167
78980.217
78989.266
78998.315
79007.362
79016.41
79025.456
79034.502
79043.547
79052.591
79061.635
79070.678
79079.72
79088.762
79097.802
79106.842
79115.882
79124.921
79133.959
79142.996
79152.032
79161.068
79170.103
79179.138
79188.172
79197.205
79206.237
79215.269
79224.3
79233.33
79242.359
79251.388
79260.416
79269.443
79278.47
79287.496
79296.521
79305.546
79314.569
79323.592
79332.615
79341.636
79350.657
79359.677
79368.696
79377.715
79386.733
79395.749
79404.766
79413.781
79422.796
79431.81
79440.823
79449.835
79458.847
79467.858
79476.868
79485.877
79494.886
79503.894
79512.901
79521.908
79530.914
79539.919
79548.924
79557.929
79566.933
79575.936
79584.939
79593.942
79602.944
79611.946
79620.947
79629.949
79638.95
79647.951
79656.951
79665.952
79674.952
79683.953
79692.953
79701.953
79710.953
79719.952
79728.952
79737.951
79746.951
79755.95
79764.949
79773.947
79782.946
79791.944
79800.942
79809.94
79818.937
79827.935
79836.931
79845.928
79854.924
79863.919
79872.914
79881.909
79890.903
79899.897
79908.89
79917.883
79926.875
79935.866
79944.857
79953.847
79962.837
79971.826
79980.815
79989.803
79998.79
80007.777
80016.763
80025.748
80034.733
80043.717
80052.7
80061.683
80070.665
80079.647
80088.628
80097.608
80106.587
80115.566
80124.545
80133.522
80142.499
80151.475
80160.451
80169.426
80178.4
80187.374
80196.347
80205.319
80214.291
80223.262
80232.232
80241.202
80250.171
80259.139
80268.107
80277.074
80286.04
80295.006
80303.971
80312.935
80321.899
80330.862
80339.825
80348.787
80357.748
80366.708
80375.668
80384.627
80393.586
80402.544
80411.501
80420.458
80429.414
80438.369
80447.323
80456.277
80465.231
80474.183
80483.136
80492.087
80501.038
80509.988
80518.937
80527.886
80536.834
80545.781
80554.728
80563.674
80572.62
80581.564
80590.508
80599.452
80608.395
80617.337
80626.278
80635.219
80644.159
80653.098
80662.037
80670.975
80679.912
80688.849
80697.785
80706.721
80715.655
80724.589
80733.523
80742.455
80751.388
80760.319
80769.25
80778.18
80787.11
80796.039
80804.968
80813.896
80822.824
80831.751
80840.677
80849.603
80858.529
80867.454
80876.379
80885.303
80894.227
80903.151
80912.074
80920.997
80929.92
80938.842
80947.764
80956.686
80965.608
80974.529
80983.45
80992.371
81001.292
81010.212
81019.133
81028.053
81036.973
81045.892
81054.812
81063.731
81072.65
81081.569
81090.488
81099.406
81108.324
81117.242
81126.16
81135.077
81143.994
81152.911
81161.827
81170.743
81179.659
81188.574
81197.489
81206.403
81215.318
81224.231
81233.144
81242.057
81250.969
81259.881
81268.792
81277.703
81286.614
81295.523
81304.433
81313.341
81322.25
81331.157
81340.064
81348.971
81357.877
81366.782
81375.687
81384.592
81393.495
81402.398
81411.301
81420.203
81429.105
81438.005
81446.906
81455.806
81464.705
81473.603
81482.501
81491.399
81500.295
81509.192
81518.087
81526.982
81535.877
81544.771
81553.664
81562.557
81571.449
81580.341
81589.232
81598.122
81607.012
81615.902
81624.79
81633.679
81642.566
81651.453
81660.34
81669.226
81678.111
81686.996
81695.88
81704.764
81713.647
81722.529
81731.411
81740.293
81749.173
81758.054
81766.933
81775.813
81784.691
81793.569
81802.447
81811.324
81820.2
81829.076
81837.951
81846.826
81855.7
81864.574
81873.447
81882.319
81891.191
81900.063
81908.934
81917.804
81926.674
81935.543
81944.412
81953.28
81962.148
81971.015
81979.881
81988.747
81997.612
82006.477
82015.342
82024.205
82033.069
82041.931
82050.793
82059.655
82068.516
82077.376
82086.236
82095.095
82103.954
82112.812
82121.67
82130.527
82139.384
82148.24
82157.095
82165.95
82174.805
82183.659
82192.512
82201.365
82210.218
82219.07
82227.921
82236.773
82245.623
82254.473
82263.323
82272.172
82281.021
82289.87
82298.718
82307.565
82316.413
82325.26
82334.106
82342.953
82351.799
82360.645
82369.49
82378.335
82387.18
82396.024
82404.869
82413.713
82422.556
82431.4
82440.243
82449.086
82457.928
82466.771
82475.613
82484.455
82493.296
82502.137
82510.978
82519.819
82528.659
82537.499
82546.338
82555.177
82564.016
82572.854
82581.692
82590.529
82599.366
82608.202
82617.037
82625.872
82634.706
82643.54
82652.373
82661.205
82670.036
82678.867
82687.697
82696.526
82705.354
82714.181
82723.007
82731.832
82740.656
82749.479
82758.301
82767.122
82775.941
82784.759
82793.576
82802.392
82811.206
82820.019
82828.83
82837.64
82846.449
82855.255
82864.061
82872.864
82881.666
82890.466
82899.265
82908.061
82916.856
82925.649
82934.439
82943.228
82952.015
82960.8
82969.582
82978.363
82987.141
82995.916
83004.69
83013.461
83022.23
83030.996
83039.76
83048.521
83057.279
83066.035
83074.788
83083.539
83092.286
83101.03
83109.772
83118.511
83127.247
83135.979
83144.709
83153.435
83162.157
83170.877
83179.593
83188.307
83197.017
83205.723
83214.425
83223.123
83231.818
83240.51
83249.198
83257.882
83266.563
83275.239
83283.911
83292.578
83301.242
83309.902
83318.558
83327.211
83335.859
83344.502
83353.141
83361.775
83370.404
83379.03
83387.651
83396.268
83404.88
83413.488
83422.091
83430.689
83439.282
83447.87
83456.453
83465.032
83473.605
83482.173
83490.737
83499.296
83507.85
83516.4
83524.944
83533.483
83542.016
83550.543
83559.064
83567.58
83576.091
83584.596
83593.097
83601.593
83610.084
83618.57
83627.05
83635.525
83643.995
83652.459
83660.917
83669.369
83677.815
83686.255
83694.689
83703.118
83711.542
83719.959
83728.371
83736.776
83745.176
83753.57
83761.958
83770.34
83778.716
83787.087
83795.453
83803.812
83812.166
83820.513
83828.854
83837.19
83845.52
83853.845
83862.164
83870.478
83878.785
83887.087
83895.383
83903.675
83911.96
83920.24
83928.514
83936.783
83945.046
83953.303
83961.556
83969.804
83978.046
83986.283
83994.515
84002.741
84010.962
84019.178
84027.388
84035.594
84043.794
84051.99
84060.18
84068.365
84076.545
84084.72
84092.89
84101.055
84109.216
84117.373
84125.525
84133.673
84141.816
84149.954
84158.087
84166.216
84174.341
84182.461
84190.578
84198.691
84206.799
84214.903
84223.002
84231.097
84239.189
84247.277
84255.361
84263.442
84271.519
84279.592
84287.661
84295.726
84303.787
84311.844
84319.898
84327.948
84335.996
84344.041
84352.082
84360.12
84368.154
84376.184
84384.211
84392.234
84400.254
84408.272
84416.287
84424.299
84432.309
84440.317
84448.322
84456.325
84464.324
84472.319
84480.312
84488.302
84496.29
84504.277
84512.261
84520.243
84528.222
84536.199
84544.173
84552.145
84560.115
84568.082
84576.049
84584.015
84591.979
84599.94
84607.9
84615.857
84623.812
84631.765
84639.716
84647.666
84655.615
84663.564
84671.511
84679.457
84687.402
84695.345
84703.285
84711.224
84719.162
84727.099
84735.036
84742.973
84750.909
84758.844
84766.778
84774.711
84782.642
84790.572
84798.502
84806.432
84814.362
84822.292
84830.221
84838.149
84846.076
84854.002
84861.928
84869.853
84877.779
84885.705
84893.632
84901.558
84909.485
84917.411
84925.337
84933.264
84941.19
84949.116
84957.042
84964.968
84972.895
84980.823
84988.752
84996.682
85004.612
85012.543
85020.474
85028.406
85036.338
85044.271
85052.206
85060.142
85068.08
85076.018
85083.956
85091.896
85099.837
85107.78
85115.725
85123.672
85131.621
85139.572
85147.525
85155.479
85163.435
85171.393
85179.354
85187.316
85195.281
85203.248
85211.218
85219.191
85227.167
85235.147
85243.131
85251.117
85259.106
85267.098
85275.092
85283.089
85291.09
85299.095
85307.104
85315.117
85323.133
85331.153
85339.177
85347.205
85355.237
85363.273
85371.314
85379.358
85387.408
85395.462
85403.522
85411.587
85419.656
85427.731
85435.812
85443.897
85451.986
85460.081
85468.181
85476.285
85484.395
85492.51
85500.632
85508.759
85516.893
85525.032
85533.176
85541.326
85549.48
85557.641
85565.807
85573.98
85582.161
85590.348
85598.541
85606.742
85614.948
85623.161
85631.379
85639.602
85647.832
85656.068
85664.31
85672.56
85680.816
85689.08
85697.35
85705.628
85713.912
85722.202
85730.499
85738.802
85747.112
85755.428
85763.751
85772.08
85780.415
85788.757
85797.106
85805.461
85813.823
85822.191
85830.567
85838.949
85847.338
85855.733
85864.135
85872.543
85880.958
85889.379
85897.807
85906.242
85914.682
85923.129
85931.581
85940.041
85948.506
85956.978
85965.457
85973.94
85982.43
85990.924
85999.425
86007.932
86016.445
86024.963
86033.487
86042.015
86050.549
86059.088
86067.632
86076.181
86084.735
86093.294
86101.857
86110.425
86118.997
86127.574
86136.155
86144.74
86153.327
86161.919
86170.513
86179.112
86187.715
86196.321
86204.931
86213.543
86222.157
86230.774
86239.394
86248.015
86256.638
86265.262
86273.886
86282.512
86291.139
86299.768
86308.398
86317.029
86325.66
86334.292
86342.923
86351.553
86360.184
86368.813
86377.441
86386.067
86394.691
86403.313
86411.933
86420.552
86429.169
86437.784
86446.395
86455.004
86463.608
86472.209
86480.806
86489.398
86497.985
86506.566
86515.142
86523.712
86532.278
86540.839
86549.394
86557.942
86566.483
86575.017
86583.543
86592.062
86600.572
86609.074
86617.567
86626.051
86634.524
86642.988
86651.444
86659.891
86668.327
86676.754
86685.168
86693.57
86701.96
86710.337
86718.703
86727.056
86735.397
86743.724
86752.038
86760.337
86768.622
86776.892
86785.148
86793.389
86801.615
86809.825
86818.018
86826.194
86834.353
86842.496
86850.621
86858.729
86866.818
86874.889
86882.94
86890.972
86898.984
86906.978
86914.951
86922.905
86930.837
86938.748
86946.637
86954.504
86962.349
86970.172
86977.973
86985.751
86993.506
87001.236
87008.943
87016.625
87024.284
87031.918
87039.528
87047.111
87054.669
87062.2
87069.705
87077.183
87084.636
87092.062
87099.461
87106.831
87114.174
87121.488
87128.774
87136.031
87143.26
87150.46
87157.631
87164.772
87171.884
87178.965
87186.017
87193.038
87200.029
87206.989
87213.918
87220.815
87227.681
87234.515
87241.318
87248.088
87254.827
87261.533
87268.207
87274.848
87281.457
87288.033
87294.576
87301.086
87307.562
87314.005
87320.414
87326.79
87333.131
87339.44
87345.713
87351.953
87358.159
87364.33
87370.467
87376.57
87382.638
87388.671
87394.67
87400.635
87406.564
87412.459
87418.319
87424.145
87429.935
87435.691
87441.411
87447.097
87452.749
87458.365
87463.946
87469.493
87475.005
87480.482
87485.924
87491.331
87496.704
87502.042
87507.346
87512.615
87517.85
87523.05
87528.216
87533.348
87538.446
87543.51
87548.54
87553.536
87558.498
87563.427
87568.321
87573.183
87578.011
87582.806
87587.568
87592.297
87596.993
87601.657
87606.288
87610.886
87615.453
87619.987
87624.49
87628.961
87633.4
87637.808
87642.185
87646.531
87650.846
87655.13
87659.384
87663.607
87667.801
87671.964
87676.098
87680.202
87684.276
87688.322
87692.339
87696.326
87700.286
87704.217
87708.12
87711.995
87715.842
87719.662
87723.454
87727.219
87730.958
87734.67
87738.355
87742.015
87745.648
87749.256
87752.838
87756.395
87759.927
87763.434
87766.917
87770.375
87773.809
87777.219
87780.606
87783.969
87787.309
87790.626
87793.92
87797.191
87800.441
87803.668
87806.873
87810.057
87813.219
87816.361
87819.482
87822.582
87825.661
87828.721
87831.761
87834.781
87837.782
87840.763
87843.726
87846.67
87849.595
87852.503
87855.392
87858.264
87861.118
87863.954
87866.774
87869.577
87872.363
87875.133
87877.886
87880.624
87883.345
87886.052
87888.743
87891.419
87894.08
87896.727
87899.359
87901.976
87904.579
87907.169
87909.745
87912.308
87914.858
87917.395
87919.918
87922.43
87924.929
87927.415
87929.89
87932.352
87934.802
87937.241
87939.668
87942.084
87944.489
87946.884
87949.268
87951.642
87954.006
87956.359
87958.701
87961.034
87963.358
87965.672
87967.977
87970.272
87972.557
87974.834
87977.102
87979.362
87981.613
87983.856
87986.09
87988.317
87990.536
87992.747
87994.95
87997.146
87999.334
88001.514
88003.687
88005.854
88008.013
88010.166
88012.311
88014.45
88016.583
88018.708
88020.828
88022.942
88025.049
88027.151
88029.247
88031.338
88033.422
88035.501
88037.574
88039.642
88041.705
88043.762
88045.814
88047.861
88049.903
88051.94
88053.973
88056
88058.023
88060.042
88062.056
88064.066
88066.071
88068.073
88070.07
88072.062
88074.051
88076.036
88078.016
88079.993
88081.967
88083.936
88085.901
88087.863
88089.822
88091.776
88093.728
88095.675
88097.62
88099.561
88101.499
88103.434
88105.366
88107.294
88109.219
88111.141
88113.06
88114.976
88116.889
88118.799
88120.706
88122.61
88124.512
88126.411
88128.307
88130.2
88132.09
88133.978
88135.863
88137.746
88139.626
88141.503
88143.378
88145.251
88147.121
88148.988
88150.853
88152.716
88154.576
88156.434
88158.29
88160.143
88161.994
88163.842
88165.689
88167.533
88169.375
88171.214
88173.051
88174.887
88176.72
88178.551
88180.38
88182.206
88184.031
88185.853
88187.673
88189.491
88191.308
88193.122
88194.934
88196.744
88198.552
88200.357
88202.161
88203.962
88205.761
88207.559
88209.354
88211.148
88212.94
88214.729
88216.517
88218.303
88220.086
88221.868
88223.648
88225.426
88227.202
88228.976
88230.747
88232.517
88234.285
88236.05
88237.814
88239.576
88241.335
88243.093
88244.849
88246.604
88248.356
88250.106
88251.854
88253.6
88255.345
88257.087
88258.827
88260.565
88262.302
88264.036
88265.768
88267.498
88269.226
88270.952
88272.676
88274.398
88276.118
88277.837
88279.553
88281.267
88282.979
88284.689
88286.397
88288.103
88289.807
88291.509
88293.209
88294.907
88296.603
88298.297
88299.989
88301.679
88303.367
88305.053
88306.737
88308.419
88310.099
88311.777
88313.453
88315.127
88316.799
88318.469
88320.137
88321.804
88323.468
88325.13
88326.79
88328.448
88330.104
88331.758
88333.411
88335.061
88336.709
88338.355
88340
88341.642
88343.283
88344.921
88346.558
88348.193
88349.825
88351.456
88353.085
88354.712
88356.336
88357.959
88359.581
88361.2
88362.817
88364.432
88366.045
88367.656
88369.266
88370.873
88372.479
88374.083
88375.684
88377.284
88378.882
88380.477
88382.071
88383.663
88385.253
88386.841
88388.427
88390.012
88391.594
88393.174
88394.752
88396.328
88397.903
88399.476
88401.046
88402.615
88404.181
88405.746
88407.308
88408.869
88410.428
88411.985
88413.54
88415.093
88416.644
88418.193
88419.739
88421.285
88422.828
88424.369
88425.908
88427.446
88428.981
88430.514
88432.045
88433.574
88435.102
88436.628
88438.151
88439.673
88441.192
88442.709
88444.225
88445.738
88447.25
88448.76
88450.268
88451.773
88453.277
88454.778
88456.278
88457.775
88459.271
88460.765
88462.257
88463.747
88465.234
88466.72
88468.203
88469.685
88471.164
88472.642
88474.118
88475.592
88477.063
88478.533
88480
88481.465
88482.928
88484.39
88485.85
88487.307
88488.762
88490.215
88491.665
88493.114
88494.561
88496.006
88497.449
88498.889
88500.328
88501.764
88503.197
88504.629
88506.059
88507.487
88508.913
88510.336
88511.758
88513.176
88514.593
88516.007
88517.419
88518.83
88520.238
88521.644
88523.048
88524.449
88525.847
88527.244
88528.639
88530.031
88531.421
88532.809
88534.194
88535.577
88536.958
88538.336
88539.712
88541.087
88542.459
88543.828
88545.195
88546.559
88547.921
88549.281
88550.639
88551.994
88553.347
88554.698
88556.046
88557.392
88558.735
88560.076
88561.415
88562.752
88564.086
88565.418
88566.747
88568.074
88569.398
88570.721
88572.041
88573.359
88574.674
88575.987
88577.297
88578.605
88579.911
88581.214
88582.516
88583.815
88585.112
88586.406
88587.698
88588.987
88590.274
88591.559
88592.842
88594.123
88595.401
88596.677
88597.951
88599.222
88600.491
88601.757
88603.022
88604.285
88605.545
88606.803
88608.058
88609.311
88610.562
88611.811
88613.058
88614.303
88615.545
88616.785
88618.023
88619.258
88620.492
88621.723
88622.953
88624.18
88625.405
88626.628
88627.848
88629.067
88630.283
88631.497
88632.71
88633.92
88635.128
88636.333
88637.536
88638.738
88639.937
88641.135
88642.33
88643.523
88644.714
88645.903
88647.089
88648.274
88649.457
88650.637
88651.816
88652.992
88654.166
88655.338
88656.508
88657.675
88658.841
88660.005
88661.166
88662.326
88663.483
88664.637
88665.79
88666.941
88668.089
88669.236
88670.38
88671.522
88672.662
88673.8
88674.936
88676.069
88677.2
88678.329
88679.457
88680.581
88681.703
88682.823
88683.941
88685.057
88686.171
88687.282
88688.392
88689.499
88690.604
88691.706
88692.806
88693.904
88694.999
88696.093
88697.184
88698.273
88699.359
88700.444
88701.526
88702.605
88703.682
88704.757
88705.829
88706.899
88707.967
88709.033
88710.096
88711.157
88712.215
88713.271
88714.325
88715.376
88716.425
88717.472
88718.516
88719.557
88720.597
88721.634
88722.668
88723.7
88724.729
88725.757
88726.782
88727.804
88728.824
88729.842
88730.857
88731.869
88732.88
88733.888
88734.893
88735.896
88736.897
88737.895
88738.891
88739.884
88740.875
88741.863
88742.849
88743.832
88744.813
88745.792
88746.768
88747.742
88748.713
88749.682
88750.648
88751.612
88752.574
88753.533
88754.49
88755.445
88756.397
88757.347
88758.294
88759.238
88760.181
88761.121
88762.058
88762.994
88763.926
88764.857
88765.785
88766.71
88767.633
88768.554
88769.473
88770.389
88771.303
88772.215
88773.124
88774.031
88774.936
88775.839
88776.739
88777.637
88778.533
88779.426
88780.317
88781.206
88782.092
88782.976
88783.858
88784.737
88785.615
88786.49
88787.363
88788.234
88789.103
88789.969
88790.834
88791.697
88792.557
88793.416
88794.272
88795.126
88795.978
88796.827
88797.675
88798.52
88799.363
88800.204
88801.043
88801.88
88802.715
88803.547
88804.378
88805.206
88806.033
88806.858
88807.681
88808.503
88809.323
88810.14
88810.956
88811.769
88812.58
88813.389
88814.196
88815.002
88815.806
88816.608
88817.408
88818.206
88819.002
88819.796
88820.589
88821.38
88822.169
88822.955
88823.739
88824.521
88825.301
88826.079
88826.856
88827.631
88828.403
88829.175
88829.944
88830.711
88831.477
88832.241
88833.003
88833.763
88834.522
88835.278
88836.033
88836.786
88837.536
88838.285
88839.032
88839.776
88840.519
88841.26
88841.999
88842.737
88843.472
88844.206
88844.938
88845.668
88846.396
88847.122
88847.846
88848.569
88849.289
88850.008
88850.724
88851.439
88852.151
88852.862
88853.57
88854.277
88854.982
88855.684
88856.385
88857.084
88857.781
88858.476
88859.169
88859.86
88860.548
88861.235
88861.92
88862.603
88863.284
88863.962
88864.639
88865.314
88865.986
88866.656
88867.325
88867.991
88868.655
88869.317
88869.977
88870.635
88871.29
88871.944
88872.595
88873.245
88873.892
88874.537
88875.18
88875.821
88876.459
88877.095
88877.73
88878.362
88878.991
88879.619
88880.244
88880.867
88881.488
88882.107
88882.724
88883.338
88883.95
88884.56
88885.167
88885.773
88886.376
88886.977
88887.576
88888.172
88888.766
88889.358
88889.948
88890.535
88891.12
88891.703
88892.284
88892.862
88893.438
88894.012
88894.583
88895.152
88895.719
88896.284
88896.846
88897.407
88897.964
88898.52
88899.073
88899.624
88900.173
88900.719
88901.263
88901.805
88902.344
88902.882
88903.417
88903.95
88904.48
88905.008
88905.534
88906.058
88906.58
88907.099
88907.616
88908.131
88908.643
88909.154
88909.662
88910.168
88910.671
88911.173
88911.672
88912.169
88912.664
88913.157
88913.647
88914.135
88914.621
88915.105
88915.587
88916.066
88916.544
88917.019
88917.492
88917.962
88918.431
88918.897
88919.362
88919.824
88920.284
88920.742
88921.197
88921.651
88922.102
88922.551
88922.998
88923.443
88923.886
88924.327
88924.765
88925.202
88925.636
88926.068
88926.499
88926.927
88927.352
88927.776
88928.198
88928.617
88929.035
88929.45
88929.864
88930.275
88930.684
88931.091
88931.496
88931.898
88932.299
88932.698
88933.094
88933.489
88933.881
88934.271
88934.659
88935.045
88935.429
88935.811
88936.191
88936.568
88936.944
88937.317
88937.688
88938.058
88938.425
88938.79
88939.152
88939.513
88939.872
88940.228
88940.582
88940.934
88941.284
88941.632
88941.978
88942.321
88942.663
88943.002
88943.339
88943.674
88944.006
88944.337
88944.665
88944.991
88945.315
88945.637
88945.956
88946.274
88946.589
88946.901
88947.212
88947.52
88947.826
88948.13
88948.432
88948.731
88949.028
88949.323
88949.615
88949.905
88950.193
88950.478
88950.762
88951.042
88951.321
88951.597
88951.871
88952.142
88952.411
88952.678
88952.942
88953.204
88953.464
88953.721
88953.975
88954.228
88954.477
88954.725
88954.97
88955.212
88955.453
88955.69
88955.925
88956.158
88956.388
88956.616
88956.841
88957.064
88957.284
88957.502
88957.717
88957.93
88958.14
88958.348
88958.553
88958.756
88958.956
88959.153
88959.348
88959.541
88959.73
88959.918
88960.102
88960.284
88960.464
88960.641
88960.815
88960.987
88961.156
88961.322
88961.486
88961.647
88961.806
88961.962
88962.116
88962.266
88962.415
88962.56
88962.703
88962.843
88962.981
88963.116
88963.248
88963.378
88963.505
88963.629
88963.751
88963.87
88963.987
88964.101
88964.212
88964.321
88964.427
88964.53
88964.631
88964.729
88964.825
88964.918
88965.008
88965.096
88965.181
88965.264
88965.344
88965.421
88965.496
88965.568
88965.638
88965.705
88965.77
88965.832
88965.891
88965.948
88966.003
88966.054
88966.104
88966.151
88966.195
88966.237
88966.276
88966.313
88966.347
88966.379
88966.408
88966.435
88966.46
88966.482
88966.501
88966.518
88966.533
88966.545
88966.555
88966.562
88966.567
88966.57
88966.57
88966.568
88966.563
88966.556
88966.547
88966.535
88966.521
88966.505
88966.486
88966.465
88966.442
88966.416
88966.388
88966.358
88966.326
88966.291
88966.254
88966.214
88966.172
88966.128
88966.082
88966.034
88965.983
88965.93
88965.875
88965.818
88965.758
88965.697
88965.633
88965.566
88965.498
88965.427
88965.355
88965.28
88965.203
88965.123
88965.042
88964.958
88964.872
88964.784
88964.694
88964.602
88964.507
88964.41
88964.312
88964.211
88964.107
88964.002
88963.895
88963.785
88963.673
88963.559
88963.443
88963.325
88963.205
88963.082
88962.958
88962.831
88962.702
88962.571
88962.438
88962.302
88962.165
88962.025
88961.883
88961.739
88961.593
88961.444
88961.294
88961.141
88960.986
88960.829
88960.67
88960.508
88960.344
88960.179
88960.011
88959.84
88959.668
88959.493
88959.316
88959.137
88958.956
88958.772
88958.587
88958.399
88958.208
88958.016
88957.821
88957.624
88957.425
88957.223
88957.02
88956.814
88956.605
88956.395
88956.182
88955.967
88955.749
88955.529
88955.307
88955.083
88954.856
88954.627
88954.396
88954.162
88953.926
88953.688
88953.447
88953.204
88952.959
88952.712
88952.462
88952.209
88951.955
88951.698
88951.439
88951.178
88950.914
88950.648
88950.379
88950.109
88949.835
88949.559
88949.28
88948.998
88948.714
88948.426
88948.136
88947.843
88947.548
88947.251
88946.952
88946.652
88946.35
88946.046
88945.74
88945.431
88945.119
88944.803
88944.485
88944.163
88943.838
88943.511
88943.183
88942.853
88942.522
88942.189
88941.852
88941.512
88941.168
88940.822
88940.473
88940.122
88939.77
88939.416
88939.059
88938.7
88938.337
88937.971
88937.602
88937.232
88936.86
88936.486
88936.109
88935.73
88935.347
88934.961
88934.574
88934.184
88933.793
88933.398
88933.001
88932.601
88932.199
88931.794
88931.387
88930.978
88930.566
88930.152
88929.735
88929.315
88928.894
88928.469
88928.043
88927.614
88927.182
88926.748
88926.312
88925.873
88925.432
88924.988
88924.542
88924.093
88923.642
88923.189
88922.734
88922.276
88921.816
88921.354
88920.89
88920.423
88919.955
88919.484
88919.011
88918.537
88918.06
88917.581
88917.101
88916.618
88916.133
88915.646
88915.157
88914.666
88914.173
88913.678
88913.181
88912.682
88912.18
88911.675
88911.168
88910.659
88910.146
88909.631
88909.114
88908.594
88908.072
88907.548
88907.021
88906.493
88905.963
88905.43
88904.895
88904.357
88903.816
88903.273
88902.728
88902.179
88901.628
88901.075
88900.52
88899.964
88899.405
88898.845
88898.282
88897.718
88897.151
88896.581
88896.008
88895.433
88894.855
88894.276
88893.694
88893.112
88892.529
88891.945
88891.36
88890.772
88890.181
88889.587
88888.989
88888.387
88887.783
88887.177
88886.57
88885.963
88885.357
88884.751
88884.145
88883.535
88882.921
88882.302
88881.677
88881.046
88880.411
88879.776
88879.141
88878.51
88877.882
88877.257
88876.632
88876.003
88875.367
88874.721
88874.063
88873.397
88872.725
88872.053
88871.388
88870.732
88870.087
88869.45
88868.815
88868.174
88867.516
88866.837
88866.136
88865.421
88864.7
88863.985
88863.281
88862.597
88861.941
88861.32
88860.724
88860.103
88859.395
88858.674
88857.695
88857.071
88856.38
88855.647
88854.983
88854.34
88853.669
88852.976
88852.269
88851.551
88850.826
88850.1
88849.379
88848.665
88847.959
88847.259
88846.562
88845.865
88845.163
88844.455
88843.741
88843.019
88842.294
88841.565
88840.836
88840.107
88839.378
88838.65
88837.92
88837.189
88836.455
88835.717
88834.976
88834.23
88833.481
88832.729
88831.975
88831.22
88830.462
88829.703
88828.942
88828.178
88827.412
88826.643
88825.871
88825.096
88824.319
88823.538
88822.755
88821.97
88821.183
88820.393
88819.6
88818.806
88818.008
88817.209
88816.406
88815.601
88814.793
88813.983
88813.17
88812.355
88811.537
88810.717
88809.894
88809.069
88808.241
88807.411
88806.578
88805.743
88804.905
88804.065
88803.222
88802.377
88801.529
88800.679
88799.827
88798.972
88798.114
88797.254
88796.392
88795.528
88794.661
88793.791
88792.919
88792.045
88791.168
88790.289
88789.408
88788.524
88787.638
88786.75
88785.859
88784.966
88784.071
88783.173
88782.273
88781.371
88780.466
88779.559
88778.65
88777.739
88776.825
88775.909
88774.991
88774.071
88773.149
88772.224
88771.297
88770.368
88769.437
88768.503
88767.567
88766.63
88765.69
88764.747
88763.803
88762.857
88761.908
88760.958
88760.005
88759.05
88758.093
88757.134
88756.173
88755.209
88754.244
88753.277
88752.307
88751.336
88750.362
88749.387
88748.409
88747.429
88746.447
88745.464
88744.478
88743.49
88742.5
88741.508
88740.514
88739.518
88738.52
88737.52
88736.519
88735.515
88734.509
88733.501
88732.491
88731.479
88730.465
88729.449
88728.431
88727.411
88726.389
88725.365
88724.339
88723.311
88722.281
88721.249
88720.215
88719.179
88718.141
88717.101
88716.059
88715.015
88713.969
88712.92
88711.87
88710.818
88709.764
88708.707
88707.649
88706.589
88705.526
88704.462
88703.395
88702.327
88701.256
88700.183
88699.108
88698.031
88696.952
88695.871
88694.788
88693.703
88692.616
88691.526
88690.434
88689.341
88688.245
88687.147
88686.047
88684.945
88683.84
88682.734
88681.625
88680.514
88679.401
88678.286
88677.168
88676.049
88674.927
88673.803
88672.677
88671.548
88670.418
88669.285
88668.15