/*--------------------------------*- C++ -*----------------------------------*\
  =========                 |
  \\      /  F ield         | OpenFOAM: The Open Source CFD Toolbox
   \\    /   O peration     | Website:  https://openfoam.org
    \\  /    A nd           | Version:  7
     \\/     M anipulation  |
\*---------------------------------------------------------------------------*/
FoamFile
{
    version     2.0;
    format      ascii;
    class       surfaceScalarField;
    location    "0.00108";
    object      phi;
}
// * * * * * * * * * * * * * * * * * * * * * * * * * * * * * * * * * * * * * //

dimensions      [1 0 -1 0 0 0 0];

internalField   nonuniform List<scalar> 
4999
(
7.1054274e-15
2.1316282e-14
-7.1054274e-15
-7.1054274e-15
-1.4210855e-14
-1.4210855e-14
-2.8421709e-14
-4.9737992e-14
-5.6843419e-14
-5.6843419e-14
-6.3948846e-14
-6.3948846e-14
-5.6843419e-14
-5.6843419e-14
-4.9737992e-14
-5.6843419e-14
-4.9737992e-14
-6.3948846e-14
-7.1054274e-14
-6.3948846e-14
-7.1054274e-14
-6.3948846e-14
-7.1054274e-14
-6.3948846e-14
-7.1054274e-14
-6.3948846e-14
-7.1054274e-14
-6.3948846e-14
-6.3948846e-14
-7.1054274e-14
-7.8159701e-14
-5.6843419e-14
-6.3948846e-14
-5.6843419e-14
-7.1054274e-14
-7.1054274e-14
-7.1054274e-14
-6.3948846e-14
-6.3948846e-14
-4.9737992e-14
-3.5527137e-14
-4.2632564e-14
-3.5527137e-14
-2.8421709e-14
-4.2632564e-14
-2.8421709e-14
-4.2632564e-14
-4.2632564e-14
-6.3948846e-14
-6.3948846e-14
-5.6843419e-14
-6.3948846e-14
-7.1054274e-14
-7.1054274e-14
-7.8159701e-14
-6.3948846e-14
-5.6843419e-14
-6.3948846e-14
-6.3948846e-14
-5.6843419e-14
-6.3948846e-14
-7.1054274e-14
-7.1054274e-14
-4.9737992e-14
-5.6843419e-14
-7.1054274e-14
-6.3948846e-14
-7.1054274e-14
-8.5265128e-14
-8.5265128e-14
-7.8159701e-14
-9.2370556e-14
-7.8159701e-14
-8.5265128e-14
-7.8159701e-14
-7.1054274e-14
-7.1054274e-14
-7.1054274e-14
-6.3948846e-14
-6.3948846e-14
-5.6843419e-14
-5.6843419e-14
-5.6843419e-14
-6.3948846e-14
-4.9737992e-14
-5.6843419e-14
-4.9737992e-14
-5.6843419e-14
-6.3948846e-14
-4.2632564e-14
-3.5527137e-14
-2.8421709e-14
-2.8421709e-14
-2.8421709e-14
-2.1316282e-14
-1.4210855e-14
-2.8421709e-14
-2.1316282e-14
-1.4210855e-14
-7.1054274e-15
7.1054274e-15
7.1054274e-15
7.1054274e-15
2.8421709e-14
2.8421709e-14
3.5527137e-14
4.2632564e-14
3.5527137e-14
4.9737992e-14
3.5527137e-14
4.9737992e-14
6.3948846e-14
7.1054274e-14
7.8159701e-14
7.1054274e-14
8.5265128e-14
9.9475983e-14
1.2079227e-13
1.4210855e-13
1.563194e-13
1.6342483e-13
1.7763568e-13
1.8474111e-13
2.0605739e-13
2.1316282e-13
2.5579538e-13
2.7711167e-13
3.126388e-13
3.4816594e-13
3.907985e-13
4.3343107e-13
4.7606363e-13
5.3290705e-13
5.968559e-13
6.5369932e-13
7.2475359e-13
7.9580786e-13
8.7396756e-13
9.8054898e-13
1.0729195e-12
1.1652901e-12
1.3002932e-12
1.41398e-12
1.5774049e-12
1.7266188e-12
1.91136e-12
2.0961011e-12
2.295053e-12
2.5153213e-12
2.7569058e-12
3.0411229e-12
3.32534e-12
3.6308734e-12
3.9648285e-12
4.3485215e-12
4.7464255e-12
5.2082783e-12
5.6843419e-12
6.2172489e-12
6.7856831e-12
7.432277e-12
8.1215035e-12
8.8675733e-12
9.6918029e-12
1.0579981e-11
1.156053e-11
1.2626344e-11
1.3784529e-11
1.5049295e-11
1.6413537e-11
1.7898572e-11
1.953282e-11
2.1316282e-11
2.3241853e-11
2.5345059e-11
2.7647218e-11
3.0119907e-11
3.283418e-11
3.5790038e-11
3.898748e-11
4.2469139e-11
4.6277648e-11
5.0384585e-11
5.4875215e-11
5.9756644e-11
6.5050187e-11
7.0791373e-11
7.7022833e-11
8.3794305e-11
9.1155528e-11
9.9156239e-11
1.0783907e-10
1.1727508e-10
1.2750689e-10
1.3861268e-10
1.5065638e-10
1.6372326e-10
1.7789148e-10
1.9326052e-10
2.0993696e-10
2.2800606e-10
2.4758151e-10
2.6881253e-10
2.9183411e-10
3.1677416e-10
3.4381031e-10
3.7309178e-10
4.047962e-10
4.3912962e-10
4.7629811e-10
5.1654325e-10
5.6012084e-10
6.0727245e-10
6.5829653e-10
7.1349149e-10
7.7322682e-10
8.3782936e-10
9.0768992e-10
9.8322772e-10
1.0649188e-09
1.1532038e-09
1.2486367e-09
1.3517507e-09
1.4631709e-09
1.5835511e-09
1.7135733e-09
1.8540049e-09
2.0056632e-09
2.1693864e-09
2.346134e-09
2.5369076e-09
2.7428015e-09
2.9649598e-09
3.204633e-09
3.4631569e-09
3.7420023e-09
4.0426968e-09
4.3668962e-09
4.7163908e-09
5.0931064e-09
5.4990892e-09
5.9365703e-09
6.4078733e-09
6.9155845e-09
7.462404e-09
8.0512592e-09
8.6852836e-09
9.3678238e-09
1.0102511e-08
1.0893181e-08
1.1743957e-08
1.2659306e-08
1.3643934e-08
1.4702927e-08
1.5841728e-08
1.7066206e-08
1.8382551e-08
1.979744e-08
2.1318002e-08
2.2951916e-08
2.470729e-08
2.6592915e-08
2.8618118e-08
3.0792911e-08
3.3127947e-08
3.5634642e-08
3.832519e-08
4.1212623e-08
4.4310859e-08
4.7634778e-08
5.1200225e-08
5.5024159e-08
5.9124673e-08
6.3521064e-08
6.8233945e-08
7.3285285e-08
7.8698534e-08
8.4498694e-08
9.0712426e-08
9.7368158e-08
1.0449618e-07
1.121288e-07
1.2030041e-07
1.2904769e-07
1.3840967e-07
1.4842797e-07
1.5914683e-07
1.7061343e-07
1.8287793e-07
1.9599376e-07
2.1001772e-07
2.2501028e-07
2.4103573e-07
2.5816247e-07
2.764632e-07
2.9601522e-07
3.1690068e-07
3.3920693e-07
3.6302672e-07
3.8845859e-07
4.1560718e-07
4.445837e-07
4.7550615e-07
5.0849977e-07
5.4369756e-07
5.8124058e-07
6.2127851e-07
6.6397017e-07
7.0948391e-07
7.579983e-07
8.0970265e-07
8.6479759e-07
9.2349578e-07
9.8602249e-07
1.0526164e-06
1.1235304e-06
1.1990321e-06
1.2794049e-06
1.364949e-06
1.4559819e-06
1.5528395e-06
1.6558774e-06
1.7654717e-06
1.8820199e-06
2.0059427e-06
2.1376845e-06
2.2777151e-06
2.4265312e-06
2.5846572e-06
2.7526474e-06
2.9310869e-06
3.1205938e-06
3.3218205e-06
3.5354556e-06
3.7622261e-06
4.0028985e-06
4.258282e-06
4.5292295e-06
4.8166409e-06
5.1214646e-06
5.4447004e-06
5.787402e-06
6.1506795e-06
6.5357025e-06
6.9437029e-06
7.3759777e-06
7.8338926e-06
8.3188852e-06
8.8324683e-06
9.3762336e-06
9.9518557e-06
1.0561096e-05
1.1205806e-05
1.1887933e-05
1.2609524e-05
1.3372729e-05
1.4179809e-05
1.5033137e-05
1.5935207e-05
1.6888636e-05
1.7896174e-05
1.8960704e-05
2.0085254e-05
2.1273001e-05
2.2527277e-05
2.3851575e-05
2.5249558e-05
2.6725069e-05
2.8282132e-05
2.9924964e-05
3.1657986e-05
3.3485824e-05
3.5413327e-05
3.7445568e-05
3.958786e-05
4.184576e-05
4.4225086e-05
4.6731921e-05
4.9372628e-05
5.215386e-05
5.5082573e-05
5.8166037e-05
6.1411846e-05
6.4827937e-05
6.8422598e-05
7.2204485e-05
7.6182634e-05
8.0366477e-05
8.4765856e-05
8.9391041e-05
9.4252742e-05
9.9362131e-05
0.00010473085
0.00011037105
0.00011629537
0.000122517
0.00012904967
0.00013590768
0.00014310592
0.00015065989
0.00015858571
0.00016690018
0.00017562075
0.00018476557
0.00019435353
0.00020440424
0.00021493811
0.00022597632
0.00023754089
0.00024965467
0.00026234141
0.00027562572
0.0002895332
0.00030409035
0.0003193247
0.00033526478
0.00035194018
0.00036938156
0.0003876207
0.00040669052
0.00042662511
0.00044745979
0.00046923111
0.00049197689
0.00051573629
0.00054054979
0.00056645928
0.00059350805
0.00062174087
0.00065120398
0.00068194517
0.00071401381
0.00074746084
0.0007823389
0.00081870229
0.00085660703
0.00089611091
0.00093727356
0.00098015641
0.0010248228
0.001071338
0.0011197692
0.0011701858
0.0012226589
0.001277262
0.0013340705
0.0013931622
0.001454617
0.001518517
0.0015849467
0.0016539928
0.0017257445
0.0018002934
0.0018777335
0.0019581612
0.0020416756
0.0021283783
0.0022183734
0.0023117679
0.0024086711
0.0025091953
0.0026134554
0.0027215691
0.0028336569
0.0029498421
0.0030702509
0.0031950124
0.0033242586
0.0034581243
0.0035967475
0.003740269
0.0038888326
0.0040425853
0.004201677
0.0043662606
0.0045364922
0.0047125308
0.0048945387
0.0050826811
0.0052771264
0.0054780462
0.0056856149
0.0059000103
0.0061214131
0.0063500072
0.0065859796
0.0068295201
0.0070808219
0.0073400811
0.0076074968
0.007883271
0.0081676088
0.0084607182
0.0087628101
0.0090740983
0.0093947994
0.0097251328
0.010065321
0.010415588
0.010776162
0.011147273
0.011529153
0.011922038
0.012326166
0.012741776
0.01316911
0.013608414
0.014059933
0.014523917
0.015000615
0.015490282
0.01599317
0.016509537
0.017039639
0.017583738
0.018142092
0.018714965
0.01930262
0.019905322
0.020523336
0.021156928
0.021806367
0.022471919
0.023153855
0.023852442
0.024567951
0.025300652
0.026050813
0.026818705
0.027604598
0.02840876
0.029231462
0.03007297
0.030933554
0.031813479
0.032713013
0.033632419
0.034571962
0.035531904
0.036512505
0.037514026
0.038536723
0.039580852
0.040646667
0.041734419
0.042844357
0.043976728
0.045131776
0.046309743
0.047510866
0.048735383
0.049983524
0.051255519
0.052551595
0.053871974
0.055216874
0.056586511
0.057981096
0.059400836
0.060845936
0.062316593
0.063813003
0.065335356
0.066883838
0.06845863
0.07005991
0.071687849
0.073342613
0.075024366
0.076733263
0.078469457
0.080233094
0.082024315
0.083843257
0.085690049
0.087564818
0.089467681
0.091398753
0.093358142
0.09534595
0.097362274
0.099407204
0.10148083
0.10358322
0.10571445
0.1078746
0.11006371
0.11228186
0.11452907
0.11680541
0.1191109
0.12144558
0.12380947
0.12620258
0.12862494
0.13107655
0.13355741
0.13606751
0.13860684
0.14117539
0.14377312
0.14640002
0.14905605
0.15174115
0.1544553
0.15719843
0.15997048
0.16277139
0.16560109
0.16845951
0.17134656
0.17426215
0.1772062
0.1801786
0.18317925
0.18620804
0.18926486
0.19234958
0.19546209
0.19860225
0.20176993
0.20496499
0.20818728
0.21143665
0.21471296
0.21801603
0.22134572
0.22470184
0.22808423
0.2314927
0.23492709
0.2383872
0.24187284
0.24538383
0.24891995
0.25248101
0.25606681
0.25967713
0.26331177
0.2669705
0.2706531
0.27435936
0.27808903
0.28184191
0.28561774
0.28941629
0.29323733
0.29708061
0.30094588
0.3048329
0.30874141
0.31267116
0.31662189
0.32059335
0.32458526
0.32859737
0.33262941
0.33668111
0.3407522
0.3448424
0.34895144
0.35307904
0.35722492
0.3613888
0.36557039
0.36976942
0.37398558
0.3782186
0.38246817
0.38673402
0.39101584
0.39531334
0.39962623
0.40395419
0.40829695
0.41265418
0.4170256
0.42141089
0.42580976
0.43022189
0.43464698
0.43908473
0.44353481
0.44799693
0.45247077
0.45695602
0.46145236
0.46595948
0.47047707
0.47500482
0.47954239
0.48408949
0.48864579
0.49321096
0.4977847
0.50236669
0.50695659
0.5115541
0.51615888
0.52077062
0.525389
0.53001369
0.53464436
0.5392807
0.54392237
0.54856906
0.55322043
0.55787617
0.56253593
0.5671994
0.57186626
0.57653616
0.58120878
0.5858838
0.59056088
0.5952397
0.59991992
0.60460122
0.60928326
0.61396572
0.61864825
0.62333054
0.62801225
0.63269304
0.63737259
0.64205057
0.64672663
0.65140044
0.65607168
0.66074
0.66540508
0.67006657
0.67472414
0.67937747
0.6840262
0.68867002
0.69330858
0.69794154
0.70256858
0.70718935
0.71180352
0.71641076
0.72101072
0.72560307
0.73018748
0.7347636
0.73933111
0.74388966
0.74843892
0.75297855
0.75750821
0.76202757
0.76653629
0.77103403
0.77552047
0.77999525
0.78445805
0.78890852
0.79334634
0.79777117
0.80218267
0.80658051
0.81096435
0.81533386
0.81968871
0.82402855
0.82835307
0.83266192
0.83695478
0.84123131
0.84549119
0.84973408
0.85395966
0.8581676
0.86235756
0.86652924
0.8706823
0.87481641
0.87893126
0.88302653
0.88710189
0.89115703
0.89519163
0.89920538
0.90319795
0.90716905
0.91111836
0.91504558
0.91895039
0.92283249
0.92669159
0.93052738
0.93433957
0.93812786
0.94189196
0.94563158
0.94934645
0.95303626
0.95670075
0.96033964
0.96395265
0.96753952
0.97109997
0.97463375
0.9781406
0.98162026
0.98507248
0.98849702
0.99189363
0.99526208
0.99860213
1.0019136
1.0051961
1.0084496
1.0116739
1.0148686
1.0180336
1.0211688
1.0242739
1.0273487
1.0303931
1.0334068
1.0363898
1.0393418
1.0422627
1.0451524
1.0480107
1.0508375
1.0536326
1.0563959
1.0591274
1.0618269
1.0644943
1.0671295
1.0697325
1.0723031
1.0748414
1.0773471
1.0798204
1.0822612
1.0846693
1.0870449
1.0893878
1.0916981
1.0939758
1.0962208
1.0984333
1.1006131
1.1027604
1.1048753
1.1069576
1.1090076
1.1110253
1.1130108
1.114964
1.1168853
1.1187746
1.120632
1.1224578
1.124252
1.1260147
1.1277462
1.1294465
1.1311159
1.1327545
1.1343625
1.1359401
1.1374874
1.1390048
1.1404923
1.1419503
1.1433789
1.1447785
1.1461492
1.1474912
1.1488049
1.1500906
1.1513484
1.1525787
1.1537818
1.1549579
1.1561073
1.1572303
1.1583274
1.1593986
1.1604445
1.1614652
1.1624612
1.1634327
1.1643801
1.1653037
1.1662039
1.167081
1.1679353
1.1687673
1.1695772
1.1703654
1.1711323
1.1718783
1.1726036
1.1733086
1.1739938
1.1746594
1.1753059
1.1759335
1.1765427
1.1771338
1.1777072
1.1782633
1.1788023
1.1793247
1.1798308
1.1803209
1.1807955
1.1812549
1.1816994
1.1821293
1.1825451
1.182947
1.1833354
1.1837106
1.1840729
1.1844228
1.1847604
1.1850862
1.1854004
1.1857033
1.1859953
1.1862767
1.1865477
1.1868087
1.1870599
1.1873017
1.1875342
1.1877578
1.1879728
1.1881794
1.1883779
1.1885685
1.1887515
1.1889271
1.1890955
1.1892571
1.189412
1.1895605
1.1897027
1.189839
1.1899694
1.1900942
1.1902137
1.1903279
1.1904371
1.1905415
1.1906412
1.1907365
1.1908274
1.1909142
1.190997
1.191076
1.1911513
1.191223
1.1912914
1.1913565
1.1914185
1.1914775
1.1915336
1.191587
1.1916378
1.191686
1.1917318
1.1917753
1.1918166
1.1918558
1.191893
1.1919282
1.1919616
1.1919933
1.1920233
1.1920516
1.1920785
1.1921039
1.192128
1.1921507
1.1921722
1.1921925
1.1922116
1.1922297
1.1922467
1.1922628
1.192278
1.1922923
1.1923058
1.1923184
1.1923304
1.1923416
1.1923522
1.1923621
1.1923714
1.1923802
1.1923884
1.1923961
1.1924034
1.1924102
1.1924165
1.1924225
1.1924281
1.1924333
1.1924381
1.1924427
1.192447
1.1924509
1.1924546
1.192458
1.1924612
1.1924642
1.1924669
1.1924694
1.1924718
1.1924739
1.1924759
1.1924777
1.1924793
1.1924808
1.1924821
1.1924833
1.1924844
1.1924853
1.1924862
1.1924869
1.1924875
1.1924881
1.1924887
1.1924893
1.1924898
1.1924904
1.1924912
1.192492
1.1924928
1.1924937
1.1924948
1.1924958
1.1924968
1.1924978
1.192499
1.1925001
1.1925012
1.1925023
1.1925034
1.1925046
1.1925057
1.1925068
1.192508
1.1925091
1.1925102
1.1925112
1.1925122
1.1925133
1.1925143
1.1925153
1.1925162
1.1925172
1.1925181
1.1925189
1.1925197
1.1925205
1.1925212
1.1925218
1.1925224
1.1925229
1.1925233
1.1925236
1.1925238
1.192524
1.1925242
1.1925244
1.1925246
1.1925248
1.1925253
1.1925257
1.192526
1.1925264
1.1925271
1.1925278
1.1925285
1.1925292
1.1925299
1.1925306
1.1925313
1.192532
1.1925328
1.1925335
1.1925343
1.192535
1.1925357
1.1925364
1.1925372
1.1925379
1.1925386
1.1925393
1.1925399
1.1925406
1.1925412
1.1925418
1.1925424
1.1925429
1.1925434
1.1925439
1.1925444
1.1925449
1.1925453
1.1925457
1.1925461
1.1925466
1.192547
1.1925473
1.1925477
1.1925481
1.1925485
1.1925488
1.1925491
1.1925494
1.1925499
1.1925504
1.1925508
1.1925512
1.1925516
1.192552
1.1925524
1.1925528
1.1925532
1.1925536
1.1925541
1.1925545
1.1925549
1.1925553
1.1925557
1.1925561
1.1925564
1.1925568
1.1925571
1.1925575
1.1925578
1.1925582
1.1925585
1.1925588
1.1925592
1.1925596
1.19256
1.1925603
1.1925606
1.1925609
1.1925611
1.1925612
1.1925614
1.1925616
1.1925618
1.192562
1.1925621
1.1925622
1.1925623
1.1925624
1.1925625
1.1925627
1.1925629
1.1925632
1.1925634
1.1925636
1.1925638
1.192564
1.1925643
1.1925648
1.1925654
1.192566
1.1925665
1.192567
1.1925676
1.1925682
1.1925688
1.1925693
1.1925698
1.1925703
1.1925708
1.1925713
1.1925717
1.1925721
1.1925725
1.1925729
1.1925733
1.1925736
1.192574
1.1925743
1.1925746
1.192575
1.1925752
1.1925755
1.1925758
1.192576
1.1925762
1.1925764
1.1925765
1.1925767
1.1925767
1.1925768
1.1925769
1.192577
1.1925771
1.1925771
1.1925772
1.1925773
1.1925774
1.1925775
1.1925776
1.1925776
1.1925776
1.1925775
1.1925775
1.1925775
1.1925777
1.1925779
1.192578
1.1925781
1.1925781
1.1925781
1.1925781
1.192578
1.192578
1.1925779
1.1925779
1.1925778
1.1925777
1.1925778
1.1925779
1.192578
1.1925781
1.1925782
1.1925783
1.1925785
1.1925787
1.1925789
1.1925791
1.1925793
1.1925794
1.1925796
1.1925797
1.1925798
1.1925799
1.1925799
1.19258
1.19258
1.19258
1.1925799
1.1925799
1.1925798
1.1925798
1.1925797
1.1925797
1.1925796
1.1925795
1.1925795
1.1925795
1.1925794
1.1925794
1.1925794
1.1925794
1.1925795
1.1925796
1.1925796
1.1925797
1.1925798
1.1925798
1.1925799
1.1925799
1.1925799
1.1925799
1.19258
1.19258
1.1925799
1.1925799
1.1925799
1.1925799
1.1925798
1.1925797
1.1925796
1.1925796
1.1925795
1.1925794
1.1925793
1.1925792
1.1925791
1.192579
1.1925789
1.1925788
1.1925787
1.1925785
1.1925784
1.1925783
1.1925781
1.192578
1.1925778
1.1925776
1.1925775
1.1925773
1.1925771
1.192577
1.1925768
1.1925766
1.1925765
1.1925763
1.1925761
1.1925759
1.1925758
1.1925756
1.1925754
1.1925753
1.1925751
1.1925749
1.1925748
1.1925746
1.1925745
1.1925743
1.1925742
1.192574
1.1925739
1.1925737
1.1925736
1.1925734
1.1925733
1.1925731
1.192573
1.1925728
1.1925727
1.1925725
1.1925723
1.1925722
1.192572
1.1925718
1.1925717
1.1925715
1.1925713
1.1925711
1.192571
1.1925708
1.1925706
1.1925705
1.1925703
1.1925701
1.19257
1.1925698
1.1925697
1.1925695
1.1925694
1.1925692
1.1925691
1.1925689
1.1925688
1.1925687
1.1925686
1.1925685
1.1925683
1.1925682
1.1925681
1.192568
1.1925679
1.1925678
1.1925678
1.1925677
1.1925676
1.1925675
1.1925674
1.1925673
1.1925672
1.1925672
1.1925671
1.192567
1.1925669
1.1925668
1.1925667
1.1925666
1.1925665
1.1925664
1.1925663
1.1925662
1.1925661
1.192566
1.1925659
1.1925658
1.1925657
1.1925656
1.1925655
1.1925653
1.1925652
1.1925651
1.192565
1.1925648
1.1925647
1.1925646
1.1925644
1.1925643
1.1925642
1.192564
1.1925639
1.1925637
1.1925636
1.1925635
1.1925633
1.1925632
1.1925631
1.1925629
1.1925628
1.1925627
1.1925625
1.1925624
1.1925623
1.1925621
1.192562
1.1925619
1.1925618
1.1925617
1.1925616
1.1925615
1.1925613
1.1925612
1.1925611
1.192561
1.1925609
1.1925608
1.1925607
1.1925606
1.1925605
1.1925604
1.1925603
1.1925602
1.1925601
1.19256
1.1925599
1.1925598
1.1925597
1.1925596
1.1925595
1.1925594
1.1925593
1.1925592
1.1925591
1.1925589
1.1925588
1.1925587
1.1925586
1.1925585
1.1925584
1.1925583
1.1925582
1.1925581
1.192558
1.1925579
1.1925578
1.1925576
1.1925575
1.1925574
1.1925573
1.1925572
1.1925571
1.1925569
1.1925568
1.1925567
1.1925565
1.1925564
1.1925563
1.1925562
1.1925561
1.1925559
1.1925558
1.1925557
1.1925555
1.1925554
1.1925553
1.1925552
1.192555
1.1925549
1.1925548
1.1925547
1.1925546
1.1925545
1.1925543
1.1925542
1.1925541
1.192554
1.1925539
1.1925538
1.1925537
1.1925536
1.1925535
1.1925534
1.1925533
1.1925533
1.1925532
1.1925531
1.192553
1.1925529
1.1925529
1.1925528
1.1925527
1.1925526
1.1925526
1.1925525
1.1925524
1.1925523
1.1925523
1.1925522
1.1925521
1.1925521
1.192552
1.1925519
1.1925518
1.1925518
1.1925517
1.1925516
1.1925515
1.1925514
1.1925514
1.1925513
1.1925512
1.1925511
1.192551
1.1925509
1.1925508
1.1925507
1.1925506
1.1925506
1.1925505
1.1925504
1.1925503
1.1925502
1.1925501
1.19255
1.1925499
1.1925498
1.1925497
1.1925496
1.1925495
1.1925494
1.1925494
1.1925493
1.1925492
1.1925491
1.192549
1.1925489
1.1925488
1.1925487
1.1925487
1.1925486
1.1925485
1.1925484
1.1925483
1.1925482
1.1925482
1.1925481
1.192548
1.1925479
1.1925479
1.1925478
1.1925477
1.1925476
1.1925475
1.1925474
1.1925474
1.1925473
1.1925472
1.1925471
1.192547
1.1925469
1.1925468
1.1925467
1.1925466
1.1925465
1.1925464
1.1925463
1.1925461
1.192546
1.1925459
1.1925458
1.1925457
1.1925455
1.1925454
1.1925453
1.1925451
1.192545
1.1925449
1.1925447
1.1925446
1.1925444
1.1925443
1.1925442
1.192544
1.1925439
1.1925437
1.1925436
1.1925435
1.1925433
1.1925432
1.192543
1.1925429
1.1925427
1.1925426
1.1925425
1.1925423
1.1925422
1.1925421
1.1925419
1.1925418
1.1925417
1.1925416
1.1925414
1.1925413
1.1925412
1.1925411
1.192541
1.1925409
1.1925408
1.1925407
1.1925406
1.1925405
1.1925404
1.1925403
1.1925403
1.1925402
1.1925401
1.19254
1.1925399
1.1925399
1.1925398
1.1925397
1.1925397
1.1925396
1.1925395
1.1925395
1.1925394
1.1925394
1.1925393
1.1925393
1.1925392
1.1925391
1.1925391
1.192539
1.192539
1.1925389
1.1925389
1.1925388
1.1925387
1.1925387
1.1925386
1.1925386
1.1925385
1.1925384
1.1925384
1.1925383
1.1925383
1.1925382
1.1925381
1.192538
1.192538
1.1925379
1.1925378
1.1925378
1.1925377
1.1925376
1.1925375
1.1925375
1.1925374
1.1925373
1.1925373
1.1925372
1.1925371
1.192537
1.1925369
1.1925368
1.1925368
1.1925367
1.1925366
1.1925365
1.1925364
1.1925364
1.1925363
1.1925362
1.1925361
1.192536
1.192536
1.1925359
1.1925358
1.1925357
1.1925356
1.1925356
1.1925355
1.1925354
1.1925353
1.1925353
1.1925352
1.1925351
1.192535
1.192535
1.1925349
1.1925348
1.1925347
1.1925346
1.1925346
1.1925345
1.1925344
1.1925343
1.1925343
1.1925342
1.1925341
1.192534
1.192534
1.1925339
1.1925338
1.1925337
1.1925336
1.1925336
1.1925335
1.1925334
1.1925333
1.1925333
1.1925332
1.1925331
1.192533
1.192533
1.1925329
1.1925328
1.1925327
1.1925326
1.1925326
1.1925325
1.1925324
1.1925323
1.1925323
1.1925322
1.1925321
1.1925321
1.192532
1.1925319
1.1925318
1.1925318
1.1925317
1.1925316
1.1925316
1.1925315
1.1925314
1.1925313
1.1925313
1.1925312
1.1925311
1.1925311
1.192531
1.1925309
1.1925309
1.1925308
1.1925307
1.1925306
1.1925306
1.1925305
1.1925304
1.1925304
1.1925303
1.1925302
1.1925302
1.1925301
1.19253
1.19253
1.1925299
1.1925298
1.1925298
1.1925297
1.1925296
1.1925295
1.1925295
1.1925294
1.1925293
1.1925293
1.1925292
1.1925291
1.1925291
1.192529
1.1925289
1.1925288
1.1925288
1.1925287
1.1925286
1.1925286
1.1925285
1.1925284
1.1925283
1.1925283
1.1925282
1.1925281
1.1925281
1.192528
1.1925279
1.1925278
1.1925278
1.1925277
1.1925276
1.1925275
1.1925275
1.1925274
1.1925273
1.1925273
1.1925272
1.1925271
1.1925271
1.192527
1.1925269
1.1925269
1.1925268
1.1925267
1.1925266
1.1925266
1.1925265
1.1925264
1.1925264
1.1925263
1.1925262
1.1925262
1.1925261
1.192526
1.192526
1.1925259
1.1925258
1.1925258
1.1925257
1.1925256
1.1925256
1.1925255
1.1925254
1.1925254
1.1925253
1.1925252
1.1925251
1.1925251
1.192525
1.1925249
1.1925249
1.1925248
1.1925247
1.1925246
1.1925246
1.1925245
1.1925244
1.1925244
1.1925243
1.1925242
1.1925241
1.1925241
1.192524
1.1925239
1.1925238
1.1925238
1.1925237
1.1925236
1.1925235
1.1925235
1.1925234
1.1925233
1.1925232
1.1925232
1.1925231
1.192523
1.1925229
1.1925228
1.1925228
1.1925227
1.1925226
1.1925225
1.1925224
1.1925223
1.1925223
1.1925222
1.1925221
1.192522
1.192522
1.1925219
1.1925218
1.1925218
1.1925217
1.1925216
1.1925215
1.1925215
1.1925214
1.1925213
1.1925213
1.1925212
1.1925211
1.1925211
1.192521
1.192521
1.1925209
1.1925208
1.1925208
1.1925207
1.1925207
1.1925206
1.1925206
1.1925205
1.1925205
1.1925204
1.1925204
1.1925203
1.1925203
1.1925202
1.1925202
1.1925201
1.1925201
1.1925201
1.19252
1.19252
1.1925199
1.1925199
1.1925199
1.1925198
1.1925198
1.1925197
1.1925197
1.1925197
1.1925196
1.1925196
1.1925195
1.1925195
1.1925195
1.1925194
1.1925194
1.1925193
1.1925193
1.1925192
1.1925192
1.1925191
1.1925191
1.192519
1.192519
1.1925189
1.1925189
1.1925188
1.1925188
1.1925187
1.1925186
1.1925186
1.1925185
1.1925184
1.1925184
1.1925183
1.1925182
1.1925182
1.1925181
1.192518
1.192518
1.1925179
1.1925178
1.1925177
1.1925176
1.1925176
1.1925175
1.1925174
1.1925173
1.1925172
1.1925171
1.192517
1.1925169
1.1925168
1.1925168
1.1925167
1.1925166
1.1925165
1.1925164
1.1925163
1.1925162
1.1925161
1.192516
1.1925159
1.1925158
1.1925157
1.1925156
1.1925155
1.1925154
1.1925153
1.1925152
1.1925151
1.192515
1.192515
1.1925149
1.1925148
1.1925147
1.1925146
1.1925145
1.1925144
1.1925143
1.1925142
1.1925142
1.1925141
1.192514
1.1925139
1.1925138
1.1925137
1.1925136
1.1925135
1.1925135
1.1925134
1.1925133
1.1925132
1.1925132
1.1925131
1.192513
1.1925129
1.1925129
1.1925128
1.1925127
1.1925127
1.1925126
1.1925125
1.1925125
1.1925124
1.1925123
1.1925123
1.1925122
1.1925121
1.192512
1.192512
1.1925119
1.1925119
1.1925118
1.1925117
1.1925117
1.1925116
1.1925116
1.1925115
1.1925114
1.1925114
1.1925113
1.1925112
1.1925112
1.1925111
1.1925111
1.192511
1.1925109
1.1925109
1.1925108
1.1925108
1.1925107
1.1925106
1.1925106
1.1925105
1.1925104
1.1925104
1.1925103
1.1925102
1.1925102
1.1925101
1.1925101
1.19251
1.1925099
1.1925099
1.1925098
1.1925097
1.1925097
1.1925096
1.1925095
1.1925095
1.1925094
1.1925093
1.1925093
1.1925092
1.1925091
1.1925091
1.192509
1.1925089
1.1925089
1.1925088
1.1925087
1.1925087
1.1925086
1.1925085
1.1925084
1.1925084
1.1925083
1.1925082
1.1925081
1.1925081
1.192508
1.1925079
1.1925078
1.1925078
1.1925077
1.1925076
1.1925076
1.1925075
1.1925074
1.1925073
1.1925073
1.1925072
1.1925071
1.192507
1.1925069
1.1925069
1.1925068
1.1925067
1.1925066
1.1925065
1.1925065
1.1925064
1.1925063
1.1925062
1.1925061
1.1925061
1.192506
1.1925059
1.1925058
1.1925057
1.1925057
1.1925056
1.1925055
1.1925054
1.1925053
1.1925053
1.1925052
1.1925051
1.192505
1.1925049
1.1925049
1.1925048
1.1925047
1.1925046
1.1925045
1.1925045
1.1925044
1.1925043
1.1925042
1.1925041
1.192504
1.192504
1.1925039
1.1925038
1.1925037
1.1925036
1.1925036
1.1925035
1.1925034
1.1925033
1.1925032
1.1925031
1.192503
1.192503
1.1925029
1.1925028
1.1925027
1.1925026
1.1925026
1.1925025
1.1925024
1.1925023
1.1925022
1.1925021
1.1925021
1.192502
1.1925019
1.1925018
1.1925017
1.1925016
1.1925016
1.1925015
1.1925014
1.1925013
1.1925012
1.1925011
1.192501
1.192501
1.1925009
1.1925008
1.1925007
1.1925006
1.1925005
1.1925005
1.1925004
1.1925003
1.1925002
1.1925001
1.1925
1.1925
1.1924999
1.1924998
1.1924997
1.1924996
1.1924995
1.1924995
1.1924994
1.1924993
1.1924992
1.1924991
1.192499
1.192499
1.1924989
1.1924988
1.1924987
1.1924986
1.1924986
1.1924985
1.1924984
1.1924983
1.1924983
1.1924982
1.1924981
1.192498
1.192498
1.1924979
1.1924978
1.1924977
1.1924977
1.1924976
1.1924975
1.1924974
1.1924973
1.1924973
1.1924972
1.1924971
1.1924971
1.192497
1.1924969
1.1924969
1.1924968
1.1924967
1.1924966
1.1924966
1.1924965
1.1924964
1.1924963
1.1924963
1.1924962
1.1924961
1.1924961
1.192496
1.1924959
1.1924958
1.1924958
1.1924957
1.1924956
1.1924955
1.1924955
1.1924954
1.1924953
1.1924953
1.1924952
1.1924951
1.192495
1.192495
1.1924949
1.1924948
1.1924947
1.1924946
1.1924946
1.1924945
1.1924944
1.1924943
1.1924943
1.1924942
1.1924941
1.192494
1.1924939
1.1924938
1.1924938
1.1924937
1.1924936
1.1924935
1.1924934
1.1924933
1.1924932
1.1924931
1.1924931
1.192493
1.1924929
1.1924928
1.1924927
1.1924926
1.1924925
1.1924924
1.1924923
1.1924922
1.1924921
1.192492
1.1924919
1.1924918
1.1924917
1.1924915
1.1924914
1.1924913
1.1924912
1.1924911
1.192491
1.1924909
1.1924908
1.1924907
1.1924906
1.1924904
1.1924903
1.1924902
1.1924901
1.19249
1.1924899
1.1924897
1.1924896
1.1924895
1.1924893
1.1924892
1.1924891
1.1924889
1.1924888
1.1924887
1.1924886
1.1924884
1.1924883
1.1924882
1.1924881
1.1924879
1.1924878
1.1924877
1.1924875
1.1924874
1.1924873
1.1924871
1.192487
1.1924869
1.1924867
1.1924866
1.1924864
1.1924863
1.1924861
1.192486
1.1924859
1.1924857
1.1924856
1.1924854
1.1924853
1.1924852
1.192485
1.1924849
1.1924847
1.1924846
1.1924844
1.1924843
1.1924842
1.192484
1.1924839
1.1924837
1.1924836
1.1924834
1.1924833
1.1924832
1.192483
1.1924829
1.1924827
1.1924826
1.1924825
1.1924823
1.1924822
1.192482
1.1924819
1.1924817
1.1924816
1.1924814
1.1924813
1.1924811
1.192481
1.1924808
1.1924807
1.1924806
1.1924804
1.1924803
1.1924801
1.19248
1.1924798
1.1924797
1.1924795
1.1924794
1.1924792
1.1924791
1.1924789
1.1924787
1.1924786
1.1924784
1.1924783
1.1924781
1.192478
1.1924778
1.1924777
1.1924775
1.1924774
1.1924772
1.1924771
1.1924769
1.1924767
1.1924766
1.1924764
1.1924763
1.1924761
1.1924759
1.1924758
1.1924756
1.1924754
1.1924752
1.1924751
1.1924749
1.1924747
1.1924745
1.1924744
1.1924742
1.192474
1.1924739
1.1924737
1.1924736
1.1924734
1.1924732
1.1924731
1.1924729
1.1924727
1.1924726
1.1924724
1.1924722
1.192472
1.1924718
1.1924716
1.1924715
1.1924713
1.1924711
1.1924709
1.1924707
1.1924705
1.1924703
1.1924701
1.1924699
1.1924697
1.1924695
1.1924693
1.1924691
1.1924689
1.1924687
1.1924684
1.1924682
1.192468
1.1924678
1.1924676
1.1924674
1.1924672
1.1924669
1.1924667
1.1924665
1.1924663
1.1924661
1.1924659
1.1924656
1.1924654
1.1924652
1.1924649
1.1924647
1.1924645
1.1924642
1.192464
1.1924637
1.1924635
1.1924632
1.192463
1.1924627
1.1924625
1.1924622
1.192462
1.1924617
1.1924615
1.1924612
1.1924609
1.1924607
1.1924604
1.1924601
1.1924598
1.1924596
1.1924593
1.192459
1.1924587
1.1924584
1.1924581
1.1924578
1.1924575
1.1924572
1.1924568
1.1924565
1.1924562
1.1924559
1.1924556
1.1924553
1.1924549
1.1924546
1.1924542
1.1924539
1.1924535
1.1924532
1.1924528
1.1924524
1.1924521
1.1924517
1.1924513
1.1924509
1.1924505
1.1924501
1.1924497
1.1924493
1.1924489
1.1924485
1.1924481
1.1924477
1.1924473
1.1924469
1.1924464
1.192446
1.1924455
1.192445
1.1924445
1.192444
1.1924436
1.1924431
1.1924426
1.1924421
1.1924416
1.1924411
1.1924406
1.1924401
1.1924396
1.1924391
1.1924386
1.1924381
1.1924376
1.192437
1.1924365
1.192436
1.1924355
1.192435
1.1924345
1.192434
1.1924335
1.1924331
1.1924327
1.1924323
1.1924319
1.1924315
1.1924312
1.1924309
1.1924306
1.1924304
1.1924302
1.1924301
1.19243
1.1924299
1.1924298
1.1924298
1.1924297
1.1924297
1.1924298
1.1924299
1.19243
1.1924302
1.1924303
1.1924304
1.1924305
1.1924306
1.1924306
1.1924306
1.1924306
1.1924306
1.1924305
1.1924304
1.1924301
1.1924296
1.1924289
1.1924281
1.1924272
1.1924263
1.1924253
1.1924242
1.1924232
1.1924221
1.192421
1.1924198
1.1924186
1.1924174
1.1924161
1.1924149
1.1924136
1.1924124
1.1924112
1.1924101
1.1924091
1.1924082
1.1924074
1.1924067
1.1924061
1.1924056
1.1924053
1.1924052
1.1924053
1.1924055
1.1924058
1.192406
1.192406
1.1924055
1.1924041
1.1924006
1.1923927
1.1923739
1.1923285
1.1922164
1.1919351
1.1912331
1.1894596
1.1861071
1.1820565
1.1774542
1.1725034
1.1674177
1.1623962
1.1576074
1.1531803
1.1492017
1.1457178
1.1427394
1.1402501
1.1382132
1.1365798
1.135295
1.1343029
1.1335504
1.1329896
1.1325789
1.1322832
1.1320741
1.131929
1.1318304
1.1317649
1.1317228
1.1316968
1.1316817
1.1316738
1.1316705
1.1316697
1.1316697
1.1316719
1.1316767
1.1316811
1.1316851
1.1316886
1.1316918
1.1316946
1.1316971
1.1316994
1.1317014
1.1317034
1.1317051
1.1317068
1.1317084
1.1317099
1.1317114
1.1317127
1.131714
1.1317153
1.1317165
1.1317177
1.1317189
1.13172
1.1317212
1.1317225
1.1317238
1.1317252
1.1317267
1.1317282
1.1317299
1.1317316
1.1317334
1.1317352
1.1317371
1.131739
1.131741
1.1317429
1.1317448
1.1317468
1.1317486
1.1317505
1.1317522
1.1317539
1.1317555
1.131757
1.1317585
1.1317599
1.1317612
1.1317624
1.1317635
1.1317646
1.1317657
1.1317666
1.1317676
1.1317684
1.1317693
1.1317701
1.1317708
1.1317715
1.1317722
1.1317729
1.1317735
1.1317741
1.1317747
1.1317753
1.1317759
1.1317764
1.1317769
1.1317775
1.131778
1.1317785
1.1317789