/*--------------------------------*- C++ -*----------------------------------*\
  =========                 |
  \\      /  F ield         | OpenFOAM: The Open Source CFD Toolbox
   \\    /   O peration     | Website:  https://openfoam.org
    \\  /    A nd           | Version:  7
     \\/     M anipulation  |
\*---------------------------------------------------------------------------*/
FoamFile
{
    version     2.0;
    format      ascii;
    class       volVectorField;
    location    "0.00108";
    object      U;
}
// * * * * * * * * * * * * * * * * * * * * * * * * * * * * * * * * * * * * * //

dimensions      [0 1 -1 0 0 0 0];

internalField   nonuniform List<vector> 
5000
(
(1.7489179e-13 0 0)
(1.6088881e-13 -4.053176e-28 0)
(8.5492239e-14 0 0)
(-8.3274326e-14 0 0)
(-8.7990019e-14 1.013294e-28 0)
(-2.8442851e-13 -2.8799547e-43 2.533235e-28)
(-2.8114993e-13 -2.533235e-28 5.3999152e-43)
(-5.8052352e-13 0 1.62062e-42)
(-9.4589188e-13 0 1.519941e-28)
(-8.730266e-13 -2.9270756e-43 -5.8541513e-43)
(-9.2050498e-13 1.013294e-28 1.013294e-28)
(-1.073915e-12 1.519941e-28 1.519941e-28)
(-1.0634834e-12 1.013294e-28 -8.6398642e-43)
(-8.8540023e-13 1.2397802e-42 3.0405958e-56)
(-8.1663337e-13 0 -1.013294e-28)
(-7.298849e-13 2.026588e-28 4.053176e-28)
(-1.1392143e-12 7.806133e-56 3.9030665e-56)
(-1.0518535e-12 -1.013294e-28 8.9278597e-43)
(-1.2372307e-12 0 -1.1575568e-42)
(-1.1474871e-12 -5.06647e-29 -1.013294e-28)
(-1.0179802e-12 5.06647e-29 -5.06647e-29)
(-1.1303744e-12 5.06647e-29 0)
(-1.2197407e-12 -1.013294e-28 0)
(-1.1242566e-12 4.2466661e-43 4.2466661e-43)
(-1.1118008e-12 1.013294e-28 -8.6398642e-43)
(-1.1884171e-12 4.1759344e-43 4.1759344e-43)
(-1.1505907e-12 -1.013294e-28 1.013294e-28)
(-1.1996761e-12 -2.533235e-28 -2.533235e-28)
(-1.4322535e-12 6.079764e-28 -3.039882e-28)
(-1.2778042e-12 -1.7567724e-42 1.013294e-28)
(-1.3236651e-12 -3.5423443e-42 3.5423443e-42)
(-1.312177e-12 5.06647e-29 -4.3199321e-43)
(-1.2622334e-12 -3.039882e-28 1.519941e-28)
(-1.098192e-12 2.026588e-28 -1.013294e-28)
(-1.0099785e-12 -5.2799198e-57 -1.4403705e-42)
(-1.1470854e-12 -8.8126615e-42 0)
(-1.1315474e-12 -3.5135448e-42 0)
(-1.0665937e-12 4.053176e-28 -2.026588e-28)
(-7.9090177e-13 -4.053176e-28 -2.026588e-28)
(-1.0056275e-12 1.013294e-28 -5.06647e-29)
(-6.5222954e-13 -1.013294e-28 8.4958665e-43)
(-6.566602e-13 -3.4847452e-42 -5.06647e-29)
(-6.0376972e-13 -1.453984e-42 7.26992e-43)
(-6.6810518e-13 -1.519941e-28 2.5703596e-42)
(-6.3427057e-13 -3.039882e-28 1.013294e-28)
(-6.1945907e-13 1.013294e-28 -1.013294e-28)
(-5.625069e-13 2.533235e-28 8.7118631e-42)
(-6.484723e-13 -3.8549095e-55 4.2609399e-55)
(-1.0030219e-12 -5.06647e-28 -8.7118631e-42)
(-1.0887256e-12 0 3.4559457e-42)
(-8.1564828e-13 -5.06647e-29 -5.06647e-29)
(-1.0035463e-12 -1.4399774e-44 0)
(-1.5243773e-12 2.180976e-42 0)
(-1.1412102e-12 -3.039882e-28 0)
(-1.2463903e-12 -6.8087398e-56 0)
(-1.2087669e-12 -2.026588e-28 0)
(-1.2207792e-12 -1.013294e-28 0)
(-1.0239776e-12 1.7495725e-42 0)
(-1.1175959e-12 5.06647e-29 0)
(-1.0912965e-12 0 0)
(-9.6952503e-13 -2.533235e-28 0)
(-1.1341017e-12 -1.7279728e-42 0)
(-1.0484646e-12 -1.3023973e-58 0)
(-1.0478363e-12 -3.039882e-28 3.039882e-28)
(-1.0043236e-12 4.053176e-28 4.053176e-28)
(-1.0836589e-12 -5.3135165e-42 -1.519941e-28)
(-1.2598809e-12 4.0626024e-43 -6.9856993e-57)
(-1.1727256e-12 5.06647e-29 -4.8788331e-57)
(-1.2487352e-12 1.013294e-28 -1.013294e-28)
(-1.6579318e-12 -1.013294e-28 0)
(-1.3068038e-12 -5.06647e-29 0)
(-1.6062743e-12 -1.519941e-28 -1.519941e-28)
(-1.6765057e-12 -2.533235e-28 -2.533235e-28)
(-1.1459054e-12 -2.4484004e-42 0)
(-1.4990792e-12 -2.026588e-28 -2.026588e-28)
(-1.4215402e-12 1.519941e-28 -5.2487175e-42)
(-1.2701736e-12 0 1.013294e-28)
(-1.2549593e-12 -5.06647e-29 5.06647e-29)
(-1.2076342e-12 7.1998869e-45 -5.06647e-29)
(-1.0908938e-12 5.06647e-29 -1.013294e-28)
(-1.0403824e-12 -1.013294e-28 2.026588e-28)
(-1.0921071e-12 -3.1225242e-55 1.5613145e-55)
(-1.264476e-12 5.7599095e-44 6.079764e-28)
(-1.0686356e-12 2.533235e-28 -5.06647e-28)
(-1.1194946e-12 1.519941e-28 -1.5810952e-41)
(-8.9218785e-13 -3.5279446e-42 -2.026588e-28)
(-8.9216153e-13 1.013294e-28 3.039882e-28)
(-1.0163194e-12 0 -5.06647e-29)
(-1.0824136e-12 -1.013294e-28 1.013294e-28)
(-1.0024023e-12 -1.0511835e-41 -1.013294e-28)
(-6.2018839e-13 1.7711722e-42 -5.06647e-29)
(-7.4637608e-13 -2.026588e-28 -2.026588e-28)
(-4.977166e-13 -4.559823e-28 -1.5875751e-41)
(-4.5843615e-13 6.079764e-28 6.079764e-28)
(-4.3781854e-13 7.0126898e-42 7.0126898e-42)
(-4.7913547e-13 -1.519941e-28 1.519941e-28)
(-4.1875938e-13 0 3.039882e-28)
(-3.7604091e-13 0 1.0670232e-41)
(-1.8259064e-13 2.026588e-28 -1.4111778e-41)
(-2.4002998e-13 2.1081269e-41 -6.079764e-28)
(-1.4657816e-13 -9.119646e-28 -4.559823e-28)
(3.2919853e-13 3.546529e-28 3.546529e-28)
(1.9018423e-13 5.06647e-28 -3.5999434e-44)
(2.2488862e-13 0 -3.039882e-28)
(3.7767101e-13 -1.519941e-28 0)
(4.4610041e-13 -2.533235e-28 2.533235e-28)
(5.5912219e-13 4.559823e-28 1.5875751e-41)
(6.1411051e-13 3.546529e-28 -3.546529e-28)
(7.1848826e-13 0 4.053176e-28)
(7.3246912e-13 0 4.053176e-28)
(8.5993257e-13 -4.559823e-28 -9.119646e-28)
(1.0847842e-12 -5.573117e-28 -5.573117e-28)
(1.152817e-12 0 1.6719351e-27)
(1.2157937e-12 5.06647e-28 5.06647e-28)
(1.5004306e-12 -1.2398205e-41 -1.0639587e-27)
(1.3837039e-12 -5.573117e-28 5.573117e-28)
(1.6952397e-12 6.079764e-28 6.079764e-28)
(1.9911086e-12 -2.0159683e-43 4.0319366e-43)
(2.3825884e-12 3.3652271e-41 9.626293e-28)
(2.6906819e-12 -1.9515332e-56 -3.3438702e-27)
(2.7421785e-12 -2.4319056e-27 8.5016264e-41)
(3.0643493e-12 4.7519253e-43 2.2292468e-27)
(2.9763905e-12 1.2159528e-27 -2.4319056e-27)
(3.2979044e-12 0 -1.2666175e-27)
(3.6722905e-12 1.3172822e-27 1.3172822e-27)
(4.2330896e-12 -1.7225998e-27 -1.7225998e-27)
(4.7431929e-12 -1.8745939e-27 1.8745939e-27)
(5.2435255e-12 3.6478584e-27 3.6478584e-27)
(5.8943355e-12 2.026588e-27 -2.026588e-27)
(6.5018463e-12 -4.6611524e-27 -8.0480335e-41)
(7.0003132e-12 -2.6345644e-27 -2.6345644e-27)
(7.7522184e-12 2.8878879e-27 -5.7757758e-27)
(8.8779526e-12 3.2932055e-27 3.2932055e-27)
(1.0018539e-11 3.6478584e-27 3.6478584e-27)
(1.1076435e-11 0 4.0025113e-27)
(1.1989483e-11 -4.3064995e-27 1.4993764e-40)
(1.3253934e-11 -4.6104877e-27 1.5986629e-40)
(1.457319e-11 5.0158053e-27 -1.7463326e-40)
(1.6154015e-11 1.8797465e-40 -1.0842246e-26)
(1.7928197e-11 -5.9277699e-27 -5.9277699e-27)
(1.9542617e-11 6.2317581e-27 6.2317581e-27)
(2.150681e-11 6.8903992e-27 1.3780798e-26)
(2.3894249e-11 0 7.7010344e-27)
(2.6440391e-11 -8.5623343e-27 8.5623343e-27)
(2.8527837e-11 -9.4742989e-27 -6.5703288e-40)
(3.1637019e-11 1.0183605e-26 -2.0367209e-26)
(3.4851388e-11 -1.099424e-26 3.1247509e-42)
(3.8211928e-11 6.7678937e-42 -3.3839468e-42)
(4.1788727e-11 1.3122157e-26 5.7082347e-55)
(4.618785e-11 -1.4388775e-26 -1.4388775e-26)
(5.0941851e-11 1.5807386e-26 1.096226e-39)
(5.564362e-11 -1.2030291e-39 -2.4060582e-39)
(6.0877656e-11 -1.8593945e-26 -1.8593945e-26)
(6.6502062e-11 2.016455e-26 2.016455e-26)
(7.3232253e-11 -2.2292468e-26 -2.2292468e-26)
(8.0270697e-11 -2.4319056e-26 -8.4325075e-40)
(8.7654511e-11 2.6649632e-26 2.6649632e-26)
(9.5681933e-11 0 -2.9284196e-26)
(1.0435952e-10 0 4.521529e-42)
(1.1420658e-10 3.4806649e-26 3.4806649e-26)
(1.2508928e-10 3.804919e-26 0)
(1.3628511e-10 -4.1443724e-26 -4.1443724e-26)
(1.4879282e-10 -4.4939589e-26 -3.1101279e-39)
(1.6311678e-10 4.9144759e-26 9.8289518e-26)
(1.7847712e-10 3.7208439e-39 -5.3653917e-26)
(1.9464475e-10 -5.8416399e-26 1.6602939e-41)
(2.1228834e-10 6.3634863e-26 6.3634863e-26)
(2.3156522e-10 6.9309309e-26 -6.9309309e-26)
(2.5339733e-10 0 7.5490403e-26)
(2.7621326e-10 -8.1975484e-26 -8.1975484e-26)
(3.0151016e-10 -8.9321866e-26 3.721705e-38)
(3.2914611e-10 0 2.7026187e-38)
(3.5880962e-10 1.0609188e-25 -1.0609188e-25)
(3.9109929e-10 1.1526219e-25 2.3052438e-25)
(4.265671e-10 0 0)
(4.653952e-10 -1.3638937e-25 9.4584626e-39)
(5.0701135e-10 -3.090514e-38 3.090514e-38)
(5.5294739e-10 1.6172172e-25 -1.6172172e-25)
(6.0274641e-10 -1.7621183e-25 -1.7621183e-25)
(6.5669989e-10 -1.9156323e-25 -1.3203045e-38)
(7.1520283e-10 2.0797859e-25 2.0797859e-25)
(7.7916467e-10 1.5623683e-38 -2.2621788e-25)
(8.4839666e-10 -1.6911469e-38 -1.6911469e-38)
(9.2396417e-10 -1.1398141e-40 -1.1398141e-40)
(1.0065745e-09 -2.9071405e-25 -4.0280127e-38)
(1.095742e-09 3.1579307e-25 6.3158615e-25)
(1.192659e-09 4.7594478e-38 -3.4315201e-25)
(1.2977376e-09 -2.5626817e-38 -3.725882e-25)
(1.412369e-09 2.7825691e-38 2.7825691e-38)
(1.5362086e-09 -4.3951627e-25 -3.0292624e-38)
(1.67076e-09 0 9.924602e-38)
(1.8174455e-09 0 -3.5792754e-38)
(1.9768385e-09 5.6273282e-25 5.6273282e-25)
(2.1494005e-09 6.1091495e-25 0)
(2.3361024e-09 0 0)
(2.5398561e-09 0 0)
(2.7607599e-09 -7.8074302e-25 0)
(2.9996095e-09 3.2932124e-54 8.4655647e-25)
(3.2591487e-09 9.1809502e-25 -1.9139824e-37)
(3.5403861e-09 0 -9.9571334e-25)
(3.8450092e-09 -1.0796648e-24 -1.0796648e-24)
(4.1755898e-09 1.1705572e-24 1.1705572e-24)
(4.5340439e-09 3.5151396e-37 1.2684921e-24)
(4.9228068e-09 -2.7494719e-24 -2.7494719e-24)
(5.3445008e-09 1.4897955e-24 -1.0310407e-37)
(5.8007704e-09 3.3509437e-37 3.3509437e-37)
(6.294837e-09 2.484681e-40 1.7484388e-24)
(6.8303609e-09 1.8935425e-24 1.8935425e-24)
(7.4100497e-09 -2.0505017e-24 -2.0505017e-24)
(8.0377977e-09 3.1554944e-40 0)
(8.7176467e-09 3.3273109e-37 -2.403888e-24)
(9.4539377e-09 -1.8007536e-37 -1.8007536e-37)
(1.0250581e-08 2.8161973e-24 2.8161973e-24)
(1.1112773e-08 0 3.0476337e-24)
(1.2045141e-08 -3.2971573e-24 -4.5918315e-37)
(1.3054323e-08 -2.4683967e-37 -3.5666935e-24)
(1.4146243e-08 -1.0708021e-36 7.7164364e-24)
(1.5327036e-08 -4.172846e-24 -4.172846e-24)
(1.6604067e-08 0 -4.5120462e-24)
(1.7984358e-08 4.8780986e-24 4.8780986e-24)
(1.9476588e-08 5.2733846e-24 -5.2733846e-24)
(2.1089953e-08 0 0)
(2.2833581e-08 0 0)
(2.4716973e-08 0 0)
(2.6752035e-08 -7.1899795e-24 -7.1899795e-24)
(2.8951232e-08 -5.3749462e-37 7.7664932e-24)
(3.1325661e-08 8.3877437e-24 1.6775487e-23)
(3.3890258e-08 0 -9.0577844e-24)
(3.66598e-08 0 6.7959526e-37)
(3.96495e-08 -1.0557003e-23 -1.0557003e-23)
(4.2876965e-08 -1.1394744e-23 -1.1394744e-23)
(4.6359788e-08 1.2297133e-23 2.4594267e-23)
(5.0118224e-08 1.3268984e-23 -3.7712719e-39)
(5.4173141e-08 0 4.0687425e-39)
(5.8547454e-08 -1.5442145e-23 -1.5442145e-23)
(6.3266686e-08 -1.6654804e-23 -1.6654804e-23)
(6.8355107e-08 1.7959977e-23 3.5919955e-23)
(7.3841526e-08 1.9364504e-23 -2.7518616e-39)
(7.9757478e-08 0 4.3490752e-36)
(8.6134074e-08 -2.2501409e-23 -2.2501409e-23)
(9.3007157e-08 6.7337143e-36 1.3467429e-35)
(1.0041318e-07 1.8121107e-36 3.6242215e-36)
(1.0839268e-07 -2.8151942e-23 -2.8151942e-23)
(1.1698885e-07 3.0325204e-23 3.0325204e-23)
(1.2624866e-07 3.2661556e-23 0)
(1.3622082e-07 0 3.5172448e-23)
(1.4695824e-07 -3.7870546e-23 -3.7870546e-23)
(1.5851864e-07 5.6662231e-36 -4.0769428e-23)
(1.7096315e-07 -4.3883078e-23 4.3883078e-23)
(1.8435688e-07 -6.5503367e-36 0)
(1.987702e-07 1.0163764e-22 5.0818822e-23)
(2.1427822e-07 -5.4674507e-23 -5.4674507e-23)
(2.3096158e-07 8.1573126e-36 -5.8813509e-23)
(2.4890614e-07 2.1960745e-35 2.1960745e-35)
(2.6820389e-07 4.7077239e-36 1.3604789e-22)
(2.8895445e-07 7.3139611e-23 1.4627922e-22)
(3.1126455e-07 -7.8627814e-23 -2.3588344e-22)
(3.3524662e-07 -8.4514444e-23 -1.6902889e-22)
(3.6102194e-07 0 0)
(3.887206e-07 9.7597083e-23 1.9519417e-22)
(4.1848137e-07 1.0485475e-22 1.0485475e-22)
(4.504521e-07 0 -1.1263432e-22)
(4.8479173e-07 -1.2097205e-22 -1.2097205e-22)
(5.2167137e-07 -1.2990647e-22 -1.2990647e-22)
(5.612707e-07 2.7895801e-22 2.7895801e-22)
(6.0378409e-07 1.4973329e-22 2.9946658e-22)
(6.4941921e-07 -1.6071593e-22 -1.6071593e-22)
(6.9839766e-07 -1.7247703e-22 -3.4495405e-22)
(7.509564e-07 -5.1337584e-35 -5.1337584e-35)
(8.0734785e-07 1.9855025e-22 3.9710049e-22)
(8.6784173e-07 -2.1297895e-22 -2.1297895e-22)
(9.3272545e-07 1.5840708e-35 3.1681416e-35)
(1.0023074e-06 2.4494199e-22 2.4494199e-22)
(1.0769164e-06 -2.6261682e-22 -5.2523365e-22)
(1.1569024e-06 1.9563285e-35 2.8152226e-22)
(1.2426401e-06 -2.1011178e-35 -4.2022357e-35)
(1.3345264e-06 9.1904483e-38 -3.2336015e-22)
(1.4329884e-06 2.3929092e-35 3.4647329e-22)
(1.5384787e-06 -3.7117896e-22 -3.7117896e-22)
(1.651481e-06 0 7.9516494e-22)
(1.7725127e-06 0 -1.776554e-34)
(1.9021215e-06 4.559401e-22 -9.1188019e-22)
(2.0408939e-06 4.8813893e-22 9.7627786e-22)
(2.1894546e-06 0 3.6162503e-35)
(2.348467e-06 0 -5.5924962e-22)
(2.5186388e-06 0 0)
(2.7007257e-06 0 0)
(2.8955308e-06 -6.849759e-22 -6.849759e-22)
(3.1039071e-06 -5.049564e-35 7.3264222e-22)
(3.3267643e-06 1.5669981e-21 1.5669981e-21)
(3.5650713e-06 -3.5715458e-37 -8.3775065e-22)
(3.8198575e-06 -8.9561399e-22 2.5454881e-37)
(4.092218e-06 -9.5731893e-22 -9.5731893e-22)
(4.3833181e-06 1.4204852e-34 -1.0231091e-21)
(4.694397e-06 1.5147527e-34 1.0932435e-21)
(5.0267719e-06 1.659822e-37 0)
(5.3818423e-06 1.2476566e-21 1.2476566e-21)
(5.7610968e-06 1.3325334e-21 1.3325334e-21)
(6.1661171e-06 1.4229527e-21 0)
(6.598582e-06 -3.0385197e-21 -3.0385197e-21)
(7.0602772e-06 -4.865461e-21 -1.6218203e-21)
(7.5530961e-06 1.7310212e-21 3.4620423e-21)
(8.0790516e-06 3.694545e-21 -1.2784393e-34)
(8.6402819e-06 0 5.6019429e-37)
(9.2390529e-06 -2.1026877e-21 -2.1026877e-21)
(9.8777695e-06 -2.2427964e-21 -2.2427964e-21)
(1.0558986e-05 2.3918477e-21 2.3918477e-21)
(1.1285412e-05 -7.2486307e-37 -2.5503852e-21)
(1.2059919e-05 1.1591724e-36 2.7189835e-21)
(1.2885555e-05 -8.2373208e-37 -1.6474642e-36)
(1.376555e-05 -3.0888254e-21 -6.1776508e-21)
(1.4703326e-05 -3.2913888e-21 3.2913888e-21)
(1.5702512e-05 3.5066565e-21 3.5066565e-21)
(1.6766956e-05 7.4707709e-21 3.7353854e-21)
(1.7900729e-05 -3.9783744e-21 5.5179234e-34)
(1.9108149e-05 1.2800727e-50 -4.236467e-21)
(2.0393786e-05 -4.5105543e-21 0)
(2.1762479e-05 -1.3305729e-33 0)
(2.3219352e-05 1.022105e-20 5.1105251e-21)
(2.4769827e-05 0 -7.5507417e-34)
(2.6419643e-05 0 1.6059581e-33)
(2.8174872e-05 -1.2311364e-20 8.5552998e-34)
(3.0041939e-05 3.6361584e-33 -6.5473874e-21)
(3.2027636e-05 1.3925707e-20 6.9628533e-21)
(3.4139148e-05 0 -1.0520925e-36)
(3.6384072e-05 -7.8705921e-21 -7.8705921e-21)
(3.8770435e-05 -8.3658138e-21 0)
(4.1306722e-05 8.8907012e-21 0)
(4.40019e-05 -1.3424898e-36 0)
(4.686544e-05 1.3934366e-33 0)
(4.9907348e-05 -1.5149599e-36 0)
(5.3138189e-05 -1.1321816e-20 0)
(5.656912e-05 1.2022033e-20 0)
(6.0211915e-05 1.2763398e-20 1.2763398e-20)
(6.4079003e-05 0 0)
(6.8183497e-05 -1.4378792e-20 -1.4378792e-20)
(7.2539235e-05 2.1183841e-33 0)
(7.7160813e-05 1.6187647e-20 1.6187647e-20)
(8.2063619e-05 -3.4342638e-20 4.7632533e-33)
(8.7263882e-05 5.0518411e-33 -1.8211666e-20)
(9.2778712e-05 1.9311751e-20 0)
(9.8626138e-05 5.685443e-33 0)
(0.00010482516 4.3408348e-20 2.1704174e-20)
(0.0001113958 -4.6006872e-20 3.1937982e-33)
(0.00011835914 -2.4376301e-20 -2.4376301e-20)
(0.00012573738 2.5826674e-20 0)
(0.00013355391 3.8878977e-36 0)
(0.00014183335 2.8976518e-20 2.8976518e-20)
(0.00015060159 0 3.0684784e-20)
(0.0001598859 0 -3.2488165e-20)
(0.00016971496 -3.4391604e-20 -3.4391604e-20)
(0.00018011894 5.0486443e-33 0)
(0.00019112957 7.7039252e-20 3.8519626e-20)
(0.0002027802 -5.7916786e-36 -5.7916786e-36)
(0.00021510591 -1.293399e-19 -4.3113299e-20)
(0.00022814354 4.5599804e-20 4.5599804e-20)
(0.00024193183 4.8221346e-20 4.8221346e-20)
(0.00025651147 -1.0196949e-19 -5.0984743e-20)
(0.00027192519 5.3897125e-20 -5.3897125e-20)
(0.00028821788 -5.6965949e-20 0)
(0.00030543666 -1.2039802e-19 6.0199011e-20)
(0.00032363099 6.3604462e-20 6.3604462e-20)
(0.00034285279 6.7190817e-20 -6.7190817e-20)
(0.00036315653 7.0966973e-20 -7.0966973e-20)
(0.00038459936 -7.4942224e-20 0)
(0.00040724121 4.1320106e-49 7.9126275e-20)
(0.00043114494 8.3529257e-20 8.3529257e-20)
(0.00045637644 -8.8161747e-20 -8.8161747e-20)
(0.00048300477 9.303478e-20 -9.303478e-20)
(0.00051110233 -9.8159869e-20 0)
(0.00054074494 -2.8694643e-32 0)
(0.00057201206 -3.1040704e-35 0)
(0.00060498689 -1.1517015e-19 0)
(0.00063975653 2.4285756e-19 0)
(0.0006764122 -1.2800483e-19 0)
(0.00071504934 -3.7462677e-32 0)
(0.00075576784 3.9437067e-32 0)
(0.00079867219 1.497883e-19 1.497883e-19)
(0.00084387169 3.1557593e-19 -6.3124486e-48)
(0.00089148063 -4.9855571e-19 -1.6618524e-19)
(0.00094161851 -4.8543771e-32 0)
(0.00099441023 1.022179e-31 0)
(0.0010499863 -5.3744931e-32 0)
(0.0011084832 4.0824479e-19 2.041224e-19)
(0.0011700433 -4.2958661e-19 2.979139e-32)
(0.0012348154 6.2686333e-32 -2.2598148e-19)
(0.0013029549 4.7541939e-19 2.377097e-19)
(0.0013746238 0 -3.4710234e-32)
(0.0014499916 0 3.735774e-35)
(0.0015292348 -2.7637559e-19 3.8372e-32)
(0.0016125375 4.0293086e-32 -2.9050961e-19)
(0.0017000921 3.0531125e-19 3.0531125e-19)
(0.0017920987 3.2080894e-19 -3.2080894e-19)
(0.0018887664 -3.370322e-19 1.8727006e-31)
(0.0019903128 -1.0620349e-18 3.5401162e-19)
(0.0020969647 3.7177888e-19 -3.7177888e-19)
(0.0022089585 3.9036682e-19 0)
(0.0023265403 1.1647485e-34 0)
(0.0024499665 4.30142e-19 4.30142e-19)
(0.0025795039 0 6.2672524e-32)
(0.0027154303 -9.472478e-19 -4.736239e-19)
(0.0028580347 -9.9370002e-19 4.9685001e-19)
(0.0030076177 5.211196e-19 5.211196e-19)
(0.0031644921 1.0929488e-18 0)
(0.0033289833 5.729576e-19 -5.729576e-19)
(0.0035014291 -1.2012275e-18 -6.0061374e-19)
(0.0036821812 -1.2589778e-18 6.2948889e-19)
(0.0038716046 1.3192612e-18 1.8307256e-31)
(0.0040700787 1.3821761e-18 6.1875155e-48)
(0.0042779976 0 1.0050796e-31)
(0.0044957705 -1.5163089e-18 -7.5815443e-19)
(0.0047238222 7.9386965e-19 7.9386965e-19)
(0.0049625935 1.6622264e-18 -2.9290558e-47)
(0.0052125419 -8.699424e-19 1.2078285e-31)
(0.0054741421 -9.1041643e-19 9.1041643e-19)
(0.0057478862 1.3537206e-34 0)
(0.0060342848 -1.3836028e-31 0)
(0.0063338669 -1.0423258e-18 -1.0423258e-18)
(0.0066471808 1.0900067e-18 -1.5489926e-34)
(0.0069747948 1.1396556e-18 4.7420365e-31)
(0.0073172975 -1.1913429e-18 -1.1913429e-18)
(0.0076752983 1.7269849e-31 0)
(0.0080494285 1.8490087e-34 0)
(0.0084403413 1.885417e-31 1.3593692e-18)
(0.0088487128 1.4199543e-18 -3.9368769e-31)
(0.0092752424 -1.4829604e-18 -1.4829604e-18)
(0.0097206535 6.4496902e-31 0)
(0.010185694 2.2444448e-31 0)
(0.010671138 4.6830184e-31 0)
(0.011177785 1.7608831e-18 1.7608831e-18)
(0.01170646 -1.8372801e-18 -2.6109321e-34)
(0.012258016 2.6610476e-31 -1.9166283e-18)
(0.012833336 5.542369e-31 1.9990238e-18)
(0.013433328 2.9623456e-34 -2.0845654e-18)
(0.014058933 4.3467079e-18 6.0411486e-31)
(0.014711118 2.2654929e-18 4.5309858e-18)
(0.015390885 -2.3610879e-18 -2.3610879e-18)
(0.016099264 -4.9204941e-18 -1.0247425e-30)
(0.016837318 3.5585828e-31 -3.5585828e-31)
(0.017606144 5.3394048e-18 3.7066162e-31)
(0.018406872 2.780227e-18 2.780227e-18)
(0.019240666 -5.7895448e-18 0)
(0.020108725 -3.013459e-18 0)
(0.021012283 3.1364094e-18 -3.1364094e-18)
(0.021952611 3.2637488e-18 -4.5313904e-31)
(0.022931018 9.4240934e-31 9.4240934e-31)
(0.02394885 -3.5321075e-18 6.6853647e-48)
(0.025007492 0 3.6733893e-18)
(0.026108367 0 -3.8195853e-18)
(0.027252939 -3.9708326e-18 -3.9708326e-18)
(0.028442713 0 0)
(0.029679235 4.2890425e-18 4.2890425e-18)
(0.030964094 -4.4562917e-18 6.1871177e-31)
(0.032298919 -6.5784397e-34 -4.6291654e-18)
(0.033685385 1.3343506e-30 0)
(0.035125211 0 0)
(0.03662016 5.1830349e-18 5.1830349e-18)
(0.03817204 -5.3799195e-18 -1.5290651e-33)
(0.039782707 -5.5831962e-18 9.9420926e-48)
(0.041454062 1.158605e-17 5.7930251e-18)
(0.043188053 6.0095683e-18 -6.0095683e-18)
(0.044986678 -6.2329899e-18 8.6361711e-31)
(0.046851981 0 -8.9738655e-31)
(0.048786058 0 1.8598194e-30)
(0.050791051 6.9461949e-18 6.9461949e-18)
(0.052869156 -1.999989e-30 -7.1988091e-18)
(0.055022616 -7.4591502e-18 2.0712576e-30)
(0.057253727 0 -2.1468414e-30)
(0.059564838 0 2.2236094e-30)
(0.061958346 8.2882901e-18 8.2882901e-18)
(0.064436705 -3.5755045e-30 -8.5813015e-18)
(0.067002419 -8.882928e-18 2.4666124e-30)
(0.069658045 0 -1.2790183e-30)
(0.072406195 0 0)
(0.075249535 0 9.8413195e-18)
(0.078190783 0 -1.0179232e-17)
(0.081232713 0 1.4615244e-30)
(0.084378152 0 -1.5466868e-33)
(0.087629984 0 1.5620766e-30)
(0.090991146 0 -1.6160937e-30)
(0.094464631 -2.4031004e-17 -1.2015502e-17)
(0.098053484 -6.8903815e-30 1.2413402e-17)
(0.10176081 1.2821954e-17 1.2821954e-17)
(0.10558976 -1.3241344e-17 -1.3241344e-17)
(0.10954356 1.3671758e-17 -1.3671758e-17)
(0.11362546 -1.4113383e-17 0)
(0.11783879 4.0489404e-30 1.4566403e-17)
(0.12218692 1.5031004e-17 1.5031004e-17)
(0.12667329 4.3060876e-30 0)
(0.13130137 1.5995679e-17 -1.5995679e-17)
(0.13607471 0 2.2903218e-30)
(0.1409969 0 -2.4171049e-33)
(0.14607157 -1.7534095e-17 -2.4319429e-30)
(0.15130242 -5.0182317e-30 1.8071989e-17)
(0.1566932 1.862272e-17 -1.862272e-17)
(0.1622477 0 -2.6611225e-30)
(0.16796979 0 5.4878974e-30)
(0.17386334 0 2.0353648e-17)
(0.17993231 0 2.0957428e-17)
(0.1861807 0 -4.3149767e-17)
(0.19261254 0 3.1556871e-33)
(0.19923193 0 -3.1694498e-30)
(0.206043 -4.7021761e-17 -2.351088e-17)
(0.21304993 2.0132998e-29 2.4184599e-17)
(0.22025694 4.9745513e-17 -3.4533347e-30)
(0.2276683 -2.5575495e-17 -2.5575495e-17)
(0.23528831 -3.7364532e-33 0)
(0.24312132 -2.7025262e-17 0)
(0.25117171 1.540009e-29 0)
(0.25944391 5.7069901e-17 2.853495e-17)
(0.26794238 2.9312574e-17 2.9312574e-17)
(0.2766716 -3.8516271e-47 -3.0105538e-17)
(0.28563611 -9.274186e-17 -3.0913953e-17)
(0.29484045 0 0)
(0.30428923 6.5155097e-17 3.2577549e-17)
(0.31398705 0 3.3432922e-17)
(0.32393856 0 -3.430413e-17)
(0.33414843 -7.0382514e-17 -3.5191257e-17)
(0.34462135 1.0012432e-29 0)
(0.35536203 1.1104068e-16 3.7013561e-17)
(0.36637521 -3.7948871e-17 3.7948871e-17)
(0.37766564 -3.8900365e-17 -3.8900365e-17)
(0.38923808 3.9868093e-17 -1.1070576e-29)
(0.40109732 -4.0852098e-17 4.0852098e-17)
(0.41324814 4.1852417e-17 0)
(0.42569536 1.1891706e-29 0)
(0.43844379 -4.3902109e-17 0)
(0.45149823 4.4951519e-17 0)
(0.46486351 0 -4.601732e-17)
(0.47854446 4.7099512e-17 1.3065211e-29)
(0.4925459 -4.8198088e-17 4.8198088e-17)
(0.50687264 -9.8626069e-17 -4.9313034e-17)
(0.5215295 5.0444328e-17 -7.0036931e-30)
(0.53652129 5.1591941e-17 7.1703594e-30)
(0.5518528 5.2755836e-17 5.6323774e-47)
(0.56752882 5.3935967e-17 -5.3935967e-17)
(0.58355413 -1.1026456e-16 -5.5132282e-17)
(0.59993347 -5.6344719e-17 1.1268944e-16)
(0.61667159 5.7573212e-17 7.9934676e-30)
(0.6337732 0 -8.1578915e-30)
(0.651243 -6.0078047e-17 6.0078047e-17)
(0.66908565 6.1354212e-17 0)
(0.68730579 6.2646079e-17 -6.2646079e-17)
(0.70590803 -1.9186062e-16 -6.3953539e-17)
(0.72489696 -1.855269e-32 6.5276476e-17)
(0.7442771 1.3322953e-16 1.8478662e-29)
(0.76405297 -6.7968278e-17 -6.7968278e-17)
(0.78422903 -9.6267348e-30 0)
(0.8048097 -7.0720401e-17 0)
(0.82579938 2.049737e-32 7.2118709e-17)
(0.84720238 1.4706327e-16 -1.0198686e-29)
(0.869023 -7.4959008e-17 -7.4959008e-17)
(0.89126547 0 0)
(0.91393398 2.1619167e-29 7.7856378e-17)
(0.93703264 1.1272902e-32 -1.1272902e-32)
(0.96056554 8.0809311e-17 2.2439138e-29)
(0.98453668 -8.2306111e-17 1.1415688e-29)
(1.00895 2.3274087e-29 -8.3816185e-17)
(1.0338094 1.1836387e-29 8.5339311e-17)
(1.0591188 1.2345718e-32 -1.2345718e-32)
(1.0848817 8.8423809e-17 2.4553532e-29)
(1.1111021 -8.9984707e-17 8.9984707e-17)
(1.1377833 7.5696131e-47 -9.1557711e-17)
(1.1649291 2.5863838e-29 -2.5863838e-29)
(1.1925429 1.3463225e-32 -1.3463225e-32)
(1.220628 1.9269361e-16 1.3376796e-29)
(1.2491878 1.3587635e-29 9.7965653e-17)
(1.2782254 -9.9595285e-17 -9.9595285e-17)
(1.3077442 0 0)
(1.3377471 0 5.7124047e-29)
(1.3682371 1.0454607e-16 1.4500324e-29)
(1.3992171 4.4195815e-29 4.4195815e-29)
(1.43069 -1.0789524e-16 1.5332835e-32)
(1.4626584 1.0958352e-16 1.0958352e-16)
(1.495125 -1.5450192e-29 -1.1128052e-16)
(1.5280923 3.2721747e-46 3.2721747e-46)
(1.5615629 1.5924873e-29 1.5924873e-29)
(1.595539 -1.1642069e-16 -3.2327708e-29)
(1.6300229 -1.181494e-16 1.6403869e-29)
(1.6650168 -1.6627836e-29 -2.3977047e-16)
(1.7005228 1.2162786e-16 1.2162786e-16)
(1.7365428 0 1.2337694e-16)
(1.7730787 0 1.7373354e-29)
(1.8101324 -1.2689314e-16 -1.761785e-29)
(1.8477054 1.2865958e-16 -2.5731915e-16)
(1.8857994 -1.0858024e-28 1.3043112e-16)
(1.9244159 -1.3220742e-16 1.3220742e-16)
(1.9635562 1.3398813e-16 8.5122652e-47)
(2.0032217 0 0)
(2.0434135 -1.3756143e-16 8.5441347e-47)
(2.0841326 -1.3935331e-16 1.3935331e-16)
(2.1253801 1.4114822e-16 -1.4114822e-16)
(2.1671569 1.429458e-16 8.5791011e-47)
(2.2094637 0 2.0075931e-29)
(2.2523011 -1.4654758e-16 2.0825664e-32)
(2.2956698 -1.4835109e-16 1.4835109e-16)
(2.3395702 3.0031173e-16 -3.0031173e-16)
(2.3840027 1.5196157e-16 -4.2196703e-29)
(2.4289676 -1.5376784e-16 1.5376784e-16)
(2.4744649 -1.5557435e-16 -2.1577842e-29)
(2.5204948 -2.1828383e-29 2.1828383e-29)
(2.5670572 -1.5918664e-16 -1.5918664e-16)
(2.614152 -4.4704205e-29 1.6099175e-16)
(2.6617788 3.2559139e-16 -3.430208e-46)
(2.7099375 0 6.8581833e-29)
(2.7586274 0 -4.6229267e-29)
(2.8078482 0 4.6681106e-29)
(2.857599 -1.6999309e-16 4.7203698e-29)
(2.9078793 -1.7178615e-16 8.5065923e-47)
(2.9586881 0 0)
(3.0100245 1.753624e-16 -1.753624e-16)
(3.0618874 2.4544463e-29 0)
(3.1142758 -1.7892329e-16 0)
(3.1671883 0 1.8069716e-16)
(3.2206238 0 5.066724e-29)
(3.2745807 1.8423017e-16 -1.8423017e-16)
(3.3290576 2.5796247e-29 0)
(3.3840528 -2.6012671e-29 0)
(3.4395647 1.8948814e-16 3.7897628e-16)
(3.4955915 -1.9122849e-16 1.5919234e-28)
(3.5521313 8.029037e-29 -3.8592435e-16)
(3.6091822 1.9468891e-16 1.9468891e-16)
(3.6667422 0 -2.7911312e-32)
(3.724809 1.9812034e-16 2.7507038e-29)
(3.7833805 2.7743639e-29 1.9982446e-16)
(3.8424544 -2.0152048e-16 0)
(3.9020283 2.0320811e-16 0)
(3.9620997 -2.0488708e-16 0)
(4.0226662 -2.0655712e-16 2.0655712e-16)
(4.0837251 2.0821796e-16 5.7758805e-29)
(4.1452736 0 -2.0986934e-16)
(4.2073091 -2.11511e-16 0)
(4.2698287 -2.1314268e-16 0)
(4.3328294 2.1476414e-16 2.1476414e-16)
(4.3963082 2.1637513e-16 -3.0748755e-32)
(4.4602621 0 -2.179754e-16)
(4.524688 2.1956471e-16 0)
(4.5895826 -2.2114283e-16 0)
(4.6549426 -2.2270953e-16 2.2270953e-16)
(4.7207647 2.2426458e-16 6.2210072e-29)
(4.7870455 4.5161552e-16 6.2734412e-29)
(4.8537815 -1.2625495e-28 -6.3127475e-29)
(4.9209691 -6.8657291e-16 -2.2885764e-16)
(4.9886048 7.0036613e-47 2.303639e-16)
(5.0566849 2.3185745e-16 -6.434925e-29)
(5.1252057 4.6667613e-16 6.4760178e-29)
(5.1941633 -1.3026819e-28 -6.5134094e-29)
(5.2635539 -4.7251945e-16 -2.3625972e-16)
(5.3333736 2.3770038e-16 0)
(5.4036185 -2.3912734e-16 0)
(5.4742845 2.4054041e-16 2.4054041e-16)
(5.5453675 2.4193942e-16 -1.6150593e-45)
(5.6168636 -4.8664839e-16 -2.4332419e-16)
(5.6887683 0 0)
(5.7610776 0 0)
(5.8337872 4.947827e-16 2.4739135e-16)
(5.9068927 -4.8743921e-46 -9.7487842e-46)
(5.9803898 -5.0005702e-16 -2.5002851e-16)
(6.054274 0 0)
(6.1285409 0 0)
(6.203186 5.077394e-16 2.538697e-16)
(6.2782047 -4.5657595e-46 -9.1315189e-46)
(6.3535924 -5.1270478e-16 -2.5635239e-16)
(6.4293445 0 0)
(6.5054563 0 0)
(6.5819231 5.1991291e-16 2.5995645e-16)
(6.6587401 2.6112528e-16 -3.7108134e-32)
(6.7359025 -5.2455525e-16 -2.6227763e-16)
(6.8134055 -2.6341337e-16 2.6341337e-16)
(6.8912443 0 -7.3492973e-29)
(6.9694138 5.3126912e-16 7.3799181e-29)
(7.0479092 -1.4812555e-28 -7.4062774e-29)
(7.1267254 -5.3557582e-16 -2.6778791e-16)
(7.2058575 2.6883886e-16 0)
(7.2853005 0 0)
(7.3650491 -2.7088876e-16 0)
(7.4450984 2.718875e-16 0)
(7.5254431 -3.8776965e-32 0)
(7.6060782 -2.7383205e-16 2.7383205e-16)
(7.6869983 2.7477766e-16 -7.6261241e-29)
(7.7681984 -2.7570537e-16 -2.7570537e-16)
(7.849673 -2.7661507e-16 0)
(7.9314169 2.7750668e-16 0)
(8.0134247 2.7838011e-16 0)
(8.0956913 -7.7538075e-29 0)
(8.178211 -2.8007205e-16 0)
(8.2609787 2.808904e-16 0)
(8.3439888 7.8219768e-29 0)
(8.4272358 -2.8247142e-16 2.8247142e-16)
(8.5107144 2.8323393e-16 -1.5721635e-28)
(8.5944189 -2.8397766e-16 -2.8397766e-16)
(8.6783439 -2.8470254e-16 0)
(8.7624838 2.8540849e-16 0)
(8.8468331 2.8609543e-16 0)
(8.9313861 -7.9628461e-29 0)
(9.0161372 -2.87412e-16 0)
(9.1010808 2.8804147e-16 0)
(9.1862112 -4.1019866e-32 0)
(9.2715228 -2.8924245e-16 2.8924245e-16)
(9.3570097 2.8981381e-16 -8.0434342e-29)
(9.4426663 -2.9036565e-16 -2.9036565e-16)
(9.5284868 -2.9089792e-16 0)
(9.6144654 2.9141053e-16 0)
(9.7005964 5.8380687e-16 2.9190344e-16)
(9.786874 -1.624574e-28 -8.1228701e-29)
(9.8732922 -5.8565965e-16 -2.9282983e-16)
(9.9598452 2.9326318e-16 0)
(10.046527 -4.173395e-32 0)
(10.133332 -5.8813981e-16 0)
(10.220254 -8.3685772e-32 2.9444314e-16)
(10.307288 2.947962e-16 8.1900931e-29)
(10.394426 0 -2.9512903e-16)
(10.481664 -2.9544157e-16 0)
(10.568995 0 0)
(10.656413 2.9600551e-16 0)
(10.743913 0 0)
(10.831487 0 0)
(10.919131 0 0)
(11.006837 2.9688718e-16 0)
(11.094601 -3.8747736e-48 2.9705594e-16)
(11.182415 -2.9720393e-16 -4.2235219e-32)
(11.270274 0 -2.9733108e-16)
(11.358171 -2.9743732e-16 0)
(11.4461 8.261611e-29 0)
(11.534055 2.9758689e-16 0)
(11.62203 0 0)
(11.710019 0 0)
(11.798014 0 0)
(11.886011 2.9763162e-16 0)
(11.974002 -8.2634291e-29 2.9758809e-16)
(12.061982 -2.9752304e-16 4.2280567e-32)
(12.149943 0 -2.9743652e-16)
(12.23788 -2.973285e-16 0)
(12.325787 -8.2483992e-29 0)
(12.413656 2.9704773e-16 0)
(12.501481 0 2.9687486e-16)
(12.589257 -2.9668027e-16 -1.6472226e-28)
(12.676976 2.9646391e-16 -2.9646391e-16)
(12.764632 -1.6459617e-28 0)
(12.852219 -2.9596564e-16 2.9596564e-16)
(12.93973 2.9568364e-16 8.2147483e-29)
(13.027159 0 -2.9537966e-16)
(13.114499 2.9505364e-16 0)
(13.201743 8.1833867e-29 0)
(13.288885 -2.9433533e-16 2.9433533e-16)
(13.375919 0 2.9394294e-16)
(13.462837 -2.9352833e-16 -2.9352833e-16)
(13.549634 2.9309146e-16 -2.9309146e-16)
(13.636302 1.6251632e-28 0)
(13.722836 -2.9215076e-16 0)
(13.809227 1.6192761e-28 0)
(13.895471 4.1370713e-32 0)
(13.981559 -8.0727275e-29 -2.9057171e-16)
(14.067486 4.1211538e-32 4.1211538e-32)
(14.153244 2.8940659e-16 5.7881318e-16)
(14.238828 0 2.887902e-16)
(14.324229 -2.8815122e-16 -5.7630243e-16)
(14.409442 7.978929e-29 -5.7497923e-16)
(14.49446 7.9599385e-29 2.8680536e-16)
(14.579276 -3.8019396e-47 2.8609844e-16)
(14.663884 7.9241247e-29 0)
(14.748275 0 0)
(14.832445 5.6768295e-16 0)
(14.916386 7.8595603e-29 0)
(15.000091 -2.8222317e-16 2.8222317e-16)
(15.083553 2.813799e-16 7.8173585e-29)
(15.166766 -7.7853254e-29 -2.8051386e-16)
(15.249723 -2.7962507e-16 0)
(15.332417 -2.7871352e-16 0)