/*--------------------------------*- C++ -*----------------------------------*\
  =========                 |
  \\      /  F ield         | OpenFOAM: The Open Source CFD Toolbox
   \\    /   O peration     | Website:  https://openfoam.org
    \\  /    A nd           | Version:  7
     \\/     M anipulation  |
\*---------------------------------------------------------------------------*/
FoamFile
{
    version     2.0;
    format      ascii;
    class       volScalarField;
    location    "6e-05";
    object      Uy;
}
// * * * * * * * * * * * * * * * * * * * * * * * * * * * * * * * * * * * * * //

dimensions      [0 1 -1 0 0 0 0];

internalField   nonuniform List<scalar> 
5000
(
0
-5.06647e-28
0
0
1.013294e-28
-2.3039638e-43
-2.026588e-28
0
0
1.013294e-28
5.06647e-28
-5.06647e-29
5.06647e-29
1.013294e-28
0
-2.026588e-28
-3.1224532e-55
-1.013294e-28
0
-1.013294e-28
5.06647e-29
-8.5528471e-44
3.8487812e-43
-5.06647e-29
4.2466661e-43
-4.3641127e-56
1.013294e-28
1.519941e-28
-3.039882e-28
1.7567724e-42
-1.7711722e-42
-4.2466661e-43
-2.026588e-28
3.039882e-28
-8.783862e-43
-2.2031654e-41
-1.4054179e-41
5.06647e-28
-1.013294e-28
0
-1.013294e-28
-1.3947268e-55
-1.6175589e-42
-5.06647e-29
-5.7731718e-43
-1.013294e-28
-5.06647e-29
3.4703455e-42
-2.026588e-28
0
-3.0967941e-44
-2.8799547e-44
2.533235e-28
-4.053176e-28
7.0846887e-42
2.026588e-28
-1.013294e-28
1.0497435e-41
3.039882e-28
0
-1.013294e-28
-3.4559457e-42
-1.4399774e-44
8.9804894e-43
-1.1760165e-43
3.5423443e-42
2.533235e-28
-2.026588e-28
-1.013294e-28
1.519941e-28
1.519941e-28
-1.519941e-28
6.9107795e-42
3.6030347e-42
1.519941e-28
-1.4096359e-42
0
-1.013294e-28
7.1998869e-45
1.013294e-28
-1.013294e-28
1.823149e-59
-2.8799547e-44
-1.013294e-28
-5.06647e-29
-2.1759079e-55
-1.013294e-28
0
-1.519941e-28
-2.102367e-41
-3.5423443e-42
5.06647e-29
-5.06647e-29
1.4550761e-41
-7.0126898e-42
-2.4892061e-59
0
0
2.026588e-28
7.0270896e-42
-1.013294e-28
-1.013294e-28
-3.039882e-28
0
-5.06647e-29
-1.7576479e-42
-1.013294e-28
-5.06647e-29
0
0
5.06647e-29
5.06647e-29
0
-1.519941e-28
-1.4432037e-55
-1.013294e-28
-1.013294e-28
2.8799547e-44
3.7374555e-57
-4.8788331e-57
1.013294e-28
-4.3199321e-44
1.013294e-28
0
1.519941e-28
-1.013294e-28
-1.013294e-28
2.5658541e-43
-5.06647e-29
1.013294e-28
-5.06647e-29
-5.06647e-29
-1.519941e-28
-5.06647e-29
0
5.06647e-29
-2.026588e-28
2.533235e-28
1.0950543e-55
1.519941e-28
-5.06647e-29
5.06647e-29
0
-3.039882e-28
-1.519941e-28
1.013294e-28
-1.519941e-28
-2.8799547e-44
-1.013294e-28
1.013294e-28
-1.013294e-28
-1.4111778e-41
-3.546529e-28
2.026588e-28
-5.06647e-29
1.013294e-28
-5.06647e-29
0
0
-1.013294e-28
-1.519941e-28
3.039882e-28
2.533235e-28
-5.06647e-29
-3.5135448e-42
2.026588e-28
-6.9834064e-42
1.013294e-28
0
-3.039882e-28
-1.519941e-28
0
2.026588e-28
2.026588e-28
0
-1.519941e-28
-2.1081269e-41
-5.06647e-29
1.013294e-28
-5.06647e-29
1.013294e-28
-6.99829e-42
1.3938981e-41
-3.8986025e-56
-1.013294e-28
5.06647e-29
8.8969672e-57
-3.4847452e-42
6.9694905e-42
-1.519941e-28
0
0
1.519941e-28
5.06647e-29
0
0
1.519941e-28
4.8788331e-57
5.06647e-29
0
1.519941e-28
-2.026588e-28
-2.8079559e-41
4.2764235e-44
-5.06647e-29
-1.0519035e-41
2.8799547e-44
1.013294e-28
5.06647e-29
2.1599661e-44
7.0126898e-42
3.5063449e-42
-1.013294e-28
0
1.519941e-28
3.5063449e-42
1.4061379e-41
1.519941e-28
0
-1.9199696e-42
1.519941e-28
0
0
0
-3.546529e-28
-1.7531725e-41
1.519941e-28
0
0
-5.06647e-29
-5.06647e-29
-1.519941e-28
-1.519941e-28
0
5.06647e-29
-5.06647e-29
5.06647e-29
-5.2496712e-43
0
5.06647e-29
-1.4068579e-41
-3.5135448e-42
8.5528471e-44
-5.06647e-29
-5.06647e-29
0
-1.013294e-28
-1.4082979e-41
1.519941e-28
7.0270896e-42
1.7105694e-43
1.013294e-28
-7.0270896e-42
1.7589324e-41
-3.5063449e-42
-1.013294e-28
1.013294e-28
5.06647e-29
0
-1.519941e-28
-6.9878274e-42
0
3.546529e-28
2.533235e-28
-1.013294e-28
-1.013294e-28
2.026588e-28
2.026588e-28
2.8108358e-41
-1.81748e-43
1.519941e-28
3.5135448e-42
3.546529e-28
-3.546529e-28
3.1686702e-41
-3.1751501e-41
7.1998869e-44
3.499145e-42
5.06647e-29
0
0
-1.519941e-28
-1.013294e-28
0
0
0
0
-2.026588e-28
-2.0951671e-41
7.093058e-28
-1.079983e-43
-5.06647e-29
-5.06647e-29
2.1102868e-41
1.4039779e-41
-1.4399774e-44
-1.519941e-28
5.06647e-29
1.013294e-28
-4.053176e-28
-4.559823e-28
-2.026588e-28
-7.093058e-28
0
1.519941e-28
-5.06647e-29
2.026588e-28
-5.7599095e-44
2.1599661e-44
1.4399774e-44
1.013294e-28
1.013294e-28
5.06647e-29
2.026588e-28
-1.013294e-28
-4.8788331e-57
-1.013294e-28
-2.8079559e-41
3.2073177e-43
0
0
-3.8669817e-56
-7.7186052e-56
2.026588e-28
0
1.519941e-28
1.519941e-28
1.519941e-28
-5.0399208e-44
4.2205737e-41
-2.8799547e-44
-1.013294e-28
-5.06647e-29
-2.026588e-28
0
1.013294e-28
7.0342895e-42
-5.06647e-29
2.026588e-28
4.2162538e-41
1.519941e-28
-2.8137158e-41
-4.053176e-28
4.053176e-28
1.519941e-28
-1.013294e-28
-7.1998869e-45
-3.8487812e-43
0
0
5.06647e-29
0
-2.026588e-28
1.4399774e-44
1.519941e-28
0
1.013294e-28
-1.013294e-28
-5.06647e-29
-5.06647e-29
-8.4604513e-41
-1.519941e-28
-1.4061183e-41
1.519941e-28
-1.013294e-28
4.9416553e-71
-5.06647e-29
1.519941e-28
-1.519941e-28
5.06647e-29
1.4039779e-41
2.8799547e-44
5.06647e-29
-1.013294e-28
1.4061183e-41
-1.9229305e-54
-2.8108358e-41
-1.013294e-28
-3.039882e-28
3.039882e-28
-1.1862623e-56
-1.1243343e-40
8.4238676e-41
-3.039882e-28
1.013294e-28
4.2162538e-41
4.053176e-28
0
0
1.013294e-28
-7.0270896e-42
5.06647e-29
1.013294e-28
-5.06647e-29
1.519941e-28
5.06647e-29
2.026588e-28
8.6398642e-44
1.519941e-28
0
-2.026588e-28
-1.013294e-28
1.7694442e-44
-4.2684924e-41
5.06647e-29
-1.013294e-28
-2.026588e-28
3.039882e-28
1.013294e-28
0
-3.039882e-28
2.026588e-28
2.026588e-28
-2.026588e-28
-2.533235e-28
2.1599661e-44
-1.4068579e-41
-5.06647e-29
1.013294e-28
1.013294e-28
-2.026588e-28
3.5135448e-41
2.1599661e-44
-1.4054179e-41
-1.519941e-28
-5.06647e-29
-8.7182122e-54
-9.7764982e-55
-1.4061379e-41
-1.519941e-28
1.519941e-28
-2.8137158e-41
-4.2140938e-41
8.7825878e-56
-1.013294e-28
-1.519941e-28
-1.5446774e-43
-1.013294e-28
-2.8137158e-41
-6.079764e-28
-1.013294e-28
-2.026588e-28
-3.546529e-28
3.039882e-28
7.0033113e-42
-2.8122758e-41
1.519941e-28
0
0
5.06647e-29
0
-5.06647e-29
5.06647e-29
1.4399774e-44
-1.4061379e-41
0
-5.06647e-29
5.06647e-29
-5.06647e-29
2.026588e-28
5.06647e-29
0
0
0
-5.06647e-29
2.8151558e-41
3.546529e-28
0
0
-1.2829271e-43
-6.3330205e-41
-2.026588e-28
0
0
0
0
0
0
0
0
1.407298e-41
-2.8122758e-41
1.013294e-28
1.013294e-28
-1.519941e-28
-1.013294e-28
9.8580851e-41
4.053176e-28
1.1254863e-40
2.026588e-28
0
0
-1.519941e-28
2.8137158e-41
-2.026588e-28
0
0
0
0
0
0
0
1.3476491e-41
8.4353875e-41
2.026588e-28
2.6248356e-43
7.1998869e-45
5.06647e-29
-5.6187917e-41
-3.039882e-28
-5.06647e-29
9.7576662e-57
4.559823e-28
0
-5.06647e-28
0
0
4.053176e-28
2.8108358e-41
6.079764e-28
-2.026588e-28
-1.013294e-28
1.519941e-28
-1.013294e-28
-1.519941e-28
-7.0270896e-41
2.026588e-28
-6.9771363e-42
0
-5.06647e-29
2.026588e-28
3.4211388e-43
1.013294e-28
-5.06647e-29
3.5759785e-43
-1.013294e-28
6.079764e-28
1.013294e-28
7.0733558e-42
0
-4.053176e-28
3.546529e-28
2.026588e-28
-2.1115367e-41
2.8799547e-44
-1.013294e-28
-1.013294e-28
-2.1102868e-41
-5.06647e-29
-2.8799547e-44
-4.053176e-28
2.026588e-28
0
-4.2205737e-41
-7.1998869e-45
1.013294e-28
-2.026588e-28
5.6274316e-41
7.0270896e-42
-2.8799547e-44
-2.533235e-28
2.533235e-28
1.9515332e-56
2.8137158e-41
1.4399774e-44
1.013294e-28
-7.0270896e-42
-5.06647e-29
0
0
1.013294e-28
6.3243806e-41
-2.026588e-28
1.519941e-28
-7.0342895e-42
-3.9030665e-56
-7.0342895e-42
-1.013294e-28
-2.533235e-28
-2.8108358e-41
-1.013294e-28
0
0
4.053176e-28
-1.013294e-28
-1.2653081e-40
-2.533235e-28
2.026588e-28
0
1.013294e-28
1.013294e-28
-1.013294e-28
-5.06647e-29
0
-1.013294e-28
-1.519941e-28
-1.013294e-28
-1.519941e-28
-1.013294e-28
-1.519941e-28
-2.1081269e-41
-1.013294e-28
2.8137158e-41
-5.3676341e-43
0
0
0
5.06647e-29
-1.013294e-28
0
0
-2.1059669e-41
3.039882e-28
0
0
1.013294e-28
4.2162538e-41
-4.2119338e-41
2.026588e-28
-5.06647e-29
-6.3243806e-41
-2.533235e-28
0
-1.013294e-28
1.4068579e-41
1.519941e-28
-1.519941e-28
-1.013294e-28
-2.026588e-28
2.533235e-28
0
5.06647e-29
2.1382118e-44
-5.06647e-29
-5.06647e-29
0
1.519941e-28
-3.039882e-28
-2.026588e-28
-1.013294e-28
-4.053176e-28
1.1254863e-40
9.119646e-28
4.8788331e-57
-5.06647e-29
3.039882e-28
-2.8108358e-41
4.053176e-28
-2.533235e-28
1.013294e-28
1.013294e-28
1.519941e-28
-2.026588e-28
0
0
4.053176e-28
1.0636774e-68
-3.039882e-28
0
0
1.013294e-28
0
-1.013294e-28
0
0
-6.079764e-28
-2.026588e-28
-1.013294e-28
-1.519941e-28
0
2.8670926e-41
7.8434358e-54
3.039882e-28
-2.533235e-28
0
1.013294e-28
-1.519941e-28
2.8799547e-44
5.06647e-29
1.519941e-28
-5.06647e-29
1.013294e-28
-1.519941e-28
-1.013294e-28
2.3749554e-56
-1.013294e-28
2.026588e-28
1.4068579e-41
-1.013294e-28
2.533235e-28
-2.533235e-28
-1.519941e-28
1.013294e-28
-5.06647e-29
7.0342895e-41
1.519941e-28
-5.06647e-29
1.4399774e-44
5.621266e-41
5.06647e-29
5.06647e-29
5.06647e-29
1.7694442e-44
2.026588e-28
-2.8151558e-41
1.013294e-28
-2.026588e-28
3.5999434e-44
3.039882e-28
5.7599095e-44
-2.533235e-28
0
-1.519941e-28
0
5.06647e-28
0
0
0
1.013294e-28
4.8788331e-57
-1.519941e-28
0
2.1382118e-43
-2.3749554e-56
5.06647e-29
0
0
0
2.533235e-28
-4.2205737e-41
-1.013294e-28
0
2.026588e-28
-2.8122758e-41
1.519941e-28
0
5.06647e-29
-1.519941e-28
8.4454673e-41
1.519941e-28
-2.026588e-28
0
-1.4049387e-41
-1.4068579e-41
1.0691059e-43
0
1.519941e-28
-1.013294e-28
5.6274316e-41
-2.533235e-28
1.9690971e-40
3.5999434e-44
-4.2227337e-41
2.8799547e-44
2.8036838e-41
0
3.039882e-28
-4.2184137e-41
-1.4061379e-41
4.8788331e-57
-2.8137158e-41
0
-5.06647e-28
-9.8480053e-41
2.533235e-28
-5.06647e-29
-7.0306895e-41
-4.053176e-28
-2.533235e-28
-5.6274316e-41
2.8137158e-41
5.06647e-29
-5.06647e-29
2.9671337e-57
0
1.4078878e-41
2.8137158e-41
2.533235e-28
0
0
0
3.039882e-28
5.6274316e-41
2.026588e-28
0
0
0
0
0
0
0
-1.013294e-28
8.4454673e-41
3.039882e-28
-1.519941e-28
1.519941e-28
1.013294e-28
-1.4075779e-41
-2.8108358e-41
-2.026588e-28
1.519941e-28
-5.06647e-29
-2.7796753e-43
1.7105694e-43
1.013294e-28
3.1190751e-53
1.013294e-28
1.013294e-28
7.7344968e-54
1.013294e-28
5.06647e-29
1.37987e-41
2.026588e-28
-1.013294e-28
1.420717e-41
0
-5.06647e-29
-5.06647e-29
-1.4054179e-41
-1.519941e-28
2.533235e-28
-1.519941e-28
-5.06647e-29
-1.013294e-28
3.039882e-28
4.2205737e-41
5.06647e-29
-1.519941e-28
-4.3199321e-44
3.039882e-28
5.6259916e-41
-1.519941e-28
-1.013294e-28
0
5.06647e-29
0
0
0
-1.519941e-28
0
-5.06647e-29
-2.533235e-28
0
5.06647e-29
-1.4075779e-41
4.2764235e-44
0
0
5.06647e-29
-5.6245516e-41
-8.1840795e-44
0
0
1.013294e-28
2.8122758e-41
4.2049359e-41
0
2.026588e-28
-2.8137158e-41
1.4061379e-41
1.4068579e-41
1.1796295e-44
0
1.519941e-28
-5.6231116e-41
5.06647e-29
0
5.06647e-29
-2.533235e-28
-3.546529e-28
1.013294e-28
-2.8165957e-41
-1.013294e-28
1.4068579e-41
5.06647e-29
0
0
5.06647e-29
4.2184137e-41
5.06647e-29
0
1.013294e-28
1.412533e-41
1.013294e-28
-5.06647e-29
0
-5.06647e-29
-1.519941e-28
-1.4061379e-40
1.4061379e-40
-1.519941e-28
-4.2191337e-41
5.06647e-29
2.026588e-28
-7.0306895e-41
2.8137158e-41
-2.026588e-28
-3.8998706e-54
-5.06647e-29
0
0
0
-7.093058e-28
-2.026588e-28
1.013294e-28
-1.013294e-28
0
0
-5.06647e-29
4.8788331e-57
1.519941e-28
0
2.026588e-28
1.013294e-28
4.053176e-28
1.519941e-28
0
-1.1216873e-40
-3.9043339e-56
-3.039882e-28
1.4054179e-41
3.039882e-28
-2.026588e-28
-5.7599095e-44
1.519941e-28
-2.8151558e-41
-1.539132e-53
-1.3376955e-41
0
-1.519941e-28
1.1251983e-40
4.053176e-28
-2.800366e-41
-1.6870775e-40
5.06647e-29
2.026588e-28
-1.4399774e-44
-1.519941e-28
0
0
0
-1.519941e-28
1.013294e-28
4.053176e-28
-2.533235e-28
-2.8137158e-41
-1.7793934e-56
5.06647e-29
0
-5.06647e-29
-1.4399774e-44
-1.013294e-28
-1.013294e-28
-5.6216717e-41
1.013294e-28
5.06647e-29
5.6303115e-41
3.039882e-28
0
1.519941e-28
1.519941e-28
0
1.3898376e-43
1.519941e-28
-1.519941e-28
0
5.06647e-29
0
0
5.06647e-29
-4.2191337e-41
-1.3997037e-41
0
0
-2.533235e-28
-3.546529e-28
2.533235e-28
1.519941e-28
-2.026588e-28
-3.039882e-28
5.06647e-28
1.519941e-28
-2.8151558e-41
0
-2.8108358e-41
-7.7997413e-54
-1.013294e-28
-5.06647e-29
1.519941e-28
-5.06647e-29
-1.2959796e-43
2.533235e-28
-4.053176e-28
-1.519941e-28
-5.06647e-29
2.026588e-28
3.039882e-28
-2.026588e-28
2.026588e-28
4.2195346e-41
-8.4411474e-41
-2.026588e-28
-2.026588e-28
1.1249103e-40
-7.0378894e-41
5.06647e-29
0
0
-5.06647e-29
-5.06647e-29
0
3.039882e-28
2.026588e-28
0
1.013294e-28
-2.8137158e-41
-1.013294e-28
-5.06647e-29
5.6216717e-41
1.519941e-28
0
1.013294e-28
8.4389874e-41
-1.519941e-28
5.06647e-29
2.8093959e-41
1.013294e-28
-1.519941e-28
-4.2184137e-41
5.06647e-29
0
1.519941e-28
-2.533235e-28
7.1998869e-44
-5.6274316e-41
1.013294e-28
-1.013294e-28
0
-1.013294e-28
3.374731e-40
2.533235e-28
1.9685931e-40
7.093058e-28
-4.053176e-28
-1.013294e-28
2.026588e-28
2.026588e-28
5.06647e-29
0
-1.7806032e-43
-8.4378896e-41
-3.9031552e-56
5.06647e-29
-5.06647e-29
-5.06647e-29
5.06647e-29
2.8067806e-41
-2.026588e-28
-1.6876535e-40
3.039882e-28
-1.013294e-28
1.5671499e-53
-1.013294e-28
1.013294e-28
-1.3932891e-41
1.013294e-28
5.6216717e-41
5.06647e-28
-1.013294e-28
1.013294e-28
2.026588e-28
1.4061379e-41
-1.4049387e-41
-1.1254863e-40
-1.519941e-28
-1.4061379e-41
0
-5.06647e-29
-1.013294e-28
1.013294e-28
-8.7818996e-56
3.039882e-28
3.375883e-40
1.4215651e-41
-1.013294e-28
2.8122758e-41
2.026588e-28
-4.8788331e-57
-1.519941e-28
0
0
1.9243906e-43
-3.63496e-43
1.7105694e-43
0
0
0
5.06647e-29
-5.06647e-29
0
5.06647e-29
1.519941e-28
3.375307e-40
-1.013294e-28
0
0
0
1.013294e-28
-1.3836671e-41
2.026588e-28
-1.013294e-28
7.8051056e-54
3.039882e-28
0
0
-5.06647e-28
5.7599095e-44
2.533235e-28
-5.06647e-29
-5.06647e-29
1.013294e-28
-1.4068579e-40
-6.079764e-28
0
0
2.026588e-28
1.013294e-28
0
0
5.06647e-29
5.06647e-29
0
2.6727647e-43
1.519941e-28
-2.026588e-28
-1.4024317e-41
-1.519941e-28
-1.013294e-28
-1.519941e-28
-5.6274316e-41
1.4335463e-41
-1.519941e-28
-5.6245516e-41
1.013294e-28
0
5.06647e-29
-5.6259916e-41
5.06647e-29
-1.013294e-28
2.8129958e-41
-3.2073177e-43
0
-3.039882e-28
5.6274316e-41
1.4399774e-44
1.013294e-28
-1.013294e-28
5.06647e-29
0
2.026588e-28
1.1254863e-40
2.026588e-28
4.3199321e-44
8.106352e-28
-4.053176e-28
-3.039882e-28
1.013294e-28
5.06647e-29
0
1.013294e-28
-5.9047712e-40
-7.093058e-28
0
5.06647e-28
1.4068579e-40
-2.026588e-28
-1.4068579e-41
1.013294e-28
-3.039882e-28
-2.5309042e-40
-1.2829271e-42
3.039882e-28
-1.4057779e-40
-1.013294e-28
1.519941e-28
-4.053176e-28
-1.519941e-28
2.026588e-28
-1.013294e-28
1.2654521e-40
-2.026588e-28
3.039882e-28
-5.6274316e-41
-5.6266115e-41
2.2486687e-40
1.519941e-28
1.4061379e-40
8.106352e-28
-3.546529e-28
-2.026588e-28
1.519941e-28
-1.9690971e-40
1.519941e-28
-7.9191914e-68
2.5658541e-43
2.026588e-28
-1.2657401e-40
5.6252716e-41
5.6216717e-41
2.026588e-28
0
1.519941e-28
3.546529e-28
0
0
0
0
0
-1.013294e-28
-2.026588e-28
0
-1.013294e-28
1.519941e-28
-8.4397074e-41
5.06647e-28
0
0
0
-1.013294e-28
5.06647e-29
-1.013294e-28
-1.519941e-28
4.053176e-28
4.2205737e-40
-4.053176e-28
0
-5.5834052e-41
-2.5319122e-40
5.06647e-29
-1.013294e-28
-1.125632e-40
5.06647e-29
-8.4368274e-41
3.039882e-28
0
0
2.8116468e-41
1.013294e-28
0
5.06647e-29
-2.8799547e-44
5.06647e-29
-1.013294e-28
2.8484483e-55
0
-1.013294e-28
2.026588e-28
0
3.039882e-28
3.039882e-28
-3.039882e-28
2.026588e-28
2.026588e-28
-4.559823e-28
5.06647e-29
5.7599095e-44
4.559823e-28
-2.533235e-28
-1.013294e-28
5.06647e-29
-2.7151103e-69
5.6180587e-41
-4.3869471e-44
5.06647e-29
0
4.053176e-28
2.026588e-28
0
-5.6250631e-41
3.039882e-28
8.4346675e-41
-5.06647e-29
-2.026588e-28
-2.7796753e-43
-7.26992e-43
-1.013294e-28
-1.519941e-28
0
-5.06647e-29
1.519941e-28
-2.533235e-28
-1.053828e-54
3.039882e-28
-2.026588e-28
5.06647e-29
1.519941e-28
1.013294e-28
-2.026588e-28
-1.013294e-28
5.06647e-29
-5.06647e-29
-1.013294e-28
-3.039882e-28
-1.013294e-28
-1.519941e-28
-5.06647e-29
1.013294e-28
3.039882e-28
1.519941e-28
-3.546529e-28
3.374155e-40
-1.6876535e-40
8.4384061e-41
-5.9353442e-44
5.06647e-29
-3.2073177e-43
0
-2.5658541e-43
-1.4399774e-44
1.013294e-28
-3.546529e-28
-9.119646e-28
6.079764e-28
2.026588e-28
-4.559823e-28
0
3.039882e-28
-5.06647e-29
4.559823e-28
-5.06647e-29
-3.039882e-28
-8.4368274e-41
-5.6238316e-41
-1.013294e-28
0
1.013294e-28
-1.1278882e-40
-1.013294e-28
-1.519941e-28
2.2497893e-40
-1.519941e-28
-1.1225612e-42
-1.013294e-28
0
-3.039882e-28
2.026588e-28
-3.039882e-28
-5.06647e-28
-1.5615576e-53
-1.013294e-28
-1.013294e-28
2.533235e-28
-1.0124193e-39
-4.053176e-28
1.519941e-28
0
2.026588e-28
0
1.1250543e-40
5.06647e-29
3.039882e-28
-4.559823e-28
1.4399774e-44
1.013294e-28
0
-1.013294e-28
-2.8122366e-41
1.013294e-28
-5.6252716e-41
-1.013294e-28
1.013294e-28
2.1382118e-44
3.5600023e-56
-2.026588e-28
1.013294e-28
-1.013294e-28
1.013294e-28
8.3988853e-41
0
-3.039882e-28
-1.013294e-28
3.039882e-28
4.053176e-28
5.06647e-29
1.013294e-28
1.519941e-28
5.06647e-29
2.026588e-28
-5.06647e-29
4.053176e-28
-3.546529e-28
2.1599661e-44
2.026588e-28
5.06647e-28
-1.0639587e-27
3.039882e-28
4.2191337e-40
-1.2159528e-27
0
9.119646e-28
3.039882e-28
-1.013294e-28
-2.026588e-28
-2.026588e-28
0
1.013294e-28
-5.6245516e-41
-2.026588e-28
2.8115558e-41
-1.519941e-28
0
0
3.039882e-28
6.079764e-28
-1.0912106e-43
0
-5.06647e-29
-1.013294e-28
-3.039882e-28
1.013294e-28
-5.06647e-29
-2.533235e-28
7.093058e-28
-7.093058e-28
-3.039882e-28
6.079764e-28
4.053176e-28
-2.026588e-28
-6.079764e-28
2.2498207e-40
-4.4996413e-40
-2.533235e-28
5.6245516e-41
1.519941e-28
-1.519941e-28
-1.519941e-28
-5.06647e-29
5.06647e-29
-5.6244733e-41
3.039882e-28
-5.06647e-29
-1.013294e-28
-1.519941e-28
-2.8799547e-44
1.013294e-28
-6.079764e-28
-4.053176e-28
0
-5.06647e-29
2.026588e-28
-2.2386706e-40
-3.5169971e-43
5.0620965e-40
3.039882e-28
-5.06647e-29
1.013294e-28
2.533235e-28
8.3255229e-41
1.519941e-28
0
6.4146353e-44
-2.026588e-28
-2.5314802e-40
-1.519941e-28
2.026588e-28
1.519941e-28
8.4346675e-41
-8.4368274e-41
7.1998869e-45
3.039882e-28
3.039882e-28
5.6324363e-41
-3.6791694e-43
1.1249103e-40
5.06647e-28
0
0
-1.519941e-28
5.6245516e-41
-2.8115558e-41
2.846448e-41
-1.013294e-28
-1.519941e-28
-2.8115558e-40
1.013294e-28
-1.519941e-28
2.7433346e-41
0
0
0
-4.559823e-28
1.013294e-28
-6.079764e-28
2.8129958e-40
2.026588e-28
0
0
8.5528471e-44
-1.1249103e-40
-1.6869335e-40
1.013294e-28
-5.06647e-29
-3.039882e-28
-1.013294e-28
-1.013294e-28
-9.119646e-28
-3.546529e-28
0
0
0
-4.559823e-28
-8.106352e-28
1.0639587e-27
-3.374731e-40
-2.026588e-28
2.1599661e-44
1.013294e-28
-3.039882e-28
2.2498207e-40
1.519941e-28
1.013294e-28
0
2.8129958e-41
3.039882e-28
-5.6244733e-41
6.079764e-28
4.053176e-28
-1.013294e-28
-2.8115558e-41
5.06647e-29
-3.039882e-28
-1.013294e-28
1.519941e-28
2.533235e-28
-2.026588e-28
-1.013294e-28
-4.2764235e-44
0
2.8122758e-41
-1.1246223e-40
-3.039882e-28
0
-5.06647e-29
-1.013294e-28
-1.519941e-28
-8.5528471e-44
-2.026588e-28
-2.533235e-28
1.6871495e-40
1.013294e-28
1.519941e-28
-3.039882e-28
-2.026588e-28
3.039882e-28
-1.013294e-28
1.013294e-28
-1.013294e-28
1.013294e-28
5.06647e-29
5.1317082e-43
-5.6216717e-41
1.013294e-28
5.06647e-29
-4.559823e-28
1.519941e-28
5.06647e-29
1.519941e-28
6.0771634e-60
7.599705e-28
2.026588e-28
-1.519941e-28
1.519941e-28
2.6345699e-54
-2.5306162e-40
1.013294e-28
-4.053176e-28
-4.053176e-28
-2.8159233e-41
-3.123504e-53
-1.1274384e-40
-5.06647e-29
-1.519941e-28
-1.519941e-28
-6.8201729e-43
0
-5.6137822e-41
3.039882e-28
-2.8799547e-44
-1.519941e-28
-5.06647e-29
6.079764e-28
-4.3199321e-44
-7.093058e-28
5.06647e-28
-2.5314802e-40
-3.039882e-28
1.519941e-28
-4.0626024e-43
0
0
2.533235e-28
4.559823e-28
1.013294e-28
-1.519941e-28
-1.542931e-55
-2.026588e-28
1.013294e-28
-1.013294e-28
-5.06647e-29
-2.026588e-28
1.013294e-28
5.06647e-29
-1.519941e-28
-5.06647e-29
-2.6709133e-55
-5.6216717e-41
1.1231841e-40
-1.519941e-28
1.013294e-28
3.039882e-28
0
1.7008127e-40
-1.013294e-28
6.079764e-28
-1.0079842e-43
-5.573117e-28
1.013294e-27
-2.533235e-28
-5.06647e-29
1.1249103e-40
-1.013294e-28
-1.013294e-28
1.519941e-28
6.079764e-28
7.093058e-28
-1.1251983e-40
1.013294e-28
-3.2662991e-43
-2.026588e-28
-3.039882e-28
0
1.519941e-28
1.013294e-28
-3.039882e-28
1.6877975e-40
2.533235e-28
-1.013294e-28
1.013294e-28
1.5482819e-53
1.013294e-28
-2.8122758e-41
-1.013294e-28
-5.6238316e-41
-1.6871495e-40
-2.026588e-28
-1.519941e-28
1.013294e-28
1.1251983e-40
1.6872215e-40
-5.06647e-29
-5.06647e-29
1.1246587e-40
-1.6824462e-40
-1.519941e-28
5.06647e-28
-4.053176e-28
-1.4399774e-43
6.079764e-28
-2.026588e-28
3.546529e-28
7.599705e-28
-3.375019e-40
0
4.1695129e-43
1.1869779e-55
1.519941e-28
-1.519941e-28
2.5658541e-43
-5.6231116e-41
-2.026588e-28
5.06647e-28
-8.4368274e-41
5.06647e-29
-5.06647e-29
6.7506139e-40
4.559823e-28
-1.519941e-28
-4.559823e-28
0
0
0
3.546529e-28
-1.519941e-28
-4.053176e-28
-3.9371861e-40
-1.519941e-28
-1.519941e-28
-2.026588e-28
-1.1254403e-40
-1.013294e-28
-5.06647e-29
3.039882e-28
-5.06647e-29
-1.013294e-28
-1.6873655e-40
-1.013294e-28
-4.559823e-28
-5.06647e-28
0
-5.7430335e-41
-5.6245516e-41
-2.1382118e-43
8.9804894e-43
1.519941e-28
-1.519941e-28
0
0
3.039882e-28
5.06647e-28
-4.4996413e-40
-1.013294e-28
5.06647e-29
-1.519941e-28
2.026588e-28
-1.519941e-28
-5.2691398e-55
-1.6876535e-40
3.039882e-28
0
0
4.053176e-28
-1.013294e-28
-2.533235e-28
3.374299e-40
7.599705e-28
-3.375595e-40
-4.053176e-28
0
1.013294e-28
1.013294e-28
-2.026588e-28
1.1247767e-40
-2.533235e-28
3.039882e-28
5.06647e-29
-1.6873655e-40
-1.013294e-28
-3.039882e-28
-4.053176e-28
0
0
0
4.559823e-28
4.053176e-28
-1.687342e-40
5.06647e-28
0
-3.039882e-28
2.2498207e-40
-5.06647e-29
7.093058e-28
-3.546529e-28
1.013294e-28
-2.8174717e-41
-4.559823e-28
1.013294e-28
1.013294e-28
-1.013294e-28
-1.519941e-28
6.079764e-28
6.079764e-28
0
-3.039882e-28
4.053176e-28
-1.013294e-28
2.026588e-28
-1.6873655e-40
2.5658541e-43
-1.6876535e-40
-5.06647e-29
-2.8129958e-41
-3.9030665e-56
-5.06647e-29
0
5.06647e-29
0
6.4146353e-44
-1.519941e-28
-1.519941e-28
0
-2.026588e-28
-2.026588e-28
1.1253223e-40
1.519941e-28
1.013294e-28
7.6975624e-43
-2.026588e-28
-1.013294e-28
-1.519941e-28
-3.039882e-28
5.06647e-29
-1.519941e-28
5.06647e-29
8.4368274e-41
1.013294e-28
8.6398642e-44
8.3139838e-41
-1.1248947e-40
-4.1695129e-43
-5.06647e-29
-3.4848886e-59
8.5528471e-44
3.2073177e-43
1.1250543e-40
1.013294e-28
0
-8.4368274e-41
-5.06647e-28
5.6245516e-41
1.519941e-28
-5.06647e-29
7.599705e-28
5.06647e-29
-1.6873655e-40
2.026588e-28
-1.6873655e-40
-3.039882e-28
4.053176e-28
-2.2509726e-40
-1.6886615e-40
-1.1250543e-40
1.013294e-28
-4.559823e-28
2.026588e-28
9.4578313e-53
-1.6873655e-40
-1.519941e-28
1.519941e-28
3.039882e-28
-1.1249103e-40
-1.013294e-28
-1.013294e-28
1.013294e-28
-1.013294e-28
1.1247663e-40
2.5658541e-43
1.1246223e-40
3.039882e-28
-5.06647e-28
1.519941e-28
1.519941e-28
-8.4325075e-41
5.6245516e-41
5.06647e-29
-2.026588e-28
-5.06647e-29
1.6876535e-40
-5.0620965e-40
4.559823e-28
3.039882e-28
-7.1998869e-44
2.026588e-28
-3.039882e-28
-6.079764e-28
-1.013294e-28
4.559823e-28
-5.6245516e-41
1.013294e-28
-5.6353854e-41
-1.013294e-28
2.5314802e-40
-1.519941e-28
2.533235e-28
-3.546529e-28
7.093058e-28
-2.026588e-28
1.519941e-28
0
0
-6.079764e-28
-7.1998869e-44
6.079764e-28
-2.533235e-28
-1.519941e-28
1.013294e-28
-4.559823e-28
2.7347235e-59
1.6873655e-40
2.2495976e-40
4.559823e-28
4.2245109e-52
1.013294e-28
-5.06647e-29
-1.013294e-28
1.1254863e-40
5.06647e-29
-2.026588e-28
1.013294e-28
2.848488e-55
1.013294e-28
-4.559823e-28
-3.039882e-28
2.533235e-28
9.119646e-28
-1.1278992e-40
2.533235e-28
0
1.519941e-28
-2.026588e-28
-4.559823e-28
-1.5901127e-53
-5.06647e-28
1.519941e-28
-5.06647e-29
-1.013294e-28
-5.06647e-29
5.06647e-29
-2.026588e-28
4.559823e-28
-1.6873655e-40
-1.1250543e-40
1.013294e-28
-4.053176e-28
-2.026588e-28
-2.026588e-28
-5.6288716e-41
-1.519941e-28
3.039882e-28
-3.039882e-28
-3.039882e-28
0
5.06647e-29
2.8122758e-41
5.7599095e-44
-4.559823e-28
-1.013294e-28
3.039882e-28
8.4437144e-41
5.2691398e-55
-1.2829271e-42
7.1231122e-56
3.039882e-28
2.026588e-28
-3.039882e-28
-5.6250631e-41
-1.013294e-28
5.0620965e-40
0
-3.039882e-28
-1.6882295e-40
2.2501086e-40
1.013294e-28
-1.1796295e-44
-5.6245516e-41
1.519941e-28
-1.013294e-28
1.2829271e-43
0
0
1.013294e-28
1.2520355e-52
2.8799547e-44
5.6245516e-41
1.519941e-28
1.013294e-28
0
-2.2451224e-43
2.026588e-28
1.013294e-28
-2.2498207e-40
-2.026588e-28
1.013294e-28
-1.6873655e-40
-1.6873655e-40
3.039882e-28
-2.026588e-28
-5.06647e-29
-1.2478218e-52
1.013294e-28
0
-2.026588e-28
-2.026588e-28
4.053176e-28
-5.06647e-29
5.06647e-29
8.4382674e-41
-1.0211768e-43
0
0
4.053176e-28
3.039882e-28
0
6.4146353e-43
2.5658541e-43
7.1226144e-56
-5.06647e-29
-6.4146353e-44
0
-1.013294e-28
0
0
-3.039882e-28
3.374731e-40
1.013294e-28
0
-1.519941e-28
-8.4368274e-41
2.533235e-28
0
-2.026588e-28
1.013294e-28
-2.026588e-28
-1.6871495e-40
1.519941e-28
-4.053176e-28
-3.039882e-28
1.013294e-28
1.4399774e-44
3.375163e-40
1.4399774e-44
-5.6439382e-41
1.519941e-28
-1.6873655e-40
2.026588e-28
-1.013294e-28
4.559823e-28
1.519941e-28
1.519941e-28
1.013294e-28
5.6238316e-41
-5.06647e-29
-1.013294e-28
-5.6256529e-41
-3.039882e-28
-3.374443e-40
-5.06647e-29
-5.06647e-29
2.026588e-28
-2.026588e-28
2.2495327e-40
-8.4411474e-41
5.06647e-29
1.013294e-28
1.013294e-28
3.039882e-28
0
-4.053176e-28
-6.1870068e-40
8.106352e-28
1.6873655e-40
-1.519941e-28
2.026588e-28
0
4.053176e-28
3.374299e-40
1.519941e-28
1.013294e-28
3.039882e-28
-5.6231116e-41
3.039882e-28
-1.013294e-28
-1.013294e-28
2.026588e-28
-1.013294e-28
-1.013294e-28
0
-2.026588e-28
1.7105694e-43
1.519941e-28
1.013294e-28
1.013294e-28
-1.013294e-28
5.06647e-29
-2.026588e-28
-2.533235e-28
-3.039882e-28
2.2498207e-40
2.533235e-28
1.013294e-28
-2.026588e-28
2.8122366e-41
0
0
0
4.053176e-28
3.3787245e-40
2.026588e-28
-4.74748e-55
-5.6245516e-41
1.1246223e-40
-2.2501086e-40
5.06647e-28
0
-5.06647e-28
-1.013294e-28
6.4146353e-44
1.013294e-28
2.026588e-28
0
0
1.013294e-28
1.6873655e-40
1.1249103e-40
1.013294e-28
-1.013294e-28
-4.053176e-28
0
4.053176e-28
-1.1246223e-40
-4.053176e-28
3.039882e-28
1.6877975e-40
-3.039882e-28
0
2.026588e-28
1.519941e-28
-4.053176e-28
5.06647e-29
-3.375595e-40
5.06647e-28
-2.026588e-28
-2.026588e-28
0
0
0
3.039882e-28
1.013294e-28
-1.013294e-28
0
3.039882e-28
0
1.013294e-28
-2.026588e-28
-2.026588e-28
2.533235e-28
-1.013294e-28
1.013294e-28
-1.1796295e-44
-5.06647e-29
-2.8126358e-40
2.533235e-28
-3.374731e-40
2.8799547e-44
2.026588e-28
0
-2.026588e-28
-1.013294e-28
-1.519941e-28
0
0
0
-1.519941e-28
-1.013294e-28
-1.013294e-28
1.013294e-28
1.013294e-28
-1.013294e-28
-1.519941e-28
4.053176e-28
0
-1.013294e-28
-4.053176e-28
0
0
-3.039882e-28
-7.833342e-55
1.0691059e-43
1.519941e-28
-2.026588e-28
-1.013294e-28
1.013294e-28
-1.013294e-28
-1.519941e-28
0
-3.039882e-28
-1.6869335e-40
1.013294e-28
5.06647e-29
1.519941e-28
3.039882e-28
-2.026588e-28
-2.026588e-28
7.1998869e-44
-1.519941e-28
5.06647e-28
-3.039882e-28
2.533235e-28
7.0255197e-55
1.013294e-28
-4.053176e-28
2.026588e-28
3.039882e-28
0
-1.013294e-28
-1.013294e-28
2.8122758e-41
0
-4.2764235e-44
-1.013294e-28
-3.039882e-28
2.533235e-28
6.079764e-28
6.079764e-28
-2.026588e-28
-3.039882e-28
1.519941e-28
-5.06647e-29
-2.1360014e-55
-1.013294e-28
3.039882e-28
-7.093058e-28
-3.9361782e-40
7.8044348e-52
-2.026588e-28
7.093058e-28
1.3498924e-39
-1.519941e-28
3.039882e-28
-1.519941e-28
7.1998869e-44
-1.1249103e-39
-5.06647e-29
-1.013294e-28
-2.4978484e-52
2.8115558e-41
1.013294e-28
-2.8799547e-44
1.013294e-28
-1.013294e-28
-1.823149e-59
4.4996413e-40
-3.039882e-28
1.013294e-28
-2.2498207e-40
3.039882e-28
-2.9676258e-41
1.013294e-28
5.06647e-29
9.7288635e-43
1.6873655e-40
5.06647e-28
0
0
-1.013294e-27
-2.0159683e-43
1.8239292e-27
-1.1146234e-27
1.4057779e-39
-1.7732645e-27
-5.5120606e-39
6.7890698e-27
0
5.573117e-27
-1.4490104e-26
-9.5756283e-27
2.7563831e-38
-1.6263369e-26
4.3267654e-26
-2.8524226e-26
4.1498564e-38
9.8593506e-26
0
0
-1.1039838e-25
8.0121738e-38
-1.8857401e-25
2.4592645e-25
9.6136268e-25
-1.2524314e-24
-5.4317625e-25
1.4117212e-24
-9.1672708e-25
-1.9807137e-36
-1.5420815e-24
1.1356238e-39
8.6127109e-36
-3.3435662e-24
8.6394459e-24
5.5757515e-24
0
9.2623177e-24
-1.1920796e-23
-1.5327693e-23
-1.9689366e-23
5.609984e-35
-3.5950802e-35
4.6043107e-35
1.061544e-22
-6.7839222e-23
-1.4422538e-34
2.2095595e-22
-2.0003705e-38
-1.7916158e-22
-4.555787e-22
-5.7860404e-22
7.3404861e-22
5.1661021e-34
5.8875816e-22
7.4443341e-22
-1.8803992e-21
2.3721641e-21
1.4945295e-21
-5.6429363e-21
-4.7290918e-21
2.9688659e-21
7.4462373e-21
4.6632747e-21
-5.8336079e-21
-1.4577055e-20
1.8189585e-20
3.4002545e-20
-1.4106713e-20
-1.7534508e-20
-4.3532851e-20
-2.6983605e-20
6.6812177e-20
4.1300703e-20
5.0990427e-20
-1.2573099e-19
-7.7396538e-20
1.9030012e-19
-2.3361337e-19
4.4616636e-47
-4.9810247e-35
-4.2837635e-19
5.2274893e-19
1.0609097e-30
4.2966114e-31
1.5675011e-30
1.6839911e-46
2.0727627e-18
9.2726939e-31
-1.0078347e-18
-2.4283621e-18
-2.9205939e-18
3.5065745e-18
4.6657556e-30
2.5142063e-18
1.0002188e-29
-3.5797139e-18
8.5194975e-18
0
-5.9982829e-18
7.8774198e-30
-8.3822414e-18
-1.9760048e-17
2.3244749e-17
2.7289104e-17
0
-3.7381241e-17
4.8431008e-29
5.0779209e-17
-5.899423e-17
-3.7961274e-29
3.9553042e-17
2.534517e-29
1.4940016e-32
-6.0391392e-17
6.9221572e-17
7.9156659e-17
-9.0302632e-17
1.141345e-28
-1.1667479e-16
4.4010538e-28
-1.6571226e-28
-3.3640615e-16
3.7811098e-16
4.2389353e-16
0
-5.2860775e-16
6.5273018e-28
6.5224106e-16
-7.2159629e-16
-7.9615983e-16
4.3801297e-16
9.6124858e-16
2.9207404e-28
8.155239e-32
3.4643599e-28
1.9257087e-31
7.3308046e-16
-1.5817939e-15
-1.7016429e-15
1.8252843e-15
1.0841869e-27
-2.0818918e-15
2.2136528e-15
2.3467982e-15
0
-2.6140806e-15
3.9029868e-31
-1.5964393e-27
-1.6674845e-27
3.4721253e-27
-3.2451841e-15
3.3568923e-15
-1.1448798e-43
-3.5571211e-15
5.465186e-15
3.7191866e-15
-1.8916453e-15
0
-3.8728437e-15
6.4898477e-27
-2.168288e-27
-3.8976064e-15
0
0
5.6623004e-15
1.850573e-15
-1.8057177e-15
1.75315e-15
-1.6932677e-15
1.6265825e-15
3.4492853e-27
-1.4754038e-15
-1.3924645e-15
-1.3058081e-15
1.2164109e-15
0
0
1.8841625e-15
-8.5205057e-16
-2.2931289e-15
0