/*--------------------------------*- C++ -*----------------------------------*\
  =========                 |
  \\      /  F ield         | OpenFOAM: The Open Source CFD Toolbox
   \\    /   O peration     | Website:  https://openfoam.org
    \\  /    A nd           | Version:  7
     \\/     M anipulation  |
\*---------------------------------------------------------------------------*/
FoamFile
{
    version     2.0;
    format      ascii;
    class       volScalarField;
    location    "0.00251";
    object      Uy;
}
// * * * * * * * * * * * * * * * * * * * * * * * * * * * * * * * * * * * * * //

dimensions      [0 1 -1 0 0 0 0];

internalField   nonuniform List<scalar> 
5000
(
4.4955015e-21
7.7190365e-21
0
0
-3.0573186e-21
2.3703952e-36
2.1371051e-21
0
0
-2.2567754e-21
-4.5204666e-21
2.2511055e-21
2.2500672e-21
-2.253182e-21
0
-2.2591278e-21
-1.7541966e-52
2.2589494e-21
0
2.2587604e-21
-2.2586736e-21
-2.2585816e-21
4.5169568e-21
-2.2583782e-21
-2.2582917e-21
-1.8612849e-35
2.2581329e-21
2.258058e-21
-4.5159827e-21
3.9146355e-35
-3.9466372e-35
2.2578413e-21
4.5156022e-21
-4.5155389e-21
3.9143148e-35
-1.9635654e-34
-7.8285877e-35
4.5154814e-21
-4.5154935e-21
-4.5155142e-21
4.5155496e-21
-1.552928e-34
-4.5156716e-21
2.2578736e-21
6.7737417e-21
-2.257958e-21
-2.2580028e-21
-1.5466821e-34
-4.5162323e-21
0
2.2582935e-21
3.2093808e-37
-2.2585241e-21
4.5173383e-21
-7.8966158e-35
-4.5180781e-21
2.2592515e-21
-7.8025552e-35
-2.2551792e-21
0
2.2429152e-21
7.6493533e-35
6.370495e-37
2.2441884e-21
-2.2451309e-21
7.8329839e-35
2.2403186e-21
-2.2477841e-21
-2.2514656e-21
2.2561321e-21
2.2632831e-21
-2.2603691e-21
-2.2561006e-21
4.5089599e-21
2.2532155e-21
-2.2516204e-21
0
2.2447577e-21
-3.1910356e-37
-2.2489884e-21
2.2574445e-21
-6.4406572e-37
6.4303669e-37
2.2529226e-21
2.2548495e-21
7.8869334e-35
-2.2656416e-21
0
-2.2667863e-21
-2.3519947e-34
-7.8973752e-35
2.2608746e-21
2.2709916e-21
-4.541646e-21
-1.568706e-34
2.2736175e-21
0
0
-2.2668378e-21
-1.5792376e-34
4.5542301e-21
-2.2725251e-21
-4.5586084e-21
0
2.2756487e-21
2.2825228e-21
-2.283362e-21
-2.2789727e-21
0
0
2.2783342e-21
2.2803796e-21
0
-2.2925059e-21
7.9843529e-35
2.2860668e-21
-2.2975157e-21
6.5318412e-37
-8.0036482e-35
5.6490536e-52
4.6062952e-21
-9.8365994e-37
-2.3066731e-21
0
-2.3050577e-21
2.3025508e-21
2.3036357e-21
-4.6260279e-21
-2.3140576e-21
4.6097722e-21
2.306851e-21
-2.3189414e-21
-2.3195416e-21
-2.3149045e-21
0
2.3268761e-21
2.3262554e-21
-2.3263224e-21
-8.064569e-35
2.3320114e-21
-2.332446e-21
-2.323275e-21
0
2.3386261e-21
2.3404071e-21
-2.3341443e-21
2.3427755e-21
-1.3395348e-36
-2.3578178e-21
2.3566523e-21
-2.3525393e-21
1.6347024e-34
2.3551498e-21
-2.3567072e-21
2.3469064e-21
2.3489554e-21
-2.3623765e-21
0
0
-2.367911e-21
-2.3697453e-21
2.3653513e-21
2.3736645e-21
-2.3755089e-21
-1.6404174e-34
2.3674495e-21
-2.3811284e-21
-2.3824605e-21
0
2.3734202e-21
2.3929267e-21
0
-2.3994384e-21
-2.3909255e-21
0
2.3997459e-21
4.9818067e-34
-2.4025512e-21
2.4042969e-21
2.4002861e-21
-2.4107648e-21
-1.6699216e-34
1.6639132e-34
1.0341393e-36
2.426635e-21
-2.4257505e-21
-3.3592162e-34
1.6629595e-34
-1.6693195e-34
2.4363451e-21
0
0
-2.4510088e-21
-2.4512177e-21
0
0
2.4559432e-21
-6.7654461e-52
-2.4803543e-21
0
2.490888e-21
-2.4967543e-21
-6.9341878e-34
5.0141924e-21
-2.5111979e-21
-5.2205881e-34
-3.5771967e-37
-2.5198985e-21
2.522491e-21
-3.5881933e-37
-3.4982131e-34
1.7506787e-34
-2.5319012e-21
0
2.5362509e-21
1.7566467e-34
7.0498456e-34
2.5423563e-21
0
-2.5461316e-21
-2.5481996e-21
0
0
0
2.5596829e-21
1.772214e-34
-2.559605e-21
0
0
2.5659066e-21
2.56271e-21
-2.5656093e-21
-2.5718502e-21
0
2.5696247e-21
2.568057e-21
-2.5693939e-21
-2.5689087e-21
0
2.5686215e-21
-7.1233813e-34
-1.7728539e-34
2.5543739e-21
-2.5650492e-21
-2.5696612e-21
0
2.5696876e-21
-3.5652569e-34
2.5583893e-21
3.5465687e-34
-5.1295699e-21
2.5796277e-21
-3.5806691e-34
-8.9452764e-34
-1.7887439e-34
-2.5858983e-21
2.574537e-21
2.5755804e-21
0
-2.5897349e-21
-2.5848242e-21
0
2.6002148e-21
2.5981657e-21
-5.1932701e-21
-2.5939642e-21
2.5929898e-21
2.5990273e-21
7.2452404e-34
-2.6129902e-21
2.6017406e-21
-1.8052706e-34
-2.6170961e-21
2.6181634e-21
-1.8154632e-34
1.8246029e-34
-7.4499e-37
-1.8062443e-34
2.6229317e-21
0
0
-2.6255116e-21
-2.6302869e-21
0
0
0
0
2.6314239e-21
1.8054755e-34
-5.2415369e-21
1.1233301e-36
2.6399021e-21
2.6363353e-21
-3.6534341e-34
-3.6444762e-34
-3.7521675e-37
-2.6410929e-21
-2.6350098e-21
-2.6429898e-21
5.301039e-21
7.957522e-21
-2.6515865e-21
-5.2924401e-21
0
2.6420592e-21
2.6536359e-21
-2.6548138e-21
7.528902e-37
-1.1328448e-36
7.5550839e-37
2.6519855e-21
2.6598126e-21
-2.6604173e-21
-5.2950925e-21
2.6483362e-21
-6.9055267e-52
2.665242e-21
7.359133e-34
-5.3077451e-21
0
0
5.3350911e-21
-1.480618e-33
-5.3207125e-21
0
2.6617325e-21
2.6620984e-21
-2.6553722e-21
3.7849762e-37
-3.7088384e-34
3.8074148e-37
2.6867071e-21
-2.6811481e-21
-2.6783075e-21
0
2.6855267e-21
-3.7535948e-34
-2.715099e-21
5.4275287e-21
-7.5272977e-34
-2.7195673e-21
-7.5686942e-34
-5.4572837e-21
5.4595842e-21
2.7303607e-21
-2.7306912e-21
-3.8806105e-37
-2.7304601e-21
0
0
2.7284738e-21
-3.7830417e-34
-5.4530334e-21
3.8730908e-37
8.1730975e-21
-2.7233044e-21
-2.7222965e-21
5.4427266e-21
-2.7205295e-21
2.7198113e-21
5.4384394e-21
-2.7187651e-21
-2.7184502e-21
-2.7182748e-21
2.7182358e-21
-1.5293395e-53
-2.7185488e-21
2.7188872e-21
-2.7193349e-21
2.7198839e-21
7.538893e-34
7.7342592e-37
2.7220524e-21
-5.445846e-21
2.7238565e-21
7.566357e-34
-7.5615023e-34
-2.7269787e-21
-5.4562258e-21
8.1878625e-21
7.5742978e-34
-1.5155532e-33
7.5735635e-34
-5.4687113e-21
5.4714148e-21
-7.5925795e-34
-5.4770121e-21
0
0
2.7429281e-21
-3.8065092e-34
-2.7460184e-21
-2.7476029e-21
2.7492108e-21
8.2525244e-21
-2.7524928e-21
-2.7541617e-21
-7.8325815e-37
-2.7575408e-21
0
5.5219113e-21
5.5253359e-21
-2.7643814e-21
-5.5321854e-21
-2.7678012e-21
5.5390172e-21
5.5424318e-21
-5.545857e-21
-5.549302e-21
0
5.5563362e-21
-2.7799931e-21
-5.5637747e-21
2.7838831e-21
2.786016e-21
-3.9624606e-37
3.8748826e-34
2.7937773e-21
-2.7970638e-21
-2.8008448e-21
2.8052074e-21
-3.8977078e-34
-4.0015929e-37
-3.9142284e-34
-2.828843e-21
2.835842e-21
-1.1841413e-33
-3.9569472e-34
-7.9292385e-34
-2.8639383e-21
2.8709233e-21
-3.9958256e-34
-7.9992975e-34
-4.1103747e-37
-5.7991121e-21
-2.9063603e-21
2.9127073e-21
5.8378873e-21
-4.0618809e-34
-5.8650093e-21
-2.9391398e-21
5.890111e-21
2.9502819e-21
-2.9558138e-21
-2.9622814e-21
-8.2391776e-34
2.9739369e-21
0
0
2.9918207e-21
0
-3.006156e-21
3.0119292e-21
4.2887565e-37
-8.3952491e-34
0
-3.0388209e-21
3.0446236e-21
3.0502068e-21
-6.112381e-21
-3.0623067e-21
3.0680299e-21
0
0
-3.0830411e-21
8.5783957e-34
3.0923087e-21
0
0
-3.106768e-21
1.2966135e-33
3.1171711e-21
0
0
0
0
0
0
0
0
6.3472086e-21
1.7659628e-33
-3.1894378e-21
3.1970777e-21
-3.2046094e-21
3.212342e-21
-8.9508534e-34
-3.2279653e-21
-8.9852075e-34
-3.2435581e-21
0
0
3.2664896e-21
9.0910906e-34
-3.2811548e-21
0
0
0
0
0
0
0
6.6950151e-21
-2.7912225e-33
-6.7090973e-21
3.3598257e-21
4.7904929e-37
3.3828337e-21
-1.8794471e-33
-6.7857846e-21
-3.3993535e-21
6.2714453e-52
1.0264947e-20
0
-6.8683088e-21
0
0
6.9259797e-21
-9.6293238e-34
-1.0432404e-20
3.4849995e-21
3.4952502e-21
-3.5062958e-21
3.5151391e-21
-3.5220148e-21
-9.7915666e-34
3.5390713e-21
-3.5484642e-21
0
-3.5669835e-21
3.5777351e-21
7.1767942e-21
-3.5967759e-21
-3.6041176e-21
-3.6126812e-21
-3.6221922e-21
7.2631507e-21
3.6405046e-21
-3.6493064e-21
0
3.6683739e-21
-3.6817739e-21
-3.6969946e-21
1.1124368e-20
1.0556169e-36
-7.4415605e-21
3.7309317e-21
5.1960573e-34
3.7539413e-21
-1.0702904e-36
-7.5577592e-21
3.7920353e-21
0
-1.0584304e-33
-5.430624e-37
-3.8313366e-21
3.8404629e-21
-1.0687634e-33
-5.3489694e-34
-5.5049649e-37
-3.8991135e-21
3.913579e-21
-8.8952381e-52
-1.0927315e-33
-5.5832201e-37
-7.8377772e-21
-5.44059e-34
3.9335704e-21
0
0
-3.966578e-21
-1.6551161e-33
3.992458e-21
-4.0059488e-21
5.5722463e-34
-1.1402493e-51
-5.5886305e-34
4.0435131e-21
4.0704985e-21
5.6597187e-34
-4.0798757e-21
0
0
4.1257076e-21
-4.1141571e-21
3.4110232e-33
4.1094863e-21
-4.1529788e-21
0
4.1739631e-21
4.1725849e-21
-4.1821895e-21
-4.1841795e-21
0
4.2262031e-21
4.2366597e-21
-8.4593153e-21
-4.2211391e-21
4.2398299e-21
4.2628541e-21
5.8953764e-34
4.2403989e-21
1.1842853e-33
-8.5668742e-21
0
0
0
4.2865168e-21
4.3213583e-21
0
-4.3392352e-21
-6.0324876e-34
4.37156e-21
0
0
-4.3388554e-21
-6.0309709e-34
6.0542877e-34
-4.4042286e-21
4.4208751e-21
-1.8392367e-33
-4.4374954e-21
0
-4.4418008e-21
-6.1591625e-34
4.4689606e-21
-4.5077232e-21
4.5158114e-21
4.4963999e-21
-4.4753551e-21
0
4.4908488e-21
4.5296252e-21
-4.5532296e-21
-4.5508533e-21
0
-4.5751701e-21
4.5654692e-21
4.5592649e-21
-4.5854863e-21
-9.2272059e-21
2.5707062e-33
1.391191e-20
1.3194203e-51
-4.617288e-21
-9.291437e-21
2.5928382e-33
9.3365773e-21
-4.6704249e-21
4.6859896e-21
-4.6774556e-21
-4.6593742e-21
9.3414141e-21
0
0
-9.4583203e-21
1.0766571e-51
9.4606292e-21
0
0
-9.504807e-21
4.9594564e-51
9.5517111e-21
0
0
-9.5652434e-21
-4.8023671e-21
9.6450617e-21
4.8294389e-21
0
-9.6632964e-21
2.6919063e-33
9.7481117e-21
-4.8932438e-21
0
4.8911697e-21
-4.9099576e-21
7.0403521e-37
4.9920979e-21
-4.9913423e-21
4.9684624e-21
4.9565028e-21
-4.9609648e-21
-4.9702624e-21
1.3843402e-33
5.0122607e-21
-5.0328609e-21
-1.3973611e-33
5.0278978e-21
-5.0343807e-21
5.0455748e-21
5.0569544e-21
-5.0725396e-21
-5.0931812e-21
1.4184842e-33
5.1128373e-21
-5.1168242e-21
7.2849549e-37
5.1376466e-21
-5.1515472e-21
5.1738231e-21
5.1974795e-21
-5.2069883e-21
-1.0412375e-20
2.8948835e-33
1.044971e-20
-5.2510017e-21
7.4933497e-37
1.0552972e-20
1.4992621e-36
-5.2850563e-21
0
5.3334779e-21
0
-5.3471281e-21
0
0
0
-5.4163988e-21
-1.1431386e-52
5.4255347e-21
0
5.4499577e-21
-1.5200272e-33
-5.4957501e-21
0
0
0
-5.5428881e-21
1.5446142e-33
5.5757064e-21
0
5.5996422e-21
1.5596243e-33
-5.6430708e-21
0
5.6715174e-21
-5.6817163e-21
3.1652843e-33
5.7131869e-21
-5.7296719e-21
0
-5.7701433e-21
-1.6086363e-33
5.8087382e-21
0
5.8338083e-21
-5.85306e-21
-3.264555e-33
5.9020915e-21
-3.2847002e-33
-8.4224623e-37
1.6508954e-33
-8.4738064e-37
-5.9893981e-21
0
6.0298054e-21
-1.6766693e-33
-1.6811821e-33
-1.1147928e-51
-1.6950911e-33
0
-1.2293732e-20
-1.7107859e-33
6.1789645e-21
-6.2010886e-21
1.7283415e-33
6.2530491e-21
6.2718127e-21
1.7460889e-33
-1.7516179e-33
6.3306984e-21
-6.3537915e-21
-6.3759659e-21
0
-6.422161e-21
1.7907524e-33
6.4736278e-21
0
0
0
-1.3135261e-20
7.3270618e-33
1.3242615e-20
0
0
0
0
0
0
0
-1.3644148e-20
3.8052852e-33
1.3753964e-20
6.9083048e-21
-6.9387391e-21
-6.9648956e-21
1.9420224e-33
3.8935141e-33
7.0487312e-21
-7.0820622e-21
7.1139301e-21
7.141547e-21
-7.1686864e-21
-7.1987036e-21
4.0143222e-33
7.267554e-21
7.3008925e-21
-2.0333732e-33
-7.3596601e-21
-7.3919345e-21
7.4270707e-21
7.4640707e-21
-7.4992668e-21
7.5312635e-21
0
-7.5979476e-21
-7.6354028e-21
2.1293083e-33
7.7152933e-21
-7.7496041e-21
7.7833157e-21
7.8199784e-21
-7.8583683e-21
7.8987456e-21
2.2051387e-33
-7.9822444e-21
-8.0198721e-21
-1.1450816e-36
1.61967e-20
4.5195819e-33
-8.1823547e-21
-8.2253962e-21
0
8.3149722e-21
0
0
0
8.4942885e-21
8.5428786e-21
-8.5908415e-21
-8.6372458e-21
0
8.7327487e-21
-2.4403324e-33
-8.836064e-21
0
0
8.9874057e-21
-5.0179376e-33
-9.0950901e-21
0
0
9.259524e-21
-5.1702149e-33
-9.3713718e-21
0
9.4909354e-21
-2.6517991e-33
2.6665607e-33
-2.6843963e-33
-9.7284509e-21
0
-9.8570568e-21
5.5056569e-33
9.9841189e-21
0
1.0113344e-20
-1.0180446e-20
-1.0249514e-20
2.0639406e-20
2.8877954e-33
-2.0915883e-20
2.9234189e-33
1.0599775e-20
0
0
1.0823986e-20
-3.0249704e-33
-1.0974693e-20
0
1.1129482e-20
-1.1209382e-20
-1.1291212e-20
1.1373577e-20
0
-1.1537051e-20
1.1620456e-20
6.4973833e-33
-6.5453833e-33
1.1879983e-20
-9.9670734e-33
1.2057376e-20
-1.2146417e-20
3.3962264e-33
-6.8471725e-33
-2.4845655e-20
3.4722612e-33
1.2612737e-20
0
0
0
-2.6008234e-20
-1.3104457e-20
2.6413142e-20
1.3310338e-20
0
0
1.3625091e-20
-5.1680067e-51
-1.3839981e-20
0
-2.8123746e-20
-1.4173727e-20
2.8571283e-20
1.4398786e-20
0
-2.9259779e-20
-4.191569e-36
4.460112e-20
-4.157315e-33
-3.0214515e-20
1.5228562e-20
8.7261865e-36
-1.54755e-20
4.3344242e-33
8.7262158e-33
1.585682e-20
0
1.6114652e-20
-9.0198514e-33
-3.2756486e-20
1.6512535e-20
-2.7717843e-32
-1.6783743e-20
3.3840467e-20
-2.4240888e-36
-1.7197419e-20
0
0
0
-1.7768162e-20
1.7912975e-20
3.611867e-20
-1.8207381e-20
-5.0973663e-33
-5.1339208e-33
-1.8658696e-20
0
1.8963966e-20
-2.7169512e-36
-3.855065e-20
1.9433128e-20
1.0869338e-32
-1.9751036e-20
-1.9911366e-20
1.115351e-32
4.0472879e-20
0
2.0567188e-20
2.0733873e-20
0
-2.1070161e-20
-2.1240443e-20
2.1412239e-20
0
-2.1759181e-20
0
0
2.228728e-20
-1.870875e-32
-2.2646056e-20
0
0
2.319208e-20
2.3376563e-20
-2.3562407e-20
-2.374942e-20
2.3937436e-20
2.4126495e-20
-4.8633554e-20
-2.4508391e-20
6.8625578e-33
2.4895216e-20
-1.391986e-32
-1.4028731e-32
2.5484063e-20
-2.5682917e-20
2.588282e-20
-2.6083664e-20
-2.2412467e-35
2.6488992e-20
-5.338778e-20
-2.6900086e-20
-2.7107251e-20
5.4630639e-20
5.5048939e-20
-2.7734907e-20
2.7946759e-20
-2.8160001e-20
1.5758044e-32
5.7179944e-20
-2.8806573e-20
8.0553636e-33
-8.1244753e-33
-2.9463812e-20
0
0
3.0132641e-20
3.0357983e-20
0
-3.0812217e-20
-3.1041302e-20
0
-3.1503588e-20
8.8126363e-33
3.1970894e-20
-3.2206322e-20
8.9995612e-33
3.2681124e-20
0
3.3161665e-20
1.8546464e-32
-3.3647386e-20
3.3892078e-20
-9.4649253e-33
-3.4385663e-20
-3.4634711e-20
-9.6819708e-33
3.5137072e-20
0
-3.5644826e-20
3.5900815e-20
-1.0276802e-35
2.0224687e-32
3.6677682e-20
-3.6939589e-20
0
-7.4935757e-20
8.3781699e-32
3.8002373e-20
2.1243855e-32
7.7086274e-20
-7.7631718e-20
-7.8180357e-20
7.8732305e-20
7.9287653e-20
3.9923203e-20
0
-4.0486932e-20
-8.1542592e-20
5.8346123e-36
-4.1345432e-20
4.1635302e-20
4.1926989e-20
-4.2220438e-20
8.5031337e-20
-8.5625553e-20
-7.1803348e-32
8.682603e-20
-8.7432377e-20
2.4435192e-32
-4.4328471e-20
4.4637617e-20
4.4948876e-20
-4.5262339e-20
-1.2643165e-32
-9.1792057e-20
9.2432492e-20
9.3077436e-20
-9.3727e-20
-1.3097206e-32
-4.7520334e-20
2.6575377e-32
4.818719e-20
1.346736e-32
-6.5677244e-50
4.9206504e-20
9.910334e-20
-4.9899745e-20
1.5275913e-49
-5.0604807e-20
-8.4891917e-32
5.1321653e-20
-1.0336911e-19
2.8892036e-32
1.0483988e-19
-1.8033216e-50
-5.3169031e-20
0
0
-5.4319609e-20
5.4710485e-20
1.1021032e-19
0
0
0
-5.6725386e-20
-5.7141512e-20
0
5.7987488e-20
-5.8417571e-20
-9.8019816e-32
1.1858598e-19
0
0
0
-6.1110177e-20
-6.1578989e-20
6.205397e-20
-6.2535423e-20
-3.5000834e-32
1.2703789e-19
0
0
-1.3009707e-19
1.8637132e-35
6.6106764e-20
-6.6648516e-20
6.7199212e-20
-6.7759123e-20
3.7946902e-32
1.3781481e-19
0
0
-7.0705685e-20
-7.1327202e-20
0
0
7.3264325e-20
7.3935454e-20
0
-7.5318575e-20
-7.6031766e-20
7.6760229e-20
-7.7504569e-20
-7.8265342e-20
7.9043093e-20
7.983842e-20
-4.4790918e-32
-8.148464e-20
8.2337112e-20
2.3094004e-32
-8.4104819e-20
0
-8.5961448e-20
4.8262448e-32
8.7913884e-20
-8.8928521e-20
4.9953065e-32
9.103984e-20
0
-9.3267374e-20
2.6220644e-32
1.3588466e-35
-9.6847158e-20
9.8109337e-20
9.9408129e-20
0
-2.0424167e-19
1.1500154e-31
1.0499743e-19
1.5134776e-35
2.1610345e-19
-2.1929939e-19
-2.2259424e-19
2.2599172e-19
1.1474796e-19
0
-2.3684205e-19
2.0036993e-31
2.4466762e-19
0
-2.5300804e-19
-7.1470264e-32
1.309514e-19
3.7010816e-32
2.7139549e-19
-2.7638002e-19
-3.5158984e-31
2.8685412e-19
-2.9235605e-19
8.2697181e-32
3.0392302e-19
1.5500103e-19
-3.1628758e-19
-1.6139346e-19
3.2950772e-19
-3.3645793e-19
-4.2916212e-31
3.5108001e-19
-3.5876894e-19
5.0915627e-32
-1.8747336e-19
2.1273728e-31
5.8838123e-19
-1.113917e-31
-4.1077197e-19
2.1025545e-19
4.305843e-19
-2.2050179e-19
1.2541837e-31
-2.3146363e-19
-2.6349401e-31
2.4318977e-19
-4.9871086e-19
2.1296223e-31
-2.9125894e-31
1.4931938e-31
2.7619594e-19
0
2.9102413e-19
2.9881708e-19
0
0
0
0
0
-3.5140819e-19
-3.612286e-19
0
3.8186032e-19
-3.9269172e-19
-6.7278272e-31
8.3087487e-19
0
0
0
-4.6557318e-19
-4.7914286e-19
4.93151e-19
5.0761024e-19
-1.0450674e-18
-8.9624267e-31
1.1076544e-18
0
-1.1742835e-18
-1.0071275e-30
6.2259102e-19
-6.4115341e-19
6.6029502e-19
-6.8003183e-19
-3.887641e-31
1.4427115e-18
0
0
-7.882169e-19
-8.1187338e-19
0
-8.613497e-19
-2.5215941e-34
-9.1383601e-19
9.4125602e-19
2.9084606e-18
0
2.0569254e-18
2.1184989e-18
0
-3.3705842e-18
-2.3141278e-18
2.3831211e-18
-1.2270407e-18
-1.2635276e-18
3.9031345e-18
1.3396165e-18
1.9600564e-34
1.4200215e-18
-1.4619049e-18
-1.5049426e-18
-1.5491603e-18
2.2165469e-48
-1.6412406e-18
-1.6891568e-18
1.7383602e-18
0
3.6814803e-18
3.7879465e-18
0
-2.0046688e-18
-4.1243793e-18
-1.1771251e-30
-2.1817267e-18
-4.4876072e-18
4.6149213e-18
4.745458e-18
2.43964e-18
2.5082254e-18
0
-2.6505473e-18
-8.1730467e-18
2.7999549e-18
-4.0757216e-46
-8.8701421e-18
6.0758689e-18
3.121094e-18
3.2062267e-18
6.5867344e-18
-6.7651004e-18
-3.4738108e-18
3.5671843e-18
3.6627061e-18
3.7604117e-18
-1.158101e-17
-3.9625172e-18
1.2200967e-17
4.1737884e-18
-4.2829518e-18
-8.7890315e-18
4.5085167e-18
-4.6249913e-18
7.8984534e-30
-8.1035628e-30
-1.4968871e-17
5.11636e-18
5.245754e-18
1.0755685e-17
5.5126622e-18
-1.13005e-17
-1.6457995e-33
-5.9338758e-18
6.0799875e-18
1.8687042e-17
-1.9142973e-17
-6.5359555e-18
2.0081829e-17
0
-2.1057392e-17
-7.1864023e-18
2.2070519e-17
-7.5304775e-18
-1.5414701e-17
-4.3781583e-30
8.9588234e-30
8.2577251e-18
0
1.7282884e-17
1.767688e-17
-9.0389072e-18
-9.2428758e-18
-1.8900754e-17
9.6614425e-18
9.8761025e-18
-2.0188774e-17
0
2.1083893e-17
2.1542558e-17
-1.1004351e-17
-2.2482376e-17
6.3732818e-30
1.1726268e-17
-2.3949122e-17
1.2226722e-17
-4.1573336e-29
-2.5485492e-17
1.3006653e-17
0
2.7092736e-17
0
-3.131492e-29
-1.438599e-17
-2.9347904e-17
4.4897959e-17
-4.3377523e-33
-3.1124671e-17
0
3.2350307e-17
1.648777e-17
-3.3609083e-17
1.9014315e-29
1.7450585e-17
-3.5559749e-17
1.8113354e-17
-3.0719924e-29
-3.7585806e-17
1.9138982e-17
-1.9489269e-17
3.9687532e-17
6.060742e-17
0
-6.2797557e-17
-4.2607707e-17
6.5038175e-17
4.4118259e-17
-2.2443061e-17
-4.5662358e-17
2.3223476e-17
2.3619943e-17
-4.8041139e-17
2.4425345e-17
4.9668514e-17
-2.5247292e-17
3.6471354e-33
-5.2171337e-17
-5.3021956e-17
8.0821033e-17
-2.7373749e-17
-4.6319844e-29
8.4757767e-17
0
-8.7441965e-17
-5.9201174e-17
3.0057752e-17
3.0518788e-17
3.0983668e-17
0
3.1924842e-17
-1.7985057e-29
-6.5762047e-17
1.8515181e-29
3.3851953e-17
0
3.4837348e-17
-7.0670755e-17
-1.0751073e-16
7.2683819e-17
1.10551e-16
3.7362138e-17
-3.7877284e-17
-7.6791454e-17
3.8917422e-17
-3.9442326e-17
-3.9970392e-17
8.1003146e-17
-8.2071645e-17
-4.1573092e-17
1.2633999e-16
8.5312982e-17
-4.320252e-17
-1.3125411e-16
9.8366089e-29
-9.9596868e-29
-4.5414303e-17
-5.1038014e-29
-4.6536046e-17
4.710069e-17
4.7667775e-17
4.8237244e-17
-4.8809042e-17
-4.938311e-17
1.4987817e-16
-5.0537823e-17
-1.022367e-16
1.5510275e-16
1.4860421e-32
-5.2871916e-17
1.0692046e-16
5.4050342e-17
0
-5.5235705e-17
-5.5830837e-17
-1.1285504e-16
5.7025691e-17
-1.9191848e-28
-1.7467876e-16
5.8828518e-17
5.9432023e-17
6.0036707e-17
-6.0642506e-17
-6.1249358e-17
1.855716e-16
-6.2465968e-17
-1.261512e-16
-1.0606987e-28
-6.4297215e-17
1.2981814e-16
1.9656462e-16
3.6700308e-29
-3.7050253e-29
-9.5727186e-33
-6.7976331e-17
-1.371819e-16
-6.9205814e-17
2.0946259e-16
-7.8194702e-29
-1.4210254e-16
0
0
7.2896761e-17
-4.0804554e-29
4.1135203e-29
7.4740681e-17
-1.507094e-16
-7.5968311e-17
-8.4995292e-29
7.7194087e-17
2.3341841e-16
7.8417556e-17
0
0
0
-2.4256742e-16
-1.6292649e-16
2.4620918e-16
-9.1805534e-29
-1.6655923e-16
0
0
1.7017199e-16
-1.9024823e-28
-9.5763866e-29
1.7376208e-16
-8.7476644e-17
-1.7614159e-16
-1.7732691e-16
8.9254572e-17
2.6953231e-16
9.0432001e-17
0
0
0
-2.7829927e-16
-1.8669106e-16
2.8176825e-16
-2.098144e-28
-9.5071391e-17
1.359165e-32
-9.6212037e-17
1.9355854e-16
-1.0806707e-28
-9.7907367e-17
1.9693633e-16
0
-5.5290331e-29
-2.0027429e-16
-2.0137777e-16
3.0371485e-16
2.0357062e-16
-1.0232993e-16
-5.7087222e-29
1.0341184e-16
-3.1184722e-16
-2.0896757e-16
1.0501595e-16
1.0554555e-16
-1.0607255e-16
-1.0659692e-16
1.0711865e-16
1.0763771e-16
-6.0033733e-29
6.0303405e-29
1.0917864e-16
0
1.1019217e-16
-2.213895e-16
-3.3358353e-16
2.2338286e-16
2.2437099e-16
1.1267669e-16
-1.2561426e-28
-2.2730078e-16
1.1413287e-16
-1.146124e-16
-1.1508898e-16
2.311252e-16
-2.3206648e-16
-1.1650088e-16
1.1696552e-16
2.3485428e-16
1.1788573e-16
-2.3668255e-16
6.5905805e-29
-1.192432e-16
-1.1968957e-16
3.6039855e-16
-1.2057304e-16
-1.2101013e-16
3.6433235e-16
-1.7319478e-32
-3.6690824e-16
-1.2272737e-16
3.6944661e-16
-1.2356723e-16
2.222626e-45
-2.0710984e-28
-2.4960682e-16
2.5041833e-16
2.5122351e-16
-1.2601118e-16
1.4033147e-28
2.5360107e-16
-1.2719045e-16
-3.8273157e-16
-1.2796076e-16
1.2834115e-16
0
1.290924e-16
2.589265e-16
-1.8450083e-32
-3.9058624e-16
-1.3055673e-16
2.6182973e-16
-1.8654564e-32
-2.6324323e-16
2.6394045e-16
-2.2037335e-28
-2.6531586e-16
3.989911e-16
2.6666593e-16
0
0
-1.3432181e-16
-4.0393534e-16
-1.3496527e-16
4.0584684e-16
-1.5053233e-28
-2.7181375e-16
2.7242894e-16
2.7303787e-16
-1.3682028e-16
-2.7423701e-16
1.3741362e-16
1.3770562e-16
-4.1398354e-16
-1.3828031e-16
-2.307784e-28
7.7028754e-29
1.3911918e-16
-1.3939264e-16
2.7932606e-16
4.1979107e-16
0
-4.2136756e-16
-2.8142806e-16
4.2290751e-16
-4.0137501e-32
-1.4147035e-16
2.8343283e-16
-1.4195947e-16
-1.4219952e-16
-1.5812624e-28
1.4267064e-16
2.8580343e-16
-1.4312981e-16
-2.8670989e-16
-2.8715422e-16
1.5967664e-28
1.440126e-16
-1.4422592e-16
2.8887264e-16
4.3393136e-16
0
-4.3514993e-16
-2.9049743e-16
4.3633366e-16
-1.6172115e-28
-1.4582757e-16
1.4601477e-16
1.461991e-16
-8.1210735e-29
-2.9311838e-16
8.1449053e-29
2.9381579e-16
-1.6325803e-28
-1.6344372e-28
-2.9481952e-16
-4.4271428e-16
2.9546058e-16
-1.6421836e-28
-4.929974e-28
1.4819014e-16
1.4833787e-16
2.9696568e-16
-4.4587516e-16
-1.4876452e-16
2.9780246e-16
-2.9807042e-16
-8.4791313e-32
4.4788495e-16
1.494208e-16
-1.495439e-16
-4.4899292e-16
4.9888495e-28
2.9979405e-16
1.5000935e-16
-3.0023802e-16
-4.5067798e-16
4.5099095e-16
1.5043199e-16
1.6706951e-28
1.5062737e-16
-3.0144221e-16
8.3712233e-29
-1.5090067e-16
1.5098652e-16
-5.0321705e-28
-4.5345116e-16
4.5368523e-16
4.5391152e-16
0
0
0
-1.5157967e-16
-4.5492656e-16
-1.5170214e-16
-1.6847614e-28
-1.5181437e-16
4.5559996e-16
1.5191639e-16
-1.5196359e-16
-1.5200824e-16
-1.5205037e-16
3.0417993e-16
-1.5212704e-16
1.521616e-16
-5.0687424e-28
-3.0444636e-16
4.5675063e-16
3.0454946e-16
0
-3.0463256e-16
-1.6911314e-28
1.5234788e-16
-4.5707985e-16
-1.5236954e-16
1.5237665e-16
0
0
1.523828e-16
3.0475965e-16
-3.3831746e-28
-3.04733e-16
-1.5235615e-16
1.5234335e-16
-1.523281e-16
1.5231039e-16
3.9496098e-48
-2.5360362e-28
4.5672784e-16
0
0
-3.0430576e-16
-3.042362e-16
-1.5208089e-16
1.6876728e-28
4.5599753e-16
-1.6873598e-28
-3.0381553e-16
0
3.0361333e-16
1.5175248e-16
-3.0339176e-16
1.5163686e-16
1.5157542e-16
-4.5453472e-16
1.5144531e-16
-5.0415319e-28
-3.0261108e-16
4.5369611e-16
3.0231225e-16
0
0
0
-4.5248511e-16
-3.0148082e-16
4.5195012e-16
3.0111452e-16
0
-3.0072897e-16
1.6681642e-28
1.5016208e-16
-3.0011454e-16
1.4995004e-16
-1.4984041e-16
-1.4972837e-16
4.4884178e-16
-2.9899414e-16
-2.9875562e-16
1.4925614e-16
-1.4913205e-16
2.9801111e-16
4.4662995e-16
0
-4.458348e-16
-2.9695092e-16
1.483369e-16
1.4819594e-16
-1.6436083e-28
1.4790675e-16
-4.9218724e-28
-1.4760789e-16
-8.1869589e-29
-2.6477632e-47
1.4714146e-16
0
1.468184e-16
-2.9330646e-16
-4.3945691e-16
4.3894685e-16
4.3842952e-16
0
-2.91582e-16
-2.9122254e-16
2.908582e-16
-1.452445e-16
-1.4505746e-16
4.3460398e-16
-2.8935218e-16
-2.8896349e-16
1.4428497e-16
2.8817149e-16
1.4388408e-16
-4.310399e-16
-1.4347341e-16
-2.3856791e-28
2.8610594e-16
8.1194618e-32
-4.2786824e-16
2.8480791e-16
4.2654815e-16
1.4195902e-16
-4.2519863e-16
-2.8300856e-16
4.2381969e-16
-3.1319114e-28
-2.8160752e-16
-1.4056534e-16
7.7890738e-29
2.8016224e-16
-1.5523846e-28
1.3958707e-16
1.3933635e-16
-4.1724952e-16
-1.3882754e-16
-1.5383313e-28
2.7661774e-16
-4.5975558e-28
-4.1334105e-16
2.750248e-16
-1.5243747e-28
-1.5217331e-28
-3.0354056e-28
-1.3641596e-16
4.0840709e-16
-1.3585297e-16
-2.2571273e-28
-4.5054451e-28
-4.0497007e-16
1.3469745e-16
2.6880485e-16
-1.4887686e-28
1.33805e-16
1.335026e-16
-2.6639549e-16
-2.6578089e-16
1.4716587e-28
3.9680545e-16
-1.464513e-28
-1.3163673e-16
2.6263439e-16
-1.3099521e-16
-1.3067079e-16
7.2313743e-29
-7.2168007e-29
1.2968292e-16
-2.5869754e-16
1.290122e-16
-4.2861358e-28
-4.2740338e-28
3.839639e-16
-2.5528345e-16
3.6178869e-32
2.5388407e-16
-1.2658859e-16
-3.7869826e-16
-1.2587453e-16
3.7654176e-16
-1.3893655e-28
-1.2478557e-16
2.4883567e-16
-2.4809548e-16
-6.1794813e-28
1.233005e-16
-1.2292336e-16
1.2254388e-16
-2.4432414e-16
1.2177794e-16
3.6417446e-16
0
0
-2.4043666e-16
-3.4055658e-32
2.3884957e-16
-1.1902461e-16
-3.5586651e-16
-1.1821749e-16
3.5343169e-16
3.3367488e-32
1.2987672e-28
2.3315291e-16
-3.4848201e-16
-5.7824682e-28
1.1532255e-16
-1.1490024e-16
-1.1447577e-16
1.2667673e-28
1.1362042e-16
-2.2637913e-16
2.255132e-16
-3.7408196e-28
-2.2376883e-16
3.3433567e-16
2.2200795e-16
-1.1056069e-16
-3.3034617e-16
-1.0966808e-16
1.0921878e-16
0
-1.0831427e-16
1.0785908e-16
3.2220593e-16
5.9361467e-29
-2.1296409e-16
1.0601926e-16
1.0555461e-16
-2.1017626e-16
1.0461982e-16
-1.0414971e-16
-2.0735564e-16
3.0961249e-16
-3.4213363e-28
2.2705879e-28
2.0354563e-16
-2.0258461e-16
-1.0081013e-16
-1.0032632e-16
-1.1092369e-28
9.9353864e-17
-1.9773053e-16
1.9675023e-16
2.9365031e-16
0
-9.6895586e-17
5.3509029e-29
2.7256964e-32
-2.8620889e-16
-9.4902623e-17
2.8320278e-16
-9.3897901e-17
-2.586226e-45
2.786639e-16
-9.238111e-17
-2.7561909e-16
-9.1363753e-17
1.8170662e-16
-9.0341723e-17
8.9829028e-17
-2.9746051e-28
-1.7760085e-16
2.6485371e-16
9.7485395e-29
-3.874922e-28
1.7346231e-16
-1.7242301e-16
-9.5130016e-29
8.5169625e-17
-1.6929491e-16
-8.4124501e-17
0
0
1.6510261e-16
-1.821217e-28
-4.6326946e-32
-8.9891555e-29
-8.0444819e-17
-7.9916827e-17
7.9388357e-17
7.8859444e-17
-1.5666025e-16
1.5560086e-16
-8.5781883e-29
-1.5348012e-16
1.524189e-16
2.5204426e-28
-8.3425223e-29
7.4616374e-17
-1.4817011e-16
7.3553651e-17
-1.6213147e-28
-1.4498145e-16
0
1.4285577e-16
7.0896597e-17
-1.4073089e-16
-6.9834469e-17
6.9303702e-17
-1.1454257e-28
-6.8242949e-17
0
0
1.3330871e-16
1.3225131e-16
0
-1.3013945e-16
-6.454257e-17
6.4016009e-17
-6.3490082e-17
6.2964827e-17
0
-1.2383297e-16
0
0
6.0349958e-17
-6.6419877e-29
-5.9310055e-17
0
5.827407e-17
3.2059879e-29
-5.72423e-17
0
1.124301e-16
1.1140644e-16
-5.5192639e-17
-6.0699045e-29
5.4175356e-17
-1.0733746e-16
-1.0632699e-16
1.0531937e-16
1.482401e-32
1.1470785e-28
1.4539758e-32
-1.0131902e-16
5.0163407e-17
-5.5140082e-29
4.9176173e-17
-4.8685114e-17
-1.4458743e-16
1.4312487e-16
4.7222596e-17
-4.6738755e-17
-5.1345506e-29
-4.5776767e-17
9.0597371e-17
8.9645184e-17
-8.8697041e-17
-1.4611629e-28
-4.3406572e-17
-4.2938752e-17
8.4946151e-17
-4.2009571e-17
4.6118988e-29
-2.2819307e-29
4.0632399e-17
8.0355785e-17
-7.9451416e-17
-7.8551744e-17
0
3.8383355e-17
4.2119971e-29
-7.50011e-17
-4.1145399e-29
1.0988299e-16
7.2390004e-17
0
-7.0674747e-17
-7.7506328e-29
-3.449015e-17
-3.4070495e-17
1.0096051e-16
-1.8445558e-29
-6.5655205e-17
3.2418733e-17
6.4025226e-17
-3.160926e-17
-6.2417384e-17
-3.0810925e-17
0
6.0047717e-17
-2.9634591e-17
-8.7744568e-17
2.886467e-17
2.8484049e-17
5.6212675e-17
2.7731547e-17
-5.4719379e-17
-2.6990776e-17
-2.6624818e-17
2.915462e-29
2.5901817e-17
2.5544795e-17
5.0381543e-17
2.4839752e-17
0
0
0
-4.6931701e-17
-4.6259908e-17
4.5594203e-17
2.4942113e-29
2.4579365e-29
-2.4213804e-29
-4.7734178e-29
4.2357186e-17
0
-4.1105164e-17
-2.0244168e-17
1.9938813e-17
-1.9636516e-17
-1.9337276e-17
0
0
3.6915732e-17
-6.0517134e-29
-3.9714194e-29
3.5211732e-17
-3.4655869e-17
-3.4106054e-17
0
3.3024529e-17
-1.8031351e-29
-3.1967053e-17
3.1447291e-17
1.7174832e-29
-3.0425625e-17
0
2.9427653e-17
1.4468753e-17
-2.8453222e-17
1.3987387e-17
3.053937e-29
-2.703529e-17
2.6574204e-17
2.611886e-17
0
0
0
-2.435434e-17
-2.3927271e-17
2.3505765e-17
0
-2.2679331e-17
0
-1.0937395e-17
2.1480641e-17
1.0545929e-17
-1.0354203e-17
2.033025e-17
9.9786788e-18
-1.9589693e-17
-9.6136094e-18
-1.0475567e-29
9.2588426e-18
-2.0172068e-29
5.0671474e-33
1.7491326e-17
0
-8.4159623e-18
-1.6509558e-17
-8.0960127e-18
0
0
0
-7.4846913e-18
1.4675381e-17
7.1929798e-18
-7.0505386e-18
-6.9103449e-18
6.7723764e-18
6.6366105e-18
-1.3006049e-17
0
1.2484607e-17
1.2230253e-17
0
0
-1.1492132e-17
-6.2469652e-30
-5.5101883e-18
-5.3952302e-18
5.2822306e-18
-5.1711674e-18
5.0620179e-18
9.9095175e-18
4.8493673e-18
0
-9.2882001e-18
-5.0434396e-30
4.446041e-18
-4.3496576e-18
-4.2550072e-18
-8.3241355e-18
8.1416374e-18
3.9812393e-18
-1.1065447e-33
3.807002e-18
-7.4445972e-18
3.6391745e-18
-3.557608e-18
-1.8316628e-46
3.3990682e-18
-6.6441072e-18
6.4930278e-18
6.3448539e-18
0
-3.0285256e-18
-5.9173423e-18
1.6042739e-30
2.8230554e-18
2.7572522e-18
-5.3855132e-18
-5.2590969e-18
2.5676097e-18
5.0138448e-18
4.8949349e-18
-2.3892249e-18
-4.6643469e-18
2.2762919e-18
-2.2215613e-18
3.6095406e-30
2.1154881e-18
-4.1282223e-18
4.0276318e-18
2.1804275e-30
-1.063798e-29
3.7384509e-18
-3.6461301e-18
-7.8949426e-30
1.7337052e-18
-3.380946e-18
1.6481831e-18
-4.5668507e-34
6.9555837e-30
1.5267879e-18
-2.9761823e-18
3.2200062e-30
-7.8426803e-31
1.3771033e-18
-3.8135047e-34
-2.6144225e-18
2.5468944e-18
7.0511382e-34
-5.3651601e-30
2.3533971e-18
-2.2918402e-18
-2.4775365e-30
2.1729773e-18
-1.0578084e-18
-1.0297994e-18
-1.0024468e-18
9.7573735e-19
-1.0542664e-30
-1.8484037e-18
0
0
1.7028584e-18
2.3542592e-34
-1.6115837e-18
7.8379854e-19
-8.4609731e-31
7.4140817e-19
1.6008186e-30
-1.4021555e-18
0
-6.6272251e-19
1.2885157e-18
6.2625368e-19
-1.3516732e-30
5.9158968e-19
-1.1498243e-18
5.5865886e-19
-6.0245911e-31
-1.0547749e-18
0
0
4.8342025e-19
-2.6061652e-31
4.5597222e-19
-4.4278384e-19
-1.2898243e-18
1.2523076e-18
4.0525852e-19
-7.8680411e-19
3.8185995e-19
6.1712341e-31
3.5969225e-19
-1.9841366e-34
-1.1281219e-30
3.2862547e-19
-6.376447e-19
-3.0928488e-19
0
-2.9098374e-19
2.8220801e-19
2.7367414e-19
2.6537586e-19
-5.7129965e-31
2.768695e-31
-2.6840464e-31
-4.6884204e-19
2.2721508e-19
3.6667153e-31
-4.2681245e-19
2.9387146e-35
2.0036922e-19
3.8825536e-19
3.7612768e-19
-3.6434628e-19
-1.9598837e-31
-1.708954e-19
-1.6550085e-19
3.2052707e-19