/*--------------------------------*- C++ -*----------------------------------*\
| =========                 |                                                 |
| \\      /  F ield         | OpenFOAM: The Open Source CFD Toolbox           |
|  \\    /   O peration     | Version:  4.x                                   |
|   \\  /    A nd           | Web:      www.OpenFOAM.org                      |
|    \\/     M anipulation  |                                                 |
\*---------------------------------------------------------------------------*/
FoamFile
{
    version     2.0;
    format      ascii;
    class       volScalarField;
    location    "0.02";
    object      T;
}
// * * * * * * * * * * * * * * * * * * * * * * * * * * * * * * * * * * * * * //

dimensions      [0 0 0 1 0 0 0];

internalField   nonuniform List<scalar> 
6279
(
300.0001337
299.9990685
300.0003961
299.9998919
300.0022939
300.0026402
300.0038351
300.0056208
300.0027529
300.0000556
299.9985571
300.0006581
299.9983599
299.9975889
299.997206
300.0005614
300.0009758
299.9994655
299.9991687
299.9989795
299.9986806
299.9988163
299.9990393
300.0003318
299.998664
299.9984379
299.9974514
299.9984181
299.9984675
299.9984803
299.997988
299.9979311
299.9984975
299.9972191
299.9965686
299.9972456
299.9997343
300.0011875
299.9999822
299.999263
299.9986575
299.9990265
299.9980001
299.9978995
299.9990592
299.9973499
299.9972389
299.9960411
299.9985443
299.9995187
300.0007951
299.9994226
300.0026207
300.0034244
300.0043901
300.0068364
300.0041106
300.0015065
299.9994421
300.0022694
299.997736
299.9981026
299.9989847
300.0012417
300.0017329
300.0012947
299.9994556
299.999276
299.9995018
299.9987702
299.9988847
300.0005265
299.9979816
299.9985114
299.9977914
299.9976657
299.9990076
299.9996164
299.9983267
299.9985079
299.9991989
299.9978667
299.9975128
299.9974091
299.9983822
299.9998964
299.9973635
299.9973936
299.9978595
299.9980913
299.9972755
299.9983968
299.9994092
299.9970265
299.9959646
299.996122
300.0002561
299.9992069
300.0002051
299.9984275
300.0020798
300.0028972
300.0038817
300.0050773
300.0042469
300.0045997
300.0024631
300.0029783
299.9986237
299.9983234
299.9985524
299.9997539
300.0014788
300.0015413
300.0002289
300.0000221
299.9995039
299.9983908
299.9983707
299.9993932
299.9977882
299.9991322
299.9983469
299.9993292
300.0012995
300.0013983
300.0005002
300.0002056
299.9996888
299.9981183
299.9983572
299.9989974
299.9980724
299.9994851
299.9977226
299.9994712
300.0002144
300.0001024
299.9995413
300.0007427
300.0008537
299.9980462
299.9974977
299.9986454
300.0007145
299.9988431
299.9987563
299.9978007
300.0009547
300.0019545
300.0036793
300.0033677
300.0028129
300.0044252
300.0024943
300.0021746
299.9995942
299.9977559
299.9979875
299.9997959
300.0015807
300.0017334
300.0016717
300.0004627
299.9989061
299.9981899
299.9986154
299.9990672
299.9979893
299.998911
299.9990197
300.001547
300.0029677
300.0027625
300.0021417
300.0004282
299.9989732
299.9974695
299.9988559
300.0000231
299.9982857
299.9997868
300.0001052
300.0032068
300.0039797
300.0034791
300.0018194
300.0009729
300.00011
299.9983611
299.9995365
299.9992441
299.9993175
299.9955479
299.996147
299.9984513
300.0012603
300.0024848
300.0045959
300.0039704
300.0032841
300.0048014
300.0028429
300.0016946
299.9991052
299.9973099
299.9987215
300.0009403
300.0022551
300.0027349
300.0029006
300.000896
299.9994934
299.9995846
300.0002702
299.9996995
299.9992042
300.0001704
300.0009875
300.0027888
300.0031966
300.0029974
300.0020029
300.0000323
299.9988422
299.9978345
299.9990819
299.9996721
300.0000248
300.0020385
300.0028594
300.0041842
300.0045621
300.0042463
300.0022289
300.0008561
299.9992108
299.9985418
299.9995007
300.0004614
299.9952503
299.9953447
299.9987283
300.0019322
300.0028595
300.0032062
300.0044137
300.0052339
300.0045338
300.0054409
300.0049607
300.0034063
299.997315
299.9972216
300.0010584
300.0024786
300.0028264
300.0031411
300.003566
300.0026379
300.0023204
300.0032382
300.0034624
300.0026721
299.9985677
300.0000604
300.0017751
300.0027425
300.0026995
300.0025426
300.001966
300.0008812
300.0003298
300.000094
300.0000371
300.0002654
300.000218
300.0026669
300.002984
300.0034325
300.0037813
300.0037031
300.0022088
300.0010119
299.999789
300.0000887
300.0002466
300.0004182
299.9938832
299.9948128
299.9991066
300.0026406
300.0028819
300.0026569
300.0036094
300.0051743
300.004405
300.0046274
300.0048896
300.0038371
299.9969808
299.9979724
300.0006279
300.0021591
300.0023771
300.0018317
300.0015132
300.0012532
300.0010335
300.0007923
300.0005007
300.00053
299.9999221
300.0001698
300.0014833
300.0021217
300.0015391
300.0008168
299.9998374
299.9999362
300.0001583
299.9995029
299.9986323
299.9983729
300.0019999
300.002755
300.0027082
300.0020436
300.0024045
300.0016448
300.0000669
300.000638
300.0004294
299.9995855
299.998241
299.9986173
299.9960263
299.9968413
299.9982771
300.0023746
300.0026161
300.0017896
300.0011408
300.0023202
300.0024191
300.0030433
300.0033435
300.0015316
299.9981287
299.997968
299.9988416
300.0009549
300.0005811
299.9990938
299.9984845
299.9998802
300.0002423
299.9992432
299.9989121
299.9991848
300.0006431
300.0006588
300.0008928
300.0008244
300.000693
299.9995767
299.9982368
299.9998183
300.0003263
299.9981913
299.9966844
299.9974464
300.0025859
300.002536
300.0015527
300.0013647
300.0017616
300.0001446
299.9994107
300.0012781
300.0004528
299.9980522
299.9968495
299.9963207
299.9978591
299.9982763
299.9984191
300.0015355
300.0008169
299.9972365
299.9984691
300.0005222
300.0000955
300.0003858
299.9990157
299.9949057
299.9984026
299.9987108
299.9978864
299.9987449
299.9990179
299.9974732
299.9970894
299.9993612
300.0001621
299.9982818
299.9974396
299.9969731
300.0018824
300.0009517
299.9995906
299.9992472
299.9996894
299.9989864
299.9983506
300.0005784
300.0005898
299.9974926
299.9970102
299.997291
300.003085
300.0019323
300.0004532
300.0009922
300.0005887
299.9993304
300.0000724
300.0027553
300.000712
299.9972455
299.9962426
299.9969212
299.9993623
299.9982696
299.9980907
299.9986617
299.9997658
299.9963608
299.9973704
300.0003747
299.9994006
299.9976047
299.9952189
299.9948675
300.0008977
299.9991763
299.9978725
299.9978887
299.9990557
299.9977682
299.9976464
299.9999791
299.9998109
299.9979693
299.99754
299.9978924
300.0026168
300.0009999
300.0006154
299.9998966
299.9999655
299.9994837
299.9998191
300.0019144
299.9998111
299.9968759
299.9969242
299.9982338
300.0030346
300.0010432
300.0007002
300.0011964
300.0001641
299.9996618
300.001421
300.0029872
299.999305
299.996866
299.9967597
299.9976065
299.9976822
299.9986729
299.9982241
299.9969321
299.9972056
299.9945436
299.9958042
299.9988896
299.9990522
299.9965597
299.9945532
299.997413
300.002241
300.0006635
299.9975668
299.9973868
299.9978571
299.9950016
299.9964065
299.9990662
299.9989179
299.9971702
299.9959787
299.9959169
300.0015366
299.9998981
299.9987562
299.9984274
299.9991022
299.9984057
299.9983836
299.9999322
299.9988015
299.9976052
299.9978587
299.998987
300.002252
300.0016713
300.0006911
300.0007211
300.0000897
299.9997518
300.0008416
300.0014903
299.9983314
299.99731
299.9979708
299.9992246
300.0017272
300.0001337
300.0011275
300.0006685
299.9991927
299.9990468
300.0012018
300.0013734
299.9988548
299.997469
299.9978354
299.9981028
299.9965094
299.9978022
299.9992133
299.9969973
299.9961242
299.9949753
299.9957128
299.9975749
299.9963629
299.9953719
299.9951547
299.9963742
300.0006606
300.0008777
299.9986651
299.9977839
299.9980632
299.9964308
299.9974618
299.9996222
299.9983659
299.997267
299.9966042
299.99678
300.0002323
300.0005234
299.9992879
299.9994141
299.9993332
299.9988768
299.9996727
300.0003704
299.9987811
299.9979372
299.9986537
299.9996183
300.000316
300.0012061
300.0006033
300.0005373
299.9996742
299.9995596
300.0006809
300.0003338
299.9985331
299.9981889
299.9982543
299.998337
300.0006239
300.000348
300.0006762
299.9998349
299.9992846
299.9994482
299.9999891
300.0000051
299.9995054
299.9997097
299.9987693
299.998394
299.9985508
300.0027915
300.0020539
300.0008793
300.0032251
300.0019111
300.0023127
300.0013116
300.0058546
299.9988605
299.9999132
299.9990793
300.0046333
300.0001286
300.00085
299.9987025
300.0071763
300.001897
300.0014805
299.998056
300.0058161
300.0032892
300.0058534
300.0014208
299.9962324
299.9997311
299.9997397
299.9981991
300.0015233
300.0006389
299.9995806
299.9987282
300.0045679
299.999709
299.9986897
299.9986779
300.0043513
299.9991998
300.0003201
299.9991799
300.0065903
300.0016706
300.0015513
299.9991827
300.0068449
300.0015995
300.0043621
300.0034145
299.9983865
299.9989
299.9992356
299.9994366
300.0001723
299.998635
299.9980794
299.9995683
300.0019882
299.998277
299.9989532
299.9997565
300.0022139
299.9981707
299.9997656
300.0003367
300.0011854
299.9998003
299.9994978
300.0000015
300.0043272
299.9989403
300.0008389
300.0029184
299.9999078
299.9988213
299.9993633
299.9998407
299.998121
299.9982497
299.9986569
299.9996723
299.998967
299.9982843
299.9996789
300.0008885
300.0006679
299.9983247
300.0000905
300.0019682
299.999718
299.9979956
299.9989993
300.0005573
300.002357
299.9975996
300.0003024
300.0020631
299.9981944
299.9989141
300.0010361
300.0013277
299.996997
299.9987934
300.0006462
300.0007928
299.9968699
299.9985726
300.0012079
300.0027168
299.9994272
299.999513
300.0011367
300.0029994
300.0004724
299.9983134
300.0000817
300.0011345
300.0025297
299.9981182
300.0003145
300.0027195
299.9952047
299.9970716
299.9993009
300.0023758
299.9967306
299.9980467
300.000444
300.0028526
299.9976918
299.9990929
300.0012217
300.0031679
299.9996225
300.0007053
300.0026963
300.0035915
300.0013216
299.999723
300.0014907
300.0023597
299.9998989
299.9985908
299.9995982
300.0005381
300.0017312
300.0028548
300.0023673
300.0023327
300.0036056
300.0043639
300.0023422
300.0000821
300.0037047
300.007033
300.0048852
299.9998632
300.0028613
300.0023916
300.0014992
300.0022663
300.0019661
300.0007529
299.999471
299.9943659
299.9940265
300.0017987
300.002756
300.0020378
300.0016279
300.0005902
300.0006628
300.0017021
300.0005081
300.0003135
300.0019829
299.9982967
299.9933089
299.9978604
299.9978521
300.000248
300.0009831
299.999592
299.9992342
299.9996683
300.0005371
300.0014357
300.0045582
300.0061012
300.0029436
300.0035054
300.001332
300.0009612
299.9981092
299.9991498
300.0000445
300.0003909
300.0025376
300.0030893
300.0028801
300.0023601
300.0005038
300.0007847
300.0001475
300.0004447
299.9955892
299.9971543
299.9997129
300.000782
300.0025813
300.0036804
300.0036674
300.000236
299.9968172
299.9960756
299.9966448
299.998683
299.9991766
300.0001537
299.9982789
299.9991649
300.000202
300.0014769
300.0012577
300.0007504
300.0027306
300.0025399
300.0025659
300.0022813
300.0007823
300.0005471
299.9977069
299.9985798
299.999361
299.9993687
299.9983813
299.9959271
299.9964274
299.9990321
300.0000747
300.0012443
300.0013367
300.0000531
299.9973166
299.9986553
299.9988766
299.9990467
300.0002425
299.9987968
299.9960331
299.9989464
299.9986484
300.0009684
300.0003167
299.9983285
299.9970338
299.9992707
300.0005673
300.0001253
300.0029997
300.0047492
300.0009997
300.0011592
299.9993385
300.0004338
299.999094
300.0000268
299.9988493
299.9998652
300.0031546
300.0014372
300.0011939
300.0021514
299.9993379
299.9993111
299.9992034
299.9999948
299.9975859
299.9988093
300.0002243
299.9999432
300.0056363
300.0052735
300.0018295
299.999949
299.9964673
299.9963736
299.9971417
299.9981552
299.9988964
299.9993239
299.9982519
300.0001379
300.0014116
300.0010518
299.9994667
299.9997646
300.0010866
299.9989432
300.0007534
300.0014658
299.9994108
299.9989551
299.9971868
299.9983844
299.9996496
299.9985473
299.9979338
299.9986438
299.9999097
299.9992736
299.9990898
300.000021
299.9993574
299.9981666
299.996037
299.998068
299.9993273
299.9978771
299.998602
299.9995043
299.9982234
299.998913
299.9993066
300.0015942
300.0000321
299.9990488
299.9967128
299.999501
300.0006815
299.9974409
299.9982799
300.0001054
299.9987151
299.9993459
299.9993962
300.0008854
299.9983272
299.9999213
299.9988717
299.9998024
300.0028896
299.9991692
299.9983364
300.00034
299.9991475
299.9987259
299.9980903
299.9980463
299.9995148
300.000841
300.0021878
300.0001381
300.0048867
300.0036954
299.9996454
299.9997043
299.9972073
299.9973659
299.9993014
299.9990052
299.9987522
300.0000571
300.0003287
300.0022408
300.0027635
300.0015438
299.9998462
299.9996228
299.9989802
299.9994085
299.9993891
299.9995905
299.9984869
299.9991794
299.9987678
299.9996858
300.0000311
299.9990501
299.9994458
300.0002278
299.999026
299.9998367
299.9988174
299.9987704
299.9998657
299.9994919
299.9981102
299.9988094
299.9991045
299.9975448
299.9985687
300.0001118
299.9991301
299.9999446
299.9998514
300.0009259
299.999942
299.9995964
299.9985164
299.9997086
300.0006042
299.9976317
299.9978657
300.0002862
299.9999339
299.9997065
299.9990672
299.99979
299.9984634
300.0000585
300.0007595
300.0001465
300.0012697
299.9980084
299.9976033
299.9994786
299.9989764
299.9988103
299.9986861
299.9979308
299.9987733
299.9998845
300.002276
299.9999395
300.0023103
300.0017072
299.9992111
299.9996307
299.9990048
299.9984047
299.9987651
299.998007
300.0006778
300.0022354
300.0018246
300.0021807
300.0031109
300.0027148
300.0009156
299.9999613
299.9979932
299.9999212
299.9996049
299.9993284
300.0008386
300.0016274
300.0004597
300.0003055
300.0006026
299.9995605
299.9992566
300.0001576
299.9987946
299.9999664
299.9980371
299.9969139
300.0024633
300.001417
299.9989161
299.9988796
299.9988476
299.9977547
299.9991507
300.0016842
300.0011161
299.9996428
299.9987587
299.9985542
300.0016021
300.0003363
299.9992607
299.9994789
299.9995913
299.9978011
299.9987422
300.00106
300.0005506
299.9994738
299.9987465
299.9982346
299.9984255
299.9992433
300.0012299
300.0003497
300.0006611
299.9983587
299.9982958
299.9998746
299.9995349
299.9988031
299.997707
299.9973535
300.0005704
300.0002205
300.0022976
300.000125
300.0008512
300.0004318
299.9993948
300.0000792
299.99979
300.0002802
299.999824
299.9997635
300.0028409
300.0027222
300.0019999
300.0024202
300.0029939
300.0020538
300.0005757
300.0009833
300.0001184
299.9999379
299.9986483
299.9986562
300.0030351
300.0021774
300.0017741
300.0019568
300.0012021
299.9997341
299.9999005
300.0019434
300.0004939
299.9983454
299.9972827
299.9964841
300.0026218
300.0012922
300.0011536
300.0006848
299.9986062
299.9983755
300.0004363
300.0026914
300.0007202
299.9976617
299.9963451
299.9970713
300.0009313
300.0006441
300.0010182
299.9993768
299.9986127
299.9986809
300.0008023
300.0020035
300.0000496
299.9983523
299.9974684
299.9975067
299.9992631
299.9998641
300.0012812
299.9996509
299.9988474
299.998423
299.99957
300.0000555
299.9997316
299.9990121
299.9975045
299.9991004
299.999513
299.9994645
300.0005836
299.9995423
299.9996794
299.9998826
299.9993448
299.9998389
299.9996314
299.9999233
299.9997751
300.0002153
299.9972771
299.9991605
300.0015264
300.0003594
300.0014712
300.0024496
300.0031916
300.0003157
300.0020199
300.0009603
300.0021746
300.0025382
300.0046386
300.0017218
300.0035271
300.0028275
300.000518
300.0005316
300.0030393
300.002709
299.9965518
299.9984141
300.0005038
300.0005713
299.9992256
299.9994778
299.9994796
300.0004167
300.0001942
300.0003186
299.9996185
300.0008659
300.00192
300.0005595
300.0011211
300.0020388
300.0012231
299.9987893
300.0006612
300.0027082
300.0000028
300.0002686
300.002143
300.0018051
299.9979813
299.9991612
299.9992606
299.9988757
299.9983627
299.9982314
299.9977126
300.0017883
299.9992256
299.9984314
299.9987091
300.0006587
300.0009252
299.9990471
299.9998079
300.0015165
300.0000188
299.9997601
300.0009147
300.0021059
299.9984682
299.9993197
299.9989061
299.9974913
299.9992972
299.9995018
300.0000164
299.9981843
299.9987429
299.9981295
299.9988088
300.0006459
299.9977304
299.9970948
299.9994106
299.9981549
299.9997349
299.9995215
300.0006362
299.9997787
299.9976276
299.9981238
299.9995428
299.9983183
299.9990806
299.9995516
299.998134
299.9959254
299.9972339
299.9983234
300.0007298
299.9974356
299.9991336
299.998166
299.9994453
300.0003386
299.9964596
299.997742
299.9991943
299.9956846
299.9966967
299.9990286
300.0000383
299.9965298
299.9975181
299.9981992
299.9997373
299.9970134
299.9985296
299.9993784
299.9989687
299.9962023
299.9967816
299.9979594
300.0005869
299.9981935
299.9982344
299.9987521
300.0011326
300.0024899
299.9958872
299.9982157
299.9990576
299.997164
299.9973753
299.9979522
299.9979367
299.9940152
299.9974681
299.9987779
299.9992259
299.9953261
299.997494
299.9985243
299.9991653
299.9960087
299.9971325
299.9979856
299.9992866
299.9966664
300.0004694
300.0007726
300.0015001
299.9998768
300.0003771
299.9990013
300.0006664
300.0012466
300.0011235
300.0015709
300.0006459
300.0006334
299.9995814
300.0000444
300.0013502
299.9993839
299.999328
299.9985776
299.9990763
300.0008539
300.0026388
300.0014987
299.9998331
300.0004271
300.0007526
300.0015815
300.0011518
300.0020455
300.0020051
299.9987018
299.9987677
300.0020437
300.0037055
300.0030907
300.0007481
300.0005161
300.0001773
299.9993882
300.0011043
300.0035091
300.0030867
299.9995832
299.999794
300.002134
300.0022555
300.0025531
300.0012166
300.0000723
300.0007238
300.0011769
300.0025977
300.0038842
300.004039
300.0016484
300.0006636
300.0015237
300.0008514
300.0010004
299.9996811
299.9992902
299.9997047
299.9996814
299.9992276
299.9996266
300.0019473
299.9998752
299.9984244
300.0005479
300.0002507
299.9986855
299.9986235
299.9985313
299.9989588
299.9986946
299.9979352
299.9972677
299.997847
299.9964733
299.9979846
299.9994329
299.9985668
299.9974469
299.997716
299.9988184
299.9987994
299.9981349
299.9989241
299.9966898
299.9957569
299.9950213
299.9961711
299.9977886
299.9964738
299.9954905
299.995673
299.9969827
300.0018196
300.0007504
299.999548
299.9986926
299.9989365
299.9970819
299.9982391
299.9995768
299.9983216
299.997232
299.9968934
299.9977189
300.0005402
300.0004454
299.9994557
299.9994989
299.9995628
299.9994365
300.0004748
300.000364
299.9986885
299.9982974
299.9990783
299.9992457
300.0009674
300.0012003
300.0005301
300.0001431
299.9994085
299.9998215
300.0007801
300.0003541
299.9985773
299.998585
299.9983269
299.9977066
300.001561
300.0006366
300.000757
299.999989
299.9992504
299.9997622
299.9998989
300.0000077
299.999474
299.9997228
299.9991924
299.9988951
300.0016491
300.0013147
300.0017151
300.0002266
300.0003411
299.9994003
300.0001982
300.0007824
300.0011476
300.0011749
300.000244
300.0000555
300.0008008
300.000546
300.001173
299.9996573
299.9995559
299.9986613
299.9993012
300.0012781
300.002351
300.0014556
300.0001868
299.9999204
300.0011227
300.0006917
300.0008495
300.0016264
300.0015668
299.9985611
299.9990757
300.0019336
300.0027294
300.0026364
300.0006315
300.0001632
299.9996285
299.9996225
300.0007338
300.002678
300.0030989
299.9998818
300.0002434
300.002121
300.0019953
300.0020036
300.0008284
299.9995106
300.0000531
300.0004456
300.001252
300.0027517
300.0037732
300.0010809
300.0002437
300.0015418
300.0013484
300.000323
299.9997855
299.9988258
300.0003211
299.9992685
299.9990161
299.9995961
300.0015229
299.9997223
299.9993935
300.0012556
300.0006631
299.999146
299.9982936
299.998619
300.0001079
299.9990427
299.9975073
299.996999
299.9976854
299.9965791
299.9982463
299.9993467
299.9985199
299.9976135
299.9983178
299.9988559
299.9990969
299.9981487
299.9984323
299.9961883
299.9961517
299.9954833
299.9962445
299.9974481
299.9961886
299.9948464
299.9946371
299.9968841
300.0023595
300.0012038
299.9996858
299.9986518
299.9984172
299.9972091
299.9986982
299.9996814
299.9983966
299.9973688
299.9975981
299.9985858
300.0002916
300.0006943
299.9998978
299.9996885
299.9993899
299.9995442
300.0004595
299.9999612
299.998251
299.9975961
299.9988061
299.9992572
300.0011582
300.0008912
300.000726
300.0002067
299.9996297
300.0002559
300.0007801
299.9998037
299.9986052
299.9981117
299.9984932
299.9992244
299.9997657
299.9999126
300.0007259
300.0002975
299.9994233
300.0001635
299.9999257
299.9999494
299.9994217
299.9995126
300.0006175
300.001211
299.9989594
299.9998883
300.0004508
299.9999478
299.9996355
299.9993706
300.000393
300.0006932
300.0012727
300.0011981
300.0004195
299.998554
300.00041
300.0005879
300.0005366
300.0005273
300.0001162
299.9987238
299.9997626
300.0014539
300.0021344
300.0010307
300.0001458
299.9993183
300.0008279
300.0005219
300.0004711
300.0013718
300.0010045
299.9987244
299.9993064
300.0017795
300.0021294
300.0018462
300.0004678
299.999585
300.00001
299.9994941
300.0004141
300.0027717
300.0030581
300.0003955
300.0002381
300.0017797
300.0021778
300.0013698
300.0000318
299.9991524
300.000025
300.0002862
300.0006901
300.0028608
300.0037135
300.0010847
300.0001211
300.0011285
300.001529
300.0002245
299.9991413
299.9987385
299.9997692
299.9997308
299.9986172
299.9995677
300.0014542
299.9998194
300.0000623
300.0015106
300.0007633
299.9993043
299.9981861
299.9978827
300.0002728
299.9990533
299.997305
299.9975282
299.9975592
299.9969431
299.9983425
299.9994523
299.9987721
299.9971391
299.9980565
299.9985373
299.9990638
299.9979335
299.9973676
299.9962263
299.9960616
299.9954625
299.9964831
299.99755
299.996152
299.9948618
299.9940276
299.9964382
300.0017267
300.0012227
299.9996945
299.9981864
299.998328
299.9977241
299.9993091
299.9998909
299.9986926
299.9977226
299.9978715
299.9989115
300.000911
300.0009396
300.000066
299.9997271
299.9994556
299.9997136
300.0005943
299.9998123
299.9983507
299.9980737
299.997911
299.9991973
300.0011019
300.0010139
300.0008688
300.0003748
299.9994708
300.0001375
300.0007704
299.9992775
299.9988471
299.9980784
299.9991444
299.999549
299.9987696
299.9999043
300.0008388
300.000021
299.9996274
299.9999071
299.9999723
299.9996078
299.9997021
299.9996893
300.0007034
300.0013307
299.9997025
300.0001387
300.0000381
299.9991935
299.9997706
299.9997336
300.00016
300.001134
300.0016428
300.0012738
300.0003582
299.9992026
299.9995935
300.000313
300.0008338
300.0005309
300.0001532
299.9989514
299.9995728
300.0011812
300.0016971
300.0011094
299.9997472
299.9989457
300.0000606
300.0002167
300.0007192
300.0010502
300.0012011
299.9992039
299.9990823
300.0017416
300.0021643
300.0013413
300.0000614
299.9987586
299.9991499
299.9996952
300.0003946
300.0026876
300.003217
300.0004339
299.9999258
300.0013012
300.0021231
300.0012092
299.999798
299.999025
299.9999044
300.0000948
300.0008072
300.0030734
300.0035775
300.0007643
299.999993
300.0010205
300.0012567
300.0002905
299.9985106
299.9989833
300.0002977
299.9993368
299.998762
299.9997372
300.0012002
299.9992619
299.9998071
300.0015582
300.0006301
299.9989636
299.9985486
299.9978243
299.9996256
299.9987773
299.9974709
299.9971067
299.99718
299.9971758
299.9984512
299.9993827
299.9985713
299.9972997
299.9976822
299.9980777
299.9989178
299.998039
299.997215
299.9958129
299.9957999
299.9955618
299.9966537
299.9976144
299.9960794
299.9948368
299.9941087
299.9965292
300.0019675
300.0016511
299.9994099
299.9981043
299.998441
299.9978132
299.9992593
299.9997835
299.9985124
299.9975181
299.9980656
299.9998292
300.0008061
300.00108
300.0002926
300.0000439
299.9997012
300.0000027
300.0010251
299.9999334
299.9981619
299.9991293
299.9978969
299.9997062
300.0006772
300.00117
300.001398
300.0004506
299.9995343
300.0003751
300.0007793
299.9995503
299.9988823
299.9982403
299.9997611
299.9993143
299.9982967
299.9993022
300.0004422
299.999848
300.000309
300.0000619
299.9999334
299.9993575
299.9999363
300.0002975
300.0000503
299.9992673
299.9997653
300.0000801
299.999202
299.9993042
300.0003245
299.999431
300.0002237
300.0014427
300.0011387
300.0012242
300.0001744
299.9997575
299.9986012
300.0003994
300.0008739
300.0005249
300.0004111
299.9991274
299.9996316
300.0012665
300.0016497
300.0009162
299.9997211
299.9991323
299.998632
300.0003362
300.0006588
300.0012281
300.0012799
299.999038
299.9991082
300.0015827
300.0020639
300.0011185
300.0000319
299.9983823
299.9984027
299.9993936
300.0003843
300.002868
300.0031971
300.0000937
299.9995661
300.0010611
300.0016578
300.0011741
299.9996768
299.9994329
299.9992242
300.0000928
300.001118
300.0029483
300.0028888
300.0000169
299.9997836
300.0009669
300.0008603
300.0000937
299.9986459
299.9990836
299.9995774
299.9994726
299.9990484
299.9997098
300.0005501
299.9987214
299.9995273
300.0014578
300.0005518
299.9987574
299.9984123
299.9975949
299.9991975
299.9986519
299.9972467
299.9964962
299.9971752
299.9977116
299.9988794
299.9995025
299.9985742
299.9974806
299.9970677
299.9980974
299.9991015
299.9973852
299.9967417
299.9956961
299.9958469
299.9959333
299.9970548
299.9976254
299.9962119
299.9946672
299.9942023
299.9971308
300.0014129
300.0016545
299.9993782
299.9984605
299.9985632
299.9977346
299.9991141
299.9996055
299.9983375
299.9974924
299.9985384
300.0008034
300.0001338
300.0010409
300.0005992
299.9999845
299.9995555
300.0000052
300.0011918
299.9998557
299.9980427
299.998844
299.9984314
300.0000926
299.9995435
300.0010201
300.0013735
300.0002614
299.9998229
300.0009053
300.0006942
299.9996025
299.9990704
299.9987925
299.9999269
299.9983549
299.9980349
299.9988405
299.999721
300.0001729
300.0008395
300.0000217
299.9999083
299.9994286
300.0004685
300.0001254
299.998521
299.9984811
299.9998641
299.9998783
300.0004643
299.999422
300.0000478
299.9995203
300.0001649
300.0009668
300.0004879
300.0012915
299.9999716
300.0002035
299.998653
300.0003189
300.0006992
300.0002662
300.0002504
299.9991948
299.9995921
300.0009822
300.0015609
300.0008638
299.9996854
299.9998692
299.997118
299.9999457
300.0005539
300.001174
300.0012794
299.9992572
299.9991818
300.0011366
300.0016795
300.0011851
300.0001249
299.9984949
299.9972831
299.9991019
300.0005572
300.0029111
300.0029422
299.9999637
299.9993783
300.0009932
300.0016448
300.0012345
299.9995594
299.9999637
299.9988345
299.9999978
300.0010153
300.0025815
300.0025122
300.0000773
299.9998696
300.0011746
300.0010118
299.9999313
299.998717
299.9989576
299.9992768
299.9995287
299.9991502
299.9998397
300.0004422
299.9986017
299.9994111
300.0012605
300.0002932
299.998725
299.9982484
299.9974046
299.998168
299.9982412
299.9967182
299.9964363
299.9971389
299.9976599
299.9989459
299.9994633
299.9986493
299.9975077
299.9969624
299.9983776
299.9982782
299.996954
299.9965632
299.9957057
299.9959886
299.9962288
299.9973729
299.9976033
299.996678
299.9948782
299.9946397
299.997683
299.9996031
300.0015297
299.9996402
299.9988194
299.998833
299.9978211
299.9990937
299.9997114
299.9984955
299.9980714
299.9992902
300.0012091
299.9990463
300.0010692
300.0010367
300.0001376
299.9997845
300.0002677
300.0013555
299.9999508
299.9984692
299.9988549
299.9991939
300.0002312
299.998093
300.0008468
300.0014303
300.0004035
300.0005332
300.0013389
300.0008326
299.9997488
299.999588
299.9995078
300.0000496
299.9983711
299.9982894
299.9990471
299.9993822
300.0007268
300.0009715
299.9995665
299.9999072
299.9992871
300.0006843
299.9997739
299.9983988
299.9977168
300.0006131
300.0011703
299.9998753
299.9990027
300.0003429
299.999552
299.9993097
299.9996962
300.0001354
300.001345
299.9998497
300.000613
299.9986794
299.999527
299.9999624
300.0000652
300.0004579
299.9994485
299.9994206
300.0008805
300.0015503
300.0007744
299.9996618
300.0000695
299.9974366
299.999045
300.0004799
300.0012946
300.0015975
299.9994811
299.998852
300.0007512
300.0015293
300.0010676
299.9998528
299.9986011
299.9967454
299.9989071
300.00081
300.0026955
300.0025855
299.9998157
299.9991908
300.0009928
300.0014266
300.0008875
299.9990358
300.0001562
299.9986921
299.9999563
300.0010723
300.002624
300.0027112
300.0002705
299.999921
300.001147
300.0008827
299.9996337
299.9987707
299.9988995
299.9988331
299.9994892
299.9992825
300.0000972
300.0004632
299.9983381
299.9993453
300.0012039
300.0001946
299.9987701
299.9984512
299.9976035
299.9972016
299.9970913
299.9960967
299.9963193
299.9970021
299.9976156
299.9989346
299.9993012
299.9986721
299.9974351
299.9971206
299.9991208
299.9975407
299.9966523
299.9961945
299.9956307
299.9960744
299.9966465
299.997491
299.9974061
299.9967027
299.9953225
299.9951398
299.9981611
299.9986196
300.0012333
299.9997066
299.9987297
299.9988519
299.9979317
299.9988673
299.999445
299.9984371
299.9985137
299.9997957
300.0009401
299.9986299
300.0009202
300.0012023
300.0002339
300.000002
300.000375
300.0011337
299.9999405
299.9988643
299.999177
299.9994591
300.000145
299.9979201
300.0005304
300.0016092
300.0005435
300.0009689
300.0016972
300.0010352
300.000032
300.0000385
299.9998316
300.0001884
299.9986758
299.9993369
299.9995366
299.9994071
300.000826
300.0008547
299.999489
300.0001259
299.9992291
300.0003928
299.9997096
299.9986439
299.9974673
300.0009263
300.0007034
299.9998656
299.9997349
300.0005905
299.9992046
299.9984245
299.9990423
300.0001041
300.0012016
299.9999654
300.0006125
299.9994235
299.9982108
299.9992625
300.0000475
300.0007558
299.9994933
299.9992519
300.0008651
300.0014865
300.0006455
299.9997104
299.9999399
299.9971937
299.9983135
300.0005422
300.0012611
300.0015776
299.9992603
299.9985997
300.0008089
300.0012313
300.0005468
299.9995903
299.9986659
299.9970554
299.9989156
300.0006269
300.0021263
300.0020725
299.9996604
299.9993045
300.0008269
300.0005186
299.9998476
299.9989365
300.0000998
299.9989606
300.0000131
300.0010026
300.0026619
300.0026606
300.0001326
299.9997442
300.0007929
300.0002188
299.9991962
299.9989267
299.9988562
299.9986966
299.9993713
299.9991902
300.0000333
300.0002204
299.9981323
299.9992619
300.0010076
299.9999854
299.9987085
299.9989828
299.9982754
299.9961256
299.9963975
299.9957337
299.9961559
299.9966966
299.9977681
299.9988953
299.9989589
299.9985838
299.9975418
299.9975105
299.9994659
299.99689
299.9967077
299.9962887
299.9954553
299.9961014
299.9969842
299.9975063
299.9969401
299.9966206
299.9960079
299.9956211
299.9980745
299.9985704
300.0010305
299.9996278
299.9982151
299.9987667
299.9979489
299.9984848
299.9990337
299.9985299
299.9985935
299.9998227
300.0000203
299.9987212
300.0004283
300.0011152
300.0000223
300.000029
300.0003839
300.0011065
300.0001468
299.9990135
299.9993641
299.9993087
299.9998877