/*--------------------------------*- C++ -*----------------------------------*\
  =========                 |
  \\      /  F ield         | OpenFOAM: The Open Source CFD Toolbox
   \\    /   O peration     | Website:  https://openfoam.org
    \\  /    A nd           | Version:  7
     \\/     M anipulation  |
\*---------------------------------------------------------------------------*/
FoamFile
{
    version     2.0;
    format      ascii;
    class       volVectorField;
    location    "0.00261";
    object      U;
}
// * * * * * * * * * * * * * * * * * * * * * * * * * * * * * * * * * * * * * //

dimensions      [0 1 -1 0 0 0 0];

internalField   nonuniform List<vector> 
5000
(
(23.100207 2.3104116e-21 0)
(23.100206 3.140552e-21 0)
(23.100206 0 0)
(23.100205 0 0)
(23.100204 -1.5140118e-21 0)
(23.100204 1.6455767e-36 -1.4474646e-21)
(23.100204 1.3120565e-21 -2.7968166e-36)
(23.100204 0 3.8814634e-21)
(23.100203 0 1.4147366e-21)
(23.100203 -1.4849104e-21 -2.9698208e-21)
(23.100203 -3.0214885e-21 -3.0214885e-21)
(23.100202 1.5169518e-21 1.5169518e-21)
(23.100202 1.5150206e-21 -1.2917843e-35)
(23.100201 -1.5089098e-21 -1.3294597e-35)
(23.100201 0 3.0036956e-21)
(23.1002 -1.4956736e-21 -2.9913473e-21)
(23.1002 -3.7267223e-51 -1.8633612e-51)
(23.1002 1.4855299e-21 -1.3088603e-35)
(23.100199 0 -1.4808653e-21)
(23.100199 1.4758718e-21 2.9517435e-21)
(23.100198 -1.4708238e-21 1.4708238e-21)
(23.100198 -1.4693637e-21 0)
(23.100198 2.9454201e-21 0)
(23.100197 -1.4782514e-21 -1.4782514e-21)
(23.100197 -1.4832665e-21 1.2647091e-35)
(23.100196 -1.22446e-35 -1.22446e-35)
(23.100196 1.4830278e-21 -1.4830278e-21)
(23.100196 1.4768315e-21 1.4768315e-21)
(23.100195 -2.9401302e-21 1.4700651e-21)
(23.100195 2.5393888e-35 -1.4647016e-21)
(23.100194 -2.5493678e-35 2.5493678e-35)
(23.100194 1.4532806e-21 -1.2391416e-35)
(23.100194 2.9096723e-21 -1.4548361e-21)
(23.100193 -2.9244358e-21 1.4622179e-21)
(23.100193 2.5519826e-35 1.4719657e-21)
(23.100192 -1.2816592e-34 0)
(23.100192 -5.0695497e-35 0)
(23.100192 2.8907005e-21 -1.4453503e-21)
(23.100191 -2.8596363e-21 -1.4298181e-21)
(23.100191 -2.8314656e-21 1.4157328e-21)
(23.100191 2.8289564e-21 -2.3719114e-35)
(23.10019 -9.8342175e-35 -1.4297966e-21)
(23.10019 -2.8945459e-21 1.447273e-21)
(23.100189 1.4574557e-21 -2.4646913e-35)
(23.100189 4.3754116e-21 -1.4584705e-21)
(23.100189 -1.4523832e-21 1.4523832e-21)
(23.100188 -1.4435646e-21 -4.9644574e-35)
(23.100188 -9.8422193e-35 4.9211097e-35)
(23.100187 -2.8634667e-21 -4.9237693e-35)
(23.100187 0 2.4337826e-35)
(23.100187 1.4258507e-21 1.4258507e-21)
(23.100186 2.0309071e-37 0)
(23.100186 -1.4350223e-21 0)
(23.100186 2.8723859e-21 0)
(23.100185 -4.9977875e-35 0)
(23.100185 -2.8438542e-21 0)
(23.100184 1.4144942e-21 0)
(23.100184 -4.866529e-35 0)
(23.100184 -1.4114941e-21 0)
(23.100183 0 0)
(23.100183 1.42419e-21 0)
(23.100183 4.8553607e-35 0)
(23.100182 4.0357294e-37 0)
(23.100182 1.4168226e-21 -1.4168226e-21)
(23.100181 -1.4153412e-21 -1.4153412e-21)
(23.100181 4.9493283e-35 1.4157643e-21)
(23.100181 1.4158076e-21 -2.4345001e-35)
(23.10018 -1.4133427e-21 -2.22981e-52)
(23.10018 -1.4090653e-21 1.4090653e-21)
(23.10018 1.4051786e-21 0)
(23.100179 1.4037727e-21 0)
(23.100179 -1.4063363e-21 -1.4063363e-21)
(23.100178 -1.408163e-21 -1.408163e-21)
(23.100178 2.8133406e-21 0)
(23.100178 1.403295e-21 1.403295e-21)
(23.100177 -1.3995472e-21 4.8329691e-35)
(23.100177 0 -1.397157e-21)
(23.100177 1.3972617e-21 -1.3972617e-21)
(23.100176 -1.9878099e-37 1.3987969e-21)
(23.100176 -1.3988637e-21 2.7977273e-21)
(23.100175 1.39898e-21 -2.7979599e-21)
(23.100175 -3.97756e-37 7.95512e-37)
(23.100175 3.9756895e-37 4.1964641e-21)
(23.100174 1.3992792e-21 -2.7985584e-21)
(23.100174 1.4011915e-21 -1.4575678e-34)
(23.100174 4.881258e-35 2.8039836e-21)
(23.100173 -1.3998291e-21 -4.1994874e-21)
(23.100173 0 1.3950096e-21)
(23.100173 -1.3882644e-21 1.3882644e-21)
(23.100172 -1.4308649e-34 -1.3792899e-21)
(23.100172 -4.7828655e-35 1.3681473e-21)
(23.100171 1.3560889e-21 1.3560889e-21)
(23.100171 1.3455826e-21 4.6848603e-35)
(23.100171 -2.6864734e-21 -2.6864734e-21)
(23.10017 -9.3207867e-35 -9.3207867e-35)
(23.10017 1.3530012e-21 -1.3530012e-21)
(23.10017 0 -1.369833e-21)
(23.100169 0 -4.9091873e-35)
(23.100169 -1.4316912e-21 9.9693219e-35)
(23.100169 -1.0220399e-34 2.9475272e-21)
(23.100168 3.0600292e-21 1.5300146e-21)
(23.100168 -1.4539202e-21 -1.4539202e-21)
(23.100169 -2.9825696e-21 2.1192432e-37)
(23.10017 0 5.4900151e-22)
(23.100168 5.8286681e-22 0)
(23.100166 1.6981457e-21 -1.6981457e-21)
(23.100166 -1.4084974e-21 -4.9039082e-35)
(23.100166 -1.2258137e-21 1.2258137e-21)
(23.100165 0 -1.3379874e-21)
(23.100165 0 -1.4208489e-21)
(23.100165 1.3678375e-21 2.735675e-21)
(23.100164 1.3417685e-21 1.3417685e-21)
(23.100164 0 -4.0461455e-21)
(23.100163 -1.3556081e-21 -1.3556081e-21)
(23.100163 4.701256e-35 4.0344083e-21)
(23.100163 1.3305111e-21 -1.3305111e-21)
(23.100162 -1.3180816e-21 -1.3180816e-21)
(23.100162 3.7397928e-37 -7.4795856e-37)
(23.100162 -4.6617867e-35 -1.3335125e-21)
(23.100161 1.8610591e-52 4.0651791e-21)
(23.100161 2.7270337e-21 -9.5333561e-35)
(23.10016 -5.7770835e-37 -2.7101741e-21)
(23.10016 -1.3437142e-21 2.6874283e-21)
(23.10016 0 1.3314139e-21)
(23.10016 -1.324449e-21 -1.324449e-21)
(23.100159 1.3337989e-21 1.3337989e-21)
(23.100159 1.3509518e-21 -1.3509518e-21)
(23.100158 -2.7171116e-21 -2.7171116e-21)
(23.100158 -1.350615e-21 1.350615e-21)
(23.100158 2.6779179e-21 4.6237435e-35)
(23.100157 1.326059e-21 1.326059e-21)
(23.100157 -1.3183794e-21 2.6367589e-21)
(23.100157 -1.3254222e-21 -1.3254222e-21)
(23.100156 -1.3412584e-21 -1.3412584e-21)
(23.100156 0 -1.3485434e-21)
(23.100156 1.3428294e-21 -4.6752744e-35)
(23.100155 1.3331045e-21 -4.6224714e-35)
(23.100155 -1.3203185e-21 4.5968994e-35)
(23.100155 -4.5505198e-35 2.6247079e-21)
(23.100154 1.3181748e-21 1.3181748e-21)
(23.100154 -1.3334303e-21 -1.3334303e-21)
(23.100153 -1.3417171e-21 -2.6834343e-21)
(23.100153 0 -1.3382623e-21)
(23.100153 1.3292507e-21 -1.3292507e-21)
(23.100152 1.3169559e-21 9.1329535e-35)
(23.100152 -1.3084641e-21 2.6169282e-21)
(23.100152 1.3119131e-21 -3.7286812e-37)
(23.100151 -7.5343758e-37 3.7671879e-37)
(23.100151 -1.3346062e-21 1.0326903e-51)
(23.100151 1.3337142e-21 1.3337142e-21)
(23.10015 -1.3263992e-21 -9.198442e-35)
(23.10015 9.1678959e-35 1.8335792e-34)
(23.10015 1.3090814e-21 1.3090814e-21)
(23.100149 -1.3097535e-21 -1.3097535e-21)
(23.100149 1.3198696e-21 1.3198696e-21)
(23.100149 1.3272327e-21 4.602111e-35)
(23.100148 -1.3269718e-21 -1.3269718e-21)
(23.100148 0 1.3221249e-21)
(23.100148 0 -1.8682736e-37)
(23.100147 -1.3094932e-21 -1.3094932e-21)
(23.100147 -1.3111022e-21 0)
(23.100147 1.3174923e-21 1.3174923e-21)
(23.100146 1.3219905e-21 9.1490818e-35)
(23.100146 -1.3194577e-21 -2.6389155e-21)
(23.100145 -9.1065376e-35 1.3131467e-21)
(23.100145 1.3070818e-21 -3.71495e-37)
(23.100145 -1.3051154e-21 -1.3051154e-21)
(23.100144 -1.3117605e-21 1.3117605e-21)
(23.100144 0 -1.3165955e-21)
(23.100144 1.3144751e-21 1.3144751e-21)
(23.100143 1.3093152e-21 -5.4554225e-34)
(23.100143 0 -3.609374e-34)
(23.100143 -1.2959608e-21 1.2959608e-21)
(23.100142 -1.3000769e-21 -2.6001539e-21)
(23.100142 0 0)
(23.100142 1.3128807e-21 -9.1046927e-35)
(23.100141 2.7228733e-34 -2.7228733e-34)
(23.100141 -1.3011618e-21 1.3011618e-21)
(23.100141 1.2938987e-21 1.2938987e-21)
(23.10014 1.2913254e-21 8.900156e-35)
(23.10014 -1.2988703e-21 -1.2988703e-21)
(23.10014 -9.0141779e-35 1.3051777e-21)
(23.100139 8.972778e-35 8.972778e-35)
(23.100139 5.5405701e-37 5.5405701e-37)
(23.100139 1.291481e-21 1.7894223e-34)
(23.100138 -1.2859394e-21 -2.5718788e-21)
(23.100138 -1.7867359e-34 1.2882209e-21)
(23.100138 8.9197818e-35 1.2968468e-21)
(23.100137 -8.9640685e-35 -8.9640685e-35)
(23.100137 1.3011111e-21 8.9676017e-35)
(23.100137 0 -2.6929502e-34)
(23.100136 0 8.9153258e-35)
(23.100136 -1.2883599e-21 -1.2883599e-21)
(23.100136 -1.2891874e-21 0)
(23.100135 0 0)
(23.100135 0 0)
(23.100135 1.2928248e-21 0)
(23.100134 2.0543564e-53 -1.2926827e-21)
(23.100134 -1.291938e-21 2.6933451e-34)
(23.100134 0 1.2886107e-21)
(23.100133 1.2847134e-21 1.2847134e-21)
(23.100133 -1.2799381e-21 -1.2799381e-21)
(23.100133 -3.5375289e-34 -1.2765716e-21)
(23.100132 2.5599109e-21 2.5599109e-21)
(23.100132 -1.2836484e-21 8.8837279e-35)
(23.100131 -2.6651409e-34 -2.6651409e-34)
(23.100131 -1.8193808e-37 -1.2802754e-21)
(23.100131 -1.2736007e-21 -1.2736007e-21)
(23.100131 1.2688168e-21 1.2688168e-21)
(23.10013 -1.8054686e-37 0)
(23.10013 -1.7658757e-34 1.2757953e-21)
(23.100129 8.8519009e-35 8.8519009e-35)
(23.100129 -1.2762774e-21 -1.2762774e-21)
(23.100129 0 -1.2699271e-21)
(23.100129 1.264381e-21 1.7608576e-34)
(23.100128 8.7418316e-35 1.2631452e-21)
(23.100128 3.5197201e-34 -2.536388e-21)
(23.100128 1.2731995e-21 1.2731995e-21)
(23.100127 0 1.2713085e-21)
(23.100127 -1.2658192e-21 -1.2658192e-21)
(23.100127 -1.2601201e-21 1.2601201e-21)
(23.100126 0 0)
(23.100126 0 0)
(23.100126 0 0)
(23.100125 1.2642236e-21 1.2642236e-21)
(23.100125 8.7162788e-35 -1.259453e-21)
(23.100125 -1.2522696e-21 -2.5045391e-21)
(23.100124 0 1.2474026e-21)
(23.100124 0 -8.6828781e-35)
(23.100124 1.2550377e-21 1.2550377e-21)
(23.100123 1.2585196e-21 1.2585196e-21)
(23.100123 -1.2567195e-21 -2.5134391e-21)
(23.100123 -1.251963e-21 3.5582928e-37)
(23.100122 0 -3.548343e-37)
(23.100122 1.2474046e-21 1.2474046e-21)
(23.100122 1.2497311e-21 1.2497311e-21)
(23.100121 -1.2498182e-21 -2.4996364e-21)
(23.100121 -1.2460381e-21 1.7707267e-37)
(23.100121 0 -2.5874761e-34)
(23.10012 1.2409611e-21 1.2409611e-21)
(23.10012 -3.4570745e-34 -6.914149e-34)
(23.10012 -8.6518926e-35 -1.7303785e-34)
(23.100119 1.2423826e-21 1.2423826e-21)
(23.100119 -1.2348091e-21 -1.2348091e-21)
(23.100119 -1.2268791e-21 0)
(23.100118 0 -1.2216138e-21)
(23.100118 1.225745e-21 1.225745e-21)
(23.100118 -1.7172845e-34 1.235615e-21)
(23.100117 1.2407708e-21 -1.2407708e-21)
(23.100117 1.7146648e-34 0)
(23.100117 -2.456857e-21 -1.2284285e-21)
(23.100116 1.2212164e-21 1.2212164e-21)
(23.100116 -1.6858787e-34 1.2155038e-21)
(23.100116 -4.2189319e-34 -4.2189319e-34)
(23.100116 -8.4509863e-35 -2.4422394e-21)
(23.100115 -1.2272993e-21 -2.4545986e-21)
(23.100115 1.228022e-21 3.6840661e-21)
(23.100114 1.2224389e-21 2.4448778e-21)
(23.100114 0 0)
(23.100114 -1.2095541e-21 -2.4191082e-21)
(23.100114 -1.2053809e-21 -1.2053809e-21)
(23.100113 0 1.2097396e-21)
(23.100113 1.214802e-21 1.214802e-21)
(23.100113 1.2155254e-21 1.2155254e-21)
(23.100112 -2.4241848e-21 -2.4241848e-21)
(23.100112 -1.2055292e-21 -2.4110584e-21)
(23.100112 1.2007486e-21 1.2007486e-21)
(23.100111 1.2017712e-21 2.4035425e-21)
(23.100111 3.34136e-34 3.34136e-34)
(23.100111 -1.2052657e-21 -2.4105314e-21)
(23.10011 1.2024569e-21 1.2024569e-21)
(23.10011 -8.2889635e-35 -1.6577927e-34)
(23.10011 -1.1898609e-21 -1.1898609e-21)
(23.10011 1.1915122e-21 2.3830245e-21)
(23.100109 -8.3142517e-35 -1.1964488e-21)
(23.100109 8.3471731e-35 1.6694346e-34)
(23.100109 -3.3951732e-37 1.1945704e-21)
(23.100108 -8.1915538e-35 -1.1860686e-21)
(23.100108 1.1786246e-21 1.1786246e-21)
(23.100108 0 -2.3550957e-21)
(23.100107 0 4.9466811e-34)
(23.100107 -1.1913334e-21 2.3826667e-21)
(23.100107 -1.1879776e-21 -2.3759553e-21)
(23.100106 0 -8.1747252e-35)
(23.100106 0 1.1726318e-21)
(23.100106 0 0)
(23.100106 0 0)
(23.100105 1.1786763e-21 1.1786763e-21)
(23.100105 8.1375072e-35 -1.1806725e-21)
(23.100105 -2.3512097e-21 -2.3512097e-21)
(23.100104 4.9731452e-37 1.1665133e-21)
(23.100104 1.1586975e-21 -3.2932163e-37)
(23.100104 1.157741e-21 1.157741e-21)
(23.100103 -1.6193107e-34 1.1663138e-21)
(23.100103 -1.623873e-34 -1.171999e-21)
(23.100103 -1.6624703e-37 0)
(23.100103 -1.1637788e-21 -1.1637788e-21)
(23.100102 -1.1546937e-21 -1.1546937e-21)
(23.100102 -1.1483847e-21 0)
(23.100102 2.3011501e-21 2.3011501e-21)
(23.100101 3.4757049e-21 1.1585683e-21)
(23.100101 -1.1640505e-21 -2.328101e-21)
(23.100101 -2.3220224e-21 8.0349942e-35)
(23.1001 0 -3.281462e-37)
(23.1001 1.1484747e-21 1.1484747e-21)
(23.1001 1.1446245e-21 1.1446245e-21)
(23.1001 -1.1475009e-21 -1.1475009e-21)
(23.100099 3.2774525e-37 1.1531511e-21)
(23.100099 -4.9176845e-37 -1.1535043e-21)
(23.100099 3.2678705e-37 6.5357411e-37)
(23.100098 1.1463385e-21 2.2926769e-21)
(23.100098 1.1441558e-21 -1.1441558e-21)
(23.100098 -1.1447873e-21 -1.1447873e-21)
(23.100098 -2.2851424e-21 -1.1425712e-21)
(23.100097 1.1366763e-21 -1.5765466e-34)
(23.100097 -1.4839695e-52 1.1294379e-21)
(23.100097 1.1264932e-21 0)
(23.100096 3.1421568e-34 0)
(23.100096 -2.2762956e-21 -1.1381478e-21)
(23.100096 0 1.5752846e-34)
(23.100095 0 -3.1236665e-34)
(23.100095 2.2153318e-21 -1.539458e-34)
(23.100095 -6.087401e-34 1.0961176e-21)
(23.100095 -2.2078577e-21 -1.1039288e-21)
(23.100094 0 1.5965594e-37)
(23.100094 1.1358461e-21 1.1358461e-21)
(23.100094 1.1333133e-21 0)
(23.100093 -1.1199077e-21 0)
(23.100093 1.5677369e-37 0)
(23.100093 -1.5113957e-34 0)
(23.100093 1.5472257e-37 0)
(23.100092 1.1056897e-21 0)
(23.100092 -1.1234643e-21 0)
(23.100092 -1.1298232e-21 -1.1298232e-21)
(23.100091 0 0)
(23.100091 1.1113328e-21 1.1113328e-21)
(23.100091 -1.5276218e-34 0)
(23.100091 -1.0916071e-21 -1.0916071e-21)
(23.10009 2.185476e-21 -3.0312103e-34)
(23.10009 -3.0611383e-34 1.1035269e-21)
(23.10009 -1.1145878e-21 0)
(23.10009 -3.1024038e-34 0)
(23.100089 -2.2202425e-21 -1.1101212e-21)
(23.100089 2.2037052e-21 -1.5298127e-34)
(23.100089 1.0930145e-21 1.0930145e-21)
(23.100089 -1.0874787e-21 0)
(23.100088 -1.5534578e-37 0)
(23.100088 -1.1043596e-21 -1.1043596e-21)
(23.100088 0 -1.1098303e-21)
(23.100087 0 1.1041768e-21)
(23.100087 1.0957546e-21 1.0957546e-21)
(23.100087 -1.5076687e-34 0)
(23.100087 -2.1630535e-21 -1.0815267e-21)
(23.100086 1.5443004e-37 1.5443004e-37)
(23.100086 3.2874198e-21 1.0958066e-21)
(23.100086 -1.1001371e-21 -1.1001371e-21)
(23.100085 -1.0958952e-21 -1.0958952e-21)
(23.100085 2.1764076e-21 1.0882038e-21)
(23.100085 -1.0803762e-21 1.0803762e-21)
(23.100085 1.0774376e-21 0)
(23.100084 2.1698892e-21 -1.0849446e-21)
(23.100084 -1.0935163e-21 -1.0935163e-21)
(23.100084 -1.0949127e-21 1.0949127e-21)
(23.100084 -1.0883325e-21 1.0883325e-21)
(23.100083 1.0801046e-21 0)
(23.100083 -3.2912466e-52 -1.0716957e-21)
(23.100083 -1.0681652e-21 -1.0681652e-21)
(23.100083 1.0755909e-21 1.0755909e-21)
(23.100082 -1.0864201e-21 1.0864201e-21)
(23.100082 1.0908881e-21 0)
(23.100082 3.0100741e-34 0)
(23.100081 3.0686481e-37 0)
(23.100081 1.0732389e-21 0)
(23.100081 -2.1370938e-21 0)
(23.100081 1.0708739e-21 0)
(23.10008 2.9929646e-34 0)
(23.10008 -3.0015782e-34 0)
(23.10008 -1.0780824e-21 -1.0780824e-21)
(23.10008 -2.1423225e-21 -3.2383993e-51)
(23.100079 3.1882201e-21 1.06274e-21)
(23.100079 2.9356488e-34 0)
(23.100079 -5.9141669e-34 0)
(23.100078 2.9782661e-34 0)
(23.100078 -2.1527721e-21 -1.0763861e-21)
(23.100078 2.1382092e-21 -1.4828261e-34)
(23.100078 -2.929857e-34 1.0562006e-21)
(23.100078 -2.0893828e-21 -1.0446914e-21)
(23.100077 0 1.4512247e-34)
(23.100077 0 -1.5064633e-37)
(23.100077 1.0725113e-21 -1.4890752e-34)
(23.100076 -1.4892962e-34 1.0737695e-21)
(23.100076 -1.0647075e-21 -1.0647075e-21)
(23.100076 -1.0520597e-21 1.0520597e-21)
(23.100076 1.0399973e-21 -5.7786871e-34)
(23.100075 3.1159211e-21 -1.0386404e-21)
(23.100075 -1.0524538e-21 1.0524538e-21)
(23.100075 -1.067145e-21 0)
(23.100075 -3.0448491e-37 0)
(23.100074 -1.0633245e-21 -1.0633245e-21)
(23.100074 0 -1.4630597e-34)
(23.100074 2.0856442e-21 1.0428221e-21)
(23.100074 2.0732892e-21 -1.0366446e-21)
(23.100073 -1.0452561e-21 -1.0452561e-21)
(23.100073 -2.1195457e-21 0)
(23.100073 -1.0662737e-21 1.0662737e-21)
(23.100072 2.1181256e-21 1.0590628e-21)
(23.100072 2.0978393e-21 -1.0489197e-21)
(23.100072 -2.0744972e-21 -2.878759e-34)
(23.100072 -2.0612976e-21 -1.8389651e-51)
(23.100072 0 -1.4428947e-34)
(23.100071 2.1093047e-21 1.0546524e-21)
(23.100071 -1.0617734e-21 -1.0617734e-21)
(23.100071 -2.1103947e-21 -9.6630282e-51)
(23.10007 1.0453323e-21 -1.4513398e-34)
(23.10007 1.0338576e-21 -1.0338576e-21)
(23.10007 -1.4595628e-37 0)
(23.10007 1.4354908e-34 0)
(23.100069 1.0477271e-21 1.0477271e-21)
(23.100069 -1.055033e-21 1.4992921e-37)
(23.100069 -1.0515009e-21 -4.3752304e-34)
(23.100069 1.0446075e-21 1.0446075e-21)
(23.100068 -1.4375977e-34 0)
(23.100068 -1.4653841e-37 0)
(23.100068 -1.4348471e-34 -1.0345122e-21)
(23.100068 -1.0422905e-21 2.8897898e-34)
(23.100067 1.0475348e-21 1.0475348e-21)
(23.100067 -4.3561806e-34 0)
(23.100067 -1.4448408e-34 0)
(23.100067 -2.8739518e-34 0)
(23.100066 -1.0334764e-21 -1.0334764e-21)
(23.100066 1.0375737e-21 1.4744809e-37)
(23.100066 -1.4474423e-34 1.0425251e-21)
(23.100066 -2.8869516e-34 -1.0412668e-21)
(23.100065 -1.4722368e-37 1.0359946e-21)
(23.100065 -2.0601144e-21 -2.8631915e-34)
(23.100065 -1.0273251e-21 -2.0546501e-21)
(23.100065 1.0329582e-21 1.0329582e-21)
(23.100064 2.0787363e-21 4.3291778e-34)
(23.100064 -1.4402679e-34 1.4402679e-34)
(23.100064 -2.0624662e-21 -1.4317645e-34)
(23.100064 -1.0227754e-21 -1.0227754e-21)
(23.100064 2.0352424e-21 0)
(23.100063 1.0250047e-21 0)
(23.100063 -1.0321332e-21 1.0321332e-21)
(23.100063 -1.0323756e-21 1.4333508e-34)
(23.100062 -2.8459233e-34 -2.8459233e-34)
(23.100062 1.0101931e-21 5.6899885e-53)
(23.100062 0 -9.9881246e-22)
(23.100062 0 1.0036768e-21)
(23.100062 1.0209585e-21 1.0209585e-21)
(23.100061 0 0)
(23.100061 -1.0336187e-21 -1.0336187e-21)
(23.100061 1.0230265e-21 -1.4203705e-34)
(23.100061 1.4352304e-37 1.0099536e-21)
(23.10006 -2.7661509e-34 0)
(23.10006 0 0)
(23.10006 -1.0085427e-21 -1.0085427e-21)
(23.10006 1.0248857e-21 2.9129004e-37)
(23.100059 1.0315661e-21 2.0862488e-52)
(23.100059 -2.0528951e-21 -1.0264475e-21)
(23.100059 -1.0175533e-21 1.0175533e-21)
(23.100059 1.0084943e-21 -1.3973277e-34)
(23.100058 0 1.3893655e-34)
(23.100058 0 -2.7776712e-34)
(23.100058 -1.0101245e-21 -1.0101245e-21)
(23.100058 2.8335133e-34 1.0199017e-21)
(23.100057 1.0227458e-21 -2.8399617e-34)
(23.100057 0 2.8263118e-34)
(23.100057 0 -2.8078107e-34)
(23.100057 -1.0029214e-21 -1.0029214e-21)
(23.100057 4.1591639e-34 9.9820989e-22)
(23.100056 1.0042277e-21 -2.7885405e-34)
(23.100056 0 1.4080907e-34)
(23.100056 0 0)
(23.100055 0 -1.0121724e-21)
(23.100055 0 1.0056099e-21)
(23.100055 0 -1.3882384e-34)
(23.100055 0 1.4203144e-37)
(23.100055 0 -1.3947846e-34)
(23.100054 0 1.4030525e-34)
(23.100054 2.0167586e-21 1.0083793e-21)
(23.100054 5.5641736e-34 -1.0024166e-21)
(23.100054 -9.9655151e-22 -9.9655151e-22)
(23.100053 9.9541978e-22 9.9541978e-22)
(23.100053 -1.0011942e-21 1.0011942e-21)
(23.100053 1.0067141e-21 0)
(23.100053 -2.7916328e-34 -1.0043134e-21)
(23.100052 -9.9782052e-22 -9.9782052e-22)
(23.100052 -2.7493862e-34 0)
(23.100052 -9.8632442e-22 9.8632442e-22)
(23.100052 0 -1.3794943e-34)
(23.100052 0 1.4208645e-37)
(23.100051 9.9968994e-22 1.3865494e-34)
(23.100051 2.7643358e-34 -9.9551095e-22)
(23.100051 -9.8651291e-22 9.8651291e-22)
(23.100051 0 1.3595987e-34)
(23.10005 0 -2.73196e-34)
(23.10005 0 -9.92131e-22)
(23.10005 0 -9.9721856e-22)
(23.10005 0 1.9887044e-21)
(23.100049 0 -1.4023822e-37)
(23.100049 0 1.3581497e-34)
(23.100049 1.9540976e-21 9.7704879e-22)
(23.100049 -8.1998288e-34 -9.8499771e-22)
(23.100049 -1.9841914e-21 1.3774261e-34)
(23.100048 9.9022555e-22 9.9022555e-22)
(23.100048 1.3988511e-37 0)
(23.100048 9.7539525e-22 0)
(23.100048 -5.3770429e-34 0)
(23.100047 -1.9525711e-21 -9.7628556e-22)
(23.100047 -9.8318693e-22 -9.8318693e-22)
(23.100047 -4.710321e-52 9.841669e-22)
(23.100047 2.9359415e-21 9.7864718e-22)
(23.100047 0 0)
(23.100046 -1.9084707e-21 -9.5423537e-22)
(23.100046 0 -9.586007e-22)
(23.100046 0 9.7458476e-22)
(23.100046 1.9655851e-21 9.8279255e-22)
(23.100045 -2.7164953e-34 0)
(23.100045 -2.9102553e-21 -9.7008509e-22)
(23.100045 9.5326769e-22 -9.5326769e-22)
(23.100045 9.4216206e-22 9.4216206e-22)
(23.100045 -9.4932914e-22 2.6360981e-34)
(23.100044 9.6668947e-22 -9.6668947e-22)
(23.100044 -9.7786307e-22 0)
(23.100044 -2.7111697e-34 0)
(23.100044 9.6893767e-22 0)
(23.100043 -9.5831009e-22 0)
(23.100043 0 9.4796732e-22)
(23.100043 -9.4618936e-22 -2.6246903e-34)
(23.100043 9.5679958e-22 -9.5679958e-22)
(23.100043 1.9364527e-21 9.6822637e-22)
(23.100042 -9.7167364e-22 1.3490722e-34)
(23.100042 -9.6607216e-22 -1.3426679e-34)
(23.100042 -9.5912535e-22 2.2841088e-52)
(23.100042 -9.5096985e-22 9.5096985e-22)
(23.100041 1.8915024e-21 9.4575121e-22)
(23.100041 9.5130831e-22 -1.9026166e-21)
(23.100041 -9.5953698e-22 -1.3322216e-34)
(23.100041 0 1.3354033e-34)
(23.100041 9.5895571e-22 -9.5895571e-22)
(23.10004 -9.5211042e-22 0)
(23.10004 -9.4499549e-22 9.4499549e-22)
(23.10004 2.8268931e-21 9.422977e-22)
(23.10004 2.6966914e-37 -9.4881394e-22)
(23.100039 -1.9092983e-21 -2.6481575e-34)
(23.100039 9.5450341e-22 9.5450341e-22)
(23.100039 1.3203991e-34 0)
(23.100039 9.4494879e-22 0)
(23.100039 -2.6737405e-37 -9.4073881e-22)
(23.100038 -1.8857699e-21 1.3077621e-34)
(23.100038 9.4776127e-22 9.4776127e-22)
(23.100038 0 0)
(23.100038 -2.6267817e-34 -9.4597406e-22)
(23.100038 -1.3375836e-37 1.3375836e-37)
(23.100037 -9.3824984e-22 -2.6053331e-34)
(23.100037 9.3960869e-22 -1.3032179e-34)
(23.100037 -2.6173363e-34 9.4257252e-22)
(23.100037 -1.3056932e-34 -9.4139333e-22)
(23.100037 -1.3285984e-37 1.3285984e-37)
(23.100036 -9.2864701e-22 -2.578668e-34)
(23.100036 9.2815896e-22 -9.2815896e-22)
(23.100036 -7.5151092e-53 9.3393319e-22)
(23.100036 -2.6075012e-34 2.6075012e-34)
(23.100035 -1.3308846e-37 1.3308846e-37)
(23.100035 -1.8585794e-21 -1.2902263e-34)
(23.100035 -1.2777155e-34 -9.2122164e-22)
(23.100035 9.1812514e-22 9.1812514e-22)
(23.100035 0 0)
(23.100034 0 -5.1778736e-34)
(23.100034 -9.3155713e-22 -1.2920506e-34)
(23.100034 -3.8566522e-34 -3.8566522e-34)
(23.100034 9.1870382e-22 -1.3055567e-37)
(23.100034 -9.1333369e-22 -9.1333369e-22)
(23.100033 1.2749267e-34 9.1827009e-22)
(23.100033 2.2875202e-52 2.2875202e-52)
(23.100033 -1.2846813e-34 -1.2846813e-34)
(23.100033 9.2235889e-22 2.5612071e-34)
(23.100033 9.1329305e-22 -1.2680165e-34)
(23.100032 1.2576186e-34 1.813464e-21)
(23.100032 -9.1042259e-22 -9.1042259e-22)
(23.100032 0 -9.1803326e-22)
(23.100032 0 -1.2804746e-34)
(23.100032 9.1879461e-22 1.2756549e-34)
(23.100031 -9.0888481e-22 1.8177696e-21)
(23.100031 7.4875714e-34 -8.9943837e-22)
(23.100031 8.9912523e-22 -8.9912523e-22)
(23.100031 -9.1075391e-22 -1.6176387e-52)
(23.100031 0 0)
(23.10003 9.1569947e-22 4.890748e-52)
(23.10003 9.0984872e-22 -9.0984872e-22)
(23.10003 -8.9768398e-22 8.9768398e-22)
(23.10003 -8.8999843e-22 -3.8383056e-52)
(23.10003 0 -1.2436873e-34)
(23.100029 9.0974266e-22 -1.2928221e-37)
(23.100029 9.1725763e-22 -9.1725763e-22)
(23.100029 -1.8260231e-21 1.8260231e-21)
(23.100029 -9.0500205e-22 2.5130106e-34)
(23.100029 8.9365142e-22 -8.9365142e-22)
(23.100028 8.8687434e-22 1.2300765e-34)
(23.100028 1.2427283e-34 -1.2427283e-34)
(23.100028 9.1254616e-22 9.1254616e-22)
(23.100028 2.5462553e-34 -9.1697436e-22)
(23.100027 -1.8133068e-21 -3.4449134e-51)
(23.100027 0 -3.7189447e-34)
(23.100027 0 2.4013805e-34)
(23.100027 0 -2.3626853e-34)
(23.100027 8.7147873e-22 -2.419923e-34)
(23.100027 8.9649898e-22 -1.3859932e-52)
(23.100026 0 0)
(23.100026 -9.1438931e-22 9.1438931e-22)
(23.100026 -1.2628734e-34 0)
(23.100026 9.0860088e-22 0)
(23.100026 0 -9.0454861e-22)
(23.100025 0 -2.5026628e-34)
(23.100025 -8.9911236e-22 8.9911236e-22)
(23.100025 -1.2376394e-34 0)
(23.100025 1.2284291e-34 0)
(23.100025 -8.9034903e-22 -1.7806981e-21)
(23.100024 9.0132933e-22 -7.5033131e-34)
(23.100024 -3.7741964e-34 1.8141084e-21)
(23.100024 -9.0488982e-22 -9.0488982e-22)
(23.100024 0 1.278524e-37)
(23.100024 -8.89306e-22 -1.2347129e-34)
(23.100023 -1.2247182e-34 -8.8210725e-22)
(23.100023 8.8717589e-22 0)
(23.100023 -9.0042618e-22 0)
(23.100023 9.0785262e-22 0)
(23.100023 9.0460975e-22 -9.0460975e-22)
(23.100022 -8.9854234e-22 -2.4925195e-34)
(23.100022 0 8.8962426e-22)
(23.100022 8.8490894e-22 0)
(23.100022 8.9213395e-22 0)
(23.100022 -9.0216118e-22 -9.0216118e-22)
(23.100022 -9.076068e-22 1.2897868e-37)
(23.100021 0 9.0776288e-22)
(23.100021 -9.0578445e-22 0)
(23.100021 9.0464618e-22 0)
(23.100021 9.0542777e-22 -9.0542777e-22)
(23.100021 -9.0719875e-22 -2.516532e-34)
(23.10002 -1.8160968e-21 -2.5227601e-34)
(23.10002 5.0438011e-34 2.5219006e-34)
(23.10002 2.7218874e-21 9.0729579e-22)
(23.10002 -9.4600466e-53 -9.0683777e-22)
(23.10002 -9.0835273e-22 2.5210239e-34)
(23.100019 -1.8214693e-21 -2.5276347e-34)
(23.100019 5.0635686e-34 2.5317843e-34)
(23.100019 1.8280012e-21 9.1400061e-22)
(23.100019 -9.1501804e-22 0)
(23.100019 9.160599e-22 0)
(23.100018 -9.1709802e-22 -9.1709802e-22)
(23.100018 -9.1786248e-22 4.6087098e-52)
(23.100018 1.8364237e-21 9.1821184e-22)
(23.100018 0 0)
(23.100018 0 0)
(23.100017 -1.8374332e-21 -9.1871658e-22)
(23.100017 2.93254e-52 5.86508e-52)
(23.100017 1.8389257e-21 9.1946287e-22)
(23.100017 0 0)
(23.100017 0 0)
(23.100016 -1.8443886e-21 -9.221943e-22)
(23.100016 5.2470416e-52 1.0494083e-51)
(23.100016 1.8497739e-21 9.2488697e-22)
(23.100016 0 0)
(23.100016 0 0)
(23.100015 -1.8592411e-21 -9.2962053e-22)
(23.100015 -9.2977251e-22 1.3212862e-37)
(23.100015 1.8582744e-21 9.291372e-22)
(23.100015 9.2798863e-22 -9.2798863e-22)
(23.100015 0 2.5758916e-34)
(23.100014 -1.8531606e-21 -2.5742458e-34)
(23.100014 5.1423766e-34 2.5711883e-34)
(23.100014 1.8528769e-21 9.2643846e-22)
(23.100014 -9.2859622e-22 0)
(23.100014 0 0)
(23.100014 9.3441363e-22 0)
(23.100013 -9.3697933e-22 0)
(23.100013 1.3356721e-37 0)
(23.100013 9.4151236e-22 -9.4151236e-22)
(23.100013 -9.4043682e-22 2.6100695e-34)
(23.100012 9.382817e-22 9.382817e-22)
(23.100012 9.3619057e-22 0)
(23.100012 -9.3328154e-22 0)
(23.100012 -9.3245357e-22 0)
(23.100012 2.6023647e-34 0)
(23.100012 9.4481473e-22 0)
(23.100011 -9.49411e-22 0)
(23.100011 -2.6344893e-34 0)
(23.100011 9.4609463e-22 -9.4609463e-22)
(23.100011 -9.4338139e-22 5.2364836e-34)
(23.100011 9.4087625e-22 9.4087625e-22)
(23.10001 9.4138819e-22 0)
(23.10001 -9.4635755e-22 0)
(23.10001 -9.5216932e-22 0)
(23.10001 2.6544991e-34 0)
(23.10001 9.5702009e-22 0)
(23.100009 -9.5678103e-22 0)
(23.100009 1.3595017e-37 0)
(23.100009 9.5692295e-22 -9.5692295e-22)
(23.100009 -9.5724433e-22 2.6567167e-34)
(23.100009 9.5788881e-22 9.5788881e-22)
(23.100008 9.5918644e-22 0)
(23.100008 -9.6086109e-22 0)
(23.100008 -1.923934e-21 -9.6196702e-22)
(23.100008 5.3463613e-34 2.6731807e-34)
(23.100008 1.9248435e-21 9.6242173e-22)
(23.100007 -9.6254823e-22 0)
(23.100007 1.3681587e-37 0)
(23.100007 1.9275382e-21 0)
(23.100007 2.7438221e-37 -9.6539659e-22)
(23.100007 -9.6696493e-22 -2.6864433e-34)
(23.100006 0 9.6825321e-22)
(23.100006 9.6941859e-22 0)
(23.100006 0 0)
(23.100006 -9.7173665e-22 0)
(23.100006 0 0)
(23.100005 0 0)
(23.100005 0 0)
(23.100005 -9.7550066e-22 0)
(23.100005 2.3023017e-53 -9.762284e-22)
(23.100005 9.7676661e-22 1.3880688e-37)
(23.100004 0 9.7702602e-22)
(23.100004 9.7712795e-22 0)
(23.100004 -2.7132771e-34 0)
(23.100004 -9.7714933e-22 0)
(23.100003 0 0)
(23.100003 0 0)
(23.100003 0 0)
(23.100003 -9.7839796e-22 0)
(23.100003 2.7187278e-34 -9.7908628e-22)
(23.100002 9.7966771e-22 -1.3921916e-37)
(23.100002 0 9.8016167e-22)
(23.100002 9.8061587e-22 0)
(23.100002 2.7228065e-34 0)
(23.100002 -9.8122766e-22 0)
(23.100001 0 -9.8124255e-22)
(23.100001 9.8114725e-22 5.4475071e-34)
(23.100001 -9.8068516e-22 9.8068516e-22)
(23.100001 5.4454328e-34 0)
(23.100001 9.7931307e-22 -9.7931307e-22)
(23.1 -9.7874249e-22 -2.719164e-34)
(23.1 0 9.7833439e-22)
(23.1 -9.7804332e-22 0)
(23.1 -2.715898e-34 0)
(23.1 9.7834058e-22 -9.7834058e-22)
(23.099999 0 -9.7852717e-22)
(23.099999 9.7859402e-22 9.7859402e-22)
(23.099999 -9.7864905e-22 9.7864905e-22)
(23.099999 -5.4353334e-34 0)
(23.099999 9.7871414e-22 0)
(23.099998 -5.4337285e-34 0)
(23.099998 -1.3906295e-37 0)
(23.099998 2.7182758e-34 9.784228e-22)
(23.099998 -1.390134e-37 -1.390134e-37)
(23.099998 -9.7795618e-22 -1.9559124e-21)
(23.099997 0 -9.7763215e-22)
(23.099997 9.7723741e-22 1.9544748e-21)
(23.099997 -2.7108855e-34 1.9535239e-21)
(23.099997 -2.7093903e-34 -9.7622321e-22)
(23.099997 2.9731268e-53 -9.7563363e-22)
(23.099996 -2.7073612e-34 0)
(23.099996 0 0)
(23.099996 -1.9472378e-21 0)
(23.099996 -2.701553e-34 0)
(23.099996 9.7215781e-22 -9.7215781e-22)
(23.099995 -9.7138637e-22 -2.6987271e-34)
(23.099995 2.6937526e-34 9.7058876e-22)
(23.099995 9.6976729e-22 0)
(23.099995 9.6892396e-22 0)
(23.099995 2.6881129e-34 0)
(23.099995 -2.6856681e-34 0)
(23.099994 9.6628385e-22 0)
(23.099994 -9.6537008e-22 0)
(23.099994 -9.6443855e-22 0)
(23.099994 0 0)
(23.099994 -9.625159e-22 0)
(23.099993 2.6699486e-34 0)
(23.099993 9.6049923e-22 0)
(23.099993 0 0)
(23.099993 0 0)
(23.099993 0 0)
(23.099992 -1.9123153e-21 -9.5615767e-22)
(23.099992 1.0607328e-33 5.303664e-34)
(23.099992 1.9075966e-21 9.537983e-22)
(23.099992 0 0)
(23.099992 0 0)
(23.099991 0 9.4998139e-22)
(23.099991 0 -2.6341562e-34)
(23.099991 0 1.3461088e-37)
(23.099991 0 -9.4581326e-22)
(23.099991 0 -9.4434979e-22)
(23.09999 -1.8857031e-21 -5.2348824e-34)
(23.09999 5.2303004e-34 2.6151502e-34)
(23.09999 1.8793828e-21 9.3969138e-22)
(23.09999 9.3799889e-22 0)
(23.09999 -9.3618014e-22 0)
(23.099989 -9.3425981e-22 0)
(23.099989 2.5901718e-34 0)
(23.099989 5.1615996e-34 0)
(23.099989 9.2852306e-22 -9.2852306e-22)
(23.099989 -9.2685628e-22 5.1460738e-34)
(23.099989 9.2532035e-22 9.2532035e-22)
(23.099988 9.2386353e-22 0)
(23.099988 -9.2238832e-22 0)
(23.099988 -9.2085695e-22 0)
(23.099988 5.1028979e-34 0)
(23.099988 9.177719e-22 0)
(23.099987 9.1621906e-22 0)
(23.099987 -2.5372026e-34 0)
(23.099987 -9.1306835e-22 -9.1306835e-22)
(23.099987 -9.1147387e-22 5.0593726e-34)
(23.099987 9.0986499e-22 9.0986499e-22)
(23.099987 9.0824013e-22 0)
(23.099986 -9.0659827e-22 0)
(23.099986 9.0493794e-22 0)
(23.099986 0 0)
(23.099986 -9.0155717e-22 0)
(23.099986 -8.998359e-22 0)
(23.099986 2.4912823e-34 0)
(23.099985 8.9633783e-22 -8.9633783e-22)
(23.099985 -8.9456384e-22 7.4495348e-34)
(23.099985 8.9277893e-22 8.9277893e-22)
(23.099985 8.9097336e-22 0)
(23.099985 -8.891504e-22 0)
(23.099984 8.8728259e-22 0)
(23.099984 2.4584102e-34 0)
(23.099984 -8.8333894e-22 0)
(23.099984 -8.8127174e-22 0)