/*--------------------------------*- C++ -*----------------------------------*\
  =========                 |
  \\      /  F ield         | OpenFOAM: The Open Source CFD Toolbox
   \\    /   O peration     | Website:  https://openfoam.org
    \\  /    A nd           | Version:  7
     \\/     M anipulation  |
\*---------------------------------------------------------------------------*/
FoamFile
{
    version     2.0;
    format      ascii;
    class       surfaceScalarField;
    location    "0.00253";
    object      phi;
}
// * * * * * * * * * * * * * * * * * * * * * * * * * * * * * * * * * * * * * //

dimensions      [1 0 -1 0 0 0 0];

internalField   nonuniform List<scalar> 
4999
(
0.0037784967
0.0037784864
0.0037784775
0.0037784681
0.0037784587
0.0037784492
0.0037784396
0.0037784299
0.0037784202
0.0037784104
0.0037784007
0.003778391
0.0037783813
0.0037783717
0.0037783621
0.0037783526
0.003778343
0.0037783336
0.0037783241
0.0037783148
0.0037783054
0.0037782961
0.0037782869
0.0037782777
0.0037782685
0.0037782594
0.0037782504
0.0037782413
0.0037782324
0.0037782235
0.0037782146
0.0037782057
0.0037781969
0.0037781882
0.0037781795
0.0037781709
0.0037781622
0.0037781537
0.0037781452
0.0037781367
0.0037781283
0.0037781199
0.0037781115
0.0037781032
0.003778095
0.0037780868
0.0037780786
0.0037780705
0.0037780625
0.0037780544
0.0037780465
0.0037780385
0.0037780307
0.0037780228
0.003778015
0.0037780073
0.0037779996
0.0037779919
0.0037779843
0.0037779768
0.0037779693
0.0037779618
0.0037779544
0.0037779471
0.0037779397
0.0037779325
0.0037779253
0.0037779181
0.003777911
0.0037779039
0.0037778969
0.0037778899
0.003777883
0.0037778762
0.0037778693
0.0037778626
0.0037778559
0.0037778492
0.0037778426
0.003777836
0.0037778295
0.003777823
0.0037778166
0.0037778102
0.0037778039
0.0037777976
0.0037777914
0.0037777852
0.0037777791
0.003777773
0.003777767
0.003777761
0.0037777551
0.0037777492
0.0037777434
0.0037777376
0.0037777318
0.0037777262
0.0037777205
0.0037777149
0.0037777094
0.0037777039
0.0037776985
0.0037776931
0.0037776878
0.0037776825
0.0037776772
0.003777672
0.0037776669
0.0037776618
0.0037776567
0.0037776517
0.0037776468
0.0037776419
0.003777637
0.0037776322
0.0037776274
0.0037776227
0.003777618
0.0037776134
0.0037776088
0.0037776043
0.0037775998
0.0037775953
0.0037775909
0.0037775866
0.0037775823
0.0037775781
0.0037775739
0.0037775698
0.0037775657
0.0037775617
0.0037775578
0.0037775539
0.0037775501
0.0037775463
0.0037775425
0.0037775389
0.0037775353
0.0037775317
0.0037775282
0.0037775247
0.0037775213
0.0037775179
0.0037775146
0.0037775113
0.003777508
0.0037775047
0.0037775015
0.0037774984
0.0037774952
0.0037774921
0.0037774891
0.0037774861
0.0037774831
0.0037774802
0.0037774773
0.0037774745
0.0037774717
0.0037774689
0.0037774662
0.0037774636
0.0037774609
0.0037774584
0.0037774558
0.0037774533
0.0037774508
0.0037774484
0.003777446
0.0037774436
0.0037774413
0.003777439
0.0037774367
0.0037774344
0.0037774322
0.0037774299
0.0037774278
0.0037774256
0.0037774234
0.0037774213
0.0037774192
0.0037774171
0.0037774151
0.003777413
0.003777411
0.0037774091
0.0037774073
0.0037774055
0.0037774037
0.003777402
0.0037774002
0.0037773986
0.003777397
0.0037773954
0.0037773939
0.0037773925
0.0037773911
0.0037773897
0.0037773885
0.0037773872
0.0037773861
0.0037773849
0.0037773839
0.0037773829
0.0037773819
0.003777381
0.0037773802
0.0037773794
0.0037773787
0.003777378
0.0037773774
0.0037773769
0.0037773764
0.003777376
0.0037773756
0.0037773753
0.003777375
0.0037773748
0.0037773747
0.0037773746
0.0037773745
0.0037773745
0.0037773745
0.0037773747
0.003777375
0.0037773753
0.0037773757
0.0037773761
0.0037773766
0.0037773771
0.0037773776
0.0037773782
0.0037773789
0.0037773795
0.0037773802
0.0037773809
0.0037773817
0.0037773824
0.0037773832
0.003777384
0.0037773849
0.0037773858
0.0037773868
0.0037773877
0.0037773888
0.0037773898
0.003777391
0.0037773923
0.0037773936
0.003777395
0.0037773964
0.0037773979
0.0037773994
0.0037774009
0.0037774025
0.003777404
0.0037774057
0.0037774073
0.003777409
0.0037774108
0.0037774125
0.0037774143
0.0037774162
0.0037774181
0.00377742
0.0037774219
0.003777424
0.003777426
0.0037774281
0.0037774302
0.0037774324
0.0037774346
0.0037774368
0.0037774391
0.0037774414
0.0037774438
0.0037774462
0.0037774486
0.0037774511
0.0037774537
0.0037774563
0.0037774589
0.0037774616
0.0037774643
0.0037774671
0.0037774699
0.0037774728
0.0037774757
0.0037774787
0.0037774817
0.0037774848
0.0037774879
0.0037774911
0.0037774943
0.0037774976
0.0037775009
0.0037775043
0.0037775078
0.0037775113
0.0037775149
0.0037775186
0.0037775223
0.003777526
0.0037775298
0.0037775337
0.0037775376
0.0037775416
0.0037775456
0.0037775496
0.0037775537
0.0037775579
0.0037775621
0.0037775663
0.0037775707
0.0037775751
0.0037775795
0.003777584
0.0037775886
0.0037775932
0.0037775979
0.0037776026
0.0037776073
0.0037776121
0.003777617
0.0037776218
0.0037776268
0.003777632
0.0037776372
0.0037776426
0.003777648
0.0037776534
0.003777659
0.0037776647
0.0037776703
0.0037776758
0.0037776813
0.0037776868
0.0037776924
0.0037776982
0.003777704
0.0037777098
0.0037777157
0.0037777217
0.0037777277
0.0037777337
0.0037777399
0.0037777463
0.0037777527
0.0037777592
0.0037777656
0.0037777721
0.0037777787
0.0037777854
0.0037777922
0.0037777991
0.0037778061
0.0037778132
0.0037778203
0.0037778275
0.0037778348
0.0037778421
0.0037778495
0.003777857
0.0037778645
0.0037778721
0.0037778798
0.0037778875
0.0037778954
0.0037779033
0.0037779112
0.0037779193
0.0037779274
0.0037779355
0.0037779437
0.003777952
0.0037779603
0.0037779687
0.0037779772
0.0037779857
0.0037779942
0.0037780028
0.0037780114
0.0037780201
0.0037780288
0.0037780376
0.0037780464
0.0037780552
0.0037780641
0.003778073
0.003778082
0.003778091
0.0037781
0.0037781091
0.0037781182
0.0037781274
0.0037781366
0.0037781458
0.0037781551
0.0037781645
0.0037781738
0.0037781833
0.0037781927
0.0037782023
0.0037782118
0.0037782214
0.0037782311
0.0037782408
0.0037782506
0.0037782604
0.0037782703
0.0037782802
0.0037782902
0.0037783003
0.0037783104
0.0037783205
0.0037783307
0.003778341
0.0037783513
0.0037783617
0.0037783721
0.0037783826
0.0037783931
0.0037784037
0.0037784144
0.0037784251
0.0037784359
0.0037784467
0.0037784576
0.0037784685
0.0037784795
0.0037784906
0.0037785017
0.0037785129
0.0037785242
0.0037785355
0.0037785468
0.0037785582
0.0037785697
0.0037785813
0.0037785929
0.0037786046
0.0037786163
0.0037786281
0.00377864
0.0037786519
0.0037786639
0.0037786759
0.003778688
0.0037787002
0.0037787125
0.0037787248
0.0037787371
0.0037787496
0.0037787621
0.0037787747
0.0037787873
0.0037788
0.0037788128
0.0037788256
0.0037788385
0.0037788515
0.0037788645
0.0037788776
0.0037788908
0.003778904
0.0037789174
0.0037789307
0.0037789442
0.0037789577
0.0037789713
0.0037789849
0.0037789987
0.0037790124
0.0037790263
0.0037790402
0.0037790542
0.0037790683
0.0037790824
0.0037790966
0.0037791109
0.0037791252
0.0037791396
0.0037791541
0.0037791687
0.0037791833
0.003779198
0.0037792127
0.0037792276
0.0037792425
0.0037792574
0.0037792725
0.0037792876
0.0037793027
0.003779318
0.0037793333
0.0037793487
0.0037793642
0.0037793797
0.0037793953
0.003779411
0.0037794267
0.0037794426
0.0037794585
0.0037794744
0.0037794905
0.0037795066
0.0037795228
0.0037795391
0.0037795554
0.0037795718
0.0037795883
0.0037796049
0.0037796215
0.0037796383
0.0037796551
0.0037796719
0.0037796889
0.0037797059
0.0037797231
0.0037797403
0.0037797576
0.0037797749
0.0037797924
0.00377981
0.0037798276
0.0037798453
0.0037798631
0.003779881
0.003779899
0.0037799171
0.0037799353
0.0037799536
0.003779972
0.0037799904
0.003780009
0.0037800277
0.0037800464
0.0037800653
0.0037800842
0.0037801033
0.0037801224
0.0037801416
0.003780161
0.0037801804
0.0037801999
0.0037802195
0.0037802392
0.003780259
0.0037802789
0.0037802989
0.003780319
0.0037803392
0.0037803595
0.0037803799
0.0037804004
0.0037804209
0.0037804416
0.0037804624
0.0037804832
0.0037805042
0.0037805253
0.0037805464
0.0037805677
0.0037805891
0.0037806105
0.0037806321
0.0037806537
0.0037806755
0.0037806974
0.0037807193
0.0037807414
0.0037807636
0.0037807859
0.0037808083
0.0037808308
0.0037808534
0.0037808762
0.003780899
0.0037809219
0.003780945
0.0037809682
0.0037809914
0.0037810148
0.0037810384
0.003781062
0.0037810857
0.0037811096
0.0037811336
0.0037811578
0.0037811821
0.0037812065
0.003781231
0.0037812557
0.0037812804
0.0037813053
0.0037813304
0.0037813555
0.0037813808
0.0037814061
0.0037814316
0.0037814573
0.003781483
0.0037815088
0.0037815348
0.0037815609
0.003781587
0.0037816133
0.0037816398
0.0037816663
0.003781693
0.0037817198
0.0037817468
0.0037817738
0.003781801
0.0037818282
0.0037818557
0.0037818832
0.0037819108
0.0037819386
0.0037819666
0.0037819946
0.0037820228
0.0037820511
0.0037820796
0.0037821081
0.0037821368
0.0037821657
0.0037821947
0.0037822238
0.003782253
0.0037822824
0.0037823119
0.0037823415
0.0037823712
0.0037824012
0.0037824312
0.0037824614
0.0037824917
0.0037825222
0.0037825528
0.0037825836
0.0037826145
0.0037826456
0.0037826768
0.0037827082
0.0037827397
0.0037827713
0.0037828032
0.0037828351
0.0037828672
0.0037828995
0.0037829319
0.0037829645
0.0037829972
0.00378303
0.0037830631
0.0037830963
0.0037831297
0.0037831632
0.0037831969
0.0037832305
0.0037832642
0.0037832981
0.0037833322
0.0037833664
0.0037834009
0.0037834355
0.0037834702
0.0037835051
0.0037835402
0.0037835754
0.0037836107
0.0037836462
0.0037836818
0.0037837176
0.0037837536
0.0037837896
0.0037838259
0.0037838622
0.0037838988
0.0037839355
0.0037839723
0.0037840093
0.0037840465
0.0037840838
0.0037841213
0.0037841589
0.0037841968
0.0037842347
0.0037842729
0.0037843112
0.0037843497
0.0037843884
0.0037844272
0.0037844662
0.0037845053
0.0037845446
0.0037845841
0.0037846238
0.0037846636
0.0037847037
0.0037847438
0.0037847842
0.0037848247
0.0037848654
0.0037849063
0.0037849473
0.0037849886
0.0037850299
0.0037850715
0.0037851133
0.0037851552
0.0037851973
0.0037852396
0.003785282
0.0037853247
0.0037853675
0.0037854105
0.0037854537
0.0037854971
0.0037855406
0.0037855843
0.0037856283
0.0037856724
0.0037857167
0.0037857612
0.0037858058
0.0037858507
0.0037858958
0.003785941
0.0037859865
0.0037860321
0.0037860779
0.0037861239
0.0037861701
0.0037862165
0.0037862631
0.0037863099
0.0037863569
0.0037864041
0.0037864516
0.0037864992
0.003786547
0.003786595
0.0037866433
0.0037866918
0.0037867404
0.0037867893
0.0037868384
0.0037868878
0.0037869373
0.0037869871
0.003787037
0.0037870872
0.0037871377
0.0037871883
0.0037872392
0.0037872903
0.0037873417
0.0037873933
0.0037874451
0.0037874972
0.0037875495
0.003787602
0.0037876548
0.0037877078
0.0037877611
0.0037878146
0.0037878684
0.0037879224
0.0037879767
0.0037880312
0.003788086
0.0037881411
0.0037881964
0.003788252
0.0037883079
0.003788364
0.0037884204
0.0037884771
0.003788534
0.0037885912
0.0037886487
0.0037887065
0.0037887645
0.0037888229
0.0037888815
0.0037889404
0.0037889997
0.0037890592
0.003789119
0.0037891791
0.0037892395
0.0037893002
0.0037893612
0.0037894226
0.0037894842
0.0037895462
0.0037896085
0.0037896711
0.003789734
0.0037897973
0.0037898609
0.0037899248
0.0037899891
0.0037900537
0.0037901186
0.0037901839
0.0037902496
0.0037903156
0.0037903819
0.0037904486
0.0037905157
0.0037905831
0.003790651
0.0037907192
0.0037907877
0.0037908567
0.003790926
0.0037909958
0.0037910659
0.0037911364
0.0037912073
0.0037912787
0.0037913504
0.0037914226
0.0037914951
0.0037915681
0.0037916415
0.0037917154
0.0037917897
0.0037918644
0.0037919396
0.0037920152
0.0037920913
0.0037921679
0.0037922449
0.0037923224
0.0037924003
0.0037924788
0.0037925577
0.0037926372
0.0037927171
0.0037927976
0.0037928785
0.00379296
0.003793042
0.0037931245
0.0037932075
0.0037932911
0.0037933752
0.0037934599
0.0037935452
0.003793631
0.0037937174
0.0037938044
0.0037938919
0.0037939801
0.0037940689
0.0037941583
0.0037942483
0.0037943389
0.0037944301
0.003794522
0.0037946145
0.0037947077
0.0037948016
0.0037948961
0.0037949913
0.0037950872
0.0037951838
0.0037952811
0.0037953791
0.0037954778
0.0037955773
0.0037956775
0.0037957785
0.0037958802
0.0037959827
0.003796086
0.0037961901
0.0037962949
0.0037964006
0.0037965071
0.0037966145
0.0037967226
0.0037968317
0.0037969416
0.0037970523
0.003797164
0.0037972765
0.00379739
0.0037975044
0.0037976197
0.0037977359
0.0037978531
0.0037979713
0.0037980904
0.0037982105
0.0037983317
0.0037984538
0.0037985769
0.0037987011
0.0037988264
0.0037989527
0.0037990801
0.0037992086
0.0037993382
0.0037994689
0.0037996007
0.0037997337
0.0037998678
0.0038000031
0.0038001396
0.0038002773
0.0038004162
0.0038005563
0.0038006977
0.0038008403
0.0038009842
0.0038011293
0.0038012758
0.0038014236
0.0038015727
0.0038017232
0.003801875
0.0038020282
0.0038021828
0.0038023388
0.0038024962
0.003802655
0.0038028153
0.0038029771
0.0038031403
0.0038033051
0.0038034713
0.0038036391
0.0038038084
0.0038039793
0.0038041518
0.0038043259
0.0038045016
0.0038046789
0.0038048579
0.0038050385
0.0038052208
0.0038054048
0.0038055905
0.003805778
0.0038059672
0.0038061581
0.0038063509
0.0038065454
0.0038067417
0.0038069399
0.0038071399
0.0038073418
0.0038075456
0.0038077512
0.0038079588
0.0038081683
0.0038083798
0.0038085932
0.0038088086
0.0038090261
0.0038092455
0.003809467
0.0038096905
0.0038099162
0.0038101439
0.0038103737
0.0038106056
0.0038108397
0.0038110759
0.0038113143
0.0038115549
0.0038117978
0.0038120428
0.0038122901
0.0038125397
0.0038127915
0.0038130457
0.0038133021
0.0038135609
0.0038138221
0.0038140856
0.0038143516
0.0038146199
0.0038148906
0.0038151638
0.0038154395
0.0038157176
0.0038159982
0.0038162813
0.003816567
0.0038168552
0.0038171459
0.0038174393
0.0038177352
0.0038180338
0.0038183349
0.0038186388
0.0038189453
0.0038192545
0.0038195664
0.003819881
0.0038201984
0.0038205185
0.0038208414
0.003821167
0.0038214955
0.0038218268
0.003822161
0.003822498
0.0038228379
0.0038231807
0.0038235264
0.0038238751
0.0038242266
0.0038245812
0.0038249387
0.0038252992
0.0038256628
0.0038260294
0.003826399
0.0038267717
0.0038271475
0.0038275264
0.0038279085
0.0038282937
0.003828682
0.0038290735
0.0038294683
0.0038298662
0.0038302674
0.0038306718
0.0038310795
0.0038314905
0.0038319047
0.0038323224
0.0038327433
0.0038331676
0.0038335953
0.0038340264
0.0038344609
0.0038348989
0.0038353403
0.0038357852
0.0038362336
0.0038366854
0.0038371409
0.0038375999
0.0038380624
0.0038385285
0.0038389983
0.0038394717
0.0038399487
0.0038404294
0.0038409139
0.003841402
0.0038418938
0.0038423894
0.0038428888
0.003843392
0.003843899
0.0038444098
0.0038449245
0.0038454431
0.0038459656
0.003846492
0.0038470224
0.0038475567
0.003848095
0.0038486374
0.0038491838
0.0038497343
0.0038502888
0.0038508475
0.0038514103
0.0038519773
0.0038525485
0.0038531239
0.0038537036
0.0038542875
0.0038548757
0.0038554682
0.0038560651
0.0038566663
0.003857272
0.003857882
0.0038584966
0.0038591156
0.0038597392
0.0038603673
0.003861
0.0038616373
0.0038622793
0.0038629259
0.0038635773
0.0038642334
0.0038648943
0.0038655599
0.0038662305
0.0038669059
0.0038675862
0.0038682715
0.0038689618
0.0038696571
0.0038703575
0.003871063
0.0038717737
0.0038724895
0.0038732106
0.003873937
0.0038746687
0.0038754058
0.0038761483
0.0038768963
0.0038776498
0.0038784089
0.0038791736
0.0038799439
0.00388072
0.0038815019
0.0038822896
0.0038830832
0.0038838828
0.0038846884
0.0038855001
0.003886318
0.0038871421
0.0038879724
0.0038888091
0.0038896523
0.003890502
0.0038913583
0.0038922212
0.0038930909
0.0038939674
0.0038948509
0.0038957414
0.003896639
0.0038975438
0.003898456
0.0038993755
0.0039003026
0.0039012373
0.0039021798
0.0039031301
0.0039040884
0.0039050549
0.0039060296
0.0039070127
0.0039080043
0.0039090046
0.0039100138
0.003911032
0.0039120593
0.0039130959
0.0039141421
0.0039151979
0.0039162636
0.0039173394
0.0039184255
0.003919522
0.0039206293
0.0039217475
0.0039228769
0.0039240177
0.0039251702
0.0039263346
0.0039275113
0.0039287004
0.0039299024
0.0039311175
0.003932346
0.0039335883
0.0039348447
0.0039361156
0.0039374013
0.0039387023
0.0039400189
0.0039413516
0.0039427008
0.003944067
0.0039454506
0.0039468521
0.003948272
0.0039497109
0.0039511693
0.0039526477
0.0039541468
0.0039556672
0.0039572095
0.0039587744
0.0039603625
0.0039619746
0.0039636115
0.0039652738
0.0039669624
0.0039686781
0.0039704218
0.0039721943
0.0039739967
0.0039758298
0.0039776947
0.0039795923
0.0039815238
0.0039834903
0.0039854929
0.0039875329
0.0039896113
0.0039917297
0.0039938892
0.0039960913
0.0039983374
0.0040006289
0.0040029675
0.0040053547
0.0040077921
0.0040102814
0.0040128245
0.0040154231
0.0040180792
0.0040207947
0.0040235716
0.0040264121
0.0040293182
0.0040322923
0.0040353366
0.0040384536
0.0040416458
0.0040449156
0.0040482659
0.0040516992
0.0040552185
0.0040588267
0.0040625267
0.0040663218
0.0040702151
0.00407421
0.0040783099
0.0040825184
0.0040868391
0.0040912758
0.0040958324
0.0041005129
0.0041053216
0.0041102625
0.0041153403
0.0041205594
0.0041259245
0.0041314404
0.0041371122
0.0041429449
0.0041489439
0.0041551146
0.0041614626
0.0041679937
0.0041747138
0.0041816291
0.0041887458
0.0041960704
0.0042036096
0.0042113703
0.0042193595
0.0042275844
0.0042360526
0.0042447717
0.0042537495
0.0042629942
0.0042725141
0.0042823177
0.0042924139
0.0043028116
0.0043135201
0.004324549
0.0043359079
0.0043476069
0.0043596562
0.0043720665
0.0043848486
0.0043980134
0.0044115725
0.0044255374
0.0044399202
0.004454733
0.0044699886
0.0044856996
0.0045018794
0.0045185414
0.0045356994
0.0045533677
0.0045715607
0.0045902932
0.0046095805
0.0046294381
0.0046498818
0.004670928
0.0046925933
0.0047148947
0.0047378496
0.0047614758
0.0047857913
0.0048108149
0.0048365654
0.0048630623
0.0048903252
0.0049183745
0.0049472307
0.004976915
0.0050074487
0.0050388538
0.0050711527
0.0051043683
0.0051385237
0.0051736428
0.0052097496
0.005246869
0.005285026
0.0053242462
0.0053645557
0.0054059812
0.0054485497
0.0054922887
0.0055372263
0.0055833911
0.0056308122
0.0056795192
0.005729542
0.0057809115
0.0058336586
0.0058878151
0.005943413
0.0060004852
0.0060590649
0.0061191858
0.0061808822
0.006244189
0.0063091415
0.0063757757
0.0064441281
0.0065142356
0.0065861358
0.0066598668
0.0067354673
0.0068129763
0.0068924338
0.0069738798
0.0070573554
0.0071429017
0.0072305609
0.0073203753
0.0074123878
0.0075066422
0.0076031824
0.0077020531
0.0078032995
0.0079069671
0.0080131023
0.0081217517
0.0082329627
0.0083467831
0.0084632611
0.0085824455
0.0087043857
0.0088291315
0.0089567332
0.0090872416
0.0092207081
0.0093571844
0.0094967228
0.0096393759
0.009785197
0.0099342397
0.010086558
0.010242207
0.01040124
0.010563715
0.010729685
0.010899209
0.011072341
0.011249139
0.011429661
0.011613964
0.011802106
0.011994146
0.012190143
0.012390155
0.012594242
0.012802463
0.01301488
0.013231551
0.013452538
0.013677901
0.013907701
0.014142
0.014380859
0.01462434
0.014872505
0.015125415
0.015383133
0.015645722
0.015913243
0.016185759
0.016463334
0.01674603
0.017033909
0.017327036
0.017625472
0.01792928
0.018238525
0.018553268
0.018873572
0.019199502
0.019531119
0.019868486
0.020211666
0.020560723
0.020915717
0.021276713
0.021643771
0.022016954
0.022396325
0.022781944
0.023173873
0.023572174
0.023976907
0.024388133
0.024805913
0.025230307
0.025661374
0.026099175
0.026543768
0.026995212
0.027453566
0.027918888
0.028391235
0.028870664
0.029357233
0.029850998
0.030352014
0.030860338
0.031376023
0.031899124
0.032429695
0.03296779
0.033513461
0.03406676
0.034627739
0.035196448
0.035772939
0.036357261
0.036949462
0.037549593
0.038157699
0.038773829
0.03939803
0.040030345
0.040670822
0.041319503
0.041976434
0.042641656
0.043315211
0.043997142
0.044687488
0.04538629
0.046093586
0.046809415
0.047533814
0.04826682
0.049008469
0.049758795
0.050517833
0.051285616
0.052062177
0.052847548
0.053641758
0.054444838
0.055256817
0.056077724
0.056907585
0.057746427
0.058594276
0.059451155
0.06031709
0.061192103
0.062076216
0.06296945
0.063871825
0.064783361
0.065704076
0.066633987
0.067573112
0.068521466
0.069479064
0.070445919
0.071422046
0.072407456
0.073402159
0.074406168
0.075419491
0.076442137
0.077474113
0.078515427
0.079566084
0.08062609
0.081695448
0.082774163
0.083862236
0.084959669
0.086066464
0.087182619
0.088308135
0.089443009
0.090587238
0.091740821
0.092903751
0.094076024
0.095257635
0.096448577
0.097648841
0.098858421
0.10007731
0.10130549
0.10254296
0.1037897
0.1050457
0.10631096
0.10758545
0.10886916
0.11016208
0.11146419
0.11277547
0.11409592
0.1154255
0.1167642
0.11811201
0.1194689
0.12083485
0.12220984
0.12359386
0.12498687
0.12638885
0.12779978
0.12921965
0.13064841
0.13208605
0.13353254
0.13498785
0.13645196
0.13792484
0.13940647
0.1408968
0.14239582
0.1439035
0.1454198
0.14694469
0.14847815
0.15002014
0.15157062
0.15312958
0.15469697
0.15627276
0.15785691
0.1594494
0.16105019
0.16265925
0.16427653
0.165902
0.16753563
0.16917739
0.17082722
0.17248511
0.174151
0.17582486
0.17750666
0.17919635
0.18089391
0.18259927
0.18431242
0.18603331
0.18776189
0.18949814
0.191242
0.19299345
0.19475243
0.19651891
0.19829284
0.20007419
0.20186292
0.20365897
0.20546231
0.20727291
0.2090907
0.21091566
0.21274774
0.2145869
0.21643309
0.21828627
0.2201464
0.22201343
0.22388733
0.22576804
0.22765553
0.22954975
0.23145065
0.23335819
0.23527234
0.23719303
0.23912024
0.24105391
0.242994
0.24494047
0.24689327
0.24885236
0.25081769
0.25278922
0.2547669
0.25675069
0.25874054
0.26073641
0.26273826
0.26474603
0.26675969
0.26877919
0.27080448
0.27283552
0.27487227
0.27691467
0.27896269
0.28101628
0.2830754
0.28513999
0.28721002
0.28928545
0.29136621
0.29345228
0.29554361
0.29764014
0.29974184
0.30184867
0.30396057
0.3060775
0.30819943
0.31032629
0.31245806
0.31459468
0.31673611
0.31888231
0.32103323
0.32318883
0.32534906
0.32751388
0.32968325
0.33185712
0.33403545
0.33621819
0.33840531
0.34059674
0.34279247
0.34499243
0.34719659
0.3494049
0.35161732
0.35383381
0.35605431
0.3582788
0.36050723
0.36273955
0.36497572
0.3672157
0.36945944
0.37170691
0.37395806
0.37621284
0.37847122
0.38073315
0.3829986
0.38526751
0.38753984
0.38981556
0.39209463
0.39437699
0.39666261
0.39895145
0.40124346
0.40353861
0.40583685
0.40813814
0.41044244
0.4127497
0.41505989
0.41737297
0.41968889
0.42200762
0.4243291
0.42665331
0.4289802
0.43130973
0.43364185
0.43597654
0.43831374
0.44065342
0.44299554
0.44534006
0.44768693
0.45003612
0.45238759
0.45474129
0.45709719
0.45945524
0.46181541
0.46417766
0.46654194
0.46890822
0.47127646
0.47364662
0.47601865
0.47839252
0.4807682
0.48314563
0.48552478
0.48790562
0.49028809
0.49267217
0.49505781
0.49744498
0.49983363
0.50222373
0.50461523
0.50700811
0.50940231
0.5117978
0.51419455
0.5165925
0.51899163
0.5213919
0.52379326
0.52619568
0.52859912
0.53100354
0.53340891
0.53581517
0.5382223
0.54063026
0.543039
0.54544849
0.5478587
0.55026957
0.55268108
0.55509319
0.55750584
0.55991902
0.56233268
0.56474678
0.56716128
0.56957614
0.57199134
0.57440681
0.57682254
0.57923848
0.58165459
0.58407083
0.58648717
0.58890357
0.59131999
0.59373638
0.59615272
0.59856896
0.60098506
0.603401
0.60581672
0.60823218
0.61064736
0.61306222
0.6154767
0.61789078
0.62030442
0.62271758
0.62513021
0.62754228
0.62995376
0.6323646
0.63477477
0.63718422
0.63959292
0.64200083
0.6444079
0.64681411
0.64921941
0.65162377
0.65402713
0.65642948
0.65883076
0.66123093
0.66362996
0.66602782
0.66842445
0.67081982
0.67321389
0.67560662
0.67799798
0.68038792
0.6827764
0.68516339
0.68754884
0.68993272
0.69231498
0.69469559
0.6970745
0.69945169
0.70182709
0.70420069
0.70657243
0.70894228
0.71131019
0.71367613
0.71604006
0.71840194
0.72076172
0.72311937
0.72547484
0.72782811
0.73017911
0.73252782
0.73487419
0.73721819
0.73955977
0.74189889
0.74423552
0.7465696
0.74890111
0.75122999
0.75355622
0.75587973
0.75820051
0.7605185
0.76283367
0.76514597
0.76745536
0.7697618
0.77206525
0.77436566
0.77666301
0.77895723
0.78124831
0.78353618
0.78582081
0.78810216
0.79038019
0.79265486
0.79492611
0.79719392
0.79945824
0.80171902
0.80397623
0.80622983
0.80847976
0.810726
0.81296849
0.8152072
0.81744208
0.81967309
0.82190019
0.82412333
0.82634248
0.82855759
0.83076862
0.83297553
0.83517827
0.8373768
0.83957108
0.84176108
0.84394673
0.84612801
0.84830486
0.85047726
0.85264515
0.85480849
0.85696724
0.85912136
0.8612708
0.86341553
0.86555549
0.86769066
0.86982098
0.87194641
0.87406691
0.87618244
0.87829295
0.88039841
0.88249877
0.88459398
0.88668402
0.88876882
0.89084836
0.89292259
0.89499147
0.89705495
0.89911299
0.90116556
0.90321261
0.90525409
0.90728997
0.90932021
0.91134475
0.91336357
0.91537662
0.91738386
0.91938525
0.92138074
0.9233703
0.92535388
0.92733144
0.92930295
0.93126836
0.93322764
0.93518073
0.93712761
0.93906823
0.94100254
0.94293052
0.94485213
0.94676731
0.94867603
0.95057826
0.95247396
0.95436308
0.95624558
0.95812144
0.9599906
0.96185304
0.96370871
0.96555758
0.9673996
0.96923475
0.97106298
0.97288426
0.97469855
0.97650582
0.97830602
0.98009912
0.9818851
0.9836639
0.9854355
0.98719986
0.98895695
0.99070672
0.99244916
0.99418422
0.99591187
0.99763208
0.99934482
1.00105
1.0027477
1.0044378
1.0061204
1.0077952
1.0094624
1.0111219
1.0127737
1.0144178
1.016054
1.0176824
1.019303
1.0209157
1.0225205
1.0241174
1.0257064
1.0272873
1.0288602
1.0304252
1.031982
1.0335308
1.0350714
1.0366039
1.0381283
1.0396445
1.0411525
1.0426522
1.0441437
1.045627
1.0471019
1.0485685
1.0500269
1.0514768
1.0529184
1.0543516
1.0557764
1.0571928
1.0586007
1.0600002
1.0613912
1.0627737
1.0641477
1.0655133
1.0668702
1.0682187
1.0695586
1.0708899
1.0722126
1.0735268
1.0748323
1.0761293
1.0774176
1.0786973
1.0799684
1.0812308
1.0824846
1.0837297
1.0849662
1.086194
1.0874131
1.0886236
1.0898254
1.0910185
1.092203
1.0933788
1.0945459
1.0957043
1.096854
1.0979951
1.0991275
1.1002512
1.1013662
1.1024726
1.1035704
1.1046595
1.1057399
1.1068117
1.1078749
1.1089294
1.1099753
1.1110127
1.1120414
1.1130616
1.1140731
1.1150762
1.1160706
1.1170566
1.118034
1.1190029
1.1199633
1.1209153
1.1218588
1.1227939
1.1237205
1.1246387
1.1255486
1.1264501
1.1273432
1.128228
1.1291046
1.1299728
1.1308328
1.1316846
1.1325282
1.1333635
1.1341908
1.1350099
1.1358208
1.1366238
1.1374186
1.1382055
1.1389844
1.1397553
1.1405183
1.1412733
1.1420206
1.1427599
1.1434915
1.1442153
1.1449314
1.1456398
1.1463405
1.1470336
1.1477191
1.148397
1.1490674
1.1497303
1.1503858
1.1510338
1.1516745
1.1523079
1.152934
1.1535528
1.1541644
1.1547688
1.1553661
1.1559564
1.1565395
1.1571157
1.1576849
1.1582472
1.1588026
1.1593512
1.159893
1.1604281
1.1609565
1.1614782
1.1619933
1.1625019
1.1630039
1.1634995
1.1639887
1.1644715
1.1649479
1.1654181
1.1658821
1.1663399
1.1667915
1.1672371
1.1676766
1.1681101
1.1685377
1.1689595
1.1693753
1.1697854
1.1701898
1.1705884
1.1709814
1.1713688
1.1717507
1.1721271
1.1724981
1.1728636
1.1732238
1.1735787
1.1739284
1.1742729
1.1746123
1.1749465
1.1752758
1.1756
1.1759193
1.1762337
1.1765433
1.1768481
1.1771481
1.1774435
1.1777342
1.1780204
1.178302
1.1785791
1.1788518
1.1791201
1.1793841
1.1796437
1.1798992
1.1801504
1.1803975
1.1806405
1.1808795
1.1811144
1.1813454
1.1815725
1.1817958
1.1820153
1.182231
1.1824429
1.1826513
1.182856
1.1830571
1.1832547
1.1834489
1.1836396
1.1838269
1.1840108
1.1841915
1.1843689
1.1845432
1.1847142
1.1848821
1.185047
1.1852088
1.1853676
1.1855235
1.1856765
1.1858266
1.1859738
1.1861183
1.1862601
1.1863991
1.1865355
1.1866693
1.1868005
1.1869291
1.1870553
1.187179
1.1873002
1.1874191
1.1875356
1.1876498
1.1877617
1.1878714
1.1879789
1.1880842
1.1881873
1.1882884
1.1883874
1.1884844
1.1885794
1.1886724
1.1887634
1.1888526
1.1889399
1.1890254
1.1891091
1.189191
1.1892712
1.1893496
1.1894264
1.1895015
1.189575
1.1896469
1.1897173
1.1897861
1.1898534
1.1899193
1.1899836
1.1900466
1.1901081
1.1901683
1.1902271
1.1902847
1.1903409
1.1903958
1.1904495
1.190502
1.1905532
1.1906033
1.1906523
1.1907001
1.1907468
1.1907924
1.1908369
1.1908804
1.1909229
1.1909644
1.1910048
1.1910444
1.191083
1.1911206
1.1911574
1.1911932
1.1912282
1.1912624
1.1912957
1.1913282
1.1913599
1.1913909
1.191421
1.1914504
1.1914791
1.1915071
1.1915344
1.191561
1.1915869
1.1916122
1.1916368
1.1916608
1.1916842
1.191707
1.1917292
1.1917508
1.1917719
1.1917924
1.1918124
1.1918319
1.1918508
1.1918693
1.1918873
1.1919048
1.1919218
1.1919384
1.1919546
1.1919703
1.1919856
1.1920005
1.192015
1.1920291
1.1920428
1.1920561
1.1920691
1.1920817
1.1920939
1.1921059
1.1921175
1.1921288
1.1921397
1.1921504
1.1921607
1.1921708
1.1921806
1.1921901
1.1921993
1.1922083
1.192217
1.1922255
1.1922337
1.1922417
1.1922495
1.192257
1.1922643
1.1922714
1.1922783
1.192285
1.1922915
1.1922978
1.192304
1.1923099
1.1923157
1.1923213
1.1923267
1.1923319
1.192337
1.192342
1.1923468
1.1923514
1.192356
1.1923603
1.1923646
1.1923687
1.1923726
1.1923765
1.1923802
1.1923839
1.1923874
1.1923908
1.1923941
1.1923973
1.1924003
1.1924033
1.1924062
1.192409
1.1924117
1.1924144
1.1924169
1.1924194
1.1924217
1.192424
1.1924263
1.1924284
1.1924305
1.1924325
1.1924344
1.1924363
1.1924381
1.1924399
1.1924416
1.1924432
1.1924448
1.1924463
1.1924478
1.1924492
1.1924506
1.1924519
1.1924532
1.1924545
1.1924557
1.1924568
1.1924579
1.192459
1.1924601
1.192461
1.192462
1.1924629
1.1924638
1.1924647
1.1924655
1.1924663
1.1924671
1.1924678
1.1924685
1.1924692
1.1924699
1.1924705
1.1924711
1.1924717
1.1924723
1.1924728
1.1924733
1.1924738
1.1924743
1.1924748
1.1924752
1.1924757
1.1924761
1.1924765
1.1924768
1.1924772
1.1924775
1.1924779
1.1924782
1.1924785
1.1924788
1.192479
1.1924793
1.1924795
1.1924798
1.19248
1.1924802
1.1924804
1.1924806
1.1924808
1.192481
1.1924811
1.1924813
1.1924814
1.1924816
1.1924817
1.1924818
1.192482
1.1924821
1.1924822
1.1924823
1.1924824
1.1924825
1.1924825
1.1924826
1.1924827
1.1924827
1.1924828
1.1924829
1.1924829
1.1924829
1.192483
1.192483
1.192483
1.1924831
1.1924831
1.1924831
1.1924831
1.1924831
1.1924831
1.1924831
1.1924831
1.1924831
1.1924831
1.1924831
1.1924831
1.1924831
1.1924831
1.1924831
1.192483
1.192483
1.192483
1.192483
1.1924829
1.1924829
1.1924829
1.1924828
1.1924828
1.1924828
1.1924827
1.1924827
1.1924826
1.1924826
1.1924825
1.1924825
1.1924824
1.1924824
1.1924823
1.1924823
1.1924822
1.1924821
1.1924821
1.192482
1.192482
1.1924819
1.1924818
1.1924818