/*--------------------------------*- C++ -*----------------------------------*\
  =========                 |
  \\      /  F ield         | OpenFOAM: The Open Source CFD Toolbox
   \\    /   O peration     | Website:  https://openfoam.org
    \\  /    A nd           | Version:  7
     \\/     M anipulation  |
\*---------------------------------------------------------------------------*/
FoamFile
{
    version     2.0;
    format      ascii;
    class       volScalarField;
    location    "0.00172";
    object      rho;
}
// * * * * * * * * * * * * * * * * * * * * * * * * * * * * * * * * * * * * * //

dimensions      [1 -3 0 0 0 0 0];

internalField   nonuniform List<scalar> 
5000
(
1.2480903
1.2480912
1.2480923
1.2480931
1.2480944
1.2480957
1.2480971
1.2480987
1.2481003
1.2481022
1.2481042
1.2481063
1.2481087
1.2481112
1.2481138
1.2481167
1.2481197
1.2481229
1.2481263
1.2481299
1.2481336
1.2481376
1.2481418
1.2481461
1.2481507
1.2481555
1.2481605
1.2481657
1.2481711
1.2481767
1.2481826
1.2481887
1.2481951
1.2482017
1.2482085
1.2482156
1.2482229
1.2482305
1.2482384
1.2482466
1.248255
1.2482637
1.2482727
1.248282
1.2482916
1.2483015
1.2483118
1.2483223
1.2483332
1.2483445
1.248356
1.2483679
1.2483802
1.2483929
1.2484059
1.2484193
1.2484331
1.2484473
1.2484618
1.2484769
1.2484923
1.2485081
1.2485244
1.2485412
1.2485583
1.248576
1.2485941
1.2486127
1.2486318
1.2486514
1.2486715
1.2486921
1.2487133
1.248735
1.2487572
1.24878
1.2488033
1.2488273
1.2488518
1.2488768
1.2489025
1.2489289
1.2489558
1.2489834
1.2490116
1.2490404
1.2490699
1.2491001
1.249131
1.2491626
1.2491948
1.2492278
1.2492615
1.249296
1.2493311
1.2493671
1.2494037
1.2494412
1.2494794
1.2495185
1.2495583
1.2495989
1.2496404
1.2496827
1.2497258
1.2497698
1.2498147
1.2498604
1.249907
1.2499544
1.2500028
1.2500521
1.2501023
1.2501534
1.2502054
1.2502584
1.2503124
1.2503673
1.2504231
1.25048
1.2505378
1.2505966
1.2506564
1.2507172
1.2507791
1.2508419
1.2509058
1.2509708
1.2510367
1.2511038
1.2511718
1.251241
1.2513112
1.2513825
1.2514549
1.2515284
1.251603
1.2516786
1.2517554
1.2518333
1.2519123
1.2519925
1.2520737
1.2521561
1.2522397
1.2523244
1.2524102
1.2524972
1.2525853
1.2526746
1.252765
1.2528566
1.2529494
1.2530434
1.2531385
1.2532348
1.2533323
1.2534309
1.2535307
1.2536318
1.253734
1.2538373
1.2539419
1.2540477
1.2541546
1.2542628
1.2543721
1.2544826
1.2545943
1.2547072
1.2548213
1.2549366
1.255053
1.2551707
1.2552895
1.2554095
1.2555307
1.2556531
1.2557767
1.2559014
1.2560273
1.2561544
1.2562827
1.2564121
1.2565427
1.2566745
1.2568074
1.2569415
1.2570768
1.2572132
1.2573507
1.2574894
1.2576292
1.2577702
1.2579123
1.2580555
1.2581999
1.2583453
1.2584919
1.2586396
1.2587884
1.2589383
1.2590893
1.2592414
1.2593946
1.2595488
1.2597041
1.2598605
1.260018
1.2601765
1.2603361
1.2604967
1.2606584
1.2608211
1.2609848
1.2611495
1.2613153
1.261482
1.2616498
1.2618185
1.2619883
1.262159
1.2623307
1.2625034
1.262677
1.2628516
1.2630271
1.2632036
1.263381
1.2635593
1.2637386
1.2639188
1.2640998
1.2642818
1.2644646
1.2646483
1.2648329
1.2650184
1.2652047
1.2653919
1.2655799
1.2657688
1.2659585
1.266149
1.2663403
1.2665324
1.2667253
1.266919
1.2671135
1.2673087
1.2675047
1.2677015
1.267899
1.2680973
1.2682963
1.268496
1.2686964
1.2688975
1.2690994
1.2693019
1.2695051
1.269709
1.2699135
1.2701188
1.2703246
1.2705311
1.2707383
1.270946
1.2711544
1.2713634
1.271573
1.2717832
1.271994
1.2722053
1.2724173
1.2726298
1.2728428
1.2730564
1.2732705
1.2734852
1.2737003
1.273916
1.2741322
1.2743489
1.2745661
1.2747838
1.2750019
1.2752205
1.2754396
1.2756591
1.275879
1.2760994
1.2763202
1.2765414
1.2767631
1.2769851
1.2772075
1.2774303
1.2776535
1.2778771
1.278101
1.2783253
1.2785499
1.2787749
1.2790002
1.2792258
1.2794517
1.279678
1.2799045
1.2801314
1.2803585
1.2805859
1.2808135
1.2810415
1.2812696
1.2814981
1.2817267
1.2819556
1.2821847
1.2824141
1.2826436
1.2828734
1.2831033
1.2833334
1.2835637
1.2837942
1.2840248
1.2842556
1.2844866
1.2847177
1.2849489
1.2851802
1.2854117
1.2856432
1.2858749
1.2861067
1.2863385
1.2865705
1.2868025
1.2870346
1.2872667
1.2874989
1.2877312
1.2879634
1.2881957
1.2884281
1.2886604
1.2888928
1.2891251
1.2893575
1.2895898
1.2898222
1.2900544
1.2902867
1.2905189
1.2907511
1.2909832
1.2912153
1.2914472
1.2916791
1.2919109
1.2921427
1.2923743
1.2926058
1.2928372
1.2930685
1.2932997
1.2935307
1.2937616
1.2939923
1.2942229
1.2944533
1.2946835
1.2949136
1.2951435
1.2953732
1.2956027
1.295832
1.296061
1.2962899
1.2965185
1.2967469
1.2969751
1.297203
1.2974306
1.297658
1.2978852
1.298112
1.2983386
1.2985648
1.2987908
1.2990165
1.2992419
1.2994669
1.2996916
1.299916
1.3001401
1.3003638
1.3005871
1.3008101
1.3010328
1.301255
1.3014769
1.3016984
1.3019195
1.3021402
1.3023604
1.3025803
1.3027998
1.3030188
1.3032374
1.3034555
1.3036732
1.3038904
1.3041072
1.3043235
1.3045393
1.3047547
1.3049695
1.3051839
1.3053977
1.305611
1.3058238
1.3060361
1.3062479
1.3064591
1.3066698
1.3068799
1.3070895
1.3072985
1.3075069
1.3077147
1.307922
1.3081287
1.3083348
1.3085402
1.3087451
1.3089493
1.3091529
1.3093559
1.3095582
1.3097599
1.309961
1.3101613
1.3103611
1.3105601
1.3107585
1.3109562
1.3111532
1.3113494
1.311545
1.3117399
1.3119341
1.3121275
1.3123203
1.3125123
1.3127035
1.312894
1.3130837
1.3132727
1.313461
1.3136484
1.3138351
1.314021
1.3142061
1.3143904
1.3145739
1.3147566
1.3149385
1.3151196
1.3152998
1.3154793
1.3156579
1.3158356
1.3160125
1.3161886
1.3163638
1.3165381
1.3167116
1.3168842
1.3170559
1.3172268
1.3173967
1.3175658
1.317734
1.3179012
1.3180676
1.3182331
1.3183976
1.3185612
1.3187239
1.3188857
1.3190465
1.3192064
1.3193654
1.3195234
1.3196805
1.3198366
1.3199917
1.3201459
1.3202991
1.3204514
1.3206027
1.320753
1.3209023
1.3210507
1.321198
1.3213444
1.3214898
1.3216341
1.3217775
1.3219199
1.3220613
1.3222017
1.3223411
1.3224794
1.3226167
1.3227531
1.3228884
1.3230227
1.3231559
1.3232882
1.3234194
1.3235496
1.3236788
1.3238069
1.323934
1.3240601
1.3241851
1.3243091
1.3244321
1.324554
1.3246749
1.3247948
1.3249136
1.3250314
1.3251481
1.3252638
1.3253785
1.3254921
1.3256047
1.3257163
1.3258268
1.3259363
1.3260447
1.3261521
1.3262585
1.3263639
1.3264682
1.3265715
1.3266737
1.3267749
1.3268751
1.3269743
1.3270725
1.3271696
1.3272657
1.3273608
1.3274549
1.327548
1.32764
1.3277311
1.3278212
1.3279102
1.3279983
1.3280853
1.3281714
1.3282565
1.3283406
1.3284237
1.3285059
1.328587
1.3286672
1.3287465
1.3288247
1.328902
1.3289784
1.3290538
1.3291283
1.3292019
1.3292745
1.3293461
1.3294169
1.3294867
1.3295556
1.3296236
1.3296907
1.3297569
1.3298222
1.3298866
1.3299501
1.3300128
1.3300746
1.3301355
1.3301956
1.3302548
1.3303131
1.3303706
1.3304273
1.3304832
1.3305382
1.3305924
1.3306458
1.3306984
1.3307502
1.3308012
1.3308514
1.3309009
1.3309496
1.3309975
1.3310446
1.3310911
1.3311367
1.3311817
1.3312259
1.3312693
1.3313121
1.3313542
1.3313955
1.3314362
1.3314761
1.3315154
1.3315541
1.331592
1.3316293
1.331666
1.331702
1.3317374
1.3317721
1.3318062
1.3318397
1.3318726
1.3319049
1.3319366
1.3319678
1.3319983
1.3320283
1.3320577
1.3320866
1.3321149
1.3321427
1.3321699
1.3321966
1.3322228
1.3322485
1.3322736
1.3322983
1.3323225
1.3323462
1.3323694
1.3323921
1.3324144
1.3324363
1.3324576
1.3324786
1.3324991
1.3325191
1.3325388
1.332558
1.3325768
1.3325952
1.3326132
1.3326309
1.3326481
1.332665
1.3326815
1.3326976
1.3327134
1.3327288
1.3327439
1.3327586
1.332773
1.3327871
1.3328008
1.3328142
1.3328274
1.3328402
1.3328527
1.3328649
1.3328768
1.3328885
1.3328998
1.3329109
1.3329218
1.3329323
1.3329426
1.3329527
1.3329625
1.3329721
1.3329814
1.3329905
1.3329994
1.333008
1.3330164
1.3330246
1.3330326
1.3330404
1.333048
1.3330554
1.3330626
1.3330696
1.3330765
1.3330831
1.3330896
1.3330959
1.3331021
1.3331081
1.3331139
1.3331195
1.333125
1.3331304
1.3331356
1.3331406
1.3331456
1.3331503
1.333155
1.3331595
1.3331639
1.3331682
1.3331723
1.3331764
1.3331803
1.3331841
1.3331878
1.3331914
1.3331949
1.3331982
1.3332015
1.3332047
1.3332078
1.3332108
1.3332137
1.3332165
1.3332193
1.3332219
1.3332245
1.333227
1.3332294
1.3332318
1.3332341
1.3332363
1.3332384
1.3332405
1.3332425
1.3332445
1.3332463
1.3332482
1.3332499
1.3332516
1.3332533
1.3332549
1.3332565
1.333258
1.3332594
1.3332608
1.3332622
1.3332635
1.3332648
1.333266
1.3332672
1.3332684
1.3332695
1.3332706
1.3332716
1.3332726
1.3332736
1.3332745
1.3332754
1.3332763
1.3332772
1.333278
1.3332788
1.3332795
1.3332803
1.333281
1.3332817
1.3332823
1.333283
1.3332836
1.3332842
1.3332848
1.3332853
1.3332859
1.3332864
1.3332869
1.3332873
1.3332878
1.3332882
1.3332887
1.3332891
1.3332895
1.3332899
1.3332902
1.3332906
1.3332909
1.3332913
1.3332916
1.3332919
1.3332922
1.3332925
1.3332927
1.333293
1.3332932
1.3332935
1.3332937
1.3332939
1.3332942
1.3332944
1.3332946
1.3332948
1.3332949
1.3332951
1.3332953
1.3332955
1.3332956
1.3332958
1.3332959
1.333296
1.3332962
1.3332963
1.3332964
1.3332965
1.3332966
1.3332968
1.3332969
1.333297
1.333297
1.3332971
1.3332972
1.3332973
1.3332974
1.3332975
1.3332975
1.3332976
1.3332977
1.3332977
1.3332978
1.3332978
1.3332979
1.333298
1.333298
1.333298
1.3332981
1.3332981
1.3332982
1.3332982
1.3332982
1.3332983
1.3332983
1.3332983
1.3332984
1.3332984
1.3332984
1.3332984
1.3332985
1.3332985
1.3332985
1.3332985
1.3332986
1.3332986
1.3332986
1.3332986
1.3332986
1.3332986
1.3332987
1.3332987
1.3332987
1.3332987
1.3332987
1.3332987
1.3332987
1.3332987
1.3332987
1.3332987
1.3332987
1.3332987
1.3332987
1.3332987
1.3332987
1.3332987
1.3332987
1.3332988
1.3332988
1.3332987
1.3332987
1.3332987
1.3332987
1.3332987
1.3332987
1.3332987
1.3332987
1.3332987
1.3332987
1.3332987
1.3332987
1.3332987
1.3332987
1.3332987
1.3332987
1.3332987
1.3332987
1.3332987
1.3332987
1.3332987
1.3332987
1.3332987
1.3332987
1.3332987
1.3332987
1.3332987
1.3332987
1.3332987
1.3332987
1.3332987
1.3332987
1.3332987
1.3332987
1.3332987
1.3332987
1.3332987
1.3332987
1.3332987
1.3332987
1.3332987
1.3332987
1.3332987
1.3332987
1.3332987
1.3332987
1.3332987
1.3332987
1.3332987
1.3332987
1.3332987
1.3332987
1.3332986
1.3332986
1.3332986
1.3332986
1.3332986
1.3332986
1.3332986
1.3332986
1.3332986
1.3332986
1.3332986
1.3332986
1.3332986
1.3332986
1.3332986
1.3332986
1.3332986
1.3332986
1.3332986
1.3332986
1.3332986
1.3332986
1.3332986
1.3332986
1.3332986
1.3332986
1.3332986
1.3332986
1.3332986
1.3332986
1.3332986
1.3332986
1.3332986
1.3332986
1.3332986
1.3332986
1.3332986
1.3332986
1.3332986
1.3332986
1.3332986
1.3332986
1.3332986
1.3332986
1.3332986
1.3332986
1.3332986
1.3332986
1.3332986
1.3332986
1.3332986
1.3332986
1.3332986
1.3332986
1.3332986
1.3332986
1.3332986
1.3332986
1.3332985
1.3332985
1.3332985
1.3332985
1.3332985
1.3332985
1.3332985
1.3332985
1.3332985
1.3332985
1.3332985
1.3332985
1.3332985
1.3332985
1.3332985
1.3332985
1.3332985
1.3332985
1.3332985
1.3332985
1.3332985
1.3332985
1.3332985
1.3332985
1.3332985
1.3332985
1.3332985
1.3332984
1.3332984
1.3332984
1.3332984
1.3332984
1.3332984
1.3332984
1.3332984
1.3332984
1.3332984
1.3332984
1.3332984
1.3332984
1.3332984
1.3332984
1.3332984
1.3332984
1.3332984
1.3332984
1.3332984
1.3332984
1.3332984
1.3332983
1.3332983
1.3332983
1.3332983
1.3332983
1.3332983
1.3332983
1.3332983
1.3332983
1.3332983
1.3332983
1.3332983
1.3332983
1.3332983
1.3332983
1.3332983
1.3332983
1.3332983
1.3332983
1.3332983
1.3332983
1.3332983
1.3332983
1.3332983
1.3332983
1.3332983
1.3332983
1.3332982
1.3332982
1.3332982
1.3332982
1.3332982
1.3332982
1.3332982
1.3332982
1.3332982
1.3332982
1.3332982
1.3332982
1.3332982
1.3332982
1.3332982
1.3332982
1.3332982
1.3332982
1.3332982
1.3332982
1.3332982
1.3332982
1.3332982
1.3332982
1.3332982
1.3332981
1.3332981
1.3332981
1.3332981
1.3332981
1.3332981
1.3332981
1.3332981
1.3332981
1.3332981
1.3332981
1.3332981
1.3332981
1.3332981
1.3332981
1.3332981
1.3332981
1.3332981
1.3332981
1.3332981
1.3332981
1.333298
1.333298
1.333298
1.333298
1.333298
1.333298
1.333298
1.333298
1.333298
1.333298
1.333298
1.333298
1.333298
1.333298
1.333298
1.333298
1.333298
1.333298
1.333298
1.333298
1.3332979
1.3332979
1.3332979
1.3332979
1.3332979
1.3332979
1.3332979
1.3332979
1.3332979
1.3332979
1.3332979
1.3332979
1.3332979
1.3332979
1.3332979
1.3332979
1.3332979
1.3332979
1.3332979
1.3332978
1.3332978
1.3332978
1.3332978
1.3332978
1.3332978
1.3332978
1.3332978
1.3332978
1.3332978
1.3332978
1.3332978
1.3332978
1.3332978
1.3332978
1.3332978
1.3332978
1.3332978
1.3332978
1.3332978
1.3332978
1.3332978
1.3332977
1.3332977
1.3332977
1.3332977
1.3332977
1.3332977
1.3332977
1.3332977
1.3332977
1.3332977
1.3332977
1.3332977
1.3332977
1.3332977
1.3332977
1.3332977
1.3332977
1.3332977
1.3332977
1.3332977
1.3332976
1.3332976
1.3332976
1.3332976
1.3332976
1.3332976
1.3332976
1.3332976
1.3332976
1.3332976
1.3332976
1.3332976
1.3332976
1.3332976
1.3332976
1.3332976
1.3332975
1.3332975
1.3332975
1.3332975
1.3332975
1.3332975
1.3332975
1.3332975
1.3332975
1.3332975
1.3332975
1.3332975
1.3332975
1.3332975
1.3332975
1.3332975
1.3332975
1.3332975
1.3332975
1.3332974
1.3332974
1.3332974
1.3332974
1.3332974
1.3332974
1.3332974
1.3332974
1.3332974
1.3332974
1.3332974
1.3332974
1.3332974
1.3332974
1.3332974
1.3332974
1.3332974
1.3332974
1.3332974
1.3332974
1.3332973
1.3332973
1.3332973
1.3332973
1.3332973
1.3332973
1.3332973
1.3332973
1.3332973
1.3332973
1.3332973
1.3332973
1.3332973
1.3332973
1.3332973
1.3332973
1.3332973
1.3332972
1.3332972
1.3332972
1.3332972
1.3332972
1.3332972
1.3332972
1.3332972
1.3332972
1.3332972
1.3332972
1.3332972
1.3332972
1.3332972
1.3332972
1.3332972
1.3332972
1.3332972
1.3332972
1.3332972
1.3332971
1.3332971
1.3332971
1.3332971
1.3332971
1.3332971
1.3332971
1.3332971
1.3332971
1.3332971
1.3332971
1.3332971
1.3332971
1.3332971
1.3332971
1.3332971
1.3332971
1.333297
1.333297
1.333297
1.333297
1.333297
1.333297
1.333297
1.333297
1.333297
1.333297
1.333297
1.333297
1.333297
1.333297
1.333297
1.3332969
1.3332969
1.3332969
1.3332969
1.3332969
1.3332969
1.3332969
1.3332969
1.3332969
1.3332969
1.3332969
1.3332969
1.3332969
1.3332969
1.3332968
1.3332968
1.3332968
1.3332968
1.3332968
1.3332968
1.3332968
1.3332968
1.3332968
1.3332968
1.3332968
1.3332968
1.3332968
1.3332968
1.3332968
1.3332967
1.3332967
1.3332967
1.3332967
1.3332967
1.3332967
1.3332967
1.3332967
1.3332967
1.3332967
1.3332967
1.3332967
1.3332967
1.3332966
1.3332966
1.3332966
1.3332966
1.3332966
1.3332966
1.3332966
1.3332966
1.3332966
1.3332966
1.3332966
1.3332966
1.3332965
1.3332965
1.3332965
1.3332965
1.3332965
1.3332965
1.3332965
1.3332965
1.3332965
1.3332965
1.3332965
1.3332965
1.3332964
1.3332964
1.3332964
1.3332964
1.3332964
1.3332964
1.3332964
1.3332964
1.3332964
1.3332964
1.3332964
1.3332964
1.3332964
1.3332964
1.3332963
1.3332963
1.3332963
1.3332963
1.3332963
1.3332963
1.3332963
1.3332963
1.3332963
1.3332963
1.3332963
1.3332963
1.3332962
1.3332962
1.3332962
1.3332962
1.3332962
1.3332962
1.3332962
1.3332962
1.3332962
1.3332962
1.3332962
1.3332962
1.3332962
1.3332962
1.3332961
1.3332961
1.3332961
1.3332961
1.3332961
1.3332961
1.3332961
1.3332961
1.3332961
1.3332961
1.3332961
1.333296
1.333296
1.333296
1.333296
1.333296
1.333296
1.333296
1.333296
1.333296
1.333296
1.333296
1.333296
1.333296
1.333296
1.3332959
1.3332959
1.3332959
1.3332959
1.3332959
1.3332959
1.3332959
1.3332959
1.3332959
1.3332959
1.3332959
1.3332959
1.3332959
1.3332958
1.3332958
1.3332958
1.3332958
1.3332958
1.3332958
1.3332958
1.3332958
1.3332958
1.3332958
1.3332958
1.3332958
1.3332958
1.3332957
1.3332957
1.3332957
1.3332957
1.3332957
1.3332957
1.3332957
1.3332957
1.3332957
1.3332957
1.3332956
1.3332956
1.3332956
1.3332956
1.3332956
1.3332956
1.3332956
1.3332956
1.3332956
1.3332956
1.3332956
1.3332955
1.3332955
1.3332955
1.3332955
1.3332955
1.3332955
1.3332955
1.3332955
1.3332955
1.3332955
1.3332955
1.3332955
1.3332954
1.3332954
1.3332954
1.3332954
1.3332954
1.3332954
1.3332954
1.3332954
1.3332954
1.3332954
1.3332954
1.3332953
1.3332953
1.3332953
1.3332953
1.3332953
1.3332953
1.3332953
1.3332953
1.3332953
1.3332953
1.3332953
1.3332953
1.3332952
1.3332952
1.3332952
1.3332952
1.3332952
1.3332952
1.3332952
1.3332952
1.3332952
1.3332952
1.3332952
1.3332952
1.3332951
1.3332951
1.3332951
1.3332951
1.3332951
1.3332951
1.3332951
1.3332951
1.3332951
1.333295
1.333295
1.333295
1.333295
1.333295
1.333295
1.333295
1.333295
1.333295
1.333295
1.333295
1.333295
1.3332949
1.3332949
1.3332949
1.3332949
1.3332949
1.3332949
1.3332949
1.3332949
1.3332949
1.3332949
1.3332948
1.3332948
1.3332948
1.3332948
1.3332948
1.3332948
1.3332948
1.3332948
1.3332948
1.3332948
1.3332947
1.3332947
1.3332947
1.3332947
1.3332947
1.3332947
1.3332947
1.3332947
1.3332947
1.3332947
1.3332946
1.3332946
1.3332946
1.3332946
1.3332946
1.3332946
1.3332946
1.3332946
1.3332946
1.3332945
1.3332945
1.3332945
1.3332945
1.3332945
1.3332945
1.3332945
1.3332945
1.3332945
1.3332945
1.3332944
1.3332944
1.3332944
1.3332944
1.3332944
1.3332944
1.3332944
1.3332944
1.3332943
1.3332943
1.3332943
1.3332943
1.3332943
1.3332943
1.3332943
1.3332943
1.3332943
1.3332943
1.3332942
1.3332942
1.3332942
1.3332942
1.3332942
1.3332942
1.3332942
1.3332942
1.3332942
1.3332942
1.3332941
1.3332941
1.3332941
1.3332941
1.3332941
1.3332941
1.3332941
1.3332941
1.3332941
1.333294
1.333294
1.333294
1.333294
1.333294
1.333294
1.333294
1.3332939
1.3332939
1.3332939
1.3332939
1.3332939
1.3332939
1.3332939
1.3332939
1.3332939
1.3332938
1.3332938
1.3332938
1.3332938
1.3332938
1.3332938
1.3332938
1.3332938
1.3332938
1.3332937
1.3332937
1.3332937
1.3332937
1.3332937
1.3332937
1.3332937
1.3332937
1.3332937
1.3332936
1.3332936
1.3332936
1.3332936
1.3332936
1.3332936
1.3332936
1.3332936
1.3332936
1.3332935
1.3332935
1.3332935
1.3332935
1.3332935
1.3332935
1.3332935
1.3332934
1.3332934
1.3332934
1.3332934
1.3332934
1.3332934
1.3332934
1.3332934
1.3332933
1.3332933
1.3332933
1.3332933
1.3332933
1.3332933
1.3332933
1.3332933
1.3332932
1.3332932
1.3332932
1.3332932
1.3332932
1.3332932
1.3332932
1.3332931
1.3332931
1.3332931
1.3332931
1.3332931
1.3332931
1.3332931
1.3332931
1.333293
1.333293
1.333293
1.333293
1.333293
1.333293
1.333293
1.333293
1.333293
1.3332929
1.3332929
1.3332929
1.3332929
1.3332929
1.3332929
1.3332929
1.3332928
1.3332928
1.3332928
1.3332928
1.3332928
1.3332928
1.3332928
1.3332927
1.3332927
1.3332927
1.3332927
1.3332927
1.3332927
1.3332927
1.3332927
1.3332926
1.3332926
1.3332926
1.3332926
1.3332926
1.3332926
1.3332926
1.3332925
1.3332925
1.3332925
1.3332925
1.3332925
1.3332925
1.3332925
1.3332925
1.3332924
1.3332924
1.3332924
1.3332924
1.3332924
1.3332924
1.3332924
1.3332923
1.3332923
1.3332923
1.3332923
1.3332923
1.3332923
1.3332923
1.3332922
1.3332922
1.3332922
1.3332922
1.3332922
1.3332922
1.3332922
1.3332921
1.3332921
1.3332921
1.3332921
1.3332921
1.3332921
1.333292
1.333292
1.333292
1.333292
1.333292
1.333292
1.333292
1.3332919
1.3332919
1.3332919
1.3332919
1.3332919
1.3332919
1.3332919
1.3332918
1.3332918
1.3332918
1.3332918
1.3332918
1.3332918
1.3332917
1.3332917
1.3332917
1.3332917
1.3332917
1.3332917
1.3332916
1.3332916
1.3332916
1.3332916
1.3332916
1.3332916
1.3332915
1.3332915
1.3332915
1.3332915
1.3332915
1.3332915
1.3332914
1.3332914
1.3332914
1.3332914
1.3332914
1.3332913
1.3332913
1.3332913
1.3332913
1.3332913
1.3332913
1.3332912
1.3332912
1.3332912
1.3332912
1.3332912
1.3332912
1.3332911
1.3332911
1.3332911
1.3332911
1.3332911
1.333291
1.333291
1.333291
1.333291
1.333291
1.3332909
1.3332909
1.3332909
1.3332909
1.3332909
1.3332909
1.3332908
1.3332908
1.3332908
1.3332908
1.3332908
1.3332907
1.3332907
1.3332907
1.3332907
1.3332907
1.3332907
1.3332906
1.3332906
1.3332906
1.3332906
1.3332906
1.3332905
1.3332905
1.3332905
1.3332905
1.3332905
1.3332905
1.3332904
1.3332904
1.3332904
1.3332904
1.3332904
1.3332903
1.3332903
1.3332903
1.3332903
1.3332903
1.3332902
1.3332902
1.3332902
1.3332902
1.3332902
1.3332901
1.3332901
1.3332901
1.3332901
1.3332901
1.3332901
1.33329
1.33329
1.33329
1.33329
1.33329
1.3332899
1.3332899
1.3332899
1.3332899
1.3332899
1.3332898
1.3332898
1.3332898
1.3332898
1.3332898
1.3332898
1.3332897
1.3332897
1.3332897
1.3332897
1.3332897
1.3332896
1.3332896
1.3332896
1.3332896
1.3332895
1.3332895
1.3332895
1.3332895
1.3332895
1.3332895
1.3332894
1.3332894
1.3332894
1.3332894
1.3332894
1.3332893
1.3332893
1.3332893
1.3332893
1.3332893
1.3332892
1.3332892
1.3332892
1.3332892
1.3332892
1.3332891
1.3332891
1.3332891
1.3332891
1.3332891
1.333289
1.333289
1.333289
1.333289
1.333289
1.3332889
1.3332889
1.3332889
1.3332889
1.3332888
1.3332888
1.3332888
1.3332888
1.3332888
1.3332887
1.3332887
1.3332887
1.3332887
1.3332887
1.3332886
1.3332886
1.3332886
1.3332886
1.3332886
1.3332885
1.3332885
1.3332885
1.3332885
1.3332884
1.3332884
1.3332884
1.3332884
1.3332883
1.3332883
1.3332883
1.3332883
1.3332883
1.3332882
1.3332882
1.3332882
1.3332882
1.3332881
1.3332881
1.3332881
1.3332881
1.333288
1.333288
1.333288
1.333288
1.3332879
1.3332879
1.3332879
1.3332879
1.3332879
1.3332878
1.3332878
1.3332878
1.3332878
1.3332877
1.3332877
1.3332877
1.3332877
1.3332876
1.3332876
1.3332876
1.3332876
1.3332875
1.3332875
1.3332875
1.3332875
1.3332874
1.3332874
1.3332874
1.3332874
1.3332873
1.3332873
1.3332873
1.3332872
1.3332872
1.3332872
1.3332872
1.3332871
1.3332871
1.3332871
1.3332871
1.333287
1.333287
1.333287
1.333287
1.333287
1.3332869
1.3332869
1.3332869
1.3332869
1.3332868
1.3332868
1.3332868
1.3332867
1.3332867
1.3332867
1.3332866
1.3332866
1.3332866
1.3332866
1.3332865
1.3332865
1.3332865
1.3332865
1.3332864
1.3332864
1.3332864
1.3332863
1.3332863
1.3332863
1.3332863
1.3332862
1.3332862
1.3332862
1.3332862
1.3332861
1.3332861
1.3332861
1.333286
1.333286
1.333286
1.333286
1.3332859
1.3332859
1.3332859
1.3332858
1.3332858
1.3332858
1.3332858
1.3332857
1.3332857
1.3332857
1.3332856
1.3332856
1.3332856
1.3332855
1.3332855
1.3332855
1.3332855
1.3332854
1.3332854
1.3332854
1.3332853
1.3332853
1.3332853
1.3332852
1.3332852
1.3332852
1.3332851
1.3332851
1.3332851
1.333285
1.333285
1.333285
1.3332849
1.3332849
1.3332849
1.3332849
1.3332848
1.3332848
1.3332848
1.3332847
1.3332847
1.3332847
1.3332846
1.3332846
1.3332846
1.3332845
1.3332845
1.3332845
1.3332844
1.3332844
1.3332844
1.3332843
1.3332843
1.3332843
1.3332842
1.3332842
1.3332842
1.3332841
1.3332841
1.333284
1.333284
1.333284
1.333284
1.3332839
1.3332839
1.3332839
1.3332838
1.3332838
1.3332838
1.3332837
1.3332837
1.3332836
1.3332836
1.3332836
1.3332835
1.3332835
1.3332835
1.3332834
1.3332834
1.3332833
1.3332833
1.3332833
1.3332832
1.3332832
1.3332832
1.3332831
1.3332831
1.333283
1.333283
1.333283
1.3332829
1.3332829
1.3332829
1.3332828
1.3332828
1.3332827
1.3332827
1.3332827
1.3332826
1.3332826
1.3332826
1.3332825
1.3332825
1.3332824
1.3332824
1.3332824
1.3332823
1.3332823
1.3332822
1.3332822
1.3332822
1.3332821
1.3332821
1.333282
1.333282
1.333282
1.3332819
1.3332819
1.3332818
1.3332818
1.3332817
1.3332817
1.3332817
1.3332816
1.3332816
1.3332815
1.3332815
1.3332815
1.3332814
1.3332814
1.3332813
1.3332813
1.3332813
1.3332812
1.3332812
1.3332811
1.3332811
1.333281
1.333281
1.3332809
1.3332809
1.3332808
1.3332808
1.3332808
1.3332807
1.3332807
1.3332806
1.3332806
1.3332805
1.3332805
1.3332804
1.3332804
1.3332804
1.3332803
1.3332803
1.3332802
1.3332802
1.3332801
1.3332801
1.33328
1.33328
1.3332799
1.3332799
1.3332798
1.3332798
1.3332797
1.3332797
1.3332796
1.3332796
1.3332795
1.3332795
1.3332794
1.3332794
1.3332793
1.3332793
1.3332792
1.3332792
1.3332791
1.3332791
1.333279
1.333279
1.3332789
1.3332789
1.3332788
1.3332787
1.3332787
1.3332786
1.3332786
1.3332785
1.3332785
1.3332784
1.3332784
1.3332783
1.3332783
1.3332782
1.3332782
1.3332781
1.333278
1.333278
1.3332779
1.3332779
1.3332778
1.3332778
1.3332777
1.3332776
1.3332776
1.3332775
1.3332775
1.3332774
1.3332774
1.3332773
1.3332772
1.3332772
1.3332771
1.3332771
1.333277
1.3332769
1.3332769
1.3332768
1.3332768
1.3332767
1.3332766
1.3332766
1.3332765
1.3332764
1.3332764
1.3332763
1.3332763
1.3332762
1.3332761
1.3332761
1.333276
1.3332759
1.3332759
1.3332758
1.3332757
1.3332757
1.3332756
1.3332756
1.3332755
1.3332754
1.3332754
1.3332753
1.3332752
1.3332752
1.3332751
1.333275
1.333275
1.3332749
1.3332748
1.3332747
1.3332747
1.3332746
1.3332745
1.3332745
1.3332744
1.3332743
1.3332742
1.3332742
1.3332741
1.333274
1.3332739
1.3332739
1.3332738
1.3332737
1.3332736
1.3332736
1.3332735
1.3332734
1.3332734
1.3332733
1.3332732
1.3332731
1.3332731
1.333273
1.3332729
1.3332728
1.3332727
1.3332727
1.3332726
1.3332725
1.3332724
1.3332723
1.3332723
1.3332722
1.3332721
1.333272
1.3332719
1.3332718
1.3332718
1.3332717
1.3332716
1.3332715
1.3332714
1.3332714
1.3332713
1.3332712
1.3332711
1.333271
1.3332709
1.3332708
1.3332707
1.3332707
1.3332706
1.3332705
1.3332704
1.3332703
1.3332702
1.3332701
1.33327
1.3332699
1.3332698
1.3332697
1.3332696
1.3332695
1.3332694
1.3332693
1.3332692
1.3332691
1.333269
1.3332689
1.3332688
1.3332687
1.3332686
1.3332685
1.3332684
1.3332683
1.3332682
1.3332681
1.333268
1.3332679
1.3332678
1.3332677
1.3332676
1.3332675
1.3332674
1.3332673
1.3332672
1.3332671
1.3332669
1.3332668
1.3332667
1.3332666
1.3332665
1.3332664
1.3332663
1.3332662
1.333266
1.3332659
1.3332658
1.3332657
1.3332655
1.3332654
1.3332653
1.3332652
1.333265
1.3332649
1.3332648
1.3332647
1.3332645
1.3332644
1.3332643
1.3332642
1.333264
1.3332639
1.3332638
1.3332636
1.3332635
1.3332634
1.3332632
1.3332631
1.333263
1.3332628
1.3332627
1.3332625
1.3332624
1.3332622
1.3332621
1.3332619
1.3332618
1.3332616
1.3332615
1.3332613
1.3332612
1.333261
1.3332609
1.3332607
1.3332606
1.3332604
1.3332603
1.3332601
1.33326
1.3332598
1.3332597
1.3332595
1.3332594
1.3332592
1.333259
1.3332588
1.3332587
1.3332585
1.3332583
1.3332581
1.333258
1.3332578
1.3332576
1.3332574
1.3332572
1.333257
1.3332568
1.3332566
1.3332564
1.3332562
1.333256
1.3332558
1.3332556
1.3332554
1.3332552
1.333255
1.3332548
1.3332546
1.3332544
1.3332542
1.333254
1.3332538
1.3332536
1.3332534
1.3332531
1.3332529
1.3332527
1.3332525
1.3332522
1.333252
1.3332517
1.3332515
1.3332513
1.333251
1.3332508
1.3332505
1.3332503
1.33325
1.3332498
1.3332495
1.3332493
1.333249
1.3332488
1.3332485
1.3332482
1.3332479
1.3332477
1.3332474
1.3332471
1.3332468
1.3332465
1.3332462
1.3332459
1.3332456
1.3332453
1.333245
1.3332447
1.3332443
1.333244
1.3332437
1.3332434
1.333243
1.3332427
1.3332423
1.333242
1.3332416
1.3332413
1.3332409
1.3332405
1.3332402
1.3332398
1.3332394
1.333239
1.3332386
1.3332382
1.3332378
1.3332374
1.333237
1.3332366
1.3332362
1.3332357
1.3332353
1.3332348
1.3332344
1.3332339
1.3332335
1.333233
1.3332325
1.333232
1.3332315
1.333231
1.3332305
1.3332299
1.3332294
1.3332289
1.3332284
1.3332279
1.3332273
1.3332268
1.3332263
1.3332257
1.3332252
1.3332246
1.3332241
1.3332235
1.333223
1.3332225
1.3332219
1.3332214
1.3332209
1.3332204
1.3332199
1.3332195
1.333219
1.3332186
1.3332182
1.3332179
1.3332176
1.3332173
1.333217
1.3332168
1.3332167
1.3332165
1.3332164
1.3332164
1.3332163
1.3332163
1.3332163
1.3332163
1.3332164
1.3332165
1.3332167
1.3332168
1.3332169
1.333217
1.3332171
1.3332172
1.3332172
1.3332172
1.3332172
1.3332172
1.3332171
1.3332169
1.3332164
1.3332158
1.3332152
1.3332144
1.3332135
1.3332126
1.3332116
1.3332105
1.3332094
1.3332082
1.333207
1.3332057
1.3332044
1.3332031
1.3332019
1.3332006
1.3331994
1.3331982
1.3331972
1.3331961
1.3331952
1.3331943
1.3331936
1.3331929
1.3331924
1.3331919
1.3331916
1.3331914
1.3331913
1.3331912
1.333191
1.3331905
1.3331893
1.3331866
1.3331799
1.3331634
1.3331225
1.3330209
1.3327671
1.3321421
1.330613
1.3281361
1.3250635
1.3214616
1.317427
1.3130766
1.3085372
1.3039356
1.2993907
1.2950064
1.2908676
1.2870383
1.2835612
1.2804589
1.2777368
1.2753857
1.2733855
1.2717083
1.2703213
1.2691898
1.2682787
1.2675544
1.2669859
1.2665451
1.2662076
1.2659525
1.2657621
1.265622
1.2655203
1.2654478
1.2653969
1.2653621
1.2653389
1.265324
1.265315
1.2653101
1.2653078
1.2653072
1.2653073
1.2653081
1.2653105
1.2653135
1.2653162
1.2653188
1.2653211
1.2653234
1.2653254
1.2653274
1.2653292
1.2653309
1.2653326
1.2653341
1.2653356
1.2653371
1.2653386
1.26534
1.2653415
1.265343
1.2653445
1.2653462
1.2653478
1.2653496
1.2653514
1.2653533
1.2653552
1.2653572
1.2653593
1.2653614
1.2653635
1.2653656
1.2653677
1.2653698
1.2653719
1.265374
1.265376
1.2653779
1.2653798
1.2653816
1.2653833
1.265385
1.2653865
1.265388
1.2653894
1.2653908
1.2653921
1.2653933
1.2653944
1.2653955
1.2653966
1.2653976
1.2653985
1.2653994
1.2654003
1.2654011
1.2654019
1.2654027
1.2654034
1.2654041
1.2654048
1.2654055
1.2654062
1.2654068
1.2654074
1.265408
1.2654086
1.2654092
1.2654098
1.2654103
1.2654109
1.2654114
1.2654119
1.2654124
1.2654129
1.2654134
1.2654139
1.2654144
1.2654148
1.2654153
1.2654158
1.2654162
1.2654167
1.2654171
1.2654175
1.2654179
1.2654184
1.2654188
1.2654192
1.2654196
1.2654199
1.2654203
1.2654207
1.2654211
1.2654214
1.2654218
1.2654222
1.2654225
1.2654229
1.2654232
1.2654235
1.2654239
1.2654242
1.2654245
1.2654249
1.2654252
1.2654255
1.2654258
1.2654261
1.2654264
1.2654267
1.265427
1.2654273
1.2654276
1.2654279
1.2654281
1.2654284
1.2654287
1.265429
1.2654292
1.2654295
1.2654297
1.26543
1.2654303
1.2654305
1.2654308
1.265431
1.2654312
1.2654315
1.2654317
1.265432
1.2654322
1.2654324
1.2654327
1.2654329
1.2654331
1.2654333
1.2654336
1.2654338
1.265434
1.2654342
1.2654344
1.2654346
1.2654348
1.265435
1.2654353
1.2654355
1.2654357
1.2654359
1.2654361
1.2654362
1.2654364
1.2654366
1.2654368
1.265437
1.2654372
1.2654374
1.2654376
1.2654377
1.2654379
1.2654381
1.2654383
1.2654384
1.2654386
1.2654388
1.2654389
1.2654391
1.2654393
1.2654395
1.2654396
1.2654398
1.2654399
1.2654401
1.2654403
1.2654404
1.2654406
1.2654407
1.2654409
1.265441
1.2654412
1.2654413
1.2654415
1.2654416
1.2654418
1.2654419
1.2654421
1.2654422
1.2654424
1.2654425
1.2654427
1.2654428
1.2654429
1.2654431
1.2654432
1.2654433
1.2654435
1.2654436
1.2654437
1.2654439
1.265444
1.2654441
1.2654442
1.2654444
1.2654445
1.2654446
1.2654447
1.2654449
1.265445
1.2654451
1.2654452
1.2654454
1.2654455
1.2654456
1.2654457
1.2654459
1.265446
1.2654461
1.2654462
1.2654463
1.2654464
1.2654465
1.2654467
1.2654468
1.2654469
1.265447
1.2654471
1.2654472
1.2654473
1.2654474
1.2654475
1.2654476
1.2654477
1.2654478
1.2654479
1.265448
1.2654481
1.2654483
1.2654484
1.2654485