/*--------------------------------*- C++ -*----------------------------------*\
  =========                 |
  \\      /  F ield         | OpenFOAM: The Open Source CFD Toolbox
   \\    /   O peration     | Website:  https://openfoam.org
    \\  /    A nd           | Version:  7
     \\/     M anipulation  |
\*---------------------------------------------------------------------------*/
FoamFile
{
    version     2.0;
    format      ascii;
    class       volScalarField;
    location    "0.00263";
    object      p;
}
// * * * * * * * * * * * * * * * * * * * * * * * * * * * * * * * * * * * * * //

dimensions      [1 -1 -2 0 0 0 0];

internalField   nonuniform List<scalar> 
5000
(
99788.975
99788.976
99788.976
99788.976
99788.976
99788.977
99788.977
99788.977
99788.977
99788.977
99788.978
99788.978
99788.978
99788.978
99788.978
99788.979
99788.979
99788.979
99788.979
99788.98
99788.98
99788.98
99788.98
99788.98
99788.981
99788.981
99788.981
99788.981
99788.982
99788.982
99788.982
99788.982
99788.982
99788.983
99788.983
99788.983
99788.983
99788.984
99788.984
99788.984
99788.984
99788.984
99788.985
99788.985
99788.985
99788.985
99788.986
99788.986
99788.986
99788.986
99788.986
99788.987
99788.987
99788.987
99788.987
99788.988
99788.988
99788.988
99788.988
99788.989
99788.989
99788.989
99788.989
99788.989
99788.99
99788.99
99788.99
99788.99
99788.991
99788.991
99788.991
99788.991
99788.991
99788.992
99788.992
99788.992
99788.992
99788.993
99788.993
99788.993
99788.993
99788.993
99788.994
99788.994
99788.994
99788.994
99788.995
99788.995
99788.995
99788.995
99788.995
99788.996
99788.996
99788.996
99788.996
99788.997
99788.997
99788.997
99788.997
99788.997
99788.998
99788.998
99788.998
99788.998
99788.999
99788.999
99788.999
99788.999
99788.999
99789
99789
99789
99789
99789.001
99789.001
99789.001
99789.001
99789.001
99789.002
99789.002
99789.002
99789.002
99789.003
99789.003
99789.003
99789.003
99789.004
99789.004
99789.004
99789.004
99789.004
99789.005
99789.005
99789.005
99789.005
99789.006
99789.006
99789.006
99789.006
99789.006
99789.007
99789.007
99789.007
99789.007
99789.008
99789.008
99789.008
99789.008
99789.008
99789.009
99789.009
99789.009
99789.009
99789.01
99789.01
99789.01
99789.01
99789.01
99789.011
99789.011
99789.011
99789.011
99789.012
99789.012
99789.012
99789.012
99789.013
99789.013
99789.013
99789.013
99789.013
99789.014
99789.014
99789.014
99789.014
99789.015
99789.015
99789.015
99789.015
99789.015
99789.016
99789.016
99789.016
99789.016
99789.017
99789.017
99789.017
99789.017
99789.017
99789.018
99789.018
99789.018
99789.018
99789.019
99789.019
99789.019
99789.019
99789.019
99789.02
99789.02
99789.02
99789.02
99789.021
99789.021
99789.021
99789.021
99789.022
99789.022
99789.022
99789.022
99789.022
99789.023
99789.023
99789.023
99789.023
99789.024
99789.024
99789.024
99789.024
99789.024
99789.025
99789.025
99789.025
99789.025
99789.026
99789.026
99789.026
99789.026
99789.027
99789.027
99789.027
99789.027
99789.027
99789.028
99789.028
99789.028
99789.028
99789.029
99789.029
99789.029
99789.029
99789.03
99789.03
99789.03
99789.03
99789.03
99789.031
99789.031
99789.031
99789.031
99789.032
99789.032
99789.032
99789.032
99789.033
99789.033
99789.033
99789.033
99789.033
99789.034
99789.034
99789.034
99789.034
99789.035
99789.035
99789.035
99789.035
99789.036
99789.036
99789.036
99789.036
99789.037
99789.037
99789.037
99789.037
99789.037
99789.038
99789.038
99789.038
99789.038
99789.039
99789.039
99789.039
99789.039
99789.04
99789.04
99789.04
99789.04
99789.041
99789.041
99789.041
99789.041
99789.042
99789.042
99789.042
99789.042
99789.043
99789.043
99789.043
99789.043
99789.043
99789.044
99789.044
99789.044
99789.044
99789.045
99789.045
99789.045
99789.045
99789.046
99789.046
99789.046
99789.046
99789.047
99789.047
99789.047
99789.047
99789.048
99789.048
99789.048
99789.048
99789.049
99789.049
99789.049
99789.049
99789.05
99789.05
99789.05
99789.05
99789.051
99789.051
99789.051
99789.051
99789.052
99789.052
99789.052
99789.052
99789.053
99789.053
99789.053
99789.053
99789.054
99789.054
99789.054
99789.054
99789.055
99789.055
99789.055
99789.056
99789.056
99789.056
99789.056
99789.057
99789.057
99789.057
99789.057
99789.058
99789.058
99789.058
99789.058
99789.059
99789.059
99789.059
99789.059
99789.06
99789.06
99789.06
99789.06
99789.061
99789.061
99789.061
99789.062
99789.062
99789.062
99789.062
99789.063
99789.063
99789.063
99789.063
99789.064
99789.064
99789.064
99789.064
99789.065
99789.065
99789.065
99789.066
99789.066
99789.066
99789.066
99789.067
99789.067
99789.067
99789.067
99789.068
99789.068
99789.068
99789.068
99789.069
99789.069
99789.069
99789.07
99789.07
99789.07
99789.07
99789.071
99789.071
99789.071
99789.071
99789.072
99789.072
99789.072
99789.073
99789.073
99789.073
99789.073
99789.074
99789.074
99789.074
99789.075
99789.075
99789.075
99789.075
99789.076
99789.076
99789.076
99789.077
99789.077
99789.077
99789.077
99789.078
99789.078
99789.078
99789.079
99789.079
99789.079
99789.079
99789.08
99789.08
99789.08
99789.081
99789.081
99789.081
99789.081
99789.082
99789.082
99789.082
99789.083
99789.083
99789.083
99789.084
99789.084
99789.084
99789.084
99789.085
99789.085
99789.085
99789.086
99789.086
99789.086
99789.087
99789.087
99789.087
99789.087
99789.088
99789.088
99789.088
99789.089
99789.089
99789.089
99789.09
99789.09
99789.09
99789.09
99789.091
99789.091
99789.091
99789.092
99789.092
99789.092
99789.093
99789.093
99789.093
99789.094
99789.094
99789.094
99789.094
99789.095
99789.095
99789.095
99789.096
99789.096
99789.096
99789.097
99789.097
99789.097
99789.098
99789.098
99789.098
99789.099
99789.099
99789.099
99789.099
99789.1
99789.1
99789.1
99789.101
99789.101
99789.101
99789.102
99789.102
99789.102
99789.103
99789.103
99789.103
99789.104
99789.104
99789.104
99789.105
99789.105
99789.105
99789.106
99789.106
99789.106
99789.107
99789.107
99789.107
99789.108
99789.108
99789.108
99789.109
99789.109
99789.109
99789.109
99789.11
99789.11
99789.11
99789.111
99789.111
99789.111
99789.112
99789.112
99789.112
99789.113
99789.113
99789.114
99789.114
99789.114
99789.115
99789.115
99789.115
99789.116
99789.116
99789.116
99789.117
99789.117
99789.117
99789.118
99789.118
99789.118
99789.119
99789.119
99789.119
99789.12
99789.12
99789.12
99789.121
99789.121
99789.121
99789.122
99789.122
99789.122
99789.123
99789.123
99789.124
99789.124
99789.124
99789.125
99789.125
99789.125
99789.126
99789.126
99789.126
99789.127
99789.127
99789.127
99789.128
99789.128
99789.129
99789.129
99789.129
99789.13
99789.13
99789.13
99789.131
99789.131
99789.131
99789.132
99789.132
99789.133
99789.133
99789.133
99789.134
99789.134
99789.134
99789.135
99789.135
99789.136
99789.136
99789.136
99789.137
99789.137
99789.137
99789.138
99789.138
99789.139
99789.139
99789.139
99789.14
99789.14
99789.14
99789.141
99789.141
99789.142
99789.142
99789.142
99789.143
99789.143
99789.144
99789.144
99789.144
99789.145
99789.145
99789.145
99789.146
99789.146
99789.147
99789.147
99789.147
99789.148
99789.148
99789.149
99789.149
99789.149
99789.15
99789.15
99789.15
99789.151
99789.151
99789.152
99789.152
99789.152
99789.153
99789.153
99789.154
99789.154
99789.154
99789.155
99789.155
99789.156
99789.156
99789.156
99789.157
99789.157
99789.158
99789.158
99789.158
99789.159
99789.159
99789.16
99789.16
99789.16
99789.161
99789.161
99789.162
99789.162
99789.163
99789.163
99789.163
99789.164
99789.164
99789.165
99789.165
99789.165
99789.166
99789.166
99789.167
99789.167
99789.168
99789.168
99789.168
99789.169
99789.169
99789.17
99789.17
99789.17
99789.171
99789.171
99789.172
99789.172
99789.173
99789.173
99789.173
99789.174
99789.174
99789.175
99789.175
99789.176
99789.176
99789.176
99789.177
99789.177
99789.178
99789.178
99789.179
99789.179
99789.18
99789.18
99789.18
99789.181
99789.181
99789.182
99789.182
99789.183
99789.183
99789.184
99789.184
99789.184
99789.185
99789.185
99789.186
99789.186
99789.187
99789.187
99789.188
99789.188
99789.188
99789.189
99789.189
99789.19
99789.19
99789.191
99789.191
99789.192
99789.192
99789.193
99789.193
99789.193
99789.194
99789.194
99789.195
99789.195
99789.196
99789.196
99789.197
99789.197
99789.198
99789.198
99789.199
99789.199
99789.2
99789.2
99789.201
99789.201
99789.201
99789.202
99789.202
99789.203
99789.203
99789.204
99789.204
99789.205
99789.205
99789.206
99789.206
99789.207
99789.207
99789.208
99789.208
99789.209
99789.209
99789.21
99789.21
99789.211
99789.211
99789.212
99789.212
99789.213
99789.213
99789.214
99789.214
99789.215
99789.215
99789.216
99789.216
99789.217
99789.217
99789.218
99789.218
99789.219
99789.219
99789.22
99789.22
99789.221
99789.221
99789.222
99789.222
99789.223
99789.223
99789.224
99789.224
99789.225
99789.225
99789.226
99789.226
99789.227
99789.227
99789.228
99789.228
99789.229
99789.229
99789.23
99789.23
99789.231
99789.231
99789.232
99789.233
99789.233
99789.234
99789.234
99789.235
99789.235
99789.236
99789.236
99789.237
99789.237
99789.238
99789.238
99789.239
99789.24
99789.24
99789.241
99789.241
99789.242
99789.242
99789.243
99789.243
99789.244
99789.244
99789.245
99789.246
99789.246
99789.247
99789.247
99789.248
99789.248
99789.249
99789.25
99789.25
99789.251
99789.251
99789.252
99789.252
99789.253
99789.254
99789.254
99789.255
99789.255
99789.256
99789.256
99789.257
99789.258
99789.258
99789.259
99789.259
99789.26
99789.261
99789.261
99789.262
99789.262
99789.263
99789.264
99789.264
99789.265
99789.265
99789.266
99789.267
99789.267
99789.268
99789.268
99789.269
99789.27
99789.27
99789.271
99789.272
99789.272
99789.273
99789.273
99789.274
99789.275
99789.275
99789.276
99789.277
99789.277
99789.278
99789.278
99789.279
99789.28
99789.28
99789.281
99789.282
99789.282
99789.283
99789.284
99789.284
99789.285
99789.286
99789.286
99789.287
99789.288
99789.288
99789.289
99789.29
99789.29
99789.291
99789.292
99789.292
99789.293
99789.294
99789.294
99789.295
99789.296
99789.296
99789.297
99789.298
99789.299
99789.299
99789.3
99789.301
99789.301
99789.302
99789.303
99789.304
99789.304
99789.305
99789.306
99789.306
99789.307
99789.308
99789.309
99789.309
99789.31
99789.311
99789.312
99789.312
99789.313
99789.314
99789.315
99789.315
99789.316
99789.317
99789.318
99789.318
99789.319
99789.32
99789.321
99789.321
99789.322
99789.323
99789.324
99789.325
99789.325
99789.326
99789.327
99789.328
99789.329
99789.329
99789.33
99789.331
99789.332
99789.333
99789.333
99789.334
99789.335
99789.336
99789.337
99789.338
99789.338
99789.339
99789.34
99789.341
99789.342
99789.343
99789.343
99789.344
99789.345
99789.346
99789.347
99789.348
99789.349
99789.35
99789.35
99789.351
99789.352
99789.353
99789.354
99789.355
99789.356
99789.357
99789.358
99789.359
99789.36
99789.36
99789.361
99789.362
99789.363
99789.364
99789.365
99789.366
99789.367
99789.368
99789.369
99789.37
99789.371
99789.372
99789.373
99789.374
99789.375
99789.376
99789.377
99789.378
99789.379
99789.38
99789.381
99789.382
99789.383
99789.384
99789.385
99789.386
99789.387
99789.388
99789.39
99789.391
99789.392
99789.393
99789.394
99789.395
99789.396
99789.397
99789.398
99789.4
99789.401
99789.402
99789.403
99789.404
99789.405
99789.406
99789.408
99789.409
99789.41
99789.411
99789.412
99789.414
99789.415
99789.416
99789.417
99789.419
99789.42
99789.421
99789.423
99789.424
99789.425
99789.426
99789.428
99789.429
99789.43
99789.432
99789.433
99789.434
99789.436
99789.437
99789.439
99789.44
99789.441
99789.443
99789.444
99789.446
99789.447
99789.449
99789.45
99789.452
99789.453
99789.455
99789.456
99789.458
99789.459
99789.461
99789.462
99789.464
99789.465
99789.467
99789.469
99789.47
99789.472
99789.474
99789.475
99789.477
99789.479
99789.48
99789.482
99789.484
99789.486
99789.487
99789.489
99789.491
99789.493
99789.494
99789.496
99789.498
99789.5
99789.502
99789.504
99789.506
99789.508
99789.51
99789.512
99789.513
99789.515
99789.517
99789.519
99789.522
99789.524
99789.526
99789.528
99789.53
99789.532
99789.534
99789.536
99789.538
99789.541
99789.543
99789.545
99789.547
99789.55
99789.552
99789.554
99789.557
99789.559
99789.561
99789.564
99789.566
99789.568
99789.571
99789.573
99789.576
99789.578
99789.581
99789.583
99789.586
99789.589
99789.591
99789.594
99789.596
99789.599
99789.602
99789.604
99789.607
99789.61
99789.613
99789.616
99789.618
99789.621
99789.624
99789.627
99789.63
99789.633
99789.636
99789.639
99789.642
99789.645
99789.648
99789.651
99789.654
99789.657
99789.66
99789.664
99789.667
99789.67
99789.673
99789.676
99789.68
99789.683
99789.686
99789.69
99789.693
99789.697
99789.7
99789.704
99789.707
99789.711
99789.714
99789.718
99789.722
99789.725
99789.729
99789.733
99789.736
99789.74
99789.744
99789.748
99789.752
99789.755
99789.759
99789.763
99789.767
99789.771
99789.775
99789.779
99789.783
99789.787
99789.792
99789.796
99789.8
99789.804
99789.809
99789.813
99789.817
99789.822
99789.826
99789.83
99789.835
99789.839
99789.844
99789.848
99789.853
99789.858
99789.862
99789.867
99789.872
99789.876
99789.881
99789.886
99789.891
99789.896
99789.901
99789.906
99789.911
99789.916
99789.921
99789.926
99789.931
99789.936
99789.941
99789.947
99789.952
99789.957
99789.962
99789.968
99789.973
99789.979
99789.984
99789.99
99789.995
99790.001
99790.007
99790.012
99790.018
99790.024
99790.03
99790.036
99790.042
99790.048
99790.054
99790.06
99790.066
99790.072
99790.078
99790.084
99790.09
99790.097
99790.103
99790.109
99790.116
99790.122
99790.129
99790.136
99790.142
99790.149
99790.156
99790.162
99790.169
99790.176
99790.183
99790.19
99790.197
99790.204
99790.211
99790.218
99790.226
99790.233
99790.24
99790.248
99790.255
99790.263
99790.27
99790.278
99790.286
99790.294
99790.301
99790.309
99790.317
99790.325
99790.334
99790.342
99790.35
99790.358
99790.367
99790.375
99790.384
99790.392
99790.401
99790.41
99790.419
99790.428
99790.437
99790.446
99790.455
99790.465
99790.474
99790.483
99790.493
99790.503
99790.513
99790.522
99790.532
99790.543
99790.553
99790.563
99790.574
99790.584
99790.595
99790.606
99790.617
99790.628
99790.639
99790.651
99790.662
99790.674
99790.686
99790.698
99790.71
99790.722
99790.735
99790.747
99790.76
99790.773
99790.786
99790.8
99790.814
99790.827
99790.842
99790.856
99790.87
99790.885
99790.9
99790.915
99790.931
99790.947
99790.963
99790.979
99790.996
99791.013
99791.03
99791.048
99791.066
99791.084
99791.103
99791.122
99791.142
99791.162
99791.182
99791.203
99791.224
99791.245
99791.267
99791.29
99791.313
99791.337
99791.361
99791.385
99791.411
99791.437
99791.463
99791.49
99791.518
99791.546
99791.576
99791.605
99791.636
99791.667
99791.7
99791.733
99791.766
99791.801
99791.837
99791.873
99791.911
99791.949
99791.989
99792.029
99792.071
99792.114
99792.158
99792.203
99792.25
99792.298
99792.347
99792.397
99792.449
99792.502
99792.557
99792.614
99792.672
99792.731
99792.793
99792.856
99792.921
99792.988
99793.057
99793.127
99793.2
99793.275
99793.352
99793.432
99793.513
99793.597
99793.684
99793.773
99793.864
99793.959
99794.056
99794.156
99794.258
99794.364
99794.473
99794.585
99794.7
99794.819
99794.941
99795.067
99795.197
99795.33
99795.467
99795.608
99795.753
99795.903
99796.056
99796.214
99796.377
99796.544
99796.717
99796.894
99797.076
99797.264
99797.456
99797.655
99797.859
99798.068
99798.284
99798.506
99798.734
99798.968
99799.209
99799.457
99799.712
99799.973
99800.242
99800.519
99800.803
99801.095
99801.395
99801.703
99802.019
99802.344
99802.678
99803.021
99803.373
99803.735
99804.106
99804.487
99804.878
99805.28
99805.692
99806.115
99806.549
99806.995
99807.452
99807.92
99808.401
99808.894
99809.4
99809.919
99810.451
99810.996
99811.555
99812.128
99812.716
99813.318
99813.934
99814.567
99815.214
99815.878
99816.557
99817.253
99817.966
99818.696
99819.444
99820.209
99820.993
99821.794
99822.615
99823.455
99824.315
99825.194
99826.094
99827.014
99827.956
99828.918
99829.903
99830.91
99831.939
99832.991
99834.067
99835.166
99836.29
99837.438
99838.611
99839.809
99841.034
99842.284
99843.561
99844.865
99846.197
99847.557
99848.945
99850.362
99851.808
99853.284
99854.79
99856.326
99857.894
99859.493
99861.124
99862.788
99864.484
99866.214
99867.978
99869.776
99871.608
99873.476
99875.38
99877.32
99879.296
99881.31
99883.361
99885.451
99887.578
99889.746
99891.952
99894.199
99896.486
99898.814
99901.184
99903.595
99906.049
99908.546
99911.087
99913.671
99916.3
99918.974
99921.693
99924.458
99927.269
99930.127
99933.033
99935.986
99938.987
99942.037
99945.137
99948.286
99951.485
99954.735
99958.036
99961.389
99964.793
99968.25
99971.761
99975.324
99978.941
99982.613
99986.339
99990.121
99993.958
99997.852
100001.8
100005.81
100009.87
100013.99
100018.17
100022.41
100026.71
100031.07
100035.49
100039.96
100044.5
100049.1
100053.76
100058.48
100063.27
100068.11
100073.02
100078
100083.03
100088.14
100093.3
100098.53
100103.83
100109.19
100114.61
100120.1
100125.66
100131.28
100136.98
100142.73
100148.56
100154.45
100160.41
100166.44
100172.54
100178.71
100184.95
100191.25
100197.63
100204.07
100210.58
100217.17
100223.82
100230.55
100237.34
100244.21
100251.15
100258.16
100265.24
100272.39
100279.62
100286.91
100294.28
100301.72
100309.23
100316.82
100324.47
100332.2
100340.01
100347.88
100355.83
100363.85
100371.95
100380.11
100388.36
100396.67
100405.06
100413.52
100422.05
100430.66
100439.34
100448.09
100456.92
100465.82
100474.79
100483.84
100492.96
100502.15
100511.42
100520.76
100530.18
100539.66
100549.22
100558.85
100568.56
100578.34
100588.19
100598.11
100608.11
100618.18
100628.32
100638.53
100648.82
100659.17
100669.6
100680.1
100690.68
100701.32
100712.04
100722.82
100733.68
100744.61
100755.61
100766.68
100777.82
100789.03
100800.31
100811.66
100823.07
100834.56
100846.12
100857.75
100869.44
100881.2
100893.04
100904.94
100916.9
100928.94
100941.04
100953.21
100965.45
100977.75
100990.12
101002.55
101015.05
101027.62
101040.25
101052.95
101065.71
101078.53
101091.42
101104.38
101117.4
101130.48
101143.62
101156.83
101170.1
101183.43
101196.82
101210.27
101223.79
101237.37
101251
101264.7
101278.46
101292.27
101306.15
101320.09
101334.08
101348.13
101362.24
101376.41
101390.64
101404.92
101419.26
101433.66
101448.11
101462.62
101477.18
101491.8
101506.47
101521.2
101535.98
101550.81
101565.7
101580.64
101595.64
101610.69
101625.78
101640.93
101656.14
101671.39
101686.69
101702.05
101717.45
101732.9
101748.4
101763.95
101779.55
101795.2
101810.9
101826.64
101842.43
101858.27
101874.15
101890.08
101906.05
101922.07
101938.14
101954.25
101970.4
101986.6
102002.84
102019.13
102035.46
102051.83
102068.24
102084.7
102101.19
102117.73
102134.31
102150.92
102167.58
102184.28
102201.02
102217.8
102234.61
102251.46
102268.36
102285.28
102302.25
102319.25
102336.3
102353.37
102370.48
102387.63
102404.81
102422.03
102439.29
102456.57
102473.89
102491.25
102508.63
102526.05
102543.51
102560.99
102578.51
102596.06
102613.64
102631.25
102648.89
102666.56
102684.26
102701.99
102719.75
102737.54
102755.35
102773.2
102791.07
102808.97
102826.9
102844.85
102862.83
102880.84
102898.87
102916.93
102935.01
102953.12
102971.26
102989.41
103007.6
103025.8
103044.03
103062.28
103080.55
103098.85
103117.17
103135.51
103153.87
103172.25
103190.66
103209.08
103227.53
103245.99
103264.47
103282.98
103301.5
103320.04
103338.6
103357.17
103375.77
103394.38
103413.01
103431.65
103450.31
103468.99
103487.69
103506.4
103525.12
103543.86
103562.62
103581.38
103600.17
103618.96
103637.77
103656.6
103675.43
103694.28
103713.14
103732.02
103750.9
103769.8
103788.71
103807.62
103826.55
103845.49
103864.44
103883.4
103902.37
103921.34
103940.33
103959.32
103978.32
103997.33
104016.35
104035.38
104054.41
104073.45
104092.49
104111.54
104130.6
104149.66
104168.73
104187.8
104206.88
104225.96
104245.05
104264.14
104283.23
104302.33
104321.43
104340.53
104359.64
104378.75
104397.86
104416.97
104436.08
104455.19
104474.31
104493.42
104512.54
104531.65
104550.77
104569.88
104588.99
104608.1
104627.21
104646.32
104665.43
104684.53
104703.63
104722.73
104741.82
104760.92
104780
104799.09
104818.17
104837.24
104856.31
104875.37
104894.43
104913.49
104932.53
104951.57
104970.61
104989.64
105008.66
105027.67
105046.67
105065.67
105084.66
105103.64
105122.61
105141.57
105160.53
105179.47
105198.4
105217.33
105236.24
105255.14
105274.03
105292.91
105311.78
105330.63
105349.47
105368.3
105387.12
105405.93
105424.72
105443.49
105462.26
105481.01
105499.74
105518.46
105537.16
105555.85
105574.53
105593.18
105611.82
105630.45
105649.05
105667.64
105686.22
105704.77
105723.31
105741.83
105760.33
105778.81
105797.27
105815.71
105834.13
105852.54
105870.92
105889.28
105907.62
105925.94
105944.24
105962.51
105980.77
105999
106017.21
106035.39
106053.55
106071.69
106089.81
106107.9
106125.96
106144
106162.02
106180.01
106197.97
106215.91
106233.82
106251.71
106269.57
106287.4
106305.2
106322.98
106340.72
106358.44
106376.13
106393.8
106411.43
106429.03
106446.6
106464.14
106481.66
106499.14
106516.59
106534.01
106551.39
106568.75
106586.07
106603.36
106620.61
106637.84
106655.03
106672.18
106689.3
106706.39
106723.44
106740.46
106757.44
106774.39
106791.3
106808.17
106825.01
106841.81
106858.57
106875.29
106891.98
106908.63
106925.24
106941.81
106958.35
106974.84
106991.29
107007.71
107024.08
107040.41
107056.7
107072.95
107089.16
107105.33
107121.46
107137.54
107153.58
107169.58
107185.53
107201.44
107217.31
107233.13
107248.91
107264.64
107280.33
107295.97
107311.56
107327.11
107342.62
107358.08
107373.49
107388.85
107404.17
107419.44
107434.66
107449.83
107464.95
107480.03
107495.05
107510.03
107524.96
107539.83
107554.66
107569.43
107584.16
107598.83
107613.45
107628.02
107642.54
107657.01
107671.42
107685.78
107700.09
107714.35
107728.55
107742.7
107756.79
107770.83
107784.81
107798.74
107812.62
107826.44
107840.2
107853.91
107867.56
107881.16
107894.69
107908.18
107921.6
107934.97
107948.28
107961.53
107974.73
107987.86
108000.94
108013.96
108026.92
108039.82
108052.66
108065.44
108078.17
108090.83
108103.43
108115.97
108128.46
108140.88
108153.24
108165.54
108177.77
108189.95
108202.06
108214.12
108226.11
108238.03
108249.9
108261.7
108273.45
108285.12
108296.74
108308.29
108319.78
108331.2
108342.57
108353.86
108365.1
108376.27
108387.37
108398.41
108409.39
108420.3
108431.15
108441.94
108452.66
108463.31
108473.9
108484.42
108494.88
108505.27
108515.6
108525.86
108536.06
108546.19
108556.26
108566.26
108576.19
108586.06
108595.87
108605.6
108615.27
108624.88
108634.42
108643.89
108653.3
108662.64
108671.91
108681.12
108690.27
108699.34
108708.35
108717.3
108726.18
108734.99
108743.74
108752.42
108761.03
108769.58
108778.06
108786.48
108794.83
108803.12
108811.34
108819.5
108827.58
108835.61
108843.57
108851.46
108859.29
108867.05
108874.75
108882.38
108889.95
108897.46
108904.9
108912.27
108919.58
108926.83
108934.01
108941.13
108948.19
108955.18
108962.11
108968.97
108975.78
108982.52
108989.19
108995.81
109002.36
109008.85
109015.28
109021.64
109027.95
109034.19
109040.37
109046.49
109052.55
109058.55
109064.49
109070.37
109076.19
109081.95
109087.65
109093.29
109098.87
109104.4
109109.86
109115.27
109120.62
109125.91
109131.15
109136.33
109141.45
109146.51
109151.52
109156.47
109161.37
109166.21
109171
109175.73
109180.41
109185.03
109189.6
109194.12
109198.58
109202.99
109207.35
109211.66
109215.91
109220.12
109224.27
109228.37
109232.42
109236.42
109240.37
109244.27
109248.12
109251.92
109255.68
109259.38
109263.04
109266.65
109270.22
109273.74
109277.21
109280.63
109284.01
109287.35
109290.64
109293.88
109297.08
109300.24
109303.36
109306.43
109309.45
109312.44
109315.39
109318.29
109321.15
109323.97
109326.75
109329.49
109332.19
109334.85
109337.47
109340.06
109342.6
109345.11
109347.58
109350.02
109352.41
109354.77
109357.1
109359.39
109361.64
109363.86
109366.04
109368.19
109370.31
109372.39
109374.45
109376.46
109378.45
109380.4
109382.32
109384.22
109386.08
109387.91
109389.71
109391.48
109393.22
109394.93
109396.61
109398.27
109399.89
109401.49
109403.06
109404.61
109406.13
109407.62
109409.09
109410.53
109411.94
109413.33
109414.7
109416.04
109417.36
109418.65
109419.93
109421.17
109422.4
109423.6
109424.78
109425.94
109427.08
109428.2
109429.29
109430.37
109431.43
109432.46
109433.48
109434.48
109435.45
109436.41
109437.35
109438.28
109439.18
109440.07
109440.94
109441.79
109442.63
109443.45
109444.25
109445.04
109445.81
109446.56
109447.3
109448.03
109448.74
109449.44
109450.12
109450.79
109451.44
109452.08
109452.71
109453.33
109453.93
109454.52
109455.09
109455.66
109456.21
109456.75
109457.28
109457.8
109458.3
109458.8
109459.28
109459.76
109460.22
109460.68
109461.12
109461.55
109461.98
109462.39
109462.8
109463.19
109463.58
109463.96
109464.33
109464.69
109465.05
109465.39
109465.73
109466.06
109466.38
109466.7
109467
109467.3
109467.6
109467.88
109468.16
109468.43
109468.7
109468.96
109469.21
109469.46
109469.7
109469.94
109470.17
109470.39
109470.61
109470.83
109471.04
109471.24
109471.44
109471.63
109471.82
109472
109472.18
109472.36
109472.53
109472.7
109472.86
109473.02
109473.17
109473.32
109473.46
109473.61
109473.75
109473.88
109474.01
109474.14
109474.27
109474.39
109474.51
109474.62
109474.73
109474.84
109474.95
109475.05
109475.15
109475.25
109475.35
109475.44
109475.53
109475.62
109475.7
109475.79
109475.87
109475.95
109476.02
109476.1
109476.17
109476.24
109476.31
109476.37
109476.44
109476.5
109476.56
109476.62
109476.68
109476.74
109476.79
109476.84
109476.89
109476.94
109476.99
109477.04
109477.09
109477.13
109477.17
109477.21
109477.25
109477.29
109477.33
109477.37
109477.41
109477.44
109477.47
109477.51
109477.54
109477.57
109477.6
109477.63
109477.66
109477.69
109477.71
109477.74
109477.76
109477.79
109477.81
109477.83
109477.86
109477.88
109477.9
109477.92
109477.94
109477.96
109477.98
109477.99
109478.01
109478.03
109478.04
109478.06
109478.07
109478.09
109478.1
109478.12
109478.13
109478.14
109478.15
109478.17
109478.18
109478.19
109478.2
109478.21
109478.22
109478.23
109478.24
109478.25
109478.26
109478.27
109478.28
109478.29
109478.29
109478.3
109478.31
109478.32
109478.32
109478.33
109478.34
109478.34
109478.35
109478.35
109478.36
109478.37
109478.37
109478.38
109478.38
109478.39
109478.39
109478.4
109478.4
109478.41
109478.41
109478.41
109478.42
109478.42
109478.43
109478.43
109478.43
109478.44
109478.44
109478.44
109478.45
109478.45
109478.45
109478.46
109478.46
109478.46
109478.47
109478.47
109478.47
109478.48
109478.48
109478.48
109478.49
109478.49
109478.49
109478.49
109478.5
109478.5
109478.5
109478.51
109478.51
109478.51
109478.52
109478.52
109478.52
109478.53
109478.53
109478.53
109478.54
109478.54
109478.55
109478.55
109478.55
109478.56
109478.56
109478.57
109478.57
109478.58
109478.58
109478.59
109478.59
109478.6
109478.61
109478.61
109478.62
109478.62
109478.63
109478.64
109478.65
109478.65
109478.66
109478.67
109478.68
109478.69
109478.7
109478.71
109478.72
109478.73
109478.74
109478.76
109478.77
109478.78
109478.8
109478.81
109478.82
109478.84
109478.86
109478.87
109478.89
109478.91
109478.93
109478.95
109478.97
109479
109479.02
109479.04
109479.07
109479.1
109479.12
109479.15
109479.18
109479.22
109479.25
109479.28
109479.32
109479.36
109479.4
109479.44
109479.48
109479.53
109479.57
109479.62
109479.68
109479.73
109479.79
109479.84
109479.91
109479.97
109480.04
109480.11
109480.18
109480.25
109480.33
109480.42
109480.5
109480.59
109480.69
109480.78
109480.89
109480.99
109481.11
109481.22
109481.34
109481.47
109481.6
109481.74
109481.88
109482.03
109482.19
109482.35
109482.52
109482.7
109482.88
109483.07
109483.27
109483.48
109483.7
109483.93
109484.17
109484.41
109484.67
109484.94
109485.22
109485.51
109485.81
109486.13
109486.46
109486.8
109487.16
109487.53
109487.92
109488.32
109488.74
109489.18
109489.63
109490.11
109490.6
109491.12
109491.65
109492.21
109492.79
109493.4
109494.03
109494.68
109495.37
109496.08
109496.82
109497.58
109498.39
109499.22
109500.08
109500.99
109501.93
109502.9
109503.92
109504.97
109506.07
109507.22
109508.4
109509.64
109510.93
109512.26
109513.66
109515.1
109516.61
109518.17
109519.8
109521.49
109523.24
109525.07
109526.97
109528.94
109530.99
109533.12
109535.33
109537.63
109540.03
109542.51
109545.1
109547.78
109550.57
109553.47
109556.48
109559.61
109562.86
109566.23
109569.67
109573.32
109577.09
109580.98
109585.02
109589.21
109593.55
109598.03
109602.67
109607.48
109612.45
109617.59
109622.92
109628.42
109634.12
109640.01
109646.11
109652.43
109658.96
109665.72
109672.73
109679.98
109687.48
109695.25
109703.3
109711.63
109720.26
109729.19
109738.44
109748.01
109757.92
109768.18
109778.8
109789.79
109801.16
109812.93
109825.11
109837.71
109850.74
109864.21
109878.15
109892.56
109907.46
109922.86
109938.78
109955.23
109972.23
109989.79
110007.93
110026.66
110046.01
110065.98
110086.59
110107.87
110129.82
110152.47
110175.83
110199.93
110224.77
110250.38
110276.78
110303.97
110331.99
110360.85
110390.57
110421.17
110452.65
110485.06
110518.39
110552.67
110587.91
110624.14
110661.37
110699.62
110738.89
110779.22
110820.61
110863.08
110906.64
110951.31
110997.09
111044.01
111092.06
111141.27
111191.64
111243.17
111295.88
111349.77
111404.84
111461.1
111518.56
111577.2
111637.03
111698.05
111760.25
111823.62
111888.17
111953.88
112020.73
112088.72
112157.84
112228.06
112299.37
112371.74
112445.16
112519.61
112595.05
112671.46
112748.81
112827.07
112906.21
112986.19
113066.97
113148.52
113230.81
113313.78
113397.39
113481.61
113566.38
113651.67
113737.42
113823.59
113910.13
113996.98
114084.1
114171.44
114258.94
114346.56
114434.25
114521.94
114609.59
114697.16
114784.58
114871.8
114958.79
115045.48
115131.83
115217.79
115303.32
115388.37
115472.89
115556.84
115640.19
115722.88
115804.88
115886.16
115966.67
116046.38
116125.27
116203.29
116280.41
116356.62
116431.89
116506.18
116579.49
116651.78
116723.04
116793.25
116862.39
116930.46
116997.43
117063.31
117128.07
117191.72
117254.24
117315.63
117375.89
117435.01
117493
117549.86
117605.59
117660.18
117713.66
117766.01
117817.25
117867.39
117916.43
117964.38
118011.25
118057.06
118101.8
118145.51
118188.18