/*--------------------------------*- C++ -*----------------------------------*\
  =========                 |
  \\      /  F ield         | OpenFOAM: The Open Source CFD Toolbox
   \\    /   O peration     | Website:  https://openfoam.org
    \\  /    A nd           | Version:  7
     \\/     M anipulation  |
\*---------------------------------------------------------------------------*/
FoamFile
{
    version     2.0;
    format      ascii;
    class       volScalarField;
    location    "0.0018";
    object      p;
}
// * * * * * * * * * * * * * * * * * * * * * * * * * * * * * * * * * * * * * //

dimensions      [1 -1 -2 0 0 0 0];

internalField   nonuniform List<scalar> 
5000
(
109813.39
109813.39
109813.38
109813.37
109813.37
109813.36
109813.36
109813.35
109813.35
109813.34
109813.34
109813.33
109813.33
109813.32
109813.32
109813.31
109813.31
109813.3
109813.3
109813.29
109813.29
109813.28
109813.28
109813.27
109813.27
109813.27
109813.26
109813.26
109813.25
109813.25
109813.24
109813.24
109813.24
109813.23
109813.23
109813.22
109813.22
109813.21
109813.21
109813.2
109813.2
109813.19
109813.19
109813.19
109813.18
109813.18
109813.17
109813.17
109813.17
109813.16
109813.16
109813.15
109813.15
109813.15
109813.14
109813.14
109813.13
109813.13
109813.12
109813.12
109813.11
109813.11
109813.1
109813.1
109813.1
109813.09
109813.09
109813.09
109813.08
109813.08
109813.08
109813.07
109813.07
109813.07
109813.07
109813.06
109813.06
109813.06
109813.06
109813.05
109813.05
109813.05
109813.05
109813.04
109813.04
109813.04
109813.04
109813.04
109813.03
109813.03
109813.03
109813.03
109813.02
109813.02
109813.02
109813.02
109813.01
109813.01
109813.01
109813.01
109813
109813
109813
109813
109812.99
109812.99
109812.99
109812.98
109812.98
109812.98
109812.97
109812.97
109812.97
109812.96
109812.96
109812.96
109812.95
109812.95
109812.95
109812.94
109812.94
109812.94
109812.93
109812.93
109812.93
109812.92
109812.92
109812.92
109812.91
109812.91
109812.91
109812.9
109812.9
109812.89
109812.89
109812.89
109812.88
109812.88
109812.87
109812.87
109812.86
109812.86
109812.85
109812.85
109812.84
109812.84
109812.83
109812.82
109812.82
109812.81
109812.81
109812.8
109812.79
109812.78
109812.77
109812.76
109812.76
109812.75
109812.74
109812.73
109812.72
109812.71
109812.69
109812.68
109812.67
109812.66
109812.65
109812.63
109812.62
109812.61
109812.59
109812.58
109812.56
109812.54
109812.52
109812.51
109812.49
109812.48
109812.45
109812.43
109812.41
109812.39
109812.37
109812.35
109812.32
109812.3
109812.27
109812.25
109812.23
109812.21
109812.18
109812.15
109812.12
109812.09
109812.07
109812.04
109812.01
109811.97
109811.94
109811.9
109811.87
109811.83
109811.79
109811.75
109811.71
109811.67
109811.62
109811.57
109811.52
109811.47
109811.42
109811.37
109811.32
109811.26
109811.2
109811.14
109811.08
109811.02
109810.95
109810.88
109810.81
109810.74
109810.67
109810.59
109810.51
109810.43
109810.35
109810.26
109810.18
109810.09
109810
109809.9
109809.8
109809.7
109809.6
109809.5
109809.39
109809.28
109809.17
109809.05
109808.93
109808.81
109808.68
109808.56
109808.43
109808.29
109808.16
109808.02
109807.87
109807.72
109807.57
109807.42
109807.26
109807.1
109806.94
109806.77
109806.6
109806.43
109806.25
109806.07
109805.88
109805.69
109805.5
109805.3
109805.1
109804.89
109804.68
109804.47
109804.25
109804.03
109803.8
109803.57
109803.33
109803.09
109802.85
109802.6
109802.35
109802.09
109801.82
109801.56
109801.29
109801.01
109800.73
109800.44
109800.15
109799.85
109799.55
109799.25
109798.93
109798.62
109798.3
109797.97
109797.64
109797.3
109796.96
109796.61
109796.26
109795.9
109795.54
109795.17
109794.79
109794.41
109794.03
109793.64
109793.24
109792.84
109792.43
109792.02
109791.6
109791.17
109790.74
109790.31
109789.87
109789.42
109788.96
109788.5
109788.04
109787.57
109787.09
109786.61
109786.12
109785.63
109785.13
109784.62
109784.11
109783.59
109783.06
109782.53
109782
109781.46
109780.91
109780.35
109779.79
109779.23
109778.66
109778.08
109777.49
109776.9
109776.31
109775.7
109775.1
109774.48
109773.86
109773.24
109772.61
109771.97
109771.33
109770.68
109770.02
109769.36
109768.69
109768.02
109767.34
109766.66
109765.97
109765.28
109764.57
109763.87
109763.16
109762.44
109761.72
109760.99
109760.26
109759.52
109758.77
109758.02
109757.27
109756.51
109755.74
109754.97
109754.2
109753.41
109752.63
109751.84
109751.04
109750.24
109749.44
109748.62
109747.81
109746.99
109746.16
109745.33
109744.5
109743.66
109742.82
109741.97
109741.12
109740.27
109739.41
109738.54
109737.67
109736.8
109735.92
109735.04
109734.16
109733.27
109732.38
109731.48
109730.58
109729.68
109728.77
109727.86
109726.94
109726.02
109725.1
109724.18
109723.25
109722.32
109721.38
109720.44
109719.5
109718.56
109717.61
109716.66
109715.71
109714.75
109713.8
109712.83
109711.87
109710.9
109709.94
109708.96
109707.99
109707.01
109706.04
109705.06
109704.07
109703.09
109702.1
109701.11
109700.12
109699.13
109698.13
109697.14
109696.14
109695.14
109694.14
109693.13
109692.13
109691.12
109690.12
109689.11
109688.1
109687.09
109686.07
109685.06
109684.05
109683.03
109682.02
109681
109679.98
109678.97
109677.95
109676.93
109675.91
109674.89
109673.87
109672.85
109671.83
109670.81
109669.79
109668.77
109667.75
109666.73
109665.71
109664.69
109663.67
109662.65
109661.63
109660.61
109659.59
109658.57
109657.56
109656.54
109655.53
109654.51
109653.5
109652.49
109651.48
109650.47
109649.46
109648.45
109647.44
109646.44
109645.43
109644.43
109643.43
109642.43
109641.43
109640.44
109639.44
109638.45
109637.46
109636.47
109635.48
109634.5
109633.51
109632.53
109631.55
109630.58
109629.6
109628.63
109627.66
109626.7
109625.73
109624.77
109623.81
109622.85
109621.9
109620.94
109619.99
109619.05
109618.1
109617.16
109616.22
109615.29
109614.36
109613.43
109612.5
109611.58
109610.66
109609.74
109608.83
109607.92
109607.01
109606.1
109605.2
109604.31
109603.41
109602.52
109601.63
109600.75
109599.87
109598.99
109598.12
109597.25
109596.38
109595.52
109594.66
109593.81
109592.96
109592.11
109591.26
109590.42
109589.59
109588.75
109587.93
109587.1
109586.28
109585.46
109584.65
109583.84
109583.03
109582.23
109581.43
109580.64
109579.85
109579.06
109578.28
109577.5
109576.73
109575.96
109575.19
109574.43
109573.67
109572.92
109572.17
109571.42
109570.68
109569.94
109569.21
109568.48
109567.75
109567.03
109566.31
109565.6
109564.89
109564.18
109563.48
109562.78
109562.09
109561.4
109560.71
109560.03
109559.35
109558.68
109558.01
109557.34
109556.68
109556.02
109555.37
109554.72
109554.07
109553.43
109552.79
109552.15
109551.52
109550.89
109550.27
109549.65
109549.03
109548.42
109547.81
109547.21
109546.61
109546.01
109545.42
109544.83
109544.24
109543.66
109543.08
109542.5
109541.93
109541.36
109540.79
109540.23
109539.67
109539.12
109538.57
109538.02
109537.48
109536.93
109536.4
109535.86
109535.33
109534.8
109534.28
109533.76
109533.24
109532.72
109532.21
109531.71
109531.2
109530.7
109530.2
109529.7
109529.21
109528.72
109528.23
109527.75
109527.27
109526.79
109526.32
109525.85
109525.38
109524.91
109524.45
109523.99
109523.54
109523.08
109522.63
109522.18
109521.74
109521.29
109520.85
109520.42
109519.98
109519.55
109519.12
109518.7
109518.28
109517.85
109517.44
109517.02
109516.61
109516.2
109515.79
109515.39
109514.99
109514.59
109514.19
109513.8
109513.41
109513.02
109512.63
109512.25
109511.87
109511.49
109511.11
109510.74
109510.37
109510
109509.64
109509.27
109508.91
109508.55
109508.2
109507.84
109507.49
109507.15
109506.8
109506.46
109506.12
109505.78
109505.44
109505.11
109504.78
109504.45
109504.12
109503.8
109503.48
109503.16
109502.84
109502.53
109502.22
109501.91
109501.6
109501.3
109500.99
109500.69
109500.4
109500.1
109499.81
109499.52
109499.23
109498.95
109498.66
109498.38
109498.11
109497.83
109497.56
109497.29
109497.02
109496.75
109496.49
109496.23
109495.97
109495.71
109495.46
109495.2
109494.96
109494.71
109494.46
109494.22
109493.98
109493.74
109493.51
109493.27
109493.04
109492.81
109492.59
109492.36
109492.14
109491.92
109491.71
109491.49
109491.28
109491.07
109490.86
109490.66
109490.45
109490.25
109490.05
109489.86
109489.66
109489.47
109489.28
109489.09
109488.91
109488.72
109488.54
109488.36
109488.19
109488.01
109487.84
109487.67
109487.5
109487.34
109487.17
109487.01
109486.85
109486.69
109486.54
109486.38
109486.23
109486.08
109485.94
109485.79
109485.65
109485.51
109485.37
109485.23
109485.09
109484.96
109484.83
109484.7
109484.57
109484.45
109484.32
109484.2
109484.08
109483.96
109483.84
109483.73
109483.62
109483.51
109483.4
109483.29
109483.18
109483.08
109482.97
109482.87
109482.77
109482.68
109482.58
109482.49
109482.39
109482.3
109482.21
109482.12
109482.04
109481.95
109481.87
109481.79
109481.71
109481.63
109481.55
109481.47
109481.4
109481.32
109481.25
109481.18
109481.11
109481.04
109480.97
109480.91
109480.84
109480.78
109480.72
109480.66
109480.6
109480.54
109480.48
109480.43
109480.37
109480.32
109480.26
109480.21
109480.16
109480.11
109480.06
109480.01
109479.97
109479.92
109479.88
109479.83
109479.79
109479.75
109479.71
109479.67
109479.63
109479.59
109479.55
109479.52
109479.48
109479.45
109479.41
109479.38
109479.34
109479.31
109479.28
109479.25
109479.22
109479.19
109479.16
109479.14
109479.11
109479.08
109479.06
109479.03
109479.01
109478.98
109478.96
109478.94
109478.91
109478.89
109478.87
109478.85
109478.83
109478.81
109478.79
109478.77
109478.76
109478.74
109478.72
109478.7
109478.69
109478.67
109478.66
109478.64
109478.63
109478.61
109478.6
109478.59
109478.57
109478.56
109478.55
109478.54
109478.52
109478.51
109478.5
109478.49
109478.48
109478.47
109478.46
109478.45
109478.44
109478.43
109478.43
109478.42
109478.41
109478.4
109478.39
109478.39
109478.38
109478.37
109478.37
109478.36
109478.35
109478.35
109478.34
109478.34
109478.33
109478.33
109478.32
109478.32
109478.31
109478.31
109478.3
109478.3
109478.3
109478.29
109478.29
109478.29
109478.28
109478.28
109478.28
109478.27
109478.27
109478.27
109478.27
109478.26
109478.26
109478.26
109478.26
109478.26
109478.25
109478.25
109478.25
109478.25
109478.25
109478.25
109478.24
109478.24
109478.24
109478.24
109478.24
109478.24
109478.24
109478.24
109478.24
109478.23
109478.23
109478.23
109478.23
109478.23
109478.23
109478.23
109478.23
109478.23
109478.23
109478.23
109478.23
109478.23
109478.23
109478.23
109478.23
109478.23
109478.23
109478.23
109478.23
109478.23
109478.23
109478.23
109478.23
109478.23
109478.23
109478.23
109478.23
109478.23
109478.23
109478.23
109478.23
109478.23
109478.23
109478.23
109478.23
109478.23
109478.23
109478.23
109478.23
109478.23
109478.23
109478.23
109478.23
109478.23
109478.23
109478.23
109478.23
109478.23
109478.23
109478.23
109478.23
109478.23
109478.23
109478.23
109478.23
109478.23
109478.23
109478.24
109478.24
109478.24
109478.24
109478.24
109478.24
109478.24
109478.24
109478.24
109478.24
109478.24
109478.24
109478.24
109478.24
109478.24
109478.24
109478.24
109478.24
109478.24
109478.24
109478.24
109478.24
109478.24
109478.24
109478.24
109478.24
109478.24
109478.24
109478.24
109478.24
109478.24
109478.25
109478.25
109478.25
109478.25
109478.25
109478.25
109478.25
109478.25
109478.25
109478.25
109478.25
109478.25
109478.25
109478.25
109478.25
109478.25
109478.25
109478.25
109478.25
109478.25
109478.25
109478.25
109478.25
109478.25
109478.25
109478.25
109478.25
109478.25
109478.25
109478.25
109478.25
109478.25
109478.25
109478.25
109478.25
109478.25
109478.25
109478.25
109478.25
109478.25
109478.25
109478.25
109478.25
109478.25
109478.25
109478.25
109478.25
109478.25
109478.25
109478.25
109478.25
109478.25
109478.25
109478.25
109478.25
109478.25
109478.25
109478.25
109478.25
109478.25
109478.25
109478.25
109478.25
109478.25
109478.25
109478.25
109478.25
109478.25
109478.25
109478.25
109478.25
109478.25
109478.25
109478.25
109478.25
109478.25
109478.25
109478.25
109478.25
109478.25
109478.25
109478.25
109478.25
109478.25
109478.25
109478.25
109478.25
109478.25
109478.25
109478.25
109478.25
109478.25
109478.25
109478.25
109478.25
109478.25
109478.25
109478.25
109478.25
109478.25
109478.25
109478.25
109478.25
109478.25
109478.25
109478.25
109478.25
109478.25
109478.25
109478.25
109478.25
109478.25
109478.25
109478.25
109478.25
109478.25
109478.25
109478.25
109478.25
109478.25
109478.25
109478.25
109478.25
109478.25
109478.25
109478.25
109478.25
109478.25
109478.25
109478.25
109478.25
109478.25
109478.25
109478.25
109478.25
109478.25
109478.25
109478.25
109478.25
109478.25
109478.26
109478.26
109478.26
109478.26
109478.26
109478.26
109478.26
109478.26
109478.26
109478.26
109478.26
109478.26
109478.26
109478.26
109478.26
109478.26
109478.26
109478.26
109478.26
109478.26
109478.26
109478.26
109478.26
109478.26
109478.26
109478.26
109478.26
109478.26
109478.26
109478.26
109478.26
109478.26
109478.26
109478.27
109478.27
109478.27
109478.27
109478.27
109478.27
109478.27
109478.27
109478.27
109478.27
109478.27
109478.27
109478.27
109478.27
109478.27
109478.27
109478.27
109478.27
109478.27
109478.27
109478.27
109478.27
109478.27
109478.27
109478.27
109478.27
109478.27
109478.27
109478.27
109478.27
109478.27
109478.27
109478.27
109478.28
109478.28
109478.28
109478.28
109478.28
109478.28
109478.28
109478.28
109478.28
109478.28
109478.28
109478.28
109478.28
109478.28
109478.28
109478.28
109478.28
109478.28
109478.28
109478.28
109478.28
109478.28
109478.28
109478.28
109478.28
109478.28
109478.28
109478.28
109478.28
109478.28
109478.28
109478.28
109478.28
109478.28
109478.28
109478.28
109478.28
109478.28
109478.28
109478.28
109478.28
109478.28
109478.28
109478.28
109478.28
109478.28
109478.28
109478.28
109478.28
109478.28
109478.28
109478.28
109478.28
109478.28
109478.28
109478.28
109478.28
109478.28
109478.28
109478.28
109478.28
109478.28
109478.28
109478.28
109478.28
109478.28
109478.28
109478.29
109478.29
109478.29
109478.29
109478.29
109478.29
109478.29
109478.29
109478.29
109478.29
109478.29
109478.29
109478.29
109478.29
109478.29
109478.29
109478.29
109478.29
109478.29
109478.29
109478.29
109478.29
109478.29
109478.29
109478.29
109478.29
109478.29
109478.29
109478.29
109478.29
109478.29
109478.29
109478.29
109478.29
109478.29
109478.29
109478.29
109478.29
109478.29
109478.29
109478.29
109478.29
109478.29
109478.29
109478.29
109478.29
109478.29
109478.29
109478.29
109478.29
109478.29
109478.29
109478.29
109478.29
109478.29
109478.29
109478.29
109478.29
109478.3
109478.3
109478.3
109478.3
109478.3
109478.3
109478.3
109478.3
109478.3
109478.3
109478.3
109478.3
109478.3
109478.3
109478.3
109478.3
109478.3
109478.3
109478.3
109478.3
109478.3
109478.3
109478.3
109478.3
109478.3
109478.3
109478.3
109478.3
109478.3
109478.3
109478.3
109478.3
109478.3
109478.3
109478.3
109478.3
109478.3
109478.3
109478.3
109478.3
109478.3
109478.3
109478.3
109478.3
109478.3
109478.3
109478.3
109478.3
109478.3
109478.3
109478.3
109478.3
109478.3
109478.3
109478.3
109478.3
109478.3
109478.3
109478.3
109478.3
109478.3
109478.3
109478.3
109478.3
109478.3
109478.3
109478.3
109478.3
109478.3
109478.3
109478.3
109478.3
109478.3
109478.3
109478.3
109478.3
109478.3
109478.31
109478.31
109478.31
109478.31
109478.31
109478.31
109478.31
109478.31
109478.31
109478.31
109478.31
109478.31
109478.31
109478.31
109478.31
109478.31
109478.31
109478.31
109478.31
109478.31
109478.31
109478.31
109478.31
109478.31
109478.31
109478.31
109478.31
109478.31
109478.31
109478.31
109478.31
109478.31
109478.31
109478.31
109478.31
109478.31
109478.31
109478.31
109478.31
109478.31
109478.31
109478.31
109478.31
109478.31
109478.31
109478.31
109478.31
109478.31
109478.31
109478.31
109478.31
109478.31
109478.31
109478.31
109478.31
109478.31
109478.31
109478.31
109478.31
109478.31
109478.31
109478.31
109478.31
109478.31
109478.31
109478.31
109478.31
109478.31
109478.31
109478.31
109478.31
109478.31
109478.31
109478.31
109478.31
109478.31
109478.31
109478.31
109478.31
109478.31
109478.31
109478.31
109478.31
109478.31
109478.31
109478.31
109478.31
109478.31
109478.31
109478.31
109478.31
109478.31
109478.31
109478.31
109478.32
109478.32
109478.32
109478.32
109478.32
109478.32
109478.32
109478.32
109478.32
109478.32
109478.32
109478.32
109478.32
109478.32
109478.32
109478.32
109478.32
109478.32
109478.32
109478.32
109478.32
109478.32
109478.32
109478.32
109478.32
109478.32
109478.32
109478.32
109478.32
109478.32
109478.32
109478.32
109478.32
109478.32
109478.32
109478.32
109478.32
109478.32
109478.32
109478.32
109478.32
109478.32
109478.32
109478.32
109478.32
109478.32
109478.33
109478.33
109478.33
109478.33
109478.33
109478.33
109478.33
109478.33
109478.33
109478.33
109478.33
109478.33
109478.33
109478.33
109478.33
109478.33
109478.33
109478.33
109478.33
109478.33
109478.33
109478.33
109478.33
109478.33
109478.33
109478.33
109478.33
109478.33
109478.33
109478.33
109478.33
109478.33
109478.33
109478.33
109478.33
109478.33
109478.33
109478.33
109478.33
109478.33
109478.33
109478.33
109478.33
109478.33
109478.33
109478.33
109478.33
109478.33
109478.33
109478.33
109478.33
109478.33
109478.33
109478.33
109478.33
109478.33
109478.33
109478.33
109478.33
109478.33
109478.33
109478.33
109478.33
109478.33
109478.33
109478.33
109478.33
109478.33
109478.33
109478.33
109478.33
109478.33
109478.33
109478.33
109478.33
109478.33
109478.33
109478.33
109478.33
109478.33
109478.33
109478.33
109478.33
109478.33
109478.33
109478.33
109478.33
109478.33
109478.33
109478.33
109478.33
109478.33
109478.33
109478.33
109478.33
109478.33
109478.33
109478.33
109478.33
109478.33
109478.33
109478.33
109478.33
109478.33
109478.33
109478.33
109478.33
109478.33
109478.33
109478.33
109478.33
109478.33
109478.33
109478.33
109478.33
109478.33
109478.33
109478.33
109478.33
109478.33
109478.33
109478.33
109478.33
109478.33
109478.33
109478.33
109478.33
109478.33
109478.33
109478.33
109478.33
109478.33
109478.33
109478.33
109478.33
109478.33
109478.33
109478.33
109478.33
109478.33
109478.33
109478.33
109478.33
109478.33
109478.33
109478.33
109478.33
109478.33
109478.33
109478.33
109478.33
109478.33
109478.33
109478.33
109478.33
109478.33
109478.34
109478.34
109478.34
109478.34
109478.34
109478.34
109478.34
109478.34
109478.34
109478.34
109478.34
109478.34
109478.34
109478.34
109478.34
109478.34
109478.34
109478.34
109478.34
109478.34
109478.34
109478.34
109478.34
109478.34
109478.34
109478.34
109478.34
109478.34
109478.34
109478.34
109478.34
109478.34
109478.34
109478.34
109478.34
109478.34
109478.34
109478.34
109478.34
109478.34
109478.34
109478.34
109478.34
109478.34
109478.34
109478.34
109478.34
109478.34
109478.34
109478.34
109478.34
109478.34
109478.34
109478.34
109478.34
109478.34
109478.34
109478.34
109478.34
109478.34
109478.34
109478.34
109478.34
109478.34
109478.34
109478.34
109478.34
109478.34
109478.34
109478.34
109478.34
109478.34
109478.34
109478.34
109478.34
109478.34
109478.34
109478.34
109478.34
109478.34
109478.34
109478.34
109478.34
109478.34
109478.34
109478.34
109478.34
109478.34
109478.34
109478.34
109478.34
109478.34
109478.34
109478.34
109478.34
109478.34
109478.34
109478.34
109478.34
109478.34
109478.34
109478.34
109478.34
109478.34
109478.34
109478.34
109478.34
109478.34
109478.34
109478.34
109478.34
109478.34
109478.34
109478.34
109478.34
109478.34
109478.34
109478.34
109478.34
109478.34
109478.34
109478.34
109478.34
109478.34
109478.34
109478.34
109478.34
109478.34
109478.34
109478.34
109478.34
109478.34
109478.34
109478.34
109478.34
109478.34
109478.34
109478.34
109478.34
109478.34
109478.34
109478.34
109478.34
109478.34
109478.34
109478.34
109478.34
109478.34
109478.34
109478.34
109478.34
109478.35
109478.35
109478.35
109478.35
109478.35
109478.35
109478.35
109478.35
109478.35
109478.35
109478.35
109478.35
109478.35
109478.35
109478.35
109478.35
109478.35
109478.35
109478.35
109478.35
109478.35
109478.35
109478.35
109478.35
109478.35
109478.35
109478.35
109478.35
109478.35
109478.35
109478.35
109478.35
109478.35
109478.35
109478.35
109478.35
109478.35
109478.35
109478.35
109478.35
109478.35
109478.35
109478.35
109478.35
109478.35
109478.35
109478.35
109478.35
109478.35
109478.35
109478.35
109478.35
109478.35
109478.35
109478.35
109478.35
109478.35
109478.35
109478.35
109478.35
109478.35
109478.35
109478.35
109478.35
109478.35
109478.35
109478.35
109478.35
109478.35
109478.35
109478.35
109478.35
109478.35
109478.35
109478.35
109478.35
109478.35
109478.35
109478.35
109478.35
109478.35
109478.35
109478.35
109478.35
109478.35
109478.35
109478.35
109478.35
109478.35
109478.35
109478.35
109478.35
109478.35
109478.35
109478.35
109478.35
109478.35
109478.35
109478.35
109478.35
109478.35
109478.35
109478.35
109478.35
109478.35
109478.35
109478.35
109478.35
109478.35
109478.35
109478.35
109478.35
109478.35
109478.35
109478.35
109478.35
109478.35
109478.36
109478.36
109478.36
109478.36
109478.36
109478.36
109478.36
109478.36
109478.36
109478.36
109478.36
109478.36
109478.36
109478.36
109478.36
109478.36
109478.36
109478.36
109478.36
109478.36
109478.36
109478.36
109478.36
109478.36
109478.36
109478.36
109478.36
109478.36
109478.36
109478.36
109478.36
109478.36
109478.36
109478.36
109478.36
109478.36
109478.36
109478.36
109478.36
109478.36
109478.36
109478.36
109478.36
109478.36
109478.36
109478.36
109478.36
109478.36
109478.36
109478.36
109478.36
109478.36
109478.36
109478.36
109478.36
109478.36
109478.36
109478.36
109478.36
109478.36
109478.36
109478.36
109478.36
109478.36
109478.36
109478.36
109478.36
109478.36
109478.36
109478.36
109478.36
109478.36
109478.36
109478.36
109478.36
109478.36
109478.36
109478.36
109478.36
109478.36
109478.36
109478.36
109478.36
109478.36
109478.36
109478.36
109478.36
109478.36
109478.36
109478.36
109478.36
109478.36
109478.36
109478.36
109478.36
109478.36
109478.36
109478.36
109478.36
109478.36
109478.36
109478.36
109478.36
109478.36
109478.36
109478.36
109478.36
109478.36
109478.36
109478.36
109478.36
109478.36
109478.36
109478.36
109478.36
109478.36
109478.36
109478.36
109478.36
109478.36
109478.36
109478.36
109478.36
109478.36
109478.36
109478.36
109478.36
109478.36
109478.36
109478.36
109478.36
109478.36
109478.36
109478.36
109478.36
109478.36
109478.36
109478.36
109478.36
109478.36
109478.36
109478.36
109478.36
109478.36
109478.36
109478.36
109478.36
109478.36
109478.36
109478.36
109478.36
109478.36
109478.36
109478.36
109478.36
109478.36
109478.36
109478.36
109478.36
109478.36
109478.36
109478.36
109478.36
109478.36
109478.36
109478.36
109478.36
109478.36
109478.36
109478.36
109478.36
109478.36
109478.36
109478.36
109478.36
109478.36
109478.36
109478.36
109478.36
109478.36
109478.36
109478.36
109478.36
109478.36
109478.36
109478.36
109478.36
109478.36
109478.36
109478.36
109478.36
109478.36
109478.36
109478.36
109478.36
109478.36
109478.36
109478.36
109478.36
109478.36
109478.36
109478.36
109478.36
109478.36
109478.36
109478.36
109478.36
109478.36
109478.36
109478.36
109478.36
109478.36
109478.36
109478.36
109478.36
109478.36
109478.36
109478.36
109478.36
109478.36
109478.36
109478.36
109478.36
109478.36
109478.36
109478.36
109478.36
109478.36
109478.36
109478.36
109478.36
109478.36
109478.36
109478.36
109478.36
109478.36
109478.36
109478.36
109478.36
109478.36
109478.36
109478.36
109478.36
109478.36
109478.36
109478.36
109478.36
109478.36
109478.36
109478.36
109478.36
109478.36
109478.36
109478.36
109478.36
109478.36
109478.36
109478.36
109478.36
109478.36
109478.36
109478.36
109478.36
109478.36
109478.36
109478.36
109478.36
109478.36
109478.36
109478.36
109478.36
109478.36
109478.36
109478.36
109478.36
109478.36
109478.36
109478.36
109478.36
109478.36
109478.36
109478.36
109478.36
109478.36
109478.36
109478.36
109478.36
109478.36
109478.36
109478.36
109478.36
109478.36
109478.36
109478.36
109478.36
109478.36
109478.36
109478.36
109478.36
109478.36
109478.36
109478.36
109478.36
109478.36
109478.36
109478.36
109478.36
109478.36
109478.36
109478.36
109478.36
109478.36
109478.36
109478.36
109478.36
109478.36
109478.36
109478.36
109478.36
109478.36
109478.36
109478.36
109478.36
109478.36
109478.36
109478.36
109478.36
109478.36
109478.36
109478.36
109478.36
109478.36
109478.36
109478.36
109478.36
109478.36
109478.36
109478.36
109478.37
109478.37
109478.37
109478.37
109478.37
109478.37
109478.37
109478.37
109478.37
109478.37
109478.37
109478.37
109478.37
109478.37
109478.37
109478.37
109478.37
109478.37
109478.37
109478.37
109478.37
109478.37
109478.37
109478.37
109478.37
109478.37
109478.37
109478.37
109478.37
109478.37
109478.37
109478.37
109478.37
109478.37
109478.37
109478.37
109478.37
109478.37
109478.37
109478.37
109478.37
109478.37
109478.37
109478.37
109478.37
109478.37
109478.37
109478.37
109478.37
109478.37
109478.37
109478.37
109478.37
109478.37
109478.37
109478.37
109478.37
109478.37
109478.37
109478.37
109478.37
109478.37
109478.37
109478.37
109478.37
109478.37
109478.37
109478.37
109478.37
109478.37
109478.37
109478.37
109478.37
109478.37
109478.37
109478.37
109478.37
109478.37
109478.37
109478.37
109478.37
109478.37
109478.37
109478.37
109478.37
109478.37
109478.37
109478.37
109478.37
109478.37
109478.37
109478.37
109478.37
109478.37
109478.37
109478.37
109478.37
109478.37
109478.37
109478.37
109478.37
109478.37
109478.37
109478.37
109478.37
109478.37
109478.37
109478.37
109478.37
109478.37
109478.37
109478.37
109478.37
109478.37
109478.37
109478.37
109478.37
109478.37
109478.37
109478.37
109478.37
109478.37
109478.37
109478.37
109478.37
109478.37
109478.37
109478.37
109478.37
109478.37
109478.37
109478.37
109478.37
109478.37
109478.37
109478.37
109478.37
109478.37
109478.37
109478.37
109478.37
109478.37
109478.37
109478.37
109478.37
109478.37
109478.37
109478.37
109478.37
109478.37
109478.37
109478.37
109478.37
109478.37
109478.37
109478.37
109478.37
109478.37
109478.37
109478.37
109478.37
109478.37
109478.37
109478.37
109478.37
109478.37
109478.37
109478.37
109478.37
109478.37
109478.37
109478.37
109478.37
109478.37
109478.37
109478.37
109478.37
109478.37
109478.37
109478.37
109478.37
109478.37
109478.37
109478.37
109478.37
109478.37
109478.37
109478.37
109478.37
109478.37
109478.37
109478.37
109478.37
109478.37
109478.37
109478.37
109478.37
109478.37
109478.37
109478.37
109478.37
109478.37
109478.37
109478.37
109478.37
109478.37
109478.37
109478.37
109478.37
109478.37
109478.37
109478.37
109478.37
109478.37
109478.37
109478.37
109478.37
109478.37
109478.37
109478.37
109478.37
109478.37
109478.37
109478.37
109478.37
109478.37
109478.37
109478.37
109478.37
109478.37
109478.37
109478.37
109478.37
109478.37
109478.37
109478.37
109478.37
109478.37
109478.37
109478.37
109478.37
109478.37
109478.37
109478.37
109478.37
109478.37
109478.37
109478.37
109478.37
109478.37
109478.37
109478.37
109478.37
109478.37
109478.37
109478.37
109478.37
109478.37
109478.37
109478.37
109478.37
109478.37
109478.37
109478.37
109478.37
109478.37
109478.37
109478.37
109478.37
109478.37
109478.37
109478.37
109478.37
109478.37
109478.37
109478.37
109478.37
109478.37
109478.37
109478.37
109478.37
109478.37
109478.37
109478.37
109478.37
109478.37
109478.37
109478.37
109478.37
109478.37
109478.37
109478.37
109478.37
109478.37
109478.37
109478.37
109478.37
109478.37
109478.37
109478.37
109478.37
109478.37
109478.37
109478.37
109478.37
109478.37
109478.37
109478.37
109478.37
109478.37
109478.37
109478.37
109478.37
109478.37
109478.37
109478.37
109478.37
109478.37
109478.37
109478.37
109478.36
109478.36
109478.36
109478.36
109478.35
109478.36
109478.36
109478.37
109478.38
109478.39
109478.41
109478.44
109478.29
109478.34
109478.35
109478.36
109478.36
109478.37
109478.37
109478.37
109478.37
109478.37
109478.37
109478.37
109478.37
109478.37
109478.37
109478.37
109478.37
109478.37
109478.37
109478.37
109478.37
109478.37
109478.37
109478.37
109478.37
109478.37
109478.37
109478.37
109478.37
109478.37
109478.37
109478.37
109478.37
109478.37
109478.37
109478.37
109478.37
109478.37
109478.37
109478.37
109478.37
109478.37
109478.37
109478.37
109478.37
109478.37
109478.37
109478.37
109478.37
109478.37
109478.37
109478.37
109478.37
109478.37
109478.37
109478.37
109478.37
109478.37
109478.37
109478.37
109478.37
109478.37
109478.37
109478.37
109478.37
109478.37
109478.37
109478.37
109478.37
109478.37
109478.37
109478.37
109478.37
109478.37
109478.37
109478.37
109478.37
109478.37
109478.37
109478.37
109478.37
109478.37
109478.37
109478.37
109478.37
109478.37
109478.37
109478.37
109478.37
109478.37
109478.37
109478.37
109478.37
109478.37
109478.37
109478.37
109478.37
109478.37
109478.37
109478.37
109478.37
109478.37
109478.37
109478.37
109478.37
109478.37
109478.37
109478.37
109478.37
109478.37
109478.37
109478.37
109478.37
109478.37
109478.37
109478.37
109478.37
109478.37
109478.37
109478.37
109478.37
109478.37
109478.37
109478.37
109478.37
109478.37
109478.37
109478.37
109478.37
109478.37
109478.37
109478.37
109478.37
109478.37
109478.37
109478.37
109478.37
109478.37
109478.37
109478.37
109478.37
109478.37
109478.37
109478.37
109478.37
109478.37
109478.37
109478.37
109478.37
109478.37
109478.37
109478.37
109478.37
109478.37
109478.37
109478.37
109478.37
109478.37
109478.37
109478.37
109478.37
109478.37
109478.37
109478.37
109478.37
109478.37
109478.37
109478.37
109478.37
109478.37
109478.37
109478.37
109478.37
109478.37
109478.37
109478.37
109478.37
109478.37
109478.37
109478.37
109478.37
109478.37
109478.37
109478.37
109478.37
109478.37
109478.37
109478.37
109478.37
109478.37
109478.37
109478.37
109478.37
109478.37
109478.37
109478.37
109478.37
109478.37
109478.37
109478.37
109478.37
109478.37
109478.37
109478.37
109478.37
109478.37
109478.37
109478.37
109478.37
109478.37
109478.37
109478.37
109478.37
109478.37
109478.37
109478.37
109478.37
109478.37
109478.37
109478.37
109478.37
109478.37
109478.37
109478.37
109478.37
109478.37
109478.37
109478.37
109478.37
109478.37
109478.37
109478.37
109478.37
109478.37
109478.37
109478.37
109478.37
109478.37
109478.37
109478.37
109478.37
109478.37
109478.37
109478.37
109478.37
109478.37
109478.37
109478.37
109478.37
109478.37
109478.37
109478.37
109478.37
109478.37
109478.37
109478.37
109478.37