/*--------------------------------*- C++ -*----------------------------------*\
  =========                 |
  \\      /  F ield         | OpenFOAM: The Open Source CFD Toolbox
   \\    /   O peration     | Website:  https://openfoam.org
    \\  /    A nd           | Version:  7
     \\/     M anipulation  |
\*---------------------------------------------------------------------------*/
FoamFile
{
    version     2.0;
    format      ascii;
    class       surfaceScalarField;
    location    "0.00165";
    object      phi;
}
// * * * * * * * * * * * * * * * * * * * * * * * * * * * * * * * * * * * * * //

dimensions      [1 0 -1 0 0 0 0];

internalField   nonuniform List<scalar> 
4999
(
1.1915086
1.1923907
1.1932499
1.1940876
1.1949035
1.1956988
1.1964782
1.1972398
1.1979804
1.1986985
1.1993955
1.2000755
1.2007453
1.2014105
1.2020755
1.2027417
1.2034083
1.2040706
1.2047287
1.2053861
1.2060291
1.2066593
1.2072775
1.2078839
1.2084783
1.2090608
1.2096315
1.2101903
1.2107372
1.2112724
1.2117959
1.2123077
1.212808
1.2132968
1.2137743
1.2142405
1.2146956
1.2151396
1.2155728
1.2159953
1.2164071
1.2168084
1.2171993
1.2175799
1.2179504
1.218311
1.2186617
1.2190026
1.219334
1.2196559
1.2199684
1.2202718
1.2205661
1.2208515
1.221128
1.2213959
1.2216553
1.2219062
1.2221488
1.2223832
1.2226096
1.222828
1.2230386
1.2232416
1.2234369
1.2236248
1.2238054
1.2239787
1.224145
1.2243042
1.2244565
1.224602
1.2247409
1.2248732
1.2249991
1.2251186
1.2252319
1.225339
1.2254402
1.2255354
1.2256247
1.2257084
1.2257865
1.2258591
1.2259262
1.2259881
1.2260448
1.2260963
1.2261429
1.2261847
1.2262216
1.2262538
1.2262815
1.2263047
1.2263235
1.226338
1.2263483
1.2263546
1.2263568
1.2263553
1.2263499
1.2263409
1.2263282
1.2263123
1.2262932
1.2262708
1.2262452
1.2262163
1.2261841
1.2261489
1.2261106
1.2260694
1.2260253
1.2259785
1.2259289
1.2258767
1.2258219
1.2257647
1.2257049
1.2256429
1.2255784
1.2255118
1.2254429
1.225372
1.2252989
1.2252238
1.2251468
1.2250678
1.224987
1.2249044
1.22482
1.2247339
1.2246462
1.2245568
1.2244659
1.2243734
1.2242795
1.2241841
1.2240873
1.2239891
1.2238897
1.2237889
1.223687
1.2235838
1.2234794
1.2233739
1.2232673
1.2231597
1.223051
1.2229413
1.2228307
1.2227191
1.2226067
1.2224933
1.2223791
1.2222641
1.2221483
1.2220318
1.2219145
1.2217965
1.2216779
1.2215586
1.2214386
1.2213181
1.221197
1.2210753
1.2209531
1.2208304
1.2207071
1.2205835
1.2204594
1.2203348
1.2202099
1.2200845
1.2199588
1.2198328
1.2197064
1.2195797
1.2194527
1.2193255
1.219198
1.2190702
1.2189423
1.2188141
1.2186857
1.2185572
1.2184285
1.2182996
1.2181707
1.2180416
1.2179124
1.2177831
1.2176537
1.2175243
1.2173948
1.2172653
1.2171358
1.2170062
1.2168767
1.2167472
1.2166177
1.2164882
1.2163588
1.2162294
1.2161001
1.2159709
1.2158417
1.2157127
1.2155838
1.215455
1.2153263
1.2151977
1.2150693
1.2149411
1.214813
1.2146851
1.2145574
1.2144298
1.2143025
1.2141753
1.2140484
1.2139217
1.2137952
1.2136689
1.2135429
1.2134171
1.2132916
1.2131663
1.2130413
1.2129166
1.2127922
1.212668
1.2125441
1.2124206
1.2122973
1.2121743
1.2120517
1.2119293
1.2118073
1.2116857
1.2115643
1.2114433
1.2113227
1.2112024
1.2110824
1.2109628
1.2108436
1.2107248
1.2106063
1.2104882
1.2103705
1.2102531
1.2101362
1.2100197
1.2099035
1.2097878
1.2096725
1.2095576
1.2094431
1.209329
1.2092153
1.2091021
1.2089893
1.208877
1.208765
1.2086536
1.2085425
1.208432
1.2083218
1.2082121
1.2081029
1.2079942
1.2078859
1.207778
1.2076707
1.2075638
1.2074573
1.2073514
1.2072459
1.2071409
1.2070364
1.2069324
1.2068289
1.2067258
1.2066233
1.2065212
1.2064196
1.2063185
1.2062179
1.2061178
1.2060182
1.2059191
1.2058205
1.2057224
1.2056248
1.2055277
1.2054311
1.205335
1.2052394
1.2051444
1.2050498
1.2049557
1.2048621
1.2047691
1.2046765
1.2045844
1.2044929
1.2044018
1.2043113
1.2042212
1.2041317
1.2040427
1.2039541
1.2038661
1.2037786
1.2036916
1.203605
1.203519
1.2034335
1.2033485
1.203264
1.20318
1.2030965
1.2030134
1.2029309
1.2028489
1.2027674
1.2026863
1.2026058
1.2025258
1.2024462
1.2023672
1.2022886
1.2022106
1.202133
1.2020559
1.2019793
1.2019032
1.2018276
1.2017524
1.2016778
1.2016036
1.20153
1.2014568
1.201384
1.2013118
1.20124
1.2011688
1.2010979
1.2010276
1.2009578
1.2008884
1.2008194
1.200751
1.200683
1.2006154
1.2005484
1.2004818
1.2004156
1.2003499
1.2002846
1.2002198
1.2001554
1.2000915
1.200028
1.1999649
1.1999023
1.1998401
1.1997783
1.1997169
1.199656
1.1995954
1.1995353
1.1994756
1.1994162
1.1993573
1.1992987
1.1992406
1.1991828
1.1991254
1.1990683
1.1990116
1.1989553
1.1988993
1.1988437
1.1987885
1.1987335
1.1986789
1.1986247
1.1985707
1.1985171
1.1984638
1.1984108
1.1983582
1.1983058
1.1982537
1.1982019
1.1981504
1.1980992
1.1980482
1.1979975
1.1979472
1.197897
1.1978472
1.1977976
1.1977482
1.1976991
1.1976503
1.1976017
1.1975533
1.1975052
1.1974573
1.1974097
1.1973623
1.1973151
1.1972681
1.1972214
1.1971749
1.1971286
1.1970826
1.1970368
1.1969912
1.1969458
1.1969006
1.1968557
1.196811
1.1967665
1.1967222
1.1966781
1.1966343
1.1965907
1.1965473
1.1965041
1.1964611
1.1964184
1.1963759
1.1963335
1.1962915
1.1962496
1.196208
1.1961666
1.1961254
1.1960845
1.1960438
1.1960033
1.1959631
1.1959231
1.1958833
1.1958438
1.1958045
1.1957654
1.1957266
1.1956881
1.1956498
1.1956117
1.1955739
1.1955363
1.195499
1.1954619
1.1954251
1.1953886
1.1953523
1.1953163
1.1952805
1.195245
1.1952097
1.1951748
1.1951401
1.1951056
1.1950715
1.1950376
1.1950039
1.1949706
1.1949375
1.1949047
1.1948721
1.1948399
1.1948079
1.1947762
1.1947448
1.1947136
1.1946828
1.1946522
1.1946218
1.1945918
1.1945621
1.1945326
1.1945034
1.1944745
1.1944459
1.1944175
1.1943895
1.1943617
1.1943342
1.194307
1.1942801
1.1942534
1.194227
1.1942009
1.1941751
1.1941496
1.1941243
1.1940994
1.1940747
1.1940502
1.1940261
1.1940022
1.1939786
1.1939553
1.1939323
1.1939095
1.193887
1.1938647
1.1938428
1.1938211
1.1937996
1.1937785
1.1937576
1.1937369
1.1937166
1.1936965
1.1936766
1.193657
1.1936377
1.1936186
1.1935997
1.1935812
1.1935628
1.1935447
1.1935269
1.1935093
1.193492
1.1934749
1.193458
1.1934414
1.193425
1.1934089
1.193393
1.1933773
1.1933618
1.1933466
1.1933316
1.1933169
1.1933023
1.193288
1.1932739
1.19326
1.1932463
1.1932328
1.1932196
1.1932066
1.1931937
1.1931811
1.1931687
1.1931565
1.1931444
1.1931326
1.193121
1.1931095
1.1930983
1.1930872
1.1930763
1.1930657
1.1930552
1.1930448
1.1930347
1.1930247
1.1930149
1.1930053
1.1929958
1.1929866
1.1929774
1.1929685
1.1929597
1.192951
1.1929426
1.1929342
1.1929261
1.1929181
1.1929102
1.1929025
1.1928949
1.1928875
1.1928802
1.192873
1.192866
1.1928591
1.1928524
1.1928458
1.1928393
1.1928329
1.1928267
1.1928206
1.1928146
1.1928087
1.192803
1.1927974
1.1927918
1.1927864
1.1927811
1.192776
1.1927709
1.1927659
1.1927611
1.1927563
1.1927516
1.1927471
1.1927426
1.1927382
1.1927339
1.1927298
1.1927257
1.1927217
1.1927177
1.1927139
1.1927102
1.1927065
1.1927029
1.1926994
1.192696
1.1926926
1.1926893
1.1926861
1.192683
1.1926799
1.1926769
1.192674
1.1926712
1.1926684
1.1926656
1.192663
1.1926604
1.1926578
1.1926554
1.1926529
1.1926506
1.1926483
1.192646
1.1926438
1.1926416
1.1926395
1.1926375
1.1926355
1.1926335
1.1926316
1.1926297
1.1926279
1.1926261
1.1926244
1.1926227
1.1926211
1.1926194
1.1926179
1.1926163
1.1926148
1.1926134
1.192612
1.1926106
1.1926092
1.1926079
1.1926066
1.1926054
1.1926041
1.1926029
1.1926018
1.1926006
1.1925995
1.1925985
1.1925974
1.1925964
1.1925954
1.1925944
1.1925935
1.1925926
1.1925917
1.1925908
1.1925899
1.1925891
1.1925883
1.1925875
1.1925867
1.192586
1.1925853
1.1925846
1.1925839
1.1925832
1.1925826
1.192582
1.1925813
1.1925808
1.1925802
1.1925796
1.1925791
1.1925785
1.192578
1.1925775
1.192577
1.1925766
1.1925761
1.1925757
1.1925752
1.1925748
1.1925744
1.192574
1.1925736
1.1925732
1.1925729
1.1925725
1.1925722
1.1925718
1.1925715
1.1925712
1.1925709
1.1925706
1.1925703
1.19257
1.1925698
1.1925695
1.1925692
1.192569
1.1925688
1.1925685
1.1925683
1.1925681
1.1925678
1.1925676
1.1925674
1.1925672
1.192567
1.1925668
1.1925666
1.1925665
1.1925663
1.1925661
1.1925659
1.1925658
1.1925656
1.1925654
1.1925653
1.1925651
1.192565
1.1925648
1.1925647
1.1925645
1.1925644
1.1925643
1.1925641
1.192564
1.1925639
1.1925637
1.1925636
1.1925635
1.1925634
1.1925632
1.1925631
1.192563
1.1925629
1.1925628
1.1925627
1.1925626
1.1925624
1.1925623
1.1925622
1.1925621
1.192562
1.1925619
1.1925618
1.1925617
1.1925616
1.1925615
1.1925614
1.1925613
1.1925612
1.1925611
1.192561
1.1925609
1.1925608
1.1925607
1.1925606
1.1925605
1.1925604
1.1925603
1.1925602
1.1925601
1.19256
1.1925599
1.1925599
1.1925598
1.1925597
1.1925596
1.1925595
1.1925594
1.1925593
1.1925592
1.1925591
1.1925591
1.192559
1.1925589
1.1925588
1.1925587
1.1925586
1.1925586
1.1925585
1.1925584
1.1925583
1.1925582
1.1925581
1.1925581
1.192558
1.1925579
1.1925578
1.1925578
1.1925577
1.1925576
1.1925575
1.1925575
1.1925574
1.1925573
1.1925572
1.1925572
1.1925571
1.192557
1.1925569
1.1925569
1.1925568
1.1925567
1.1925567
1.1925566
1.1925565
1.1925565
1.1925564
1.1925563
1.1925563
1.1925562
1.1925561
1.192556
1.192556
1.1925559
1.1925558
1.1925558
1.1925557
1.1925556
1.1925556
1.1925555
1.1925554
1.1925554
1.1925553
1.1925552
1.1925552
1.1925551
1.192555
1.192555
1.1925549
1.1925548
1.1925548
1.1925547
1.1925546
1.1925546
1.1925545
1.1925544
1.1925544
1.1925543
1.1925542
1.1925542
1.1925541
1.192554
1.192554
1.1925539
1.1925538
1.1925538
1.1925537
1.1925536
1.1925536
1.1925535
1.1925534
1.1925534
1.1925533
1.1925532
1.1925531
1.1925531
1.192553
1.1925529
1.1925529
1.1925528
1.1925527
1.1925527
1.1925526
1.1925525
1.1925525
1.1925524
1.1925523
1.1925523
1.1925522
1.1925522
1.1925521
1.192552
1.192552
1.1925519
1.1925518
1.1925518
1.1925517
1.1925517
1.1925516
1.1925515
1.1925515
1.1925514
1.1925514
1.1925513
1.1925512
1.1925512
1.1925511
1.1925511
1.192551
1.1925509
1.1925509
1.1925508
1.1925508
1.1925507
1.1925507
1.1925506
1.1925506
1.1925505
1.1925504
1.1925504
1.1925503
1.1925503
1.1925502
1.1925502
1.1925501
1.1925501
1.19255
1.1925499
1.1925499
1.1925498
1.1925498
1.1925497
1.1925497
1.1925496
1.1925496
1.1925495
1.1925495
1.1925494
1.1925493
1.1925493
1.1925492
1.1925492
1.1925491
1.1925491
1.192549
1.192549
1.1925489
1.1925489
1.1925488
1.1925488
1.1925487
1.1925486
1.1925486
1.1925485
1.1925485
1.1925484
1.1925484
1.1925483
1.1925483
1.1925482
1.1925482
1.1925481
1.1925481
1.192548
1.192548
1.1925479
1.1925479
1.1925478
1.1925477
1.1925477
1.1925476
1.1925476
1.1925475
1.1925475
1.1925474
1.1925474
1.1925473
1.1925473
1.1925472
1.1925472
1.1925471
1.1925471
1.192547
1.192547
1.1925469
1.1925469
1.1925468
1.1925468
1.1925467
1.1925467
1.1925466
1.1925466
1.1925465
1.1925465
1.1925464
1.1925464
1.1925463
1.1925463
1.1925462
1.1925462
1.1925461
1.1925461
1.192546
1.192546
1.1925459
1.1925459
1.1925458
1.1925457
1.1925457
1.1925456
1.1925456
1.1925455
1.1925455
1.1925454
1.1925454
1.1925453
1.1925453
1.1925452
1.1925452
1.1925451
1.1925451
1.192545
1.1925449
1.1925449
1.1925448
1.1925448
1.1925447
1.1925447
1.1925446
1.1925446
1.1925445
1.1925445
1.1925444
1.1925443
1.1925443
1.1925442
1.1925442
1.1925441
1.1925441
1.192544
1.192544
1.1925439
1.1925438
1.1925438
1.1925437
1.1925437
1.1925436
1.1925436
1.1925435
1.1925435
1.1925434
1.1925434
1.1925433
1.1925433
1.1925432
1.1925432
1.1925431
1.192543
1.192543
1.1925429
1.1925429
1.1925428
1.1925428
1.1925427
1.1925427
1.1925426
1.1925426
1.1925425
1.1925425
1.1925424
1.1925424
1.1925423
1.1925423
1.1925422
1.1925421
1.1925421
1.192542
1.192542
1.1925419
1.1925419
1.1925418
1.1925418
1.1925417
1.1925417
1.1925416
1.1925416
1.1925415
1.1925415
1.1925414
1.1925414
1.1925413
1.1925413
1.1925412
1.1925412
1.1925411
1.1925411
1.192541
1.192541
1.1925409
1.1925409
1.1925408
1.1925408
1.1925407
1.1925406
1.1925406
1.1925405
1.1925405
1.1925404
1.1925404
1.1925403
1.1925403
1.1925402
1.1925402
1.1925401
1.1925401
1.19254
1.19254
1.1925399
1.1925399
1.1925398
1.1925398
1.1925397
1.1925397
1.1925396
1.1925396
1.1925395
1.1925395
1.1925394
1.1925394
1.1925393
1.1925393
1.1925392
1.1925392
1.1925391
1.1925391
1.192539
1.192539
1.1925389
1.1925389
1.1925388
1.1925388
1.1925387
1.1925387
1.1925386
1.1925386
1.1925385
1.1925385
1.1925384
1.1925384
1.1925384
1.1925383
1.1925383
1.1925382
1.1925382
1.1925381
1.1925381
1.192538
1.192538
1.1925379
1.1925379
1.1925379
1.1925378
1.1925378
1.1925377
1.1925377
1.1925376
1.1925376
1.1925375
1.1925375
1.1925375
1.1925374
1.1925374
1.1925373
1.1925373
1.1925372
1.1925372
1.1925372
1.1925371
1.1925371
1.192537
1.192537
1.1925369
1.1925369
1.1925369
1.1925368
1.1925368
1.1925367
1.1925367
1.1925366
1.1925366
1.1925366
1.1925365
1.1925365
1.1925364
1.1925364
1.1925364
1.1925363
1.1925363
1.1925362
1.1925362
1.1925361
1.1925361
1.1925361
1.192536
1.192536
1.1925359
1.1925359
1.1925358
1.1925358
1.1925358
1.1925357
1.1925357
1.1925356
1.1925356
1.1925355
1.1925355
1.1925354
1.1925354
1.1925354
1.1925353
1.1925353
1.1925352
1.1925352
1.1925351
1.1925351
1.192535
1.192535
1.1925349
1.1925349
1.1925348
1.1925348
1.1925348
1.1925347
1.1925347
1.1925346
1.1925346
1.1925345
1.1925345
1.1925344
1.1925344
1.1925344
1.1925343
1.1925343
1.1925342
1.1925342
1.1925341
1.1925341
1.192534
1.192534
1.1925339
1.1925339
1.1925338
1.1925338
1.1925337
1.1925337
1.1925337
1.1925336
1.1925336
1.1925335
1.1925335
1.1925334
1.1925334
1.1925333
1.1925333
1.1925332
1.1925332
1.1925331
1.1925331
1.1925331
1.192533
1.192533
1.1925329
1.1925329
1.1925328
1.1925328
1.1925328
1.1925327
1.1925327
1.1925326
1.1925326
1.1925325
1.1925325
1.1925324
1.1925324
1.1925323
1.1925323
1.1925323
1.1925322
1.1925322
1.1925321
1.1925321
1.192532
1.192532
1.192532
1.1925319
1.1925319
1.1925318
1.1925318
1.1925317
1.1925317
1.1925317
1.1925316
1.1925316
1.1925315
1.1925315
1.1925314
1.1925314
1.1925314
1.1925313
1.1925313
1.1925312
1.1925312
1.1925311
1.1925311
1.192531
1.192531
1.192531
1.1925309
1.1925309
1.1925308
1.1925308
1.1925308
1.1925307
1.1925307
1.1925306
1.1925306
1.1925305
1.1925305
1.1925305
1.1925304
1.1925304
1.1925303
1.1925303
1.1925303
1.1925302
1.1925302
1.1925301
1.1925301
1.19253
1.19253
1.19253
1.1925299
1.1925299
1.1925298
1.1925298
1.1925297
1.1925297
1.1925297
1.1925296
1.1925296
1.1925295
1.1925295
1.1925295
1.1925294
1.1925294
1.1925293
1.1925293
1.1925293
1.1925292
1.1925292
1.1925291
1.1925291
1.192529
1.192529
1.192529
1.1925289
1.1925289
1.1925288
1.1925288
1.1925288
1.1925287
1.1925287
1.1925286
1.1925286
1.1925286
1.1925285
1.1925285
1.1925284
1.1925284
1.1925284
1.1925283
1.1925283
1.1925283
1.1925282
1.1925282
1.1925281
1.1925281
1.1925281
1.192528
1.192528
1.1925279
1.1925279
1.1925279
1.1925278
1.1925278
1.1925277
1.1925277
1.1925277
1.1925276
1.1925276
1.1925276
1.1925275
1.1925275
1.1925274
1.1925274
1.1925274
1.1925273
1.1925273
1.1925272
1.1925272
1.1925272
1.1925271
1.1925271
1.192527
1.192527
1.192527
1.1925269
1.1925269
1.1925268
1.1925268
1.1925268
1.1925267
1.1925267
1.1925267
1.1925266
1.1925266
1.1925265
1.1925265
1.1925265
1.1925264
1.1925264
1.1925264
1.1925263
1.1925263
1.1925262
1.1925262
1.1925261
1.1925261
1.1925261
1.192526
1.192526
1.1925259
1.1925259
1.1925259
1.1925258
1.1925258
1.1925257
1.1925257
1.1925257
1.1925256
1.1925256
1.1925255
1.1925255
1.1925255
1.1925254
1.1925254
1.1925253
1.1925253
1.1925253
1.1925252
1.1925252
1.1925251
1.1925251
1.1925251
1.192525
1.192525
1.1925249
1.1925249
1.1925249
1.1925248
1.1925248
1.1925247
1.1925247
1.1925247
1.1925246
1.1925246
1.1925245
1.1925245
1.1925244
1.1925244
1.1925244
1.1925243
1.1925243
1.1925242
1.1925242
1.1925242
1.1925241
1.1925241
1.192524
1.192524
1.192524
1.1925239
1.1925239
1.1925238
1.1925238
1.1925238
1.1925237
1.1925237
1.1925237
1.1925236
1.1925236
1.1925235
1.1925235
1.1925234
1.1925234
1.1925234
1.1925233
1.1925233
1.1925232
1.1925232
1.1925231
1.1925231
1.1925231
1.192523
1.192523
1.1925229
1.1925229
1.1925229
1.1925228
1.1925228
1.1925228
1.1925227
1.1925227
1.1925226
1.1925226
1.1925226
1.1925225
1.1925225
1.1925224
1.1925224
1.1925224
1.1925223
1.1925223
1.1925222
1.1925222
1.1925222
1.1925221
1.1925221
1.192522
1.192522
1.192522
1.1925219
1.1925219
1.1925218
1.1925218
1.1925218
1.1925217
1.1925217
1.1925216
1.1925216
1.1925216
1.1925215
1.1925215
1.1925214
1.1925214
1.1925214
1.1925213
1.1925213
1.1925212
1.1925212
1.1925212
1.1925211
1.1925211
1.192521
1.192521
1.192521
1.1925209
1.1925209
1.1925208
1.1925208
1.1925208
1.1925207
1.1925207
1.1925206
1.1925206
1.1925206
1.1925205
1.1925205
1.1925204
1.1925204
1.1925204
1.1925203
1.1925203
1.1925202
1.1925202
1.1925202
1.1925201
1.1925201
1.19252
1.19252
1.19252
1.1925199
1.1925199
1.1925198
1.1925198
1.1925198
1.1925197
1.1925197
1.1925196
1.1925196
1.1925196
1.1925195
1.1925195
1.1925194
1.1925194
1.1925194
1.1925193
1.1925193
1.1925192
1.1925192
1.1925192
1.1925191
1.1925191
1.192519
1.192519
1.192519
1.1925189
1.1925189
1.1925188
1.1925188
1.1925188
1.1925187
1.1925187
1.1925186
1.1925186
1.1925185
1.1925185
1.1925185
1.1925184
1.1925184
1.1925183
1.1925183
1.1925183
1.1925182
1.1925182
1.1925181
1.1925181
1.1925181
1.192518
1.192518
1.1925179
1.1925179
1.1925179
1.1925178
1.1925178
1.1925177
1.1925177
1.1925177
1.1925176
1.1925176
1.1925175
1.1925175
1.1925175
1.1925174
1.1925174
1.1925173
1.1925173
1.1925173
1.1925172
1.1925172
1.1925171
1.1925171
1.1925171
1.192517
1.192517
1.1925169
1.1925169
1.1925169
1.1925168
1.1925168
1.1925167
1.1925167
1.1925167
1.1925166
1.1925166
1.1925165
1.1925165
1.1925165
1.1925164
1.1925164
1.1925163
1.1925163
1.1925163
1.1925162
1.1925162
1.1925162
1.1925161
1.1925161
1.192516
1.192516
1.192516
1.1925159
1.1925159
1.1925158
1.1925158
1.1925158
1.1925157
1.1925157
1.1925157
1.1925156
1.1925156
1.1925155
1.1925155
1.1925155
1.1925154
1.1925154
1.1925154
1.1925153
1.1925153
1.1925152
1.1925152
1.1925152
1.1925151
1.1925151
1.192515
1.192515
1.192515
1.1925149
1.1925149
1.1925148
1.1925148
1.1925148
1.1925147
1.1925147
1.1925147
1.1925146
1.1925146
1.1925145
1.1925145
1.1925145
1.1925144
1.1925144
1.1925144
1.1925143
1.1925143
1.1925142
1.1925142
1.1925142
1.1925141
1.1925141
1.192514
1.192514
1.192514
1.1925139
1.1925139
1.1925138
1.1925138
1.1925138
1.1925137
1.1925137
1.1925137
1.1925136
1.1925136
1.1925136
1.1925135
1.1925135
1.1925134
1.1925134
1.1925134
1.1925133
1.1925133
1.1925132
1.1925132
1.1925132
1.1925131
1.1925131
1.192513
1.192513
1.192513
1.1925129
1.1925129
1.1925128
1.1925128
1.1925128
1.1925127
1.1925127
1.1925126
1.1925126
1.1925126
1.1925125
1.1925125
1.1925124
1.1925124
1.1925124
1.1925123
1.1925123
1.1925122
1.1925122
1.1925122
1.1925121
1.1925121
1.192512
1.192512
1.192512
1.1925119
1.1925119
1.1925118
1.1925118
1.1925118
1.1925117
1.1925117
1.1925116
1.1925116
1.1925116
1.1925115
1.1925115
1.1925114
1.1925114
1.1925113
1.1925113
1.1925113
1.1925112
1.1925112
1.1925111
1.1925111
1.192511
1.192511
1.192511
1.1925109
1.1925109
1.1925108
1.1925108
1.1925108
1.1925107
1.1925107
1.1925106
1.1925106
1.1925106
1.1925105
1.1925105
1.1925104
1.1925104
1.1925103
1.1925103
1.1925103
1.1925102
1.1925102
1.1925101
1.1925101
1.19251
1.19251
1.19251
1.1925099
1.1925099
1.1925098
1.1925098
1.1925097
1.1925097
1.1925097
1.1925096
1.1925096
1.1925095
1.1925095
1.1925095
1.1925094
1.1925094
1.1925093
1.1925093
1.1925092
1.1925092
1.1925092
1.1925091
1.1925091
1.192509
1.192509
1.1925089
1.1925089
1.1925089
1.1925088
1.1925088
1.1925087
1.1925087
1.1925086
1.1925086
1.1925086
1.1925085
1.1925085
1.1925084
1.1925084
1.1925083
1.1925083
1.1925083
1.1925082
1.1925082
1.1925081
1.1925081
1.192508
1.192508
1.192508
1.1925079
1.1925079
1.1925078
1.1925078
1.1925077
1.1925077
1.1925077
1.1925076
1.1925076
1.1925075
1.1925075
1.1925074
1.1925074
1.1925073
1.1925073
1.1925073
1.1925072
1.1925072
1.1925071
1.1925071
1.192507
1.192507
1.192507
1.1925069
1.1925069
1.1925068
1.1925068
1.1925067
1.1925067
1.1925067
1.1925066
1.1925066
1.1925065
1.1925065
1.1925064
1.1925064
1.1925063
1.1925063
1.1925063
1.1925062
1.1925062
1.1925061
1.1925061
1.192506
1.192506
1.192506
1.1925059
1.1925059
1.1925058
1.1925058
1.1925057
1.1925057
1.1925056
1.1925056
1.1925055
1.1925055
1.1925055
1.1925054
1.1925054
1.1925053
1.1925053
1.1925052
1.1925052
1.1925052
1.1925051
1.1925051
1.192505
1.192505
1.1925049
1.1925049
1.1925048
1.1925048
1.1925047
1.1925047
1.1925047
1.1925046
1.1925046
1.1925045
1.1925045
1.1925044
1.1925044
1.1925043
1.1925043
1.1925042
1.1925042
1.1925041
1.1925041
1.1925041
1.192504
1.192504
1.1925039
1.1925039
1.1925038
1.1925038
1.1925037
1.1925037
1.1925036
1.1925036
1.1925036
1.1925035
1.1925035
1.1925034
1.1925034
1.1925033
1.1925033
1.1925032
1.1925032
1.1925031
1.1925031
1.192503
1.192503
1.1925029
1.1925029
1.1925029
1.1925028
1.1925028
1.1925027
1.1925027
1.1925026
1.1925026
1.1925025
1.1925025
1.1925024
1.1925024
1.1925023
1.1925023
1.1925022
1.1925022
1.1925021
1.1925021
1.1925021
1.192502
1.192502
1.1925019
1.1925019
1.1925018
1.1925018
1.1925017
1.1925017
1.1925016
1.1925016
1.1925015
1.1925015
1.1925014
1.1925014
1.1925013
1.1925013
1.1925012
1.1925012
1.1925011
1.1925011
1.1925011
1.192501
1.192501
1.1925009
1.1925009
1.1925008
1.1925008
1.1925007
1.1925007
1.1925006
1.1925006
1.1925005
1.1925005
1.1925004
1.1925004
1.1925003
1.1925003
1.1925002
1.1925002
1.1925001
1.1925001
1.1925
1.1925
1.1924999
1.1924999
1.1924998
1.1924998
1.1924997
1.1924997
1.1924996
1.1924996
1.1924996
1.1924995
1.1924995
1.1924994
1.1924994
1.1924993
1.1924992
1.1924992
1.1924991
1.1924991
1.192499
1.192499
1.1924989
1.1924989
1.1924988
1.1924988
1.1924987
1.1924987
1.1924986
1.1924986
1.1924985
1.1924985
1.1924984
1.1924984
1.1924983
1.1924983
1.1924982
1.1924982
1.1924981
1.1924981
1.192498
1.192498
1.1924979
1.1924979
1.1924978
1.1924978
1.1924977
1.1924977
1.1924976
1.1924975
1.1924975
1.1924974
1.1924974
1.1924973
1.1924973
1.1924972
1.1924972
1.1924971
1.1924971
1.192497
1.192497
1.1924969
1.1924969
1.1924968
1.1924967
1.1924967
1.1924966
1.1924966
1.1924965
1.1924965
1.1924964
1.1924964
1.1924963
1.1924962
1.1924962
1.1924961
1.1924961
1.192496
1.192496
1.1924959
1.1924959
1.1924958
1.1924957
1.1924957
1.1924956
1.1924956
1.1924955
1.1924955
1.1924954
1.1924954
1.1924953
1.1924952
1.1924952
1.1924951
1.1924951
1.192495
1.192495
1.1924949
1.1924948
1.1924948
1.1924947
1.1924947
1.1924946
1.1924945
1.1924945
1.1924944
1.1924944
1.1924943
1.1924943
1.1924942
1.1924942
1.1924941
1.192494
1.192494
1.1924939
1.1924939
1.1924938
1.1924937
1.1924937
1.1924936
1.1924936
1.1924935
1.1924934
1.1924934
1.1924933
1.1924933
1.1924932
1.1924931
1.1924931
1.192493
1.192493
1.1924929
1.1924928
1.1924928
1.1924927
1.1924926
1.1924926
1.1924925
1.1924925
1.1924924
1.1924923
1.1924923
1.1924922
1.1924921
1.1924921
1.192492
1.1924919
1.1924919
1.1924918
1.1924918
1.1924917
1.1924916
1.1924916
1.1924915
1.1924914
1.1924914
1.1924913
1.1924912
1.1924912
1.1924911
1.192491
1.192491
1.1924909
1.1924908
1.1924908
1.1924907
1.1924906
1.1924906
1.1924905
1.1924904
1.1924904
1.1924903
1.1924902
1.1924902
1.1924901
1.19249
1.19249
1.1924899
1.1924898
1.1924898
1.1924897
1.1924896
1.1924896
1.1924895
1.1924894
1.1924894
1.1924893
1.1924892
1.1924891
1.1924891
1.192489
1.1924889
1.1924889
1.1924888
1.1924887
1.1924886
1.1924886
1.1924885
1.1924884
1.1924884
1.1924883
1.1924882
1.1924881
1.1924881
1.192488
1.1924879
1.1924879
1.1924878
1.1924877
1.1924877
1.1924876
1.1924875
1.1924874
1.1924874
1.1924873
1.1924872
1.1924871
1.1924871
1.192487
1.1924869
1.1924868
1.1924868
1.1924867
1.1924866
1.1924865
1.1924865
1.1924864
1.1924863
1.1924862
1.1924862
1.1924861
1.192486
1.1924859
1.1924858
1.1924858
1.1924857
1.1924856
1.1924855
1.1924855
1.1924854
1.1924853
1.1924852
1.1924851
1.1924851
1.192485
1.1924849
1.1924848
1.1924847
1.1924847
1.1924846
1.1924845
1.1924844
1.1924843
1.1924842
1.1924842
1.1924841
1.192484
1.1924839
1.1924838
1.1924837
1.1924837
1.1924836
1.1924835
1.1924834
1.1924833
1.1924832
1.1924832
1.1924831
1.192483
1.1924829
1.1924828
1.1924827
1.1924826
1.1924825
1.1924825
1.1924824
1.1924823
1.1924822
1.1924821
1.192482
1.1924819
1.1924818
1.1924817
1.1924816
1.1924816
1.1924815
1.1924814
1.1924813
1.1924812
1.1924811
1.192481
1.1924809
1.1924808
1.1924807
1.1924806
1.1924805
1.1924804
1.1924803
1.1924802
1.1924801
1.19248
1.1924799
1.1924798
1.1924797
1.1924796
1.1924795
1.1924794
1.1924793
1.1924792
1.1924791
1.192479
1.1924789
1.1924788
1.1924787
1.1924786
1.1924785
1.1924784
1.1924783
1.1924782
1.192478
1.1924779
1.1924778
1.1924777
1.1924776
1.1924775
1.1924774
1.1924773
1.1924772
1.1924771
1.192477
1.1924769
1.1924768
1.1924767
1.1924765
1.1924764
1.1924763
1.1924762
1.1924761
1.192476
1.1924758
1.1924757
1.1924756
1.1924755
1.1924754
1.1924752
1.1924751
1.192475
1.1924749
1.1924748
1.1924746
1.1924745
1.1924744
1.1924743
1.1924741
1.192474
1.1924739
1.1924738
1.1924736
1.1924735
1.1924734
1.1924733
1.1924731
1.192473
1.1924729
1.1924727
1.1924726
1.1924725
1.1924724
1.1924722
1.1924721
1.192472
1.1924718
1.1924717
1.1924716
1.1924714
1.1924713
1.1924711
1.192471
1.1924709
1.1924707
1.1924706
1.1924704
1.1924703
1.1924702
1.19247
1.1924699
1.1924697
1.1924696
1.1924694
1.1924693
1.1924691
1.192469
1.1924688
1.1924687
1.1924685
1.1924683
1.1924682
1.192468
1.1924679
1.1924677
1.1924676
1.1924674
1.1924673
1.1924671
1.1924669
1.1924668
1.1924666
1.1924665
1.1924663
1.1924661
1.1924659
1.1924658
1.1924656
1.1924654
1.1924653
1.1924651
1.1924649
1.1924647
1.1924645
1.1924643
1.1924642
1.192464
1.1924638
1.1924636
1.1924634
1.1924632
1.192463
1.1924628
1.1924627
1.1924625
1.1924623
1.1924621
1.1924619
1.1924617
1.1924615
1.1924613
1.1924611
1.1924609
1.1924606
1.1924604
1.1924602
1.19246
1.1924598
1.1924596
1.1924593
1.1924591
1.1924589
1.1924587
1.1924584
1.1924582
1.192458
1.1924578
1.1924575
1.1924573
1.1924571
1.1924568
1.1924566
1.1924563
1.1924561
1.1924558
1.1924556
1.1924553
1.1924551
1.1924548
1.1924546
1.1924543
1.192454
1.1924538
1.1924535
1.1924533
1.192453
1.1924527
1.1924524
1.1924522
1.1924519
1.1924516
1.1924513
1.192451
1.1924507
1.1924504
1.1924501
1.1924498
1.1924495
1.1924492
1.1924489
1.1924486
1.1924482
1.1924479
1.1924476
1.1924473
1.192447
1.1924466
1.1924463
1.192446
1.1924456
1.1924453
1.1924449
1.1924446
1.1924442
1.1924439
1.1924435
1.1924431
1.1924428
1.1924424
1.192442
1.1924416
1.1924412
1.1924409
1.1924405
1.1924401
1.1924397
1.1924393
1.1924389
1.1924385
1.1924381
1.1924377
1.1924372
1.1924368
1.1924364
1.1924359
1.1924355
1.192435
1.1924345
1.1924341
1.1924336
1.1924331
1.1924326
1.192432
1.1924315
1.1924309
1.1924304
1.1924298
1.1924292
1.1924286
1.1924279
1.1924273
1.1924266
1.1924259
1.1924252
1.1924245
1.1924238
1.192423
1.1924222
1.1924214
1.1924206
1.1924198
1.1924189
1.1924181
1.1924172
1.1924162
1.1924153
1.1924143
1.1924133
1.1924123
1.1924113
1.1924103
1.1924092
1.1924081
1.1924069
1.1924058
1.1924046
1.1924033
1.1924021
1.1924008
1.1923994
1.1923981
1.1923967
1.1923953
1.1923938
1.1923924
1.1923909
1.1923895
1.192388
1.1923865
1.1923851
1.1923836
1.1923822
1.1923808
1.1923794
1.1923781
1.1923769
1.1923758
1.1923747
1.1923738
1.1923731
1.1923724
1.192372
1.1923717
1.1923716
1.1923715
1.1923716
1.1923719
1.1923727
1.1923748
1.1923772
1.1923796
1.1923816
1.192383
1.1923837
1.1923838
1.1923836
1.1923826
1.1923796
1.1923717
1.1923516
1.1923021
1.192181
1.1918885
1.1911828
1.1897689
1.1878977
1.185567
1.1828039
1.1796605
1.1762088
1.1725344
1.16873
1.1648887
1.1610983
1.1574368
1.1539691
1.1507453
1.1478001
1.1451536
1.1428127
1.1407731
1.1390216
1.1375383
1.1362991
1.1352774
1.1344459
1.1337778
1.1332478
1.1328327
1.1325119
1.1322672
1.1320834
1.1319473
1.1318485
1.1317782
1.1317294
1.1316969
1.1316761
1.131664
1.1316578
1.1316555
1.1316551
1.131656
1.1316603
1.1316671
1.1316735
1.1316796
1.1316853
1.1316907
1.1316956
1.1317002
1.1317044
1.1317083
1.1317118
1.1317151
1.1317181
1.1317209
1.1317235
1.1317259
1.1317281
1.1317301
1.1317321
1.1317339
1.1317356
1.1317372
1.1317388
1.1317402
1.1317416
1.131743
1.1317442
1.1317455
1.1317466
1.1317477
1.1317488
1.1317499
1.1317509
1.1317518
1.1317527
1.1317536
1.1317545
1.1317553
1.1317562
1.131757
1.1317577
1.1317585
1.1317592
1.1317599
1.1317606
1.1317613
1.1317619
1.1317626
1.1317632
1.1317638
1.1317644
1.131765
1.1317656
1.1317662
1.1317668
1.1317673
1.1317679
1.1317684
1.131769
1.1317695
1.1317701
1.1317706
1.1317712
1.1317717
1.1317722
1.1317728
1.1317733
1.1317738
1.1317743
1.1317748
1.1317753
1.1317758
1.1317763
1.1317768
1.1317772
1.1317777
1.1317782
1.1317786
1.1317791
1.1317795
1.1317799
1.1317803
1.1317808
1.1317812
1.1317816
1.131782
1.1317823
1.1317827
1.1317831
1.1317834
1.1317838
1.1317841
1.1317845
1.1317848
1.1317852
1.1317855
1.1317858
1.1317861
1.1317864
1.1317867
1.131787
1.1317873
1.1317876
1.1317879
1.1317881
1.1317884
1.1317887
1.131789
1.1317892
1.1317895
1.1317898
1.13179
1.1317903
1.1317905
1.1317908
1.131791
1.1317912
1.1317915
1.1317917
1.1317919
1.1317922
1.1317924
1.1317926
1.1317928
1.1317931
1.1317933
1.1317935
1.1317937
1.1317939
1.1317941
1.1317943
1.1317945
1.1317947
1.1317949
1.1317951
1.1317953
1.1317954
1.1317956
1.1317958
1.131796
1.1317962
1.1317964
1.1317965
1.1317967
1.1317969
1.1317971
1.1317972
1.1317974
1.1317976
1.1317977
1.1317979
1.1317981
1.1317982
1.1317984
1.1317985
1.1317987
1.1317988
1.131799
1.1317991
1.1317993
1.1317994
1.1317996
1.1317997
1.1317999
1.1318
1.1318002
1.1318003
1.1318004
1.1318006
1.1318007
1.1318008
1.131801
1.1318011
1.1318012
1.1318014
1.1318015
1.1318016
1.1318018
1.1318019
1.131802
1.1318021
1.1318023
1.1318024
1.1318025
1.1318026
1.1318027
1.1318028
1.131803
1.1318031
1.1318032
1.1318033
1.1318034
1.1318035
1.1318036
1.1318038
1.1318039
1.131804
1.1318041
1.1318042
1.1318043
1.1318044
1.1318045
1.1318046
1.1318047
1.1318048
1.1318049
1.131805
1.1318051
1.1318052
1.1318053
1.1318054
1.1318055
1.1318056
1.1318057
1.1318058
1.1318058
1.1318059
1.131806
1.1318061
1.1318062
1.1318063
1.1318064
1.1318065
1.1318066
1.1318066
1.1318067
1.1318068
1.1318069
1.131807
1.1318071
1.1318072
1.1318072
1.1318073
1.1318074
1.1318075
1.1318076
1.1318076
1.1318077
1.1318078
1.1318079
1.1318079
1.131808
1.1318081
1.1318082
1.1318082
1.1318083
1.1318084
1.1318085
1.1318085