/*--------------------------------*- C++ -*----------------------------------*\
| =========                 |                                                 |
| \\      /  F ield         | OpenFOAM: The Open Source CFD Toolbox           |
|  \\    /   O peration     | Version:  4.x                                   |
|   \\  /    A nd           | Web:      www.OpenFOAM.org                      |
|    \\/     M anipulation  |                                                 |
\*---------------------------------------------------------------------------*/
FoamFile
{
    version     2.0;
    format      ascii;
    class       surfaceScalarField;
    location    "0.42";
    object      phi;
}
// * * * * * * * * * * * * * * * * * * * * * * * * * * * * * * * * * * * * * //

dimensions      [1 0 -1 0 0 0 0];

internalField   nonuniform List<scalar> 
17861
(
2.288426284e-08
2.288428398e-08
1.278425597e-07
1.809440692e-08
2.750377241e-08
1.50897193e-07
1.154517574e-08
2.788589427e-08
1.522744432e-07
7.477268189e-09
2.800541837e-08
1.496736049e-07
4.93092326e-09
2.799124361e-08
1.481662227e-07
2.800212271e-08
1.471601392e-07
3.379791431e-09
2.750375038e-08
1.809444953e-08
1.508971951e-07
2.218669778e-08
2.218674366e-08
1.842452009e-07
1.373626089e-08
2.243603858e-08
1.875114131e-07
8.466888924e-09
2.238329581e-08
1.845026322e-07
5.325028445e-09
2.229502041e-08
1.82449234e-07
2.227485314e-08
1.811330738e-07
3.530368868e-09
2.788587376e-08
1.154523501e-08
1.522744472e-07
2.2435994e-08
1.373632523e-08
1.875114144e-07
1.389579026e-08
1.38958535e-08
1.906915212e-07
8.666852364e-09
1.379966251e-08
1.874237077e-07
5.563036869e-09
1.368004668e-08
1.853299348e-07
1.360886518e-08
1.840838402e-07
3.756326053e-09
2.800539995e-08
7.477337727e-09
1.496736137e-07
2.238325301e-08
8.466965397e-09
1.84502639e-07
1.379959937e-08
8.666927724e-09
1.874237132e-07
8.620172935e-09
8.620250641e-09
1.839699804e-07
5.576296202e-09
8.523641336e-09
1.81811432e-07
8.433348038e-09
1.805608191e-07
3.802143162e-09
2.799122829e-08
4.930993664e-09
1.481662347e-07
2.229497964e-08
5.325105402e-09
1.824492435e-07
1.367998604e-08
5.563113843e-09
1.85329943e-07
8.523564184e-09
5.576376688e-09
1.818114358e-07
5.519082549e-09
5.51916501e-09
1.79620098e-07
5.441338518e-09
1.783428847e-07
3.779347439e-09
2.800211014e-08
1.471601529e-07
3.379854582e-09
2.227481541e-08
1.811330842e-07
3.530436724e-09
1.360880759e-08
1.840838489e-07
3.756394738e-09
8.433273717e-09
1.805608247e-07
3.802216932e-09
5.441256038e-09
1.783428857e-07
3.779424396e-09
1.770470776e-07
3.723363201e-09
3.72328439e-09
1.901595002e-08
1.901597205e-08
8.981063585e-08
2.01096158e-08
2.669369587e-08
1.23109833e-07
1.608208373e-08
2.763784926e-08
1.286641392e-07
1.211385759e-08
2.783087998e-08
1.258109741e-07
9.095913176e-09
2.78165611e-08
1.233676376e-07
2.792655627e-08
1.214231517e-07
6.906378977e-09
2.669367783e-08
2.010965695e-08
1.231098336e-07
2.902131245e-08
2.902134382e-08
1.795899397e-07
2.37853638e-08
2.994747411e-08
1.904377711e-07
1.819700707e-08
3.015252414e-08
1.877693904e-07
1.369988874e-08
3.019181139e-08
1.845711561e-07
3.032567366e-08
1.820235463e-07
1.041035021e-08
2.763783137e-08
1.608214215e-08
1.286641435e-07
2.994743609e-08
2.378540854e-08
1.904377752e-07
2.384293965e-08
2.384299693e-08
2.029005326e-07
1.763514318e-08
2.385975643e-08
1.999243185e-07
1.291954424e-08
2.388645998e-08
1.963509349e-07
2.398359803e-08
1.936959676e-07
9.649535492e-09
2.783086477e-08
1.211392589e-08
1.258109827e-07
3.015248739e-08
1.819705939e-08
1.87769397e-07
2.385970032e-08
1.763520647e-08
1.999243245e-07
1.747082221e-08
1.74708865e-08
1.967477714e-07
1.269868445e-08
1.745280748e-08
1.930172727e-07
1.747940915e-08
1.903119129e-07
9.451830204e-09
2.781654781e-08
9.095981336e-09
1.233676488e-07
3.019177552e-08
1.36999385e-08
1.845711642e-07
2.388640718e-08
1.291960537e-08
1.963509407e-07
1.745274488e-08
1.26987481e-08
1.930172736e-07
1.26687981e-08
1.266886119e-08
1.891880371e-07
1.266140125e-08
1.864108211e-07
9.418916243e-09
2.79265446e-08
1.214231627e-07
6.906439382e-09
3.032564043e-08
1.820235528e-07
1.041039096e-08
2.398355107e-08
1.936959696e-07
9.649585703e-09
1.747935073e-08
1.903119092e-07
9.451883696e-09
1.266134056e-08
1.864108154e-07
9.418969512e-09
1.835714822e-07
9.399210532e-09
9.399157932e-09
1.481880031e-08
1.481882279e-08
6.017300888e-08
1.852554404e-08
2.318273799e-08
9.622036178e-08
1.678483804e-08
2.44841688e-08
1.059206933e-07
1.376189314e-08
2.462544074e-08
1.042085061e-07
1.093200312e-08
2.457991899e-08
1.016176413e-07
2.463744909e-08
9.910863684e-08
8.609098975e-09
2.318272034e-08
1.852558817e-08
9.622036126e-08
2.974426684e-08
2.974429767e-08
1.664668626e-07
2.678855871e-08
3.218655766e-08
1.856911274e-07
2.170329637e-08
3.256019801e-08
1.849199438e-07
1.684594571e-08
3.246798275e-08
1.815404893e-07
3.244902272e-08
1.78009942e-07
1.304802887e-08
2.448415444e-08
1.678489628e-08
1.05920693e-07
3.218652547e-08
2.678859554e-08
1.856911274e-07
2.975006681e-08
2.975012193e-08
2.077734538e-07
2.415576355e-08
3.003534842e-08
2.080435172e-07
1.860438882e-08
2.987663547e-08
2.044936989e-07
2.97851244e-08
2.006668674e-07
1.429741743e-08
2.462542774e-08
1.376195883e-08
1.042085078e-07
3.256015491e-08
2.1703338e-08
1.849199448e-07
3.003527992e-08
2.415583621e-08
2.08043519e-07
2.430294578e-08
2.430302793e-08
2.082124519e-07
1.873419213e-08
2.419947142e-08
2.042632293e-07
2.411861463e-08
2.003181651e-07
1.439448037e-08
2.457990609e-08
1.093206442e-08
1.016176433e-07
3.246793715e-08
1.684597898e-08
1.81540488e-07
2.987656591e-08
1.860445693e-08
2.044937075e-07
2.41993831e-08
1.87342756e-08
2.042632329e-07
1.867814974e-08
1.867824639e-08
2.002305324e-07
1.862368346e-08
1.961995747e-07
1.438434874e-08
2.463743586e-08
9.910864036e-08
8.609150353e-09
3.244897878e-08
1.780099449e-07
1.304805132e-08
2.978505338e-08
2.006668743e-07
1.429747579e-08
2.41185224e-08
2.003181686e-07
1.439455937e-08
1.862358023e-08
1.961995755e-07
1.438444446e-08
1.920833206e-07
1.436777158e-08
1.436766832e-08
8.963924573e-09
8.963943908e-09
4.224514224e-08
1.361434045e-08
1.658880082e-08
7.498116134e-08
1.439782946e-08
1.855295039e-08
8.658426745e-08
1.290820468e-08
1.874216198e-08
8.695598323e-08
1.091015691e-08
1.848560004e-08
8.513010036e-08
1.825807708e-08
8.282025069e-08
8.940461865e-09
1.658878489e-08
1.361437755e-08
7.498116013e-08
2.597558475e-08
2.597561431e-08
1.476932744e-07
2.674672516e-08
2.906402919e-08
1.744089394e-07
2.352437872e-08
2.953496321e-08
1.773495231e-07
1.931864345e-08
2.960154579e-08
1.746302934e-07
2.935971597e-08
1.708161194e-07
1.541083705e-08
1.855294014e-08
1.43978748e-08
8.658426223e-08
2.906401014e-08
2.674675461e-08
1.744089305e-07
2.992076573e-08
2.992078396e-08
2.060599489e-07
2.664649585e-08
3.060266738e-08
2.102501078e-07
2.206131693e-08
3.085984181e-08
2.078205922e-07
3.072474883e-08
2.03746176e-07
1.761696732e-08
1.874215244e-08
1.290824921e-08
8.695597726e-08
2.953493299e-08
2.352440613e-08
1.773495164e-07
3.060260127e-08
2.664654357e-08
2.102501037e-07
2.728054758e-08
2.728065568e-08
2.14856501e-07
2.258034857e-08
2.742342088e-08
2.123998396e-07
2.735890922e-08
2.081470783e-07
1.811725573e-08
1.84855857e-08
1.091019757e-08
8.51300967e-08
2.960149636e-08
1.931867824e-08
1.746302962e-07
3.085974279e-08
2.206139655e-08
2.078205998e-07
2.742328563e-08
2.258047839e-08
2.123998541e-07
2.271622598e-08
2.271638397e-08
2.096446128e-07
2.271385763e-08
2.053123689e-07
1.824845701e-08
1.82580608e-08
8.282025046e-08
8.94049402e-09
2.935966023e-08
1.708161383e-07
1.541087418e-08
3.072464445e-08
2.037462082e-07
1.761705643e-08
2.735876548e-08
2.081471119e-07
1.811739354e-08
2.271368575e-08
2.053123881e-07
1.824861818e-08
2.009271618e-07
1.829192721e-08
1.829175446e-08
5.759803599e-09
5.75981984e-09
3.07255196e-08
9.652870137e-09
1.136141948e-08
5.972667399e-08
1.103740758e-08
1.32090295e-08
7.19906957e-08
1.05859509e-08
1.319639435e-08
7.421103044e-08
9.541572602e-09
1.274630889e-08
7.342816532e-08
1.238051113e-08
7.174384615e-08
8.237446263e-09
1.13614158e-08
9.652893135e-09
5.972667088e-08
2.053770885e-08
2.053769733e-08
1.293406945e-07
2.346634001e-08
2.460530984e-08
1.600840093e-07
2.220664932e-08
2.486143651e-08
1.669441216e-07
1.948054963e-08
2.417897421e-08
1.659236461e-07
2.373773331e-08
1.626537284e-07
1.628562205e-08
1.320903027e-08
1.103742686e-08
7.199068493e-08
2.460532667e-08
2.34663091e-08
1.600840014e-07
2.805262677e-08
2.805259217e-08
1.991653375e-07
2.651441489e-08
2.881212761e-08
2.078375925e-07
2.322765699e-08
2.839465693e-08
2.068915859e-07
2.809493096e-08
2.032486501e-07
1.936788285e-08
1.319639283e-08
1.058596224e-08
7.421101533e-08
2.486144293e-08
2.22066064e-08
1.66944123e-07
2.881212549e-08
2.651437928e-08
2.078376045e-07
2.757379819e-08
2.757382278e-08
2.173330515e-07
2.426634784e-08
2.751577031e-08
2.165860737e-07
2.72803176e-08
2.1292659e-07
2.030133439e-08
1.27463028e-08
9.541576278e-09
7.34281495e-08
2.417896488e-08
1.94805122e-08
1.659236695e-07
2.839462243e-08
2.322764194e-08
2.068916236e-07
2.75157181e-08
2.426638866e-08
2.165861031e-07
2.440391534e-08
2.440397802e-08
2.158680989e-07
2.432043508e-08
2.121574097e-07
2.051863847e-08
1.23805102e-08
7.174382945e-08
8.237444901e-09
2.373772661e-08
1.626537626e-07
1.628558907e-08
2.809490133e-08
2.032487161e-07
1.936789066e-08
2.728026563e-08
2.129266563e-07
2.030138145e-08
2.432037071e-08
2.121574497e-07
2.05186982e-08
2.084558311e-07
2.055604318e-08
2.055598193e-08
3.598754587e-09
3.598777069e-09
2.352798545e-08
6.534981173e-09
7.486035323e-09
4.930439628e-08
7.979628578e-09
8.969647461e-09
6.157638418e-08
8.154761007e-09
8.924068755e-09
6.511180444e-08
7.84215564e-09
8.428521291e-09
6.531222429e-08
8.022691619e-09
6.438808115e-08
7.175206111e-09
7.486035459e-09
6.535007135e-09
4.930438714e-08
1.508239905e-08
1.508236072e-08
1.141479463e-07
1.881506078e-08
1.896621053e-08
1.463547004e-07
1.904556023e-08
1.941314125e-08
1.562244402e-07
1.77499701e-08
1.861999506e-08
1.570276464e-07
1.782609946e-08
1.549358315e-07
1.566435436e-08
8.969660664e-09
7.979643108e-09
6.157636065e-08
1.896627839e-08
1.881497505e-08
1.463546862e-07
2.405986019e-08
2.405974194e-08
1.889781288e-07
2.437486194e-08
2.49344663e-08
2.020011387e-07
2.248861107e-08
2.436970265e-08
2.03027981e-07
2.362136673e-08
2.003675877e-07
1.957426383e-08
8.924089815e-09
8.154761078e-09
6.51117678e-08
1.94132224e-08
1.90454411e-08
1.562244215e-07
2.493459475e-08
2.437471368e-08
2.020011439e-07
2.558973997e-08
2.558958111e-08
2.160226186e-07
2.389604425e-08
2.536616263e-08
2.172831363e-07
2.491611656e-08
2.146268297e-07
2.09008931e-08
8.428548892e-09
7.842143443e-09
6.531217763e-08
1.862008831e-08
1.774982763e-08
1.57027629e-07
2.436983781e-08
2.248843694e-08
2.030280054e-07
2.536631874e-08
2.389586326e-08
2.172831635e-07
2.396795259e-08
2.396776882e-08
2.186646885e-07
2.376619721e-08
2.160950813e-07
2.118004084e-08
8.022723383e-09
6.438802702e-08
7.175194376e-09
1.782619556e-08
1.54935807e-07
1.566420056e-08
2.362151196e-08
2.003676199e-07
1.957407554e-08
2.491628355e-08
2.146268769e-07
2.09007011e-08
2.376638992e-08
2.160951096e-07
2.117984002e-08
2.136342052e-07
2.117693072e-08
2.117714237e-08
2.252694986e-09
2.25272504e-09
1.902254997e-08
4.367495708e-09
4.744477901e-09
4.244509941e-08
5.688034837e-09
5.758386406e-09
5.449742585e-08
6.246990715e-09
5.721421432e-09
5.883138055e-08
6.423829043e-09
5.346839079e-09
5.978850463e-08
5.061738189e-09
5.95198573e-08
6.230288782e-09
4.744464422e-09
4.367539076e-09
4.244508798e-08
1.042880095e-08
1.042878679e-08
1.027792315e-07
1.411104825e-08
1.344615134e-08
1.349845978e-07
1.539120231e-08
1.391120491e-08
1.46754394e-07
1.527921015e-08
1.334409609e-08
1.491422795e-07
1.278531199e-08
1.482429112e-07
1.424847682e-08
5.758394031e-09
5.68807724e-09
5.449739615e-08
1.344622348e-08
1.411098392e-08
1.349845735e-07
1.869176264e-08
1.869160931e-08
1.784870148e-07
2.047786845e-08
1.979982389e-08
1.943262662e-07
2.011591836e-08
1.937585978e-08
1.973580138e-07
1.878406558e-08
1.96034156e-07
1.845047651e-08
5.721445339e-09
6.247022417e-09
5.883132758e-08
1.391131288e-08
1.539109287e-08
1.467543434e-07
1.980002757e-08
2.047764987e-08
1.943262478e-07
2.20011875e-08
2.200091713e-08
2.116201822e-07
2.178099273e-08
2.190537861e-08
2.149736496e-07
2.151637433e-08
2.136296158e-07
2.004576367e-08
5.346874963e-09
6.423853783e-09
5.978843037e-08
1.334422436e-08
1.527906897e-08
1.491421999e-07
1.937609717e-08
2.011565949e-08
1.973579834e-07
2.190568215e-08
2.178067779e-08
2.149736442e-07
2.197576861e-08
2.197542539e-08
2.185244067e-07
2.182150427e-08
2.173231387e-07
2.044245089e-08
5.06178015e-09
5.951976031e-08
6.23031138e-09
1.278545084e-08
1.482427918e-07
1.424831807e-08
1.87843055e-08
1.960340911e-07
1.845019455e-08
2.151668154e-08
2.136295914e-07
2.004542783e-08
2.182185489e-08
2.173231345e-07
2.04420918e-08
2.163001161e-07
2.048848035e-08
2.048884866e-08
1.458313577e-09
1.458344323e-09
1.610588142e-08
3.053619962e-09
3.022376283e-09
3.782740471e-08
4.27580347e-09
3.700378406e-09
4.957483864e-08
5.062677884e-09
3.70730694e-09
5.433715514e-08
5.543519628e-09
3.483630938e-09
5.582401384e-08
3.323262038e-09
5.607779343e-08
3.022346101e-09
3.053677583e-09
3.782739409e-08
7.183697437e-09
7.183738714e-09
9.445645404e-08
1.048047458e-08
9.400675653e-09
1.259874397e-07
1.232110115e-08
9.87080624e-09
1.38750175e-07
1.302094466e-08
9.585975973e-09
1.423400228e-07
9.284745533e-09
1.424981619e-07
3.700362672e-09
4.275875935e-09
4.957481004e-08
9.400687398e-09
1.048050092e-08
1.259874133e-07
1.4123282e-08
1.412321197e-08
1.690417667e-07
1.665970444e-08
1.524930557e-08
1.864112141e-07
1.738194344e-08
1.515295415e-08
1.910687012e-07
1.486657318e-08
1.910357235e-07
3.707308755e-09
5.062753989e-09
5.433709926e-08
9.870859118e-09
1.232110008e-08
1.387501045e-07
1.524944165e-08
1.665958154e-08
1.864111746e-07
1.824358309e-08
1.824338026e-08
2.05631828e-07
1.913576035e-08
1.843957589e-08
2.107947517e-07
1.831335416e-08
2.108070159e-07
3.483646182e-09
5.543592317e-09
5.58239291e-08
9.586057212e-09
1.302091499e-08
1.423398985e-07
1.515312202e-08
1.738177528e-08
1.910686033e-07
1.843981055e-08
1.913551441e-08
2.107946947e-07
1.957393891e-08
1.957367376e-08
2.162560893e-07
1.963699966e-08
2.164705126e-07
3.323279402e-09
5.607767956e-08
5.662379693e-09
9.284840985e-09
1.424979813e-07
1.280410686e-08
1.486675543e-08
1.910355584e-07
1.679829211e-08
1.831359826e-08
2.108068913e-07
1.851126936e-08
1.963726006e-08
2.164704488e-07
1.910261253e-08
2.168345441e-07
1.936974256e-08
1.937000568e-08
1.040676225e-09
1.040697638e-09
1.402450603e-08
2.39921321e-09
2.068978846e-09
3.439987775e-08
3.630405459e-09
2.530757945e-09
4.581286628e-08
4.595702073e-09
2.59621887e-09
5.077561623e-08
5.280830585e-09
2.533923461e-09
5.260495564e-08
2.524186542e-09
5.324747823e-08
2.068943193e-09
2.399267165e-09
3.439987314e-08
5.309493175e-09
5.309574034e-09
8.797526044e-08
8.297252668e-09
6.904865902e-09
1.186254993e-07
1.04191001e-08
7.398340597e-09
1.318261285e-07
1.163358493e-08
7.420697894e-09
1.362387247e-07
7.446210379e-09
1.372642741e-07
2.530723221e-09
3.63048384e-09
4.581284472e-08
6.904804046e-09
8.297358313e-09
1.186254764e-07
1.107426192e-08
1.107432313e-08
1.607027519e-07
1.392463883e-08
1.217586054e-08
1.78783237e-07
1.535193695e-08
1.24535287e-08
1.846085132e-07
1.260676263e-08
1.857051854e-07
2.596193405e-09
4.595797336e-09
5.07755715e-08
7.398308704e-09
1.04192136e-08
1.318260614e-07
1.217584769e-08
1.392467808e-08
1.787831867e-07
1.549387178e-08
1.549384425e-08
1.989957228e-07
1.713961241e-08
1.607019405e-08
2.055322737e-07
1.642593406e-08
2.068003616e-07
2.53390789e-09
5.280927586e-09
5.260487766e-08
7.420680422e-09
1.163368364e-08
1.362385919e-07
1.245353709e-08
1.535194937e-08
1.846083855e-07
1.607024856e-08
1.713955419e-08
2.055321949e-07
1.79591782e-08
1.795909567e-08
2.124781967e-07
1.853412323e-08
2.140233421e-07
2.524173769e-09
5.324736743e-08
5.587069337e-09
7.44619896e-09
1.372640814e-07
1.194552482e-08
1.260677491e-08
1.857049796e-07
1.552189403e-08
1.642598685e-08
2.068001936e-07
1.732698929e-08
1.853418809e-08
2.140232482e-07
1.829803514e-08
2.158721781e-07
1.901528998e-08
1.901533361e-08
8.596836161e-10
8.596935967e-10
1.230512513e-08
2.19690557e-09
1.625212989e-09
3.143743577e-08
3.552156634e-09
1.970013911e-09
4.248757389e-08
4.711093968e-09
2.102832546e-09
4.751382001e-08
5.566281355e-09
2.19141125e-09
4.955834545e-08
2.331744025e-09
5.047772954e-08
1.625185641e-09
2.196936309e-09
3.143743406e-08
4.488317065e-09
4.488393896e-09
8.224888578e-08
7.405563729e-09
5.698453453e-09
1.119797496e-07
9.753215525e-09
6.252317484e-09
1.253289391e-07
1.131145688e-08
6.573113816e-09
1.302987471e-07
6.935143161e-09
1.32004939e-07
1.969980394e-09
3.552216461e-09
4.248756517e-08
5.698362493e-09
7.405688174e-09
1.119797361e-07
9.57591149e-09
9.576047176e-09
1.529475348e-07
1.260999178e-08
1.068294151e-08
1.713184712e-07
1.448461455e-08
1.133092752e-08
1.77976022e-07
1.194748988e-08
1.800341534e-07
2.102799855e-09
4.71116874e-09
4.751379238e-08
6.25223148e-09
9.753362376e-09
1.253288868e-07
1.068281915e-08
1.261014018e-08
1.713184255e-07
1.416837374e-08
1.41684992e-08
1.920245392e-07
1.629381896e-08
1.514130735e-08
1.995963906e-07
1.601899634e-08
2.020094852e-07
2.191383464e-09
5.566362819e-09
4.955828859e-08
6.573033959e-09
1.131161145e-08
1.302986397e-07
1.133081533e-08
1.448476863e-08
1.779759046e-07
1.514119749e-08
1.629394062e-08
1.995963145e-07
1.751521876e-08
1.751530753e-08
2.07730111e-07
1.861661855e-08
2.105805733e-07
2.331724624e-09
5.047763751e-08
6.00437037e-09
6.935070093e-09
1.320047751e-07
1.196755045e-08
1.194737522e-08
1.800339614e-07
1.514344409e-08
1.601888197e-08
2.020093251e-07
1.701326824e-08
1.861655096e-08
2.105804876e-07
1.836035404e-08
2.140124455e-07
1.954645044e-08
1.954640361e-08
8.213644367e-10
8.213647797e-10
1.066238912e-08
2.274924612e-09
1.488126552e-09
2.849572789e-08
3.851055394e-09
1.788142711e-09
3.912327806e-08
5.249278717e-09
1.989412888e-09
4.412616359e-08
6.29414142e-09
2.212118654e-09
4.630135387e-08
2.494274588e-09
4.742052489e-08
1.488114818e-09
2.274936295e-09
2.849572916e-08
4.368648963e-09
4.368696711e-09
7.648773847e-08
7.473768272e-09
5.406179809e-09
1.052565497e-07
1.012001067e-08
6.061098295e-09
1.186109764e-07
1.199048679e-08
6.664687918e-09
1.239756712e-07
7.356612488e-09
1.262225541e-07
1.788121974e-09
3.851083162e-09
3.912327799e-08
5.406104691e-09
7.473852231e-09
1.052565435e-07
9.334226104e-09
9.334351071e-09
1.450911882e-07
1.261711662e-08
1.051792809e-08
1.635787144e-07
1.484758915e-08
1.153241562e-08
1.708777838e-07
1.261784709e-08
1.737593312e-07
1.989387378e-09
5.249312419e-09
4.41261519e-08
6.061015906e-09
1.012011652e-08
1.186109465e-07
1.051779055e-08
1.26172655e-08
1.635786816e-07
1.423674772e-08
1.423691026e-08
1.845865483e-07
1.673345871e-08
1.561124505e-08
1.930208027e-07
1.703491651e-08
1.964907116e-07
2.212098027e-09
6.294175577e-09
4.630132631e-08
6.664607702e-09
1.199059967e-08
1.239756047e-07
1.153227882e-08
1.484775174e-08
1.708776995e-07
1.561108295e-08
1.673362982e-08
1.930207451e-07
1.836209094e-08
1.836224623e-08
2.022280559e-07
2.002535477e-08
2.063656223e-07
2.494265551e-09
4.742048024e-08
6.85706791e-09
7.356543433e-09
1.262224518e-07
1.291062146e-08
1.261770739e-08
1.737591934e-07
1.586133197e-08
1.703474756e-08
1.964905916e-07
1.783529836e-08
2.002521284e-08
2.063655643e-07
1.958667682e-08
2.11278742e-07
2.139217348e-08
2.139204595e-08
8.555517917e-10
8.555476503e-10
8.951288096e-09
2.511182247e-09
1.516979286e-09
2.532309168e-08
4.388244173e-09
1.817672822e-09
3.54285339e-08
6.093457145e-09
2.089820115e-09
4.033112538e-08
7.384194532e-09
2.442782522e-09
4.256782744e-08
2.877965786e-09
4.382112253e-08
1.516978497e-09
2.511183022e-09
2.532309454e-08
4.678634118e-09
4.678653701e-09
7.016436765e-08
8.212059127e-09
5.710135666e-09
9.783062624e-08
1.131284424e-08
6.520081716e-09
1.110799024e-07
1.35771486e-08
7.431567674e-09
1.167225529e-07
8.503474672e-09
1.193931004e-07
1.817663388e-09
4.388248044e-09
3.542853624e-08
5.710090229e-09
8.212098875e-09
9.783062339e-08
1.003969478e-08
1.003977509e-08
1.364319103e-07
1.377592583e-08
1.14198854e-08
1.549426528e-07
1.644300393e-08
1.287995529e-08
1.627622919e-07
1.454655378e-08
1.663485939e-07
2.089807429e-09
6.093465662e-09
4.033111925e-08
6.520024324e-09
1.131289928e-08
1.11079883e-07
1.141978448e-08
1.377602942e-08
1.549426297e-07
1.562489816e-08
1.56250287e-08
1.761762526e-07
1.860562282e-08
1.754673562e-08
1.853732716e-07
1.971008163e-08
1.898141961e-07
2.442773388e-09
7.384204582e-09
4.256781008e-08
7.431514509e-09
1.357721065e-08
1.167225066e-07
1.287985356e-08
1.644312156e-08
1.627622314e-07
1.754659901e-08
1.860576827e-08
1.853732282e-07
2.08678297e-08
2.086798085e-08
1.955855602e-07
2.341001838e-08
2.009518872e-07
2.877965644e-09
4.382109499e-08
8.105621356e-09
8.503438525e-09
1.193930374e-07
1.478113476e-08
1.454645975e-08
1.663484998e-07
1.781078078e-08
1.970995099e-08
1.898141079e-07
2.011875631e-08
2.340988251e-08
2.009518413e-07
2.258175936e-08
2.073625045e-07
2.536811442e-08
2.536798453e-08
9.10906601e-10
9.109013129e-10
7.129454931e-09
2.811273161e-09
1.609836498e-09
2.181289197e-08
5.052803901e-09
1.9334473e-09
3.125355909e-08
7.142905647e-09
2.275623877e-09
3.596539432e-08
8.756175506e-09
2.759706341e-09
3.819484279e-08
3.365208582e-09
3.951939684e-08
1.609843106e-09
2.811265414e-09
2.181289412e-08
5.214720779e-09
5.214713759e-09
6.295460228e-08
9.384781833e-09
6.355211012e-09
8.923879688e-08
1.313559656e-08
7.370443575e-09
1.022342541e-07
1.594588209e-08
8.630555386e-09
1.08041387e-07
1.015410536e-08
1.110278397e-07
1.933447632e-09
5.052789964e-09
3.125355706e-08
6.355201897e-09
9.384781239e-09
8.923879791e-08
1.140758853e-08
1.140761424e-08
1.263271109e-07
1.587253241e-08
1.311330716e-08
1.447348245e-07
1.916592721e-08
1.512815539e-08
1.52971281e-07
1.752955074e-08
1.57160446e-07
2.275623154e-09
7.142897211e-09
3.596538766e-08
7.370424541e-09
1.313560606e-08
1.022342481e-07
1.311326458e-08
1.587257648e-08
1.44734814e-07
1.815041598e-08
1.815048024e-08
1.661019019e-07
2.185550512e-08
2.080512707e-08
1.759911965e-07
2.396376762e-08
1.813421386e-07
2.759704678e-09
8.75617002e-09
3.819482714e-08
8.630542422e-09
1.59459061e-08
1.080413665e-07
1.512811158e-08
1.916598126e-08
1.529712493e-07
2.080506e-08
2.185557765e-08
1.759911721e-07
2.500158522e-08
2.500165617e-08
1.871924905e-07
2.878132451e-08
1.938051119e-07
3.365213296e-09
3.951937379e-08
9.692671996e-09
1.015409991e-08
1.110278112e-07
1.752226312e-08
1.752951039e-08
1.57160398e-07
2.09786941e-08
2.396370017e-08
1.813420929e-07
2.389342727e-08
2.878124822e-08
1.938050918e-07
2.733085035e-08
2.018967841e-07
3.151417973e-08
3.151409596e-08
9.484785836e-10
9.484729579e-10
5.232501176e-09
3.098831487e-09
1.689718414e-09
1.797285496e-08
5.751736514e-09
2.037876462e-09
2.656278913e-08
8.308611486e-09
2.441487776e-09
3.096702082e-08
1.033688149e-08
3.056343578e-09
3.31102144e-08
3.851785316e-09
3.443722891e-08
1.689729732e-09
3.098812539e-09
1.797285483e-08
5.814935747e-09
5.814910474e-09
5.470422031e-08
1.079829327e-08
7.132803812e-09
7.916051305e-08
1.541909146e-08
8.387654896e-09
9.166726574e-08
1.898273284e-08
1.003850714e-08
9.749554458e-08
1.20937491e-08
1.006808529e-07
2.037885763e-09
5.751714707e-09
2.656278957e-08
7.132822468e-09
1.079827196e-08
7.916052439e-08
1.319481244e-08
1.319480275e-08
1.142031185e-07
1.871104469e-08
1.534456781e-08
1.322616658e-07
2.291261267e-08
1.803853187e-08
1.407696774e-07
2.135236184e-08
1.454419679e-07
2.44149771e-09
8.308593685e-09
3.096702175e-08
8.387668952e-09
1.541908318e-08
9.166728199e-08
1.534456943e-08
1.871105497e-08
1.322616739e-07
2.162334933e-08
2.162336932e-08
1.53544321e-07
2.64063816e-08
2.52335583e-08
1.640131502e-07
2.966553297e-08
1.702097478e-07
3.056356656e-09
1.033686807e-08
3.311021124e-08
1.003852704e-08
1.898274383e-08
9.749555466e-08
1.803853402e-08
2.291263503e-08
1.407696768e-07
2.523353682e-08
2.640641317e-08
1.640131454e-07
3.077359961e-08
3.077364118e-08
1.761123729e-07
3.616579088e-08
1.839598607e-07
3.851804252e-09
1.156722122e-08
3.443722806e-08
1.209376702e-08
2.108776329e-08
1.006808549e-07
2.135236799e-08
2.537250455e-08
1.454419546e-07
2.966552129e-08
2.92256625e-08
1.702097297e-07
3.616577895e-08
3.411869013e-08
1.839598163e-07
4.018030947e-08
1.938677866e-07
2.79914173e-08
2.374246497e-09
1.466253094e-07
2.226793866e-08
2.414204357e-09
1.80450832e-07
1.356890231e-08
2.607883994e-09
1.834586696e-07
8.371610931e-09
2.668283418e-09
1.799423423e-07
5.382173114e-09
2.667709164e-09
1.777122672e-07
2.632185874e-09
1.764077561e-07
3.676713922e-09
2.79954068e-08
1.677181154e-09
1.46312775e-07
2.227730612e-08
1.677178438e-09
1.800662437e-07
1.355241287e-08
1.828717253e-09
1.831151715e-07
8.334770281e-09
1.888691415e-09
1.796083348e-07
5.343087711e-09
1.899042164e-09
1.773714586e-07
1.879047153e-09
1.760639295e-07
3.643404598e-09
2.79970647e-08
1.153752226e-09
1.461374751e-07
2.228870581e-08
1.140070306e-09
1.798565765e-07
1.354773205e-08
1.250831292e-09
1.829299692e-07
8.315125121e-09
1.302134804e-09
1.794302627e-07
5.320099821e-09
1.315505107e-09
1.771896667e-07
1.305477666e-09
1.758821737e-07
3.622596492e-09
2.800035778e-08
7.27407255e-10
1.460371131e-07
2.229868496e-08
7.137272195e-10
1.797391214e-07
1.354759501e-08
7.858871671e-10
1.828271482e-07
8.30520657e-09
8.227852588e-10
1.793328375e-07
5.307397685e-09
8.340582561e-10
1.770903519e-07
8.297225156e-10
1.757837058e-07
3.610545345e-09
2.800262681e-08
3.525271565e-10
1.459833582e-07
2.230563414e-08
3.445278262e-10
1.796773076e-07
1.354909882e-08
3.800988216e-10
1.827734319e-07
8.30105068e-09
3.993184446e-10
1.792826026e-07
5.301304909e-09
4.056062611e-10
1.770392868e-07
4.041396103e-10
1.757335148e-07
3.604468834e-09
2.800389546e-08
2.253124935e-14
1.459597154e-07
2.230914874e-08
3.398720844e-14
1.796503711e-07
1.355022421e-08
3.23760835e-14
1.827500915e-07
8.299637479e-09
3.355879885e-14
1.792609585e-07
5.298939126e-09
3.752546393e-14
1.770173619e-07
4.522199313e-14
1.75712069e-07
3.602065206e-09
2.80039027e-08
-3.524670342e-10
1.459597174e-07
2.230915155e-08
-3.444562867e-10
1.796503678e-07
1.355022605e-08
-3.800306867e-10
1.827500897e-07
8.299641635e-09
-3.992473407e-10
1.792609575e-07
5.298946919e-09
-4.055287761e-10
1.770173618e-07
-4.04047742e-10
1.7571207e-07
3.60207453e-09
2.800263529e-08
-7.273286172e-10
1.459833584e-07
2.23056415e-08
-7.136460644e-10
1.796773003e-07
1.354910387e-08
-7.858123829e-10
1.827734244e-07
8.301062751e-09
-8.227055533e-10
1.792825992e-07
5.301327529e-09
-8.339716964e-10
1.770392869e-07
-8.296237539e-10
1.757335185e-07
3.604496524e-09
2.800035943e-08
-1.153670131e-09
1.460371064e-07
2.22986947e-08
-1.139976501e-09
1.797391152e-07
1.354760549e-08
-1.250747213e-09
1.828271385e-07
8.305226886e-09
-1.302046141e-09
1.793328329e-07
5.307432863e-09
-1.315407433e-09
1.770903529e-07
-1.305370611e-09
1.757837124e-07
3.610588125e-09
2.799706904e-08
-1.677082145e-09
1.461374667e-07
2.228871431e-08
-1.677070155e-09
1.798565713e-07
1.35477476e-08
-1.828616308e-09
1.829299625e-07
8.31515579e-09
-1.888586477e-09
1.794302605e-07
5.320144472e-09
-1.898932302e-09
1.771896701e-07
-1.878933915e-09
1.758821824e-07
3.622647354e-09
2.79954118e-08
-2.37413817e-09
1.463127664e-07
2.2277316e-08
-2.414085483e-09
1.800662369e-07
1.355243255e-08
-2.607766953e-09
1.831151689e-07
8.334806687e-09
-2.668161406e-09
1.796083354e-07
5.343135364e-09
-2.667590407e-09
1.773714643e-07
-2.632071705e-09
1.760639386e-07
3.643451788e-09
2.799142465e-08
1.466252991e-07
-3.37974139e-09
2.226795423e-08
1.804508261e-07
-3.530312199e-09
1.356892706e-08
1.834586692e-07
-3.756272855e-09
8.371645405e-09
1.799423443e-07
-3.802092121e-09
5.382215932e-09
1.777122731e-07
-3.77930654e-09
1.764077627e-07
-3.723258213e-09
3.676749667e-09
2.798937891e-08
5.24640169e-09
1.202959642e-07
3.040288312e-08
7.890516448e-09
1.805571866e-07
2.40312251e-08
7.224279555e-09
1.922556434e-07
1.748545119e-08
7.063062573e-09
1.888769393e-07
1.264098447e-08
7.036367323e-09
1.849393481e-07
7.020667613e-09
1.820554163e-07
9.371886455e-09
2.806112883e-08
3.917583893e-09
1.19580472e-07
3.047822269e-08
5.883403166e-09
1.796562567e-07
2.407650488e-08
5.340657674e-09
1.914005108e-07
1.749171125e-08
5.216879895e-09
1.880392982e-07
1.262249823e-08
5.198137891e-09
1.840789057e-07
5.19063029e-09
1.811698676e-07
9.346607926e-09
2.810841511e-08
2.798304753e-09
1.191483248e-07
3.053262457e-08
4.195438725e-09
1.791203446e-07
2.411130255e-08
3.786067349e-09
1.909058629e-07
1.749839201e-08
3.696141028e-09
1.875638957e-07
1.260991985e-08
3.685074521e-09
1.835911977e-07
3.68420518e-09
1.806706751e-07
9.327845388e-09
2.81435031e-08
1.806038651e-09
1.188858728e-07
3.05737946e-08
2.704656178e-09
1.787996169e-07
2.414051521e-08
2.431339699e-09
1.90615132e-07
1.750689783e-08
2.372684355e-09
1.872898963e-07
1.260382754e-08
2.367327481e-09
1.833111578e-07
2.369494112e-09
1.803858701e-07
9.316370817e-09
2.816542754e-08
8.865175611e-10
1.187374555e-07
3.060098782e-08
1.326651909e-09
1.786197403e-07
2.41614253e-08
1.189950008e-09
1.904543695e-07
1.751440492e-08
1.160998704e-09
1.871412929e-07
1.260171054e-08
1.159062417e-09
1.831602332e-07
1.161055584e-09
1.802333079e-07
9.310348676e-09
2.817609517e-08
2.536963092e-14
1.186701211e-07
3.061463641e-08
6.450949914e-15
1.785384704e-07
2.4172358e-08
3.443726973e-14
1.903822771e-07
1.751868526e-08
4.620042907e-14
1.870755705e-07
1.260122213e-08
5.676407647e-14
1.830938221e-07
6.690225575e-14
1.80166487e-07
9.307786918e-09
2.817609416e-08
-8.864624076e-10
1.186701199e-07
3.061463722e-08
-1.326634475e-09
1.78538468e-07
2.417236053e-08
-1.189879141e-09
1.903822742e-07
1.75186904e-08
-1.160904501e-09
1.870755692e-07
1.260123131e-08
-1.158948082e-09
1.830938242e-07
-1.160921232e-09
1.801664915e-07
9.307796786e-09
2.816542566e-08
-1.805972771e-09
1.187374511e-07
3.060099002e-08
-2.70462675e-09
1.786197331e-07
2.416143255e-08
-2.431261166e-09
1.904543637e-07
1.751442e-08
-2.372583525e-09