/*--------------------------------*- C++ -*----------------------------------*\
  =========                 |
  \\      /  F ield         | OpenFOAM: The Open Source CFD Toolbox
   \\    /   O peration     | Website:  https://openfoam.org
    \\  /    A nd           | Version:  7
     \\/     M anipulation  |
\*---------------------------------------------------------------------------*/
FoamFile
{
    version     2.0;
    format      ascii;
    class       volScalarField;
    location    "0.00258";
    object      Uz;
}
// * * * * * * * * * * * * * * * * * * * * * * * * * * * * * * * * * * * * * //

dimensions      [0 1 -1 0 0 0 0];

internalField   nonuniform List<scalar> 
5000
(
0
0
0
0
0
-1.9955462e-17
-4.2546328e-32
5.9885036e-17
1.9963355e-17
-3.9930222e-17
-3.9932249e-17
1.9967091e-17
-1.7025086e-31
-1.7592643e-31
3.9933105e-17
-3.9931477e-17
1.2578383e-49
-1.7588512e-31
-1.9960441e-17
3.9916783e-17
1.9955731e-17
0
0
-1.9947344e-17
1.700531e-31
-1.6435963e-31
-1.9937509e-17
1.9934307e-17
1.9930671e-17
-1.9927347e-17
3.4825171e-31
-1.6984977e-31
-1.9916375e-17
1.9912899e-17
1.9909031e-17
0
0
-1.9898074e-17
-1.9894157e-17
1.9890604e-17
-3.3347595e-31
-1.9883128e-17
1.9879206e-17
-3.3611561e-31
-1.9871747e-17
1.9868217e-17
-6.8313987e-31
6.8019796e-31
-6.8288998e-31
3.3856608e-31
1.98501e-17
0
0
0
0
0
0
0
0
0
0
0
0
-1.9783056e-17
-1.9776546e-17
1.977152e-17
-3.3990629e-31
-1.1178346e-50
1.9764064e-17
0
0
-1.9767435e-17
-1.9769524e-17
0
1.977375e-17
6.828855e-31
-1.9775452e-17
-1.9775139e-17
1.9773668e-17
3.9543892e-17
-3.9538691e-17
1.1236087e-32
5.9290383e-17
-3.9520726e-17
-2.0551658e-30
3.950686e-17
-5.9249026e-17
1.9746261e-17
1.9742452e-17
-1.9739005e-17
1.9735175e-17
1.9731716e-17
6.8685756e-31
-3.9448831e-17
-1.3647991e-30
-1.9717109e-17
-1.9713267e-17
-6.9183002e-31
1.3721888e-30
3.940499e-17
1.9698655e-17
-1.9695194e-17
2.7983103e-33
1.9687903e-17
0
-1.968063e-17
-6.8507964e-31
1.9673381e-17
-1.9669575e-17
-1.9666152e-17
3.9324708e-17
1.9658936e-17
-5.8965426e-17
-1.9651728e-17
5.8943811e-17
-1.9644527e-17
-1.9640742e-17
-1.1162535e-32
-1.9633562e-17
5.8890499e-17
-1.3722265e-30
-3.9245999e-17
3.923845e-17
1.9615828e-17
-1.961205e-17
1.9608649e-17
-1.9604869e-17
-3.9202938e-17
1.9597692e-17
6.7663773e-31
1.9590531e-17
3.9174295e-17
-1.9583387e-17
-1.958001e-17
-1.9576253e-17
-6.8146091e-31
-6.7854919e-31
6.8121263e-31
3.9123984e-17
1.9558622e-17
-1.9554876e-17
-3.9103032e-17
-1.954778e-17
-1.954443e-17
1.3551275e-30
3.9074711e-17
-5.551791e-33
5.5508399e-33
7.321801e-49
1.9523201e-17
-1.353655e-30
2.7179391e-30
1.9512388e-17
-1.9509043e-17
1.9505318e-17
6.7622111e-31
-1.9498261e-17
1.9494928e-17
-2.7698679e-33
-1.9487883e-17
0
1.9480845e-17
1.3479515e-30
-3.8947632e-17
1.9470113e-17
-5.5327967e-33
-1.9463099e-17
1.9459785e-17
-1.9456086e-17
1.9452771e-17
-8.1036927e-30
-5.3941707e-30
1.9442042e-17
-3.8877439e-17
0
-1.3475676e-30
-4.0419311e-30
1.9424656e-17
1.9420944e-17
1.3383135e-30
-1.9413895e-17
1.9410554e-17
1.3348112e-30
8.2721894e-33
2.68794e-30
-3.8792592e-17
1.9392498e-17
1.9389069e-17
-1.3333266e-30
1.3358421e-30
-4.0287533e-30
1.3380852e-30
-1.9370432e-17
0
0
0
0
-1.9351979e-17
4.0335743e-30
1.9344823e-17
1.9341203e-17
-1.9338107e-17
-1.9334775e-17
3.8664013e-17
1.3377017e-30
-4.0126092e-30
-1.9324058e-17
-1.9322052e-17
1.931983e-17
0
1.9316232e-17
1.336717e-30
-1.9313062e-17
-1.9311759e-17
2.6892444e-30
1.9308772e-17
-3.8614057e-17
1.9305608e-17
1.9303703e-17
-1.9302082e-17
1.9299946e-17
0
0
0
1.9290874e-17
-1.9288481e-17
-3.8571154e-17
1.9282962e-17
-1.3397781e-30
1.9277064e-17
1.9273803e-17
-3.8541752e-17
5.4761533e-33
-5.4752948e-33
1.9261029e-17
1.9257946e-17
-3.8508887e-17
2.7357772e-33
-4.0099132e-30
1.9244641e-17
-1.0685735e-29
-2.6682611e-30
1.9234366e-17
-1.9231198e-17
0
-1.9224457e-17
1.9220885e-17
1.9217713e-17
-1.9214141e-17
0
-1.92074e-17
1.9204231e-17
1.9200666e-17
-6.664819e-30
-3.8387879e-17
-3.838156e-17
5.7561667e-17
3.8368138e-17
0
-3.8354731e-17
-1.9173813e-17
1.9170668e-17
1.916712e-17
1.9163976e-17
-3.8320871e-17
-3.8314587e-17
1.9153758e-17
3.8301239e-17
5.3113223e-30
-3.8287899e-17
1.9140408e-17
-2.6543012e-30
-1.913373e-17
3.8261212e-17
-1.9127057e-17
2.6633213e-30
1.9120396e-17
-1.9117272e-17
1.9113749e-17
-3.8221216e-17
7.9720715e-30
3.8207873e-17
-3.820092e-17
-1.321661e-30
1.9093806e-17
0
0
1.9083886e-17
-1.9080504e-17
-3.8154442e-17
1.9073867e-17
-5.4201817e-33
1.9067233e-17
1.906392e-17
-1.906059e-17
0
-1.9053932e-17
-1.9050591e-17
0
3.808782e-17
1.9040576e-17
-3.8074451e-17
1.3172761e-30
-5.4088062e-33
1.9027216e-17
1.9023869e-17
-1.9020541e-17
1.9017191e-17
-1.9013857e-17
1.0806218e-32
3.801431e-17
-1.9003786e-17
-1.9000429e-17
-1.8997048e-17
-2.6343842e-30
1.8990288e-17
0
0
-1.8980131e-17
2.6347295e-30
-5.2658212e-30
-2.6364804e-30
1.8966518e-17
-1.8963089e-17
2.6943314e-33
1.8956224e-17
0
0
0
0
0
0
0
-1.8928151e-17
0
1.8920908e-17
0
-1.8913553e-17
-5.2455101e-30
1.8906084e-17
0
0
-1.8894685e-17
-2.6228061e-30
1.8886992e-17
0
0
-1.8875417e-17
-1.8871572e-17
1.8867754e-17
1.886396e-17
0
-1.8856495e-17
2.6791499e-33
1.8849239e-17
-1.8845708e-17
-1.8842239e-17
1.883885e-17
1.8835527e-17
0
-1.8829103e-17
-1.8825994e-17
1.8822935e-17
1.8819932e-17
0
-1.8814017e-17
-1.8811079e-17
1.8808148e-17
1.8805192e-17
0
0
0
0
0
0
0
0
-1.8775759e-17
-1.7404112e-48
1.8768076e-17
0
0
0
-1.8751168e-17
-2.6001163e-30
1.8741931e-17
-1.8737116e-17
2.6007771e-30
-2.6612833e-33
-2.5993546e-30
1.8716632e-17
-1.8711219e-17
1.8705686e-17
-1.0390579e-29
-1.8694301e-17
1.8688451e-17
0
0
-1.8670249e-17
-2.591307e-30
1.8657582e-17
-1.8651089e-17
-1.8644482e-17
0
1.8630938e-17
1.8623998e-17
-1.8616936e-17
-5.1649163e-30
1.1179024e-48
-2.581738e-30
1.8587509e-17
-1.8579847e-17
-4.8643921e-48
-2.5774442e-30
-1.855606e-17
0
0
1.8531032e-17
2.6321903e-33
-7.703399e-30
1.8504669e-17
0
0
-1.8476917e-17
5.1201393e-30
1.8457599e-17
0
0
0
-1.8416882e-17
2.6156846e-33
1.8395424e-17
-1.8384404e-17
1.8373196e-17
-5.1039199e-30
-3.670034e-17
1.8338346e-17
7.6332813e-30
2.5427267e-30
-2.5409972e-30
-1.828893e-17
0
0
1.8249529e-17
2.5318767e-30
-5.0573221e-30
6.1246729e-49
-1.8193678e-17
1.8179095e-17
1.8164265e-17
0
-1.8133818e-17
-2.5155309e-30
1.8102307e-17
0
0
-1.8052974e-17
5.1261309e-33
7.6979517e-49
-1.8001086e-17
1.7983199e-17
-2.4891586e-30
2.4916979e-30
-4.9756321e-30
-1.7908649e-17
1.7889241e-17
-4.9620062e-30
4.9589756e-30
-4.9533128e-30
-1.780837e-17
1.7787325e-17
-4.9332516e-30
2.4686535e-30
0
-1.7699775e-17
1.7677028e-17
-2.4510714e-30
2.5054405e-33
-2.4445084e-30
2.4436513e-30
1.755794e-17
-1.7533042e-17
-1.7507768e-17
1.7482133e-17
1.7456118e-17
0
-1.7402979e-17
-1.7375853e-17
0
1.7320473e-17
-2.4008531e-30
2.4533061e-33
2.3904061e-30
-1.7205266e-17
1.7175546e-17
2.3780408e-30
-4.752501e-30
-1.7084222e-17
-1.7053063e-17
3.4043101e-17
-2.4143792e-33
2.3519654e-30
1.6924894e-17
-1.6891973e-17
2.3406629e-30
1.682508e-17
0
0
0
-1.6687095e-17
-1.6651718e-17
1.6615984e-17
1.657989e-17
0
-1.6506607e-17
-1.6469408e-17
1.6431833e-17
1.6393877e-17
0
-1.6316806e-17
-1.6277684e-17
1.6238165e-17
4.4979305e-30
-1.6157924e-17
0
0
0
0
1.595018e-17
-4.4126464e-30
-1.5864204e-17
1.5820603e-17
2.1904234e-30
-2.1864934e-30
2.1141085e-48
1.5642179e-17
1.5596587e-17
-3.1101218e-17
-2.152611e-30
2.1439259e-30
-1.5410415e-17
0
1.5315124e-17
1.526695e-17
-1.5218432e-17
-4.2079783e-30
1.5120393e-17
0
0
-1.4970931e-17
2.0694421e-30
1.4869764e-17
0
-1.4767433e-17
2.0912476e-33
-4.0718982e-30
-2.0266363e-30
1.4559494e-17
-1.4506871e-17
2.0540379e-33
-3.9988461e-30
-1.4347586e-17
1.4294043e-17
3.954244e-30
2.0159976e-33
-1.9621094e-30
-1.4077797e-17
1.402325e-17
0
-7.7250941e-30
-1.9221526e-30
-5.7434771e-30
-1.9536995e-33
-1.3692407e-17
1.3636735e-17
1.0602146e-47
-1.8778112e-30
3.7400577e-30
-1.862231e-30
2.6713022e-17
-1.3300146e-17
-1.3243693e-17
-1.8309056e-30
1.8230461e-30
2.6147745e-17
-1.3017136e-17
-1.2960345e-17
2.7019591e-48
0
2.7057797e-48
-1.2732783e-17
1.2675827e-17
2.7089615e-48
-1.7423078e-30
-1.7770554e-33
-1.2447954e-17
2.4782018e-17
3.4249306e-30
-1.2277195e-17
1.6949359e-30
-1.6870562e-30
1.2106764e-17
-1.2050058e-17
-1.077933e-47
-4.9736311e-30
3.3006236e-30
-3.2815903e-30
-3.2676309e-30
2.6753934e-48
0
1.1599244e-17
0
0
-1.1431908e-17
-3.158996e-30
1.1321002e-17
0
0
-2.2311479e-17
-9.2412435e-30
2.2092727e-17
-1.0991931e-17
1.5543372e-33
-1.5110799e-30
-1.0829717e-17
0
0
0
-1.061616e-17
-2.9302145e-30
1.051065e-17
0
0
-1.0354086e-17
1.4640548e-33
1.0250898e-17
0
0
-1.0098005e-17
-2.7871536e-30
-2.7775001e-30
2.762227e-30
9.8979134e-18
-9.8486016e-18
2.7197571e-30
-2.7062364e-30
2.6914214e-30
9.654353e-18
0
0
-9.5119422e-18
-5.5684014e-47
9.418626e-18
0
0
-9.2811661e-18
-3.4345958e-47
9.1912412e-18
0
0
-9.0589807e-18
-3.3002778e-47
8.9725774e-18
0
0
-8.845631e-18
1.2511266e-33
8.76276e-18
-8.7218478e-18
2.411853e-30
-2.4006788e-30
2.3883774e-30
8.5616449e-18
0
0
0
0
0
-8.3314129e-18
2.301951e-30
8.2572737e-18
0
0
0
0
0
0
0
-7.9733173e-18
4.4068684e-30
7.9054223e-18
0
0
0
0
0
0
0
-7.6460718e-18
2.113459e-30
7.5842851e-18
0
0
-7.4938901e-18
2.0737669e-30
7.4351477e-18
0
0
0
-7.3213096e-18
-2.0263261e-30
7.2662063e-18
0
0
0
0
0
0
0
-7.0577184e-18
9.9944631e-34
7.0085261e-18
0
0
0
0
0
0
0
-6.8230889e-18
-9.6650165e-34
6.779481e-18
0
0
0
-6.6954419e-18
3.7061264e-30
6.6549791e-18
0
-6.6155334e-18
-1.8325666e-30
6.5770813e-18
0
0
-6.5212175e-18
-6.5030713e-18
6.4851579e-18
6.4674742e-18
0
0
0
0
6.3824367e-18
-9.0467593e-34
-1.2699909e-17
-6.3340238e-18
1.2636595e-17
1.2605556e-17
-6.287467e-18
-6.2723628e-18
0
0
0
0
-6.1997067e-18
-1.7185376e-30
6.1719821e-18
0
0
0
0
0
0
0
0
0
0
0
0
0
0
-5.9855336e-18
3.3179506e-30
5.9634223e-18
0
0
5.9309855e-18
-1.6439926e-30
8.3987739e-34
-5.8999504e-18
-5.8899614e-18
-3.264733e-30
1.6308869e-30
5.8604319e-18
0
0
0
0
0
-5.8050027e-18
3.2181497e-30
5.7873413e-18
0
0
0
0
0
0
0
-5.7218866e-18
3.1717155e-30
5.7062555e-18
0
0
0
0
0
0
0
-5.6497397e-18
4.6991623e-30
5.6362874e-18
0
0
0
0
0
0
0
0
-5.5815173e-18
7.9233535e-34
5.5696657e-18
0
0
0
0
-5.5428567e-18
5.5377883e-18
5.5323847e-18
-1.1053338e-17
-1.5330173e-30
5.5149761e-18
0
0
0
0
-5.4901498e-18
1.5224586e-30
1.0961516e-17
-5.4756166e-18
-5.4702181e-18
5.4646321e-18
0
0
0
-5.4426663e-18
-1.508399e-30
5.4331461e-18
5.4290181e-18
-5.4251485e-18
-5.4211215e-18
5.4166004e-18
0
0
-5.4003342e-18
-5.3945443e-18
5.3888748e-18
5.3834495e-18
5.378329e-18
2.9842271e-30
-5.3688673e-18
0
0
0
-5.3511303e-18
-5.3469108e-18
5.3426462e-18
5.3382797e-18
5.3338299e-18
1.4790833e-30
-5.3246991e-18
0
0
0
-5.305654e-18
1.4711428e-30
5.2956688e-18
0
0
0
0
0
0
0
-5.257549e-18
1.4577887e-30
1.0495025e-17
1.455731e-30
-5.2375952e-18
0
0
-5.2242797e-18
7.4179992e-34
-1.4482353e-30
1.4462013e-30
5.2060168e-18
5.2011829e-18
-1.4429557e-30
-5.1919622e-18
0
0
-5.1790608e-18
4.3091607e-30
1.4348556e-30
-7.3402407e-34
5.1605841e-18
-5.1561238e-18
-5.1519447e-18
1.0296052e-17
-2.8539505e-30
-5.1401541e-18
5.1357848e-18
0
-5.1262464e-18
-1.4228378e-30
5.1166771e-18
0
-5.1076144e-18
5.1031348e-18
-5.6616792e-30
-5.0939923e-18
5.0892582e-18
0
-5.0795976e-18
0
5.070519e-18
0
-5.0623018e-18
5.0581378e-18
-2.803821e-30
-5.0493687e-18
5.0447405e-18
0
-5.035005e-18
-1.3967618e-30
5.0254338e-18
0
-5.0170471e-18
5.0132157e-18
-1.4237692e-33
-5.005506e-18
5.00113e-18
0
-4.9909881e-18
-4.9857018e-18
4.9807538e-18
4.9763695e-18
-4.9725429e-18
4.9690479e-18
4.9655903e-18
-4.9618495e-18
0
0
0
0
0
0
-4.9278251e-18
-1.7936634e-49
9.8400564e-18
-4.9160669e-18
-4.9118009e-18
4.9072406e-18
0
0
-4.8936383e-18
-4.889767e-18
4.8862777e-18
4.8830086e-18
0
-4.8758919e-18
-1.3534089e-30
4.8665409e-18
0
0
-4.8517071e-18
-4.8478642e-18
4.8447187e-18
4.8419703e-18
0
-4.8355478e-18
1.341558e-30
4.8265191e-18
-4.8215463e-18
-2.6750607e-30
-6.8391224e-34
-4.8090679e-18
4.8059832e-18
4.8028894e-18
0
0
-4.791019e-18
1.3284202e-30
4.7819584e-18
0
-4.7737936e-18
-4.77004e-18
4.7663343e-18
4.7625832e-18
0
0
0
0
0
0
-4.7331076e-18
1.3124814e-30
4.7253135e-18
0
0
0
0
0
0
-4.6957552e-18
-2.2707965e-49
4.6862822e-18
4.6823818e-18
1.2978905e-30
-4.6752226e-18
0
0
0
0
-4.6525862e-18
-1.2900719e-30
4.6441449e-18
-4.63996e-18
-4.6355284e-18
4.6308547e-18
-2.5678332e-30
-3.8485199e-30
-3.8434847e-30
1.2814997e-30
-2.5593185e-30
1.2777844e-30
4.5994885e-18
0
-4.5907085e-18
3.8189435e-30
-6.51249e-34
-4.5785028e-18
4.5737071e-18
4.5684121e-18
-4.5628623e-18
1.2648611e-30
-3.7891419e-30
-2.5251525e-30
-2.5210293e-30
1.2594922e-30
-2.5182316e-30
-4.5328357e-18
4.5285366e-18
4.5238188e-18
-4.5187669e-18
1.2520207e-30
-5.004674e-30
-1.2496961e-30
1.2489349e-30
1.2463692e-30
1.2458476e-30
-4.4850774e-18
0
4.4772928e-18
-1.2414548e-30
-8.3839726e-49
4.4642298e-18
0
-4.4549839e-18
4.4502345e-18
4.4454551e-18
-4.4407664e-18
0
0
0
0
-4.4195629e-18
1.225209e-30
-2.448001e-30
4.4032707e-18
4.3974222e-18
-4.3918946e-18
0
0
0
0
-4.3732599e-18
-6.2090823e-34
4.3646009e-18
0
0
0
0
0
0
0
-4.3288246e-18
-4.3248058e-18
4.3201551e-18
4.3149086e-18
0
0
0
0
0
0
-4.2801239e-18
-4.2769839e-18
4.2736213e-18
4.2698054e-18
0
0
0
0
0
0
-4.2375646e-18
-4.2326219e-18
4.2279493e-18
4.2237514e-18
0
0
0
0
0
0
-4.1975118e-18
2.3282961e-30
4.1893736e-18
0
0
0
0
0
0
-4.1577216e-18
1.1534526e-30
4.1500104e-18
0
0
0
0
-4.1295987e-18
-5.862697e-34
4.1214252e-18
-4.1174109e-18
-1.768112e-49
4.1099032e-18
-4.1062981e-18
2.278365e-30
4.0984085e-18
-4.0940947e-18
-2.2706951e-30
-2.2683709e-30
-2.746645e-48
-2.2637072e-30
-1.1303106e-30
4.070985e-18
-4.066945e-18
-4.0627e-18
8.1167493e-18
-2.2491679e-30
-8.0996674e-18
0
4.0413749e-18
-1.121034e-30
-1.1204625e-30
-3.3541596e-30
-3.3517553e-30
-2.2314016e-30
3.3456488e-30
-2.2275145e-30
1.1139005e-30
4.0045529e-18
0
-3.9950265e-18
-5.6709908e-34
-3.3185423e-30
-3.3156404e-30
5.653192e-34
2.2059482e-30
-1.1025372e-30
-3.9671812e-18
0
3.9599763e-18
-2.1956784e-30
-5.6144068e-34
3.9456311e-18
0
-3.9355263e-18
3.9308973e-18
3.9264566e-18
-3.9220466e-18
0
0
-3.9094809e-18
4.3368522e-30
-2.1651742e-30
2.1647313e-30
-1.0819507e-30
3.8892738e-18
3.8837911e-18
-3.8783663e-18
0
0
0
0
-3.8572836e-18
-1.0699703e-30
-4.273016e-30
3.8449214e-18
3.8411383e-18
-3.8374912e-18
0
0
0
0
-3.8113105e-18
-3.8063908e-18
3.802647e-18
3.7997919e-18
0
0
0
0
0
0
-3.7702771e-18
-3.7657125e-18
3.7611795e-18
3.7565436e-18
0
0
0
0
0
0
-3.7280933e-18
3.1007441e-30
7.4371454e-18
-3.7136998e-18
-1.1127375e-17
-3.7049581e-18
0
7.3939464e-18
-4.1003274e-30
-1.2280845e-29
-3.6828708e-18
-7.3564798e-18
7.3482115e-18
-3.6704518e-18
-3.6668753e-18
3.6629227e-18
-3.6585197e-18
5.19243e-34
3.6491607e-18
3.6447041e-18
-3.6405907e-18
-3.6366786e-18
3.6326581e-18
-3.6283561e-18
-5.1497604e-34
3.6192431e-18
0
0
0
7.2066307e-18
-3.5992266e-18
-7.1896003e-18
3.590131e-18
-3.5853831e-18
-3.5807496e-18
7.1527495e-18
1.4905525e-48
-3.5684182e-18
3.5645168e-18
7.1209643e-18
3.5563304e-18
-1.065637e-17
3.5479256e-18
2.1134096e-47
-1.0619046e-17
7.0712344e-18
3.5315667e-18
3.5275306e-18
7.0470262e-18
-7.039017e-18
-3.5155035e-18
-3.5114882e-18
3.5074601e-18
3.5034158e-18
-1.0498032e-17
3.4952333e-18
3.4910873e-18
-3.4869267e-18
-3.48278e-18
-4.9435019e-34
1.0424009e-17
-3.4707923e-18
5.7724764e-30
-5.7684084e-30
-1.0379399e-17
3.4560732e-18
3.4522616e-18
6.89677e-18
-3.4444656e-18
-6.8810236e-18
6.8730454e-18
-3.4325029e-18
3.4284739e-18
3.4244723e-18
-1.0261598e-17
3.4166665e-18
3.4128581e-18
-6.8181485e-18
-3.4052769e-18
3.4014372e-18
1.0192658e-17
-3.3936456e-18
-1.3558989e-17
1.87942e-30
6.7640752e-18
3.3782015e-18
0
6.7408448e-18
7.4735604e-30
-1.0087203e-17
3.3583323e-18
-7.4474635e-30
3.3501742e-18
3.3460862e-18
-6.6839516e-18
0
0
0
-3.3252123e-18
1.843862e-30
6.6334122e-18
-3.3124112e-18
-6.6161408e-18
9.9110328e-18
-1.0987969e-29
-6.5895401e-18
3.2902887e-18
0
0
0
6.5443017e-18
-3.2674469e-18
-6.525294e-18
9.7733067e-18
-9.2451384e-34
-6.495805e-18
0
0
-3.2330433e-18
1.7922533e-30
6.4458278e-18
-3.2177295e-18
-6.4249542e-18
9.6215391e-18
-5.3309128e-30
-6.39303e-18
3.1911384e-18
-3.1857019e-18
6.3603589e-18
3.1745568e-18
-1.0552756e-29
-3.163015e-18
-6.3142237e-18
9.4533816e-18
-1.7877607e-33
-3.1389215e-18
1.7388988e-30
-3.1264879e-18
-3.1202437e-18
1.7285069e-30
9.3232453e-18
-8.8148742e-34
-9.2852802e-18
6.1772548e-18
1.5215643e-47
-6.150768e-18
3.0686443e-18
-3.0618546e-18
6.110043e-18
3.0481369e-18
-6.7532163e-30
-3.0341445e-18
-6.054019e-18
-3.0197799e-18
-3.0124693e-18
9.0152942e-18
0
-2.9902419e-18
-1.6556548e-30
1.6514605e-30
-1.6467947e-30
2.9598107e-18
-3.2771549e-30
2.9440986e-18
-9.7787051e-30
-8.7843523e-18
5.840001e-18
8.7354025e-18
2.9035433e-18
-8.6857405e-18
-5.7738055e-18
8.6354186e-18
-2.8699239e-18
-8.5837913e-18
0
0
2.8351405e-18
2.8264092e-18
0
-2.808555e-18
-2.7994358e-18
5.5805791e-18
-6.1750351e-30
-8.3160704e-18
3.0670688e-30
2.7532453e-18
2.7435338e-18
2.7337347e-18
-2.7239884e-18
-2.7143428e-18
2.7047137e-18
8.0848536e-18
-2.6849602e-18
-1.0699116e-17
2.6645536e-18
5.3088567e-18
2.6444398e-18
0
-2.6244253e-18
0
-2.6036262e-18
2.5930171e-18
-5.7338011e-30
2.5719591e-18
-8.5310907e-30
-7.6532318e-18
2.5404853e-18
2.5297357e-18
-2.5188651e-18
-2.5079314e-18
2.4969744e-18
7.4580119e-18
-2.4750135e-18
-9.8559666e-18
4.0853717e-30
2.4417894e-18
4.8612014e-18
2.419405e-18
-4.8165303e-18
-1.3306175e-30
-3.3907555e-34
2.3746292e-18
-5.2462806e-30
-2.3508538e-18
7.0166758e-18
-2.5836248e-30
-4.6321454e-18
0
0
-2.2828765e-18
1.2607258e-30
4.518792e-18
-2.2474041e-18
-4.4707658e-18
-2.2233513e-18
2.4542682e-30
6.597984e-18
2.1874632e-18
-2.1757444e-18
4.3282018e-18
-1.2235068e-33
-7.1298484e-30
-2.1287425e-18
-4.2337673e-18
6.3154131e-18
-2.3247329e-30
-4.1640046e-18
0
0
4.0932119e-18
-4.5168852e-30
-2.244207e-30
-5.712398e-34
-5.9938225e-18
-3.9725542e-18
3.289075e-30
5.8902917e-18
1.9520063e-18
-1.9404601e-18
3.8575794e-18
2.1276892e-30
-6.3452643e-30
-1.8938245e-18
-3.7647805e-18
5.6131015e-18
-1.8596753e-18
-1.8482495e-18
1.8367397e-18
-1.8251782e-18
3.6272318e-18
-2.0005984e-30
-1.7906463e-18
-2.5285585e-34
-3.5362964e-18
3.5143308e-18
-2.9075341e-30
-3.4710829e-18
1.7247298e-18
0
-1.7029694e-18
-9.3901288e-31
5.0440595e-18
-1.670685e-18
-3.3201454e-18
-1.6494587e-18
-1.6388082e-18
1.6281369e-18
1.6175041e-18
1.6069772e-18
-1.5965958e-18
8.8055036e-31
-8.7470965e-31
1.5662009e-18
-1.7280656e-30
1.5462298e-18
-5.1164975e-30
-4.5790792e-18
3.0330256e-18
3.7345795e-48
-1.4970989e-18
-1.6511587e-30
8.2060363e-31
4.4054288e-18
-1.458984e-18
-4.3485523e-18
0
0
1.4215091e-18
1.4123662e-18
2.8066665e-18
-1.3944064e-18
-2.7711394e-18
2.7535932e-18
-1.3680632e-18
-4.0780946e-18
1.3507193e-18
1.3421478e-18
1.3336491e-18
1.3251965e-18
-2.6335364e-18
-1.3083796e-18
1.300079e-18
3.8757128e-18
-1.2838415e-18
-4.1569057e-47
-2.1108584e-30
-2.5196943e-18
2.503945e-18
2.4885133e-18
-1.236672e-18
-2.4582512e-18
2.4430817e-18
1.2139385e-18
-3.6193052e-18
-3.5973977e-18
1.1920127e-18
2.3699282e-18
1.1778842e-18
-6.4984327e-31
-2.3270605e-18
-1.1564238e-18
1.1495856e-18
2.2861478e-18
-1.6153281e-34
-2.2603379e-18
2.2470041e-18
-1.8600076e-30
-2.2202338e-18
1.1036801e-18
2.1950875e-18
2.1831285e-18
0
-1.0794433e-18
-3.2201201e-18
-1.0673775e-18
1.0614636e-18
0
0
0
0
-1.0329771e-18
5.7051253e-31
3.0684555e-18
-1.0177069e-18
-3.0370927e-18
-1.0068775e-18
1.6677997e-30
1.9920016e-18
9.9088497e-19
-9.8605005e-19
1.9627299e-18
9.7667998e-19
-3.237379e-30
-9.6726106e-19
-1.9251904e-18
2.8741087e-18
-2.7103292e-34
-9.4930857e-19
1.3430798e-34
-9.4100227e-19
-9.3699836e-19
1.0359015e-30
2.7877848e-18
-2.6298336e-34
-2.7636575e-18
-1.834276e-18
5.0659687e-31
1.8185699e-18
9.0566183e-19
-9.0225877e-19
1.7980042e-18
8.9577934e-19
-2.9722882e-30
-8.8930103e-19
-1.7723023e-18
2.6493603e-18
-9.7741903e-31
-8.7743136e-19
-8.7477882e-19
-8.7217053e-19
-4.8238397e-31
4.8098466e-31
1.7281262e-18
4.7808456e-31
-1.7182226e-18
1.71375e-18
-4.270604e-30
-2.5585695e-18
1.7018765e-18
-9.4276979e-31
-1.6942026e-18
8.4530764e-19
8.4366304e-19
1.684329e-18
-8.4082324e-19
-2.5188455e-18
0
0
0
2.5057506e-18
2.5031487e-18
-2.5009943e-18
-2.4992901e-18
1.6653558e-18
-2.3657397e-34
8.3212942e-19
-2.7711631e-30
-2.4953291e-18
2.4952483e-18
-4.1565225e-30
-1.664336e-18
-4.6204524e-31
4.6260796e-31
1.6677749e-18
-8.3463251e-19
8.3542147e-19
-2.7857274e-30
-2.511982e-18
2.5155881e-18
8.3989094e-19
-1.8681755e-30
1.6860902e-18
-1.6895312e-18
-8.4653761e-19
-8.4837237e-19
-2.5509922e-18
9.4636018e-31
8.5475562e-19
2.5716215e-18
-5.7270706e-30
-2.5875177e-18
0
8.680837e-19
1.7419326e-18
-8.7399879e-19
8.7721844e-19
-2.9328182e-30
-1.7682811e-18
2.6633893e-18
-1.9791984e-30
-9.9440646e-31
-9.9811273e-31
-1.0024509e-30
9.0707768e-19
-2.7340593e-18
-2.7473324e-18
9.2032649e-19
1.8499145e-18
0
-9.3428657e-19
1.0421754e-30
-2.0957192e-30
1.0535033e-30
9.5421975e-19
-9.5959046e-19
-9.6504706e-19
2.9115859e-18
-2.8347931e-47
-1.6346331e-30
9.8704422e-19
-1.1016367e-30
1.9976385e-18
-2.0098454e-18
-2.0222185e-18
-1.0173199e-18
1.1360884e-30
1.0296317e-18
0
0
0
2.1111197e-18
-1.0623804e-18
-2.1384374e-18
3.228011e-18
-1.0827133e-18
-3.2682464e-18
3.2888073e-18
-3.6747434e-30
-2.221319e-18
3.3540392e-18
2.2507413e-18
0
-2.2796739e-18
-3.8195515e-30
-1.1541641e-18
-2.3232706e-18
1.169334e-18
0
2.3697409e-18
3.389406e-34
1.3322656e-30
-1.207499e-18
-3.644853e-18
3.6679277e-18
-2.0503039e-30
-3.716099e-18
3.7402576e-18
-6.2691173e-30
-2.5249314e-18
1.2700822e-18
-1.2776472e-18
2.5707954e-18
1.2934911e-18
-5.780703e-30
-1.3100353e-18
-2.6362563e-18
-1.3260045e-18
-1.3336633e-18
2.6824239e-18
1.3489146e-18
0
-1.3653618e-18
7.6269105e-31
-1.5407614e-48
1.3896384e-18
-3.9711744e-34
1.4046778e-18
-1.7734228e-47
-4.2603711e-18
4.2851015e-18
4.3098079e-18
-2.8892026e-18
-2.9046252e-18
0
2.9340122e-18
-1.4742805e-18
-4.4454802e-18
4.4691075e-18
-2.4943594e-30
-3.0109074e-18
1.5129934e-18
0
-1.5270817e-18
-1.5338856e-18
1.5409256e-18
-2.5785193e-30
3.112369e-18
8.8880813e-34
-4.7117039e-18
0
4.7508644e-18
3.1801753e-18
-4.7905162e-18
-3.2076978e-18
4.8323368e-18
1.6174667e-18
-6.4957472e-18
-1.6301575e-18
3.2723238e-18
3.2841148e-18
-1.8295647e-30
-1.654283e-18
-1.660691e-18
-1.6668874e-18
1.6726934e-18
-1.8630007e-30
3.3667259e-18
-5.6234918e-30
-5.0814435e-18
0
0
3.4209479e-18
-3.8096637e-30
-1.7205099e-18
5.1756033e-18
-1.7297612e-18
-2.8874101e-30
-5.7907205e-30
-5.2298366e-18
1.7478758e-18
-9.7243497e-31
1.9500354e-30
1.760482e-18
-1.7642228e-18
2.5123432e-34
-9.834448e-31
1.9710762e-30
1.7796014e-18
0
-1.7862507e-18
3.5783729e-18
1.7920771e-18
-3.590257e-18
0
1.8016273e-18
-1.8045247e-18
-3.6141954e-18
5.4283477e-18
-6.0347334e-30
-6.0410196e-30
1.8161223e-18
-5.4552439e-18
2.5872964e-34
1.822776e-18
1.8247464e-18
-1.8264857e-18
-1.8280119e-18
1.8294035e-18
0
-1.832308e-18
3.6678789e-18
-3.0568749e-30
-1.8364851e-18
-4.07976e-30
-4.0800459e-30
-5.2253132e-34
-3.678764e-18
5.5213949e-18
5.5242001e-18
0
-3.6842219e-18
-5.5263067e-18
-2.6177697e-34
1.8422082e-18
1.8424728e-18
-1.8427203e-18
-1.842786e-18
1.8426828e-18
0
3.6840318e-18
3.6829411e-18
-5.5225981e-18
-1.8403039e-18
1.8398788e-18
-5.2281715e-34
-1.8389208e-18
-3.6760355e-18
-1.8368518e-18
3.0572097e-30
7.3378439e-18
-6.1066787e-30
-5.4985507e-18
1.8318943e-18
1.8305408e-18
1.8288813e-18
-1.8271132e-18
-1.825438e-18
-1.8239865e-18
-5.1804427e-34
1.8213407e-18
-1.8197347e-18
5.4538298e-18
3.6320633e-18
-5.4421226e-18
1.8120109e-18
3.6199559e-18
-3.616024e-18
1.8061562e-18
-1.8042873e-18
-3.6044116e-18
5.3995623e-18
-1.7973349e-18
5.9785999e-30
5.3774424e-18
-3.5807019e-18
-1.7882387e-18
-1.78588e-18
-3.5664847e-18
1.7804557e-18
1.1186117e-75
3.5499471e-18
1.7723947e-18
-1.9648202e-30
-1.7673368e-18
-3.5295692e-18
3.5242303e-18
-1.7592474e-18
-5.268677e-18
5.2595671e-18
1.7502803e-18
-1.3687045e-47
1.7448676e-18
-5.2261437e-18
-1.7390628e-18
1.7359647e-18
3.4655578e-18
-1.7295406e-18
1.726322e-18
-5.7391198e-30
-3.4406408e-18
5.1525538e-18
1.9044229e-30
-7.6007366e-30
3.7920549e-30
-3.409576e-18
3.4030716e-18
-1.6983822e-18
-6.7809869e-18
1.6920422e-18
3.3776038e-18
0
3.3651255e-18
-3.7289683e-30
-9.5283256e-34
-1.8570854e-30
-1.6693152e-18
-1.6658259e-18
1.6624285e-18
1.6591304e-18
-3.3117405e-18
3.3051847e-18
-1.8309775e-30
-3.2919956e-18
3.285291e-18
5.4594209e-30
-1.8159819e-30
-1.6323382e-18
-3.2578313e-18
1.6255673e-18
-1.6222688e-18
8.9862985e-31
1.6154976e-18
3.2239721e-18
-1.6084741e-18
-3.2101141e-18
1.6017795e-18
-1.5985556e-18
2.6569091e-30
-1.5918529e-18
-3.5276796e-30
3.1699723e-18
3.1631187e-18
3.5035188e-30
-5.2451847e-30
5.2340579e-30
-1.5680347e-18
-1.5645352e-18
-1.5610167e-18
1.5575781e-18
0
0
-1.5475761e-18
8.5707598e-31
2.1892198e-34
1.7063197e-30
1.5336085e-18
0
-1.5272681e-18
-3.0482201e-18
1.52076e-18
3.0345365e-18
3.0275203e-18
3.0206829e-18
-4.521218e-18
-5.0087797e-30
4.5024612e-18
-2.9952359e-18
-2.9885265e-18
0
-1.4873395e-18
2.9679097e-18
1.4806597e-18
-2.9548147e-18
-1.4741808e-18
1.6330054e-30
4.4031391e-18
-1.4643606e-18
-4.3829831e-18
4.3730748e-18
1.4544339e-18
-4.3535089e-18
1.6072245e-30
1.4448232e-18
2.883493e-18
1.5965714e-30
-2.8703684e-18
2.8638026e-18
-1.4287769e-18
-4.2771735e-18
0
1.4193501e-18
2.8322638e-18
-7.8469476e-31
1.4097538e-18
2.8130538e-18
-2.8065936e-18
-2.8001268e-18
0
-1.3935486e-18
-1.5434924e-30
-1.540142e-30
-1.5363213e-30
4.1416856e-18
2.7544765e-18
0
-2.7414059e-18
-3.0358783e-30
-1.3643077e-18
-4.0832723e-18
1.3578571e-18
-7.5173098e-31
1.9204919e-34
1.3482442e-18
2.6901779e-18
-1.3419457e-18
-2.6775435e-18
1.3355398e-18
0
2.6580454e-18
-1.3257694e-18
-3.9674092e-18
1.3191349e-18
1.3158091e-18
2.6249532e-18
-1.3091094e-18
-3.917211e-18
1.3023721e-18
-1.4418989e-30
-2.5912378e-18
1.2922635e-18
1.2889075e-18
2.5710247e-18
3.8462941e-18
-2.5573608e-18
-2.5504924e-18
2.5436358e-18
1.407806e-30
-2.5302751e-18
2.5237281e-18
1.397242e-30
-2.51072e-18
0
2.4978292e-18
2.4911955e-18
0
-3.7159227e-18
-1.2350561e-18
-3.4999982e-34
-1.2278861e-18
-1.224335e-18
-1.3549143e-30
2.4345625e-18
2.427564e-18
-4.030738e-30
-2.4135056e-18
2.4064527e-18
3.9954639e-30
-2.3922401e-18
0
0
0
0
2.3556965e-18
1.303381e-30
-2.3383717e-18
-1.1644639e-18
2.3252781e-18
-3.8992874e-30
-2.3347509e-18
2.3050548e-18
1.2736484e-30
-1.1443284e-18
2.2831498e-18
-3.7919449e-30
-2.2698035e-18
2.2626135e-18
2.2553089e-18
-2.2479462e-18
-2.2405485e-18
0
0
0
0
-1.1016472e-18
1.0979308e-18
1.0942425e-18
-1.2107155e-30
7.9438422e-75
-1.0832823e-18
-2.1591237e-18
-1.0757525e-18
2.1436963e-18
3.2036045e-18
-1.063849e-18
-2.1196613e-18
3.1675335e-18
2.1038146e-18
-3.1440632e-18
-2.0883537e-18
-1.0403607e-18
-1.1507375e-30
2.0655181e-18
0
-1.0251448e-18
1.0213278e-18
-2.259175e-30
-2.8810675e-34
-3.3630245e-30
-1.0060462e-18
-1.0022261e-18
2.8376228e-34
1.9891219e-18
1.9814065e-18
-3.2862867e-30
-1.9658311e-18
0
0
0
-9.6711995e-19
-9.6316604e-19
9.5922496e-19
9.5530132e-19
-9.5139753e-19
1.8950279e-18
2.8309484e-18
0
-1.8719392e-18
-1.0345632e-30
-9.2834165e-19
-2.7736292e-18
9.207527e-19
-1.5269617e-30
1.8263763e-18
-6.0580061e-30
-1.8112522e-18
-5.0058878e-31
-1.2761953e-34
8.9423776e-19
-8.9042395e-19
1.7732056e-18
8.8277732e-19
-1.7579031e-18
1.7502602e-18
2.4764336e-34
-9.6332373e-31
-8.6373571e-19
-2.5799172e-18
1.7124598e-18
3.5698256e-49
8.4880882e-19
-1.4075722e-30
-1.6829341e-18
8.3782169e-19
1.6683814e-18
-9.2182504e-31
-2.4808902e-18
2.3401382e-34
8.1976863e-19
-8.1617881e-19
1.6251842e-18
8.0900778e-19
-1.6108511e-18
1.6036915e-18
8.859733e-31
-4.4113988e-30
1.756776e-30
-1.5751449e-18
1.5680473e-18
-7.804867e-19
-1.5539271e-18
7.7345579e-19
-7.6996445e-19
1.53298e-18
-1.27084e-30
-2.2787753e-18
0
0
2.2480868e-18
7.4597869e-19
-1.4852097e-18
1.4784771e-18
4.1829809e-34
-3.2528391e-30
-8.0948675e-31
-1.4516322e-18
1.444933e-18
1.4382369e-18
-7.1577228e-19
-2.1372865e-18
-7.0908968e-19
7.0575672e-19
0
0
-6.9581344e-19
3.8440244e-31
2.0677319e-18
1.9496708e-34
-1.3654575e-18
-6.7949192e-19
7.5056811e-31
2.0191675e-18
1.4872778e-30
-1.3333166e-18
0
-6.6028379e-19
1.3142024e-18
6.5391978e-19
-1.4450216e-30
-6.4755527e-19
-1.28874e-18
6.4118208e-19
0
0
0
0
-6.2522274e-19
3.4527546e-31
1.8565357e-18
-6.1566087e-19
-1.8374407e-18
1.8279111e-18
6.0613119e-19
-1.2059245e-18
-5.9979619e-19
-9.9344382e-31
1.780408e-18
-3.3555048e-34
-1.9556206e-30
-5.8397698e-19
-1.1616149e-18
-5.7763326e-19
-6.3756752e-31
5.7126791e-19
5.6807579e-19
5.6487693e-19
5.6167095e-19
-1.2399455e-30
-1.1104734e-18
0
0
-5.4553251e-19
-9.0295089e-31
-7.6600886e-35
7.6137499e-35
5.3250222e-19
1.0584544e-18
1.0518894e-18
-1.0453088e-18
-5.7685901e-31
-5.1604783e-19
-1.5381895e-18
0
0
5.0270833e-19
4.9934394e-19
0
-4.9257742e-19
2.7152917e-31
4.8575915e-19
-4.8233089e-19
9.5778107e-19
-1.5834276e-30
-1.4159277e-18
4.6850257e-19
4.6501901e-19
9.2305125e-19
-4.5802297e-19
-1.363535e-18
4.509922e-19
-2.4844063e-31
8.8785986e-19
4.4038701e-19
-8.7367209e-19
8.6655418e-19
5.5000028e-48
-8.5227241e-19
0
0
8.3073921e-19
-4.5665459e-31
-1.3595742e-30
5.5776216e-48
-1.2027411e-18
-4.4110263e-31
3.9365013e-19
7.8002169e-19
7.727338e-19
-7.6543737e-19
-8.4164337e-31
-3.7541162e-19
-1.2383209e-30
3.6809336e-19
-7.2886077e-19
0
-3.5709659e-19
3.9225608e-31
3.4975314e-19
6.9215652e-19
3.8002017e-31
-6.7744437e-19
0
0
-3.2767182e-19
1.7983626e-31
9.6089119e-19
3.5148355e-31
-6.2583907e-19
0
3.0554158e-19
-3.0185352e-19
-2.9816688e-19
-2.9448223e-19
-2.9079998e-19
5.7424087e-19
8.5033138e-19
-2.7977031e-19
-5.5220066e-19
8.1730279e-19
1.4094882e-48
-5.3023048e-19
0
0
0
0
4.9379742e-19
4.8654095e-19
-2.3964785e-19
-7.0809281e-19
-2.5815341e-31
2.2881455e-19
-4.5043089e-19
-4.4324573e-19
2.180372e-19
8.5783501e-19
4.2177528e-19
-6.2197169e-19
-4.0753504e-19
6.0065588e-19
4.3662786e-31
-3.8628875e-19
0
0
0
3.5819413e-19
1.9494999e-31
-3.8221779e-31
1.6865115e-19
-4.9555971e-19
1.6173106e-19
1.5828488e-19
-4.645445e-19
-3.0284198e-19
1.4800339e-19
2.891907e-19
2.8239382e-19
-4.5904231e-31
1.4927502e-31
-3.7249524e-35
-2.5540219e-19
0
-1.2101339e-19
-1.1768461e-19
1.1436572e-19
1.1105656e-19
-1.077571e-19
-1.0446737e-19
2.0237493e-19
9.791753e-20
-9.465765e-20
9.1407818e-20
-8.8168011e-20
-1.6987633e-19
0
0
2.2591902e-19
7.2113024e-20
-1.3785218e-19
-6.5743413e-20
-6.2562843e-20
1.18766e-19
-6.2426944e-32
-1.060555e-19
0
4.6697429e-20
1.3065831e-19
8.9751233e-32