/*--------------------------------*- C++ -*----------------------------------*\
  =========                 |
  \\      /  F ield         | OpenFOAM: The Open Source CFD Toolbox
   \\    /   O peration     | Website:  https://openfoam.org
    \\  /    A nd           | Version:  7
     \\/     M anipulation  |
\*---------------------------------------------------------------------------*/
FoamFile
{
    version     2.0;
    format      ascii;
    class       surfaceScalarField;
    location    "0.00222";
    object      phi;
}
// * * * * * * * * * * * * * * * * * * * * * * * * * * * * * * * * * * * * * //

dimensions      [1 0 -1 0 0 0 0];

internalField   nonuniform List<scalar> 
4999
(
0.0038042599
0.0038042494
0.0038042403
0.0038042307
0.0038042212
0.0038042117
0.0038042023
0.0038041929
0.0038041835
0.0038041743
0.0038041652
0.0038041562
0.0038041474
0.0038041387
0.0038041301
0.0038041217
0.0038041135
0.0038041054
0.0038040974
0.0038040897
0.003804082
0.0038040745
0.0038040672
0.00380406
0.003804053
0.0038040462
0.0038040395
0.0038040329
0.0038040265
0.0038040203
0.0038040142
0.0038040083
0.0038040026
0.003803997
0.0038039915
0.0038039863
0.0038039811
0.0038039762
0.0038039714
0.0038039667
0.0038039623
0.0038039579
0.0038039538
0.0038039498
0.0038039459
0.0038039423
0.0038039388
0.0038039354
0.0038039322
0.0038039292
0.0038039263
0.0038039236
0.0038039211
0.0038039187
0.0038039165
0.0038039145
0.0038039126
0.0038039109
0.0038039093
0.0038039079
0.0038039066
0.0038039055
0.0038039045
0.0038039038
0.0038039032
0.0038039029
0.0038039027
0.0038039027
0.0038039028
0.003803903
0.0038039035
0.0038039041
0.0038039048
0.0038039057
0.0038039068
0.0038039081
0.0038039095
0.0038039111
0.0038039128
0.0038039147
0.0038039168
0.0038039191
0.0038039215
0.0038039241
0.0038039269
0.0038039299
0.003803933
0.0038039363
0.0038039397
0.0038039434
0.0038039472
0.0038039511
0.0038039553
0.0038039596
0.0038039641
0.0038039688
0.0038039735
0.0038039784
0.0038039834
0.0038039887
0.0038039942
0.0038039998
0.0038040055
0.0038040115
0.0038040176
0.0038040239
0.0038040304
0.0038040371
0.003804044
0.003804051
0.0038040583
0.0038040658
0.0038040734
0.0038040812
0.0038040892
0.0038040973
0.0038041057
0.0038041142
0.0038041229
0.0038041317
0.0038041407
0.0038041499
0.0038041593
0.0038041689
0.0038041788
0.0038041888
0.003804199
0.0038042095
0.0038042201
0.0038042308
0.0038042418
0.0038042529
0.0038042642
0.0038042757
0.0038042874
0.0038042993
0.0038043113
0.0038043235
0.0038043359
0.0038043485
0.0038043612
0.0038043742
0.0038043873
0.0038044006
0.0038044142
0.0038044279
0.0038044418
0.0038044559
0.0038044702
0.0038044847
0.0038044993
0.0038045142
0.0038045293
0.0038045445
0.00380456
0.0038045757
0.0038045915
0.0038046076
0.0038046238
0.0038046403
0.0038046569
0.0038046737
0.0038046908
0.003804708
0.0038047255
0.0038047431
0.0038047609
0.003804779
0.0038047972
0.0038048157
0.0038048344
0.0038048532
0.0038048723
0.0038048915
0.003804911
0.0038049307
0.0038049506
0.0038049707
0.003804991
0.0038050115
0.0038050322
0.0038050531
0.0038050742
0.0038050956
0.0038051172
0.0038051389
0.0038051609
0.0038051831
0.0038052055
0.0038052281
0.003805251
0.0038052741
0.0038052973
0.0038053208
0.0038053445
0.0038053685
0.0038053926
0.003805417
0.0038054416
0.0038054664
0.0038054914
0.0038055167
0.0038055422
0.0038055679
0.0038055938
0.00380562
0.0038056464
0.003805673
0.0038056998
0.0038057269
0.0038057542
0.0038057818
0.0038058095
0.0038058375
0.0038058658
0.0038058942
0.003805923
0.0038059519
0.0038059811
0.0038060105
0.0038060402
0.0038060701
0.0038061002
0.0038061306
0.0038061613
0.0038061921
0.0038062233
0.0038062547
0.0038062863
0.0038063182
0.0038063503
0.0038063827
0.0038064153
0.0038064482
0.0038064813
0.0038065147
0.0038065484
0.0038065823
0.0038066165
0.0038066509
0.0038066856
0.0038067206
0.0038067558
0.0038067913
0.0038068271
0.0038068631
0.0038068994
0.003806936
0.0038069728
0.0038070099
0.0038070473
0.003807085
0.003807123
0.0038071612
0.0038071997
0.0038072385
0.0038072776
0.0038073169
0.0038073566
0.0038073965
0.0038074367
0.0038074773
0.0038075181
0.0038075592
0.0038076006
0.0038076423
0.0038076842
0.0038077265
0.0038077691
0.003807812
0.0038078552
0.0038078987
0.0038079426
0.0038079867
0.0038080311
0.0038080759
0.0038081209
0.0038081663
0.003808212
0.003808258
0.0038083044
0.003808351
0.003808398
0.0038084454
0.003808493
0.003808541
0.0038085893
0.003808638
0.003808687
0.0038087363
0.003808786
0.003808836
0.0038088864
0.0038089371
0.0038089882
0.0038090396
0.0038090914
0.0038091435
0.0038091961
0.0038092489
0.0038093022
0.0038093558
0.0038094098
0.0038094641
0.0038095189
0.003809574
0.0038096295
0.0038096854
0.0038097417
0.0038097984
0.0038098554
0.0038099129
0.0038099708
0.0038100291
0.0038100878
0.0038101469
0.0038102064
0.0038102664
0.0038103268
0.0038103876
0.0038104488
0.0038105105
0.0038105726
0.0038106352
0.0038106982
0.0038107617
0.0038108256
0.00381089
0.0038109549
0.0038110202
0.003811086
0.0038111523
0.0038112191
0.0038112864
0.0038113541
0.0038114224
0.0038114912
0.0038115605
0.0038116304
0.0038117007
0.0038117716
0.003811843
0.003811915
0.0038119875
0.0038120606
0.0038121343
0.0038122085
0.0038122833
0.0038123586
0.0038124346
0.0038125112
0.0038125884
0.0038126662
0.0038127446
0.0038128237
0.0038129033
0.0038129837
0.0038130647
0.0038131463
0.0038132287
0.0038133117
0.0038133954
0.0038134798
0.0038135649
0.0038136507
0.0038137373
0.0038138246
0.0038139126
0.0038140014
0.003814091
0.0038141814
0.0038142725
0.0038143644
0.0038144572
0.0038145508
0.0038146452
0.0038147405
0.0038148366
0.0038149336
0.0038150315
0.0038151302
0.0038152299
0.0038153305
0.003815432
0.0038155345
0.003815638
0.0038157424
0.0038158478
0.0038159542
0.0038160616
0.00381617
0.0038162795
0.00381639
0.0038165016
0.0038166143
0.0038167281
0.0038168431
0.0038169591
0.0038170763
0.0038171946
0.0038173142
0.0038174349
0.0038175568
0.00381768
0.0038178044
0.0038179301
0.003818057
0.0038181852
0.0038183148
0.0038184456
0.0038185778
0.0038187114
0.0038188463
0.0038189827
0.0038191204
0.0038192596
0.0038194002
0.0038195423
0.0038196859
0.003819831
0.0038199775
0.0038201257
0.0038202754
0.0038204266
0.0038205795
0.0038207339
0.00382089
0.0038210478
0.0038212072
0.0038213683
0.0038215311
0.0038216956
0.0038218619
0.0038220299
0.0038221998
0.0038223714
0.0038225448
0.0038227201
0.0038228972
0.0038230762
0.0038232571
0.0038234399
0.0038236247
0.0038238114
0.003824
0.0038241907
0.0038243834
0.0038245781
0.0038247748
0.0038249737
0.0038251746
0.0038253776
0.0038255827
0.00382579
0.0038259994
0.003826211
0.0038264249
0.0038266409
0.0038268592
0.0038270797
0.0038273025
0.0038275276
0.003827755
0.0038279847
0.0038282168
0.0038284512
0.0038286881
0.0038289273
0.003829169
0.003829413
0.0038296596
0.0038299086
0.0038301601
0.0038304142
0.0038306707
0.0038309298
0.0038311915
0.0038314557
0.0038317226
0.003831992
0.0038322641
0.0038325389
0.0038328163
0.0038330964
0.0038333792
0.0038336647
0.003833953
0.003834244
0.0038345378
0.0038348344
0.0038351338
0.003835436
0.0038357411
0.003836049
0.0038363598
0.0038366734
0.00383699
0.0038373095
0.003837632
0.0038379574
0.0038382858
0.0038386171
0.0038389515
0.0038392889
0.0038396294
0.0038399729
0.0038403194
0.0038406691
0.0038410219
0.0038413777
0.0038417368
0.003842099
0.0038424643
0.0038428328
0.0038432046
0.0038435795
0.0038439578
0.0038443392
0.0038447239
0.0038451119
0.0038455033
0.0038458979
0.0038462959
0.0038466972
0.0038471019
0.00384751
0.0038479215
0.0038483364
0.0038487547
0.0038491765
0.0038496017
0.0038500305
0.0038504628
0.0038508985
0.0038513379
0.0038517807
0.0038522272
0.0038526772
0.0038531309
0.0038535882
0.0038540491
0.0038545137
0.0038549819
0.0038554539
0.0038559296
0.003856409
0.0038568921
0.0038573791
0.0038578698
0.0038583644
0.0038588628
0.003859365
0.0038598711
0.0038603811
0.003860895
0.0038614129
0.0038619347
0.0038624604
0.0038629902
0.0038635239
0.0038640617
0.0038646036
0.0038651495
0.0038656996
0.0038662537
0.003866812
0.0038673745
0.0038679411
0.0038685119
0.003869087
0.0038696664
0.00387025
0.0038708379
0.0038714302
0.0038720268
0.0038726278
0.0038732332
0.003873843
0.0038744573
0.0038750761
0.0038756994
0.0038763272
0.0038769596
0.0038775965
0.0038782381
0.0038788843
0.0038795352
0.0038801908
0.0038808511
0.0038815162
0.0038821861
0.0038828608
0.0038835403
0.0038842248
0.0038849141
0.0038856084
0.0038863077
0.003887012
0.0038877213
0.0038884357
0.0038891552
0.0038898799
0.0038906098
0.0038913449
0.0038920852
0.0038928309
0.0038935819
0.0038943382
0.0038951
0.0038958672
0.00389664
0.0038974182
0.003898202
0.0038989915
0.0038997866
0.0039005874
0.003901394
0.0039022064
0.0039030246
0.0039038487
0.0039046788
0.0039055148
0.0039063569
0.0039072051
0.0039080594
0.0039089199
0.0039097867
0.0039106598
0.0039115392
0.0039124251
0.0039133175
0.0039142164
0.0039151219
0.0039160341
0.003916953
0.0039178788
0.0039188114
0.0039197509
0.0039206975
0.0039216512
0.003922612
0.0039235801
0.0039245555
0.0039255384
0.0039265287
0.0039275266
0.0039285322
0.0039295456
0.0039305669
0.0039315961
0.0039326334
0.0039336789
0.0039347326
0.0039357948
0.0039368655
0.0039379449
0.003939033
0.00394013
0.0039412361
0.0039423513
0.0039434759
0.0039446099
0.0039457536
0.0039469071
0.0039480706
0.0039492442
0.0039504281
0.0039516226
0.0039528278
0.0039540439
0.0039552711
0.0039565097
0.0039577599
0.0039590219
0.0039602961
0.0039615825
0.0039628817
0.0039641937
0.0039655189
0.0039668577
0.0039682103
0.0039695771
0.0039709585
0.0039723547
0.0039737662
0.0039751935
0.0039766368
0.0039780966
0.0039795735
0.0039810678
0.0039825801
0.0039841109
0.0039856607
0.00398723
0.0039888195
0.0039904298
0.0039920615
0.0039937153
0.0039953919
0.0039970919
0.0039988162
0.0040005655
0.0040023406
0.0040041425
0.0040059719
0.0040078299
0.0040097173
0.0040116353
0.0040135847
0.0040155668
0.0040175827
0.0040196336
0.0040217206
0.0040238452
0.0040260085
0.0040282121
0.0040304573
0.0040327457
0.0040350788
0.0040374583
0.0040398859
0.0040423634
0.0040448925
0.0040474752
0.0040501135
0.0040528094
0.0040555651
0.0040583828
0.0040612648
0.0040642136
0.0040672315
0.0040703212
0.0040734854
0.0040767268
0.0040800484
0.0040834531
0.004086944
0.0040905245
0.0040941977
0.0040979673
0.0041018367
0.0041058097
0.0041098901
0.0041140819
0.0041183893
0.0041228165
0.004127368
0.0041320483
0.0041368622
0.0041418146
0.0041469105
0.0041521552
0.0041575541
0.0041631128
0.0041688371
0.0041747331
0.0041808068
0.0041870646
0.0041935133
0.0042001595
0.0042070103
0.004214073
0.004221355
0.0042288641
0.0042366082
0.0042445956
0.0042528348
0.0042613344
0.0042701035
0.0042791513
0.0042884875
0.0042981219
0.0043080645
0.004318326
0.004328917
0.0043398486
0.0043511322
0.0043627795
0.0043748026
0.0043872138
0.0044000261
0.0044132524
0.0044269062
0.0044410015
0.0044555524
0.0044705736
0.0044860802
0.0045020874
0.0045186113
0.0045356681
0.0045532744
0.0045714475
0.0045902048
0.0046095645
0.0046295449
0.0046501652
0.0046714447
0.0046934034
0.0047160616
0.0047394403
0.004763561
0.0047884456
0.0048141166
0.004840597
0.0048679104
0.0048960808
0.0049251329
0.004955092
0.0049859839
0.0050178349
0.0050506721
0.0050845231
0.0051194159
0.0051553795
0.0051924432
0.005230637
0.0052699918
0.0053105387
0.0053523098
0.0053953377
0.0054396556
0.0054852976
0.0055322983
0.0055806929
0.0056305176
0.0056818089
0.0057346043
0.0057889419
0.0058448606
0.0059023997
0.0059615997
0.0060225013
0.0060851465
0.0061495775
0.0062158376
0.0062839706
0.0063540213
0.006426035
0.0065000578
0.0065761367
0.0066543193
0.006734654
0.00681719
0.0069019771
0.0069890662
0.0070785085
0.0071703563
0.0072646625
0.0073614809
0.0074608659
0.0075628728
0.0076675574
0.0077749765
0.0078851876
0.007998249
0.0081142194
0.0082331587
0.0083551273
0.0084801862
0.0086083974
0.0087398235
0.0088745277
0.009012574
0.0091540272
0.0092989525
0.0094474162
0.0095994848
0.0097552259
0.0099147074
0.010077998
0.010245167
0.010416285
0.010591421
0.010770648
0.010954037
0.01114166
0.01133359
0.0115299
0.011730665
0.011935959
0.012145858
0.012360435
0.012579768
0.012803933
0.013033007
0.013267066
0.013506189
0.013750455
0.01399994
0.014254724
0.014514886
0.014780506
0.015051664
0.015328438
0.01561091
0.01589916
0.016193269
0.016493318
0.016799388
0.017111559
0.017429914
0.017754533
0.018085499
0.018422892
0.018766795
0.019117289
0.019474455
0.019838376
0.020209133
0.020586807
0.020971479
0.02136323
0.021762143
0.022168297
0.022581773
0.023002651
0.023431012
0.023866936
0.024310501
0.024761788
0.025220875
0.025687841
0.026162763
0.02664572
0.027136788
0.027636045
0.028143566
0.028659427
0.029183704
0.029716471
0.030257801
0.030807769
0.031366447
0.031933907
0.032510221
0.033095459
0.033689691
0.034292986
0.034905413
0.03552704
0.036157932
0.036798157
0.037447779
0.038106863
0.038775472
0.039453668
0.040141513
0.040839068
0.041546392
0.042263543
0.04299058
0.043727559
0.044474536
0.045231565
0.045998699
0.046775991
0.047563493
0.048361254
0.049169325
0.049987752
0.050816582
0.051655862
0.052505636
0.053365947
0.054236838
0.055118349
0.05601052
0.05691339
0.057826997
0.058751376
0.059686563
0.060632591
0.061589493
0.0625573
0.063536042
0.064525748
0.065526446
0.066538161
0.067560918
0.068594743
0.069639656
0.07069568
0.071762834
0.072841138
0.073930607
0.07503126
0.07614311
0.077266172
0.078400458
0.079545979
0.080702745
0.081870765
0.083050047
0.084240596
0.085442419
0.086655518
0.087879897
0.089115557
0.090362497
0.091620718
0.092890218
0.094170992
0.095463036
0.096766345
0.098080913
0.09940673
0.10074379
0.10209208
0.10345159
0.1048223
0.10620422
0.10759731
0.10900156
0.11041696
0.11184349
0.11328114
0.11472987
0.11618968
0.11766053
0.11914241
0.12063529
0.12213915
0.12365396
0.1251797
0.12671634
0.12826385
0.1298222
0.13139136
0.1329713
0.13456199
0.13616339
0.13777548
0.13939821
0.14103156
0.14267549
0.14432996
0.14599493
0.14767036
0.14935623
0.15105248
0.15275908
0.15447598
0.15620315
0.15794054
0.15968812
0.16144582
0.16321363
0.16499147
0.16677933
0.16857713
0.17038485
0.17220244
0.17402984
0.175867
0.17771389
0.17957045
0.18143663
0.18331238
0.18519766
0.1870924
0.18899657
0.1909101
0.19283295
0.19476506
0.19670638
0.19865686
0.20061644
0.20258507
0.2045627
0.20654927
0.20854473
0.21054902
0.21256209
0.21458387
0.21661432
0.21865338
0.22070099
0.2227571
0.22482164
0.22689457
0.22897582
0.23106533
0.23316305
0.23526893
0.23738289
0.23950489
0.24163487
0.24377276
0.24591851
0.24807206
0.25023335
0.25240232
0.25457892
0.25676307
0.25895473
0.26115384
0.26336033
0.26557414
0.26779522
0.2700235
0.27225893
0.27450144
0.27675098
0.27900749
0.2812709
0.28354116
0.2858182
0.28810197
0.2903924
0.29268944
0.29499302
0.29730309
0.29961958
0.30194244
0.3042716
0.30660701
0.3089486
0.31129632
0.3136501
0.31600989
0.31837562
0.32074724
0.32312468
0.32550789
0.32789681
0.33029137
0.33269151
0.33509719
0.33750833
0.33992489
0.34234679
0.34477398
0.3472064
0.34964399
0.3520867
0.35453446
0.35698722
0.35944491
0.36190747
0.36437486
0.366847
0.36932385
0.37180534
0.37429141
0.37678201
0.37927708
0.38177655
0.38428038
0.3867885
0.38930086
0.3918174
0.39433806
0.39686278
0.39939151
0.40192419
0.40446076
0.40700116
0.40954534
0.41209324
0.4146448
0.41719997
0.41975868
0.42232089
0.42488654
0.42745556
0.43002791
0.43260353
0.43518235
0.43776433
0.44034941
0.44293753
0.44552864
0.44812268
0.45071959
0.45331933
0.45592182
0.45852703
0.46113489
0.46374534
0.46635834
0.46897382
0.47159174
0.47421203
0.47683464
0.47945952
0.48208662
0.48471587
0.48734722
0.48998062
0.49261601
0.49525334
0.49789255
0.5005336
0.50317642
0.50582096
0.50846716
0.51111498
0.51376436
0.51641523
0.51906756
0.52172129
0.52437635
0.5270327
0.52969029
0.53234905
0.53500895
0.53766991
0.54033189
0.54299484
0.54565869
0.5483234
0.55098892
0.55365518
0.55632214
0.55898974
0.56165793
0.56432665
0.56699585
0.56966548
0.57233549
0.57500581
0.5776764
0.5803472
0.58301816
0.58568923
0.58836034
0.59103146
0.59370252
0.59637347
0.59904426
0.60171483
0.60438513
0.60705511
0.60972471
0.61239388
0.61506257
0.61773072
0.62039828
0.62306519
0.6257314
0.62839686
0.63106151
0.6337253
0.63638818
0.63905009
0.64171097
0.64437078
0.64702946
0.64968696
0.65234321
0.65499818
0.6576518
0.66030401
0.66295478
0.66560403
0.66825172
0.67089779
0.67354219
0.67618486
0.67882576
0.68146481
0.68410198
0.6867372
0.68937042
0.69200159
0.69463065
0.69725755
0.69988223
0.70250464
0.70512472
0.70774242
0.71035768
0.71297044
0.71558066
0.71818827
0.72079323
0.72339547
0.72599494
0.72859158
0.73118535
0.73377618
0.73636402
0.73894882
0.74153051
0.74410904
0.74668436
0.74925641
0.75182513
0.75439048
0.75695238
0.75951079
0.76206565
0.76461691
0.7671645
0.76970838
0.77224848
0.77478476
0.77731714
0.77984558
0.78237003
0.78489041
0.78740669
0.78991879
0.79242667
0.79493027
0.79742953
0.7999244
0.80241481
0.80490071
0.80738205
0.80985877
0.81233081
0.81479811
0.81726062
0.81971829
0.82217104
0.82461884
0.82706161
0.82949931
0.83193188
0.83435925
0.83678139
0.83919821
0.84160968
0.84401574
0.84641632
0.84881137
0.85120083
0.85358465
0.85596278
0.85833514
0.86070169
0.86306238
0.86541714
0.86776591
0.87010865
0.87244529
0.87477579
0.87710008
0.8794181
0.88172981
0.88403514
0.88633404
0.88862646
0.89091234
0.89319163
0.89546426
0.89773018
0.89998935
0.9022417
0.90448718
0.90672573
0.9089573
0.91118183
0.91339928
0.91560959
0.91781269
0.92000855
0.92219711
0.9243783
0.92655209
0.92871842
0.93087723
0.93302847
0.93517209
0.93730804
0.93943627
0.94155672
0.94366934
0.94577409
0.94787091
0.94995975
0.95204056
0.95411329
0.9561779
0.95823432
0.96028252
0.96232245
0.96435405
0.96637728
0.96839209
0.97039844
0.97239627
0.97438555
0.97636621
0.97833823
0.98030155
0.98225612
0.98420191
0.98613887
0.98806696
0.98998613
0.99189633
0.99379754
0.9956897
0.99757277
0.99944672
1.0013115
1.0031671
1.0050134
1.0068504
1.0086782
1.0104965
1.0123055
1.014105
1.015895
1.0176756
1.0194465
1.021208
1.0229598
1.0247019
1.0264344
1.0281572
1.0298702
1.0315734
1.0332669
1.0349505
1.0366242
1.0382881
1.0399421
1.0415861
1.0432201
1.0448441
1.0464582
1.0480621
1.049656
1.0512398
1.0528136
1.0543771
1.0559305
1.0574738
1.0590068
1.0605297
1.0620423
1.0635447
1.0650368
1.0665186
1.0679901
1.0694514
1.0709023
1.0723429
1.0737732
1.0751931
1.0766027
1.0780019
1.0793907
1.0807692
1.0821373
1.083495
1.0848422
1.0861791
1.0875056
1.0888217
1.0901274
1.0914228
1.0927077
1.0939822
1.0952463
1.0965
1.0977434
1.0989764
1.100199
1.1014112
1.1026131
1.1038047
1.1049859
1.1061568
1.1073173
1.1084676
1.1096076
1.1107374
1.1118569
1.1129661
1.1140651
1.115154
1.1162326
1.1173011
1.1183595
1.1194077
1.1204459
1.121474
1.122492
1.1235
1.1244981
1.1254861
1.1264643
1.1274325
1.1283908
1.1293394
1.1302781
1.131207
1.1321261
1.1330356
1.1339354
1.1348255
1.1357061
1.1365771
1.1374385
1.1382905
1.139133
1.1399661
1.1407898
1.1416042
1.1424094
1.1432053
1.143992
1.1447695
1.145538
1.1462973
1.1470477
1.1477892
1.1485217
1.1492453
1.1499602
1.1506662
1.1513636
1.1520523
1.1527324
1.1534039
1.154067
1.1547216
1.1553678
1.1560056
1.1566352
1.1572565
1.1578697
1.1584748
1.1590718
1.1596608
1.1602419
1.1608151
1.1613805
1.1619381
1.162488
1.1630303
1.1635649
1.1640921
1.1646118
1.1651241
1.1656291
1.1661268
1.1666173
1.1671006
1.1675769
1.1680461
1.1685084
1.1689637
1.1694123
1.1698541
1.1702891
1.1707176
1.1711394
1.1715547
1.1719636
1.1723661
1.1727623
1.1731523
1.173536
1.1739136
1.1742852
1.1746508
1.1750104
1.1753641
1.1757121
1.1760543
1.1763909
1.1767218
1.1770472
1.1773671
1.1776816
1.1779907
1.1782946
1.1785932
1.1788866
1.179175
1.1794583
1.1797366
1.1800101
1.1802786
1.1805424
1.1808015
1.1810558
1.1813056
1.1815509
1.1817916
1.1820279
1.1822599
1.1824875
1.182711
1.1829302
1.1831453
1.1833563
1.1835633
1.1837664
1.1839655
1.1841609
1.1843524
1.1845402
1.1847243
1.1849048
1.1850818
1.1852552
1.1854252
1.1855918
1.185755
1.1859149
1.1860716
1.1862251
1.1863755
1.1865227
1.1866669
1.1868082
1.1869464
1.1870818
1.1872144
1.1873441
1.1874711
1.1875954
1.187717
1.187836
1.1879524
1.1880663
1.1881778
1.1882868
1.1883934
1.1884976
1.1885996
1.1886993
1.1887967
1.188892
1.1889852
1.1890762
1.1891652
1.1892521
1.189337
1.18942
1.1895011
1.1895803
1.1896577
1.1897333
1.1898071
1.1898791
1.1899495
1.1900182
1.1900852
1.1901507
1.1902146
1.1902769
1.1903378
1.1903971
1.1904551
1.1905116
1.1905667
1.1906205
1.1906729
1.190724
1.1907739
1.1908225
1.1908699
1.1909161
1.1909611
1.191005
1.1910478
1.1910895
1.1911301
1.1911697
1.1912083
1.1912458
1.1912824
1.191318
1.1913527
1.1913865
1.1914194
1.1914514
1.1914826
1.1915129
1.1915424
1.1915712
1.1915992
1.1916264
1.1916528
1.1916786
1.1917036
1.191728
1.1917517
1.1917747
1.1917971
1.1918189
1.1918401
1.1918607
1.1918807
1.1919002
1.1919191
1.1919374
1.1919553
1.1919726
1.1919894
1.1920058
1.1920217
1.1920371
1.1920521
1.1920667
1.1920808
1.1920945
1.1921078
1.1921207
1.1921332
1.1921454
1.1921572
1.1921687
1.1921798
1.1921905
1.192201
1.1922111
1.192221
1.1922305
1.1922397
1.1922487
1.1922574
1.1922658
1.192274
1.1922819
1.1922895
1.192297
1.1923042
1.1923111
1.1923179
1.1923244
1.1923307
1.1923369
1.1923428
1.1923485
1.1923541
1.1923595
1.1923647
1.1923697
1.1923746
1.1923793
1.1923839
1.1923883
1.1923926
1.1923967
1.1924007
1.1924046
1.1924083
1.1924119
1.1924154
1.1924188
1.192422
1.1924252
1.1924282
1.1924311
1.192434
1.1924367
1.1924393
1.1924419
1.1924444
1.1924467
1.192449
1.1924513
1.1924534
1.1924555
1.1924575
1.1924594
1.1924612
1.192463
1.1924647
1.1924664
1.192468
1.1924695
1.192471
1.1924725
1.1924739
1.1924752
1.1924765
1.1924777
1.1924789
1.19248
1.1924811
1.1924822
1.1924832
1.1924842
1.1924851
1.1924861
1.1924869
1.1924878
1.1924886
1.1924894
1.1924901
1.1924908
1.1924915
1.1924922
1.1924928
1.1924934
1.192494
1.1924946
1.1924951
1.1924957
1.1924962
1.1924966
1.1924971
1.1924975
1.192498
1.1924984
1.1924987
1.1924991
1.1924995
1.1924998
1.1925001
1.1925005
1.1925008
1.192501
1.1925013
1.1925016
1.1925018
1.1925021
1.1925023
1.1925025
1.1925027
1.1925029
1.1925031
1.1925033
1.1925035
1.1925036
1.1925038
1.1925039
1.1925041
1.1925042
1.1925044
1.1925045
1.1925046
1.1925047
1.1925048
1.1925049
1.192505
1.1925051
1.1925052
1.1925053
1.1925053
1.1925054
1.1925055
1.1925055
1.1925056
1.1925057
1.1925057
1.1925058
1.1925058
1.1925059
1.1925059
1.1925059
1.192506
1.192506
1.192506
1.1925061
1.1925061
1.1925061
1.1925061
1.1925062
1.1925062
1.1925062
1.1925062
1.1925062
1.1925062
1.1925062
1.1925062
1.1925063
1.1925063
1.1925063
1.1925063
1.1925063
1.1925063
1.1925063
1.1925063
1.1925063
1.1925063
1.1925063
1.1925063
1.1925062
1.1925062
1.1925062
1.1925062
1.1925062
1.1925062
1.1925062
1.1925062
1.1925062
1.1925062
1.1925061
1.1925061
1.1925061
1.1925061
1.1925061
1.1925061
1.1925061
1.192506
1.192506
1.192506
1.192506
1.192506
1.1925059
1.1925059
1.1925059
1.1925059
1.1925059
1.1925058
1.1925058
1.1925058
1.1925058
1.1925057
1.1925057
1.1925057
1.1925057
1.1925057
1.1925056
1.1925056
1.1925056
1.1925056
1.1925055
1.1925055
1.1925055
1.1925055
1.1925054
1.1925054
1.1925054
1.1925054
1.1925053
1.1925053
1.1925053
1.1925053
1.1925052
1.1925052
1.1925052
1.1925051
1.1925051
1.1925051
1.1925051
1.192505
1.192505
1.192505
1.192505
1.1925049
1.1925049
1.1925049
1.1925049
1.1925048
1.1925048
1.1925048
1.1925047
1.1925047
1.1925047
1.1925047
1.1925046
1.1925046
1.1925046
1.1925045
1.1925045
1.1925045
1.1925045
1.1925044
1.1925044
1.1925044
1.1925043
1.1925043
1.1925043
1.1925042
1.1925042
1.1925042
1.1925042
1.1925041
1.1925041
1.1925041
1.192504
1.192504
1.192504
1.192504
1.1925039
1.1925039
1.1925039
1.1925038
1.1925038
1.1925038
1.1925038
1.1925037
1.1925037
1.1925037
1.1925036
1.1925036
1.1925036
1.1925036
1.1925035
1.1925035
1.1925035
1.1925034
1.1925034
1.1925034
1.1925033
1.1925033
1.1925033
1.1925032
1.1925032
1.1925032
1.1925032
1.1925031
1.1925031
1.1925031
1.192503
1.192503
1.192503
1.1925029
1.1925029
1.1925029
1.1925029
1.1925028
1.1925028
1.1925028
1.1925027
1.1925027
1.1925027
1.1925026
1.1925026
1.1925026
1.1925025
1.1925025
1.1925025
1.1925024
1.1925024
1.1925024
1.1925023
1.1925023
1.1925023
1.1925022
1.1925022
1.1925022
1.1925022
1.1925021
1.1925021
1.1925021
1.192502
1.192502
1.192502
1.1925019
1.1925019
1.1925019
1.1925018
1.1925018
1.1925018
1.1925017
1.1925017
1.1925017
1.1925016
1.1925016
1.1925016
1.1925015
1.1925015
1.1925015
1.1925014
1.1925014
1.1925014
1.1925013
1.1925013
1.1925013
1.1925012
1.1925012
1.1925012
1.1925011
1.1925011
1.1925011
1.192501
1.192501
1.192501
1.1925009
1.1925009
1.1925009
1.1925008
1.1925008
1.1925008
1.1925007
1.1925007
1.1925007
1.1925006
1.1925006
1.1925006
1.1925005
1.1925005
1.1925005
1.1925004
1.1925004
1.1925004
1.1925003
1.1925003
1.1925003
1.1925002
1.1925002
1.1925002
1.1925001
1.1925001
1.1925001
1.1925
1.1925
1.1925
1.1924999
1.1924999
1.1924999
1.1924998
1.1924998
1.1924998
1.1924997
1.1924997
1.1924997
1.1924996
1.1924996
1.1924996
1.1924995
1.1924995
1.1924995
1.1924994
1.1924994
1.1924994
1.1924993
1.1924993
1.1924993
1.1924992
1.1924992
1.1924992
1.1924991
1.1924991
1.1924991
1.192499
1.192499
1.192499
1.1924989
1.1924989
1.1924989
1.1924988
1.1924988
1.1924988
1.1924987
1.1924987
1.1924987
1.1924986
1.1924986
1.1924986
1.1924985
1.1924985
1.1924985
1.1924984
1.1924984
1.1924984
1.1924983
1.1924983
1.1924983
1.1924982
1.1924982
1.1924982
1.1924981
1.1924981
1.1924981
1.192498
1.192498
1.1924979
1.1924979
1.1924979
1.1924978
1.1924978
1.1924978
1.1924977
1.1924977
1.1924977
1.1924976
1.1924976
1.1924976
1.1924975
1.1924975
1.1924974
1.1924974
1.1924974
1.1924973
1.1924973
1.1924973
1.1924972
1.1924972
1.1924971
1.1924971
1.1924971
1.192497
1.192497
1.192497
1.1924969
1.1924969
1.1924968
1.1924968
1.1924968
1.1924967
1.1924967
1.1924966
1.1924966
1.1924966
1.1924965
1.1924965
1.1924964
1.1924964
1.1924964
1.1924963
1.1924963
1.1924962
1.1924962
1.1924961
1.1924961
1.1924961
1.192496
1.192496
1.1924959
1.1924959
1.1924958
1.1924958
1.1924957
1.1924957
1.1924957
1.1924956
1.1924956
1.1924955
1.1924955
1.1924954
1.1924954
1.1924953
1.1924953
1.1924952
1.1924952
1.1924951
1.1924951
1.1924951
1.192495
1.192495
1.1924949
1.1924949
1.1924948
1.1924948
1.1924947
1.1924947
1.1924946
1.1924946
1.1924945
1.1924945
1.1924944
1.1924944
1.1924943
1.1924943
1.1924942
1.1924942
1.1924941
1.1924941
1.192494
1.192494
1.1924939
1.1924938
1.1924938
1.1924937
1.1924937
1.1924936
1.1924936
1.1924935
1.1924935
1.1924934
1.1924934
1.1924933
1.1924933
1.1924932
1.1924931
1.1924931
1.192493
1.192493
1.1924929
1.1924929
1.1924928
1.1924928
1.1924927
1.1924927
1.1924926
1.1924925
1.1924925
1.1924924
1.1924924
1.1924923
1.1924923
1.1924922
1.1924922
1.1924921
1.1924921
1.192492
1.1924919
1.1924919
1.1924918
1.1924918
1.1924917
1.1924917
1.1924916
1.1924915
1.1924915
1.1924914
1.1924914
1.1924913
1.1924913
1.1924912
1.1924911
1.1924911
1.192491
1.192491
1.1924909
1.1924909
1.1924908
1.1924907
1.1924907
1.1924906
1.1924906
1.1924905
1.1924904
1.1924904
1.1924903
1.1924903
1.1924902
1.1924901
1.1924901
1.19249
1.19249
1.1924899
1.1924899
1.1924898
1.1924897
1.1924897
1.1924896
1.1924896
1.1924895
1.1924895
1.1924894
1.1924893
1.1924893
1.1924892
1.1924892
1.1924891
1.192489
1.192489
1.1924889
1.1924889
1.1924888
1.1924887
1.1924887
1.1924886
1.1924885
1.1924885
1.1924884
1.1924884
1.1924883
1.1924882
1.1924882
1.1924881
1.1924881
1.192488
1.1924879
1.1924879
1.1924878
1.1924877
1.1924877
1.1924876
1.1924876
1.1924875
1.1924874
1.1924874
1.1924873
1.1924872
1.1924872
1.1924871
1.192487
1.192487
1.1924869
1.1924868
1.1924868
1.1924867
1.1924867
1.1924866
1.1924865
1.1924865
1.1924864
1.1924863
1.1924863
1.1924862
1.1924861
1.1924861
1.192486
1.1924859
1.1924859
1.1924858
1.1924857
1.1924857
1.1924856
1.1924855
1.1924854
1.1924854
1.1924853
1.1924852
1.1924852
1.1924851
1.192485
1.192485
1.1924849
1.1924848
1.1924847
1.1924847
1.1924846
1.1924845
1.1924844
1.1924844
1.1924843
1.1924842
1.1924841
1.1924841
1.192484
1.1924839
1.1924838
1.1924838
1.1924837
1.1924836
1.1924836
1.1924835
1.1924834
1.1924833
1.1924832
1.1924832
1.1924831
1.192483
1.1924829
1.1924828
1.1924828
1.1924827
1.1924826
1.1924825
1.1924824
1.1924824
1.1924823
1.1924822
1.1924821
1.192482
1.1924819
1.1924819
1.1924818
1.1924817
1.1924816
1.1924815
1.1924814
1.1924814
1.1924813
1.1924812
1.1924811
1.192481
1.1924809
1.1924808
1.1924807
1.1924806
1.1924806
1.1924805
1.1924804
1.1924803
1.1924802
1.1924801
1.19248
1.1924799
1.1924798
1.1924797
1.1924796
1.1924795
1.1924794
1.1924793
1.1924792
1.1924791
1.192479
1.1924789
1.1924788
1.1924787
1.1924786
1.1924785
1.1924784
1.1924783
1.1924782
1.1924781
1.192478
1.1924779
1.1924778
1.1924777
1.1924776
1.1924775
1.1924774
1.1924772
1.1924771
1.192477
1.1924769
1.1924768
1.1924767
1.1924766
1.1924765
1.1924764
1.1924762
1.1924761
1.192476
1.1924759
1.1924758
1.1924756
1.1924755
1.1924754
1.1924753
1.1924751
1.192475
1.1924749
1.1924748
1.1924746
1.1924745
1.1924744
1.1924743
1.1924741
1.192474
1.1924739
1.1924738
1.1924736
1.1924735
1.1924734
1.1924732
1.1924731
1.1924729
1.1924728
1.1924727
1.1924725
1.1924724
1.1924722
1.1924721
1.1924719
1.1924718
1.1924717
1.1924715
1.1924714
1.1924712
1.1924711
1.1924709
1.1924708
1.1924707
1.1924705
1.1924704
1.1924702
1.1924701
1.1924699
1.1924698
1.1924696
1.1924694
1.1924693
1.1924691
1.1924689
1.1924688
1.1924686
1.1924684
1.1924683
1.1924681
1.1924679
1.1924677
1.1924676
1.1924674
1.1924672
1.192467
1.1924668
1.1924666
1.1924665
1.1924663
1.1924661
1.1924659
1.1924657
1.1924655
1.1924653
1.1924651
1.1924649
1.1924647
1.1924645
1.1924643
1.1924641
1.1924639
1.1924637
1.1924635
1.1924633
1.1924631
1.1924629
1.1924626
1.1924624
1.1924622
1.192462
1.1924618
1.1924615
1.1924613
1.1924611
1.1924608
1.1924606
1.1924604
1.1924601
1.1924599
1.1924596
1.1924594
1.1924591
1.1924589
1.1924586
1.1924583
1.1924581
1.1924578
1.1924575
1.1924573
1.192457
1.1924567
1.1924564
1.1924561
1.1924558
1.1924555
1.1924553
1.1924549
1.1924546
1.1924543
1.192454
1.1924537
1.1924534
1.192453
1.1924527
1.1924524
1.192452
1.1924517
1.1924513
1.192451
1.1924506
1.1924503
1.1924499
1.1924495
1.1924492
1.1924488