/*--------------------------------*- C++ -*----------------------------------*\
| =========                 |                                                 |
| \\      /  F ield         | OpenFOAM: The Open Source CFD Toolbox           |
|  \\    /   O peration     | Version:  4.x                                   |
|   \\  /    A nd           | Web:      www.OpenFOAM.org                      |
|    \\/     M anipulation  |                                                 |
\*---------------------------------------------------------------------------*/
FoamFile
{
    version     2.0;
    format      ascii;
    class       surfaceScalarField;
    location    "0.75";
    object      phi;
}
// * * * * * * * * * * * * * * * * * * * * * * * * * * * * * * * * * * * * * //

dimensions      [1 0 -1 0 0 0 0];

internalField   nonuniform List<scalar> 
17723
(
-8.830725609e-08
5.177784927e-08
2.336494705e-07
1.046973762e-07
-7.176694093e-08
5.225552634e-08
2.55614582e-07
-5.515404594e-08
5.366640277e-08
2.776288445e-07
-3.771604975e-08
5.515420428e-08
2.975054823e-07
-1.921975466e-08
5.643723851e-08
3.129746817e-07
4.75600105e-14
5.718410648e-08
3.2145193e-07
1.921985203e-08
5.718407273e-08
3.214520318e-07
3.771617317e-08
5.643717109e-08
3.129748335e-07
5.515417889e-08
5.51541437e-08
2.975056738e-07
7.176707443e-08
5.366624664e-08
2.776290349e-07
8.830729206e-08
5.225562885e-08
2.556149316e-07
5.177743688e-08
2.336495747e-07
1.046975178e-07
-8.733305538e-08
6.890401734e-08
2.234586408e-07
1.045036285e-07
-7.045101794e-08
6.922004481e-08
2.422379737e-07
-5.36662714e-08
7.045131485e-08
2.608648515e-07
-3.640745125e-08
7.176716112e-08
2.776288196e-07
-1.84440609e-08
7.286739779e-08
2.906369051e-07
1.263581417e-14
7.350355994e-08
2.977904652e-07
1.844407576e-08
7.350348117e-08
2.977904547e-07
3.640742016e-08
7.286719368e-08
2.906369003e-07
5.366613183e-08
7.17669092e-08
2.776289602e-07
7.045048089e-08
7.045092915e-08
2.608651345e-07
8.733302401e-08
6.921946297e-08
2.422382944e-07
6.890325061e-08
2.234583501e-07
1.045039945e-07
-8.638233518e-08
8.566520588e-08
2.123833696e-07
1.046101943e-07
-6.921971094e-08
8.638248229e-08
2.275184702e-07
-5.225528478e-08
8.733322975e-08
2.422379812e-07
-3.517692439e-08
8.830737351e-08
2.556144803e-07
-1.772758311e-08
8.90841531e-08
2.659097128e-07
3.41508376e-14
8.949913941e-08
2.715710652e-07
1.772758624e-08
8.949910769e-08
2.715709961e-07
3.517678082e-08
8.908407421e-08
2.659095512e-07
5.225489279e-08
8.830733584e-08
2.556144657e-07
6.921842964e-08
8.733339318e-08
2.42238231e-07
8.638187767e-08
8.638228295e-08
2.275180622e-07
8.56649639e-08
2.123823227e-07
1.046101991e-07
-8.56650224e-08
1.990326151e-07
1.040402502e-07
1.040402724e-07
-6.890369058e-08
2.123832633e-07
1.046103158e-07
-5.177753046e-08
2.234585109e-07
1.045038426e-07
-3.468782113e-08
2.336493471e-07
1.046976133e-07
-1.741191481e-08
2.411393739e-07
1.050437711e-07
-2.473925927e-14
2.452697346e-07
1.051465509e-07
1.741175937e-08
2.452695342e-07
1.051466942e-07
3.468744595e-08
2.411388521e-07
1.050441335e-07
5.177678495e-08
2.336488677e-07
1.046981679e-07
6.890262933e-08
2.234580646e-07
1.045045778e-07
8.566469038e-08
2.123821304e-07
1.046106147e-07
1.990319709e-07
1.040403346e-07
1.040403701e-07
-8.23254141e-08
4.809075487e-08
2.045210687e-07
9.584862562e-08
-6.76816146e-08
4.880404982e-08
2.252284547e-07
-5.229074423e-08
5.06702106e-08
2.460783393e-07
-3.578182338e-08
5.229086443e-08
2.644876031e-07
-1.821692844e-08
5.36342771e-08
2.786455292e-07
2.657942719e-14
5.442508866e-08
2.863399762e-07
1.821698813e-08
5.442504434e-08
2.863400352e-07
3.578190614e-08
5.363420219e-08
2.786456539e-07
5.229083056e-08
5.229089222e-08
2.644878259e-07
6.768173054e-08
5.06701688e-08
2.460785416e-07
8.232573358e-08
4.88042401e-08
2.252285974e-07
4.809094539e-08
2.045211023e-07
9.58489839e-08
-8.063455107e-08
6.349265482e-08
1.944002524e-07
9.429097724e-08
-6.601169806e-08
6.41834187e-08
2.12235736e-07
-5.067014757e-08
6.601183501e-08
2.301816794e-07
-3.451055258e-08
6.768180611e-08
2.460783685e-07
-1.751725137e-08
6.901681357e-08
2.582610765e-07
-1.419671585e-14
6.980241106e-08
2.648958685e-07
1.751722855e-08
6.980237269e-08
2.64895851e-07
3.45105364e-08
6.901674976e-08
2.582610554e-07
5.067010827e-08
6.76818608e-08
2.460784424e-07
6.601171284e-08
6.601192568e-08
2.301817636e-07
8.063499973e-08
6.418356151e-08
2.122356692e-07
6.349289729e-08
1.944000253e-07
9.429135407e-08
-7.906929477e-08
7.772183019e-08
1.832188531e-07
9.4004624e-08
-6.418334816e-08
7.906937144e-08
1.977465153e-07
-4.880397588e-08
8.06347043e-08
2.122357499e-07
-3.306162513e-08
8.232556244e-08
2.25228416e-07
-1.671307282e-08
8.342319424e-08
2.351547438e-07
2.72923616e-14
8.412555279e-08
2.405347585e-07
1.671308822e-08
8.412563881e-08
2.405346373e-07
3.306153828e-08
8.342340025e-08
2.351544633e-07
4.880386629e-08
8.23258286e-08
2.252281816e-07
6.41832577e-08
8.063516456e-08
2.122355892e-07
7.906941445e-08
7.906955432e-08
1.977458963e-07
7.772185475e-08
1.832182518e-07
9.400451915e-08
-7.772176882e-08
1.700478328e-07
9.221423919e-08
9.221420029e-08
-6.349262852e-08
1.832188275e-07
9.400457394e-08
-4.809069781e-08
1.944002257e-07
9.429103738e-08
-3.24854703e-08
2.045210185e-07
9.584865005e-08
-1.63627166e-08
2.120034662e-07
9.643628175e-08
5.459192913e-14
2.159913108e-07
9.704113326e-08
1.636277071e-08
2.159911824e-07
9.704122617e-08
3.248535774e-08
2.120031339e-07
9.643650173e-08
4.809059922e-08
2.045206068e-07
9.584881967e-08
6.349263599e-08
1.943998451e-07
9.429132169e-08
7.772169268e-08
1.832181711e-07
9.400444171e-08
1.700474228e-07
9.221405796e-08
9.221400569e-08
-7.824275979e-08
4.589527769e-08
1.794508935e-07
8.880115132e-08
-6.572074449e-08
4.643077333e-08
1.981074258e-07
-5.174886516e-08
4.92125397e-08
2.168626782e-07
-3.587745646e-08
5.174898112e-08
2.327448016e-07
-1.837353098e-08
5.364779122e-08
2.447841646e-07
-2.991036892e-15
5.462034976e-08
2.513520257e-07
1.837354219e-08
5.462036661e-08
2.513520336e-07
3.587752009e-08
5.364786708e-08
2.447842046e-07
5.174899314e-08
5.174921195e-08
2.327449195e-07
6.572095161e-08
4.921273022e-08
2.168627754e-07
7.824308537e-08
4.643109246e-08
1.98107494e-07
4.589556199e-08
1.794508903e-07
8.880148141e-08
-7.560924589e-08
5.965148456e-08
1.692139986e-07
8.703929661e-08
-6.296779212e-08
6.011564924e-08
1.859094105e-07
-4.921245845e-08
6.296788754e-08
2.026710319e-07
-3.396866123e-08
6.572090098e-08
2.168627206e-07
-1.735195934e-08
6.777015425e-08
2.275220132e-07
1.209323087e-14
6.885065132e-08
2.333135735e-07
1.73519853e-08
6.885069658e-08
2.333135569e-07
3.396871159e-08
6.777026261e-08
2.275219752e-07
4.921253948e-08
6.572112871e-08
2.168627288e-07
6.296794784e-08
6.296810426e-08
2.026710063e-07
7.560957089e-08
6.01158489e-08
1.859093293e-07
5.965167562e-08
1.692139176e-07
8.703962605e-08
-7.296307044e-08
7.157609319e-08
1.583149556e-07
8.594238944e-08
-6.011561741e-08
7.29630905e-08
1.72051599e-07
-4.643069712e-08
7.560932103e-08
1.859094361e-07
-3.183166283e-08
7.824285914e-08
1.981074226e-07
-1.619802612e-08
8.021802448e-08
2.070731868e-07
8.672388533e-14
8.119547933e-08
2.119917853e-07
1.619815012e-08
8.119553459e-08
2.119917391e-07
3.183168548e-08
8.02181447e-08
2.070730587e-07
4.643073673e-08
7.824298602e-08
1.981072716e-07
6.011565854e-08
7.560947383e-08
1.859092986e-07
7.296312637e-08
7.296302528e-08
1.720512625e-07
7.15759657e-08
1.583146993e-07
8.594239607e-08
-7.157611018e-08
1.445649154e-07
8.431762137e-08
8.43175256e-08
-5.96514958e-08
1.583149729e-07
8.594231291e-08
-4.58952379e-08
1.692140377e-07
8.703928977e-08
-3.13834228e-08
1.794508747e-07
8.880117749e-08
-1.591417846e-08
1.862380666e-07
9.051414025e-08
9.000998476e-14
1.900950578e-07
9.117745233e-08
1.591432068e-08
1.900950115e-07
9.11774839e-08
3.138343492e-08
1.862379448e-07
9.051421265e-08
4.589522727e-08
1.794506374e-07
8.880114946e-08
5.965145393e-08
1.692138725e-07
8.703921839e-08
7.157598066e-08
1.583146898e-07
8.594199801e-08
1.445647402e-07
8.431719752e-08
8.431746496e-08
-7.418738538e-08
4.177928821e-08
1.558346273e-07
8.488028532e-08
-6.212316809e-08
4.310983558e-08
1.726365766e-07
-4.874654606e-08
4.639664319e-08
1.890742368e-07
-3.359926001e-08
4.87466455e-08
2.024502173e-07
-1.718819955e-08
5.059502874e-08
2.127414668e-07
7.887461844e-15
5.173789415e-08
2.18257322e-07
1.718822988e-08
5.173789208e-08
2.18257316e-07
3.359931092e-08
5.059503072e-08
2.127414778e-07
4.874662687e-08
4.874676846e-08
2.024502709e-07
6.212328066e-08
4.639674938e-08
1.890742834e-07
7.418759287e-08
4.311001382e-08
1.726365888e-07
4.177945808e-08
1.55834624e-07
8.488054635e-08
-7.045966973e-08
5.436185995e-08
1.469155157e-07
8.017561657e-08
-5.926388408e-08
5.579069687e-08
1.620327756e-07
-4.639659627e-08
5.926395022e-08
1.769364662e-07
-3.198478849e-08
6.212329547e-08
1.890742945e-07
-1.636287272e-08
6.413923322e-08
1.983558965e-07
-4.459547707e-15
6.537215374e-08
2.033164545e-07
1.636288062e-08
6.537217446e-08
2.033164354e-07
3.198480058e-08
6.413927911e-08
1.983558636e-07
4.639662566e-08
6.2123432e-08
1.890742744e-07
5.926392967e-08
5.926407817e-08
1.769364154e-07
7.045979681e-08
5.579082413e-08
1.620326964e-07
5.436197985e-08
1.46915469e-07
8.01757844e-08
-6.722790811e-08
6.393118073e-08
1.362916645e-07
7.968190779e-08
-5.579068797e-08
6.722791796e-08
1.491771758e-07
-4.310980278e-08
7.045973271e-08
1.620327872e-07
-2.970317793e-08
7.418743915e-08
1.726366168e-07
-1.512790596e-08
7.603131196e-08
1.806057876e-07
5.238447636e-14
7.740415476e-08
1.848318145e-07
1.512799483e-08
7.74041924e-08
1.848317917e-07
2.970317983e-08
7.603141261e-08
1.806057331e-07
4.310984113e-08
7.418750061e-08
1.726365157e-07
5.579070527e-08
7.045982154e-08
1.62032681e-07
6.722789759e-08
6.722786537e-08
1.491770303e-07
6.393112258e-08
1.362915587e-07
7.968190898e-08
-6.393123069e-08
1.23751205e-07
7.433811091e-08
7.433802347e-08
-5.436188771e-08
1.362916765e-07
7.968188711e-08
-4.17792836e-08
1.469155276e-07
8.0175654e-08
-2.885589146e-08
1.558346202e-07
8.488027153e-08
-1.458041716e-08
1.621754553e-07
8.581841794e-08
7.461648418e-14
1.656151444e-07
8.730357685e-08
1.458055591e-08
1.656151295e-07
8.730359787e-08
2.885596778e-08
1.621754201e-07
8.581849709e-08
4.177932692e-08
1.558345182e-07
8.488023603e-08
5.436190281e-08
1.469154454e-07
8.017566302e-08
6.393120276e-08
1.362915671e-07
7.968170326e-08
1.237511661e-07
7.433783166e-08
7.433810212e-08
-7.41055821e-08
4.300820769e-08
1.355181209e-07
8.159890898e-08
-6.521745296e-08
4.449606774e-08
1.504506486e-07
-5.240369661e-08
4.842583985e-08
1.618739743e-07
-3.69727095e-08
5.240378163e-08
1.715882393e-07
-1.917604012e-08
5.55122286e-08
1.786914538e-07
3.380019944e-14
5.696400776e-08
1.822528835e-07
1.917609997e-08
5.696400431e-08
1.822528876e-07
3.697275794e-08
5.551223093e-08
1.786914657e-07
5.240375431e-08
5.240386305e-08
1.715882737e-07
6.521753977e-08
4.842592011e-08
1.618739979e-07
7.410575006e-08
4.44961546e-08
1.504505566e-07
4.300830653e-08
1.355180812e-07
8.15991069e-08
-6.936986958e-08
5.437142567e-08
1.277719514e-07
7.715025407e-08
-6.068050574e-08
5.619998255e-08
1.416395007e-07
-4.84258162e-08
6.06805419e-08
1.524270802e-07
-3.403930811e-08
6.521755423e-08
1.618740153e-07
-1.757973055e-08
6.865790697e-08
1.687506328e-07
2.431637199e-14
7.038601712e-08
1.723147069e-07
1.757977594e-08
7.038602996e-08
1.72314703e-07
3.403933967e-08
6.865794113e-08
1.687506184e-07
4.84258443e-08
6.521763678e-08
1.618740062e-07
6.068055501e-08
6.068061806e-08
1.524270417e-07
6.937003609e-08
5.620005198e-08
1.416393597e-07
5.43714682e-08
1.277719267e-07
7.715045792e-08
-6.481547743e-08
6.152492979e-08
1.198782691e-07
7.407539644e-08
-5.619997141e-08
6.481548789e-08
1.319461926e-07
-4.449605022e-08
6.936989487e-08
1.416395226e-07
-3.119824397e-08
7.410562406e-08
1.504507166e-07
-1.607828822e-08
7.749345612e-08
1.566502605e-07
3.039549487e-14
7.928441661e-08
1.598551052e-07
1.607834765e-08
7.928445046e-08
1.598550694e-07
3.119828086e-08
7.749354715e-08
1.566501805e-07
4.44961004e-08
7.410570192e-08
1.504506168e-07
5.620001909e-08
6.936994805e-08
1.416394352e-07
6.481553431e-08
6.481547148e-08
1.319461154e-07
6.152489157e-08
1.198782337e-07
7.407546935e-08
-6.152493099e-08
1.065301308e-07
7.013549057e-08
7.013546475e-08
-5.437140522e-08
1.198782496e-07
7.407540774e-08
-4.300817608e-08
1.277719425e-07
7.715025092e-08
-3.018499827e-08
1.355181151e-07
8.159894242e-08
-1.550671333e-08
1.401189285e-07
8.487169986e-08
4.346325398e-14
1.427252966e-07
8.666752296e-08
1.550679642e-08
1.427252825e-07
8.666754569e-08
3.018504952e-08
1.401189123e-07
8.487177393e-08
4.300821691e-08
1.355180763e-07
8.159896922e-08
5.437144288e-08
1.277719415e-07
7.715023858e-08
6.152494897e-08
1.198782404e-07
7.407532926e-08
1.0653013e-07
7.013536419e-08
7.01355402e-08
-7.952574374e-08
4.141445972e-08
1.120735996e-07
9.038555968e-08
-6.562194403e-08
4.390631388e-08
1.230515118e-07
-5.076641117e-08
4.820144779e-08
1.320366575e-07
-3.45926354e-08
5.076644409e-08
1.392407357e-07
-1.757862883e-08
5.22319601e-08
1.447600567e-07
3.607229396e-14
5.304759149e-08
1.478603558e-07
1.757869525e-08
5.304761341e-08
1.478603597e-07
3.459269286e-08
5.22320039e-08
1.447600708e-07
5.076647766e-08
5.076653522e-08
1.392407567e-07
6.562204176e-08
4.820152677e-08
1.320366752e-07
7.952580717e-08
4.390635229e-08
1.23051508e-07
4.1414477e-08
1.120735973e-07
9.038566425e-08
-7.459441622e-08
5.451706364e-08
1.056568815e-07
8.360690954e-08
-6.214408281e-08
5.72759343e-08
1.158195479e-07
-4.82014449e-08
6.214408576e-08
1.245418036e-07
-3.321961106e-08
6.56219608e-08
1.320366733e-07
-1.700045858e-08
6.759672218e-08
1.371667202e-07
4.164947876e-14
6.865524099e-08
1.397065707e-07
1.700053877e-08
6.865526959e-08
1.397065758e-07
3.321965986e-08
6.759678295e-08
1.37166731e-07
4.820149686e-08
6.562203505e-08
1.320366811e-07
6.214415416e-08
6.214413538e-08
1.245418031e-07
7.459445102e-08
5.727591498e-08
1.158195312e-07
5.451703272e-08
1.056568759e-07
8.360696128e-08
-6.961392503e-08
6.298647318e-08
9.829642993e-08
8.272635888e-08
-5.72759529e-08
6.961390267e-08
1.072702728e-07
-4.390632502e-08
7.459443317e-08
1.158195556e-07
-3.041093482e-08
7.952576661e-08
1.2305153e-07
-1.547109727e-08
8.141135998e-08
1.278957964e-07
6.054550445e-14
8.272920202e-08
1.303100077e-07
1.547120717e-08
8.272920719e-08
1.303100058e-07
3.041099878e-08
8.141137984e-08
1.278957955e-07
4.390636947e-08
7.952576618e-08
1.23051523e-07
5.727599047e-08
7.459441827e-08
1.158195471e-07
6.961395733e-08
6.961382336e-08
1.072702531e-07
6.298640993e-08
9.829642945e-08
8.27264036e-08
-6.298649467e-08
8.926123276e-08
7.162095498e-08
7.162092299e-08
-5.451705599e-08
9.829642193e-08
8.272632998e-08
-4.141445658e-08
1.056568795e-07
8.360690847e-08
-2.882974335e-08
1.120736014e-07
9.038557326e-08
-1.445115491e-08
1.158648189e-07
9.128688803e-08
5.230534032e-14
1.179394983e-07
9.306380639e-08
1.445124868e-08
1.179394948e-07
9.306380676e-08
2.882979905e-08
1.158648227e-07
9.128691592e-08
4.141449675e-08
1.120735993e-07
9.038555932e-08
5.451709938e-08
1.05656892e-07
8.360689899e-08
6.298653801e-08
9.829641806e-08
8.272623592e-08
8.926123514e-08
7.162086458e-08
7.162100441e-08
7.293962071e-08
-3.849523131e-08
1.363230283e-07
-8.395236563e-08
6.062383049e-08
-4.209543445e-08
1.497871033e-07
4.59465617e-08
-4.671440037e-08
1.620945688e-07
3.014611654e-08
-4.594654227e-08
1.708416923e-07
1.458821587e-08
-4.426450011e-08
1.765204323e-07
5.093474497e-14
-4.327305205e-08
1.78870498e-07
-1.458812858e-08
-4.327305916e-08
1.788705146e-07
-3.01460492e-08
-4.426451725e-08
1.765204675e-07
-4.594649618e-08
-4.594655249e-08
1.708417313e-07
-6.062377203e-08
-4.671443135e-08
1.620946083e-07
-7.293955934e-08
-4.209546506e-08
1.497871373e-07
-3.849524614e-08
1.363230518e-07
-8.395228161e-08
7.288423259e-08
-5.046810495e-08
1.275096394e-07
-8.276412853e-08
6.100969194e-08
-5.500179708e-08
1.406004476e-07
4.671440976e-08
-6.100970343e-08
1.531323995e-07
3.133382485e-08
-6.062383649e-08
1.620945791e-07
1.574014938e-08
-5.976382185e-08
1.682597392e-07
4.301176844e-14
-5.91304629e-08
1.713041018e-07
-1.574006881e-08
-5.913047082e-08
1.713041142e-07
-3.133376413e-08
-5.976384438e-08
1.682597705e-07
-4.671436002e-08
-6.062386714e-08
1.620946124e-07
-6.1009651e-08
-6.100974213e-08
1.53132427e-07
-7.288419109e-08
-5.50018453e-08
1.406004668e-07
-5.046814686e-08
1.275096594e-07
-8.276407767e-08
6.633964477e-08
-6.307870405e-08
1.176332212e-07
-7.306584513e-08
5.500177226e-08
-6.633968295e-08
1.299460479e-07
4.209543423e-08
-7.288424524e-08
1.406004569e-07
2.767565607e-08
-7.293963533e-08
1.497871199e-07
1.382086692e-08
-7.390914867e-08
1.558959115e-07
3.693479317e-14
-7.400268029e-08
1.590030527e-07
-1.382079545e-08
-7.400268851e-08
1.590030605e-07
-2.767560127e-08
-7.390916834e-08
1.558959339e-07
-4.209538806e-08
-7.29396818e-08
1.497871382e-07
-5.500173439e-08
-7.288429993e-08
1.406004656e-07
-6.633960564e-08
-6.633976216e-08
1.299460471e-07
-6.307876882e-08
1.176332413e-07
-7.306579289e-08
6.307865862e-08
1.052589065e-07
-7.107750622e-08
-7.107752024e-08
5.046808081e-08
1.17633217e-07
-7.306587945e-08
3.84952232e-08
1.275096477e-07
-8.276415134e-08
2.525854666e-08
1.363230356e-07
-8.395240154e-08
1.273446899e-08
1.419315851e-07
-8.745185156e-08
3.167607758e-14
1.448798896e-07
-8.820863667e-08
-1.273441115e-08
1.448798951e-07
-8.820863543e-08
-2.525850942e-08
1.419316056e-07
-8.745184198e-08
-3.84951929e-08
1.363230525e-07
-8.39524391e-08
-5.046805035e-08
1.275096613e-07
-8.276419775e-08
-6.307861505e-08
1.176332086e-07
-7.30659738e-08
1.052589064e-07
-7.10775653e-08
-7.10774723e-08
1.122712827e-07
-6.646531813e-08
1.638600013e-07
-1.187237964e-07
1.004396803e-07
-6.882644503e-08
1.821653971e-07
8.331775837e-08
-7.417812393e-08
2.021052457e-07
5.924385799e-08
-8.331773843e-08
2.189895522e-07
3.079180835e-08
-8.904560329e-08
2.296525007e-07
3.709102133e-14
-9.099372881e-08
2.347922173e-07
-3.079174594e-08
-9.099374504e-08
2.347922363e-07
-5.924381409e-08
-8.904564025e-08
2.296525428e-07
-8.331772096e-08
-8.331778052e-08
2.189895988e-07
-1.004396505e-07
-7.417816396e-08
2.021052826e-07
-1.122712236e-07
-6.882646815e-08
1.821654197e-07
-6.646534917e-08
1.6386002e-07
-1.187236725e-07
1.038066514e-07
-8.17755455e-08
1.508365806e-07
-1.118233723e-07
9.067744338e-08
-8.367911731e-08
1.685823408e-07
7.41781385e-08
-9.067745236e-08
1.861310552e-07
5.128944089e-08
-1.004396875e-07
2.021052559e-07
2.594018549e-08
-1.073327911e-07
2.118961969e-07
2.30047035e-14
-1.101765436e-07
2.164270832e-07
-2.594013762e-08
-1.101765584e-07
2.164270981e-07
-5.128939718e-08
-1.073328203e-07
2.118962316e-07
-7.417810608e-08
-1.004397218e-07
2.021052878e-07
-9.067741434e-08
-9.06774719e-08
1.861310641e-07
-1.038065949e-07
-8.36791448e-08
1.685823389e-07
-8.177559202e-08
1.508365857e-07
-1.118232816e-07
9.48870624e-08
-9.383031384e-08
1.332735573e-07
-9.847262825e-08
8.36790849e-08
-9.48871169e-08
1.523620449e-07
6.882643673e-08
-1.038066797e-07
1.685823493e-07
4.827976542e-08
-1.122713087e-07
1.821654112e-07
2.484956152e-08
-1.192473028e-07
1.912406064e-07
2.5728442e-14
-1.221431919e-07
1.958192234e-07
-2.484950746e-08
-1.221431907e-07
1.95819234e-07
-4.827970932e-08
-1.192472959e-07
1.912406315e-07
-6.882638301e-08
-1.122713124e-07
1.821654256e-07
-8.367903406e-08
-1.038066865e-07
1.685823461e-07
-9.488699963e-08
-9.488715661e-08
1.523620317e-07
-9.383037887e-08
1.3327357e-07
-9.847253789e-08
9.383023752e-08
1.117637313e-07
-9.708265489e-08
-9.708270527e-08
8.177549371e-08
1.33273561e-07
-9.847269478e-08
6.646527411e-08
1.508365944e-07
-1.118234006e-07
4.538081349e-08
1.638600137e-07
-1.187238353e-07
2.303078474e-08
1.711832946e-07
-1.261489954e-07
2.747393867e-14
1.746773128e-07
-1.289098545e-07
-2.30307339e-08
1.746773235e-07
-1.289098389e-07
-4.538077364e-08
1.711833219e-07
-1.261489554e-07
-6.646523923e-08
1.638600355e-07
-1.187238163e-07
-8.177545032e-08
1.508365981e-07
-1.118233943e-07
-9.383017124e-08
1.332735457e-07
-9.847275042e-08
1.117637261e-07
-9.708275249e-08
-9.708258966e-08
1.444001259e-07
-7.644457068e-08
2.001021386e-07
-1.551726526e-07
1.177695317e-07
-8.596964468e-08
2.382710024e-07
8.435793339e-08
-8.842223334e-08
2.648080016e-07
5.275386424e-08
-8.43579107e-08
2.821977418e-07
2.509448023e-08
-8.333015419e-08
2.913639206e-07
3.456071623e-14
-8.246539489e-08
2.942914347e-07
-2.50944188e-08
-8.246540933e-08
2.94291453e-07
-5.275382027e-08
-8.333018497e-08
2.913639661e-07
-8.435789626e-08
-8.435793781e-08
2.821977808e-07
-1.177694861e-07
-8.842225653e-08
2.648080257e-07
-1.444000487e-07
-8.596968894e-08
2.382710091e-07
-7.644461641e-08
2.001021474e-07
-1.551725285e-07
1.437688178e-07
-1.003742778e-07
1.815242569e-07
-1.505267914e-07
1.189751562e-07
-1.143637077e-07
2.217700705e-07
8.842223149e-08
-1.189751742e-07
2.472369331e-07
5.913111889e-08
-1.177695318e-07
2.648080035e-07
3.000752359e-08
-1.191893697e-07
2.768790038e-07
3.124483229e-14
-1.190960795e-07
2.830652516e-07
-3.000746435e-08
-1.190960823e-07
2.830652715e-07
-5.913106806e-08
-1.191893733e-07
2.768790426e-07
-8.8422183e-08
-1.177695402e-07
2.648080241e-07
-1.189751e-07
-1.189751857e-07
2.472369228e-07
-1.437687375e-07
-1.143637598e-07
2.217700563e-07
-1.003743515e-07
1.815242609e-07
-1.505266811e-07
1.363097166e-07
-1.257850481e-07
1.550235651e-07
-1.326489465e-07
1.143636577e-07
-1.363097664e-07
1.962541662e-07
8.596961369e-08
-1.437688468e-07
2.217700774e-07
5.649463036e-08
-1.444001451e-07
2.382710029e-07
2.785081473e-08
-1.476305112e-07
2.48325541e-07
2.114478812e-14
-1.486384831e-07
2.532124101e-07
-2.785076852e-08
-1.486384711e-07
2.532124261e-07
-5.649457618e-08
-1.476304831e-07
2.483255752e-07
-8.596955887e-08
-1.444001306e-07
2.382710249e-07
-1.14363601e-07
-1.437688532e-07
2.217700736e-07
-1.36309652e-07
-1.36309818e-07
1.962541524e-07
-1.257851308e-07
1.550235806e-07
-1.326488669e-07
1.257849848e-07
1.169527906e-07
-1.283795102e-07
-1.283795768e-07
1.003742264e-07
1.55023566e-07
-1.326490017e-07
7.644454131e-08
1.815242697e-07
-1.505268253e-07
5.097494081e-08
2.001021513e-07
-1.55172685e-07
2.568912031e-08
2.109935901e-07
-1.621549932e-07
2.088240511e-14
2.163417495e-07
-1.646138164e-07
-2.568907988e-08
2.163417665e-07
-1.646137955e-07
-5.09749046e-08
2.109936292e-07
-1.621549503e-07
-7.644450782e-08
2.00102187e-07
-1.551726678e-07
-1.003741774e-07
1.81524276e-07
-1.505268409e-07
-1.257849187e-07
1.550235505e-07
-1.326490529e-07
1.169527848e-07
-1.28379632e-07
-1.283794428e-07
2.419015836e-07
-1.280618456e-07
2.617001601e-07
-2.595217855e-07
2.104684856e-07
-1.232876111e-07
3.125935665e-07
1.685188378e-07
-1.454642003e-07
3.586088109e-07
1.157506735e-07
-1.685188455e-07
3.877340765e-07
5.866983758e-08
-1.75665519e-07
4.00731572e-07
2.733526435e-14
-1.76841608e-07
4.064980473e-07
-5.866979599e-08
-1.768416218e-07
4.06498074e-07
-1.157506528e-07
-1.756655489e-07
4.007316254e-07
-1.685188215e-07
-1.685188757e-07
3.877341139e-07
-2.104684504e-07
-1.454642369e-07
3.586088142e-07
-2.419015163e-07
-1.232876454e-07
3.125935634e-07
-1.280618493e-07
2.617001628e-07
-2.595217012e-07
2.262655164e-07
-1.636544791e-07
2.34305777e-07
-2.434544201e-07
1.910962319e-07
-1.626642873e-07
2.963160196e-07
1.454641759e-07
-1.910962654e-07
3.38501058e-07
9.361301046e-08
-2.104684979e-07
3.586088271e-07
4.484341996e-08
-2.194367296e-07
3.694197966e-07
8.008043332e-15
-2.235656667e-07
3.74632709e-07
-4.484339894e-08
-2.235656733e-07
3.746327311e-07
-9.361298052e-08
-2.194367433e-07
3.694198342e-07
-1.454641384e-07
-2.104685239e-07
3.586088413e-07
-1.910962038e-07
-1.910963024e-07
3.385010595e-07
-2.262654842e-07
-1.626643285e-07
2.963160205e-07
-1.636544876e-07
2.343058023e-07
-2.434543895e-07
1.949808121e-07
-1.902614955e-07
1.911969024e-07
-2.045471367e-07
1.62664254e-07
-1.949808532e-07
2.608872931e-07
1.232875894e-07
-2.262655515e-07
2.963160327e-07
8.039809802e-08
-2.41901595e-07
3.125935829e-07
3.971545791e-08
-2.507238842e-07
3.20295317e-07
2.035803174e-14
-2.547359134e-07
3.240980899e-07
-3.971541832e-08
-2.547359085e-07
3.240981146e-07
-8.039805656e-08
-2.507238803e-07
3.202953715e-07
-1.232875535e-07
-2.419016184e-07
3.125936285e-07
-1.626642268e-07
-2.262655913e-07
2.963160464e-07
-1.949807931e-07
-1.949808929e-07
2.608872959e-07
-1.902615056e-07
1.911969319e-07
-2.045471e-07
1.902614561e-07
1.203698067e-07
-1.919699502e-07
-1.919700141e-07
1.636544343e-07
1.911969188e-07
-2.045471768e-07
1.28061798e-07
2.343058022e-07
-2.434544486e-07
8.408397026e-08
2.617001748e-07
-2.595218046e-07
4.13217644e-08
2.744359399e-07
-2.714040414e-07
3.852437361e-14
2.790913987e-07
-2.761638397e-07
-4.132170012e-08
2.790914321e-07
-2.761638315e-07
-8.408392891e-08
2.744360172e-07
-2.714040413e-07
-1.280617807e-07
2.617002512e-07
-2.595218352e-07
-1.636544255e-07
2.343058381e-07
-2.434544893e-07
-1.902614439e-07
1.911969216e-07
-2.045472138e-07
1.203698167e-07
-1.919700383e-07
-1.919699208e-07
3.634674693e-07
-9.412502995e-08
3.60496449e-07
2.312507217e-07
-1.100092568e-07
5.087781463e-07
1.420715318e-07
-1.027379519e-07
5.086121635e-07
9.253614895e-08
-9.015169588e-08
4.956797615e-07
4.664987275e-08
-9.253614407e-08
5.069005358e-07
1.412464859e-14
-9.426105208e-08
5.127346054e-07
-4.664984934e-08
-9.426106246e-08
5.127346508e-07
-9.253613896e-08
-9.253617137e-08
5.069006356e-07
-1.42071513e-07
-9.015172479e-08
4.956798347e-07
-2.312506874e-07
-1.027379715e-07
5.08612198e-07
-3.634674235e-07
-1.100092557e-07
5.087781237e-07
-9.412502142e-08
3.604964248e-07
3.48649728e-07
-1.447212071e-07
3.517748563e-07
-3.881282714e-07
2.240363133e-07
-1.702380347e-07
4.974357299e-07
1.395095603e-07
-1.542084816e-07
4.946060649e-07
9.015167996e-08
-1.395095819e-07
4.864498173e-07
4.473883388e-08
-1.420715264e-07
4.956797847e-07
1.486466063e-14
-1.456115373e-07
5.025873458e-07
-4.473880778e-08
-1.456115446e-07
5.025873811e-07
-9.015166389e-08
-1.420715488e-07
4.956798603e-07
-1.395095343e-07
-1.39509614e-07
4.86449866e-07
-2.240362592e-07
-1.542085085e-07
4.946060601e-07
-3.486496685e-07
-1.702380309e-07
4.974357126e-07
-1.447212054e-07
3.517748567e-07
-3.881282045e-07
3.339266281e-07
-2.016300173e-07
3.307810132e-07
-3.734930812e-07
2.256403985e-07
-2.333319952e-07
4.676962044e-07
1.542084338e-07
-2.256404451e-07
4.813649668e-07
1.027379182e-07
-2.240363412e-07
4.946060905e-07
5.272470766e-08
-2.312507282e-07
5.086122036e-07
4.148936638e-14
-2.343002187e-07
5.160460602e-07
-5.272463249e-08
-2.343002144e-07
5.160460888e-07
-1.027378677e-07
-2.312507298e-07
5.086122662e-07
-1.542084079e-07
-2.24036367e-07
4.946061334e-07
-2.256403715e-07
-2.256404808e-07
4.81364981e-07
-3.339266014e-07
-2.333320072e-07
4.676962073e-07
-2.016300109e-07
3.307810383e-07
-3.734930415e-07
3.123744329e-07
-2.740817977e-07
2.932646218e-07
-3.419903725e-07
2.333319089e-07
-3.123744888e-07
4.18972329e-07
1.702379371e-07
-3.339266656e-07
4.676962058e-07
1.100091827e-07
-3.486497609e-07
4.974357336e-07
5.374309355e-08
-3.634674935e-07
5.087781502e-07
4.670132042e-14
-3.68958832e-07
5.124997452e-07
-5.374300924e-08
-3.689588252e-07
5.124997869e-07
-1.100091254e-07
-3.634674915e-07
5.087782488e-07
-1.702379084e-07
-3.486497949e-07
4.974358263e-07
-2.333318876e-07
-3.339267267e-07
4.676962571e-07
-3.123744142e-07
-3.123745358e-07
4.189723457e-07
-2.740818021e-07
2.932646475e-07
-3.419903304e-07
2.740817085e-07
1.983076786e-07
-3.130506621e-07
-3.130507135e-07
2.016299066e-07
2.932646427e-07
-3.419904127e-07
1.447210928e-07
3.307810251e-07
-3.734931023e-07
9.412492108e-08
3.517748609e-07
-3.881282973e-07
4.640888895e-08
3.604964544e-07
-4.018119871e-07
-9.155959331e-15
3.640201771e-07
-4.074787165e-07
-4.640890741e-08
3.640202222e-07
-4.074787208e-07
-9.412494132e-08
3.604965651e-07
-4.018120106e-07
-1.447211164e-07
3.517749783e-07
-3.881283511e-07
-2.016299185e-07
3.307811001e-07
-3.734931615e-07
-2.740817105e-07
2.932646598e-07
-3.419904536e-07
1.983076902e-07
-3.130507327e-07
-3.130506549e-07
6.14244091e-07
-1.021871021e-07
6.105385696e-07
4.424782123e-07
-1.273233168e-07
7.484691975e-07
2.946877865e-07
-1.648796914e-07
7.484409591e-07
1.704694283e-07
-1.730759614e-07
7.132450207e-07
7.934121901e-08
-1.704694013e-07
6.891569908e-07
4.562655543e-14
-1.686197665e-07
6.823499264e-07
-7.934114742e-08
-1.686197758e-07
6.82349986e-07
-1.704694069e-07
-1.70469427e-07
6.891571183e-07
-2.946877667e-07
-1.730759913e-07
7.132450792e-07
-4.424781544e-07
-1.648797239e-07
7.484409417e-07
-6.142440296e-07
-1.273233464e-07
7.484691273e-07
-1.021871448e-07
6.105385159e-07
6.006276816e-07
-1.686842572e-07
-7.959108832e-07
6.135551829e-07
4.361045828e-07
-2.203319012e-07
7.549673722e-07
2.954875705e-07
-2.901764957e-07
7.605198602e-07
1.730759542e-07
-2.954876124e-07
7.312730572e-07
7.972906619e-08
-2.946877927e-07
7.132450605e-07
5.025308466e-14
-2.945903258e-07
7.082869298e-07
-7.972898426e-08
-2.945903231e-07
7.082869738e-07
-1.730759154e-07
-2.946877846e-07
7.132451527e-07
-2.954875237e-07
-2.954876194e-07
7.312730985e-07
-4.3610452e-07
-2.901765189e-07
7.605198413e-07
-6.00627617e-07
-2.203319047e-07
7.549673345e-07
-1.68684289e-07
-7.959108106e-07
6.13555164e-07
5.837746307e-07
-2.696517976e-07
-7.698087458e-07
6.177826453e-07
4.362197539e-07
-3.609159855e-07
7.558351467e-07
2.901764155e-07
-4.362197967e-07
7.734515975e-07
1.64879626e-07
-4.361046172e-07
7.60519876e-07
7.284125377e-08
-4.424782177e-07
7.484409943e-07
3.533749679e-14
-4.493930254e-07
7.436899762e-07
-7.284119552e-08
-4.493930181e-07
7.436900182e-07
-1.648795885e-07
-4.42478218e-07
7.484410991e-07
-2.901763963e-07
-4.361046528e-07
7.605199696e-07
-4.362197335e-07
-4.362198555e-07
7.734516367e-07
-5.837745937e-07
-3.609160085e-07
7.558351525e-07
-2.696518149e-07
-7.69808689e-07
6.177826468e-07
5.177302066e-07
-4.029529784e-07
-7.036936553e-07
6.125292504e-07
3.609158847e-07
-5.177302456e-07
7.326008849e-07
2.203317698e-07
-5.837746332e-07
7.558351226e-07
1.273231973e-07
-6.006276846e-07
7.549673495e-07
5.93980155e-08
-6.142440746e-07
7.48469175e-07
-1.605785519e-14
-6.223210961e-07
7.448258381e-07
-5.939804612e-08
-6.223211058e-07
7.448258955e-07
-1.273232263e-07