/*--------------------------------*- C++ -*----------------------------------*\
  =========                 |
  \\      /  F ield         | OpenFOAM: The Open Source CFD Toolbox
   \\    /   O peration     | Website:  https://openfoam.org
    \\  /    A nd           | Version:  7
     \\/     M anipulation  |
\*---------------------------------------------------------------------------*/
FoamFile
{
    version     2.0;
    format      ascii;
    class       volScalarField;
    location    "0.00234";
    object      p;
}
// * * * * * * * * * * * * * * * * * * * * * * * * * * * * * * * * * * * * * //

dimensions      [1 -1 -2 0 0 0 0];

internalField   nonuniform List<scalar> 
5000
(
109813.14
109813.14
109813.14
109813.14
109813.15
109813.15
109813.15
109813.15
109813.15
109813.15
109813.15
109813.15
109813.15
109813.15
109813.15
109813.15
109813.15
109813.15
109813.15
109813.15
109813.15
109813.15
109813.15
109813.15
109813.15
109813.15
109813.15
109813.15
109813.15
109813.15
109813.15
109813.15
109813.15
109813.15
109813.15
109813.15
109813.16
109813.16
109813.16
109813.16
109813.16
109813.16
109813.16
109813.16
109813.16
109813.16
109813.16
109813.16
109813.16
109813.16
109813.16
109813.16
109813.16
109813.16
109813.16
109813.16
109813.16
109813.16
109813.16
109813.16
109813.16
109813.16
109813.16
109813.16
109813.16
109813.16
109813.16
109813.16
109813.16
109813.17
109813.17
109813.17
109813.17
109813.17
109813.17
109813.17
109813.17
109813.17
109813.17
109813.17
109813.17
109813.17
109813.17
109813.17
109813.17
109813.17
109813.17
109813.17
109813.17
109813.17
109813.17
109813.17
109813.17
109813.17
109813.17
109813.17
109813.17
109813.17
109813.17
109813.17
109813.17
109813.17
109813.17
109813.17
109813.18
109813.18
109813.18
109813.18
109813.18
109813.18
109813.18
109813.18
109813.18
109813.18
109813.18
109813.18
109813.18
109813.18
109813.18
109813.18
109813.18
109813.18
109813.18
109813.18
109813.18
109813.18
109813.18
109813.18
109813.18
109813.18
109813.18
109813.18
109813.18
109813.18
109813.18
109813.18
109813.18
109813.18
109813.18
109813.18
109813.18
109813.18
109813.19
109813.19
109813.19
109813.19
109813.19
109813.19
109813.19
109813.19
109813.19
109813.19
109813.19
109813.19
109813.19
109813.19
109813.19
109813.19
109813.19
109813.19
109813.19
109813.19
109813.19
109813.19
109813.19
109813.19
109813.19
109813.19
109813.19
109813.19
109813.19
109813.19
109813.19
109813.19
109813.19
109813.19
109813.19
109813.19
109813.19
109813.19
109813.19
109813.19
109813.2
109813.2
109813.2
109813.2
109813.2
109813.2
109813.2
109813.2
109813.2
109813.2
109813.2
109813.2
109813.2
109813.2
109813.2
109813.2
109813.2
109813.2
109813.2
109813.2
109813.2
109813.2
109813.2
109813.2
109813.2
109813.2
109813.2
109813.2
109813.2
109813.2
109813.2
109813.2
109813.2
109813.2
109813.2
109813.2
109813.2
109813.2
109813.2
109813.2
109813.2
109813.2
109813.21
109813.21
109813.21
109813.21
109813.21
109813.21
109813.21
109813.21
109813.21
109813.21
109813.21
109813.21
109813.21
109813.21
109813.21
109813.21
109813.21
109813.21
109813.21
109813.21
109813.21
109813.21
109813.21
109813.21
109813.21
109813.21
109813.21
109813.21
109813.21
109813.21
109813.21
109813.21
109813.21
109813.21
109813.21
109813.21
109813.21
109813.21
109813.21
109813.21
109813.21
109813.21
109813.21
109813.21
109813.22
109813.22
109813.22
109813.22
109813.22
109813.22
109813.22
109813.22
109813.22
109813.22
109813.22
109813.22
109813.22
109813.22
109813.22
109813.22
109813.22
109813.22
109813.22
109813.22
109813.22
109813.22
109813.22
109813.22
109813.22
109813.22
109813.22
109813.22
109813.22
109813.22
109813.22
109813.22
109813.22
109813.22
109813.22
109813.22
109813.22
109813.22
109813.22
109813.22
109813.22
109813.22
109813.22
109813.23
109813.23
109813.23
109813.23
109813.23
109813.23
109813.23
109813.23
109813.23
109813.23
109813.23
109813.23
109813.23
109813.23
109813.23
109813.23
109813.23
109813.23
109813.23
109813.23
109813.23
109813.23
109813.23
109813.23
109813.23
109813.23
109813.23
109813.23
109813.23
109813.23
109813.23
109813.23
109813.23
109813.23
109813.23
109813.23
109813.23
109813.23
109813.23
109813.23
109813.23
109813.23
109813.23
109813.24
109813.24
109813.24
109813.24
109813.24
109813.24
109813.24
109813.24
109813.24
109813.24
109813.24
109813.24
109813.24
109813.24
109813.24
109813.24
109813.24
109813.24
109813.24
109813.24
109813.24
109813.24
109813.24
109813.24
109813.24
109813.24
109813.24
109813.24
109813.24
109813.24
109813.24
109813.24
109813.24
109813.24
109813.24
109813.24
109813.24
109813.24
109813.24
109813.24
109813.24
109813.24
109813.24
109813.25
109813.25
109813.25
109813.25
109813.25
109813.25
109813.25
109813.25
109813.25
109813.25
109813.25
109813.25
109813.25
109813.25
109813.25
109813.25
109813.25
109813.25
109813.25
109813.25
109813.25
109813.25
109813.25
109813.25
109813.25
109813.25
109813.25
109813.25
109813.25
109813.25
109813.25
109813.25
109813.25
109813.25
109813.25
109813.25
109813.25
109813.25
109813.25
109813.25
109813.25
109813.25
109813.25
109813.25
109813.25
109813.25
109813.25
109813.26
109813.26
109813.26
109813.26
109813.26
109813.26
109813.26
109813.26
109813.26
109813.26
109813.26
109813.26
109813.26
109813.26
109813.26
109813.26
109813.26
109813.26
109813.26
109813.26
109813.26
109813.26
109813.26
109813.26
109813.26
109813.26
109813.26
109813.26
109813.26
109813.26
109813.26
109813.26
109813.26
109813.26
109813.26
109813.26
109813.26
109813.26
109813.26
109813.26
109813.26
109813.26
109813.26
109813.26
109813.26
109813.26
109813.26
109813.26
109813.26
109813.27
109813.27
109813.27
109813.27
109813.27
109813.27
109813.27
109813.27
109813.27
109813.27
109813.27
109813.27
109813.27
109813.27
109813.27
109813.27
109813.27
109813.27
109813.27
109813.27
109813.27
109813.27
109813.27
109813.27
109813.27
109813.27
109813.27
109813.27
109813.27
109813.27
109813.27
109813.27
109813.27
109813.27
109813.27
109813.27
109813.27
109813.27
109813.27
109813.27
109813.27
109813.27
109813.27
109813.27
109813.27
109813.27
109813.27
109813.27
109813.27
109813.27
109813.27
109813.28
109813.28
109813.28
109813.28
109813.28
109813.28
109813.28
109813.28
109813.28
109813.28
109813.28
109813.28
109813.28
109813.28
109813.28
109813.28
109813.28
109813.28
109813.28
109813.28
109813.28
109813.28
109813.28
109813.28
109813.28
109813.28
109813.28
109813.28
109813.28
109813.28
109813.28
109813.28
109813.28
109813.28
109813.28
109813.28
109813.28
109813.28
109813.28
109813.28
109813.28
109813.28
109813.28
109813.28
109813.28
109813.28
109813.28
109813.28
109813.28
109813.28
109813.29
109813.29
109813.29
109813.29
109813.29
109813.29
109813.29
109813.29
109813.29
109813.29
109813.29
109813.29
109813.29
109813.29
109813.29
109813.29
109813.29
109813.29
109813.29
109813.29
109813.29
109813.29
109813.29
109813.29
109813.29
109813.29
109813.29
109813.29
109813.29
109813.29
109813.29
109813.29
109813.29
109813.29
109813.29
109813.29
109813.29
109813.29
109813.29
109813.29
109813.29
109813.29
109813.29
109813.29
109813.29
109813.29
109813.29
109813.29
109813.29
109813.29
109813.3
109813.3
109813.3
109813.3
109813.3
109813.3
109813.3
109813.3
109813.3
109813.3
109813.3
109813.3
109813.3
109813.3
109813.3
109813.3
109813.3
109813.3
109813.3
109813.3
109813.3
109813.3
109813.3
109813.3
109813.3
109813.3
109813.3
109813.3
109813.3
109813.3
109813.3
109813.3
109813.3
109813.3
109813.3
109813.3
109813.3
109813.3
109813.3
109813.3
109813.3
109813.3
109813.3
109813.3
109813.3
109813.3
109813.3
109813.3
109813.3
109813.3
109813.3
109813.3
109813.3
109813.3
109813.3
109813.3
109813.31
109813.31
109813.31
109813.31
109813.31
109813.31
109813.31
109813.31
109813.31
109813.31
109813.31
109813.31
109813.31
109813.31
109813.31
109813.31
109813.31
109813.31
109813.31
109813.31
109813.31
109813.31
109813.31
109813.31
109813.31
109813.31
109813.31
109813.31
109813.31
109813.31
109813.31
109813.31
109813.31
109813.31
109813.31
109813.31
109813.31
109813.31
109813.31
109813.31
109813.31
109813.31
109813.31
109813.31
109813.31
109813.31
109813.31
109813.31
109813.31
109813.31
109813.31
109813.31
109813.31
109813.31
109813.31
109813.31
109813.31
109813.31
109813.31
109813.31
109813.31
109813.31
109813.31
109813.31
109813.31
109813.31
109813.31
109813.31
109813.31
109813.31
109813.31
109813.31
109813.31
109813.31
109813.31
109813.31
109813.31
109813.32
109813.32
109813.32
109813.32
109813.32
109813.32
109813.32
109813.32
109813.32
109813.32
109813.32
109813.32
109813.32
109813.32
109813.32
109813.32
109813.32
109813.32
109813.32
109813.32
109813.32
109813.32
109813.32
109813.32
109813.32
109813.32
109813.32
109813.32
109813.32
109813.32
109813.32
109813.32
109813.32
109813.32
109813.32
109813.32
109813.32
109813.32
109813.32
109813.32
109813.32
109813.32
109813.32
109813.32
109813.32
109813.32
109813.32
109813.32
109813.32
109813.32
109813.32
109813.32
109813.32
109813.32
109813.32
109813.32
109813.32
109813.32
109813.32
109813.32
109813.32
109813.32
109813.32
109813.32
109813.32
109813.32
109813.32
109813.32
109813.32
109813.32
109813.32
109813.32
109813.32
109813.32
109813.32
109813.32
109813.32
109813.32
109813.32
109813.32
109813.32
109813.32
109813.32
109813.32
109813.32
109813.32
109813.32
109813.32
109813.32
109813.32
109813.32
109813.32
109813.32
109813.32
109813.32
109813.32
109813.32
109813.32
109813.32
109813.32
109813.32
109813.32
109813.32
109813.32
109813.32
109813.32
109813.32
109813.32
109813.32
109813.32
109813.32
109813.32
109813.32
109813.32
109813.32
109813.32
109813.32
109813.32
109813.32
109813.32
109813.32
109813.32
109813.32
109813.32
109813.32
109813.32
109813.32
109813.32
109813.32
109813.32
109813.32
109813.32
109813.32
109813.32
109813.32
109813.32
109813.32
109813.32
109813.32
109813.32
109813.32
109813.32
109813.32
109813.32
109813.32
109813.32
109813.32
109813.32
109813.32
109813.32
109813.32
109813.32
109813.32
109813.32
109813.32
109813.32
109813.32
109813.32
109813.32
109813.32
109813.32
109813.32
109813.32
109813.32
109813.32
109813.32
109813.32
109813.32
109813.32
109813.32
109813.32
109813.32
109813.32
109813.32
109813.32
109813.32
109813.31
109813.31
109813.31
109813.31
109813.31
109813.31
109813.31
109813.31
109813.31
109813.31
109813.31
109813.31
109813.31
109813.31
109813.31
109813.31
109813.31
109813.31
109813.31
109813.31
109813.31
109813.31
109813.31
109813.31
109813.31
109813.31
109813.31
109813.31
109813.31
109813.31
109813.31
109813.31
109813.31
109813.31
109813.31
109813.31
109813.31
109813.31
109813.31
109813.31
109813.31
109813.31
109813.31
109813.31
109813.31
109813.31
109813.31
109813.3
109813.3
109813.3
109813.3
109813.3
109813.3
109813.3
109813.3
109813.3
109813.3
109813.3
109813.3
109813.3
109813.3
109813.3
109813.3
109813.3
109813.3
109813.3
109813.3
109813.3
109813.29
109813.29
109813.29
109813.29
109813.29
109813.29
109813.29
109813.29
109813.29
109813.29
109813.29
109813.29
109813.29
109813.28
109813.28
109813.28
109813.28
109813.28
109813.28
109813.28
109813.28
109813.28
109813.27
109813.27
109813.27
109813.27
109813.27
109813.27
109813.27
109813.26
109813.26
109813.26
109813.26
109813.26
109813.25
109813.25
109813.25
109813.25
109813.25
109813.24
109813.24
109813.24
109813.24
109813.23
109813.23
109813.23
109813.22
109813.22
109813.22
109813.21
109813.21
109813.21
109813.2
109813.2
109813.2
109813.19
109813.19
109813.18
109813.18
109813.18
109813.17
109813.17
109813.16
109813.16
109813.15
109813.14
109813.14
109813.13
109813.13
109813.12
109813.11
109813.11
109813.1
109813.09
109813.09
109813.08
109813.07
109813.06
109813.05
109813.04
109813.04
109813.03
109813.02
109813.01
109813
109812.99
109812.98
109812.96
109812.95
109812.94
109812.93
109812.92
109812.9
109812.89
109812.88
109812.86
109812.85
109812.83
109812.82
109812.8
109812.79
109812.77
109812.75
109812.73
109812.71
109812.7
109812.68
109812.66
109812.64
109812.61
109812.59
109812.57
109812.55
109812.52
109812.5
109812.47
109812.45
109812.42
109812.39
109812.36
109812.34
109812.31
109812.28
109812.24
109812.21
109812.18
109812.14
109812.11
109812.07
109812.04
109812
109811.96
109811.92
109811.88
109811.84
109811.8
109811.75
109811.71
109811.66
109811.61
109811.56
109811.51
109811.46
109811.41
109811.36
109811.3
109811.24
109811.19
109811.13
109811.07
109811
109810.94
109810.87
109810.81
109810.74
109810.67
109810.6
109810.52
109810.45
109810.37
109810.29
109810.21
109810.13
109810.05
109809.96
109809.87
109809.78
109809.69
109809.6
109809.5
109809.41
109809.31
109809.2
109809.1
109808.99
109808.88
109808.77
109808.66
109808.55
109808.43
109808.31
109808.18
109808.06
109807.93
109807.8
109807.67
109807.53
109807.4
109807.26
109807.11
109806.97
109806.82
109806.67
109806.51
109806.35
109806.19
109806.03
109805.86
109805.69
109805.52
109805.35
109805.17
109804.99
109804.8
109804.61
109804.42
109804.23
109804.03
109803.83
109803.62
109803.42
109803.2
109802.99
109802.77
109802.55
109802.32
109802.09
109801.86
109801.62
109801.38
109801.14
109800.89
109800.64
109800.38
109800.12
109799.86
109799.59
109799.32
109799.05
109798.77
109798.48
109798.19
109797.9
109797.61
109797.31
109797
109796.69
109796.38
109796.06
109795.74
109795.42
109795.09
109794.75
109794.41
109794.07
109793.72
109793.37
109793.01
109792.65
109792.28
109791.91
109791.54
109791.16
109790.77
109790.39
109789.99
109789.59
109789.19
109788.78
109788.37
109787.95
109787.53
109787.1
109786.67
109786.23
109785.79
109785.35
109784.9
109784.44
109783.98
109783.51
109783.04
109782.57
109782.09
109781.6
109781.11
109780.61
109780.11
109779.61
109779.1
109778.58
109778.06
109777.54
109777.01
109776.47
109775.93
109775.39
109774.84
109774.28
109773.72
109773.16
109772.59
109772.01
109771.44
109770.85
109770.26
109769.67
109769.07
109768.46
109767.85
109767.24
109766.62
109766
109765.37
109764.74
109764.1
109763.46
109762.81
109762.15
109761.5
109760.84
109760.17
109759.5
109758.82
109758.14
109757.45
109756.76
109756.07
109755.37
109754.67
109753.96
109753.25
109752.53
109751.81
109751.08
109750.35
109749.62
109748.88
109748.13
109747.38
109746.63
109745.88
109745.12
109744.35
109743.58
109742.81
109742.03
109741.25
109740.47
109739.68
109738.88
109738.09
109737.29
109736.48
109735.67
109734.86
109734.05
109733.23
109732.4
109731.58
109730.75
109729.91
109729.08
109728.24
109727.39
109726.55
109725.7
109724.84
109723.98
109723.13
109722.26
109721.4
109720.53
109719.65
109718.78
109717.9
109717.02
109716.14
109715.25
109714.36
109713.47
109712.58
109711.68
109710.78
109709.88
109708.98
109708.07
109707.16
109706.25
109705.34
109704.42
109703.51
109702.59
109701.66
109700.74
109699.82
109698.89
109697.96
109697.03
109696.1
109695.17
109694.23
109693.29
109692.36
109691.42
109690.48
109689.53
109688.59
109687.65
109686.7
109685.75
109684.8
109683.86
109682.91
109681.96
109681
109680.05
109679.1
109678.15
109677.19
109676.24
109675.28
109674.33
109673.37
109672.41
109671.46
109670.5
109669.54
109668.58
109667.63
109666.67
109665.71
109664.76
109663.8
109662.84
109661.88
109660.93
109659.97
109659.02
109658.06
109657.11
109656.15
109655.2
109654.25
109653.29
109652.34
109651.39
109650.44
109649.49
109648.54
109647.6
109646.65
109645.7
109644.76
109643.82
109642.88
109641.94
109641
109640.06
109639.12
109638.19
109637.25
109636.32
109635.39
109634.46
109633.53
109632.61
109631.69
109630.76
109629.84
109628.93
109628.01
109627.09
109626.18
109625.27
109624.36
109623.46
109622.55
109621.65
109620.75
109619.85
109618.96
109618.06
109617.17
109616.28
109615.4
109614.51
109613.63
109612.75
109611.88
109611
109610.13
109609.26
109608.4
109607.54
109606.67
109605.82
109604.96
109604.11
109603.26
109602.41
109601.57
109600.73
109599.89
109599.06
109598.22
109597.39
109596.57
109595.75
109594.93
109594.11
109593.29
109592.48
109591.68
109590.87
109590.07
109589.27
109588.48
109587.68
109586.9
109586.11
109585.33
109584.55
109583.77
109583
109582.23
109581.47
109580.7
109579.94
109579.19
109578.43
109577.69
109576.94
109576.2
109575.46
109574.72
109573.99
109573.26
109572.54
109571.81
109571.1
109570.38
109569.67
109568.96
109568.26
109567.55
109566.86
109566.16
109565.47
109564.78
109564.1
109563.42
109562.74
109562.07
109561.4
109560.73
109560.07
109559.41
109558.75
109558.1
109557.45
109556.8
109556.16
109555.52
109554.88
109554.25
109553.62
109552.99
109552.37
109551.75
109551.14
109550.53
109549.92
109549.31
109548.71
109548.11
109547.52
109546.93
109546.34
109545.75
109545.17
109544.59
109544.02
109543.45
109542.88
109542.31
109541.75
109541.19
109540.64
109540.08
109539.54
109538.99
109538.45
109537.91
109537.37
109536.84
109536.31
109535.79
109535.26
109534.74
109534.23
109533.71
109533.2
109532.7
109532.19
109531.69
109531.2
109530.7
109530.21
109529.72
109529.24
109528.75
109528.27
109527.8
109527.33
109526.86
109526.39
109525.92
109525.46
109525.01
109524.55
109524.1
109523.65
109523.2
109522.76
109522.32
109521.88
109521.45
109521.02
109520.59
109520.16
109519.74
109519.32
109518.9
109518.49
109518.07
109517.66
109517.26
109516.86
109516.45
109516.06
109515.66
109515.27
109514.88
109514.49
109514.11
109513.73
109513.35
109512.97
109512.6
109512.23
109511.86
109511.5
109511.13
109510.77
109510.42
109510.06
109509.71
109509.36
109509.01
109508.67
109508.33
109507.99
109507.65
109507.32
109506.99
109506.66
109506.33
109506.01
109505.69
109505.37
109505.05
109504.74
109504.43
109504.12
109503.81
109503.51
109503.21
109502.91
109502.61
109502.32
109502.03
109501.74
109501.45
109501.17
109500.89
109500.61
109500.33
109500.05
109499.78
109499.51
109499.24
109498.98
109498.71
109498.45
109498.2
109497.94
109497.69
109497.43
109497.18
109496.94
109496.69
109496.45
109496.21
109495.97
109495.74
109495.5
109495.27
109495.04
109494.81
109494.59
109494.37
109494.15
109493.93
109493.71
109493.5
109493.29
109493.08
109492.87
109492.66
109492.46
109492.26
109492.06
109491.86
109491.67
109491.47
109491.28
109491.09
109490.91
109490.72
109490.54
109490.36
109490.18
109490
109489.82
109489.65
109489.48
109489.31
109489.14
109488.98
109488.81
109488.65
109488.49
109488.33
109488.18
109488.02
109487.87
109487.72
109487.57
109487.42
109487.28
109487.13
109486.99
109486.85
109486.71
109486.58
109486.44
109486.31
109486.18
109486.05
109485.92
109485.79
109485.67
109485.54
109485.42
109485.3
109485.18
109485.07
109484.95
109484.84
109484.73
109484.61
109484.51
109484.4
109484.29
109484.19
109484.08
109483.98
109483.88
109483.78
109483.68
109483.59
109483.49
109483.4
109483.31
109483.22
109483.13
109483.04
109482.95
109482.87
109482.78
109482.7
109482.62
109482.54
109482.46
109482.38
109482.3
109482.23
109482.15
109482.08
109482.01
109481.94
109481.87
109481.8
109481.73
109481.67
109481.6
109481.54
109481.47
109481.41
109481.35
109481.29
109481.23
109481.17
109481.12
109481.06
109481.01
109480.95
109480.9
109480.85
109480.79
109480.74
109480.69
109480.65
109480.6
109480.55
109480.51
109480.46
109480.42
109480.37
109480.33
109480.29
109480.25
109480.21
109480.17
109480.13
109480.09
109480.05
109480.01
109479.98
109479.94
109479.91
109479.87
109479.84
109479.81
109479.78
109479.74
109479.71
109479.68
109479.65
109479.62
109479.6
109479.57
109479.54
109479.51
109479.49
109479.46
109479.44
109479.41
109479.39
109479.37
109479.34
109479.32
109479.3
109479.28
109479.26
109479.24
109479.22
109479.2
109479.18
109479.16
109479.14
109479.12
109479.1
109479.09
109479.07
109479.05
109479.04
109479.02
109479.01
109478.99
109478.98
109478.96
109478.95
109478.93
109478.92
109478.91
109478.9
109478.88
109478.87
109478.86
109478.85
109478.84
109478.83
109478.82
109478.8
109478.79
109478.78
109478.78
109478.77
109478.76
109478.75
109478.74
109478.73
109478.72
109478.71
109478.71
109478.7
109478.69
109478.68
109478.68
109478.67
109478.66
109478.66
109478.65
109478.65
109478.64
109478.63
109478.63
109478.62
109478.62
109478.61
109478.61
109478.6
109478.6
109478.59
109478.59
109478.58
109478.58
109478.58
109478.57
109478.57
109478.56
109478.56
109478.56
109478.55
109478.55
109478.55
109478.54
109478.54
109478.54
109478.54
109478.53
109478.53
109478.53
109478.53
109478.52
109478.52
109478.52
109478.52
109478.51
109478.51
109478.51
109478.51
109478.51
109478.51
109478.5
109478.5
109478.5
109478.5
109478.5
109478.5
109478.49
109478.49
109478.49
109478.49
109478.49
109478.49
109478.49
109478.49
109478.49
109478.48
109478.48
109478.48
109478.48
109478.48
109478.48
109478.48
109478.48
109478.48
109478.48
109478.48
109478.48
109478.48
109478.47
109478.47
109478.47
109478.47
109478.47
109478.47
109478.47
109478.47
109478.47
109478.47
109478.47
109478.47
109478.47
109478.47
109478.47
109478.47
109478.47
109478.47
109478.47
109478.47
109478.47
109478.47
109478.47
109478.47
109478.47
109478.47
109478.47
109478.47
109478.47
109478.47
109478.47
109478.46
109478.46
109478.46
109478.46
109478.46
109478.46
109478.46
109478.46
109478.46
109478.46
109478.46
109478.46
109478.46
109478.46
109478.46
109478.46
109478.46
109478.46
109478.46
109478.46
109478.46
109478.46
109478.46
109478.46
109478.46
109478.46
109478.46
109478.46
109478.46
109478.46
109478.46
109478.46
109478.46
109478.46
109478.46
109478.46
109478.46
109478.46
109478.46
109478.46
109478.46
109478.46
109478.46
109478.46
109478.46
109478.46
109478.46
109478.46
109478.46
109478.46
109478.46
109478.46
109478.46
109478.46
109478.46
109478.46
109478.46
109478.46
109478.46
109478.46
109478.46
109478.46
109478.46
109478.46
109478.46
109478.46
109478.46
109478.46
109478.46
109478.46
109478.46
109478.46
109478.46
109478.46
109478.46
109478.46
109478.46
109478.46
109478.46
109478.46
109478.46
109478.46
109478.46
109478.46
109478.46
109478.46
109478.46
109478.46
109478.46
109478.46
109478.46
109478.46
109478.46
109478.46
109478.46
109478.46
109478.46
109478.46
109478.46
109478.46
109478.46
109478.46
109478.46
109478.46
109478.46
109478.46
109478.46
109478.46
109478.46
109478.46
109478.46
109478.46
109478.46
109478.46
109478.46
109478.46
109478.46
109478.46
109478.46
109478.46
109478.46
109478.46
109478.46
109478.46
109478.46
109478.46
109478.46
109478.46
109478.46
109478.46
109478.46
109478.46
109478.46
109478.46
109478.46
109478.46
109478.46
109478.46
109478.46
109478.46
109478.46
109478.46
109478.46
109478.46
109478.46
109478.46
109478.46
109478.46
109478.46
109478.46
109478.46
109478.46
109478.46
109478.46
109478.46
109478.46
109478.46
109478.46
109478.46
109478.46
109478.46
109478.46
109478.46
109478.46
109478.46
109478.46
109478.46
109478.46
109478.46
109478.46
109478.46
109478.46
109478.46
109478.46
109478.46
109478.46
109478.46
109478.46
109478.46
109478.46
109478.46
109478.46
109478.46
109478.46
109478.46
109478.46
109478.46
109478.46
109478.46
109478.46
109478.46
109478.46
109478.46
109478.46
109478.46
109478.46
109478.46
109478.46
109478.46
109478.46
109478.46
109478.46
109478.46
109478.46
109478.46
109478.46
109478.46
109478.46
109478.46
109478.46
109478.46
109478.46
109478.46
109478.46
109478.46
109478.46
109478.46
109478.46
109478.46
109478.46
109478.46
109478.46
109478.46
109478.46
109478.46
109478.46
109478.46
109478.46
109478.46
109478.46
109478.46
109478.46
109478.46
109478.46
109478.46
109478.46
109478.46
109478.46
109478.46
109478.46
109478.46
109478.46
109478.46
109478.46
109478.46
109478.46
109478.46
109478.46
109478.46
109478.46
109478.46
109478.46
109478.46
109478.46
109478.46
109478.46
109478.46
109478.46
109478.46
109478.46
109478.46
109478.46
109478.46
109478.46
109478.46
109478.46
109478.46
109478.46
109478.46
109478.46
109478.46
109478.46
109478.46
109478.46
109478.46
109478.46
109478.46
109478.46
109478.46
109478.46
109478.46
109478.46
109478.46
109478.46
109478.46
109478.46
109478.46
109478.46
109478.46
109478.46
109478.46
109478.46
109478.46
109478.46
109478.46
109478.46
109478.46
109478.46
109478.46
109478.46
109478.46
109478.46
109478.46
109478.46
109478.46
109478.46
109478.46
109478.46
109478.46
109478.46
109478.46
109478.46
109478.46
109478.46
109478.46
109478.46
109478.46
109478.46
109478.46
109478.46
109478.46
109478.46
109478.46
109478.46
109478.46
109478.46
109478.46
109478.46
109478.46
109478.46
109478.46
109478.46
109478.46
109478.46
109478.46
109478.46
109478.47
109478.47
109478.47
109478.47
109478.47
109478.47
109478.47
109478.47
109478.47
109478.47
109478.47
109478.47
109478.47
109478.47
109478.47
109478.47
109478.47
109478.47
109478.47
109478.47
109478.47
109478.47
109478.47
109478.47
109478.47
109478.47
109478.47
109478.47
109478.47
109478.47
109478.47
109478.47
109478.47
109478.47
109478.47
109478.47
109478.47
109478.47
109478.47
109478.47
109478.47
109478.47
109478.47
109478.47
109478.47
109478.47
109478.47
109478.47
109478.47
109478.47
109478.47
109478.47
109478.47
109478.47
109478.47
109478.47
109478.47
109478.47
109478.47
109478.47
109478.47
109478.47
109478.47
109478.47
109478.47
109478.47
109478.47
109478.47
109478.47
109478.47
109478.47
109478.47
109478.47
109478.47
109478.47
109478.47
109478.47
109478.47
109478.47
109478.47
109478.47
109478.47
109478.47
109478.47
109478.47
109478.47
109478.47
109478.47
109478.47
109478.47
109478.47
109478.47
109478.47
109478.47
109478.47
109478.47
109478.47
109478.47
109478.47
109478.47
109478.47
109478.47
109478.47
109478.47
109478.47
109478.47
109478.47
109478.47
109478.47
109478.47
109478.47
109478.47
109478.47
109478.47
109478.47
109478.47
109478.47
109478.47
109478.47
109478.47
109478.47
109478.47
109478.47
109478.47
109478.47
109478.47
109478.47
109478.47
109478.47
109478.47
109478.47
109478.47
109478.47
109478.47
109478.47
109478.47
109478.47
109478.47
109478.47
109478.47
109478.47
109478.47
109478.47
109478.47
109478.47
109478.47
109478.47
109478.47
109478.47
109478.47
109478.47
109478.47
109478.47
109478.47
109478.47
109478.47
109478.47
109478.47
109478.47
109478.47
109478.47
109478.47
109478.47
109478.47
109478.47
109478.47
109478.47
109478.47
109478.47
109478.47
109478.47
109478.47
109478.47
109478.47
109478.47
109478.47
109478.47
109478.47
109478.47
109478.47
109478.47
109478.47
109478.47
109478.47
109478.47
109478.47
109478.47
109478.47
109478.47
109478.47
109478.47
109478.47
109478.47
109478.47
109478.47
109478.47
109478.47
109478.47
109478.47
109478.47
109478.47
109478.47
109478.47
109478.47
109478.47
109478.47
109478.47
109478.47
109478.47
109478.47
109478.47
109478.47
109478.47
109478.47
109478.47
109478.47
109478.47
109478.47
109478.47
109478.47
109478.47
109478.47
109478.47
109478.47
109478.47
109478.47
109478.47
109478.47
109478.47
109478.47
109478.47
109478.47
109478.47
109478.47
109478.47
109478.47
109478.47
109478.47
109478.47
109478.47
109478.47
109478.47
109478.47
109478.47
109478.47
109478.47
109478.47
109478.47
109478.47
109478.47
109478.47
109478.47
109478.47
109478.47
109478.47
109478.47
109478.47
109478.47
109478.47
109478.47
109478.47
109478.47
109478.47
109478.47
109478.47
109478.47
109478.47
109478.47
109478.47
109478.47
109478.47
109478.47
109478.47
109478.47
109478.47
109478.47
109478.47
109478.47
109478.47
109478.47
109478.47
109478.47
109478.47
109478.47
109478.47
109478.47
109478.47
109478.47
109478.47
109478.47
109478.47
109478.47
109478.47
109478.47
109478.47
109478.47
109478.47
109478.47
109478.47
109478.47
109478.47
109478.47
109478.47
109478.47
109478.47
109478.47
109478.47
109478.47
109478.47
109478.47
109478.47
109478.47
109478.47
109478.47
109478.47
109478.47
109478.47
109478.47
109478.47
109478.47
109478.47
109478.47
109478.47
109478.47
109478.47
109478.47
109478.47
109478.47
109478.47
109478.47
109478.47
109478.47
109478.47
109478.47
109478.47
109478.47
109478.47
109478.47
109478.47
109478.47
109478.47
109478.47
109478.47
109478.47
109478.47
109478.47
109478.47
109478.47
109478.47
109478.47
109478.47
109478.47
109478.47
109478.47
109478.47
109478.47
109478.47
109478.47
109478.47
109478.47
109478.47
109478.47
109478.47
109478.47
109478.47
109478.47
109478.47
109478.47
109478.47
109478.47
109478.47
109478.47
109478.47
109478.47
109478.47
109478.47
109478.47
109478.47
109478.47
109478.47
109478.47
109478.47
109478.47
109478.46
109478.46
109478.45
109478.45
109478.45
109478.46
109478.48
109478.49
109478.48
109478.48
109478.47
109478.47
109478.47
109478.47
109478.47
109478.46
109478.46
109478.46
109478.47
109478.47
109478.47
109478.47
109478.47
109478.47
109478.47
109478.47
109478.47
109478.47
109478.47
109478.47
109478.47
109478.47
109478.47
109478.47
109478.47
109478.47
109478.47
109478.47
109478.47
109478.47
109478.47
109478.47
109478.47
109478.47
109478.47
109478.47
109478.47
109478.47
109478.47
109478.47
109478.47
109478.47
109478.47
109478.47
109478.47
109478.47
109478.47
109478.47
109478.47
109478.47
109478.47
109478.47
109478.47
109478.47
109478.47
109478.47
109478.47
109478.47
109478.47
109478.47
109478.47
109478.47
109478.47
109478.47
109478.47
109478.47
109478.47
109478.47
109478.47
109478.47
109478.47
109478.47
109478.47
109478.47
109478.47
109478.47
109478.47
109478.47
109478.47
109478.47
109478.47
109478.47
109478.47
109478.47
109478.47
109478.47
109478.47
109478.47
109478.47
109478.47
109478.47
109478.47
109478.47
109478.47
109478.47
109478.47
109478.47
109478.47
109478.47
109478.47
109478.47
109478.47
109478.47
109478.47
109478.47
109478.47
109478.47
109478.47
109478.47
109478.47
109478.47
109478.47
109478.47
109478.47
109478.47
109478.47
109478.47
109478.47
109478.47
109478.47
109478.47
109478.47
109478.47
109478.47
109478.47
109478.47
109478.47
109478.47
109478.47
109478.47
109478.47
109478.47
109478.47
109478.47
109478.47
109478.47
109478.47
109478.47
109478.47
109478.47
109478.47
109478.47
109478.47
109478.47
109478.47
109478.47
109478.47
109478.47
109478.47
109478.47
109478.47
109478.47
109478.47
109478.47
109478.47
109478.47
109478.47
109478.47
109478.47
109478.47
109478.47
109478.47
109478.47
109478.47
109478.47
109478.47
109478.47
109478.47
109478.47
109478.47
109478.47
109478.47
109478.47
109478.47
109478.47
109478.47
109478.47
109478.47
109478.47
109478.47
109478.47
109478.47
109478.47
109478.47
109478.47
109478.47
109478.47
109478.47
109478.47
109478.47
109478.47
109478.47
109478.47
109478.47
109478.47
109478.47
109478.47
109478.47
109478.47