/*--------------------------------*- C++ -*----------------------------------*\
  =========                 |
  \\      /  F ield         | OpenFOAM: The Open Source CFD Toolbox
   \\    /   O peration     | Website:  https://openfoam.org
    \\  /    A nd           | Version:  7
     \\/     M anipulation  |
\*---------------------------------------------------------------------------*/
FoamFile
{
    version     2.0;
    format      ascii;
    class       volScalarField;
    location    "0.00234";
    object      rho;
}
// * * * * * * * * * * * * * * * * * * * * * * * * * * * * * * * * * * * * * //

dimensions      [1 -3 0 0 0 0 0];

internalField   nonuniform List<scalar> 
5000
(
1.3374782
1.3374782
1.3374782
1.3374782
1.3374782
1.3374782
1.3374782
1.3374782
1.3374782
1.3374782
1.3374782
1.3374782
1.3374782
1.3374782
1.3374783
1.3374783
1.3374783
1.3374783
1.3374783
1.3374783
1.3374783
1.3374783
1.3374783
1.3374783
1.3374783
1.3374783
1.3374783
1.3374783
1.3374783
1.3374783
1.3374783
1.3374783
1.3374783
1.3374783
1.3374783
1.3374783
1.3374783
1.3374783
1.3374784
1.3374784
1.3374784
1.3374784
1.3374784
1.3374784
1.3374784
1.3374784
1.3374784
1.3374784
1.3374784
1.3374784
1.3374784
1.3374784
1.3374784
1.3374784
1.3374784
1.3374784
1.3374784
1.3374784
1.3374784
1.3374783
1.3374783
1.3374783
1.3374783
1.3374783
1.3374783
1.3374782
1.3374781
1.337478
1.3374779
1.3374778
1.3374775
1.337477
1.3374758
1.337473
1.3374678
1.3374601
1.3374496
1.3374359
1.3374183
1.337396
1.3373681
1.3373334
1.3372911
1.3372404
1.3371813
1.3371142
1.3370404
1.3369615
1.3368798
1.3367977
1.3367174
1.3366412
1.3365708
1.3365072
1.3364512
1.3364031
1.3363625
1.336329
1.3363018
1.3362802
1.3362633
1.3362502
1.3362403
1.3362328
1.3362273
1.3362232
1.3362202
1.3362181
1.3362165
1.3362154
1.3362147
1.3362141
1.3362137
1.3362134
1.3362133
1.3362131
1.336213
1.336213
1.3362129
1.3362129
1.3362129
1.3362129
1.3362128
1.3362128
1.3362128
1.3362128
1.3362128
1.3362128
1.3362128
1.3362128
1.3362128
1.3362128
1.3362128
1.3362128
1.3362128
1.3362128
1.3362128
1.3362128
1.3362128
1.3362128
1.3362128
1.3362128
1.3362128
1.3362128
1.3362128
1.3362128
1.3362128
1.3362128
1.3362128
1.3362128
1.3362128
1.3362128
1.3362128
1.3362128
1.3362128
1.3362128
1.3362128
1.3362128
1.3362128
1.3362128
1.3362128
1.3362128
1.3362128
1.3362128
1.3362128
1.3362128
1.3362128
1.3362128
1.3362128
1.3362128
1.3362128
1.3362128
1.3362128
1.3362128
1.3362128
1.3362128
1.3362128
1.3362128
1.3362128
1.3362128
1.3362128
1.3362128
1.3362128
1.3362128
1.3362128
1.3362128
1.3362128
1.3362128
1.3362128
1.3362128
1.3362128
1.3362128
1.3362128
1.3362128
1.3362128
1.3362128
1.3362128
1.3362128
1.3362128
1.3362128
1.3362128
1.3362128
1.3362128
1.3362128
1.3362128
1.3362128
1.3362128
1.3362128
1.3362128
1.3362128
1.3362128
1.3362128
1.3362128
1.3362128
1.3362128
1.3362128
1.3362128
1.3362128
1.3362128
1.3362128
1.3362128
1.3362128
1.3362128
1.3362128
1.3362128
1.3362128
1.3362128
1.3362128
1.3362128
1.3362128
1.3362128
1.3362128
1.3362127
1.3362127
1.3362127
1.3362127
1.3362127
1.3362127
1.3362127
1.3362127
1.3362127
1.3362127
1.3362127
1.3362127
1.3362127
1.3362127
1.3362127
1.3362127
1.3362127
1.3362127
1.3362127
1.3362127
1.3362127
1.3362127
1.3362127
1.3362127
1.3362127
1.3362127
1.3362127
1.3362127
1.3362127
1.3362127
1.3362127
1.3362127
1.3362127
1.3362127
1.3362127
1.3362127
1.3362127
1.3362127
1.3362127
1.3362127
1.3362127
1.3362127
1.3362127
1.3362127
1.3362127
1.3362127
1.3362127
1.3362127
1.3362127
1.3362127
1.3362127
1.3362127
1.3362127
1.3362127
1.3362127
1.3362127
1.3362127
1.3362127
1.3362127
1.3362127
1.3362127
1.3362127
1.3362127
1.3362127
1.3362127
1.3362127
1.3362127
1.3362127
1.3362127
1.3362127
1.3362127
1.3362127
1.3362127
1.3362127
1.3362127
1.3362127
1.3362127
1.3362127
1.3362127
1.3362127
1.3362127
1.3362127
1.3362127
1.3362127
1.3362127
1.3362127
1.3362127
1.3362127
1.3362127
1.3362127
1.3362127
1.3362127
1.3362127
1.3362127
1.3362126
1.3362126
1.3362126
1.3362126
1.3362126
1.3362126
1.3362126
1.3362126
1.3362126
1.3362126
1.3362126
1.3362126
1.3362126
1.3362126
1.3362126
1.3362126
1.3362126
1.3362126
1.3362126
1.3362126
1.3362126
1.3362126
1.3362126
1.3362126
1.3362126
1.3362126
1.3362126
1.3362126
1.3362126
1.3362126
1.3362126
1.3362126
1.3362126
1.3362126
1.3362126
1.3362126
1.3362126
1.3362126
1.3362126
1.3362126
1.3362126
1.3362126
1.3362126
1.3362126
1.3362126
1.3362126
1.3362126
1.3362126
1.3362126
1.3362126
1.3362126
1.3362126
1.3362126
1.3362126
1.3362126
1.3362126
1.3362126
1.3362126
1.3362126
1.3362126
1.3362126
1.3362126
1.3362126
1.3362126
1.3362126
1.3362126
1.3362126
1.3362126
1.3362126
1.3362126
1.3362126
1.3362126
1.3362126
1.3362126
1.3362126
1.3362126
1.3362126
1.3362125
1.3362125
1.3362125
1.3362125
1.3362125
1.3362125
1.3362125
1.3362125
1.3362125
1.3362125
1.3362125
1.3362125
1.3362125
1.3362125
1.3362125
1.3362125
1.3362125
1.3362125
1.3362125
1.3362125
1.3362125
1.3362125
1.3362125
1.3362125
1.3362125
1.3362125
1.3362125
1.3362125
1.3362125
1.3362125
1.3362125
1.3362125
1.3362125
1.3362125
1.3362125
1.3362125
1.3362125
1.3362125
1.3362125
1.3362125
1.3362125
1.3362125
1.3362125
1.3362125
1.3362125
1.3362125
1.3362125
1.3362125
1.3362125
1.3362125
1.3362125
1.3362125
1.3362125
1.3362125
1.3362125
1.3362125
1.3362125
1.3362125
1.3362125
1.3362125
1.3362125
1.3362125
1.3362125
1.3362125
1.3362124
1.3362124
1.3362124
1.3362124
1.3362124
1.3362124
1.3362124
1.3362124
1.3362124
1.3362124
1.3362124
1.3362124
1.3362124
1.3362124
1.3362124
1.3362124
1.3362124
1.3362124
1.3362124
1.3362124
1.3362124
1.3362124
1.3362124
1.3362124
1.3362124
1.3362124
1.3362124
1.3362124
1.3362124
1.3362124
1.3362124
1.3362124
1.3362124
1.3362124
1.3362124
1.3362124
1.3362124
1.3362124
1.3362124
1.3362124
1.3362124
1.3362124
1.3362124
1.3362124
1.3362124
1.3362124
1.3362124
1.3362124
1.3362124
1.3362124
1.3362124
1.3362123
1.3362123
1.3362123
1.3362123
1.3362123
1.3362123
1.3362123
1.3362123
1.3362123
1.3362123
1.3362123
1.3362123
1.3362123
1.3362123
1.3362123
1.3362123
1.3362123
1.3362123
1.3362123
1.3362123
1.3362123
1.3362123
1.3362123
1.3362123
1.3362123
1.3362123
1.3362123
1.3362123
1.3362123
1.3362123
1.3362123
1.3362123
1.3362123
1.3362123
1.3362123
1.3362123
1.3362123
1.3362123
1.3362123
1.3362123
1.3362123
1.3362123
1.3362123
1.3362123
1.3362123
1.3362123
1.3362123
1.3362123
1.3362123
1.3362123
1.3362123
1.3362123
1.3362123
1.3362122
1.3362122
1.3362122
1.3362122
1.3362122
1.3362122
1.3362122
1.3362122
1.3362122
1.3362122
1.3362122
1.3362122
1.3362122
1.3362122
1.3362122
1.3362122
1.3362122
1.3362122
1.3362122
1.3362122
1.3362122
1.3362122
1.3362122
1.3362122
1.3362122
1.3362122
1.3362122
1.3362122
1.3362122
1.3362122
1.3362122
1.3362122
1.3362122
1.3362122
1.3362122
1.3362122
1.3362122
1.3362122
1.3362122
1.3362122
1.3362122
1.3362122
1.3362122
1.3362122
1.3362122
1.3362122
1.3362122
1.3362122
1.3362122
1.3362121
1.3362121
1.3362121
1.3362121
1.3362121
1.3362121
1.3362121
1.3362121
1.3362121
1.3362121
1.3362121
1.3362121
1.3362121
1.3362121
1.3362121
1.3362121
1.3362121
1.3362121
1.3362121
1.3362121
1.3362121
1.3362121
1.3362121
1.3362121
1.3362121
1.3362121
1.3362121
1.3362121
1.3362121
1.3362121
1.3362121
1.3362121
1.3362121
1.3362121
1.3362121
1.3362121
1.3362121
1.3362121
1.3362121
1.3362121
1.3362121
1.336212
1.336212
1.336212
1.336212
1.336212
1.336212
1.336212
1.336212
1.336212
1.336212
1.336212
1.336212
1.336212
1.336212
1.336212
1.336212
1.336212
1.336212
1.336212
1.336212
1.336212
1.336212
1.336212
1.336212
1.336212
1.336212
1.336212
1.336212
1.336212
1.336212
1.336212
1.336212
1.336212
1.336212
1.336212
1.336212
1.336212
1.3362119
1.3362119
1.3362119
1.3362119
1.3362119
1.3362119
1.3362119
1.3362119
1.3362119
1.3362119
1.3362119
1.3362119
1.3362119
1.3362119
1.3362119
1.3362119
1.3362119
1.3362119
1.3362119
1.3362119
1.3362119
1.3362119
1.3362119
1.3362119
1.3362119
1.3362119
1.3362119
1.3362119
1.3362119
1.3362119
1.3362119
1.3362119
1.3362119
1.3362119
1.3362119
1.3362119
1.3362118
1.3362118
1.3362118
1.3362118
1.3362118
1.3362118
1.3362118
1.3362118
1.3362118
1.3362118
1.3362118
1.3362118
1.3362118
1.3362118
1.3362118
1.3362118
1.3362118
1.3362118
1.3362118
1.3362118
1.3362118
1.3362118
1.3362118
1.3362118
1.3362118
1.3362118
1.3362118
1.3362118
1.3362118
1.3362118
1.3362118
1.3362117
1.3362117
1.3362117
1.3362117
1.3362117
1.3362117
1.3362117
1.3362117
1.3362117
1.3362117
1.3362117
1.3362117
1.3362117
1.3362117
1.3362117
1.3362117
1.3362117
1.3362117
1.3362117
1.3362117
1.3362117
1.3362117
1.3362117
1.3362117
1.3362117
1.3362117
1.3362116
1.3362116
1.3362116
1.3362116
1.3362116
1.3362116
1.3362116
1.3362116
1.3362116
1.3362116
1.3362116
1.3362116
1.3362116
1.3362116
1.3362116
1.3362116
1.3362116
1.3362116
1.3362116
1.3362116
1.3362116
1.3362116
1.3362116
1.3362116
1.3362116
1.3362115
1.3362115
1.3362115
1.3362115
1.3362115
1.3362115
1.3362115
1.3362115
1.3362115
1.3362115
1.3362115
1.3362115
1.3362115
1.3362115
1.3362115
1.3362115
1.3362115
1.3362115
1.3362115
1.3362115
1.3362115
1.3362115
1.3362115
1.3362115
1.3362114
1.3362114
1.3362114
1.3362114
1.3362114
1.3362114
1.3362114
1.3362114
1.3362114
1.3362114
1.3362114
1.3362114
1.3362114
1.3362114
1.3362114
1.3362114
1.3362114
1.3362114
1.3362114
1.3362114
1.3362114
1.3362114
1.3362113
1.3362113
1.3362113
1.3362113
1.3362113
1.3362113
1.3362113
1.3362113
1.3362113
1.3362113
1.3362113
1.3362113
1.3362113
1.3362113
1.3362113
1.3362113
1.3362113
1.3362113
1.3362113
1.3362113
1.3362113
1.3362112
1.3362112
1.3362112
1.3362112
1.3362112
1.3362112
1.3362112
1.3362112
1.3362112
1.3362112
1.3362112
1.3362112
1.3362112
1.3362112
1.3362112
1.3362112
1.3362112
1.3362112
1.3362112
1.3362111
1.3362111
1.3362111
1.3362111
1.3362111
1.3362111
1.3362111
1.3362111
1.3362111
1.3362111
1.3362111
1.3362111
1.3362111
1.3362111
1.3362111
1.3362111
1.3362111
1.3362111
1.3362111
1.336211
1.336211
1.336211
1.336211
1.336211
1.336211
1.336211
1.336211
1.336211
1.336211
1.336211
1.336211
1.336211
1.336211
1.336211
1.336211
1.336211
1.336211
1.3362109
1.3362109
1.3362109
1.3362109
1.3362109
1.3362109
1.3362109
1.3362109
1.3362109
1.3362109
1.3362109
1.3362109
1.3362109
1.3362109
1.3362109
1.3362109
1.3362108
1.3362108
1.3362108
1.3362108
1.3362108
1.3362108
1.3362108
1.3362108
1.3362108
1.3362108
1.3362108
1.3362108
1.3362108
1.3362108
1.3362108
1.3362108
1.3362107
1.3362107
1.3362107
1.3362107
1.3362107
1.3362107
1.3362107
1.3362107
1.3362107
1.3362107
1.3362107
1.3362107
1.3362107
1.3362107
1.3362106
1.3362106
1.3362106
1.3362106
1.3362106
1.3362106
1.3362106
1.3362106
1.3362106
1.3362106
1.3362106
1.3362106
1.3362106
1.3362105
1.3362105
1.3362105
1.3362105
1.3362105
1.3362105
1.3362105
1.3362105
1.3362105
1.3362105
1.3362105
1.3362105
1.3362104
1.3362104
1.3362104
1.3362104
1.3362104
1.3362104
1.3362104
1.3362104
1.3362104
1.3362103
1.3362103
1.3362103
1.3362103
1.3362103
1.3362103
1.3362103
1.3362103
1.3362103
1.3362102
1.3362102
1.3362102
1.3362102
1.3362102
1.3362102
1.3362102
1.3362101
1.3362101
1.3362101
1.3362101
1.3362101
1.3362101
1.3362101
1.33621
1.33621
1.33621
1.33621
1.33621
1.33621
1.3362099
1.3362099
1.3362099
1.3362099
1.3362099
1.3362098
1.3362098
1.3362098
1.3362098
1.3362097
1.3362097
1.3362097
1.3362097
1.3362096
1.3362096
1.3362096
1.3362096
1.3362095
1.3362095
1.3362095
1.3362094
1.3362094
1.3362094
1.3362093
1.3362093
1.3362093
1.3362092
1.3362092
1.3362091
1.3362091
1.3362091
1.336209
1.336209
1.3362089
1.3362089
1.3362088
1.3362088
1.3362087
1.3362087
1.3362086
1.3362085
1.3362085
1.3362084
1.3362084
1.3362083
1.3362082
1.3362082
1.3362081
1.336208
1.3362079
1.3362079
1.3362078
1.3362077
1.3362076
1.3362075
1.3362075
1.3362074
1.3362073
1.3362072
1.3362071
1.336207
1.3362069
1.3362068
1.3362066
1.3362065
1.3362064
1.3362063
1.3362062
1.336206
1.3362059
1.3362058
1.3362056
1.3362055
1.3362053
1.3362052
1.336205
1.3362049
1.3362047
1.3362045
1.3362043
1.3362042
1.336204
1.3362038
1.3362036
1.3362034
1.3362032
1.336203
1.3362028
1.3362025
1.3362023
1.3362021
1.3362018
1.3362016
1.3362013
1.3362011
1.3362008
1.3362005
1.3362002
1.3361999
1.3361996
1.3361993
1.336199
1.3361987
1.3361983
1.336198
1.3361976
1.3361973
1.3361969
1.3361965
1.3361961
1.3361958
1.3361953
1.3361949
1.3361945
1.3361941
1.3361936
1.3361931
1.3361927
1.3361922
1.3361917
1.3361912
1.3361907
1.3361901
1.3361896
1.336189
1.3361884
1.3361879
1.3361873
1.3361867
1.336186
1.3361854
1.3361847
1.3361841
1.3361834
1.3361827
1.3361819
1.3361812
1.3361805
1.3361797
1.3361789
1.3361781
1.3361773
1.3361764
1.3361756
1.3361747
1.3361738
1.3361729
1.336172
1.336171
1.3361701
1.3361691
1.3361681
1.336167
1.336166
1.3361649
1.3361638
1.3361627
1.3361616
1.3361604
1.3361593
1.3361581
1.3361568
1.3361556
1.3361543
1.336153
1.3361517
1.3361503
1.336149
1.3361476
1.3361461
1.3361447
1.3361432
1.3361417
1.3361402
1.3361386
1.3361371
1.3361354
1.3361338
1.3361321
1.3361304
1.3361287
1.336127
1.3361252
1.3361234
1.3361215
1.3361196
1.3361177
1.3361158
1.3361138
1.3361118
1.3361098
1.3361078
1.3361057
1.3361035
1.3361014
1.3360992
1.336097
1.3360947
1.3360924
1.3360901
1.3360877
1.3360853
1.3360829
1.3360804
1.3360779
1.3360754
1.3360728
1.3360702
1.3360676
1.3360649
1.3360621
1.3360594
1.3360566
1.3360538
1.3360509
1.336048
1.336045
1.336042
1.336039
1.3360359
1.3360328
1.3360297
1.3360265
1.3360233
1.33602
1.3360167
1.3360134
1.33601
1.3360066
1.3360031
1.3359996
1.3359961
1.3359925
1.3359888
1.3359852
1.3359815
1.3359777
1.3359739
1.3359701
1.3359662
1.3359623
1.3359583
1.3359543
1.3359502
1.3359461
1.335942
1.3359378
1.3359336
1.3359293
1.335925
1.3359207
1.3359163
1.3359119
1.3359074
1.3359029
1.3358983
1.3358937
1.335889
1.3358843
1.3358796
1.3358748
1.33587
1.3358651
1.3358602
1.3358553
1.3358503
1.3358452
1.3358402
1.335835
1.3358299
1.3358246
1.3358194
1.3358141
1.3358088
1.3358034
1.335798
1.3357925
1.335787
1.3357814
1.3357758
1.3357702
1.3357645
1.3357588
1.3357531
1.3357473
1.3357414
1.3357356
1.3357296
1.3357237
1.3357177
1.3357117
1.3357056
1.3356995
1.3356933
1.3356871
1.3356809
1.3356746
1.3356683
1.3356619
1.3356555
1.3356491
1.3356426
1.3356361
1.3356296
1.335623
1.3356164
1.3356098
1.3356031
1.3355964
1.3355896
1.3355828
1.335576
1.3355691
1.3355623
1.3355553
1.3355484
1.3355414
1.3355343
1.3355273
1.3355202
1.3355131
1.3355059
1.3354987
1.3354915
1.3354843
1.335477
1.3354697
1.3354623
1.335455
1.3354476
1.3354402
1.3354327
1.3354253
1.3354177
1.3354102
1.3354027
1.3353951
1.3353875
1.3353798
1.3353722
1.3353645
1.3353568
1.3353491
1.3353413
1.3353335
1.3353257
1.3353179
1.3353101
1.3353022
1.3352943
1.3352865
1.3352785
1.3352706
1.3352626
1.3352547
1.3352467
1.3352387
1.3352306
1.3352226
1.3352145
1.3352065
1.3351984
1.3351903
1.3351822
1.335174
1.3351659
1.3351577
1.3351496
1.3351414
1.3351332
1.335125
1.3351168
1.3351085
1.3351003
1.3350921
1.3350838
1.3350755
1.3350673
1.335059
1.3350507
1.3350424
1.3350341
1.3350259
1.3350175
1.3350092
1.3350009
1.3349926
1.3349843
1.334976
1.3349677
1.3349593
1.334951
1.3349427
1.3349344
1.334926
1.3349177
1.3349094
1.3349011
1.3348927
1.3348844
1.3348761
1.3348678
1.3348595
1.3348512
1.3348429
1.3348346
1.3348263
1.334818
1.3348097
1.3348015
1.3347932
1.3347849
1.3347767
1.3347685
1.3347602
1.334752
1.3347438
1.3347356
1.3347274
1.3347192
1.334711
1.3347029
1.3346947
1.3346866
1.3346785
1.3346704
1.3346623
1.3346542
1.3346461
1.3346381
1.3346301
1.334622
1.334614
1.334606
1.3345981
1.3345901
1.3345822
1.3345743
1.3345664
1.3345585
1.3345506
1.3345428
1.3345349
1.3345271
1.3345193
1.3345115
1.3345038
1.3344961
1.3344884
1.3344807
1.334473
1.3344653
1.3344577
1.3344501
1.3344425
1.334435
1.3344274
1.3344199
1.3344124
1.334405
1.3343975
1.3343901
1.3343827
1.3343754
1.334368
1.3343607
1.3343534
1.3343461
1.3343389
1.3343317
1.3343245
1.3343173
1.3343102
1.3343031
1.334296
1.334289
1.3342819
1.3342749
1.3342679
1.334261
1.3342541
1.3342472
1.3342403
1.3342335
1.3342267
1.3342199
1.3342131
1.3342064
1.3341997
1.334193
1.3341864
1.3341798
1.3341732
1.3341667
1.3341601
1.3341537
1.3341472
1.3341408
1.3341344
1.334128
1.3341216
1.3341153
1.334109
1.3341028
1.3340965
1.3340903
1.3340842
1.334078
1.3340719
1.3340659
1.3340598
1.3340538
1.3340478
1.3340419
1.3340359
1.33403
1.3340242
1.3340183
1.3340125
1.3340067
1.334001
1.3339953
1.3339896
1.3339839
1.3339783
1.3339727
1.3339671
1.3339616
1.3339561
1.3339506
1.3339452
1.3339397
1.3339343
1.333929
1.3339237
1.3339184
1.3339131
1.3339078
1.3339026
1.3338975
1.3338923
1.3338872
1.3338821
1.333877
1.333872
1.333867
1.333862
1.333857
1.3338521
1.3338472
1.3338423
1.3338375
1.3338327
1.3338279
1.3338232
1.3338184
1.3338137
1.3338091
1.3338044
1.3337998
1.3337952
1.3337907
1.3337862
1.3337817
1.3337772
1.3337727
1.3337683
1.3337639
1.3337596
1.3337552
1.3337509
1.3337466
1.3337424
1.3337382
1.3337339
1.3337298
1.3337256
1.3337215
1.3337174
1.3337133
1.3337093
1.3337053
1.3337013
1.3336973
1.3336934
1.3336894
1.3336856
1.3336817
1.3336779
1.333674
1.3336702
1.3336665
1.3336627
1.333659
1.3336553
1.3336517
1.333648
1.3336444
1.3336408
1.3336373
1.3336337
1.3336302
1.3336267
1.3336232
1.3336198
1.3336164
1.333613
1.3336096
1.3336062
1.3336029
1.3335996
1.3335963
1.3335931
1.3335898
1.3335866
1.3335834
1.3335803
1.3335771
1.333574
1.3335709
1.3335679
1.3335648
1.3335618
1.3335588
1.3335558
1.3335528
1.3335499
1.333547
1.3335441
1.3335412
1.3335384
1.3335356
1.3335327
1.33353
1.3335272
1.3335245
1.3335217
1.333519
1.3335164
1.3335137
1.3335111
1.3335085
1.3335059
1.3335033
1.3335008
1.3334983
1.3334957
1.3334933
1.3334908
1.3334884
1.3334859
1.3334835
1.3334811
1.3334788
1.3334764
1.3334741
1.3334718
1.3334695
1.3334673
1.333465
1.3334628
1.3334606
1.3334584
1.3334563
1.3334541
1.333452
1.3334499
1.3334478
1.3334458
1.3334437
1.3334417
1.3334397
1.3334377
1.3334357
1.3334338
1.3334319
1.33343
1.3334281
1.3334262
1.3334243
1.3334225
1.3334207
1.3334189
1.3334171
1.3334153
1.3334136
1.3334119
1.3334101
1.3334084
1.3334068
1.3334051
1.3334035
1.3334019
1.3334002
1.3333987
1.3333971
1.3333955
1.333394
1.3333925
1.333391
1.3333895
1.333388
1.3333866
1.3333851
1.3333837
1.3333823
1.3333809
1.3333795
1.3333782
1.3333768
1.3333755
1.3333742
1.3333729
1.3333716
1.3333704
1.3333691
1.3333679
1.3333667
1.3333655
1.3333643
1.3333631
1.333362
1.3333608
1.3333597
1.3333586
1.3333575
1.3333564
1.3333553
1.3333543
1.3333532
1.3333522
1.3333512
1.3333502
1.3333492
1.3333482
1.3333472
1.3333463
1.3333453
1.3333444
1.3333435
1.3333426
1.3333417
1.3333408
1.33334
1.3333391
1.3333383
1.3333375
1.3333366
1.3333358
1.333335
1.3333343
1.3333335
1.3333327
1.333332
1.3333313
1.3333305
1.3333298
1.3333291
1.3333284
1.3333278
1.3333271
1.3333264
1.3333258
1.3333251
1.3333245
1.3333239
1.3333233
1.3333227
1.3333221
1.3333215
1.3333209
1.3333204
1.3333198
1.3333192
1.3333187
1.3333182
1.3333177
1.3333171
1.3333166
1.3333162
1.3333157
1.3333152
1.3333147
1.3333143
1.3333138
1.3333134
1.3333129
1.3333125
1.3333121
1.3333117
1.3333113
1.3333109
1.3333105
1.3333101
1.3333097
1.3333093
1.3333089
1.3333086
1.3333082
1.3333079
1.3333075
1.3333072
1.3333069
1.3333066
1.3333062
1.3333059
1.3333056
1.3333053
1.333305
1.3333047
1.3333044
1.3333042
1.3333039
1.3333036
1.3333034
1.3333031
1.3333029
1.3333026
1.3333024
1.3333021
1.3333019
1.3333017
1.3333014
1.3333012
1.333301
1.3333008
1.3333006
1.3333004
1.3333002
1.3333
1.3332998
1.3332996
1.3332994
1.3332993
1.3332991
1.3332989
1.3332987
1.3332986
1.3332984
1.3332982
1.3332981
1.3332979
1.3332978
1.3332976
1.3332975
1.3332974
1.3332972
1.3332971
1.3332969
1.3332968
1.3332967
1.3332966
1.3332964
1.3332963
1.3332962
1.3332961
1.333296
1.3332959
1.3332958
1.3332957
1.3332956
1.3332955
1.3332954
1.3332953
1.3332952
1.3332951
1.333295
1.3332949
1.3332948
1.3332947
1.3332946
1.3332946
1.3332945
1.3332944
1.3332943
1.3332943
1.3332942
1.3332941
1.333294
1.333294
1.3332939
1.3332938
1.3332938
1.3332937
1.3332936
1.3332936
1.3332935
1.3332935
1.3332934
1.3332934
1.3332933
1.3332933
1.3332932
1.3332931
1.3332931
1.333293
1.333293
1.333293
1.3332929
1.3332929
1.3332928
1.3332928
1.3332927
1.3332927
1.3332926
1.3332926
1.3332925
1.3332925
1.3332925
1.3332924
1.3332924
1.3332923
1.3332923
1.3332923
1.3332922
1.3332922
1.3332922
1.3332921
1.3332921
1.3332921
1.333292
1.333292
1.333292
1.3332919
1.3332919
1.3332919
1.3332918
1.3332918
1.3332918
1.3332918
1.3332917
1.3332917
1.3332917
1.3332916
1.3332916
1.3332916
1.3332916
1.3332915
1.3332915
1.3332915
1.3332915
1.3332914
1.3332914
1.3332914
1.3332913
1.3332913
1.3332913
1.3332913
1.3332912
1.3332912
1.3332912
1.3332912
1.3332911
1.3332911
1.3332911
1.3332911
1.3332911
1.333291
1.333291
1.333291
1.333291
1.3332909
1.3332909
1.3332909
1.3332909
1.3332908
1.3332908
1.3332908
1.3332908
1.3332908
1.3332907
1.3332907
1.3332907
1.3332907
1.3332906
1.3332906
1.3332906
1.3332906
1.3332906
1.3332905
1.3332905
1.3332905
1.3332905
1.3332904
1.3332904
1.3332904
1.3332904
1.3332904
1.3332903
1.3332903
1.3332903
1.3332903
1.3332902
1.3332902
1.3332902
1.3332902
1.3332901
1.3332901
1.3332901
1.3332901
1.3332901
1.33329
1.33329
1.33329
1.33329
1.3332899
1.3332899
1.3332899
1.3332899
1.3332898
1.3332898
1.3332898
1.3332898
1.3332897
1.3332897
1.3332897
1.3332897
1.3332897
1.3332896
1.3332896
1.3332896
1.3332896
1.3332895
1.3332895
1.3332895
1.3332895
1.3332894
1.3332894
1.3332894
1.3332894
1.3332893
1.3332893
1.3332893
1.3332893
1.3332892
1.3332892
1.3332892
1.3332892
1.3332891
1.3332891
1.3332891
1.3332891
1.333289
1.333289
1.333289
1.333289
1.3332889
1.3332889
1.3332889
1.3332889
1.3332888
1.3332888
1.3332888
1.3332888
1.3332887
1.3332887
1.3332887
1.3332887
1.3332886
1.3332886
1.3332886
1.3332886
1.3332885
1.3332885
1.3332885
1.3332884
1.3332884
1.3332884
1.3332884
1.3332883
1.3332883
1.3332883
1.3332883
1.3332882
1.3332882
1.3332882
1.3332882
1.3332881
1.3332881
1.3332881
1.333288
1.333288
1.333288
1.333288
1.3332879
1.3332879
1.3332879
1.3332879
1.3332878
1.3332878
1.3332878
1.3332877
1.3332877
1.3332877
1.3332877
1.3332876
1.3332876
1.3332876
1.3332876
1.3332875
1.3332875
1.3332875
1.3332874
1.3332874
1.3332874
1.3332874
1.3332873
1.3332873
1.3332873
1.3332872
1.3332872
1.3332872
1.3332872
1.3332871
1.3332871
1.3332871
1.333287
1.333287
1.333287
1.3332869
1.3332869
1.3332869
1.3332869
1.3332868
1.3332868
1.3332868
1.3332867
1.3332867
1.3332867
1.3332866
1.3332866
1.3332866
1.3332865
1.3332865
1.3332865
1.3332865
1.3332864
1.3332864
1.3332864
1.3332863
1.3332863
1.3332863
1.3332862
1.3332862
1.3332862
1.3332862
1.3332861
1.3332861
1.3332861
1.333286
1.333286
1.333286
1.3332859
1.3332859
1.3332859
1.3332858
1.3332858
1.3332858
1.3332857
1.3332857
1.3332857
1.3332856
1.3332856
1.3332856
1.3332855
1.3332855
1.3332855
1.3332854
1.3332854
1.3332854
1.3332853
1.3332853
1.3332853
1.3332852
1.3332852
1.3332852
1.3332851
1.3332851
1.3332851
1.333285
1.333285
1.333285
1.3332849
1.3332849
1.3332849
1.3332848
1.3332848
1.3332848
1.3332847
1.3332847
1.3332847
1.3332846
1.3332846
1.3332846
1.3332845
1.3332845
1.3332844
1.3332844
1.3332844
1.3332843
1.3332843
1.3332843
1.3332842
1.3332842
1.3332841
1.3332841
1.3332841
1.333284
1.333284
1.333284
1.3332839
1.3332839
1.3332838
1.3332838
1.3332838
1.3332837
1.3332837
1.3332836
1.3332836
1.3332836
1.3332835
1.3332835
1.3332835
1.3332834
1.3332834
1.3332833
1.3332833
1.3332833
1.3332832
1.3332832
1.3332831
1.3332831
1.3332831
1.333283
1.333283
1.3332829
1.3332829
1.3332828
1.3332828
1.3332828
1.3332827
1.3332827
1.3332826
1.3332826
1.3332825
1.3332825
1.3332825
1.3332824
1.3332824
1.3332823
1.3332823
1.3332822
1.3332822
1.3332822
1.3332821
1.3332821
1.333282
1.333282
1.3332819
1.3332819
1.3332819
1.3332818
1.3332818
1.3332817
1.3332817
1.3332816
1.3332816
1.3332815
1.3332815
1.3332814
1.3332814
1.3332813
1.3332813
1.3332812
1.3332812
1.3332812
1.3332811
1.3332811
1.333281
1.333281
1.3332809
1.3332809
1.3332808
1.3332808
1.3332807
1.3332807
1.3332806
1.3332806
1.3332805
1.3332805
1.3332804
1.3332804
1.3332803
1.3332803
1.3332802
1.3332802
1.3332801
1.3332801
1.33328
1.33328
1.3332799
1.3332799
1.3332798
1.3332798
1.3332797
1.3332797
1.3332796
1.3332795
1.3332795
1.3332794
1.3332794
1.3332793
1.3332793
1.3332792
1.3332792
1.3332791
1.333279
1.333279
1.3332789
1.3332789
1.3332788
1.3332788
1.3332787
1.3332787
1.3332786
1.3332786
1.3332785
1.3332784
1.3332784
1.3332783
1.3332783
1.3332782
1.3332781
1.3332781
1.333278
1.333278
1.3332779
1.3332778
1.3332778
1.3332777
1.3332777
1.3332776
1.3332775
1.3332775
1.3332774
1.3332773
1.3332773
1.3332772
1.3332772
1.3332771
1.333277
1.333277
1.3332769
1.3332768
1.3332768
1.3332767
1.3332766
1.3332766
1.3332765
1.3332764
1.3332764
1.3332763
1.3332762
1.3332762
1.3332761
1.333276
1.333276
1.3332759
1.3332758
1.3332758
1.3332757
1.3332756
1.3332755
1.3332755
1.3332754
1.3332753
1.3332753
1.3332752
1.3332751
1.333275
1.333275
1.3332749
1.3332748
1.3332747
1.3332747
1.3332746
1.3332745
1.3332744
1.3332744
1.3332743
1.3332742
1.3332741
1.333274
1.333274
1.3332739
1.3332738
1.3332737
1.3332736
1.3332736
1.3332735
1.3332734
1.3332733
1.3332732
1.3332732
1.3332731
1.333273
1.3332729
1.3332728
1.3332727
1.3332727
1.3332726
1.3332725
1.3332724
1.3332723
1.3332722
1.3332721
1.3332721
1.333272
1.3332719
1.3332718
1.3332717
1.3332716
1.3332715
1.3332714
1.3332713
1.3332712
1.3332712
1.3332711
1.333271
1.3332709
1.3332708
1.3332707
1.3332706
1.3332705
1.3332704
1.3332703
1.3332702
1.3332701
1.33327
1.3332699
1.3332698
1.3332697
1.3332696
1.3332695
1.3332694
1.3332693
1.3332692
1.3332691
1.333269
1.3332689
1.3332688
1.3332686
1.3332685
1.3332684
1.3332683
1.3332682
1.3332681
1.333268
1.3332679
1.3332678
1.3332676
1.3332675
1.3332674
1.3332673
1.3332672
1.3332671
1.3332669
1.3332668
1.3332667
1.3332666
1.3332665
1.3332663
1.3332662
1.3332661
1.333266
1.3332658
1.3332657
1.3332656
1.3332655
1.3332653
1.3332652
1.3332651
1.3332649
1.3332648
1.3332647
1.3332645
1.3332644
1.3332642
1.3332641
1.333264
1.3332638
1.3332637
1.3332635
1.3332634
1.3332633
1.3332631
1.333263
1.3332628
1.3332627
1.3332625
1.3332624
1.3332623
1.3332621
1.333262
1.3332618
1.3332616
1.3332615
1.3332613
1.3332612
1.333261
1.3332609
1.3332607
1.3332605
1.3332604
1.3332602
1.33326
1.3332599
1.3332597
1.3332595
1.3332593
1.3332591
1.333259
1.3332588
1.3332586
1.3332584
1.3332582
1.3332581
1.3332579
1.3332577
1.3332575
1.3332573
1.3332571
1.3332569
1.3332567
1.3332565
1.3332563
1.3332561
1.3332559
1.3332557
1.3332555
1.3332553
1.3332551
1.3332549
1.3332546
1.3332544
1.3332542
1.333254
1.3332538
1.3332535
1.3332533
1.3332531
1.3332528
1.3332526
1.3332524
1.3332521
1.3332519
1.3332516
1.3332514
1.3332511
1.3332509
1.3332506
1.3332503
1.3332501
1.3332498
1.3332495
1.3332492
1.333249
1.3332487
1.3332484
1.3332481
1.3332478
1.3332476
1.3332473
1.333247
1.3332467
1.3332464
1.3332461
1.3332458
1.3332455
1.3332451
1.3332448
1.3332445
1.3332441
1.3332438
1.3332435
1.3332431
1.3332427
1.3332424
1.333242
1.3332416
1.3332413
1.3332409
1.3332405
1.3332401
1.3332397
1.3332393
1.3332389
1.3332385
1.3332381
1.3332377
1.3332373
1.3332368
1.3332364
1.3332359
1.3332355
1.333235
1.3332345
1.3332341
1.3332336
1.3332331
1.3332326
1.3332321
1.3332316
1.3332311
1.3332306
1.3332301
1.3332296
1.333229
1.3332285
1.333228
1.3332274
1.3332269
1.3332263
1.3332258
1.3332252
1.3332247
1.3332242
1.3332236
1.3332231
1.3332226
1.3332221
1.3332216
1.3332212
1.3332207
1.3332203
1.3332199
1.3332195
1.3332192
1.3332188
1.3332186
1.3332183
1.3332181
1.3332179
1.3332178
1.3332177
1.3332176
1.3332176
1.3332176
1.3332175
1.3332176
1.3332176
1.3332176
1.3332177
1.3332178
1.3332179
1.3332179
1.333218
1.333218
1.333218
1.333218
1.333218
1.333218
1.3332178
1.3332175
1.3332171
1.3332165
1.3332159
1.3332151
1.3332143
1.3332134
1.3332125
1.3332114
1.3332104
1.3332092
1.333208
1.3332068
1.3332056
1.3332044
1.3332032
1.333202
1.3332009
1.3331998
1.3331987
1.3331977
1.3331968
1.333196
1.3331953
1.3331947
1.3331943
1.333194
1.3331938
1.3331936
1.3331935
1.3331931
1.3331924
1.3331907
1.333187
1.3331779
1.3331558
1.3331017
1.332968
1.3326404
1.3318288
1.3302738
1.3282431
1.325762
1.3228642
1.3196009
1.3160385
1.3122541
1.3083301
1.3043498
1.3003923
1.29653
1.2928248
1.2893273
1.2860756
1.2830956
1.2804017
1.277998
1.2758798
1.2740355
1.2724482
1.2710973
1.2699601
1.2690129
1.268232
1.2675949
1.2670801
1.2666684
1.2663424
1.2660867
1.2658883
1.2657359
1.26562
1.265533
1.2654684
1.265421
1.2653869
1.2653628
1.2653461
1.2653349
1.2653278
1.2653234
1.2653212
1.2653202
1.2653201
1.2653202
1.265321
1.2653229
1.265325
1.265327
1.2653289
1.2653307
1.2653324
1.2653341
1.2653357
1.2653372
1.2653388
1.2653404
1.2653419
1.2653435
1.2653451
1.2653468
1.2653485
1.2653503
1.2653521
1.265354
1.2653559
1.2653579
1.2653599
1.2653619
1.265364
1.265366
1.2653681
1.2653701
1.2653722
1.2653741
1.2653761
1.265378
1.2653798
1.2653816
1.2653833
1.265385
1.2653866
1.2653881
1.2653895
1.2653909
1.2653922
1.2653935
1.2653947
1.2653958
1.2653969
1.2653979
1.2653989
1.2653998
1.2654007
1.2654016
1.2654024
1.2654032
1.265404
1.2654047
1.2654054
1.2654061
1.2654068
1.2654074
1.2654081
1.2654087
1.2654093
1.2654099
1.2654105
1.265411
1.2654116
1.2654121
1.2654127
1.2654132
1.2654137
1.2654142
1.2654147
1.2654152
1.2654156
1.2654161
1.2654166
1.265417
1.2654174
1.2654179
1.2654183
1.2654187
1.2654191
1.2654196
1.26542
1.2654204
1.2654207
1.2654211
1.2654215
1.2654219
1.2654223
1.2654226
1.265423
1.2654234
1.2654237
1.2654241
1.2654244
1.2654247
1.2654251
1.2654254
1.2654257
1.265426
1.2654263
1.2654266
1.265427
1.2654273
1.2654275
1.2654278
1.2654281
1.2654284
1.2654287
1.265429
1.2654292
1.2654295
1.2654298
1.2654301
1.2654303
1.2654306
1.2654308
1.2654311
1.2654314
1.2654316
1.2654319
1.2654321
1.2654324
1.2654326
1.2654328
1.2654331
1.2654333
1.2654335
1.2654338
1.265434
1.2654342
1.2654344
1.2654347
1.2654349
1.2654351
1.2654353
1.2654355
1.2654357
1.2654359
1.2654361
1.2654363
1.2654365
1.2654367
1.2654369
1.2654371
1.2654373
1.2654375
1.2654377
1.2654379
1.2654381
1.2654383
1.2654385
1.2654386
1.2654388
1.265439
1.2654392
1.2654393
1.2654395
1.2654397
1.2654399
1.26544
1.2654402
1.2654404
1.2654405