/*--------------------------------*- C++ -*----------------------------------*\
  =========                 |
  \\      /  F ield         | OpenFOAM: The Open Source CFD Toolbox
   \\    /   O peration     | Website:  https://openfoam.org
    \\  /    A nd           | Version:  7
     \\/     M anipulation  |
\*---------------------------------------------------------------------------*/
FoamFile
{
    version     2.0;
    format      ascii;
    class       volScalarField;
    location    "0.00273";
    object      T;
}
// * * * * * * * * * * * * * * * * * * * * * * * * * * * * * * * * * * * * * //

dimensions      [0 0 0 1 0 0 0];

internalField   nonuniform List<scalar> 
5000
(
250.51303
250.52757
250.53429
250.54587
250.55282
250.56433
250.57129
250.5828
250.58976
250.60127
250.60823
250.61974
250.6267
250.63821
250.64517
250.65668
250.66364
250.67515
250.6821
250.69362
250.70056
250.71208
250.71902
250.73053
250.73746
250.74898
250.75591
250.76742
250.77434
250.78586
250.79277
250.80429
250.8112
250.82271
250.82961
250.84112
250.84802
250.85953
250.86642
250.87793
250.88481
250.89632
250.9032
250.9147
250.92158
250.93307
250.93995
250.95144
250.95831
250.9698
250.97666
250.98815
250.99501
251.0065
251.01334
251.02483
251.03167
251.04316
251.04999
251.06148
251.0683
251.07979
251.08661
251.09809
251.1049
251.11638
251.12319
251.13466
251.14147
251.15294
251.15973
251.1712
251.17799
251.18946
251.19624
251.20771
251.21448
251.22594
251.23271
251.24417
251.25093
251.26239
251.26915
251.2806
251.28735
251.2988
251.30554
251.31699
251.32371
251.33516
251.34188
251.35333
251.36004
251.37148
251.37819
251.38963
251.39632
251.40776
251.41445
251.42588
251.43256
251.44398
251.45066
251.46208
251.46874
251.48016
251.48681
251.49823
251.50487
251.51628
251.52292
251.53432
251.54095
251.55235
251.55897
251.57036
251.57697
251.58835
251.59495
251.60633
251.61292
251.6243
251.63087
251.64225
251.64881
251.66018
251.66673
251.67809
251.68463
251.69598
251.70251
251.71386
251.72037
251.73171
251.73822
251.74955
251.75604
251.76736
251.77384
251.78515
251.79162
251.80292
251.80937
251.82067
251.82711
251.8384
251.84482
251.8561
251.8625
251.87377
251.88016
251.89142
251.89779
251.90904
251.9154
251.92663
251.93298
251.9442
251.95053
251.96173
251.96804
251.97924
251.98553
251.99672
252.00299
252.01416
252.02041
252.03157
252.0378
252.04894
252.05515
252.06628
252.07247
252.08358
252.08975
252.10085
252.10699
252.11807
252.1242
252.13526
252.14136
252.1524
252.15848
252.16951
252.17556
252.18657
252.1926
252.20358
252.20959
252.22055
252.22653
252.23747
252.24343
252.25435
252.26027
252.27117
252.27707
252.28795
252.29382
252.30467
252.31051
252.32134
252.32715
252.33795
252.34373
252.35451
252.36026
252.37101
252.37673
252.38746
252.39314
252.40384
252.40948
252.42016
252.42577
252.43642
252.44199
252.45261
252.45815
252.46874
252.47425
252.4848
252.49027
252.5008
252.50623
252.51672
252.52212
252.53258
252.53793
252.54836
252.55367
252.56407
252.56934
252.5797
252.58494
252.59526
252.60045
252.61074
252.61589
252.62614
252.63126
252.64146
252.64654
252.65669
252.66174
252.67184
252.67687
252.68691
252.69191
252.70189
252.70687
252.7168
252.72174
252.73162
252.73654
252.74636
252.75124
252.76101
252.76587
252.77558
252.78041
252.79006
252.79486
252.80446
252.80923
252.81876
252.82351
252.83298
252.83769
252.8471
252.85179
252.86114
252.86579
252.87508
252.8797
252.88892
252.89351
252.90267
252.90723
252.91633
252.92085
252.92988
252.93438
252.94334
252.94781
252.95671
252.96114
252.96997
252.97437
252.98314
252.9875
252.99621
253.00054
253.00918
253.01348
253.02206
253.02632
253.03483
253.03907
253.04751
253.05171
253.06009
253.06426
253.07257
253.0767
253.08495
253.08905
253.09724
253.1013
253.10942
253.11346
253.12151
253.12551
253.1335
253.13747
253.14539
253.14932
253.15718
253.16109
253.16888
253.17275
253.18048
253.18432
253.19199
253.19579
253.20339
253.20717
253.21471
253.21846
253.22592
253.22964
253.23706
253.24075
253.24807
253.25172
253.25905
253.26268
253.26977
253.27367
253.28034
253.28457
253.29084
253.29537
253.30127
253.30604
253.31165
253.31659
253.32197
253.32702
253.33223
253.33735
253.34243
253.34756
253.35255
253.35768
253.3626
253.36771
253.37257
253.37765
253.38247
253.38751
253.39228
253.39728
253.40201
253.40697
253.41166
253.41659
253.42124
253.42612
253.43073
253.43558
253.44015
253.44496
253.44949
253.45427
253.45876
253.4635
253.46795
253.47266
253.47708
253.48174
253.48614
253.49075
253.49513
253.49969
253.50405
253.50855
253.51291
253.51736
253.5217
253.52609
253.53042
253.53477
253.53908
253.54338
253.54768
253.55193
253.55621
253.56043
253.56469
253.56886
253.5731
253.57725
253.58146
253.58557
253.58976
253.59384
253.59801
253.60206
253.6062
253.61022
253.61433
253.61833
253.62242
253.62639
253.63045
253.6344
253.63844
253.64236
253.64637
253.65026
253.65425
253.65812
253.66209
253.66594
253.66988
253.6737
253.67762
253.68142
253.68532
253.6891
253.69297
253.69673
253.70058
253.70431
253.70814
253.71186
253.71567
253.71936
253.72315
253.72683
253.7306
253.73425
253.738
253.74164
253.74537
253.74899
253.7527
253.7563
253.76
253.76358
253.76725
253.77082
253.77448
253.77803
253.78167
253.7852
253.78883
253.79234
253.79595
253.79945
253.80304
253.80653
253.81011
253.81357
253.81714
253.82059
253.82414
253.82758
253.83112
253.83454
253.83806
253.84147
253.84498
253.84838
253.85188
253.85526
253.85874
253.86211
253.86558
253.86894
253.8724
253.87575
253.87919
253.88253
253.88596
253.88929
253.89271
253.89602
253.89943
253.90273
253.90614
253.90942
253.91282
253.91609
253.91948
253.92274
253.92611
253.92937
253.93273
253.93598
253.93933
253.94257
253.94591
253.94914
253.95247
253.95569
253.95902
253.96223
253.96554
253.96874
253.97205
253.97524
253.97854
253.98173
253.98502
253.98819
253.99148
253.99464
253.99792
254.00107
254.00435
254.00749
254.01076
254.01389
254.01715
254.02028
254.02353
254.02665
254.0299
254.03301
254.03625
254.03936
254.04259
254.04569
254.04891
254.05201
254.05521
254.05832
254.06151
254.06462
254.06779
254.0709
254.07406
254.07717
254.08032
254.08343
254.08656
254.08967
254.0928
254.09591
254.09903
254.10213
254.10524
254.10834
254.11145
254.11455
254.11765
254.12074
254.12383
254.12692
254.13001
254.1331
254.13618
254.13926
254.14234
254.14542
254.14849
254.15156
254.15463
254.1577
254.16077
254.16383
254.16689
254.16995
254.173
254.17606
254.17911
254.18216
254.18521
254.18825
254.19129
254.19433
254.19737
254.2004
254.20344
254.20647
254.2095
254.21252
254.21554
254.21857
254.22158
254.2246
254.22761
254.23063
254.23363
254.23664
254.23965
254.24265
254.24565
254.24865
254.25164
254.25463
254.25762
254.26061
254.2636
254.26658
254.26956
254.27254
254.27552
254.27849
254.28147
254.28444
254.2874
254.29037
254.29333
254.29629
254.29925
254.30221
254.30516
254.30812
254.31107
254.31401
254.31696
254.3199
254.32284
254.32578
254.32872
254.33165
254.33458
254.33751
254.34044
254.34336
254.34629
254.34921
254.35213
254.35504
254.35796
254.36087
254.36378
254.36669
254.36959
254.37249
254.3754
254.37829
254.38119
254.38408
254.38698
254.38987
254.39275
254.39564
254.39852
254.4014
254.40428
254.40716
254.41004
254.41291
254.41578
254.41865
254.42151
254.42438
254.42724
254.4301
254.43295
254.43581
254.43866
254.44151
254.44436
254.44721
254.45005
254.45289
254.45573
254.45857
254.46141
254.46424
254.46707
254.4699
254.47272
254.47555
254.47837
254.48119
254.48401
254.48682
254.48964
254.49245
254.49526
254.49807
254.50087
254.50367
254.50647
254.50927
254.51207
254.51486
254.51766
254.52045
254.52324
254.52602
254.52881
254.53159
254.53437
254.53715
254.53992
254.5427
254.54547
254.54824
254.55101
254.55378
254.55654
254.55931
254.56207
254.56483
254.56759
254.57034
254.5731
254.57585
254.5786
254.58135
254.5841
254.58684
254.58958
254.59232
254.59506
254.5978
254.60054
254.60327
254.606
254.60873
254.61146
254.61419
254.61691
254.61963
254.62235
254.62507
254.62779
254.6305
254.63322
254.63593
254.63863
254.64134
254.64404
254.64675
254.64945
254.65214
254.65484
254.65753
254.66023
254.66292
254.6656
254.66829
254.67097
254.67365
254.67633
254.67901
254.68168
254.68435
254.68702
254.68969
254.69236
254.69502
254.69768
254.70034
254.703
254.70565
254.70831
254.71096
254.7136
254.71625
254.71889
254.72154
254.72418
254.72681
254.72945
254.73208
254.73471
254.73734
254.73997
254.74259
254.74521
254.74783
254.75045
254.75306
254.75568
254.75829
254.7609
254.7635
254.76611
254.76871
254.77131
254.77391
254.7765
254.7791
254.78169
254.78428
254.78686
254.78945
254.79203
254.79461
254.79719
254.79976
254.80234
254.80491
254.80748
254.81005
254.81261
254.81517
254.81773
254.82029
254.82285
254.8254
254.82795
254.8305
254.83305
254.83559
254.83814
254.84068
254.84321
254.84575
254.84828
254.85082
254.85335
254.85587
254.8584
254.86092
254.86344
254.86596
254.86848
254.87099
254.8735
254.87601
254.87852
254.88102
254.88353
254.88603
254.88853
254.89102
254.89352
254.89601
254.8985
254.90099
254.90347
254.90596
254.90844
254.91092
254.91339
254.91587
254.91834
254.92081
254.92328
254.92575
254.92821
254.93068
254.93314
254.9356
254.93805
254.94051
254.94296
254.94541
254.94786
254.9503
254.95275
254.95519
254.95763
254.96007
254.96251
254.96494
254.96738
254.96981
254.97224
254.97466
254.97709
254.97951
254.98193
254.98435
254.98677
254.98919
254.9916
254.99401
254.99642
254.99883
255.00124
255.00365
255.00605
255.00845
255.01085
255.01325
255.01565
255.01804
255.02044
255.02283
255.02522
255.0276
255.02999
255.03237
255.03475
255.03713
255.0395
255.04188
255.04425
255.04662
255.04899
255.05136
255.05372
255.05608
255.05844
255.0608
255.06316
255.06551
255.06786
255.07021
255.07256
255.0749
255.07725
255.07959
255.08193
255.08426
255.0866
255.08893
255.09126
255.09359
255.09592
255.09825
255.10057
255.10289
255.10521
255.10753
255.10984
255.11215
255.11446
255.11677
255.11908
255.12138
255.12368
255.12598
255.12828
255.13057
255.13287
255.13516
255.13745
255.13973
255.14202
255.1443
255.14658
255.14886
255.15114
255.15341
255.15568
255.15795
255.16022
255.16248
255.16475
255.16701
255.16927
255.17153
255.17378
255.17603
255.17828
255.18053
255.18278
255.18502
255.18727
255.18951
255.19175
255.19398
255.19622
255.19845
255.20068
255.20291
255.20513
255.20736
255.20958
255.2118
255.21401
255.21623
255.21844
255.22065
255.22286
255.22507
255.22727
255.22947
255.23167
255.23387
255.23607
255.23826
255.24045
255.24264
255.24483
255.24702
255.2492
255.25138
255.25356
255.25574
255.25791
255.26009
255.26226
255.26442
255.26659
255.26876
255.27092
255.27308
255.27524
255.27739
255.27955
255.2817
255.28385
255.286
255.28815
255.29029
255.29243
255.29457
255.29671
255.29885
255.30098
255.30311
255.30524
255.30737
255.30949
255.31162
255.31374
255.31586
255.31798
255.3201
255.32221
255.32432
255.32644
255.32854
255.33065
255.33276
255.33486
255.33696
255.33906
255.34116
255.34325
255.34535
255.34744
255.34953
255.35162
255.35371
255.35579
255.35788
255.35996
255.36204
255.36412
255.36619
255.36827
255.37034
255.37241
255.37448
255.37655
255.37861
255.38068
255.38274
255.3848
255.38686
255.38892
255.39097
255.39302
255.39507
255.39712
255.39917
255.40122
255.40326
255.4053
255.40734
255.40938
255.41142
255.41345
255.41549
255.41752
255.41955
255.42157
255.4236
255.42562
255.42764
255.42966
255.43168
255.43369
255.43571
255.43772
255.43973
255.44174
255.44375
255.44575
255.44775
255.44976
255.45176
255.45375
255.45575
255.45774
255.45973
255.46172
255.46371
255.46569
255.46768
255.46966
255.47164
255.47362
255.47559
255.47757
255.47954
255.48151
255.48348
255.48544
255.48741
255.48937
255.49133
255.49329
255.49525
255.4972
255.49916
255.50111
255.50306
255.50501
255.50695
255.50889
255.51084
255.51277
255.51471
255.51665
255.51858
255.52051
255.52245
255.52437
255.5263
255.52823
255.53015
255.53207
255.53399
255.53591
255.53782
255.53974
255.54165
255.54356
255.54547
255.54737
255.54928
255.55118
255.55308
255.55498
255.55688
255.55878
255.56067
255.56256
255.56445
255.56634
255.56822
255.57011
255.57199
255.57387
255.57575
255.57762
255.5795
255.58137
255.58324
255.58511
255.58697
255.58884
255.5907
255.59256
255.59442
255.59628
255.59813
255.59999
255.60184
255.60369
255.60554
255.60738
255.60923
255.61107
255.61291
255.61475
255.61659
255.61843
255.62026
255.62209
255.62392
255.62575
255.62758
255.6294
255.63122
255.63305
255.63487
255.63668
255.6385
255.64031
255.64213
255.64394
255.64575
255.64755
255.64936
255.65116
255.65296
255.65476
255.65656
255.65836
255.66016
255.66195
255.66374
255.66553
255.66732
255.66911
255.67089
255.67267
255.67446
255.67624
255.67802
255.67979
255.68157
255.68334
255.68511
255.68689
255.68865
255.69042
255.69218
255.69395
255.69571
255.69747
255.69923
255.70099
255.70274
255.7045
255.70625
255.708
255.70975
255.7115
255.71324
255.71499
255.71673
255.71847
255.72021
255.72194
255.72368
255.72541
255.72715
255.72887
255.73061
255.73233
255.73406
255.73578
255.7375
255.73922
255.74094
255.74265
255.74437
255.74608
255.74779
255.7495
255.75121
255.75291
255.75461
255.75632
255.75802
255.75972
255.76141
255.76311
255.7648
255.76649
255.76818
255.76987
255.77155
255.77323
255.77491
255.7766
255.77827
255.77995
255.78162
255.78329
255.78497
255.78663
255.7883
255.78996
255.79163
255.79329
255.79495
255.7966
255.79826
255.79991
255.80157
255.80322
255.80487
255.80651
255.80816
255.8098
255.81144
255.81308
255.81471
255.81635
255.81798
255.81961
255.82124
255.82287
255.82449
255.82612
255.82774
255.82936
255.83098
255.83259
255.83421
255.83582
255.83743
255.83904
255.84064
255.84225
255.84385
255.84545
255.84705
255.84865
255.85024
255.85184
255.85343
255.85501
255.8566
255.85819
255.85977
255.86135
255.86293
255.86451
255.86609
255.86766
255.86923
255.8708
255.87237
255.87394
255.8755
255.87707
255.87863
255.88019
255.88174
255.8833
255.88485
255.8864
255.88795
255.8895
255.89104
255.89259
255.89413
255.89567
255.89721
255.89874
255.90028
255.90181
255.90334
255.90487
255.90639
255.90792
255.90944
255.91096
255.91248
255.914
255.91552
255.91703
255.91854
255.92005
255.92156
255.92306
255.92457
255.92607
255.92757
255.92907
255.93057
255.93207
255.93356
255.93505
255.93654
255.93803
255.93951
255.941
255.94248
255.94396
255.94544
255.94692
255.9484
255.94987
255.95134
255.95281
255.95428
255.95575
255.95721
255.95867
255.96014
255.96159
255.96305
255.96451
255.96596
255.96742
255.96886
255.97031
255.97176
255.9732
255.97465
255.97608
255.97753
255.97896
255.9804
255.98183
255.98326
255.98469
255.98612
255.98755
255.98897
255.99039
255.99181
255.99323
255.99465
255.99606
255.99748
255.99888
256.00029
256.0017
256.0031
256.00451
256.0059
256.00731
256.0087
256.0101
256.01149
256.01288
256.01427
256.01565
256.01704
256.01842
256.01981
256.02118
256.02257
256.02393
256.02531
256.02668
256.02805
256.02941
256.03078
256.03214
256.03351
256.03486
256.03622
256.03757
256.03893
256.04027
256.04163
256.04297
256.04432
256.04566
256.04701
256.04834
256.04968
256.05101
256.05235
256.05368
256.05501
256.05633
256.05766
256.05898
256.0603
256.06162
256.06294
256.06425
256.06557
256.06688
256.06819
256.06949
256.0708
256.0721
256.0734
256.0747
256.076
256.07729
256.07859
256.07988
256.08117
256.08246
256.08374
256.08503
256.08631
256.08759
256.08887
256.09014
256.09142
256.09269
256.09396
256.09523
256.09649
256.09776
256.09902
256.10028
256.10154
256.1028
256.10405
256.10531
256.10656
256.10781
256.10905
256.1103
256.11154
256.11279
256.11403
256.11526
256.1165
256.11774
256.11897
256.1202
256.12143
256.12265
256.12388
256.1251
256.12632
256.12754
256.12876
256.12998
256.13119
256.1324
256.13361
256.13482
256.13603
256.13723
256.13844
256.13964
256.14084
256.14204
256.14324
256.14443
256.14562
256.14681
256.148
256.14919
256.15037
256.15156
256.15274
256.15392
256.1551
256.15627
256.15745
256.15862
256.15979
256.16096
256.16213
256.16329
256.16446
256.16562
256.16678
256.16794
256.16909
256.17025
256.1714
256.17255
256.1737
256.17485
256.176
256.17714
256.17829
256.17943
256.18056
256.1817
256.18284
256.18397
256.1851
256.18624
256.18736
256.18849
256.18962
256.19074
256.19186
256.19298
256.19409
256.19521
256.19632
256.19743
256.19854
256.19965
256.20076
256.20186
256.20296
256.20406
256.20515
256.20625
256.20734
256.20843
256.20952
256.21061
256.2117
256.21278
256.21386
256.21494
256.21602
256.21709
256.21817
256.21924
256.2203
256.22137
256.22243
256.22349
256.22455
256.2256
256.22666
256.22771
256.22876
256.2298
256.23084
256.23189
256.23292
256.23396
256.23499
256.23602
256.23705
256.23808
256.2391
256.24012
256.24114
256.24215
256.24317
256.24417
256.24518
256.24619
256.24719
256.24818
256.24918
256.25017
256.25116
256.25214
256.25313
256.25411
256.25508
256.25606
256.25703
256.258
256.25896
256.25992
256.26087
256.26183
256.26278
256.26372
256.26467
256.26561
256.26654
256.26748
256.26841
256.26933
256.27026
256.27118
256.27209
256.27301
256.27392
256.27482
256.27572
256.27662
256.27751
256.2784
256.27929
256.28017
256.28105
256.28192
256.28279
256.28366
256.28452
256.28538
256.28623
256.28708
256.28793
256.28877
256.28961
256.29044
256.29127
256.29209
256.29292
256.29373
256.29454
256.29535
256.29615
256.29695
256.29774
256.29853
256.29932
256.3001
256.30088
256.30165
256.30242
256.30318
256.30394
256.30469
256.30544
256.30618
256.30692
256.30766
256.30839
256.30911
256.30983
256.31055
256.31126
256.31196
256.31267
256.31336
256.31405
256.31474
256.31542
256.3161
256.31677
256.31743
256.3181
256.31875
256.3194
256.32005
256.32069
256.32133
256.32196
256.32259
256.32321
256.32383
256.32444
256.32504
256.32564
256.32624
256.32683
256.32741
256.32799
256.32857
256.32914
256.32971
256.33027
256.33082
256.33137
256.33192
256.33246
256.33299
256.33352
256.33405
256.33457
256.33508
256.33559
256.33609
256.33659
256.33708
256.33757
256.33806
256.33853
256.33901
256.33947
256.33994
256.3404
256.34085
256.3413
256.34174
256.34218
256.34261
256.34304
256.34347
256.34389
256.3443
256.34471
256.34511
256.34551
256.34591
256.3463
256.34668
256.34706
256.34744
256.34781
256.34818
256.34854
256.3489
256.34925
256.3496
256.34994
256.35028
256.35061
256.35094
256.35127
256.35159
256.3519
256.35222
256.35253
256.35283
256.35313
256.35343
256.35372
256.354
256.35429
256.35457
256.35484
256.35511
256.35538
256.35564
256.3559
256.35615
256.35641
256.35665
256.35689
256.35713
256.35737
256.3576
256.35783
256.35805
256.35827
256.35849
256.3587
256.35891
256.35912
256.35932
256.35952
256.35972
256.35991
256.3601
256.36028
256.36046
256.36064
256.36082
256.36099
256.36116
256.36133
256.36149
256.36165
256.3618
256.36196
256.36211
256.36225
256.3624
256.36254
256.36268
256.36281
256.36294
256.36307
256.3632
256.36332
256.36345
256.36357
256.36368
256.3638
256.36391
256.36402
256.36412
256.36423
256.36433
256.36442
256.36452
256.36461
256.3647
256.36479
256.36487
256.36496
256.36504
256.36511
256.36519
256.36527
256.36534
256.36541
256.36548
256.36554
256.3656
256.36567
256.36573
256.36578
256.36584
256.36589
256.36594
256.36599
256.36604
256.36609
256.36613
256.36617
256.36621
256.36625
256.36628
256.36632
256.36635
256.36638
256.36641
256.36644
256.36646
256.36649
256.36651
256.36653
256.36655
256.36657
256.36659
256.36661
256.36662
256.36664
256.36665
256.36666
256.36667
256.36668
256.36668
256.36669
256.36669
256.3667
256.3667
256.3667
256.3667
256.3667
256.36669
256.36669
256.36669
256.36668
256.36668
256.36667
256.36667
256.36666
256.36665
256.36664
256.36663
256.36662
256.36661
256.36659
256.36658
256.36657
256.36656
256.36654
256.36653
256.36651
256.3665
256.36649
256.36647
256.36646
256.36644
256.36643
256.36641
256.3664
256.36638
256.36637
256.36636
256.36634
256.36633
256.36632
256.36631
256.36629
256.36628
256.36627
256.36626
256.36625
256.36624
256.36624
256.36623
256.36622
256.36622
256.36621
256.36621
256.36621
256.3662
256.3662
256.3662
256.36621
256.36621
256.36621
256.36622
256.36623
256.36624
256.36625
256.36626
256.36628
256.36629
256.36631
256.36633
256.36635
256.36637
256.36639
256.36642
256.36645
256.36648
256.36651
256.36654
256.36658
256.36662
256.36666
256.3667
256.36675
256.3668
256.36685
256.3669
256.36696
256.36701
256.36707
256.36713
256.3672
256.36727
256.36734
256.36741
256.36749
256.36757
256.36765
256.36774
256.36783
256.36792
256.36801
256.36811
256.36821
256.36831
256.36841
256.36852
256.36863
256.36875
256.36886
256.36899
256.36911
256.36924
256.36937
256.3695
256.36964
256.36978
256.36993
256.37007
256.37022
256.37038
256.37053
256.37069
256.37086
256.37102
256.37119
256.37137
256.37154
256.37172
256.37191
256.3721
256.37229
256.37248
256.37268
256.37288
256.37308
256.37329
256.3735
256.37372
256.37393
256.37416
256.37438
256.37461
256.37484
256.37508
256.37532
256.37556
256.37581
256.37606
256.37631
256.37656
256.37682
256.37709
256.37735
256.37762
256.37789
256.37817
256.37845
256.37873
256.37901
256.3793
256.37959
256.37988
256.38018
256.38048
256.38079
256.38109
256.3814
256.38172
256.38203
256.38235
256.38267
256.38299
256.38332
256.38365
256.38398
256.38432
256.38466
256.385
256.38534
256.38569
256.38604
256.38639
256.38674
256.3871
256.38746
256.38782
256.38818
256.38855
256.38891
256.38928
256.38966
256.39003
256.3904
256.39078
256.39116
256.39154
256.39193
256.39231
256.3927
256.39309
256.39348
256.39387
256.39427
256.39466
256.39506
256.39546
256.39586
256.39627
256.39667
256.39707
256.39748
256.39789
256.39829
256.3987
256.39911
256.39953
256.39994
256.40035
256.40076
256.40118
256.4016
256.40201
256.40243
256.40285
256.40327
256.40369
256.40411
256.40453
256.40495
256.40538
256.4058
256.40622
256.40665
256.40707
256.4075
256.40792
256.40835
256.40877
256.4092
256.40962
256.41005
256.41048
256.4109
256.41133
256.41175
256.41218
256.4126
256.41303
256.41346
256.41388
256.41431
256.41473
256.41516
256.41558
256.416
256.41643
256.41685
256.41727
256.41769
256.41812
256.41854
256.41896
256.41938
256.4198
256.42022
256.42063
256.42105
256.42147
256.42189
256.4223
256.42272
256.42313
256.42355
256.42396
256.42437
256.42478
256.42519
256.4256
256.42601
256.42642
256.42683
256.42723
256.42764
256.42804
256.42844
256.42884
256.42924
256.42964
256.43004
256.43044
256.43084
256.43123
256.43163
256.43202
256.43242
256.43281
256.4332
256.43359
256.43397
256.43436
256.43475
256.43513
256.43552
256.4359
256.43628
256.43666
256.43704
256.43741
256.43779
256.43817
256.43854
256.43891
256.43928
256.43965
256.44002
256.44039
256.44076
256.44112
256.44149
256.44185
256.44221
256.44258
256.44294
256.44329
256.44365
256.44401
256.44436
256.44472
256.44507
256.44542
256.44577
256.44612
256.44646
256.44681
256.44715
256.44749
256.44783
256.44817
256.44851
256.44884
256.44918
256.44951
256.44984
256.45018
256.45051
256.45084
256.45117
256.45149
256.45182
256.45215
256.45247
256.45279
256.45311
256.45343
256.45375
256.45407
256.45438
256.45469
256.455
256.45531
256.45562
256.45593
256.45623
256.45654
256.45684
256.45714
256.45744
256.45774
256.45803
256.45833
256.45862
256.45892
256.45921
256.4595
256.45979
256.46007
256.46036
256.46064
256.46093
256.46121
256.46149
256.46177
256.46205
256.46232
256.46259
256.46287
256.46314
256.4634
256.46367
256.46394
256.4642
256.46446
256.46472
256.46498
256.46524
256.4655
256.46575
256.466
256.46626
256.46651
256.46676
256.467
256.46725
256.46749
256.46773
256.46798
256.46822
256.46845
256.46869
256.46892
256.46916
256.46939
256.46962
256.46984
256.47007
256.47029
256.47051
256.47074
256.47095
256.47117
256.47139
256.4716
256.47181
256.47203
256.47223
256.47244
256.47265
256.47285
256.47305
256.47325
256.47345
256.47365
256.47384
256.47404
256.47423
256.47442
256.47461
256.47479
256.47498
256.47516
256.47534
256.47552
256.4757
256.47588
256.47605
256.47622
256.4764
256.47657
256.47673
256.4769
256.47706
256.47723
256.47739
256.47755
256.4777
256.47786
256.47801
256.47816
256.47831
256.47846
256.47861
256.47875
256.4789
256.47904
256.47918
256.47932
256.47946
256.4796
256.47974
256.47987
256.48
256.48013
256.48026
256.48038
256.48051
256.48063
256.48075
256.48087
256.48099
256.4811
256.48121
256.48133
256.48144
256.48155
256.48166
256.48176
256.48187
256.48197
256.48208
256.48218
256.48227
256.48237
256.48247
256.48256
256.48265
256.48274
256.48283
256.48292
256.48301
256.48309
256.48318
256.48326
256.48334
256.48342
256.4835
256.48358
256.48365
256.48373
256.4838
256.48387
256.48394
256.484
256.48407
256.48414
256.4842
256.48426
256.48432
256.48438
256.48444
256.48449
256.48455
256.4846
256.48465
256.4847
256.48475
256.4848
256.48485
256.48489
256.48493
256.48498
256.48502
256.48506
256.4851
256.48513
256.48517
256.4852
256.48524
256.48527
256.4853
256.48533
256.48535
256.48538
256.4854
256.48543
256.48545
256.48547
256.48549
256.4855
256.48552
256.48554
256.48555
256.48556
256.48557
256.48558
256.48559
256.4856
256.4856
256.48561
256.48561
256.48561
256.48561
256.48561
256.48561
256.4856
256.48559
256.48559
256.48558
256.48557
256.48556
256.48554
256.48553
256.48551
256.48549
256.48548
256.48546
256.48544
256.48541
256.48539
256.48536
256.48534
256.48531
256.48528
256.48525
256.48522
256.48518
256.48515
256.48511
256.48507
256.48504
256.485
256.48495
256.48491
256.48486
256.48482
256.48477
256.48472
256.48466
256.48461
256.48456
256.4845
256.48444
256.48438
256.48432
256.48426
256.4842
256.48414
256.48407
256.484
256.48393
256.48386
256.48379
256.48372
256.48364
256.48357
256.48349
256.48341
256.48333
256.48324
256.48316
256.48307
256.48299
256.4829
256.48281
256.48271
256.48262
256.48253
256.48243
256.48233
256.48223
256.48214
256.48203
256.48193
256.48183
256.48172
256.48161
256.4815
256.48139
256.48129
256.48117
256.48106
256.48095
256.48083
256.48071
256.48059
256.48047
256.48036
256.48023
256.48011
256.47998
256.47986
256.47973
256.47961
256.47947
256.47935
256.4792
256.47907
256.47893
256.47879
256.47865
256.4785
256.47837
256.47822
256.47808
256.47793
256.47778
256.47763
256.47747
256.47733
256.47717
256.47702
256.47687
256.4767
256.47655
256.47639
256.47622
256.47607
256.4759
256.47573
256.47557
256.4754
256.47523
256.47507
256.47489
256.47473
256.47455
256.47438
256.47421
256.47403
256.47385
256.47368
256.47349
256.47331
256.47313
256.47294
256.47275
256.47257
256.47238
256.47219
256.472
256.4718
256.47161
256.47141
256.47122
256.47102
256.47083
256.47063
256.47043
256.47023
256.47002
256.46982
256.46961
256.46941
256.4692
256.46899
256.46878
256.46856
256.46835
256.46814
256.46792
256.46771
256.46749
256.46727
256.46705
256.46683
256.46661
256.46638
256.46616
256.46593
256.46571
256.46548
256.46525
256.46503
256.46479
256.46456
256.46433
256.46409
256.46386
256.46362
256.46339
256.46315
256.46291
256.46267
256.46243
256.46218
256.46194
256.4617
256.46145
256.4612
256.46095
256.4607
256.46045
256.46019
256.45994
256.45968
256.45943
256.45917
256.45891
256.45865
256.45839
256.45813
256.45787
256.45761
256.45735
256.45708
256.45682
256.45655
256.45629
256.45602
256.45575
256.45548
256.45521
256.45494
256.45466
256.45439
256.45412
256.45384
256.45357
256.45329
256.45302
256.45274
256.45246
256.45218
256.4519
256.45162
256.45133
256.45105
256.45076
256.45048
256.45019
256.4499
256.44962
256.44933
256.44904
256.44874
256.44845
256.44816
256.44786
256.44757
256.44727
256.44697
256.44667
256.44638
256.44608
256.44577
256.44547
256.44516
256.44486
256.44455
256.44424
256.44393
256.44362
256.44331
256.443
256.44269
256.44238
256.44206
256.44175
256.44144
256.44112
256.44081
256.44049
256.44017
256.43986
256.43954
256.43923
256.43891
256.43858
256.43827
256.43795
256.43763
256.43731
256.43699
256.43666
256.43634
256.43602
256.43569
256.43537
256.43503
256.4347
256.43437
256.43405
256.43372
256.43339
256.43305
256.43271
256.43238
256.43205
256.43172
256.43138
256.43103
256.43068
256.43034
256.42999
256.42965
256.42931
256.42896
256.4286
256.42824
256.42787
256.42751
256.42714
256.42677
256.42639
256.426
256.42559
256.42519
256.4248
256.42441
256.42402
256.42362
256.4232
256.42276
256.42231
256.42187
256.42143
256.421
256.42055
256.4201
256.41962
256.41913
256.41865
256.41818
256.41771
256.41725
256.41678
256.41629
256.41577
256.41523
256.4147
256.41417
256.41367
256.41319
256.41272
256.41224
256.41175
256.41125
256.41074
256.41025
256.40978
256.40935
256.40895
256.40857
256.40819
256.40781
256.4074
256.40698
256.40656
256.40615
256.40578
256.40544
256.40513
256.40485
256.40457
256.40428
256.40397
256.40363
256.40326
256.40287
256.40248
256.40209
256.40172
256.40138
256.40107
256.40078
256.4005
256.4002
256.39988
256.3995
256.39906
256.39856
256.398
256.3974
256.39677
256.39613
256.39551
256.39491
256.39434
256.39382
256.39335
256.39295
256.39263
256.39239
256.39224
256.39216
256.39214
256.39219
256.39229
256.39253
256.39314
256.39488
256.39988
256.41419
256.45507
256.57211
256.90579
257.48677
258.12659
258.80826
259.52074
260.25305
260.99437
261.73447
262.46402
263.17468
263.85925
264.51178
265.12755
265.70311
266.23619
266.72558
267.17107
267.57328
267.93354
268.25375
268.53624
268.78365
268.9988
269.18463
269.34406
269.47996
269.59504
269.69188
269.77286
269.84015
269.8957
269.94126
269.97836
270.00835
270.03242
270.05155
270.06663
270.07838
270.08741
270.09427
270.09936
270.10307
270.10568
270.10745
270.10857
270.10921
270.10952
270.10961
270.1096
270.10951
270.1091
270.10801
270.10676
270.10556
270.10441
270.10329
270.10221
270.10115
270.10013
270.09912
270.09813
270.09716
270.0962
270.09525
270.09432
270.09339
270.09247
270.09156
270.09064
270.08973
270.08881
270.08789
270.08696
270.08603
270.08509
270.08414
270.08318
270.0822
270.08122
270.08023
270.07922
270.07821
270.07718
270.07615
270.07511
270.07406
270.07301
270.07195
270.07089
270.06983
270.06877
270.06771
270.06665
270.0656
270.06455
270.0635
270.06246
270.06143
270.0604
270.05938
270.05837
270.05736
270.05636
270.05537
270.05439
270.05342
270.05245
270.05149
270.05054
270.0496
270.04866
270.04772
270.04679
270.04587
270.04495
270.04404
270.04313
270.04222
270.04131
270.04041
270.03951
270.03861
270.03772
270.03682
270.03593
270.03504
270.03415
270.03326
270.03237
270.03148
270.0306