/*--------------------------------*- C++ -*----------------------------------*\
  =========                 |
  \\      /  F ield         | OpenFOAM: The Open Source CFD Toolbox
   \\    /   O peration     | Website:  https://openfoam.org
    \\  /    A nd           | Version:  7
     \\/     M anipulation  |
\*---------------------------------------------------------------------------*/
FoamFile
{
    version     2.0;
    format      ascii;
    class       volVectorField;
    location    "0.00273";
    object      U;
}
// * * * * * * * * * * * * * * * * * * * * * * * * * * * * * * * * * * * * * //

dimensions      [0 1 -1 0 0 0 0];

internalField   nonuniform List<vector> 
5000
(
(-84.411848 3.7266552e-17 0)
(-84.356835 3.7879266e-17 0)
(-84.330803 0 0)
(-84.301005 0 0)
(-84.272206 -2.0115979e-17 0)
(-84.243196 2.2873049e-32 -2.0119347e-17)
(-84.214233 2.0122757e-17 -4.2894237e-32)
(-84.185223 0 6.0371706e-17)
(-84.156214 0 2.0124681e-17)
(-84.127164 -2.0125644e-17 -4.0251288e-17)
(-84.098112 -4.0252012e-17 -4.0252012e-17)
(-84.069024 2.0126429e-17 2.0126429e-17)
(-84.039936 2.0126126e-17 -1.7160567e-31)
(-84.010818 -2.0125814e-17 -1.7732311e-31)
(-83.981701 0 4.0249477e-17)
(-83.952563 -2.012365e-17 -4.02473e-17)
(-83.923424 1.1688265e-49 5.8441327e-50)
(-83.894273 2.012005e-17 -1.7727232e-31)
(-83.865122 0 -2.0117605e-17)
(-83.835965 2.0115268e-17 4.0230535e-17)
(-83.806807 -2.0112355e-17 2.0112355e-17)
(-83.777648 -2.0109595e-17 0)
(-83.748488 4.0212668e-17 0)
(-83.71933 -2.0103291e-17 -2.0103291e-17)
(-83.690172 -2.0099754e-17 1.7138081e-31)
(-83.661017 -1.656411e-31 -1.656411e-31)
(-83.631863 2.009273e-17 -2.009273e-17)
(-83.602712 2.0089261e-17 2.0089261e-17)
(-83.573565 -4.0170688e-17 2.0085344e-17)
(-83.544421 3.4816168e-31 -2.0081722e-17)
(-83.515281 -3.5094461e-31 3.5094461e-31)
(-83.486145 2.0073926e-17 -1.7116059e-31)
(-83.457014 4.0139533e-17 -2.0069766e-17)
(-83.427887 -4.0131863e-17 2.0065932e-17)
(-83.398765 3.478144e-31 2.006169e-17)
(-83.369649 -1.7444341e-30 0)
(-83.340537 -6.9534405e-31 0)
(-83.31143 4.0099029e-17 -2.0049514e-17)
(-83.282329 -4.0090314e-17 -2.0045157e-17)
(-83.253233 -4.0082289e-17 2.0041145e-17)
(-83.224142 4.0073484e-17 -3.3599229e-31)
(-83.195057 -1.3778589e-30 -2.0032687e-17)
(-83.165977 -4.0056485e-17 2.0028243e-17)
(-83.136902 2.0024148e-17 -3.386267e-31)
(-83.107833 6.0058996e-17 -2.0019665e-17)
(-83.078769 -2.0015533e-17 2.0015533e-17)
(-83.04971 -2.0011015e-17 -6.8818416e-31)
(-83.020657 -1.3703954e-30 6.8519769e-31)
(-82.991609 -4.0004585e-17 -6.8788421e-31)
(-82.962566 0 3.4102792e-31)
(-82.933529 1.9993497e-17 1.9993497e-17)
(-82.904497 2.8406439e-33 0)
(-82.87547 -1.9984622e-17 0)
(-82.846448 3.9960672e-17 0)
(-82.817431 -6.9832306e-31 0)
(-82.78842 -3.9942646e-17 0)
(-82.759413 1.9966593e-17 0)
(-82.730412 -6.8934246e-31 0)
(-82.701415 -1.9957424e-17 0)
(-82.672424 0 0)
(-82.643438 1.9948149e-17 0)
(-82.614456 6.8019933e-31 0)
(-82.585479 5.6669379e-33 0)
(-82.556508 1.9934217e-17 -1.9934217e-17)
(-82.527541 -1.9929271e-17 -1.9929271e-17)
(-82.498578 6.9654042e-31 1.9924664e-17)
(-82.46962 1.9919657e-17 -3.4252118e-31)
(-82.440667 -1.9914988e-17 -1.5354471e-49)
(-82.411718 -1.9909914e-17 1.9909914e-17)
(-82.382774 1.9905174e-17 0)
(-82.353834 1.9900026e-17 0)
(-82.324899 -1.989521e-17 -1.989521e-17)
(-82.295967 -1.9889983e-17 -1.9889983e-17)
(-82.26704 3.9770169e-17 0)
(-82.238117 1.9879773e-17 1.9879773e-17)
(-82.209198 -1.9874789e-17 6.863237e-31)
(-82.180283 0 -1.986939e-17)
(-82.151373 1.9864317e-17 -1.9864317e-17)
(-82.122465 -2.8221092e-33 1.9858828e-17)
(-82.093562 -1.9853663e-17 3.9707326e-17)
(-82.064662 1.9848079e-17 -3.9696158e-17)
(-82.035767 -5.6396678e-33 1.1279336e-32)
(-82.006874 5.6380524e-33 5.95114e-17)
(-81.977985 1.9831768e-17 -3.9663535e-17)
(-81.949099 1.9825976e-17 -2.0623665e-30)
(-81.920217 6.9008226e-31 3.9640997e-17)
(-81.891337 -1.9814591e-17 -5.9443773e-17)
(-81.862461 0 1.9808993e-17)
(-81.833587 -1.9802961e-17 1.9802961e-17)
(-81.804716 -2.0537501e-30 -1.9797235e-17)
(-81.775848 -6.9187009e-31 1.9791069e-17)
(-81.746983 1.9785205e-17 1.9785205e-17)
(-81.71812 1.9778898e-17 6.8863385e-31)
(-81.68926 -3.9545776e-17 -3.9545776e-17)
(-81.660402 -1.3679726e-30 -1.3679726e-30)
(-81.631547 1.9760267e-17 -1.9760267e-17)
(-81.602693 0 -1.9753652e-17)
(-81.573842 0 -6.9314722e-31)
(-81.544992 -1.9740549e-17 1.3745974e-30)
(-81.516145 -1.3685368e-30 3.946812e-17)
(-81.487299 3.9454228e-17 1.9727114e-17)
(-81.458454 -1.9720454e-17 -1.9720454e-17)
(-81.429611 -3.9426668e-17 2.8014332e-33)
(-81.40077 0 1.9706496e-17)
(-81.371929 1.9699195e-17 0)
(-81.34309 1.9692171e-17 -1.9692171e-17)
(-81.314251 -1.9684678e-17 -6.8535345e-31)
(-81.285413 -1.9677461e-17 1.9677461e-17)
(-81.256575 0 -1.9669765e-17)
(-81.227738 0 -1.9662348e-17)
(-81.198901 1.9654443e-17 3.9308887e-17)
(-81.170064 1.9646807e-17 1.9646807e-17)
(-81.141226 0 -5.891606e-17)
(-81.112389 -1.9630828e-17 -1.9630828e-17)
(-81.08355 6.859764e-31 5.8867436e-17)
(-81.054712 1.9614386e-17 -1.9614386e-17)
(-81.025872 -1.9605798e-17 -1.9605798e-17)
(-80.997032 5.5699327e-33 -1.1139865e-32)
(-80.968189 -6.8479264e-31 -1.9588617e-17)
(-80.939346 -3.4823106e-49 5.8740054e-17)
(-80.9105 3.9141821e-17 -1.3683473e-30)
(-80.881654 -8.3397989e-33 -3.9124078e-17)
(-80.852804 -1.9552654e-17 3.9105308e-17)
(-80.823954 0 1.9543501e-17)
(-80.795099 -1.9533828e-17 -1.9533828e-17)
(-80.766244 1.9524383e-17 1.9524383e-17)
(-80.737383 1.9514415e-17 -1.9514415e-17)
(-80.708522 -3.9009336e-17 -3.9009336e-17)
(-80.679655 -1.9494392e-17 1.9494392e-17)
(-80.650788 3.8968663e-17 6.7284027e-31)
(-80.621913 1.9473735e-17 1.9473735e-17)
(-80.593038 -1.9463348e-17 3.8926697e-17)
(-80.564155 -1.945242e-17 -1.945242e-17)
(-80.535271 -1.9441694e-17 -1.9441694e-17)
(-80.506378 0 -1.9430422e-17)
(-80.477486 1.9419348e-17 -6.7611555e-31)
(-80.448582 1.9407721e-17 -6.7295275e-31)
(-80.419679 -1.9396288e-17 6.7531268e-31)
(-80.390763 -6.7214052e-31 3.8768594e-17)
(-80.361848 1.9372492e-17 1.9372492e-17)
(-80.33292 -1.9360124e-17 -1.9360124e-17)
(-80.303992 -1.9347934e-17 -3.8695867e-17)
(-80.27505 0 -1.9335173e-17)
(-80.246108 1.9322583e-17 -1.9322583e-17)
(-80.217151 1.9309415e-17 1.3390881e-30)
(-80.188194 -1.929641e-17 3.859282e-17)
(-80.15922 1.928282e-17 -5.4805072e-33)
(-80.130246 -1.0953378e-32 5.4766892e-33)
(-80.101255 -1.9255363e-17 5.2585346e-48)
(-80.072264 1.9241489e-17 1.9241489e-17)
(-80.043254 -1.9227018e-17 -1.3333739e-30)
(-80.014243 1.3378409e-30 2.6756818e-30)
(-79.985213 1.9197761e-17 1.9197761e-17)
(-79.956182 -1.9182967e-17 -1.9182967e-17)
(-79.92713 1.9167565e-17 1.9167565e-17)
(-79.898078 1.9152294e-17 6.6409593e-31)
(-79.869003 -1.9136408e-17 -1.9136408e-17)
(-79.839927 0 1.9120646e-17)
(-79.810828 0 -2.7148792e-33)
(-79.781728 -1.9088e-17 -1.9088e-17)
(-79.752603 -1.907111e-17 0)
(-79.723476 1.9054331e-17 1.9054331e-17)
(-79.694323 1.903692e-17 1.3174855e-30)
(-79.665169 -1.9019613e-17 -3.8039225e-17)
(-79.635987 -1.317746e-30 1.9001666e-17)
(-79.606804 1.8983815e-17 -5.3955246e-33)
(-79.577592 -1.8965317e-17 -1.8965317e-17)
(-79.548377 -1.8946908e-17 1.8946908e-17)
(-79.519133 0 -1.8927846e-17)
(-79.489886 1.8908866e-17 1.8908866e-17)
(-79.460607 1.8889228e-17 -7.8704286e-30)
(-79.431326 0 -5.234368e-30)
(-79.402012 -1.8849443e-17 1.8849443e-17)
(-79.372696 -1.8829289e-17 -3.7658578e-17)
(-79.343344 0 0)
(-79.31399 1.8787709e-17 -1.3029083e-30)
(-79.2846 3.9042659e-30 -3.9042659e-30)
(-79.255206 -1.8744902e-17 1.8744902e-17)
(-79.225775 1.8722848e-17 1.8722848e-17)
(-79.19634 1.8700846e-17 1.2889118e-30)
(-79.166867 -1.8678159e-17 -1.8678159e-17)
(-79.137389 -1.2884389e-30 1.8655519e-17)
(-79.107871 1.2815321e-30 1.2815321e-30)
(-79.078349 7.9334538e-33 7.9334538e-33)
(-79.048785 1.8584931e-17 2.5750506e-30)
(-79.019215 -1.8560995e-17 -3.712199e-17)
(-78.989603 -2.5709558e-30 1.8536366e-17)
(-78.959985 1.2732494e-30 1.8511769e-17)
(-78.930323 -1.2715096e-30 -1.2715096e-30)
(-78.900654 1.8461207e-17 1.2723952e-30)
(-78.87094 0 -3.8327743e-30)
(-78.841219 0 1.271433e-30)
(-78.81145 -1.8382635e-17 -1.8382635e-17)
(-78.781674 -1.8355999e-17 0)
(-78.751849 0 0)
(-78.722017 0 0)
(-78.692134 1.8273274e-17 0)
(-78.662243 1.3012748e-48 -1.8245238e-17)
(-78.6323 -1.8216488e-17 3.7976502e-30)
(-78.602349 0 1.8187745e-17)
(-78.572343 1.8158287e-17 1.8158287e-17)
(-78.542329 -1.8128834e-17 -1.8128834e-17)
(-78.51226 -5.0153512e-30 -1.8098665e-17)
(-78.482181 3.6136995e-17 3.6136995e-17)
(-78.452045 -1.8037613e-17 1.2483266e-30)
(-78.421899 -3.7385672e-30 -3.7385672e-30)
(-78.391695 -2.5544185e-33 -1.7975123e-17)
(-78.36148 -1.7943513e-17 -1.7943513e-17)
(-78.331205 1.7911184e-17 1.7911184e-17)
(-78.300919 -2.5407373e-33 0)
(-78.270572 -2.4701028e-30 1.7845794e-17)
(-78.240212 1.2327632e-30 1.2327632e-30)
(-78.209791 -1.7778952e-17 -1.7778952e-17)
(-78.179356 0 -1.7745165e-17)
(-78.148858 1.771066e-17 2.4664994e-30)
(-78.118346 1.2233109e-30 1.7676151e-17)
(-78.087768 4.8960282e-30 -3.5281859e-17)
(-78.057177 1.7605699e-17 1.7605699e-17)
(-78.026518 0 1.7569762e-17)
(-77.995845 -1.7533816e-17 -1.7533816e-17)
(-77.965103 -1.7497158e-17 1.7497158e-17)
(-77.934347 0 0)
(-77.90352 0 0)
(-77.872679 0 0)
(-77.841763 1.7347608e-17 1.7347608e-17)
(-77.810835 1.1979341e-30 -1.730947e-17)
(-77.77983 -1.7270608e-17 -3.4541215e-17)
(-77.748812 0 1.7231707e-17)
(-77.717716 0 -1.1946957e-30)
(-77.686607 1.7152391e-17 1.7152391e-17)
(-77.655419 1.7111968e-17 1.7111968e-17)
(-77.624216 -1.7071491e-17 -3.4142982e-17)
(-77.592934 -1.7030273e-17 4.8402947e-33)
(-77.561636 0 -4.8285652e-33)
(-77.530258 1.6947001e-17 1.6947001e-17)
(-77.498864 1.6904959e-17 1.6904959e-17)
(-77.467388 -1.6862226e-17 -3.3724451e-17)
(-77.435896 -1.6819473e-17 2.3901909e-33)
(-77.404319 0 -3.4948282e-30)
(-77.372726 1.6731994e-17 1.6731994e-17)
(-77.341048 -4.6340645e-30 -9.2681291e-30)
(-77.309353 -1.1542816e-30 -2.3085631e-30)
(-77.277572 1.6600322e-17 1.6600322e-17)
(-77.245773 -1.6556312e-17 -1.6556312e-17)
(-77.213886 -1.6511702e-17 0)
(-77.181979 0 -1.646722e-17)
(-77.149983 1.642244e-17 1.642244e-17)
(-77.117966 -2.2762356e-30 1.6377897e-17)
(-77.085859 1.6332904e-17 -1.6332904e-17)
(-77.053729 2.2591359e-30 0)
(-77.021506 -3.2486138e-17 -1.6243069e-17)
(-76.989261 1.6198176e-17 1.6198176e-17)
(-76.95692 -2.2403661e-30 1.6152843e-17)
(-76.924556 -5.5921297e-30 -5.5921297e-30)
(-76.892095 -1.1116061e-30 -3.2124159e-17)
(-76.85961 -1.6016568e-17 -3.2033135e-17)
(-76.827028 1.5970522e-17 4.7911566e-17)
(-76.79442 1.5924535e-17 3.1849071e-17)
(-76.761714 0 0)
(-76.728982 -1.5831379e-17 -3.1662758e-17)
(-76.696151 -1.5784176e-17 -1.5784176e-17)
(-76.663295 0 1.5736935e-17)
(-76.630338 1.5689041e-17 1.5689041e-17)
(-76.597356 1.564109e-17 1.564109e-17)
(-76.564273 -3.1184973e-17 -3.1184973e-17)
(-76.531165 -1.5543824e-17 -3.1087647e-17)
(-76.497955 1.5494523e-17 1.5494523e-17)
(-76.464721 1.5445176e-17 3.0890352e-17)
(-76.431384 4.2705696e-30 4.2705696e-30)
(-76.398023 -1.5345236e-17 -3.0690472e-17)
(-76.364559 1.529468e-17 1.529468e-17)
(-76.331071 -1.0571648e-30 -2.1143296e-30)
(-76.297479 -1.5193048e-17 -1.5193048e-17)
(-76.263863 1.5142004e-17 3.0284008e-17)
(-76.230143 -1.0486521e-30 -1.5090456e-17)
(-76.196399 1.0472122e-30 2.0944243e-30)
(-76.16255 -4.259572e-33 1.4987037e-17)
(-76.128677 -1.0314946e-30 -1.4935181e-17)
(-76.094698 1.4882895e-17 1.4882895e-17)
(-76.060696 0 -2.9661429e-17)
(-76.026587 0 6.1658863e-30)
(-75.992454 -1.4725662e-17 2.9451324e-17)
(-75.958215 -1.4672802e-17 -2.9345604e-17)
(-75.923952 0 -1.0118106e-30)
(-75.889581 0 1.4567017e-17)
(-75.855187 0 0)
(-75.820685 0 0)
(-75.786159 1.4407741e-17 1.4407741e-17)
(-75.751524 9.8933959e-31 -1.4354347e-17)
(-75.716866 -2.8602252e-17 -2.8602252e-17)
(-75.682098 6.0740962e-33 1.4247551e-17)
(-75.647308 1.4194168e-17 -4.0342251e-33)
(-75.612408 1.4140538e-17 1.4140538e-17)
(-75.577484 -1.9558517e-30 1.4087085e-17)
(-75.54245 -1.9443928e-30 -1.403328e-17)
(-75.507394 -1.9866342e-33 0)
(-75.472227 -1.3925937e-17 -1.3925937e-17)
(-75.437037 -1.3872385e-17 -1.3872385e-17)
(-75.401736 -1.3818517e-17 0)
(-75.366413 2.7529768e-17 2.7529768e-17)
(-75.330979 4.1133152e-17 1.3711051e-17)
(-75.295523 -1.3657428e-17 -2.7314857e-17)
(-75.259955 -2.7207179e-17 9.4146174e-31)
(-75.224365 0 -3.851143e-33)
(-75.188664 1.349621e-17 1.349621e-17)
(-75.152941 1.3442655e-17 1.3442655e-17)
(-75.117106 -1.3388929e-17 -1.3388929e-17)
(-75.08125 3.7901669e-33 1.3335464e-17)
(-75.045282 -5.6623873e-33 -1.3281836e-17)
(-75.009293 3.7597624e-33 7.5195248e-33)
(-74.973192 1.3174978e-17 2.6349956e-17)
(-74.937071 1.3121735e-17 -1.3121735e-17)
(-74.900838 -1.3068348e-17 -1.3068348e-17)
(-74.864585 -2.6030432e-17 -1.3015216e-17)
(-74.828219 1.2961934e-17 -1.7977936e-30)
(-74.791834 2.5257626e-48 1.2908943e-17)
(-74.755337 1.2855869e-17 0)
(-74.718821 3.5478891e-30 0)
(-74.682193 -2.5500487e-17 -1.2750243e-17)
(-74.645547 0 1.7629543e-30)
(-74.608789 0 -3.5095297e-30)
(-74.572012 2.5185954e-17 -1.7501991e-30)
(-74.535124 -6.9645153e-30 1.2540537e-17)
(-74.498219 -2.4976886e-17 -1.2488443e-17)
(-74.461202 0 1.7673196e-33)
(-74.424169 1.2384535e-17 1.2384535e-17)
(-74.387021 1.2332328e-17 0)
(-74.349861 -1.2280726e-17 0)
(-74.312586 1.7379411e-33 0)
(-74.275301 -1.6908842e-30 0)
(-74.237897 1.7233145e-33 0)
(-74.200486 1.2075808e-17 0)
(-74.16296 -1.2026449e-17 0)
(-74.125424 -1.1976544e-17 -1.1976544e-17)
(-74.087775 0 0)
(-74.050108 1.1872562e-17 1.1872562e-17)
(-74.012347 -1.6417102e-30 0)
(-73.974553 -1.1774081e-17 -1.1774081e-17)
(-73.936669 2.34487e-17 -3.2522864e-30)
(-73.898752 -3.2386371e-30 1.1675145e-17)
(-73.860749 -1.1625906e-17 0)
(-73.822708 -3.2146659e-30 0)
(-73.784589 -2.3055927e-17 -1.1527963e-17)
(-73.746426 2.2958757e-17 -1.5937975e-30)
(-73.708191 1.143096e-17 1.143096e-17)
(-73.669908 -1.1382808e-17 0)
(-73.631558 -1.6107786e-33 0)
(-73.593156 -1.1287148e-17 -1.1287148e-17)
(-73.554691 0 -1.1239668e-17)
(-73.516173 0 1.1192443e-17)
(-73.477595 1.1145457e-17 1.1145457e-17)
(-73.438961 -1.53937e-30 0)
(-73.400272 -2.2104479e-17 -1.105224e-17)
(-73.361525 1.5640472e-33 1.5640472e-33)
(-73.322724 3.2880066e-17 1.0960022e-17)
(-73.283865 -1.0914283e-17 -1.0914283e-17)
(-73.244954 -1.08688e-17 -1.08688e-17)
(-73.205986 2.1647118e-17 1.0823559e-17)
(-73.166967 -1.0778581e-17 1.0778581e-17)
(-73.127891 1.073385e-17 0)
(-73.088764 2.1378778e-17 -1.0689389e-17)
(-73.049582 -1.0645181e-17 -1.0645181e-17)
(-73.010349 -1.060125e-17 1.060125e-17)
(-72.971062 -1.0557578e-17 1.0557578e-17)
(-72.931726 1.0514187e-17 0)
(-72.892336 4.0905674e-48 -1.0471058e-17)
(-72.852898 -1.0428215e-17 -1.0428215e-17)
(-72.813406 1.0385637e-17 1.0385637e-17)
(-72.773867 -1.0343348e-17 1.0343348e-17)
(-72.734275 1.030133e-17 0)
(-72.694637 2.8430565e-30 0)
(-72.654948 2.9041753e-33 0)
(-72.615212 1.0177013e-17 0)
(-72.575426 -2.0272304e-17 0)
(-72.535595 1.0095604e-17 0)
(-72.495714 2.792171e-30 0)
(-72.45579 -2.7782373e-30 0)
(-72.415815 -9.9758042e-18 -9.9758042e-18)
(-72.375798 -1.9873044e-17 -2.9804533e-47)
(-72.335732 2.9692686e-17 9.8975621e-18)
(-72.295624 2.7348327e-30 0)
(-72.255468 -5.4484313e-30 0)
(-72.21527 2.7109185e-30 0)
(-72.175025 -1.9490405e-17 -9.7452027e-18)
(-72.134739 1.9416024e-17 -1.3464813e-30)
(-72.094408 -2.6827462e-30 9.6711825e-18)
(-72.054035 -1.9269466e-17 -9.6347332e-18)
(-72.013617 0 1.3326777e-30)
(-71.973159 0 -1.3589784e-33)
(-71.932657 9.5276417e-18 -1.3228183e-30)
(-71.892114 -1.3166189e-30 9.4927071e-18)
(-71.851529 -9.4581482e-18 -9.4581482e-18)
(-71.810903 -9.4239669e-18 9.4239669e-18)
(-71.770236 9.3901551e-18 -5.2175873e-30)
(-71.729529 2.8070126e-17 -9.3567087e-18)
(-71.688781 -9.3236196e-18 9.3236196e-18)
(-71.647994 -9.2908784e-18 0)
(-71.607167 -2.6314174e-33 0)
(-71.566301 -9.2264028e-18 -9.2264028e-18)
(-71.525396 0 -1.2765855e-30)
(-71.484453 1.8326399e-17 9.1631993e-18)
(-71.443472 1.8264099e-17 -9.1320497e-18)
(-71.402454 -9.1011848e-18 -9.1011848e-18)
(-71.361399 -1.8141201e-17 0)
(-71.320307 -9.0402829e-18 9.0402829e-18)
(-71.27918 1.802046e-17 9.0102298e-18)
(-71.238016 1.7960855e-17 -8.9804277e-18)
(-71.196818 -1.7901753e-17 -2.4842083e-30)
(-71.155585 -1.7843127e-17 5.5519605e-48)
(-71.114319 0 -1.2346339e-30)
(-71.073018 1.7727294e-17 8.863647e-18)
(-71.031685 -8.8350363e-18 -8.8350363e-18)
(-70.990318 -1.7613299e-17 -2.1505907e-47)
(-70.948921 8.7784928e-18 -1.2188064e-30)
(-70.907491 8.750559e-18 -8.750559e-18)
(-70.866031 -1.2395924e-33 0)
(-70.824539 1.2072668e-30 0)
(-70.783019 8.6681356e-18 8.6681356e-18)
(-70.741468 -8.6411228e-18 1.2279774e-33)
(-70.699889 -8.6143496e-18 -3.5843777e-30)
(-70.65828 8.5878116e-18 8.5878116e-18)
(-70.616645 -1.187465e-30 0)
(-70.57498 -1.2129625e-33 0)
(-70.533289 -1.1802723e-30 -8.5096599e-18)
(-70.491571 -8.4840986e-18 2.3522484e-30)
(-70.449827 8.4587891e-18 8.4587891e-18)
(-70.408056 -3.5128168e-30 0)
(-70.366261 -1.1674945e-30 0)
(-70.324439 -2.3269776e-30 0)
(-70.282594 -8.3600521e-18 -8.3600521e-18)
(-70.240723 8.3359966e-18 1.1846164e-33)
(-70.19883 -1.1540659e-30 8.3121976e-18)
(-70.156912 -2.298059e-30 -8.2886482e-18)
(-70.114972 -1.1745776e-33 8.2653548e-18)
(-70.073007 -1.648462e-17 -2.2910681e-30)
(-70.031022 -8.2195196e-18 -1.6439039e-17)
(-69.989014 8.1969761e-18 8.1969761e-18)
(-69.946985 1.6349371e-17 3.4049212e-30)
(-69.904933 -1.1319129e-30 1.1319129e-30)
(-69.862862 -1.6261688e-17 -1.1288868e-30)
(-69.820769 -8.1092908e-18 -8.1092908e-18)
(-69.778657 1.6175969e-17 0)
(-69.736524 8.0669175e-18 0)
(-69.694372 -8.046094e-18 8.046094e-18)
(-69.6522 -8.0255059e-18 1.1142617e-30)
(-69.61001 -2.2217355e-30 -2.2217355e-30)
(-69.567801 7.9850418e-18 9.487337e-49)
(-69.525575 0 -7.9651618e-18)
(-69.483329 0 7.9455092e-18)
(-69.441068 7.9260881e-18 7.9260881e-18)
(-69.398788 0 0)
(-69.356492 -7.8879175e-18 -7.8879175e-18)
(-69.314178 7.8691635e-18 -1.0925551e-30)
(-69.27185 1.1156419e-33 7.8506319e-18)
(-69.229504 -2.1737649e-30 0)
(-69.187144 0 0)
(-69.144767 -7.7963303e-18 -7.7963303e-18)
(-69.102377 7.7786597e-18 2.2108281e-33)
(-69.05997 7.7611968e-18 8.2233616e-49)
(-69.017551 -1.5487891e-17 -7.7439457e-18)
(-68.975116 -7.7268975e-18 7.7268975e-18)
(-68.932669 7.7100562e-18 -1.0682733e-30)
(-68.890207 0 1.0681538e-30)
(-68.847732 0 -2.1306512e-30)
(-68.805244 -7.660723e-18 -7.660723e-18)
(-68.762744 2.1238597e-30 7.6446722e-18)
(-68.720231 7.6288105e-18 -2.1183689e-30)
(-68.677706 0 2.1151e-30)
(-68.635169 0 -2.1107984e-30)
(-68.592621 -7.5823646e-18 -7.5823646e-18)
(-68.550061 3.1529881e-30 7.5672515e-18)
(-68.507491 7.5523237e-18 -2.09713e-30)
(-68.464908 0 1.0486593e-30)
(-68.422317 0 0)
(-68.379714 0 -7.508608e-18)
(-68.337102 0 7.4943897e-18)
(-68.294479 0 -1.0385709e-30)
(-68.251848 0 1.0610484e-33)
(-68.209206 0 -1.0347406e-30)
(-68.166556 0 1.0339174e-30)
(-68.123896 1.4851651e-17 7.4258254e-18)
(-68.081229 4.1145588e-30 -7.4126046e-18)
(-68.038552 -7.3995387e-18 -7.3995387e-18)
(-67.995868 7.3866314e-18 7.3866314e-18)
(-67.953174 -7.3738746e-18 7.3738746e-18)
(-67.910475 7.3612721e-18 0)
(-67.867766 -2.0427086e-30 -7.3488161e-18)
(-67.825052 -7.3365104e-18 -7.3365104e-18)
(-67.782329 -2.0338255e-30 0)
(-67.7396 -7.312331e-18 7.312331e-18)
(-67.696864 0 -1.0135954e-30)
(-67.654122 0 1.0357895e-33)
(-67.611373 7.2771233e-18 1.009322e-30)
(-67.568619 2.017531e-30 -7.2656666e-18)
(-67.525857 -7.2543425e-18 7.2543425e-18)
(-67.483091 0 1.0046107e-30)
(-67.440319 0 -2.0082089e-30)
(-67.397542 0 -7.2211672e-18)
(-67.354759 0 -7.2103619e-18)
(-67.311972 0 1.4399366e-17)
(-67.269179 0 -1.0216357e-33)
(-67.226382 0 9.9566867e-31)
(-67.18358 1.4336719e-17 7.1683596e-18)
(-67.140775 -5.9589621e-30 -7.1581543e-18)
(-67.097964 -1.429612e-17 9.9243704e-31)
(-67.05515 7.1380817e-18 7.1380817e-18)
(-67.012332 1.0129797e-33 0)
(-66.969511 7.1184523e-18 0)
(-66.926685 -3.9418817e-30 0)
(-66.883857 -1.4198499e-17 -7.0992496e-18)
(-66.841025 -7.089801e-18 -7.089801e-18)
(-66.798191 -4.3709637e-49 7.0804554e-18)
(-66.755352 2.1213613e-17 7.0712044e-18)
(-66.712512 0 0)
(-66.669668 -1.4105982e-17 -7.0529911e-18)
(-66.626823 0 -7.0440252e-18)
(-66.583975 0 7.0351467e-18)
(-66.541125 1.405272e-17 7.0263602e-18)
(-66.498272 -1.9466694e-30 0)
(-66.455418 -2.1027131e-17 -7.0090438e-18)
(-66.412561 7.0005106e-18 -7.0005106e-18)
(-66.369704 6.9920627e-18 6.9920627e-18)
(-66.326844 -6.983696e-18 1.9392334e-30)
(-66.283983 6.9754071e-18 -6.9754071e-18)
(-66.24112 -6.9671926e-18 0)
(-66.198257 -1.9304147e-30 0)
(-66.155392 6.9510018e-18 0)
(-66.112527 -6.9430243e-18 0)
(-66.069659 0 6.9351227e-18)
(-66.026792 -6.9273047e-18 -1.9216058e-30)
(-65.983924 6.9195643e-18 -6.9195643e-18)
(-65.941056 1.3823821e-17 6.9119107e-18)
(-65.898186 -6.9043387e-18 9.5859873e-31)
(-65.855317 -6.8968572e-18 -9.585401e-31)
(-65.812446 -6.8894613e-18 3.4326008e-49)
(-65.769576 -6.8821599e-18 6.8821599e-18)
(-65.726705 1.3749897e-17 6.8749484e-18)
(-65.683835 6.8678353e-18 -1.3735671e-17)
(-65.640963 -6.8608167e-18 -9.5255614e-31)
(-65.598092 0 9.5062194e-31)
(-65.555221 6.8470846e-18 -6.8470846e-18)
(-65.51235 -6.8403757e-18 0)
(-65.469478 -6.8337712e-18 6.8337712e-18)
(-65.426607 2.0481834e-17 6.8272779e-18)
(-65.383735 1.9386138e-33 -6.8208909e-18)
(-65.340863 -1.3629231e-17 -1.8903462e-30)
(-65.297991 6.8084448e-18 6.8084448e-18)
(-65.255119 9.4444289e-31 0)
(-65.212247 6.7964181e-18 0)
(-65.169374 -1.9299918e-33 -6.7905549e-18)
(-65.126502 -1.3569573e-17 9.4103596e-31)
(-65.083629 6.7791107e-18 6.7791107e-18)
(-65.040756 0 0)
(-64.997884 -1.8793437e-30 -6.7680171e-18)
(-64.955011 -9.6102195e-34 9.6102195e-34)
(-64.912138 -6.7572385e-18 -1.8763507e-30)
(-64.869265 6.7519547e-18 -9.3648222e-31)
(-64.826391 -1.8734337e-30 6.7467336e-18)
(-64.783518 -9.3504184e-31 -6.7415697e-18)
(-64.740645 -9.5730807e-34 9.5730807e-34)
(-64.697772 -6.7313857e-18 -1.8691719e-30)
(-64.654899 6.7263516e-18 -6.7263516e-18)
(-64.612026 2.3045105e-49 6.7213478e-18)
(-64.569154 -1.8650017e-30 1.8650017e-30)
(-64.526281 -9.5374834e-34 9.5374834e-34)
(-64.483409 -1.3412922e-17 -9.3112537e-31)
(-64.440538 -9.2948754e-31 -6.7015237e-18)
(-64.397667 6.6965907e-18 6.6965907e-18)
(-64.354796 0 0)
(-64.311926 0 -3.7125879e-30)
(-64.269057 -6.6817744e-18 -9.2674836e-31)
(-64.226189 -2.7781828e-30 -2.7781828e-30)
(-64.183321 6.6718491e-18 -9.4812678e-34)
(-64.140455 -6.6668659e-18 -6.6668659e-18)
(-64.09759 9.2493408e-31 6.6618679e-18)
(-64.054726 9.2818238e-49 9.2818238e-49)
(-64.011864 -9.2354007e-31 -9.2354007e-31)
(-63.969003 6.6467863e-18 1.8456803e-30)
(-63.926144 6.6417323e-18 -9.2213845e-31)
(-63.883286 9.2049199e-31 1.3273333e-17)
(-63.84043 -6.6315903e-18 -6.6315903e-18)
(-63.797576 0 -6.6265049e-18)
(-63.754723 0 -9.1931709e-31)
(-63.711873 6.616311e-18 9.1860895e-31)
(-63.669025 -6.6112048e-18 1.322241e-17)
(-63.626178 5.4993874e-30 -6.606094e-18)
(-63.583334 6.6009797e-18 -6.6009797e-18)
(-63.540492 -6.5958633e-18 2.3691721e-49)
(-63.497652 0 0)
(-63.454814 6.5856298e-18 2.3688375e-49)
(-63.411979 6.5805155e-18 -6.5805155e-18)
(-63.369146 -6.5754047e-18 6.5754047e-18)
(-63.326315 -6.5702983e-18 2.3636467e-49)
(-63.283487 0 -9.1057936e-31)
(-63.240661 6.5601024e-18 -9.3224661e-34)
(-63.197838 6.5550139e-18 -6.5550139e-18)
(-63.155017 -1.3099865e-17 1.3099865e-17)
(-63.112199 -6.5448579e-18 1.8173768e-30)
(-63.069383 6.5397912e-18 -6.5397912e-18)
(-63.02657 6.5347326e-18 9.0635397e-31)
(-62.98376 9.0565354e-31 -9.0565354e-31)
(-62.940952 6.5246419e-18 6.5246419e-18)
(-62.898147 1.8103662e-30 -6.5196108e-18)
(-62.855345 -1.3029179e-17 -9.2923188e-49)
(-62.812545 0 -2.7122958e-30)
(-62.769748 0 1.8071162e-30)
(-62.726954 0 -1.8038822e-30)
(-62.684163 6.4946043e-18 -1.8034224e-30)
(-62.641374 6.4896308e-18 2.3012362e-49)
(-62.598588 0 0)
(-62.555805 -6.4797093e-18 6.4797093e-18)
(-62.513024 -8.9711595e-31 0)
(-62.470247 6.4698222e-18 0)
(-62.427472 0 -6.4648919e-18)
(-62.3847 0 -1.7938053e-30)
(-62.341931 -6.4550577e-18 6.4550577e-18)
(-62.299164 -8.9462294e-31 0)
(-62.256401 8.9302777e-31 0)
(-62.21364 -6.4403652e-18 -1.288073e-17)
(-62.170883 6.4354809e-18 -5.3573568e-30)
(-62.128128 -2.675734e-30 1.2861205e-17)
(-62.085376 -6.4257302e-18 -6.4257302e-18)
(-62.042626 0 9.1245963e-34)
(-61.99988 -6.4160036e-18 -8.9079827e-31)
(-61.957137 -8.9012437e-31 -6.4111498e-18)
(-61.914396 6.4063025e-18 0)
(-61.871659 -6.4014616e-18 0)
(-61.828924 6.3966267e-18 0)
(-61.786192 6.3917974e-18 -6.3917974e-18)
(-61.743463 -6.386973e-18 -1.77172e-30)
(-61.700737 0 6.3821528e-18)
(-61.658014 6.377336e-18 0)
(-61.615293 6.3725223e-18 0)
(-61.572576 -6.3677112e-18 -6.3677112e-18)
(-61.529861 -6.3629027e-18 9.0422285e-34)
(-61.48715 0 6.358097e-18)
(-61.444441 -6.3532945e-18 0)
(-61.401735 6.3484954e-18 0)
(-61.359033 6.3437001e-18 -6.3437001e-18)
(-61.316333 -6.3389086e-18 -1.7583872e-30)
(-61.273636 -1.2668242e-17 -1.7597595e-30)
(-61.230942 3.5150618e-30 1.7575309e-30)
(-61.188251 1.8973668e-17 6.3245561e-18)
(-61.145563 2.2132877e-49 -6.3197784e-18)
(-61.102877 -6.3150032e-18 1.7526533e-30)
(-61.060195 -1.2620461e-17 -1.7513286e-30)
(-61.017515 3.4982167e-30 1.7491084e-30)
(-60.974839 1.2601377e-17 6.3006887e-18)
(-60.932165 -6.2959187e-18 0)
(-60.889494 6.2911484e-18 0)
(-60.846826 -6.2863771e-18 -6.2863771e-18)
(-60.804161 -6.2816046e-18 -5.5316987e-48)
(-60.761499 1.2553662e-17 6.2768309e-18)
(-60.71884 0 0)
(-60.676183 0 0)
(-60.63353 -1.2525011e-17 -6.2625054e-18)
(-60.59088 -1.7715342e-48 -3.5430683e-48)
(-60.548232 1.250591e-17 6.2529552e-18)
(-60.505588 0 0)
(-60.462946 0 0)
(-60.420308 -1.2477267e-17 -6.2386333e-18)
(-60.377672 -1.7715361e-48 -3.5430721e-48)
(-60.335039 1.2458171e-17 6.2290855e-18)
(-60.292409 0 0)
(-60.249782 0 0)
(-60.207158 -1.2429517e-17 -6.2147587e-18)
(-60.164537 -6.2099814e-18 8.8249144e-34)
(-60.121918 1.2410407e-17 6.2052034e-18)
(-60.079303 6.2004249e-18 -6.2004249e-18)
(-60.03669 0 1.7212881e-30)
(-59.99408 -1.2381734e-17 -1.7199603e-30)
(-59.951473 3.435507e-30 1.7177535e-30)
(-59.908869 1.2362618e-17 6.1813091e-18)
(-59.866268 -6.1765312e-18 0)
(-59.82367 0 0)
(-59.781074 6.1669815e-18 0)
(-59.738481 -6.1622117e-18 0)
(-59.695891 8.7502582e-34 0)
(-59.653304 6.1526881e-18 -6.1526881e-18)
(-59.61072 -6.1479369e-18 1.7062861e-30)
(-59.568139 6.1431945e-18 6.1431945e-18)
(-59.52556 6.1384624e-18 0)
(-59.482984 -6.1337422e-18 0)
(-59.440411 -6.1290357e-18 0)
(-59.39784 1.7006086e-30 0)
(-59.355272 6.1196706e-18 0)
(-59.312707 -6.1150154e-18 0)
(-59.270145 -1.6967311e-30 0)
(-59.227585 6.105768e-18 -6.105768e-18)
(-59.185027 -6.1011789e-18 3.3866179e-30)
(-59.142472 6.0966152e-18 6.0966152e-18)
(-59.09992 6.0920784e-18 0)
(-59.05737 -6.0875701e-18 0)
(-59.014822 -6.0830914e-18 0)
(-58.972277 1.6879183e-30 0)
(-58.929734 6.0742261e-18 0)
(-58.887193 -6.0698402e-18 0)
(-58.844654 8.6195735e-34 0)
(-58.802117 6.0611623e-18 -6.0611623e-18)
(-58.759582 -6.0568703e-18 1.6810116e-30)
(-58.71705 6.0526093e-18 6.0526093e-18)
(-58.674519 6.0483785e-18 0)
(-58.63199 -6.0441771e-18 0)
(-58.589463 -1.2080007e-17 -6.0400037e-18)
(-58.546938 3.35379e-30 1.676895e-30)
(-58.504415 1.2063468e-17 6.0317338e-18)
(-58.461893 -6.0276337e-18 0)
(-58.419373 8.5599851e-34 0)
(-58.376855 1.2038985e-17 0)
(-58.334338 1.7096929e-33 -6.0154471e-18)
(-58.291823 -6.0114145e-18 -1.6701045e-30)
(-58.24931 0 6.007392e-18)
(-58.206798 6.0033766e-18 0)
(-58.164288 0 0)
(-58.121779 -5.9953558e-18 0)
(-58.079271 0 0)
(-58.036766 0 0)
(-57.994261 0 0)
(-57.951759 -5.9792696e-18 0)
(-57.909258 -1.8745832e-49 -5.9752224e-18)
(-57.866758 5.971161e-18 8.4855301e-34)
(-57.82426 0 5.9670838e-18)
(-57.781764 5.9629887e-18 0)
(-57.739269 -1.6546606e-30 0)
(-57.696776 -5.9547352e-18 0)
(-57.654284 0 0)
(-57.611794 0 0)
(-57.569306 0 0)
(-57.52682 -5.9379306e-18 0)
(-57.484335 1.6476606e-30 -5.9336646e-18)
(-57.441853 5.9293705e-18 -8.4261422e-34)
(-57.399372 0 5.925047e-18)
(-57.356893 5.9206943e-18 0)
(-57.314416 1.642002e-30 0)
(-57.271941 -5.9119107e-18 0)
(-57.229468 0 -5.9074855e-18)
(-57.186997 5.903039e-18 3.2774741e-30)
(-57.144528 -5.8985689e-18 5.8985689e-18)
(-57.102061 3.2750084e-30 0)
(-57.059597 5.8895482e-18 -5.8895482e-18)
(-57.017134 -5.8849993e-18 -1.6349835e-30)
(-56.974674 0 5.8804311e-18)
(-56.932215 -5.8758491e-18 0)
(-56.889759 -1.6303307e-30 0)
(-56.847306 5.8666464e-18 -5.8666464e-18)
(-56.804854 0 -5.8620182e-18)
(-56.762404 5.8573673e-18 5.8573673e-18)
(-56.719957 -5.8526959e-18 5.8526959e-18)
(-56.677513 -3.2477528e-30 0)
(-56.63507 5.8433229e-18 0)
(-56.59263 -3.2417158e-30 0)
(-56.550192 -8.2905348e-34 0)
(-56.507757 1.6194936e-30 5.8292446e-18)
(-56.465323 -8.2771465e-34 -8.2771465e-34)
(-56.422892 -5.8197811e-18 -1.1639562e-17)
(-56.380464 0 -5.8150227e-18)
(-56.338038 5.8102624e-18 1.1620525e-17)
(-56.295615 -1.6112503e-30 1.1611025e-17)
(-56.253193 -1.6099358e-30 -5.8007763e-18)
(-56.210774 2.2056991e-49 -5.7960446e-18)
(-56.168358 -1.6081292e-30 0)
(-56.125943 0 0)
(-56.083531 -1.1563486e-17 0)
(-56.041122 -1.6041414e-30 0)
(-55.998715 5.7721479e-18 -5.7721479e-18)
(-55.95631 -5.7673818e-18 -1.6023067e-30)
(-55.913908 1.5993521e-30 5.7626421e-18)
(-55.871508 5.7579113e-18 0)
(-55.82911 5.7531632e-18 0)
(-55.786714 1.5962104e-30 0)
(-55.744321 -1.594872e-30 0)
(-55.70193 5.7387261e-18 0)
(-55.659542 -5.7339122e-18 0)
(-55.617157 -5.7291394e-18 0)
(-55.574774 0 0)
(-55.532392 -5.7196867e-18 0)
(-55.490013 1.5869263e-30 0)
(-55.447635 5.7101531e-18 0)
(-55.405261 0 0)
(-55.362889 0 0)
(-55.32052 0 0)
(-55.278153 -1.1381662e-17 -5.6908308e-18)
(-55.235789 6.3156724e-30 3.1578362e-30)
(-55.193427 1.1362819e-17 5.6814095e-18)
(-55.151066 0 0)
(-55.108707 0 0)
(-55.06635 0 5.6670967e-18)
(-55.023996 0 -1.5722849e-30)
(-54.981645 0 8.0395675e-34)
(-54.939298 0 -5.6525245e-18)
(-54.896952 0 -5.6477843e-18)
(-54.854609 -1.1286207e-17 -3.1331533e-30)
(-54.812267 3.1329637e-30 1.5664818e-30)
(-54.769926 1.1267431e-17 5.6337157e-18)
(-54.727587 5.6289198e-18 0)
(-54.685251 -5.6240518e-18 0)
(-54.642918 -5.619154e-18 0)
(-54.600588 1.5597724e-30 0)
(-54.558261 3.112094e-30 0)
(-54.515936 5.6047585e-18 -5.6047585e-18)
(-54.473613 -5.6000861e-18 3.1092691e-30)