/*--------------------------------*- C++ -*----------------------------------*\
  =========                 |
  \\      /  F ield         | OpenFOAM: The Open Source CFD Toolbox
   \\    /   O peration     | Website:  https://openfoam.org
    \\  /    A nd           | Version:  7
     \\/     M anipulation  |
\*---------------------------------------------------------------------------*/
FoamFile
{
    version     2.0;
    format      ascii;
    class       surfaceScalarField;
    location    "0.00218";
    object      phi;
}
// * * * * * * * * * * * * * * * * * * * * * * * * * * * * * * * * * * * * * //

dimensions      [1 0 -1 0 0 0 0];

internalField   nonuniform List<scalar> 
4999
(
1.2358639
1.2358639
1.2358638
1.2358638
1.2358638
1.2358637
1.2358637
1.2358636
1.2358636
1.2358635
1.2358635
1.2358634
1.2358634
1.2358634
1.2358633
1.2358633
1.2358632
1.2358632
1.2358632
1.2358631
1.2358631
1.235863
1.235863
1.2358629
1.2358629
1.2358629
1.2358628
1.2358628
1.2358627
1.2358627
1.2358626
1.2358626
1.2358626
1.2358625
1.2358625
1.2358624
1.2358624
1.2358623
1.2358623
1.2358622
1.2358622
1.2358621
1.2358621
1.235862
1.2358619
1.2358619
1.2358618
1.2358617
1.2358616
1.2358614
1.2358611
1.2358607
1.2358601
1.2358591
1.2358572
1.2358534
1.2358473
1.2358382
1.2358259
1.2358098
1.2357897
1.2357649
1.2357345
1.2356975
1.235653
1.2356003
1.2355393
1.235471
1.2353966
1.2353184
1.2352388
1.2351606
1.2350861
1.2350173
1.2349557
1.2349019
1.2348563
1.2348185
1.2347879
1.2347636
1.2347447
1.2347303
1.2347195
1.2347115
1.2347056
1.2347013
1.2346982
1.234696
1.2346944
1.2346932
1.2346924
1.2346919
1.2346914
1.2346911
1.2346909
1.2346908
1.2346906
1.2346905
1.2346904
1.2346904
1.2346903
1.2346903
1.2346902
1.2346902
1.2346901
1.2346901
1.23469
1.23469
1.23469
1.2346899
1.2346899
1.2346898
1.2346898
1.2346898
1.2346897
1.2346897
1.2346896
1.2346896
1.2346896
1.2346895
1.2346895
1.2346895
1.2346894
1.2346894
1.2346893
1.2346893
1.2346893
1.2346892
1.2346892
1.2346891
1.2346891
1.2346891
1.234689
1.234689
1.2346889
1.2346889
1.2346889
1.2346888
1.2346888
1.2346888
1.2346887
1.2346887
1.2346886
1.2346886
1.2346886
1.2346885
1.2346885
1.2346885
1.2346884
1.2346884
1.2346883
1.2346883
1.2346883
1.2346882
1.2346882
1.2346882
1.2346881
1.2346881
1.234688
1.234688
1.234688
1.2346879
1.2346879
1.2346879
1.2346878
1.2346878
1.2346877
1.2346877
1.2346877
1.2346876
1.2346876
1.2346876
1.2346875
1.2346875
1.2346874
1.2346874
1.2346874
1.2346873
1.2346873
1.2346873
1.2346872
1.2346872
1.2346872
1.2346871
1.2346871
1.234687
1.234687
1.234687
1.2346869
1.2346869
1.2346869
1.2346868
1.2346868
1.2346868
1.2346867
1.2346867
1.2346866
1.2346866
1.2346866
1.2346865
1.2346865
1.2346865
1.2346864
1.2346864
1.2346864
1.2346863
1.2346863
1.2346863
1.2346862
1.2346862
1.2346861
1.2346861
1.2346861
1.234686
1.234686
1.234686
1.2346859
1.2346859
1.2346859
1.2346858
1.2346858
1.2346858
1.2346857
1.2346857
1.2346857
1.2346856
1.2346856
1.2346856
1.2346855
1.2346855
1.2346855
1.2346854
1.2346854
1.2346853
1.2346853
1.2346853
1.2346852
1.2346852
1.2346852
1.2346851
1.2346851
1.2346851
1.234685
1.234685
1.234685
1.2346849
1.2346849
1.2346849
1.2346848
1.2346848
1.2346848
1.2346847
1.2346847
1.2346847
1.2346846
1.2346846
1.2346846
1.2346845
1.2346845
1.2346845
1.2346844
1.2346844
1.2346844
1.2346843
1.2346843
1.2346843
1.2346842
1.2346842
1.2346842
1.2346841
1.2346841
1.2346841
1.234684
1.234684
1.234684
1.2346839
1.2346839
1.2346839
1.2346838
1.2346838
1.2346838
1.2346837
1.2346837
1.2346837
1.2346837
1.2346836
1.2346836
1.2346836
1.2346835
1.2346835
1.2346835
1.2346834
1.2346834
1.2346834
1.2346833
1.2346833
1.2346833
1.2346832
1.2346832
1.2346832
1.2346832
1.2346831
1.2346831
1.2346831
1.234683
1.234683
1.234683
1.234683
1.2346829
1.2346829
1.2346829
1.2346828
1.2346828
1.2346828
1.2346827
1.2346827
1.2346827
1.2346827
1.2346826
1.2346826
1.2346826
1.2346825
1.2346825
1.2346825
1.2346825
1.2346824
1.2346824
1.2346824
1.2346824
1.2346823
1.2346823
1.2346823
1.2346822
1.2346822
1.2346822
1.2346822
1.2346821
1.2346821
1.2346821
1.234682
1.234682
1.234682
1.234682
1.2346819
1.2346819
1.2346819
1.2346818
1.2346818
1.2346818
1.2346818
1.2346817
1.2346817
1.2346817
1.2346817
1.2346816
1.2346816
1.2346816
1.2346815
1.2346815
1.2346815
1.2346815
1.2346814
1.2346814
1.2346814
1.2346814
1.2346813
1.2346813
1.2346813
1.2346812
1.2346812
1.2346812
1.2346812
1.2346811
1.2346811
1.2346811
1.2346811
1.234681
1.234681
1.234681
1.234681
1.2346809
1.2346809
1.2346809
1.2346808
1.2346808
1.2346808
1.2346808
1.2346807
1.2346807
1.2346807
1.2346807
1.2346806
1.2346806
1.2346806
1.2346806
1.2346805
1.2346805
1.2346805
1.2346804
1.2346804
1.2346804
1.2346804
1.2346803
1.2346803
1.2346803
1.2346803
1.2346802
1.2346802
1.2346802
1.2346801
1.2346801
1.2346801
1.2346801
1.23468
1.23468
1.23468
1.23468
1.2346799
1.2346799
1.2346799
1.2346798
1.2346798
1.2346798
1.2346798
1.2346797
1.2346797
1.2346797
1.2346797
1.2346796
1.2346796
1.2346796
1.2346795
1.2346795
1.2346795
1.2346795
1.2346794
1.2346794
1.2346794
1.2346793
1.2346793
1.2346793
1.2346793
1.2346792
1.2346792
1.2346792
1.2346792
1.2346791
1.2346791
1.2346791
1.234679
1.234679
1.234679
1.234679
1.2346789
1.2346789
1.2346789
1.2346788
1.2346788
1.2346788
1.2346788
1.2346787
1.2346787
1.2346787
1.2346786
1.2346786
1.2346786
1.2346785
1.2346785
1.2346785
1.2346784
1.2346784
1.2346784
1.2346784
1.2346783
1.2346783
1.2346783
1.2346782
1.2346782
1.2346782
1.2346781
1.2346781
1.2346781
1.234678
1.234678
1.234678
1.234678
1.2346779
1.2346779
1.2346779
1.2346778
1.2346778
1.2346778
1.2346777
1.2346777
1.2346777
1.2346776
1.2346776
1.2346776
1.2346775
1.2346775
1.2346775
1.2346774
1.2346774
1.2346774
1.2346773
1.2346773
1.2346773
1.2346772
1.2346772
1.2346771
1.2346771
1.2346771
1.234677
1.234677
1.234677
1.2346769
1.2346769
1.2346769
1.2346768
1.2346768
1.2346768
1.2346767
1.2346767
1.2346767
1.2346766
1.2346766
1.2346765
1.2346765
1.2346765
1.2346764
1.2346764
1.2346763
1.2346763
1.2346763
1.2346762
1.2346762
1.2346762
1.2346761
1.2346761
1.234676
1.234676
1.234676
1.2346759
1.2346759
1.2346758
1.2346758
1.2346758
1.2346757
1.2346757
1.2346756
1.2346756
1.2346756
1.2346755
1.2346755
1.2346754
1.2346754
1.2346754
1.2346753
1.2346753
1.2346752
1.2346752
1.2346752
1.2346751
1.2346751
1.234675
1.234675
1.234675
1.2346749
1.2346749
1.2346748
1.2346748
1.2346747
1.2346747
1.2346747
1.2346746
1.2346746
1.2346745
1.2346745
1.2346744
1.2346744
1.2346744
1.2346743
1.2346743
1.2346742
1.2346742
1.2346742
1.2346741
1.2346741
1.234674
1.234674
1.2346739
1.2346739
1.2346739
1.2346738
1.2346738
1.2346737
1.2346737
1.2346736
1.2346736
1.2346736
1.2346735
1.2346735
1.2346734
1.2346734
1.2346733
1.2346733
1.2346732
1.2346732
1.2346731
1.2346731
1.2346731
1.234673
1.234673
1.2346729
1.2346729
1.2346728
1.2346728
1.2346727
1.2346727
1.2346726
1.2346726
1.2346725
1.2346725
1.2346725
1.2346724
1.2346724
1.2346723
1.2346723
1.2346722
1.2346722
1.2346721
1.2346721
1.234672
1.234672
1.2346719
1.2346719
1.2346718
1.2346718
1.2346717
1.2346717
1.2346716
1.2346716
1.2346715
1.2346715
1.2346714
1.2346714
1.2346713
1.2346713
1.2346712
1.2346712
1.2346711
1.2346711
1.234671
1.234671
1.2346709
1.2346709
1.2346708
1.2346708
1.2346707
1.2346707
1.2346706
1.2346705
1.2346705
1.2346704
1.2346704
1.2346703
1.2346703
1.2346702
1.2346702
1.2346701
1.23467
1.23467
1.2346699
1.2346699
1.2346698
1.2346698
1.2346697
1.2346696
1.2346696
1.2346695
1.2346695
1.2346694
1.2346693
1.2346693
1.2346692
1.2346692
1.2346691
1.234669
1.234669
1.2346689
1.2346689
1.2346688
1.2346687
1.2346687
1.2346686
1.2346685
1.2346685
1.2346684
1.2346683
1.2346683
1.2346682
1.2346681
1.2346681
1.234668
1.2346679
1.2346679
1.2346678
1.2346677
1.2346677
1.2346676
1.2346675
1.2346675
1.2346674
1.2346673
1.2346672
1.2346672
1.2346671
1.234667
1.2346669
1.2346669
1.2346668
1.2346667
1.2346666
1.2346665
1.2346665
1.2346664
1.2346663
1.2346662
1.2346661
1.234666
1.2346659
1.2346658
1.2346657
1.2346656
1.2346655
1.2346654
1.2346653
1.2346652
1.2346651
1.234665
1.2346649
1.2346648
1.2346647
1.2346646
1.2346645
1.2346644
1.2346642
1.2346641
1.234664
1.2346638
1.2346637
1.2346636
1.2346634
1.2346633
1.2346631
1.234663
1.2346628
1.2346627
1.2346625
1.2346623
1.2346622
1.234662
1.2346618
1.2346616
1.2346614
1.2346612
1.234661
1.2346608
1.2346606
1.2346603
1.2346601
1.2346599
1.2346596
1.2346594
1.2346591
1.2346588
1.2346586
1.2346583
1.234658
1.2346577
1.2346573
1.234657
1.2346567
1.2346563
1.234656
1.2346556
1.2346552
1.2346548
1.2346544
1.234654
1.2346536
1.2346531
1.2346526
1.2346522
1.2346517
1.2346511
1.2346506
1.2346501
1.2346495
1.2346489
1.2346483
1.2346477
1.234647
1.2346464
1.2346457
1.234645
1.2346443
1.2346435
1.2346427
1.2346419
1.2346411
1.2346403
1.2346394
1.2346385
1.2346375
1.2346365
1.2346355
1.2346345
1.2346334
1.2346323
1.2346312
1.23463
1.2346288
1.2346276
1.2346263
1.234625
1.2346236
1.2346222
1.2346207
1.2346192
1.2346177
1.2346161
1.2346144
1.2346127
1.234611
1.2346092
1.2346073
1.2346054
1.2346034
1.2346014
1.2345993
1.2345971
1.2345949
1.2345926
1.2345902
1.2345878
1.2345853
1.2345827
1.23458
1.2345773
1.2345745
1.2345715
1.2345686
1.2345655
1.2345623
1.234559
1.2345557
1.2345522
1.2345487
1.234545
1.2345412
1.2345374
1.2345334
1.2345293
1.234525
1.2345207
1.2345163
1.2345117
1.234507
1.2345021
1.2344971
1.234492
1.2344868
1.2344814
1.2344758
1.2344701
1.2344643
1.2344583
1.2344521
1.2344458
1.2344393
1.2344326
1.2344257
1.2344187
1.2344115
1.2344041
1.2343965
1.2343888
1.2343808
1.2343726
1.2343642
1.2343556
1.2343468
1.2343378
1.2343286
1.2343191
1.2343094
1.2342995
1.2342893
1.2342789
1.2342682
1.2342573
1.2342461
1.2342347
1.234223
1.234211
1.2341988
1.2341863
1.2341735
1.2341604
1.234147
1.2341333
1.2341193
1.2341051
1.2340905
1.2340756
1.2340603
1.2340448
1.2340289
1.2340127
1.2339961
1.2339792
1.233962
1.2339444
1.2339264
1.2339081
1.2338894
1.2338704
1.233851
1.2338312
1.233811
1.2337904
1.2337694
1.233748
1.2337262
1.233704
1.2336814
1.2336584
1.2336349
1.2336111
1.2335867
1.233562
1.2335368
1.2335111
1.2334851
1.2334585
1.2334315
1.233404
1.2333761
1.2333476
1.2333187
1.2332893
1.2332595
1.2332291
1.2331982
1.2331669
1.233135
1.2331026
1.2330697
1.2330363
1.2330024
1.2329679
1.2329329
1.2328974
1.2328613
1.2328247
1.2327875
1.2327498
1.2327115
1.2326727
1.2326333
1.2325933
1.2325528
1.2325117
1.2324701
1.2324278
1.232385
1.2323416
1.2322975
1.2322529
1.2322077
1.2321619
1.2321155
1.2320685
1.2320209
1.2319727
1.2319238
1.2318744
1.2318243
1.2317736
1.2317223
1.2316703
1.2316178
1.2315646
1.2315107
1.2314562
1.2314011
1.2313454
1.231289
1.231232
1.2311743
1.231116
1.231057
1.2309974
1.2309372
1.2308762
1.2308147
1.2307525
1.2306896
1.2306261
1.2305619
1.2304971
1.2304316
1.2303655
1.2302987
1.2302312
1.2301631
1.2300944
1.230025
1.2299549
1.2298842
1.2298128
1.2297408
1.2296681
1.2295947
1.2295207
1.2294461
1.2293708
1.2292949
1.2292183
1.229141
1.2290632
1.2289846
1.2289055
1.2288256
1.2287452
1.2286641
1.2285824
1.2285
1.228417
1.2283334
1.2282492
1.2281643
1.2280788
1.2279927
1.227906
1.2278187
1.2277307
1.2276422
1.227553
1.2274633
1.2273729
1.227282
1.2271904
1.2270983
1.2270056
1.2269123
1.2268185
1.226724
1.226629
1.2265334
1.2264373
1.2263406
1.2262434
1.2261456
1.2260473
1.2259484
1.225849
1.2257491
1.2256486
1.2255477
1.2254462
1.2253442
1.2252417
1.2251387
1.2250352
1.2249312
1.2248267
1.2247218
1.2246163
1.2245104
1.2244041
1.2242973
1.22419
1.2240823
1.2239742
1.2238656
1.2237566
1.2236471
1.2235373
1.223427
1.2233164
1.2232053
1.2230938
1.222982
1.2228698
1.2227572
1.2226442
1.2225309
1.2224172
1.2223032
1.2221888
1.2220741
1.2219591
1.2218438
1.2217281
1.2216121
1.2214958
1.2213793
1.2212624
1.2211453
1.2210278
1.2209102
1.2207922
1.220674
1.2205556
1.2204369
1.2203179
1.2201988
1.2200794
1.2199598
1.21984
1.2197201
1.2195999
1.2194795
1.219359
1.2192382
1.2191174
1.2189963
1.2188751
1.2187538
1.2186323
1.2185107
1.218389
1.2182672
1.2181453
1.2180232
1.2179011
1.2177789
1.2176566
1.2175342
1.2174118
1.2172893
1.2171667
1.2170442
1.2169215
1.2167989
1.2166762
1.2165535
1.2164308
1.2163081
1.2161854
1.2160627
1.2159401
1.2158174
1.2156948
1.2155722
1.2154497
1.2153272
1.2152048
1.2150825
1.2149602
1.214838
1.2147159
1.2145938
1.2144719
1.2143501
1.2142284
1.2141068
1.2139853
1.213864
1.2137428
1.2136218
1.2135008
1.2133801
1.2132595
1.2131391
1.2130188
1.2128988
1.2127789
1.2126592
1.2125397
1.2124204
1.2123013
1.2121825
1.2120638
1.2119454
1.2118272
1.2117093
1.2115915
1.2114741
1.2113569
1.2112399
1.2111232
1.2110068
1.2108906
1.2107747
1.2106592
1.2105438
1.2104288
1.2103141
1.2101997
1.2100856
1.2099718
1.2098583
1.2097451
1.2096323
1.2095198
1.2094076
1.2092957
1.2091842
1.2090731
1.2089623
1.2088518
1.2087417
1.2086319
1.2085225
1.2084135
1.2083049
1.2081966
1.2080887
1.2079812
1.207874
1.2077673
1.2076609
1.207555
1.2074494
1.2073442
1.2072394
1.207135
1.2070311
1.2069275
1.2068243
1.2067216
1.2066193
1.2065174
1.2064159
1.2063148
1.2062142
1.2061139
1.2060141
1.2059148
1.2058158
1.2057173
1.2056193
1.2055216
1.2054244
1.2053277
1.2052313
1.2051355
1.20504
1.204945
1.2048505
1.2047564
1.2046627
1.2045695
1.2044767
1.2043844
1.2042925
1.2042011
1.2041101
1.2040196
1.2039295
1.2038399
1.2037507
1.2036619
1.2035737
1.2034858
1.2033985
1.2033116
1.2032251
1.2031391
1.2030535
1.2029684
1.2028837
1.2027995
1.2027157
1.2026324
1.2025495
1.2024671
1.2023851
1.2023036
1.2022225
1.2021419
1.2020617
1.201982
1.2019027
1.2018238
1.2017454
1.2016674
1.2015899
1.2015128
1.2014362
1.2013599
1.2012842
1.2012088
1.2011339
1.2010594
1.2009854
1.2009118
1.2008386
1.2007658
1.2006935
1.2006216
1.2005501
1.200479
1.2004084
1.2003382
1.2002684
1.200199
1.20013
1.2000615
1.1999934
1.1999256
1.1998583
1.1997914
1.1997249
1.1996589
1.1995932
1.1995279
1.199463
1.1993986
1.1993345
1.1992708
1.1992075
1.1991446
1.1990821
1.19902
1.1989583
1.198897
1.198836
1.1987755
1.1987153
1.1986556
1.1985962
1.1985371
1.1984785
1.1984202
1.1983623
1.1983048
1.1982477
1.1981909
1.1981345
1.1980785
1.1980228
1.1979675
1.1979126
1.197858
1.1978038
1.1977499
1.1976964
1.1976433
1.1975905
1.1975381
1.197486
1.1974343
1.1973829
1.1973319
1.1972813
1.1972309
1.197181
1.1971313
1.1970821
1.1970331
1.1969845
1.1969363
1.1968883
1.1968408
1.1967935
1.1967466
1.1967
1.1966538
1.1966079
1.1965623
1.1965171
1.1964721
1.1964275
1.1963833
1.1963393
1.1962957
1.1962525
1.1962095
1.1961669
1.1961245
1.1960825
1.1960409
1.1959995
1.1959585
1.1959177
1.1958773
1.1958372
1.1957974
1.195758
1.1957188
1.19568
1.1956414
1.1956032
1.1955653
1.1955277
1.1954904
1.1954534
1.1954167
1.1953803
1.1953442
1.1953084
1.1952729
1.1952377
1.1952029
1.1951683
1.195134
1.1951
1.1950663
1.1950329
1.1949998
1.194967
1.1949345
1.1949022
1.1948703
1.1948387
1.1948073
1.1947762
1.1947454
1.1947149
1.1946847
1.1946548
1.1946252
1.1945958
1.1945667
1.1945379
1.1945094
1.1944811
1.1944532
1.1944255
1.1943981
1.1943709
1.194344
1.1943174
1.1942911
1.1942651
1.1942393
1.1942137
1.1941885
1.1941635
1.1941388
1.1941143
1.1940901
1.1940662
1.1940425
1.1940191
1.1939959
1.193973
1.1939503
1.1939279
1.1939058
1.1938839
1.1938623
1.1938409
1.1938197
1.1937988
1.1937781
1.1937577
1.1937375
1.1937176
1.1936979
1.1936784
1.1936592
1.1936402
1.1936215
1.1936029
1.1935846
1.1935666
1.1935487
1.1935311
1.1935137
1.1934966
1.1934796
1.1934629
1.1934464
1.1934301
1.193414
1.1933982
1.1933825
1.1933671
1.1933519
1.1933368
1.193322
1.1933074
1.193293
1.1932788
1.1932648
1.193251
1.1932374
1.1932239
1.1932107
1.1931977
1.1931848
1.1931722
1.1931597
1.1931474
1.1931353
1.1931234
1.1931116
1.1931
1.1930887
1.1930774
1.1930664
1.1930555
1.1930448
1.1930343
1.1930239
1.1930137
1.1930036
1.1929937
1.192984
1.1929744
1.192965
1.1929558
1.1929466
1.1929377
1.1929289
1.1929202
1.1929117
1.1929033
1.1928951
1.192887
1.192879
1.1928712
1.1928635
1.192856
1.1928486
1.1928413
1.1928341
1.1928271
1.1928202
1.1928134
1.1928067
1.1928002
1.1927938
1.1927875
1.1927813
1.1927752
1.1927693
1.1927634
1.1927577
1.192752
1.1927465
1.1927411
1.1927358
1.1927306
1.1927255
1.1927204
1.1927155
1.1927107
1.192706
1.1927013
1.1926968
1.1926924
1.192688
1.1926837
1.1926795
1.1926754
1.1926714
1.1926675
1.1926637
1.1926599
1.1926562
1.1926526
1.192649
1.1926456
1.1926422
1.1926389
1.1926356
1.1926324
1.1926293
1.1926263
1.1926233
1.1926204
1.1926176
1.1926148
1.1926121
1.1926094
1.1926068
1.1926043
1.1926018
1.1925994
1.192597
1.1925947
1.1925924
1.1925902
1.1925881
1.192586
1.1925839
1.1925819
1.1925799
1.192578
1.1925761
1.1925743
1.1925725
1.1925708
1.1925691
1.1925675
1.1925659
1.1925643
1.1925628
1.1925613
1.1925598
1.1925584
1.192557
1.1925557
1.1925543
1.1925531
1.1925518
1.1925506
1.1925494
1.1925483
1.1925472
1.1925461
1.192545
1.192544
1.192543
1.192542
1.192541
1.1925401
1.1925392
1.1925383
1.1925375
1.1925367
1.1925358
1.1925351
1.1925343
1.1925336
1.1925328
1.1925321
1.1925315
1.1925308
1.1925302
1.1925295
1.1925289
1.1925284
1.1925278
1.1925272
1.1925267
1.1925262
1.1925257
1.1925252
1.1925247
1.1925243
1.1925238
1.1925234
1.192523
1.1925226
1.1925222
1.1925218
1.1925214
1.1925211
1.1925207
1.1925204
1.1925201
1.1925197
1.1925194
1.1925191
1.1925189
1.1925186
1.1925183
1.1925181
1.1925178
1.1925176
1.1925173
1.1925171
1.1925169
1.1925167
1.1925165
1.1925163
1.1925161
1.1925159
1.1925157
1.1925156
1.1925154
1.1925152
1.1925151
1.1925149
1.1925148
1.1925146
1.1925145
1.1925144
1.1925142
1.1925141
1.192514
1.1925139
1.1925138
1.1925137
1.1925136
1.1925135
1.1925134
1.1925133
1.1925132
1.1925131
1.192513
1.1925129
1.1925129
1.1925128
1.1925127
1.1925126
1.1925126
1.1925125
1.1925124
1.1925124
1.1925123
1.1925123
1.1925122
1.1925122
1.1925121
1.192512
1.192512
1.1925119
1.1925119
1.1925119
1.1925118
1.1925118
1.1925117
1.1925117
1.1925116
1.1925116
1.1925116
1.1925115
1.1925115
1.1925114
1.1925114
1.1925114
1.1925113
1.1925113
1.1925113
1.1925112
1.1925112
1.1925112
1.1925111
1.1925111
1.1925111
1.192511
1.192511
1.192511
1.1925109
1.1925109
1.1925109
1.1925109
1.1925108
1.1925108
1.1925108
1.1925107
1.1925107
1.1925107
1.1925106
1.1925106
1.1925106
1.1925106
1.1925105
1.1925105
1.1925105
1.1925104
1.1925104
1.1925104
1.1925103
1.1925103
1.1925103
1.1925102
1.1925102
1.1925102
1.1925101
1.1925101
1.1925101
1.19251
1.19251
1.19251
1.1925099
1.1925099
1.1925099
1.1925098
1.1925098
1.1925098
1.1925097
1.1925097
1.1925097
1.1925096
1.1925096
1.1925095
1.1925095
1.1925095
1.1925094
1.1925094
1.1925094
1.1925093
1.1925093
1.1925092
1.1925092
1.1925092
1.1925091
1.1925091
1.192509
1.192509
1.192509
1.1925089
1.1925089
1.1925088
1.1925088
1.1925087
1.1925087
1.1925087
1.1925086
1.1925086
1.1925085
1.1925085
1.1925085
1.1925084
1.1925084
1.1925083
1.1925083
1.1925083
1.1925082
1.1925082
1.1925081
1.1925081
1.192508
1.192508
1.192508
1.1925079
1.1925079
1.1925078
1.1925078
1.1925078
1.1925077
1.1925077
1.1925076
1.1925076
1.1925076
1.1925075
1.1925075
1.1925074
1.1925074
1.1925074
1.1925073
1.1925073
1.1925072
1.1925072
1.1925072
1.1925071
1.1925071
1.1925071
1.192507
1.192507
1.1925069
1.1925069
1.1925069
1.1925068
1.1925068
1.1925068
1.1925067
1.1925067
1.1925067
1.1925066
1.1925066
1.1925066
1.1925065
1.1925065
1.1925065
1.1925064
1.1925064
1.1925064
1.1925064
1.1925063
1.1925063
1.1925063
1.1925062
1.1925062
1.1925062
1.1925061
1.1925061
1.1925061
1.1925061
1.192506
1.192506
1.192506
1.192506
1.1925059
1.1925059
1.1925059
1.1925059
1.1925058
1.1925058
1.1925058
1.1925058
1.1925057
1.1925057
1.1925057
1.1925057
1.1925056
1.1925056
1.1925056
1.1925056
1.1925056
1.1925055
1.1925055
1.1925055
1.1925055
1.1925054
1.1925054
1.1925054
1.1925054
1.1925054
1.1925053
1.1925053
1.1925053
1.1925053
1.1925052
1.1925052
1.1925052
1.1925052
1.1925052
1.1925051
1.1925051
1.1925051
1.1925051
1.1925051
1.192505
1.192505
1.192505
1.192505
1.192505
1.1925049
1.1925049
1.1925049
1.1925049
1.1925048
1.1925048
1.1925048
1.1925048
1.1925048
1.1925047
1.1925047
1.1925047
1.1925047
1.1925046
1.1925046
1.1925046
1.1925046
1.1925045
1.1925045
1.1925045
1.1925045
1.1925045
1.1925044
1.1925044
1.1925044
1.1925044
1.1925043
1.1925043
1.1925043
1.1925043
1.1925042
1.1925042
1.1925042
1.1925042
1.1925041
1.1925041
1.1925041
1.1925041
1.192504
1.192504
1.192504
1.192504
1.1925039
1.1925039
1.1925039
1.1925038
1.1925038
1.1925038
1.1925038
1.1925037
1.1925037
1.1925037
1.1925037
1.1925036
1.1925036
1.1925036
1.1925035
1.1925035
1.1925035
1.1925035
1.1925034
1.1925034
1.1925034
1.1925033
1.1925033
1.1925033
1.1925033
1.1925032
1.1925032
1.1925032
1.1925031
1.1925031
1.1925031
1.1925031
1.192503
1.192503
1.192503
1.1925029
1.1925029
1.1925029
1.1925029
1.1925028
1.1925028
1.1925028
1.1925027
1.1925027
1.1925027
1.1925027
1.1925026
1.1925026
1.1925026
1.1925025
1.1925025
1.1925025
1.1925024
1.1925024
1.1925024
1.1925024
1.1925023
1.1925023
1.1925023
1.1925022
1.1925022
1.1925022
1.1925021
1.1925021
1.1925021
1.1925021
1.192502
1.192502
1.192502
1.1925019
1.1925019
1.1925019
1.1925018
1.1925018
1.1925018
1.1925018
1.1925017
1.1925017
1.1925017
1.1925016
1.1925016
1.1925016
1.1925016
1.1925015
1.1925015
1.1925015
1.1925014
1.1925014
1.1925014
1.1925013
1.1925013
1.1925013
1.1925012
1.1925012
1.1925012
1.1925012
1.1925011
1.1925011
1.1925011
1.192501
1.192501
1.192501
1.1925009
1.1925009
1.1925009
1.1925008
1.1925008
1.1925008
1.1925007
1.1925007
1.1925007
1.1925007
1.1925006
1.1925006
1.1925006
1.1925005
1.1925005
1.1925005
1.1925004
1.1925004
1.1925004
1.1925003
1.1925003
1.1925003
1.1925002
1.1925002
1.1925002
1.1925001
1.1925001
1.1925001
1.1925
1.1925
1.1925
1.1924999
1.1924999
1.1924998
1.1924998
1.1924998
1.1924997
1.1924997
1.1924997
1.1924996
1.1924996
1.1924996
1.1924995
1.1924995
1.1924995
1.1924994
1.1924994
1.1924994
1.1924993
1.1924993
1.1924992
1.1924992
1.1924992
1.1924991
1.1924991
1.1924991
1.192499
1.192499
1.1924989
1.1924989
1.1924989
1.1924988
1.1924988
1.1924988
1.1924987
1.1924987
1.1924986
1.1924986
1.1924986
1.1924985
1.1924985
1.1924984
1.1924984
1.1924984
1.1924983
1.1924983
1.1924982
1.1924982
1.1924982
1.1924981
1.1924981
1.192498
1.192498
1.192498
1.1924979
1.1924979
1.1924978
1.1924978
1.1924978
1.1924977
1.1924977
1.1924976
1.1924976
1.1924975
1.1924975
1.1924975
1.1924974
1.1924974
1.1924973
1.1924973
1.1924972
1.1924972
1.1924972
1.1924971
1.1924971
1.192497
1.192497
1.192497
1.1924969
1.1924969
1.1924968
1.1924968
1.1924967
1.1924967
1.1924967
1.1924966
1.1924966
1.1924965
1.1924965
1.1924965
1.1924964
1.1924964
1.1924963
1.1924963
1.1924962
1.1924962
1.1924962
1.1924961
1.1924961
1.192496
1.192496
1.1924959
1.1924959
1.1924959
1.1924958
1.1924958
1.1924957
1.1924957
1.1924957
1.1924956
1.1924956
1.1924955
1.1924955
1.1924954
1.1924954
1.1924954
1.1924953
1.1924953
1.1924952
1.1924952
1.1924952
1.1924951
1.1924951
1.192495
1.192495
1.1924949
1.1924949
1.1924949
1.1924948
1.1924948
1.1924947
1.1924947
1.1924947
1.1924946
1.1924946
1.1924945
1.1924945
1.1924944
1.1924944
1.1924944
1.1924943
1.1924943
1.1924942
1.1924942
1.1924942
1.1924941
1.1924941
1.192494
1.192494
1.1924939
1.1924939
1.1924939
1.1924938
1.1924938
1.1924937
1.1924937
1.1924936
1.1924936
1.1924936
1.1924935
1.1924935
1.1924934
1.1924934
1.1924934
1.1924933
1.1924933
1.1924932
1.1924932
1.1924931
1.1924931
1.192493
1.192493
1.192493
1.1924929
1.1924929
1.1924928
1.1924928
1.1924927
1.1924927
1.1924926
1.1924926
1.1924925
1.1924925
1.1924924
1.1924924
1.1924923
1.1924923
1.1924923
1.1924922
1.1924922
1.1924921
1.1924921
1.192492
1.192492
1.1924919
1.1924919
1.1924918
1.1924917
1.1924917
1.1924916
1.1924916
1.1924915
1.1924915
1.1924914
1.1924914
1.1924913
1.1924913
1.1924912
1.1924911
1.1924911
1.192491
1.192491
1.1924909
1.1924909
1.1924908
1.1924907
1.1924907
1.1924906
1.1924906
1.1924905
1.1924905
1.1924904
1.1924903
1.1924903
1.1924902
1.1924902
1.1924901
1.19249
1.19249
1.1924899
1.1924899
1.1924898
1.1924897
1.1924897
1.1924896
1.1924895
1.1924895
1.1924894
1.1924893
1.1924893
1.1924892
1.1924891
1.1924891
1.192489
1.1924889
1.1924889
1.1924888
1.1924887
1.1924887
1.1924886
1.1924885
1.1924885
1.1924884
1.1924883
1.1924883
1.1924882
1.1924881
1.1924881
1.192488
1.1924879
1.1924878
1.1924878
1.1924877
1.1924876
1.1924876
1.1924875
1.1924874
1.1924873
1.1924873
1.1924872
1.1924871
1.1924871
1.192487
1.1924869
1.1924868
1.1924868
1.1924867
1.1924866
1.1924866
1.1924865
1.1924864
1.1924863
1.1924863
1.1924862
1.1924861
1.192486
1.192486
1.1924859
1.1924858
1.1924858
1.1924857
1.1924856
1.1924855
1.1924855
1.1924854
1.1924853
1.1924852
1.1924852
1.1924851
1.192485
1.1924849
1.1924849
1.1924848
1.1924847
1.1924846
1.1924846
1.1924845
1.1924844
1.1924843
1.1924843
1.1924842
1.1924841
1.192484
1.1924839
1.1924839
1.1924838
1.1924837
1.1924836
1.1924836
1.1924835
1.1924834
1.1924833
1.1924832
1.1924832
1.1924831
1.192483
1.1924829
1.1924828
1.1924827
1.1924827
1.1924826
1.1924825
1.1924824
1.1924823
1.1924822
1.1924822
1.1924821
1.192482
1.1924819
1.1924818
1.1924818
1.1924817
1.1924816
1.1924815
1.1924814
1.1924813
1.1924812
1.1924811
1.1924811
1.192481
1.1924809
1.1924808
1.1924807
1.1924806
1.1924805
1.1924804
1.1924803
1.1924802
1.1924801
1.19248
1.1924799
1.1924798
1.1924798
1.1924797
1.1924796
1.1924795
1.1924794
1.1924793
1.1924792
1.1924791
1.192479
1.1924789
1.1924788
1.1924787
1.1924786
1.1924785
1.1924784
1.1924783
1.1924781
1.192478
1.1924779
1.1924778
1.1924777
1.1924776
1.1924775
1.1924774
1.1924773
1.1924772
1.192477
1.1924769
1.1924768
1.1924767
1.1924766
1.1924765
1.1924763
1.1924762
1.1924761
1.192476
1.1924759
1.1924758
1.1924756
1.1924755
1.1924754
1.1924753
1.1924751
1.192475
1.1924749
1.1924748
1.1924746
1.1924745
1.1924744
1.1924742
1.1924741
1.192474
1.1924738
1.1924737
1.1924736
1.1924734
1.1924733
1.1924731
1.192473
1.1924729
1.1924727
1.1924726
1.1924724
1.1924723
1.1924722
1.192472
1.1924719
1.1924717
1.1924716
1.1924714
1.1924713
1.1924712
1.192471
1.1924708
1.1924707
1.1924705
1.1924704
1.1924702
1.1924701
1.1924699
1.1924697
1.1924696
1.1924694
1.1924692
1.1924691
1.1924689
1.1924687
1.1924686
1.1924684
1.1924682
1.192468
1.1924679
1.1924677
1.1924675
1.1924673
1.1924671
1.192467
1.1924668
1.1924666
1.1924664
1.1924662
1.192466
1.1924658
1.1924656
1.1924654
1.1924652
1.192465
1.1924648
1.1924646
1.1924644
1.1924642
1.192464
1.1924638
1.1924636
1.1924634
1.1924632
1.192463
1.1924627
1.1924625
1.1924623
1.1924621
1.1924618
1.1924616
1.1924614
1.1924611
1.1924609
1.1924606
1.1924604
1.1924601
1.1924599
1.1924596
1.1924594
1.1924591
1.1924589
1.1924586
1.1924583
1.1924581
1.1924578
1.1924575
1.1924573
1.192457
1.1924567
1.1924564
1.1924561
1.1924558
1.1924556
1.1924553
1.192455
1.1924546
1.1924543
1.192454
1.1924537
1.1924534
1.192453
1.1924527
1.1924523
1.192452
1.1924516
1.1924513
1.1924509
1.1924506
1.1924502
1.1924499
1.1924495
1.1924491
1.1924487
1.1924483
1.1924479
1.1924475
1.1924471
1.1924467
1.1924463
1.1924459
1.1924454
1.192445
1.1924445
1.1924441
1.1924436
1.1924432
1.1924427
1.1924423
1.1924418
1.1924413
1.1924408
1.1924404
1.1924399
1.1924394
1.1924389
1.1924384
1.1924379
1.1924374
1.1924369
1.1924364
1.1924359
1.1924354
1.192435
1.1924345
1.192434
1.1924336
1.1924332
1.1924328
1.1924324
1.192432
1.1924317
1.1924314
1.1924311
1.1924308
1.1924306
1.1924304
1.1924303
1.1924302
1.1924301
1.19243
1.19243
1.1924299
1.1924299
1.1924299
1.19243
1.19243
1.1924301
1.1924302
1.1924303
1.1924303
1.1924304
1.1924304
1.1924304
1.1924304
1.1924303
1.1924303
1.1924301
1.1924298
1.1924294
1.1924288
1.1924282
1.1924275
1.1924268
1.1924259
1.192425
1.1924241
1.1924231
1.192422
1.192421
1.1924198
1.1924187
1.1924176
1.1924165
1.1924154
1.1924143
1.1924133
1.1924123
1.1924115
1.1924107
1.19241
1.1924095
1.1924091
1.1924088
1.1924086
1.1924085
1.1924084
1.1924081
1.1924076
1.1924066
1.1924048
1.1924009
1.1923924
1.1923725
1.1923241
1.1922051
1.1919115
1.1911869
1.1896955
1.1877635
1.1854083
1.182664
1.1795846
1.1762382
1.1727022
1.1690582
1.1653868
1.1617634
1.158255
1.1549177
1.1517954
1.1489196
1.1463097
1.1439743
1.1419124
1.1401152
1.1385681
1.137252
1.1361454
1.1352254
1.1344688
1.1338533
1.1333578
1.1329632
1.1326521
1.1324095
1.1322222
1.1320793
1.1319714
1.1318909
1.1318317
1.1317887
1.131758
1.1317366
1.131722
1.1317124
1.1317064
1.1317029
1.1317012
1.1317006
1.1317005
1.1317007
1.1317021
1.1317041
1.131706
1.1317079
1.1317096
1.1317113
1.1317128
1.1317143
1.1317158
1.1317171
1.1317185
1.1317199
1.1317212
1.1317226
1.131724
1.1317254
1.1317269
1.1317284
1.13173
1.1317316
1.1317333
1.131735
1.1317368
1.1317386
1.1317404
1.1317423
1.1317441
1.1317459
1.1317478
1.1317496
1.1317513
1.131753
1.1317547
1.1317563
1.1317579
1.1317594
1.1317609
1.1317622
1.1317636
1.1317648
1.131766
1.1317671
1.1317682
1.1317692
1.1317702
1.1317711
1.131772
1.1317729
1.1317737
1.1317745
1.1317752
1.1317759
1.1317766
1.1317773
1.1317779
1.1317785
1.1317791
1.1317797
1.1317803
1.1317808
1.1317813
1.1317819
1.1317824
1.1317829
1.1317834
1.1317838
1.1317843
1.1317848
1.1317852
1.1317856
1.1317861
1.1317865
1.1317869
1.1317873
1.1317877
1.1317881
1.1317885
1.1317889
1.1317893
1.1317896
1.13179
1.1317904
1.1317907
1.1317911
1.1317914
1.1317917
1.1317921
1.1317924
1.1317927
1.1317931
1.1317934
1.1317937
1.131794
1.1317943
1.1317946
1.1317949
1.1317952
1.1317955
1.1317957
1.131796
1.1317963
1.1317966
1.1317968
1.1317971
1.1317973
1.1317976
1.1317978
1.1317981
1.1317983
1.1317986
1.1317988
1.131799
1.1317993
1.1317995
1.1317997
1.1318
1.1318002
1.1318004
1.1318006
1.1318008
1.131801
1.1318013
1.1318015
1.1318017
1.1318019
1.1318021
1.1318023
1.1318025
1.1318027
1.1318029
1.131803
1.1318032
1.1318034
1.1318036
1.1318038
1.131804
1.1318041
1.1318043
1.1318045
1.1318047
1.1318048
1.131805
1.1318052
1.1318053
1.1318055
1.1318057
1.1318058
1.131806
1.1318061
1.1318063
1.1318065
1.1318066
1.1318068
1.1318069
1.1318071
1.1318072
1.1318073
1.1318075
1.1318076
1.1318078
1.1318079
1.131808
1.1318082
1.1318083
1.1318084
1.1318086
1.1318087
1.1318088
1.131809
1.1318091
1.1318092
1.1318094
1.1318095
1.1318096
1.1318097
1.1318099
1.13181
1.1318101
1.1318102
1.1318103
1.1318104
1.1318106
1.1318107
1.1318108
1.1318109
1.131811
1.1318111
1.1318112
1.1318114