/*--------------------------------*- C++ -*----------------------------------*\
| =========                 |                                                 |
| \\      /  F ield         | OpenFOAM: The Open Source CFD Toolbox           |
|  \\    /   O peration     | Version:  4.x                                   |
|   \\  /    A nd           | Web:      www.OpenFOAM.org                      |
|    \\/     M anipulation  |                                                 |
\*---------------------------------------------------------------------------*/
FoamFile
{
    version     2.0;
    format      ascii;
    class       volVectorField;
    location    "0.41";
    object      U;
}
// * * * * * * * * * * * * * * * * * * * * * * * * * * * * * * * * * * * * * //

dimensions      [0 1 -1 0 0 0 0];

internalField   nonuniform List<vector> 
25344
(
(0.02693019693 0.003064480536 0.003064482225)
(0.03063002028 0.004142605313 0.003663818724)
(0.03068189149 0.002100125831 0.003710091849)
(0.03036243248 0.001615636891 0.003753308227)
(0.0302088695 0.0009275943547 0.003758002287)
(0.03012727361 0.0006813272393 0.003764220037)
(0.03063002049 0.003663817015 0.004142610684)
(0.035359842 0.005041075599 0.005041081401)
(0.0353438289 0.002580741917 0.005115182318)
(0.03499519266 0.001855545666 0.005111667488)
(0.03486882375 0.001019043317 0.005102060052)
(0.03482799622 0.0007204283551 0.005099872718)
(0.03068189168 0.003710090282 0.002100134381)
(0.03534382878 0.005115176746 0.002580751167)
(0.03532812016 0.002595997711 0.002596006547)
(0.03502589213 0.001887284286 0.002580540653)
(0.0349279514 0.001053660585 0.002560685605)
(0.03489564412 0.0007606463099 0.002554834585)
(0.03036243282 0.003753306772 0.001615647388)
(0.03499519281 0.005111662138 0.001855556987)
(0.03502589211 0.002580531945 0.001887295077)
(0.03476304956 0.001871841878 0.001871852625)
(0.03467939336 0.001051922728 0.001852534075)
(0.03465230089 0.0007657206959 0.001836026158)
(0.03020886979 0.003758000813 0.0009276055883)
(0.03486882391 0.005102054689 0.001019055086)
(0.03492795146 0.002560676894 0.001053671651)
(0.03467939337 0.001852523408 0.001051933801)
(0.03460489537 0.001038671723 0.001038682711)
(0.0345820991 0.000759438216 0.001024588842)
(0.03012727367 0.003764218467 0.000681338358)
(0.03482799627 0.005099867146 0.0007204398955)
(0.03489564415 0.002554825851 0.0007606572868)
(0.03465230097 0.001836015521 0.0007657317358)
(0.03458209913 0.001024577895 0.0007594490765)
(0.03456274704 0.0007480019411 0.0007480127755)
(0.02264338925 0.002100633437 0.002100635444)
(0.02826514315 0.004010335662 0.00302026414)
(0.02880438738 0.002811690068 0.00308308499)
(0.0281575853 0.002416072998 0.003111556168)
(0.02773935871 0.00165842436 0.003104369249)
(0.02743882005 0.001323731492 0.003121088487)
(0.02826514332 0.003020262116 0.004010340584)
(0.03709105389 0.005620516849 0.005620520538)
(0.03849917072 0.004174699449 0.005873883324)
(0.03776868771 0.003585831187 0.005912880489)
(0.03712745025 0.002513709859 0.005915074063)
(0.03667433087 0.001988120072 0.005933802244)
(0.0288043874 0.003083082777 0.00281169766)
(0.03849917021 0.005873879446 0.004174704653)
(0.03986975652 0.004239403969 0.004239411199)
(0.03900084167 0.003538883489 0.004262593637)
(0.03831890714 0.002383232103 0.004272291473)
(0.03788854759 0.001860133318 0.004296582341)
(0.02815758517 0.003111554148 0.002416082304)
(0.0377686865 0.005912876363 0.003585837547)
(0.03900084129 0.004262586507 0.003538891422)
(0.03803710345 0.003523168861 0.003523176602)
(0.03732943199 0.002345686251 0.003520853951)
(0.03690056565 0.001825215422 0.003528366477)
(0.02773935815 0.003104367228 0.001658434432)
(0.03712744804 0.005915069494 0.002513716549)
(0.03831890573 0.004272284295 0.002383240144)
(0.03732943153 0.003520846397 0.002345694113)
(0.03660694508 0.00234091241 0.002340919981)
(0.03617018787 0.001819665889 0.00234169548)
(0.02743881913 0.003121086548 0.001323741657)
(0.03667432817 0.005933797432 0.001988126731)
(0.03788854576 0.004296575325 0.001860141295)
(0.036900565 0.003528359319 0.001825223244)
(0.03617018753 0.002341688288 0.001819673291)
(0.03572918657 0.001816581779 0.001816588823)
(0.01378967559 0.001339565641 0.001339567459)
(0.02135496938 0.00342979289 0.00213739435)
(0.02300665649 0.002834889722 0.002232004558)
(0.02247329799 0.002634311084 0.002239851207)
(0.02189915068 0.001975337672 0.002215010494)
(0.0214133423 0.001618679311 0.002220878301)
(0.02135496875 0.002137392511 0.003429797319)
(0.0348295654 0.00539843483 0.005398437774)
(0.03766775688 0.004597055969 0.0057334301)
(0.03723985873 0.004166343917 0.005772451197)
(0.03656515712 0.003084203346 0.00577956057)
(0.03597644845 0.002466639124 0.005790205936)
(0.02300665509 0.0022320028 0.002834896056)
(0.03766775567 0.005733427321 0.004597058548)
(0.04119620275 0.005078544843 0.005078548138)
(0.04079547293 0.004652698949 0.005164457366)
(0.04001063658 0.003423075682 0.00513286707)
(0.03935653038 0.002711727553 0.005117683854)
(0.02247329555 0.00223984934 0.002634318528)
(0.03723985547 0.005772447827 0.004166346986)
(0.04079547169 0.005164450155 0.0046527075)
(0.04041119739 0.004672080535 0.004672090446)
(0.03956887833 0.00345083319 0.004654308228)
(0.03888958744 0.002731514998 0.004640148631)
(0.02189914714 0.002215008495 0.001975345926)
(0.0365651522 0.005779556381 0.003084206945)
(0.04001063353 0.00513285921 0.003423084982)
(0.03956887659 0.004654297675 0.003450844917)
(0.03869723155 0.00343910108 0.003439114791)
(0.0379938607 0.002728244961 0.003428168833)
(0.02141333826 0.002220876352 0.001618688127)
(0.03597644312 0.005790201641 0.00246664333)
(0.03935652583 0.0051176753 0.00271173785)
(0.03888958424 0.004640137245 0.002731528432)
(0.03799385938 0.003428153984 0.002728261099)
(0.03727158048 0.002723258463 0.002723275934)
(0.00992106309 0.0006796624811 0.0006796637342)
(0.01673570089 0.002224368472 0.001220582244)
(0.01892637919 0.002344349487 0.001313280705)
(0.01879473659 0.002351895079 0.001301878527)
(0.01834191139 0.001945539625 0.001269948425)
(0.01784055457 0.001642702234 0.001250582622)
(0.01673570013 0.001220581111 0.002224371011)
(0.03122596846 0.00420353497 0.004203536431)
(0.03600856871 0.004464985462 0.004751966694)
(0.03617610133 0.004299842017 0.004830141215)
(0.03551646809 0.00351443928 0.0047727704)
(0.03473805715 0.002859870202 0.004716343057)
(0.01892637666 0.001313280021 0.002344352409)
(0.03600856606 0.004751965636 0.0044649856)
(0.04129193794 0.004955323287 0.004955320842)
(0.04180402993 0.004842760983 0.005027205403)
(0.04118014568 0.004013399854 0.00511031276)
(0.04034175707 0.003268161122 0.005085169051)
(0.01879473255 0.001301877807 0.002351897996)
(0.03617609598 0.004830139363 0.004299841096)
(0.04180402665 0.005027203404 0.004842759131)
(0.04223170661 0.004989494343 0.0049895054)
(0.04155107659 0.004094821008 0.004997242874)
(0.04069003221 0.003357389998 0.004978276085)
(0.01834190679 0.001269947554 0.001945542996)
(0.03551646115 0.004772767142 0.003514440137)
(0.04118014279 0.005110303717 0.004013407938)
(0.04155107593 0.004997226542 0.004094837749)
(0.04083919276 0.004123828597 0.004123850177)
(0.03996421502 0.00337945783 0.004120551196)
(0.0178405502 0.001250581862 0.001642707264)
(0.03473805086 0.00471633905 0.002859875156)
(0.04034175432 0.005085158462 0.003268174627)
(0.04069003191 0.004978258902 0.003357411801)
(0.03996421568 0.004120527732 0.003379484429)
(0.03907586636 0.003382814649 0.003382843527)
(0.007017763838 0.0003890382236 0.0003890394929)
(0.0131851941 0.001472429074 0.0006870307045)
(0.01560310815 0.001746105674 0.0007332404697)
(0.01587351982 0.001846001524 0.0007044143226)
(0.01560924008 0.001656577082 0.000658608165)
(0.01519901684 0.001472543235 0.0006348084777)
(0.01318519333 0.0006870294883 0.001472429835)
(0.02749487422 0.003027596496 0.003027592679)
(0.03333520884 0.003780041822 0.003591679056)
(0.03430725866 0.003887364433 0.003613621296)
(0.03391201633 0.003446971499 0.0035099017)
(0.03316465596 0.002949733017 0.003410354235)
(0.01560310542 0.0007332399826 0.001746104374)
(0.03333520466 0.003591683489 0.003780031925)
(0.04056811417 0.004555967944 0.004555957434)
(0.04172603159 0.004638674902 0.004619563101)
(0.04137814158 0.004121733652 0.004493386007)
(0.0405887939 0.003518781877 0.004439747751)
(0.01587351602 0.0007044138327 0.0018459988)
(0.03430725231 0.003613624734 0.003887350982)
(0.04172602715 0.004619569739 0.004638661189)
(0.04314071856 0.004804007906 0.00480400284)
(0.04280729901 0.004302688713 0.0047821565)
(0.04197943877 0.003680822173 0.004725133616)
(0.01560923613 0.0006586072252 0.0016565741)
(0.03391200991 0.00350990443 0.003446958084)
(0.04137813464 0.004493386238 0.004121721519)
(0.04280729787 0.00478215612 0.004302687093)
(0.04244705858 0.004308374993 0.004308377629)
(0.04160322022 0.003711928152 0.004279806932)
(0.01519901343 0.0006348082665 0.001472541245)
(0.03316465213 0.003410357456 0.002949722668)
(0.04058879343 0.004439750552 0.003518777254)
(0.04197944272 0.004725133748 0.003680824466)
(0.04160322526 0.004279804249 0.003711933202)
(0.04075248824 0.003708098702 0.003708103938)
(0.005275850203 0.0002231728466 0.000223174687)
(0.01070566883 0.0009362096426 0.0003920446488)
(0.0131615097 0.001223389274 0.0004136462569)
(0.01375227583 0.001364962657 0.0003855252123)
(0.01369990273 0.001319239191 0.000342893741)
(0.01344488269 0.00124707351 0.0003204324385)
(0.01070566741 0.000392043469 0.0009362118998)
(0.02413275374 0.002046017138 0.002046012056)
(0.03046614051 0.002906455655 0.002507806199)
(0.03215901241 0.003206190317 0.002517241235)
(0.03212749286 0.003039699019 0.002399557341)
(0.03158822827 0.002762365802 0.002295648426)
(0.01316150583 0.0004136457858 0.001223388982)
(0.03046613543 0.002507815357 0.002906439978)
(0.03872536513 0.003708530354 0.003708508427)
(0.04091956984 0.004112662525 0.003837456369)
(0.04088057195 0.003872427214 0.003690117974)
(0.04022329299 0.00347299874 0.003534726657)
(0.01375227007 0.0003855253176 0.001364959888)
(0.03215900341 0.00251725258 0.003206166286)
(0.04091956525 0.00383748024 0.004112632312)
(0.04322612591 0.004271738568 0.00427170646)
(0.0432500368 0.00409648071 0.004211710936)
(0.04261140148 0.003705530044 0.004119439298)
(0.01369989599 0.000342894212 0.001319234764)
(0.03212748289 0.00239956978 0.00303967023)
(0.04088056671 0.003690144356 0.003872392013)
(0.04325003606 0.004211743804 0.004096443557)
(0.04328541322 0.004082648762 0.004082610931)
(0.042654443 0.003737708992 0.004026780971)
(0.01344487483 0.0003204331404 0.001247068937)
(0.03158821782 0.002295661102 0.002762335308)
(0.04022328815 0.003534752023 0.003472959888)
(0.04261140324 0.004119472545 0.003705489621)
(0.0426544461 0.004026819803 0.003737667149)
(0.04203928969 0.003722965424 0.003722922207)
(0.004180767376 0.000130556861 0.0001305590105)
(0.009079805079 0.0005922348853 0.0002236720191)
(0.01150514992 0.0008412338131 0.0002310593393)
(0.0122968834 0.001002033824 0.0002075982953)
(0.01241819409 0.001048739152 0.0001771427367)
(0.01230707761 0.001053849914 0.0001617023173)
(0.009079802949 0.0002236701943 0.0005922403748)
(0.02155714045 0.001314663594 0.001314663981)
(0.02798211988 0.002081364607 0.00163749654)
(0.03014586352 0.002484317526 0.001649063868)
(0.03046516788 0.002534390151 0.001558451697)
(0.03017533044 0.002444810543 0.001483993288)
(0.01150514459 0.0002310582914 0.0008412392203)
(0.02798211292 0.001637502581 0.002081355725)
(0.03656168111 0.002729623582 0.002729601573)
(0.03944758607 0.003302203271 0.002858875361)
(0.03985010584 0.00334940049 0.002762907891)
(0.03946061251 0.003184713521 0.002657940877)
(0.01229687416 0.0002075979147 0.001002037854)
(0.03014584839 0.00164907435 0.002484299326)
(0.03944757664 0.002858904947 0.003302167486)
(0.04257267529 0.003516801982 0.003516756953)
(0.04301760681 0.003611418706 0.00347501599)
(0.04261891218 0.003452168904 0.003395266071)
(0.01241818138 0.0001771429231 0.0010487416)
(0.03046514693 0.001558464666 0.002534364852)
(0.03985009131 0.002762941754 0.003349354426)
(0.04301760189 0.003475065107 0.00361136243)
(0.0434938719 0.003621695839 0.003621635523)
(0.04311881941 0.003502832325 0.003578959168)
(0.0123070612 0.000161702902 0.001053851574)
(0.03017530391 0.00148400762 0.002444781985)
(0.03946059306 0.002657975402 0.003184662043)
(0.04261890339 0.00339531587 0.003452107067)
(0.04311881584 0.003579020211 0.003502766834)
(0.04277441062 0.003496691247 0.003496624841)
(0.003496111318 7.798366797e-05 7.798534125e-05)
(0.008017348755 0.0003899663862 0.0001316627578)
(0.01038814951 0.0006097882574 0.0001342739224)
(0.01129210385 0.000781905316 0.0001181413194)
(0.01153716563 0.0008833463557 9.951337145e-05)
(0.01154035256 0.0009375708204 9.114280276e-05)
(0.008017346756 0.0001316611971 0.0003899733733)
(0.01970341806 0.0008498447293 0.0008498519997)
(0.02603258543 0.001480685254 0.001065995521)
(0.02845667123 0.001911149944 0.001083146201)
(0.02904684621 0.002101877868 0.001030825687)
(0.02897748065 0.002142217938 0.0009903460388)
(0.01038814385 0.0001342722743 0.0006097986143)
(0.02603257819 0.001065992831 0.001480691268)
(0.03461098077 0.001969472158 0.001969466018)
(0.03788684581 0.002578985001 0.002096517756)
(0.03864169854 0.002813682002 0.002057863831)
(0.03850899397 0.002821848069 0.002006336865)
(0.01129209314 0.0001181402581 0.0007819167745)
(0.02845665318 0.00108314807 0.001911151268)
(0.03788683321 0.002096532939 0.002578967922)
(0.04148453067 0.002802596438 0.0028025673)
(0.0423147421 0.003086442451 0.002811270311)
(0.04217994772 0.003102718579 0.002778188319)
(0.01153714932 9.951324364e-05 0.0008833571054)
(0.02904681681 0.001030830539 0.002101874127)
(0.03864167347 0.002057883763 0.002813655522)
(0.04231472985 0.002811304201 0.003086402206)
(0.04319273862 0.003141066947 0.003141022347)
(0.0430916621 0.003188408902 0.003139079028)
(0.01154033028 9.114309696e-05 0.0009375801269)
(0.02897743938 0.0009903526466 0.002142211316)
(0.03850895605 0.002006358027 0.002821816391)
(0.04217992304 0.002778222775 0.003102672744)
(0.04309165027 0.0031391228 0.003188360174)
(0.04303045305 0.003217778402 0.003217733472)
(0.003032319848 4.956450651e-05 4.9565425e-05)
(0.007270414156 0.0002871598807 8.229183829e-05)
(0.009578261199 0.0005013658188 8.394478636e-05)
(0.01053810367 0.0006900803715 7.635219997e-05)
(0.01086489295 0.000828260969 6.905325726e-05)
(0.01095646919 0.0009141140525 6.909860542e-05)
(0.007270413064 8.229021933e-05 0.0002871656398)
(0.01831825998 0.000594982897 0.0005949931955)
(0.02448350657 0.001132331321 0.0007415609339)
(0.02703111246 0.001567074482 0.0007703031478)
(0.02781253874 0.001837784827 0.0007600095575)
(0.02793215046 0.001966297253 0.0007606881903)
(0.009578257302 8.394293205e-05 0.0005013767217)
(0.02448350136 0.0007415511403 0.001132348163)
(0.032895415 0.001490883853 0.00149089628)
(0.03636292748 0.002088183374 0.001616979718)
(0.0373824529 0.002428128809 0.001638164016)
(0.03748813809 0.002558441276 0.00165298548)
(0.01053809513 7.635052814e-05 0.000690094339)
(0.02703109702 0.0007702957398 0.001567093316)
(0.03636291496 0.001616973114 0.002088193091)
(0.04021341612 0.002307591279 0.002307592247)
(0.04134898455 0.002701407013 0.00237867894)
(0.04147449284 0.002849392698 0.002422897861)
(0.01086487836 6.905204061e-05 0.0008282757367)
(0.02781250968 0.000760003782 0.001837801814)
(0.0373824238 0.001638160286 0.002428132961)
(0.04134896747 0.002378681588 0.002701400355)
(0.04255221267 0.002818052818 0.002818041712)
(0.04272106267 0.002998119773 0.002896812168)
(0.010956448 6.909740639e-05 0.0009141281198)
(0.02793210541 0.000760682434 0.001966312603)
(0.03748808843 0.001652981772 0.0025584427)
(0.04147445328 0.002422899525 0.002849382706)
(0.04272103965 0.002896821198 0.002998105404)
(0.04291296018 0.00311035573 0.003110345087)
(0.002672832316 3.606878566e-05 3.606901409e-05)
(0.006665486707 0.0002482991255 5.69462309e-05)
(0.008905782226 0.0004791737514 5.917492571e-05)
(0.009888558878 0.0006952235865 5.892009912e-05)
(0.01026726631 0.0008659619685 6.138970426e-05)
(0.01042247998 0.0009766401939 6.940401604e-05)
(0.006665486407 5.694532326e-05 0.0002483022193)
(0.01716213852 0.0004820642057 0.0004820724656)
(0.02315049618 0.0009890058576 0.0005919492773)
(0.02574701861 0.001439150832 0.0006365322664)
(0.02665712347 0.001764546797 0.0006659871684)
(0.02692672023 0.001951518854 0.0007075146396)
(0.00890578045 5.917354909e-05 0.0004791814144)
(0.02315049355 0.0005919385372 0.0009890232747)
(0.03134873928 0.001264159213 0.001264179557)
(0.03489826799 0.001854557962 0.001396716953)
(0.03610412134 0.00225832058 0.001474931406)
(0.03641455594 0.002469355162 0.001556635639)
(0.009888553568 5.891845614e-05 0.0006952346322)
(0.02574700835 0.0006365211573 0.001439173903)
(0.03489825832 0.001396697389 0.001854582987)
(0.03887341287 0.002073159117 0.002073181768)
(0.04023360742 0.00253289952 0.002207334065)
(0.04059464224 0.002768213503 0.002332992443)
(0.01026725568 6.138816718e-05 0.0008659742762)
(0.02665710106 0.0006659762971 0.00176457086)
(0.03610409528 0.001474912793 0.002258344886)
(0.04023358947 0.002207312797 0.002532919969)
(0.04168620816 0.002714672247 0.002714689416)
(0.04211721656 0.002982073942 0.002881867562)
(0.01042246302 6.940250036e-05 0.0009766522794)
(0.02692668229 0.0007075032003 0.001951542507)
(0.03641450738 0.001556616153 0.002469379487)
(0.04059459782 0.002332969787 0.00276823473)
(0.04211718848 0.002881850127 0.002982090173)
(0.04264281057 0.003174846569 0.003174853472)
(0.002346609836 2.986077962e-05 2.986063298e-05)
(0.006093143394 0.0002461280869 4.46698262e-05)
(0.008257945316 0.0005118240649 4.733758623e-05)
(0.009244273516 0.0007674539903 5.224809308e-05)
(0.009656170042 0.0009753155905 6.236355776e-05)
(0.009857792954 0.001112135095 7.733780779e-05)
(0.006093143666 4.466959273e-05 0.0002461289245)
(0.01605455093 0.0004554698883 0.0004554740788)
(0.02186369132 0.0009876242435 0.0005523877697)
(0.02447387803 0.001480105849 0.0006153387036)
(0.02547466594 0.001860346286 0.0006812669574)
(0.02586268313 0.002095750764 0.0007622751178)
(0.008257944756 4.733685972e-05 0.000511827386)
(0.0218636905 0.0005523802551 0.000987635201)
(0.02984589026 0.001225073365 0.001225090362)
(0.03343038808 0.001841111748 0.00137471493)
(0.03477543308 0.002301509192 0.001508469435)
(0.03525858315 0.002573066366 0.001657375589)
(0.009244270617 5.224699979e-05 0.0007674593865)
(0.02447387295 0.0006153296261 0.001480121948)
(0.03343038229 0.001374695759 0.001841134681)
(0.03747507991 0.002072158575 0.002072183839)
(0.03901387449 0.002589363756 0.002270525509)
(0.03958785397 0.002889234741 0.002480017842)
(0.009656163467 6.236261787e-05 0.0009753217437)
(0.02547465206 0.000681257639 0.001860363605)
(0.03477541423 0.00150844972 0.002301533193)
(0.03901385918 0.002270499536 0.002589389348)
(0.04067966509 0.002838509669 0.002838534348)
(0.04136142222 0.003169888125 0.003099199283)
(0.009857781315 7.733696968e-05 0.001112141956)
(0.02586265637 0.0007622654852 0.002095768355)
(0.03525854416 0.001657354809 0.002573090853)
(0.03958781383 0.00247998948 0.002889262489)
(0.04136139514 0.003099173266 0.003169915512)
(0.04218323203 0.003458587009 0.003458604899)
(0.002014581008 2.70420042e-05 2.704177246e-05)
(0.005489979044 0.0002629922944 3.804826981e-05)
(0.007563721728 0.0005768427484 4.031660247e-05)
(0.008538860404 0.0008849393292 4.841517282e-05)
(0.008969991337 0.00114023965 6.474775099e-05)
(0.009204654262 0.00131110538 8.66771235e-05)
(0.005489979382 3.8048443e-05 0.0002629917724)
(0.01487163922 0.0004764911935 0.0004764921657)
(0.02048553848 0.001077901996 0.0005758635375)
(0.02308873665 0.001646485673 0.0006600294724)
(0.02415578506 0.002100344841 0.0007631042248)
(0.02463829781 0.002393120359 0.0008879944118)
(0.007563721709 4.031654415e-05 0.0005768429495)
(0.02048553816 0.0005758597438 0.001077906445)
(0.02824579149 0.001315493817 0.001315503892)
(0.03184656579 0.002004451589 0.001497040873)
(0.03330466226 0.002543195405 0.00169487598)
(0.03393687992 0.002882316254 0.001924302487)
(0.008538858596 4.841494735e-05 0.0008849406924)
(0.02308873372 0.0006600240552 0.001646493427)
(0.03184656243 0.001497027839 0.002004466164)
(0.03594418574 0.002272751349 0.002272769505)
(0.03764036848 0.002875571047 0.002554604588)
(0.03841208719 0.003252483726 0.002874451708)
(0.008969986705 6.474759112e-05 0.001140241701)
(0.0241557757 0.0007630986728 0.002100353621)
(0.03330464896 0.001694862345 0.00254321125)
(0.03764035622 0.002554585387 0.002875590126)
(0.03950730912 0.003223588093 0.003223607119)
(0.04043241821 0.003645710166 0.003616154247)
(0.009204645946 8.667691269e-05 0.001311107868)
(0.02463827855 0.0008879893063 0.002393129937)
(0.0339368495 0.001924288905 0.002882333012)
(0.03841205275 0.002874430682 0.003252506199)
(0.04043239254 0.003616133854 0.003645736361)
(0.04152815602 0.004094196561 0.004094210781)
(0.001660507951 2.465547744e-05 2.465524289e-05)
(0.004823493852 0.0002857171594 3.154224696e-05)
(0.006782068715 0.0006567769009 3.192081604e-05)
(0.007730185055 0.001029829058 4.114843467e-05)
(0.00816758216 0.001345846401 6.239088545e-05)
(0.008423124159 0.001562426431 9.118912531e-05)
(0.004823494091 3.154278728e-05 0.0002857157965)
(0.01353316585 0.0005174920652 0.0005174903434)
(0.01891112617 0.001221469059 0.000627791242)
(0.02148444333 0.001901420031 0.000735029296)
(0.02259727367 0.002458216272 0.0008772581256)
(0.02315367143 0.002829135166 0.001052324643)
(0.006782068355 3.192143916e-05 0.0006567746297)
(0.01891112562 0.0006277912996 0.001221467652)
(0.026414775 0.001487390119 0.001487392321)
(0.03001469726 0.002301260212 0.001715417962)
(0.03156697307 0.002957091705 0.001989481552)
(0.03232823151 0.003387759246 0.002317744875)
(0.007730183137 4.114925029e-05 0.001029827123)
(0.02148444045 0.0007350283868 0.001901420306)
(0.03001469447 0.001715413411 0.002301265227)
(0.03415434822 0.002634252606 0.002634260482)
(0.03599465322 0.003371694226 0.003023899693)
(0.03695048898 0.003855639073 0.003487167757)
(0.008167577932 6.239152946e-05 0.001345844923)
(0.02259726582 0.000877257256 0.002458217739)
(0.03156696278 0.001989476698 0.002957097638)
(0.0359946439 0.003023890986 0.003371701959)
(0.03805779019 0.003856127772 0.003856133821)
(0.03922456889 0.004405519017 0.004435009905)
(0.008423117301 9.118961246e-05 0.001562425253)
(0.02315365752 0.001052324349 0.002829138181)
(0.03232820916 0.002317739446 0.003387766044)
(0.03695046339 0.003487155228 0.003855649345)
(0.03922455107 0.004435000203 0.004405531119)
(0.04063203146 0.005070326205 0.005070330679)
(0.001284082845 2.043652359e-05 2.043623665e-05)
(0.004084330485 0.0003039674175 2.106424393e-05)
(0.005895011814 0.0007372304432 1.729160259e-05)
(0.006796155904 0.001186844352 2.517843805e-05)
(0.007225659089 0.00157874992 4.98184574e-05)
(0.007489344312 0.001855925719 8.528348063e-05)
(0.004084330427 2.106542645e-05 0.0003039653233)
(0.01199223115 0.0005575265064 0.0005575232751)
(0.01706311095 0.0013880739 0.0006813497628)
(0.01957082776 0.002214474355 0.000811391334)
(0.02070578628 0.002910778755 0.0009946247751)
(0.0213151012 0.003391029626 0.001227076726)
(0.0058950112 1.729277797e-05 0.0007372266822)
(0.01706311056 0.0006813525105 0.001388069309)
(0.02423225985 0.001701967823 0.001701964935)
(0.02779836987 0.002694479848 0.001988684895)
(0.02942316977 0.003518622364 0.002352411089)
(0.03029393276 0.004081938395 0.002800725316)
(0.006796154112 2.518000881e-05 0.001186840615)
(0.01957082487 0.0008113937724 0.00221447064)
(0.02779836683 0.001988686601 0.002694478709)
(0.0319542972 0.003119242889 0.003119243554)
(0.03392431875 0.004055776809 0.003645581322)
(0.03505532231 0.00469796339 0.004291419559)
(0.007225654948 4.982026871e-05 0.001578746355)
(0.02070577936 0.0009946277107 0.002910776693)
(0.02942316064 0.002352413072 0.003518623109)
(0.03392431108 0.003645580274 0.004055778881)
(0.03617795323 0.004721978836 0.004721980483)
(0.0375925801 0.005471568691 0.005544334236)
(0.007489338588 8.528463364e-05 0.001855922698)
(0.02131509013 0.001227080274 0.003391029671)
(0.03029391506 0.002800727324 0.004081940133)
(0.03505530229 0.004291416824 0.004697966381)
(0.03759256425 0.005544331264 0.005471574798)
(0.03935328521 0.006424232575 0.006424233364)
(0.03008716941 0.00376197074 0.0004554508136)
(0.03481545483 0.005098839412 0.0004664100008)
(0.03488133145 0.002552745893 0.0005005346309)
(0.03463818689 0.001825423331 0.0005096412913)
(0.03456971197 0.001014295578 0.0005078086403)
(0.03455232487 0.000738908615 0.000500329251)
(0.03006740155 0.003762051281 0.0003297413148)
(0.03481394508 0.00510022215 0.0003316006876)
(0.03487677415 0.002553807499 0.0003598966157)
(0.03463322121 0.001819296128 0.0003699574029)
(0.03456518202 0.001007875848 0.0003709293102)
(0.03454886962 0.0007325673884 0.0003664608476)
(0.03005755229 0.003761125468 0.0002301766256)
(0.03481545471 0.005101779646 0.0002280101184)
(0.0348750466 0.002555571189 0.0002494212248)
(0.03463061814 0.001816177005 0.000258752375)
(0.03456229336 0.001004276397 0.0002608245428)
(0.03454646648 0.0007286779302 0.0002584608793)
(0.03005275405 0.003760793977 0.0001538573241)
(0.03481772414 0.005103223366 0.0001511397665)
(0.0348750356 0.00255713299 0.0001660545689)
(0.03462983669 0.001814671934 0.000173407117)
(0.03456104379 0.001002383227 0.0001754922939)
(0.03454541462 0.0007264494049 0.0001743819272)
(0.0300505604 0.003760553651 8.840620241e-05)
(0.03481962767 0.005104221464 8.635773515e-05)
(0.03487551502 0.00255825241 9.51422641e-05)
(0.03462971623 0.001814096226 9.982384541e-05)
(0.03456048782 0.00100153544 0.0001013012049)
(0.03454490787 0.0007253323859 0.0001008718681)
(0.03004970324 0.003760462546 2.891329028e-05)
(0.03482065791 0.005104732056 2.818249693e-05)
(0.03487588525 0.002558817957 3.108378027e-05)
(0.03462976602 0.001813922397 3.268339866e-05)
(0.03456028633 0.001001226941 3.320843345e-05)
(0.03454470812 0.0007248826351 3.310249099e-05)
(0.03004970331 0.003760463173 -2.889553454e-05)
(0.03482065795 0.005104733253 -2.816119146e-05)
(0.0348758853 0.002558818924 -3.106199787e-05)
(0.03462976591 0.001813923027 -3.266025944e-05)
(0.03456028617 0.001001227398 -3.318440222e-05)
(0.03454470789 0.0007248826969 -3.307793652e-05)
(0.03005056076 0.00376055493 -8.838718619e-05)
(0.03481962736 0.005104224037 -8.633638167e-05)
(0.03487551464 0.002558254796 -9.512086627e-05)
(0.03462971585 0.001814098148 -9.980114114e-05)
(0.03456048714 0.001001536667 -0.0001012778816)
(0.03454490717 0.0007253327266 -0.0001008481545)
(0.03005275401 0.003760795349 -0.0001538376862)
(0.03481772398 0.005103226581 -0.0001511183833)
(0.03487503507 0.002557136593 -0.0001660337864)
(0.03462983612 0.001814674807 -0.0001733855607)
(0.03456104301 0.001002384983 -0.0001754702404)
(0.03454541366 0.0007264501033 -0.0001743596369)
(0.03005755196 0.003761126952 -0.0002301568984)
(0.03481545442 0.005101783113 -0.0002279888113)
(0.03487504603 0.002555575172 -0.0002494012896)
(0.03463061742 0.001816180522 -0.0002587321512)
(0.03456229242 0.001004278598 -0.0002608040579)
(0.03454646538 0.0007286788071 -0.0002584401911)
(0.03006740108 0.003762052772 -0.0003297219477)
(0.0348139446 0.005100225497 -0.0003315800465)
(0.03487677364 0.002553811449 -0.0003598775031)
(0.03463322036 0.001819299666 -0.0003699383466)
(0.03456518092 0.001007878119 -0.0003709106813)
(0.03454886825 0.0007325680073 -0.0003664424318)
(0.0300871688 0.003761972117 -0.0004554323312)
(0.03481545431 0.005098842523 -0.0004663902922)
(0.03488133087 0.002552749583 -0.0005005162996)
(0.03463818588 0.001825426513 -0.0005096232645)
(0.03456971071 0.001014297174 -0.0005077915918)
(0.03455232335 0.000738908637 -0.0005003131128)
(0.02727455767 0.003126519531 0.0009825979759)
(0.03642758473 0.005947791814 0.001482420896)
(0.03766958974 0.004308513595 0.001360534151)
(0.03668869655 0.003532024356 0.001329983486)
(0.03595571511 0.002339991229 0.001324701843)
(0.03551387553 0.001811949443 0.001321580341)
(0.02717462805 0.003135108071 0.00075184455)
(0.03628228817 0.005961920499 0.001129395228)
(0.0375457475 0.00431967012 0.001028695129)
(0.03657107248 0.003535901837 0.001004948431)
(0.03583747238 0.002338461507 0.00100123097)
(0.03539616877 0.001807766535 0.0009994660072)
(0.02711697013 0.003139691134 0.0005511719158)
(0.03619970657 0.0059722633 0.000826957744)
(0.03747751178 0.004327860024 0.0007473928137)
(0.03650728486 0.003539340335 0.0007292837829)
(0.03577385534 0.002337584309 0.0007268906513)
(0.03533332936 0.001804776435 0.0007264229389)
(0.02708303073 0.003143271559 0.0003788202525)
(0.03615175403 0.005979831794 0.0005675781728)
(0.03743847301 0.004334404233 0.0005105937107)
(0.03647138512 0.003542554049 0.0004979588456)
(0.03573849078 0.002337477053 0.0004967272709)
(0.03529869726 0.001803040208 0.0004970426033)
(0.02706441444 0.003145432928 0.0002217247651)
(0.03612562035 0.005984665517 0.0003319234141)
(0.0374174261 0.004338943652 0.0002976440581)
(0.03645233512 0.00354498606 0.0002901663027)
(0.03571998925 0.002337711322 0.00028967413)
(0.0352807252 0.00180218463 0.0002901594022)
(0.02705610882 0.003146478579 7.306221455e-05)
(0.03611399796 0.00598703644 0.0001093216783)
(0.03740808441 0.004341291416 9.789257019e-05)
(0.03644396645 0.003546279063 9.54186198e-05)
(0.03571196291 0.002337916513 9.530175197e-05)
(0.03527297611 0.001801843839 9.551415061e-05)
(0.02705610898 0.003146479174 -7.304464209e-05)
(0.03611399796 0.005987036731 -0.0001093094803)
(0.03740808449 0.004341292268 -9.787005475e-05)
(0.03644396629 0.003546279624 -9.539180601e-05)
(0.03571196251 0.002337916825 -9.527242059e-05)
(0.03527297573 0.001801843896 -9.548392943e-05)
(0.02706441432 0.003145433686 -0.000221707019)
(0.03612562016 0.005984667247 -0.0003319111271)
(0.03741742566 0.004338945581 -0.0002976222561)
(0.03645233418 0.003544987636 -0.0002901403718)
(0.03571998802 0.002337712259 -0.000289645836)
(0.03528072405 0.001802184922 -0.0002901302567)
(0.02708302991 0.00314327288 -0.0003788023701)
(0.03615175333 0.005979834157 -0.0005675662235)
(0.03743847164 0.004334406784 -0.0005105727221)