/*--------------------------------*- C++ -*----------------------------------*\
  =========                 |
  \\      /  F ield         | OpenFOAM: The Open Source CFD Toolbox
   \\    /   O peration     | Website:  https://openfoam.org
    \\  /    A nd           | Version:  7
     \\/     M anipulation  |
\*---------------------------------------------------------------------------*/
FoamFile
{
    version     2.0;
    format      ascii;
    class       volScalarField;
    location    "0.00065";
    object      Uy;
}
// * * * * * * * * * * * * * * * * * * * * * * * * * * * * * * * * * * * * * //

dimensions      [0 1 -1 0 0 0 0];

internalField   nonuniform List<scalar> 
5000
(
1.5648525e-16
1.7728195e-16
0
0
-9.2310102e-17
1.0516397e-31
9.2678962e-17
0
0
-9.2844769e-17
-1.8571818e-16
9.2857255e-17
9.285041e-17
-9.2837977e-17
0
-9.2804512e-17
-8.237997e-48
9.2766186e-17
0
9.272759e-17
-9.2707348e-17
-9.2689073e-17
1.8533772e-16
-9.2650594e-17
-9.263039e-17
-7.6333664e-31
9.2591945e-17
9.257369e-17
-1.8510705e-16
1.6043067e-30
-1.617104e-30
9.2496917e-17
1.8495347e-16
-1.849171e-16
1.6026275e-30
-8.037827e-30
-3.2039272e-30
1.8476398e-16
-1.8472371e-16
-1.8468756e-16
1.8464733e-16
-6.3488247e-30
-1.8457119e-16
9.226728e-17
2.7674282e-16
-9.2229047e-17
-9.2209647e-17
-6.3147365e-30
-1.8434338e-16
0
9.2133738e-17
1.3090301e-32
-9.2095805e-17
1.8415372e-16
-3.2182248e-30
-1.8407794e-16
9.2020038e-17
-3.1770174e-30
-9.1982215e-17
0
9.1944435e-17
3.1352179e-30
2.6121454e-32
9.1887843e-17
-9.1869001e-17
3.2109627e-30
9.1831348e-17
-9.1812537e-17
-9.1793737e-17
9.1774947e-17
9.1756168e-17
-9.1737399e-17
-9.1718641e-17
1.8339979e-16
9.1681157e-17
-9.1662431e-17
0
9.1625009e-17
-1.301804e-32
-9.158763e-17
9.1568956e-17
-2.6020158e-32
2.6014857e-32
9.1512998e-17
9.1494366e-17
3.1848739e-30
-9.1457134e-17
0
-9.1419944e-17
-9.481908e-30
-3.194624e-30
9.1364237e-17
9.1345689e-17
-1.826543e-16
-6.3191834e-30
9.1290108e-17
0
0
-9.1234621e-17
-6.3257458e-30
1.8239536e-16
-9.1179227e-17
-1.8232157e-16
0
9.1123927e-17
9.1105514e-17
-9.1087112e-17
-9.106872e-17
0
0
9.1013606e-17
9.0995255e-17
0
-9.0958584e-17
3.1791537e-30
9.0921955e-17
-9.0903656e-17
2.5831175e-32
-3.1765955e-30
-5.3018431e-49
1.8166112e-16
-3.8715617e-32
-9.0794074e-17
0
-9.0757629e-17
9.0739422e-17
9.0721224e-17
-1.8140607e-16
-9.068486e-17
1.8133339e-16
9.0648537e-17
-9.063039e-17
-9.0612253e-17
-9.0594127e-17
0
9.0557904e-17
9.0539808e-17
-9.0521722e-17
-3.1381674e-30
9.048558e-17
-9.0467524e-17
-9.0449478e-17
0
9.0413415e-17
9.0395399e-17
-9.0377393e-17
9.0359397e-17
-5.1353147e-32
-9.0323435e-17
9.0305468e-17
-9.0287512e-17
6.2857577e-30
9.0251629e-17
-9.0233703e-17
9.0215786e-17
9.0197879e-17
-9.0179982e-17
0
0
-9.0126351e-17
-9.0108493e-17
9.0090646e-17
9.0072808e-17
-9.005498e-17
-6.2439845e-30
9.0019354e-17
-9.0001555e-17
-8.9983766e-17
0
8.9948218e-17
8.9930459e-17
0
-8.9894969e-17
-8.9877239e-17
0
8.9841808e-17
1.8687628e-29
-8.9806416e-17
8.9788735e-17
8.9771063e-17
-8.9753401e-17
-6.1975774e-30
6.1708595e-30
3.8241611e-32
8.9682849e-17
-8.9665235e-17
-1.2433942e-29
6.164802e-30
-6.1635925e-30
8.9594876e-17
0
0
-8.9542208e-17
-8.9524671e-17
0
0
8.9472117e-17
5.0459901e-49
-8.9437129e-17
0
8.9402179e-17
-8.9384718e-17
-2.4764712e-29
1.7869965e-16
-8.9332393e-17
-1.8543626e-29
-1.2689946e-32
-8.9280152e-17
8.9262758e-17
-1.268253e-32
-1.2350379e-29
6.1739879e-30
-8.9193274e-17
0
8.9158588e-17
6.1691869e-30
2.4735279e-29
8.910663e-17
0
-8.9072038e-17
-8.9054756e-17
0
0
0
8.8985721e-17
6.1572297e-30
-8.8951259e-17
0
0
8.8899636e-17
8.8882446e-17
-8.8865266e-17
-8.8848095e-17
0
8.8813781e-17
8.8796638e-17
-8.8779503e-17
-8.8762378e-17
0
8.8728155e-17
-2.4633295e-29
-6.1508355e-30
8.8676889e-17
-8.8659819e-17
-8.8642757e-17
0
8.8608662e-17
-1.2312656e-29
8.8574602e-17
1.2282755e-29
-1.7708116e-16
8.852358e-17
-1.2275682e-29
-3.0721042e-29
-6.1229137e-30
-8.8455675e-17
8.8438722e-17
8.8421777e-17
0
-8.8387914e-17
-8.8370996e-17
0
8.8337186e-17
8.8320295e-17
-1.7660682e-16
-8.8286538e-17
8.8269673e-17
8.8252817e-17
2.4476295e-29
-8.8219132e-17
8.8202303e-17
-6.1155725e-30
-8.8168671e-17
8.8151868e-17
-6.1246015e-30
6.1359575e-30
-2.5039956e-32
-6.0835514e-30
8.806799e-17
0
0
-8.8017772e-17
-8.8001051e-17
0
0
0
0
8.7917582e-17
6.0583636e-30
-1.7576852e-16
3.7460216e-32
8.7850974e-17
8.7834345e-17
-1.2192617e-29
-1.2165357e-29
-1.247493e-32
-8.7767924e-17
-8.7751343e-17
-8.7734771e-17
1.7543642e-16
2.6310496e-16
-8.7685111e-17
-1.7533715e-16
0
8.7635536e-17
8.7619029e-17
-8.7602532e-17
2.4893451e-32
-3.7333151e-32
2.4884086e-32
8.7536634e-17
8.7520181e-17
-8.7503738e-17
-1.7497461e-16
8.7470876e-17
4.6870634e-49
8.7438047e-17
2.4225558e-29
-1.748105e-16
0
0
1.7471222e-16
-4.8505019e-29
-1.7464677e-16
0
8.7290689e-17
8.7274348e-17
-8.7258014e-17
1.2397789e-32
-1.2110374e-29
1.239315e-32
8.7192729e-17
-8.7176419e-17
-8.7160114e-17
0
8.7127516e-17
-1.2094527e-29
-8.7094932e-17
1.7415729e-16
-2.4150741e-29
-8.7046083e-17
-2.4166445e-29
-1.7402706e-16
1.7399452e-16
8.6980995e-17
-8.6964731e-17
-1.2356121e-32
-8.6932214e-17
0
0
8.688347e-17
-1.2048306e-29
-1.73702e-16
1.2339963e-32
2.6045566e-16
-8.6802343e-17
-8.678614e-17
1.7353989e-16
-8.6753764e-17
8.6737592e-17
1.7344287e-16
-8.6705288e-17
-8.6689158e-17
-8.6673045e-17
8.665695e-17
9.1687407e-49
-8.662482e-17
8.6608788e-17
-8.6592781e-17
8.65768e-17
2.3987021e-29
2.4597547e-32
8.6529036e-17
-1.7302636e-16
8.6497361e-17
2.4014214e-29
-2.3985268e-29
-8.6450144e-17
-1.7286898e-16
2.5925666e-16
2.3967929e-29
-4.7927258e-29
2.3934795e-29
-1.7271398e-16
1.7268332e-16
-2.3946584e-29
-1.7262235e-16
0
0
8.6265946e-17
-1.1962837e-29
-8.6236144e-17
-8.6221354e-17
8.6206641e-17
2.5857601e-16
-8.6177448e-17
-8.6162972e-17
-2.4484899e-32
-8.6134268e-17
0
1.722118e-16
1.7218369e-16
-8.6077873e-17
-1.7212798e-16
-8.6050194e-17
1.7207297e-16
1.7204573e-16
-1.7201866e-16
-1.7199177e-16
0
1.719385e-16
-8.5956065e-17
-1.7188593e-16
8.5929945e-17
8.591701e-17
-1.2207715e-32
1.1925164e-29
8.5878695e-17
-8.5866081e-17
-8.5853545e-17
8.5841083e-17
-1.1904263e-29
-1.2195241e-32
-1.1900856e-29
-8.5791953e-17
8.577984e-17
-3.5724013e-29
-1.190634e-29
-2.3797183e-29
-8.5732005e-17
8.5720191e-17
-1.1899763e-29
-2.3759739e-29
-1.2176579e-32
-1.7134689e-16
-8.5661873e-17
8.5650345e-17
1.7127772e-16
-1.1888514e-29
-1.7123199e-16
-8.5604616e-17
1.7118654e-16
8.5581953e-17
-8.5570665e-17
-8.5559404e-17
-2.3742867e-29
8.5536954e-17
0
0
8.5503438e-17
0
-8.5481184e-17
8.547008e-17
1.2144453e-32
-2.3715042e-29
0
-8.5425792e-17
8.5414747e-17
8.5403713e-17
-1.7078537e-16
-8.538167e-17
8.5370661e-17
0
0
-8.533768e-17
2.3705652e-29
8.5315729e-17
0
0
-8.5282857e-17
3.5529589e-29
8.5260981e-17
0
0
0
0
0
0
0
0
1.7032604e-16
4.7265938e-29
-8.5141384e-17
8.5130589e-17
-8.511981e-17
8.5109048e-17
-2.3654292e-29
-8.5087576e-17
-2.3624153e-29
-8.5066181e-17
0
0
8.5034242e-17
2.3609373e-29
-8.501306e-17
0
0
0
0
0
0
0
1.6985861e-16
-7.0692636e-29
-1.6981724e-16
8.4898314e-17
1.2063315e-32
8.4877781e-17
-4.7059698e-29
-1.6971469e-16
-8.4847165e-17
-1.8773415e-49
2.5448061e-16
0
-1.6961331e-16
0
0
1.6955296e-16
-2.3513865e-29
-2.5426932e-16
8.4746437e-17
8.4736446e-17
-8.4726464e-17
8.4716488e-17
-8.4706517e-17
-2.3494474e-29
8.4686581e-17
-8.4676612e-17
0
-8.4656658e-17
8.4646669e-17
1.6927334e-16
-8.4626654e-17
-8.4616623e-17
-8.4606573e-17
-8.4596501e-17
1.6917281e-16
8.457628e-17
-8.4566125e-17
0
8.4545714e-17
-8.4535451e-17
-8.4525147e-17
2.535444e-16
2.4017596e-32
-1.6898792e-16
8.448346e-17
1.1728223e-29
8.4462295e-17
-2.4002595e-32
-1.6888178e-16
8.4430089e-17
0
-2.34385e-29
-1.1993574e-32
-8.4386186e-17
8.4375024e-17
-2.3426144e-29
-1.1699513e-29
-1.1985585e-32
-8.4329573e-17
8.4318001e-17
2.6628223e-49
-2.3406932e-29
-1.1977301e-32
-1.6854167e-16
-1.1686525e-29
8.4246711e-17
0
0
-8.4209831e-17
-3.5033998e-29
8.4184777e-17
-8.417211e-17
1.1684688e-29
1.3009148e-48
-1.1681106e-29
8.4120508e-17
8.4107377e-17
1.1663686e-29
-8.4080843e-17
0
0
8.4040374e-17
-8.4026711e-17
6.9938429e-29
8.3999133e-17
-8.3985221e-17
0
8.3957158e-17
8.3943011e-17
-8.3928788e-17
-8.3914493e-17
0
8.388569e-17
8.3871187e-17
-1.6771324e-16
-8.3841986e-17
8.3827292e-17
8.381254e-17
1.1622573e-29
8.3782866e-17
2.3260692e-29
-1.6750596e-16
0
0
0
8.3692644e-17
8.3677454e-17
0
-8.3646962e-17
-1.1587655e-29
8.3616333e-17
0
0
-8.3570168e-17
-1.1588869e-29
1.1574853e-29
-8.3523782e-17
8.3508278e-17
-3.4740821e-29
-8.347722e-17
0
-8.3446104e-17
-1.1583499e-29
8.3414941e-17
-8.3399345e-17
8.3383742e-17
8.3368132e-17
-8.3352518e-17
0
8.3321277e-17
8.3305654e-17
-8.3290029e-17
-8.3274404e-17
0
-8.3243158e-17
8.3227539e-17
8.3211923e-17
-8.319631e-17
-1.663614e-16
4.6186587e-29
2.4944851e-16
4.6269482e-49
-8.3118329e-17
-1.662055e-16
4.6096085e-29
1.6614324e-16
-8.3056069e-17
8.3040526e-17
-8.3024991e-17
-8.3009465e-17
1.659879e-16
0
0
-1.6589492e-16
-3.6692116e-48
1.6583303e-16
0
0
-1.6574035e-16
-3.6539181e-48
1.6567867e-16
0
0
-1.655863e-16
-8.2777779e-17
1.6552483e-16
8.2747063e-17
0
-1.6543277e-16
4.592888e-29
1.653715e-16
-8.2670449e-17
0
8.2639872e-17
-8.2624599e-17
1.1739492e-32
8.2594079e-17
-8.2578833e-17
8.2563597e-17
8.2548369e-17
-8.253315e-17
-8.251794e-17
2.2909369e-29
8.2487546e-17
-8.2472362e-17
-2.289672e-29
8.2442019e-17
-8.242686e-17
8.2411708e-17
8.2396565e-17
-8.2381429e-17
-8.2366302e-17
2.2867284e-29
8.2336069e-17
-8.2320964e-17
1.1696367e-32
8.2290776e-17
-8.2275692e-17
8.2260616e-17
8.2245547e-17
-8.2230485e-17
-1.6443086e-16
4.5674183e-29
1.6437068e-16
-8.2170304e-17
1.1674967e-32
1.6428051e-16
2.3341397e-32
-8.2110229e-17
0
8.208023e-17
0
-8.2050255e-17
0
0
0
-8.1990379e-17
-4.4063029e-49
8.1960477e-17
0
8.1930598e-17
-2.2746351e-29
-8.1900742e-17
0
0
0
-8.1841097e-17
2.2721508e-29
8.1811308e-17
0
8.1781541e-17
2.2693356e-29
-8.1751795e-17
0
8.1722071e-17
-8.1707217e-17
4.5391908e-29
8.1677524e-17
-8.1662685e-17
0
-8.1633023e-17
-2.266375e-29
8.1603381e-17
0
8.1573759e-17
-8.1558955e-17
-4.5286379e-29
8.1529363e-17
-4.5258367e-29
-1.1581817e-32
2.2638346e-29
-1.1577617e-32
-8.1455467e-17
0
8.1425942e-17
-2.2594697e-29
-2.2590603e-29
4.3499002e-49
-2.2593982e-29
0
-1.6267496e-16
-2.258171e-29
8.1308027e-17
-8.1293308e-17
2.2557897e-29
8.1263882e-17
8.1249176e-17
2.2557197e-29
-2.2553116e-29
8.1205083e-17
-8.1190394e-17
-8.1175709e-17
0
-8.1146352e-17
2.2528653e-29
8.1117011e-17
0
0
0
-1.6211675e-16
9.0016922e-29
1.6205816e-16
0
0
0
0
0
0
0
-1.6182411e-16
4.4950213e-29
1.6176567e-16
8.086823e-17
-8.0853628e-17
-8.0839029e-17
2.2454823e-29
4.4832635e-29
8.0795253e-17
-8.0780668e-17
8.0766085e-17
8.0751506e-17
-8.073693e-17
-8.0722357e-17
4.4798954e-29
8.069322e-17
8.0678655e-17
-2.2375888e-29
-8.0649535e-17
-8.063498e-17
8.0620427e-17
8.0605877e-17
-8.0591329e-17
8.0576784e-17
0
-8.0547702e-17
-8.0533165e-17
2.2335537e-29
8.0504098e-17
-8.0489568e-17
8.047504e-17
8.0460515e-17
-8.0445992e-17
8.0431471e-17
2.2330188e-29
-8.0402436e-17
-8.0387922e-17
-1.1421748e-32
1.607178e-16
4.460866e-29
-8.0329885e-17
-8.0315381e-17
0
8.0286378e-17
0
0
0
8.0228394e-17
8.0213902e-17
-8.0199412e-17
-8.0184924e-17
0
8.0155951e-17
-2.226508e-29
-8.0126985e-17
0
0
8.0083547e-17
-4.4444418e-29
-8.0054595e-17
0
0
8.0011178e-17
-4.4404251e-29
-7.9982239e-17
0
7.9953305e-17
-2.2197425e-29
2.2182051e-29
-2.2189393e-29
-7.9895452e-17
0
-7.9866533e-17
4.4312621e-29
7.9837618e-17
0
7.9808708e-17
-7.9794255e-17
-7.9779803e-17
1.5953071e-16
2.2167905e-29
-1.5947291e-16
2.2137215e-29
7.9707562e-17
0
0
7.9664233e-17
-2.2105843e-29
-7.9635353e-17
0
7.9606479e-17
-7.9592045e-17
-7.9577612e-17
7.956318e-17
0
-7.9534321e-17
7.9519894e-17
4.4131577e-29
-4.412357e-29
7.9476624e-17
-6.6172633e-29
7.9447785e-17
-7.9433368e-17
2.2041777e-29
-4.4098121e-29
-1.5878026e-16
2.2018497e-29
7.936131e-17
0
0
0
-1.5860738e-16
-7.9289289e-17
1.5854978e-16
7.9260489e-17
0
0
7.9217293e-17
4.339772e-49
-7.9188494e-17
0
-1.5831938e-16
-7.9145289e-17
1.5826176e-16
7.9116473e-17
0
-1.5817528e-16
-2.247396e-32
2.3717636e-16
-2.1926577e-29
-1.5805981e-16
7.9015447e-17
4.4906858e-32
-7.8986498e-17
2.1940176e-29
4.3804966e-29
7.8942961e-17
0
7.8913836e-17
-4.3806284e-29
-1.5776922e-16
7.8869951e-17
-1.3128957e-28
-7.8840527e-17
1.5765151e-16
-1.1199708e-32
-7.8796071e-17
0
0
0
-7.8736011e-17
7.872082e-17
1.5741109e-16
-7.8690185e-17
-2.1846406e-29
-2.1819728e-29
-7.8643488e-17
0
7.8611765e-17
-1.116912e-32
-1.5715896e-16
7.8563099e-17
4.3576977e-29
-7.8529806e-17
-7.8512867e-17
4.3615706e-29
1.5695667e-16
0
7.8442833e-17
7.8424675e-17
0
-7.8387459e-17
-7.8368362e-17
7.8348911e-17
0
-7.8308861e-17
0
0
7.8245555e-17
-6.5141086e-29
-7.8200892e-17
0
0
7.8129625e-17
7.8104602e-17
-7.8078888e-17
-7.8052446e-17
7.8025239e-17
7.7997227e-17
-1.5593674e-16
-7.7938625e-17
2.1644558e-29
7.7876295e-17
-4.3186998e-29
-4.3168273e-29
7.7774993e-17
-7.7738945e-17
7.7701669e-17
-7.766311e-17
-6.618553e-32
7.7581912e-17
-1.5507831e-16
-7.7494877e-17
-7.7449014e-17
1.54803e-16
1.5470455e-16
-7.7301259e-17
7.7248388e-17
-7.7193589e-17
4.2838703e-29
1.5415582e-16
-7.701688e-17
2.1357552e-29
-2.1361205e-29
-7.6820066e-17
0
0
7.6600941e-17
7.6522543e-17
0
-7.6357182e-17
-7.6270037e-17
0
-7.6086358e-17
2.1100809e-29
7.5889529e-17
-7.5785945e-17
2.0992983e-29
7.5567951e-17
0
7.5334868e-17
4.1759297e-29
-7.5085902e-17
7.4955215e-17
-2.0744199e-29
-7.468093e-17
-7.4537133e-17
-2.0645709e-29
7.4235733e-17
0
-7.3915265e-17
7.3747637e-17
-2.0911259e-32
4.0761834e-29
7.3214021e-17
-7.3025591e-17
0
-1.4526469e-16
1.6081073e-28
7.2216659e-17
3.9965575e-29
1.4355571e-16
-1.4309916e-16
-1.4263057e-16
1.4214979e-16
1.4165668e-16
7.0575551e-17
0
-7.0051011e-17
-1.3955827e-16
9.8766557e-33
-6.9215905e-17
6.8924446e-17
6.8626365e-17
-6.8321621e-17
1.3602036e-16
-1.3538401e-16
-1.1220068e-28
1.3407072e-16
-1.333937e-16
3.6830137e-29
-6.5999376e-17
6.5640404e-17
6.5274607e-17
-6.4901993e-17
-1.7898296e-29
-1.2827273e-16
1.2748677e-16
1.2668734e-16
-1.258745e-16
-1.735283e-29
-6.2104449e-17
3.4253597e-29
6.1245359e-17
1.6876003e-29
8.5843077e-47
5.9908479e-17
1.1890054e-16
-5.8985904e-17
-2.038973e-46
-5.8039065e-17
-9.5877889e-29
5.7068742e-17
-1.1315008e-16
3.1126331e-29
1.1114229e-16
2.4555288e-47
-5.454609e-17
0
0
-5.2971215e-17
5.2436893e-17
1.0379629e-16
0
0
0
-4.970217e-17
-4.9143782e-17
0
4.8016982e-17
-4.744894e-17
-7.807597e-29
9.2609036e-17
0
0
0
-4.398781e-17
-4.3403997e-17
4.2818738e-17
-4.2232239e-17
-2.3127814e-29
8.2112711e-17
0
0
-7.857692e-17
1.0998893e-32
3.81096e-17
-3.7520721e-17
3.6932488e-17
-3.6345109e-17
1.9859009e-29
7.0347477e-17
0
0
-3.3428206e-17
-3.2850236e-17
0
0
3.1130674e-17
3.0562901e-17
0
-2.9436578e-17
-2.8878384e-17
2.832373e-17
-2.7772785e-17
-2.7225713e-17
2.6682671e-17
2.6143815e-17
-1.4222383e-29
-2.5079252e-17
2.455383e-17
6.6701152e-30
-2.3517375e-17
0
-2.2500939e-17
1.2215087e-29
2.1505446e-17
-2.1015815e-17
1.1399584e-29
2.005326e-17
0
-1.9113541e-17
5.1794092e-30
2.585984e-33
-1.7748036e-17
1.7304857e-17
1.6867752e-17
0
-3.2023826e-17
1.7319724e-29
1.5180745e-17
2.0995763e-33
2.874874e-17
-2.7960978e-17
-2.7185608e-17
2.6422601e-17
1.2835957e-17
0
-2.4207271e-17
1.9557397e-29
2.2791074e-17
0
-2.1422511e-17
-5.7634672e-30
1.005028e-17
2.7013673e-30
1.8823988e-17
-1.8202278e-17
-2.1968964e-29
1.6991012e-17
-1.6401018e-17
4.3898426e-30
1.5251118e-17
7.3453485e-18
-1.4139596e-17
-6.7987634e-18
1.3064185e-17
-1.2539256e-17
-1.5014187e-29
1.1513308e-17
-1.1011593e-17
1.4601667e-30
-5.014421e-18
5.2966141e-30
1.3606587e-17
-2.386966e-30
-8.134929e-18
3.8369459e-18
7.2169293e-18
-3.3817832e-18
1.7526332e-30
-2.9328353e-18
-3.0101179e-30
2.4880631e-18
-4.5331493e-18
1.7032474e-30
-2.0251686e-30
8.8895269e-31
1.3799857e-18
0
9.3210454e-19
7.0591243e-19
0
0
0
0
0
7.0414429e-19
9.5145478e-19
0
-1.4597935e-18
1.7217158e-18
3.3138653e-30
-4.5262868e-18
0
0
0
3.4284905e-18
3.7396477e-18
-4.0596709e-18
-4.3890441e-18
9.4565193e-18
8.4600549e-30
-1.0876459e-17
0
1.2387374e-17
1.0977252e-29
-6.9988674e-18
7.4214622e-18
-7.8581328e-18
8.3094431e-18
4.8713268e-30
-1.8516546e-17
0
0
1.0805802e-17
1.1357165e-17
0
1.2516806e-17
3.7307219e-33
1.375643e-17
-1.4407787e-17
-4.5243022e-17
0
-3.2991108e-17
-3.4476282e-17
0
5.6391306e-17
3.9229476e-17
-4.0917303e-17
2.1329469e-17
2.2227817e-17
-6.9462943e-17
-2.4109579e-17
-3.5661035e-33
-2.610885e-17
2.7154061e-17
2.8230446e-17
2.9338588e-17
-5.5663279e-47
3.1652425e-17
3.2859235e-17
-3.410003e-17
0
-7.3371337e-17
-7.6063046e-17
0
4.0831713e-17
8.4573925e-17
2.4294761e-29
4.5309918e-17
9.375685e-17
-9.6970899e-17
-1.0026268e-16
-5.1816416e-17
-5.3540983e-17
0
5.7109658e-17
1.7686272e-16
-6.083926e-17
1.0103157e-44
1.9419376e-16
-1.3347697e-16
-6.8786653e-17
-7.0875816e-17
-1.4601199e-16
1.5035436e-16
7.7389334e-17
-7.9642378e-17
-8.193621e-17
-8.427069e-17
2.5993694e-16
8.9060879e-17
-2.7454843e-16
-9.4011174e-17
9.6545661e-17
1.9823853e-16
-1.0173162e-16
1.0438231e-16
-1.7826702e-28
1.8286809e-28
3.3767954e-16
-1.1535916e-16
-1.1819428e-16
-2.421292e-16
-1.2396949e-16
2.5381655e-16
3.6914191e-32
1.3288472e-16
-1.359209e-16
-4.1696398e-16
4.2625561e-16
1.4521168e-16
-4.4509964e-16
0
4.6427358e-16
1.5799244e-16
-4.8375503e-16
1.6453458e-16
3.3568028e-16
9.5010868e-29
-1.9371344e-28
-1.7788229e-16
0
-3.6934169e-16
-3.7617986e-16
1.9152404e-16
1.9497203e-16
3.9686547e-16
-2.0190497e-16
-2.0538755e-16
4.1775856e-16
0
-4.3177074e-16
-4.3879459e-16
2.2291352e-16
4.5286561e-16
-1.276419e-28
-2.3347564e-16
4.7399347e-16
-2.4051595e-16
8.1273806e-28
4.9508771e-16
-2.5105008e-16
0
-5.1608184e-16
0
5.8844441e-28
2.6845493e-16
5.4380434e-16
-8.2600611e-16
7.9226467e-32
5.6430986e-16
0
-5.7780853e-16
-2.9224972e-16
5.9114839e-16
-3.3184088e-28
-3.0215571e-16
6.1082112e-16
-3.0864002e-16
5.1920109e-28
6.3003704e-16
-3.1816546e-16
3.2128283e-16
-6.4873921e-16
-9.8227438e-16
0
1.0003095e-15
6.7278221e-16
-1.0179308e-15
-6.8438622e-16
3.4503869e-16
6.9569224e-16
-3.5061453e-16
-3.5334307e-16
7.1206176e-16
-3.5867713e-16
-7.2256203e-16
3.6384173e-16
-5.2062672e-32
7.3766104e-16
7.4251415e-16
-1.1209122e-15
3.7597079e-16
6.2999082e-28
-1.1414816e-15
0
1.1544624e-15
7.7381805e-16
-3.8894624e-16
-3.909318e-16
-3.928651e-16
0
-3.9657247e-16
2.2111195e-28
8.0012732e-16
-2.2293179e-28
-4.0333415e-16
0
-4.0637962e-16
8.1563332e-16
1.2275877e-15
-8.2103372e-16
-1.2353371e-15
-4.1298197e-16
4.1412521e-16
8.3041656e-16
-4.1623076e-16
4.1719221e-16
4.1809221e-16
-8.3786069e-16
8.3941243e-16
4.2041943e-16
-1.2632088e-15
-8.4331271e-16
4.2217934e-16
1.2679145e-15
-9.3926083e-28
9.3999254e-28
4.2362652e-16
4.7051069e-28
4.2395869e-16
-4.2402582e-16
-4.2402591e-16
-4.2395617e-16
4.2381709e-16
4.2361079e-16
-1.2700108e-15
4.2299532e-16
8.4517155e-16
-1.2663242e-15
-1.1981514e-31
4.2094751e-16
-8.4052861e-16
-4.1951229e-16
0
4.1780134e-16
4.1684221e-16
8.316277e-16
-4.1471621e-16
1.3773075e-27
1.2369388e-15
-4.110073e-16
-4.0963233e-16
-4.0818808e-16
4.0667461e-16
4.05092e-16
-1.2103211e-15
4.0171984e-16
7.9986119e-16
6.6299511e-28
3.961467e-16
-7.8830503e-16
-1.1762716e-15
-2.1640259e-28
2.1523869e-28
5.4782976e-32
3.8317107e-16
7.6155053e-16
3.7831397e-16
-1.1273631e-15
4.1430538e-28
7.4108486e-16
0
0
-3.6220205e-16
1.9943808e-28
-1.9774237e-28
-3.5331183e-16
7.0046001e-16
3.4709047e-16
3.8167706e-28
-3.4064214e-16
-1.0120063e-15
-3.3397511e-16
0
0
0
9.6006512e-16
6.328233e-16
-9.3826685e-16
3.431859e-28
6.106228e-16
0
0
-5.8767531e-16
6.4374944e-28
3.1742491e-28
-5.6406838e-16
2.7803453e-16
5.4801062e-16
5.3989684e-16
-2.6586578e-16
-7.8527801e-16
-2.576311e-16
0
0
0
7.2282343e-16
4.7346985e-16
-6.9755852e-16
5.068889e-28
2.2406985e-16
-3.1241147e-32
2.1560986e-16
-4.2276317e-16
2.2997625e-28
2.029397e-16
-3.9746117e-16
0
1.0568425e-28
3.7235512e-16
3.6405083e-16
-5.3367916e-16
-3.4756531e-16
1.6969637e-16
9.1917217e-29
-1.6160465e-16
4.7281015e-16
3.0726909e-16
-1.4970013e-16
-1.4580208e-16
1.4194228e-16
1.3812258e-16
-1.3434476e-16
-1.3061057e-16
7.0451166e-29
-6.8412052e-29
-1.1968608e-16
0
-1.126501e-16
2.1842086e-16
3.1747406e-16
-2.0498811e-16
-1.9843926e-16
-9.6002461e-17
1.0305719e-28
1.7948719e-16
-8.6703558e-17
8.3724091e-17
8.0805823e-17
-1.5589858e-16
1.5030993e-16
7.2423218e-17
-6.9754361e-17
-1.342972e-16
-6.4606082e-17
1.2425373e-16
-3.3127134e-29
5.7358196e-17
5.5068482e-17
-1.5852468e-16
5.0677118e-17
4.8574774e-17
-1.3960228e-16
6.3315836e-33
1.2790684e-16
4.0776622e-17
-1.1693072e-16
3.7235733e-17
8.6107404e-45
5.6484558e-29
6.4710683e-17
-6.168001e-17
-5.875766e-17
2.7970826e-17
-2.9546662e-29
-5.0620404e-17
2.4055444e-17
6.8548752e-17
2.1691508e-17
-2.0580064e-17
0
-1.8492432e-17
-3.5027784e-17
2.3557751e-33
4.7044315e-17
1.4825145e-17
-2.8014434e-17
1.8795927e-33
2.4963391e-17
-2.3543491e-17
1.8479596e-29
2.0903254e-17
-2.9517483e-17
-1.8513833e-17
0
0
7.6804127e-18
2.1624209e-17
6.7605555e-18
-1.9010572e-17
6.5898481e-30
1.1113925e-17
-1.0397695e-17
-9.7214294e-18
4.5416717e-18
8.4816922e-18
-3.9573899e-18
-3.6904933e-18
1.0318052e-17
3.2032028e-18
4.9653984e-30
-1.5384055e-30
-2.5774302e-18
2.3940967e-18
-4.4446284e-18
-6.1843777e-18
0
5.3106468e-18
3.2774361e-18
-4.5478403e-18
3.9830026e-34
1.2945986e-18
-2.3902018e-18
1.1024744e-18
1.0163066e-18
1.0393273e-30
-8.6180362e-19
-1.5854806e-18
7.2868285e-19
1.3386157e-18
1.2286236e-18
-6.2562476e-31
-5.1630233e-19
4.7275942e-19
-8.6502415e-19
-1.1859706e-18
0
9.8768795e-19
5.9980115e-19
-8.1832071e-19
2.7502759e-31
2.2441281e-19
-2.0280871e-19
-1.8269832e-19
9.0939988e-32
2.926317e-19
-7.2010377e-32
-2.2805808e-19
1.099603e-31
9.4002909e-32
1.4152981e-19
1.7475299e-19
-1.0654957e-19
6.1647332e-32
1.6846062e-31
-4.283284e-20
-5.4403496e-20
-1.4622895e-19
2.0394326e-19
5.9378908e-20
-1.5327271e-19
1.9143572e-19
4.8594247e-35
-2.2026899e-19
-8.5074968e-20
9.9590347e-20
2.8450984e-19
-2.8495326e-31
-1.8549777e-19
-1.0550727e-19
2.0867715e-19
2.7772383e-19
-2.7330866e-19
-1.0162261e-19
-1.1858877e-31
-9.8607307e-20
1.7808803e-19
-5.0726085e-32
9.7634604e-20
-9.5413163e-20
2.8531396e-31
2.4186975e-19
-2.4584412e-19
-2.4456465e-19
0
0
0
7.815515e-20
2.1788847e-19
6.4873829e-20
7.2438891e-32
7.0139928e-20
-2.0249064e-19
-5.5958957e-20
5.1312462e-20
5.7843986e-20
6.0534566e-20
-1.0049513e-19
4.3676626e-20
-5.2823478e-20
2.026226e-31
1.0263944e-19
-1.3423158e-19
-1.1733397e-19
0
1.222984e-19
5.2510679e-32
-5.2289545e-20
1.8944067e-19
5.9240044e-20
-4.98526e-20
0
0
-6.3887466e-20
-1.0220738e-19
1.1270233e-31
1.2206943e-19
6.2085982e-20
-4.876023e-20
4.2560652e-20
-5.1833001e-20
-2.745154e-48
8.5559827e-32
-1.1716174e-19
0
0
8.4369898e-20
7.6518813e-20
4.0129785e-20
-4.8710254e-32
-1.2386411e-19
4.243378e-32
8.3344205e-20
0
-8.1937625e-20
-3.8452068e-20
9.0390206e-20
-5.0313074e-20
-4.4419304e-20
1.2037438e-19
-4.8997059e-20
1.9631212e-31
1.1080146e-19
-1.3644839e-19
-8.9812341e-20
0
0
0
1.801864e-19
1.1697715e-19
-1.540865e-19
-7.8551554e-20
0
4.2748009e-20
-2.5142294e-32
-2.3129406e-20
3.8721917e-20
-1.5434094e-20
1.6560021e-20
1.9956187e-20
-6.3400657e-20
4.2360239e-20
4.4635673e-20
-2.3923468e-20
2.4722724e-20
-4.9746917e-20
-7.4877793e-20
0
7.6593973e-20
5.1119564e-20
-2.5685704e-20
-2.6332692e-20
2.9676481e-32
-2.6403365e-20
8.6276409e-32
2.72489e-20
1.6393041e-32
6.4641178e-49
-3.1182203e-20
0
-4.2173627e-20
8.1953131e-20
1.1689582e-19
-1.2056979e-19
-1.2824185e-19
0
7.5393471e-20
5.6233049e-20
-3.9882577e-20
1.5335329e-20
1.1322222e-20
-2.4120789e-20
9.4857643e-21
3.8424735e-21
-1.9622857e-21
-9.1530428e-21
-7.5764398e-21
2.7962709e-20
1.0339243e-20
1.883338e-32
-2.8250347e-20
-1.078672e-35
6.5748524e-20
-4.179562e-20
-6.1188591e-20
-2.2568899e-20
7.5142096e-20
4.3638116e-20
-4.5163065e-20
2.5270242e-32
2.3000253e-20
9.5910583e-21
-2.0613497e-33
6.5220299e-21
-7.6987046e-33
7.141018e-21
6.3692548e-21
-1.5842292e-20
-4.031e-21
-3.1465306e-33
2.9642036e-21
2.8609796e-34
3.7953572e-21
-3.553396e-21
2.2691985e-33
2.6600381e-33
5.9743144e-33
3.1267126e-21
-1.141292e-20
3.9357745e-21
6.0366783e-33
1.1419346e-32
1.0830041e-20
-3.9910818e-21
-6.4566968e-21
1.9683678e-33
-2.2007522e-21
-3.7643122e-21
7.8459401e-21
4.7728084e-21
-1.2218544e-33
-5.25347e-21
2.5716045e-33
2.3940196e-21
-6.5453276e-21
3.7138386e-21
2.3508703e-21
-6.5274391e-34
1.7152624e-33
-5.5130294e-21
9.3270289e-21
-2.2185125e-21
6.6561036e-33
8.4515984e-33
-5.2144453e-21
1.9387273e-21
-2.0985126e-37
2.2376761e-22
-1.4989592e-21
-9.873045e-21
-4.9313889e-21
1.7726687e-20
-7.3488952e-33
-7.2315608e-21
1.448775e-20
-1.6208333e-20
-4.9527528e-32
9.5987166e-21
-8.7757142e-21
9.4669221e-21
-2.1484315e-20
1.2109769e-20
3.9410057e-20
0
0
-2.2153311e-20
-3.4792159e-36
2.671885e-20
-1.3230839e-20
-3.7203099e-20
-1.2374406e-20
3.381679e-20
2.8386611e-36
1.1584879e-32
2.3411318e-20
-3.9006464e-20
-6.6418707e-32
1.1451544e-20
-1.0970029e-20
-1.1714979e-20
1.2347319e-32
1.143448e-20
-2.4969317e-20
2.6415735e-20
-3.9440433e-32
-2.1033675e-20
3.3522543e-20
2.4338629e-20
-1.0940553e-20
-2.853674e-20
-9.8815523e-21
1.0670983e-20
0
-1.0975922e-20
1.0222776e-20
2.7038566e-20
4.6811122e-33
-1.718966e-20
8.7446301e-21
8.309178e-21
-1.5046598e-20
7.1438701e-21
-7.2411156e-21
-1.4824253e-20
2.1480628e-20
-2.2186832e-32
1.4256157e-32
1.2986952e-20
-1.3014741e-20
-6.338907e-21
-6.3368519e-21
-7.223215e-33
6.5113627e-21
-1.2750157e-20
1.2898358e-20
1.9991519e-20
0
-6.232741e-21
3.4569776e-33
1.8558232e-36
-2.0401627e-20
-6.6833091e-21
1.9185168e-20
-6.5193538e-21
4.7757842e-49
2.0955549e-20
-6.7921683e-21
-2.0352792e-20
-7.0239288e-21
1.457061e-20
-7.2265473e-21
6.9892335e-21
-2.4012989e-32
-1.5659193e-20
2.5260342e-20
9.6880686e-33
-3.8853713e-32
1.7492152e-20
-1.7478721e-20
-1.0058375e-32
9.7386231e-21
-2.0709859e-20
-1.0723095e-20
0
0
2.3212645e-20
-2.6733096e-32
-6.4487678e-36
-1.2767737e-32
-1.2672861e-20
-1.3399481e-20
1.3824029e-20
1.3922284e-20
-2.5531662e-20
2.3927109e-20
-1.4115946e-32
-2.7232425e-20
2.8446986e-20
4.4368698e-32
-1.3742963e-32
1.2922224e-20
-2.7308349e-20
1.4053729e-20
-2.8359337e-32
-2.2929767e-20
0
2.3939953e-20
1.2518702e-20
-2.4799343e-20
-1.1444469e-20
1.066949e-20
-1.7509127e-32
-1.0570359e-20
0
0
1.7135623e-20
1.667619e-20
0
-1.5941203e-20
-7.4122504e-21
6.8395621e-21
-6.4610798e-21
6.2199858e-21
0
-1.0927061e-20
0
0
4.6425362e-21
-4.639349e-33
-3.99104e-21
0
3.9912779e-21
2.0574029e-33
-3.2932563e-21
0
6.1719971e-21
6.5641754e-21
-3.3888215e-21
-3.7457071e-33
3.2330014e-21
-5.9684117e-21
-5.5658584e-21
5.56107e-21
8.5111406e-37
7.2997287e-33
9.79481e-37
-6.7715814e-21
3.2969078e-21
-3.748326e-33
3.6250735e-21
-3.897736e-21
-1.2048815e-20
1.2190726e-20
4.1941719e-21
-4.441383e-21
-5.2563779e-33
-4.9340157e-21
1.0169221e-20
1.0587393e-20
-1.1101306e-20
-1.9172304e-32
-5.9012429e-21
-6.1443227e-21
1.2980203e-20
-6.8180028e-21
7.7019261e-33
-3.852985e-33
7.0332845e-21
1.459612e-20
-1.5390072e-20
-1.5895898e-20
0
8.1299338e-21
9.2356913e-33
-1.6976265e-20
-9.3275714e-33
2.305673e-20
1.5274482e-20
0
-1.7524251e-20
-1.9882397e-32
-8.985108e-21
-8.8630677e-21
2.609918e-20
-4.7081875e-33
-1.6613624e-20
8.3237431e-21
1.6773966e-20
-8.3760493e-21
-1.6490437e-20
-7.9426498e-21
0
1.5629639e-20
-7.8301063e-21
-2.301495e-20
7.4489792e-21
7.3483128e-21
1.4813059e-20
7.3334517e-21
-1.4131394e-20
-6.893288e-21
-6.8990979e-21
7.7696086e-33
6.934007e-21
6.6872201e-21
1.3091351e-20
6.5924091e-21
0
0
0
-1.2888851e-20
-1.3087645e-20
1.3329037e-20
7.3540096e-33
7.1966915e-33
-6.9258587e-33
-1.3815094e-32
1.2987482e-20
0
-1.3073568e-20
-6.3259469e-21
5.8857884e-21
-5.7894407e-21
-6.1040231e-21
0
0
1.2269169e-20
-1.9476556e-32
-1.2533307e-32
1.1266733e-20
-1.1377959e-20
-1.120556e-20
0
1.0316149e-20
-5.5997483e-33
-1.0100649e-20
9.991042e-21
5.3200726e-33
-9.051879e-21
0
8.2646582e-21
4.0565757e-21
-8.0383871e-21
3.9443474e-21
8.4429668e-33
-7.1965716e-21
6.800353e-21
6.5619867e-21
0
0
0
-6.1319196e-21
-6.150784e-21
6.093334e-21
0
-5.7068691e-21
0
-2.8998454e-21
5.8853649e-21
2.9540259e-21
-2.9899751e-21
6.186101e-21
3.1900686e-21
-6.420402e-21
-3.1732292e-21
-3.5110454e-33
3.2902429e-21
-7.8152288e-33
2.0983224e-36
7.4738374e-21
0
-3.7479391e-21
-7.7158451e-21
-4.0321761e-21
0
0
0
-4.3288919e-21
8.8441948e-21
4.5188654e-21
-4.5729618e-21
-4.5927059e-21
4.6299529e-21
4.699634e-21
-9.450254e-21
0
9.3760728e-21
9.5073054e-21
0
0
-9.6246158e-21
-5.2815105e-33
-4.7495204e-21
-4.7965986e-21
4.8378305e-21
-4.8337063e-21
4.7834734e-21
9.4832868e-21
4.6945227e-21
0
-9.1635248e-21
-5.1758919e-33
4.7637096e-21
-4.7672532e-21
-4.599141e-21
-8.7176601e-21
8.5041532e-21
4.3736203e-21
-1.3045742e-36
4.7099342e-21
-9.4031108e-21
4.5843891e-21
-4.4601442e-21
1.6861912e-49
4.4143895e-21
-9.1011203e-21
9.2398807e-21
9.1486597e-21
0
-4.3316709e-21
-8.6353678e-21
2.4615152e-33
4.5444778e-21
4.5614248e-21
-8.9512122e-21
-8.7309709e-21
4.2969252e-21
8.595676e-21
8.6694963e-21
-4.3364543e-21
-8.5404464e-21
4.1599335e-21
-4.1117258e-21
6.9128313e-33
4.1668418e-21
-8.1559643e-21
7.7188633e-21
3.9744955e-33
-1.9527288e-32
7.3242641e-21
-7.5607538e-21
-1.6871589e-32
3.7169999e-21
-7.0951918e-21
3.3584874e-21
-9.0897044e-37
1.386057e-32
3.1380589e-21
-6.3560875e-21
6.9908497e-33
-1.6822057e-33
2.8665979e-21
-7.7375476e-37
-5.3457888e-21
5.4009465e-21
1.5430607e-36
-1.1795312e-32
5.048242e-21
-4.7902885e-21
-5.222438e-33
4.7650748e-21
-2.4207418e-21
-2.3989754e-21
-2.2984751e-21
2.1935321e-21
-2.3791788e-33
-4.2786007e-21
0
0
4.3468896e-21
6.1483405e-37
-4.2812589e-21
2.1202784e-21
-2.3588789e-33
2.1645884e-21
4.9391423e-33
-4.4972805e-21
0
-2.1297571e-21
4.2433341e-21
2.1861687e-21
-5.1015118e-33
2.3831699e-21
-4.7987551e-21
2.3512248e-21
-2.5640134e-33
-4.6803342e-21
0
0
2.6298846e-21
-1.4403886e-33
2.5299506e-21
-2.5072595e-21
-7.7299193e-21
8.1398334e-21
2.8218507e-21
-5.6954337e-21
2.7961136e-21
4.5658507e-33
2.7560597e-21
-1.6191273e-36
-9.9194264e-33
3.0405028e-21
-6.0162135e-21
-2.9206845e-21
0
-2.8675043e-21
3.0072083e-21
3.146481e-21
3.1855868e-21
-6.9053628e-33
3.3266374e-33
-3.2217618e-33
-5.8357933e-21
3.0353793e-21
5.2385288e-33
-6.3269092e-21
4.3728179e-37
2.9611367e-21
5.7245716e-21
5.7081579e-21
-5.8675314e-21
-3.3417549e-33
-3.0094907e-21
-2.9120244e-21
5.5786082e-21
-5.3944977e-21
-2.6644869e-21
8.0744959e-21
5.4444438e-21
-2.7000364e-21