/*--------------------------------*- C++ -*----------------------------------*\
  =========                 |
  \\      /  F ield         | OpenFOAM: The Open Source CFD Toolbox
   \\    /   O peration     | Website:  https://openfoam.org
    \\  /    A nd           | Version:  7
     \\/     M anipulation  |
\*---------------------------------------------------------------------------*/
FoamFile
{
    version     2.0;
    format      ascii;
    class       volScalarField;
    location    "0.00183";
    object      mag(U);
}
// * * * * * * * * * * * * * * * * * * * * * * * * * * * * * * * * * * * * * //

dimensions      [0 1 -1 0 0 0 0];

internalField   nonuniform List<scalar> 
5000
(
23.100325
23.100342
23.100362
23.100383
23.100391
23.100389
23.10039
23.100393
23.100398
23.100406
23.100417
23.10043
23.100447
23.100451
23.100451
23.100453
23.100457
23.100463
23.100472
23.100483
23.100496
23.100504
23.100504
23.100506
23.100511
23.100517
23.100524
23.100531
23.100538
23.100539
23.10054
23.100541
23.100541
23.100542
23.100544
23.100546
23.100547
23.100548
23.100551
23.100553
23.100554
23.100557
23.10056
23.100563
23.100564
23.100568
23.100572
23.100575
23.100577
23.100581
23.100586
23.10059
23.100594
23.100599
23.100606
23.100613
23.10062
23.100628
23.100638
23.100648
23.100661
23.100674
23.10069
23.100706
23.100724
23.100736
23.100737
23.100737
23.10074
23.100744
23.100748
23.100752
23.100757
23.100759
23.100761
23.100763
23.100765
23.100768
23.100771
23.100774
23.100777
23.10078
23.100784
23.100787
23.100791
23.100795
23.100799
23.100803
23.100807
23.10081
23.100813
23.100816
23.10082
23.100824
23.100828
23.100832
23.100837
23.100841
23.100846
23.100847
23.100848
23.100849
23.100851
23.100853
23.100855
23.100858
23.100862
23.100866
23.10087
23.100875
23.100878
23.10088
23.100883
23.100887
23.100891
23.100893
23.100895
23.100897
23.1009
23.100904
23.100905
23.100906
23.100908
23.100911
23.100914
23.100919
23.100921
23.100921
23.100921
23.100922
23.100924
23.100928
23.100934
23.100935
23.100934
23.100929
23.100926
23.100927
23.100929
23.100931
23.100936
23.100941
23.100949
23.100952
23.100952
23.10095
23.10095
23.100952
23.100958
23.100959
23.100957
23.100952
23.100944
23.100946
23.100952
23.100961
23.10096
23.100955
23.100944
23.10093
23.100934
23.100942
23.100952
23.10095
23.100944
23.100934
23.100934
23.100938
23.100939
23.100933
23.10092
23.100899
23.100901
23.10091
23.100918
23.100915
23.100904
23.100886
23.100888
23.100896
23.100898
23.100891
23.100871
23.100861
23.100871
23.100874
23.100863
23.100838
23.100805
23.100812
23.100832
23.100832
23.100817
23.100777
23.100716
23.100661
23.100668
23.100674
23.100683
23.100699
23.10072
23.100722
23.100707
23.100664
23.100585
23.100564
23.100586
23.100617
23.100613
23.100591
23.100535
23.100448
23.100398
23.10042
23.100453
23.100447
23.100415
23.10035
23.100296
23.100318
23.100322
23.100292
23.100216
23.100108
23.100048
23.100067
23.100091
23.100078
23.10003
23.099935
23.099812
23.099756
23.099769
23.09978
23.099762
23.0997
23.099588
23.099454
23.099386
23.099386
23.099389
23.099362
23.099283
23.099164
23.099054
23.099006
23.098977
23.09894
23.098875
23.098778
23.098672
23.098595
23.098534
23.098469
23.098389
23.098288
23.098176
23.098064
23.097961
23.097861
23.09777
23.097688
23.097609
23.097523
23.097414
23.097272
23.097109
23.096949
23.096832
23.096729
23.09662
23.096488
23.09632
23.096125
23.095927
23.095777
23.095642
23.095501
23.095342
23.095155
23.094943
23.094718
23.094494
23.094277
23.09408
23.093897
23.093712
23.093513
23.093286
23.09303
23.092758
23.092493
23.092247
23.091999
23.091738
23.091457
23.091163
23.090871
23.090588
23.0903
23.089998
23.089682
23.089358
23.089032
23.088699
23.088353
23.087995
23.087634
23.087276
23.086913
23.086529
23.086123
23.085706
23.085311
23.084921
23.084518
23.084087
23.083628
23.083155
23.08269
23.082238
23.081781
23.081307
23.08081
23.080297
23.079779
23.079266
23.078747
23.078212
23.077658
23.07709
23.076518
23.075938
23.075343
23.07473
23.074106
23.073483
23.072864
23.07224
23.071604
23.070957
23.070296
23.069618
23.068915
23.068187
23.067442
23.066694
23.065949
23.065205
23.064456
23.063694
23.062907
23.06209
23.06125
23.060398
23.059574
23.05875
23.057906
23.057026
23.056119
23.055199
23.054284
23.053367
23.052436
23.051484
23.050513
23.049531
23.048539
23.047534
23.046517
23.045492
23.044462
23.043422
23.042359
23.041274
23.040176
23.039079
23.03798
23.036868
23.035734
23.03458
23.033411
23.032227
23.031026
23.029805
23.02857
23.027332
23.026096
23.024852
23.023585
23.022288
23.02097
23.01964
23.018327
23.017012
23.01568
23.014322
23.012938
23.01154
23.010134
23.008721
23.007294
23.005853
23.004401
23.002939
23.001466
22.999974
22.998464
22.996942
22.995418
22.993891
22.992351
22.990787
22.9892
22.987597
22.985992
22.984386
22.982772
22.981138
22.979483
22.977813
22.976139
22.974463
22.972777
22.971074
22.969353
22.967624
22.965892
22.964152
22.962394
22.960615
22.958823
22.957025
22.955226
22.953421
22.951608
22.949782
22.947943
22.94609
22.944223
22.942345
22.940463
22.938577
22.936682
22.934773
22.932852
22.930923
22.92899
22.92705
22.925099
22.923133
22.921155
22.919171
22.91719
22.915206
22.913209
22.911195
22.909166
22.907131
22.9051
22.903066
22.901022
22.898963
22.896894
22.894822
22.892749
22.890668
22.888578
22.88648
22.884384
22.882286
22.880176
22.878052
22.875917
22.873779
22.871648
22.869514
22.86737
22.865216
22.863054
22.860886
22.85872
22.856553
22.854379
22.852196
22.850004
22.847815
22.845629
22.843439
22.841239
22.839031
22.836819
22.834613
22.832404
22.830188
22.827966
22.82574
22.823515
22.821288
22.819061
22.816834
22.814603
22.812365
22.810122
22.807875
22.805642
22.803409
22.80117
22.798923
22.79667
22.794423
22.792183
22.78994
22.787694
22.785445
22.7832
22.780954
22.778706
22.776456
22.774212
22.771967
22.769721
22.767473
22.765229
22.762992
22.760754
22.758513
22.756274
22.754038
22.751805
22.749572
22.747339
22.745117
22.742896
22.740673
22.738446
22.73622
22.734004
22.731799
22.729595
22.72739
22.725182
22.72298
22.720787
22.718598
22.716409
22.714222
22.712043
22.709869
22.707695
22.705525
22.703361
22.701207
22.699057
22.696908
22.694759
22.692617
22.690485
22.688359
22.686236
22.684115
22.682002
22.679897
22.677798
22.675701
22.67361
22.671528
22.669453
22.667383
22.665317
22.663258
22.661209
22.659166
22.657126
22.65509
22.653064
22.651049
22.649042
22.647038
22.645037
22.643045
22.641063
22.63909
22.637124
22.635164
22.633209
22.631262
22.629323
22.627394
22.625472
22.623558
22.621652
22.619754
22.617863
22.615979
22.614102
22.612236
22.610379
22.60853
22.606688
22.604855
22.603028
22.60121
22.599401
22.597602
22.595811
22.594027
22.592253
22.590486
22.588728
22.58698
22.58524
22.583508
22.581785
22.580071
22.578366
22.576668
22.57498
22.573301
22.571631
22.569969
22.568316
22.566671
22.565036
22.56341
22.561792
22.560182
22.558581
22.556989
22.555407
22.553834
22.552268
22.550711
22.549163
22.547624
22.546094
22.544573
22.54306
22.541555
22.54006
22.538573
22.537094
22.535624
22.534163
22.532711
22.531267
22.529831
22.528403
22.526984
22.525574
22.524173
22.52278
22.521395
22.520017
22.518649
22.517288
22.515936
22.514592
22.513256
22.511928
22.510609
22.509298
22.507995
22.506699
22.505411
22.50413
22.502858
22.501594
22.500338
22.49909
22.49785
22.496616
22.49539
22.494171
22.49296
22.491758
22.490562
22.489375
22.488194
22.48702
22.485854
22.484695
22.483543
22.482399
22.481262
22.480131
22.479007
22.477891
22.476782
22.475679
22.474584
22.473495
22.472413
22.471338
22.47027
22.469208
22.468153
22.467105
22.466063
22.465029
22.464
22.462978
22.461962
22.460952
22.459949
22.458953
22.457964
22.45698
22.456002
22.45503
22.454064
22.453105
22.452153
22.451206
22.450266
22.449331
22.448402
22.447479
22.446563
22.445652
22.444748
22.443849
22.442956
22.442069
22.441187
22.440312
22.439442
22.438578
22.43772
22.436867
22.43602
22.435179
22.434344
22.433515
22.432691
22.431872
22.431059
22.430252
22.42945
22.428654
22.427864
22.427078
22.426299
22.425525
22.424757
22.423994
22.423236
22.422484
22.421738
22.420997
22.420261
22.41953
22.418805
22.418086
22.417372
22.416664
22.41596
22.415262
22.41457
22.413883
22.413201
22.412524
22.411853
22.411187
22.410527
22.409872
22.409222
22.408577
22.407938
22.407304
22.406676
22.406053
22.405435
22.404822
22.404214
22.403612
22.403015
22.402423
22.401837
22.401256
22.40068
22.400109
22.399543
22.398982
22.398427
22.397877
22.397333
22.396793
22.396258
22.395729
22.395205
22.394686
22.394172
22.393663
22.393159
22.392661
22.392167
22.391679
22.391195
22.390716
22.390243
22.389775
22.389312
22.388854
22.388401
22.387952
22.387508
22.38707
22.386637
22.386208
22.385785
22.385366
22.384952
22.384542
22.384138
22.383739
22.383344
22.382954
22.382569
22.382188
22.381812
22.381441
22.381075
22.380713
22.380356
22.380003
22.379655
22.379311
22.378972
22.378638
22.378307
22.377982
22.37766
22.377344
22.377031
22.376723
22.376419
22.376119
22.375824
22.375532
22.375246
22.374963
22.374684
22.374409
22.374138
22.373872
22.373609
22.373351
22.373096
22.372845
22.372598
22.372355
22.372116
22.37188
22.371648
22.37142
22.371195
22.370975
22.370757
22.370544
22.370333
22.370127
22.369923
22.369724
22.369527
22.369334
22.369144
22.368957
22.368774
22.368594
22.368417
22.368243
22.368072
22.367905
22.36774
22.367578
22.36742
22.367264
22.367111
22.366961
22.366813
22.366668
22.366526
22.366387
22.366251
22.366117
22.365986
22.365857
22.365731
22.365607
22.365485
22.365366
22.36525
22.365136
22.365024
22.364914
22.364806
22.364701
22.364598
22.364497
22.364398
22.364301
22.364207
22.364114
22.364023
22.363934
22.363847
22.363762
22.363679
22.363597
22.363518
22.36344
22.363363
22.363289
22.363216
22.363145
22.363075
22.363007
22.362941
22.362876
22.362812
22.36275
22.36269
22.362631
22.362573
22.362516
22.362461
22.362408
22.362355
22.362304
22.362254
22.362205
22.362158
22.362111
22.362066
22.362022
22.361979
22.361937
22.361896
22.361856
22.361817
22.361779
22.361742
22.361706
22.361671
22.361637
22.361604
22.361572
22.36154
22.36151
22.36148
22.361451
22.361423
22.361395
22.361369
22.361343
22.361318
22.361293
22.36127
22.361246
22.361224
22.361202
22.361181
22.361161
22.361141
22.361121
22.361102
22.361084
22.361067
22.36105
22.361033
22.361017
22.361001
22.360986
22.360971
22.360957
22.360944
22.360931
22.360918
22.360905
22.360893
22.360881
22.36087
22.36086
22.360849
22.360839
22.360829
22.36082
22.36081
22.360802
22.360793
22.360785
22.360778
22.36077
22.360763
22.360755
22.360749
22.360742
22.360736
22.36073
22.360724
22.360718
22.360713
22.360708
22.360703
22.360698
22.360694
22.360689
22.360685
22.360681
22.360677
22.360673
22.36067
22.360666
22.360663
22.36066
22.360657
22.360654
22.360651
22.360649
22.360646
22.360644
22.360641
22.360639
22.360637
22.360635
22.360633
22.360631
22.360629
22.360628
22.360626
22.360624
22.360623
22.360621
22.36062
22.360619
22.360617
22.360616
22.360615
22.360614
22.360613
22.360612
22.360611
22.36061
22.360609
22.360608
22.360607
22.360606
22.360606
22.360605
22.360604
22.360603
22.360603
22.360602
22.360602
22.360601
22.3606
22.3606
22.360599
22.360599
22.360598
22.360598
22.360597
22.360597
22.360596
22.360596
22.360595
22.360595
22.360595
22.360594
22.360594
22.360594
22.360593
22.360593
22.360592
22.360592
22.360592
22.360591
22.360591
22.360591
22.36059
22.36059
22.36059
22.36059
22.360589
22.360589
22.360589
22.360589
22.360588
22.360588
22.360588
22.360587
22.360587
22.360587
22.360587
22.360586
22.360586
22.360586
22.360586
22.360585
22.360585
22.360585
22.360585
22.360584
22.360584
22.360584
22.360583
22.360583
22.360583
22.360582
22.360582
22.360582
22.360581
22.360581
22.360581
22.36058
22.36058
22.36058
22.360579
22.360579
22.360578
22.360578
22.360577
22.360577
22.360577
22.360576
22.360576
22.360575
22.360574
22.360574
22.360573
22.360573
22.360572
22.360572
22.360571
22.36057
22.36057
22.360569
22.360568
22.360568
22.360567
22.360566
22.360566
22.360565
22.360564
22.360563
22.360562
22.360562
22.360561
22.36056
22.360559
22.360558
22.360557
22.360556
22.360556
22.360555
22.360554
22.360553
22.360552
22.360551
22.36055
22.360549
22.360548
22.360547
22.360546
22.360545
22.360544
22.360543
22.360542
22.360541
22.36054
22.360539
22.360538
22.360537
22.360536
22.360535
22.360534
22.360533
22.360532
22.360531
22.36053
22.360529
22.360528
22.360527
22.360526
22.360525
22.360524
22.360522
22.360521
22.36052
22.360519
22.360518
22.360517
22.360516
22.360515
22.360514
22.360513
22.360512
22.360511
22.36051
22.360509
22.360508
22.360507
22.360507
22.360506
22.360505
22.360504
22.360503
22.360502
22.360501
22.3605
22.360499
22.360498
22.360497
22.360497
22.360496
22.360495
22.360494
22.360493
22.360492
22.360492
22.360491
22.36049
22.360489
22.360489
22.360488
22.360487
22.360487
22.360486
22.360485
22.360485
22.360484
22.360483
22.360483
22.360482
22.360482
22.360481
22.360481
22.36048
22.360479
22.360479
22.360479
22.360478
22.360478
22.360477
22.360477
22.360476
22.360476
22.360476
22.360475
22.360475
22.360475
22.360474
22.360474
22.360474
22.360473
22.360473
22.360473
22.360473
22.360472
22.360472
22.360472
22.360472
22.360471
22.360471
22.360471
22.360471
22.360471
22.36047
22.36047
22.36047
22.36047
22.36047
22.36047
22.360469
22.360469
22.360469
22.360469
22.360469
22.360469
22.360469
22.360468
22.360468
22.360468
22.360468
22.360468
22.360468
22.360467
22.360467
22.360467
22.360467
22.360467
22.360467
22.360466
22.360466
22.360466
22.360466
22.360466
22.360465
22.360465
22.360465
22.360465
22.360464
22.360464
22.360464
22.360464
22.360463
22.360463
22.360463
22.360463
22.360462
22.360462
22.360461
22.360461
22.360461
22.360461
22.36046
22.36046
22.36046
22.360459
22.360459
22.360458
22.360458
22.360458
22.360457
22.360457
22.360456
22.360456
22.360455
22.360455
22.360454
22.360454
22.360454
22.360453
22.360453
22.360452
22.360452
22.360451
22.360451
22.36045
22.36045
22.360449
22.360449
22.360448
22.360448
22.360447
22.360447
22.360446
22.360446
22.360445
22.360445
22.360444
22.360444
22.360443
22.360443
22.360442
22.360441
22.360441
22.36044
22.36044
22.360439
22.360439
22.360438
22.360438
22.360437
22.360437
22.360436
22.360436
22.360435
22.360435
22.360434
22.360434
22.360433
22.360433
22.360432
22.360432
22.360432
22.360431
22.360431
22.36043
22.36043
22.360429
22.360429
22.360428
22.360428
22.360427
22.360427
22.360427
22.360426
22.360426
22.360425
22.360425
22.360424
22.360424
22.360424
22.360423
22.360423
22.360423
22.360422
22.360422
22.360421
22.360421
22.360421
22.36042
22.36042
22.36042
22.360419
22.360419
22.360418
22.360418
22.360418
22.360417
22.360417
22.360417
22.360416
22.360416
22.360416
22.360415
22.360415
22.360415
22.360414
22.360414
22.360413
22.360413
22.360413
22.360412
22.360412
22.360412
22.360411
22.360411
22.360411
22.36041
22.36041
22.36041
22.360409
22.360409
22.360408
22.360408
22.360408
22.360407
22.360407
22.360407
22.360406
22.360406
22.360405
22.360405
22.360405
22.360404
22.360404
22.360403
22.360403
22.360403
22.360402
22.360402
22.360401
22.360401
22.360401
22.3604
22.3604
22.360399
22.360399
22.360398
22.360398
22.360398
22.360397
22.360397
22.360396
22.360396
22.360395
22.360395
22.360394
22.360394
22.360394
22.360393
22.360393
22.360392
22.360392
22.360391
22.360391
22.36039
22.36039
22.360389
22.360389
22.360389
22.360388
22.360388
22.360387
22.360387
22.360386
22.360386
22.360385
22.360385
22.360384
22.360384
22.360383
22.360383
22.360383
22.360382
22.360382
22.360381
22.360381
22.36038
22.36038
22.360379
22.360379
22.360378
22.360378
22.360377
22.360377
22.360376
22.360376
22.360375
22.360375
22.360374
22.360374
22.360374
22.360373
22.360373
22.360372
22.360372
22.360371
22.360371
22.36037
22.36037
22.360369
22.360369
22.360368
22.360368
22.360367
22.360367
22.360366
22.360366
22.360365
22.360365
22.360364
22.360364
22.360363
22.360363
22.360362
22.360362
22.360361
22.360361
22.36036
22.36036
22.360359
22.360359
22.360358
22.360358
22.360357
22.360357
22.360356
22.360356
22.360355
22.360355
22.360354
22.360354
22.360354
22.360353
22.360353
22.360352
22.360352
22.360351
22.360351
22.36035
22.36035
22.360349
22.360349
22.360348
22.360348
22.360348
22.360347
22.360347
22.360346
22.360346
22.360345
22.360345
22.360345
22.360344
22.360344
22.360343
22.360343
22.360343
22.360342
22.360342
22.360342
22.360341
22.360341
22.36034
22.36034
22.36034
22.360339
22.360339
22.360339
22.360339
22.360338
22.360338
22.360338
22.360337
22.360337
22.360337
22.360337
22.360336
22.360336
22.360336
22.360336
22.360335
22.360335
22.360335
22.360335
22.360335
22.360334
22.360334
22.360334
22.360334
22.360334
22.360334
22.360333
22.360333
22.360333
22.360333
22.360333
22.360333
22.360332
22.360332
22.360332
22.360332
22.360332
22.360332
22.360332
22.360332
22.360331
22.360331
22.360331
22.360331
22.360331
22.360331
22.360331
22.360331
22.36033
22.36033
22.36033
22.36033
22.36033
22.36033
22.36033
22.360329
22.360329
22.360329
22.360329
22.360329
22.360329
22.360328
22.360328
22.360328
22.360328
22.360328
22.360327
22.360327
22.360327
22.360327
22.360326
22.360326
22.360326
22.360326
22.360325
22.360325
22.360325
22.360324
22.360324
22.360324
22.360323
22.360323
22.360323
22.360322
22.360322
22.360321
22.360321
22.360321
22.36032
22.36032
22.360319
22.360319
22.360318
22.360318
22.360317
22.360317
22.360316
22.360316
22.360315
22.360315
22.360314
22.360314
22.360313
22.360313
22.360312
22.360312
22.360311
22.36031
22.36031
22.360309
22.360309
22.360308
22.360307
22.360307
22.360306
22.360305
22.360305
22.360304
22.360303
22.360303
22.360302
22.360301
22.360301
22.3603
22.360299
22.360299
22.360298
22.360297
22.360297
22.360296
22.360296
22.360295
22.360294
22.360294
22.360293
22.360292
22.360292
22.360291
22.36029
22.36029
22.360289
22.360288
22.360288
22.360287
22.360287
22.360286
22.360286
22.360285
22.360284
22.360284
22.360283
22.360283
22.360282
22.360282
22.360281
22.360281
22.36028
22.36028
22.360279
22.360279
22.360278
22.360278
22.360277
22.360277
22.360277
22.360276
22.360276
22.360275
22.360275
22.360275
22.360274
22.360274
22.360274
22.360273
22.360273
22.360273
22.360272
22.360272
22.360272
22.360271
22.360271
22.360271
22.360271
22.36027
22.36027
22.36027
22.36027
22.36027
22.360269
22.360269
22.360269
22.360269
22.360269
22.360268
22.360268
22.360268
22.360268
22.360268
22.360267
22.360267
22.360267
22.360267
22.360267
22.360267
22.360267
22.360266
22.360266
22.360266
22.360266
22.360266
22.360266
22.360266
22.360266
22.360265
22.360265
22.360265
22.360265
22.360265
22.360265
22.360265
22.360264
22.360264
22.360264
22.360264
22.360264
22.360264
22.360263
22.360263
22.360263
22.360263
22.360263
22.360263
22.360262
22.360262
22.360262
22.360262
22.360261
22.360261
22.360261
22.360261
22.360261
22.36026
22.36026
22.36026
22.36026
22.360259
22.360259
22.360259
22.360259
22.360258
22.360258
22.360258
22.360257
22.360257
22.360257
22.360257
22.360256
22.360256
22.360255
22.360255
22.360255
22.360255
22.360254
22.360254
22.360254
22.360253
22.360253
22.360252
22.360252
22.360252
22.360251
22.360251
22.360251
22.36025
22.36025
22.360249
22.360249
22.360249
22.360248
22.360248
22.360248
22.360247
22.360247
22.360246
22.360246
22.360246
22.360245
22.360245
22.360244
22.360244
22.360243
22.360243
22.360243
22.360242
22.360242
22.360241
22.360241
22.360241
22.36024
22.36024
22.360239
22.360239
22.360238
22.360238
22.360238
22.360237
22.360237
22.360236
22.360236
22.360236
22.360235
22.360235
22.360234
22.360234
22.360234
22.360233
22.360233
22.360232
22.360232
22.360232
22.360231
22.360231
22.36023
22.36023
22.36023
22.360229
22.360229
22.360229
22.360228
22.360228
22.360227
22.360227
22.360227
22.360226
22.360226
22.360226
22.360225
22.360225
22.360225
22.360224
22.360224
22.360224
22.360223
22.360223
22.360223
22.360222
22.360222
22.360221
22.360221
22.360221
22.36022
22.36022
22.36022
22.360219
22.360219
22.360219
22.360218
22.360218
22.360218
22.360218
22.360217
22.360217
22.360216
22.360216
22.360216
22.360216
22.360215
22.360215
22.360214
22.360214
22.360214
22.360214
22.360213
22.360213
22.360213
22.360212
22.360212
22.360212
22.360211
22.360211
22.360211
22.36021
22.36021
22.36021
22.360209
22.360209
22.360209
22.360208
22.360208
22.360208
22.360207
22.360207
22.360207
22.360206
22.360206
22.360206
22.360205
22.360205
22.360205
22.360204
22.360204
22.360204
22.360203
22.360203
22.360203
22.360202
22.360202
22.360202
22.360201
22.360201
22.360201
22.3602
22.3602
22.3602
22.360199
22.360199
22.360199
22.360198
22.360198
22.360198
22.360197
22.360197
22.360197
22.360196
22.360196
22.360196
22.360196
22.360195
22.360195
22.360195
22.360194
22.360194
22.360194
22.360193
22.360193
22.360193
22.360192
22.360192
22.360192
22.360192
22.360191
22.360191
22.360191
22.36019
22.36019
22.36019
22.36019
22.360189
22.360189
22.360189
22.360189
22.360188
22.360188
22.360188
22.360187
22.360187
22.360187
22.360187
22.360186
22.360186
22.360186
22.360186
22.360185
22.360185
22.360185
22.360185
22.360184
22.360184
22.360184
22.360184
22.360184
22.360183
22.360183
22.360183
22.360183
22.360182
22.360182
22.360182
22.360182
22.360181
22.360181
22.360181
22.360181
22.36018
22.36018
22.36018
22.36018
22.360179
22.360179
22.360179
22.360179
22.360178
22.360178
22.360178
22.360178
22.360177
22.360177
22.360177
22.360177
22.360176
22.360176
22.360176
22.360175
22.360175
22.360175
22.360175
22.360174
22.360174
22.360174
22.360173
22.360173
22.360173
22.360172
22.360172
22.360172
22.360171
22.360171
22.360171
22.36017
22.36017
22.360169
22.360169
22.360169
22.360168
22.360168
22.360167
22.360167
22.360167
22.360166
22.360166
22.360165
22.360165
22.360164
22.360164
22.360164
22.360163
22.360163
22.360162
22.360162
22.360161
22.360161
22.36016
22.36016
22.36016
22.360159
22.360159
22.360158
22.360158
22.360157
22.360157
22.360156
22.360156
22.360155
22.360155
22.360154
22.360154
22.360153
22.360153
22.360152
22.360152
22.360151
22.360151
22.36015
22.36015
22.360149
22.360149
22.360148
22.360148
22.360147
22.360147
22.360146
22.360146
22.360145
22.360145
22.360144
22.360144
22.360143
22.360143
22.360142
22.360142
22.360141
22.360141
22.36014
22.36014
22.360139
22.360139
22.360139
22.360138
22.360138
22.360137
22.360137
22.360136
22.360136
22.360136
22.360135
22.360135
22.360135
22.360134
22.360134
22.360133
22.360133
22.360133
22.360132
22.360132
22.360132
22.360131
22.360131
22.360131
22.36013
22.36013
22.36013
22.360129
22.360129
22.360129
22.360129
22.360128
22.360128
22.360128
22.360128
22.360127
22.360127
22.360127
22.360127
22.360126
22.360126
22.360126
22.360126
22.360125
22.360125
22.360125
22.360125
22.360125
22.360124
22.360124
22.360124
22.360124
22.360124
22.360124
22.360123
22.360123
22.360123
22.360123
22.360123
22.360122
22.360122
22.360122
22.360122
22.360122
22.360121
22.360121
22.360121
22.360121
22.360121
22.360121
22.36012
22.36012
22.36012
22.36012
22.36012
22.360119
22.360119
22.360119
22.360119
22.360119
22.360119
22.360118
22.360118
22.360118
22.360118
22.360117
22.360117
22.360117
22.360117
22.360117
22.360116
22.360116
22.360116
22.360116
22.360115
22.360115
22.360115
22.360115
22.360114
22.360114
22.360114
22.360114
22.360113
22.360113
22.360113
22.360113
22.360112
22.360112
22.360112
22.360111
22.360111
22.360111
22.360111
22.36011
22.36011
22.36011
22.360109
22.360109
22.360109
22.360108
22.360108
22.360108
22.360107
22.360107
22.360107
22.360106
22.360106
22.360106
22.360105
22.360105
22.360105
22.360104
22.360104
22.360103
22.360103
22.360103
22.360102
22.360102
22.360102
22.360101
22.360101
22.3601
22.3601
22.3601
22.360099
22.360099
22.360099
22.360098
22.360098
22.360098
22.360097
22.360097
22.360096
22.360096
22.360096
22.360095
22.360095
22.360095
22.360094
22.360094
22.360093
22.360093
22.360093
22.360092
22.360092
22.360092
22.360091
22.360091
22.36009
22.36009
22.36009
22.360089
22.360089
22.360089
22.360088
22.360088
22.360088
22.360087
22.360087
22.360087
22.360086
22.360086
22.360086
22.360085
22.360085
22.360085
22.360084
22.360084
22.360084
22.360083
22.360083
22.360083
22.360083
22.360082
22.360082
22.360082
22.360081
22.360081
22.360081
22.360081
22.36008
22.36008
22.36008
22.360079
22.360079
22.360079
22.360079
22.360078
22.360078
22.360078
22.360078
22.360077
22.360077
22.360077
22.360077
22.360076
22.360076
22.360076
22.360076
22.360076
22.360075
22.360075
22.360075
22.360075
22.360074
22.360074
22.360074
22.360074
22.360074
22.360073
22.360073
22.360073
22.360073
22.360073
22.360073
22.360072
22.360072
22.360072
22.360072
22.360072
22.360071
22.360071
22.360071
22.360071
22.360071
22.360071
22.360071
22.36007
22.36007
22.36007
22.36007
22.36007
22.36007
22.360069
22.360069
22.360069
22.360069
22.360069
22.360069
22.360068
22.360068
22.360068
22.360068
22.360068
22.360068
22.360067
22.360067
22.360067
22.360067
22.360067
22.360067
22.360066
22.360066
22.360066
22.360066
22.360066
22.360066
22.360065
22.360065
22.360065
22.360065
22.360065
22.360064
22.360064
22.360064
22.360064
22.360064
22.360063
22.360063
22.360063
22.360063
22.360063
22.360063
22.360062
22.360062
22.360062
22.360062
22.360061
22.360061
22.360061
22.360061
22.36006
22.36006
22.36006
22.36006
22.36006
22.360059
22.360059
22.360059
22.360059
22.360058
22.360058
22.360058
22.360057
22.360057
22.360057
22.360057
22.360056
22.360056
22.360056
22.360056
22.360055
22.360055
22.360055
22.360054
22.360054
22.360054
22.360054
22.360053
22.360053
22.360053
22.360052
22.360052
22.360052
22.360051
22.360051
22.360051
22.36005
22.36005
22.36005
22.360049
22.360049
22.360049
22.360049
22.360048
22.360048
22.360048
22.360047
22.360047
22.360047
22.360046
22.360046
22.360046
22.360045
22.360045
22.360045
22.360044
22.360044
22.360044
22.360043
22.360043
22.360043
22.360042
22.360042
22.360042
22.360041
22.360041
22.360041
22.36004
22.36004
22.36004
22.360039
22.360039
22.360039
22.360038
22.360038
22.360038
22.360037
22.360037
22.360037
22.360036
22.360036
22.360036
22.360035
22.360035
22.360035
22.360034
22.360034
22.360034
22.360034
22.360033
22.360033
22.360033
22.360032
22.360032
22.360032
22.360031
22.360031
22.360031
22.36003
22.36003
22.36003
22.36003
22.360029
22.360029
22.360029
22.360028
22.360028
22.360028
22.360027
22.360027
22.360027
22.360027
22.360026
22.360026
22.360026
22.360025
22.360025
22.360025
22.360025
22.360024
22.360024
22.360024
22.360023
22.360023
22.360023
22.360022
22.360022
22.360022
22.360022
22.360021
22.360021
22.360021
22.36002
22.36002
22.36002
22.360019
22.360019
22.360019
22.360019
22.360018
22.360018
22.360018
22.360017
22.360017
22.360017
22.360017
22.360016
22.360016
22.360016
22.360015
22.360015
22.360015
22.360015
22.360014
22.360014
22.360014
22.360013
22.360013
22.360013
22.360012
22.360012
22.360012
22.360011
22.360011
22.360011
22.36001
22.36001
22.36001
22.36001
22.360009
22.360009
22.360009
22.360008
22.360008
22.360008
22.360007
22.360007
22.360007
22.360007
22.360007
22.360006
22.360006
22.360005
22.360005
22.360005
22.360005
22.360005
22.360004
22.360004
22.360004
22.360004
22.360003
22.360003
22.360002
22.360001
22.36
22.359999
22.359998
22.359997
22.359996
22.359996
22.359996
22.359997
22.359999
22.360001
22.360003
22.360006
22.360008
22.360008
22.360006
22.360002
22.359996
22.359988
22.35998
22.359978
22.359993
22.360046
22.360208
22.360629
22.361647
22.361266
22.359868
22.359785
22.359946
22.359937
22.359913
22.359915
22.359924
22.359932
22.359942
22.359954
22.359965
22.359975
22.359984
22.359991
22.359997
22.360001
22.360004
22.360006
22.360008
22.360009
22.360009
22.36001
22.36001
22.36001
22.36001
22.36001
22.36001
22.36001
22.36001
22.36001
22.360009
22.360009
22.360009
22.360008
22.360008
22.360008
22.360007
22.360007
22.360005
22.36
22.360001
22.360006
22.360006
22.360005
22.360005
22.360005
22.360004
22.360004
22.360004
22.360003
22.360003
22.360003
22.360002
22.360002
22.360002
22.360001
22.360001
22.360001
22.360001
22.36
22.36
22.36
22.359999
22.359999
22.359999
22.359998
22.359998
22.359998
22.359997
22.359997
22.359997
22.359996
22.359996
22.359996
22.359995
22.359995
22.359995
22.359994
22.359994
22.359994
22.359993
22.359993
22.359993
22.359993
22.359992
22.359992
22.359992
22.359991
22.359991
22.359991
22.35999
22.35999
22.35999
22.359989
22.359989
22.359989
22.359988
22.359988
22.359988
22.359988
22.359987
22.359987
22.359987
22.359987
22.359986
22.359986
22.359986
22.359986
22.359985
22.359985
22.359985
22.359985
22.359984
22.359984
22.359984
22.359984
22.359983
22.359983
22.359983
22.359983
22.359983
22.359982
22.359982
22.359982
22.359982
22.359981
22.359981
22.359981
22.359981
22.35998
22.35998
22.35998
22.35998
22.35998
22.359979
22.359979
22.359979
22.359979
22.359979
22.359978
22.359978
22.359978
22.359978
22.359977
22.359977
22.359977
22.359977
22.359977
22.359976
22.359976
22.359976
22.359976
22.359976
22.359976
22.359976
22.359976
22.359975
22.359975
22.359975
22.359975
22.359975
22.359975
22.359975
22.359975
22.359974
22.359974
22.359974
22.359974
22.359974
22.359974
22.359974
22.359974
22.359974
22.359974
22.359975
22.359975
22.359974
22.359974
22.359975
22.359975
22.359975
22.359975
22.359975
22.359975
22.359975
22.359975
22.359975
22.359975
22.359975
22.359975
22.359975
22.359975
22.359975
22.359975
22.359974
22.359974
22.359974
22.359974
22.359974
22.359973
22.359973
22.359973
22.359973
22.359973
22.359972
22.359972
22.359972
22.359972
22.359972
22.359971
22.359971
22.359971
22.359971
22.359971
22.35997
22.35997
22.35997
22.35997
22.35997
22.359969
22.359969
22.359969
22.359969
22.359968
22.359968
22.359968
22.359968
22.359968
22.359967
22.359967
22.359967
22.359967
22.359966
22.359966
22.359966
22.359966
22.359965
22.359965
22.359965
22.359965
22.359964
22.359964
22.359964
22.359963
22.359963
22.359963
22.359963
22.359962
22.359962
22.359962
22.359961
22.359961
22.359961
22.359961
22.35996
22.35996
22.35996
22.359959
22.359959
22.359959
22.359958
22.359958
22.359958
22.359957
22.359957
22.359957
22.359956
22.359956
22.359956