/*--------------------------------*- C++ -*----------------------------------*\
  =========                 |
  \\      /  F ield         | OpenFOAM: The Open Source CFD Toolbox
   \\    /   O peration     | Website:  https://openfoam.org
    \\  /    A nd           | Version:  7
     \\/     M anipulation  |
\*---------------------------------------------------------------------------*/
FoamFile
{
    version     2.0;
    format      ascii;
    class       volScalarField;
    location    "0.00302";
    object      Uz;
}
// * * * * * * * * * * * * * * * * * * * * * * * * * * * * * * * * * * * * * //

dimensions      [0 1 -1 0 0 0 0];

internalField   nonuniform List<scalar> 
5000
(
0
0
0
0
0
-7.7230009e-22
-1.6420236e-36
2.4408906e-21
8.2817024e-22
-1.7087724e-21
-1.7265068e-21
8.5232591e-22
-7.2035987e-36
-7.4650099e-36
1.7035459e-21
-1.706288e-21
-5.359913e-52
-7.4972766e-36
-8.4993819e-22
1.6979298e-21
8.4799405e-22
0
0
-8.4504961e-22
7.1970028e-36
-6.9490993e-36
-8.4213017e-22
8.4115769e-22
8.4018821e-22
-8.3922343e-22
1.4652281e-35
-7.1392589e-36
-8.3633983e-22
8.3538233e-22
8.3443081e-22
0
0
-8.3160822e-22
-8.3067354e-22
8.2974103e-22
-1.389821e-35
-8.2789262e-22
8.2697832e-22
-1.396953e-35
-8.2515377e-22
8.2424279e-22
-2.8314477e-35
2.8165985e-35
-2.8251321e-35
1.3993329e-35
8.1965885e-22
0
0
0
0
0
0
0
0
0
0
0
0
-7.9327272e-22
-7.900428e-22
7.8546759e-22
-1.3510635e-35
2.7258341e-52
7.9155682e-22
0
0
-7.8460858e-22
-7.837784e-22
0
7.8368715e-22
2.7129213e-35
-7.8852991e-22
-7.8647017e-22
7.7982561e-22
1.5548402e-21
-1.5544829e-21
4.3876941e-37
2.2959149e-21
-1.5289506e-21
-8.007525e-35
1.5543674e-21
-2.3229567e-21
7.6823672e-22
7.7255344e-22
-7.7097497e-22
7.6169003e-22
7.6283107e-22
2.6835604e-35
-1.5354038e-21
-5.2719477e-35
-7.6686729e-22
-7.6561121e-22
-2.6534946e-35
5.2699319e-35
1.5297043e-21
7.6179777e-22
-7.5556266e-22
1.0807545e-37
7.5904848e-22
0
-7.5802712e-22
-2.6340123e-35
7.5058885e-22
-7.5551238e-22
-7.5423285e-22
1.4890093e-21
7.4554752e-22
-2.2618311e-21
-7.5129066e-22
2.223961e-21
-7.4242485e-22
-7.5084688e-22
-4.2526732e-37
-7.3806039e-22
2.2180632e-21
-5.2277485e-35
-1.4960876e-21
1.4908814e-21
7.4438235e-22
-7.4087316e-22
7.3603549e-22
-7.355083e-22
-1.4837279e-21
7.399271e-22
2.5204776e-35
7.3092951e-22
1.4795597e-21
-7.3703117e-22
-7.3077332e-22
-7.3585046e-22
-2.567836e-35
-2.5496813e-35
2.5557794e-35
1.4625386e-21
7.3394502e-22
-7.3184511e-22
-1.4444224e-21
-7.2307033e-22
-7.3209092e-22
5.0600551e-35
1.4450752e-21
-2.0631703e-37
2.0607044e-37
-9.4111715e-52
7.2745961e-22
-5.0377616e-35
1.0032452e-34
7.2562743e-22
-7.2487483e-22
7.1480221e-22
2.4821182e-35
-7.2532041e-22
7.2310121e-22
-1.0187741e-37
-7.2256885e-22
0
7.1578384e-22
4.9929349e-35
-1.4418582e-21
7.1080298e-22
-2.0233628e-37
-7.2172447e-22
7.2002663e-22
-7.0959218e-22
7.1076467e-22
-3.0035123e-34
-1.9957046e-34
7.091438e-22
-1.420794e-21
0
-4.9876652e-35
-1.4843872e-34
7.19721e-22
7.1953126e-22
4.9222991e-35
-7.2056889e-22
7.2058288e-22
4.9214108e-35
3.077698e-37
1.0062653e-34
-1.459697e-21
7.3486334e-22
7.3115699e-22
-5.0134781e-35
5.0001643e-35
-1.4900381e-34
4.9649229e-35
-7.3015492e-22
0
0
0
0
-7.2909374e-22
1.5357272e-34
7.3784937e-22
7.3388778e-22
-7.4171944e-22
-7.4349187e-22
1.4708734e-21
5.1123345e-35
-1.5594688e-34
-7.5181694e-22
-7.4821546e-22
7.5668573e-22
0
7.5570279e-22
5.2900326e-35
-7.6695915e-22
-7.5966624e-22
1.0635895e-34
7.7693888e-22
-1.5569443e-21
7.7579769e-22
7.851119e-22
-7.8761395e-22
7.8479069e-22
0
0
0
8.0436236e-22
-8.1075632e-22
-1.6216193e-21
8.1184056e-22
-5.6502059e-35
8.1402449e-22
8.1879892e-22
-1.6605979e-21
2.3764353e-37
-2.3765062e-37
8.3716252e-22
8.3826852e-22
-1.6789537e-21
1.1930569e-37
-1.7633207e-34
8.6043265e-22
-4.7935714e-34
-1.187512e-34
8.6105251e-22
-8.7524583e-22
0
-8.8138496e-22
8.8257696e-22
8.8399868e-22
-8.8560271e-22
0
-8.9193029e-22
9.0554042e-22
9.0791121e-22
-3.1443227e-34
-1.8311519e-21
-1.8382523e-21
2.7379619e-21
1.8352573e-21
0
-1.8677637e-21
-9.3147582e-22
9.4084957e-22
9.473655e-22
9.4776845e-22
-1.8984191e-21
-1.9017162e-21
9.5210705e-22
1.913728e-21
2.6872444e-34
-1.9433731e-21
9.6515597e-22
-1.3457689e-34
-9.846046e-22
1.9735703e-21
-9.8452274e-22
1.3853465e-34
9.9823134e-22
-9.9625584e-22
1.0065209e-21
-2.020122e-21
4.2065575e-34
2.0369377e-21
-2.042856e-21
-7.0524813e-35
1.0297435e-21
0
0
1.0384976e-21
-1.0385233e-21
-2.0958606e-21
1.0611488e-21
-3.0216427e-37
1.063985e-21
1.0651134e-21
-1.0649673e-21
0
-1.0765632e-21
-1.0743571e-21
0
2.1706842e-21
1.075292e-21
-2.1538311e-21
7.5356898e-35
-3.125391e-37
1.1097024e-21
1.111131e-21
-1.1035134e-21
1.1071838e-21
-1.1217061e-21
6.3884776e-37
2.2417684e-21
-1.1305911e-21
-1.1335003e-21
-1.1257056e-21
-1.567151e-34
1.1436742e-21
0
0
-1.1500603e-21
1.5994499e-34
-3.1866496e-34
-1.6083074e-34
1.1633559e-21
-1.1631053e-21
1.6534634e-37
1.1628132e-21
0
0
0
0
0
0
0
-1.1818227e-21
0
1.1756052e-21
0
-1.188604e-21
-3.3085984e-34
1.1923663e-21
0
0
-1.191886e-21
-1.6524702e-34
1.1914185e-21
0
0
-1.1976905e-21
-1.1963191e-21
1.1901207e-21
1.1907706e-21
0
-1.2007897e-21
1.6945609e-37
1.1946097e-21
-1.1937276e-21
-1.1918911e-21
1.2016944e-21
1.2019731e-21
0
-1.2020301e-21
-1.2021538e-21
1.1906795e-21
1.1918401e-21
0
-1.2018042e-21
-1.1947146e-21
1.2015796e-21
1.2009562e-21
0
0
0
0
0
0
0
0
-1.1992463e-21
-4.7218536e-51
1.1978059e-21
0
0
0
-1.195932e-21
-1.6564343e-34
1.1814578e-21
-1.1820693e-21
1.6573806e-34
-1.6932085e-37
-1.643643e-34
1.1902637e-21
-1.1931912e-21
1.1902341e-21
-6.5984363e-34
-1.1776486e-21
1.1701708e-21
0
0
-1.1868576e-21
-1.643832e-34
1.1762245e-21
-1.1828123e-21
-1.1816804e-21
0
1.1805968e-21
1.1795015e-21
-1.1717844e-21
-3.2706645e-34
2.70867e-51
-1.6163886e-34
1.1646175e-21
-1.1769809e-21
-1.1660516e-50
-1.6203434e-34
-1.1738513e-21
0
0
1.1751721e-21
1.6643283e-37
-4.8849279e-34
1.1775353e-21
0
0
-1.1786029e-21
3.2707338e-34
1.1808324e-21
0
0
0
-1.1954219e-21
1.7041646e-37
1.2027952e-21
-1.2058811e-21
1.2083648e-21
-3.3648782e-34
-2.4248847e-21
1.2141876e-21
5.0644286e-34
1.6903932e-34
-1.692638e-34
-1.2205471e-21
0
0
1.2230949e-21
1.6992498e-34
-3.3990063e-34
-5.0206068e-53
-1.226812e-21
1.2281524e-21
1.2296496e-21
0
-1.2326589e-21
-1.7135765e-34
1.2360682e-21
0
0
-1.2420788e-21
3.5336693e-37
-7.185732e-53
-1.2462508e-21
1.2480156e-21
-1.7312621e-34
1.7362586e-34
-3.4726778e-34
-1.2518073e-21
1.2523418e-21
-3.4788383e-34
3.4821641e-34
-3.4843516e-34
-1.2551139e-21
1.2562227e-21
-3.4921849e-34
1.7516509e-34
0
-1.2610686e-21
1.2628778e-21
-1.7576863e-34
1.8035398e-37
-1.764413e-34
1.767783e-34
1.2739227e-21
-1.2771442e-21
-1.2814797e-21
1.2850501e-21
1.286682e-21
0
-1.2906757e-21
-1.2937082e-21
0
1.29869e-21
-1.8064332e-34
1.8524993e-37
1.8189026e-34
-1.3238394e-21
1.3282901e-21
1.8373002e-34
-3.6802625e-34
-1.3306829e-21
-1.335034e-21
2.6789119e-21
-1.9022189e-37
1.8501334e-34
1.3395672e-21
-1.3462163e-21
1.8692126e-34
1.3514452e-21
0
0
0
-1.3688388e-21
-1.3692489e-21
1.3744898e-21
1.3801748e-21
0
-1.3809799e-21
-1.3840668e-21
1.3909283e-21
1.3979015e-21
0
-1.39989e-21
-1.4009991e-21
1.4082695e-21
3.9300472e-34
-1.4197742e-21
0
0
0
0
1.4252528e-21
-3.9697883e-34
-1.4297027e-21
1.4255345e-21
1.9867915e-34
-1.9997226e-34
-4.9633781e-52
1.4461474e-21
1.4380958e-21
-2.8976213e-21
-2.0382976e-34
2.0387924e-34
-1.4687096e-21
0
1.4590942e-21
1.4572385e-21
-1.4604245e-21
-4.0584058e-34
1.4749585e-21
0
0
-1.4879069e-21
2.0718499e-34
1.5042731e-21
0
-1.5045554e-21
2.1333242e-37
-4.1722804e-34
-2.0834353e-34
1.5019256e-21
-1.5014798e-21
2.1343324e-37
-4.174014e-34
-1.5058352e-21
1.5106387e-21
4.2261067e-34
2.175e-37
-2.1203031e-34
-1.5266719e-21
1.5249464e-21
0
-8.4432946e-34
-2.115834e-34
-6.3719249e-34
-2.1975455e-37
-1.5538838e-21
1.5467269e-21
-1.1071895e-51
-2.1466557e-34
4.2918512e-34
-2.1456928e-34
3.0898505e-21
-1.5456892e-21
-1.547997e-21
-2.156264e-34
2.1729025e-34
3.1437758e-21
-1.5659926e-21
-1.5622175e-21
3.1310746e-52
0
2.7590951e-52
-1.5521942e-21
1.5564374e-21
-1.8842057e-52
-2.1777781e-34
-2.2249006e-37
-1.5547139e-21
3.1183334e-21
4.36148e-34
-1.5762566e-21
2.1853652e-34
-2.1827087e-34
1.571104e-21
-1.5662071e-21
3.1994429e-51
-6.6096947e-34
4.4272384e-34
-4.4194184e-34
-4.4192071e-34
1.9115473e-52
0
1.5909483e-21
0
0
-1.6124312e-21
-4.4619418e-34
1.6025188e-21
0
0
-3.2003768e-21
-1.3310031e-33
3.1947285e-21
-1.5959169e-21
2.2729104e-37
-2.2292249e-34
-1.6109469e-21
0
0
0
-1.6333345e-21
-4.5057072e-34
1.6209758e-21
0
0
-1.6207256e-21
2.302438e-37
1.6156144e-21
0
0
-1.6442943e-21
-4.5613895e-34
-4.5623469e-34
4.5727087e-34
1.6507638e-21
-1.6498352e-21
4.5585536e-34
-4.5526661e-34
4.5555357e-34
1.641782e-21
0
0
-1.6608616e-21
4.4375919e-51
1.6691095e-21
0
0
-1.6518245e-21
6.2825549e-51
1.6573035e-21
0
0
-1.6589172e-21
2.0475404e-50
1.6937875e-21
0
0
-1.691936e-21
2.3879923e-37
1.6638578e-21
-1.6739538e-21
4.7103866e-34
-4.713267e-34
4.7051961e-34
1.7004811e-21
0
0
0
0
0
-1.6940591e-21
4.7101221e-34
1.7040415e-21
0
0
0
0
0
0
0
-1.7282476e-21
9.5725018e-34
1.7287671e-21
0
0
0
0
0
0
0
-1.7538851e-21
4.8620902e-34
1.7422446e-21
0
0
-1.7492752e-21
4.88033e-34
1.7596383e-21
0
0
0
-1.7913959e-21
-5.0174191e-34
1.798215e-21
0
0
0
0
0
0
0
-1.7921508e-21
2.5712771e-37
1.8093182e-21
0
0
0
0
0
0
0
-1.8295275e-21
-2.5976054e-37
1.8233553e-21
0
0
0
-1.842446e-21
1.0296199e-33
1.8604186e-21
0
-1.8616638e-21
-5.1685815e-34
1.8570782e-21
0
0
-1.8477687e-21
-1.8522199e-21
1.857283e-21
1.8584453e-21
0
0
0
0
1.8867212e-21
-2.6777019e-37
-3.7800879e-21
-1.8930357e-21
3.7949022e-21
3.8121118e-21
-1.9084398e-21
-1.9062742e-21
0
0
0
0
-1.9063691e-21
-5.3050406e-34
1.9044836e-21
0
0
0
0
0
0
0
0
0
0
0
0
0
0
-1.9482883e-21
1.0826919e-33
1.953466e-21
0
0
1.9661453e-21
-5.4619047e-34
2.8021886e-37
-1.9786606e-21
-1.9869e-21
-1.1067813e-33
5.54079e-34
1.9949012e-21
0
0
0
0
0
-2.0013994e-21
1.1095223e-33
1.9972667e-21
0
0
0
0
0
0
0
-2.0432241e-21
1.1352579e-33
2.046007e-21
0
0
0
0
0
0
0
-2.0716995e-21
1.7234318e-33
2.0639114e-21
0
0
0
0
0
0
0
0
-2.0989794e-21
2.9823969e-37
2.0987301e-21
0
0
0
0
-2.1239231e-21
2.1232166e-21
2.1223392e-21
-4.2463499e-21
-5.9020808e-34
2.1305954e-21
0
0
0
0
-2.1822005e-21
6.0778523e-34
4.3811251e-21
-2.1868648e-21
-2.1801291e-21
2.1763105e-21
0
0
0
-2.1851162e-21
-6.0647558e-34
2.1888501e-21
2.195456e-21
-2.202179e-21
-2.2037439e-21
2.2048177e-21
0
0
-2.2175378e-21
-2.2128218e-21
2.2178377e-21
2.2241089e-21
2.2254784e-21
1.2392977e-33
-2.2418869e-21
0
0
0
-2.2935239e-21
-2.2871255e-21
2.2680773e-21
2.2612266e-21
2.2715791e-21
6.3303905e-34
-2.2807713e-21
0
0
0
-2.2779369e-21
6.3520024e-34
2.2972188e-21
0
0
0
0
0
0
0
-2.3282936e-21
6.4848611e-34
4.6719054e-21
6.4892707e-34
-2.3416e-21
0
0
-2.3585914e-21
3.3518007e-37
-6.5504202e-34
6.5490081e-34
2.3636611e-21
2.3740808e-21
-6.6280902e-34
-2.3952099e-21
0
0
-2.4026535e-21
2.0090243e-33
6.7031576e-34
-3.4245115e-37
2.4122379e-21
-2.4153786e-21
-2.4148875e-21
4.8273554e-21
-1.3370836e-33
-2.4170827e-21
2.4313214e-21
0
-2.4434105e-21
-6.7903235e-34
2.4446487e-21
0
-2.4455917e-21
2.4585815e-21
-2.740358e-33
-2.4711272e-21
2.4730144e-21
0
-2.4920912e-21
0
2.4885698e-21
0
-2.5012078e-21
2.5000506e-21
-1.3871232e-33
-2.5045079e-21
2.5124365e-21
0
-2.5236386e-21
-7.0116796e-34
2.5314094e-21
0
-2.5536722e-21
2.5674527e-21
-7.29365e-37
-2.5527367e-21
2.5507576e-21
0
-2.5581672e-21
-2.5650923e-21
2.5740009e-21
2.5773568e-21
-2.5797206e-21
2.5889805e-21
2.6040301e-21
-2.6099478e-21
0
0
0
0
0
0
-2.6164889e-21
3.3733774e-52
5.2557716e-21
-2.6275694e-21
-2.6290653e-21
2.6346613e-21
0
0
-2.6528163e-21
-2.6522961e-21
2.6540328e-21
2.6588717e-21
0
-2.674433e-21
-7.4364379e-34
2.677482e-21
0
0
-2.6811113e-21
-2.7066857e-21
2.720266e-21
2.7207745e-21
0
-2.7069187e-21
7.5241265e-34
2.7079045e-21
-2.707841e-21
-1.5062368e-33
-3.8654753e-37
-2.7291642e-21
2.7326949e-21
2.7354375e-21
0
0
-2.7644504e-21
7.6496516e-34
2.7549297e-21
0
-2.756199e-21
-2.7615028e-21
2.7636669e-21
2.7747512e-21
0
0
0
0
0
0
-2.8071597e-21
7.7957314e-34
2.8035989e-21
0
0
0
0
0
0
-2.8347426e-21
-2.5871985e-52
2.8368525e-21
2.8367455e-21
7.853526e-34
-2.8341076e-21
0
0
0
0
-2.8666687e-21
-7.9598403e-34
2.873741e-21
-2.8783907e-21
-2.8764232e-21
2.8868497e-21
-1.6078675e-33
-2.4106378e-33
-2.4094729e-33
8.0500238e-34
-1.6121323e-33
8.0808719e-34
2.9076051e-21
0
-2.8984679e-21
2.4261182e-33
-4.1531484e-37
-2.9230887e-21
2.9165491e-21
2.9171372e-21
-2.9269546e-21
8.1505858e-34
-2.4500836e-33
-1.6354966e-33
-1.6349771e-33
8.1923134e-34
-1.6442695e-33
-2.9602945e-21
2.9534365e-21
2.9597467e-21
-2.967568e-21
8.2267831e-34
-3.291665e-33
-8.2378463e-34
8.263329e-34
8.2887758e-34
8.3050078e-34
-2.9905389e-21
0
3.0239104e-21
-8.3953152e-34
-3.1257629e-51
3.0054784e-21
0
-3.0097703e-21
3.0154105e-21
3.0250914e-21
-3.0255023e-21
0
0
0
0
-3.0483022e-21
8.5028283e-34
-1.7035216e-33
3.0462246e-21
3.032389e-21
-3.0510981e-21
0
0
0
0
-3.0548969e-21
-4.3592319e-37
3.071859e-21
0
0
0
0
0
0
0
-3.1219174e-21
-3.1202386e-21
3.1209388e-21
3.1189331e-21
0
0
0
0
0
0
-3.1492163e-21
-3.148631e-21
3.1488779e-21
3.1575053e-21
0
0
0
0
0
0
-3.1679729e-21
-3.1739141e-21
3.1775658e-21
3.1761591e-21
0
0
0
0
0
0
-3.2113097e-21
1.7821225e-33
3.2261799e-21
0
0
0
0
0
0
-3.2747465e-21
9.1170831e-34
3.2729381e-21
0
0
0
0
-3.293508e-21
-4.685822e-37
3.2996477e-21
-3.3177262e-21
-5.4317165e-52
3.3134764e-21
-3.3102834e-21
1.8393231e-33
3.3082095e-21
-3.3200914e-21
-1.8549551e-33
-1.8546596e-33
-8.9994874e-51
-1.8472492e-33
-9.2394433e-34
3.3293162e-21
-3.3442438e-21
-3.3677303e-21
6.7435784e-21
-1.8554728e-33
-6.65404e-21
0
3.3549765e-21
-9.3288207e-34
-9.405747e-34
-2.8279607e-33
-2.8052476e-33
-1.8596825e-33
2.8062601e-33
-1.8764066e-33
9.3692508e-34
3.3726169e-21
0
-3.3915451e-21
-4.8140838e-37
-2.8308341e-33
-2.8378822e-33
4.8474369e-37
1.9083926e-33
-9.5906898e-34
-3.4407419e-21
0
3.4497297e-21
-1.9130405e-33
-4.9170246e-37
3.4747812e-21
0
-3.4329334e-21
3.4511785e-21
3.4675395e-21
-3.4778003e-21
0
0
-3.4830553e-21
3.8825715e-33
-1.9485501e-33
1.9563113e-33
-9.7672605e-34
3.5196151e-21
3.5318404e-21
-3.5257967e-21
0
0
0
0
-3.5273554e-21
-9.82459e-34
-3.9325135e-33
3.5704226e-21
3.5849348e-21
-3.5568884e-21
0
0
0
0
-3.5975702e-21
-3.6142664e-21
3.5870138e-21
3.568166e-21
0
0
0
0
0
0
-3.6022047e-21
-3.6246928e-21
3.6385906e-21
3.640974e-21
0
0
0
0
0
0
-3.702603e-21
3.0812236e-33
7.4248416e-21
-3.7270288e-21
-1.1112322e-20
-3.6688694e-21
0
7.3402465e-21
-4.1240145e-33
-1.2475597e-32
-3.7405292e-21
-7.4838244e-21
7.5043874e-21
-3.7316165e-21
-3.7048308e-21
3.7175518e-21
-3.7686172e-21
5.4058631e-37
3.7973028e-21
3.7974875e-21
-3.8080422e-21
-3.7867749e-21
3.7577201e-21
-3.753793e-21
-5.3660308e-37
3.8135725e-21
0
0
0
7.7016351e-21
-3.8187977e-21
-7.6247225e-21
3.8194419e-21
-3.8412715e-21
-3.8828867e-21
7.8316111e-21
-7.5060537e-51
-3.9419012e-21
3.9192212e-21
7.7729114e-21
3.8769406e-21
-1.1646989e-20
3.9038566e-21
-1.9941831e-49
-1.1886449e-20
7.9482506e-21
3.9772868e-21
3.9558016e-21
7.8690323e-21
-7.8679258e-21
-3.9402228e-21
-3.9456727e-21
3.965434e-21
4.0053582e-21
-1.2072156e-20
4.0035508e-21
3.9844627e-21
-3.9854073e-21
-3.9920371e-21
-5.703029e-37
1.2170395e-20
-4.0806491e-21
6.758329e-33
-6.7184995e-33
-1.2094478e-20
4.0376846e-21
4.0583802e-21
8.2034379e-21
-4.1253338e-21
-8.207546e-21
8.1574176e-21
-4.0767024e-21
4.0868366e-21
4.1150148e-21
-1.2464234e-20
4.1636343e-21
4.1387115e-21
-8.2442215e-21
-4.1243856e-21
4.1460578e-21
1.2567492e-20
-4.2105757e-21
-1.6752302e-20
2.3112522e-33
8.3529495e-21
4.2257828e-21
0
8.5547352e-21
9.4288816e-33
-1.2664898e-20
4.2182707e-21
-9.3839946e-33
4.2428436e-21
4.2758393e-21
-8.6123178e-21
0
0
0
-4.2894454e-21
2.3874974e-33
8.6342893e-21
-4.3363709e-21
-8.6890741e-21
1.3028737e-20
-1.4469561e-32
-8.708963e-21
4.3703908e-21
0
0
0
8.8002332e-21
-4.4152619e-21
-8.8538165e-21
1.3294337e-20
-1.2607092e-36
-8.8888546e-21
0
0
-4.500399e-21
2.4963179e-33
8.9857133e-21
-4.4989756e-21
-9.0190323e-21
1.3578197e-20
-7.5686884e-33
-9.1116343e-21
4.5548726e-21
-4.5562912e-21
9.1306472e-21
4.5771307e-21
-1.5273368e-32
-4.5930362e-21
-9.2011213e-21
1.3843301e-20
-2.6359899e-36
-4.6543648e-21
2.5834186e-33
-4.6508658e-21
-4.65614e-21
2.5899189e-33
1.4047293e-20
-1.337666e-36
-1.4161191e-20
9.4347405e-21
-7.308537e-51
-9.441677e-21
4.7310001e-21
-4.7467206e-21
9.5331126e-21
4.7775303e-21
-1.0608082e-32
-4.7781586e-21
-9.5706656e-21
-4.7970421e-21
-4.8146857e-21
1.4491259e-20
0
-4.8348158e-21
-2.6869478e-33
2.6927838e-33
-2.7011057e-33
4.8866266e-21
-5.4355179e-33
4.8957377e-21
-1.6311403e-32
-1.4715427e-20
9.8358972e-21
1.4814164e-20
4.9542389e-21
-1.4868843e-20
-9.9100116e-21
1.4882239e-20
-4.9701036e-21
-1.4951393e-20
0
0
5.0182552e-21
5.0188738e-21
0
-5.0353149e-21
-5.0491263e-21
1.0135427e-20
-1.1279736e-32
-1.5246427e-20
5.6438487e-33
5.0911161e-21
5.1011131e-21
5.1151018e-21
-5.1322595e-21
-5.1432738e-21
5.1459254e-21
1.5447942e-20
-5.1572387e-21
-2.0668958e-20
5.1807989e-21
1.0394733e-20
5.2085892e-21
0
-5.2161571e-21
0
-5.2343143e-21
5.2469791e-21
-1.1683554e-32
5.2734592e-21
-1.7580369e-32
-1.5851811e-20
5.2924862e-21
5.303197e-21
-5.3158792e-21
-5.3278004e-21
5.3359799e-21
1.6029082e-20
-5.3526526e-21
-2.1462116e-20
8.9584682e-33
5.3881804e-21
1.0789579e-20
5.4028809e-21
-1.0826533e-20
-3.0123359e-33
-7.7346722e-37
5.4542315e-21
-1.2122052e-32
-5.4655693e-21
1.6424361e-20
-6.0901873e-33
-1.1000362e-20
0
0
-5.5325157e-21
3.0746424e-33
1.1097685e-20
-5.559883e-21
-1.1146196e-20
-5.5881439e-21
6.2154087e-33
1.682237e-20
5.6148491e-21
-5.6248123e-21
1.1271639e-20
-3.2105323e-36
-1.8859416e-32
-5.6752462e-21
-1.1368669e-20
1.7077583e-20
-6.3325413e-33
-1.1428248e-20
0
0
1.1508701e-20
-1.2796864e-32
-6.4063497e-33
-1.6435562e-36
-1.7383845e-20
-1.1616699e-20
9.6994661e-33
1.7509596e-20
5.8452686e-21
-5.8539562e-21
1.172977e-20
6.522457e-33
-1.9613619e-32
-5.9041232e-21
-1.1835288e-20
1.778414e-20
-5.9376826e-21
-5.9489571e-21
5.9612126e-21
-5.9736434e-21
1.1971985e-20
-6.6587987e-33
-6.0107546e-21
-8.5615273e-37
-1.2076301e-20
1.2099365e-20
-1.0090635e-32
-1.2145229e-20
6.0852781e-21
0
-6.1142969e-21
-3.4007945e-33
1.8417587e-20
-6.1495937e-21
-1.232322e-20
-6.1747374e-21
-6.1892437e-21
6.2047806e-21
6.2184328e-21
6.2293006e-21
-6.240195e-21
3.4706998e-33
-3.4772385e-33
6.2804703e-21
-6.9908233e-33
6.3092231e-21
-2.1051608e-32
-1.8998233e-20
1.2691573e-20
-5.6194573e-51
-6.3747115e-21
-7.0918233e-33
3.5543051e-33
1.9242002e-20
-6.4272695e-21
-1.9324928e-20
0
0
6.485331e-21
6.4974216e-21
1.3021299e-20
-6.5247799e-21
-1.3079843e-20
1.3112287e-20
-6.5712773e-21
-1.9752052e-20
6.5964406e-21
6.610204e-21
6.6247078e-21
6.6398501e-21
-1.331183e-20
-6.6716231e-21
6.6856609e-21
2.0096738e-20
-6.7128757e-21
7.7815071e-50
-1.1226617e-32
-1.3518114e-20
1.3550531e-20
1.358058e-20
-6.804377e-21
-1.3637677e-20
1.3668148e-20
6.850051e-21
-2.0600839e-20
-2.0651507e-20
6.8993245e-21
1.3827742e-20
6.9289288e-21
-3.8548596e-33
-1.392226e-20
-6.9784734e-21
6.9962801e-21
1.4025929e-20
-9.9878241e-37
-1.4087689e-20
1.4120716e-20
-1.178758e-32
-1.4189887e-20
7.1126837e-21
1.4260513e-20
1.4295292e-20
0
-7.1828583e-21
-2.1601734e-20
-7.2182914e-21
7.2362329e-21
0
0
0
0
-7.3314669e-21
4.0797191e-33
2.2105747e-20
-7.3881563e-21
-2.2225764e-20
-7.4294886e-21
1.2407983e-32
1.4939335e-20
7.4894641e-21
-7.5100307e-21
1.5062984e-20
7.5537863e-21
-2.5234251e-32
-7.5976895e-21
-1.5237381e-20
2.2920674e-20
-2.1778509e-36
-7.6859259e-21
1.0956678e-36
-7.7342895e-21
-7.757622e-21
8.6374483e-33
2.3411428e-20
-2.2248853e-36
-2.3559339e-20
-1.5757653e-20
4.3856488e-33
1.5862218e-20
7.9568277e-21
-7.982595e-21
1.6017883e-20
8.0360995e-21
-2.6854328e-32
-8.0921973e-21
-1.6241308e-20
2.4448105e-20
-9.0816858e-33
-8.2080174e-21
-8.2378829e-21
-8.2680633e-21
-4.6040217e-33
4.6224647e-33
1.6722967e-20
4.6580385e-33
-1.6853619e-20
1.6920181e-20
-4.2433097e-32
-2.5581015e-20
1.7122135e-20
-9.5453259e-33
-1.7263942e-20
8.6686932e-21
8.7056771e-21
1.7485236e-20
-8.7797212e-21
-2.6452385e-20
0
0
0
2.6932973e-20
2.7056362e-20
-2.718041e-20
-2.7306213e-20
1.8289887e-20
-2.6116365e-36
9.2337307e-21
-3.0909361e-32
-2.7975621e-20
2.8114815e-20
-4.7059896e-32
-1.8932091e-20
-5.2798657e-33
5.3099464e-33
1.9227952e-20
-9.6650846e-21
9.7168996e-21
-3.2541905e-32
-2.9467229e-20
2.9628556e-20
9.9307527e-21
-2.2172323e-32
2.0084902e-20
-2.0199308e-20
-1.0157849e-20
-1.0217049e-20
-3.0831365e-20
1.1476593e-32
1.0399173e-20
3.1383673e-20
-7.0101466e-32
-3.1765804e-20
0
1.0720541e-20
2.157566e-20
-1.085588e-20
1.0924743e-20
-3.6616866e-32
-2.2130882e-20
3.3412444e-20
-2.488784e-32
-1.2534318e-32
-1.2611434e-32
-1.2696083e-32
1.1513545e-20
-3.4774965e-20
-3.5012295e-20
1.175108e-20
2.3665512e-20
0
-1.1999869e-20
1.3412621e-32
-2.7022752e-32
1.3607806e-32
1.2345725e-20
-1.2435296e-20
-1.252632e-20
3.7855841e-20
-4.8791402e-49
-2.1328984e-32
1.2901601e-20
-1.4422557e-32
2.6192289e-20
-2.6391125e-20
-2.659268e-20
-1.3398363e-20
1.4986882e-32
1.3605993e-20
0
0
0
2.8073439e-20
-1.4147805e-20
-2.8520511e-20
4.3122289e-20
-1.4489339e-20
-4.381784e-20
4.417158e-20
-4.9434224e-32
-2.9927397e-20
4.5257475e-20
3.0418976e-20
0
-3.0922269e-20
-5.1914072e-32
-1.5718302e-20
-3.1698221e-20
1.5981492e-20
0
3.2501611e-20
4.6576301e-36
1.8346108e-32
-1.6665477e-20
-5.0420577e-20
5.0849854e-20
-2.8481087e-32
-5.1722502e-20
5.21651e-20
-8.7625836e-32
-3.5375707e-20
1.7840143e-20
-1.7994215e-20
3.629994e-20
1.8307275e-20
-8.2000574e-32
-1.8626385e-20
-3.7576618e-20
-1.895192e-20
-1.9117253e-20
3.8568598e-20
1.9453045e-20
0
-1.9795616e-20
1.1087366e-32
-3.3926069e-50
2.032178e-20
-5.8265995e-36
2.0681107e-20
-4.2390648e-49
-6.3143466e-20
6.3701349e-20
6.4264092e-20
-4.322115e-20
-4.3603036e-20
0
4.4378226e-20
-2.2385821e-20
-6.7753041e-20
6.8353747e-20
-3.8284298e-32
-4.6380342e-20
2.339571e-20
0
-2.3812732e-20
-2.4024186e-20
2.4237503e-20
-4.071921e-32
4.933918e-20
1.4147431e-35
-7.5327642e-20
0
7.6670653e-20
5.1567528e-20
-7.8037864e-20
-5.2486849e-20
7.9428527e-20
2.6710914e-20
-1.0779083e-19
-2.7186621e-20
5.4855374e-20
5.5341769e-20
-3.0991202e-32
-2.8163554e-20
-2.8413023e-20
-2.8664629e-20
2.8918437e-20
-3.2388138e-32
5.8865746e-20
-9.8892957e-32
-8.9869258e-20
0
0
6.1517536e-20
-6.8906969e-32
-3.1305605e-20
9.4748206e-20
-3.186234e-20
-5.3518643e-32
-1.0800331e-31
-9.8148307e-20
3.3005836e-20
-1.847833e-32
3.729379e-32
3.3891316e-20
-3.4191984e-20
4.9020963e-36
-1.9317603e-32
3.897348e-32
3.5423134e-20
0
-3.6056765e-20
7.2756524e-20
3.670293e-20
-7.4061673e-20
0
3.7696739e-20
-3.8034914e-20
-7.6753323e-20
1.161661e-19
-1.3014676e-31
-1.3129965e-31
3.9780647e-20
-1.2042413e-19
5.7562817e-36
4.0875302e-20
4.1248668e-20
-4.1626416e-20
-4.200866e-20
4.2395548e-20
0
-4.3183872e-20
8.7171159e-20
-7.3270017e-32
-4.4404719e-20
-9.9532187e-32
-1.0044665e-31
-1.2981639e-35
-9.2220745e-20
1.3965568e-19
1.4099951e-19
0
-9.5831524e-20
-1.4515254e-19
-6.9434068e-36
4.9343121e-20
4.9834154e-20
-5.0333242e-20
-5.0840652e-20
5.1356665e-20
0
1.0483141e-19
1.0591876e-19
-1.6053884e-19
-5.4076766e-20
5.4651206e-20
-1.5699197e-35
-5.583346e-20
-1.1288416e-19
-5.7062946e-20
9.6094264e-32
2.333732e-19
-1.9650943e-31
-1.7903524e-19
6.0367783e-20
6.1072426e-20
6.1792932e-20
-6.2529918e-20
-6.3284022e-20
-6.4055899e-20
-1.8430407e-35
6.5655726e-20
-6.6485131e-20
2.0200569e-19
1.3641367e-19
-2.0730239e-19
7.0017982e-20
1.419186e-19
-1.438514e-19
7.2918166e-20
-7.3937744e-20
-1.4997103e-19
2.281878e-19
-7.717016e-20
2.6085054e-31
2.384448e-19
-1.6137608e-19
-8.1930091e-20
-8.3209179e-20
-1.6905363e-19
8.5884573e-20
-5.7140689e-75
1.7745373e-19
9.0214737e-20
-1.0185584e-31
-9.333294e-20
-1.8993437e-19
1.9330853e-19
-9.8396298e-20
-3.0058632e-19
3.0616181e-19
1.0397416e-19
1.0489466e-47
1.0800988e-19
-3.3039219e-19
-1.1232392e-19
1.1459233e-19
2.3387787e-19
-1.1936687e-19
1.2187941e-19
-4.1457503e-31
-2.5434414e-19
3.8987812e-19
1.4755437e-31
-6.032664e-31
3.0842962e-31
-2.8427711e-19
2.9092375e-19
-1.4890559e-19
-6.0989784e-19
1.561734e-19
3.2001512e-19
0
3.3620656e-19
-3.8272772e-31
-1.005033e-34
-2.0138427e-31
-1.8616812e-19
-1.9111096e-19
1.9623786e-19
2.0155598e-19
-4.1414539e-19
4.2559108e-19
-2.42826e-31
-4.4978113e-19
4.6255717e-19
7.9241254e-31
-2.7174691e-31
-2.5188685e-19
-5.1867582e-19
2.670611e-19
-2.7505884e-19
1.5729219e-31
2.9200226e-19
6.0193413e-19
-3.102773e-19
-6.3987424e-19
3.2995254e-19
-3.4034211e-19
5.8480831e-31
-3.6232857e-19
-8.3051591e-31
7.7207249e-19
7.9714964e-19
9.1374341e-31
-1.4159302e-30
1.4626827e-30
-4.5372044e-19
-4.6885083e-19
-4.8455852e-19
5.0086569e-19
0
0
-5.5361858e-19
3.1781602e-31
8.4161351e-35
6.8014087e-31
6.338595e-19
0
-6.7872609e-19
-1.4048988e-18
7.2707565e-19
1.5052777e-18
1.5583488e-18
1.613438e-18
-2.5059328e-18
-2.8808111e-30
2.6873921e-18
-1.8555499e-18
-1.9219328e-18
0
-1.0311735e-18
2.1365672e-18
1.1067974e-18
-2.2935334e-18
-1.1882453e-18
1.366918e-30
3.8278678e-18
-1.3223061e-18
-4.1112048e-18
4.2609211e-18
1.4720892e-18
-4.5774517e-18
1.7555497e-30
1.6393983e-18
3.3988041e-18
1.9552016e-30
-3.6524649e-18
3.786452e-18
-1.9627213e-18
-6.104428e-18
0
2.1871442e-18
4.5351796e-18
-1.3056663e-30
2.4375611e-18
5.0546146e-18
-5.2407615e-18
-5.4338036e-18
0
-2.9207874e-18
-3.3619996e-30
-3.4863362e-30
-3.6143473e-30
1.0127088e-17
7.0001658e-18
0
-7.5254722e-18
-8.6610396e-30
-4.045012e-18
-1.2581848e-17
4.3483332e-18
-2.5018404e-30
6.6424695e-34
4.8461345e-18
1.0048616e-17
-5.208965e-18
-1.0800668e-17
5.5986513e-18
0
1.2034239e-17
-6.2377846e-18
-1.9399285e-17
6.7033298e-18
6.9487783e-18
1.4406144e-17
-7.4665196e-18
-2.3218318e-17
8.0221606e-18
-9.2297577e-30
-1.7236756e-17
8.932588e-18
9.2580278e-18
1.9190168e-17
2.9832468e-17
-2.0611309e-17
-2.1360008e-17
2.2135285e-17
1.2729096e-29
-2.3769207e-17
2.4629739e-17
1.4165885e-29
-2.6442869e-17
0
2.8385638e-17
2.940832e-17
0
-4.7342817e-17
-1.6347535e-17
-4.8128551e-33
-1.7540129e-17
-1.8167361e-17
-2.0883347e-29
3.8973846e-17
4.0361382e-17
-6.9601274e-29
-4.3285301e-17
4.5035628e-17
7.7657628e-29
-4.8087735e-17
0
0
0
0
5.729558e-17
3.2927229e-29
-6.1387546e-17
-3.177171e-17
6.5776199e-17
-1.1340015e-28
-7.0475304e-17
7.2942525e-17
4.1914374e-29
-3.9063016e-17
8.0848906e-17
-1.3934158e-28
-8.6569921e-17
8.9572492e-17
9.2673508e-17
-9.5876062e-17
-9.9183308e-17
0
0
0
0
-5.8701218e-17
6.0703063e-17
6.2768897e-17
-7.2049462e-29
-8.6363164e-72
-6.9368769e-17
-1.4341811e-16
-7.4122747e-17
1.532236e-16
2.375341e-16
-8.1823464e-17
-1.6910055e-16
2.6208177e-16
1.80513e-16
-2.7972053e-16
-1.9262755e-16
-9.9479432e-17
-1.1405627e-28
2.1219141e-16
0
-1.1310687e-16
1.1676616e-16
-2.6761555e-28
-3.5357684e-32
-4.2754934e-28
-1.3248167e-16
-1.3669142e-16
4.0079751e-32
2.9092763e-16
3.0006165e-16
-5.1524964e-28
-3.1907688e-16
0
0
0
-1.801031e-16
-1.8557902e-16
1.911926e-16
1.9694562e-16
-2.0283976e-16
4.1775312e-16
6.4517251e-16
0
-4.5571436e-16
-2.6023986e-28
-2.4124815e-16
-7.4450302e-16
2.5523753e-16
-4.3705275e-28
5.3965982e-16
-1.8475798e-27
-5.7005331e-16
-1.6255475e-28
-4.2749983e-32
3.0895062e-16
-3.1722338e-16
6.5128655e-16
3.3420873e-16
-6.8583576e-16
7.0353716e-16
1.025337e-31
-4.1073314e-28
-3.7914383e-16
-1.1655988e-15
7.9609607e-16
-9.4364551e-46
4.1743927e-16
-7.1168327e-28
-8.7455964e-16
4.4735519e-16
9.1505206e-16
-5.1918051e-28
-1.4343842e-15
1.3885289e-31
4.9902966e-16
-5.0957349e-16
1.0403364e-15
5.3080507e-16
-1.0829498e-15
1.1043362e-15
6.2471654e-28
-3.1839932e-27
1.2974605e-27
-1.1899414e-15
1.2112497e-15
-6.1623773e-16
-1.253595e-15
6.3729197e-16
-6.477088e-16
1.3160709e-15
-1.1129939e-27
-2.035102e-15
0
0
2.1235999e-15
7.1738077e-16
-1.4534273e-15
1.4717043e-15
4.233602e-31
-3.3459701e-27
-8.4590362e-28
-1.540405e-15
1.5563522e-15
1.5717595e-15
-7.933017e-16
-2.4012913e-15
-8.072549e-16
8.1376469e-16
0
0
-8.3130889e-16
4.6430151e-28
2.5237824e-15
2.4035952e-31
-1.6994911e-15
-8.5342197e-16
9.5083883e-28
2.5788472e-15
1.9141787e-27
-1.728474e-15
0
-8.6722419e-16
1.7361793e-15
8.6854954e-16
-1.9288205e-27
-8.6826915e-16
-1.7350685e-15
8.6640155e-16
0
0
0
0
-8.549668e-16
4.7268216e-28
2.5434253e-15
-8.4371225e-16
-2.517824e-15
2.5035051e-15
8.2941251e-16
-1.6480421e-15
-8.1833463e-16
-1.3526441e-27
2.4182879e-15
-4.545043e-31
-2.6406221e-27
-7.8579556e-16
-1.5571056e-15
-7.7109041e-16
-8.4730756e-28
7.5558514e-16
7.4755268e-16
7.3934613e-16
7.3099167e-16
-1.6041832e-27
-1.42778e-15
0
0
-6.8735833e-16
-1.1295007e-27
-9.5106332e-32
9.3805638e-32
6.5090765e-16
1.2833641e-15
1.2648348e-15
-1.2462586e-15
-6.8181138e-28
-6.0457774e-16
-1.7859442e-15
0
0
5.6765648e-16
5.5852321e-16
0
-5.4041213e-16
2.9500022e-28
5.2257452e-16
-5.137609e-16
1.0100718e-15
-1.6532715e-27
-1.463627e-15
4.7943133e-16
4.7109175e-16
9.2573132e-16
-4.5474766e-16
-1.3402205e-15
4.3885625e-16
-2.3935256e-28
8.4689909e-16
4.1591906e-16
-8.1704633e-16
8.0253154e-16
1.0632121e-44
-7.742429e-16
0
0
7.3376983e-16
-3.9969378e-28
-1.1793696e-27
9.2168403e-45
-1.02524e-15
-3.7282905e-28
3.2997229e-16
6.485424e-16
6.3738025e-16
-6.2648226e-16
-6.8367845e-28
-3.0271408e-16
-9.913771e-28
2.9264799e-16
-5.7558987e-16
0
-2.7837383e-16
3.0388443e-28
2.6933021e-16
5.2990251e-16
2.8927643e-28
-5.1270707e-16
0
0
-2.4343091e-16
1.3264287e-28
7.0242601e-16
2.5380588e-28
-4.4088001e-16
0
1.9497386e-16
-2.0901742e-16
-2.2584593e-16
-2.2318456e-16
-2.2058829e-16
4.3617158e-16
6.4700325e-16
-2.1332788e-16
-4.2213825e-16
6.2668643e-16
7.8289076e-46
-4.095529e-16
0
0
0
0
3.9144984e-16
3.8822834e-16
-1.9256854e-16
-5.7326296e-16
-2.1066067e-28
1.8829212e-16
-3.7396728e-16
-3.7145663e-16
1.845254e-16
7.3349016e-16
3.645427e-16
-5.4366842e-16
-3.604361e-16
5.377807e-16
3.9593799e-28
-3.5495147e-16
0
0
0
3.488128e-16
1.9286865e-28
-3.8437122e-28
1.7249633e-16
-5.1578144e-16
1.7139059e-16
1.7089018e-16
-5.1125035e-16
-3.3994763e-16
1.6956115e-16
3.3834486e-16
3.3762743e-16
-5.6121447e-28
1.8674066e-28
-4.7715698e-32
-3.3524794e-16
0
-1.6716813e-16
-1.6697245e-16
1.6679308e-16
1.6663857e-16
-1.665012e-16
-1.6637908e-16
3.3256015e-16
1.6619529e-16
-1.6612252e-16
1.6607053e-16
-1.6603216e-16
-3.3200966e-16
0
0
4.9804544e-16
1.6604481e-16
-3.3217145e-16
-1.6613357e-16
-1.6619654e-16
3.3254132e-16
-1.8476887e-28
-3.3289004e-16
0
1.6665374e-16
5.0031522e-16
3.70528e-28