/*--------------------------------*- C++ -*----------------------------------*\
  =========                 |
  \\      /  F ield         | OpenFOAM: The Open Source CFD Toolbox
   \\    /   O peration     | Website:  https://openfoam.org
    \\  /    A nd           | Version:  7
     \\/     M anipulation  |
\*---------------------------------------------------------------------------*/
FoamFile
{
    version     2.0;
    format      ascii;
    class       volScalarField;
    location    "0.00161";
    object      mag(U);
}
// * * * * * * * * * * * * * * * * * * * * * * * * * * * * * * * * * * * * * //

dimensions      [0 1 -1 0 0 0 0];

internalField   nonuniform List<scalar> 
5000
(
43.944856
43.895759
43.869786
43.839397
43.809889
43.77998
43.750204
43.72054
43.691018
43.661633
43.632369
43.603207
43.574132
43.545136
43.516212
43.487358
43.458573
43.429858
43.401213
43.372638
43.344135
43.315703
43.28734
43.259046
43.23082
43.202659
43.174564
43.146532
43.118563
43.090657
43.062812
43.035027
43.007299
42.979626
42.952008
42.924445
42.896935
42.869478
42.842073
42.814719
42.787413
42.760156
42.732945
42.70578
42.678661
42.651586
42.624555
42.597566
42.570618
42.543711
42.516844
42.490016
42.463227
42.436477
42.409765
42.38309
42.35645
42.329846
42.303276
42.276741
42.250241
42.223775
42.197341
42.17094
42.14457
42.118233
42.091928
42.065654
42.039411
42.013199
41.987017
41.960865
41.934743
41.908651
41.882589
41.856555
41.83055
41.804573
41.778624
41.752703
41.72681
41.700944
41.675106
41.649295
41.62351
41.597752
41.57202
41.546315
41.520637
41.494984
41.469357
41.443756
41.418182
41.392633
41.367111
41.341617
41.316149
41.290708
41.265294
41.239907
41.214547
41.189214
41.16391
41.138632
41.113383
41.088162
41.062969
41.037803
41.012664
40.987552
40.962466
40.937406
40.912371
40.887361
40.862376
40.837416
40.812478
40.787564
40.762674
40.737806
40.712962
40.688141
40.663342
40.638565
40.613811
40.589078
40.564366
40.539676
40.515007
40.490359
40.465732
40.441126
40.416539
40.391974
40.367429
40.342904
40.318398
40.293913
40.269446
40.244998
40.220569
40.196159
40.171767
40.147395
40.12304
40.098704
40.074385
40.050085
40.025801
40.001535
39.977286
39.953054
39.928838
39.904639
39.880457
39.856291
39.832141
39.808007
39.783889
39.759786
39.735698
39.711625
39.687568
39.663525
39.639497
39.615483
39.591484
39.567498
39.543525
39.519566
39.49562
39.471688
39.447769
39.423863
39.39997
39.37609
39.352221
39.328364
39.304519
39.280685
39.256863
39.233052
39.209252
39.185464
39.161687
39.137922
39.114167
39.090422
39.066687
39.042962
39.019245
38.995538
38.97184
38.948151
38.924471
38.900799
38.877137
38.853484
38.829839
38.806201
38.782571
38.758948
38.735331
38.711721
38.688119
38.664523
38.640934
38.617351
38.593775
38.570205
38.546641
38.523082
38.499528
38.475977
38.452431
38.42889
38.405354
38.381823
38.358296
38.334772
38.311251
38.287734
38.264219
38.240707
38.217199
38.193692
38.170188
38.146685
38.123185
38.099688
38.076194
38.052703
38.029214
38.005727
37.98224
37.958756
37.935274
37.911794
37.888317
37.864841
37.841366
37.817895
37.794425
37.770959
37.747496
37.724035
37.700574
37.677113
37.653654
37.630196
37.606739
37.583284
37.559829
37.536372
37.512914
37.489454
37.465994
37.442533
37.41907
37.395604
37.372133
37.348657
37.325176
37.301692
37.278202
37.254708
37.231206
37.207696
37.184177
37.160651
37.137117
37.113576
37.090025
37.066465
37.042894
37.019311
36.995717
36.972114
36.9485
36.924874
36.901235
36.877583
36.853917
36.830239
36.806548
36.782843
36.759124
36.73539
36.711641
36.687877
36.664097
36.640301
36.616489
36.592661
36.568817
36.544956
36.521077
36.49718
36.473265
36.449331
36.425379
36.401409
36.37742
36.353412
36.329383
36.305334
36.281264
36.257174
36.233065
36.208934
36.184783
36.16061
36.136415
36.112198
36.087959
36.063698
36.039416
36.015111
35.990784
35.966434
35.942061
35.917665
35.893245
35.868802
35.844336
35.819846
35.795334
35.770798
35.746238
35.721655
35.697048
35.672417
35.647762
35.623083
35.598379
35.573651
35.548898
35.52412
35.499317
35.47449
35.449637
35.424761
35.399859
35.374934
35.349984
35.325009
35.300009
35.274983
35.249931
35.224854
35.199752
35.174624
35.149472
35.124294
35.099092
35.073864
35.048611
35.023332
34.998028
34.972699
34.947345
34.921966
34.896563
34.871135
34.845683
34.820205
34.794703
34.769177
34.743626
34.718052
34.692453
34.666831
34.641186
34.615517
34.589825
34.56411
34.538371
34.51261
34.486826
34.461021
34.435194
34.409345
34.383475
34.357585
34.331674
34.305743
34.279791
34.25382
34.22783
34.201822
34.175795
34.14975
34.123687
34.097607
34.07151
34.045397
34.019267
33.993122
33.966962
33.940787
33.914598
33.888395
33.862178
33.835948
33.809705
33.783449
33.757182
33.730902
33.704612
33.67831
33.651997
33.625674
33.599341
33.572998
33.546645
33.520284
33.493914
33.467535
33.441147
33.414752
33.388348
33.361937
33.335519
33.309094
33.282661
33.256222
33.229775
33.203322
33.176863
33.150398
33.123926
33.097449
33.070966
33.044478
33.017985
32.991487
32.964984
32.938477
32.911965
32.885448
32.858927
32.832402
32.805873
32.779341
32.752806
32.726268
32.699728
32.673185
32.64664
32.620093
32.593543
32.566993
32.540441
32.513888
32.487334
32.460779
32.434224
32.407668
32.381113
32.354558
32.328003
32.30145
32.274897
32.248345
32.221794
32.195245
32.168697
32.142151
32.115607
32.089064
32.062524
32.035985
32.009448
31.982914
31.956382
31.929853
31.903326
31.876801
31.850278
31.823758
31.79724
31.770724
31.744211
31.717701
31.691192
31.664686
31.638182
31.611681
31.585182
31.558685
31.53219
31.505697
31.479206
31.452717
31.426231
31.399746
31.373264
31.346784
31.320305
31.293829
31.267355
31.240883
31.214413
31.187945
31.161479
31.135016
31.108554
31.082095
31.055638
31.029183
31.002731
30.976282
30.949835
30.923391
30.896949
30.870511
30.844075
30.817643
30.791213
30.764787
30.738364
30.711944
30.685527
30.659114
30.632704
30.606298
30.579895
30.553496
30.527101
30.500709
30.474321
30.447936
30.421556
30.395179
30.368805
30.342436
30.31607
30.289709
30.26335
30.236996
30.210644
30.184297
30.157953
30.131612
30.105274
30.07894
30.05261
30.026282
29.999958
29.973636
29.947318
29.921002
29.894689
29.868379
29.842072
29.815767
29.789466
29.763166
29.73687
29.710575
29.684284
29.657995
29.631708
29.605425
29.579144
29.552865
29.526589
29.500315
29.474044
29.447775
29.421509
29.395246
29.368986
29.342729
29.316475
29.290223
29.263974
29.237728
29.211485
29.185245
29.159009
29.132776
29.106547
29.080321
29.054099
29.027881
29.001666
28.975455
28.949249
28.923046
28.896847
28.870652
28.844461
28.818274
28.792091
28.765912
28.739738
28.713567
28.687402
28.66124
28.635083
28.60893
28.582781
28.556637
28.530497
28.504361
28.47823
28.452102
28.425979
28.39986
28.373745
28.347634
28.321527
28.295424
28.269325
28.243229
28.217136
28.191048
28.164963
28.138881
28.112803
28.086727
28.060656
28.034587
28.008521
27.982458
27.956397
27.93034
27.904285
27.878233
27.852183
27.826136
27.800092
27.77405
27.748011
27.721974
27.695939
27.669906
27.643876
27.617849
27.591823
27.565801
27.53978
27.513762
27.487747
27.461734
27.435723
27.409715
27.38371
27.357707
27.331707
27.30571
27.279716
27.253724
27.227736
27.20175
27.175767
27.149788
27.123812
27.097839
27.071869
27.045902
27.019939
26.993979
26.968022
26.942069
26.91612
26.890173
26.864231
26.838292
26.812356
26.786424
26.760495
26.734569
26.708647
26.682728
26.656812
26.6309
26.604991
26.579085
26.553183
26.527284
26.501388
26.475495
26.449605
26.423719
26.397835
26.371954
26.346077
26.320202
26.29433
26.268461
26.242594
26.21673
26.190869
26.16501
26.139154
26.113301
26.08745
26.061601
26.035756
26.009912
25.984071
25.958233
25.932397
25.906563
25.880732
25.854903
25.829077
25.803254
25.777433
25.751614
25.725799
25.699985
25.674174
25.648366
25.622561
25.596758
25.570959
25.545162
25.519367
25.493576
25.467787
25.442002
25.416219
25.39044
25.364663
25.338889
25.313119
25.287351
25.261586
25.235825
25.210067
25.184311
25.158559
25.13281
25.107064
25.081322
25.055582
25.029845
25.004112
24.978381
24.952654
24.926929
24.901208
24.875489
24.849773
24.82406
24.79835
24.772643
24.746939
24.721237
24.695539
24.669842
24.644149
24.618458
24.592769
24.567084
24.541401
24.51572
24.490042
24.464366
24.438693
24.413022
24.387354
24.361688
24.336025
24.310364
24.284706
24.259049
24.233396
24.207744
24.182096
24.156449
24.130806
24.105165
24.079526
24.05389
24.028256
24.002625
23.976997
23.951372
23.925749
23.900129
23.874512
23.848898
23.823287
23.797679
23.772074
23.746472
23.720873
23.695278
23.669685
23.644096
23.61851
23.592927
23.567348
23.541772
23.5162
23.49063
23.465065
23.439503
23.413944
23.38839
23.362838
23.337291
23.311746
23.286206
23.260668
23.235135
23.209605
23.184079
23.158556
23.133037
23.107521
23.082009
23.0565
23.030995
23.005493
22.979995
22.9545
22.929008
22.903519
22.878033
22.852551
22.827072
22.801596
22.776123
22.750653
22.725185
22.699721
22.67426
22.648801
22.623345
22.597892
22.572442
22.546994
22.521549
22.496106
22.470666
22.445228
22.419793
22.394361
22.368931
22.343503
22.318077
22.292654
22.267233
22.241815
22.216399
22.190985
22.165574
22.140164
22.114758
22.089354
22.063952
22.038552
22.013155
21.987758
21.962366
21.936976
21.911591
21.886206
21.860822
21.835437
21.810056
21.784682
21.759316
21.733953
21.708585
21.683204
21.65783
21.632467
21.607122
21.581789
21.556456
21.531085
21.505704
21.480332
21.454981
21.429659
21.404364
21.379081
21.353774
21.328398
21.303018
21.277641
21.252277
21.226927
21.201582
21.176234
21.15089
21.125561
21.100254
21.074971
21.049702
21.024437
20.999154
20.973858
20.948557
20.923249
20.897946
20.872656
20.847383
20.822127
20.79688
20.771633
20.746358
20.72108
20.695809
20.670551
20.645303
20.620061
20.594809
20.569548
20.544292
20.519041
20.493797
20.468558
20.443322
20.418088
20.392844
20.367583
20.342325
20.31708
20.291856
20.266649
20.241445
20.216211
20.190958
20.165714
20.140484
20.115269
20.090062
20.064856
20.039651
20.014452
19.989265
19.964088
19.938917
19.91374
19.888545
19.863356
19.838177
19.813015
19.787864
19.76271
19.737511
19.712317
19.687141
19.661997
19.636881
19.611768
19.586588
19.561389
19.536217
19.511088
19.486002
19.460934
19.435816
19.410627
19.385457
19.360313
19.335207
19.310128
19.285053
19.259938
19.234817
19.209708
19.184617
19.159544
19.134479
19.1094
19.084312
19.059237
19.034185
19.009156
18.984136
18.959085
18.933999
18.908931
18.883889
18.858878
18.833884
18.808889
18.78385
18.758811
18.733768
18.708722
18.683679
18.65865
18.633644
18.608665
18.583707
18.558755
18.53378
18.508792
18.483807
18.458818
18.433827
18.408838
18.383856
18.358885
18.333927
18.30898
18.284039
18.259101
18.234158
18.209197
18.184231
18.159275
18.134338
18.109421
18.084516
18.059613
18.034695
18.009778
17.98486
17.959918
17.934962
17.910017
17.885098
17.860214
17.835357
17.810506
17.785617
17.76069
17.735763
17.710826
17.685901
17.660996
17.636116
17.611256
17.586407
17.561558
17.536693
17.511827
17.486942
17.462039
17.437143
17.412267
17.387418
17.362589
17.337765
17.312916
17.288052
17.26319
17.238321
17.213438
17.188562
17.163705
17.138883
17.114093
17.089318
17.064521
17.039654
17.014791
16.989928
16.96508
16.940252
16.915441
16.890644
16.865852
16.841062
16.816272
16.791478
16.766683
16.741886
16.717091
16.692302
16.667519
16.64274
16.617963
16.593184
16.568409
16.543644
16.518891
16.494144
16.469386
16.444602
16.419831
16.395085
16.370369
16.34567
16.320964
16.296186
16.271403
16.246624
16.221863
16.197128
16.172416
16.147722
16.123038
16.098359
16.073683
16.049003
16.024316
15.999632
15.974956
15.950289
15.925627
15.900951
15.876259
15.851581
15.826927
15.8023
15.777687
15.753058
15.728363
15.703673
15.67899
15.654328
15.629692
15.605078
15.580479
15.555887
15.5313
15.506715
15.482128
15.457533
15.432942
15.40836
15.383788
15.359222
15.33464
15.310041
15.285458
15.260904
15.23638
15.211871
15.187323
15.16271
15.138112
15.113532
15.088982
15.064453
15.039932
15.015417
14.990914
14.966432
14.941967
14.917504
14.892974
14.868402
14.843837
14.819288
14.79477
14.770286
14.745831
14.721394
14.696964
14.672536
14.648102
14.623668
14.59923
14.574793
14.550356
14.525922
14.501489
14.477059
14.452632
14.428207
14.403787
14.37937
14.354955
14.330542
14.306134
14.281734
14.257343
14.232959
14.208575
14.184173
14.159768
14.135368
14.110979
14.0866
14.062227
14.037857
14.013486
13.989118
13.964753
13.940392
13.916034
13.891678
13.867324
13.842972
13.818622
13.794275
13.769933
13.745594
13.721255
13.696917
13.672581
13.648252
13.623933
13.599618
13.575289
13.550937
13.526602
13.502293
13.47801
13.453735
13.429407
13.405039
13.380685
13.356349
13.332042
13.307761
13.283496
13.259237
13.234955
13.210666
13.186391
13.162131
13.13788
13.11361
13.089286
13.064971
13.040665
13.016379
12.992115
12.96787
12.943634
12.919392
12.895126
12.87087
12.846633
12.822414
12.798199
12.773929
12.749629
12.725344
12.70108
12.676842
12.652628
12.628428
12.604232
12.580006
12.555778
12.53157
12.507388
12.48322
12.459014
12.434734
12.410474
12.386236
12.36203
12.337854
12.313696
12.289545
12.265372
12.241181
12.217009
12.192864
12.168737
12.144594
12.120359
12.096138
12.071937
12.047771
12.023635
11.999516
11.975405
11.95129
11.927154
11.903025
11.87891
11.854809
11.830711
11.806576
11.782417
11.758263
11.734122
11.710014
11.685948
11.661913
11.637881
11.613762
11.589614
11.565483
11.54139
11.517346
11.493341
11.469342
11.445254
11.421141
11.39705
11.372991
11.348964
11.32496
11.300964
11.276949
11.252905
11.228861
11.204819
11.180794
11.156802
11.132836
11.108877
11.084846
11.060786
11.036749
11.012744
10.988777
10.964839
10.940911
10.916938
10.892929
10.868935
10.844958
10.821004
10.797071
10.773149
10.749227
10.725271
10.701304
10.67734
10.653389
10.62947
10.605585
10.581715
10.557788
10.533793
10.509831
10.485902
10.462011
10.438144
10.414285
10.39041
10.366499
10.34259
10.318685
10.294793
10.270921
10.247074
10.22324
10.199372
10.175435
10.151523
10.127646
10.103813
10.080004
10.056175
10.032272
10.008397
9.9845517
9.9607299
9.9369065
9.9130462
9.8892033
9.8653767
9.8415591
9.8177295
9.7938917
9.7700694
9.7462615
9.7224589
9.6986325
9.6747994
9.6509826
9.6271835
9.6033935
9.5795907
9.5557677
9.5319597
9.5081692
9.4843912
9.460609
9.4367915
9.412988
9.389207
9.3654466
9.3416875
9.3178688
9.2940621
9.2702919
9.2465592
9.2228341
9.199002
9.1751723
9.1514009
9.1276897
9.1039976
9.0801942
9.056369
9.0326038
9.0088958
8.9852099
8.9614541
8.9376675
8.9139208
8.8902075
8.8665075
8.8427776
8.8190357
8.7953077
8.7715872
8.7478714
8.7241602
8.7004509
8.6767253
8.6530001
8.6292902
8.6055914
8.5818941
8.5581984
8.5345082
8.5108192
8.4871253
8.4634373
8.4397563
8.4160763
8.3923939
8.3687187
8.3450499
8.3213804
8.2977089
8.2740473
8.2503933
8.2267351
8.2030724
8.1794245
8.1557872
8.132142
8.1084862
8.0848526
8.0612343
8.0376009
8.0139468
7.9903295
7.9667381
7.9431216
7.9194487
7.8958355
7.8722667
7.8486878
7.8250187
7.8014134
7.7778631
7.7543168
7.7306702
7.7070722
7.6835273
7.6599998
7.636409
7.6128385
7.5892997
7.5657709
7.5422071
7.5186573
7.4951271
7.4716015
7.4480569
7.4245252
7.4010072
7.3774914
7.3539656
7.3304517
7.3069483
7.2834455
7.2599381
7.236442
7.2129542
7.189465
7.1659755
7.1424976
7.1190269
7.0955518
7.0720789
7.0486195
7.0251673
7.0017058
6.9782486
6.9548084
6.9313764
6.9079267
6.8844839
6.861064
6.8376544
6.8142129
6.7907816
6.767385
6.7440036
6.7205611
6.697131
6.6737578
6.6504132
6.6269836
6.6035353
6.5801594
6.5568259
6.5334947
6.5101282
6.4867726
6.4634124
6.4400594
6.4167082
6.393345
6.3699964
6.3466648
6.3233005
6.2999096
6.2765799
6.2532888
6.2299987
6.2066795
6.1833742
6.160062
6.1367527
6.1134472
6.0901431
6.0668423
6.0435429
6.0202445
5.9969587
5.9736845
5.9503718
5.9270312
5.9037472
5.8804981
5.8572465
5.8339766
5.810724
5.7874677
5.7642072
5.7409525
5.7176971
5.6944435
5.6711932
5.6479441
5.6246983
5.6014553
5.5782086
5.5549689
5.5317424
5.5084992
5.4852063
5.461965
5.4387679
5.4155766
5.392351
5.3691398
5.3459231
5.3227056
5.2994922
5.2762793
5.2530678
5.2298586
5.2066496
5.1834433
5.1602423
5.1370399
5.1138267
5.090627
5.0674369
5.0442357
5.0210398
4.9978593
4.9746805
4.9514929
4.928311
4.9051291
4.8819479
4.8587687
4.8355907
4.8124145
4.7892405
4.7660675
4.7428972
4.7197324
4.6965669
4.6733786
4.6502063
4.6270578
4.6039154
4.5807586
4.557608
4.5344577
4.5113082
4.488161
4.4650158
4.4418726
4.4187318
4.395593
4.3724561
4.3493214
4.326189
4.3030586
4.2799305
4.2568043
4.2336794
4.2105571
4.187438
4.1643209
4.1412053
4.1180918
4.0949805
4.0718711
4.0487639
4.0256594
4.0025574
3.9794577
3.956361
3.9332669
3.9101735
3.8870841
3.8640029
3.8409235
3.8178353
3.7947602
3.7716928
3.7486106
3.7255373
3.7024716
3.6794042
3.6563423
3.6332871
3.6102315
3.5871794
3.564137
3.5410955
3.5180535
3.4950293
3.4720044
3.4489575
3.4259784
3.4030492
3.379973
3.356924
3.3339295
3.310909
3.2878968
3.2649028
3.2419017
3.2189033
3.1959171
3.1729322
3.1499445
3.1269706
3.1040019
3.0810178
3.05806
3.0351186
3.01212
2.989189
2.9663367
2.9433239
2.9203147
2.8973825
2.8744283
2.8514774
2.8285493
2.8056163
2.7826798
2.7597604
2.7368461
2.7139188
2.6910097
2.6681186
2.645205
2.6222957
2.5993915
2.5765072
2.55366
2.5307495
2.5078375
2.4849732
2.4620881
2.4392059
2.416331
2.3934717
2.3706498
2.3477713
2.324888
2.302055
2.2791981
2.256343
2.2334975
2.2106634
2.187867
2.1650205
2.142166
2.1193643
2.0965352
2.0737066
2.0508917
2.028084
2.0053134
1.9824983
1.9596729
1.936903
1.9141027
1.8913
1.8685153
1.8457343
1.8229899
1.8002056
1.7774086
1.7546698
1.7318983
1.7091213
1.6863673
1.6636131
1.640895
1.6181419
1.5953744
1.5726685
1.549927
1.5271749
1.5044511
1.4817243
1.4590332
1.4363112
1.4135724
1.3908981
1.3681855
1.3454586
1.3227661
1.300068
1.2774045
1.2547142
1.2320053
1.209365
1.1866834
1.1639829
1.1413226
1.1186535
1.0960175
1.073358
1.050679
1.0280732
1.0054228
0.98274776
0.96011909
0.9374803
0.91487465
0.89224966
0.869604
0.84703577
0.82441861
0.801771
0.77917715
0.75657105
0.73399555
0.71140271
0.68878813
0.666257
0.64367257
0.62105063
0.59848966
0.57591502
0.55337037
0.53081263
0.50823246
0.4857404
0.46318732
0.44058752
0.41805578
0.39550751
0.37298524
0.35044915
0.32788774
0.30542074
0.28288372
0.2602879
0.23776619
0.21522535
0.19271068
0.17018756
0.1476371
0.12518071
0.10264091
0.080032179
0.057508216
0.034967285
0.012436797
0.010053546
0.032521585
0.054982069
0.077440773
0.099898951
0.12235683
0.14481438
0.16727167
0.18972887
0.2121863
0.23464338
0.25709942
0.27955376
0.30200644
0.32445775
0.34690778
0.36935605
0.3918017
0.41424435
0.43668394
0.4591208
0.48155514
0.5039866
0.52641456
0.54883867
0.57125911
0.59367614
0.61608997
0.63850029
0.66090661
0.68330874
0.70570682
0.72810123
0.75049207
0.77287936
0.7952627
0.81764182
0.84001677
0.86238788
0.88475538
0.90711933
0.92947948
0.95183572
0.97418788
0.99653618
1.0188808
1.0412218
1.0635592
1.0858929
1.1082226
1.1305486
1.152871
1.1751899
1.1975052
1.2198169
1.2421248
1.2644291
1.2867299
1.3090272
1.3313209
1.353611
1.3758976
1.3981807
1.4204604
1.4427365
1.4650091
1.4872781
1.5095437
1.5318059
1.5540648
1.5763201
1.598572
1.6208205
1.6430657
1.6653073
1.6875451
1.7097794
1.7320105
1.7542385
1.7764635
1.7986851
1.820903
1.8431171
1.8653277
1.8875351
1.9097392
1.9319402
1.9541378
1.9763321
1.998523
2.0207104
2.0428944
2.0650751
2.0872523
2.1094262
2.1315968
2.1537641
2.1759282
2.198089
2.2202464
2.2424003
2.264551
2.2866983
2.3088422
2.3309829
2.3531202
2.3752542
2.397385
2.4195124
2.4416366
2.4637573
2.4858747
2.5079888
2.5300997
2.5522074
2.5743116
2.5964125
2.61851
2.6406043
2.6626955
2.6847835
2.706868
2.7289491
2.7510268
2.7731013
2.7951728
2.8172411
2.839306
2.8613674
2.8834255
2.9054803
2.927532
2.9495806
2.9716259
2.9936678
3.0157064
3.0377416
3.0597737
3.0818027
3.1038284
3.1258508
3.1478698
3.1698855
3.1918981
3.2139075
3.2359139
3.2579169
3.2799166
3.3019127
3.3239057
3.3458957
3.3678825
3.3898663
3.4118467
3.4338238
3.4557975
3.477768
3.4997354
3.5216997
3.5436608
3.5656188
3.5875735
3.6095249
3.6314732
3.6534183
3.6753602
3.697299
3.7192346
3.7411669
3.763096
3.785022
3.8069449
3.8288647
3.8507813
3.8726946
3.8946049
3.9165121
3.9384161
3.960317
3.9822146
4.0041091
4.0260006
4.0478891
4.0697745
4.0916567
4.1135357
4.1354117
4.1572846
4.1791545
4.2010213
4.2228849
4.2447454
4.2666028
4.2884572
4.3103087
4.3321571
4.3540025
4.3758448
4.3976841
4.4195204
4.4413538
4.463184
4.4850111
4.5068353
4.5286566
4.550475
4.5722905
4.5941029
4.6159121
4.6377183
4.6595217
4.6813223
4.7031201
4.724915
4.7467069
4.7684958
4.7902816
4.8120645
4.8338447
4.855622
4.8773966
4.8991683
4.9209371
4.942703
4.964466
4.9862262
5.0079836
5.0297382
5.05149
5.073239
5.0949852
5.1167286
5.1384692
5.160207
5.1819421
5.2036745
5.2254041
5.247131
5.2688551
5.2905765
5.3122951
5.3340112
5.3557245
5.3774351
5.3991429
5.4208481
5.4425506
5.4642506
5.4859479
5.5076426
5.5293345
5.5510238
5.5727104
5.5943945
5.6160759
5.6377548
5.659431
5.6811047
5.7027758
5.7244443
5.7461102
5.7677735
5.7894343
5.8110926
5.8327483
5.8544015
5.8760521
5.8977001
5.9193456
5.9409887
5.9626294
5.9842675
6.005903
6.027536
6.0491665
6.0707946
6.0924203
6.1140436
6.1356644
6.1572826
6.1788983
6.2005116
6.2221226
6.2437312
6.2653374
6.2869412
6.3085425
6.3301413
6.3517378
6.3733319
6.3949238
6.4165132
6.4381003
6.459685
6.4812674
6.5028475
6.5244254
6.5460009
6.567574
6.5891447
6.6107131
6.6322794
6.6538436
6.6754057
6.6969655
6.7185229
6.740078
6.7616309
6.7831817
6.8047305
6.8262772
6.8478218
6.8693644
6.8909047
6.912443
6.9339792
6.9555134
6.9770457
6.9985761
7.0201046
7.0416312
7.0631559
7.0846787
7.1061996
7.1277189
7.1492364
7.1707522
7.1922664
7.213779
7.2352898
7.256799
7.2783068
7.2998132
7.3213183
7.3428221
7.3643244
7.3858254
7.4073251
7.4288237
7.4503214
7.471818
7.4933137
7.5148085
7.5363025
7.5577957
7.5792882
7.6007802
7.6222716
7.6437626
7.6652534
7.6867439
7.7082342
7.7297245
7.7512148
7.7727053
7.794196
7.8156872
7.8371789
7.8586712
7.8801643
7.9016582
7.9231531
7.9446491
7.9661464
7.9876453
8.0091457
8.0306479
8.052152
8.0736581
8.0951664
8.1166772
8.1381907
8.1597069
8.1812262
8.2027486
8.2242745
8.245804
8.2673374
8.2888748
8.3104164
8.3319626
8.3535135
8.3750696
8.3966311
8.4181983
8.4397712
8.4613502
8.4829355
8.5045275
8.5261267
8.5477332
8.5693475
8.5909698
8.6126004
8.6342397
8.6558881
8.6775459
8.6992135
8.7208913
8.7425797
8.7642791
8.78599
8.8077127
8.8294477
8.8511954
8.8729562
8.8947307
8.9165193
8.9383226
8.960141
8.981975
9.0038251
9.0256919
9.0475759
9.0694776
9.0913977
9.1133367
9.1352952
9.1572737
9.1792729
9.2012934
9.2233359
9.2454011
9.2674894
9.2896016
9.3117384
9.3339004
9.3560884
9.3783032
9.4005454
9.4228157
9.4451148
9.4674435
9.4898027
9.5121932
9.5346157
9.557071
9.5795598
9.602083
9.6246414
9.6472359
9.6698675
9.692537
9.7152453
9.737993
9.7607812
9.7836107
9.8064826
9.8293978
9.8523572
9.8753617
9.8984123
9.9215098
9.9446552
9.9678497
9.9910942
10.01439
10.037737
10.061137
10.084592
10.108101
10.131666
10.155288
10.178968
10.202708
10.226507
10.250368
10.27429
10.298276
10.322326
10.346442
10.370624
10.394873
10.419191
10.443579
10.468037
10.492566
10.517169
10.541845
10.566596
10.591423
10.616326
10.641308
10.666368
10.691509
10.71673
10.742033
10.76742
10.79289
10.818445
10.844087
10.869815
10.895631
10.921536
10.947531
10.973616
10.999793
11.026063
11.052426
11.078884
11.105436
11.132085
11.158831
11.185674
11.212616
11.239658
11.266799
11.294042
11.321386
11.348832
11.376382
11.404035
11.431793
11.459655
11.487624
11.515699
11.543881
11.57217
11.600568
11.629074
11.657689
11.686414
11.715249
11.744194
11.773251
11.802419
11.831698
11.86109
11.890594
11.920211
11.949941
11.979784
12.009741
12.039812
12.069996
12.100295
12.130708
12.161236
12.191878
12.222634
12.253505
12.284491
12.315592
12.346807
12.378136
12.409581
12.441139
12.472812
12.504599
12.536501
12.568516
12.600644
12.632887
12.665242
12.69771
12.73029
12.762983
12.795788
12.828705
12.861732
12.894871
12.928119
12.961478
12.994946
13.028523
13.062208
13.096001
13.129902
13.163909
13.198023
13.232242
13.266567
13.300996
13.335528
13.370164
13.404902
13.439741
13.474682
13.509723
13.544863
13.580103
13.61544
13.650875
13.686405
13.722032
13.757754
13.793569
13.829478
13.865479
13.901571
13.937754
13.974027
14.010389
14.046839
14.083375
14.119998
14.156706
14.193499
14.230374
14.267333
14.304372
14.341493
14.378693
14.415971
14.453328
14.490761
14.52827
14.565854
14.603511
14.641242
14.679044
14.716918
14.754861
14.792874
14.830955
14.869102
14.907316
14.945595
14.983939
15.022345
15.060814
15.099344
15.137934
15.176584
15.215292
15.254058
15.292881
15.331759
15.370692
15.409678
15.448717
15.487809
15.526951
15.566144
15.605385
15.644676
15.684013
15.723397
15.762827
15.802302
15.841821
15.881383
15.920987
15.960632
16.000319
16.040045
16.07981
16.119613
16.159454
16.199331
16.239245
16.279193
16.319176
16.359192
16.399241
16.439323
16.479435
16.519579
16.559752
16.599955
16.640186
16.680445
16.720732
16.761045
16.801384
16.841748
16.882138
16.922551
16.962988
17.003447
17.043929
17.084433
17.124958
17.165503
17.206069
17.246654
17.287258
17.327881
17.368521
17.409179
17.449854
17.490546
17.531253
17.571976
17.612715
17.653468
17.694235
17.735016
17.77581
17.816618
17.857437
17.898268
17.939111
17.979967
18.020833
18.061711
18.102598
18.143496
18.184403
18.22532
18.266246
18.307181
18.348124
18.389075
18.430034
18.471001
18.511975
18.552956
18.593943
18.634938
18.675938
18.716945
18.757957
18.798975
18.839998
18.881027
18.92206
18.963098
19.004141
19.045188
19.086239
19.127295
19.168354
19.209416
19.250482
19.291552
19.332624
19.3737
19.414779
19.45586
19.496944
19.53803
19.579119
19.62021
19.661303
19.702398
19.743494
19.784593
19.825693
19.866795
19.907899
19.949003
19.990109
20.031217
20.072325
20.113434
20.154545
20.195656
20.236768
20.277881
20.318994
20.360109
20.401223
20.442338
20.483454
20.52457
20.565687
20.606803
20.64792
20.689037
20.730155
20.771272
20.812389
20.853507
20.894624
20.935742
20.976859
21.017977
21.059094
21.100211
21.141328
21.182444
21.22356
21.264676
21.305791
21.346906
21.388021
21.429134
21.470246
21.511358
21.552466
21.593573
21.634673
21.675766
21.716852
21.757922
21.798983
21.840029
21.881079
21.922146
21.963247
22.0044
22.045608
22.086856
22.12811
22.169363
22.210501
22.251475
22.292453
22.333486
22.374595
22.415759
22.456951
22.498076
22.539134
22.5802
22.62129
22.662402
22.703525
22.744629
22.785719
22.826811
22.867908
22.909008
22.950106
22.991201
23.032296
23.073391
23.114485
23.155579
23.196672
23.237764
23.278855
23.319944
23.361033
23.40212
23.443207
23.484294
23.52538
23.566466
23.607552
23.648637
23.689721
23.730804
23.771886
23.812965
23.854043
23.895118
23.936192
23.977265
24.018338
24.059411
24.100484
24.141557
24.18263
24.223703
24.264773
24.30584
24.346904
24.387963
24.429018
24.470071
24.511121
24.552172
24.593224
24.634278
24.675333
24.71639
24.757447
24.7985
24.839547
24.880585
24.921614
24.962633
25.00364
25.04464
25.085633
25.126619
25.167601
25.208576
25.249545
25.290505
25.331455
25.372389
25.413308
25.454195
25.495048
25.535856
25.576599
25.617296
25.657963
25.698655
25.739398
25.780194
25.821025
25.86186
25.902625
25.943329
25.983993
26.024605
26.065187
26.105768
26.146362
26.186999
26.227707
26.268487
26.309348
26.350389
26.391969
26.43656
26.477212
26.513272
26.552678
26.595353
26.636717
26.677564
26.718856
26.760343
26.801631
26.84293
26.884216
26.925428
26.96656
27.007613
27.048584
27.089478
27.13031
27.171093
27.21184
27.252557
27.293252
27.333933
27.374599
27.415246
27.455876
27.496489
27.537079
27.577643
27.618185
27.658707
27.699206
27.739688
27.780145
27.820569
27.861005
27.901452
27.941851
27.982231
28.022595
28.062937
28.103257
28.143553
28.183827
28.224077
28.264304
28.304508
28.34469
28.384847
28.424982
28.465091
28.505176
28.545235
28.585267
28.625271
28.665248
28.705196
28.745114
28.785003
28.824862
28.86469
28.904488
28.944254
28.983987
29.023689
29.063357
29.102991
29.14259
29.182154
29.221682
29.261173
29.300627
29.340044
29.379422
29.418761
29.45806
29.497319
29.536537
29.575714
29.614849
29.65394
29.692988
29.731992
29.770951
29.809864
29.848731
29.88755
29.926322
29.965046
30.003721
30.042346
30.08092
30.119444
30.157916
30.196335
30.234701
30.273013
30.31127
30.349472
30.387618
30.425707
30.463739
30.501712
30.539626
30.577481
30.615276
30.65301
30.690682
30.728292
30.765839
30.803322
30.840741
30.878094
30.915382
30.952603
30.989757
31.026843
31.06386
31.100808
31.137686
31.174494
31.211231
31.247896
31.284488
31.321007
31.357452
31.393823
31.430119
31.466339
31.502483
31.53855
31.57454
31.610452
31.646285
31.682039
31.717713
31.753307
31.78882
31.824251
31.859601
31.894868
31.930053
31.965153
32.00017
32.035102
32.06995
32.104712
32.139388
32.173978
32.208482
32.242898
32.277227
32.311467
32.345619
32.379683
32.413658
32.447543
32.481338
32.515044
32.548659
32.582183
32.615617
32.648959
32.68221
32.715369
32.748437
32.781412
32.814295
32.847085
32.879783
32.912388
32.944899
32.977318
33.009644
33.041876
33.074015
33.10606
33.138012
33.16987
33.201635
33.233306
33.264884
33.296368
33.327759
33.359056
33.390259
33.42137
33.452387
33.483311
33.514142
33.544881
33.575526
33.60608
33.636541
33.66691
33.697187
33.727372
33.757466
33.787469
33.817382
33.847203
33.876935
33.906576
33.936128
33.965591
33.994965
34.02425
34.053447
34.082557
34.111579
34.140515
34.169364
34.198127
34.226804
34.255397
34.283905
34.312329
34.340669
34.368927
34.397102
34.425195
34.453207
34.481138
34.508989
34.53676
34.564452
34.592065
34.619601
34.64706
34.674442
34.701748
34.728979
34.756135
34.783217
34.810226
34.837162
34.864027
34.89082
34.917542
34.944195
34.970778
34.997293
35.02374
35.050121
35.076434
35.102683
35.128866
35.154985
35.181041
35.207035
35.232966
35.258836
35.284646
35.310396
35.336087
35.36172
35.387296
35.412815
35.438278
35.463686
35.489039
35.514339
35.539586
35.564781
35.589924
35.615017
35.640059
35.665053
35.689998
35.714895
35.739745
35.76455
35.789308
35.814022
35.838692
35.863318
35.887902