/*--------------------------------*- C++ -*----------------------------------*\
  =========                 |
  \\      /  F ield         | OpenFOAM: The Open Source CFD Toolbox
   \\    /   O peration     | Website:  https://openfoam.org
    \\  /    A nd           | Version:  7
     \\/     M anipulation  |
\*---------------------------------------------------------------------------*/
FoamFile
{
    version     2.0;
    format      ascii;
    class       volScalarField;
    location    "0.00161";
    object      Uz;
}
// * * * * * * * * * * * * * * * * * * * * * * * * * * * * * * * * * * * * * //

dimensions      [0 1 -1 0 0 0 0];

internalField   nonuniform List<scalar> 
5000
(
0
0
0
0
0
-2.3656378e-17
-5.0630254e-32
7.1505814e-17
2.3916055e-17
-4.7991446e-17
-4.8149523e-17
2.4152434e-17
-2.0658413e-31
-2.1411912e-31
4.8746325e-17
-4.8882774e-17
2.5359461e-47
-2.1647297e-31
-2.4628967e-17
4.9372057e-17
2.4740657e-17
0
0
-2.4891568e-17
2.1263324e-31
-2.0591041e-31
-2.5024376e-17
2.5064441e-17
2.5102427e-17
-2.5138368e-17
4.3999706e-31
-2.1490652e-31
-2.523476e-17
2.5263099e-17
2.5289579e-17
0
0
-2.5358493e-17
-2.5378325e-17
2.539666e-17
-4.2615509e-31
-2.542898e-17
2.5442986e-17
-4.3047697e-31
-2.546682e-17
2.5476774e-17
-8.7645462e-31
8.730926e-31
-8.7693743e-31
4.3493495e-31
2.5508989e-17
0
0
0
0
0
0
0
0
0
0
0
0
-2.5479473e-17
-2.5471496e-17
2.5462772e-17
-4.3767447e-31
-4.0019982e-49
2.5432822e-17
0
0
-2.5397481e-17
-2.5384666e-17
0
2.5357699e-17
8.7517336e-31
-2.5329e-17
-2.5314061e-17
2.5298735e-17
5.0566093e-17
-5.0533993e-17
1.4353326e-32
7.570194e-17
-5.0434104e-17
-2.6213735e-30
5.0364674e-17
-7.5493702e-17
2.5146556e-17
2.5128282e-17
-2.5109731e-17
2.5090834e-17
2.5071559e-17
8.7222008e-31
-5.0063412e-17
-1.7309399e-30
-2.4990057e-17
-2.4968556e-17
-8.756469e-31
1.7355565e-30
4.9803061e-17
2.4878423e-17
-2.485502e-17
3.5287499e-33
2.4807568e-17
0
-2.4759799e-17
-8.6122272e-31
2.4712309e-17
-2.4688797e-17
-2.4665491e-17
4.9284784e-17
2.4619537e-17
-7.3790779e-17
-2.457459e-17
7.3657517e-17
-2.4530667e-17
-2.4509026e-17
-1.3919574e-32
-2.446628e-17
7.333551e-17
-1.7076791e-30
-4.8806987e-17
4.8765845e-17
2.4362524e-17
-2.4342269e-17
2.4322168e-17
-2.4302206e-17
-4.8564812e-17
2.4262752e-17
8.3717728e-31
2.4223895e-17
4.8409355e-17
-2.418559e-17
-2.4166661e-17
-2.414789e-17
-8.4010017e-31
-8.3603259e-31
8.3882386e-31
4.8149098e-17
2.4056604e-17
-2.4038791e-17
-4.804226e-17
-2.4003609e-17
-2.398625e-17
1.6622282e-30
4.7904006e-17
-6.8027734e-33
6.7980311e-33
6.3559037e-48
2.3885588e-17
-1.6553184e-30
3.3219743e-30
2.3837523e-17
-2.3821844e-17
2.3806338e-17
8.2494163e-31
-2.3775897e-17
2.3760963e-17
-3.3745388e-33
-2.3731636e-17
0
2.3703005e-17
1.6394376e-30
-4.7350158e-17
2.3661398e-17
-6.7211454e-33
-2.3634647e-17
2.3621561e-17
-2.3608634e-17
2.3595871e-17
-9.8262519e-30
-6.5384455e-30
2.3558538e-17
-4.7092948e-17
0
-1.6312936e-30
-4.8914985e-30
2.3500258e-17
2.3489155e-17
1.6181806e-30
-2.346742e-17
2.3456798e-17
1.6126522e-30
9.991403e-33
3.2458095e-30
-4.6832275e-17
2.3406479e-17
2.3397052e-17
-1.6086273e-30
1.6113289e-30
-4.8587226e-30
1.6134391e-30
-2.3352725e-17
0
0
0
0
-2.3312804e-17
4.8585664e-30
2.3298385e-17
2.32915e-17
-2.3284792e-17
-2.3278229e-17
4.6543685e-17
1.6101421e-30
-4.8291839e-30
-2.3253865e-17
-2.3248273e-17
2.3242879e-17
0
2.3232855e-17
1.6075541e-30
-2.3223843e-17
-2.3219608e-17
3.2331384e-30
2.3211567e-17
-4.6415709e-17
2.3204424e-17
2.320125e-17
-2.3198299e-17
2.3195499e-17
0
0
0
2.3185952e-17
-2.318399e-17
-4.6364187e-17
2.3180237e-17
-1.6106919e-30
2.3176626e-17
2.3174935e-17
-4.63467e-17
6.5858238e-33
-6.5853871e-33
2.3168679e-17
2.3167045e-17
-4.6330763e-17
3.2917653e-33
-4.8253873e-30
2.3160452e-17
-1.2861444e-29
-3.2118287e-30
2.3155294e-17
-2.3153717e-17
0
-2.3151209e-17
2.3150235e-17
2.3149361e-17
-2.3148622e-17
0
-2.3148007e-17
2.314828e-17
2.3148937e-17
-8.0370118e-30
-4.630285e-17
-4.6306396e-17
6.946609e-17
4.6316025e-17
0
-4.6329978e-17
-2.3169284e-17
2.3174026e-17
2.317918e-17
2.3184779e-17
-4.6381771e-17
-4.6395089e-17
2.3204747e-17
4.642486e-17
6.4412742e-30
-4.6457899e-17
2.3237771e-17
-3.2243158e-30
-2.3256776e-17
4.6533969e-17
-2.3277594e-17
3.2433089e-30
2.3299756e-17
-2.3311313e-17
2.3323257e-17
-4.6671229e-17
9.7416546e-30
4.67229e-17
-4.6749638e-17
-1.6186425e-30
2.3402431e-17
0
0
2.3446381e-17
-2.3461685e-17
-4.69546e-17
2.3493226e-17
-6.6817881e-33
2.3525961e-17
2.3542752e-17
-2.355985e-17
0
-2.3595064e-17
-2.3613158e-17
0
4.7300221e-17
2.3668946e-17
-4.7376137e-17
1.6407225e-30
-6.7436961e-33
2.3747311e-17
2.3767585e-17
-2.3788063e-17
2.3808744e-17
-2.3829648e-17
1.3557605e-32
4.7744341e-17
-2.3893772e-17
-2.3915571e-17
-2.3937543e-17
-3.323157e-30
2.3981946e-17
0
0
-2.4049658e-17
3.3422316e-30
-6.6874315e-30
-3.3520703e-30
2.414198e-17
-2.4165347e-17
3.4374349e-33
2.4212332e-17
0
0
0
0
0
0
0
-2.4404369e-17
0
2.4453394e-17
0
-2.4502788e-17
-6.8038545e-30
2.4552469e-17
0
0
-2.46274e-17
-3.4227525e-30
2.4677643e-17
0
0
-2.4753534e-17
-2.4778914e-17
2.4804291e-17
2.4829651e-17
0
-2.4880316e-17
3.539304e-33
2.4930962e-17
-2.4956284e-17
-2.4981585e-17
2.5006844e-17
2.5032038e-17
0
-2.5082193e-17
-2.5107158e-17
2.5132053e-17
2.5156877e-17
0
-2.5206264e-17
-2.5230795e-17
2.5255198e-17
2.527946e-17
0
0
0
0
0
0
0
0
-2.5490165e-17
1.8639099e-47
2.5534536e-17
0
0
0
-2.5619872e-17
-3.5562752e-30
2.5660661e-17
-2.5680547e-17
3.5682001e-30
-3.654924e-33
-3.5734692e-30
2.5756437e-17
-2.5774466e-17
2.5792117e-17
-1.4340842e-29
-2.5826264e-17
2.5842739e-17
0
0
-2.5889702e-17
-3.5965893e-30
2.5919015e-17
-2.5933094e-17
-2.5946792e-17
0
2.5973047e-17
2.5985612e-17
-2.5997813e-17
-7.2186693e-30
-2.5857173e-48
-3.6143317e-30
2.6043188e-17
-2.605371e-17
9.358233e-48
-3.6200913e-30
-2.6083447e-17
0
0
2.6110738e-17
3.7117805e-33
-1.0871569e-29
2.6135805e-17
0
0
-2.6158914e-17
7.2546881e-30
2.6173373e-17
0
0
0
-2.6200052e-17
3.724136e-33
2.6212329e-17
-2.6218201e-17
2.6223886e-17
-7.2908328e-30
-5.2469391e-17
2.6239825e-17
1.0931478e-29
3.6444879e-30
-3.6451229e-30
-2.6258484e-17
0
0
2.6270238e-17
3.6478416e-30
-7.2928471e-30
-2.4196117e-49
-2.628273e-17
2.6285288e-17
2.6287613e-17
0
-2.6291552e-17
-3.6505446e-30
2.6294551e-17
0
0
-2.6297356e-17
7.4742936e-33
-1.0974033e-49
-2.6298109e-17
2.6297949e-17
-3.6436871e-30
3.6510902e-30
-7.298255e-30
-2.6295578e-17
2.6294587e-17
-7.3011697e-30
7.3045575e-30
-7.3041774e-30
-2.628936e-17
2.6287787e-17
-7.299133e-30
3.6567945e-30
0
-2.6280705e-17
2.6278813e-17
-3.6482852e-30
3.7338949e-33
-3.6477422e-30
3.6512e-30
2.6269007e-17
-2.6267024e-17
-2.6265058e-17
2.6263113e-17
2.6261188e-17
0
-2.6257394e-17
-2.6255537e-17
0
2.6251939e-17
-3.6445782e-30
3.7301318e-33
3.640371e-30
-2.6245051e-17
2.6243361e-17
3.6396685e-30
-7.2863374e-30
-2.6238405e-17
-2.6236765e-17
5.2470219e-17
-3.7279949e-33
3.6382874e-30
2.6230016e-17
-2.6228279e-17
3.6412905e-30
2.6224708e-17
0
0
0
-2.6216901e-17
-2.6214791e-17
2.6212615e-17
2.6210368e-17
0
-2.6205652e-17
-2.620318e-17
2.6200635e-17
2.6198017e-17
0
-2.6192571e-17
-2.6189747e-17
2.6186858e-17
7.2707503e-30
-2.6180902e-17
0
0
0
0
2.6165211e-17
-7.2572258e-30
-2.6158733e-17
2.6155473e-17
3.6309739e-30
-3.6342367e-30
5.537627e-50
2.6142456e-17
2.6139248e-17
-5.2272143e-17
-3.6282976e-30
3.6241541e-30
-2.6126778e-17
0
2.6120806e-17
2.6117895e-17
-2.6115039e-17
-7.2434287e-30
2.6109511e-17
0
0
-2.6101718e-17
3.619911e-30
2.6096813e-17
0
-2.6092101e-17
3.7075867e-33
-7.2440057e-30
-3.6179927e-30
2.6083261e-17
-2.6081136e-17
3.7060525e-33
-7.2410444e-30
-2.6074844e-17
2.6072769e-17
7.2393152e-30
3.704576e-33
-3.6190826e-30
-2.6064467e-17
2.6062343e-17
0
-1.4467861e-29
-3.613876e-30
-1.0840674e-29
-3.7020843e-33
-2.6048723e-17
2.6046292e-17
8.4701775e-50
-3.6155665e-30
7.2303995e-30
-3.6148219e-30
5.206615e-17
-2.6030203e-17
-2.6027259e-17
-3.6132071e-30
3.6127781e-30
5.2035978e-17
-2.6014753e-17
-2.6011446e-17
6.4114078e-50
0
6.9910121e-50
-2.5997588e-17
2.5993984e-17
7.7380075e-50
-3.6042913e-30
-3.6923887e-33
-2.5979088e-17
5.1950538e-17
7.211748e-30
-2.5967565e-17
3.6011108e-30
-3.6005732e-30
2.5955942e-17
-2.5952075e-17
-3.4380873e-49
-1.0810046e-29
7.2068668e-30
-7.1984443e-30
-7.2010903e-30
7.8049969e-50
0
2.5922107e-17
0
0
-2.591173e-17
-7.1942504e-30
2.5905166e-17
0
0
-5.1791753e-17
-2.1555144e-29
5.1780178e-17
-2.5887322e-17
3.6784281e-33
-3.5934622e-30
-2.5879497e-17
0
0
0
-2.5870069e-17
-7.1756371e-30
2.5865692e-17
0
0
-2.5859467e-17
3.6745676e-33
2.5855497e-17
0
0
-2.5849604e-17
-7.1700281e-30
-7.1804998e-30
7.1762767e-30
2.5841683e-17
-2.5839655e-17
7.1709138e-30
-7.1703312e-30
7.1660667e-30
2.5831178e-17
0
0
-2.5824369e-17
-4.2679736e-49
2.5819574e-17
0
0
-2.5811973e-17
-4.8156471e-49
2.5806647e-17
0
0
-2.5798313e-17
-6.5342439e-49
2.5792542e-17
0
0
-2.5783645e-17
3.6636492e-33
2.577762e-17
-2.5774591e-17
7.1599108e-30
-7.1590677e-30
7.1545651e-30
2.576248e-17
0
0
0
0
0
-2.5744755e-17
7.1443538e-30
2.573908e-17
0
0
0
0
0
0
0
-2.5718113e-17
1.4274169e-29
2.5713332e-17
0
0
0
0
0
0
0
-2.5695613e-17
7.1309251e-30
2.5691418e-17
0
0
-2.5685224e-17
7.1353552e-30
2.5681109e-17
0
0
0
-2.5672706e-17
-7.1318546e-30
2.5668417e-17
0
0
0
0
0
0
0
-2.5650111e-17
3.6447552e-33
2.5645222e-17
0
0
0
0
0
0
0
-2.5624579e-17
-3.6410914e-33
2.561922e-17
0
0
0
-2.5608477e-17
1.4216799e-29
2.5603115e-17
0
-2.5597794e-17
-7.1109034e-30
2.5592543e-17
0
0
-2.5584841e-17
-2.5582324e-17
2.5579835e-17
2.5577377e-17
0
0
0
0
2.5565571e-17
-3.6327642e-33
-5.1122139e-17
-2.5558861e-17
5.1113357e-17
5.1109041e-17
-2.5552389e-17
-2.5550283e-17
0
0
0
0
-2.5539986e-17
-7.095012e-30
2.5535937e-17
0
0
0
0
0
0
0
0
0
0
0
0
0
0
-2.5503714e-17
1.4162419e-29
2.5498881e-17
0
0
2.5491276e-17
-7.0776934e-30
3.6217793e-33
-2.5483314e-17
-2.5480577e-17
-1.414573e-29
7.0775086e-30
2.5472079e-17
0
0
0
0
0
-2.545413e-17
1.4130872e-29
2.5447908e-17
0
0
0
0
0
0
0
-2.5422603e-17
1.4109723e-29
2.5416301e-17
0
0
0
0
0
0
0
-2.539194e-17
2.1142882e-29
2.5386188e-17
0
0
0
0
0
0
0
0
-2.5362356e-17
3.6038622e-33
2.5357539e-17
0
0
0
0
-2.5346255e-17
2.5344102e-17
2.5341977e-17
-5.0679762e-17
-7.035807e-30
2.5335777e-17
0
0
0
0
-2.5325847e-17
7.0283417e-30
5.064391e-17
-2.5320033e-17
-2.5318097e-17
2.5316135e-17
0
0
0
-2.5308351e-17
-7.0198843e-30
2.5304307e-17
2.5302197e-17
-2.5300146e-17
-2.5298209e-17
2.5296332e-17
0
0
-2.5289692e-17
-2.5287303e-17
2.5285201e-17
2.5283476e-17
2.5281808e-17
1.4039305e-29
-2.5276747e-17
0
0
0
-2.5268268e-17
-2.5267252e-17
2.5264952e-17
2.5261369e-17
2.5257326e-17
7.0088812e-30
-2.5251364e-17
0
0
0
-2.5248664e-17
7.0066449e-30
2.5242969e-17
0
0
0
0
0
0
0
-2.5222029e-17
6.9996912e-30
5.043911e-17
7.0026409e-30
-2.521685e-17
0
0
-2.5209231e-17
3.5820604e-33
-6.9987573e-30
6.9947557e-30
2.5201894e-17
2.5200796e-17
-6.9972117e-30
-2.5196346e-17
0
0
-2.51909e-17
2.0976747e-29
6.9905865e-30
-3.5791287e-33
2.5183817e-17
-2.5181825e-17
-2.5179941e-17
5.0356473e-17
-1.3967929e-29
-2.5175741e-17
2.5174101e-17
0
-2.5168421e-17
-6.9916186e-30
2.5164001e-17
0
-2.5162104e-17
2.5160172e-17
-2.793573e-29
-2.5154634e-17
2.515224e-17
0
-2.5147848e-17
0
2.51423e-17
0
-2.5137033e-17
2.5135009e-17
-1.3943638e-29
-2.513074e-17
2.5127603e-17
0
-2.5121227e-17
-6.9750601e-30
2.5117502e-17
0
-2.5111586e-17
2.5106873e-17
-7.1346867e-33
-2.5100421e-17
2.5099374e-17
0
-2.5093995e-17
-2.5088407e-17
2.5083259e-17
2.5079877e-17
-2.5078547e-17
2.5077723e-17
2.5075322e-17
-2.5070827e-17
0
0
0
0
0
0
-2.5045116e-17
-1.1729817e-49
5.0074717e-17
-2.5034447e-17
-2.5031355e-17
2.5027325e-17
0
0
-2.501464e-17
-2.5012299e-17
2.5010038e-17
2.5006509e-17
0
-2.49968e-17
-6.9435662e-30
2.498984e-17
0
0
-2.4982392e-17
-2.4979295e-17
2.4975863e-17
2.4971793e-17
0
-2.4962565e-17
6.9305041e-30
2.4955466e-17
-2.4953012e-17
-1.3856625e-29
-3.5453413e-33
-2.4945403e-17
2.4942647e-17
2.4939707e-17
0
0
-2.4929643e-17
6.9180359e-30
2.4923506e-17
0
-2.4918551e-17
-2.4916641e-17
2.4914563e-17
2.4911673e-17
0
0
0
0
0
0
-2.4894249e-17
6.9087065e-30
2.4891414e-17
0
0
0
0
0
0
-2.487549e-17
3.9521722e-50
2.4873246e-17
2.4870876e-17
6.8982679e-30
-2.486484e-17
0
0
0
0
-2.4855519e-17
-6.8980467e-30
2.485331e-17
-2.4851444e-17
-2.4848595e-17
2.4845426e-17
-1.3789651e-29
-2.0686479e-29
-2.0678401e-29
6.9007248e-30
-1.379359e-29
6.8928447e-30
2.4834173e-17
0
-2.482888e-17
2.06697e-29
-3.5273655e-33
-2.4819227e-17
2.481804e-17
2.4817646e-17
-2.4816979e-17
6.887105e-30
-2.0651734e-29
-1.3774252e-29
-1.3761945e-29
6.8801829e-30
-1.376598e-29
-2.4797747e-17
2.4795382e-17
2.4793035e-17
-2.4790677e-17
6.8761503e-30
-2.7515743e-29
-6.8781406e-30
6.8808469e-30
6.8730187e-30
6.8757905e-30
-2.4771497e-17
0
2.476512e-17
-6.8723229e-30
-2.2014419e-49
2.4756277e-17
0
-2.475064e-17
2.4746403e-17
2.4742e-17
-2.4738427e-17
0
0
0
0
-2.4725354e-17
6.8609797e-30
-1.3723055e-29
2.4712468e-17
2.4708711e-17
-2.4705155e-17
0
0
0
0
-2.4687954e-17
-3.5078209e-33
2.4680553e-17
0
0
0
0
0
0
0
-2.4651989e-17
-2.4649466e-17
2.4645722e-17
2.464102e-17
0
0
0
0
0
0
-2.4612351e-17
-2.4608831e-17
2.4605096e-17
2.4601021e-17
0
0
0
0
0
0
-2.4572594e-17
-2.4568736e-17
2.4566191e-17
2.4564091e-17
0
0
0
0
0
0
-2.4535304e-17
1.3619911e-29
2.4526636e-17
0
0
0
0
0
0
-2.4502513e-17
6.8025816e-30
2.4493799e-17
0
0
0
0
-2.4477004e-17
-3.4779307e-33
2.4470483e-17
-2.4467164e-17
-7.1400704e-50
2.4460586e-17
-2.4457321e-17
1.3580812e-29
2.4450828e-17
-2.4447657e-17
-1.3572058e-29
-1.3570338e-29
-1.0327679e-48
-1.3563284e-29
-6.7772678e-30
2.4428728e-17
-2.4426008e-17
-2.4423592e-17
4.8842287e-17
-1.3547068e-29
-4.8830415e-17
0
2.4409407e-17
-6.7772877e-30
-6.7800508e-30
-2.0313736e-29
-2.0315056e-29
-1.3535022e-29
2.0310866e-29
-1.353577e-29
6.7758923e-30
2.4386966e-17
0
-2.4382265e-17
-3.4645961e-33
-2.0293728e-29
-2.0295413e-29
3.4636733e-33
1.3527874e-29
-6.7667384e-30
-2.4366466e-17
0
2.4362849e-17
-1.3522359e-29
-3.461615e-33
2.4355986e-17
0
-2.4351393e-17
2.4350589e-17
2.4349949e-17
-2.4348378e-17
0
0
-2.434001e-17
2.7021931e-29
-1.3501292e-29
1.3510887e-29
-6.7601934e-30
2.433059e-17
2.4328193e-17
-2.4326188e-17
0
0
0
0
-2.4317774e-17
-6.7517799e-30
-2.6990428e-29
2.4310199e-17
2.4308445e-17
-2.4306751e-17
0
0
0
0
-2.4296146e-17
-2.4295026e-17
2.4292918e-17
2.4289965e-17
0
0
0
0
0
0
-2.427145e-17
-2.4268124e-17
2.4265496e-17
2.4263977e-17
0
0
0
0
0
0
-2.42439e-17
2.0187349e-29
4.8478306e-17
-2.4235856e-17
-7.269644e-17
-2.4228908e-17
0
4.8450141e-17
-2.689798e-29
-8.0654645e-29
-2.4215109e-17
-4.8422136e-17
4.8414863e-17
-2.4204176e-17
-2.420123e-17
2.419835e-17
-2.4195133e-17
3.4378177e-33
2.4187908e-17
2.4184767e-17
-2.4182143e-17
-2.417966e-17
2.4176656e-17
-2.4172797e-17
-3.4345027e-33
2.4163376e-17
0
0
0
4.8304501e-17
-2.4148842e-17
-4.8288154e-17
2.4138953e-17
-2.4134594e-17
-2.4131403e-17
4.8258666e-17
2.3138294e-49
-2.4123551e-17
2.411909e-17
4.822916e-17
2.411051e-17
-7.2320907e-17
2.4103877e-17
5.4269994e-48
-7.2294246e-17
4.8189103e-17
2.4090322e-17
2.4085788e-17
4.8163335e-17
-4.8156799e-17
-2.4076088e-17
-2.4073694e-17
2.4070122e-17
2.4065687e-17
-7.218323e-17
2.405694e-17
2.4053572e-17
-2.4051013e-17
-2.4048529e-17
-3.4170529e-33
7.2124851e-17
-2.4037623e-17
4.0014906e-29
-4.0022816e-29
-7.2081856e-17
2.4024604e-17
2.4022041e-17
4.8038116e-17
-2.4015384e-17
-4.8022457e-17
4.8014528e-17
-2.4004169e-17
2.4002268e-17
2.4000442e-17
-7.1992585e-17
2.3993735e-17
2.398978e-17
-4.7972616e-17
-2.398338e-17
2.3980931e-17
7.1936343e-17
-2.3976487e-17
-9.5894912e-17
1.3305494e-29
4.7934427e-17
2.3963934e-17
0
4.7918811e-17
5.3186854e-29
-7.1866289e-17
2.395198e-17
-5.3172557e-29
2.3945512e-17
2.3943748e-17
-4.7884362e-17
0
0
0
-2.3932231e-17
1.3286512e-29
4.7855923e-17
-2.3925495e-17
-4.7846451e-17
7.1763978e-17
-7.9662115e-29
-4.7833734e-17
2.3914493e-17
0
0
0
4.7813126e-17
-2.390415e-17
-4.7804114e-17
7.1701079e-17
-6.7923967e-33
-4.7792945e-17
0
0
-2.3890271e-17
1.3263417e-29
4.7773299e-17
-2.3884179e-17
-4.7763758e-17
7.1640574e-17
-3.9756979e-29
-4.7754021e-17
2.3874176e-17
-2.3871484e-17
4.7739594e-17
2.3869153e-17
-7.9483594e-29
-2.3864392e-17
-4.7722245e-17
7.1577588e-17
-1.3562069e-32
-2.3857424e-17
1.3240962e-29
-2.3851098e-17
-2.3848917e-17
1.3237352e-29
7.1539109e-17
-6.7768085e-33
-7.1523104e-17
4.7677575e-17
-2.9037007e-49
-4.7670288e-17
2.3832873e-17
-2.3830537e-17
4.765636e-17
2.3825831e-17
-5.290236e-29
-2.3821487e-17
-4.7638316e-17
-2.3816477e-17
-2.3813902e-17
7.1434408e-17
0
-2.3806388e-17
-1.3212983e-29
1.3211586e-29
-1.3206721e-29
2.379605e-17
-2.641436e-29
2.3790792e-17
-7.9224773e-29
-7.1355562e-17
4.756503e-17
7.1339098e-17
2.3776701e-17
-7.1321389e-17
-4.754212e-17
7.1304392e-17
-2.3764937e-17
-7.1285665e-17
0
0
2.3752669e-17
2.3749472e-17
0
-2.3743587e-17
-2.3739837e-17
4.7472852e-17
-5.2696282e-29
-7.1192329e-17
2.634026e-29
2.3722978e-17
2.3720227e-17
2.3717235e-17
-2.3713166e-17
-2.3709195e-17
2.3706172e-17
7.1109722e-17
-2.3699423e-17
-9.4781103e-17
2.3691769e-17
4.7377343e-17
2.3685071e-17
0
-2.3677548e-17
0
-2.367043e-17
2.3666563e-17
-5.2538885e-29
2.3659306e-17
-7.8783427e-29
-7.0954707e-17
2.3647866e-17
2.3644102e-17
-2.3640148e-17
-2.3636246e-17
2.3632491e-17
7.0885889e-17
-2.3624615e-17
-9.4482792e-17
3.9334257e-29
2.3612992e-17
4.721786e-17
2.3605012e-17
-4.7202442e-17
-1.3098277e-29
-3.3527936e-33
2.3589292e-17
-5.2367063e-29
-2.358158e-17
7.0732446e-17
-2.6170309e-29
-4.7139909e-17
0
0
-2.3558065e-17
1.3074555e-29
4.7101165e-17
-2.3546322e-17
-4.7085143e-17
-2.3539327e-17
2.6121211e-29
7.0592616e-17
2.3527016e-17
-2.3524192e-17
4.7041397e-17
-1.3367347e-32
-7.8312106e-29
-2.3508375e-17
-4.7009852e-17
7.0504488e-17
-2.6093017e-29
-4.698876e-17
0
0
4.6967472e-17
-5.2133234e-29
-2.6056683e-29
-6.6716823e-33
-7.0409346e-17
-4.6932216e-17
3.9077875e-29
7.0379667e-17
2.3456833e-17
-2.3453854e-17
4.6901625e-17
2.6023958e-29
-7.8075304e-29
-2.3441901e-17
-4.6878144e-17
7.0308573e-17
-2.343321e-17
-2.3430473e-17
2.3428272e-17
-2.3425697e-17
4.684494e-17
-2.599933e-29
-2.3417214e-17
-3.3274362e-33
-4.6824553e-17
4.6819945e-17
-3.8972366e-29
-4.6810537e-17
2.3402978e-17
0
-2.3398398e-17
-1.2983321e-29
7.018178e-17
-2.3391776e-17
-4.6779317e-17
-2.3387421e-17
-2.338528e-17
2.338358e-17
2.3381687e-17
2.3379206e-17
-2.3376883e-17
1.297492e-29
-1.2970624e-29
2.3371532e-17
-2.5950725e-29
2.3368089e-17
-7.7820504e-29
-7.009378e-17
4.6725734e-17
2.1712659e-50
-2.3359507e-17
-2.5927391e-29
1.2967747e-29
7.0063738e-17
-2.3352971e-17
-7.0053741e-17
0
0
2.334644e-17
2.3344737e-17
4.6686361e-17
-2.3341622e-17
-4.6680103e-17
4.6676992e-17
-2.3336901e-17
-7.0005889e-17
2.3333692e-17
2.3332068e-17
2.3330446e-17
2.3328822e-17
-4.6654285e-17
-2.3325468e-17
2.3323903e-17
6.996693e-17
-2.3320476e-17
-1.8618991e-48
-3.8821282e-29
-4.6630392e-17
4.6626979e-17
4.6623528e-17
-2.3309978e-17
-4.6616325e-17
4.6612663e-17
2.3304477e-17
-6.9907797e-17
-6.990212e-17
2.3298793e-17
4.6593707e-17
2.3294894e-17
-1.2929336e-29
-4.6581809e-17
-2.3288883e-17
2.3286833e-17
4.6569484e-17
-3.3086601e-33
-4.6560994e-17
4.6556684e-17
-3.8766721e-29
-4.6547892e-17
2.3271711e-17
4.6538895e-17
4.6534314e-17
0
-2.3262509e-17
-6.9780428e-17
-2.3257772e-17
2.3255378e-17
0
0
0
0
-2.3242857e-17
1.2900141e-29
6.9713353e-17
-2.3235165e-17
-6.9697622e-17
-2.3229904e-17
3.8685178e-29
4.6448992e-17
2.3221812e-17
-2.3219042e-17
4.6432509e-17
2.3213535e-17
-7.7308777e-29
-2.32078e-17
-4.6410245e-17
6.9606352e-17
-6.5934601e-33
-2.3195734e-17
3.2959725e-33
-2.3190575e-17
-2.3187551e-17
2.5738541e-29
6.9545164e-17
-6.5877838e-33
-6.9527308e-17
-4.6345505e-17
1.2854359e-29
4.6333434e-17
2.3163664e-17
-2.3160551e-17
4.6315077e-17
2.3154444e-17
-7.7097505e-29
-2.3148196e-17
-4.629018e-17
6.9424368e-17
-2.5693424e-29
-2.3135607e-17
-2.3132671e-17
-2.312933e-17
-1.2830265e-29
1.2831788e-29
4.6239723e-17
1.2828269e-29
-4.6227134e-17
4.6220638e-17
-1.1544264e-28
-6.931192e-17
4.6201329e-17
-2.5648205e-29
-4.6188518e-17
2.3091088e-17
2.3087823e-17
4.6168714e-17
-2.3081002e-17
-6.923398e-17
0
0
0
6.9195236e-17
6.91855e-17
-6.9175253e-17
-6.9165228e-17
4.6104084e-17
-6.5508624e-33
2.3045418e-17
-7.6754198e-29
-6.9116943e-17
6.9107032e-17
-1.1508134e-28
-4.6057639e-17
-1.2777744e-29
1.278246e-29
4.6038053e-17
-2.3015855e-17
2.3012646e-17
-7.6644852e-29
-6.9018087e-17
6.9008065e-17
2.2999593e-17
-5.105879e-29
4.5985831e-17
-4.5979422e-17
-2.2986429e-17
-2.2983091e-17
-6.8938952e-17
2.5507092e-29
2.2973013e-17
6.8908972e-17
-1.5297614e-28
-6.8889179e-17
0
2.2956571e-17
4.5906513e-17
-2.294993e-17
2.294679e-17
-7.6412219e-29
-4.5880122e-17
6.8810447e-17
-5.091274e-29
-2.5468868e-29
-2.5451953e-29
-2.5448045e-29
2.291968e-17
-6.8748614e-17
-6.8738118e-17
2.290943e-17
4.5812223e-17
0
-2.2899441e-17
2.541162e-29
-5.0829065e-29
2.5410746e-29
2.288592e-17
-2.2882516e-17
-2.287896e-17
6.8625897e-17
1.1500827e-47
-3.8086582e-29
2.2864129e-17
-2.5365491e-29
4.5713231e-17
-4.5706132e-17
-4.5698982e-17
-2.2845929e-17
2.5355283e-29
2.2838864e-17
0
0
0
4.5648717e-17
-2.2820388e-17
-4.5632526e-17
6.843624e-17
-2.2807902e-17
-6.841162e-17
6.8399527e-17
-7.5920585e-29
-4.5584069e-17
6.8364759e-17
4.5569229e-17
0
-4.5556295e-17
-7.584603e-29
-2.27727e-17
-4.5539503e-17
2.2766471e-17
0
4.5518913e-17
6.467797e-33
2.5260582e-29
-2.2752222e-17
-6.82517e-17
6.8247664e-17
-3.7899957e-29
-6.8239166e-17
6.8234087e-17
-1.1364316e-28
-4.5494779e-17
2.2753217e-17
-2.2757381e-17
4.5509308e-17
2.2750235e-17
-1.0103314e-28
-2.2758284e-17
-4.5520612e-17
-2.2747524e-17
-2.2717812e-17
4.5382604e-17
2.2680876e-17
0
-2.2677536e-17
1.2591155e-29
-3.8794264e-49
2.2678774e-17
-6.4457713e-33
2.2679104e-17
-2.8521016e-48
-6.8035569e-17
6.8033557e-17
6.8030765e-17
-4.5351467e-17
-4.534859e-17
0
4.534142e-17
-2.2668588e-17
-6.7998794e-17
6.799127e-17
-3.7742307e-29
-4.5316511e-17
2.2655295e-17
0
-2.2649033e-17
-2.264576e-17
2.2642409e-17
-3.7699088e-29
4.5271058e-17
1.2864814e-32
-6.7885431e-17
0
6.7863958e-17
4.5235438e-17
-6.7842338e-17
-4.522101e-17
6.7820697e-17
2.2603298e-17
-9.0398817e-17
-2.2596121e-17
4.5185102e-17
4.517799e-17
-2.5073287e-29
-2.2581929e-17
-2.257842e-17
-2.2574928e-17
2.2571452e-17
-2.5053903e-29
4.5129107e-17
-7.5138846e-29
-6.7673163e-17
0
0
4.5095183e-17
-5.0061484e-29
-2.2540913e-17
6.7612784e-17
-2.2534289e-17
-3.7512841e-29
-7.5027562e-29
-6.7573338e-17
2.2521188e-17
-1.2495967e-29
2.499474e-29
2.2511473e-17
-2.2508254e-17
3.198159e-33
-1.2490231e-29
2.4973717e-29
2.2495456e-17
0
-2.2489101e-17
4.4971865e-17
2.2482771e-17
-4.495923e-17
0
2.2473317e-17
-2.2470175e-17
-4.4934072e-17
6.7391708e-17
-7.4817387e-29
-7.4794218e-29
2.2454531e-17
-6.7354241e-17
3.1900951e-33
2.2445187e-17
2.2442078e-17
-2.2438973e-17
-2.2435871e-17
2.2432772e-17
0
-2.2426582e-17
4.484698e-17
-3.734145e-29
-2.2417313e-17
-4.9772769e-29
-4.9753182e-29
-6.3687546e-33
-4.4809968e-17
6.7205723e-17
6.7196498e-17
0
-4.4785376e-17
-6.7168855e-17
-3.1813202e-33
2.2383484e-17
2.2380419e-17
-2.2377356e-17
-2.2374295e-17
2.2371235e-17
0
4.4730242e-17
4.472413e-17
-6.7077033e-17
-2.2355959e-17
2.2352909e-17
-6.3522123e-33
-2.2346812e-17
-4.4687529e-17
-2.2340719e-17
3.7203671e-29
8.9338538e-17
-7.4374391e-29
-6.6985664e-17
2.2325516e-17
2.2322478e-17
2.2319443e-17
-2.231641e-17
-2.2313379e-17
-2.2310348e-17
-6.3401213e-33
2.230429e-17
-2.2301263e-17
6.6894716e-17
4.4590432e-17
-6.6876584e-17
2.2289175e-17
4.4572311e-17
-4.4566277e-17
2.2280124e-17
-2.2277111e-17
-4.4548201e-17
6.6813273e-17
-2.2268082e-17
7.4165509e-29
6.6786216e-17
-4.4518143e-17
-2.2256074e-17
-2.2253077e-17
-4.4500163e-17
2.2247088e-17
-1.0771711e-73
4.4482217e-17
2.2238124e-17
-2.4684388e-29
-2.2232163e-17
-4.4458372e-17
4.4452421e-17
-2.2223238e-17
-6.6660808e-17
6.6651912e-17
2.2214342e-17
-7.822178e-48
2.2208427e-17
-6.6616423e-17
-2.2202525e-17
2.2199579e-17
4.4393276e-17
-2.21937e-17
2.2190765e-17
-7.3895601e-29
-4.4369812e-17
6.6545948e-17
2.4634739e-29
-9.8488187e-29
4.9225025e-29
-4.4340661e-17
4.4334857e-17
-2.2164531e-17
-8.8646552e-17
2.2158748e-17
4.4311725e-17
0
4.4300212e-17
-4.9173596e-29
-1.2587617e-32
-2.458044e-29
-2.2138652e-17
-2.21358e-17
2.2132954e-17
2.2130114e-17
-4.4254556e-17
4.4248892e-17
-2.4558358e-29
-4.4237593e-17
4.4231961e-17
7.3646937e-29
-2.4545864e-29
-2.2107563e-17
-4.4209536e-17
2.2101979e-17
-2.2099195e-17
1.226519e-29
2.2093642e-17
4.4181745e-17
-2.2088109e-17
-4.4170705e-17
2.2082603e-17
-2.2079858e-17
3.6769707e-29
-2.207438e-17
-4.9018316e-29
4.413785e-17
4.4132414e-17
4.8981397e-29
-7.3478764e-29
7.346977e-29
-2.2055396e-17
-2.2052705e-17
-2.2050021e-17
2.2047343e-17
0
0
-2.2039347e-17
1.2232039e-29
3.1312262e-33
2.4458205e-29
2.2028767e-17
0
-2.2023514e-17
-4.4041793e-17
2.2018285e-17
4.4031361e-17
4.4026163e-17
4.4020977e-17
-6.6023706e-17
-7.3287755e-29
6.6008247e-17
-4.4000364e-17
-4.3995243e-17
0
-2.1992519e-17
4.3979955e-17
2.1987444e-17
-4.3969832e-17
-2.1982395e-17
2.4401006e-29
6.593211e-17
-2.1974869e-17
-6.5917124e-17
6.5909662e-17
2.1967407e-17
-6.5894796e-17
2.4378552e-29
2.1960003e-17
4.3915099e-17
2.436726e-29
-4.3905323e-17
4.3900456e-17
-2.1947802e-17
-6.5836148e-17
0
2.1940563e-17
4.3876326e-17
-1.2182254e-29
2.1933385e-17
4.3862012e-17
-4.3857266e-17
-4.3852531e-17
0
-2.1921551e-17
-2.4333649e-29
-2.4334166e-29
-2.4328459e-29
6.5736602e-17
4.3819752e-17
0
-4.3810492e-17
-4.8624961e-29
-2.1900641e-17
-6.5695034e-17
2.1896052e-17
-1.2149591e-29
3.1109665e-33
2.1889202e-17
4.3773857e-17
-2.1884658e-17
-4.3764781e-17
2.1880124e-17
0
4.3751201e-17
-2.1873342e-17
-6.5613256e-17
2.1868829e-17
2.1866572e-17
4.3728631e-17
-2.186206e-17
-6.5579411e-17
2.1857546e-17
-2.4259583e-29
-4.3706042e-17
2.1850751e-17
2.1848478e-17
4.3692401e-17
6.553176e-17
-4.3683269e-17
-4.3678681e-17
4.3674074e-17
2.4233655e-29
-4.3664799e-17
4.3660131e-17
2.4232087e-29
-4.3650728e-17
0
4.3641219e-17
4.3636415e-17
0
-6.5440044e-17
-2.1810889e-17
-6.1983227e-33
-2.1805908e-17
-2.1803384e-17
-2.4196042e-29
4.359651e-17
4.3591295e-17
-7.2580656e-29
-4.3580678e-17
4.3575273e-17
7.2553646e-29
-4.3564248e-17
0
0
0
0
4.3535209e-17
2.4168156e-29
-4.3522928e-17
-2.1758311e-17
4.3510199e-17
-7.2455865e-29
-4.3496984e-17
4.3490183e-17
2.4142686e-29
-2.1738084e-17
4.346894e-17
-7.2385748e-29
-4.3454008e-17
4.3446292e-17
4.34384e-17
-4.3430327e-17
-4.3422065e-17
0
0
0
0
-2.1688826e-17
2.1684046e-17
2.1679145e-17
-2.4061564e-29
-9.6198944e-74
-2.1663665e-17
-4.3316458e-17
-2.1652648e-17
4.329383e-17
6.4923083e-17
-2.1634981e-17
-4.3257538e-17
6.4867159e-17
4.3231651e-17
-6.482724e-17
-4.3204292e-17
-2.1595018e-17
-2.3965617e-29
4.316031e-17
0
-2.1564436e-17
2.155624e-17
-4.7842693e-29
-6.1217936e-33
-7.1699368e-29
-2.152106e-17
-2.1511624e-17
6.1112125e-33
4.2983872e-17
4.2963346e-17
-7.1502513e-29
-4.2920526e-17
0
0
0
-2.1413647e-17
-2.1401157e-17
2.1388316e-17
2.1375113e-17
-2.1361539e-17
4.2695169e-17
6.3999721e-17
0
-4.2606686e-17
-2.362661e-29
-2.1271769e-17
-6.3765989e-17
2.1238442e-17
-3.5337959e-29
4.240655e-17
-1.4112329e-28
-4.2332364e-17
-1.1738129e-29
-3.0023385e-33
2.1106748e-17
-2.1085881e-17
4.2128933e-17
2.1042493e-17
-4.20399e-17
4.1993652e-17
5.9609165e-33
-2.3262296e-29
-2.0923857e-17
-6.2694882e-17
4.174418e-17
2.494054e-48
2.0817717e-17
-3.462521e-29
-4.1521302e-17
2.0731077e-17
4.1401581e-17
-2.2940722e-29
-6.1914105e-17
5.8564485e-33
2.0572302e-17
-2.053829e-17
4.1006991e-17
2.0467906e-17
-4.0863021e-17
4.0788599e-17
2.2592761e-29
-1.1278274e-28
4.5028358e-29
-4.0474179e-17
4.0391267e-17
-2.0153293e-17
-4.022012e-17
2.0065925e-17
-2.002088e-17
3.9949822e-17
-3.319034e-29
-5.9640476e-17
0
0
5.919256e-17
1.967914e-17
-3.925288e-17
3.9145484e-17
1.109472e-32
-8.6424522e-29
-2.1543142e-29
-3.8695633e-17
3.8578045e-17
3.845838e-17
-1.9168311e-17
-5.7319136e-17
-1.9043388e-17
1.8979336e-17
0
0
-1.878078e-17
1.0386829e-29
5.5929093e-17
5.2786313e-33
-3.7001902e-17
-1.8428285e-17
2.0371106e-29
5.4839091e-17
4.0417907e-29
-3.6253519e-17
0
-1.796948e-17
3.5778436e-17
1.7807876e-17
-3.936094e-29
-1.7641963e-17
-3.5114798e-17
1.7471772e-17
0
0
0
0
-1.7027865e-17
9.4007522e-30
5.0529195e-17
-1.6749149e-17
-4.9962699e-17
4.967498e-17
1.6461439e-17
-3.2727163e-17
-1.6264767e-17
-2.6916127e-29
4.8192955e-17
-9.0737493e-33
-5.2826177e-29
-1.5756782e-17
-3.1304986e-17
-1.5547341e-17
-1.7137849e-29
1.5334514e-17
1.5226871e-17
1.5118428e-17
1.5009202e-17
-3.308078e-29
-2.9576955e-17
0
0
-1.4451992e-17
-2.3874775e-29
-2.0213928e-33
2.0050776e-33
1.3994064e-17
2.7756124e-17
2.7522991e-17
-2.7288768e-17
-1.5024436e-29
-1.3408611e-17
-3.9869984e-17
0
0
1.2931509e-17
1.2811211e-17
0
-1.2569544e-17
6.9097098e-30
1.2326612e-17
-1.2204734e-17
2.4165224e-17
-3.9833153e-29
-3.5513195e-17
1.1715021e-17
1.1592163e-17
2.2938366e-17
-1.1346107e-17
-3.3668873e-17
1.1099758e-17
-6.0943695e-30
2.1706611e-17
1.0730103e-17
-2.1213899e-17
2.0967739e-17
1.8892313e-46
-2.0476041e-17
0
0
1.9740759e-17
-1.0810937e-29
-3.2065516e-29
1.8681875e-46
-2.8149919e-17
-1.0283815e-29
9.1415096e-18
1.8042252e-17
1.7802231e-17
-1.7562997e-17
-1.9232928e-29
-8.5435265e-18
-2.806459e-29
8.3073759e-18
-1.6380072e-17
0
-7.9569245e-18
8.7026842e-30
7.7260278e-18
1.5222911e-17
8.3212247e-30
-1.4768311e-17
0
0
-7.0480752e-18
3.8507902e-30
2.0482362e-17
7.4582448e-30
-1.3219447e-17
0
6.3950025e-18
-6.2888041e-18
-6.1833974e-18
-6.0787947e-18
-5.9750086e-18
1.1744103e-17
1.7309804e-17
-5.6686692e-18
-1.113653e-17
1.6406196e-17
3.7798269e-47
-1.0544632e-17
0
0
0
0
9.5942625e-18
9.4097459e-18
-4.6135563e-18
-1.356956e-17
-4.9246772e-30
4.3453068e-18
-8.5156112e-18
-8.3425391e-18
4.0857029e-18
1.6004437e-17
7.834982e-18
-1.150455e-17
-7.5063751e-18
1.1017516e-17
7.9760971e-30
-7.0281744e-18
0
0
0
6.4181082e-18
3.4806052e-30
-6.800391e-30
2.9905829e-18
-8.7591431e-18
2.8498199e-18
2.7808967e-18
-8.138824e-18
-5.2919003e-18
2.5799193e-18
5.02969e-18
4.9014462e-18
-7.9529849e-30
2.5821181e-30
-6.4347492e-34
-4.4073309e-18
0
-2.0857171e-18
-2.0281179e-18
1.9714275e-18
1.9156392e-18
-1.860746e-18
-1.8067404e-18
3.5072308e-18
1.7013641e-18
-1.6499795e-18
1.599454e-18
-1.5497794e-18
-3.0018943e-18
0
0
4.0782669e-18
1.3138784e-18
-2.5382726e-18
-1.2251866e-18
-1.1820198e-18
2.2792532e-18
-1.2195688e-30
-2.1142512e-18
0
9.776141e-19
2.8168685e-18
2.0002755e-30
-4.7951639e-30
1.6545119e-18