/*--------------------------------*- C++ -*----------------------------------*\
  =========                 |
  \\      /  F ield         | OpenFOAM: The Open Source CFD Toolbox
   \\    /   O peration     | Website:  https://openfoam.org
    \\  /    A nd           | Version:  7
     \\/     M anipulation  |
\*---------------------------------------------------------------------------*/
FoamFile
{
    version     2.0;
    format      ascii;
    class       volVectorField;
    location    "0.00215";
    object      U;
}
// * * * * * * * * * * * * * * * * * * * * * * * * * * * * * * * * * * * * * //

dimensions      [0 1 -1 0 0 0 0];

internalField   nonuniform List<vector> 
5000
(
(22.935086 6.3691248e-21 0)
(22.935085 8.592915e-21 0)
(22.935084 0 0)
(22.935082 0 0)
(22.935081 -4.6713927e-21 0)
(22.93508 5.2640913e-36 -4.6303437e-21)
(22.935079 4.6047342e-21 -9.8155813e-36)
(22.935078 0 1.3763372e-20)
(22.935077 0 4.5494483e-21)
(22.935076 -4.5149403e-21 -9.0298806e-21)
(22.935075 -9.0567267e-21 -9.0567267e-21)
(22.935074 4.5814155e-21 4.5814155e-21)
(22.935073 4.6285231e-21 -3.9465162e-35)
(22.935072 -4.6217261e-21 -4.0720781e-35)
(22.93507 0 9.1264749e-21)
(22.93507 -4.5078224e-21 -9.0156447e-21)
(22.935069 1.8091994e-50 9.0459969e-51)
(22.935068 4.4017508e-21 -3.8782637e-35)
(22.935067 0 -4.4614118e-21)
(22.935066 4.5349723e-21 9.0699446e-21)
(22.935065 -4.5730957e-21 4.5730957e-21)
(22.935064 -4.5721988e-21 0)
(22.935063 9.1132451e-21 0)
(22.935062 -4.5425999e-21 -4.5425999e-21)
(22.935061 -4.5317674e-21 3.8640173e-35)
(22.93506 -3.7265455e-35 -3.7265455e-35)
(22.935059 4.503497e-21 -4.503497e-21)
(22.935058 4.4758484e-21 4.4758484e-21)
(22.935057 -8.9187572e-21 4.4593786e-21)
(22.935055 7.7620536e-35 -4.4770981e-21)
(22.935054 -7.9045288e-35 7.9045288e-35)
(22.935053 4.5427318e-21 -3.8733661e-35)
(22.935052 8.9937848e-21 -4.4968924e-21)
(22.935051 -8.8161957e-21 4.4080979e-21)
(22.93505 7.4373968e-35 4.2898383e-21)
(22.93505 -3.6395725e-34 0)
(22.935049 -1.459245e-34 0)
(22.935048 8.6673412e-21 -4.3336706e-21)
(22.935047 -8.8799364e-21 -4.4399682e-21)
(22.935045 -8.9834698e-21 4.4917349e-21)
(22.935044 8.9557398e-21 -7.5088543e-35)
(22.935043 -3.040837e-34 -4.4210719e-21)
(22.935042 -8.7208377e-21 4.3604189e-21)
(22.935041 4.3328739e-21 -7.3272872e-35)
(22.935041 1.2683314e-20 -4.2277712e-21)
(22.93504 -4.1562635e-21 4.1562635e-21)
(22.935039 -4.2920793e-21 -1.4760576e-34)
(22.935037 -3.0332333e-34 1.5166166e-34)
(22.935036 -8.8561238e-21 -1.5228224e-34)
(22.935035 0 7.4858393e-35)
(22.935034 4.3548054e-21 4.3548054e-21)
(22.935033 6.1303207e-37 0)
(22.935032 -4.2843011e-21 0)
(22.935032 8.5775851e-21 0)
(22.935031 -1.5096308e-34 0)
(22.935029 -8.6907978e-21 0)
(22.935028 4.3484333e-21 0)
(22.935027 -1.4978575e-34 0)
(22.935026 -4.3130252e-21 0)
(22.935026 0 0)
(22.935025 4.2152663e-21 0)
(22.935024 1.4371827e-34 0)
(22.935023 1.2138773e-36 0)
(22.935022 4.339075e-21 -4.339075e-21)
(22.93502 -4.364381e-21 -4.364381e-21)
(22.935019 1.5137381e-34 4.330075e-21)
(22.935018 4.2736471e-21 -7.3485936e-35)
(22.935018 -4.2207915e-21 -9.8803426e-52)
(22.935017 -4.1605072e-21 4.1605072e-21)
(22.935016 4.1437875e-21 0)
(22.935015 4.2030885e-21 0)
(22.935014 -4.2827802e-21 -4.2827802e-21)
(22.935013 -4.3201632e-21 -4.3201632e-21)
(22.935012 8.599871e-21 0)
(22.935011 4.2536328e-21 4.2536328e-21)
(22.93501 -4.1936564e-21 1.4481692e-34)
(22.935009 0 -4.1398015e-21)
(22.935008 4.1428712e-21 -4.1428712e-21)
(22.935007 -5.9798803e-37 4.2079666e-21)
(22.935006 -4.2788006e-21 8.5576012e-21)
(22.935005 4.2982064e-21 -8.5964128e-21)
(22.935004 -1.207744e-36 2.4154881e-36)
(22.935003 1.1910168e-36 1.2571553e-20)
(22.935002 4.1162957e-21 -8.2325914e-21)
(22.935002 4.0783193e-21 -4.2424088e-34)
(22.935001 1.4400919e-34 8.2724459e-21)
(22.935 -4.2152129e-21 -1.2645639e-20)
(22.934999 0 4.269282e-21)
(22.934997 -4.2762157e-21 4.2762157e-21)
(22.934996 -4.4014978e-34 -4.2428476e-21)
(22.934995 -1.4703182e-34 4.2058718e-21)
(22.934995 4.1668895e-21 4.1668895e-21)
(22.934994 4.1338205e-21 1.4392555e-34)
(22.934993 -8.2778398e-21 -8.2778398e-21)
(22.934992 -2.8939318e-34 -2.8939318e-34)
(22.934991 4.2169123e-21 -4.2169123e-21)
(22.93499 0 -4.2225308e-21)
(22.934989 0 -1.4745547e-34)
(22.934988 -4.1667234e-21 2.9014223e-34)
(22.934987 -2.8670708e-34 8.2685316e-21)
(22.934986 8.2530069e-21 4.1265034e-21)
(22.934985 -4.1558285e-21 -4.1558285e-21)
(22.934984 -8.3781507e-21 5.9530341e-37)
(22.934983 0 4.1870541e-21)
(22.934982 4.1619032e-21 0)
(22.934981 4.1335937e-21 -4.1335937e-21)
(22.93498 -4.1202366e-21 -1.434526e-34)
(22.934979 -4.1326779e-21 4.1326779e-21)
(22.934978 0 -4.1536456e-21)
(22.934977 0 -4.1498956e-21)
(22.934977 4.1112572e-21 8.2225145e-21)
(22.934976 4.0760266e-21 4.0760266e-21)
(22.934975 0 -1.2240854e-20)
(22.934974 -4.108007e-21 -4.108007e-21)
(22.934973 1.4436592e-34 1.2388839e-20)
(22.934972 4.1144797e-21 -4.1144797e-21)
(22.934971 -4.0528054e-21 -4.0528054e-21)
(22.93497 1.1372156e-36 -2.2744313e-36)
(22.934969 -1.403016e-34 -4.0133526e-21)
(22.934968 8.9392521e-52 1.2241145e-20)
(22.934967 8.2587272e-21 -2.8871439e-34)
(22.934966 -1.7493878e-36 -8.2068147e-21)
(22.934965 -4.0446316e-21 8.0892631e-21)
(22.934965 0 3.9689162e-21)
(22.934964 -3.9399345e-21 -3.9399345e-21)
(22.934963 4.0161007e-21 4.0161007e-21)
(22.934962 4.0748484e-21 -4.0748484e-21)
(22.93496 -8.1586128e-21 -8.1586128e-21)
(22.93496 -4.0454044e-21 4.0454044e-21)
(22.934959 7.9172422e-21 1.367006e-34)
(22.934958 3.9033426e-21 3.9033426e-21)
(22.934957 -3.9442894e-21 7.8885788e-21)
(22.934956 -4.0412635e-21 -4.0412635e-21)
(22.934955 -4.083758e-21 -4.083758e-21)
(22.934954 0 -4.0499111e-21)
(22.934953 3.9922851e-21 -1.3899777e-34)
(22.934953 3.8901712e-21 -1.3488968e-34)
(22.934952 -3.8389452e-21 1.33659e-34)
(22.934951 -1.3546252e-34 7.8133829e-21)
(22.93495 4.0073409e-21 4.0073409e-21)
(22.934949 -4.0674843e-21 -4.0674843e-21)
(22.934948 -4.0610638e-21 -8.1221275e-21)
(22.934947 0 -4.0278031e-21)
(22.934946 4.00857e-21 -4.00857e-21)
(22.934945 3.9968357e-21 2.7717645e-34)
(22.934944 -3.9793089e-21 7.9586178e-21)
(22.934944 3.9519687e-21 -1.1232171e-36)
(22.934943 -2.2402491e-36 1.1201245e-36)
(22.934942 -3.9705618e-21 -7.1729149e-51)
(22.934941 3.9889389e-21 3.9889389e-21)
(22.93494 -3.983611e-21 -2.7625932e-34)
(22.934939 2.7587286e-34 5.5174571e-34)
(22.934938 3.8934216e-21 3.8934216e-21)
(22.934938 -3.8507615e-21 -3.8507615e-21)
(22.934937 3.8927205e-21 3.8927205e-21)
(22.934935 3.9498522e-21 1.3695909e-34)
(22.934934 -3.974141e-21 -3.974141e-21)
(22.934933 0 3.9443932e-21)
(22.934933 0 -5.4819125e-37)
(22.934932 -3.7895394e-21 -3.7895394e-21)
(22.934931 -3.8121007e-21 0)
(22.93493 3.9080965e-21 3.9080965e-21)
(22.934929 3.9596112e-21 2.7403227e-34)
(22.934928 -3.9394045e-21 -7.878809e-21)
(22.934927 -2.7011653e-34 3.895033e-21)
(22.934927 3.8127907e-21 -1.0836603e-36)
(22.934926 -3.7695129e-21 -3.7695129e-21)
(22.934925 -3.8265518e-21 3.8265518e-21)
(22.934924 0 -3.8957162e-21)
(22.934923 3.9255283e-21 3.9255283e-21)
(22.934922 3.902047e-21 -1.6258357e-33)
(22.934922 0 -1.0639383e-33)
(22.934921 -3.7788312e-21 3.7788312e-21)
(22.93492 -3.7878141e-21 -7.5756282e-21)
(22.934919 0 0)
(22.934918 3.9011011e-21 -2.7053735e-34)
(22.934917 8.0933494e-34 -8.0933494e-34)
(22.934917 -3.8367342e-21 3.8367342e-21)
(22.934916 3.781383e-21 3.781383e-21)
(22.934915 3.7729591e-21 2.6004232e-34)
(22.934914 -3.8242437e-21 -3.8242437e-21)
(22.934913 -2.6759415e-34 3.87454e-21)
(22.934912 2.6600464e-34 2.6600464e-34)
(22.934911 1.6260593e-36 1.6260593e-36)
(22.934911 3.7611619e-21 5.2113093e-34)
(22.93491 -3.7580391e-21 -7.5160783e-21)
(22.934909 -5.2730971e-34 3.8018568e-21)
(22.934908 2.6432077e-34 3.8429588e-21)
(22.934907 -2.6433174e-34 -2.6433174e-34)
(22.934907 3.7889477e-21 2.611443e-34)
(22.934906 0 -7.7926266e-34)
(22.934905 0 2.6026181e-34)
(22.934904 -3.8166441e-21 -3.8166441e-21)
(22.934903 -3.8453925e-21 0)
(22.934902 0 0)
(22.934901 0 0)
(22.934901 3.7265549e-21 0)
(22.9349 -1.5108316e-51 -3.7170773e-21)
(22.934899 -3.7633632e-21 7.8456051e-34)
(22.934898 0 3.8110292e-21)
(22.934897 3.8361448e-21 3.8361448e-21)
(22.934896 -3.823054e-21 -3.823054e-21)
(22.934896 -1.0526166e-33 -3.7985287e-21)
(22.934895 7.5521278e-21 7.5521278e-21)
(22.934894 -3.7216487e-21 2.5756363e-34)
(22.934894 -7.6363024e-34 -7.6363024e-34)
(22.934893 -5.2591991e-37 -3.7008323e-21)
(22.934892 -3.760542e-21 -3.760542e-21)
(22.934891 3.7989897e-21 3.7989897e-21)
(22.93489 -5.3579771e-37 0)
(22.934889 -5.124233e-34 3.7021133e-21)
(22.934889 2.5064167e-34 2.5064167e-34)
(22.934888 -3.6044391e-21 -3.6044391e-21)
(22.934887 0 -3.6883755e-21)
(22.934886 3.7477191e-21 5.2193125e-34)
(22.934885 2.5961464e-34 3.7512847e-21)
(22.934884 1.0326648e-33 -7.4416104e-21)
(22.934884 3.6482818e-21 3.6482818e-21)
(22.934883 0 3.597893e-21)
(22.934882 -3.6259581e-21 -3.6259581e-21)
(22.934881 -3.6785494e-21 3.6785494e-21)
(22.93488 0 0)
(22.93488 0 0)
(22.934879 0 0)
(22.934878 3.5506251e-21 3.5506251e-21)
(22.934878 2.4659035e-34 -3.5630911e-21)
(22.934877 -3.645286e-21 -7.290572e-21)
(22.934876 0 3.6874312e-21)
(22.934874 0 -2.5459302e-34)
(22.934874 3.5918081e-21 3.5918081e-21)
(22.934874 3.4242852e-21 3.4242852e-21)
(22.934873 -3.3332993e-21 -6.6665986e-21)
(22.934873 -3.4228641e-21 9.7283648e-37)
(22.934872 0 -1.009912e-36)
(22.934871 3.6266112e-21 3.6266112e-21)
(22.93487 3.6535956e-21 3.6535956e-21)
(22.934869 -3.6272178e-21 -7.2544357e-21)
(22.934868 -3.5778443e-21 5.0844225e-37)
(22.934867 0 -7.3563877e-34)
(22.934867 3.4235702e-21 3.4235702e-21)
(22.934866 -9.3325967e-34 -1.8665193e-33)
(22.934866 -2.3738985e-34 -4.747797e-34)
(22.934865 3.5237904e-21 3.5237904e-21)
(22.934864 -3.5952833e-21 -3.5952833e-21)
(22.934863 -3.5959206e-21 0)
(22.934862 0 -3.5285857e-21)
(22.934861 3.4563706e-21 3.4563706e-21)
(22.934861 -4.6639637e-34 3.3558003e-21)
(22.934861 3.2997804e-21 -3.2997804e-21)
(22.93486 4.6597348e-34 0)
(22.934859 -6.8852692e-21 -3.4426346e-21)
(22.934858 3.5068704e-21 3.5068704e-21)
(22.934857 -4.8765005e-34 3.5159141e-21)
(22.934856 -1.2103362e-33 -1.2103362e-33)
(22.934856 -2.3818282e-34 -6.883214e-21)
(22.934855 -3.3415724e-21 -6.6831448e-21)
(22.934855 3.2738065e-21 9.8214196e-21)
(22.934854 3.3192218e-21 6.6384436e-21)
(22.934853 0 0)
(22.934852 -3.4734582e-21 -6.9469164e-21)
(22.934851 -3.4426912e-21 -3.4426912e-21)
(22.934851 0 3.3836465e-21)
(22.934851 3.2705931e-21 3.2705931e-21)
(22.93485 3.2260527e-21 3.2260527e-21)
(22.934849 -6.6430414e-21 -6.6430414e-21)
(22.934848 -3.4357358e-21 -6.8714715e-21)
(22.934847 3.4761693e-21 3.4761693e-21)
(22.934846 3.420843e-21 6.841686e-21)
(22.934846 9.2506533e-34 9.2506533e-34)
(22.934846 -3.170921e-21 -6.3418421e-21)
(22.934845 3.1020481e-21 3.1020481e-21)
(22.934845 -2.2303749e-34 -4.4607498e-34)
(22.934844 -3.3392546e-21 -3.3392546e-21)
(22.934843 3.422152e-21 6.844304e-21)
(22.934842 -2.3867957e-34 -3.4346793e-21)
(22.934841 2.3576023e-34 4.7152046e-34)
(22.934841 -9.4744026e-37 3.333509e-21)
(22.93484 -2.2372921e-34 -3.2394122e-21)
(22.93484 3.1923228e-21 3.1923228e-21)
(22.934839 0 -6.5273629e-21)
(22.934838 0 1.3942414e-33)
(22.934837 -3.3788255e-21 6.757651e-21)
(22.934837 -3.3586333e-21 -6.7172666e-21)
(22.934836 0 -2.2716266e-34)
(22.934836 0 3.2170146e-21)
(22.934835 0 0)
(22.934834 0 0)
(22.934833 3.3527899e-21 3.3527899e-21)
(22.934833 2.3096148e-34 -3.3510246e-21)
(22.934832 -6.5761874e-21 -6.5761874e-21)
(22.934832 1.3803299e-36 3.237736e-21)
(22.934831 3.258017e-21 -9.2598412e-37)
(22.93483 3.3069478e-21 3.3069478e-21)
(22.934829 -4.6219698e-34 3.3289889e-21)
(22.934829 -4.5972602e-34 -3.3179838e-21)
(22.934828 -4.6220228e-37 0)
(22.934828 -3.2189894e-21 -3.2189894e-21)
(22.934827 -3.2564868e-21 -3.2564868e-21)
(22.934826 -3.3153204e-21 0)
(22.934825 6.6459782e-21 6.6459782e-21)
(22.934825 9.7880288e-21 3.2626763e-21)
(22.934824 -3.2113618e-21 -6.4227237e-21)
(22.934824 -6.4509241e-21 2.2322411e-34)
(22.934823 0 -9.3156344e-37)
(22.934822 3.3001058e-21 3.3001058e-21)
(22.934821 3.2853719e-21 3.2853719e-21)
(22.934821 -3.227479e-21 -3.227479e-21)
(22.93482 9.0937163e-37 3.199567e-21)
(22.934819 -1.3749667e-36 -3.225156e-21)
(22.934819 9.2606148e-37 1.852123e-36)
(22.934818 3.2597874e-21 6.5195749e-21)
(22.934818 3.1931007e-21 -3.1931007e-21)
(22.934817 -3.1558373e-21 -3.1558373e-21)
(22.934816 -6.3860769e-21 -3.1930384e-21)
(22.934815 3.2506574e-21 -4.5085949e-34)
(22.934814 3.8826243e-51 3.2402253e-21)
(22.934814 3.1491661e-21 0)
(22.934814 8.4926797e-34 0)
(22.934813 -6.1531804e-21 -3.0765902e-21)
(22.934812 0 4.3954557e-34)
(22.934811 0 -8.964519e-34)
(22.934811 6.4206392e-21 -4.4617715e-34)
(22.93481 -1.7397729e-33 3.1326928e-21)
(22.93481 -6.0943282e-21 -3.0471641e-21)
(22.934809 0 4.3173323e-37)
(22.934808 3.1117989e-21 3.1117989e-21)
(22.934808 3.1750969e-21 0)
(22.934807 -3.1702098e-21 0)
(22.934806 4.403473e-37 0)
(22.934806 -4.2139335e-34 0)
(22.934805 4.3268104e-37 0)
(22.934804 3.0885572e-21 0)
(22.934804 -3.1149965e-21 0)
(22.934803 -3.1025353e-21 -3.1025353e-21)
(22.934803 0 0)
(22.934802 2.9600141e-21 2.9600141e-21)
(22.934801 -4.1926438e-34 0)
(22.934801 -3.0876958e-21 -3.0876958e-21)
(22.9348 6.1813565e-21 -8.5734142e-34)
(22.934799 -8.4654679e-34 3.0517641e-21)
(22.934799 -2.9622292e-21 0)
(22.934798 -8.1295502e-34 0)
(22.934798 -5.9869345e-21 -2.9934673e-21)
(22.934797 6.1244997e-21 -4.2516292e-34)
(22.934796 3.0557139e-21 3.0557139e-21)
(22.934796 -2.9694035e-21 0)
(22.934795 -4.1150513e-37 0)
(22.934794 -2.9135091e-21 -2.9135091e-21)
(22.934794 0 -2.9763748e-21)
(22.934793 0 3.0168471e-21)
(22.934792 3.0055586e-21 3.0055586e-21)
(22.934792 -4.0364383e-34 0)
(22.934791 -5.712292e-21 -2.856146e-21)
(22.934791 4.1350351e-37 4.1350351e-37)
(22.93479 8.9356885e-21 2.9785628e-21)
(22.934789 -2.9865536e-21 -2.9865536e-21)
(22.934788 -2.9509804e-21 -2.9509804e-21)
(22.934788 5.7135935e-21 2.8567968e-21)
(22.934788 -2.8229281e-21 2.8229281e-21)
(22.934787 2.9081101e-21 0)
(22.934786 5.9713387e-21 -2.9856694e-21)
(22.934785 -2.9555645e-21 -2.9555645e-21)
(22.934785 -2.8472272e-21 2.8472272e-21)
(22.934784 -2.7283001e-21 2.7283001e-21)
(22.934784 2.7310403e-21 0)
(22.934783 -2.5292503e-51 -2.8555998e-21)
(22.934782 -2.9457482e-21 -2.9457482e-21)
(22.934781 2.9749567e-21 2.9749567e-21)
(22.93478 -2.9484559e-21 2.9484559e-21)
(22.93478 2.8898561e-21 0)
(22.934779 7.897171e-34 0)
(22.934779 8.017657e-37 0)
(22.934779 2.729079e-21 0)
(22.934778 -5.3546611e-21 0)
(22.934777 2.7404123e-21 0)
(22.934777 7.8663164e-34 0)
(22.934776 -7.9650266e-34 0)
(22.934775 -2.8481988e-21 -2.8481988e-21)
(22.934774 -5.5411676e-21 -9.24846e-50)
(22.934774 7.7358009e-21 2.5786003e-21)
(22.934774 6.9288213e-34 0)
(22.934773 -1.4505995e-33 0)
(22.934772 7.6115355e-34 0)
(22.934771 -5.6216255e-21 -2.8108128e-21)
(22.93477 5.6129676e-21 -3.8925353e-34)
(22.93477 -7.588239e-34 2.7355269e-21)
(22.93477 -5.1861554e-21 -2.5930777e-21)
(22.934769 0 3.4673386e-34)
(22.934769 0 -3.6264508e-37)
(22.934768 2.6768518e-21 -3.7165424e-34)
(22.934767 -3.7866194e-34 2.7301194e-21)
(22.934766 -2.7189228e-21 -2.7189228e-21)
(22.934765 -2.6580202e-21 2.6580202e-21)
(22.934765 2.4939926e-21 -1.3857731e-33)
(22.934765 7.29207e-21 -2.43069e-21)
(22.934764 -2.5371862e-21 2.5371862e-21)
(22.934764 -2.6606739e-21 0)
(22.934763 -7.6704712e-37 0)
(22.934762 -2.6523709e-21 -2.6523709e-21)
(22.934761 0 -3.5862023e-34)
(22.934761 4.9003977e-21 2.4501989e-21)
(22.934761 4.8383262e-21 -2.4191631e-21)
(22.93476 -2.5387535e-21 -2.5387535e-21)
(22.934759 -5.2321074e-21 0)
(22.934758 -2.6273725e-21 2.6273725e-21)
(22.934757 5.1441672e-21 2.5720836e-21)
(22.934757 4.8452269e-21 -2.4226134e-21)
(22.934757 -4.7098507e-21 -6.5358126e-34)
(22.934756 -4.8822102e-21 -1.1873218e-50)
(22.934755 0 -3.5592454e-34)
(22.934754 5.1993355e-21 2.5996678e-21)
(22.934753 -2.5458694e-21 -2.5458694e-21)
(22.934753 -4.9331723e-21 -6.9439088e-50)
(22.934753 2.3115967e-21 -3.209422e-34)
(22.934752 2.2913662e-21 -2.2913662e-21)
(22.934752 -3.4653763e-37 0)
(22.934751 3.5418167e-34 0)
(22.93475 2.5629722e-21 2.5629722e-21)
(22.934749 -2.4975918e-21 3.5492914e-37)
(22.934748 -2.4151076e-21 -1.0049114e-33)
(22.934748 2.2602194e-21 2.2602194e-21)
(22.934748 -3.0863941e-34 0)
(22.934747 -3.3449488e-37 0)
(22.934746 -3.3936107e-34 -2.4467636e-21)
(22.934745 -2.4736622e-21 6.8583219e-34)
(22.934744 2.4197834e-21 2.4197834e-21)
(22.934744 -9.527206e-34 0)
(22.934744 -3.0758698e-34 0)
(22.934743 -6.3187511e-34 0)
(22.934742 -2.3585356e-21 -2.3585356e-21)
(22.934741 2.3891336e-21 3.395163e-37)
(22.934741 -3.2583675e-34 2.3468498e-21)
(22.93474 -6.1272817e-34 -2.2099904e-21)
(22.93474 -3.0765291e-37 2.1649149e-21)
(22.934739 -4.51481e-21 -6.2747805e-34)
(22.934738 -2.332504e-21 -4.6650079e-21)
(22.934737 2.3407882e-21 2.3407882e-21)
(22.934736 4.5244298e-21 9.422581e-34)
(22.934736 -2.8610054e-34 2.8610054e-34)
(22.934736 -4.0222997e-21 -2.7922815e-34)
(22.934735 -2.1510892e-21 -2.1510892e-21)
(22.934734 4.5387023e-21 0)
(22.934733 2.3335733e-21 0)
(22.934732 -2.3241818e-21 2.3241818e-21)
(22.934731 -2.2514821e-21 3.1259589e-34)
(22.934731 -5.9861537e-34 -5.9861537e-34)
(22.934731 1.99978e-21 -5.7373199e-52)
(22.93473 0 -1.9636736e-21)
(22.93473 0 2.0874518e-21)
(22.934729 2.2014906e-21 2.2014906e-21)
(22.934728 0 0)
(22.934727 -2.1965944e-21 -2.1965944e-21)
(22.934726 2.0735647e-21 -2.8789382e-34)
(22.934726 2.5695318e-37 1.8081473e-21)
(22.934726 -4.9390243e-34 0)
(22.934725 0 0)
(22.934724 -2.1141506e-21 -2.1141506e-21)
(22.934723 2.1685819e-21 6.1634805e-37)
(22.934722 2.1730207e-21 1.2672551e-51)
(22.934721 -4.244902e-21 -2.122451e-21)
(22.93472 -2.0112475e-21 2.0112475e-21)
(22.93472 1.8307433e-21 -2.5366016e-34)
(22.93472 0 2.4604521e-34)
(22.934719 0 -5.235748e-34)
(22.934719 -2.0115531e-21 -2.0115531e-21)
(22.934717 5.7446161e-34 2.0677311e-21)
(22.934716 2.0479644e-21 -5.6867896e-34)
(22.934715 0 5.4041335e-34)
(22.934715 0 -4.9361546e-34)
(22.934715 -1.7197536e-21 -1.7197536e-21)
(22.934714 7.586975e-34 1.8208933e-21)
(22.934713 1.9443679e-21 -5.3991226e-34)
(22.934712 0 2.7477186e-34)
(22.934711 0 0)
(22.934711 0 -1.8264325e-21)
(22.93471 0 1.6505613e-21)
(22.93471 0 -2.2888698e-34)
(22.934709 0 2.5686267e-37)
(22.934708 0 -2.6578581e-34)
(22.934707 0 2.7264917e-34)
(22.934706 3.860378e-21 1.930189e-21)
(22.934705 1.0038707e-33 -1.8085284e-21)
(22.934705 -1.6391889e-21 -1.6391889e-21)
(22.934705 1.5714933e-21 1.5714933e-21)
(22.934704 -1.6680884e-21 1.6680884e-21)
(22.934703 1.8029279e-21 0)
(22.934702 -5.1572003e-34 -1.8553462e-21)
(22.934701 -1.8305971e-21 -1.8305971e-21)
(22.9347 -4.786128e-34 0)
(22.9347 -1.5478246e-21 1.5478246e-21)
(22.9347 0 -2.1163834e-34)
(22.934699 0 2.3569999e-37)
(22.934698 1.7454659e-21 2.4209254e-34)
(22.934696 4.8385164e-34 -1.7424786e-21)
(22.934696 -1.6484385e-21 1.6484385e-21)
(22.934696 0 2.0661653e-34)
(22.934695 0 -4.1365708e-34)
(22.934694 0 -1.6250428e-21)
(22.934693 0 -1.7119398e-21)
(22.934692 0 3.4064115e-21)
(22.934691 0 -2.2254177e-37)
(22.934691 0 1.8539299e-34)
(22.93469 2.6176717e-21 1.3088359e-21)
(22.93469 -1.2201874e-33 -1.4657401e-21)
(22.934689 -3.1640677e-21 2.1964966e-34)
(22.934688 1.6327941e-21 1.6327941e-21)
(22.934686 2.2785569e-37 0)
(22.934685 1.494711e-21 0)
(22.934685 -7.4129655e-34 0)
(22.934685 -2.3270073e-21 -1.1635037e-21)
(22.934684 -1.2086509e-21 -1.2086509e-21)
(22.934684 2.2370166e-51 1.3905784e-21)
(22.934683 4.4189207e-21 1.4729736e-21)
(22.934681 0 0)
(22.93468 -3.0877285e-21 -1.5438642e-21)
(22.934679 0 -1.5162338e-21)
(22.934677 0 1.3361269e-21)
(22.934677 2.0117771e-21 1.0058885e-21)
(22.934677 -2.5194602e-34 0)
(22.934677 -3.2810292e-21 -1.0936764e-21)
(22.934676 1.273824e-21 -1.273824e-21)
(22.934675 1.333561e-21 1.333561e-21)
(22.934674 -1.321297e-21 3.6689788e-34)
(22.934674 1.2936641e-21 -1.2936641e-21)
(22.934673 -1.2799979e-21 0)
(22.934672 -3.5808131e-34 0)
(22.93467 1.3211419e-21 0)
(22.934669 -1.3529445e-21 0)
(22.934667 0 1.3684803e-21)
(22.934666 -1.3214367e-21 -3.6656109e-34)
(22.934665 1.1262894e-21 -1.1262894e-21)
(22.934665 1.5027439e-21 7.5137193e-22)
(22.934665 -5.7886442e-22 8.0369565e-35)
(22.934665 -6.8978174e-22 -9.5867355e-35)
(22.934664 -8.8303712e-22 -6.4769977e-51)
(22.934664 -1.0346859e-21 1.0346859e-21)
(22.934663 2.1845696e-21 1.0922848e-21)
(22.934662 1.1252359e-21 -2.2504717e-21)
(22.93466 -1.1366564e-21 -1.5781343e-34)
(22.934659 0 1.4702636e-34)
(22.934658 8.6739049e-22 -8.6739049e-22)
(22.934658 -6.8578601e-22 0)
(22.934657 -7.4080011e-22 7.4080011e-22)
(22.934657 2.728726e-21 9.0957533e-22)
(22.934656 2.8016038e-37 -9.8572671e-22)
(22.934654 -2.0220886e-21 -2.8045953e-34)
(22.934653 1.0286708e-21 1.0286708e-21)
(22.934651 1.4523746e-34 0)
(22.934649 1.000988e-21 0)
(22.934647 -2.3073766e-37 -8.1183599e-22)
(22.934647 -1.130399e-21 7.8392009e-35)
(22.934647 3.5806951e-22 3.5806951e-22)
(22.934647 0 0)
(22.934647 -8.4560524e-35 -3.0452497e-22)
(22.934646 -6.7840088e-38 6.7840088e-38)
(22.934645 -5.9019066e-22 -1.638842e-34)
(22.934644 6.5571374e-22 -9.0946147e-35)
(22.934643 -1.9127574e-34 6.8883489e-22)
(22.934641 -9.1807248e-35 -6.6192221e-22)
(22.93464 -7.8294091e-38 7.8294091e-38)
(22.934639 -4.0324685e-22 -1.1197363e-34)
(22.934639 3.1015182e-22 -3.1015182e-22)
(22.934638 -3.57331e-51 3.2612499e-22)
(22.934637 -1.1069811e-34 1.1069811e-34)
(22.934635 -6.3457894e-38 6.3457894e-38)
(22.934634 -7.949688e-22 -5.5186754e-35)
(22.934632 -2.8301728e-35 -2.0405298e-22)
(22.934632 5.284943e-24 5.284943e-24)
(22.934632 0 0)
(22.934631 0 -5.7109452e-35)
(22.93463 -1.9899031e-22 -2.7599546e-35)
(22.934628 -9.9393725e-35 -9.9393725e-35)
(22.934626 1.7530918e-22 -2.4912933e-38)
(22.934624 1.055709e-22 1.055709e-22)
(22.934624 -6.2054588e-35 -4.469502e-22)
(22.934624 -2.8265447e-50 -2.8265447e-50)
(22.934623 4.3990239e-35 4.3990239e-35)
(22.934622 -1.795618e-22 -4.986074e-35)
(22.93462 -1.3746626e-22 1.9085823e-35)
(22.934618 -2.9455615e-35 -4.247448e-22)
(22.934616 4.35654e-22 4.35654e-22)
(22.934616 0 7.1413119e-22)
(22.934616 0 1.0187674e-34)
(22.934615 -5.8174723e-22 -8.0769815e-35)
(22.934614 5.098581e-22 -1.0197162e-21)
(22.934612 -4.2877985e-34 5.1506828e-22)
(22.93461 -5.631099e-22 5.631099e-22)
(22.934608 7.0880691e-22 1.0362486e-50)
(22.934606 0 0)
(22.934606 -1.2891289e-21 1.3212031e-50)
(22.934605 -1.3208527e-21 1.3208527e-21)
(22.934605 1.1912511e-21 -1.1912511e-21)
(22.934604 1.1713317e-21 -6.7799828e-52)
(22.934602 0 1.7113136e-34)
(22.934601 -1.3147223e-21 1.8683328e-37)
(22.934599 -1.3936067e-21 1.3936067e-21)
(22.934597 2.9811795e-21 -2.9811795e-21)
(22.934595 1.6304198e-21 -4.5273514e-34)
(22.934593 -1.8289882e-21 1.8289882e-21)
(22.934592 -2.0518884e-21 -2.845927e-34)
(22.934591 -3.0072817e-34 3.0072817e-34)
(22.93459 -2.1548584e-21 -2.1548584e-21)
(22.934589 -5.9457492e-34 2.1412226e-21)
(22.934587 4.379074e-21 -9.2191235e-51)
(22.934585 0 9.5703211e-34)
(22.934583 0 -6.83878e-34)
(22.93458 0 7.4904502e-34)
(22.934579 -2.9603605e-21 8.220332e-34)
(22.934578 -3.0976848e-21 5.7042978e-51)
(22.934576 0 0)
(22.934575 3.1507964e-21 -3.1507964e-21)
(22.934572 4.5321842e-34 0)
(22.93457 -3.4620484e-21 0)
(22.934568 0 3.7075671e-21)
(22.934566 0 1.1009212e-33)
(22.934564 4.1344538e-21 -4.1344538e-21)
(22.934563 5.8457682e-34 0)
(22.934561 -5.9605614e-34 0)
(22.934558 4.4577605e-21 8.9155209e-21)
(22.934556 -4.6790412e-21 3.8951702e-33)
(22.934553 2.0598327e-33 -9.9008086e-21)
(22.934551 5.2358184e-21 5.2358184e-21)
(22.934549 0 -7.7603668e-37)
(22.934547 5.6100094e-21 7.7889399e-34)
(22.934544 7.9770966e-34 5.7455299e-21)
(22.934542 -5.9341645e-21 0)
(22.934539 6.1922492e-21 0)
(22.934536 -6.5020703e-21 0)
(22.934533 -6.8218347e-21 6.8218347e-21)
(22.93453 7.1154696e-21 1.973802e-33)
(22.934528 0 -7.3695913e-21)
(22.934525 -7.6047444e-21 0)
(22.934522 -7.8741441e-21 0)
(22.934519 8.1977744e-21 8.1977744e-21)
(22.934516 8.5441306e-21 -1.214194e-36)
(22.934513 0 -8.8614707e-21)
(22.93451 9.1386363e-21 0)
(22.934507 -9.4172724e-21 0)
(22.934503 -9.7411003e-21 9.7411003e-21)
(22.9345 1.0120434e-20 2.8073668e-33)
(22.934496 2.1063341e-20 2.925932e-33)
(22.934492 -6.0771669e-33 -3.0385834e-33)
(22.934488 -3.4027224e-20 -1.1342408e-20)
(22.934484 2.0001933e-50 1.1743377e-20)
(22.93448 1.2166907e-20 -3.376779e-33)
(22.934476 2.522839e-20 3.5009183e-33)
(22.934472 -7.2439921e-33 -3.6219961e-33)
(22.934468 -2.694152e-20 -1.347076e-20)
(22.934464 1.386993e-20 0)
(22.934459 -1.4302814e-20 0)
(22.934455 1.4810953e-20 1.4810953e-20)
(22.93445 1.5396517e-20 -6.5987313e-49)
(22.934445 -3.2012796e-20 -1.6006398e-20)
(22.93444 0 0)
(22.934435 0 0)
(22.93443 3.5114393e-20 1.7557197e-20)
(22.934424 -2.0884762e-49 -4.1769524e-49)
(22.934418 -3.7368886e-20 -1.8684443e-20)
(22.934412 0 0)
(22.934406 0 0)
(22.934401 4.1650785e-20 2.0825393e-20)
(22.934395 -2.530635e-49 -5.06127e-49)
(22.934388 -4.3937682e-20 -2.1968841e-20)
(22.934382 0 0)
(22.934375 0 0)
(22.934368 4.8525925e-20 2.4262963e-20)
(22.934361 2.5139983e-20 -3.5726064e-36)
(22.934353 -5.1848932e-20 -2.5924466e-20)
(22.934346 -2.6618802e-20 2.6618802e-20)
(22.934339 0 -7.5906132e-33)
(22.934331 5.6267886e-20 7.8162342e-33)
(22.934322 -1.6146351e-32 -8.0731757e-33)
(22.934314 -6.0157785e-20 -3.0078893e-20)
(22.934305 3.1057278e-20 0)
(22.934297 0 0)
(22.934288 -3.281288e-20 0)
(22.934279 3.3706525e-20 0)
(22.934269 -4.9302742e-36 0)
(22.934259 -3.5772734e-20 3.5772734e-20)
(22.934249 3.6904993e-20 -1.0242538e-32)
(22.934239 -3.8048025e-20 -3.8048025e-20)
(22.934228 -3.9177669e-20 0)
(22.934218 4.0293451e-20 0)
(22.934207 4.1411021e-20 0)
(22.934196 -1.1815962e-32 0)
(22.934184 -4.3740191e-20 0)
(22.934172 4.4991002e-20 0)
(22.93416 1.2858171e-32 0)
(22.934147 -4.7662956e-20 4.7662956e-20)
(22.934134 4.9029089e-20 -2.721487e-32)
(22.934121 -5.0384381e-20 -5.0384381e-20)
(22.934107 -5.1743552e-20 0)
(22.934093 5.3145407e-20 0)
(22.934079 5.4619159e-20 0)
(22.934064 -1.5594737e-32 0)
(22.934049 -5.7740181e-20 0)
(22.934033 5.9330289e-20 0)
(22.934018 -8.6588726e-36 0)
(22.934001 -6.2567657e-20 6.2567657e-20)
(22.933985 6.42619e-20 -1.7835119e-32)
(22.933968 -6.6015923e-20 -6.6015923e-20)
(22.93395 -6.7813089e-20 0)
(22.933932 6.9635448e-20 0)
(22.933914 1.429537e-19 7.147685e-20)
(22.933895 -4.0752921e-32 -2.037646e-32)
(22.933876 -1.5049743e-19 -7.5248713e-20)
(22.933856 7.7209749e-20 0)
(22.933836 -1.1261475e-35 0)
(22.933815 -1.62736e-19 0)
(22.933793 -2.3751735e-35 8.3568989e-20)
(22.933771 8.5817622e-20 2.3842041e-32)
(22.933749 0 -8.8077104e-20)
(22.933726 -9.0333437e-20 0)
(22.933703 0 0)
(22.933679 9.494536e-20 0)
(22.933654 0 0)
(22.933628 0 0)
(22.933602 0 0)
(22.933576 1.0517926e-19 0)
(22.933548 -1.3215578e-49 1.0790816e-19)
(22.93352 -1.1067547e-19 -1.572793e-35)
(22.933492 0 -1.1347145e-19)
(22.933463 -1.1630667e-19 0)
(22.933433 3.3104053e-32 0)
(22.933402 1.2223954e-19 0)
(22.93337 0 0)
(22.933338 0 0)
(22.933305 0 0)
(22.933271 1.3512198e-19 0)
(22.933236 -3.8439894e-32 1.384323e-19)
(22.933201 -1.4186187e-19 2.0159784e-35)
(22.933164 0 -1.4544434e-19)
(22.933127 -1.4914601e-19 0)
(22.933088 -4.2434771e-32 0)
(22.933049 1.5665978e-19 0)
(22.933009 0 1.6046786e-19)
(22.932968 -1.6439771e-19 -9.1276586e-32)
(22.932926 1.6849668e-19 -1.6849668e-19)
(22.932883 -9.5981589e-32 0)
(22.932838 -1.7704998e-19 1.7704998e-19)
(22.932793 1.8137311e-19 5.0389478e-32)
(22.932747 0 -1.8572561e-19)
(22.9327 1.9018333e-19 0)
(22.932651 5.4096017e-32 0)
(22.932601 -1.9962269e-19 1.9962269e-19)
(22.932551 0 2.045525e-19)
(22.932498 -2.0953837e-19 -2.0953837e-19)
(22.932445 2.1456252e-19 -2.1456252e-19)
(22.932391 1.2199453e-31 0)
(22.932335 -2.2491698e-19 0)
(22.932278 1.2789103e-31 0)
(22.932219 3.3527184e-35 0)
(22.932159 -6.7125226e-32 -2.4161217e-19)
(22.932098 3.5151949e-35 3.5151949e-35)
(22.932035 2.5317437e-19 5.0634874e-19)
(22.931971 0 2.5910266e-19)
(22.931905 -2.6519957e-19 -5.3039913e-19)
(22.931838 7.5348817e-32 -5.429802e-19)
(22.931769 7.7142941e-32 2.7795453e-19)
(22.931698 3.1860289e-49 2.8454386e-19)
(22.931626 8.0864437e-32 0)
(22.931553 0 0)
(22.931478 6.0961228e-19 0)
(22.931401 8.6582042e-32 0)
(22.931322 -3.1898218e-19 3.1898218e-19)
(22.931241 3.2633348e-19 9.066269e-32)
(22.931158 -9.2652561e-32 -3.338374e-19)
(22.931074 -3.4148145e-19 0)
(22.930987 -3.4927433e-19 0)
(22.930899 -9.9196355e-32 0)
(22.930809 1.0145202e-31 0)
(22.930717 -3.736188e-19 0)
(22.930623 3.8199174e-19 0)
(22.930526 3.9047305e-19 0)
(22.930428 0 0)
(22.930327 4.0793654e-19 0)
(22.930224 -1.1579398e-31 0)
(22.930119 -4.2628355e-19 0)
(22.930012 0 0)
(22.929902 0 0)
(22.92979 0 0)
(22.929676 9.2916457e-19 4.6458229e-19)
(22.929559 -5.2709143e-31 -2.6354572e-31)
(22.929439 -9.6954533e-19 -4.8477266e-19)
(22.929317 0 0)
(22.929192 0 0)
(22.929065 0 -5.1665721e-19)
(22.928935 0 1.4648686e-31)
(22.928803 0 -7.6532127e-35)
(22.928668 0 5.4972905e-19)
(22.92853 0 5.6112813e-19)
(22.928389 1.1455335e-18 3.1801045e-31)
(22.928244 -3.2485154e-31 -1.6242577e-31)
(22.928098 -1.1934328e-18 -5.9671641e-19)
(22.927948 -6.0895986e-19 0)
(22.927795 6.2134336e-19 0)
(22.927639 6.3386914e-19 0)
(22.92748 -1.7963074e-31 0)
(22.927318 -3.6587203e-31 0)
(22.927152 -6.7262038e-19 6.7262038e-19)
(22.926984 6.8599761e-19 -3.8087829e-31)
(22.926812 -6.9958619e-19 -6.9958619e-19)
(22.926636 -7.1335828e-19 0)
(22.926457 7.2729291e-19 0)
(22.926275 7.4138515e-19 0)
(22.926089 -4.1944418e-31 0)
(22.9259 -7.7012902e-19 0)
(22.925707 -7.8485513e-19 0)
(22.92551 2.218734e-31 0)
(22.92531 8.1506682e-19 8.1506682e-19)
(22.925106 8.3046566e-19 -4.6097155e-31)
(22.924898 -8.4599276e-19 -8.4599276e-19)
(22.924686 -8.6165114e-19 0)
(22.924471 8.7749884e-19 0)
(22.924251 -8.9360978e-19 0)
(22.924027 0 0)
(22.923799 9.2670096e-19 0)
(22.923567 9.4357867e-19 0)
(22.923331 -2.6646283e-31 0)
(22.923091 -9.7771465e-19 9.7771465e-19)
(22.922847 9.9501553e-19 -8.2860523e-31)
(22.922598 -1.0125681e-18 -1.0125681e-18)
(22.922345 -1.030418e-18 0)
(22.922087 1.0485436e-18 0)
(22.921825 -1.0668726e-18 0)
(22.921558 -3.0137731e-31 0)
(22.921287 1.103941e-18 0)
(22.921012 1.1227356e-18 0)