/*--------------------------------*- C++ -*----------------------------------*\
  =========                 |
  \\      /  F ield         | OpenFOAM: The Open Source CFD Toolbox
   \\    /   O peration     | Website:  https://openfoam.org
    \\  /    A nd           | Version:  7
     \\/     M anipulation  |
\*---------------------------------------------------------------------------*/
FoamFile
{
    version     2.0;
    format      ascii;
    class       volVectorField;
    location    "0.00012";
    object      U;
}
// * * * * * * * * * * * * * * * * * * * * * * * * * * * * * * * * * * * * * //

dimensions      [0 1 -1 0 0 0 0];

internalField   nonuniform List<vector> 
5000
(
(-5.0704766 1.6221504e-16 0)
(-5.0776341 1.6702078e-16 0)
(-5.049427 0 0)
(-5.0265573 0 0)
(-5.0013604 -8.5695521e-17 0)
(-4.9763798 9.7434822e-32 -8.5704575e-17)
(-4.9512197 8.5690202e-17 -1.8265965e-31)
(-4.9260474 0 2.5702139e-16)
(-4.9008659 0 8.565622e-17)
(-4.8756771 -8.5638424e-17 -1.7127685e-16)
(-4.8504882 -1.7124073e-16 -1.7124073e-16)
(-4.8252998 8.5602152e-17 8.5602152e-17)
(-4.8001134 8.5583907e-17 -7.2973228e-31)
(-4.7749301 -8.5565639e-17 -7.5389573e-31)
(-4.7497508 0 1.7109471e-16)
(-4.7245761 -8.5529056e-17 -1.7105811e-16)
(-4.6994063 -9.2590194e-48 -4.6295097e-48)
(-4.6742417 8.5492442e-17 -7.5325082e-31)
(-4.6490824 0 -8.5474129e-17)
(-4.6239284 8.5455813e-17 1.7091163e-16)
(-4.59878 -8.5437494e-17 8.5437494e-17)
(-4.5736369 -8.5419171e-17 0)
(-4.5484994 1.7080169e-16 0)
(-4.5233673 -8.5382518e-17 -8.5382518e-17)
(-4.4982407 -8.5364187e-17 7.2785883e-31)
(-4.4731196 -7.0344576e-31 -7.0344576e-31)
(-4.448004 8.5327517e-17 -8.5327517e-17)
(-4.4228941 8.530918e-17 8.530918e-17)
(-4.3977897 -1.7058168e-16 8.5290841e-17)
(-4.372691 1.4783901e-30 -8.5272501e-17)
(-4.3475979 -1.4901874e-30 1.4901874e-30)
(-4.3225105 8.5235819e-17 -7.267643e-31)
(-4.2974287 1.7043495e-16 -8.5217477e-17)
(-4.2723527 -1.7039827e-16 8.5199135e-17)
(-4.2472824 1.4768001e-30 8.5180793e-17)
(-4.2222178 -7.4066151e-30 0)
(-4.1971589 -2.9523282e-30 0)
(-4.1721058 1.7025154e-16 -8.5125768e-17)
(-4.1470583 -1.7021485e-16 -8.5107427e-17)
(-4.1220167 -1.7017817e-16 8.5089086e-17)
(-4.0969807 1.7014149e-16 -1.4265351e-30)
(-4.0719505 -5.8499502e-30 -8.5052407e-17)
(-4.046926 -1.7006814e-16 8.5034069e-17)
(-4.0219073 8.5015732e-17 -1.437694e-30)
(-3.9968943 2.5499219e-16 -8.4997395e-17)
(-3.971887 -8.497906e-17 8.497906e-17)
(-3.9468855 -8.4960726e-17 -2.9218222e-30)
(-3.9218897 -5.8182414e-30 2.9091207e-30)
(-3.8968997 -1.6984813e-16 -2.9205613e-30)
(-3.8719154 0 1.4478997e-30)
(-3.8469368 8.4887407e-17 8.4887407e-17)
(-3.821964 1.2060622e-32 0)
(-3.796997 -8.485076e-17 0)
(-3.7720357 1.6966488e-16 0)
(-3.7470801 -2.9649917e-30 0)
(-3.7221303 -1.6959162e-16 0)
(-3.6971862 8.4777498e-17 0)
(-3.6722478 -2.9269363e-30 0)
(-3.6473152 -8.4740887e-17 0)
(-3.6223884 0 0)
(-3.5974673 8.470429e-17 0)
(-3.5725519 2.888305e-30 0)
(-3.5476422 2.4064011e-32 0)
(-3.5227383 8.4649428e-17 -8.4649428e-17)
(-3.4978401 -8.4631151e-17 -8.4631151e-17)
(-3.4729477 2.9579565e-30 8.4612879e-17)
(-3.448061 8.4594612e-17 -1.4546157e-30)
(-3.42318 -8.4576352e-17 -5.8390608e-49)
(-3.3983047 -8.4558098e-17 8.4558098e-17)
(-3.3734352 8.453985e-17 0)
(-3.3485714 8.4521609e-17 0)
(-3.3237133 -8.4503375e-17 -8.4503375e-17)
(-3.2988609 -8.4485149e-17 -8.4485149e-17)
(-3.2740142 1.6893386e-16 0)
(-3.2491733 8.4448722e-17 8.4448722e-17)
(-3.224338 -8.4430521e-17 2.9155866e-30)
(-3.1995085 0 -8.441233e-17)
(-3.1746847 8.4394148e-17 -8.4394148e-17)
(-3.1498666 -1.1990548e-32 8.4375978e-17)
(-3.1250542 -8.4357819e-17 1.6871564e-16)
(-3.1002474 8.4339672e-17 -1.6867934e-16)
(-3.0754464 -2.3965623e-32 4.7931246e-32)
(-3.0506511 2.3960473e-32 2.5291026e-16)
(-3.0258614 8.4285319e-17 -1.6857064e-16)
(-3.0010774 8.4267236e-17 -8.7657691e-30)
(-2.9762991 2.9332693e-30 1.6849835e-16)
(-2.9515265 -8.4231135e-17 -2.526934e-16)
(-2.9267595 0 8.4213123e-17)
(-2.9019982 -8.4195142e-17 8.4195142e-17)
(-2.8772425 -8.7324785e-30 -8.4177198e-17)
(-2.8524924 -2.9420998e-30 8.4159295e-17)
(-2.827748 8.4141442e-17 8.4141442e-17)
(-2.8030092 8.4123644e-17 2.9288988e-30)
(-2.7782759 -1.6821183e-16 -1.6821183e-16)
(-2.7535482 -5.8194846e-30 -5.8194846e-30)
(-2.728826 8.4070694e-17 -8.4070694e-17)
(-2.7041094 0 -8.4053232e-17)
(-2.6793982 0 -2.9497279e-30)
(-2.6546925 -8.4018684e-17 5.8504888e-30)
(-2.6299921 -5.825427e-30 1.6800327e-16)
(-2.6052971 1.6796953e-16 8.3984766e-17)
(-2.5806074 -8.3968099e-17 -8.3968099e-17)
(-2.5559229 -1.6790332e-16 1.1930249e-32)
(-2.5312436 0 8.393548e-17)
(-2.5065694 8.3919586e-17 0)
(-2.4819001 8.3904011e-17 -8.3904011e-17)
(-2.4572357 -8.3888788e-17 -2.9207219e-30)
(-2.4325762 -8.3873952e-17 8.3873952e-17)
(-2.4079212 0 -8.3859537e-17)
(-2.3832708 0 -8.3845581e-17)
(-2.3586248 8.383212e-17 1.6766424e-16)
(-2.3339831 8.381919e-17 8.381919e-17)
(-2.3093454 0 -2.5142048e-16)
(-2.2847116 -8.3795063e-17 -8.3795063e-17)
(-2.2600816 2.9289776e-30 2.513518e-16)
(-2.2354551 8.3773467e-17 -8.3773467e-17)
(-2.2108319 -8.3763692e-17 -8.3763692e-17)
(-2.1862119 2.3804498e-32 -4.7608996e-32)
(-2.1615948 -2.9276623e-30 -8.3746308e-17)
(-2.1369804 -5.7807463e-50 2.5121621e-16)
(-2.1123684 1.6746385e-16 -5.8543191e-30)
(-2.0877587 -3.5694493e-32 -1.6745178e-16)
(-2.0631511 -8.3720618e-17 1.6744124e-16)
(-2.0385452 0 8.3716113e-17)
(-2.0139409 -8.3712361e-17 -8.3712361e-17)
(-1.989338 8.3709344e-17 8.3709344e-17)
(-1.9647362 8.3707038e-17 -8.3707038e-17)
(-1.9401354 -1.6741082e-16 -1.6741082e-16)
(-1.9155353 -8.3704421e-17 8.3704421e-17)
(-1.8909357 1.6740805e-16 2.890499e-30)
(-1.8663366 8.3704168e-17 8.3704168e-17)
(-1.8417377 -8.3704786e-17 1.6740957e-16)
(-1.8171389 -8.3705806e-17 -8.3705806e-17)
(-1.7925401 -8.3707145e-17 -8.3707145e-17)
(-1.7679413 0 -8.3708713e-17)
(-1.7433423 8.3710407e-17 -2.9145113e-30)
(-1.7187431 8.3712109e-17 -2.9026743e-30)
(-1.6941439 -8.3713684e-17 2.9146254e-30)
(-1.6695445 -2.9027739e-30 1.6742996e-16)
(-1.6449452 8.371583e-17 8.371583e-17)
(-1.620346 -8.3716039e-17 -8.3716039e-17)
(-1.5957473 -8.3715394e-17 -1.6743079e-16)
(-1.5711492 0 -8.3713647e-17)
(-1.5465521 8.3710523e-17 -8.3710523e-17)
(-1.5219566 8.3705706e-17 5.8049046e-30)
(-1.4973631 -8.3698842e-17 1.6739768e-16)
(-1.4727722 8.3689531e-17 -2.3785995e-32)
(-1.4481848 -4.7565051e-32 2.3782526e-32)
(-1.4236018 -8.3661713e-17 4.947481e-48)
(-1.3990243 8.3642134e-17 8.3642134e-17)
(-1.3744534 -8.3617957e-17 -5.7988193e-30)
(-1.3498907 5.8205325e-30 1.1641065e-29)
(-1.3253378 8.3552934e-17 8.3552934e-17)
(-1.3007966 -8.351046e-17 -8.351046e-17)
(-1.2762692 8.3460125e-17 8.3460125e-17)
(-1.2517581 8.3400911e-17 2.8918837e-30)
(-1.2272661 -8.3331708e-17 -8.3331708e-17)
(-1.2027963 0 8.3251324e-17)
(-1.178352 0 -1.181753e-32)
(-1.1539372 -8.305178e-17 -8.305178e-17)
(-1.1295561 -8.2929792e-17 0)
(-1.1052135 8.2790967e-17 8.2790967e-17)
(-1.0809144 8.2633685e-17 5.7188181e-30)
(-1.0566645 -8.245626e-17 -1.6491252e-16)
(-1.03247 -5.7044339e-30 8.2256936e-17)
(-1.0083376 8.2033909e-17 -2.3315439e-32)
(-0.98427442 -8.1785326e-17 -8.1785326e-17)
(-0.9602883 -8.1509307e-17 8.1509307e-17)
(-0.93638753 0 -8.1203951e-17)
(-0.91258099 8.0867356e-17 8.0867356e-17)
(-0.88887811 8.0497632e-17 -3.3540325e-29)
(-0.86528888 0 -2.2217446e-29)
(-0.84182383 -7.9651404e-17 7.9651404e-17)
(-0.818494 -7.9171341e-17 -1.5834268e-16)
(-0.79531095 0 0)
(-0.7722867 7.8089023e-17 -5.4153934e-30)
(-0.74943372 1.612026e-29 -1.612026e-29)
(-0.72676489 -7.6834021e-17 7.6834021e-17)
(-0.70429342 7.6138627e-17 7.6138627e-17)
(-0.68203287 7.539663e-17 5.1965352e-30)
(-0.65999702 -7.4607257e-17 -7.4607257e-17)
(-0.63819987 -5.0949029e-30 7.3769942e-17)
(-0.61665556 5.0130239e-30 5.0130239e-30)
(-0.59537827 3.0674269e-32 3.0674269e-32)
(-0.57438223 7.0968028e-17 9.8330343e-30)
(-0.55368155 -6.993781e-17 -1.3987562e-16)
(-0.53329023 -9.5507805e-30 6.886029e-17)
(-0.51322203 4.6589417e-30 6.7736339e-17)
(-0.49349045 -4.5785195e-30 -4.5785195e-30)
(-0.4741086 6.5353891e-17 4.5043631e-30)
(-0.45508915 0 -1.3326364e-29)
(-0.43644427 0 4.3374353e-30)
(-0.41818554 -6.1468137e-17 -6.1468137e-17)
(-0.40032391 -6.009778e-17 0)
(-0.38286962 0 0)
(-0.36583214 0 0)
(-0.34922011 5.5796452e-17 0)
(-0.33304132 7.2074475e-47 -5.4308807e-17)
(-0.31730267 -5.2799373e-17 1.1007256e-29)
(-0.30201008 0 5.1271412e-17)
(-0.28716852 4.9728275e-17 4.9728275e-17)
(-0.27278196 -4.8173379e-17 -4.8173379e-17)
(-0.25885337 -1.2916225e-29 -4.661018e-17)
(-0.2453847 9.0084307e-17 9.0084307e-17)
(-0.23237687 -4.3472771e-17 3.0086141e-30)
(-0.21982978 -8.7004393e-30 -8.7004393e-30)
(-0.20774234 -5.7331789e-33 -4.034366e-17)
(-0.19611247 -3.879065e-17 -3.879065e-17)
(-0.18493712 3.7249679e-17 3.7249679e-17)
(-0.17421231 -5.0766674e-33 0)
(-0.16393315 -4.7359953e-30 3.4216226e-17)
(-0.1540939 2.265113e-30 2.265113e-30)
(-0.144688 -3.1266697e-17 -3.1266697e-17)
(-0.13570812 0 -2.9830049e-17)
(-0.12714621 2.8422011e-17 3.9582305e-30)
(-0.11899356 1.8716825e-30 2.7044753e-17)
(-0.11124083 7.1327954e-30 -5.1400497e-17)
(-0.10387816 2.4390275e-17 2.4390275e-17)
(-0.09689517 0 2.3116405e-17)
(-0.090281061 -2.1880011e-17 -2.1880011e-17)
(-0.084024654 -2.0682263e-17 2.0682263e-17)
(-0.078114458 0 0)
(-0.072538724 0 0)
(-0.067285507 0 0)
(-0.062342716 1.6294139e-17 1.6294139e-17)
(-0.057698172 1.0588831e-30 -1.5300262e-17)
(-0.053339657 -1.4347989e-17 -2.8695978e-17)
(-0.049254967 0 1.3437198e-17)
(-0.045431954 0 -8.7333716e-31)
(-0.04185857 1.1738823e-17 1.1738823e-17)
(-0.03852291 1.0950274e-17 1.0950274e-17)
(-0.035413247 -1.0201299e-17 -2.0402597e-17)
(-0.032518065 -9.4911189e-18 2.6975382e-33)
(-0.029826092 0 -2.5064703e-33)
(-0.027326327 8.1835541e-18 8.1835541e-18)
(-0.025008059 7.5841673e-18 7.5841673e-18)
(-0.022860894 -7.0195944e-18 -1.4039189e-17)
(-0.020874772 -6.4886776e-18 9.2209654e-34)
(-0.019039974 0 -1.2479482e-30)
(-0.017347145 5.5229698e-18 5.5229698e-18)
(-0.015787293 -1.4121924e-30 -2.8243848e-30)
(-0.0143518 -3.2435002e-31 -6.4870005e-31)
(-0.013032426 4.2958517e-18 4.2958517e-18)
(-0.011821306 -3.9407374e-18 -3.9407374e-18)
(-0.010710956 -3.6104465e-18 0)
(-0.009694264 0 -3.3037097e-18)
(-0.0087644896 3.0192762e-18 3.0192762e-18)
(-0.0079152564 -3.8302339e-31 2.7559177e-18)
(-0.0071405445 2.5124336e-18 -2.5124336e-18)
(-0.0064346828 3.1729294e-31 0)
(-0.0057923386 -4.1608899e-18 -2.080445e-18)
(-0.0052085074 1.8897079e-18 1.8897079e-18)
(-0.0046785013 -2.3778166e-31 1.7143849e-18)
(-0.0041979377 -5.3931627e-31 -5.3931627e-31)
(-0.0037627264 -9.7301834e-32 -2.8119129e-18)
(-0.0033690574 -1.2709458e-18 -2.5418917e-18)
(-0.0030133877 1.1475406e-18 3.4426218e-18)
(-0.0026924286 1.0348982e-18 2.0697963e-18)
(-0.0024031326 0 0)
(-0.0021426806 -8.3875124e-19 -1.6775025e-18)
(-0.001908469 -7.5378001e-19 -7.5378001e-19)
(-0.0016980974 0 6.7663655e-19)
(-0.0015093563 6.0669222e-19 6.0669222e-19)
(-0.001340215 5.4335825e-19 5.4335825e-19)
(-0.0011888105 -9.7216885e-19 -9.7216885e-19)
(-0.001053436 -4.3435765e-19 -8.687153e-19)
(-0.00093253021 3.8770046e-19 3.8770046e-19)
(-0.00082466751 3.4566941e-19 6.9133883e-19)
(-0.00072854773 8.5397298e-32 8.5397298e-32)
(-0.00064298706 -2.7387256e-19 -5.4774512e-19)
(-0.00056690922 2.4337552e-19 2.4337552e-19)
(-0.00049933711 -1.4982075e-32 -2.9964149e-32)
(-0.00043938495 -1.9156509e-19 -1.9156509e-19)
(-0.0003862509 1.6968086e-19 3.3936172e-19)
(-0.00033921013 -1.0433095e-32 -1.5013575e-19)
(-0.00029760835 9.2403641e-33 1.8480728e-32)
(-0.00026085573 -3.3300581e-35 1.17166e-19)
(-0.00022842131 -7.1372294e-33 -1.0334113e-19)
(-0.00019982777 9.1052144e-20 9.1052144e-20)
(-0.00017464656 0 -1.6028217e-19)
(-0.00015249346 0 2.939999e-32)
(-0.00013302442 -6.1892772e-20 1.2378554e-19)
(-0.00011593179 -5.4308127e-20 -1.0861625e-19)
(-0.00010094079 0 -3.2945594e-33)
(-8.780633e-05 0 4.1686228e-20)
(-7.6310087e-05 0 0)
(-6.6257806e-05 0 0)
(-5.7476873e-05 2.7823878e-20 2.7823878e-20)
(-4.9814087e-05 1.672606e-33 -2.4267874e-20)
(-4.3133646e-05 -4.229115e-20 -4.229115e-20)
(-3.7315313e-05 7.8473843e-36 1.8407019e-20)
(-3.2252762e-05 1.6007596e-20 -4.5496323e-36)
(-2.7852078e-05 1.3907526e-20 1.3907526e-20)
(-2.4030407e-05 -1.6759922e-33 1.2071389e-20)
(-2.0714738e-05 -1.4503586e-33 -1.0467683e-20)
(-1.7840809e-05 -1.2887021e-36 0)
(-1.5352118e-05 -7.8488295e-21 -7.8488295e-21)
(-1.3199051e-05 -6.7868877e-21 -6.7868877e-21)
(-1.1338084e-05 -5.8631633e-21 0)
(-9.7310815e-06 1.0120948e-20 1.0120948e-20)
(-8.3446668e-06 1.3090974e-20 4.363658e-21)
(-7.1496572e-06 -3.7593501e-21 -7.5187002e-21)
(-6.1205662e-06 -6.4715705e-21 2.2393854e-34)
(-5.2351615e-06 0 -7.9086792e-37)
(-4.4740688e-06 2.390767e-21 2.390767e-21)
(-3.8204199e-06 2.0522603e-21 2.0522603e-21)
(-3.2595473e-06 -1.7601171e-21 -1.7601171e-21)
(-2.7787091e-06 4.2866403e-37 1.5082275e-21)
(-2.3668479e-06 -5.5049308e-37 -1.2912502e-21)
(-2.0143777e-06 3.1392418e-37 6.2784837e-37)
(-1.7129976e-06 9.4397729e-22 1.8879546e-21)
(-1.4555243e-06 8.0607092e-22 -8.0607092e-22)
(-1.2357507e-06 -6.8772061e-22 -6.8772061e-22)
(-1.0483178e-06 -1.1724926e-21 -5.8624631e-22)
(-8.886029e-07 4.9932048e-22 -6.9254723e-35)
(-7.5262139e-07 3.3029164e-51 4.2492489e-22)
(-6.3694367e-07 3.6131049e-22 0)
(-5.3862125e-07 8.5063092e-35 0)
(-4.5511925e-07 -5.2114896e-22 -2.6057448e-22)
(-3.8426248e-07 0 3.0685547e-35)
(-3.2418577e-07 0 -5.1984272e-35)
(-2.7329053e-07 3.1721625e-22 -2.2043699e-35)
(-2.3020902e-07 -7.4528803e-35 1.3419904e-22)
(-1.9377037e-07 -2.2690966e-22 -1.1345483e-22)
(-1.6297541e-07 0 1.3619702e-38)
(-1.3697105e-07 8.0895921e-23 8.0895921e-23)
(-1.1502948e-07 6.8227871e-23 0)
(-9.6530815e-08 -5.7497898e-23 0)
(-8.0946313e-08 6.8805431e-39 0)
(-6.7827126e-08 -5.6562651e-36 0)
(-5.6792765e-08 4.8675555e-39 0)
(-4.7518786e-08 2.8776131e-23 0)
(-3.9729926e-08 -2.4156929e-23 0)
(-3.3193693e-08 -2.0263651e-23 -2.0263651e-23)
(-2.7712917e-08 0 0)
(-2.3120263e-08 1.422604e-23 1.422604e-23)
(-1.9274601e-08 -1.653051e-36 0)
(-1.6057157e-08 -9.9572348e-24 -9.9572348e-24)
(-1.3367451e-08 1.6642847e-23 -2.3083287e-36)
(-1.1120517e-08 -1.9276431e-36 6.9490689e-24)
(-9.244901e-09 -5.7985749e-24 0)
(-7.6800832e-09 -1.3426348e-36 0)
(-6.3756157e-09 -8.0578152e-24 -4.0289076e-24)
(-5.2893528e-09 6.7094249e-24 -4.6576844e-37)
(-4.384873e-09 2.7912196e-24 2.7912196e-24)
(-3.6326749e-09 -2.3206966e-24 0)
(-3.0074589e-09 -2.7401329e-40 0)
(-2.4881728e-09 -1.6009538e-24 -1.6009538e-24)
(-2.0573333e-09 0 -1.3282764e-24)
(-1.6999651e-09 0 1.1012986e-24)
(-1.4035199e-09 9.1231925e-25 9.1231925e-25)
(-1.1580026e-09 -1.0473174e-37 0)
(-9.5501095e-10 -1.2494928e-24 -6.2474641e-25)
(-7.8675164e-10 7.3424446e-41 7.3424446e-41)
(-6.4798428e-10 1.2808543e-24 4.2695142e-25)
(-5.3346932e-10 -3.5242365e-25 -3.5242365e-25)
(-4.3864548e-10 -2.9076471e-25 -2.9076471e-25)
(-3.6046736e-10 4.7959205e-25 2.3979602e-25)
(-2.9586505e-10 -1.9759233e-25 1.9759233e-25)
(-2.4301056e-10 1.6263369e-25 0)
(-1.9943608e-10 2.6750961e-25 -1.3375481e-25)
(-1.6347097e-10 -1.1004373e-25 -1.1004373e-25)
(-1.3387049e-10 -9.0537818e-26 9.0537818e-26)
(-1.0948672e-10 -7.417312e-26 7.417312e-26)
(-8.9169165e-11 6.069631e-26 0)
(-7.2776527e-11 9.3673596e-55 -4.9854065e-26)
(-5.9731455e-11 -4.0886413e-26 -4.0886413e-26)
(-4.8790953e-11 3.3438702e-26 3.3438702e-26)
(-3.9729253e-11 -2.7409603e-26 2.7409603e-26)
(-3.2305065e-11 2.2241803e-26 0)
(-2.6267192e-11 5.026241e-39 0)
(-2.148917e-11 4.2767328e-42 0)
(-1.7476857e-11 1.2362187e-26 0)
(-1.4231465e-11 -1.9961892e-26 0)
(-1.1686935e-11 8.1570167e-27 0)
(-9.4223273e-12 1.871121e-39 0)
(-7.686647e-12 -1.489743e-39 0)
(-5.9445768e-12 -4.2051701e-27 -4.2051701e-27)
(-4.6620492e-12 -6.7890698e-27 -3.9030665e-55)
(-3.7231632e-12 8.2076814e-27 2.7358938e-27)
(-2.8204627e-12 6.043297e-40 0)
(-1.9376482e-12 -1.0119009e-39 0)
(-1.4964141e-12 4.2119338e-40 0)
(-1.2171457e-12 -2.6345644e-27 -1.3172822e-27)
(-8.2558897e-13 2.026588e-27 -1.4054179e-40)
(-4.4096787e-13 -2.1081269e-40 7.599705e-28)
(-4.8524598e-13 -1.3172822e-27 -6.586411e-28)
(-3.703513e-13 0 9.1445763e-41)
(-3.0625948e-13 0 -1.079983e-43)
(-4.5023241e-13 8.612999e-28 -1.1958292e-40)
(-1.8530862e-13 -9.1352165e-41 6.586411e-28)
(-2.0848394e-13 -3.546529e-28 -3.546529e-28)
(-8.0045891e-14 -2.533235e-28 2.533235e-28)
(-3.9162505e-14 2.533235e-28 -1.4075779e-40)
(-1.2758547e-14 3.039882e-28 -1.013294e-28)
(-4.3366858e-14 -5.06647e-29 5.06647e-29)
(-4.741447e-14 -1.519941e-28 0)
(-5.0228734e-14 -4.3199321e-44 0)
(3.0610073e-14 -5.06647e-29 -5.06647e-29)
(-2.3650918e-14 0 9.6146527e-55)
(5.3482819e-16 2.026588e-28 1.013294e-28)
(-1.8171931e-13 1.013294e-28 -5.06647e-29)
(-2.525154e-13 2.5658541e-43 2.5658541e-43)
(-2.2019345e-13 5.1317082e-43 0)
(-2.3695299e-13 1.013294e-28 -1.013294e-28)
(-7.801319e-14 -5.06647e-28 -2.533235e-28)
(-2.468191e-14 -2.026588e-28 1.013294e-28)
(-2.8541777e-14 1.013294e-28 1.4061379e-41)
(-1.3137078e-13 1.013294e-28 -5.8545997e-56)
(-4.6339135e-15 0 -1.4068579e-41)
(-4.6738166e-14 2.026588e-28 1.013294e-28)
(-1.6442589e-14 -2.026588e-28 -2.026588e-28)
(-3.0189798e-14 -6.079764e-28 -4.8804803e-68)
(-5.4094823e-14 1.519941e-28 -2.1102868e-41)
(-5.4099082e-14 1.013294e-28 -1.013294e-28)
(5.0387429e-14 -3.5999434e-44 0)
(6.0269148e-14 2.1102868e-41 0)
(1.5034221e-13 -5.06647e-29 -5.06647e-29)
(2.2781699e-15 5.06647e-29 -7.1998869e-45)
(4.8544087e-14 5.06647e-29 2.1081269e-41)
(1.2675585e-13 -1.519941e-28 -1.519941e-28)
(7.8429096e-14 2.8108358e-41 0)
(3.3544091e-13 2.8799547e-44 0)
(4.7510612e-13 3.5135448e-41 2.533235e-28)
(4.7084993e-13 2.533235e-28 -7.0234896e-41)
(3.4396525e-13 -5.06647e-29 -5.06647e-29)
(2.5751105e-13 -2.1102868e-41 0)
(2.5151765e-13 -1.4068579e-41 0)
(3.8106009e-13 -1.4061379e-41 0)
(2.7015246e-13 -5.06647e-29 -5.06647e-29)
(3.5603659e-13 5.06647e-29 7.1998869e-45)
(4.6770928e-13 1.4068579e-41 -1.013294e-28)
(5.2346872e-13 2.8093959e-41 1.013294e-28)
(7.367201e-13 7.1998869e-45 -5.06647e-29)
(9.1386931e-13 2.026588e-28 2.8165957e-41)
(7.9746696e-13 -5.06647e-29 -1.013294e-28)
(6.9519993e-13 1.519941e-28 1.519941e-28)
(6.3501546e-13 9.8357741e-43 2.0483991e-55)
(5.9281755e-13 2.1102868e-41 -2.1102868e-41)
(7.3704354e-13 5.06647e-28 3.5171447e-41)
(5.3451719e-13 2.533235e-28 2.533235e-28)
(3.7373552e-13 -3.039882e-28 0)
(3.7610573e-13 5.06647e-29 0)
(3.2621615e-13 -1.519941e-28 1.519941e-28)
(2.047886e-13 -2.026588e-28 2.8137158e-41)
(2.3318736e-13 -1.4061379e-41 -1.4061379e-41)
(2.3208993e-13 -1.013294e-28 7.2597349e-70)
(2.840225e-13 0 2.533235e-28)
(2.0858546e-13 0 -2.533235e-28)
(1.2041293e-13 -1.013294e-28 -1.013294e-28)
(1.3803587e-13 0 0)
(1.0872751e-14 -1.013294e-28 -1.013294e-28)
(-4.4998926e-14 2.026588e-28 -2.8137158e-41)
(2.9825208e-15 5.7599095e-44 4.053176e-28)
(1.5176771e-13 -5.6245516e-41 0)
(1.6582958e-13 0 0)
(1.4236637e-14 -3.039882e-28 -3.039882e-28)
(4.2329287e-14 1.519941e-28 4.3199321e-44)
(3.9923404e-14 1.519941e-28 4.8788331e-57)
(5.7853481e-14 -3.039882e-28 -1.519941e-28)
(4.572907e-14 -1.013294e-28 1.013294e-28)
(-7.9115919e-14 5.06647e-29 -7.0198897e-42)
(6.9622373e-14 0 7.0342895e-42)
(-1.6500044e-14 0 1.4061379e-41)
(-1.4571728e-13 5.06647e-29 5.06647e-29)
(-1.9002169e-14 -2.8151558e-41 -1.013294e-28)
(9.4678934e-14 -1.519941e-28 4.2205737e-41)
(1.3555675e-13 0 -5.6303115e-41)
(-5.057649e-14 0 5.6303115e-41)
(-6.3089941e-14 5.06647e-29 5.06647e-29)
(1.9685802e-14 -2.1110068e-41 -5.06647e-29)
(-1.5049445e-13 -5.06647e-29 1.4068579e-41)
(-3.2362407e-13 0 4.16468e-56)
(-3.3717834e-13 0 0)
(-2.6891562e-13 0 2.026588e-28)
(-2.2475275e-13 0 -1.519941e-28)
(-2.1741407e-13 0 7.0342895e-42)
(-2.4281118e-13 0 -4.3199321e-44)
(-2.1938386e-13 0 5.6274316e-41)
(-3.2909025e-13 0 -3.5207447e-41)
(-1.6469753e-13 -3.039882e-28 -1.519941e-28)
(1.7062416e-14 -1.4061379e-40 2.533235e-28)
(-3.4507475e-14 3.546529e-28 3.546529e-28)
(-2.2122903e-13 -1.013294e-28 -1.013294e-28)
(-4.4041898e-13 5.06647e-29 -5.06647e-29)
(-2.8443719e-13 -2.533235e-28 0)
(-2.3644331e-13 5.6331915e-41 2.026588e-28)
(-2.0899086e-13 1.519941e-28 1.519941e-28)
(-3.7036507e-13 -7.7867204e-54 0)
(-5.1277013e-13 -1.519941e-28 1.519941e-28)
(-4.5083346e-13 0 9.5983766e-55)
(-4.158594e-13 0 1.3096518e-60)
(-5.7490194e-13 5.06647e-29 7.0270896e-42)
(-3.3256405e-13 2.8137158e-41 -1.013294e-28)
(-3.233528e-13 -1.013294e-28 1.013294e-28)
(-3.0383503e-13 0 -3.8553524e-56)
(-1.244884e-13 0 1.4068579e-41)
(-4.0814407e-13 0 -5.06647e-29)
(-4.0264631e-13 0 -2.533235e-28)
(-4.9418543e-13 0 8.106352e-28)
(-5.689124e-13 0 -7.9198756e-44)
(-5.9532811e-13 0 5.6216717e-41)
(-5.2557052e-13 2.026588e-28 1.013294e-28)
(-2.7348501e-13 4.2176937e-41 5.06647e-29)
(-2.9498717e-13 -1.013294e-28 7.0342895e-42)
(-3.5070903e-13 1.013294e-28 1.013294e-28)
(-3.2949216e-13 1.4399774e-44 0)
(-3.5531754e-13 1.519941e-28 0)
(-2.5294448e-13 -8.4281876e-41 0)
(-2.6348251e-13 2.8143749e-41 1.4083671e-41)
(-2.6875659e-13 1.013294e-28 1.013294e-28)
(-3.5932527e-13 4.8788331e-57 5.06647e-29)
(-2.5936174e-13 1.519941e-28 5.06647e-29)
(-1.3423663e-13 0 0)
(-1.0806261e-13 -2.026588e-28 -1.013294e-28)
(-1.8472908e-13 0 -1.519941e-28)
(-1.2891338e-13 0 5.06647e-29)
(-3.0485549e-13 2.026588e-28 1.013294e-28)
(-4.7935869e-13 -8.4325075e-41 0)
(-4.5885218e-13 -9.119646e-28 -3.039882e-28)
(-5.6557068e-13 1.013294e-28 -1.013294e-28)
(-5.1220923e-13 5.06647e-29 5.06647e-29)
(-4.9305731e-13 -5.06647e-29 1.4068579e-41)
(-3.0245929e-13 1.013294e-28 -1.013294e-28)
(-4.0274117e-13 -3.546529e-28 0)
(-4.8027905e-13 -9.8379254e-41 0)
(-1.6491522e-13 1.013294e-28 0)
(-2.1837586e-13 -1.013294e-28 0)
(-1.2602516e-13 0 1.013294e-28)
(-5.3466278e-14 0 0)
(1.0868707e-13 -1.519941e-28 1.519941e-28)
(1.1404168e-14 -5.06647e-28 -2.533235e-28)
(-2.4083008e-13 5.06647e-29 -7.0342895e-42)
(-2.9309165e-13 -1.519941e-28 -2.1124468e-41)
(-1.1997626e-13 -1.013294e-28 9.7576662e-57)
(-1.752779e-13 0 0)
(-1.9996203e-13 -7.26992e-43 -3.63496e-43)
(-2.9184824e-13 -1.519941e-28 3.039882e-28)
(-3.5471828e-13 2.026588e-28 2.8137158e-41)
(-3.3955813e-13 0 -2.1081269e-41)
(-3.1621565e-13 -2.533235e-28 2.533235e-28)
(-2.0141421e-13 2.533235e-28 0)
(-3.128004e-13 1.013294e-28 -1.013294e-28)
(-2.1009351e-13 5.45244e-43 1.81748e-43)
(-3.4091061e-13 -4.3199321e-44 1.519941e-28)
(-8.0396474e-14 3.039882e-28 4.2162538e-41)
(-7.4979888e-14 -5.06647e-29 -5.06647e-29)
(7.258251e-15 -1.4068579e-41 0)
(1.2733394e-13 -5.06647e-29 0)
(1.6678891e-13 2.8799547e-44 1.013294e-28)
(2.2186396e-13 2.026588e-28 -1.4054179e-41)
(8.7162119e-14 1.013294e-28 1.013294e-28)
(7.3893215e-14 0 0)
(6.0191963e-15 -4.2205737e-41 -1.519941e-28)
(2.9746128e-13 2.1599661e-44 -2.1599661e-44)
(4.6046863e-13 2.533235e-28 7.0342895e-41)
(5.5925031e-13 -1.519941e-28 2.1081269e-41)
(7.1577825e-13 2.8137158e-41 -1.013294e-28)
(5.7217335e-13 2.8108358e-41 2.026588e-28)
(4.3944131e-13 4.3199321e-44 -4.3199321e-44)
(4.6442634e-13 1.519941e-28 4.2205737e-41)
(2.8769651e-13 1.013294e-28 -1.013294e-28)
(3.6839133e-13 4.8788331e-57 1.519941e-28)
(5.8109046e-13 -4.2205737e-41 4.2205737e-41)
(3.8483172e-13 -3.5999434e-44 3.5999434e-44)
(2.0049409e-13 -2.026588e-28 -1.4068579e-41)
(2.2817214e-13 1.4054179e-41 1.013294e-28)
(1.5326794e-13 -1.013294e-28 -1.013294e-28)
(9.8707614e-14 0 0)
(-8.6176605e-14 0 -7.1230432e-56)
(-7.8173406e-14 -5.06647e-29 -7.0270896e-42)
(-1.2931857e-13 -4.2162538e-41 -4.2162538e-41)
(-1.5355185e-13 7.3732176e-44 9.7473708e-57)
(-4.7404893e-14 5.06647e-29 5.06647e-29)
(-1.0916594e-13 7.0342895e-42 5.06647e-29)
(-1.038768e-13 1.9515332e-56 1.9515332e-56)
(-2.5587444e-13 -2.1102868e-41 -2.1102868e-41)
(-2.2318889e-13 2.533235e-28 7.0342895e-41)
(-1.5917692e-13 2.026588e-28 -2.8137158e-41)
(-7.9991994e-14 -7.0270896e-42 -1.013294e-28)
(-8.1273496e-15 2.533235e-28 2.533235e-28)
(1.2950003e-14 0 1.013294e-28)
(1.1161659e-14 0 2.1102868e-41)
(-1.2115117e-13 -1.013294e-28 -1.4068579e-41)
(-3.7529215e-14 1.013294e-28 -2.026588e-28)
(-1.0961425e-13 -2.5306162e-40 3.039882e-28)
(-8.4403719e-14 -3.039882e-28 3.039882e-28)
(1.9572369e-14 1.519941e-28 -1.4636499e-56)
(7.6200765e-14 0 0)
(1.9018066e-13 5.06647e-29 4.8788331e-57)
(3.876077e-13 -5.06647e-29 5.06647e-29)
(3.7225837e-13 1.013294e-28 -1.013294e-28)
(2.8317643e-13 1.013294e-28 6.9302912e-70)
(3.6976454e-13 0 1.4054179e-41)
(1.847201e-13 -1.013294e-28 1.4399774e-44)
(2.7519759e-13 -1.519941e-28 1.519941e-28)
(1.8282641e-13 6.079764e-28 -6.079764e-28)
(1.8642253e-13 3.546529e-28 -9.8480053e-41)
(2.7707292e-13 -3.039882e-28 3.039882e-28)
(1.9375529e-13 -3.039882e-28 -4.2162538e-41)
(2.135408e-13 -7.0270896e-42 7.0270896e-42)
(2.4342747e-13 2.533235e-28 2.533235e-28)
(1.2880088e-13 8.4411474e-41 -3.039882e-28)
(1.4701185e-13 -4.053176e-28 -3.9030665e-56)
(1.3549513e-13 0 -6.3330205e-41)
(2.4739199e-13 0 2.8151558e-41)
(3.4837361e-13 0 2.8122758e-41)
(2.6593411e-13 -1.519941e-28 4.2205737e-41)
(2.1875552e-13 -1.2829271e-43 -9.7576662e-57)
(1.7472433e-13 0 0)
(2.441351e-13 5.06647e-29 -5.06647e-29)
(4.2738261e-13 1.4039779e-41 0)
(2.3696208e-13 -1.013294e-28 0)
(2.5733252e-13 0 1.013294e-28)
(2.7753016e-13 0 1.4068579e-41)
(1.5492143e-13 5.06647e-29 -5.06647e-29)
(1.2595707e-13 7.0270896e-42 0)
(1.2005711e-13 3.5099449e-41 0)
(2.3453809e-13 -3.039882e-28 -6.079764e-28)
(4.1991948e-14 2.1091775e-41 -1.7578922e-53)
(-3.7438049e-14 2.1081269e-41 -1.013294e-28)
(3.7010485e-14 -5.06647e-29 -5.06647e-29)
(1.0861367e-14 0 2.1599661e-44)
(-3.0971822e-14 -1.013294e-28 -1.4068579e-41)
(2.7580582e-14 7.0342895e-42 5.06647e-29)
(1.9529824e-14 1.013294e-28 0)
(2.442409e-14 -2.026588e-28 0)
(4.7603252e-14 5.06647e-29 0)
(-3.2459892e-15 1.519941e-28 -1.519941e-28)
(-6.1273603e-14 -2.026588e-28 -5.6216717e-41)
(3.3384505e-14 0 1.013294e-28)
(-1.6668252e-13 1.013294e-28 0)
(-4.1491934e-13 2.026588e-28 0)
(-3.5678888e-13 -3.039882e-28 -3.039882e-28)
(-3.2990904e-13 -2.533235e-28 3.5999434e-44)
(-4.7663308e-13 0 1.519941e-28)
(-3.0433651e-13 5.06647e-29 0)
(-2.2616074e-13 -2.026588e-28 0)
(-3.7217092e-13 -1.013294e-28 1.013294e-28)
(-4.9231253e-13 -4.1695129e-43 -1.1566057e-55)
(-5.6792847e-13 1.7960979e-42 2.4949794e-55)
(-6.2393908e-13 2.8137158e-41 1.4068579e-41)
(-5.3398381e-13 -1.519941e-28 -5.06647e-29)
(-5.281088e-13 -9.7576662e-57 1.013294e-28)
(-8.0596963e-13 1.013294e-28 -2.8122758e-41)
(-7.8872393e-13 3.039882e-28 4.2184137e-41)
(-6.2175168e-13 -2.8108358e-41 -1.4054179e-41)
(-4.8762696e-13 -4.053176e-28 -2.026588e-28)
(-3.3286436e-13 2.533235e-28 0)
(-3.9874603e-13 -1.519941e-28 0)
(-3.7488107e-13 1.013294e-28 1.013294e-28)
(-4.6541703e-13 -5.06647e-29 1.2197083e-55)
(-4.477651e-13 -1.013294e-28 -5.06647e-29)
(-3.1727691e-13 0 0)
(-3.4380904e-13 0 0)
(-3.9995231e-13 -5.67697e-41 -2.838485e-41)
(-4.1751625e-13 -7.806133e-56 -1.5612266e-55)
(-3.4621092e-13 -2.026588e-28 -1.013294e-28)
(-5.4297038e-13 0 0)
(-4.7161268e-13 0 0)
(-5.807453e-13 -3.039882e-28 -1.519941e-28)
(-4.328413e-13 -3.9030665e-56 -7.806133e-56)
(-2.6323947e-13 2.026588e-28 1.013294e-28)
(-3.6713505e-13 0 0)
(-3.6559912e-13 0 0)
(-3.2658347e-13 2.026588e-28 1.013294e-28)
(-2.7759755e-13 -1.013294e-28 1.4399774e-44)
(-3.3085459e-13 2.026588e-28 1.013294e-28)
(-2.2494051e-13 -5.06647e-29 5.06647e-29)
(-3.3588213e-13 0 -2.8151558e-41)
(-3.6277186e-13 3.039882e-28 4.2227337e-41)
(-3.9895516e-13 -1.1254863e-40 -5.6274316e-41)
(-4.9612807e-13 -2.026588e-28 -1.013294e-28)
(-6.7328603e-13 -1.519941e-28 0)
(-6.7788417e-13 0 0)
(-7.0041859e-13 0 0)
(-8.4723895e-13 -1.013294e-28 0)
(-7.1801678e-13 2.1599661e-44 0)
(-8.0990978e-13 3.039882e-28 -3.039882e-28)
(-6.7276494e-13 -4.053176e-28 1.1249103e-40)
(-7.1512452e-13 2.533235e-28 2.533235e-28)
(-5.2022289e-13 1.013294e-28 0)
(-3.0766617e-13 1.013294e-28 0)
(-4.3053138e-13 1.519941e-28 0)
(-4.3609531e-13 -1.4068579e-41 0)
(-6.3432486e-13 1.3898376e-43 0)
(-4.5765656e-13 8.5528471e-44 0)
(-4.4280764e-13 7.7186052e-56 0)
(-7.7800045e-13 -3.63496e-43 3.63496e-43)
(-8.0318477e-13 -5.06647e-29 2.8122758e-41)
(-6.1304423e-13 1.519941e-28 1.519941e-28)
(-6.4469631e-13 1.519941e-28 0)
(-6.3184269e-13 -1.013294e-28 0)
(-4.7145727e-13 -1.519941e-28 0)
(-4.696011e-13 1.4068579e-41 0)
(-5.3294006e-13 4.6671891e-43 0)
(-5.2119781e-13 -1.519941e-28 0)
(-4.5355823e-13 3.5999434e-44 0)
(-5.3208919e-13 5.06647e-29 -5.06647e-29)
(-5.5110977e-13 -2.8100984e-41 7.8206286e-54)
(-6.4549947e-13 2.026588e-28 2.026588e-28)
(-5.885541e-13 1.519941e-28 0)
(-4.6442679e-13 -1.013294e-28 0)
(-4.4882593e-13 -4.053176e-28 -2.026588e-28)
(-2.5328332e-13 5.6303115e-41 2.8151558e-41)
(-3.1538832e-13 -2.026588e-28 -1.013294e-28)
(-3.7337432e-13 5.06647e-29 0)
(-3.2786816e-13 1.823149e-59 0)
(-5.0494318e-13 2.0172277e-55 0)
(-4.6718743e-13 -1.4399774e-44 5.06647e-29)
(-4.760421e-13 2.533235e-28 7.0378894e-41)
(-3.221198e-13 0 -1.519941e-28)
(-3.9969954e-13 1.013294e-28 0)
(-3.9046706e-13 0 0)
(-5.0511498e-14 -5.06647e-29 0)
(-3.1613602e-13 0 0)
(-1.6051635e-13 0 0)
(-1.7240903e-13 0 0)
(-6.0138288e-13 5.06647e-29 0)
(-4.5615234e-13 -4.8788331e-57 5.06647e-29)
(-2.6286688e-13 -1.013294e-28 -1.4399774e-44)
(-5.0766819e-13 0 -5.06647e-29)
(-6.7676381e-13 2.026588e-28 0)
(-6.2103042e-13 -4.2205737e-41 0)
(-6.0317518e-13 -1.013294e-28 0)
(-6.0799573e-13 0 0)
(-5.5598903e-13 0 0)
(-5.8654341e-13 0 0)
(-4.7482583e-13 5.06647e-29 0)
(-5.8442147e-13 -1.4068579e-41 5.06647e-29)
(-5.0337554e-13 -1.519941e-28 2.1599661e-44)
(-2.9607452e-13 0 -1.013294e-28)
(-3.8828112e-13 -5.06647e-29 0)
(-5.2256772e-13 -4.2184137e-41 0)
(-3.3126258e-13 1.013294e-28 0)
(-4.4359801e-13 0 -5.06647e-29)
(-4.8987014e-13 5.06647e-29 2.8129958e-41)
(-4.5739648e-13 1.013294e-28 -1.013294e-28)
(-4.1044241e-13 -5.6303115e-41 0)
(-2.5657144e-13 -5.06647e-29 5.06647e-29)
(-2.9086962e-13 -1.013294e-28 -2.8151558e-41)
(-2.692746e-13 0 1.519941e-28)
(-2.287591e-13 -6.4146353e-44 0)
(-2.1817508e-13 -1.4068579e-41 0)
(-1.5414214e-13 1.519941e-28 -1.519941e-28)
(-1.9582962e-13 0 -5.06647e-29)
(-2.7919171e-13 -5.06647e-29 -5.06647e-29)
(-8.290167e-14 -5.06647e-29 5.06647e-29)
(-2.8074099e-13 -8.4411474e-41 0)
(-1.7434322e-13 2.533235e-28 0)
(1.6847697e-14 -5.6259916e-41 0)
(-7.2016898e-14 3.5999434e-44 0)
(-8.0317491e-14 -7.0378894e-41 -2.533235e-28)
(6.7863635e-14 1.4399774e-44 1.4399774e-44)