/*--------------------------------*- C++ -*----------------------------------*\
  =========                 |
  \\      /  F ield         | OpenFOAM: The Open Source CFD Toolbox
   \\    /   O peration     | Website:  https://openfoam.org
    \\  /    A nd           | Version:  7
     \\/     M anipulation  |
\*---------------------------------------------------------------------------*/
FoamFile
{
    version     2.0;
    format      ascii;
    class       volScalarField;
    location    "0.00115";
    object      mag(U);
}
// * * * * * * * * * * * * * * * * * * * * * * * * * * * * * * * * * * * * * //

dimensions      [0 1 -1 0 0 0 0];

internalField   nonuniform List<scalar> 
5000
(
1.579337e-11
1.9566439e-11
2.0687912e-11
2.1868098e-11
2.3201437e-11
2.4985112e-11
2.6771131e-11
2.8695253e-11
3.1035175e-11
3.3867574e-11
3.6534652e-11
3.9314985e-11
4.2626258e-11
4.6366501e-11
4.9884165e-11
5.4182082e-11
5.9079537e-11
6.3587309e-11
6.911217e-11
7.5112409e-11
8.1780871e-11
8.9033615e-11
9.6815133e-11
1.0433219e-10
1.1418857e-10
1.2468088e-10
1.3533325e-10
1.4710111e-10
1.6007423e-10
1.7418899e-10
1.8937583e-10
2.0639769e-10
2.2435077e-10
2.4356101e-10
2.6476005e-10
2.8849169e-10
3.1351769e-10
3.4070209e-10
3.7083509e-10
4.0289733e-10
4.3801091e-10
4.7622458e-10
5.1726491e-10
5.6218441e-10
6.1033901e-10
6.6330092e-10
7.2064203e-10
7.8302439e-10
8.5157066e-10
9.2430185e-10
1.0033862e-09
1.08958e-09
1.1828344e-09
1.2833846e-09
1.3932523e-09
1.512361e-09
1.6409679e-09
1.7802709e-09
1.9310192e-09
2.0947199e-09
2.2723361e-09
2.46428e-09
2.6714048e-09
2.8964428e-09
3.1395904e-09
3.4033429e-09
3.6885408e-09
3.9955499e-09
4.3291733e-09
4.6901063e-09
5.0789824e-09
5.5006025e-09
5.9559939e-09
6.4486225e-09
6.9810475e-09
7.5565362e-09
8.1783485e-09
8.8495792e-09
9.5741998e-09
1.0357896e-08
1.1202829e-08
1.2115032e-08
1.3101537e-08
1.4165373e-08
1.5314007e-08
1.6553024e-08
1.7889136e-08
1.9331238e-08
2.0886819e-08
2.2564016e-08
2.4373201e-08
2.6323133e-08
2.8425289e-08
3.0691357e-08
3.3132386e-08
3.5762609e-08
3.8597355e-08
4.1651076e-08
4.4939837e-08
4.8480802e-08
5.2293523e-08
5.6399e-08
6.0818642e-08
6.5574092e-08
7.0691998e-08
7.6198906e-08
8.2122572e-08
8.8494735e-08
9.5347798e-08
1.0271617e-07
1.1063908e-07
1.1915647e-07
1.2831082e-07
1.3814967e-07
1.4872177e-07
1.6007997e-07
1.7228085e-07
1.8538498e-07
1.9945728e-07
2.1456859e-07
2.307917e-07
2.4820639e-07
2.6689596e-07
2.8695172e-07
3.0847203e-07
3.3155859e-07
3.5632081e-07
3.8287866e-07
4.1135674e-07
4.4188818e-07
4.7461846e-07
5.0970081e-07
5.4729645e-07
5.8758147e-07
6.3074108e-07
6.769717e-07
7.2648663e-07
7.7951048e-07
8.3628499e-07
8.9706436e-07
9.6212157e-07
1.031748e-06
1.1062522e-06
1.1859649e-06
1.2712365e-06
1.3624418e-06
1.4599778e-06
1.5642681e-06
1.6757658e-06
1.7949481e-06
1.922327e-06
2.058445e-06
2.2038783e-06
2.359243e-06
2.5251907e-06
2.7024155e-06
2.8916533e-06
3.0936903e-06
3.3093592e-06
3.5395417e-06
3.7851781e-06
4.0472659e-06
4.3268639e-06
4.6250954e-06
4.9431536e-06
5.2823049e-06
5.6438931e-06
6.0293409e-06
6.4401602e-06
6.8779534e-06
7.3444181e-06
7.8413562e-06
8.3706775e-06
8.934402e-06
9.5346731e-06
1.0173763e-05
1.0854072e-05
1.1578149e-05
1.2348689e-05
1.3168543e-05
1.4040733e-05
1.4968453e-05
1.5955086e-05
1.7004205e-05
1.8119594e-05
1.9305255e-05
2.0565412e-05
2.1904539e-05
2.3327357e-05
2.483886e-05
2.6444321e-05
2.8149312e-05
2.9959714e-05
3.1881742e-05
3.3921952e-05
3.6087269e-05
3.8384999e-05
4.082285e-05
4.3408956e-05
4.6151894e-05
4.906071e-05
5.2144944e-05
5.5414651e-05
5.8880429e-05
6.2553447e-05
6.644547e-05
7.0568894e-05
7.4936776e-05
7.9562863e-05
8.4461629e-05
8.9648309e-05
9.5138937e-05
0.00010095039
0.00010710041
0.00011360767
0.0001204918
0.00012777345
0.00013547433
0.00014361723
0.00015222614
0.00016132623
0.00017094396
0.00018110711
0.00019184485
0.00020318781
0.00021516815
0.00022781959
0.00024117754
0.00025527912
0.00027016329
0.00028587089
0.00030244472
0.00031992968
0.0003383728
0.00035782335
0.00037833299
0.00039995577
0.00042274832
0.00044676995
0.00047208269
0.00049875151
0.00052684436
0.00055643233
0.00058758979
0.00062039449
0.00065492773
0.00069127448
0.00072952355
0.00076976775
0.000812104
0.00085663355
0.00090346211
0.00095270007
0.0010044626
0.00105887
0.0011160477
0.0011761265
0.0012392429
0.0013055392
0.0013751637
0.0014482711
0.0015250225
0.0016055857
0.0016901356
0.0017788543
0.0018719313
0.001969564
0.0020719577
0.0021793262
0.0022918918
0.0024098856
0.002533548
0.002663129
0.0027988884
0.002941096
0.0030900324
0.0032459887
0.0034092675
0.0035801829
0.0037590608
0.0039462395
0.00414207
0.0043469163
0.0045611561
0.0047851807
0.0050193961
0.0052642228
0.0055200964
0.0057874684
0.0060668062
0.0063585939
0.0066633325
0.0069815405
0.0073137544
0.0076605292
0.008022439
0.0084000771
0.0087940571
0.0092050129
0.0096335996
0.010080494
0.010546394
0.011032023
0.011538124
0.012065466
0.012614842
0.013187071
0.013782994
0.014403483
0.015049433
0.015721767
0.016421438
0.017149425
0.017906737
0.018694412
0.01951352
0.020365161
0.021250466
0.022170599
0.023126754
0.024120163
0.025152089
0.026223829
0.027336716
0.028492119
0.029691443
0.03093613
0.032227659
0.033567547
0.03495735
0.036398663
0.03789312
0.039442397
0.041048208
0.04271231
0.044436501
0.046222622
0.048072556
0.04998823
0.051971612
0.054024717
0.056149603
0.058348372
0.060623172
0.062976198
0.065409687
0.067925925
0.070527244
0.073216021
0.075994681
0.078865697
0.081831586
0.084894916
0.088058299
0.091324397
0.094695918
0.098175619
0.1017663
0.10547082
0.10929207
0.113233
0.1172966
0.12148591
0.12580402
0.13025406
0.1348392
0.13956268
0.14442777
0.14943777
0.15459605
0.159906
0.16537109
0.17099479
0.17678064
0.18273221
0.18885312
0.19514701
0.20161759
0.20826858
0.21510375
0.22212691
0.22934189
0.23675258
0.24436288
0.25217673
0.26019811
0.26843102
0.27687948
0.28554756
0.29443935
0.30355894
0.31291048
0.32249812
0.33232604
0.34239843
0.3527195
0.36329348
0.37412462
0.38521717
0.3965754
0.40820358
0.420106
0.43228695
0.44475073
0.45750162
0.47054393
0.48388196
0.49751999
0.51146232
0.52571323
0.54027699
0.55515787
0.57036011
0.58588796
0.60174562
0.61793731
0.6344672
0.65133946
0.66855821
0.68612758
0.70405163
0.72233443
0.74097998
0.75999228
0.77937528
0.7991329
0.81926899
0.8397874
0.86069193
0.8819863
0.90367422
0.92575934
0.94824526
0.97113552
0.99443363
1.018143
1.0422671
1.0668091
1.0917724
1.1171601
1.1429754
1.1692214
1.195901
1.2230173
1.250573
1.278571
1.3070141
1.3359048
1.3652457
1.3950394
1.4252884
1.4559948
1.4871611
1.5187895
1.5508819
1.5834406
1.6164674
1.6499643
1.6839329
1.7183751
1.7532924
1.7886864
1.8245585
1.8609101
1.8977426
1.935057
1.9728545
2.0111361
2.0499028
2.0891553
2.1288945
2.1691211
2.2098355
2.2510383
2.29273
2.3349108
2.3775809
2.4207406
2.4643898
2.5085286
2.5531567
2.5982741
2.6438805
2.6899754
2.7365584
2.7836289
2.8311864
2.8792301
2.9277592
2.9767729
3.0262702
3.07625
3.1267113
3.1776528
3.2290733
3.2809713
3.3333456
3.3861945
3.4395165
3.4933099
3.547573
3.6023039
3.6575009
3.7131619
3.7692849
3.8258679
3.8829086
3.9404048
3.9983543
4.0567547
4.1156036
4.1748984
4.2346366
4.2948157
4.3554328
4.4164854
4.4779705
4.5398854
4.6022272
4.6649928
4.7281793
4.7917835
4.8558024
4.9202328
4.9850714
5.050315
5.1159602
5.1820037
5.248442
5.3152717
5.3824892
5.450091
5.5180735
5.586433
5.6551659
5.7242684
5.7937367
5.8635671
5.9337556
6.0042984
6.0751916
6.1464313
6.2180133
6.2899338
6.3621886
6.4347736
6.5076847
6.5809178
6.6544687
6.7283331
6.8025068
6.8769855
6.9517649
7.0268406
7.1022084
7.1778638
7.2538025
7.3300198
7.4065115
7.483273
7.5602998
7.6375873
7.7151311
7.7929264
7.8709688
7.9492535
8.027776
8.1065316
8.1855155
8.2647231
8.3441496
8.4237904
8.5036405
8.5836953
8.6639499
8.7443995
8.8250393
8.9058643
8.9868698
9.0680508
9.1494024
9.2309197
9.3125977
9.3944315
9.4764161
9.5585465
9.6408176
9.7232245
9.805762
9.8884253
9.971209
10.054108
10.137118
10.220233
10.303448
10.386757
10.470157
10.553641
10.637205
10.720842
10.804549
10.888319
10.972148
11.05603
11.13996
11.223932
11.307941
11.391983
11.47605
11.560139
11.644244
11.728359
11.812479
11.896599
11.980712
12.064815
12.1489
12.232963
12.316998
12.400999
12.484962
12.56888
12.652748
12.73656
12.820312
12.903996
12.987608
13.071142
13.154592
13.237953
13.321218
13.404383
13.487442
13.570388
13.653217
13.735922
13.818497
13.900937
13.983237
14.06539
14.14739
14.229232
14.31091
14.392418
14.47375
14.554901
14.635864
14.716634
14.797205
14.877571
14.957726
15.037664
15.117379
15.196866
15.276119
15.355131
15.433897
15.51241
15.590666
15.668658
15.74638
15.823826
15.900991
15.977868
16.054452
16.130737
16.206716
16.282385
16.357737
16.432767
16.507468
16.581835
16.655862
16.729543
16.802873
16.875846
16.948456
17.020697
17.092564
17.164052
17.235154
17.305866
17.376181
17.446093
17.515599
17.584692
17.653367
17.721618
17.789441
17.856829
17.923779
17.990284
18.05634
18.121942
18.187084
18.251762
18.315971
18.379706
18.442963
18.505736
18.568022
18.629816
18.691112
18.751908
18.812199
18.871981
18.931249
18.99
19.048229
19.105934
19.16311
19.219753
19.275861
19.331429
19.386455
19.440935
19.494867
19.548247
19.601072
19.653341
19.70505
19.756196
19.806778
19.856794
19.90624
19.955116
20.00342
20.05115
20.098303
20.14488
20.190879
20.236298
20.281137
20.325395
20.369072
20.412166
20.454677
20.496606
20.537952
20.578715
20.618896
20.658495
20.697513
20.73595
20.773807
20.811085
20.847787
20.883911
20.919462
20.954439
20.988845
21.022683
21.055953
21.088658
21.120802
21.152386
21.183413
21.213886
21.243808
21.273182
21.302013
21.330302
21.358054
21.385273
21.411962
21.438125
21.463767
21.488892
21.513504
21.537608
21.561209
21.58431
21.606918
21.629036
21.650671
21.671827
21.69251
21.712725
21.732477
21.751772
21.770615
21.789013
21.806971
21.824495
21.841591
21.858264
21.874522
21.890369
21.905812
21.920857
21.935511
21.949779
21.963668
21.977185
21.990334
22.003124
22.01556
22.027648
22.039396
22.050808
22.061892
22.072654
22.0831
22.093237
22.103071
22.112608
22.121854
22.130816
22.1395
22.147911
22.156057
22.163943
22.171574
22.178958
22.1861
22.193006
22.199681
22.206131
22.212363
22.218381
22.224191
22.229799
22.23521
22.240429
22.245461
22.250313
22.254987
22.259491
22.263828
22.268004
22.272024
22.275891
22.27961
22.283187
22.286625
22.289928
22.293102
22.29615
22.299076
22.301884
22.304578
22.307162
22.30964
22.312014
22.31429
22.316469
22.318556
22.320554
22.322465
22.324294
22.326043
22.327715
22.329312
22.330839
22.332297
22.333688
22.335017
22.336284
22.337493
22.338645
22.339744
22.34079
22.341787
22.342736
22.34364
22.3445
22.345317
22.346095
22.346834
22.347536
22.348203
22.348836
22.349438
22.350008
22.350549
22.351062
22.351548
22.352009
22.352445
22.352858
22.353249
22.353619
22.353969
22.3543
22.354612
22.354907
22.355186
22.355449
22.355698
22.355932
22.356153
22.356361
22.356557
22.356742
22.356915
22.357079
22.357233
22.357377
22.357513
22.357641
22.357761
22.357873
22.357979
22.358078
22.358171
22.358258
22.35834
22.358417
22.358488
22.358555
22.358618
22.358677
22.358732
22.358783
22.358831
22.358876
22.358917
22.358956
22.358992
22.359025
22.359056
22.359084
22.359109
22.359132
22.359153
22.359171
22.359187
22.359199
22.359212
22.359225
22.359231
22.359237
22.359256
22.359275
22.359282
22.359283
22.359307
22.35934
22.359362
22.359371
22.35939
22.359418
22.35944
22.359451
22.359464
22.359488
22.359519
22.359546
22.359564
22.359577
22.3596
22.359626
22.359646
22.359663
22.359684
22.359709
22.359731
22.35975
22.359769
22.359791
22.359815
22.359836
22.359854
22.359873
22.359894
22.359913
22.359929
22.359945
22.359964
22.359984
22.36
22.360015
22.360031
22.360048
22.360065
22.36008
22.360095
22.360109
22.360122
22.360136
22.360149
22.36016
22.360171
22.360179
22.360188
22.360199
22.360212
22.360219
22.360223
22.360236
22.360255
22.360262
22.360266
22.360282
22.360304
22.360313
22.360315
22.360329
22.360355
22.360371
22.360376
22.360384
22.360405
22.360423
22.360433
22.36044
22.360456
22.360476
22.36049
22.360501
22.360514
22.36053
22.360544
22.360552
22.360561
22.360577
22.360592
22.360599
22.360605
22.360619
22.360634
22.360641
22.360646
22.360658
22.360674
22.360685
22.36069
22.3607
22.360716
22.360727
22.360734
22.360744
22.36076
22.360773
22.360783
22.360792
22.360807
22.360819
22.360828
22.360836
22.360849
22.360862
22.360869
22.360876
22.360889
22.360901
22.360908
22.360913
22.360924
22.360938
22.360948
22.360955
22.360965
22.36098
22.360995
22.361008
22.361021
22.361033
22.361042
22.361051
22.36106
22.36107
22.361079
22.361089
22.361098
22.361107
22.361116
22.361126
22.361136
22.361147
22.36116
22.361173
22.361189
22.361212
22.361219
22.361209
22.3612
22.36121
22.361217
22.361218
22.361216
22.361217
22.36122
22.361215
22.361213
22.361216
22.361209
22.361207
22.361218
22.361214
22.361196
22.36119
22.361194
22.361197
22.361195
22.361192
22.361197
22.361207
22.361217
22.361227
22.361239
22.361254
22.361271
22.361289
22.361307
22.361326
22.36134
22.361355
22.361369
22.361382
22.361389
22.361395
22.361403
22.36141
22.361417
22.361425
22.361433
22.361442
22.361451
22.361456
22.361462
22.361469
22.361474
22.361476
22.361479
22.361481
22.361484
22.361487
22.361491
22.361495
22.361495
22.361493
22.361494
22.361494
22.361494
22.361496
22.361494
22.361488
22.361488
22.36149
22.361488
22.361482
22.361475
22.361475
22.361476
22.361477
22.361478
22.36148
22.361482
22.361483
22.361483
22.361483
22.361482
22.361482
22.361483
22.361486
22.361491
22.36149
22.361485
22.361484
22.361486
22.361487
22.361488
22.36149
22.361491
22.361491
22.361491
22.361489
22.361486
22.361488
22.361487
22.361485
22.361484
22.361483
22.361483
22.361484
22.361486
22.361487
22.36149
22.361493
22.361496
22.361497
22.361498
22.3615
22.361499
22.361498
22.3615
22.361502
22.361501
22.361499
22.361499
22.361499
22.3615
22.361501
22.361502
22.361503
22.361504
22.361504
22.361504
22.361504
22.361505
22.361504
22.361502
22.361499
22.361496
22.361496
22.361496
22.361495
22.361494
22.361493
22.361489
22.361487
22.361488
22.361487
22.361484
22.361481
22.361481
22.361481
22.36148
22.361478
22.361475
22.361471
22.36147
22.361471
22.361471
22.361469
22.361465
22.361463
22.361463
22.361463
22.361461
22.361458
22.361453
22.361452
22.361452
22.36145
22.361447
22.361441
22.36144
22.36144
22.361439
22.361437
22.361433
22.361429
22.361424
22.361423
22.361422
22.361419
22.361415
22.361409
22.361406
22.361405
22.361403
22.3614
22.361397
22.361393
22.361389
22.361387
22.361385
22.361382
22.361378
22.361373
22.361372
22.361371
22.361368
22.361364
22.36136
22.361359
22.361356
22.361352
22.361348
22.361348
22.361347
22.361345
22.361342
22.361339
22.361337
22.361334
22.361331
22.361329
22.361327
22.361325
22.361322
22.36132
22.361318
22.361315
22.361313
22.361311
22.361309
22.361306
22.361303
22.3613
22.361299
22.361297
22.361294
22.36129
22.361287
22.361286
22.361284
22.361282
22.361279
22.361275
22.361273
22.361272
22.36127
22.361267
22.361264
22.361261
22.361259
22.361258
22.361257
22.361254
22.361251
22.361249
22.361248
22.361246
22.361244
22.361241
22.361239
22.361239
22.361237
22.361235
22.361232
22.36123
22.361229
22.361227
22.361225
22.361223
22.36122
22.361219
22.361217
22.361216
22.361214
22.361213
22.36121
22.361208
22.361205
22.361203
22.361202
22.361199
22.361196
22.361193
22.361192
22.36119
22.361188
22.361184
22.361181
22.361179
22.361177
22.361174
22.361171
22.361168
22.361166
22.361164
22.361162
22.361158
22.361154
22.361152
22.361151
22.361149
22.361147
22.361144
22.361141
22.361138
22.361135
22.361134
22.361133
22.361131
22.361129
22.361126
22.361123
22.361121
22.361121
22.36112
22.361118
22.361116
22.361113
22.361111
22.361109
22.361109
22.361108
22.361107
22.361105
22.361103
22.3611
22.361099
22.361099
22.361098
22.361096
22.361094
22.361092
22.36109
22.361089
22.361089
22.361088
22.361086
22.361084
22.361082
22.361081
22.36108
22.361079
22.361077
22.361075
22.361073
22.361072
22.361072
22.36107
22.361068
22.361066
22.361064
22.361063
22.361062
22.361061
22.361059
22.361057
22.361056
22.361054
22.361053
22.361052
22.36105
22.361048
22.361047
22.361046
22.361044
22.361043
22.361041
22.36104
22.361038
22.361037
22.361035
22.361033
22.361032
22.361031
22.36103
22.361028
22.361026
22.361024
22.361023
22.361022
22.36102
22.361019
22.361017
22.361014
22.361013
22.361012
22.36101
22.361008
22.361006
22.361004
22.361002
22.361001
22.360999
22.360997
22.360995
22.360993
22.360991
22.360989
22.360987
22.360985
22.360983
22.36098
22.360978
22.360976
22.360974
22.360972
22.360971
22.360968
22.360966
22.360963
22.360961
22.36096
22.360958
22.360956
22.360954
22.360952
22.36095
22.360948
22.360946
22.360945
22.360943
22.360941
22.360939
22.360937
22.360936
22.360934
22.360933
22.360931
22.36093
22.360928
22.360926
22.360925
22.360924
22.360922
22.360921
22.36092
22.360918
22.360916
22.360915
22.360915
22.360913
22.360912
22.36091
22.360908
22.360907
22.360906
22.360905
22.360904
22.360903
22.360901
22.3609
22.360898
22.360897
22.360896
22.360895
22.360893
22.360892
22.36089
22.360889
22.360888
22.360886
22.360885
22.360884
22.360883
22.360881
22.360879
22.360878
22.360877
22.360876
22.360874
22.360873
22.360871
22.36087
22.360869
22.360868
22.360866
22.360865
22.360863
22.360861
22.36086
22.36086
22.360859
22.360857
22.360856
22.360854
22.360853
22.360851
22.360851
22.36085
22.360849
22.360848
22.360847
22.360845
22.360844
22.360843
22.360842
22.360841
22.36084
22.360839
22.360838
22.360837
22.360836
22.360835
22.360834
22.360833
22.360832
22.360832
22.360831
22.36083
22.360829
22.360827
22.360826
22.360826
22.360825
22.360824
22.360823
22.360822
22.360821
22.36082
22.360819
22.360818
22.360816
22.360815
22.360814
22.360813
22.360812
22.36081
22.360809
22.360808
22.360807
22.360805
22.360804
22.360802
22.360801
22.3608
22.360798
22.360797
22.360795
22.360793
22.360792
22.360791
22.360789
22.360788
22.360786
22.360784
22.360782
22.360781
22.36078
22.360778
22.360777
22.360775
22.360773
22.360771
22.36077
22.360768
22.360767
22.360766
22.360765
22.360763
22.360761
22.36076
22.360759
22.360758
22.360757
22.360756
22.360754
22.360753
22.360751
22.360751
22.36075
22.360749
22.360748
22.360746
22.360745
22.360745
22.360744
22.360743
22.360742
22.360741
22.36074
22.36074
22.360739
22.360738
22.360738
22.360737
22.360736
22.360736
22.360735
22.360735
22.360734
22.360733
22.360732
22.360732
22.360732
22.360731
22.36073
22.36073
22.360729
22.360728
22.360728
22.360727
22.360726
22.360726
22.360725
22.360725
22.360724
22.360723
22.360722
22.360721
22.360721
22.36072
22.360719
22.360719
22.360718
22.360717
22.360716
22.360715
22.360714
22.360714
22.360713
22.360712
22.360711
22.36071
22.360709
22.360708
22.360708
22.360707
22.360706
22.360705
22.360703
22.360703
22.360702
22.360701
22.3607
22.360699
22.360698
22.360697
22.360696
22.360695
22.360694
22.360693
22.360691
22.36069
22.36069
22.360689
22.360688
22.360687
22.360686
22.360684
22.360683
22.360682
22.360681
22.36068
22.360679
22.360678
22.360677
22.360677
22.360675
22.360674
22.360673
22.360672
22.360671
22.36067
22.360669
22.360668
22.360667
22.360666
22.360665
22.360663
22.360662
22.360661
22.36066
22.360659
22.360658
22.360657
22.360656
22.360654
22.360654
22.360653
22.360652
22.36065
22.360649
22.360648
22.360647
22.360646
22.360645
22.360644
22.360643
22.360642
22.360641
22.360639
22.360638
22.360637
22.360636
22.360635
22.360634
22.360633
22.360632
22.36063
22.360629
22.360628
22.360627
22.360626
22.360624
22.360623
22.360622
22.360621
22.36062
22.360619
22.360618
22.360616
22.360615
22.360614
22.360613
22.360612
22.360611
22.360609
22.360608
22.360607
22.360606
22.360605
22.360604
22.360603
22.360601
22.3606
22.360599
22.360598
22.360597
22.360596
22.360594
22.360593
22.360592
22.360591
22.36059
22.360589
22.360588
22.360586
22.360585
22.360584
22.360583
22.360582
22.360581
22.36058
22.360579
22.360577
22.360576
22.360575
22.360574
22.360573
22.360572
22.360571
22.36057
22.360569
22.360567
22.360566
22.360566
22.360565
22.360564
22.360562
22.360561
22.36056
22.360559
22.360558
22.360557
22.360557
22.360556
22.360554
22.360553
22.360552
22.360551
22.36055
22.360549
22.360548
22.360548
22.360547
22.360546
22.360545
22.360544
22.360543
22.360542
22.360541
22.36054
22.360539
22.360538
22.360538
22.360537
22.360536
22.360535
22.360534
22.360533
22.360533
22.360532
22.360531
22.360531
22.36053
22.360529
22.360528
22.360527
22.360527
22.360526
22.360525
22.360524
22.360523
22.360523
22.360522
22.360522
22.360521
22.36052
22.360519
22.360519
22.360518
22.360517
22.360517
22.360516
22.360515
22.360514
22.360513
22.360513
22.360512
22.360512
22.360511
22.360511
22.36051
22.360509
22.360508
22.360507
22.360506
22.360506
22.360505
22.360504
22.360504
22.360503
22.360503
22.360502
22.360501
22.3605
22.360499
22.360498
22.360498
22.360497
22.360496
22.360495
22.360494
22.360493
22.360493
22.360492
22.360491
22.36049
22.36049
22.360489
22.360488
22.360487
22.360486
22.360485
22.360484
22.360483
22.360482
22.360481
22.360481
22.36048
22.360479
22.360478
22.360477
22.360476
22.360475
22.360474
22.360473
22.360472
22.360471
22.36047
22.360469
22.360468
22.360468
22.360467
22.360466
22.360465
22.360464
22.360463
22.360462
22.360461
22.36046
22.360459
22.360458
22.360457
22.360456
22.360455
22.360455
22.360454
22.360453
22.360452
22.360451
22.36045
22.360449
22.360448
22.360448
22.360447
22.360446
22.360445
22.360444
22.360443
22.360442
22.360442
22.360441
22.36044
22.360439
22.360438
22.360437
22.360437
22.360436
22.360435
22.360434
22.360434
22.360433
22.360432
22.360431
22.36043
22.36043
22.360429
22.360428
22.360427
22.360427
22.360426
22.360426
22.360425
22.360424
22.360423
22.360422
22.360422
22.360421
22.360421
22.36042
22.360419
22.360419
22.360418
22.360417
22.360417
22.360416
22.360415
22.360415
22.360414
22.360413
22.360413
22.360412
22.360412
22.360411
22.36041
22.36041
22.360409
22.360409
22.360408
22.360407
22.360407
22.360406
22.360405
22.360405
22.360404
22.360404
22.360403
22.360402
22.360402
22.360401
22.360401
22.3604
22.3604
22.360399
22.360398
22.360397
22.360397
22.360396
22.360396
22.360395
22.360394
22.360394
22.360393
22.360392
22.360392
22.360391
22.360391
22.36039
22.360389
22.360388
22.360387
22.360387
22.360386
22.360386
22.360385
22.360384
22.360383
22.360383
22.360382
22.360381
22.360381
22.36038
22.360379
22.360378
22.360377
22.360377
22.360376
22.360375
22.360375
22.360374
22.360373
22.360372
22.360371
22.360371
22.36037
22.360369
22.360368
22.360367
22.360366
22.360366
22.360365
22.360364
22.360363
22.360362
22.360362
22.360361
22.36036
22.360359
22.360358
22.360357
22.360357
22.360356
22.360355
22.360354
22.360353
22.360352
22.360351
22.360351
22.36035
22.36035
22.360349
22.360348
22.360347
22.360346
22.360345
22.360344
22.360344
22.360343
22.360342
22.360342
22.360341
22.36034
22.360339
22.360338
22.360338
22.360337
22.360336
22.360336
22.360335
22.360334
22.360333
22.360332
22.360332
22.360331
22.360331
22.36033
22.360329
22.360328
22.360327
22.360327
22.360326
22.360326
22.360325
22.360324
22.360323
22.360323
22.360322
22.360322
22.360321
22.36032
22.36032
22.360319
22.360318
22.360318
22.360317
22.360316
22.360316
22.360315
22.360315
22.360314
22.360314
22.360313
22.360312
22.360312
22.360311
22.36031
22.36031
22.360309
22.360309
22.360308
22.360308
22.360307
22.360306
22.360306
22.360305
22.360305
22.360304
22.360304
22.360303
22.360303
22.360302
22.360302
22.360301
22.3603
22.3603
22.360299
22.360299
22.360298
22.360298
22.360297
22.360297
22.360296
22.360296
22.360295
22.360295
22.360294
22.360294
22.360293
22.360293
22.360292
22.360291
22.360291
22.36029
22.36029
22.360289
22.360289
22.360288
22.360287
22.360287
22.360286
22.360286
22.360285
22.360285
22.360284
22.360283
22.360283
22.360282
22.360282
22.360281
22.36028
22.36028
22.360279
22.360278
22.360278
22.360277
22.360276
22.360276
22.360275
22.360274
22.360273
22.360273
22.360272
22.360271
22.360271
22.36027
22.360269
22.360268
22.360268
22.360267
22.360266
22.360265
22.360264
22.360263
22.360262
22.360262
22.360261
22.36026
22.360259
22.360258
22.360257
22.360256
22.360256
22.360255
22.360254
22.360253
22.360252
22.360251
22.36025
22.360249
22.360248
22.360247
22.360247
22.360246
22.360245
22.360244
22.360243
22.360242
22.360241
22.36024
22.360239
22.360239
22.360238
22.360237
22.360236
22.360235
22.360234
22.360233
22.360232
22.360231
22.360231
22.36023
22.360229
22.360228
22.360227
22.360226
22.360225
22.360224
22.360224
22.360223
22.360222
22.360221
22.36022
22.360219
22.360219
22.360218
22.360217
22.360216
22.360215
22.360214
22.360214
22.360213
22.360212
22.360211
22.36021
22.36021
22.360209
22.360208
22.360207
22.360207
22.360206
22.360205
22.360204
22.360204
22.360203
22.360202
22.360201
22.360201
22.3602
22.360199
22.360199
22.360198
22.360197
22.360196
22.360196
22.360195
22.360195
22.360194
22.360193
22.360192
22.360192
22.360191
22.36019
22.36019
22.360189
22.360189
22.360188
22.360187
22.360187
22.360186
22.360185
22.360185
22.360184
22.360184
22.360183
22.360182
22.360182
22.360181
22.360181
22.36018
22.36018
22.360179
22.360179
22.360178
22.360177
22.360177
22.360176
22.360176
22.360176
22.360175
22.360174
22.360174
22.360173
22.360173
22.360173
22.360172
22.360172
22.360171
22.36017
22.36017
22.36017
22.360169
22.360169
22.360168
22.360168
22.360167
22.360167
22.360167
22.360166
22.360166
22.360165
22.360165
22.360164
22.360164
22.360164
22.360163
22.360163
22.360162
22.360162
22.360161
22.360161
22.360161
22.36016
22.36016
22.360159
22.360159
22.360158
22.360158
22.360157
22.360157
22.360156
22.360156
22.360155
22.360155
22.360155
22.360154
22.360154
22.360153
22.360152
22.360152
22.360152
22.360151
22.360151
22.36015
22.36015
22.360149
22.360148
22.360148
22.360147
22.360147
22.360146
22.360146
22.360145
22.360145
22.360144
22.360143
22.360143
22.360142
22.360142
22.360141
22.360141
22.36014
22.360139
22.360139
22.360138
22.360138
22.360137
22.360136
22.360136
22.360135
22.360134
22.360134
22.360133
22.360132
22.360132
22.360131
22.36013
22.36013
22.360129
22.360128
22.360128
22.360127
22.360126
22.360126
22.360125
22.360124
22.360124
22.360123
22.360122
22.360122
22.360121
22.36012
22.36012
22.360119
22.360118
22.360118
22.360117
22.360116
22.360115
22.360115
22.360114
22.360114
22.360113
22.360112
22.360111
22.360111
22.36011
22.360109
22.360109
22.360108
22.360107
22.360106
22.360106
22.360105
22.360104
22.360104
22.360103
22.360102
22.360102
22.360101
22.3601
22.360099
22.360099
22.360098
22.360097
22.360097
22.360096
22.360095
22.360094
22.360094
22.360093
22.360092
22.360092
22.360091
22.36009
22.360089
22.360089
22.360088
22.360087
22.360086
22.360086
22.360085
22.360084
22.360083
22.360083
22.360082
22.360081
22.36008
22.36008
22.360079
22.360078
22.360077
22.360076
22.360076
22.360075
22.360074
22.360074
22.360073
22.360072
22.360071
22.36007
22.36007
22.360069
22.360068
22.360067
22.360066
22.360065
22.360065
22.360064
22.360063
22.360062
22.360062
22.360061
22.36006
22.360059
22.360059
22.360058
22.360057
22.360056
22.360055
22.360055
22.360054
22.360053
22.360052
22.360052
22.360051
22.36005
22.360049
22.360049
22.360048
22.360047
22.360046
22.360046
22.360045
22.360044
22.360043
22.360043
22.360042
22.360041
22.360041
22.36004
22.360039
22.360039
22.360038
22.360037
22.360037
22.360036
22.360035
22.360035
22.360034
22.360034
22.360033
22.360032
22.360032
22.360031
22.360031
22.36003
22.360029
22.360029
22.360028
22.360028
22.360027
22.360027
22.360026
22.360025
22.360025
22.360024
22.360024
22.360023
22.360023
22.360023
22.360022
22.360021
22.360021
22.36002
22.36002
22.36002
22.360019
22.360018
22.360018
22.360017
22.360016
22.360016
22.360015
22.360014
22.360014
22.360014
22.360014
22.360015
22.360015
22.360016
22.360017
22.360018
22.360018
22.360017
22.360015
22.360011
22.360006
22.359999
22.359992
22.359986
22.35998
22.359978
22.359981
22.35999
22.360009
22.360041
22.360095
22.360193
22.360405
22.360879
22.362379
22.362102
22.360195
22.35962
22.359956
22.36003
22.359966
22.359939
22.359944
22.359951
22.359957
22.359967
22.359979
22.35999
22.36
22.360008
22.360014
22.360019
22.360023
22.360025
22.360027
22.360028
22.360028
22.360028
22.360027
22.360027
22.360026
22.360025
22.360024
22.360023
22.360022
22.360021
22.360019
22.36001
22.360011
22.360019
22.36002
22.360019
22.360019
22.360019
22.360018
22.360018
22.360018
22.360018
22.360017
22.360017
22.360016
22.360016
22.360015
22.360015
22.360014
22.360014
22.360013
22.360013
22.360012
22.360012
22.360011
22.36001
22.36001
22.360009
22.360008
22.360008
22.360007
22.360006
22.360006
22.360005
22.360004
22.360003
22.360003
22.360002
22.360001
22.36
22.36
22.359999
22.359998
22.359997
22.359997
22.359996
22.359995
22.359995
22.359994
22.359993
22.359992
22.359992
22.359991
22.35999
22.35999
22.359989
22.359988
22.359987
22.359987
22.359986
22.359985
22.359985
22.359984
22.359983
22.359983
22.359982
22.359981
22.359981
22.35998
22.359979
22.359979
22.359978
22.359977
22.359977
22.359976
22.359975
22.359975
22.359974
22.359974
22.359973
22.359972
22.359972
22.359971
22.359971
22.35997
22.359969
22.359969
22.359968
22.359968
22.359967
22.359966
22.359966
22.359965
22.359965
22.359964
22.359963
22.359963
22.359962
22.359962
22.359961
22.359961
22.35996
22.359959
22.359959
22.359958
22.359958
22.359957
22.359957
22.359956
22.359956
22.359955
22.359955
22.359954
22.359954
22.359953
22.359953
22.359952
22.359952
22.359951
22.359951
22.35995
22.35995
22.35995
22.359949
22.359949
22.359948
22.359948
22.359947
22.359947
22.359946
22.359946
22.359945
22.359945
22.359944
22.359944
22.359944
22.359943
22.359943
22.359942
22.359942
22.359941
22.359941
22.35994
22.35994
22.359939
22.359939
22.359938
22.359937
22.359937
22.359936
22.359936
22.359935
22.359935
22.359934
22.359934
22.359933
22.359933
22.359932
22.359932
22.359931
22.35993
22.35993
22.359929
22.359929
22.359928
22.359928
22.359927
22.359926
22.359926
22.359925
22.359925
22.359924
22.359923
22.359923
22.359922
22.359922
22.359921
22.35992
22.35992