/*--------------------------------*- C++ -*----------------------------------*\
  =========                 |
  \\      /  F ield         | OpenFOAM: The Open Source CFD Toolbox
   \\    /   O peration     | Website:  https://openfoam.org
    \\  /    A nd           | Version:  7
     \\/     M anipulation  |
\*---------------------------------------------------------------------------*/
FoamFile
{
    version     2.0;
    format      ascii;
    class       volScalarField;
    location    "0.00248";
    object      rho;
}
// * * * * * * * * * * * * * * * * * * * * * * * * * * * * * * * * * * * * * //

dimensions      [1 -3 0 0 0 0 0];

internalField   nonuniform List<scalar> 
5000
(
1.2479589
1.2479589
1.2479592
1.2479595
1.2479597
1.2479599
1.24796
1.2479601
1.2479602
1.2479602
1.2479603
1.2479603
1.2479603
1.2479603
1.2479603
1.2479603
1.2479603
1.2479604
1.2479604
1.2479604
1.2479604
1.2479604
1.2479604
1.2479604
1.2479604
1.2479604
1.2479604
1.2479604
1.2479604
1.2479604
1.2479604
1.2479604
1.2479604
1.2479604
1.2479604
1.2479604
1.2479604
1.2479604
1.2479604
1.2479604
1.2479604
1.2479604
1.2479604
1.2479604
1.2479604
1.2479604
1.2479604
1.2479604
1.2479604
1.2479604
1.2479604
1.2479604
1.2479604
1.2479604
1.2479604
1.2479604
1.2479604
1.2479604
1.2479604
1.2479604
1.2479604
1.2479604
1.2479604
1.2479604
1.2479604
1.2479604
1.2479604
1.2479604
1.2479604
1.2479604
1.2479604
1.2479604
1.2479604
1.2479604
1.2479604
1.2479604
1.2479604
1.2479604
1.2479604
1.2479604
1.2479604
1.2479604
1.2479604
1.2479604
1.2479604
1.2479604
1.2479604
1.2479604
1.2479604
1.2479604
1.2479604
1.2479604
1.2479604
1.2479604
1.2479604
1.2479604
1.2479604
1.2479603
1.2479603
1.2479603
1.2479603
1.2479603
1.2479603
1.2479603
1.2479603
1.2479603
1.2479603
1.2479603
1.2479603
1.2479603
1.2479603
1.2479603
1.2479603
1.2479603
1.2479603
1.2479603
1.2479603
1.2479603
1.2479603
1.2479603
1.2479603
1.2479603
1.2479603
1.2479603
1.2479603
1.2479603
1.2479603
1.2479603
1.2479603
1.2479603
1.2479603
1.2479603
1.2479603
1.2479603
1.2479603
1.2479603
1.2479603
1.2479603
1.2479603
1.2479603
1.2479603
1.2479603
1.2479603
1.2479603
1.2479603
1.2479603
1.2479603
1.2479603
1.2479603
1.2479603
1.2479603
1.2479603
1.2479603
1.2479603
1.2479603
1.2479603
1.2479603
1.2479603
1.2479603
1.2479603
1.2479603
1.2479603
1.2479603
1.2479603
1.2479603
1.2479603
1.2479603
1.2479603
1.2479603
1.2479603
1.2479603
1.2479603
1.2479603
1.2479603
1.2479603
1.2479603
1.2479603
1.2479603
1.2479603
1.2479603
1.2479603
1.2479603
1.2479603
1.2479603
1.2479603
1.2479603
1.2479603
1.2479603
1.2479603
1.2479603
1.2479603
1.2479603
1.2479603
1.2479603
1.2479603
1.2479604
1.2479604
1.2479604
1.2479604
1.2479604
1.2479604
1.2479604
1.2479604
1.2479604
1.2479604
1.2479604
1.2479604
1.2479604
1.2479604
1.2479604
1.2479604
1.2479604
1.2479604
1.2479604
1.2479604
1.2479604
1.2479604
1.2479604
1.2479604
1.2479604
1.2479604
1.2479604
1.2479604
1.2479604
1.2479604
1.2479604
1.2479604
1.2479604
1.2479604
1.2479604
1.2479604
1.2479604
1.2479604
1.2479604
1.2479604
1.2479604
1.2479604
1.2479604
1.2479604
1.2479604
1.2479604
1.2479604
1.2479604
1.2479604
1.2479604
1.2479604
1.2479604
1.2479604
1.2479604
1.2479605
1.2479605
1.2479605
1.2479605
1.2479605
1.2479605
1.2479605
1.2479605
1.2479605
1.2479605
1.2479605
1.2479605
1.2479605
1.2479605
1.2479605
1.2479605
1.2479605
1.2479605
1.2479605
1.2479605
1.2479605
1.2479605
1.2479605
1.2479605
1.2479605
1.2479605
1.2479605
1.2479605
1.2479605
1.2479605
1.2479605
1.2479605
1.2479605
1.2479605
1.2479605
1.2479605
1.2479605
1.2479605
1.2479605
1.2479606
1.2479606
1.2479606
1.2479606
1.2479606
1.2479606
1.2479606
1.2479606
1.2479606
1.2479606
1.2479606
1.2479606
1.2479606
1.2479606
1.2479606
1.2479606
1.2479606
1.2479606
1.2479606
1.2479606
1.2479606
1.2479606
1.2479606
1.2479606
1.2479606
1.2479606
1.2479606
1.2479606
1.2479606
1.2479606
1.2479606
1.2479606
1.2479606
1.2479606
1.2479606
1.2479606
1.2479606
1.2479606
1.2479607
1.2479607
1.2479607
1.2479607
1.2479607
1.2479607
1.2479607
1.2479607
1.2479607
1.2479607
1.2479607
1.2479607
1.2479607
1.2479607
1.2479607
1.2479607
1.2479607
1.2479607
1.2479607
1.2479607
1.2479607
1.2479607
1.2479607
1.2479607
1.2479607
1.2479607
1.2479607
1.2479607
1.2479607
1.2479607
1.2479607
1.2479607
1.2479607
1.2479607
1.2479607
1.2479607
1.2479607
1.2479608
1.2479608
1.2479608
1.2479608
1.2479608
1.2479608
1.2479608
1.2479608
1.2479608
1.2479608
1.2479608
1.2479608
1.2479608
1.2479608
1.2479608
1.2479608
1.2479608
1.2479608
1.2479608
1.2479608
1.2479608
1.2479608
1.2479608
1.2479608
1.2479608
1.2479608
1.2479608
1.2479608
1.2479608
1.2479608
1.2479608
1.2479608
1.2479608
1.2479608
1.2479608
1.2479608
1.2479608
1.2479609
1.2479609
1.2479609
1.2479609
1.2479609
1.2479609
1.2479609
1.2479609
1.2479609
1.2479609
1.2479609
1.2479609
1.2479609
1.2479609
1.2479609
1.2479609
1.2479609
1.2479609
1.2479609
1.2479609
1.2479609
1.2479609
1.2479609
1.2479609
1.2479609
1.2479609
1.2479609
1.2479609
1.2479609
1.2479609
1.2479609
1.2479609
1.2479609
1.2479609
1.2479609
1.2479609
1.2479609
1.2479609
1.2479609
1.247961
1.247961
1.247961
1.247961
1.247961
1.247961
1.247961
1.247961
1.247961
1.247961
1.247961
1.247961
1.247961
1.247961
1.247961
1.247961
1.247961
1.247961
1.247961
1.247961
1.247961
1.247961
1.247961
1.247961
1.247961
1.247961
1.247961
1.247961
1.247961
1.247961
1.247961
1.247961
1.247961
1.247961
1.247961
1.247961
1.247961
1.247961
1.247961
1.2479611
1.2479611
1.2479611
1.2479611
1.2479611
1.2479611
1.2479611
1.2479611
1.2479611
1.2479611
1.2479611
1.2479611
1.2479611
1.2479611
1.2479611
1.2479611
1.2479611
1.2479611
1.2479611
1.2479611
1.2479611
1.2479611
1.2479611
1.2479611
1.2479611
1.2479611
1.2479611
1.2479611
1.2479611
1.2479611
1.2479611
1.2479611
1.2479611
1.2479611
1.2479611
1.2479611
1.2479611
1.2479612
1.2479612
1.2479612
1.2479612
1.2479612
1.2479612
1.2479612
1.2479612
1.2479612
1.2479612
1.2479612
1.2479612
1.2479612
1.2479612
1.2479612
1.2479612
1.2479612
1.2479612
1.2479612
1.2479612
1.2479612
1.2479612
1.2479612
1.2479612
1.2479612
1.2479612
1.2479612
1.2479612
1.2479612
1.2479612
1.2479612
1.2479612
1.2479612
1.2479612
1.2479613
1.2479613
1.2479613
1.2479613
1.2479613
1.2479613
1.2479613
1.2479613
1.2479613
1.2479613
1.2479613
1.2479613
1.2479613
1.2479613
1.2479613
1.2479613
1.2479613
1.2479613
1.2479613
1.2479613
1.2479613
1.2479613
1.2479613
1.2479613
1.2479613
1.2479613
1.2479613
1.2479613
1.2479613
1.2479613
1.2479614
1.2479614
1.2479614
1.2479614
1.2479614
1.2479614
1.2479614
1.2479614
1.2479614
1.2479614
1.2479614
1.2479614
1.2479614
1.2479614
1.2479614
1.2479614
1.2479614
1.2479614
1.2479614
1.2479614
1.2479614
1.2479614
1.2479614
1.2479614
1.2479614
1.2479614
1.2479614
1.2479615
1.2479615
1.2479615
1.2479615
1.2479615
1.2479615
1.2479615
1.2479615
1.2479615
1.2479615
1.2479615
1.2479615
1.2479615
1.2479615
1.2479615
1.2479615
1.2479615
1.2479615
1.2479615
1.2479615
1.2479615
1.2479615
1.2479615
1.2479615
1.2479616
1.2479616
1.2479616
1.2479616
1.2479616
1.2479616
1.2479616
1.2479616
1.2479616
1.2479616
1.2479616
1.2479616
1.2479616
1.2479616
1.2479616
1.2479616
1.2479616
1.2479616
1.2479616
1.2479616
1.2479616
1.2479616
1.2479616
1.2479616
1.2479617
1.2479617
1.2479617
1.2479617
1.2479617
1.2479617
1.2479617
1.2479617
1.2479617
1.2479617
1.2479617
1.2479617
1.2479617
1.2479617
1.2479617
1.2479617
1.2479617
1.2479617
1.2479617
1.2479617
1.2479617
1.2479617
1.2479617
1.2479618
1.2479618
1.2479618
1.2479618
1.2479618
1.2479618
1.2479618
1.2479618
1.2479618
1.2479618
1.2479618
1.2479618
1.2479618
1.2479618
1.2479618
1.2479618
1.2479618
1.2479618
1.2479618
1.2479618
1.2479618
1.2479619
1.2479619
1.2479619
1.2479619
1.2479619
1.2479619
1.2479619
1.2479619
1.2479619
1.2479619
1.2479619
1.2479619
1.2479619
1.2479619
1.2479619
1.2479619
1.2479619
1.2479619
1.2479619
1.2479619
1.247962
1.247962
1.247962
1.247962
1.247962
1.247962
1.247962
1.247962
1.247962
1.247962
1.247962
1.247962
1.247962
1.247962
1.247962
1.247962
1.247962
1.2479621
1.2479621
1.2479621
1.2479621
1.2479621
1.2479621
1.2479621
1.2479621
1.2479621
1.2479621
1.2479621
1.2479621
1.2479621
1.2479621
1.2479621
1.2479621
1.2479621
1.2479621
1.2479622
1.2479622
1.2479622
1.2479622
1.2479622
1.2479622
1.2479622
1.2479622
1.2479622
1.2479622
1.2479622
1.2479622
1.2479622
1.2479622
1.2479622
1.2479622
1.2479623
1.2479623
1.2479623
1.2479623
1.2479623
1.2479623
1.2479623
1.2479623
1.2479623
1.2479623
1.2479623
1.2479623
1.2479623
1.2479623
1.2479623
1.2479624
1.2479624
1.2479624
1.2479624
1.2479624
1.2479624
1.2479624
1.2479624
1.2479624
1.2479624
1.2479624
1.2479624
1.2479624
1.2479625
1.2479625
1.2479625
1.2479625
1.2479625
1.2479625
1.2479625
1.2479625
1.2479625
1.2479625
1.2479625
1.2479625
1.2479626
1.2479626
1.2479626
1.2479626
1.2479626
1.2479626
1.2479626
1.2479626
1.2479626
1.2479626
1.2479626
1.2479627
1.2479627
1.2479627
1.2479627
1.2479627
1.2479627
1.2479627
1.2479627
1.2479627
1.2479627
1.2479627
1.2479628
1.2479628
1.2479628
1.2479628
1.2479628
1.2479628
1.2479628
1.2479628
1.2479628
1.2479628
1.2479629
1.2479629
1.2479629
1.2479629
1.2479629
1.2479629
1.2479629
1.2479629
1.247963
1.247963
1.247963
1.247963
1.247963
1.247963
1.247963
1.247963
1.2479631
1.2479631
1.2479631
1.2479631
1.2479631
1.2479631
1.2479631
1.2479632
1.2479632
1.2479632
1.2479632
1.2479632
1.2479632
1.2479632
1.2479632
1.2479633
1.2479633
1.2479633
1.2479633
1.2479633
1.2479633
1.2479633
1.2479634
1.2479634
1.2479634
1.2479634
1.2479634
1.2479634
1.2479634
1.2479635
1.2479635
1.2479635
1.2479635
1.2479635
1.2479636
1.2479636
1.2479636
1.2479636
1.2479636
1.2479637
1.2479637
1.2479637
1.2479637
1.2479637
1.2479637
1.2479638
1.2479638
1.2479638
1.2479638
1.2479638
1.2479639
1.2479639
1.2479639
1.2479639
1.2479639
1.247964
1.247964
1.247964
1.247964
1.2479641
1.2479641
1.2479641
1.2479641
1.2479641
1.2479642
1.2479642
1.2479642
1.2479642
1.2479643
1.2479643
1.2479643
1.2479643
1.2479644
1.2479644
1.2479644
1.2479644
1.2479644
1.2479645
1.2479645
1.2479645
1.2479645
1.2479646
1.2479646
1.2479646
1.2479646
1.2479647
1.2479647
1.2479647
1.2479648
1.2479648
1.2479648
1.2479649
1.2479649
1.2479649
1.2479649
1.247965
1.247965
1.247965
1.2479651
1.2479651
1.2479651
1.2479651
1.2479652
1.2479652
1.2479652
1.2479653
1.2479653
1.2479653
1.2479654
1.2479654
1.2479654
1.2479655
1.2479655
1.2479655
1.2479656
1.2479656
1.2479656
1.2479657
1.2479657
1.2479658
1.2479658
1.2479658
1.2479659
1.2479659
1.2479659
1.247966
1.247966
1.247966
1.2479661
1.2479661
1.2479662
1.2479662
1.2479662
1.2479663
1.2479663
1.2479664
1.2479664
1.2479664
1.2479665
1.2479665
1.2479666
1.2479666
1.2479666
1.2479667
1.2479667
1.2479668
1.2479668
1.2479669
1.2479669
1.2479669
1.247967
1.247967
1.2479671
1.2479671
1.2479672
1.2479672
1.2479673
1.2479673
1.2479674
1.2479674
1.2479675
1.2479675
1.2479676
1.2479676
1.2479677
1.2479677
1.2479678
1.2479678
1.2479679
1.2479679
1.247968
1.247968
1.2479681
1.2479681
1.2479682
1.2479682
1.2479683
1.2479683
1.2479684
1.2479684
1.2479685
1.2479686
1.2479686
1.2479687
1.2479687
1.2479688
1.2479688
1.2479689
1.247969
1.247969
1.2479691
1.2479691
1.2479692
1.2479693
1.2479693
1.2479694
1.2479694
1.2479695
1.2479696
1.2479696
1.2479697
1.2479698
1.2479698
1.2479699
1.24797
1.24797
1.2479701
1.2479702
1.2479702
1.2479703
1.2479704
1.2479705
1.2479705
1.2479706
1.2479707
1.2479707
1.2479708
1.2479709
1.247971
1.247971
1.2479711
1.2479712
1.2479713
1.2479714
1.2479714
1.2479715
1.2479716
1.2479717
1.2479718
1.2479718
1.2479719
1.247972
1.2479721
1.2479722
1.2479723
1.2479723
1.2479724
1.2479725
1.2479726
1.2479727
1.2479728
1.2479729
1.247973
1.2479731
1.2479732
1.2479733
1.2479734
1.2479735
1.2479736
1.2479737
1.2479738
1.2479739
1.247974
1.2479741
1.2479742
1.2479744
1.2479745
1.2479746
1.2479747
1.2479748
1.2479749
1.2479751
1.2479752
1.2479753
1.2479754
1.2479756
1.2479757
1.2479758
1.247976
1.2479761
1.2479763
1.2479764
1.2479766
1.2479767
1.2479769
1.247977
1.2479772
1.2479773
1.2479775
1.2479777
1.2479779
1.247978
1.2479782
1.2479784
1.2479786
1.2479788
1.247979
1.2479792
1.2479794
1.2479796
1.2479798
1.24798
1.2479803
1.2479805
1.2479807
1.247981
1.2479812
1.2479815
1.2479817
1.247982
1.2479823
1.2479825
1.2479828
1.2479831
1.2479834
1.2479838
1.2479841
1.2479844
1.2479848
1.2479851
1.2479855
1.2479858
1.2479862
1.2479866
1.247987
1.2479874
1.2479878
1.2479883
1.2479887
1.2479892
1.2479896
1.2479901
1.2479906
1.2479912
1.2479917
1.2479922
1.2479928
1.2479934
1.247994
1.2479946
1.2479952
1.2479959
1.2479966
1.2479972
1.247998
1.2479987
1.2479995
1.2480002
1.248001
1.2480019
1.2480027
1.2480036
1.2480045
1.2480055
1.2480064
1.2480074
1.2480084
1.2480095
1.2480106
1.2480117
1.2480128
1.248014
1.2480153
1.2480165
1.2480178
1.2480192
1.2480205
1.248022
1.2480234
1.2480249
1.2480265
1.2480281
1.2480297
1.2480314
1.2480331
1.2480349
1.2480368
1.2480387
1.2480407
1.2480427
1.2480447
1.2480469
1.2480491
1.2480513
1.2480537
1.2480561
1.2480585
1.2480611
1.2480637
1.2480663
1.2480691
1.2480719
1.2480749
1.2480778
1.2480809
1.2480841
1.2480874
1.2480907
1.2480941
1.2480977
1.2481013
1.248105
1.2481089
1.2481128
1.2481169
1.248121
1.2481253
1.2481297
1.2481342
1.2481388
1.2481435
1.2481484
1.2481534
1.2481585
1.2481637
1.2481691
1.2481747
1.2481803
1.2481861
1.2481921
1.2481982
1.2482045
1.2482109
1.2482175
1.2482242
1.2482312
1.2482383
1.2482455
1.248253
1.2482606
1.2482684
1.2482764
1.2482846
1.248293
1.2483016
1.2483103
1.2483193
1.2483285
1.248338
1.2483476
1.2483575
1.2483675
1.2483779
1.2483884
1.2483992
1.2484102
1.2484215
1.248433
1.2484448
1.2484568
1.2484691
1.2484817
1.2484946
1.2485077
1.2485211
1.2485348
1.2485488
1.248563
1.2485776
1.2485925
1.2486076
1.2486231
1.248639
1.2486551
1.2486715
1.2486883
1.2487055
1.2487229
1.2487407
1.2487589
1.2487774
1.2487963
1.2488155
1.2488351
1.2488551
1.2488755
1.2488962
1.2489174
1.2489389
1.2489608
1.2489832
1.2490059
1.2490291
1.2490526
1.2490766
1.249101
1.2491259
1.2491512
1.2491769
1.2492031
1.2492297
1.2492568
1.2492844
1.2493124
1.2493409
1.2493698
1.2493993
1.2494292
1.2494596
1.2494905
1.2495219
1.2495538
1.2495863
1.2496192
1.2496526
1.2496866
1.2497211
1.2497561
1.2497917
1.2498278
1.2498645
1.2499017
1.2499394
1.2499777
1.2500166
1.250056
1.2500961
1.2501366
1.2501778
1.2502195
1.2502619
1.2503048
1.2503483
1.2503924
1.2504371
1.2504824
1.2505283
1.2505748
1.250622
1.2506698
1.2507181
1.2507672
1.2508168
1.2508671
1.250918
1.2509695
1.2510217
1.2510746
1.251128
1.2511822
1.251237
1.2512924
1.2513485
1.2514053
1.2514627
1.2515208
1.2515795
1.251639
1.2516991
1.2517599
1.2518213
1.2518835
1.2519463
1.2520098
1.252074
1.2521389
1.2522044
1.2522707
1.2523376
1.2524053
1.2524736
1.2525426
1.2526124
1.2526828
1.2527539
1.2528258
1.2528983
1.2529716
1.2530455
1.2531201
1.2531955
1.2532716
1.2533483
1.2534258
1.253504
1.2535829
1.2536625
1.2537428
1.2538238
1.2539055
1.2539879
1.2540711
1.2541549
1.2542395
1.2543247
1.2544107
1.2544974
1.2545848
1.2546729
1.2547617
1.2548512
1.2549414
1.2550323
1.2551239
1.2552162
1.2553092
1.255403
1.2554974
1.2555925
1.2556883
1.2557848
1.255882
1.2559799
1.2560785
1.2561778
1.2562777
1.2563784
1.2564797
1.2565817
1.2566844
1.2567878
1.2568918
1.2569966
1.257102
1.257208
1.2573148
1.2574222
1.2575303
1.257639
1.2577484
1.2578585
1.2579692
1.2580806
1.2581926
1.2583053
1.2584186
1.2585325
1.2586471
1.2587624
1.2588783
1.2589948
1.2591119
1.2592297
1.2593481
1.2594671
1.2595868
1.259707
1.2598279
1.2599494
1.2600715
1.2601942
1.2603175
1.2604414
1.2605659
1.260691
1.2608167
1.2609429
1.2610698
1.2611972
1.2613252
1.2614538
1.2615829
1.2617127
1.261843
1.2619738
1.2621052
1.2622372
1.2623697
1.2625027
1.2626363
1.2627705
1.2629052
1.2630404
1.2631761
1.2633124
1.2634492
1.2635865
1.2637243
1.2638627
1.2640015
1.2641409
1.2642808
1.2644211
1.264562
1.2647033
1.2648452
1.2649875
1.2651303
1.2652736
1.2654174
1.2655616
1.2657063
1.2658514
1.2659971
1.2661431
1.2662897
1.2664366
1.2665841
1.2667319
1.2668802
1.267029
1.2671781
1.2673277
1.2674778
1.2676282
1.2677791
1.2679303
1.268082
1.2682341
1.2683866
1.2685395
1.2686927
1.2688464
1.2690005
1.2691549
1.2693097
1.2694649
1.2696205
1.2697764
1.2699327
1.2700894
1.2702464
1.2704038
1.2705616
1.2707196
1.2708781
1.2710368
1.2711959
1.2713554
1.2715152
1.2716753
1.2718357
1.2719964
1.2721575
1.2723189
1.2724805
1.2726425
1.2728048
1.2729674
1.2731303
1.2732935
1.2734569
1.2736207
1.2737847
1.273949
1.2741136
1.2742785
1.2744436
1.274609
1.2747747
1.2749406
1.2751067
1.2752731
1.2754398
1.2756067
1.2757739
1.2759413
1.2761089
1.2762767
1.2764448
1.2766131
1.2767817
1.2769504
1.2771194
1.2772885
1.2774579
1.2776275
1.2777973
1.2779673
1.2781375
1.2783078
1.2784784
1.2786491
1.2788201
1.2789912
1.2791625
1.2793339
1.2795055
1.2796773
1.2798493
1.2800214
1.2801937
1.2803661
1.2805387
1.2807114
1.2808843
1.2810573
1.2812304
1.2814037
1.2815771
1.2817507
1.2819243
1.2820981
1.282272
1.2824461
1.2826202
1.2827945
1.2829688
1.2831433
1.2833178
1.2834925
1.2836673
1.2838421
1.2840171
1.2841921
1.2843672
1.2845424
1.2847176
1.284893
1.2850684
1.2852439
1.2854194
1.285595
1.2857707
1.2859464
1.2861222
1.286298
1.2864739
1.2866498
1.2868258
1.2870018
1.2871778
1.2873539
1.28753
1.2877061
1.2878822
1.2880584
1.2882346
1.2884108
1.288587
1.2887632
1.2889394
1.2891157
1.2892919
1.2894681
1.2896444
1.2898206
1.2899968
1.290173
1.2903491
1.2905253
1.2907014
1.2908775
1.2910536
1.2912297
1.2914057
1.2915816
1.2917576
1.2919335
1.2921093
1.2922851
1.2924609
1.2926366
1.2928122
1.2929878
1.2931633
1.2933387
1.2935141
1.2936894
1.2938646
1.2940398
1.2942149
1.2943898
1.2945648
1.2947396
1.2949143
1.2950889
1.2952634
1.2954379
1.2956122
1.2957864
1.2959605
1.2961345
1.2963084
1.2964822
1.2966558
1.2968294
1.2970028
1.297176
1.2973492
1.2975222
1.297695
1.2978678
1.2980403
1.2982128
1.2983851
1.2985572
1.2987292
1.298901
1.2990726
1.2992441
1.2994155
1.2995866
1.2997576
1.2999284
1.300099
1.3002695
1.3004397
1.3006098
1.3007797
1.3009494
1.3011189
1.3012882
1.3014572
1.3016261
1.3017948
1.3019633
1.3021315
1.3022996
1.3024674
1.302635
1.3028024
1.3029695
1.3031364
1.3033031
1.3034695
1.3036357
1.3038017
1.3039674
1.3041328
1.304298
1.304463
1.3046277
1.3047921
1.3049563
1.3051202
1.3052838
1.3054472
1.3056103
1.3057731
1.3059356
1.3060978
1.3062598
1.3064214
1.3065828
1.3067438
1.3069046
1.3070651
1.3072252
1.3073851
1.3075446
1.3077038
1.3078627
1.3080213
1.3081795
1.3083375
1.3084951
1.3086523
1.3088093
1.3089659
1.3091221
1.309278
1.3094336
1.3095888
1.3097436
1.3098981
1.3100522
1.310206
1.3103594
1.3105125
1.3106651
1.3108174
1.3109693
1.3111208
1.311272
1.3114228
1.3115731
1.3117231
1.3118727
1.3120219
1.3121706
1.312319
1.312467
1.3126146
1.3127617
1.3129084
1.3130547
1.3132006
1.3133461
1.3134911
1.3136357
1.3137799
1.3139237
1.314067
1.3142098
1.3143522
1.3144942
1.3146357
1.3147768
1.3149174
1.3150575
1.3151972
1.3153364
1.3154752
1.3156134
1.3157512
1.3158886
1.3160254
1.3161618
1.3162977
1.3164331
1.316568
1.3167024
1.3168363
1.3169698
1.3171027
1.3172351
1.3173671
1.3174985
1.3176294
1.3177598
1.3178896
1.318019
1.3181478
1.3182762
1.318404
1.3185312
1.318658
1.3187842
1.3189098
1.319035
1.3191596
1.3192836
1.3194071
1.3195301
1.3196525
1.3197743
1.3198957
1.3200164
1.3201366
1.3202562
1.3203753
1.3204938
1.3206118
1.3207292
1.320846
1.3209622
1.3210779
1.321193
1.3213075
1.3214214
1.3215348
1.3216475
1.3217597
1.3218713
1.3219823
1.3220928
1.3222026
1.3223118
1.3224205
1.3225285
1.322636
1.3227428
1.3228491
1.3229547
1.3230598
1.3231642
1.3232681
1.3233713
1.3234739
1.3235759
1.3236773
1.3237781
1.3238783
1.3239779
1.3240768
1.3241751
1.3242729
1.3243699
1.3244664
1.3245623
1.3246575
1.3247521
1.3248461
1.3249395
1.3250323
1.3251244
1.3252159
1.3253068
1.325397
1.3254867
1.3255757
1.325664
1.3257518
1.3258389
1.3259254
1.3260113
1.3260965
1.3261812
1.3262651
1.3263485
1.3264312
1.3265134
1.3265948
1.3266757
1.3267559
1.3268355
1.3269145
1.3269929
1.3270706
1.3271477
1.3272242
1.3273001
1.3273753
1.32745
1.327524
1.3275974
1.3276701
1.3277423
1.3278138
1.3278847
1.327955
1.3280247
1.3280938
1.3281622
1.3282301
1.3282973
1.328364
1.32843
1.3284954
1.3285602
1.3286245
1.3286881
1.3287511
1.3288135
1.3288753
1.3289366
1.3289972
1.3290573
1.3291167
1.3291756
1.3292339
1.3292916
1.3293488
1.3294053
1.3294613
1.3295167
1.3295715
1.3296258
1.3296795
1.3297326
1.3297852
1.3298372
1.3298886
1.3299395
1.3299898
1.3300396
1.3300889
1.3301376
1.3301857
1.3302333
1.3302804
1.3303269
1.3303729
1.3304184
1.3304634
1.3305078
1.3305517
1.3305951
1.330638
1.3306804
1.3307222
1.3307636
1.3308044
1.3308448
1.3308847
1.330924
1.3309629
1.3310013
1.3310392
1.3310766
1.3311136
1.3311501
1.3311861
1.3312216
1.3312567
1.3312913
1.3313255
1.3313592
1.3313925
1.3314253
1.3314577
1.3314896
1.3315211
1.3315522
1.3315829
1.3316131
1.3316429
1.3316723
1.3317012
1.3317298
1.3317579
1.3317857
1.331813
1.33184
1.3318666
1.3318927
1.3319185
1.3319439
1.331969
1.3319936
1.3320179
1.3320418
1.3320654
1.3320886
1.3321114
1.3321339
1.3321561
1.3321779
1.3321993
1.3322204
1.3322412
1.3322617
1.3322818
1.3323016
1.3323211
1.3323403
1.3323591
1.3323777
1.3323959
1.3324138
1.3324315
1.3324488
1.3324659
1.3324827
1.3324991
1.3325154
1.3325313
1.3325469
1.3325623
1.3325774
1.3325923
1.3326069
1.3326212
1.3326353
1.3326492
1.3326627
1.3326761
1.3326892
1.3327021
1.3327147
1.3327271
1.3327393
1.3327512
1.3327629
1.3327745
1.3327858
1.3327968
1.3328077
1.3328184
1.3328289
1.3328391
1.3328492
1.3328591
1.3328688
1.3328783
1.3328876
1.3328967
1.3329056
1.3329144
1.332923
1.3329315
1.3329397
1.3329478
1.3329557
1.3329635
1.3329711
1.3329786
1.3329859
1.332993
1.333
1.3330069
1.3330136
1.3330202
1.3330266
1.3330329
1.3330391
1.3330452
1.3330511
1.3330568
1.3330625
1.333068
1.3330735
1.3330788
1.3330839
1.333089
1.333094
1.3330988
1.3331035
1.3331082
1.3331127
1.3331171
1.3331215
1.3331257
1.3331298
1.3331339
1.3331378
1.3331417
1.3331454
1.3331491
1.3331527
1.3331562
1.3331596
1.333163
1.3331663
1.3331695
1.3331726
1.3331756
1.3331786
1.3331815
1.3331843
1.3331871
1.3331897
1.3331924
1.3331949
1.3331974
1.3331999
1.3332022
1.3332046
1.3332068
1.333209
1.3332112
1.3332133
1.3332153
1.3332173
1.3332192
1.3332211
1.3332229
1.3332247
1.3332265
1.3332282
1.3332298
1.3332315
1.333233
1.3332345
1.333236
1.3332375
1.3332389
1.3332403
1.3332416
1.3332429
1.3332442
1.3332454
1.3332466
1.3332477
1.3332489
1.33325
1.333251
1.3332521
1.3332531
1.3332541
1.333255
1.333256
1.3332569
1.3332577
1.3332586
1.3332594
1.3332602
1.333261
1.3332618
1.3332625
1.3332632
1.3332639
1.3332646
1.3332652
1.3332658
1.3332664
1.333267
1.3332676
1.3332682
1.3332687
1.3332692
1.3332697
1.3332702
1.3332707
1.3332712
1.3332716
1.3332721
1.3332725
1.3332729
1.3332733
1.3332737
1.333274
1.3332744
1.3332747
1.3332751
1.3332754
1.3332757
1.333276
1.3332763
1.3332766
1.3332768
1.3332771
1.3332774
1.3332776
1.3332778
1.3332781
1.3332783
1.3332785
1.3332787
1.3332789
1.3332791
1.3332792
1.3332794
1.3332796
1.3332797
1.3332799
1.33328
1.3332802
1.3332803
1.3332804
1.3332806
1.3332807
1.3332808
1.3332809
1.333281
1.3332811
1.3332812
1.3332813
1.3332814
1.3332815
1.3332816
1.3332816
1.3332817
1.3332818
1.3332818
1.3332819
1.3332819
1.333282
1.333282
1.3332821
1.3332821
1.3332822
1.3332822
1.3332822
1.3332823
1.3332823
1.3332823
1.3332824
1.3332824
1.3332824
1.3332824
1.3332825
1.3332825
1.3332825
1.3332825
1.3332825
1.3332825
1.3332825
1.3332825
1.3332825
1.3332825
1.3332825
1.3332825
1.3332825
1.3332825
1.3332825
1.3332825
1.3332825
1.3332825
1.3332824
1.3332824
1.3332824
1.3332824
1.3332824
1.3332824
1.3332823
1.3332823
1.3332823
1.3332823
1.3332823
1.3332822
1.3332822
1.3332822
1.3332822
1.3332821
1.3332821
1.3332821
1.3332821
1.333282
1.333282
1.333282
1.3332819
1.3332819
1.3332819
1.3332818
1.3332818
1.3332818
1.3332817
1.3332817
1.3332817
1.3332816
1.3332816
1.3332816
1.3332815
1.3332815
1.3332814
1.3332814
1.3332814
1.3332813
1.3332813
1.3332812
1.3332812
1.3332811
1.3332811
1.3332811
1.333281
1.333281
1.3332809
1.3332809
1.3332808
1.3332808
1.3332807
1.3332807
1.3332806
1.3332806
1.3332806
1.3332805
1.3332805
1.3332804
1.3332804
1.3332803
1.3332803
1.3332802
1.3332802
1.3332801
1.3332801
1.33328
1.33328
1.3332799
1.3332799
1.3332798
1.3332798
1.3332797
1.3332797
1.3332796
1.3332796
1.3332795
1.3332795
1.3332794
1.3332793
1.3332793
1.3332792
1.3332792
1.3332791
1.3332791
1.333279
1.333279
1.3332789
1.3332788
1.3332788
1.3332787
1.3332787
1.3332786
1.3332786
1.3332785
1.3332784
1.3332784
1.3332783
1.3332783
1.3332782
1.3332782
1.3332781
1.333278
1.333278
1.3332779
1.3332778
1.3332778
1.3332777
1.3332777
1.3332776
1.3332775
1.3332775
1.3332774
1.3332773
1.3332773
1.3332772
1.3332772
1.3332771
1.333277
1.333277
1.3332769
1.3332768
1.3332768
1.3332767
1.3332766
1.3332766
1.3332765
1.3332764
1.3332764
1.3332763
1.3332762
1.3332762
1.3332761
1.333276
1.333276
1.3332759
1.3332758
1.3332757
1.3332757
1.3332756
1.3332755
1.3332755
1.3332754
1.3332753
1.3332752
1.3332752
1.3332751
1.333275
1.3332749
1.3332749
1.3332748
1.3332747
1.3332746
1.3332746
1.3332745
1.3332744
1.3332743
1.3332743
1.3332742
1.3332741
1.333274
1.3332739
1.3332739
1.3332738
1.3332737
1.3332736
1.3332735
1.3332735
1.3332734
1.3332733
1.3332732
1.3332731
1.333273
1.333273
1.3332729
1.3332728
1.3332727
1.3332726
1.3332725
1.3332725
1.3332724
1.3332723
1.3332722
1.3332721
1.333272
1.3332719
1.3332718
1.3332717
1.3332717
1.3332716
1.3332715
1.3332714
1.3332713
1.3332712
1.3332711
1.333271
1.3332709
1.3332708
1.3332707
1.3332706
1.3332705
1.3332704
1.3332703
1.3332702
1.3332701
1.33327
1.3332699
1.3332698
1.3332697
1.3332696
1.3332695
1.3332694
1.3332693
1.3332692
1.3332691
1.333269
1.3332689
1.3332688
1.3332687
1.3332686
1.3332684
1.3332683
1.3332682
1.3332681
1.333268
1.3332679
1.3332678
1.3332677
1.3332676
1.3332674
1.3332673
1.3332672
1.3332671
1.333267
1.3332668
1.3332667
1.3332666
1.3332665
1.3332663
1.3332662
1.3332661
1.333266
1.3332658
1.3332657
1.3332656
1.3332654
1.3332653
1.3332652
1.3332651
1.3332649
1.3332648
1.3332647
1.3332645
1.3332644
1.3332642
1.3332641
1.333264
1.3332638
1.3332637
1.3332635
1.3332634
1.3332632
1.3332631
1.3332629
1.3332628
1.3332626
1.3332625
1.3332623
1.3332622
1.3332621
1.3332619
1.3332618
1.3332616
1.3332615
1.3332613
1.3332611
1.333261
1.3332608
1.3332607
1.3332605
1.3332603
1.3332602
1.33326
1.3332598
1.3332596
1.3332595
1.3332593
1.3332591
1.3332589
1.3332587
1.3332585
1.3332584
1.3332582
1.333258
1.3332578
1.3332576
1.3332574
1.3332572
1.333257
1.3332568
1.3332566
1.3332564
1.3332562
1.333256
1.3332558
1.3332556
1.3332554
1.3332552
1.3332549
1.3332547
1.3332545
1.3332543
1.3332541
1.3332538
1.3332536
1.3332534
1.3332531
1.3332529
1.3332527
1.3332524
1.3332522
1.3332519
1.3332517
1.3332514
1.3332512
1.3332509
1.3332507
1.3332504
1.3332502
1.3332499
1.3332496
1.3332494
1.3332491
1.3332488
1.3332485
1.3332482
1.3332479
1.3332476
1.3332473
1.333247
1.3332467
1.3332464
1.3332461
1.3332458
1.3332455
1.3332452
1.3332448
1.3332445
1.3332442
1.3332438
1.3332435
1.3332431
1.3332428
1.3332424
1.333242
1.3332417
1.3332413
1.3332409
1.3332405
1.3332401
1.3332398
1.3332394
1.333239
1.3332386
1.3332381
1.3332377
1.3332373
1.3332369
1.3332364
1.333236
1.3332355
1.333235
1.3332346
1.3332341
1.3332336
1.3332331
1.3332326
1.3332321
1.3332316
1.3332311
1.3332306
1.3332301
1.3332295
1.333229
1.3332285
1.333228
1.3332274
1.3332269
1.3332263
1.3332258
1.3332252
1.3332247
1.3332242
1.3332237
1.3332231
1.3332226
1.3332221
1.3332217
1.3332212
1.3332208
1.3332203
1.3332199
1.3332196
1.3332193
1.333219
1.3332187
1.3332185
1.3332183
1.3332181
1.333218
1.3332179
1.3332178
1.3332178
1.3332178
1.3332178
1.3332178
1.3332178
1.3332179
1.3332179
1.333218
1.3332181
1.3332181
1.3332181
1.3332181
1.3332181
1.3332181
1.3332181
1.333218
1.3332178
1.3332174
1.3332169
1.3332163
1.3332157
1.3332149
1.3332141
1.3332132
1.3332122
1.3332111
1.3332101
1.3332089
1.3332077
1.3332066
1.3332054
1.3332042
1.333203
1.3332018
1.3332007
1.3331996
1.3331986
1.3331976
1.3331968
1.333196
1.3331954
1.3331949
1.3331945
1.3331943
1.3331941
1.3331939
1.3331936
1.333193
1.3331917
1.3331888
1.3331818
1.333165
1.3331237
1.3330223
1.3327725
1.3321596
1.330847
1.329054
1.3268303
1.3241967
1.3211921
1.3178708
1.3142989
1.31055
1.306701
1.3028277
1.2990013
1.2952856
1.2917349
1.2883925
1.2852909
1.2824515
1.2798852
1.2775944
1.2755736
1.2738111
1.2722908
1.2709934
1.2698976
1.2689815
1.2682231
1.2676014
1.2670966
1.2666907
1.2663673
1.2661121
1.2659127
1.2657583
1.2656401
1.2655505
1.2654834
1.2654337
1.2653974
1.2653714
1.2653531
1.2653406
1.2653323
1.2653272
1.2653242
1.2653227
1.2653223
1.2653223
1.2653226
1.2653239
1.2653258
1.2653277
1.2653296
1.2653313
1.2653331
1.2653347
1.2653363
1.2653379
1.2653395
1.2653411
1.2653427
1.2653443
1.2653459
1.2653476
1.2653494
1.2653512
1.265353
1.2653549
1.2653569
1.2653588
1.2653609
1.2653629
1.2653649
1.265367
1.265369
1.2653711
1.2653731
1.2653751
1.265377
1.2653789
1.2653807
1.2653824
1.2653841
1.2653858
1.2653873
1.2653888
1.2653903
1.2653916
1.2653929
1.2653942
1.2653954
1.2653965
1.2653976
1.2653986
1.2653996
1.2654005
1.2654014
1.2654023
1.2654031
1.265404
1.2654047
1.2654055
1.2654062
1.2654069
1.2654076
1.2654083
1.265409
1.2654096
1.2654102
1.2654108
1.2654114
1.265412
1.2654126
1.2654132
1.2654138
1.2654143
1.2654148
1.2654154
1.2654159
1.2654164
1.265417
1.2654175
1.265418
1.2654185
1.265419
1.2654195
1.26542
1.2654205
1.265421
1.2654214
1.2654219
1.2654224
1.2654229
1.2654234
1.2654238
1.2654243
1.2654248
1.2654252
1.2654257
1.2654262
1.2654266
1.2654271
1.2654276
1.2654281
1.2654285
1.265429
1.2654295
1.26543
1.2654305
1.265431
1.2654315
1.265432
1.2654325
1.265433
1.2654335
1.265434
1.2654346
1.2654351
1.2654356
1.2654362
1.2654368
1.2654373
1.2654379
1.2654385
1.2654391
1.2654398
1.2654404
1.265441
1.2654417
1.2654424
1.2654431
1.2654438
1.2654445
1.2654453
1.2654461
1.2654469
1.2654477
1.2654485
1.2654494
1.2654503
1.2654512
1.2654521
1.2654531
1.2654541
1.2654551
1.2654562
1.2654573
1.2654585
1.2654596
1.2654609
1.2654621
1.2654634
1.2654648
1.2654662
1.2654676