/*--------------------------------*- C++ -*----------------------------------*\
  =========                 |
  \\      /  F ield         | OpenFOAM: The Open Source CFD Toolbox
   \\    /   O peration     | Website:  https://openfoam.org
    \\  /    A nd           | Version:  7
     \\/     M anipulation  |
\*---------------------------------------------------------------------------*/
FoamFile
{
    version     2.0;
    format      ascii;
    class       volScalarField;
    location    "0.00265";
    object      Uz;
}
// * * * * * * * * * * * * * * * * * * * * * * * * * * * * * * * * * * * * * //

dimensions      [0 1 -1 0 0 0 0];

internalField   nonuniform List<scalar> 
5000
(
0
0
0
0
0
-1.3279704e-21
-2.5812694e-36
3.6199862e-21
1.3223009e-21
-2.7687253e-21
-2.8129831e-21
1.410208e-21
-1.2009664e-35
-1.2374209e-35
2.796964e-21
-2.7829239e-21
-1.9275031e-51
-1.2170323e-35
-1.378245e-21
2.7507663e-21
1.3714317e-21
0
0
-1.3743674e-21
1.1769108e-35
-1.1405094e-35
-1.3837746e-21
1.3805006e-21
1.3746433e-21
-1.3693908e-21
2.3848964e-35
-1.1592531e-35
-1.3585726e-21
1.3629892e-21
1.3698532e-21
0
0
-1.3632348e-21
-1.3486676e-21
1.3330822e-21
-2.2184495e-35
-1.3302351e-21
1.3475542e-21
-2.3054169e-35
-1.3717275e-21
1.3694087e-21
-4.6781199e-35
4.6293199e-35
-4.6288503e-35
2.2867052e-35
1.3378701e-21
0
0
0
0
0
0
0
0
0
0
0
0
-1.3419044e-21
-1.3393147e-21
1.3379004e-21
-2.3013763e-35
-1.1958157e-52
1.3376219e-21
0
0
-1.3307799e-21
-1.3333918e-21
0
1.3348049e-21
4.6022236e-35
-1.3300386e-21
-1.328389e-21
1.3290613e-21
2.6619263e-21
-2.6644308e-21
7.5686586e-37
3.9892665e-21
-2.6486706e-21
-1.3746461e-34
2.6482459e-21
-3.9692411e-21
1.3198044e-21
1.3170532e-21
-1.3150943e-21
1.3143546e-21
1.315605e-21
4.5925988e-35
-2.6484988e-21
-9.2080527e-35
-1.3352548e-21
-1.3407751e-21
-4.7405264e-35
9.4311522e-35
2.694934e-21
1.3328013e-21
-1.3094638e-21
1.8167613e-37
1.2422946e-21
0
-1.1183588e-21
-3.8345351e-35
1.0439299e-21
-1.2166354e-21
-1.5079921e-21
2.4743766e-21
1.0139943e-21
-3.3339915e-21
-1.243893e-21
3.8734326e-21
-1.2889757e-21
-1.2929571e-21
-7.3396455e-37
-1.2885001e-21
3.8950373e-21
-9.1812093e-35
-2.6342896e-21
2.6113526e-21
1.2914671e-21
-1.2768754e-21
1.2689078e-21
-1.2780888e-21
-2.5860254e-21
1.2989055e-21
4.4579826e-35
1.2805628e-21
2.540058e-21
-1.2640753e-21
-1.2718426e-21
-1.2870184e-21
-4.5053998e-35
-4.4641193e-35
4.4478691e-35
2.5324925e-21
1.2593803e-21
-1.2653818e-21
-2.5588978e-21
-1.286075e-21
-1.281038e-21
8.8222754e-35
2.5214802e-21
-3.5622681e-37
3.5744715e-37
-1.3084175e-51
1.2777616e-21
-8.8437668e-35
1.7657225e-34
1.2582088e-21
-1.2512589e-21
1.2528887e-21
4.3784061e-35
-1.2691363e-21
1.2678861e-21
-1.7942204e-37
-1.25514e-21
0
1.2511277e-21
8.7010165e-35
-2.5231775e-21
1.2590004e-21
-3.561983e-37
-1.2474731e-21
1.2445625e-21
-1.2494346e-21
1.253193e-21
-5.2136305e-34
-3.4579152e-34
1.2389219e-21
-2.4674343e-21
0
-8.6238766e-35
-2.5947213e-34
1.242929e-21
1.2356459e-21
8.4668008e-35
-1.2251471e-21
1.2313285e-21
8.5059721e-35
5.2687607e-37
1.7054465e-34
-2.4454242e-21
1.2168412e-21
1.2183166e-21
-8.4340743e-35
8.4873274e-35
-2.5536401e-34
8.4386107e-35
-1.2159138e-21
0
0
0
0
-1.2190478e-21
2.5371918e-34
1.2144313e-21
1.2110029e-21
-1.207636e-21
-1.2035786e-21
2.4011722e-21
8.3213057e-35
-2.5005156e-34
-1.203682e-21
-1.2001351e-21
1.1938379e-21
0
1.1891154e-21
8.2586743e-35
-1.1961115e-21
-1.1930317e-21
1.6531471e-34
1.1812915e-21
-2.3571887e-21
1.1826006e-21
1.1870129e-21
-1.1850766e-21
1.1800131e-21
0
0
0
1.1761079e-21
-1.1747068e-21
-2.3403433e-21
1.1628014e-21
-8.0428732e-35
1.1584627e-21
1.1639922e-21
-2.3355742e-21
3.3119654e-37
-3.2973732e-37
1.155655e-21
1.1530646e-21
-2.3084668e-21
1.6430067e-37
-2.4079618e-34
1.1523864e-21
-6.3845363e-34
-1.5961374e-34
1.1517868e-21
-1.1470713e-21
0
-1.1333368e-21
1.1282689e-21
1.1318351e-21
-1.1406306e-21
0
-1.1392648e-21
1.1312484e-21
1.1237378e-21
-3.8826318e-34
-2.2397776e-21
-2.2537e-21
3.3961618e-21
2.2618559e-21
0
-2.237245e-21
-1.1125121e-21
1.1098042e-21
1.1144635e-21
1.1192561e-21
-2.2396542e-21
-2.2326236e-21
1.1102682e-21
2.2111672e-21
3.0669619e-34
-2.216974e-21
1.1103933e-21
-1.5373205e-34
-1.1024593e-21
2.1951586e-21
-1.0978278e-21
1.5345305e-34
1.1044638e-21
-1.1011737e-21
1.0941952e-21
-2.1752802e-21
4.5307412e-34
2.185252e-21
-2.1951026e-21
-7.5798856e-35
1.0899869e-21
0
0
1.0813753e-21
-1.0877377e-21
-2.1802348e-21
1.0859886e-21
-3.0641618e-37
1.0711925e-21
1.070282e-21
-1.0781792e-21
0
-1.0819271e-21
-1.0766401e-21
0
2.1251034e-21
1.064874e-21
-2.1467272e-21
7.4697854e-35
-3.0591975e-37
1.0699212e-21
1.0637691e-21
-1.0598011e-21
1.0630318e-21
-1.0683036e-21
6.0841392e-37
2.1369732e-21
-1.0647179e-21
-1.0626793e-21
-1.0621928e-21
-1.4732293e-34
1.0609148e-21
0
0
-1.0571705e-21
1.471058e-34
-2.9329384e-34
-1.4596087e-34
1.0364067e-21
-1.0271769e-21
1.4686144e-37
1.0500948e-21
0
0
0
0
0
0
0
-1.0533179e-21
0
1.0481543e-21
0
-1.0273398e-21
-2.8312406e-34
1.0253825e-21
0
0
-1.0463026e-21
-1.4430517e-34
1.0320745e-21
0
0
-1.0274009e-21
-1.0374898e-21
1.0413738e-21
1.0358497e-21
0
-1.0208073e-21
1.4439714e-37
1.021514e-21
-1.030124e-21
-1.0339264e-21
1.0300185e-21
1.0231353e-21
0
-1.0137504e-21
-1.0206853e-21
1.0279749e-21
1.0287197e-21
0
-1.014288e-21
-1.0063939e-21
1.004703e-21
1.0130714e-21
0
0
0
0
0
0
0
0
-1.0182842e-21
-5.7987986e-51
1.0085819e-21
0
0
0
-1.0113849e-21
-1.4039819e-34
1.0061158e-21
-9.9512919e-22
1.3684137e-34
-1.4017484e-37
-1.3871343e-34
1.0087731e-21
-1.0087348e-21
1.0006645e-21
-5.4920457e-34
-9.7806401e-22
9.7897913e-22
0
0
-1.0061827e-21
-1.3863895e-34
9.8946756e-22
-9.7954788e-22
-9.7547722e-22
0
9.9720503e-22
1.0013948e-21
-9.9460405e-22
-2.7366453e-34
-6.8064037e-52
-1.3475709e-34
9.7880558e-22
-9.9189829e-22
-5.0138902e-51
-1.3755694e-34
-9.8162131e-22
0
0
9.7268698e-22
1.4002188e-37
-4.1273225e-34
9.874214e-22
0
0
-9.6708767e-22
2.6913454e-34
9.786999e-22
0
0
0
-9.7193552e-22
1.3769697e-37
9.7270989e-22
-9.7748924e-22
9.7665139e-22
-2.7038857e-34
-1.9351159e-21
9.6406578e-22
4.0308999e-34
1.349281e-34
-1.3480709e-34
-9.6732987e-22
0
0
9.6015007e-22
1.3405056e-34
-2.6811735e-34
5.2424195e-52
-9.4826297e-22
9.3871495e-22
9.4210284e-22
0
-9.6571269e-22
-1.3384712e-34
9.5451204e-22
0
0
-9.3088772e-22
2.6868933e-37
8.7783808e-54
-9.6353225e-22
9.5638445e-22
-1.3127628e-34
1.3027556e-34
-2.5862951e-34
-9.3499786e-22
9.4470399e-22
-2.6443275e-34
2.6466956e-34
-2.6305377e-34
-9.4019234e-22
9.3309533e-22
-2.5820912e-34
1.3022176e-34
0
-9.4513891e-22
9.416343e-22
-1.298857e-34
1.3215004e-37
-1.2893958e-34
1.2976826e-34
9.3888196e-22
-9.3778091e-22
-9.3303824e-22
9.2780348e-22
9.2510948e-22
0
-9.3443629e-22
-9.3242471e-22
0
9.2044159e-22
-1.2721104e-34
1.3091359e-37
1.2847234e-34
-9.2657055e-22
9.2297577e-22
1.2690473e-34
-2.5243583e-34
-9.1141371e-22
-9.1885125e-22
1.8475994e-21
-1.3089346e-37
1.2686773e-34
9.0772483e-22
-9.0454783e-22
1.264827e-34
9.1663842e-22
0
0
0
-8.9871444e-22
-9.0328543e-22
9.0912732e-22
9.1078561e-22
0
-8.9554282e-22
-8.866845e-22
8.8936063e-22
9.0252239e-22
0
-9.0574968e-22
-8.9810559e-22
8.8364476e-22
2.4286741e-34
-8.8191325e-22
0
0
0
0
8.8609982e-22
-2.4337651e-34
-8.7915304e-22
8.9065475e-22
1.2501513e-34
-1.2540742e-34
3.8613205e-52
8.9082295e-22
8.8372321e-22
-1.7610595e-21
-1.2317297e-34
1.2415016e-34
-8.9793772e-22
0
8.88801e-22
8.8282066e-22
-8.8101237e-22
-2.4621472e-34
8.9341059e-22
0
0
-8.8648129e-22
1.2243748e-34
8.8487055e-22
0
-8.9245241e-22
1.2681389e-37
-2.4683836e-34
-1.2296445e-34
8.8806216e-22
-8.92117e-22
1.2681441e-37
-2.4680753e-34
-8.8452346e-22
8.8314656e-22
2.4663817e-34
1.2705025e-37
-1.2399742e-34
-8.8862645e-22
8.8268471e-22
0
-4.9195428e-34
-1.237873e-34
-3.7182935e-34
-1.2668021e-37
-8.8510685e-22
8.8100003e-22
-8.8455094e-52
-1.2381719e-34
2.4861287e-34
-1.2417321e-34
1.7758864e-21
-8.8301575e-22
-8.8587226e-22
-1.240661e-34
1.2486679e-34
1.7958591e-21
-8.9129107e-22
-8.8433786e-22
-3.5596017e-52
0
6.9974265e-53
-9.0151264e-22
8.9803328e-22
-1.1510363e-52
-1.2251627e-34
-1.2642523e-37
-9.0204833e-22
1.8202611e-21
2.5209609e-34
-9.0199337e-22
1.2392504e-34
-1.2326345e-34
8.9764356e-22
-9.1349688e-22
-1.3348323e-51
-3.7911484e-34
2.4942755e-34
-2.4364978e-34
-2.4154432e-34
-4.8407798e-52
0
9.2366846e-22
0
0
-9.192891e-22
-2.5485623e-34
9.1708825e-22
0
0
-1.8215508e-21
-7.6180425e-34
1.8489715e-21
-9.2917638e-22
1.3174979e-37
-1.2817883e-34
-9.1555565e-22
0
0
0
-9.3578365e-22
-2.5891549e-34
9.2789545e-22
0
0
-9.2502271e-22
1.3273668e-37
9.3902554e-22
0
0
-9.3707934e-22
-2.6019775e-34
-2.6123415e-34
2.6158454e-34
9.4278236e-22
-9.4245212e-22
2.6157391e-34
-2.6199424e-34
2.6245254e-34
9.4791776e-22
0
0
-9.5097313e-22
5.1294688e-52
9.5215237e-22
0
0
-9.5209182e-22
2.7616241e-52
9.5229538e-22
0
0
-9.5361981e-22
6.4049563e-52
9.5543122e-22
0
0
-9.5818086e-22
1.3613325e-37
9.5683856e-22
-9.5518693e-22
2.648941e-34
-2.6459111e-34
2.6407939e-34
9.49608e-22
0
0
0
0
0
-9.5763756e-22
2.655915e-34
9.5475689e-22
0
0
0
0
0
0
0
-9.5314044e-22
5.2690873e-34
9.4546086e-22
0
0
0
0
0
0
0
-9.461149e-22
2.6225344e-34
9.4396133e-22
0
0
-9.426052e-22
2.6156505e-34
9.4017558e-22
0
0
0
-9.3613455e-22
-2.5998754e-34
9.3534343e-22
0
0
0
0
0
0
0
-9.2877381e-22
1.318034e-37
9.2607289e-22
0
0
0
0
0
0
0
-9.1457295e-22
-1.2980914e-37
9.1225877e-22
0
0
0
-9.0664174e-22
5.0241173e-34
9.029747e-22
0
-8.9871626e-22
-2.4910502e-34
8.9485504e-22
0
0
-8.9057773e-22
-8.8938655e-22
8.881004e-22
8.8679699e-22
0
0
0
0
8.8023161e-22
-1.2489481e-37
-1.7549676e-21
-8.7606902e-22
1.749252e-21
1.7463121e-21
-8.7165931e-22
-8.701396e-22
0
0
0
0
-8.6250465e-22
-2.3921021e-34
8.5954241e-22
0
0
0
0
0
0
0
0
0
0
0
0
0
0
-8.3949455e-22
4.655411e-34
8.370473e-22
0
0
8.3338849e-22
-2.3107623e-34
1.1808416e-37
-8.2971845e-22
-8.2849502e-22
-4.5931223e-34
2.2948861e-34
8.2476777e-22
0
0
0
0
0
-8.1655683e-22
4.5274884e-34
8.1442842e-22
0
0
0
0
0
0
0
-8.0833023e-22
4.4830287e-34
8.0697145e-22
0
0
0
0
0
0
0
-8.0186159e-22
6.6722517e-34
8.0060874e-22
0
0
0
0
0
0
0
0
-7.9445238e-22
1.128273e-37
7.9355089e-22
0
0
0
0
-7.9221287e-22
7.9197088e-22
7.9173519e-22
-1.5830144e-21
-2.1972495e-34
7.9107864e-22
0
0
0
0
-7.9005007e-22
2.1920995e-34
1.5792546e-21
-7.8942173e-22
-7.8923482e-22
7.8908617e-22
0
0
0
-7.8867652e-22
-2.1875517e-34
7.8853771e-22
7.8848296e-22
-7.8843686e-22
-7.8839749e-22
7.8836375e-22
0
0
-7.8829306e-22
-7.8827677e-22
7.8826162e-22
7.8824625e-22
7.8823005e-22
4.3774187e-34
-7.881906e-22
0
0
0
-7.8791092e-22
-7.8778387e-22
7.8763683e-22
7.8747502e-22
7.8730801e-22
2.1846263e-34
-7.8700478e-22
0
0
0
-7.8675275e-22
2.1834629e-34
7.866926e-22
0
0
0
0
0
0
0
-7.864144e-22
2.182451e-34
1.5726012e-21
2.1832088e-34
-7.8615301e-22
0
0
-7.8585244e-22
1.1165881e-37
-2.1814259e-34
2.1798499e-34
7.8522635e-22
7.849922e-22
-2.1790185e-34
-7.8442556e-22
0
0
-7.8348383e-22
6.5220555e-34
2.1728944e-34
-1.1122401e-37
7.8242961e-22
-7.8218725e-22
-7.8193948e-22
1.5633688e-21
-4.3352837e-34
-7.8116493e-22
7.8090136e-22
0
-7.8036619e-22
-2.1672755e-34
7.7981866e-22
0
-7.7925637e-22
7.7896669e-22
-8.6466465e-34
-7.783695e-22
7.7806028e-22
0
-7.7741749e-22
0
7.7673906e-22
0
-7.760207e-22
7.7564647e-22
-4.3010858e-34
-7.7486536e-22
7.744585e-22
0
-7.7361233e-22
-2.1469405e-34
7.7271387e-22
0
-7.7177943e-22
7.7131319e-22
-2.1908769e-37
-7.7038377e-22
7.6992307e-22
0
-7.6899686e-22
-7.6853546e-22
7.680737e-22
7.6761204e-22
-7.671501e-22
7.6668689e-22
7.6622303e-22
-7.6575816e-22
0
0
0
0
0
0
-7.6243066e-22
-2.459567e-53
1.5228579e-21
-7.609086e-22
-7.6038465e-22
7.598593e-22
0
0
-7.583071e-22
-7.5780544e-22
7.573135e-22
7.5683117e-22
0
-7.5588679e-22
-2.098731e-34
7.5496126e-22
0
0
-7.5360072e-22
-7.5316157e-22
7.5273174e-22
7.5230785e-22
0
-7.5150342e-22
2.0857146e-34
7.5074914e-22
-7.503863e-22
-4.16538e-34
-1.0653668e-37
-7.4934561e-22
7.4901178e-22
7.4868397e-22
0
0
-7.4773112e-22
2.0743551e-34
7.4708738e-22
0
-7.4644172e-22
-7.4612309e-22
7.4580922e-22
7.455028e-22
0
0
0
0
0
0
-7.4364903e-22
2.0632901e-34
7.432135e-22
0
0
0
0
0
0
-7.4201357e-22
-5.9150713e-54
7.4176819e-22
7.416617e-22
2.0570724e-34
-7.4147867e-22
0
0
0
0
-7.4116243e-22
-2.0568834e-34
7.4107823e-22
-7.4104449e-22
-7.4101589e-22
7.4099349e-22
-4.112987e-34
-6.1704563e-34
-6.1683373e-34
2.0585878e-34
-4.1151509e-34
2.0565858e-34
7.4104182e-22
0
-7.4112856e-22
6.1711904e-34
-1.0533706e-37
-7.4131145e-22
7.4138567e-22
7.4146712e-22
-7.4155635e-22
2.0583664e-34
-6.1738439e-34
-4.1189654e-34
-4.1164555e-34
2.0585751e-34
-4.1199977e-34
-7.4238178e-22
7.4253108e-22
7.4268875e-22
-7.4285549e-22
2.0611372e-34
-8.2508061e-34
-2.0632323e-34
2.0648414e-34
2.0632997e-34
2.0649487e-34
-7.442439e-22
0
7.4470281e-22
-2.0674961e-34
4.7736401e-53
7.4543669e-22
0
-7.4595568e-22
7.4622573e-22
7.4650252e-22
-7.4678672e-22
0
0
0
0
-7.4832766e-22
2.077814e-34
-4.1585724e-34
7.4934432e-22
7.4969787e-22
-7.5005811e-22
0
0
0
0
-7.5196966e-22
-1.0691891e-37
7.5278763e-22
0
0
0
0
0
0
0
-7.5633366e-22
-7.5680451e-22
7.5728058e-22
7.5776255e-22
0
0
0
0
0
0
-7.6126307e-22
-7.6177499e-22
7.622882e-22
7.6280169e-22
0
0
0
0
0
0
-7.6638836e-22
-7.6689763e-22
7.6740691e-22
7.6791489e-22
0
0
0
0
0
0
-7.7138211e-22
4.2854849e-34
7.7232239e-22
0
0
0
0
0
0
-7.7535197e-22
2.1540899e-34
7.7612671e-22
0
0
0
0
-7.7782214e-22
-1.1057631e-37
7.7838199e-22
-7.7863299e-22
1.0556692e-53
7.7907172e-22
-7.7925848e-22
4.3286058e-34
7.7956421e-22
-7.796815e-22
-4.3294516e-34
-4.3298346e-34
2.4450359e-53
-4.3290793e-34
-2.1634045e-34
7.7985662e-22
-7.7978547e-22
-7.7968368e-22
1.5591012e-21
-4.32397e-34
-1.5583764e-21
0
7.7869165e-22
-2.1614348e-34
-2.1616039e-34
-6.473956e-34
-6.4716299e-34
-4.3097104e-34
6.4638031e-34
-4.305158e-34
2.1537454e-34
7.7461189e-22
0
-7.7325824e-22
-1.0978109e-37
-6.4244101e-34
-6.4185508e-34
1.0942486e-37
4.2689613e-34
-2.1328451e-34
-7.6706056e-22
0
7.6483482e-22
-4.2387876e-34
-1.0834238e-37
7.6108767e-22
0
-7.5831122e-22
7.5683998e-22
7.5531304e-22
-7.5373007e-22
0
0
-7.4864966e-22
8.2921773e-34
-4.1331091e-34
4.125633e-34
-2.0589095e-34
7.3905315e-22
7.369585e-22
-7.3480668e-22
0
0
0
0
-7.232203e-22
-2.0013737e-34
-7.9733967e-34
7.1565178e-22
7.1302585e-22
-7.1034579e-22
0
0
0
0
-6.9608622e-22
-6.9306065e-22
6.8997663e-22
6.8683351e-22
0
0
0
0
0
0
-6.630998e-22
-6.594658e-22
6.5577756e-22
6.520368e-22
0
0
0
0
0
0
-6.2443825e-22
5.1654891e-34
1.2321651e-21
-6.1182484e-22
-1.8225312e-21
-6.03138e-22
0
1.1885023e-21
-6.5483644e-34
-1.9485823e-33
-5.8049754e-22
-1.1516175e-21
1.1421431e-21
-5.6628592e-22
-5.6145073e-22
5.5656707e-22
-5.5163584e-22
7.7684685e-38
5.4163248e-22
5.3656225e-22
-5.3144637e-22
-5.2628652e-22
5.2108415e-22
-5.1583825e-22
-7.2553288e-38
5.052141e-22
0
0
0
9.6684044e-22
-4.7785412e-22
-9.4448391e-22
4.6658288e-22
-4.6087774e-22
-4.5512834e-22
8.9867164e-22
2.25527e-51
-4.3762995e-22
4.3172162e-22
8.515595e-22
4.19807e-22
-1.2414223e-21
4.0778391e-22
3.1373524e-50
-1.1870183e-21
7.7916831e-22
3.8347036e-22
3.7732666e-22
7.4229648e-22
-7.2986437e-22
-3.586762e-22
-3.5237912e-22
3.4604311e-22
3.3967271e-22
-9.998222e-22
3.2685287e-22
3.2041284e-22
-3.1395687e-22
-3.0748599e-22
-4.2774323e-38
8.8346208e-22
-2.8795157e-22
4.684925e-34
-4.5766944e-34
-8.0451246e-22
2.6152726e-22
2.5486878e-22
4.9640408e-22
-2.4153127e-22
-4.6971468e-22
4.5635551e-22
-2.2148765e-22
2.1478368e-22
2.0806595e-22
-6.0401045e-22
1.9460179e-22
1.8786627e-22
-3.6226316e-22
-1.7439643e-22
1.6765605e-22
4.8270931e-22
-1.5413237e-22
-5.8938225e-22
7.8015218e-35
2.6750064e-22
1.2696186e-22
0
2.2687751e-22
2.3687562e-34
-2.9989601e-22
9.3227496e-23
-1.920201e-34
7.9738921e-23
7.3003813e-23
-1.3257655e-22
0
0
0
-3.9604461e-23
1.8276966e-35
5.2426884e-23
-1.9512263e-23
-2.5669524e-23
1.8536809e-23
1.3192292e-36
1.3843814e-23
-1.3481526e-23
0
0
0
-7.9288773e-23
4.6184304e-23
1.0540204e-22
-1.7756014e-22
1.8654922e-38
1.440885e-22
0
0
9.0987765e-23
-5.3983994e-35
-2.0694045e-22
1.0972842e-22
2.3202755e-22
-3.6694589e-22
2.1411798e-34
2.6969196e-22
-1.4101668e-22
1.4711096e-22
-3.0629368e-22
-1.591525e-22
5.4998947e-34
1.7116443e-22
3.5437712e-22
-5.4966781e-22
1.0758196e-37
1.9529341e-22
-1.1174437e-34
2.0730515e-22
2.1324717e-22
-1.2163141e-34
-6.7481618e-22
6.5569844e-38
7.0936431e-22
-4.8446583e-22
1.3492649e-50
5.0789255e-22
-2.5985369e-22
2.6573979e-22
-5.4312751e-22
-2.7730927e-22
6.2841323e-34
2.886622e-22
5.8872325e-22
3.0011956e-22
3.0593224e-22
-9.3530462e-22
0
3.2335265e-22
1.8266099e-34
-1.8582637e-34
1.8895458e-34
-3.462706e-22
3.9087785e-34
-3.579519e-22
1.2116885e-33
1.109052e-21
-7.5107978e-22
-1.1441927e-21
-3.8726953e-22
1.1794978e-21
7.981923e-22
-1.2152212e-21
4.1111262e-22
1.2516487e-21
0
0
-4.3570294e-22
-4.418467e-22
0
4.5424546e-22
4.6061079e-22
-9.3421814e-22
1.0517405e-33
1.4408511e-21
-5.4045725e-34
-4.9335442e-22
-4.999353e-22
-5.0667421e-22
5.1361971e-22
5.2073121e-22
-5.2790354e-22
-1.6051211e-21
5.4212688e-22
2.196999e-21
-5.5653882e-22
-1.1281414e-21
-5.7181146e-22
0
5.8743421e-22
0
6.0298435e-22
-6.1100411e-22
1.3751056e-33
-6.2792694e-22
2.1203081e-33
1.9360068e-21
-6.5398739e-22
-6.6271788e-22
6.7169664e-22
6.8100709e-22
-6.9057231e-22
-2.1006324e-21
7.097849e-22
2.8773277e-21
-1.2142764e-33
-7.3926328e-22
-1.5000549e-21
-7.6123923e-22
1.5451707e-21
4.3504625e-34
1.1293078e-37
-8.0555288e-22
1.8134037e-33
8.2849926e-22
-2.5226073e-21
9.476922e-34
1.7332571e-21
0
0
9.0619667e-22
-5.1066022e-34
-1.8681798e-21
9.48373e-22
1.9255139e-21
9.7735975e-22
-1.1014901e-33
-3.0248239e-21
-1.0248568e-21
1.0419609e-21
-2.1184336e-21
6.1184751e-37
3.6421189e-33
1.1108842e-21
2.257894e-21
-3.4436182e-21
1.2965413e-33
2.3757878e-21
0
0
-2.5017671e-21
2.8258588e-33
1.4374624e-33
3.7465918e-37
4.0258066e-21
2.7328288e-21
-2.3179026e-33
-4.2532276e-21
-1.4443469e-21
1.4713734e-21
-2.9977943e-21
-1.6950494e-33
5.1845722e-33
1.587855e-21
3.2400487e-21
-4.9584221e-21
1.6857645e-21
1.7189781e-21
-1.7530967e-21
1.7889219e-21
-3.6536989e-21
2.0721892e-33
1.9073161e-21
2.7687277e-37
3.9790041e-21
-4.0630729e-21
3.4554034e-33
4.2433306e-21
-2.1702792e-21
0
2.2719291e-21
1.2897003e-33
-7.1320593e-21
2.4324469e-21
4.9795977e-21
2.5494455e-21
2.6111364e-21
-2.6746567e-21
-2.7400584e-21
-2.8076233e-21
2.8776137e-21
-1.6375094e-33
1.6785686e-33
-3.1017361e-21
3.5323242e-33
-3.2631037e-21
1.1151545e-32
1.03104e-20
-7.0562156e-21
3.684686e-50
3.7183875e-21
4.2381184e-33
-2.1774748e-33
-1.2089931e-20
4.1421203e-21
1.2772333e-20
0
0
-4.6221407e-21
-4.7531815e-21
-9.7798878e-21
5.0315746e-21
1.0353883e-20
-1.0651454e-20
5.4789005e-21
1.691427e-20
-5.8043628e-21
-5.9774029e-21
-6.1557887e-21
-6.3382606e-21
1.3050031e-20
6.7178307e-21
-6.9188106e-21
-2.1386598e-20
7.3471476e-21
-1.1850073e-48
1.2989374e-32
1.6074649e-20
-1.656158e-20
-1.7068404e-20
8.7982138e-21
1.8143243e-20
-1.8705312e-20
-9.6406964e-21
2.9810974e-20
3.0731872e-20
-1.0563501e-20
-2.1791103e-20
-1.123819e-20
6.4329403e-33
2.389721e-20
1.23183e-20
-1.2701783e-20
-2.6202628e-20
1.9208309e-36
2.7890546e-20
-2.8768804e-20
2.4705323e-32
3.0589631e-20
-1.5772226e-20
-3.2537271e-20
-3.3568174e-20
0
1.7862089e-20
5.5263605e-20
1.8995518e-20
-1.9588205e-20
0
0
0
0
2.2862264e-20
-1.3086316e-32
-7.2931476e-20
2.506993e-20
7.755798e-20
2.6659145e-20
-4.5780401e-32
-5.6676334e-20
-2.9214546e-20
3.0119543e-20
-6.2109323e-20
-3.2018765e-20
1.0994454e-31
3.4023429e-20
7.0125602e-20
-1.0839366e-19
1.0582499e-35
3.8374045e-20
-5.6206034e-36
4.0762857e-20
4.2004491e-20
-4.8042133e-32
-1.3373373e-19
1.3050543e-35
1.4189615e-19
9.7446577e-20
-2.7844957e-32
-1.0339196e-19
-5.3239899e-20
5.4822629e-20
-1.1289451e-19
-5.811733e-20
1.9926154e-31
6.1601522e-20
1.2683148e-19
-1.9583207e-19
7.4606542e-32
6.9145085e-20
7.1154494e-20
7.3217098e-20
4.1795183e-32
-4.3012618e-32
-1.5948316e-19
-4.5521998e-32
1.6875716e-19
-1.7356661e-19
4.4587542e-31
2.7531845e-19
-1.8872849e-19
1.0773903e-31
1.995058e-19
-1.0254948e-19
-1.0541221e-19
-2.1668259e-19
1.1133971e-19
3.4323666e-19
0
0
0
-3.824666e-19
-3.928542e-19
4.0347949e-19
4.1435635e-19
-2.8366464e-19
4.1392057e-35
-1.4952705e-19
5.1133274e-31
4.7271986e-19
-4.8519498e-19
8.2935369e-31
3.4067751e-19
9.6997719e-32
-9.9574315e-32
-3.6798314e-19
1.8873971e-19
-1.9359142e-19
6.613806e-31
6.1087106e-19
-6.2642169e-19
-2.1410023e-19
4.8735973e-31
-4.5002491e-19
4.6127713e-19
2.3638559e-19
2.4225721e-19
7.4476038e-19
-2.823916e-31
-2.6061124e-19
-8.00918e-19
1.8215002e-30
8.4024633e-19
0
-2.9373206e-19
-6.0151789e-19
3.0791888e-19
-3.1521436e-19
1.0745745e-30
6.6046828e-19
-1.0139007e-18
7.6778912e-31
3.9305481e-31
4.0192243e-31
4.1115277e-31
-3.7882377e-19
1.1623499e-18
1.1887211e-18
-4.0519469e-19
-8.2861794e-19
0
4.3300535e-19
-4.9121824e-31
1.0043446e-30
-5.1319359e-31
-4.7237759e-19
4.8265732e-19
4.9310959e-19
-1.5111982e-18
5.656527e-47
8.7522439e-31
-5.366495e-19
6.0803398e-31
-1.1190079e-18
1.1424203e-18
1.1662057e-18
5.9518237e-19
-6.7427475e-31
-6.1990488e-19
0
0
0
-1.3433063e-18
6.8508169e-19
1.3974172e-18
-2.1376021e-18
7.2655899e-19
2.2223558e-18
-2.2656451e-18
2.563951e-30
1.5693815e-18
-2.3992146e-18
-1.6299857e-18
0
1.6922545e-18
2.8706342e-30
8.7809787e-19
1.7887969e-18
-9.1091212e-19
0
-1.8891798e-18
-2.7334727e-34
-1.0869889e-30
9.9672747e-19
3.0435954e-18
-3.0976534e-18
1.7507004e-30
3.2077508e-18
-3.2637978e-18
5.530339e-30
2.2519083e-18
-1.1452919e-18
1.1648497e-18
-2.3692581e-18
-1.2046289e-18
5.439063e-30
1.24528e-18
2.5318616e-18
1.2868033e-18
1.3079018e-18
-2.6584539e-18
-1.3507746e-18
0
1.3945113e-18
-7.8657531e-31
4.3317981e-48
-1.4617216e-18
4.2194061e-34
-1.5076443e-18
5.4004348e-47
4.6632983e-18
-4.7344187e-18
-4.8061664e-18
3.2523682e-18
3.3010566e-18
0
-3.3997246e-18
1.7248462e-18
5.2501087e-18
-5.3262865e-18
2.9996245e-30
3.6536337e-18
-1.852815e-18
0
1.9054296e-18
1.9320421e-18
-1.9588497e-18
3.3068859e-30
-4.0260549e-18
-1.1598315e-33
6.2038806e-18
0
-6.3710214e-18
-4.3036293e-18
6.5403986e-18
4.4172436e-18
-6.7118422e-18
-2.2661136e-18
9.1805021e-18
2.3243178e-18
-4.7073726e-18
-4.7664458e-18
2.6787064e-30
2.4427679e-18
2.4727695e-18
2.5029259e-18
-2.5332399e-18
2.84611e-30
-5.1886776e-18
8.742824e-30
7.9680833e-18
0
0
-5.4991309e-18
6.1754728e-30
2.8125829e-18
-8.532866e-18
2.8761198e-18
4.8417704e-30
9.7919649e-30
8.9168752e-18
-3.0045599e-18
1.6852969e-30
-3.4075131e-30
-3.101994e-18
3.1346753e-18
-4.5012136e-34
1.7764113e-30
-3.5889242e-30
-3.266246e-18
0
3.3324939e-18
-6.7314583e-18
-3.399032e-18
6.8647902e-18
0
-3.4992785e-18
3.5327926e-18
7.1327074e-18
-1.0799879e-17
1.2103628e-29
1.2213729e-29
-3.7009892e-18
1.1204146e-17
-5.3553054e-34
-3.8022265e-18
-3.8360095e-18
3.8698043e-18
3.9036022e-18
-3.9373942e-18
0
4.004947e-18
-8.0774206e-18
6.7827403e-30
4.1062048e-18
9.1930518e-30
9.2654564e-30
1.1957645e-33
8.4816195e-18
-1.2823078e-17
-1.2923616e-17
0
8.749516e-18
1.3224317e-17
6.3115766e-34
-4.4745726e-18
-4.5076959e-18
4.5407502e-18
4.5737325e-18
-4.6066332e-18
0
-9.3442862e-18
-9.4094754e-18
1.4211674e-17
4.769607e-18
-4.8018847e-18
1.3739205e-33
4.8661027e-18
9.7960469e-18
4.9298073e-18
-8.2633566e-30
-1.9971816e-17
1.6733272e-29
1.516663e-17
-5.0866227e-18
-5.1175479e-18
-5.1483099e-18
5.1789022e-18
5.2093226e-18
5.2395718e-18
1.4977247e-33
-5.2995557e-18
5.3292813e-18
-1.6076454e-17
-1.0776315e-17
1.6251888e-17
-5.4462328e-18
-1.0949939e-17
1.1007012e-17
-5.531837e-18
5.5599546e-18
1.1175699e-17
-1.6846548e-17
5.6429524e-18
-1.8887443e-29
-1.7091426e-17
1.1447789e-17
5.7504107e-18
5.7766817e-18
1.16054e-17
-5.8284621e-18
1.2365042e-73
-1.1758447e-17
-5.9042237e-18
6.5820527e-30
5.953441e-18
1.1955287e-17
-1.200314e-17
6.02522e-18
1.8145784e-17
-1.8215075e-17
-6.0945057e-18
-1.1588992e-46
-6.1392592e-18
1.8483587e-17
6.1828413e-18
-6.2041968e-18
-1.2450514e-17
6.2460123e-18
-6.2664534e-18
2.0937169e-29
1.2612779e-17
-1.8977687e-17
-7.047631e-30
2.8263622e-29
-1.4169435e-29
1.2801639e-17
-1.2837467e-17
6.4363168e-18
2.5814304e-17
-6.4705145e-18
-1.297426e-17
0
-1.3038738e-17
1.4509645e-29
3.7233867e-33
7.2883476e-30
6.5797695e-18
6.5940197e-18
-6.6079303e-18
-6.6215008e-18
1.3269459e-17
-1.3295223e-17
7.3937691e-30
1.3344635e-17
-1.3368283e-17
-2.2299457e-29
7.4455068e-30
6.7175285e-18
1.3455927e-17
-6.7380438e-18
6.7477637e-18
-3.7507165e-30
-6.7661249e-18
-1.354955e-17
6.7830743e-18
1.3582045e-17
-6.7986166e-18
6.8058507e-18
-1.1346673e-29
6.819235e-18
1.5158324e-29
-1.3662392e-17
-1.3673294e-17
-1.5188805e-29
2.2803848e-29
-2.281843e-29
6.8548801e-18
6.8585471e-18
6.8618645e-18
-6.8648293e-18
0
0
6.8715899e-18
-3.8151131e-30
-9.7690201e-34
-7.6325086e-30
-6.8757013e-18
0
6.8756231e-18
1.375005e-17
-6.8740789e-18
-1.374558e-17
-1.3742323e-17
-1.3738388e-17
2.060066e-17
2.2861049e-29
-2.0583766e-17
1.3715869e-17
1.3708562e-17
0
6.8459849e-18
-1.3682688e-17
-6.8363746e-18
1.3662157e-17
6.8254584e-18
-7.5707011e-30
-2.043978e-17
6.8066866e-18
2.0399394e-17
-2.0377784e-17
-6.7850782e-18
2.0331753e-17
-7.5137866e-30
-6.7606803e-18
-1.3503888e-17
-7.4837368e-30
1.346715e-17
-1.3447889e-17
6.7140192e-18
2.0111408e-17
0
-6.682512e-18
-1.3342888e-17
3.6987522e-30
-6.6484692e-18
-1.3273132e-17
1.324878e-17
1.3223889e-17
0
6.5862615e-18
7.2970603e-30
7.2830142e-30
7.266819e-30
-1.9595357e-17
-1.3035068e-17
0
1.2976595e-17
1.4370894e-29
6.4581003e-18
1.9327942e-17
-6.4269624e-18
3.5577088e-30
-9.0877184e-34
-6.3785551e-18
-1.2723955e-17
6.3451826e-18
1.2656347e-17
-6.310955e-18
0
-1.2551813e-17
6.2580826e-18
1.8720185e-17
-6.2218458e-18
-6.2034377e-18
-1.2369683e-17
6.1660625e-18
1.8441314e-17
-6.1279706e-18
6.7806757e-30
1.2178366e-17
-6.0695345e-18
-6.0497211e-18
-1.2059494e-17
-1.8028848e-17
1.1978662e-17
1.1937788e-17
-1.1896618e-17
-6.5788281e-30
1.1813414e-17
-1.1771395e-17
-6.5105454e-30
1.1686553e-17
0
-1.1600676e-17
-1.1557367e-17
0
1.7205073e-17
5.7130239e-18
1.6174546e-33
5.668693e-18
5.6463694e-18
6.2418371e-30
-1.1202857e-17
-1.1157633e-17
1.850439e-29
1.106664e-17
-1.1020879e-17
-1.8275799e-29
1.0928871e-17
0
0
0
0
-1.0696297e-17
-5.9127286e-30
1.0602348e-17
5.2776038e-18
-1.0507961e-17
1.7422276e-29
1.0413162e-17
-1.0365617e-17
-5.728731e-30
5.1351355e-18
-1.0222487e-17
1.6945977e-29
1.0126715e-17
-1.0078733e-17
-1.0030691e-17
9.9825951e-18
9.9344553e-18
0
0
0
0
4.8466185e-18
-4.822455e-18
-4.7982855e-18
5.2999915e-30
-6.5512923e-74
4.7257657e-18
9.4031802e-18
4.6774137e-18
-9.3064786e-18
-1.3887217e-17
4.6049169e-18
9.1615495e-18
-1.3669939e-17
-9.0650632e-18
1.352529e-17
8.9686839e-18
4.4602712e-18
4.9248807e-30
-8.8243952e-18
0
4.3642272e-18
-4.3402821e-18
9.5836397e-30
1.2199943e-33
1.4215211e-29
4.244783e-18
4.2209888e-18
-1.1929249e-33
-8.3470236e-18
-8.2996615e-18
1.3740915e-29
8.2051675e-18
0
0
0
4.0085774e-18
3.9851898e-18
-3.9618497e-18
-3.9385565e-18
3.9153095e-18
-7.7842183e-18
-1.1606873e-17
0
7.6456212e-18
4.2172948e-30
3.776878e-18
1.1261976e-17
-3.7311591e-18
6.1752971e-30
-7.3713095e-18
2.4400915e-29
7.2807545e-18
2.0081684e-30
5.1092766e-34
-3.5728999e-18
3.5505239e-18
-7.0564116e-18
-3.5059469e-18
6.9674979e-18
-6.923226e-18
-9.775759e-34
3.7949468e-30
3.3955783e-18
1.0121068e-17
-6.7037226e-18
-2.0937951e-48
-3.3083947e-18
5.4741357e-30
6.5303724e-18
-3.2436784e-18
-6.4444674e-18
3.5525222e-30
9.5386015e-18
-8.9763745e-34
-3.1370939e-18
3.1159727e-18
-6.1898337e-18
-3.0739256e-18
6.105998e-18
-6.0642756e-18
-3.3421923e-30
1.6601032e-29
-6.5950398e-30
5.8987083e-18
-5.8576421e-18
2.9083536e-18
5.775906e-18
-2.86762e-18
2.8473547e-18
-5.6543119e-18
4.6751292e-30
8.3608556e-18
0
0
-8.1814162e-18
-2.7073364e-18
5.3752031e-18
-5.3358647e-18
-1.5054001e-33
1.1673419e-29
2.8967368e-30
5.1798198e-18
-5.1411432e-18
-5.1026004e-18
2.532095e-18
7.538867e-18
2.4938824e-18
-2.4748759e-18
0
0
2.4182565e-18
-1.3319134e-30
-7.1425233e-18
-6.7138733e-34
4.6873901e-18
2.3252235e-18
-2.560263e-30
-6.8654327e-18
-5.0405397e-30
4.5039887e-18
0
2.215783e-18
-4.3955613e-18
-2.1798457e-18
4.8008589e-30
2.144172e-18
4.2528684e-18
-2.1087644e-18
0
0
0
0
2.0214471e-18
-1.1124756e-30
-5.9609788e-18
1.9698685e-18
5.8584408e-18
-5.8074862e-18
-1.918914e-18
3.8041373e-18
1.8852915e-18
3.1113497e-30
-5.5558254e-18
1.043288e-33
6.0581917e-30
1.8024453e-18
3.5721798e-18
1.7698047e-18
1.9462517e-30
-1.7374428e-18
-1.7213679e-18
-1.7053651e-18
-1.6894355e-18
3.715854e-30
3.3155889e-18
0
0
1.6108726e-18
2.6564436e-30
2.2452593e-34
-2.2234529e-34
-1.5493435e-18
-3.068288e-18
-3.0380376e-18
3.0079389e-18
1.65386e-30
1.4741034e-18
4.3778539e-18
0
0
-1.4152715e-18
-1.4007525e-18
0
1.3719542e-18
-7.5361248e-31
-1.3434713e-18
1.3293437e-18
-2.6305853e-18
4.3339876e-30
3.8622783e-18
-1.2736138e-18
-1.2598832e-18
-2.4924674e-18
1.2326639e-18
3.6575192e-18
-1.2057615e-18
6.6205856e-31
-2.3583578e-18
-1.1660102e-18
2.3058494e-18
-2.2798461e-18
-1.9843409e-47
2.2283332e-18
0
0
-2.1522851e-18
1.1795862e-30
3.5016095e-30
-1.8943868e-47
3.0798629e-18
1.1263382e-30
-1.0023621e-18
-1.9807136e-18
-1.9568719e-18
1.9332029e-18
2.120068e-30
9.431956e-19
3.1032535e-30
-9.201303e-19
1.8174445e-18
0
8.861596e-19
-9.7114327e-31
-8.6394553e-19
-1.705943e-18
-9.3460181e-31
1.6625629e-18
0
0
7.9938408e-19
-4.3791249e-31
-2.3356504e-18
-8.528898e-31
1.5161301e-18
0
-7.3792835e-19
7.2799014e-19
7.1813834e-19
7.0837226e-19
6.9869159e-19
-1.3781931e-18
-2.0387622e-18
6.7016492e-19
1.3216602e-18
-1.9547491e-18
-3.5120573e-48
1.266695e-18
0
0
0
0
-1.1784823e-18
-1.1613549e-18
5.7219945e-19
1.6914183e-18
6.170015e-31
-5.472706e-19
1.0782552e-18
1.0621357e-18
-5.2309168e-19
-2.0607982e-18
-1.0147834e-18
1.4990034e-18
9.8405343e-19
-1.4534014e-18
-1.0589238e-30
9.3918049e-19
0
0
0
-8.8162478e-19
-4.8160753e-31
9.4798914e-31
-4.2007511e-19
1.2399577e-18
-4.0664158e-19
-4.0004284e-19
1.1805701e-18
7.7416491e-19
-3.8071878e-19
-7.4886245e-19
-7.3643831e-19
1.2061049e-30
-3.9533805e-31
9.9485681e-35
6.8824683e-19
0
3.3252606e-19
3.26837e-19
-3.2122001e-19
-3.1567464e-19
3.1020092e-19
3.0479943e-19
-5.9894013e-19
-2.9421151e-19
2.8902241e-19
-2.8390195e-19
2.7884949e-19
5.4773035e-19
0
0
-7.7797036e-19
-2.5460987e-19
4.9992261e-19
2.4537709e-19
2.4085763e-19
-4.7280753e-19
2.5770353e-31
4.5537808e-19
0
-2.1922212e-19
-6.4523834e-19
-4.6841998e-31
1.1490096e-30
-4.0604415e-19
5.9737376e-19
1.9528504e-19
5.4428187e-35
-1.8777501e-19