/*--------------------------------*- C++ -*----------------------------------*\
| =========                 |                                                 |
| \\      /  F ield         | OpenFOAM: The Open Source CFD Toolbox           |
|  \\    /   O peration     | Version:  4.x                                   |
|   \\  /    A nd           | Web:      www.OpenFOAM.org                      |
|    \\/     M anipulation  |                                                 |
\*---------------------------------------------------------------------------*/
FoamFile
{
    version     2.0;
    format      ascii;
    class       volScalarField;
    location    "0.0004";
    object      alphat;
}
// * * * * * * * * * * * * * * * * * * * * * * * * * * * * * * * * * * * * * //

dimensions      [1 -1 -1 0 0 0 0];

internalField   nonuniform List<scalar> 
23120
(
0.358341
0.354904
0.353175
0.35291
0.356012
0.35717
0.357471
0.356583
0.356509
0.356418
0.357103
0.357566
0.357648
0.356667
0.356636
0.35695
0.357341
0.357607
0.357741
0.357428
0.35703
0.35673
0.35648
0.356181
0.355864
0.355569
0.355307
0.355067
0.354832
0.354596
0.35436
0.354135
0.358328
0.354872
0.353082
0.352493
0.352837
0.35321
0.353343
0.353
0.352896
0.352913
0.353171
0.353379
0.353445
0.353296
0.353106
0.353131
0.353255
0.353379
0.353472
0.353522
0.353531
0.35352
0.353493
0.353442
0.353373
0.353293
0.353207
0.353114
0.353013
0.352905
0.352795
0.35269
0.358314
0.354839
0.352999
0.352212
0.351995
0.351987
0.351985
0.351886
0.351836
0.351842
0.351906
0.351967
0.351993
0.35197
0.351921
0.351911
0.351933
0.351967
0.352
0.352025
0.352041
0.352048
0.352049
0.352043
0.35203
0.352011
0.351986
0.351956
0.351921
0.351884
0.351845
0.351808
0.358306
0.35482
0.352954
0.352086
0.351735
0.351611
0.351564
0.351526
0.351505
0.351503
0.351517
0.351532
0.351541
0.351538
0.351529
0.351524
0.351527
0.351535
0.351544
0.351551
0.351557
0.35156
0.351561
0.35156
0.351557
0.351552
0.351545
0.351536
0.351525
0.351514
0.351502
0.351491
0.358302
0.354812
0.352937
0.352043
0.351658
0.351505
0.351447
0.351422
0.351411
0.351408
0.35141
0.351413
0.351416
0.351416
0.351414
0.351413
0.351413
0.351415
0.351417
0.351419
0.35142
0.351421
0.351422
0.351421
0.351421
0.351419
0.351417
0.351415
0.351412
0.351409
0.351406
0.351403
0.358301
0.354809
0.352932
0.352031
0.351638
0.351478
0.351418
0.351395
0.351387
0.351384
0.351384
0.351385
0.351385
0.351385
0.351385
0.351385
0.351385
0.351385
0.351385
0.351386
0.351386
0.351386
0.351386
0.351386
0.351386
0.351386
0.351385
0.351385
0.351384
0.351384
0.351383
0.351382
0.358301
0.354808
0.352931
0.352028
0.351633
0.351473
0.351412
0.351389
0.351382
0.351379
0.351378
0.351378
0.351378
0.351378
0.351378
0.351378
0.351378
0.351378
0.351378
0.351378
0.351379
0.351379
0.351379
0.351379
0.351379
0.351378
0.351378
0.351378
0.351378
0.351378
0.351378
0.351378
0.358301
0.354808
0.352931
0.352028
0.351632
0.351471
0.35141
0.351388
0.351381
0.351378
0.351377
0.351377
0.351377
0.351377
0.351377
0.351377
0.351377
0.351377
0.351377
0.351377
0.351377
0.351377
0.351377
0.351377
0.351377
0.351377
0.351377
0.351377
0.351377
0.351377
0.351377
0.351377
0.35829
0.354796
0.352922
0.352022
0.351629
0.35147
0.351409
0.351388
0.35138
0.351378
0.351377
0.351377
0.351377
0.351377
0.351377
0.351377
0.351377
0.351377
0.351377
0.351377
0.351377
0.351377
0.351377
0.351377
0.351377
0.351377
0.351377
0.351377
0.351377
0.351377
0.351377
0.351377
0.358268
0.354773
0.352904
0.352012
0.351624
0.351467
0.351408
0.351387
0.35138
0.351378
0.351377
0.351377
0.351377
0.351377
0.351377
0.351377
0.351377
0.351377
0.351377
0.351377
0.351377
0.351377
0.351377
0.351377
0.351377
0.351377
0.351377
0.351377
0.351377
0.351377
0.351377
0.351377
0.358248
0.354751
0.352889
0.352003
0.351619
0.351465
0.351408
0.351387
0.35138
0.351378
0.351377
0.351377
0.351377
0.351377
0.351377
0.351377
0.351377
0.351377
0.351377
0.351377
0.351377
0.351377
0.351377
0.351377
0.351377
0.351377
0.351377
0.351377
0.351377
0.351377
0.351377
0.351377
0.358229
0.35473
0.352874
0.351994
0.351615
0.351463
0.351407
0.351387
0.35138
0.351378
0.351377
0.351377
0.351377
0.351377
0.351377
0.351377
0.351377
0.351377
0.351377
0.351377
0.351377
0.351377
0.351377
0.351377
0.351377
0.351377
0.351377
0.351377
0.351377
0.351378
0.351378
0.351378
0.358211
0.35471
0.35286
0.351986
0.351611
0.351461
0.351406
0.351386
0.35138
0.351378
0.351377
0.351377
0.351377
0.351377
0.351377
0.351377
0.351377
0.351377
0.351377
0.351377
0.351377
0.351377
0.351377
0.351377
0.351377
0.351378
0.351378
0.351379
0.35138
0.351381
0.351383
0.351384
0.358193
0.354692
0.352847
0.351979
0.351607
0.35146
0.351405
0.351386
0.35138
0.351378
0.351377
0.351377
0.351377
0.351377
0.351377
0.351377
0.351377
0.351377
0.351377
0.351377
0.351377
0.351377
0.351377
0.351378
0.351379
0.35138
0.351383
0.351385
0.351389
0.351394
0.351399
0.351405
0.358177
0.354675
0.352834
0.351972
0.351603
0.351458
0.351405
0.351386
0.35138
0.351378
0.351377
0.351377
0.351377
0.351377
0.351377
0.351377
0.351377
0.351377
0.351377
0.351377
0.351377
0.351378
0.35138
0.351382
0.351386
0.351391
0.351399
0.351408
0.351421
0.351435
0.351452
0.351471
0.358162
0.354658
0.352823
0.351965
0.3516
0.351457
0.351404
0.351386
0.351379
0.351377
0.351377
0.351377
0.351377
0.351377
0.351377
0.351377
0.351377
0.351377
0.351377
0.351378
0.351379
0.351382
0.351387
0.351396
0.351408
0.351426
0.351449
0.351479
0.351515
0.351556
0.351602
0.351652
0.358147
0.354643
0.352812
0.351959
0.351597
0.351455
0.351403
0.351385
0.351379
0.351377
0.351377
0.351377
0.351377
0.351377
0.351377
0.351377
0.351377
0.351377
0.351378
0.351381
0.351386
0.351396
0.351412
0.351438
0.351475
0.351526
0.351592
0.351673
0.351765
0.351868
0.351979
0.352092
0.358133
0.354628
0.352802
0.351953
0.351594
0.351454
0.351403
0.351385
0.351379
0.351377
0.351377
0.351377
0.351377
0.351377
0.351377
0.351377
0.351378
0.351379
0.351383
0.35139
0.351406
0.351434
0.351481
0.351553
0.351653
0.351786
0.35195
0.352141
0.352352
0.352574
0.352801
0.353022
0.35812
0.354615
0.352792
0.351948
0.351591
0.351453
0.351402
0.351385
0.351379
0.351377
0.351377
0.351377
0.351377
0.351377
0.351377
0.351378
0.351379
0.351384
0.351394
0.351416
0.351459
0.351535
0.351656
0.351835
0.352076
0.352381
0.35274
0.353137
0.353551
0.353961
0.354353
0.354703
0.358108
0.354602
0.352783
0.351942
0.351589
0.351452
0.351402
0.351385
0.351379
0.351377
0.351377
0.351377
0.351377
0.351377
0.351377
0.351379
0.351384
0.351396
0.351423
0.351479
0.351588
0.351771
0.352053
0.352452
0.352968
0.353586
0.354271
0.354977
0.355656
0.356268
0.356795
0.357211
0.358096
0.354589
0.352774
0.351938
0.351587
0.351451
0.351402
0.351385
0.351379
0.351377
0.351377
0.351377
0.351377
0.351377
0.351379
0.351383
0.351395
0.351424
0.351489
0.351622
0.351866
0.352266
0.352858
0.353655
0.35463
0.355715
0.356816
0.357834
0.358694
0.359358
0.359836
0.360122
0.358085
0.354578
0.352766
0.351933
0.351584
0.35145
0.351401
0.351385
0.351379
0.351377
0.351377
0.351377
0.351377
0.351378
0.351382
0.351392
0.351419
0.351483
0.351625
0.35191
0.352412
0.353202
0.354318
0.355725
0.357305
0.358881
0.360277
0.361367
0.362101
0.362504
0.362644
0.362541
0.358074
0.354567
0.352759
0.351929
0.351582
0.351449
0.351401
0.351384
0.351379
0.351377
0.351377
0.351377
0.351378
0.35138
0.351388
0.35141
0.351466
0.351596
0.351881
0.352435
0.353374
0.354784
0.356642
0.35877
0.360875
0.362668
0.363958
0.364688
0.364935
0.364787
0.364366
0.363735
0.358064
0.354556
0.352752
0.351925
0.35158
0.351448
0.3514
0.351384
0.351379
0.351377
0.351377
0.351377
0.351379
0.351384
0.351399
0.351442
0.351548
0.351794
0.35232
0.353306
0.354901
0.357139
0.359805
0.362477
0.364711
0.366216
0.366935
0.367008
0.366551
0.365778
0.364821
0.363741
0.358055
0.354547
0.352745
0.351921
0.351579
0.351447
0.3514
0.351384
0.351379
0.351377
0.351377
0.351378
0.351381
0.35139
0.351418
0.351494
0.351681
0.35211
0.353008
0.354612
0.357053
0.360162
0.363416
0.36618
0.368004
0.368807
0.368765
0.368062
0.367007
0.365784
0.364487
0.363179
0.358046
0.354537
0.352738
0.351917
0.351577
0.351446
0.3514
0.351384
0.351379
0.351377
0.351377
0.351379
0.351384
0.3514
0.351447
0.351573
0.35188
0.352578
0.353991
0.356373
0.359711
0.363492
0.366896
0.369239
0.370307
0.370305
0.369474
0.368227
0.36681
0.365386
0.364007
0.362741
0.358037
0.354529
0.352732
0.351914
0.351575
0.351446
0.3514
0.351384
0.351379
0.351377
0.351378
0.35138
0.351388
0.351414
0.351488
0.351685
0.352158
0.353219
0.35527
0.358501
0.362603
0.366687
0.369782
0.371389
0.371668
0.370878
0.369528
0.367975
0.366443
0.365059
0.363835
0.362835
0.358029
0.35452
0.352727
0.351911
0.351574
0.351445
0.351399
0.351384
0.351379
0.351378
0.351378
0.351382
0.351394
0.351433
0.351544
0.351831
0.352519
0.35403
0.35679
0.360818
0.365419
0.369421
0.3719
0.372761
0.372271
0.370936
0.369302
0.367654
0.366207
0.365047
0.36414
0.363526
0.358022
0.354512
0.352721
0.351908
0.351572
0.351444
0.351399
0.351384
0.351379
0.351378
0.351379
0.351384
0.351402
0.351457
0.351614
0.352013
0.352961
0.354982
0.358453
0.363124
0.367931
0.371563
0.373354
0.373531
0.372432
0.370782
0.369025
0.367443
0.366211
0.365372
0.364837
0.364593
0.358015
0.354505
0.352716
0.351905
0.351571
0.351444
0.351399
0.351384
0.351379
0.351378
0.351379
0.351387
0.351411
0.351487
0.351696
0.352226
0.353471
0.356022
0.360141
0.365264
0.37003
0.373146
0.374331
0.373882
0.37239
0.370571
0.368809
0.367379
0.366408
0.365877
0.365635
0.365602
0.358008
0.354498
0.352712
0.351902
0.35157
0.351443
0.351399
0.351384
0.351379
0.351378
0.35138
0.35139
0.351423
0.351521
0.35179
0.352463
0.354025
0.357091
0.361756
0.367145
0.371708
0.374286
0.374956
0.374013
0.372272
0.370371
0.368667
0.367403
0.366642
0.366284
0.366085
0.365873
0.358001
0.354491
0.352707
0.3519
0.351568
0.351443
0.351398
0.351384
0.351379
0.351378
0.351381
0.351394
0.351435
0.351558
0.35189
0.352715
0.354597
0.358133
0.36323
0.368738
0.373012
0.375112
0.375329
0.374038
0.372135
0.370194
0.368552
0.36739
0.366675
0.366175
0.365495
0.364362
0.357995
0.354485
0.352703
0.351898
0.351567
0.351442
0.351398
0.351383
0.351379
0.351379
0.351383
0.351398
0.351448
0.351597
0.351994
0.352972
0.355159
0.359105
0.364526
0.37005
0.374011
0.375714
0.375545
0.374008
0.371993
0.370016
0.368384
0.367176
0.366195
0.36497
0.362876
0.359581
0.357989
0.354479
0.352699
0.351895
0.351566
0.351442
0.351398
0.351383
0.351379
0.351379
0.351384
0.351402
0.351462
0.351636
0.352098
0.353223
0.355688
0.35998
0.365633
0.371111
0.374771
0.376145
0.375668
0.373951
0.37184
0.369802
0.368074
0.366577
0.364823
0.361922
0.356942
0.349649
0.357984
0.354473
0.352695
0.351893
0.351565
0.351441
0.351398
0.351383
0.351379
0.351379
0.351385
0.351406
0.351475
0.351674
0.352196
0.35346
0.356168
0.360741
0.366557
0.371956
0.375344
0.376451
0.37573
0.373876
0.371665
0.369515
0.367547
0.365424
0.362163
0.356192
0.346241
0.33244
0.357978
0.354468
0.352691
0.351891
0.351564
0.351441
0.351398
0.351383
0.351379
0.35138
0.351386
0.35141
0.351488
0.351709
0.352287
0.353674
0.356589
0.361386
0.367311
0.372619
0.375774
0.376664
0.37575
0.373782
0.371461
0.369139
0.366764
0.363609
0.357877
0.347032
0.32936
0.305784
0.357973
0.354463
0.352687
0.351889
0.351563
0.351441
0.351398
0.351383
0.351379
0.35138
0.351387
0.351414
0.351499
0.351741
0.352367
0.35386
0.356946
0.361918
0.367916
0.373132
0.376093
0.376803
0.375738
0.37367
0.371229
0.368684
0.36575
0.361122
0.351852
0.33405
0.305295
0.267737
0.357969
0.354458
0.352684
0.351887
0.351562
0.35144
0.351397
0.351383
0.351379
0.35138
0.351388
0.351417
0.351509
0.351768
0.352436
0.354018
0.357241
0.362348
0.368393
0.373524
0.376323
0.376882
0.375695
0.373541
0.370978
0.368188
0.364577
0.358138
0.344407
0.317573
0.274141
0.217546
0.357964
0.354453
0.352681
0.351885
0.351561
0.35144
0.351397
0.351383
0.351379
0.35138
0.351389
0.35142
0.351517
0.351791
0.352493
0.354147
0.357479
0.36269
0.36876
0.37381
0.376474
0.376906
0.375622
0.373394
0.370726
0.3677
0.363434
0.35509
0.336473
0.299267
0.238294
0.158475
0.35796
0.354449
0.352677
0.351883
0.35156
0.351439
0.351397
0.351383
0.351379
0.35138
0.351389
0.351422
0.351523
0.351808
0.352536
0.354242
0.357647
0.362918
0.368991
0.373973
0.376544
0.376892
0.375546
0.373266
0.370532
0.367333
0.362564
0.35264
0.329835
0.283023
0.203399
0.0974275
0.351377
0.351377
0.351377
0.351377
0.351377
0.351377
0.351377
0.351377
0.351377
0.351377
0.351377
0.351377
0.351377
0.351377
0.351377
0.351377
0.351377
0.351377
0.351377
0.351377
0.351377
0.351377
0.351377
0.351377
0.351377
0.351377
0.351377
0.351377
0.351377
0.351377
0.351377
0.351377
0.351377
0.351377
0.351377
0.351377
0.351377
0.351377
0.351377
0.351377
0.351377
0.351377
0.351377
0.351377
0.351377
0.351377
0.351377
0.351377
0.351377
0.351377
0.351377
0.351377
0.351377
0.351377
0.351377
0.351377
0.351377
0.351377
0.351377
0.351377
0.351377
0.351377
0.351377
0.351377
0.351377
0.351377
0.351377
0.351377
0.351377
0.351377
0.351377
0.351377
0.351378
0.351378
0.351378
0.351378
0.351378
0.351378
0.351378
0.351378
0.351378
0.351378
0.351378
0.351378
0.351378
0.351378
0.351378
0.351378
0.351378
0.351378
0.351378
0.351378
0.351378
0.351378
0.351378
0.351378
0.351379
0.351379
0.351379
0.351379
0.35138
0.35138
0.35138
0.35138
0.35138
0.351381
0.351381
0.351381
0.351381
0.351381
0.351382
0.351382
0.351382
0.351382
0.351382
0.351382
0.351382
0.351383
0.351383
0.351383
0.351383
0.351383
0.351383
0.351383
0.351383
0.351383
0.351383
0.351383
0.351386
0.351386
0.351387
0.351388
0.351388
0.351389
0.35139
0.35139
0.351391
0.351392
0.351392
0.351393
0.351394
0.351394
0.351395
0.351395
0.351396
0.351396
0.351396
0.351397
0.351397
0.351397
0.351398
0.351398
0.351398
0.351398
0.351398
0.351398
0.351398
0.351398
0.351398
0.351398
0.351409
0.351412
0.351413
0.351416
0.351418
0.35142
0.351422
0.351423
0.351425
0.351427
0.351429
0.35143
0.351432
0.351433
0.351435
0.351436
0.351437
0.351438
0.351439
0.35144
0.351441
0.351442
0.351442
0.351443
0.351443
0.351443
0.351443
0.351443
0.351443
0.351442
0.351442
0.351442
0.351483
0.351488
0.351493
0.351498
0.351503
0.351509
0.351513
0.351518
0.351523
0.351527
0.351531
0.351535
0.351539
0.351542
0.351545
0.351548
0.35155
0.351552
0.351554
0.351556
0.351557
0.351558
0.351558
0.351559
0.351559
0.351558
0.351558
0.351557
0.351555
0.351554
0.351552
0.351551
0.351681
0.351693
0.351704
0.351715
0.351727
0.351738
0.351748
0.351758
0.351768
0.351777
0.351785
0.351792
0.351799
0.351805
0.35181
0.351815
0.351819
0.351822
0.351825
0.351826
0.351827
0.351827
0.351827
0.351826
0.351823
0.351821
0.351817
0.351813
0.351809
0.351803
0.351797
0.351792
0.352153
0.352175
0.352194
0.352215
0.352236
0.352257
0.352275
0.352292
0.352308
0.352323
0.352335
0.352347
0.352356
0.352364
0.352371
0.352376
0.352379
0.352381
0.352382
0.35238
0.352377
0.352373
0.352367
0.35236
0.352351
0.352341
0.35233
0.352317
0.352304
0.352288
0.352272
0.352257
0.353128
0.353156
0.353183
0.353214
0.353245
0.353273
0.353298
0.353321
0.35334
0.353356
0.353369
0.353379
0.353386
0.35339
0.353391
0.353389
0.353384
0.353376
0.353366
0.353353
0.353337
0.353319
0.353298
0.353275
0.35325
0.353222
0.353193
0.353161
0.353128
0.353093
0.353057
0.353021
0.354841
0.354861
0.354879
0.354907
0.354936
0.354961
0.354979
0.354993
0.355001
0.355003
0.355001
0.354994
0.354982
0.354965
0.354944
0.354918
0.354888
0.354854
0.354817
0.354775
0.35473
0.354681
0.35463
0.354575
0.354518
0.354458
0.354395
0.354331
0.354264
0.354196
0.354125
0.354056
0.357315
0.357288
0.357265
0.357259
0.357254
0.357243
0.357225
0.357199
0.357167
0.357127
0.357082
0.35703
0.356972
0.356908
0.356839
0.356765
0.356686
0.356603
0.356515
0.356424
0.356329
0.356231
0.35613
0.356027
0.355921
0.355814
0.355704
0.355594
0.355482
0.355369
0.355255
0.355141
0.360078
0.35996
0.359854
0.359769
0.359687
0.3596
0.359506
0.359405
0.359297
0.359184
0.359065
0.358941
0.358811
0.358677
0.358538
0.358395
0.358249
0.3581
0.357948
0.357794
0.357638
0.357481
0.357322
0.357163
0.357003
0.356842
0.356682
0.356522
0.356363
0.356205
0.356047
0.355888
0.362242
0.362018
0.361811
0.361622
0.361437
0.361249
0.361057
0.360862
0.360664
0.360464
0.360262
0.360058
0.359852
0.359645
0.359436
0.359227
0.359017
0.358806
0.358596
0.358386
0.358177
0.357969
0.357762
0.357556
0.357353
0.357151
0.356952
0.356755
0.356561
0.356371
0.356183
0.35599
0.363184
0.362879
0.362593
0.362312
0.362032
0.361754
0.361477
0.361201
0.360929
0.360659
0.360392
0.360128
0.359867
0.359609
0.359353
0.3591
0.35885
0.358603
0.358359
0.358117
0.357878
0.357643
0.357411
0.357182
0.356957
0.356735
0.356518
0.356304
0.356094
0.355889
0.355688
0.35548
0.363024
0.362691
0.362374
0.362045
0.361711
0.36138
0.361054
0.360734
0.360421
0.360116
0.359818
0.359527
0.359244
0.358967
0.358698
0.358434
0.358176
0.357923
0.357675
0.357432
0.357193
0.356958
0.356727
0.3565
0.356276
0.356057
0.355841
0.355629
0.355421
0.355218
0.355018
0.354808
0.362445
0.362139
0.361841
0.361515
0.361179
0.360845
0.360519
0.3602
0.359889
0.359588
0.359296
0.359014
0.358742
0.358479
0.358224
0.357977
0.357738
0.357505
0.357278
0.357055
0.356837
0.356623
0.356412
0.356204
0.355998
0.355794
0.355593
0.355393
0.355195
0.355
0.354804
0.354597
0.362133
0.361898
0.361663
0.361393
0.36111
0.360827
0.360549
0.360277
0.360011
0.359752
0.359502
0.35926
0.359026
0.358801
0.358584
0.358375
0.358172
0.357975
0.357783
0.357595
0.35741
0.357227
0.357044
0.356863
0.356681
0.356499
0.356316
0.356131
0.355945
0.355757
0.355565
0.355362
0.362454
0.362319
0.362176
0.361999
0.361809
0.361619
0.36143
0.361243
0.361059
0.360876
0.360697
0.360521
0.36035
0.360182
0.360019
0.359859
0.359703
0.35955
0.359399
0.359248
0.359097
0.358946
0.358792
0.358637
0.358478
0.358315
0.358148
0.357976
0.3578
0.35762
0.357433
0.357233
0.363401
0.363372
0.363327
0.363255
0.363173
0.363089
0.363004
0.362917
0.362827
0.362733
0.362636
0.362536
0.362432
0.362325
0.362216
0.362105
0.361991
0.361875
0.361756
0.361633
0.361506
0.361376
0.36124
0.361099
0.360952
0.360799
0.36064
0.360476
0.360306
0.360133
0.359953
0.359762
0.364678
0.364732
0.364761
0.364769
0.364768
0.364763
0.364754
0.364738
0.364714
0.36468
0.364636
0.364581
0.364516
0.364441
0.364355
0.36426
0.364157
0.364045
0.363924
0.363797
0.363662
0.36352
0.363371
0.363217
0.363056
0.362891
0.362722
0.36255
0.362377
0.362206
0.362035
0.36186
0.36575
0.365819
0.365855
0.36587
0.365873
0.365867
0.365851
0.365822
0.365778
0.365719
0.365644
0.365552
0.365443
0.365318
0.365177
0.365023
0.364855
0.364675
0.364484
0.364285
0.364077
0.363863
0.363645
0.363424
0.363202
0.362981
0.362765
0.362555
0.362356
0.362173
0.362006
0.361848
0.365794
0.365751
0.365659
0.36554
0.365403
0.365248
0.365075
0.364882
0.36467
0.364438
0.364186
0.363915
0.363626
0.363319
0.362996
0.362659
0.36231
0.361951
0.361584
0.361212
0.360838
0.360463
0.360092
0.359727
0.359372
0.359031
0.358709
0.358411
0.358143
0.357916
0.35773
0.357579
0.363552
0.363179
0.362746
0.362282
0.361792
0.361278
0.360742
0.360184
0.359606
0.359011
0.358401
0.357777
0.357142
0.356497
0.355844
0.355186
0.354525
0.353863
0.353204
0.35255
0.351905
0.351273
0.350657
0.350062
0.349493
0.348956
0.348458
0.348007
0.347613
0.347289
0.347042
0.346866
0.357267
0.35627
0.355213
0.354132
0.353034
0.35192
0.350794
0.349662
0.348526
0.347392
0.34626
0.345135
0.344018
0.342912
0.341817
0.340736
0.33967
0.33862
0.33759
0.336581
0.335597
0.334641
0.333716
0.332829
0.331985
0.331191
0.330456
0.329789
0.329203
0.328717
0.328342
0.328074
0.344814
0.342844
0.340848
0.338871
0.336919
0.334995
0.333104
0.331251
0.32944
0.327674
0.325954
0.324279
0.32265
0.321064
0.319522
0.318021
0.316561
0.31514
0.313756
0.312411
0.311105
0.309839
0.308617
0.307442
0.306319
0.305257
0.304262
0.303347
0.302525
0.301817
0.301242
0.300795
0.323864
0.320552
0.317321
0.314219
0.311247
0.308403
0.305686
0.303096
0.300629
0.298282
0.296048
0.293921
0.291893
0.289957
0.288104
0.286327
0.284618
0.282972
0.281382
0.279842
0.278348
0.2769
0.275497
0.274138
0.272828
0.271571
0.270374
0.269247
0.268203
0.26726
0.266439
0.265732
0.291928
0.286922
0.282236
0.277909
0.273914
0.270222
0.26681
0.263657
0.260743
0.258046
0.255547
0.253227
0.251067
0.249051
0.247161
0.245382
0.243699
0.2421
0.24057
0.239099
0.237677
0.236294
0.234944
0.233625
0.232334
0.231074
0.229846
0.228656
0.227508
0.226412
0.225376
0.224381
0.246141
0.239097
0.232894
0.227465
0.222691
0.21847
0.214725
0.211392
0.208419
0.205759
0.203373
0.201229
0.199296
0.197547
0.19596
0.194512
0.193184
0.191955
0.19081
0.189731
0.188702
0.18771
0.186741
0.185784
0.184832
0.183878
0.182918
0.181946
0.180955
0.179928
0.178829
0.177571
0.182383
0.173608
0.166598
0.160922
0.156242
0.152325
0.14901
0.146177
0.143741
0.141633
0.139803
0.13821
0.136821
0.13561
0.134556
0.13364
0.132846
0.132161
0.131571
0.131064
0.130626
0.130246
0.129908
0.129599
0.129301
0.129
0.128679
0.128322
0.127904
0.127379
0.126634
0.1253
0.0951297
0.0887575
0.0839589
0.0802032
0.0772168
0.0748155
0.0728595
0.0712447
0.0698974
0.0687647
0.0678088
0.0669994
0.0663143
0.0657342
0.0652463
0.0648381
0.064504
0.0642361
0.0640347
0.0638949
0.0638217
0.063812
0.0638719
0.0640012
0.0641986
0.064464
0.0647769
0.0651323
0.0654885
0.0658182
0.0660932
0.0661843
0.0146153
0.0139772
0.0134159
0.0129464
0.0125479
0.0122028
0.0118974
0.0116224
0.0113725
0.0111441
0.0109348
0.0107421
0.0105647
0.0104009
0.0102502
0.0101112
0.00998395
0.00986762
0.00976173
0.00966624
0.00957959
0.00950423
0.00943573
0.00937853
0.0093271
0.00929438
0.00925527
0.00924676
0.00922379
0.0092421
0.00924295
0.00932885
0.353979
0.35386
0.353748
0.353644
0.35355
0.353467
0.353395
0.353331
0.353275
0.353225
0.353177
0.353131
0.353083
0.353034
0.352982
0.352927
0.35287
0.352812
0.352755
0.3527
0.352649
0.352604
0.352564
0.352532
0.352508
0.352491
0.352483
0.352483
0.352491
0.352505
0.352527
0.352556
0.352618
0.352563
0.352511
0.352464
0.352422
0.352386
0.352354
0.352328
0.352305
0.352285
0.352267
0.35225
0.352232
0.352213
0.352193
0.352172
0.352149
0.352126
0.352102
0.352079
0.352058
0.352038
0.352021
0.352008
0.351998
0.351992
0.351989
0.351991
0.351996
0.352006
0.352018
0.352035
0.351783
0.351764
0.351747
0.351731
0.351717
0.351705
0.351696
0.351687
0.351681
0.351676
0.351671
0.351667
0.351663
0.351659
0.351654
0.351649
0.351644
0.351638
0.351632
0.351626
0.351621
0.351616
0.351612
0.351609
0.351606
0.351605
0.351606
0.351607
0.35161
0.351615
0.35162
0.351627
0.351484
0.351479
0.351474
0.351469
0.351465
0.351462
0.351459
0.351457
0.351455
0.351454
0.351453
0.351452
0.351451
0.35145
0.351449
0.351449
0.351448
0.351447
0.351446
0.351445
0.351444
0.351443
0.351442
0.351442
0.351441
0.351442
0.351442
0.351443
0.351444
0.351446
0.351447
0.35145
0.351401
0.3514
0.351399
0.351398
0.351397
0.351396
0.351395
0.351394
0.351394
0.351394
0.351393
0.351393
0.351393
0.351393
0.351393
0.351392
0.351392
0.351392
0.351392
0.351392
0.351392
0.351392
0.351392
0.351392
0.351392
0.351392
0.351392
0.351392
0.351393
0.351393
0.351394
0.351394
0.351382
0.351382
0.351381
0.351381
0.351381
0.35138
0.35138
0.35138
0.35138
0.35138
0.35138
0.35138
0.35138
0.35138
0.35138
0.35138
0.35138
0.35138
0.35138
0.35138
0.35138
0.35138
0.35138
0.35138
0.35138
0.35138
0.35138
0.35138
0.35138
0.35138
0.35138
0.35138
0.351378
0.351378
0.351377
0.351377
0.351377
0.351377
0.351377
0.351377
0.351377
0.351377
0.351377
0.351377
0.351377
0.351377
0.351377
0.351377
0.351377
0.351377
0.351377
0.351377
0.351377
0.351377
0.351377
0.351377
0.351377
0.351377
0.351377
0.351377
0.351377
0.351377
0.351377
0.351377
0.351377
0.351377
0.351377
0.351377
0.351377
0.351377
0.351377
0.351377
0.351377
0.351377
0.351377
0.351377
0.351377
0.351377
0.351377
0.351377
0.351377
0.351377
0.351377
0.351377
0.351377
0.351377
0.351377
0.351377
0.351377
0.351377
0.351377
0.351377
0.351377
0.351377
0.351377
0.351377
0.352583
0.352608
0.352635
0.352666
0.3527
0.352736
0.352776
0.352818
0.352863
0.352911
0.352961
0.353012
0.353065
0.353119
0.353173
0.353227
0.353281
0.353334
0.353384
0.353433
0.353479
0.353521
0.35356
0.353593
0.353621
0.353644
0.353659
0.353667
0.353666
0.353656
0.353636
0.353606
0.353566
0.353515
0.353453
0.353383
0.353303
0.353216
0.353125
0.35303
0.352935
0.352843
0.352757
0.352681
0.352618
0.352571
0.352546
0.352544
0.352569
0.352622
0.352704
0.352816
0.352954
0.353115
0.353295
0.353489
0.35369
0.353896
0.354106
0.354321
0.354547
0.354795
0.355079
0.355423
0.355853
0.356381
0.356979
0.357211
0.357247
0.357185
0.35708
0.356963
0.356848
0.356738
0.356631
0.356524
0.356411
0.356288
0.356159
0.356032
0.355918
0.355829
0.355772
0.355759
0.355804
0.355919
0.356087
0.356259
0.356356
0.356332
0.356453
0.356779
0.357143
0.357433
0.357626
0.357737
0.357763
0.357605
0.356815
0.356347
0.356012
0.355636
0.355198
0.354758
0.354359
0.354027
0.353793
0.353796
0.354779
0.355675
0.356414
0.356945
0.357292
0.357502
0.357628
0.357706
0.357746
0.357745
0.357689
0.357563
0.357364
0.35711
0.356794
0.356086
0.354694
0.353255
0.352289
0.351801
0.351595
0.351522
0.351505
0.351509
0.351522
0.351539
0.351567
0.351625
0.351746
0.35198
0.352369
0.352922
0.353577
0.354222
0.354753
0.355125
0.355345
0.355462
0.355507
0.355529
0.355618
0.355819
0.35205
0.352064
0.35208
0.352097
0.352115
0.352136
0.352158
0.352182
0.352207
0.352233
0.352261
0.35229
0.352319
0.352349
0.352379
0.35241
0.35244
0.352469
0.352498
0.352525
0.35255
0.352574
0.352595
0.352614
0.35263
0.352643
0.352652
0.352658
0.352658
0.352655
0.352646
0.352632
0.352613
0.352589
0.352559
0.352524
0.352484
0.35244
0.352393
0.352344
0.352293
0.352244
0.352196
0.352152
0.352114
0.352083
0.352062
0.352051
0.352053
0.352068
0.352097
0.35214
0.352196
0.352263
0.35234
0.352423
0.35251
0.352599
0.352689
0.352777
0.352864
0.352949
0.353032
0.353112
0.353187
0.35325
0.353288
0.353291
0.353264
0.353217
0.35316
0.353099
0.353039
0.352982
0.352929
0.352879
0.352831
0.352785
0.352741
0.352702
0.352668
0.352641
0.352621
0.35261
0.35261
0.352628
0.352665
0.352719
0.35278
0.352844
0.352933
0.353055
0.353187
0.353304
0.353397
0.353465
0.353508
0.35352
0.353486
0.353442
0.353385
0.353299
0.353182
0.35305
0.352915
0.35279
0.352688
0.352632
0.35267
0.352797
0.352963
0.353126
0.35326
0.353356
0.353418
0.353454
0.353466
0.353451
0.353401
0.353306
0.353164
0.352987
0.352788
0.352562
0.352267
0.351944
0.3517
0.351559
0.351492
0.351467
0.351463
0.35147
0.351481
0.351499
0.35153
0.351594
0.351723
0.351965
0.352361
0.352919
0.353577
0.354224
0.354756
0.355127
0.355347
0.35546
0.3555
0.355504
0.355531
0.355592
0.351633
0.351639
0.351645
0.351652
0.351659
0.351667
0.351676
0.351685
0.351695
0.351706
0.351716
0.351728
0.351739
0.351751
0.351763
0.351775
0.351787
0.351798
0.35181
0.35182
0.35183
0.35184
0.351848
0.351856
0.351862
0.351867
0.351871
0.351874
0.351875
0.351874
0.351872
0.351868
0.351862
0.351854
0.351845
0.351833
0.35182
0.351805
0.351789
0.351772
0.351754
0.351736
0.351719
0.351702
0.351686
0.351673
0.351662
0.351654
0.351651
0.351651
0.351656
0.351666
0.35168
0.351697
0.351718
0.351742
0.351768
0.351794
0.351821
0.351848
0.351873
0.351896
0.351917
0.351934
0.351948
0.351957
0.35196
0.351957
0.351949
0.351937
0.351923
0.351907
0.351893
0.351879
0.351866
0.351854
0.351844
0.351834
0.351826
0.351819
0.351814
0.351809
0.351804
0.351799
0.351794
0.351791
0.351792
0.351797
0.351808
0.351825
0.351849
0.351879
0.351913
0.351945
0.351973
0.351997
0.352015
0.352027
0.352033
0.352034
0.352029
0.352016
0.351995
0.351968
0.351937
0.351905
0.351877
0.351856
0.35185
0.351862
0.351888
0.351921
0.351952
0.351976
0.351992
0.352
0.351999
0.351989
0.351967
0.35193
0.351878
0.351815
0.351744
0.351672
0.351599
0.351529
0.351476
0.351443
0.351426
0.35142
0.351421
0.351427
0.351437
0.351454
0.351488
0.351557
0.351694
0.351944
0.352348
0.352911
0.353573
0.354223
0.354758
0.355132
0.355353
0.355465
0.355502
0.355496
0.355494
0.355488
0.351452
0.351454
0.351456
0.351458
0.35146
0.351463
0.351466
0.351468
0.351472
0.351475
0.351478
0.351482
0.351486
0.351489
0.351493
0.351497
0.3515
0.351504
0.351508
0.351511
0.351514
0.351517
0.35152
0.351522
0.351524
0.351526
0.351527
0.351528
0.351529
0.351529
0.351528
0.351527
0.351526
0.351524
0.351522
0.351519
0.351516
0.351512
0.351508
0.351503
0.351498
0.351493
0.351488
0.351483
0.351479
0.351474
0.351471
0.351468
0.351466
0.351465
0.351465
0.351466
0.351468
0.351472
0.351476
0.351482
0.351488
0.351494
0.351501
0.351507
0.351514
0.351519
0.351525
0.351529
0.351532
0.351534
0.351535
0.351534
0.351533
0.351531
0.351529
0.351526
0.351524
0.351522
0.35152
0.351518
0.351517
0.351516
0.351515
0.351515
0.351514
0.351513
0.351512
0.351511
0.351509
0.351507
0.351505
0.351504
0.351504
0.351507
0.35151
0.351516
0.351523
0.35153
0.351536
0.351542
0.351547
0.351552
0.351554
0.351556
0.351556
0.351555
0.351552
0.351547
0.351541
0.351534
0.351527
0.351522
0.35152
0.35152
0.351524
0.35153
0.351536
0.351541
0.351544
0.351545
0.351544
0.35154
0.351533
0.351522
0.351508
0.35149
0.351471
0.351452
0.351434
0.351418
0.351406
0.351399
0.351395
0.351394
0.351395
0.3514
0.351408
0.351425
0.351461
0.351533
0.351675
0.351931
0.35234
0.352907
0.353573
0.354226
0.354764
0.35514
0.355362
0.355474
0.35551
0.355501
0.355489
0.355463
0.351395
0.351395
0.351396
0.351396
0.351397
0.351398
0.351399
0.351399
0.3514
0.351401
0.351402
0.351403
0.351404
0.351405
0.351406
0.351407
0.351408
0.351409
0.35141
0.351411
0.351411
0.351412
0.351413
0.351414
0.351414
0.351415
0.351415
0.351415
0.351415
0.351415
0.351415
0.351415
0.351415
0.351415
0.351414
0.351414
0.351413
0.351412
0.351411
0.35141
0.351409
0.351408
0.351407
0.351406
0.351405
0.351404
0.351403
0.351402
0.351401
0.351401
0.3514
0.351401
0.351401
0.351401
0.351402
0.351403
0.351404
0.351406
0.351407
0.351409
0.35141
0.351411
0.351412
0.351413
0.351414
0.351415
0.351415
0.351415
0.351415
0.351415
0.351414
0.351414
0.351414
0.351414
0.351414
0.351414
0.351414
0.351414
0.351414
0.351414
0.351414
0.351414
0.351414
0.351413
0.351413
0.351412
0.351412
0.351411
0.351411
0.351411
0.351411
0.351412
0.351413
0.351414
0.351415
0.351416
0.351418
0.351419
0.351419
0.35142
0.35142
0.35142
0.35142
0.351419
0.351418