/*--------------------------------*- C++ -*----------------------------------*\
  =========                 |
  \\      /  F ield         | OpenFOAM: The Open Source CFD Toolbox
   \\    /   O peration     | Website:  https://openfoam.org
    \\  /    A nd           | Version:  7
     \\/     M anipulation  |
\*---------------------------------------------------------------------------*/
FoamFile
{
    version     2.0;
    format      ascii;
    class       volScalarField;
    location    "0.00292";
    object      rho;
}
// * * * * * * * * * * * * * * * * * * * * * * * * * * * * * * * * * * * * * //

dimensions      [1 -3 0 0 0 0 0];

internalField   nonuniform List<scalar> 
5000
(
1.2479596
1.2479596
1.2479598
1.2479601
1.2479604
1.2479606
1.2479607
1.2479608
1.2479609
1.2479609
1.247961
1.247961
1.247961
1.247961
1.247961
1.247961
1.247961
1.247961
1.247961
1.247961
1.247961
1.247961
1.247961
1.247961
1.247961
1.247961
1.247961
1.247961
1.247961
1.247961
1.247961
1.247961
1.247961
1.247961
1.247961
1.247961
1.247961
1.247961
1.247961
1.247961
1.247961
1.247961
1.247961
1.247961
1.247961
1.247961
1.247961
1.247961
1.247961
1.247961
1.247961
1.247961
1.247961
1.247961
1.247961
1.247961
1.247961
1.247961
1.247961
1.247961
1.247961
1.247961
1.247961
1.247961
1.247961
1.247961
1.247961
1.2479609
1.2479609
1.2479609
1.2479609
1.2479609
1.2479609
1.2479609
1.2479609
1.2479609
1.2479609
1.2479609
1.2479609
1.2479609
1.2479609
1.2479609
1.2479609
1.2479609
1.2479609
1.2479609
1.2479609
1.2479609
1.2479609
1.2479609
1.2479609
1.2479609
1.2479609
1.2479609
1.2479609
1.2479609
1.2479609
1.2479609
1.2479609
1.2479609
1.2479609
1.2479609
1.2479609
1.2479609
1.2479608
1.2479608
1.2479608
1.2479608
1.2479608
1.2479608
1.2479608
1.2479608
1.2479608
1.2479608
1.2479608
1.2479608
1.2479608
1.2479608
1.2479608
1.2479608
1.2479608
1.2479608
1.2479608
1.2479608
1.2479608
1.2479608
1.2479608
1.2479608
1.2479608
1.2479608
1.2479608
1.2479608
1.2479608
1.2479608
1.2479608
1.2479608
1.2479608
1.2479608
1.2479608
1.2479608
1.2479608
1.2479608
1.2479608
1.2479608
1.2479608
1.2479608
1.2479607
1.2479607
1.2479607
1.2479607
1.2479607
1.2479607
1.2479607
1.2479607
1.2479607
1.2479607
1.2479607
1.2479607
1.2479607
1.2479607
1.2479607
1.2479607
1.2479607
1.2479607
1.2479607
1.2479607
1.2479607
1.2479607
1.2479607
1.2479607
1.2479607
1.2479607
1.2479607
1.2479607
1.2479607
1.2479607
1.2479607
1.2479607
1.2479607
1.2479607
1.2479607
1.2479607
1.2479607
1.2479607
1.2479607
1.2479607
1.2479607
1.2479607
1.2479607
1.2479607
1.2479607
1.2479607
1.2479607
1.2479607
1.2479607
1.2479607
1.2479607
1.2479607
1.2479607
1.2479607
1.2479607
1.2479607
1.2479607
1.2479607
1.2479607
1.2479607
1.2479607
1.2479607
1.2479607
1.2479607
1.2479607
1.2479607
1.2479607
1.2479607
1.2479607
1.2479607
1.2479607
1.2479607
1.2479607
1.2479607
1.2479607
1.2479607
1.2479607
1.2479607
1.2479607
1.2479607
1.2479607
1.2479607
1.2479607
1.2479607
1.2479607
1.2479607
1.2479607
1.2479607
1.2479607
1.2479607
1.2479607
1.2479607
1.2479607
1.2479607
1.2479607
1.2479607
1.2479607
1.2479607
1.2479607
1.2479607
1.2479607
1.2479607
1.2479607
1.2479607
1.2479607
1.2479607
1.2479607
1.2479607
1.2479607
1.2479607
1.2479607
1.2479607
1.2479607
1.2479607
1.2479607
1.2479607
1.2479607
1.2479607
1.2479607
1.2479607
1.2479607
1.2479607
1.2479607
1.2479607
1.2479607
1.2479607
1.2479607
1.2479607
1.2479607
1.2479607
1.2479607
1.2479607
1.2479607
1.2479607
1.2479607
1.2479607
1.2479607
1.2479607
1.2479607
1.2479607
1.2479607
1.2479607
1.2479607
1.2479607
1.2479607
1.2479607
1.2479607
1.2479607
1.2479607
1.2479607
1.2479607
1.2479607
1.2479607
1.2479607
1.2479607
1.2479607
1.2479607
1.2479607
1.2479607
1.2479607
1.2479607
1.2479607
1.2479607
1.2479607
1.2479607
1.2479607
1.2479607
1.2479607
1.2479607
1.2479607
1.2479607
1.2479607
1.2479607
1.2479607
1.2479607
1.2479607
1.2479607
1.2479607
1.2479607
1.2479607
1.2479607
1.2479607
1.2479607
1.2479607
1.2479607
1.2479607
1.2479607
1.2479607
1.2479607
1.2479607
1.2479607
1.2479607
1.2479607
1.2479607
1.2479607
1.2479607
1.2479607
1.2479607
1.2479607
1.2479607
1.2479607
1.2479607
1.2479607
1.2479607
1.2479607
1.2479607
1.2479607
1.2479607
1.2479607
1.2479607
1.2479607
1.2479607
1.2479607
1.2479607
1.2479607
1.2479607
1.2479607
1.2479608
1.2479608
1.2479608
1.2479608
1.2479608
1.2479608
1.2479608
1.2479608
1.2479608
1.2479608
1.2479608
1.2479608
1.2479608
1.2479608
1.2479608
1.2479608
1.2479608
1.2479608
1.2479608
1.2479608
1.2479608
1.2479608
1.2479608
1.2479608
1.2479608
1.2479608
1.2479608
1.2479608
1.2479608
1.2479608
1.2479608
1.2479608
1.2479608
1.2479608
1.2479608
1.2479608
1.2479608
1.2479608
1.2479608
1.2479608
1.2479608
1.2479608
1.2479608
1.2479608
1.2479608
1.2479608
1.2479608
1.2479608
1.2479608
1.2479608
1.2479608
1.2479608
1.2479608
1.2479608
1.2479608
1.2479608
1.2479608
1.2479608
1.2479608
1.2479608
1.2479608
1.2479608
1.2479608
1.2479608
1.2479608
1.2479608
1.2479608
1.2479608
1.2479608
1.2479608
1.2479608
1.2479608
1.2479608
1.2479608
1.2479608
1.2479608
1.2479608
1.2479608
1.2479608
1.2479608
1.2479608
1.2479608
1.2479608
1.2479608
1.2479608
1.2479608
1.2479608
1.2479608
1.2479608
1.2479608
1.2479608
1.2479608
1.2479608
1.2479608
1.2479608
1.2479608
1.2479608
1.2479608
1.2479608
1.2479608
1.2479608
1.2479608
1.2479608
1.2479608
1.2479608
1.2479608
1.2479608
1.2479608
1.2479608
1.2479608
1.2479608
1.2479608
1.2479608
1.2479608
1.2479608
1.2479608
1.2479608
1.2479608
1.2479608
1.2479608
1.2479608
1.2479608
1.2479608
1.2479608
1.2479608
1.2479608
1.2479608
1.2479608
1.2479608
1.2479608
1.2479608
1.2479608
1.2479608
1.2479608
1.2479608
1.2479608
1.2479608
1.2479608
1.2479608
1.2479608
1.2479608
1.2479608
1.2479608
1.2479608
1.2479608
1.2479608
1.2479608
1.2479608
1.2479608
1.2479608
1.2479608
1.2479608
1.2479608
1.2479608
1.2479608
1.2479608
1.2479608
1.2479608
1.2479608
1.2479608
1.2479608
1.2479608
1.2479608
1.2479608
1.2479608
1.2479608
1.2479608
1.2479608
1.2479608
1.2479608
1.2479608
1.2479608
1.2479608
1.2479608
1.2479608
1.2479608
1.2479608
1.2479608
1.2479608
1.2479608
1.2479608
1.2479608
1.2479608
1.2479608
1.2479608
1.2479608
1.2479608
1.2479608
1.2479608
1.2479608
1.2479608
1.2479608
1.2479608
1.2479608
1.2479608
1.2479608
1.2479608
1.2479608
1.2479608
1.2479608
1.2479608
1.2479608
1.2479608
1.2479608
1.2479608
1.2479608
1.2479608
1.2479608
1.2479608
1.2479608
1.2479608
1.2479608
1.2479608
1.2479608
1.2479608
1.2479608
1.2479608
1.2479608
1.2479608
1.2479608
1.2479608
1.2479608
1.2479608
1.2479608
1.2479608
1.2479608
1.2479608
1.2479608
1.2479608
1.2479608
1.2479608
1.2479608
1.2479608
1.2479608
1.2479608
1.2479608
1.2479608
1.2479608
1.2479608
1.2479608
1.2479608
1.2479608
1.2479608
1.2479608
1.2479608
1.2479608
1.2479608
1.2479608
1.2479608
1.2479608
1.2479608
1.2479608
1.2479608
1.2479608
1.2479608
1.2479608
1.2479608
1.2479608
1.2479608
1.2479608
1.2479608
1.2479608
1.2479608
1.2479608
1.2479608
1.2479608
1.2479608
1.2479608
1.2479608
1.2479608
1.2479608
1.2479608
1.2479608
1.2479608
1.2479608
1.2479608
1.2479608
1.2479608
1.2479608
1.2479608
1.2479608
1.2479608
1.2479608
1.2479608
1.2479608
1.2479608
1.2479608
1.2479608
1.2479608
1.2479608
1.2479608
1.2479608
1.2479608
1.2479608
1.2479608
1.2479608
1.2479608
1.2479608
1.2479608
1.2479608
1.2479608
1.2479608
1.2479608
1.2479608
1.2479608
1.2479608
1.2479608
1.2479608
1.2479608
1.2479608
1.2479608
1.2479608
1.2479608
1.2479608
1.2479608
1.2479608
1.2479608
1.2479608
1.2479608
1.2479608
1.2479608
1.2479608
1.2479608
1.2479608
1.2479608
1.2479608
1.2479608
1.2479608
1.2479608
1.2479608
1.2479608
1.2479608
1.2479608
1.2479608
1.2479608
1.2479608
1.2479608
1.2479608
1.2479608
1.2479608
1.2479608
1.2479608
1.2479608
1.2479608
1.2479608
1.2479608
1.2479608
1.2479608
1.2479608
1.2479608
1.2479608
1.2479608
1.2479608
1.2479608
1.2479608
1.2479608
1.2479608
1.2479608
1.2479608
1.2479608
1.2479608
1.2479608
1.2479608
1.2479608
1.2479608
1.2479608
1.2479608
1.2479608
1.2479608
1.2479608
1.2479608
1.2479608
1.2479608
1.2479608
1.2479608
1.2479608
1.2479608
1.2479608
1.2479608
1.2479608
1.2479608
1.2479608
1.2479608
1.2479608
1.2479608
1.2479608
1.2479608
1.2479608
1.2479608
1.2479608
1.2479608
1.2479608
1.2479608
1.2479608
1.2479608
1.2479608
1.2479608
1.2479608
1.2479608
1.2479608
1.2479608
1.2479608
1.2479608
1.2479608
1.2479608
1.2479608
1.2479608
1.2479608
1.2479608
1.2479608
1.2479608
1.2479608
1.2479608
1.2479608
1.2479608
1.2479608
1.2479608
1.2479608
1.2479608
1.2479608
1.2479608
1.2479608
1.2479608
1.2479608
1.2479608
1.2479608
1.2479608
1.2479608
1.2479608
1.2479608
1.2479608
1.2479608
1.2479608
1.2479608
1.2479608
1.2479608
1.2479608
1.2479608
1.2479608
1.2479608
1.2479608
1.2479608
1.2479608
1.2479608
1.2479608
1.2479608
1.2479608
1.2479608
1.2479608
1.2479608
1.2479608
1.2479608
1.2479608
1.2479608
1.2479608
1.2479608
1.2479608
1.2479608
1.2479608
1.2479608
1.2479608
1.2479608
1.2479608
1.2479608
1.2479608
1.2479608
1.2479608
1.2479608
1.2479608
1.2479608
1.2479608
1.2479608
1.2479608
1.2479608
1.2479608
1.2479608
1.2479608
1.2479608
1.2479608
1.2479608
1.2479608
1.2479608
1.2479608
1.2479608
1.2479608
1.2479608
1.2479608
1.2479608
1.2479608
1.2479608
1.2479608
1.2479608
1.2479608
1.2479608
1.2479608
1.2479608
1.2479608
1.2479608
1.2479608
1.2479608
1.2479608
1.2479608
1.2479608
1.2479608
1.2479608
1.2479608
1.2479608
1.2479608
1.2479608
1.2479608
1.2479608
1.2479608
1.2479608
1.2479608
1.2479608
1.2479608
1.2479608
1.2479608
1.2479608
1.2479608
1.2479608
1.2479608
1.2479608
1.2479608
1.2479608
1.2479608
1.2479608
1.2479608
1.2479608
1.2479608
1.2479608
1.2479608
1.2479608
1.2479608
1.2479608
1.2479608
1.2479608
1.2479608
1.2479608
1.2479608
1.2479608
1.2479608
1.2479608
1.2479608
1.2479608
1.2479608
1.2479608
1.2479608
1.2479608
1.2479608
1.2479608
1.2479608
1.2479608
1.2479608
1.2479608
1.2479608
1.2479608
1.2479608
1.2479608
1.2479608
1.2479608
1.2479608
1.2479608
1.2479608
1.2479608
1.2479608
1.2479608
1.2479608
1.2479608
1.2479608
1.2479608
1.2479608
1.2479608
1.2479608
1.2479608
1.2479608
1.2479608
1.2479608
1.2479608
1.2479608
1.2479608
1.2479608
1.2479608
1.2479608
1.2479608
1.2479608
1.2479608
1.2479608
1.2479608
1.2479608
1.2479608
1.2479608
1.2479608
1.2479608
1.2479608
1.2479608
1.2479608
1.2479608
1.2479608
1.2479608
1.2479608
1.2479608
1.2479608
1.2479608
1.2479608
1.2479608
1.2479608
1.2479608
1.2479608
1.2479608
1.2479608
1.2479608
1.2479608
1.2479608
1.2479608
1.2479608
1.2479608
1.2479608
1.2479608
1.2479608
1.2479608
1.2479608
1.2479608
1.2479608
1.2479608
1.2479608
1.2479608
1.2479608
1.2479608
1.2479608
1.2479608
1.2479608
1.2479608
1.2479608
1.2479608
1.2479608
1.2479608
1.2479608
1.2479608
1.2479608
1.2479608
1.2479608
1.2479608
1.2479607
1.2479607
1.2479607
1.2479607
1.2479607
1.2479607
1.2479607
1.2479607
1.2479607
1.2479607
1.2479608
1.2479608
1.2479608
1.2479608
1.2479608
1.2479607
1.2479607
1.2479607
1.2479607
1.2479607
1.2479607
1.2479607
1.2479607
1.2479607
1.2479607
1.2479607
1.2479607
1.2479607
1.2479607
1.2479607
1.2479607
1.2479607
1.2479607
1.2479607
1.2479607
1.2479607
1.2479607
1.2479607
1.2479607
1.2479607
1.2479607
1.2479607
1.2479607
1.2479607
1.2479607
1.2479607
1.2479607
1.2479607
1.2479607
1.2479607
1.2479607
1.2479607
1.2479607
1.2479607
1.2479607
1.2479607
1.2479607
1.2479607
1.2479607
1.2479607
1.2479607
1.2479607
1.2479607
1.2479607
1.2479607
1.2479607
1.2479607
1.2479607
1.2479607
1.2479607
1.2479607
1.2479607
1.2479607
1.2479607
1.2479607
1.2479607
1.2479607
1.2479607
1.2479607
1.2479607
1.2479607
1.2479607
1.2479607
1.2479607
1.2479607
1.2479607
1.2479607
1.2479607
1.2479607
1.2479607
1.2479607
1.2479607
1.2479607
1.2479607
1.2479607
1.2479607
1.2479607
1.2479607
1.2479607
1.2479607
1.2479607
1.2479607
1.2479607
1.2479607
1.2479607
1.2479607
1.2479607
1.2479607
1.2479607
1.2479607
1.2479607
1.2479607
1.2479607
1.2479607
1.2479607
1.2479607
1.2479607
1.2479607
1.2479607
1.2479607
1.2479607
1.2479607
1.2479607
1.2479607
1.2479607
1.2479607
1.2479607
1.2479607
1.2479607
1.2479607
1.2479607
1.2479607
1.2479607
1.2479607
1.2479607
1.2479607
1.2479607
1.2479607
1.2479607
1.2479607
1.2479607
1.2479607
1.2479607
1.2479607
1.2479607
1.2479607
1.2479607
1.2479607
1.2479607
1.2479607
1.2479607
1.2479607
1.2479607
1.2479607
1.2479607
1.2479607
1.2479607
1.2479607
1.2479607
1.2479607
1.2479607
1.2479607
1.2479607
1.2479607
1.2479607
1.2479607
1.2479607
1.2479607
1.2479607
1.2479607
1.2479607
1.2479607
1.2479607
1.2479607
1.2479607
1.2479607
1.2479607
1.2479607
1.2479607
1.2479607
1.2479607
1.2479607
1.2479607
1.2479607
1.2479607
1.2479607
1.2479607
1.2479607
1.2479607
1.2479607
1.2479607
1.2479607
1.2479607
1.2479607
1.2479607
1.2479607
1.2479607
1.2479607
1.2479607
1.2479607
1.2479607
1.2479607
1.2479607
1.2479607
1.2479607
1.2479607
1.2479607
1.2479607
1.2479607
1.2479607
1.2479607
1.2479607
1.2479607
1.2479606
1.2479606
1.2479606
1.2479606
1.2479606
1.2479606
1.2479606
1.2479606
1.2479606
1.2479606
1.2479606
1.2479606
1.2479606
1.2479606
1.2479606
1.2479606
1.2479606
1.2479606
1.2479606
1.2479606
1.2479606
1.2479606
1.2479606
1.2479606
1.2479606
1.2479606
1.2479606
1.2479606
1.2479606
1.2479606
1.2479606
1.2479606
1.2479606
1.2479606
1.2479606
1.2479606
1.2479606
1.2479606
1.2479606
1.2479606
1.2479606
1.2479606
1.2479606
1.2479606
1.2479606
1.2479606
1.2479606
1.2479606
1.2479606
1.2479606
1.2479606
1.2479606
1.2479606
1.2479606
1.2479606
1.2479606
1.2479606
1.2479606
1.2479606
1.2479606
1.2479606
1.2479606
1.2479606
1.2479606
1.2479606
1.2479606
1.2479606
1.2479606
1.2479606
1.2479606
1.2479606
1.2479606
1.2479606
1.2479606
1.2479606
1.2479606
1.2479606
1.2479606
1.2479606
1.2479606
1.2479606
1.2479606
1.2479606
1.2479606
1.2479606
1.2479606
1.2479606
1.2479606
1.2479606
1.2479606
1.2479606
1.2479606
1.2479606
1.2479606
1.2479606
1.2479606
1.2479606
1.2479606
1.2479606
1.2479606
1.2479606
1.2479606
1.2479606
1.2479606
1.2479606
1.2479606
1.2479606
1.2479606
1.2479606
1.2479606
1.2479606
1.2479606
1.2479606
1.2479606
1.2479606
1.2479606
1.2479606
1.2479606
1.2479606
1.2479606
1.2479606
1.2479606
1.2479606
1.2479606
1.2479606
1.2479606
1.2479606
1.2479606
1.2479606
1.2479606
1.2479606
1.2479606
1.2479606
1.2479606
1.2479606
1.2479606
1.2479606
1.2479606
1.2479606
1.2479606
1.2479606
1.2479606
1.2479606
1.2479606
1.2479606
1.2479606
1.2479606
1.2479606
1.2479606
1.2479606
1.2479606
1.2479606
1.2479606
1.2479606
1.2479606
1.2479606
1.2479606
1.2479606
1.2479606
1.2479606
1.2479606
1.2479606
1.2479606
1.2479606
1.2479606
1.2479606
1.2479606
1.2479606
1.2479606
1.2479606
1.2479606
1.2479606
1.2479606
1.2479606
1.2479606
1.2479606
1.2479606
1.2479606
1.2479606
1.2479606
1.2479606
1.2479606
1.2479606
1.2479606
1.2479606
1.2479606
1.2479606
1.2479606
1.2479606
1.2479606
1.2479606
1.2479606
1.2479606
1.2479606
1.2479606
1.2479606
1.2479606
1.2479606
1.2479606
1.2479606
1.2479606
1.2479606
1.2479606
1.2479606
1.2479606
1.2479606
1.2479606
1.2479606
1.2479606
1.2479606
1.2479606
1.2479606
1.2479606
1.2479606
1.2479606
1.2479606
1.2479606
1.2479606
1.2479606
1.2479606
1.2479606
1.2479606
1.2479606
1.2479606
1.2479606
1.2479606
1.2479606
1.2479606
1.2479606
1.2479606
1.2479606
1.2479606
1.2479606
1.2479606
1.2479606
1.2479606
1.2479606
1.2479606
1.2479606
1.2479606
1.2479606
1.2479606
1.2479606
1.2479606
1.2479606
1.2479606
1.2479606
1.2479606
1.2479606
1.2479606
1.2479606
1.2479606
1.2479606
1.2479606
1.2479606
1.2479606
1.2479606
1.2479606
1.2479606
1.2479606
1.2479606
1.2479606
1.2479606
1.2479606
1.2479606
1.2479607
1.2479607
1.2479607
1.2479607
1.2479607
1.2479607
1.2479607
1.2479607
1.2479607
1.2479607
1.2479607
1.2479607
1.2479607
1.2479607
1.2479607
1.2479607
1.2479607
1.2479607
1.2479607
1.2479607
1.2479607
1.2479607
1.2479607
1.2479607
1.2479607
1.2479607
1.2479607
1.2479607
1.2479607
1.2479607
1.2479607
1.2479607
1.2479607
1.2479607
1.2479607
1.2479607
1.2479607
1.2479607
1.2479607
1.2479607
1.2479607
1.2479607
1.2479607
1.2479607
1.2479608
1.2479608
1.2479608
1.2479608
1.2479608
1.2479608
1.2479608
1.2479608
1.2479608
1.2479608
1.2479608
1.2479608
1.2479608
1.2479608
1.2479608
1.2479608
1.2479608
1.2479608
1.2479608
1.2479608
1.2479608
1.2479608
1.2479608
1.2479609
1.2479609
1.2479609
1.2479609
1.2479609
1.2479609
1.2479609
1.2479609
1.2479609
1.2479609
1.2479609
1.2479609
1.2479609
1.2479609
1.2479609
1.2479609
1.2479609
1.2479609
1.2479609
1.2479609
1.2479609
1.247961
1.247961
1.247961
1.247961
1.247961
1.247961
1.247961
1.247961
1.247961
1.247961
1.247961
1.247961
1.247961
1.2479611
1.2479611
1.2479611
1.2479611
1.2479611
1.2479611
1.2479611
1.2479611
1.2479611
1.2479611
1.2479611
1.2479611
1.2479612
1.2479612
1.2479612
1.2479612
1.2479612
1.2479612
1.2479612
1.2479612
1.2479612
1.2479612
1.2479612
1.2479613
1.2479613
1.2479613
1.2479613
1.2479613
1.2479613
1.2479613
1.2479613
1.2479613
1.2479614
1.2479614
1.2479614
1.2479614
1.2479614
1.2479614
1.2479614
1.2479614
1.2479615
1.2479615
1.2479615
1.2479615
1.2479615
1.2479615
1.2479615
1.2479615
1.2479616
1.2479616
1.2479616
1.2479616
1.2479616
1.2479616
1.2479616
1.2479617
1.2479617
1.2479617
1.2479617
1.2479617
1.2479617
1.2479617
1.2479618
1.2479618
1.2479618
1.2479618
1.2479618
1.2479618
1.2479619
1.2479619
1.2479619
1.2479619
1.2479619
1.247962
1.247962
1.247962
1.247962
1.247962
1.247962
1.2479621
1.2479621
1.2479621
1.2479621
1.2479621
1.2479622
1.2479622
1.2479622
1.2479622
1.2479623
1.2479623
1.2479623
1.2479623
1.2479623
1.2479624
1.2479624
1.2479624
1.2479624
1.2479625
1.2479625
1.2479625
1.2479625
1.2479625
1.2479626
1.2479626
1.2479626
1.2479626
1.2479627
1.2479627
1.2479627
1.2479627
1.2479628
1.2479628
1.2479628
1.2479629
1.2479629
1.2479629
1.2479629
1.247963
1.247963
1.247963
1.247963
1.2479631
1.2479631
1.2479631
1.2479632
1.2479632
1.2479632
1.2479632
1.2479633
1.2479633
1.2479633
1.2479634
1.2479634
1.2479634
1.2479635
1.2479635
1.2479635
1.2479636
1.2479636
1.2479636
1.2479637
1.2479637
1.2479637
1.2479638
1.2479638
1.2479639
1.2479639
1.2479639
1.247964
1.247964
1.247964
1.2479641
1.2479641
1.2479642
1.2479642
1.2479642
1.2479643
1.2479643
1.2479643
1.2479644
1.2479644
1.2479645
1.2479645
1.2479646
1.2479646
1.2479646
1.2479647
1.2479647
1.2479648
1.2479648
1.2479649
1.2479649
1.2479649
1.247965
1.247965
1.2479651
1.2479651
1.2479652
1.2479652
1.2479653
1.2479653
1.2479654
1.2479654
1.2479655
1.2479655
1.2479656
1.2479656
1.2479657
1.2479657
1.2479658
1.2479659
1.2479659
1.247966
1.247966
1.2479661
1.2479661
1.2479662
1.2479663
1.2479663
1.2479664
1.2479664
1.2479665
1.2479666
1.2479666
1.2479667
1.2479667
1.2479668
1.2479669
1.2479669
1.247967
1.2479671
1.2479671
1.2479672
1.2479673
1.2479674
1.2479674
1.2479675
1.2479676
1.2479677
1.2479677
1.2479678
1.2479679
1.247968
1.2479681
1.2479681
1.2479682
1.2479683
1.2479684
1.2479685
1.2479686
1.2479687
1.2479688
1.2479688
1.2479689
1.247969
1.2479691
1.2479692
1.2479693
1.2479694
1.2479695
1.2479697
1.2479698
1.2479699
1.24797
1.2479701
1.2479702
1.2479704
1.2479705
1.2479706
1.2479707
1.2479709
1.247971
1.2479711
1.2479713
1.2479714
1.2479716
1.2479717
1.2479719
1.247972
1.2479722
1.2479723
1.2479725
1.2479727
1.2479728
1.247973
1.2479732
1.2479734
1.2479736
1.2479738
1.247974
1.2479742
1.2479744
1.2479746
1.2479748
1.247975
1.2479752
1.2479755
1.2479757
1.247976
1.2479762
1.2479765
1.2479767
1.247977
1.2479773
1.2479776
1.2479779
1.2479782
1.2479785
1.2479788
1.2479791
1.2479795
1.2479798
1.2479802
1.2479805
1.2479809
1.2479813
1.2479817
1.2479821
1.2479825
1.2479829
1.2479834
1.2479838
1.2479843
1.2479848
1.2479853
1.2479858
1.2479863
1.2479868
1.2479874
1.2479879
1.2479885
1.2479891
1.2479897
1.2479903
1.247991
1.2479917
1.2479923
1.247993
1.2479938
1.2479945
1.2479953
1.247996
1.2479968
1.2479977
1.2479985
1.2479994
1.2480003
1.2480012
1.2480022
1.2480032
1.2480042
1.2480052
1.2480062
1.2480073
1.2480085
1.2480096
1.2480108
1.248012
1.2480132
1.2480145
1.2480158
1.2480172
1.2480186
1.24802
1.2480215
1.248023
1.2480245
1.2480261
1.2480278
1.2480294
1.2480311
1.2480329
1.2480347
1.2480366
1.2480385
1.2480405
1.2480425
1.2480445
1.2480467
1.2480488
1.2480511
1.2480534
1.2480557
1.2480581
1.2480606
1.2480631
1.2480657
1.2480684
1.2480711
1.2480739
1.2480768
1.2480798
1.2480828
1.2480859
1.2480891
1.2480923
1.2480957
1.2480991
1.2481026
1.2481062
1.2481099
1.2481136
1.2481175
1.2481215
1.2481255
1.2481297
1.2481339
1.2481383
1.2481427
1.2481473
1.2481519
1.2481567
1.2481616
1.2481666
1.2481717
1.2481769
1.2481823
1.2481878
1.2481934
1.2481991
1.248205
1.248211
1.2482171
1.2482234
1.2482298
1.2482363
1.248243
1.2482499
1.2482568
1.248264
1.2482713
1.2482787
1.2482863
1.2482941
1.2483021
1.2483102
1.2483185
1.2483269
1.2483356
1.2483444
1.2483534
1.2483625
1.2483719
1.2483815
1.2483912
1.2484012
1.2484113
1.2484217
1.2484323
1.248443
1.248454
1.2484652
1.2484767
1.2484883
1.2485002
1.2485123
1.2485246
1.2485372
1.24855
1.248563
1.2485763
1.2485899
1.2486037
1.2486177
1.248632
1.2486466
1.2486614
1.2486765
1.2486919
1.2487075
1.2487235
1.2487397
1.2487562
1.248773
1.24879
1.2488074
1.2488251
1.2488431
1.2488613
1.2488799
1.2488988
1.2489181
1.2489376
1.2489575
1.2489777
1.2489982
1.249019
1.2490402
1.2490618
1.2490837
1.2491059
1.2491285
1.2491514
1.2491747
1.2491984
1.2492224
1.2492468
1.2492716
1.2492967
1.2493222
1.2493481
1.2493744
1.2494011
1.2494282
1.2494556
1.2494835
1.2495118
1.2495405
1.2495695
1.249599
1.249629
1.2496593
1.24969
1.2497212
1.2497528
1.2497849
1.2498173
1.2498503
1.2498836
1.2499174
1.2499517
1.2499863
1.2500215
1.2500571
1.2500932
1.2501297
1.2501667
1.2502041
1.250242
1.2502804
1.2503193
1.2503587
1.2503985
1.2504388
1.2504796
1.2505209
1.2505627
1.2506049
1.2506477
1.2506909
1.2507347
1.250779
1.2508237
1.250869
1.2509148
1.2509611
1.2510079
1.2510552
1.2511031
1.2511514
1.2512003
1.2512497
1.2512997
1.2513501
1.2514011
1.2514526
1.2515047
1.2515572
1.2516104
1.251664
1.2517182
1.2517729
1.2518282
1.251884
1.2519404
1.2519973
1.2520547
1.2521127
1.2521713
1.2522304
1.25229
1.2523502
1.252411
1.2524723
1.2525341
1.2525966
1.2526595
1.2527231
1.2527872
1.2528518
1.252917
1.2529828
1.2530491
1.253116
1.2531834
1.2532514
1.25332
1.2533892
1.2534589
1.2535291
1.2535999
1.2536713
1.2537433
1.2538158
1.2538889
1.2539625
1.2540367
1.2541115
1.2541869
1.2542628
1.2543392
1.2544163
1.2544939
1.254572
1.2546507
1.25473
1.2548099
1.2548903
1.2549713
1.2550528
1.2551349
1.2552176
1.2553008
1.2553846
1.2554689
1.2555538
1.2556393
1.2557253
1.2558119
1.255899
1.2559867
1.256075
1.2561638
1.2562531
1.2563431
1.2564335
1.2565246
1.2566161
1.2567083
1.256801
1.2568942
1.256988
1.2570823
1.2571772
1.2572727
1.2573686
1.2574652
1.2575623
1.2576599
1.2577581
1.2578568
1.2579561
1.2580559
1.2581563
1.2582572
1.2583586
1.2584606
1.2585632
1.2586663
1.2587699
1.2588741
1.2589788
1.2590841
1.2591899
1.2592962
1.2594031
1.2595106
1.2596186
1.2597271
1.2598362
1.2599459
1.2600561
1.2601668
1.2602781
1.2603899
1.2605023
1.2606153
1.2607287
1.2608428
1.2609574
1.2610726
1.2611883
1.2613046
1.2614215
1.2615389
1.2616569
1.2617755
1.2618947
1.2620144
1.2621347
1.2622557
1.2623772
1.2624992
1.2626219
1.2627452
1.2628691
1.2629937
1.2631188
1.2632446
1.2633709
1.263498
1.2636256
1.2637539
1.2638829
1.2640125
1.2641428
1.2642738
1.2644055
1.2645378
1.2646709
1.2648047
1.2649392
1.2650744
1.2652104
1.2653471
1.2654846
1.2656229
1.2657619
1.2659018
1.2660425
1.2661841
1.2663265
1.2664697
1.2666139
1.2667589
1.2669049
1.2670518
1.2671997
1.2673485
1.2674984
1.2676492
1.2678011
1.2679541
1.2681082
1.2682633
1.2684197
1.2685772
1.2687358
1.2688958
1.2690569
1.2692194
1.2693832
1.2695484
1.2697149
1.2698829
1.2700523
1.2702232
1.2703957
1.2705698
1.2707455
1.2709228
1.2711019
1.2712828
1.2714655
1.27165
1.2718365
1.2720249
1.2722154
1.272408
1.2726027
1.2727996
1.2729988
1.2732003
1.2734042
1.2736106
1.2738195
1.2740311
1.2742453
1.2744624
1.2746822
1.274905
1.2751308
1.2753598
1.2755919
1.2758272
1.276066
1.2763082
1.276554
1.2768035
1.2770567
1.2773138
1.2775749
1.2778401
1.2781095
1.2783832
1.2786614
1.2789441
1.2792314
1.2795236
1.2798206
1.2801228
1.2804301
1.2807427
1.2810608
1.2813844
1.2817138
1.282049
1.2823902
1.2827375
1.2830912
1.2834512
1.2838178
1.2841912
1.2845713
1.2849585
1.2853529
1.2857545
1.2861635
1.2865802
1.2870045
1.2874367
1.2878769
1.2883253
1.2887819
1.2892469
1.2897205
1.2902027
1.2906937
1.2911936
1.2917024
1.2922204
1.2927476
1.2932842
1.2938301
1.2943855
1.2949504
1.295525
1.2961092
1.2967032
1.2973069
1.2979205
1.2985439
1.299177
1.2998201
1.3004729
1.3011355
1.3018079
1.30249
1.3031817
1.303883
1.3045938
1.3053139
1.3060434
1.3067819
1.3075295
1.3082859
1.3090509
1.3098244
1.3106063
1.3113961
1.3121938
1.3129991
1.3138118
1.3146315
1.315458
1.316291
1.3171302
1.3179753
1.3188259
1.3196817
1.3205424
1.3214076
1.3222769
1.32315
1.3240264
1.3249059
1.3257879
1.3266722
1.3275582
1.3284457
1.3293341
1.3302231
1.3311123
1.3320012
1.3328895
1.3337768
1.3346626
1.3355465
1.3364283
1.3373074
1.3381835
1.3390562
1.3399251
1.34079
1.3416504
1.3425061
1.3433566
1.3442017
1.3450411
1.3458744
1.3467014
1.3475218
1.3483354
1.3491419
1.3499411
1.3507327
1.3515166
1.3522926
1.3530604
1.35382
1.3545712
1.3553137
1.3560476
1.3567727
1.3574889
1.3581961
1.3588942
1.3595832
1.360263
1.3609336
1.3615949
1.362247
1.3628898
1.3635233
1.3641475
1.3647625
1.3653683
1.365965
1.3665525
1.3671309
1.3677003
1.3682608
1.3688124
1.3693552
1.3698893
1.3704148
1.3709318
1.3714403
1.3719406
1.3724326
1.3729166
1.3733925
1.3738606
1.374321
1.3747737
1.375219
1.3756568
1.3760874
1.376511
1.3769274
1.3773371
1.37774
1.3781363
1.3785261
1.3789096
1.3792869
1.379658
1.3800232
1.3803826
1.3807363
1.3810843
1.3814269
1.3817642
1.3820963
1.3824233
1.3827452
1.3830623
1.3833747
1.3836824
1.3839856
1.3842844
1.3845788
1.3848691
1.3851552
1.3854374
1.3857156
1.3859901
1.3862608
1.3865279
1.3867915
1.3870517
1.3873086
1.3875621
1.3878125
1.3880599
1.3883042
1.3885455
1.388784
1.3890198
1.3892528
1.3894832
1.389711
1.3899363
1.3901592
1.3903797
1.3905978
1.3908138
1.3910275
1.3912391
1.3914487
1.3916562
1.3918617
1.3920653
1.392267
1.3924669
1.3926651
1.3928614
1.3930561
1.3932492
1.3934406
1.3936305
1.3938188
1.3940057
1.3941911
1.3943751
1.3945577
1.3947389
1.3949188
1.3950975
1.3952748
1.395451
1.3956259
1.3957997
1.3959723
1.3961438
1.3963141
1.3964834
1.3966517
1.3968189
1.3969851
1.3971504
1.3973146
1.3974779
1.3976403
1.3978017
1.3979623
1.398122
1.3982808
1.3984387
1.3985959
1.3987522
1.3989077
1.3990624
1.3992163
1.3993694
1.3995218
1.3996735
1.3998244
1.3999746
1.400124
1.4002728
1.4004209
1.4005683
1.400715
1.400861
1.4010064
1.4011511
1.4012952
1.4014386
1.4015815
1.4017236
1.4018652
1.4020061
1.4021465
1.4022862
1.4024253
1.4025638
1.4027018
1.4028391
1.4029759
1.4031121
1.4032477
1.4033827
1.4035172
1.4036511
1.4037845
1.4039172
1.4040495
1.4041812
1.4043123
1.4044429
1.4045729
1.4047024
1.4048313
1.4049597
1.4050876
1.4052149
1.4053417
1.4054679
1.4055936
1.4057188
1.4058435
1.4059676
1.4060912
1.4062143
1.4063368
1.4064588
1.4065803
1.4067012
1.4068216
1.4069415
1.4070608
1.4071797
1.407298
1.4074157
1.407533
1.4076497
1.4077659
1.4078816
1.4079967
1.4081113
1.4082254
1.4083389
1.4084519
1.4085644
1.4086764
1.4087878
1.4088987
1.409009
1.4091189
1.4092281
1.4093369
1.4094451
1.4095528
1.4096599
1.4097666
1.4098726
1.4099782
1.4100831
1.4101876
1.4102915
1.4103949
1.4104977
1.4106
1.4107017
1.4108029
1.4109036
1.4110037
1.4111032
1.4112022
1.4113007
1.4113986
1.411496
1.4115928
1.411689
1.4117848
1.4118799
1.4119745
1.4120686
1.4121621
1.412255
1.4123474
1.4124392
1.4125305
1.4126212
1.4127114
1.4128009
1.41289
1.4129785
1.4130664
1.4131537
1.4132405
1.4133268
1.4134125
1.4134976
1.4135822
1.4136662
1.4137497
1.4138326
1.4139149
1.4139967
1.4140779
1.4141586
1.4142387
1.4143183
1.4143973
1.4144758
1.4145538
1.4146312
1.4147081
1.4147844
1.4148602
1.4149355
1.4150103
1.4150846
1.4151583
1.4152316
1.4153043
1.4153765
1.4154482
1.4155194
1.4155901
1.4156603
1.41573
1.4157991
1.4158677
1.4159359
1.4160035
1.4160705
1.4161371
1.416203
1.4162685
1.4163334
1.4163978
1.4164616
1.4165249
1.4165875
1.4166496
1.416711
1.4167717
1.4168318
1.4168913
1.4169501
1.4170083
1.4170659
1.4171229
1.4171792
1.417235
1.4172902
1.4173449
1.4173989
1.4174525
1.4175056
1.4175581
1.4176102
1.4176618
1.4177129
1.4177637
1.417814
1.4178639
1.4179136
1.4179627
1.4180117
1.4180605
1.4181083
1.4181563
1.4182052
1.4182474
1.4183008
1.4183482
1.418365
1.4184367
1.4185018
1.4184563
1.418086
1.4171208
1.4156387
1.4136575
1.411184
1.4082547
1.4049226
1.4012548
1.3973302
1.3932345
1.3890559
1.3848799
1.3807853
1.3768412
1.373105
1.3696208
1.3664198
1.3635204
1.3609299
1.3586455
1.3566565
1.354946
1.3534926
1.3522725
1.3512603
1.3504305
1.3497585
1.349221
1.3487968
1.3484667
1.348214
1.348024
1.3478843
1.3477845
1.347716
1.3476718
1.3476462
1.3476346
1.3476336
1.3476404
1.3476529
1.3476693
1.3476883
1.3477091
1.3477311
1.3477539
1.3477773
1.347801
1.3478247
1.3478484
1.3478718
1.3478949
1.3479177
1.3479401
1.3479623
1.3479842
1.3480058
1.3480271
1.3480482
1.3480691
1.3480898
1.3481102
1.3481304
1.3481505
1.3481703
1.3481899
1.3482093
1.3482285
1.3482474
1.3482661
1.3482845
1.3483027
1.3483205
1.3483381
1.3483555
1.3483725
1.3483892
1.3484056
1.3484218
1.3484376
1.3484531
1.3484683
1.3484832
1.3484979
1.3485123
1.3485263
1.3485402
1.3485537
1.348567
1.34858
1.3485928
1.3486054
1.3486177
1.3486298
1.3486417
1.3486534
1.3486648
1.3486761
1.3486871
1.348698
1.3487087
1.3487191
1.3487294
1.3487395
1.3487494
1.3487592
1.3487687
1.3487781
1.3487874
1.3487964
1.3488053
1.3488141
1.3488227
1.3488311
1.3488394
1.3488476
1.3488556
1.3488634
1.3488711
1.3488787
1.3488861
1.3488934
1.3489005
1.3489076
1.3489145
1.3489212
1.3489279
1.3489344
1.3489408
1.3489471
1.3489532
1.3489592
1.3489652
1.348971
1.3489767
1.3489823
1.3489878
1.3489931
1.3489984
1.3490036
1.3490087
1.3490137
1.3490185
1.3490233
1.349028
1.3490326
1.3490371
1.3490415
1.3490459
1.3490501
1.3490543
1.3490583
1.3490623
1.3490662
1.3490701
1.3490738
1.3490775
1.3490811
1.3490846
1.3490881
1.3490915
1.3490948
1.349098