-1.25 	299.9888422002367 	1 	101295.6107373848
-1.247497497497497 	299.9941297902469 	1.050031643804126 	101320.6382067891
-1.244994994994995 	299.9922432117456 	0.9005109332064497 	101318.6834868313
-1.242492492492492 	299.9935590496962 	1.085450023048244 	101319.4887158255
-1.23998998998999 	300.0030333871097 	0.977334137633786 	101330.7689808491
-1.237487487487487 	300.0061601369712 	1.008962231106617 	101334.0514056738
-1.234984984984985 	300.0100582793423 	1.033697703184844 	101337.9606453608
-1.232482482482482 	300.0132793407932 	1.039368396503879 	101341.1081774758
-1.22997997997998 	300.0150617611519 	1.043300386460151 	101342.8618717636
-1.227477477477477 	300.0156691828489 	1.045332953309354 	101343.5022936147
-1.224974974974975 	300.0162762119675 	1.047565931764095 	101344.2343090895
-1.222472472472472 	300.0179839866761 	1.052540828308023 	101346.2643709342
-1.21996996996997 	300.0207947921019 	1.060323087091846 	101349.5874919652
-1.217467467467467 	300.0238008956268 	1.068610726266431 	101353.140207177
-1.214964964964965 	300.0258832169664 	1.074308198690216 	101355.6015889091
-1.212462462462462 	300.0261360184398 	1.074941101885118 	101355.8995764895
-1.20995995995996 	300.0243334311545 	1.069993095824482 	101353.7686526265
-1.207457457457457 	300.0212245222925 	1.06146145291144 	101350.0941566353
-1.204954954954955 	300.0180495423319 	1.052560868052524 	101346.3404800708
-1.202452452452452 	300.0156060184977 	1.045483250640558 	101343.4512990772
-1.19994994994995 	300.013922453018 	1.040451958565346 	101341.4605664173
-1.197447447447447 	300.0125865802218 	1.036395409376864 	101339.8811308509
-1.194944944944945 	300.0110981192569 	1.03198764574588 	101338.1213546081
-1.192442442442442 	300.00920099564 	1.026539793752759 	101335.8782602636
-1.18993993993994 	300.0069936627647 	1.020161796291362 	101333.2684359565
-1.187437437437437 	300.0044961468755 	1.012784447082729 	101330.3157432191
-1.184934934934935 	300.0013550652963 	1.003588076247109 	101326.6021890199
-1.182432432432432 	299.9973531877038 	0.9921870880172738 	101321.8709815013
-1.17992992992993 	299.9930102247271 	0.9799932625652742 	101316.7367911019
-1.177427427427427 	299.9893475274774 	0.9696664928281569 	101312.4068372117
-1.174924924924925 	299.9871119921211 	0.9631602543420064 	101309.763982541
-1.172422422422422 	299.9862098844303 	0.9601884774969118 	101308.697545001
-1.16991991991992 	299.9856825547477 	0.9582028023816248 	101308.0739072256
-1.167417417417417 	299.9843274338663 	0.9540766607814735 	101306.4719947229
-1.164914914914915 	299.9816247621912 	0.9464671975418092 	101303.2778968885
-1.162412412412412 	299.9781566269167 	0.9368886660644886 	101299.1789328851
-1.15990990990991 	299.9751666229524 	0.9286384962452856 	101295.6447249904
-1.157407407407407 	299.9737496344829 	0.9246709173365407 	101293.9702022282
-1.154904904904904 	299.9742587063199 	0.9259640926520981 	101294.5725409378
-1.152402402402403 	299.9761992458452 	0.9312509226448897 	101296.8655348304
-1.1498998998999 	299.9786820801936 	0.9382152251485827 	101299.7994255175
-1.147397397397397 	299.9810846068437 	0.9451275476416807 	101302.6393206007
-1.144894894894895 	299.9832449055436 	0.9513872785912374 	101305.1928273641
-1.142392392392392 	299.9851519198085 	0.9568934698034296 	101307.4468243615
-1.13988988988989 	299.9867693994192 	0.9616166729706064 	101309.3588709786
-1.137387387387387 	299.9882092983555 	0.9659312753449947 	101311.0609594683
-1.134884884884885 	299.9898560629154 	0.9708909926614417 	101313.0073165001
-1.132382382382382 	299.9922119874444 	0.9778380625797746 	101315.7921748356
-1.12987987987988 	299.9955896381779 	0.9875620574596454 	101319.7849248992
-1.127377377377377 	299.9998078841056 	0.9995075818961354 	101324.7714366317
-1.124874874874875 	300.0041282177212 	1.011677641793356 	101329.8790091206
-1.122372372372372 	300.0076339262325 	1.021640422808433 	101334.0236732211
-1.11986986986987 	300.0098170527802 	1.028047105912376 	101336.604759819
-1.117367367367367 	300.0109052486758 	1.031511904500864 	101337.8913771412
-1.114864864864865 	300.0117394703887 	1.03429472891057 	101338.8776658687
-1.112362362362362 	300.0132934702781 	1.038977905984413 	101340.7149298391
-1.10985985985986 	300.0160385411696 	1.046774136527307 	101343.9603763294
-1.107357357357357 	300.0195552327108 	1.056562785123395 	101348.1182003774
-1.104854854854855 	300.0227882478242 	1.065566650281355 	101351.9410019185
-1.102352352352353 	300.0247765122479 	1.071212733568168 	101354.292118049
-1.09984984984985 	300.0252114578626 	1.072593734726982 	101354.8058139505
-1.097347347347347 	300.0244121697896 	1.070471501773846 	101353.8608087707
-1.094844844844845 	300.0228953832256 	1.06619799195736 	101352.0679545048
-1.092342342342342 	300.0209965211266 	1.060744590974078 	101349.8229931141
-1.08983983983984 	300.0188670915633 	1.054652949599194 	101347.3052613372
-1.087337337337337 	300.0167276733492 	1.048593079326829 	101344.7756487444
-1.084834834834835 	300.0149392668739 	1.0434978647397 	101342.6611676176
-1.082332332332332 	300.013713216049 	1.039848929284194 	101341.2116224373
-1.07982982982983 	300.0127793070696 	1.036873887326217 	101340.1075480263
-1.077327327327327 	300.0114180962141 	1.032652270997173 	101338.498356824
-1.074824824824825 	300.0088982158653 	1.025276422845719 	101335.5195268232
-1.072322322322323 	300.0050345938397 	1.014317433340895 	101330.9521904341
-1.06981981981982 	300.0004595575089 	1.001489380227879 	101325.543757255
-1.067317317317317 	299.9963022195979 	0.9897747693797562 	101320.6292209309
-1.064814814814815 	299.9934286514228 	0.9814537076332581 	101317.2323456021
-1.062312312312312 	299.9918449494924 	0.9765667618609704 	101315.3602134087
-1.05980980980981 	299.990758873082 	0.9730569247910708 	101314.0764724055
-1.057307307307307 	299.9892036620602 	0.9683679673265118 	101312.2383661302
-1.054804804804805 	299.9866858076531 	0.9611525496922506 	101309.2622459349
-1.052302302302302 	299.9834095511786 	0.9519054500729575 	101305.3896937194
-1.0497997997998 	299.9800257947031 	0.9423496245611956 	101301.3901658173
-1.047297297297297 	299.9772038790231 	0.9343317575210219 	101298.0546699695
-1.044794794794795 	299.9753788303939 	0.9291149997022961 	101295.8974700787
-1.042292292292292 	299.9747437633272 	0.927281043985822 	101295.1472037406
-1.03978978978979 	299.9753020168787 	0.9288282146057172 	101295.8073620968
-1.037287287287287 	299.9768474049395 	0.9331465953708404 	101297.633407141
-1.034784784784785 	299.9789443697605 	0.9390135026875447 	101300.1115305856
-1.032282282282283 	299.981031180837 	0.9448854463684848 	101302.5781846104
-1.02977977977978 	299.9826436885456 	0.9495126138004097 	101304.4842004811
-1.027277277277277 	299.983670597353 	0.9526256169211507 	101305.6978719565
-1.024774774774775 	299.9844889476005 	0.955267051873998 	101306.6649624417
-1.022272272272272 	299.9858226192608 	0.9593782088289387 	101308.2412035707
-1.01976976976977 	299.9883220302358 	0.9666630919378124 	101311.1954959653
-1.017267267267267 	299.9920893531213 	0.9773455477293903 	101315.6486840499
-1.014764764764765 	299.9964992863145 	0.989737124585599 	101320.8617006163
-1.012262262262262 	300.0005313909521 	1.001132555793246 	101325.6283390107
-1.00975975975976 	300.0034313330169 	1.009532906632246 	101329.0566762193
-1.007257257257257 	300.0051978054108 	1.014905230389464 	101331.1450245053
-1.004754754754755 	300.0065052059269 	1.018996386527945 	101332.6906361688
-1.002252252252252 	300.008162243028 	1.023949998082123 	101334.6496106629
-0.9997497497497498 	300.0105843812894 	1.030917418443247 	101337.5131521054
-0.9972472472472473 	300.0136487979124 	1.039630238023441 	101341.1361286955
-0.9947447447447449 	300.0169188200464 	1.048942469084862 	101345.0023620398
-0.9922422422422421 	300.0199560584425 	1.057631671818793 	101348.5934643493
-0.9897397397397399 	300.022451337175 	1.064769061117841 	101351.5438764285
-0.9872372372372376 	300.0241479754714 	1.069578298223346 	101353.550051276
-0.9847347347347346 	300.0247663758689 	1.0712934574573 	101354.2807987072
-0.9822322322322323 	300.0241245645387 	1.069490906027218 	101353.5214524624
-0.9797297297297296 	300.0223986382364 	1.064727614677459 	101351.481280292
-0.9772272272272275 	300.0202279533054 	1.058748946207368 	101348.9150652748
-0.9747247247247248 	300.018433592694 	1.053732666254456 	101346.7933681384
-0.9722222222222224 	300.0174915750562 	1.05091498227632 	101345.6794404223
-0.9697197197197196 	300.0171607169476 	1.049641468049449 	101345.2880964636
-0.9672172172172175 	300.0166056597746 	1.047706377485852 	101344.6311908173
-0.9647147147147147 	300.0149660862744 	1.042846002679822 	101342.6927859357
-0.9622122122122124 	300.0119525128311 	1.03428539614492 	101339.1304045206
-0.9597097097097099 	300.0080150315275 	1.023197577322609 	101334.475333305
-0.9572072072072073 	300.0040046317448 	1.011846221251091 	101329.7339235466
-0.9547047047047047 	300.0006386408314 	1.00218005369064 	101325.7545699498
-0.9522022022022023 	299.9981508201856 	0.9948767639638014 	101322.813451053
-0.9496996996996998 	299.996287799936 	0.9892951306277951 	101320.610964942
-0.9471971971971973 	299.9945540359333 	0.9841048069986916 	101318.5614161312
-0.9446946946946947 	299.9924944073214 	0.9780497300093502 	101316.1266845256
-0.9421921921921923 	299.9898672280119 	0.9704447619981467 	101313.0210861063
-0.93968968968969 	299.9866891177593 	0.961326104608822 	101309.2643765429
-0.9371871871871872 	299.9832043151395 	0.9513827596368182 	101305.145196381
-0.9346846846846848 	299.9798333297364 	0.9418120744246889 	101301.1605671394
-0.9321821821821823 	299.9771096274353 	0.934115299826843 	101297.9411479147
-0.9296796796796799 	299.975550776232 	0.9297061143642148 	101296.0986416515
-0.9271771771771771 	299.9754266209254 	0.929279119366509 	101295.9525417037
-0.9246746746746748 	299.9765346200933 	0.9322364022336045 	101297.2618013726
-0.9221721721721724 	299.9781922454206 	0.936732100121886 	101299.2205037432
-0.9196696696696698 	299.9795853411447 	0.940602564132639 	101300.8670992269
-0.9171671671671672 	299.9802772214183 	0.9426954350620996 	101301.6849675989
-0.9146646646646649 	299.9805042026329 	0.9436367889981184 	101301.9534126288
-0.9121621621621623 	299.9810171286938 	0.9454081185628653 	101302.5602649248
-0.9096596596596597 	299.9825657077561 	0.9499854004073454 	101304.3904187731
-0.9071571571571573 	299.9853876538086 	0.9580069494952238 	101307.7254234298
-0.9046546546546547 	299.9890751697641 	0.968409411095369 	101312.0841490104
-0.9021521521521524 	299.9928812676789 	0.9792081716635376 	101316.583433178
-0.8996496496496498 	299.9961934516456 	0.9887356678645903 	101320.49896624
-0.8971471471471473 	299.9988208635028 	0.996418616539426 	101323.6050576441
-0.894644644644645 	300.0009464889432 	1.002692769985232 	101326.1180163534
-0.892142142142142 	300.0028822666945 	1.008392029298389 	101328.4065735824
-0.8896396396396397 	300.0048834609748 	1.014256449378575 	101330.7725041269
-0.8871371371371374 	300.0071414644166 	1.020865497495449 	101333.4419816379
-0.8846346346346349 	300.0098401333031 	1.028729557165621 	101336.632418282
-0.8821321321321324 	300.0130927537172 	1.038100993964849 	101340.4779896368
-0.8796296296296297 	300.0167462376776 	1.048485738767921 	101344.797776875
-0.8771271271271271 	300.0202574548455 	1.058368106336053 	101348.9495119311
-0.8746246246246248 	300.0228543089232 	1.065668860638349 	101352.0202865949
-0.8721221221221224 	300.0239548640979 	1.068850095280329 	101353.3214924955
-0.8696196196196196 	300.0235553023376 	1.067919331759853 	101352.8485915634
-0.8671171171171175 	300.022271031932 	1.064524638373624 	101351.3306801959
-0.8646146146146148 	300.0209707046968 	1.060979467136566 	101349.7935887869
-0.8621121121121121 	300.0202460297091 	1.05887861169941 	101348.9366849287
-0.8596096096096097 	300.0200962640756 	1.058249161862422 	101348.7595889834
-0.857107107107107 	300.0200023555036 	1.057723260472277 	101348.6481179321
-0.8546046046046049 	300.0192903971771 	1.055501602280609 	101347.8060980105
-0.8521021021021022 	300.0175370039839 	1.050435570475194 	101345.7335708322
-0.8495995995995997 	300.0147749605648 	1.042586319457891 	101342.4683385019
-0.8470970970970974 	300.011410617812 	1.033034471961915 	101338.4906773848
-0.8445945945945946 	300.0079699515373 	1.023216254421857 	101334.4227568718
-0.8420920920920922 	300.0048617850702 	1.014279402947433 	101330.7480764299
-0.8395895895895897 	300.0022731590644 	1.006769049236023 	101327.6876888343
-0.8370870870870872 	300.0001730551483 	1.000605680248443 	101325.2048303724
-0.8345845845845846 	299.9983409254077 	0.9951606622999752 	101323.038904896
-0.8320820820820823 	299.9964002816337 	0.9893784033357502 	101320.744831595
-0.8295795795795798 	299.9939207040123 	0.9820907968013588 	101317.8136182775
-0.8270770770770772 	299.9906322355039 	0.9726081633044121 	101313.9263169393
-0.8245745745745746 	299.9866661196472 	0.9613393676118795 	101309.2380517299
-0.8220720720720721 	299.9826230565412 	0.9499393871356344 	101304.4588624878
-0.8195695695695699 	299.979340640791 	0.9406707052514101 	101300.578934681
-0.817067067067067 	299.9774539006435 	0.9352313885627477 	101298.348780033
-0.8145645645645651 	299.9770234331643 	0.9337842002680723 	101297.8402009799
-0.8120620620620621 	299.9775079323957 	0.9348941123057608 	101298.4126809552
-0.8095595595595597 	299.9781230917286 	0.9364806751861902 	101299.1394900803
-0.8070570570570572 	299.9783459704392 	0.9371377482777299 	101299.4027446785
-0.8045545545545546 	299.9782017528219 	0.9368978502668729 	101299.2323104558
-0.8020520520520523 	299.9781579861173 	0.9369767805768667 	101299.1810620861
-0.7995495495495494 	299.9787575545316 	0.9388196057082931 	101299.8899881274
-0.7970470470470474 	299.9802828973524 	0.9432113893620644 	101301.6923317414
-0.7945445445445446 	299.9826671301988 	0.9500162504774248 	101304.5102089597
-0.7920420420420423 	299.9856359137997 	0.9585036181965046 	101308.0193766957
-0.7895395395395397 	299.9888758279823 	0.9677851266274445 	101311.8491589384
-0.7870370370370371 	299.9920935738652 	0.9770042201814344 	101315.6528722646
-0.7845345345345348 	299.9950067628947 	0.9853603577570142 	101319.0966747303
-0.7820320320320323 	299.9973953299628 	0.992272795524801 	101321.9204134909
-0.7795295295295296 	299.9992491812204 	0.9977579886068286 	101324.1119983971
-0.7770270270270272 	300.0008826207589 	1.002697448039438 	101326.0430104564
-0.7745245245245247 	300.002851227256 	1.008589339677798 	101328.3703252872
-0.7720220220220222 	300.0056531372551 	1.01674631204281 	101331.6827103337
-0.7695195195195199 	300.0093852835525 	1.0273933603802 	101336.0950294316
-0.767017017017017 	300.013599452864 	1.039300266406032 	101341.0774892494
-0.7645145145145147 	300.0174863874902 	1.050277230375053 	101345.6732922534
-0.7620120120120122 	300.0202890692901 	1.058276756985605 	101348.9872966737
-0.7595095095095097 	300.0216903601905 	1.06242832380985 	101350.6443740976
-0.7570070070070072 	300.0219390089056 	1.063374999433332 	101350.9381926129
-0.7545045045045048 	300.0216436101741 	1.062738199993988 	101350.5890482959
-0.7520020020020022 	300.0213927013202 	1.062107673746733 	101350.2925917762
-0.7494994994994997 	300.0214483647557 	1.062220025862295 	101350.3586096543
-0.7469969969969972 	300.0216834447736 	1.062763939414714 	101350.6362336556
-0.7444944944944945 	300.0217336480948 	1.062765730882244 	101350.6947285754
-0.7419919919919924 	300.0212161151509 	1.061173537961298 	101350.082083982
-0.7394894894894897 	300.0198830631182 	1.057292925154592 	101348.5060765836
-0.7369869869869872 	300.0176852825039 	1.050982978614727 	101345.9076080189
-0.7344844844844846 	300.0147828339119 	1.042705269469085 	101342.4758803018
-0.7319819819819822 	300.0115358669537 	1.033477496247357 	101338.6369340489
-0.7294794794794797 	300.0084284350943 	1.024634435479931 	101334.9631482157
-0.7269769769769773 	300.005883479446 	1.01731095456082 	101331.9545506495
-0.7244744744744747 	300.0040230207142 	1.011806113707572 	101329.755250707
-0.721971971971972 	300.0025302164253 	1.007243405941453 	101327.9906175162
-0.7194694694694695 	300.00076565803 	1.00190448529065 	101325.9047328286
-0.7169669669669674 	299.9981265504343 	0.99419216158424 	101322.7850617424
-0.7144644644644647 	299.9944411064924 	0.9836697358147826 	101318.4286452919
-0.711961961961962 	299.9901252953604 	0.9714629570559949 	101313.3272622129
-0.7094594594594597 	299.9859702071003 	0.9596976551990705 	101308.4161140124
-0.7069569569569573 	299.9827011168153 	0.9503366164934668 	101304.5521146969
-0.7044544544544545 	299.9806109837892 	0.9442051705595474 	101302.081439536
-0.7019519519519523 	299.9794982465951 	0.9408092370747136 	101300.7660295098
-0.6994494494494495 	299.9789026914559 	0.9389362258795775 	101300.0618874647
-0.6969469469469471 	299.9784247987359 	0.937495322527895 	101299.4968556082
-0.6944444444444446 	299.9779060786751 	0.9360194085028827 	101298.883572399
-0.6919419419419421 	299.9774142105068 	0.9346635670728176 	101298.3019665777
-0.6894394394394396 	299.9771369101753 	0.9339430831038731 	101297.9740635145
-0.6869369369369374 	299.9773016562424 	0.9345066989864976 	101298.1691019853
-0.6844344344344344 	299.9781401450448 	0.9370028101281698 	101299.1599112798
-0.6819319319319321 	299.9798280490838 	0.9419007411607212 	101301.1546107778
-0.6794294294294296 	299.9823777655967 	0.9491969919961312 	101304.1681801752
-0.6769269269269272 	299.9855365180546 	0.9581641560679044 	101307.9019318752
-0.6744244244244245 	299.9888051678959 	0.9674288731763827 	101311.765741069
-0.6719219219219222 	299.9916353826248 	0.9755126063330497 	101315.1113725956
-0.6694194194194195 	299.9937226829333 	0.9816121189812579 	101317.578926825
-0.6669169169169172 	299.9952123887427 	0.9861328493338104 	101319.3399561759
-0.6644144144144146 	299.9966550239528 	0.9905583632283999 	101321.0453565606
-0.661911911911912 	299.9987076727209 	0.996649779808754 	101323.4718253277
-0.6594094094094097 	300.0017541169084 	1.005432839811374 	101327.0731738378
-0.656906906906907 	300.0056770865005 	1.016590856605223 	101331.7110198825
-0.6544044044044046 	300.0099205287803 	1.02862467849055 	101336.7278874638
-0.6519019019019021 	300.0137870065294 	1.039637639953594 	101341.2993369909
-0.6493993993993996 	300.0167684406387 	1.048222321018318 	101344.8245506623
-0.6468968968968971 	300.0187211073708 	1.053948597831649 	101347.133400289
-0.6443943943943946 	300.0198315496127 	1.057295404063844 	101348.4464492304
-0.6418918918918921 	300.0204524793461 	1.059220145883145 	101349.1806594155
-0.6393893893893897 	300.0209283437578 	1.060678569890929 	101349.7433191404
-0.6368868868868871 	300.0214779695075 	1.062281557145177 	101350.3931601105
-0.6343843843843846 	300.0221295937949 	1.064100568479366 	101351.1637131821
-0.6318818818818821 	300.022694195093 	1.065599373401188 	101351.8313038055
-0.6293793793793795 	300.0228024097058 	1.065757160470187 	101351.9586761538
-0.6268768768768773 	300.0220443689132 	1.06347577595797 	101351.0621637842
-0.6243743743743745 	300.0202036448885 	1.058205587106145 	101348.8862060526
-0.6218718718718721 	300.0174551122465 	1.050448626498389 	101345.6366122733
-0.6193693693693696 	300.0143529027266 	1.041713069944865 	101341.9690492384
-0.6168668668668671 	300.0115683944798 	1.033799924146918 	101338.6768808998
-0.6143643643643645 	300.0095088111756 	1.02779586196447 	101336.2418195537
-0.6118618618618621 	300.0080718984769 	1.023429394271456 	101334.5429656193
-0.6093593593593596 	300.0067135077203 	1.019252161485549 	101332.9369114463
-0.6068568568568571 	300.0047880321478 	1.013536663653722 	101330.6606856797
-0.6043543543543546 	300.0019282440408 	1.005285346247388 	101327.2798225534
-0.6018518518518521 	299.9982242026498 	0.9947220048943352 	101322.9009065053
-0.5993493493493496 	299.9941261436567 	0.9830527019159712 	101318.0564731395
-0.5968468468468471 	299.9901831398879 	0.9717798593610818 	101313.3953048669
-0.5943443443443446 	299.9868062713031 	0.9620602416130868 	101309.4034750221
-0.591841841841842 	299.9841718598256 	0.9544161914158267 	101306.2894294976
-0.5893393393393397 	299.9822483962477 	0.9487832439297651 	101304.0157280407
-0.5868368368368371 	299.9808694087316 	0.9447036406027253 	101302.3857165859
-0.5843343343343346 	299.979802580753 	0.9415292876176393 	101301.1246876807
-0.5818318318318321 	299.9788211428482 	0.9386391018790837 	101299.9646379722
-0.5793293293293297 	299.9778017610912 	0.9357141747501877 	101298.7597834252
-0.5768268268268271 	299.9768252533474 	0.9330001276979296 	101297.6055245357
-0.5743243243243245 	299.976203015492 	0.931358943703126 	101296.8701339002
-0.5718218218218221 	299.9763637554113 	0.9319482528212951 	101297.0608842486
-0.5693193193193196 	299.9776242481044 	0.9355920045023103 	101298.5503476341
-0.5668168168168171 	299.9799535112707 	0.9421796280639724 	101301.3028330505
-0.5643143143143147 	299.9829182513512 	0.9505273463807078 	101304.8070494946
-0.5618118118118121 	299.9858704154006 	0.9588811270766987 	101308.2967067244
-0.5593093093093094 	299.9882770046574 	0.9657993312648649 	101311.1414593085
-0.5568068068068072 	299.9899942406028 	0.9708857318953812 	101313.1714608224
-0.5543043043043046 	299.9913203990031 	0.9749321003058308 	101314.7391915289
-0.551801801801802 	299.9928034879085 	0.9794123535552451 	101316.4922174849
-0.5492992992992995 	299.9949378483839 	0.9856728759995721 	101319.0152696782
-0.5467967967967969 	299.997931562122 	0.9942940892435875 	101322.5542813757
-0.5442942942942947 	300.0016450671246 	1.00490776646293 	101326.9442236149
-0.5417917917917919 	300.005687284107 	1.016442470215625 	101331.7230847617
-0.5392892892892895 	300.0095802257071 	1.02756725292804 	101336.3256249346
-0.536786786786787 	300.0129076741613 	1.037115534481223 	101340.2597138288
-0.5342842842842846 	300.015424745173 	1.044405303765358 	101343.235841334
-0.531781781781782 	300.0171308347793 	1.049439893266715 	101345.2531074523
-0.5292792792792794 	300.0182790069948 	1.052915906537276 	101346.6106870408
-0.526776776776777 	300.0192734506334 	1.0559243384345 	101347.7864920808
-0.5242742742742745 	300.0204540908211 	1.059363724666237 	101349.1824680896
-0.521771771771772 	300.0218684419279 	1.063338627584907 	101350.8547881119
-0.5192692692692695 	300.0231873000324 	1.06695144387732 	101352.4142519934
-0.516766766766767 	300.0238573686217 	1.068718227995194 	101353.2063683567
-0.5142642642642645 	300.0234215207125 	1.067422942242045 	101352.6899907085
-0.511761761761762 	300.021806844235 	1.062891438331258 	101350.7817920192
-0.5092592592592596 	300.0194044139902 	1.056168059319835 	101347.9416580034
-0.506756756756757 	300.0168465152372 	1.048954353217915 	101344.917225069
-0.5042542542542544 	300.0146621438672 	1.042689063235026 	101342.3345561443
-0.5017517517517521 	300.0130227655991 	1.037857674787339 	101340.396271974
-0.4992492492492494 	300.0117107494619 	1.033895141673312 	101338.8450141462
-0.496746746746747 	300.0102927416514 	1.029636182115566 	101337.1685524069
-0.4942442442442445 	300.0083608081627 	1.023961169660574 	101334.8845294119
-0.4917417417417421 	300.005702560021 	1.016271591944848 	101331.7417976842
-0.4892392392392395 	300.0023497033193 	1.006643465232461 	101327.7780187658
-0.486736736736737 	299.9985361500022 	0.9957250836805092 	101323.2696848017
-0.4842342342342345 	299.9946177803209 	0.9845142052040071 	101318.6374784989
-0.481731731731732 	299.9909796480702 	0.9740882513737874 	101314.3367654126
-0.4792292292292296 	299.9879294199192 	0.965296953506419 	101310.7310908306
-0.4767267267267268 	299.985586191011 	0.9584607891723698 	101307.961111425
-0.4742242242242246 	299.983818787018 	0.9532198416462384 	101305.8719919893
-0.471721721721722 	299.9823025779989 	0.9487016216487557 	101304.0797982461
-0.4692192192192195 	299.9807032120766 	0.9440217346026931 	101302.1892965707
-0.4667167167167169 	299.9789006129957 	0.9388792064687795 	101300.0587130418
-0.4642142142142145 	299.9771111170475 	0.9338723143076396 	101297.9435160378
-0.461711711711712 	299.9758100400135 	0.9302868068701989 	101296.4056195217
-0.4592092092092094 	299.9754849353895 	0.9294341394838814 	101296.0218871134
-0.456706706706707 	299.9763633284094 	0.9319173395472456 	101297.0603393849
-0.4542042042042045 	299.9782713291909 	0.9372599327005309 	101299.3146870386
-0.451701701701702 	299.9807132365356 	0.9441255949552293 	101302.2007349034
-0.4491991991991995 	299.9831271807187 	0.9509802021206436 	101305.0541174426
-0.4466966966966969 	299.9851363057391 	0.9567776113997508 	101307.4290420879
-0.4441941941941945 	299.9866752899702 	0.9613172854430959 	101309.248161317
-0.441691691691692 	299.9879626411591 	0.965185664292208 	101310.7699843111
-0.4391891891891895 	299.9893748161834 	0.9694177328683448 	101312.4392105097
-0.436686686686687 	299.991294471894 	0.9750733753549301 	101314.7083072239
-0.4341841841841846 	299.9939749166022 	0.9828473666301831 	101317.8769433766
-0.431681681681682 	299.9974336720524 	0.9927706365314275 	101321.9655640187
-0.4291791791791794 	300.0014042040564 	1.004093731502432 	101326.659458695
-0.426676676676677 	300.0054000727401 	1.015476978955202 	101331.3835900907
-0.4241741741741744 	300.0089033294932 	1.025509323231995 	101335.5253513009
-0.421671671671672 	300.0116047640317 	1.033355583286426 	101338.7193515967
-0.4191691691691694 	300.0135615839489 	1.039165509948087 	101341.0330133582
-0.4166666666666669 	300.0151519291162 	1.043942587748648 	101342.9132809147
-0.4141641641641645 	300.0168295274971 	1.048889309064112 	101344.8968091621
-0.411661661661662 	300.0188250897727 	1.054612348479714 	101347.2562940646
-0.4091591591591594 	300.0209832225052 	1.060690201261949 	101349.8080203364
-0.406656656656657 	300.0228390737796 	1.065873970142117 	101352.0024950611
-0.4041541541541545 	300.0238791520488 	1.0687790646494 	101353.2323378034
-0.401651651651652 	300.0238187087513 	1.068627649460465 	101353.1599333265
-0.3991491491491494 	300.0227307302696 	1.065615566766633 	101351.8741142637
-0.396646646646647 	300.0209908529733 	1.060749999777603 	101349.8173854938
-0.3941441441441444 	300.01906970611 	1.055316226212284 	101347.5458722302
-0.3916416416416419 	300.0173261727225 	1.050314361257549 	101345.4843919596
-0.3891391391391395 	300.0158960227372 	1.046135814637175 	101343.7933956635
-0.3866366366366368 	300.0146843704533 	1.042529502306831 	101342.3608005513
-0.3841341341341344 	300.0134297131241 	1.038773529257426 	101340.8774414464
-0.381631631631632 	300.0118026184446 	1.033955180873115 	101338.9536947801
-0.3791291291291294 	300.0095219533283 	1.027304805162642 	101336.2573763606
-0.3766266266266269 	300.0064758874827 	1.018530040214365 	101332.6561475188
-0.3741241241241244 	300.0028047502042 	1.008033290463376 	101328.3159933235
-0.371621621621622 	299.9988862463522 	0.9968570879334763 	101323.6836071986
-0.3691191191191194 	299.9951945211232 	0.9862942301065512 	101319.319281667
-0.366616616616617 	299.9920841873468 	0.9773074148322537 	101315.6424093786
-0.3641141141141143 	299.9896184866629 	0.9700729941046384 	101312.7277062161
-0.3616116116116119 	299.9875534293267 	0.963946256526895 	101310.2865740392
-0.3591091091091095 	299.9855051320143 	0.957911243302442 	101307.8654087692
-0.356606606606607 	299.9832053236731 	0.951259584035079 	101305.1469641504
-0.3541041041041044 	299.98068505412 	0.9440825376064355 	101302.1679258429
-0.3516016016016019 	299.9782786941619 	0.9372873856260877 	101299.3236657285
-0.3490990990990994 	299.9764592041102 	0.9321604103146015 	101297.1729476917
-0.346596596596597 	299.9756126615773 	0.9297607322977433 	101296.1724189458
-0.3440940940940944 	299.9758760240633 	0.9304729880887153 	101296.4844836199
-0.3415915915915919 	299.977102162021 	0.9338891425555398 	101297.9329531386
-0.3390890890890895 	299.9789222713928 	0.9389977666869882 	101300.0839370277
-0.3365865865865869 	299.9808902209577 	0.9445611959088915 	101302.4100712165
-0.3340840840840844 	299.9826314652801 	0.9495409074234911 	101304.4682490507
-0.3315815815815819 	299.9839719795206 	0.953461570161845 	101306.0528053089
-0.3290790790790794 	299.9850145240824 	0.9566130015768323 	101307.2851650557
-0.3265765765765769 	299.986114046173 	0.9599693381977366 	101308.5847951284
-0.3240740740740744 	299.9877294858601 	0.9647761029842179 	101310.4942864873
-0.3215715715715718 	299.9901967723249 	0.9719322910383108 	101313.4107590668
-0.3190690690690695 	299.9935323653627 	0.981468084145345 	101317.3536927243
-0.3165665665665668 	299.997390697601 	0.9924421223570435 	101321.9148302525
-0.3140640640640644 	300.0012245822885 	1.00337344779554 	101326.4472236252
-0.311561561561562 	300.0045633517925 	1.012984630579396 	101330.3944007286
-0.3090590590590593 	300.0072425546131 	1.020816981215908 	101333.5620132995
-0.3065565565565568 	300.0094498846883 	1.027353570769409 	101336.1716541291
-0.3040540540540545 	300.0115643194588 	1.033596187425236 	101338.6715365869
-0.3015515515515518 	300.0138994089639 	1.040380631874782 	101341.4323917037
-0.2990490490490494 	300.0165085328939 	1.047849951008406 	101344.5171917432
-0.2965465465465469 	300.0191533113475 	1.05536116319652 	101347.6443437689
-0.2940440440440444 	300.0214290837838 	1.061811778334593 	101350.3353108019
-0.2915415415415418 	300.0229530707697 	1.066148111472297 	101352.137310694
-0.2890390390390395 	300.0235155008654 	1.067784766612855 	101352.8022540707
-0.2865365365365368 	300.023141517675 	1.066783614668375 	101352.3593834718
-0.2840340340340343 	300.0220624671851 	1.063791361017947 	101351.0843513111
-0.2815315315315318 	300.020639670276 	1.05980264514799 	101349.4021655554
-0.2790290290290295 	300.0192339375126 	1.055817059627225 	101347.7400249881
-0.2765265265265269 	300.0180794029934 	1.052475759981926 	101346.3749706011
-0.2740240240240244 	300.0171827856063 	1.049788902382302 	101345.3147800186