/*--------------------------------*- C++ -*----------------------------------*\
  =========                 |
  \\      /  F ield         | OpenFOAM: The Open Source CFD Toolbox
   \\    /   O peration     | Website:  https://openfoam.org
    \\  /    A nd           | Version:  7
     \\/     M anipulation  |
\*---------------------------------------------------------------------------*/
FoamFile
{
    version     2.0;
    format      ascii;
    class       volScalarField;
    location    "0.00065";
    object      Uz;
}
// * * * * * * * * * * * * * * * * * * * * * * * * * * * * * * * * * * * * * //

dimensions      [0 1 -1 0 0 0 0];

internalField   nonuniform List<scalar> 
5000
(
0
0
0
0
0
1.013294e-28
8.6398642e-43
-1.3679469e-27
-3.039882e-28
5.2467168e-42
-9.119646e-28
3.039882e-28
4.3199321e-43
-8.9278597e-43
-3.039882e-28
7.093058e-28
1.5612266e-55
2.2319649e-42
5.573117e-28
-2.026588e-28
4.053176e-28
0
0
5.573117e-28
-1.2959796e-42
1.6703738e-42
1.519941e-28
1.0691059e-43
-1.013294e-28
2.533235e-28
-8.8558609e-43
-4.3199321e-43
-3.039882e-28
1.519941e-28
-1.013294e-28
0
0
3.039882e-28
-5.06647e-29
7.599705e-28
-1.4442973e-41
-6.079764e-28
5.573117e-28
-8.5678654e-42
-5.573117e-28
3.039882e-28
1.7423726e-42
3.4703455e-42
-1.5681354e-41
6.9118914e-42
5.06647e-29
0
0
0
0
0
0
0
0
0
0
0
0
7.599705e-28
4.559823e-28
-1.519941e-28
-4.3559316e-42
-5.3667164e-56
-7.093058e-28
0
0
6.079764e-28
1.013294e-28
0
2.026588e-28
6.99829e-42
-6.079764e-28
-5.06647e-28
-2.026588e-28
-1.1146234e-27
5.06647e-28
-2.8799547e-44
-4.559823e-28
3.039882e-28
1.5810952e-41
-6.079764e-28
1.6719351e-27
-5.06647e-28
-3.546529e-28
2.533235e-28
-1.013294e-28
-1.519941e-28
-1.2347806e-41
1.3172822e-27
4.2076139e-41
1.013294e-28
-1.519941e-28
-8.8918603e-42
1.7639723e-41
2.026588e-28
5.06647e-29
-2.533235e-28
3.5999434e-44
3.039882e-28
0
-6.586411e-28
-2.1167667e-41
5.06647e-29
5.06647e-28
5.06647e-29
1.3172822e-27
5.573117e-28
1.519941e-28
-2.533235e-28
6.079764e-28
-1.013294e-28
-5.573117e-28
-2.3039638e-43
-2.533235e-28
-3.039882e-28
1.0627033e-41
2.026588e-28
-5.06647e-28
-2.533235e-28
2.533235e-28
1.013294e-28
-5.06647e-28
-4.053176e-28
-4.053176e-28
-2.2744443e-41
-5.06647e-29
1.1146234e-27
-1.519941e-28
3.039882e-28
3.039882e-28
8.8198614e-42
8.783862e-42
-3.5279446e-42
9.5150424e-42
-3.039882e-28
5.06647e-28
4.053176e-28
-1.519941e-28
-2.026588e-28
-2.3567084e-55
4.053176e-28
-7.1998869e-44
-8.6398642e-44
-1.7563799e-55
1.013294e-28
-1.0540634e-41
-2.1167667e-41
-2.026588e-28
2.026588e-28
-2.026588e-28
-3.5135448e-42
1.519941e-28
-1.013294e-28
5.0399208e-44
6.586411e-28
0
-2.026588e-28
3.5063449e-42
-1.013294e-28
-1.013294e-28
-7.1998869e-44
-4.559823e-28
1.519941e-28
-3.039882e-28
2.533235e-28
6.3330205e-41
4.2162538e-41
1.013294e-28
-9.119646e-28
0
3.5135448e-42
-3.1621903e-41
1.013294e-28
1.013294e-28
2.0951671e-41
-2.533235e-28
-1.519941e-28
6.9694905e-42
1.9439695e-43
-2.1059669e-41
4.053176e-28
2.026588e-28
3.039882e-28
-6.9694905e-42
-6.9838903e-42
1.0533434e-41
1.7495725e-41
-6.079764e-28
0
0
0
0
1.519941e-28
-6.3373404e-41
-4.559823e-28
-4.559823e-28
4.053176e-28
2.533235e-28
3.039882e-28
-7.0126898e-42
1.5778552e-40
1.013294e-27
7.093058e-28
-4.559823e-28
0
-5.06647e-28
-1.402538e-41
2.026588e-28
-5.06647e-29
3.5279446e-41
1.519941e-28
3.039882e-28
1.7960979e-42
5.573117e-28
-2.533235e-28
-2.026588e-28
0
0
0
5.06647e-29
2.533235e-28
6.079764e-28
-5.06647e-29
3.5207447e-42
1.519941e-28
4.559823e-28
-7.093058e-28
4.3199321e-44
2.8562668e-58
3.039882e-28
6.586411e-28
-8.106352e-28
2.1599661e-44
-3.1665102e-41
2.026588e-28
2.8137158e-41
1.4054179e-41
1.519941e-28
-4.559823e-28
0
5.06647e-29
-4.053176e-28
-4.559823e-28
6.079764e-28
0
2.533235e-28
-1.519941e-28
-5.06647e-29
7.0357295e-41
1.013294e-28
-9.119646e-28
9.119646e-28
-3.039882e-28
0
1.2159528e-27
2.533235e-28
3.039882e-28
1.013294e-28
-1.5055452e-41
1.8816264e-41
-2.026588e-28
2.026588e-28
3.039882e-28
7.0270896e-41
-4.053176e-28
2.533235e-28
-6.3243806e-41
-1.519941e-28
-1.1146234e-27
6.586411e-28
-4.2335335e-41
-1.519941e-28
-3.039882e-28
4.559823e-28
-7.093058e-28
1.9024981e-40
1.1146234e-27
-1.013294e-27
-3.5063449e-42
-5.06647e-29
0
0
-1.519941e-28
5.06647e-29
-1.013294e-28
-1.519941e-28
5.7599095e-44
5.06647e-29
-1.013294e-28
-5.06647e-29
0
-4.559823e-28
-2.533235e-28
0
-4.053176e-28
-5.06647e-28
3.039882e-28
-3.5063449e-42
1.0079842e-43
-1.519941e-28
5.06647e-29
-5.06647e-29
-1.013294e-28
3.06725e-43
1.4399774e-43
7.093058e-28
-4.559823e-28
-2.533235e-28
-2.533235e-28
-2.1081269e-41
-5.573117e-28
0
0
5.573117e-28
-8.4411474e-41
1.9685931e-40
7.0414894e-41
-1.013294e-28
1.013294e-28
-5.2075167e-59
1.519941e-28
0
0
0
0
0
0
0
-1.519941e-28
0
-1.519941e-28
0
-5.06647e-29
2.8108358e-41
1.013294e-28
0
0
-1.013294e-28
2.1102868e-41
-1.013294e-28
0
0
1.519941e-28
3.546529e-28
-3.546529e-28
-5.06647e-29
0
-1.519941e-28
-1.9515907e-55
-3.039882e-28
-3.546529e-28
-9.626293e-28
8.106352e-28
5.06647e-28
0
-6.586411e-28
-1.519941e-28
-2.533235e-28
-2.533235e-28
0
-5.06647e-29
1.013294e-28
-4.053176e-28
-4.559823e-28
0
0
0
0
0
0
0
0
5.06647e-29
2.3418399e-55
2.533235e-28
0
0
0
2.533235e-28
2.1081269e-41
1.4253622e-41
-1.519941e-28
2.1102868e-41
-5.7599095e-44
-2.8137158e-41
-3.039882e-28
-5.06647e-29
2.533235e-28
-2.8151558e-41
-1.013294e-28
5.06647e-29
0
0
-3.546529e-28
-8.4411474e-41
2.533235e-28
1.013294e-28
-1.013294e-28
0
-5.06647e-29
-5.06647e-29
5.06647e-29
1.4061379e-41
9.7576662e-56
4.9240026e-41
1.013294e-28
-4.559823e-28
-6.2449064e-55
-7.0342895e-42
5.06647e-29
0
0
-2.533235e-28
-1.4399774e-44
6.3243806e-41
1.519941e-28
0
0
5.06647e-29
-7.0234896e-41
5.06647e-29
0
0
0
1.519941e-28
3.5999434e-44
2.533235e-28
2.026588e-28
-1.519941e-28
2.1600597e-54
3.039882e-28
-1.013294e-28
6.3308605e-41
1.4068579e-41
4.2205737e-41
-1.9870917e-43
0
0
2.026588e-28
-1.4068579e-41
1.2164217e-53
4.8788331e-57
-1.519941e-28
5.573117e-28
1.013294e-27
0
-1.4754187e-41
1.4068579e-41
1.4112198e-42
0
0
2.533235e-28
-1.2959796e-43
-2.8251673e-72
7.6975624e-42
3.039882e-28
-2.8079559e-41
4.9240026e-41
-1.4061379e-40
7.0620378e-41
-4.559823e-28
2.8137158e-41
1.4075779e-41
5.6303115e-41
5.06647e-28
-3.039882e-28
5.6274316e-41
-2.8194757e-41
0
-3.039882e-28
1.013294e-28
1.4068579e-41
1.4399774e-44
-1.4068579e-41
-3.5207447e-41
-4.053176e-28
2.026588e-28
5.6662612e-43
3.546529e-28
3.546529e-28
0
5.573117e-28
4.053176e-28
0
-2.026588e-28
2.1102868e-41
-3.5999434e-44
-7.0270896e-41
2.026588e-28
-9.0036446e-42
-2.1081269e-41
1.1254863e-40
7.093058e-28
3.546529e-28
3.039882e-28
-7.1998869e-44
4.9189627e-41
-1.519941e-28
5.06647e-29
-7.1387769e-55
5.06647e-29
0
0
0
1.519941e-28
1.013294e-28
3.039882e-28
4.559823e-28
0
-3.546529e-28
-3.546529e-28
2.533235e-28
5.06647e-29
0
2.026588e-28
2.026588e-28
2.026588e-28
1.5475437e-40
-1.519941e-28
0
0
0
0
-4.559823e-28
1.2648761e-40
3.546529e-28
-5.06647e-29
-7.0342895e-42
9.1539362e-41
-6.3424831e-56
1.519941e-28
1.090488e-42
-5.1317082e-43
-3.5171447e-41
2.8108358e-41
5.573117e-28
0
-4.559823e-28
-4.053176e-28
1.013294e-28
-9.8379254e-41
2.533235e-28
0
0
5.06647e-28
-1.4054179e-41
1.519941e-28
0
-4.053176e-28
1.4399774e-44
-5.6274316e-41
-2.8108358e-41
-5.06647e-29
-5.06647e-28
1.0079842e-43
-1.1254863e-40
-5.06647e-29
5.06647e-29
2.8137158e-41
-3.5999434e-44
7.7377184e-41
1.519941e-28
2.533235e-28
0
2.8129958e-41
-7.0270896e-42
-1.6865015e-40
-4.3199321e-44
1.013294e-28
-1.519941e-28
-1.9515332e-56
-1.4068579e-41
1.4068579e-40
-7.7377184e-41
1.6517916e-41
4.053176e-28
3.546529e-28
2.1102868e-41
-1.4068579e-41
6.079764e-28
-4.559823e-28
-2.533235e-28
4.8788331e-57
0
-1.4636499e-56
-2.026588e-28
1.519941e-28
1.9515332e-56
1.4054179e-41
5.7599095e-44
3.546529e-28
-1.013294e-28
-5.6274316e-41
4.053176e-28
-1.4054179e-41
1.4054179e-41
-2.026588e-28
9.2085477e-42
-1.1709199e-55
1.4777048e-40
-1.2668201e-40
1.2655241e-40
7.0342895e-41
4.8788331e-57
0
-1.013294e-28
0
0
1.013294e-27
3.3764589e-40
-5.06647e-28
0
0
-5.06647e-28
-2.5306162e-40
-1.013294e-28
1.3077606e-41
4.3199321e-44
-4.2205737e-41
-5.06647e-29
0
0
0
-5.573117e-28
-2.8108358e-40
7.599705e-28
0
0
-3.546529e-28
7.1998869e-45
-1.519941e-28
0
0
-5.06647e-29
1.1243343e-40
8.4454673e-41
-5.6274316e-41
-1.519941e-28
-2.026588e-28
4.2184137e-41
-2.8122758e-41
-5.6216717e-41
-5.573117e-28
0
0
5.06647e-28
6.0985414e-55
-1.519941e-28
0
0
-3.546529e-28
-6.2449064e-55
-4.559823e-28
0
0
6.079764e-28
-1.5612266e-55
5.06647e-29
0
0
-5.06647e-29
5.7599095e-44
8.612999e-28
-1.1146234e-27
1.4075779e-40
1.4075779e-40
-1.4068579e-40
-2.533235e-28
0
0
0
0
0
-2.533235e-28
9.8429653e-41
4.559823e-28
0
0
0
0
0
0
0
-2.026588e-28
3.6559586e-40
3.546529e-28
0
0
0
0
0
0
0
2.533235e-28
-3.4147961e-54
-2.533235e-28
0
0
4.053176e-28
-2.8151558e-41
3.039882e-28
0
0
0
-1.519941e-28
-7.0378894e-41
2.533235e-28
0
0
0
0
0
0
0
2.026588e-28
-6.4798982e-44
-3.039882e-28
0
0
0
0
0
0
0
5.06647e-29
-1.1622575e-57
-2.533235e-28
0
0
0
3.546529e-28
-1.6561075e-54
3.039882e-28
0
-1.519941e-28
-7.2664345e-54
-3.039882e-28
0
0
-2.026588e-28
-4.053176e-28
5.06647e-28
-1.013294e-28
0
0
0
0
-5.06647e-28
7.1998869e-45
-5.06647e-28
-1.013294e-28
-1.013294e-28
-4.053176e-28
3.546529e-28
2.533235e-28
0
0
0
0
2.026588e-28
1.970609e-40
-4.559823e-28
0
0
0
0
0
0
0
0
0
0
0
0
0
0
1.013294e-28
-2.8137158e-40
-1.013294e-28
0
0
-1.013294e-28
-8.4411474e-41
5.7599095e-44
-3.039882e-28
-5.06647e-29
5.6259916e-41
9.8530452e-41
4.053176e-28
0
0
0
0
0
-8.4681561e-41
-3.375595e-40
-6.586411e-28
0
0
0
0
0
0
0
-2.026588e-28
5.6245516e-41
-2.533235e-28
0
0
0
0
0
0
0
-6.586411e-28
5.0629604e-40
6.586411e-28
0
0
0
0
0
0
0
0
-5.8565798e-41
-2.1599661e-44
-2.026588e-28
0
0
0
0
1.519941e-28
-1.519941e-28
-5.573117e-28
-2.026588e-28
-1.6882295e-40
6.079764e-28
0
0
0
0
1.519941e-28
-7.0306895e-41
-9.119646e-28
7.093058e-28
6.586411e-28
-5.06647e-29
0
0
0
-2.533235e-28
-8.4325075e-41
-2.533235e-28
-5.06647e-28
5.06647e-28
5.06647e-28
-5.573117e-28
0
0
-1.519941e-28
5.06647e-29
-4.559823e-28
-2.026588e-28
5.06647e-29
1.5697553e-53
-1.013294e-28
0
0
0
-3.546529e-28
-5.06647e-29
4.4043794e-41
-1.519941e-28
-4.053176e-28
-7.5024537e-54
2.533235e-28
0
0
0
-5.06647e-29
-6.9431895e-55
-1.519941e-28
0
0
0
0
0
0
0
8.106352e-28
-2.3904344e-40
-9.119646e-28
2.8137158e-41
2.533235e-28
0
0
1.519941e-28
3.5999434e-44
-9.8480053e-41
1.1249103e-40
4.053176e-28
4.053176e-28
-1.2661721e-40
-1.013294e-28
0
0
-2.533235e-28
4.2191337e-41
-7.0306895e-41
1.4399774e-44
5.06647e-29
-3.039882e-28
-1.519941e-28
5.06647e-28
-1.9675851e-40
-4.053176e-28
4.559823e-28
0
-2.533235e-28
-2.8151558e-41
-4.053176e-28
0
3.039882e-28
-5.06647e-29
-5.6259916e-40
-2.026588e-28
-3.039882e-28
0
3.039882e-28
0
5.06647e-29
0
-3.546529e-28
1.519941e-28
5.6216717e-41
3.546529e-28
-5.06647e-28
0
7.093058e-28
1.4068579e-40
-1.519941e-28
0
4.053176e-28
-4.559823e-28
1.8719706e-43
5.573117e-28
-1.013294e-28
0
-2.533235e-28
-5.06647e-28
1.013294e-28
-5.06647e-28
6.079764e-28
-5.06647e-28
-3.546529e-28
6.079764e-28
0
0
0
0
0
0
1.4186116e-27
-9.7576662e-57
-3.546529e-27
1.8239292e-27
1.7225998e-27
-2.026588e-27
0
0
3.4451996e-27
4.0025113e-27
-4.5091583e-27
-4.5091583e-27
0
5.9277699e-27
1.8580028e-39
-7.5490403e-27
0
0
1.0436928e-26
1.2108863e-26
-1.3375481e-26
-1.4692763e-26
0
1.8441951e-26
-5.5711573e-39
-2.2241803e-26
2.5281685e-26
1.5981906e-38
4.5575284e-42
3.5414625e-26
-3.9619795e-26
-4.4534271e-26
0
0
6.0848304e-26
-1.8771941e-38
-7.513575e-26
0
9.2564406e-26
1.0330532e-25
-1.1470488e-25
-1.2732039e-25
0
0
0
0
0
0
2.6634433e-25
-8.2146576e-38
-3.2754728e-25
0
0
0
0
0
0
6.7358718e-25
-3.6640037e-54
-8.2583461e-25
-9.1378852e-25
-2.8053547e-37
1.1195379e-24
0
0
0
0
1.8520481e-24
5.6813596e-37
-2.2617229e-24
2.498327e-24
2.7591489e-24
-3.0465697e-24
1.8667324e-36
3.0910639e-36
3.4097945e-36
-1.2554046e-36
2.7679085e-36
-1.5254487e-36
-6.0593461e-24
0
7.358997e-24
-6.7507275e-36
1.2691745e-39
9.8349809e-24
-1.0827654e-23
-1.1917807e-23
1.3115773e-23
-4.0050464e-36
1.3211568e-35
9.6918676e-36
1.0648036e-35
-5.8522024e-36
1.2869002e-35
2.5472691e-23
-2.7980847e-23
-3.0728951e-23
3.3739296e-23
-1.0273591e-35
4.5121728e-35
1.2376826e-35
-1.3583804e-35
-1.4881984e-35
-1.6325247e-35
6.4478531e-23
0
-7.7423666e-23
2.353813e-35
-1.6227389e-51
-1.0169353e-22
0
1.2182433e-22
-1.3329041e-22
-1.45801e-22
1.5944845e-22
0
0
0
0
2.4852895e-22
-7.5325177e-35
1.6451986e-34
-3.2343579e-22
-3.5295376e-22
3.8507295e-22
0
0
0
0
5.9306132e-22
9.1815615e-38
-7.0370076e-22
0
0
0
0
0
0
0
1.3813713e-21
1.5012304e-21
-1.6310883e-21
-1.7717421e-21
0
0
0
0
0
0
3.1394432e-21
3.4034074e-21
-3.6886451e-21
-3.9967886e-21
0
0
0
0
0
0
6.9592987e-21
7.5254885e-21
-8.1356788e-21
-8.7931108e-21
0
0
0
0
0
0
1.5041103e-20
-9.0074729e-33
-1.7493917e-20
0
0
0
0
0
0
2.9442222e-20
-8.7975273e-33
-3.4083759e-20
0
0
0
0
4.8920838e-20
7.4672321e-36
-5.6424794e-20
6.0573864e-20
-2.2077421e-49
-6.9754042e-20
7.4823459e-20
-4.4562024e-32
-8.6025319e-20
9.22032e-20
5.4854551e-32
5.8762312e-32
-5.9716081e-48
6.7361038e-32
3.6032201e-32
-1.3899768e-19
1.4869845e-19
1.5903301e-19
-3.4007898e-19
1.008379e-31
3.884625e-19
0
-2.2162192e-19
6.5709077e-32
7.0177176e-32
2.2440216e-31
2.3944718e-31
1.7017054e-31
-2.7231151e-31
1.9346875e-31
-1.0321979e-31
-3.958233e-19
0
4.4889829e-19
6.7906126e-35
4.2332818e-31
4.5045146e-31
-8.1770902e-35
-3.3961174e-31
1.8059422e-31
6.9113815e-19
0
-7.798415e-19
4.5961483e-31
1.2490306e-34
-9.3269576e-19
0
1.0493994e-18
-1.1126384e-18
-1.1793486e-18
1.2496979e-18
0
0
1.4843608e-18
-1.7443631e-30
9.2227793e-31
-9.7634141e-31
5.1663577e-31
-1.965938e-18
-2.0777572e-18
2.1952917e-18
0
0
0
0
2.8777853e-18
8.4281184e-31
3.5527667e-30
-3.3732874e-18
-3.5546177e-18
3.7445766e-18
0
0
0
0
4.8361348e-18
5.0854032e-18
-5.3459046e-18
-5.6180503e-18
0
0
0
0
0
0
7.8857241e-18
8.2670023e-18
-8.6640608e-18
-9.0774047e-18
0
0
0
0
0
0
1.2470953e-17
-1.0853913e-29
-2.7235342e-17
1.422337e-17
4.4554198e-17
1.5502344e-17
0
-3.3750659e-17
1.9542071e-29
6.1098852e-29
1.9121437e-17
3.9844576e-17
-4.1500412e-17
2.1605786e-17
2.2489622e-17
-2.3402304e-17
2.4344419e-17
-3.5976981e-33
-2.6319276e-17
-2.7353168e-17
2.8418794e-17
2.951671e-17
-3.0647466e-17
3.1811603e-17
4.6909535e-33
-3.4242128e-17
0
0
0
-7.9052522e-17
4.0938208e-17
8.4774818e-17
-4.3874277e-17
4.5399208e-17
4.6962576e-17
-9.7129475e-17
6.3902145e-46
5.1886749e-17
-5.3607199e-17
-1.1073527e-16
-5.7168303e-17
1.7702823e-16
-6.0891146e-17
1.0087464e-44
1.9433133e-16
-1.3356315e-16
-6.882714e-17
-7.0913844e-17
-1.4608341e-16
1.5042141e-16
7.7420796e-17
7.9671898e-17
-8.1963901e-17
-8.4296659e-17
2.6000999e-16
-8.9083701e-17
-9.1537531e-17
9.4031209e-17
9.6564426e-17
1.4088192e-32
-3.052442e-16
1.043977e-16
-1.78291e-28
1.8289053e-28
3.3771734e-16
-1.1537094e-16
-1.1820529e-16
-2.4214978e-16
1.239791e-16
2.5383451e-16
-2.597773e-16
1.3289255e-16
-1.359282e-16
-1.3899481e-16
4.2627468e-16
-1.4521761e-16
-1.4837207e-16
3.0310814e-16
1.5476266e-16
-1.5799691e-16
-4.8376753e-16
1.6453846e-16
6.7137501e-16
-9.5012734e-29
-3.4903638e-16
-1.778852e-16
0
-3.6934672e-16
-4.1756855e-28
5.7457865e-16
-1.9497405e-16
4.4058515e-28
-2.0190671e-16
-2.0538917e-16
4.1776156e-16
0
0
0
2.2291463e-16
-1.2572016e-28
-4.5990976e-16
2.3347653e-16
4.7399511e-16
-7.2155014e-16
8.127404e-28
4.9508902e-16
-2.5105068e-16
0
0
0
-5.2999057e-16
2.6845534e-16
5.4380509e-16
-8.2600715e-16
7.9226558e-32
5.6431045e-16
0
0
2.9224996e-16
-1.6410826e-28
-5.9775352e-16
3.021559e-16
6.1082146e-16
-9.2592053e-16
5.1920133e-28
6.300373e-16
-3.1816558e-16
3.2128294e-16
-6.4873941e-16
-3.2742489e-16
1.1004469e-27
3.3343658e-16
6.7278235e-16
-1.017931e-15
1.945143e-31
3.4503874e-16
-1.9308105e-28
3.5061458e-16
3.5334311e-16
-1.9762421e-28
-1.0760315e-15
1.0268225e-31
1.0915253e-15
-7.3271702e-16
5.3897015e-45
7.4251418e-16
-3.7363742e-16
3.759708e-16
-7.5651304e-16
-3.8049388e-16
8.4977955e-28
3.848208e-16
7.7381805e-16
3.8894624e-16
3.909318e-16
-1.1785953e-15
0
3.9657247e-16
2.2111195e-28
-2.2206573e-28
2.2293179e-28
-4.0333414e-16
4.4948417e-28
-4.063796e-16
1.3582154e-27
1.2275877e-15
-8.2103368e-16
-1.2353371e-15
-4.1298195e-16
1.2423756e-15
8.3041651e-16
-1.2486922e-15
4.1719218e-16
1.2542765e-15
0
0
-4.2041939e-16
-4.2106956e-16
0
4.221793e-16
4.2263814e-16
-8.4606501e-16
9.3999244e-28
1.2708794e-15
-4.7051064e-28
-4.2395864e-16
-4.2402577e-16
-4.2402586e-16
4.2395612e-16
4.2381703e-16
-4.2361073e-16
-1.2700106e-15
4.2299525e-16
1.6903428e-15
-4.2210801e-16
-8.4312394e-16
-4.2094743e-16
0
4.1951221e-16
0
4.1780125e-16
-4.1684211e-16
9.2323291e-28
-4.1471611e-16
1.3773072e-27
1.2369385e-15
-4.1100719e-16
-4.0963222e-16
4.0818796e-16
4.0667449e-16
-4.0509187e-16
-1.2103207e-15
4.0171971e-16
1.5997218e-15
-6.6299488e-28
-3.9614656e-16
-7.8830473e-16
-3.9209037e-16
7.7992174e-16
2.152386e-28
5.4782952e-32
-3.831709e-16
8.4543644e-28
3.783138e-16
-1.1273626e-15
4.1430517e-28
7.4108448e-16
0
0
3.6220185e-16
-1.9943797e-28
-7.1266962e-16
3.5331162e-16
7.0045958e-16
3.4709025e-16
-3.8167681e-28
-1.0219257e-15
-3.3733519e-16
3.3397488e-16
-6.6112426e-16
1.8593377e-31
1.0777747e-27
3.2002147e-16
6.3282282e-16
-9.3826612e-16
3.4318563e-28
6.1062232e-16
0
0
-5.8767482e-16
6.4374891e-28
3.1742464e-28
8.015887e-32
8.3410288e-16
5.4801016e-16
-4.4960199e-28
-7.9759665e-16
-2.6175911e-16
2.5763088e-16
-5.0696574e-16
-2.7670906e-28
8.1634432e-28
2.4094095e-16
4.7346948e-16
-6.9755799e-16
2.2829691e-16
2.2406969e-16
-2.1983988e-16
2.1560973e-16
-4.2276292e-16
2.2997612e-28
2.029396e-16
2.8241303e-32
3.890646e-16
-3.8069445e-16
3.099751e-28
3.6405079e-16
-1.7789305e-16
0
1.696964e-16
9.1917246e-29
-4.8481418e-16
1.5760347e-16
3.0726932e-16
1.4970026e-16
1.4580223e-16
-1.4194246e-16
-1.3812278e-16
-1.3434499e-16
1.3061082e-16
-7.0451317e-29
6.8412217e-29
-1.196864e-16
1.2896913e-28
-1.1265047e-16
3.6372183e-28
3.1747531e-16
-2.0498899e-16
-1.2537585e-45
9.6002952e-17
1.0305776e-28
-4.9827567e-29
-2.6011236e-16
8.3724675e-17
2.4241929e-16
0
0
-7.2423886e-17
-6.9755049e-17
-1.3429861e-16
6.4606805e-17
1.2425521e-16
-1.1942338e-16
5.7358966e-17
1.6520779e-16
-5.2842356e-17
-5.0677923e-17
-4.8575588e-17
-4.6534915e-17
8.9110775e-17
4.2636447e-17
-4.0777459e-17
-1.1693324e-16
3.7236574e-17
8.6107456e-45
5.6485956e-29
6.4712356e-17
-6.1681674e-17
-5.8759314e-17
2.7971646e-17
5.3231568e-17
-5.0622012e-17
-2.4056239e-17
6.8551106e-17
6.5076845e-17
-2.0580827e-17
-3.9029686e-17
-1.849317e-17
9.7219441e-30
3.3156016e-17
1.568214e-17
-1.4825835e-17
-2.8015791e-17
1.8796875e-33
2.4964705e-17
-2.3544785e-17
1.8480659e-29
2.0904514e-17
-9.8397838e-18
-1.8515065e-17
-1.7408753e-17
0
7.6810129e-18
2.1625996e-17
6.7611467e-18
-6.3374436e-18
0
0
0
0
4.5422145e-18
-2.354284e-30
-1.1873687e-17
3.6909736e-18
1.0319399e-17
3.2036142e-18
-4.9660086e-30
-5.5465107e-18
-2.5776814e-18
2.3942762e-18
-4.4448239e-18
-2.0614644e-18
6.364547e-30
1.7700024e-18
3.2767579e-18
-4.5464133e-18
3.981234e-34
1.2938209e-18
-1.697004e-34
1.1013659e-18
1.0150273e-18
-1.0377182e-30
-2.5805658e-18
2.2480687e-34
2.180309e-18
1.3345478e-18
-3.3963541e-31
-1.1224441e-18
-5.141095e-19
4.7061202e-19
-8.6095424e-19
-3.9348017e-19
1.1968931e-30
3.2805973e-19
5.9848327e-19
-8.182832e-19
2.7589933e-31
2.2616173e-19
2.0570256e-19
1.8693194e-19
9.4146913e-32
-8.5382199e-32
-2.7852619e-19
-6.9798232e-32
2.265087e-19
-2.0308299e-19
4.5207505e-31
2.3974684e-19
-1.3937704e-19
7.0948974e-32
1.2569764e-19
-5.6931637e-20
-4.9825277e-20
-1.1587606e-19
7.0590332e-20
1.8708753e-19
0
0
0
-2.423793e-19
-1.8875179e-19
2.15756e-19
2.6067065e-19
-1.6250565e-19
1.9542253e-35
-7.673134e-20
3.1420209e-31
2.8129306e-19
-2.3216378e-19
3.7889299e-31
1.8273543e-19
5.383729e-32
-4.671567e-32
-1.5434948e-19
8.800731e-20
-9.6922713e-20
2.9872278e-31
2.3210663e-19
-2.3536515e-19
-8.7116729e-20
1.9247209e-31
-1.5040114e-19
1.399433e-19
7.5448231e-20
7.7019576e-20
2.0201931e-19
-6.6016065e-32
-6.3828173e-20
-2.05349e-19
4.0660132e-31
1.4947667e-19
0
-6.2385222e-20
-1.2410582e-19
4.901175e-20
-4.6024417e-20
1.8581469e-31
1.1596187e-19
-1.4544633e-19
1.0718317e-31
6.6800772e-32
7.0926174e-32
6.1517222e-32
-5.521597e-20
1.9798868e-19
2.0568818e-19
-5.7968245e-20
-1.0760681e-19
0
6.9119702e-20
-6.6483163e-32
1.1040021e-31
-5.7998577e-32
-5.7272376e-20
5.2637314e-20
4.5160394e-20
-1.3958695e-19
1.1611314e-47
7.8649602e-32
-4.1493004e-20
5.1799366e-32
-1.1297201e-19
1.121733e-19
9.9338857e-20
4.8828366e-20
-6.4087886e-32
-6.839418e-20
0
0
0
-9.3876597e-20
5.1523316e-20
7.1067879e-20
-8.1269125e-20
3.316692e-20
1.1054896e-19
-9.6605918e-20
9.6191729e-32
6.3644403e-20
-1.0125713e-19
-6.1375906e-20
0
5.7988982e-20
9.9325478e-32
2.9458521e-20
6.0610249e-20
-3.2729726e-20
0
-7.3521264e-20
-1.0507822e-35
-4.0936972e-32
3.7300035e-20
1.1248819e-19
-1.090767e-19
6.5018274e-32
1.422883e-19
-1.5732224e-19
2.3021922e-31
7.8550737e-20
-4.329647e-20
5.208311e-20
-1.0414829e-19
-4.1042668e-20
1.431769e-31
3.23843e-20
7.2171001e-20
3.3778171e-20
2.8302293e-20
-5.2894418e-20
-2.8170793e-20
0
2.1965261e-20
-1.1335385e-32
2.1458304e-50
-1.8927466e-20
4.0940736e-36
-1.159711e-20
-1.3353483e-48
2.8401232e-20
-2.095707e-20
-1.1977567e-20
7.0567406e-21
1.2716809e-20
0
-3.6099044e-20
2.211115e-20
6.72648e-20
-6.0101194e-20
3.3797562e-32
4.4004599e-20
-2.3552489e-20
0
2.7841036e-20
3.2903608e-20
-3.5807473e-20
6.2748066e-32
-7.6283531e-20
-2.1766559e-35
1.0714892e-19
0
-7.5123045e-20
-4.7612757e-20
7.5691225e-20
4.5615842e-20
-4.4230335e-20
-5.4101447e-21
-2.8844339e-22
-1.2974844e-21
6.73223e-21
1.208483e-20
-8.7386052e-33
-9.2953101e-21
-1.0157769e-20
-1.0028662e-20
9.0485319e-21
-9.2174062e-33
1.4708838e-20
-1.8914836e-32
-1.1579037e-20
0
0
-1.1702374e-21
5.1946573e-33
4.70416e-21
-1.8212979e-20
5.9048978e-21
1.0631074e-32
2.4147408e-32
1.9223167e-20
-6.2991809e-21
4.401889e-33
-1.0820679e-32
-1.1628672e-20
1.2419937e-20
-1.5068184e-36
4.8722162e-33
-1.1457358e-32
-1.2027578e-20
0
9.489191e-21
-1.291382e-20
-4.8852004e-21
1.0526211e-20
0
-4.364756e-22
-1.9097549e-21
-6.8521766e-21
1.7626027e-20
-2.5918972e-32
-3.1408287e-32
1.146659e-20
-3.6022212e-20
1.7575789e-36
1.2035354e-20
1.2232649e-20
-1.4164568e-20
-1.3677734e-20
1.2668658e-20
0
-1.1548167e-20
2.2336682e-20
-1.779904e-32
-9.7672937e-21
-2.3148777e-32
-2.1080416e-32
-2.3220205e-36
-1.7705583e-20
3.0103505e-20
2.9970621e-20
0
-1.4952887e-20
-2.3599537e-20
-1.0804254e-36
8.6734232e-21
1.0109102e-20
-9.2025991e-21
-8.1149623e-21
9.1745687e-21
0
2.002247e-20
1.792766e-20
-2.9238372e-20
-1.0895131e-20
1.1546772e-20
-3.3252545e-36
-1.1655501e-20
-2.2804199e-20
-1.0904416e-20
1.7569272e-32
4.136343e-20
-3.280716e-32
-2.7506658e-20
8.9530921e-21
9.1300745e-21
8.8712109e-21
-8.2295176e-21
-8.0854046e-21
-8.2711318e-21
-2.3463385e-36
7.9735089e-21
-7.6781128e-21
2.3898073e-20
1.7048193e-20
-2.6268719e-20
8.5886816e-21
1.6441128e-20
-1.7120576e-20
9.5298571e-21
-1.0291435e-20
-2.1307902e-20
3.1713422e-20
-9.9301079e-21
3.380152e-32
3.3904508e-20
-2.4224267e-20
-1.238221e-20
-1.2212107e-20
-2.3777392e-20
1.2107121e-20
1.0112104e-75
2.3187482e-20
1.0527708e-20
-1.2402284e-32
-1.2080553e-20
-2.4993241e-20
2.5080257e-20
-1.2082892e-20
-3.2086597e-20
3.0997639e-20
1.1032533e-20
-3.0841796e-48
1.0823089e-20
-3.0086174e-20
-9.655628e-21
9.7633685e-21
1.8992512e-20
-8.8001357e-21
8.4579006e-21
-2.8406384e-32
-1.6584041e-20
2.3150303e-20
8.1556724e-33
-3.2130865e-32
1.5606173e-32
-1.3299504e-20
1.2805619e-20
-6.1645614e-21
-2.3317363e-20
5.6407802e-21
1.1361534e-20
0
1.1071376e-20
-1.1631874e-32
-2.9437751e-36
-5.8073708e-33
-5.2923556e-21
-5.4555884e-21
5.6687572e-21
5.7911541e-21
-1.1449623e-20
1.12388e-20
-6.5036737e-33
-1.2641498e-20
1.3348941e-20
2.2385052e-32
-7.3307706e-33
-6.8195296e-21
-1.4695578e-20
7.8356208e-21
-7.9725529e-21
4.3676986e-33
7.9328859e-21
1.6532403e-20
-8.7183557e-21
-1.7672515e-20
8.59465e-21
-8.5242819e-21
1.4619411e-32
-9.1442249e-21
-2.0274872e-32
1.7354158e-20
1.6913658e-20
1.9240755e-32
-2.9823558e-32
3.0028481e-32
-8.7785059e-21
-8.3615451e-21
-7.9013764e-21
7.5363537e-21
0
0
-7.6084053e-21
4.0459599e-33
9.6810071e-37
7.1344754e-33
6.3316739e-21
0
-6.3256686e-21
-1.2086588e-20
5.8442667e-21
1.1604732e-20
1.1324183e-20
1.0783317e-20
-1.5974431e-20
-1.8360286e-32
1.7214405e-20
-1.1568131e-20
-1.1354322e-20
0
-5.6577854e-21
1.1573107e-20
5.991886e-21
-1.2385665e-20
-6.3397125e-21
7.1069508e-33
1.9266464e-20
-6.5720034e-21
-2.065299e-20
2.1713314e-20
7.4682972e-21
-2.2598014e-20
8.3219366e-33
7.4251863e-21
1.4857046e-20
8.51487e-33
-1.5986686e-20
1.6338041e-20
-8.1742345e-21
-2.4099564e-20
0
8.1671329e-21
1.6581775e-20
-4.5695107e-33
7.9400591e-21
1.5635523e-20
-1.595834e-20
-1.6277021e-20
0
-7.8605678e-21
-8.4372271e-33
-8.349585e-33
-8.4696342e-33
2.2956419e-20
1.5074113e-20
0
-1.4477634e-20
-1.6256e-32
-7.2967274e-21
-2.1347638e-20
6.9677826e-21
-3.8855081e-33
1.0151855e-36
7.1919052e-21
1.4037852e-20
-6.6941843e-21
-1.3096122e-20
6.7326284e-21
0
1.4453199e-20
-7.1920787e-21
-2.1228379e-20
6.9845161e-21
6.9801953e-21
1.4256525e-20
-7.2110036e-21
-2.1443259e-20
7.1066522e-21
-7.9603158e-33
-1.4616643e-20
7.3108967e-21
7.1957232e-21
1.4208037e-20
2.1127569e-20
-1.3911766e-20
-1.3652436e-20
1.3631752e-20
7.6594412e-33
-1.3876381e-20
1.3506948e-20
7.0593091e-33
-1.2279491e-20
0
1.2885503e-20
1.2913472e-20
0
-1.7920237e-20
-5.6920342e-21
-1.5864599e-36
-5.6726321e-21
-5.6896254e-21
-6.1609828e-33
1.0514216e-20
9.7802482e-21
-1.5785524e-32
-9.655022e-21
9.8411723e-21
1.6208177e-32
-9.2642287e-21
0
0
0
0
8.4140869e-21
4.4762898e-33
-7.6350644e-21
-3.7239735e-21
7.5209383e-21
-1.2721681e-32
-7.588124e-21
7.4105099e-21
4.0338322e-33
-3.6452206e-21
7.385409e-21
-1.2242312e-32
-7.2410638e-21
7.2450554e-21
7.4658667e-21
-7.7545504e-21
-7.902574e-21
0
0
0
0
-4.4093254e-21
4.447633e-21
4.4321904e-21
-5.0339339e-33
-9.8654735e-76
-5.0189375e-21
-1.0293895e-20
-5.1822506e-21
1.0353899e-20
1.5922296e-20
-5.5975111e-21
-1.1678244e-20
1.7803703e-20
1.1904828e-20
-1.7778503e-20
-1.2010577e-20
-6.2430209e-21
-7.1777605e-33
1.297859e-20
0
-6.2866735e-21
6.3483372e-21
-1.46418e-32
-1.9148422e-36
-2.2240528e-32
-6.5326838e-21
-6.3162974e-21
1.7730276e-36
1.2767618e-20
1.2957004e-20
-2.1462754e-32
-1.2635413e-20
0
0
0
-5.8892564e-21
-5.7972261e-21
5.6378831e-21
5.4865042e-21
-5.376379e-21
1.0461273e-20
1.5078822e-20
0
-9.5208741e-21
-5.2127502e-33
-4.5859237e-21
-1.3245022e-20
4.2201915e-21
-6.8291438e-33
8.1210351e-21
-2.6749024e-32
-7.7549913e-21
-2.0549458e-33
-5.090429e-37
3.5301133e-21
-3.5272362e-21
7.0421152e-21
3.4738268e-21
-6.7440997e-21
6.438819e-21
8.7324864e-37
-3.3603378e-33
-3.1015877e-21
-9.6591792e-21
6.5039758e-21
1.7603107e-50
2.9872607e-21
-4.719872e-33
-5.6624382e-21
2.956543e-21
6.1497339e-21
-3.4520622e-33
-9.1888405e-21
8.528502e-37
2.9714437e-21
-2.9671393e-21
5.9497177e-21
2.9377561e-21
-5.7406302e-21
5.6929848e-21
3.2016903e-33
-1.6309417e-32
6.4803829e-33
-5.5285056e-21
5.1501901e-21
-2.4893215e-21
-5.0866269e-21
2.6432553e-21
-2.6669867e-21
5.2454626e-21
-4.266692e-33
-7.5869588e-21
0
0
6.8432263e-21
2.1894026e-21
-4.3731448e-21
4.5012598e-21
1.2960898e-36
-9.8477314e-33
-2.3101335e-33
-3.9182522e-21
3.8489724e-21
3.9370578e-21
-2.0370772e-21
-6.248234e-21
-2.089007e-21
2.0431276e-21
0
0
-1.8777247e-21
1.0902367e-33
6.203546e-21
6.0193341e-37
-4.1842456e-21
-2.0558409e-21
2.2989996e-33
6.4167047e-21
4.9133222e-33
-4.4864559e-21
0
-2.2309587e-21
4.59239e-21
2.4121912e-21
-5.5509597e-33
-2.5102894e-21
-4.9851313e-21
2.5042621e-21
0
0
0
0
-2.7841786e-21
1.5497271e-33
8.5203067e-21
-2.914672e-21
-8.9274109e-21
9.0105431e-21
3.0172804e-21
-6.0932132e-21
-3.0869671e-21
-5.1883688e-33
9.3863068e-21
-1.7843142e-36
-1.0480314e-32
-3.1503665e-21
-6.2934077e-21
-3.1343529e-21
-3.4911301e-33
3.1888874e-21
3.2204814e-21
3.1883305e-21
3.1289607e-21
-6.8695403e-33
-6.2032167e-21
0
0
-3.0670922e-21
-5.0023081e-33
-4.2585345e-37
4.3364836e-37
3.0805313e-21
6.065084e-21
5.8323613e-21
-5.5787283e-21
-3.0554359e-33
-2.8098319e-21
-8.6668881e-21
0
0
2.7240964e-21
2.593333e-21
0
-2.5388624e-21
1.4475122e-33
2.6404397e-21
-2.5922197e-21
4.9212063e-21
-7.7445817e-33
-6.7356441e-21
2.2464964e-21
2.2995383e-21
4.6157792e-21
-2.243256e-21
-6.3799305e-21
2.0164346e-21
-1.095863e-33
3.9864783e-21
2.0261551e-21
-3.9934127e-21
3.7542851e-21
1.9814598e-49
-3.2852705e-21
0
0
3.4841776e-21
-1.9055725e-33
-5.4247834e-33
1.7483785e-49
-4.2963672e-21
-1.5788674e-33
1.4651311e-21
3.0218026e-21
3.0177173e-21
-2.8920783e-21
-3.0341119e-33
-1.3240296e-21
-4.4677385e-33
1.3929114e-21
-2.8439424e-21
0
-1.3596087e-21
1.4885715e-33
1.3648932e-21
2.8270036e-21
1.5994991e-33
-2.8278059e-21
0
0
-1.4158825e-21
8.241685e-34
4.5864985e-21
1.6876222e-33
-2.9616992e-21
0
1.4695795e-21
-1.5125903e-21
-1.5662721e-21
-1.6016785e-21
-1.6072959e-21
3.2044794e-21
4.8160701e-21
-1.6199522e-21
-3.2808576e-21
4.9548894e-21
-1.6064152e-51
-3.3146163e-21
0
0
0
0
3.3261759e-21
3.3063199e-21
-1.6412702e-21
-4.8833869e-21
-1.816096e-33
1.6674478e-21
-3.3803109e-21
-3.3475917e-21
1.6152451e-21
6.2401535e-21
3.1349784e-21
-4.8799455e-21
-3.3700274e-21
5.0621501e-21
3.5803336e-33
-3.0606336e-21
0
0
0
3.4000769e-21
1.8834268e-33
-3.6552903e-33
1.5949408e-21
-4.7319087e-21
1.5951801e-21
1.6418192e-21
-5.0945467e-21
-3.4963103e-21
1.7729594e-21
3.5302526e-21
3.4772972e-21
-5.7548847e-33
1.9591604e-33
-5.2272908e-37
-3.8248905e-21
0
-1.9326402e-21
-1.9174596e-21
1.9433073e-21
2.0082514e-21
-2.0854372e-21
-2.1365324e-21
4.2992476e-21
2.156444e-21
-2.1861456e-21
2.2361975e-21
-2.2866348e-21
-4.6260209e-21
0
0
7.082764e-21
2.3982296e-21
-4.8770815e-21
-2.4781785e-21
-2.5141404e-21
5.0703152e-21
-2.8111399e-33
-5.0451129e-21
0
2.5510979e-21
7.7532039e-21
5.7864503e-33
-1.4493142e-32
5.219005e-21
-7.8667152e-21
-2.6377156e-21
-7.5050282e-37
2.6225525e-21
-4.3248962e-33
-4.331983e-33
7.9135283e-21
-7.9946674e-21
1.3245673e-32
-4.3464641e-33
-5.1375171e-21
2.5635076e-21
-2.5950167e-21
5.2366399e-21
2.6009074e-21
-5.116207e-21
5.0328615e-21
-1.4177527e-36
-1.9278382e-32
-1.3966637e-36
-1.6032337e-32
4.6857986e-21
-6.9019955e-21
-1.5240679e-32
6.8177108e-21
-4.4470862e-21
-4.2752118e-21
4.0959264e-21
-6.6175904e-33
-5.8632367e-21
2.1484511e-33
5.7031791e-21
-1.0482757e-36
-3.5549289e-21