/*--------------------------------*- C++ -*----------------------------------*\
  =========                 |
  \\      /  F ield         | OpenFOAM: The Open Source CFD Toolbox
   \\    /   O peration     | Website:  https://openfoam.org
    \\  /    A nd           | Version:  7
     \\/     M anipulation  |
\*---------------------------------------------------------------------------*/
FoamFile
{
    version     2.0;
    format      ascii;
    class       volScalarField;
    location    "0.00284";
    object      T;
}
// * * * * * * * * * * * * * * * * * * * * * * * * * * * * * * * * * * * * * //

dimensions      [0 0 0 1 0 0 0];

internalField   nonuniform List<scalar> 
5000
(
277.93646
277.93646
277.93642
277.93635
277.93629
277.93625
277.93622
277.9362
277.93618
277.93617
277.93616
277.93616
277.93616
277.93616
277.93615
277.93615
277.93615
277.93615
277.93615
277.93615
277.93615
277.93615
277.93615
277.93616
277.93616
277.93616
277.93616
277.93616
277.93616
277.93616
277.93616
277.93616
277.93616
277.93616
277.93616
277.93616
277.93616
277.93616
277.93616
277.93616
277.93616
277.93616
277.93617
277.93617
277.93617
277.93617
277.93617
277.93617
277.93617
277.93617
277.93617
277.93617
277.93617
277.93617
277.93617
277.93617
277.93618
277.93618
277.93618
277.93618
277.93618
277.93618
277.93618
277.93618
277.93618
277.93618
277.93618
277.93618
277.93619
277.93619
277.93619
277.93619
277.93619
277.93619
277.93619
277.93619
277.93619
277.93619
277.93619
277.9362
277.9362
277.9362
277.9362
277.9362
277.9362
277.9362
277.9362
277.9362
277.9362
277.9362
277.9362
277.93621
277.93621
277.93621
277.93621
277.93621
277.93621
277.93621
277.93621
277.93621
277.93621
277.93622
277.93622
277.93622
277.93622
277.93622
277.93622
277.93622
277.93622
277.93622
277.93622
277.93622
277.93623
277.93623
277.93623
277.93623
277.93623
277.93623
277.93623
277.93623
277.93623
277.93623
277.93623
277.93624
277.93624
277.93624
277.93624
277.93624
277.93624
277.93624
277.93624
277.93624
277.93624
277.93624
277.93624
277.93625
277.93625
277.93625
277.93625
277.93625
277.93625
277.93625
277.93625
277.93625
277.93625
277.93625
277.93625
277.93625
277.93626
277.93626
277.93626
277.93626
277.93626
277.93626
277.93626
277.93626
277.93626
277.93626
277.93626
277.93626
277.93626
277.93627
277.93627
277.93627
277.93627
277.93627
277.93627
277.93627
277.93627
277.93627
277.93627
277.93627
277.93627
277.93627
277.93627
277.93627
277.93627
277.93627
277.93628
277.93628
277.93628
277.93628
277.93628
277.93628
277.93628
277.93628
277.93628
277.93628
277.93628
277.93628
277.93628
277.93628
277.93628
277.93628
277.93628
277.93628
277.93628
277.93629
277.93629
277.93629
277.93629
277.93629
277.93629
277.93629
277.93629
277.93629
277.93629
277.93629
277.93629
277.93629
277.93629
277.93629
277.93629
277.93629
277.93629
277.93629
277.93629
277.93629
277.93629
277.93629
277.93629
277.93629
277.9363
277.9363
277.9363
277.9363
277.9363
277.9363
277.9363
277.9363
277.9363
277.9363
277.9363
277.9363
277.9363
277.9363
277.9363
277.9363
277.9363
277.9363
277.9363
277.9363
277.9363
277.9363
277.9363
277.9363
277.9363
277.9363
277.9363
277.9363
277.9363
277.9363
277.9363
277.9363
277.9363
277.93631
277.93631
277.93631
277.93631
277.93631
277.93631
277.93631
277.93631
277.93631
277.93631
277.93631
277.93631
277.93631
277.93631
277.93631
277.93631
277.93631
277.93631
277.93631
277.93631
277.93631
277.93631
277.93631
277.93631
277.93631
277.93631
277.93631
277.93631
277.93631
277.93631
277.93631
277.93631
277.93631
277.93631
277.93631
277.93631
277.93631
277.93631
277.93631
277.93631
277.93631
277.93631
277.93631
277.93631
277.93632
277.93632
277.93632
277.93632
277.93632
277.93632
277.93632
277.93632
277.93632
277.93632
277.93632
277.93632
277.93632
277.93632
277.93632
277.93632
277.93632
277.93632
277.93632
277.93632
277.93632
277.93632
277.93632
277.93632
277.93632
277.93632
277.93632
277.93632
277.93632
277.93632
277.93632
277.93632
277.93632
277.93632
277.93632
277.93632
277.93632
277.93632
277.93632
277.93632
277.93632
277.93632
277.93632
277.93632
277.93633
277.93633
277.93633
277.93633
277.93633
277.93633
277.93633
277.93633
277.93633
277.93633
277.93633
277.93633
277.93633
277.93633
277.93633
277.93633
277.93633
277.93633
277.93633
277.93633
277.93633
277.93633
277.93633
277.93633
277.93633
277.93633
277.93633
277.93633
277.93633
277.93633
277.93633
277.93633
277.93633
277.93633
277.93633
277.93633
277.93633
277.93633
277.93634
277.93634
277.93634
277.93634
277.93634
277.93634
277.93634
277.93634
277.93634
277.93634
277.93634
277.93634
277.93634
277.93634
277.93634
277.93634
277.93634
277.93634
277.93634
277.93634
277.93634
277.93634
277.93634
277.93634
277.93634
277.93634
277.93634
277.93634
277.93634
277.93634
277.93634
277.93634
277.93634
277.93634
277.93634
277.93635
277.93635
277.93635
277.93635
277.93635
277.93635
277.93635
277.93635
277.93635
277.93635
277.93635
277.93635
277.93635
277.93635
277.93635
277.93635
277.93635
277.93635
277.93635
277.93635
277.93635
277.93635
277.93635
277.93635
277.93635
277.93635
277.93635
277.93636
277.93636
277.93636
277.93636
277.93636
277.93636
277.93636
277.93636
277.93636
277.93636
277.93636
277.93636
277.93636
277.93636
277.93636
277.93636
277.93636
277.93636
277.93636
277.93636
277.93636
277.93636
277.93636
277.93636
277.93636
277.93637
277.93637
277.93637
277.93637
277.93637
277.93637
277.93637
277.93637
277.93637
277.93637
277.93637
277.93637
277.93637
277.93637
277.93637
277.93637
277.93637
277.93637
277.93637
277.93637
277.93637
277.93637
277.93637
277.93638
277.93638
277.93638
277.93638
277.93638
277.93638
277.93638
277.93638
277.93638
277.93638
277.93638
277.93638
277.93638
277.93638
277.93638
277.93638
277.93638
277.93638
277.93638
277.93638
277.93638
277.93638
277.93639
277.93639
277.93639
277.93639
277.93639
277.93639
277.93639
277.93639
277.93639
277.93639
277.93639
277.93639
277.93639
277.93639
277.93639
277.93639
277.93639
277.93639
277.93639
277.93639
277.93639
277.93639
277.93639
277.9364
277.9364
277.9364
277.9364
277.9364
277.9364
277.9364
277.9364
277.9364
277.9364
277.9364
277.9364
277.9364
277.9364
277.9364
277.9364
277.9364
277.93641
277.93641
277.93641
277.93641
277.93641
277.93641
277.93641
277.93641
277.93641
277.93641
277.93641
277.93641
277.93641
277.93641
277.93641
277.93641
277.93641
277.93641
277.93641
277.93641
277.93641
277.93641
277.93642
277.93642
277.93642
277.93642
277.93642
277.93642
277.93642
277.93642
277.93642
277.93642
277.93642
277.93642
277.93642
277.93642
277.93642
277.93643
277.93643
277.93643
277.93643
277.93643
277.93643
277.93643
277.93643
277.93643
277.93643
277.93643
277.93643
277.93643
277.93643
277.93643
277.93643
277.93643
277.93643
277.93643
277.93643
277.93643
277.93643
277.93644
277.93644
277.93644
277.93644
277.93644
277.93644
277.93644
277.93644
277.93644
277.93644
277.93644
277.93644
277.93644
277.93644
277.93644
277.93644
277.93644
277.93644
277.93644
277.93644
277.93644
277.93644
277.93644
277.93645
277.93645
277.93645
277.93645
277.93645
277.93645
277.93645
277.93645
277.93645
277.93645
277.93645
277.93645
277.93646
277.93646
277.93646
277.93646
277.93646
277.93646
277.93646
277.93646
277.93646
277.93646
277.93646
277.93646
277.93646
277.93646
277.93646
277.93646
277.93646
277.93646
277.93646
277.93646
277.93646
277.93646
277.93646
277.93647
277.93647
277.93647
277.93647
277.93647
277.93647
277.93647
277.93647
277.93647
277.93647
277.93647
277.93647
277.93647
277.93647
277.93647
277.93647
277.93648
277.93648
277.93648
277.93648
277.93648
277.93648
277.93648
277.93648
277.93648
277.93648
277.93648
277.93648
277.93648
277.93648
277.93648
277.93649
277.93649
277.93649
277.93649
277.93649
277.93649
277.93649
277.93649
277.93649
277.93649
277.93649
277.93649
277.93649
277.93649
277.93649
277.93649
277.93649
277.9365
277.9365
277.9365
277.9365
277.9365
277.9365
277.9365
277.9365
277.9365
277.9365
277.9365
277.9365
277.9365
277.9365
277.9365
277.9365
277.9365
277.9365
277.93651
277.93651
277.93651
277.93651
277.93651
277.93651
277.93651
277.93651
277.93651
277.93651
277.93651
277.93651
277.93651
277.93652
277.93652
277.93652
277.93652
277.93652
277.93652
277.93652
277.93652
277.93652
277.93652
277.93652
277.93652
277.93652
277.93652
277.93652
277.93652
277.93652
277.93653
277.93653
277.93653
277.93653
277.93653
277.93653
277.93653
277.93653
277.93653
277.93653
277.93653
277.93653
277.93654
277.93654
277.93654
277.93654
277.93654
277.93654
277.93654
277.93654
277.93654
277.93654
277.93654
277.93654
277.93654
277.93654
277.93654
277.93655
277.93655
277.93655
277.93655
277.93655
277.93655
277.93655
277.93655
277.93655
277.93655
277.93655
277.93655
277.93655
277.93655
277.93655
277.93655
277.93656
277.93656
277.93656
277.93656
277.93656
277.93656
277.93656
277.93656
277.93656
277.93656
277.93656
277.93656
277.93656
277.93657
277.93657
277.93657
277.93657
277.93657
277.93657
277.93657
277.93657
277.93657
277.93657
277.93658
277.93658
277.93658
277.93658
277.93658
277.93658
277.93658
277.93658
277.93658
277.93658
277.93658
277.93658
277.93658
277.93658
277.93658
277.93659
277.93659
277.93659
277.93659
277.93659
277.93659
277.93659
277.93659
277.93659
277.93659
277.93659
277.93659
277.93659
277.93659
277.9366
277.9366
277.9366
277.9366
277.9366
277.9366
277.9366
277.9366
277.9366
277.9366
277.9366
277.93661
277.93661
277.93661
277.93661
277.93661
277.93661
277.93661
277.93661
277.93661
277.93661
277.93662
277.93662
277.93662
277.93662
277.93662
277.93662
277.93662
277.93662
277.93662
277.93662
277.93662
277.93662
277.93662
277.93662
277.93662
277.93662
277.93663
277.93663
277.93663
277.93663
277.93663
277.93663
277.93663
277.93663
277.93663
277.93663
277.93663
277.93664
277.93664
277.93664
277.93664
277.93664
277.93664
277.93664
277.93664
277.93664
277.93664
277.93664
277.93665
277.93665
277.93665
277.93665
277.93665
277.93665
277.93665
277.93665
277.93665
277.93665
277.93665
277.93665
277.93666
277.93666
277.93666
277.93666
277.93666
277.93666
277.93666
277.93666
277.93666
277.93667
277.93667
277.93667
277.93667
277.93667
277.93667
277.93667
277.93667
277.93667
277.93667
277.93667
277.93667
277.93667
277.93667
277.93668
277.93668
277.93668
277.93668
277.93668
277.93668
277.93668
277.93668
277.93668
277.93668
277.93669
277.93669
277.93669
277.93669
277.93669
277.93669
277.93669
277.93669
277.93669
277.93669
277.93669
277.9367
277.9367
277.9367
277.9367
277.9367
277.9367
277.9367
277.9367
277.9367
277.9367
277.9367
277.93671
277.93671
277.93671
277.93671
277.93671
277.93671
277.93671
277.93671
277.93671
277.93671
277.93672
277.93672
277.93672
277.93672
277.93672
277.93672
277.93672
277.93672
277.93672
277.93672
277.93673
277.93673
277.93673
277.93673
277.93673
277.93673
277.93673
277.93673
277.93673
277.93673
277.93673
277.93674
277.93674
277.93674
277.93674
277.93674
277.93674
277.93674
277.93674
277.93675
277.93675
277.93675
277.93675
277.93675
277.93675
277.93675
277.93675
277.93675
277.93675
277.93676
277.93676
277.93676
277.93676
277.93676
277.93676
277.93676
277.93676
277.93676
277.93676
277.93677
277.93677
277.93677
277.93677
277.93677
277.93677
277.93677
277.93677
277.93677
277.93678
277.93678
277.93678
277.93678
277.93678
277.93678
277.93678
277.93678
277.93678
277.93678
277.93678
277.93679
277.93679
277.93679
277.93679
277.93679
277.93679
277.93679
277.9368
277.9368
277.9368
277.9368
277.9368
277.9368
277.9368
277.9368
277.9368
277.9368
277.9368
277.93681
277.93681
277.93681
277.93681
277.93681
277.93681
277.93681
277.93682
277.93682
277.93682
277.93682
277.93682
277.93682
277.93682
277.93682
277.93682
277.93682
277.93683
277.93683
277.93683
277.93683
277.93683
277.93683
277.93683
277.93683
277.93683
277.93684
277.93684
277.93684
277.93684
277.93684
277.93684
277.93684
277.93684
277.93684
277.93685
277.93685
277.93685
277.93685
277.93685
277.93685
277.93685
277.93686
277.93686
277.93686
277.93686
277.93686
277.93686
277.93686
277.93686
277.93687
277.93687
277.93687
277.93687
277.93687
277.93687
277.93687
277.93687
277.93687
277.93687
277.93688
277.93688
277.93688
277.93688
277.93688
277.93688
277.93688
277.93689
277.93689
277.93689
277.93689
277.93689
277.93689
277.9369
277.9369
277.9369
277.9369
277.9369
277.9369
277.9369
277.9369
277.9369
277.9369
277.93691
277.93691
277.93691
277.93691
277.93691
277.93691
277.93691
277.93692
277.93692
277.93692
277.93692
277.93692
277.93692
277.93692
277.93692
277.93693
277.93693
277.93693
277.93693
277.93693
277.93693
277.93693
277.93694
277.93694
277.93694
277.93694
277.93694
277.93694
277.93694
277.93694
277.93694
277.93695
277.93695
277.93695
277.93695
277.93695
277.93695
277.93695
277.93696
277.93696
277.93696
277.93696
277.93696
277.93696
277.93696
277.93697
277.93697
277.93697
277.93697
277.93697
277.93697
277.93697
277.93698
277.93698
277.93698
277.93698
277.93698
277.93698
277.93698
277.93699
277.93699
277.93699
277.93699
277.93699
277.93699
277.937
277.937
277.937
277.937
277.937
277.937
277.937
277.93701
277.93701
277.93701
277.93701
277.93701
277.93701
277.93701
277.93701
277.93702
277.93702
277.93702
277.93702
277.93702
277.93702
277.93702
277.93703
277.93703
277.93703
277.93703
277.93703
277.93703
277.93704
277.93704
277.93704
277.93704
277.93704
277.93704
277.93705
277.93705
277.93705
277.93705
277.93705
277.93706
277.93706
277.93706
277.93706
277.93706
277.93706
277.93706
277.93706
277.93707
277.93707
277.93707
277.93707
277.93707
277.93707
277.93708
277.93708
277.93708
277.93708
277.93708
277.93708
277.93709
277.93709
277.93709
277.93709
277.93709
277.93709
277.9371
277.9371
277.9371
277.9371
277.9371
277.9371
277.93711
277.93711
277.93711
277.93711
277.93711
277.93711
277.93711
277.93712
277.93712
277.93712
277.93712
277.93712
277.93713
277.93713
277.93713
277.93713
277.93713
277.93713
277.93714
277.93714
277.93714
277.93714
277.93714
277.93715
277.93715
277.93715
277.93715
277.93715
277.93715
277.93716
277.93716
277.93716
277.93716
277.93716
277.93716
277.93716
277.93717
277.93717
277.93717
277.93717
277.93717
277.93717
277.93718
277.93718
277.93718
277.93718
277.93719
277.93719
277.93719
277.93719
277.93719
277.9372
277.9372
277.9372
277.9372
277.9372
277.9372
277.93721
277.93721
277.93721
277.93721
277.93721
277.93722
277.93722
277.93722
277.93722
277.93722
277.93723
277.93723
277.93723
277.93723
277.93723
277.93724
277.93724
277.93724
277.93724
277.93724
277.93725
277.93725
277.93725
277.93725
277.93725
277.93726
277.93726
277.93726
277.93726
277.93726
277.93727
277.93727
277.93727
277.93727
277.93728
277.93728
277.93728
277.93728
277.93729
277.93729
277.93729
277.93729
277.93729
277.9373
277.9373
277.9373
277.9373
277.93731
277.93731
277.93731
277.93731
277.93731
277.93732
277.93732
277.93732
277.93732
277.93732
277.93733
277.93733
277.93733
277.93733
277.93734
277.93734
277.93734
277.93734
277.93734
277.93735
277.93735
277.93735
277.93735
277.93736
277.93736
277.93736
277.93736
277.93737
277.93737
277.93737
277.93737
277.93738
277.93738
277.93738
277.93738
277.93739
277.93739
277.93739
277.93739
277.9374
277.9374
277.9374
277.93741
277.93741
277.93741
277.93741
277.93742
277.93742
277.93742
277.93743
277.93743
277.93743
277.93743
277.93744
277.93744
277.93744
277.93744
277.93745
277.93745
277.93745
277.93745
277.93746
277.93746
277.93746
277.93747
277.93747
277.93747
277.93748
277.93748
277.93748
277.93749
277.93749
277.93749
277.93749
277.9375
277.9375
277.9375
277.93751
277.93751
277.93751
277.93751
277.93752
277.93752
277.93752
277.93753
277.93753
277.93753
277.93754
277.93754
277.93754
277.93755
277.93755
277.93755
277.93756
277.93756
277.93757
277.93757
277.93757
277.93758
277.93758
277.93758
277.93759
277.93759
277.93759
277.9376
277.9376
277.93761
277.93761
277.93761
277.93762
277.93762
277.93762
277.93763
277.93763
277.93763
277.93764
277.93764
277.93765
277.93765
277.93765
277.93766
277.93766
277.93766
277.93767
277.93767
277.93768
277.93768
277.93769
277.93769
277.93769
277.9377
277.9377
277.93771
277.93771
277.93771
277.93772
277.93772
277.93773
277.93773
277.93773
277.93774
277.93774
277.93775
277.93775
277.93776
277.93776
277.93777
277.93777
277.93777
277.93778
277.93778
277.93779
277.93779
277.9378
277.9378
277.93781
277.93781
277.93782
277.93782
277.93783
277.93783
277.93784
277.93784
277.93785
277.93785
277.93786
277.93786
277.93787
277.93787
277.93788
277.93788
277.93789
277.93789
277.9379
277.9379
277.93791
277.93791
277.93792
277.93792
277.93793
277.93794
277.93794
277.93795
277.93795
277.93796
277.93796
277.93797
277.93797
277.93798
277.93799
277.93799
277.938
277.938
277.93801
277.93801
277.93802
277.93803
277.93803
277.93804
277.93804
277.93805
277.93806
277.93806
277.93807
277.93807
277.93808
277.93809
277.93809
277.9381
277.93811
277.93811
277.93812
277.93812
277.93813
277.93814
277.93814
277.93815
277.93816
277.93816
277.93817
277.93818
277.93818
277.93819
277.9382
277.93821
277.93821
277.93822
277.93823
277.93824
277.93824
277.93825
277.93826
277.93827
277.93827
277.93828
277.93829
277.93829
277.9383
277.93831
277.93832
277.93833
277.93833
277.93834
277.93835
277.93836
277.93836
277.93837
277.93838
277.93839
277.9384
277.93841
277.93841
277.93842
277.93843
277.93844
277.93845
277.93846
277.93847
277.93848
277.93848
277.93849
277.9385
277.93851
277.93852
277.93853
277.93854
277.93855
277.93856
277.93857
277.93858
277.93859
277.9386
277.93861
277.93862
277.93863
277.93864
277.93865
277.93866
277.93867
277.93869
277.9387
277.93871
277.93872
277.93873
277.93874
277.93875
277.93877
277.93878
277.93879
277.9388
277.93881
277.93883
277.93884
277.93885
277.93887
277.93888
277.9389
277.93891
277.93893
277.93894
277.93896
277.93897
277.93899
277.939
277.93902
277.93903
277.93905
277.93907
277.93908
277.9391
277.93912
277.93914
277.93915
277.93917
277.93919
277.93921
277.93923
277.93925
277.93927
277.93929
277.93931
277.93933
277.93936
277.93938
277.9394
277.93942
277.93945
277.93947
277.9395
277.93952
277.93955
277.93958
277.93961
277.93964
277.93967
277.9397
277.93973
277.93976
277.93979
277.93982
277.93986
277.93989
277.93993
277.93996
277.94
277.94004
277.94008
277.94012
277.94016
277.9402
277.94024
277.94029
277.94033
277.94038
277.94043
277.94047
277.94052
277.94058
277.94063
277.94068
277.94074
277.9408
277.94086
277.94092
277.94098
277.94104
277.94111
277.94117
277.94124
277.94131
277.94139
277.94146
277.94154
277.94162
277.9417
277.94178
277.94187
277.94196
277.94205
277.94214
277.94223
277.94233
277.94243
277.94254
277.94264
277.94275
277.94287
277.94298
277.9431
277.94322
277.94335
277.94348
277.94361
277.94374
277.94388
277.94402
277.94417
277.94432
277.94448
277.94463
277.9448
277.94497
277.94514
277.94531
277.94549
277.94568
277.94587
277.94607
277.94627
277.94647
277.94669
277.9469
277.94713
277.94736
277.94759
277.94783
277.94808
277.94833
277.94859
277.94886
277.94913
277.94941
277.94969
277.94999
277.95029
277.9506
277.95092
277.95124
277.95157
277.95191
277.95226
277.95262
277.95299
277.95337
277.95375
277.95414
277.95455
277.95496
277.95539
277.95582
277.95626
277.95672
277.95718
277.95766
277.95815
277.95865
277.95916
277.95968
277.96021
277.96076
277.96132
277.96189
277.96247
277.96307
277.96368
277.9643
277.96494
277.96559
277.96626
277.96694
277.96764
277.96835
277.96908
277.96982
277.97058
277.97135
277.97214
277.97295
277.97378
277.97462
277.97548
277.97636
277.97725
277.97817
277.9791
277.98005
277.98102
277.98202
277.98303
277.98406
277.98511
277.98618
277.98728
277.98839
277.98953
277.99069
277.99187
277.99307
277.9943
277.99555
277.99682
277.99812
277.99944
278.00079
278.00216
278.00355
278.00498
278.00642
278.0079
278.0094
278.01092
278.01248
278.01406
278.01567
278.01731
278.01897
278.02067
278.02239
278.02414
278.02593
278.02774
278.02958
278.03146
278.03336
278.0353
278.03727
278.03927
278.04131
278.04337
278.04547
278.0476
278.04977
278.05197
278.05421
278.05648
278.05878
278.06112
278.0635
278.06591
278.06836
278.07084
278.07336
278.07592
278.07852
278.08115
278.08383
278.08654
278.08929
278.09208
278.09491
278.09777
278.10068
278.10363
278.10662
278.10965
278.11272
278.11583
278.11899
278.12218
278.12542
278.1287
278.13203
278.1354
278.13881
278.14226
278.14576
278.1493
278.15289
278.15652
278.16019
278.16391
278.16768
278.17149
278.17535
278.17925
278.1832
278.1872
278.19124
278.19533
278.19947
278.20365
278.20789
278.21217
278.21649
278.22087
278.22529
278.22976
278.23429
278.23885
278.24347
278.24814
278.25286
278.25762
278.26244
278.2673
278.27222
278.27718
278.2822
278.28726
278.29238
278.29754
278.30276
278.30802
278.31334
278.31871
278.32413
278.3296
278.33512
278.34069
278.34632
278.35199
278.35772
278.3635
278.36933
278.37521
278.38114
278.38712
278.39316
278.39925
278.40539
278.41158
278.41782
278.42411
278.43046
278.43686
278.44331
278.44981
278.45636
278.46297
278.46962
278.47633
278.48309
278.4899
278.49677
278.50368
278.51065
278.51767
278.52473
278.53186
278.53903
278.54625
278.55353
278.56085
278.56823
278.57566
278.58314
278.59067
278.59825
278.60588
278.61356
278.62129
278.62908
278.63691
278.64479
278.65273
278.66071
278.66874
278.67683
278.68496
278.69314
278.70137
278.70965
278.71798
278.72636
278.73479
278.74326
278.75179
278.76036
278.76898
278.77765
278.78636
278.79513
278.80394
278.8128
278.8217
278.83066
278.83966
278.8487
278.8578
278.86694
278.87612
278.88535
278.89463
278.90395
278.91332
278.92274
278.93219
278.9417
278.95124
278.96084
278.97047
278.98015
278.98988
278.99964
279.00945
279.01931
279.0292
279.03914
279.04912
279.05915
279.06921
279.07932
279.08947
279.09966
279.10989
279.12016
279.13048
279.14083
279.15122
279.16166
279.17213
279.18265
279.1932
279.20379
279.21442
279.22509
279.2358
279.24654
279.25733
279.26815
279.27901
279.2899
279.30084
279.31181
279.32281
279.33385
279.34493
279.35605
279.3672
279.37838
279.3896
279.40086
279.41215
279.42347
279.43483
279.44622
279.45764
279.4691
279.48059
279.49212
279.50367
279.51526
279.52688
279.53854
279.55022
279.56194
279.57368
279.58546
279.59727
279.60911
279.62098
279.63288
279.64481
279.65677
279.66876
279.68077
279.69282
279.70489
279.71699
279.72912
279.74128
279.75347
279.76568
279.77792
279.79019
279.80248
279.8148
279.82714
279.83952
279.85191
279.86433
279.87678
279.88925
279.90175
279.91427
279.92682
279.93938
279.95198
279.96459
279.97723
279.9899
280.00258
280.01529
280.02802
280.04077
280.05355
280.06635
280.07916
280.092
280.10486
280.11774
280.13064
280.14356
280.15651
280.16947
280.18245
280.19545
280.20847
280.2215
280.23456
280.24763
280.26073
280.27384
280.28697
280.30012
280.31328
280.32646
280.33966
280.35287
280.36611
280.37935
280.39262
280.4059
280.41919
280.4325
280.44583
280.45917
280.47253
280.4859
280.49928
280.51268
280.5261
280.53952
280.55296
280.56642
280.57988
280.59336
280.60686
280.62036
280.63388
280.64741
280.66095
280.6745
280.68807
280.70164
280.71523
280.72883
280.74244
280.75606
280.76969
280.78333
280.79698
280.81064
280.82431
280.83798
280.85167
280.86537
280.87907
280.89279
280.90651
280.92024
280.93398
280.94772
280.96148
280.97524
280.98901
281.00278
281.01656
281.03035
281.04415
281.05795
281.07175
281.08557
281.09939
281.11321
281.12704
281.14088
281.15472
281.16856
281.18241
281.19627
281.21013
281.22399
281.23786
281.25173
281.2656
281.27948
281.29336
281.30724
281.32113
281.33502
281.34891
281.3628
281.3767
281.3906
281.40449
281.4184
281.4323
281.4462
281.46011
281.47401
281.48792
281.50183
281.51574
281.52965
281.54355
281.55746
281.57137
281.58528
281.59919
281.61309
281.627
281.6409
281.65481
281.66871
281.68261
281.69651
281.71041
281.7243
281.7382
281.75209
281.76598
281.77986
281.79375
281.80763
281.82151
281.83538
281.84925
281.86312
281.87698
281.89084
281.9047
281.91856
281.9324
281.94625
281.96009
281.97393
281.98776
282.00159
282.01541
282.02923
282.04304
282.05685
282.07065
282.08445
282.09824
282.11203
282.12581
282.13958
282.15335
282.16711
282.18087
282.19462
282.20837
282.2221
282.23584
282.24956
282.26328
282.277
282.2907
282.3044
282.3181
282.33178
282.34546
282.35914
282.37281
282.38647
282.40012
282.41377
282.42741
282.44105
282.45467
282.46829
282.48191
282.49552
282.50912
282.52272
282.5363
282.54989
282.56347
282.57704
282.5906
282.60416
282.61772
282.63127
282.64481
282.65835
282.67188
282.68541
282.69894
282.71246
282.72598
282.73949
282.753
282.76651
282.78001
282.79352
282.80702
282.82052
282.83401
282.84751
282.86101
282.8745
282.888
282.9015
282.915
282.9285
282.94201
282.95552
282.96903
282.98255
282.99608
283.00961
283.02315
283.0367
283.05026
283.06382
283.0774
283.09099
283.10459
283.11821
283.13184
283.14549
283.15916
283.17284
283.18655
283.20028
283.21403
283.22781
283.24161
283.25544
283.2693
283.28319
283.29712
283.31108
283.32507
283.33911
283.35319
283.36731
283.38148
283.3957
283.40996
283.42428
283.43866
283.4531
283.4676
283.48216
283.49679
283.51149
283.52627
283.54113
283.55607
283.57109
283.5862
283.60141
283.61671
283.63211
283.64762
283.66324
283.67898
283.69484
283.71082
283.72693
283.74318
283.75956
283.7761
283.79279
283.80963
283.82665
283.84383
283.86119
283.87874
283.89648
283.91441
283.93256
283.95092
283.9695
283.98832
284.00737
284.02667
284.04622
284.06605
284.08614
284.10652
284.1272
284.14818
284.16948
284.19109
284.21303
284.23532
284.25797
284.28099
284.3044
284.32819
284.35239
284.37701
284.40206
284.42754
284.45349
284.47991
284.5068
284.53419
284.56209
284.59051
284.61947
284.64898
284.67905
284.7097
284.74094
284.7728
284.80526
284.83837
284.87212
284.90654
284.94163
284.97741
285.0139
285.05111
285.08904
285.12772
285.16715
285.20735
285.24833
285.2901
285.33267
285.37604
285.42024
285.46527
285.51114
285.55785
285.60541
285.65382
285.70311
285.75325
285.80426
285.85614
285.90889
285.9625
286.01699
286.07234
286.12855
286.18562
286.24353
286.30228
286.36186
286.42226
286.48346
286.54546
286.60823
286.67176
286.73602
286.80101
286.86669
286.93305
287.00005
287.06768
287.13591
287.20471
287.27404
287.34388
287.4142
287.48495
287.55611
287.62765
287.69952
287.77168
287.84411
287.91675
287.98958
288.06255
288.13562
288.20875
288.28191
288.35504
288.42812
288.50109
288.57393
288.64658
288.71902
288.7912
288.86308
288.93463
289.00581
289.07658
289.14691
289.21676
289.28611
289.35492
289.42315
289.49078
289.55779
289.62414
289.6898
289.75477
289.819
289.88248
289.94519
290.00712
290.06823
290.12853
290.18799
290.24659
290.30434
290.36122
290.41721
290.47231
290.52652
290.57983
290.63223
290.68372
290.7343
290.78397
290.83272
290.88057
290.92751
290.97354
291.01868
291.06291
291.10626
291.14872
291.1903
291.23101
291.27087
291.30986
291.34802
291.38534
291.42184
291.45752
291.4924
291.52649
291.5598
291.59234
291.62413
291.65517
291.68548
291.71508
291.74396
291.77216
291.79967
291.82651
291.8527
291.87825
291.90317
291.92747
291.95117
291.97427
291.9968
292.01876
292.04017
292.06104
292.08138
292.1012
292.12052
292.13934
292.15768
292.17555
292.19296
292.20992
292.22645
292.24255
292.25824
292.27351
292.2884
292.30289
292.31701
292.33077
292.34417
292.35722
292.36993
292.38231
292.39437
292.40612
292.41756
292.42871
292.43956
292.45014
292.46044
292.47048
292.48025
292.48978
292.49906
292.5081
292.51691
292.52549
292.53385
292.542
292.54994
292.55767
292.56521
292.57256
292.57972
292.5867
292.5935
292.60014
292.6066
292.6129
292.61905
292.62504
292.63088
292.63658
292.64214
292.64755
292.65284
292.65799
292.66302
292.66792
292.67271
292.67737
292.68193
292.68638
292.69071
292.69495
292.69908
292.70312
292.70706
292.71091
292.71466
292.71833
292.72191
292.72541
292.72882
292.73216
292.73542
292.7386
292.74171
292.74474
292.74771
292.75061
292.75344
292.75621
292.75891
292.76155
292.76413
292.76665
292.76911
292.77151
292.77386
292.77614
292.77837
292.78055
292.78267
292.78473
292.78674
292.7887
292.79061
292.79246
292.79427
292.79602
292.79772
292.79938
292.80099
292.80256
292.80408
292.80557
292.80702
292.80842
292.80979
292.81112
292.81243
292.81371
292.81496
292.81617
292.81736
292.81852
292.81967
292.82082
292.82196
292.8231
292.82424
292.82538
292.82652
292.82766
292.82879
292.82993
292.83105
292.83218
292.83329
292.83439
292.83548
292.83656
292.83762
292.83866
292.83968
292.84067
292.84164
292.84257
292.84348
292.84434
292.84515
292.84594
292.84665
292.84729
292.84802
292.84858
292.84887
292.85045
292.84947
292.84974
292.85681
292.85077
292.84731
292.86955
292.96493
293.18386
293.50759
293.93733
294.47082
295.1011
295.81794
296.608
297.4554
298.3425
299.25092
300.16246
301.06003
301.92832
302.75438
303.52792
304.24144
304.89019
305.47196
305.98682
306.43668
306.82494
307.15608
307.43526
307.66801
307.85995
308.01655
308.14297
308.244
308.32391
308.38646
308.43494
308.47213
308.50034
308.52152
308.53722
308.54873
308.55706
308.56297
308.56708
308.56987
308.57173
308.57295
308.57372
308.57414
308.5743
308.57427
308.57411
308.57387
308.57359
308.57329
308.57299
308.57269
308.5724
308.57211
308.57181
308.57151
308.5712
308.57088
308.57055
308.5702
308.56984
308.56946
308.56907
308.56866
308.56824
308.56781
308.56737
308.56692
308.56648
308.56603
308.56559
308.56515
308.56472
308.5643
308.5639
308.5635
308.56313
308.56277
308.56242
308.56209
308.56178
308.56149
308.5612
308.56094
308.56069
308.56045
308.56022
308.56
308.5598
308.5596
308.55941
308.55923
308.55906
308.55889
308.55873
308.55858
308.55843
308.55828
308.55813
308.55799
308.55785
308.55772
308.55759
308.55746
308.55733
308.5572
308.55708
308.55695
308.55683
308.55671
308.55658
308.55646
308.55634
308.55622
308.5561
308.55599
308.55587
308.55575
308.55563
308.55551
308.55539
308.55528
308.55516
308.55504
308.55492
308.5548
308.55468
308.55456
308.55444
308.55432
308.5542
308.55408
308.55396
308.55383
308.55371
308.55358
308.55346
308.55333
308.5532
308.55307
308.55294
308.55281
308.55267
308.55253
308.5524
308.55226
308.55212
308.55197
308.55183
308.55168
308.55153
308.55138
308.55123
308.55107
308.55091
308.55075
308.55058
308.55042
308.55025
308.55007
308.5499
308.54972
308.54953
308.54935
308.54916
308.54896
308.54877
308.54856
308.54836
308.54815
308.54794
308.54772
308.5475
308.54727