/*--------------------------------*- C++ -*----------------------------------*\
  =========                 |
  \\      /  F ield         | OpenFOAM: The Open Source CFD Toolbox
   \\    /   O peration     | Website:  https://openfoam.org
    \\  /    A nd           | Version:  7
     \\/     M anipulation  |
\*---------------------------------------------------------------------------*/
FoamFile
{
    version     2.0;
    format      ascii;
    class       volScalarField;
    location    "0.00349";
    object      rho;
}
// * * * * * * * * * * * * * * * * * * * * * * * * * * * * * * * * * * * * * //

dimensions      [1 -3 0 0 0 0 0];

internalField   nonuniform List<scalar> 
5000
(
1.3374802
1.3374802
1.3374802
1.3374802
1.3374802
1.3374802
1.3374802
1.3374802
1.3374802
1.3374802
1.3374802
1.3374802
1.3374803
1.3374803
1.3374803
1.3374803
1.3374803
1.3374803
1.3374803
1.3374803
1.3374803
1.3374803
1.3374803
1.3374803
1.3374803
1.3374803
1.3374803
1.3374803
1.3374803
1.3374803
1.3374803
1.3374803
1.3374803
1.3374803
1.3374803
1.3374803
1.3374803
1.3374803
1.3374803
1.3374803
1.3374803
1.3374803
1.3374803
1.3374803
1.3374803
1.3374803
1.3374803
1.3374803
1.3374803
1.3374803
1.3374803
1.3374803
1.3374803
1.3374803
1.3374803
1.3374803
1.3374803
1.3374803
1.3374803
1.3374803
1.3374803
1.3374803
1.3374803
1.3374803
1.3374803
1.3374803
1.3374803
1.3374803
1.3374803
1.3374803
1.3374803
1.3374803
1.3374803
1.3374803
1.3374803
1.3374803
1.3374803
1.3374803
1.3374803
1.3374803
1.3374803
1.3374803
1.3374803
1.3374803
1.3374803
1.3374803
1.3374803
1.3374803
1.3374803
1.3374803
1.3374803
1.3374803
1.3374803
1.3374803
1.3374803
1.3374803
1.3374803
1.3374803
1.3374803
1.3374803
1.3374803
1.3374803
1.3374803
1.3374803
1.3374803
1.3374803
1.3374803
1.3374803
1.3374803
1.3374803
1.3374803
1.3374803
1.3374803
1.3374804
1.3374804
1.3374804
1.3374804
1.3374804
1.3374804
1.3374804
1.3374804
1.3374804
1.3374804
1.3374804
1.3374804
1.3374804
1.3374804
1.3374804
1.3374804
1.3374804
1.3374804
1.3374804
1.3374804
1.3374804
1.3374804
1.3374804
1.3374804
1.3374804
1.3374804
1.3374804
1.3374804
1.3374804
1.3374804
1.3374804
1.3374804
1.3374804
1.3374804
1.3374804
1.3374804
1.3374804
1.3374804
1.3374804
1.3374804
1.3374804
1.3374804
1.3374804
1.3374804
1.3374804
1.3374804
1.3374804
1.3374804
1.3374804
1.3374804
1.3374804
1.3374804
1.3374804
1.3374804
1.3374804
1.3374804
1.3374804
1.3374805
1.3374805
1.3374805
1.3374805
1.3374805
1.3374805
1.3374805
1.3374805
1.3374805
1.3374805
1.3374805
1.3374805
1.3374805
1.3374805
1.3374805
1.3374804
1.3374804
1.3374804
1.3374804
1.3374804
1.3374804
1.3374804
1.3374804
1.3374804
1.3374804
1.3374804
1.3374804
1.3374803
1.3374803
1.3374803
1.3374801
1.3374799
1.3374793
1.3374778
1.3374747
1.3374696
1.3374623
1.3374522
1.3374386
1.3374209
1.3373984
1.3373708
1.3373377
1.337299
1.3372548
1.3372054
1.3371514
1.3370934
1.3370324
1.3369693
1.3369052
1.3368411
1.336778
1.3367169
1.3366585
1.3366035
1.3365524
1.3365054
1.3364629
1.3364248
1.3363911
1.3363616
1.336336
1.3363141
1.3362956
1.33628
1.336267
1.3362563
1.3362476
1.3362405
1.3362348
1.3362303
1.3362267
1.3362239
1.3362217
1.33622
1.3362187
1.3362177
1.3362169
1.3362164
1.336216
1.3362156
1.3362154
1.3362152
1.3362151
1.336215
1.3362149
1.3362149
1.3362148
1.3362148
1.3362148
1.3362148
1.3362148
1.3362148
1.3362147
1.3362147
1.3362147
1.3362147
1.3362147
1.3362147
1.3362147
1.3362147
1.3362147
1.3362147
1.3362147
1.3362147
1.3362147
1.3362147
1.3362147
1.3362147
1.3362147
1.3362147
1.3362147
1.3362147
1.3362147
1.3362147
1.3362147
1.3362147
1.3362147
1.3362147
1.3362147
1.3362147
1.3362147
1.3362147
1.3362147
1.3362147
1.3362147
1.3362147
1.3362147
1.3362147
1.3362147
1.3362147
1.3362147
1.3362147
1.3362146
1.3362146
1.3362146
1.3362146
1.3362146
1.3362146
1.3362146
1.3362146
1.3362146
1.3362146
1.3362146
1.3362146
1.3362146
1.3362146
1.3362146
1.3362146
1.3362146
1.3362146
1.3362146
1.3362146
1.3362146
1.3362146
1.3362146
1.3362146
1.3362146
1.3362146
1.3362146
1.3362146
1.3362146
1.3362146
1.3362146
1.3362146
1.3362146
1.3362146
1.3362146
1.3362146
1.3362146
1.3362146
1.3362146
1.3362146
1.3362146
1.3362146
1.3362145
1.3362145
1.3362145
1.3362145
1.3362145
1.3362145
1.3362145
1.3362145
1.3362145
1.3362145
1.3362145
1.3362145
1.3362145
1.3362145
1.3362145
1.3362145
1.3362145
1.3362145
1.3362145
1.3362145
1.3362145
1.3362145
1.3362145
1.3362145
1.3362145
1.3362145
1.3362145
1.3362145
1.3362145
1.3362145
1.3362145
1.3362145
1.3362145
1.3362145
1.3362145
1.3362145
1.3362145
1.3362145
1.3362145
1.3362145
1.3362145
1.3362144
1.3362144
1.3362144
1.3362144
1.3362144
1.3362144
1.3362144
1.3362144
1.3362144
1.3362144
1.3362144
1.3362144
1.3362144
1.3362144
1.3362144
1.3362144
1.3362144
1.3362144
1.3362144
1.3362144
1.3362144
1.3362144
1.3362144
1.3362144
1.3362144
1.3362144
1.3362144
1.3362144
1.3362144
1.3362144
1.3362144
1.3362144
1.3362144
1.3362144
1.3362144
1.3362144
1.3362144
1.3362144
1.3362144
1.3362143
1.3362143
1.3362143
1.3362143
1.3362143
1.3362143
1.3362143
1.3362143
1.3362143
1.3362143
1.3362143
1.3362143
1.3362143
1.3362143
1.3362143
1.3362143
1.3362143
1.3362143
1.3362143
1.3362143
1.3362143
1.3362143
1.3362143
1.3362143
1.3362143
1.3362143
1.3362143
1.3362143
1.3362143
1.3362143
1.3362143
1.3362143
1.3362143
1.3362143
1.3362143
1.3362143
1.3362143
1.3362143
1.3362142
1.3362142
1.3362142
1.3362142
1.3362142
1.3362142
1.3362142
1.3362142
1.3362142
1.3362142
1.3362142
1.3362142
1.3362142
1.3362142
1.3362142
1.3362142
1.3362142
1.3362142
1.3362142
1.3362142
1.3362142
1.3362142
1.3362142
1.3362142
1.3362142
1.3362142
1.3362142
1.3362142
1.3362142
1.3362142
1.3362142
1.3362142
1.3362142
1.3362142
1.3362142
1.3362142
1.3362142
1.3362142
1.3362141
1.3362141
1.3362141
1.3362141
1.3362141
1.3362141
1.3362141
1.3362141
1.3362141
1.3362141
1.3362141
1.3362141
1.3362141
1.3362141
1.3362141
1.3362141
1.3362141
1.3362141
1.3362141
1.3362141
1.3362141
1.3362141
1.3362141
1.3362141
1.3362141
1.3362141
1.3362141
1.3362141
1.3362141
1.3362141
1.3362141
1.3362141
1.3362141
1.3362141
1.3362141
1.336214
1.336214
1.336214
1.336214
1.336214
1.336214
1.336214
1.336214
1.336214
1.336214
1.336214
1.336214
1.336214
1.336214
1.336214
1.336214
1.336214
1.336214
1.336214
1.336214
1.336214
1.336214
1.336214
1.336214
1.336214
1.336214
1.336214
1.336214
1.336214
1.336214
1.336214
1.336214
1.336214
1.336214
1.336214
1.336214
1.3362139
1.3362139
1.3362139
1.3362139
1.3362139
1.3362139
1.3362139
1.3362139
1.3362139
1.3362139
1.3362139
1.3362139
1.3362139
1.3362139
1.3362139
1.3362139
1.3362139
1.3362139
1.3362139
1.3362139
1.3362139
1.3362139
1.3362139
1.3362139
1.3362139
1.3362139
1.3362139
1.3362139
1.3362139
1.3362139
1.3362139
1.3362139
1.3362139
1.3362139
1.3362139
1.3362139
1.3362138
1.3362138
1.3362138
1.3362138
1.3362138
1.3362138
1.3362138
1.3362138
1.3362138
1.3362138
1.3362138
1.3362138
1.3362138
1.3362138
1.3362138
1.3362138
1.3362138
1.3362138
1.3362138
1.3362138
1.3362138
1.3362138
1.3362138
1.3362138
1.3362138
1.3362138
1.3362138
1.3362138
1.3362137
1.3362137
1.3362137
1.3362137
1.3362137
1.3362137
1.3362137
1.3362137
1.3362137
1.3362137
1.3362137
1.3362137
1.3362137
1.3362137
1.3362137
1.3362137
1.3362137
1.3362137
1.3362137
1.3362137
1.3362137
1.3362137
1.3362137
1.3362137
1.3362137
1.3362137
1.3362137
1.3362137
1.3362137
1.3362137
1.3362136
1.3362136
1.3362136
1.3362136
1.3362136
1.3362136
1.3362136
1.3362136
1.3362136
1.3362136
1.3362136
1.3362136
1.3362136
1.3362136
1.3362136
1.3362136
1.3362136
1.3362136
1.3362136
1.3362136
1.3362136
1.3362136
1.3362136
1.3362136
1.3362136
1.3362136
1.3362136
1.3362136
1.3362136
1.3362136
1.3362136
1.3362135
1.3362135
1.3362135
1.3362135
1.3362135
1.3362135
1.3362135
1.3362135
1.3362135
1.3362135
1.3362135
1.3362135
1.3362135
1.3362135
1.3362135
1.3362135
1.3362135
1.3362135
1.3362135
1.3362135
1.3362135
1.3362135
1.3362135
1.3362135
1.3362135
1.3362135
1.3362135
1.3362135
1.3362134
1.3362134
1.3362134
1.3362134
1.3362134
1.3362134
1.3362134
1.3362134
1.3362134
1.3362134
1.3362134
1.3362134
1.3362134
1.3362134
1.3362134
1.3362134
1.3362134
1.3362134
1.3362134
1.3362134
1.3362134
1.3362134
1.3362134
1.3362134
1.3362134
1.3362134
1.3362134
1.3362134
1.3362134
1.3362134
1.3362133
1.3362133
1.3362133
1.3362133
1.3362133
1.3362133
1.3362133
1.3362133
1.3362133
1.3362133
1.3362133
1.3362133
1.3362133
1.3362133
1.3362133
1.3362133
1.3362133
1.3362133
1.3362133
1.3362133
1.3362133
1.3362133
1.3362133
1.3362133
1.3362133
1.3362133
1.3362133
1.3362133
1.3362132
1.3362132
1.3362132
1.3362132
1.3362132
1.3362132
1.3362132
1.3362132
1.3362132
1.3362132
1.3362132
1.3362132
1.3362132
1.3362132
1.3362132
1.3362132
1.3362132
1.3362132
1.3362132
1.3362132
1.3362132
1.3362132
1.3362132
1.3362132
1.3362132
1.3362132
1.3362132
1.3362131
1.3362131
1.3362131
1.3362131
1.3362131
1.3362131
1.3362131
1.3362131
1.3362131
1.3362131
1.3362131
1.3362131
1.3362131
1.3362131
1.3362131
1.3362131
1.3362131
1.3362131
1.3362131
1.3362131
1.3362131
1.3362131
1.3362131
1.3362131
1.3362131
1.3362131
1.3362131
1.3362131
1.336213
1.336213
1.336213
1.336213
1.336213
1.336213
1.336213
1.336213
1.336213
1.336213
1.336213
1.336213
1.336213
1.336213
1.336213
1.336213
1.336213
1.336213
1.336213
1.336213
1.336213
1.336213
1.336213
1.336213
1.336213
1.336213
1.336213
1.3362129
1.3362129
1.3362129
1.3362129
1.3362129
1.3362129
1.3362129
1.3362129
1.3362129
1.3362129
1.3362129
1.3362129
1.3362129
1.3362129
1.3362129
1.3362129
1.3362129
1.3362129
1.3362129
1.3362129
1.3362129
1.3362129
1.3362129
1.3362129
1.3362129
1.3362129
1.3362128
1.3362128
1.3362128
1.3362128
1.3362128
1.3362128
1.3362128
1.3362128
1.3362128
1.3362128
1.3362128
1.3362128
1.3362128
1.3362128
1.3362128
1.3362128
1.3362128
1.3362128
1.3362128
1.3362128
1.3362128
1.3362128
1.3362128
1.3362128
1.3362127
1.3362127
1.3362127
1.3362127
1.3362127
1.3362127
1.3362127
1.3362127
1.3362127
1.3362127
1.3362127
1.3362127
1.3362127
1.3362127
1.3362127
1.3362127
1.3362127
1.3362127
1.3362127
1.3362127
1.3362127
1.3362127
1.3362127
1.3362127
1.3362127
1.3362126
1.3362126
1.3362126
1.3362126
1.3362126
1.3362126
1.3362126
1.3362126
1.3362126
1.3362126
1.3362126
1.3362126
1.3362126
1.3362126
1.3362126
1.3362126
1.3362126
1.3362126
1.3362126
1.3362126
1.3362126
1.3362126
1.3362126
1.3362125
1.3362125
1.3362125
1.3362125
1.3362125
1.3362125
1.3362125
1.3362125
1.3362125
1.3362125
1.3362125
1.3362125
1.3362125
1.3362125
1.3362125
1.3362125
1.3362125
1.3362125
1.3362125
1.3362125
1.3362125
1.3362125
1.3362125
1.3362124
1.3362124
1.3362124
1.3362124
1.3362124
1.3362124
1.3362124
1.3362124
1.3362124
1.3362124
1.3362124
1.3362124
1.3362124
1.3362124
1.3362124
1.3362124
1.3362124
1.3362124
1.3362124
1.3362124
1.3362124
1.3362124
1.3362124
1.3362123
1.3362123
1.3362123
1.3362123
1.3362123
1.3362123
1.3362123
1.3362123
1.3362123
1.3362123
1.3362123
1.3362123
1.3362123
1.3362123
1.3362123
1.3362123
1.3362123
1.3362123
1.3362123
1.3362123
1.3362123
1.3362122
1.3362122
1.3362122
1.3362122
1.3362122
1.3362122
1.3362122
1.3362122
1.3362122
1.3362122
1.3362122
1.3362122
1.3362122
1.3362122
1.3362122
1.3362122
1.3362122
1.3362122
1.3362122
1.3362122
1.3362122
1.3362121
1.3362121
1.3362121
1.3362121
1.3362121
1.3362121
1.3362121
1.3362121
1.3362121
1.3362121
1.3362121
1.3362121
1.3362121
1.3362121
1.3362121
1.3362121
1.3362121
1.3362121
1.3362121
1.3362121
1.3362121
1.3362121
1.336212
1.336212
1.336212
1.336212
1.336212
1.336212
1.336212
1.336212
1.336212
1.336212
1.336212
1.336212
1.336212
1.336212
1.336212
1.336212
1.336212
1.336212
1.336212
1.336212
1.336212
1.3362119
1.3362119
1.3362119
1.3362119
1.3362119
1.3362119
1.3362119
1.3362119
1.3362119
1.3362119
1.3362119
1.3362119
1.3362119
1.3362119
1.3362119
1.3362119
1.3362119
1.3362119
1.3362119
1.3362119
1.3362118
1.3362118
1.3362118
1.3362118
1.3362118
1.3362118
1.3362118
1.3362118
1.3362118
1.3362118
1.3362118
1.3362118
1.3362118
1.3362118
1.3362118
1.3362118
1.3362118
1.3362118
1.3362118
1.3362118
1.3362117
1.3362117
1.3362117
1.3362117
1.3362117
1.3362117
1.3362117
1.3362117
1.3362117
1.3362117
1.3362117
1.3362117
1.3362117
1.3362117
1.3362117
1.3362117
1.3362117
1.3362117
1.3362116
1.3362116
1.3362116
1.3362116
1.3362116
1.3362116
1.3362116
1.3362116
1.3362116
1.3362116
1.3362116
1.3362116
1.3362116
1.3362116
1.3362116
1.3362116
1.3362116
1.3362115
1.3362115
1.3362115
1.3362115
1.3362115
1.3362115
1.3362115
1.3362115
1.3362115
1.3362115
1.3362115
1.3362115
1.3362115
1.3362115
1.3362115
1.3362115
1.3362115
1.3362114
1.3362114
1.3362114
1.3362114
1.3362114
1.3362114
1.3362114
1.3362114
1.3362114
1.3362114
1.3362114
1.3362114
1.3362114
1.3362113
1.3362113
1.3362113
1.3362113
1.3362113
1.3362113
1.3362113
1.3362113
1.3362113
1.3362113
1.3362113
1.3362112
1.3362112
1.3362112
1.3362112
1.3362112
1.3362112
1.3362112
1.3362112
1.3362112
1.3362111
1.3362111
1.3362111
1.3362111
1.3362111
1.3362111
1.3362111
1.3362111
1.336211
1.336211
1.336211
1.336211
1.336211
1.336211
1.336211
1.3362109
1.3362109
1.3362109
1.3362109
1.3362109
1.3362109
1.3362108
1.3362108
1.3362108
1.3362108
1.3362108
1.3362107
1.3362107
1.3362107
1.3362107
1.3362106
1.3362106
1.3362106
1.3362106
1.3362105
1.3362105
1.3362105
1.3362105
1.3362104
1.3362104
1.3362104
1.3362103
1.3362103
1.3362103
1.3362102
1.3362102
1.3362102
1.3362101
1.3362101
1.33621
1.33621
1.33621
1.3362099
1.3362099
1.3362098
1.3362098
1.3362097
1.3362097
1.3362096
1.3362096
1.3362095
1.3362095
1.3362094
1.3362093
1.3362093
1.3362092
1.3362091
1.3362091
1.336209
1.3362089
1.3362089
1.3362088
1.3362087
1.3362086
1.3362085
1.3362085
1.3362084
1.3362083
1.3362082
1.3362081
1.336208
1.3362079
1.3362078
1.3362077
1.3362076
1.3362074
1.3362073
1.3362072
1.3362071
1.3362069
1.3362068
1.3362067
1.3362065
1.3362064
1.3362062
1.3362061
1.3362059
1.3362058
1.3362056
1.3362054
1.3362052
1.336205
1.3362049
1.3362047
1.3362045
1.3362043
1.336204
1.3362038
1.3362036
1.3362034
1.3362031
1.3362029
1.3362026
1.3362024
1.3362021
1.3362018
1.3362016
1.3362013
1.336201
1.3362007
1.3362004
1.3362001
1.3361997
1.3361994
1.336199
1.3361987
1.3361983
1.3361979
1.3361975
1.3361972
1.3361967
1.3361963
1.3361959
1.3361955
1.336195
1.3361945
1.3361941
1.3361936
1.3361931
1.3361925
1.336192
1.3361915
1.3361909
1.3361903
1.3361898
1.3361891
1.3361885
1.3361879
1.3361872
1.3361866
1.3361859
1.3361852
1.3361845
1.3361838
1.336183
1.3361822
1.3361814
1.3361806
1.3361798
1.336179
1.3361781
1.3361772
1.3361763
1.3361753
1.3361744
1.3361734
1.3361724
1.3361714
1.3361703
1.3361692
1.3361681
1.336167
1.3361659
1.3361647
1.3361635
1.3361622
1.336161
1.3361597
1.3361583
1.336157
1.3361556
1.3361542
1.3361528
1.3361513
1.3361498
1.3361482
1.3361466
1.336145
1.3361434
1.3361417
1.33614
1.3361382
1.3361364
1.3361346
1.3361327
1.3361308
1.3361289
1.3361269
1.3361248
1.3361228
1.3361207
1.3361185
1.3361163
1.336114
1.3361117
1.3361094
1.336107
1.3361046
1.3361021
1.3360996
1.336097
1.3360943
1.3360916
1.3360889
1.3360861
1.3360833
1.3360804
1.3360774
1.3360744
1.3360713
1.3360682
1.336065
1.3360618
1.3360585
1.3360551
1.3360517
1.3360482
1.3360447
1.3360411
1.3360374
1.3360337
1.3360298
1.336026
1.336022
1.336018
1.3360139
1.3360098
1.3360056
1.3360013
1.3359969
1.3359925
1.335988
1.3359834
1.3359787
1.335974
1.3359692
1.3359643
1.3359593
1.3359543
1.3359492
1.335944
1.3359387
1.3359333
1.3359278
1.3359223
1.3359167
1.335911
1.3359052
1.3358993
1.3358933
1.3358873
1.3358811
1.3358749
1.3358686
1.3358621
1.3358556
1.335849
1.3358423
1.3358356
1.3358287
1.3358217
1.3358146
1.3358075
1.3358002
1.3357929
1.3357854
1.3357778
1.3357702
1.3357624
1.3357546
1.3357466
1.3357386
1.3357304
1.3357222
1.3357138
1.3357054
1.3356968
1.3356881
1.3356794
1.3356705
1.3356615
1.3356524
1.3356433
1.335634
1.3356246
1.3356151
1.3356055
1.3355958
1.3355859
1.335576
1.335566
1.3355558
1.3355456
1.3355352
1.3355248
1.3355142
1.3355035
1.3354928
1.3354819
1.3354709
1.3354598
1.3354486
1.3354372
1.3354258
1.3354143
1.3354027
1.3353909
1.3353791
1.3353671
1.3353551
1.3353429
1.3353306
1.3353183
1.3353058
1.3352932
1.3352805
1.3352677
1.3352549
1.3352419
1.3352288
1.3352156
1.3352023
1.3351889
1.3351754
1.3351618
1.3351481
1.3351343
1.3351205
1.3351065
1.3350924
1.3350783
1.335064
1.3350496
1.3350352
1.3350207
1.335006
1.3349913
1.3349765
1.3349616
1.3349467
1.3349316
1.3349165
1.3349013
1.3348859
1.3348706
1.3348551
1.3348396
1.3348239
1.3348082
1.3347925
1.3347766
1.3347607
1.3347447
1.3347287
1.3347125
1.3346963
1.3346801
1.3346638
1.3346474
1.3346309
1.3346144
1.3345979
1.3345812
1.3345646
1.3345478
1.3345311
1.3345142
1.3344973
1.3344804
1.3344634
1.3344464
1.3344294
1.3344123
1.3343951
1.3343779
1.3343607
1.3343435
1.3343262
1.3343089
1.3342915
1.3342742
1.3342568
1.3342394
1.3342219
1.3342045
1.334187
1.3341695
1.334152
1.3341345
1.3341169
1.3340994
1.3340818
1.3340643
1.3340467
1.3340292
1.3340116
1.333994
1.3339765
1.3339589
1.3339414
1.3339239
1.3339063
1.3338888
1.3338713
1.3338538
1.3338364
1.3338189
1.3338015
1.3337841
1.3337668
1.3337494
1.3337321
1.3337148
1.3336976
1.3336803
1.3336632
1.333646
1.3336289
1.3336119
1.3335948
1.3335779
1.333561
1.3335441
1.3335272
1.3335105
1.3334937
1.3334771
1.3334605
1.3334439
1.3334274
1.333411
1.3333946
1.3333783
1.3333621
1.3333459
1.3333298
1.3333138
1.3332978
1.3332819
1.3332661
1.3332504
1.3332347
1.3332192
1.3332037
1.3331882
1.3331729
1.3331577
1.3331425
1.3331274
1.3331124
1.3330975
1.3330827
1.333068
1.3330534
1.3330388
1.3330244
1.3330101
1.3329958
1.3329817
1.3329676
1.3329537
1.3329398
1.3329261
1.3329124
1.3328989
1.3328854
1.3328721
1.3328588
1.3328457
1.3328327
1.3328198
1.332807
1.3327943
1.3327817
1.3327692
1.3327568
1.3327445
1.3327324
1.3327203
1.3327084
1.3326966
1.3326849
1.3326733
1.3326618
1.3326505
1.3326392
1.3326281
1.332617
1.3326061
1.3325953
1.3325846
1.3325741
1.3325636
1.3325533
1.332543
1.3325329
1.3325229
1.332513
1.3325033
1.3324936
1.3324841
1.3324746
1.3324653
1.3324561
1.332447
1.332438
1.3324292
1.3324204
1.3324118
1.3324032
1.3323948
1.3323865
1.3323783
1.3323702
1.3323622
1.3323544
1.3323466
1.3323389
1.3323314
1.332324
1.3323166
1.3323094
1.3323023
1.3322952
1.3322883
1.3322815
1.3322748
1.3322682
1.3322617
1.3322553
1.332249
1.3322428
1.3322366
1.3322306
1.3322247
1.3322189
1.3322132
1.3322075
1.332202
1.3321966
1.3321912
1.3321859
1.3321808
1.3321757
1.3321707
1.3321658
1.332161
1.3321562
1.3321516
1.332147
1.3321425
1.3321381
1.3321338
1.3321296
1.3321254
1.3321213
1.3321173
1.3321134
1.3321096
1.3321058
1.3321021
1.3320985
1.3320949
1.3320914
1.332088
1.3320847
1.3320814
1.3320782
1.332075
1.3320719
1.3320689
1.332066
1.3320631
1.3320603
1.3320575
1.3320548
1.3320522
1.3320496
1.3320471
1.3320446
1.3320422
1.3320398
1.3320375
1.3320352
1.332033
1.3320309
1.3320288
1.3320267
1.3320247
1.3320228
1.3320209
1.332019
1.3320172
1.3320154
1.3320137
1.332012
1.3320104
1.3320088
1.3320072
1.3320057
1.3320042
1.3320027
1.3320013
1.332
1.3319986
1.3319973
1.3319961
1.3319948
1.3319936
1.3319925
1.3319913
1.3319902
1.3319892
1.3319881
1.3319871
1.3319861
1.3319852
1.3319842
1.3319833
1.3319824
1.3319816
1.3319808
1.3319799
1.3319792
1.3319784
1.3319777
1.331977
1.3319763
1.3319756
1.3319749
1.3319743
1.3319737
1.3319731
1.3319725
1.331972
1.3319714
1.3319709
1.3319704
1.3319699
1.3319694
1.331969
1.3319685
1.3319681
1.3319677
1.3319673
1.3319669
1.3319665
1.3319662
1.3319658
1.3319655
1.3319652
1.3319648
1.3319645
1.3319642
1.331964
1.3319637
1.3319634
1.3319632
1.3319629
1.3319627
1.3319625
1.3319622
1.331962
1.3319618
1.3319616
1.3319614
1.3319612
1.3319611
1.3319609
1.3319607
1.3319606
1.3319604
1.3319603
1.3319601
1.33196
1.3319599
1.3319597
1.3319596
1.3319595
1.3319594
1.3319593
1.3319592
1.3319591
1.331959
1.3319589
1.3319588
1.3319587
1.3319586
1.3319586
1.3319585
1.3319584
1.3319583
1.3319583
1.3319582
1.3319581
1.3319581
1.331958
1.331958
1.3319579
1.3319579
1.3319578
1.3319578
1.3319577
1.3319577
1.3319576
1.3319576
1.3319575
1.3319575
1.3319574
1.3319574
1.3319574
1.3319573
1.3319573
1.3319573
1.3319572
1.3319572
1.3319572
1.3319571
1.3319571
1.3319571
1.331957
1.331957
1.331957
1.3319569
1.3319569
1.3319569
1.3319568
1.3319568
1.3319568
1.3319568
1.3319567
1.3319567
1.3319567
1.3319566
1.3319566
1.3319566
1.3319566
1.3319565
1.3319565
1.3319565
1.3319565
1.3319564
1.3319564
1.3319564
1.3319563
1.3319563
1.3319563
1.3319562
1.3319562
1.3319562
1.3319562
1.3319561
1.3319561
1.3319561
1.331956
1.331956
1.331956
1.3319559
1.3319559
1.3319559
1.3319558
1.3319558
1.3319558
1.3319557
1.3319557
1.3319557
1.3319556
1.3319556
1.3319556
1.3319555
1.3319555
1.3319554
1.3319554
1.3319554
1.3319553
1.3319553
1.3319553
1.3319552
1.3319552
1.3319551
1.3319551
1.3319551
1.331955
1.331955
1.3319549
1.3319549
1.3319548
1.3319548
1.3319548
1.3319547
1.3319547
1.3319546
1.3319546
1.3319545
1.3319545
1.3319544
1.3319544
1.3319543
1.3319543
1.3319542
1.3319542
1.3319541
1.3319541
1.331954
1.331954
1.3319539
1.3319539
1.3319538
1.3319538
1.3319537
1.3319537
1.3319536
1.3319536
1.3319535
1.3319535
1.3319534
1.3319533
1.3319533
1.3319532
1.3319532
1.3319531
1.3319531
1.331953
1.3319529
1.3319529
1.3319528
1.3319528
1.3319527
1.3319526
1.3319526
1.3319525
1.3319525
1.3319524
1.3319523
1.3319523
1.3319522
1.3319521
1.3319521
1.331952
1.3319519
1.3319519
1.3319518
1.3319517
1.3319517
1.3319516
1.3319515
1.3319515
1.3319514
1.3319513
1.3319513
1.3319512
1.3319511
1.3319511
1.331951
1.3319509
1.3319508
1.3319508
1.3319507
1.3319506
1.3319505
1.3319505
1.3319504
1.3319503
1.3319502
1.3319502
1.3319501
1.33195
1.3319499
1.3319499
1.3319498
1.3319497
1.3319496
1.3319495
1.3319495
1.3319494
1.3319493
1.3319492
1.3319491
1.3319491
1.331949
1.3319489
1.3319488
1.3319487
1.3319487
1.3319486
1.3319485
1.3319484
1.3319483
1.3319482
1.3319481
1.3319481
1.331948
1.3319479
1.3319478
1.3319477
1.3319476
1.3319475
1.3319474
1.3319474
1.3319473
1.3319472
1.3319471
1.331947
1.3319469
1.3319468
1.3319467
1.3319466
1.3319465
1.3319464
1.3319463
1.3319462
1.3319462
1.3319461
1.331946
1.3319459
1.3319458
1.3319457
1.3319456
1.3319455
1.3319454
1.3319453
1.3319452
1.3319451
1.331945
1.3319449
1.3319448
1.3319447
1.3319446
1.3319445
1.3319444
1.3319443
1.3319442
1.3319441
1.331944
1.3319439
1.3319438
1.3319437
1.3319436
1.3319435
1.3319434
1.3319433
1.3319432
1.3319431
1.3319429
1.3319428
1.3319427
1.3319426
1.3319425
1.3319424
1.3319423
1.3319422
1.3319421
1.331942
1.3319419
1.3319418
1.3319417
1.3319415
1.3319414
1.3319413
1.3319412
1.3319411
1.331941
1.3319409
1.3319408
1.3319407
1.3319405
1.3319404
1.3319403
1.3319402
1.3319401
1.33194
1.3319399
1.3319398
1.3319396
1.3319395
1.3319394
1.3319393
1.3319392
1.3319391
1.3319389
1.3319388
1.3319387
1.3319386
1.3319385
1.3319384
1.3319382
1.3319381
1.331938
1.3319379
1.3319378
1.3319377
1.3319375
1.3319374
1.3319373
1.3319372
1.3319371
1.3319369
1.3319368
1.3319367
1.3319366
1.3319365
1.3319363
1.3319362
1.3319361
1.331936
1.3319359
1.3319357
1.3319356
1.3319355
1.3319354
1.3319353
1.3319351
1.331935
1.3319349
1.3319348
1.3319346
1.3319345
1.3319344
1.3319343
1.3319342
1.331934
1.3319339
1.3319338
1.3319337
1.3319335
1.3319334
1.3319333
1.3319332
1.331933
1.3319329
1.3319328
1.3319327
1.3319326
1.3319324
1.3319323
1.3319322
1.3319321
1.3319319
1.3319318
1.3319317
1.3319316
1.3319314
1.3319313
1.3319312
1.3319311
1.3319309
1.3319308
1.3319307
1.3319306
1.3319305
1.3319303
1.3319302
1.3319301
1.33193
1.3319298
1.3319297
1.3319296
1.3319295
1.3319293
1.3319292
1.3319291
1.331929
1.3319288
1.3319287
1.3319286
1.3319285
1.3319283
1.3319282
1.3319281
1.331928
1.3319279
1.3319277
1.3319276
1.3319275
1.3319274
1.3319272
1.3319271
1.331927
1.3319269
1.3319268
1.3319266
1.3319265
1.3319264
1.3319263
1.3319261
1.331926
1.3319259
1.3319258
1.3319257
1.3319255
1.3319254
1.3319253
1.3319252
1.3319251
1.3319249
1.3319248
1.3319247
1.3319246
1.3319245
1.3319244
1.3319242
1.3319241
1.331924
1.3319239
1.3319238
1.3319236
1.3319235
1.3319234
1.3319233
1.3319232
1.3319231
1.3319229
1.3319228
1.3319227
1.3319226
1.3319225
1.3319224
1.3319223
1.3319221
1.331922
1.3319219
1.3319218
1.3319217
1.3319216
1.3319215
1.3319213
1.3319212
1.3319211
1.331921
1.3319209
1.3319208
1.3319207
1.3319206
1.3319205
1.3319203
1.3319202
1.3319201
1.33192
1.3319199
1.3319198
1.3319197
1.3319196
1.3319195
1.3319194
1.3319193
1.3319192
1.331919
1.3319189
1.3319188
1.3319187
1.3319186
1.3319185
1.3319184
1.3319183
1.3319182
1.3319181
1.331918
1.3319179
1.3319178
1.3319177
1.3319176
1.3319175
1.3319174
1.3319173
1.3319172
1.3319171
1.331917
1.3319169
1.3319168
1.3319167
1.3319166
1.3319165
1.3319164
1.3319163
1.3319162
1.3319161
1.331916
1.3319159
1.3319158
1.3319157
1.3319156
1.3319155
1.3319154
1.3319153
1.3319152
1.3319151
1.331915
1.3319149
1.3319148
1.3319147
1.3319146
1.3319145
1.3319144
1.3319143
1.3319143
1.3319142
1.3319141
1.331914
1.3319139
1.3319138
1.3319137
1.3319136
1.3319135
1.3319134
1.3319133
1.3319132
1.3319132
1.3319131
1.331913
1.3319129
1.3319128
1.3319127
1.3319126
1.3319125
1.3319125
1.3319124
1.3319123
1.3319122
1.3319121
1.331912
1.3319119
1.3319118
1.3319118
1.3319117
1.3319116
1.3319115
1.3319114
1.3319113
1.3319112
1.3319112
1.3319111
1.331911
1.3319109
1.3319108
1.3319107
1.3319107
1.3319106
1.3319105
1.3319104
1.3319103
1.3319103
1.3319102
1.3319101
1.33191
1.3319099
1.3319098
1.3319098
1.3319097
1.3319096
1.3319095
1.3319094
1.3319094
1.3319093
1.3319092
1.3319091
1.331909
1.331909
1.3319089
1.3319088
1.3319087
1.3319086
1.3319086
1.3319085
1.3319084
1.3319083
1.3319082
1.3319082
1.3319081
1.331908
1.3319079
1.3319079
1.3319078
1.3319077
1.3319076
1.3319075
1.3319075
1.3319074
1.3319073
1.3319072
1.3319072
1.3319071
1.331907
1.3319069
1.3319068
1.3319068
1.3319067
1.3319066
1.3319065
1.3319064
1.3319064
1.3319063
1.3319062
1.3319061
1.3319061
1.331906
1.3319059
1.3319058
1.3319057
1.3319057
1.3319056
1.3319055
1.3319054
1.3319053
1.3319053
1.3319052
1.3319051
1.331905
1.331905
1.3319049
1.3319048
1.3319047
1.3319046
1.3319046
1.3319045
1.3319044
1.3319043
1.3319042
1.3319042
1.3319041
1.331904
1.3319039
1.3319038
1.3319038
1.3319037
1.3319036
1.3319035
1.3319034
1.3319033
1.3319033
1.3319032
1.3319031
1.331903
1.3319029
1.3319029
1.3319028
1.3319027
1.3319026
1.3319025
1.3319024
1.3319024
1.3319023
1.3319022
1.3319021
1.331902
1.3319019
1.3319018
1.3319018
1.3319017
1.3319016
1.3319015
1.3319014
1.3319013
1.3319012
1.3319011
1.3319011
1.331901
1.3319009
1.3319008
1.3319007
1.3319006
1.3319005
1.3319004
1.3319003
1.3319003
1.3319002
1.3319001
1.3319
1.3318999
1.3318998
1.3318997
1.3318996
1.3318995
1.3318994
1.3318993
1.3318992
1.3318991
1.331899
1.331899
1.3318989
1.3318988
1.3318987
1.3318986
1.3318985
1.3318984
1.3318983
1.3318982
1.3318981
1.331898
1.3318979
1.3318977
1.3318976
1.3318975
1.3318974
1.3318973
1.3318972
1.3318971
1.331897
1.3318969
1.3318968
1.3318967
1.3318966
1.3318965
1.3318964
1.3318963
1.3318962
1.3318961
1.3318959
1.3318958
1.3318957
1.3318956
1.3318955
1.3318954
1.3318953
1.3318951
1.331895
1.3318949
1.3318948
1.3318947
1.3318945
1.3318944
1.3318943
1.3318942
1.3318941
1.3318939
1.3318938
1.3318937
1.3318936
1.3318934
1.3318933
1.3318932
1.331893
1.3318929
1.3318928
1.3318926
1.3318925
1.3318924
1.3318922
1.3318921
1.331892
1.3318918
1.3318917
1.3318915
1.3318914
1.3318913
1.3318911
1.331891
1.3318908
1.3318907
1.3318905
1.3318904
1.3318903
1.3318901
1.33189
1.3318898
1.3318897
1.3318895
1.3318894
1.3318892
1.3318891
1.3318889
1.3318887
1.3318886
1.3318884
1.3318882
1.3318881
1.3318879
1.3318877
1.3318876
1.3318874
1.3318872
1.3318871
1.3318869
1.3318867
1.3318865
1.3318863
1.3318862
1.331886
1.3318858
1.3318856
1.3318854
1.3318852
1.331885
1.3318849
1.3318847
1.3318845
1.3318843
1.3318841
1.3318839
1.3318837
1.3318835
1.3318832
1.331883
1.3318828
1.3318826
1.3318824
1.3318822
1.331882
1.3318818
1.3318815
1.3318813
1.3318811
1.3318809
1.3318806
1.3318804
1.3318801
1.3318799
1.3318797
1.3318794
1.3318792
1.3318789
1.3318786
1.3318784
1.3318781
1.3318779
1.3318776
1.3318773
1.3318771
1.3318768
1.3318765
1.3318762
1.331876
1.3318757
1.3318754
1.3318751
1.3318748
1.3318745
1.3318742
1.3318739
1.3318736
1.3318733
1.331873
1.3318727
1.3318723
1.331872
1.3318717
1.3318713
1.331871
1.3318706
1.3318703
1.3318699
1.3318696
1.3318692
1.3318688
1.3318684
1.331868
1.3318677
1.3318673
1.3318669
1.3318665
1.331866
1.3318656
1.3318652
1.3318648
1.3318643
1.3318639
1.3318635
1.331863
1.3318625
1.3318621
1.3318616
1.3318611
1.3318606
1.3318601
1.3318597
1.3318592
1.3318586
1.3318581
1.3318576
1.3318571
1.3318566
1.331856
1.3318555
1.331855
1.3318545
1.3318539
1.3318534
1.3318529
1.3318523
1.3318518
1.3318513
1.3318508
1.3318503
1.3318498
1.3318494
1.3318489
1.3318485
1.3318481
1.3318477
1.3318474
1.3318471
1.3318468
1.3318465
1.3318463
1.3318461
1.3318459
1.3318458
1.3318457
1.3318456
1.3318455
1.3318455
1.3318454
1.3318454
1.3318454
1.3318454
1.3318455
1.3318455
1.3318455
1.3318455
1.3318455
1.3318455
1.3318454
1.3318454
1.3318451
1.3318449
1.3318446
1.3318442
1.3318437
1.3318431
1.3318425
1.3318418
1.331841
1.3318402
1.3318393
1.3318383
1.3318373
1.3318363
1.3318352
1.3318342
1.3318331
1.3318319
1.3318308
1.3318297
1.3318287
1.3318279
1.3318272
1.3318266
1.331826
1.3318252
1.3318244
1.3318237
1.3318231
1.3318225
1.3318219
1.3318208
1.3318186
1.3318139
1.3318035
1.3317798
1.3317239
1.3315905
1.3312717
1.3305792
1.3295896
1.3283153
1.3267458
1.3248812
1.322731
1.3203144
1.3176589
1.3147993
1.3117757
1.3086319
1.3054134
1.3021658
1.2989331
1.2957561
1.2926714
1.2897107
1.2868999
1.2842595
1.2818039
1.2795424
1.2774789
1.2756131
1.2739408
1.2724546
1.2711448
1.2699996
1.2690063
1.2681513
1.2674209
1.2668016
1.2662803
1.2658448
1.2654836
1.2651861
1.2649428
1.2647453
1.264586
1.2644584
1.2643571
1.2642773
1.2642149
1.2641666
1.2641296
1.2641014
1.2640802
1.2640644
1.2640527
1.2640444
1.2640385
1.2640346
1.2640323
1.264031
1.2640305
1.2640304
1.2640306
1.2640313
1.2640327
1.2640343
1.2640359
1.2640376
1.2640392
1.2640409
1.2640426
1.2640443
1.2640461
1.2640479
1.2640497
1.2640516
1.2640535
1.2640554
1.2640574
1.2640593
1.2640613
1.2640632
1.2640652
1.2640671