/*--------------------------------*- C++ -*----------------------------------*\
| =========                 |                                                 |
| \\      /  F ield         | OpenFOAM: The Open Source CFD Toolbox           |
|  \\    /   O peration     | Version:  4.x                                   |
|   \\  /    A nd           | Web:      www.OpenFOAM.org                      |
|    \\/     M anipulation  |                                                 |
\*---------------------------------------------------------------------------*/
FoamFile
{
    version     2.0;
    format      ascii;
    class       surfaceScalarField;
    location    "0.04";
    object      phi;
}
// * * * * * * * * * * * * * * * * * * * * * * * * * * * * * * * * * * * * * //

dimensions      [1 0 -1 0 0 0 0];

internalField   nonuniform List<scalar> 
17861
(
1.566572176e-08
1.566587864e-08
1.422849975e-07
1.177928665e-08
1.737795533e-08
1.601244609e-07
8.047625431e-09
1.738165632e-08
1.599660486e-07
5.976060937e-09
1.742103475e-08
1.582665556e-07
4.596526071e-09
1.741162004e-08
1.575838238e-07
1.742052112e-08
1.57156974e-07
3.634871823e-09
1.737779243e-08
1.177957938e-08
1.601244653e-07
1.321123322e-08
1.321150891e-08
1.819491112e-07
9.030416889e-09
1.324576981e-08
1.819325234e-07
6.754994032e-09
1.324830183e-08
1.800640839e-07
5.227299737e-09
1.324557344e-08
1.793095863e-07
1.325378397e-08
1.788466854e-07
4.162952899e-09
1.738152444e-08
8.048031775e-09
1.59966094e-07
1.324552984e-08
9.030751479e-09
1.819327197e-07
9.084219813e-09
9.084522654e-09
1.819387004e-07
6.808499364e-09
9.0878908e-09
1.800520521e-07
5.278516908e-09
9.095999712e-09
1.792951382e-07
9.109486505e-09
1.788294724e-07
4.209143079e-09
1.742086578e-08
5.976556706e-09
1.5826676e-07
1.324801425e-08
6.755523353e-09
1.800643356e-07
9.087523429e-09
6.808973568e-09
1.800520826e-07
6.81409607e-09
6.81465902e-09
1.78162594e-07
5.289704424e-09
6.829356164e-09
1.774068614e-07
6.847343142e-09
1.769441896e-07
4.223441729e-09
1.74114305e-08
4.597208127e-09
1.57584036e-07
1.324534801e-08
5.227813098e-09
1.793100635e-07
9.095724095e-09
5.27897929e-09
1.792954053e-07
6.82905126e-09
5.290313313e-09
1.77406952e-07
5.309882067e-09
5.310466611e-09
1.766538979e-07
5.3327187e-09
1.761943139e-07
4.246035371e-09
1.74204594e-08
1.571573722e-07
3.6354523e-09
1.325353141e-08
1.788470767e-07
4.163578138e-09
9.108977014e-09
1.788297912e-07
4.209727922e-09
6.846699691e-09
1.769444229e-07
4.224009319e-09
5.331619239e-09
1.761948134e-07
4.246470819e-09
1.757392288e-07
4.270755866e-09
4.270124002e-09
8.21058274e-09
8.210573155e-09
1.258685991e-07
8.113856511e-09
9.495431863e-09
1.507307679e-07
7.280811598e-09
9.524335456e-09
1.512796921e-07
6.310870434e-09
9.541724097e-09
1.496994984e-07
5.424314609e-09
9.538281971e-09
1.489368986e-07
9.552423215e-09
1.484324438e-07
4.601110525e-09
9.495507752e-09
8.113809229e-09
1.507307515e-07
9.411497526e-09
9.411326227e-09
1.821219876e-07
8.432917133e-09
9.465494228e-09
1.829750133e-07
7.328202639e-09
9.480553645e-09
1.81234666e-07
6.307645868e-09
9.491751021e-09
1.803811949e-07
9.513422679e-09
1.798295242e-07
5.368637025e-09
9.524417518e-09
7.280776279e-09
1.512797653e-07
9.465690527e-09
8.432723671e-09
1.829752282e-07
8.506323639e-09
8.506062492e-09
1.838617782e-07
7.403743033e-09
8.528918748e-09
1.821113469e-07
6.383465914e-09
8.553675072e-09
1.812584009e-07
8.584210687e-09
1.807072838e-07
5.439504473e-09
9.541864555e-09
6.310905267e-09
1.496996661e-07
9.480745496e-09
7.328078194e-09
1.812348925e-07
8.52908968e-09
7.40351341e-09
1.82111406e-07
7.430675342e-09
7.4305403e-09
1.80364152e-07
6.415605245e-09
7.464104301e-09
1.795162355e-07
7.502565716e-09
1.789724072e-07
5.473940569e-09
9.538411047e-09
5.424399241e-09
1.489371282e-07
9.492014632e-09
6.307450231e-09
1.803816728e-07
8.554012154e-09
6.383183001e-09
1.812586982e-07
7.464575004e-09
6.415451015e-09
1.795162044e-07
6.456230664e-09
6.455880552e-09
1.786753383e-07
6.500542396e-09
1.78139765e-07
5.517759869e-09
9.552611323e-09
1.484327446e-07
4.601275558e-09
9.513595211e-09
1.798297495e-07
5.368704635e-09
8.584198429e-09
1.807075142e-07
5.439483016e-09
7.502552451e-09
1.78972357e-07
5.474009892e-09
6.500404628e-09
1.781402845e-07
5.517391843e-09
1.776152259e-07
5.564757505e-09
5.564961971e-09
4.612852791e-09
4.612725813e-09
1.166474449e-07
5.516464101e-09
5.321571049e-09
1.445107716e-07
5.726216192e-09
5.329261924e-09
1.457453196e-07
5.445513245e-09
5.318544107e-09
1.446664079e-07
5.012691542e-09
5.312885863e-09
1.440617952e-07
5.323764003e-09
1.436595743e-07
4.466609133e-09
5.321799457e-09
5.516191834e-09
1.445106874e-07
6.426765567e-09
6.426252638e-09
1.799170048e-07
6.695991336e-09
6.465352633e-09
1.815748556e-07
6.402741488e-09
6.467120266e-09
1.803842249e-07
5.911551105e-09
6.48118713e-09
1.79709031e-07
6.507124172e-09
1.792753503e-07
5.287430115e-09
5.329483053e-09
5.725837886e-09
1.457453121e-07
6.465841989e-09
6.695313556e-09
1.815749646e-07
6.760910632e-09
6.760224179e-09
1.832768184e-07
6.479100668e-09
6.779322373e-09
1.820859892e-07
5.994371158e-09
6.811477997e-09
1.814179917e-07
6.852515451e-09
1.809919911e-07
5.369513606e-09
5.318826822e-09
5.445135512e-09
1.446663378e-07
6.467677655e-09
6.401972903e-09
1.803842513e-07
6.780056252e-09
6.478263504e-09
1.820860199e-07
6.510619605e-09
6.509886556e-09
1.809078509e-07
6.035326903e-09
6.555550715e-09
1.802527625e-07
6.609229778e-09
1.798414352e-07
5.415024182e-09
5.313187903e-09
5.012354028e-09
1.440617404e-07
6.481728993e-09
5.91088846e-09
1.797091481e-07
6.812226655e-09
5.993542025e-09
1.814180139e-07
6.556412273e-09
6.03455987e-09
1.802523837e-07
6.090647121e-09
6.089692968e-09
1.796122643e-07
6.152169468e-09
1.792177127e-07
5.474871631e-09
5.323983877e-09
1.436594256e-07
4.466537621e-09
6.507611999e-09
1.79275117e-07
5.286827162e-09
6.85318036e-09
1.809918096e-07
5.368649584e-09
6.609780274e-09
1.798409691e-07
5.414249019e-09
6.152908801e-09
1.792181083e-07
5.473816502e-09
1.788441032e-07
5.540258121e-09
5.5410786e-09
2.540901852e-09
2.54096886e-09
1.11570511e-07
3.636910088e-09
3.005308846e-09
1.404144017e-07
4.345029816e-09
3.01952081e-09
1.420227311e-07
4.520775699e-09
3.022644202e-09
1.414730451e-07
4.443590442e-09
3.027100635e-09
1.411167845e-07
3.043049255e-09
1.409098758e-07
4.15525972e-09
3.00533143e-09
3.636988262e-09
1.404142745e-07
4.329196778e-09
4.329097987e-09
1.772742452e-07
5.165490563e-09
4.372044434e-09
1.793908532e-07
5.395317564e-09
4.389482107e-09
1.787924237e-07
5.312922422e-09
4.416951695e-09
1.784067338e-07
4.455057407e-09
1.782001651e-07
4.981409455e-09
3.019469268e-09
4.345191283e-09
1.420226763e-07
4.372025704e-09
5.165435571e-09
1.793908717e-07
5.23497212e-09
5.235043169e-09
1.815558731e-07
5.478953758e-09
5.269527825e-09
1.809671841e-07
5.405410823e-09
5.318360905e-09
1.805954431e-07
5.377163283e-09
1.804051053e-07
5.075582551e-09
3.022741075e-09
4.520927947e-09
1.414729033e-07
4.389661985e-09
5.395236276e-09
1.78792394e-07
5.269640289e-09
5.47906525e-09
1.809671668e-07
5.527706864e-09
5.527714706e-09
1.803966759e-07
5.46491417e-09
5.593337854e-09
1.800457566e-07
5.670073393e-09
1.798787025e-07
5.139874633e-09
3.027134981e-09
4.443976741e-09
1.411165304e-07
4.41695435e-09
5.31313939e-09
1.784064281e-07
5.318252116e-09
5.405586134e-09
1.805952099e-07
5.593086118e-09
5.464877259e-09
1.800453967e-07
5.542114041e-09
5.542130902e-09
1.797195495e-07
5.631592497e-09
1.795802729e-07
5.223034068e-09
3.043116047e-09
1.409095595e-07
4.155748571e-09
4.455215381e-09
1.781996715e-07
4.981502317e-09
5.377307207e-09
1.804047889e-07
5.075613017e-09
5.669723138e-09
1.798784426e-07
5.140128631e-09
5.631198401e-09
1.795803612e-07
5.223577099e-09
1.794741037e-07
5.319386889e-09
5.318550344e-09
1.649009124e-09
1.64933826e-09
1.082769271e-07
2.769113769e-09
1.969385243e-09
1.373298782e-07
3.586071768e-09
1.989028158e-09
1.392215535e-07
3.995014283e-09
2.000925414e-09
1.390679445e-07
4.123247494e-09
2.017869153e-09
1.389756908e-07
2.044146011e-09
1.389892912e-07
4.00480816e-09
1.96909267e-09
2.769710344e-09
1.37329767e-07
3.330122954e-09
3.330683324e-09
1.745567454e-07
4.317263843e-09
3.382243451e-09
1.770155378e-07
4.820572332e-09
3.41577345e-09
1.768793046e-07
4.979498812e-09
3.461247436e-09
1.768096412e-07
3.51784894e-09
1.768675283e-07
4.843806604e-09
1.988561525e-09
3.587004688e-09
1.392216326e-07
3.381466024e-09
4.318176784e-09
1.770155446e-07
4.396823049e-09
4.397903954e-09
1.795297946e-07
4.918193411e-09
4.452541803e-09
1.794141896e-07
5.08905049e-09
4.524765891e-09
1.793662567e-07
4.609600873e-09
1.79450754e-07
4.956817708e-09
2.000632075e-09
3.996189598e-09
1.390679321e-07
3.415224375e-09
4.821518879e-09
1.768795284e-07
4.451726557e-09
4.919403401e-09
1.794143375e-07
4.990913398e-09
4.992108909e-09
1.793228495e-07
5.175417898e-09
5.086015121e-09
1.79304992e-07
5.196225261e-09
1.794231954e-07
5.049432802e-09
2.017612962e-09
4.124494159e-09
1.389756459e-07
3.460490542e-09
4.980971768e-09
1.768092206e-07
4.523545152e-09
5.090436424e-09
1.793662346e-07
5.084564972e-09
5.176593359e-09
1.793048351e-07
5.285313661e-09
5.286647665e-09
1.793232318e-07
5.41741339e-09
1.794802523e-07
5.169369831e-09
2.043807954e-09
1.389891201e-07
4.006056234e-09
3.517449002e-09
1.768673437e-07
4.844827378e-09
4.60891628e-09
1.794507947e-07
4.958093565e-09
5.194803471e-09
1.794229808e-07
5.05126197e-09
5.415290469e-09
1.79480168e-07
5.17143385e-09
1.796783627e-07
5.317942239e-09
5.315702781e-09
1.215202897e-09
1.215525761e-09
1.058510347e-07
2.342237899e-09
1.472445159e-09
1.347354011e-07
3.259357663e-09
1.505261814e-09
1.368039774e-07
3.852170269e-09
1.534190679e-09
1.369459958e-07
4.15545528e-09
1.571083056e-09
1.371064077e-07
1.615653756e-09
1.373565612e-07
4.177601996e-09
1.472376061e-09
2.342440069e-09
1.347354859e-07
2.856796416e-09
2.857070303e-09
1.717924365e-07
3.978291214e-09
2.929633241e-09
1.744748537e-07
4.70774478e-09
2.992017375e-09
1.746971204e-07
5.08467712e-09
3.071979017e-09
1.749369564e-07
3.164931039e-09
1.752893638e-07
5.118775904e-09
1.504680551e-09
3.260199131e-09
1.368040561e-07
2.928558744e-09
3.978905097e-09
1.744749976e-07
4.083521844e-09
4.084394213e-09
1.772251318e-07
4.840087362e-09
4.178706211e-09
1.774760471e-07
5.23381237e-09
4.297201501e-09
1.777523857e-07
4.432836992e-09
1.781471215e-07
5.274741078e-09
1.533979822e-09
3.853055804e-09
1.369461965e-07
2.991454671e-09
4.708728416e-09
1.74697125e-07
4.178116109e-09
4.84105309e-09
1.774760621e-07
4.960167527e-09
4.9610895e-09
1.777633923e-07
5.371938732e-09
5.110776304e-09
1.780846782e-07
5.281071768e-09
1.785316151e-07
5.420528392e-09
1.570847193e-09
4.156473176e-09
1.371063542e-07
3.071030619e-09
5.085787111e-09
1.7493688e-07
4.296341269e-09
5.234622911e-09
1.777523754e-07
5.109760448e-09
5.37290514e-09
1.780846124e-07
5.542489974e-09
5.543237871e-09
1.784631631e-07
5.734413927e-09
1.789760605e-07
5.598551849e-09
1.615236745e-09
1.373561024e-07
4.179151474e-09
3.164253993e-09
1.752892063e-07
5.119941186e-09
4.43246089e-09
1.781466452e-07
5.275669387e-09
5.280177935e-09
1.785313058e-07
5.421997028e-09
5.733073855e-09
1.78976024e-07
5.599621025e-09
1.795678747e-07
5.792132992e-09
5.79101938e-09
1.132542925e-09
1.132794991e-09
1.035904922e-07
2.32715275e-09
1.39108073e-09
1.321546215e-07
3.341211584e-09
1.431999144e-09
1.343629977e-07
4.074737808e-09
1.476410011e-09
1.347410696e-07
4.509362635e-09
1.532038119e-09
1.351448111e-07
1.598017438e-09
1.356425258e-07
4.630496652e-09
1.391140744e-09
2.327006853e-09
1.321550516e-07
2.880078802e-09
2.88024371e-09
1.688195329e-07
4.131869155e-09
2.974623954e-09
1.71685656e-07
5.043377676e-09
3.071140569e-09
1.721960518e-07
5.584123334e-09
3.192920535e-09
1.727406199e-07
3.334186432e-09
1.734046187e-07
5.737982711e-09
1.431550169e-09
3.341826762e-09
1.343627485e-07
2.973919935e-09
4.1323056e-09
1.716856687e-07
4.275558841e-09
4.276244972e-09
1.746269411e-07
5.224689031e-09
4.420482776e-09
1.751827719e-07
5.790861143e-09
4.601988985e-09
1.757822986e-07
4.81062231e-09
1.765109795e-07
5.95592743e-09
1.476281767e-09
4.075503619e-09
1.347411237e-07
3.070601667e-09
5.044086563e-09
1.721959838e-07
4.420045311e-09
5.225371231e-09
1.751826965e-07
5.408267732e-09
5.408960438e-09
1.757918593e-07
6.002353412e-09
5.639208414e-09
1.764585137e-07
5.903659316e-09
1.772657555e-07
6.180414143e-09
1.531849549e-09
4.510330049e-09
1.351445005e-07
3.192246617e-09
5.58523582e-09
1.727403999e-07
4.601333885e-09
5.791478217e-09
1.757823669e-07
5.638322125e-09
6.003085612e-09
1.764586243e-07
6.267123843e-09
6.267636049e-09
1.772111513e-07
6.572407536e-09
1.781170591e-07
6.462524308e-09
1.597640977e-09
1.356428736e-07
4.630846875e-09
3.333847563e-09
1.734049874e-07
5.738446193e-09
4.810346859e-09
1.765107788e-07
5.956080887e-09
5.903125966e-09
1.772656295e-07
6.181233195e-09
6.571540924e-09
1.781174555e-07
6.462990071e-09
1.791394578e-07
6.78939838e-09
6.788130549e-09
1.207231964e-09
1.206963886e-09
1.011811643e-07
2.565275532e-09
1.507188584e-09
1.292945393e-07
3.74307937e-09
1.565947786e-09
1.316243323e-07
4.642796971e-09
1.63272238e-09
1.322136839e-07
5.212866515e-09
1.716701967e-09
1.328631531e-07
1.815744301e-09
1.33625275e-07
1.506788552e-09
2.566146009e-09
1.292942521e-07
3.209617449e-09
3.210065155e-09
1.654189911e-07
4.682287954e-09
3.343807093e-09
1.684403286e-07
5.808196545e-09
3.489339211e-09
1.692187105e-07
6.521030393e-09
3.673193422e-09
1.700766532e-07
3.886718256e-09
1.710795789e-07
1.56604383e-09
3.743393366e-09
1.316244823e-07
3.343654011e-09
4.682737748e-09
1.684404698e-07
4.883635136e-09
4.884271104e-09
1.715516137e-07
6.063502931e-09
5.101564908e-09
1.723960166e-07
6.813908635e-09
5.37599522e-09
1.733344138e-07
5.693051253e-09
1.74431948e-07
1.632457091e-09
4.643491466e-09
1.322134305e-07
3.488857413e-09
5.808754511e-09
1.692186343e-07
5.101103239e-09
6.063943959e-09
1.723960405e-07
6.340596655e-09
6.341100103e-09
1.733180294e-07
7.133851379e-09
6.691001162e-09
1.743554352e-07
7.094814344e-09
1.755689522e-07
1.716588502e-09
5.213541139e-09
1.328628168e-07
3.672714301e-09
6.52189714e-09
1.700762722e-07
5.375439933e-09
6.814477632e-09
1.733342874e-07
6.690081163e-09
7.134992818e-09
1.743553184e-07
7.538835981e-09
7.538892095e-09
1.755197212e-07
8.006357822e-09
1.768814505e-07
1.815585431e-09
1.336263549e-07
5.41948126e-09
3.886539295e-09
1.71080056e-07
6.781061454e-09
5.69290236e-09
1.744321337e-07
7.091947697e-09
7.094372028e-09
1.755694462e-07
7.435005574e-09
8.005972511e-09
1.768819506e-07
7.868009053e-09
1.784178141e-07
8.370656587e-09
8.368455563e-09
1.400457512e-09
1.400242434e-09
9.83853411e-08
3.01760702e-09
1.766709953e-09
1.25915968e-07
4.441989671e-09
1.851087484e-09
1.283537939e-07
5.559513595e-09
1.949188914e-09
1.291521184e-07
6.292813151e-09
2.075122928e-09
1.300598923e-07
2.223079172e-09
1.31111415e-07
1.766354277e-09
3.01776916e-09
1.25915599e-07
3.811681795e-09
3.811521951e-09
1.613338493e-07
5.6093455e-09
4.002470951e-09
1.644965474e-07
7.015999953e-09
4.218844549e-09
1.655476111e-07
7.938794927e-09
4.493794453e-09
1.667405658e-07
4.814075768e-09
1.681206091e-07
1.850908095e-09
4.442268806e-09
1.283539503e-07
4.002070689e-09
5.609532426e-09
1.644966367e-07
5.894239726e-09
5.894947012e-09
1.677722267e-07
7.379795504e-09
6.219032906e-09
1.689154933e-07
8.358412375e-09
6.630578401e-09
1.702242279e-07
7.108571529e-09
1.717398691e-07
1.94884906e-09
5.560032153e-09
1.291519095e-07
4.218297502e-09
7.016383768e-09
1.655475845e-07
6.218662011e-09
7.380260819e-09
1.689155492e-07
7.794707477e-09
7.795205659e-09
1.701709971e-07
8.83945156e-09
8.322180016e-09
1.716244077e-07
8.933612134e-09
1.73310257e-07
2.075024116e-09
6.292982299e-09
1.300598762e-07
4.493269804e-09
7.939250664e-09
1.667403491e-07
6.630217311e-09
8.358691986e-09
1.702240639e-07
8.321357517e-09
8.840490611e-09
1.716241014e-07
9.452123211e-09
9.451856768e-09
1.732645706e-07
1.016261695e-08
1.751705749e-07
2.222826361e-09
1.311120961e-07
6.589460275e-09
4.813746761e-09
1.681205486e-07
8.313066379e-09
7.108360505e-09
1.717400026e-07
8.761414463e-09
8.933022874e-09
1.733105525e-07
9.279976748e-09
1.016219985e-08
1.751709393e-07
9.938893955e-09
1.773361054e-07
1.070697071e-08
1.070482378e-08
1.693088318e-09
1.693228127e-09
9.500407019e-08
3.673450806e-09
2.15492083e-09
1.217857058e-07
5.439655352e-09
2.27322086e-09
1.243195112e-07
6.842289931e-09
2.418143866e-09
1.253363768e-07
7.783026401e-09
2.604348003e-09
1.265199123e-07
2.82344905e-09
1.278891688e-07
2.155172073e-09
3.673061695e-09
1.217856251e-07
4.681979346e-09
4.681560718e-09
1.562856894e-07
6.921315943e-09
4.9506071e-09
1.595850577e-07
8.699109483e-09
5.268940362e-09
1.609239883e-07
9.890690728e-09
5.676330135e-09
1.624821273e-07
6.15271464e-09
1.642832353e-07
2.272751492e-09
5.440075979e-09
1.243193572e-07
4.949911248e-09
6.921321403e-09
1.595850664e-07
7.326394969e-09
7.327117811e-09
1.630243536e-07
9.218767188e-09
7.805989703e-09
1.644911915e-07
1.049373861e-08
8.418185665e-09
1.662126892e-07
9.132282939e-09
1.682058019e-07
2.418034358e-09
6.842846845e-09
1.25336247e-07
5.26857183e-09
8.699507019e-09
1.609240345e-07
7.805740988e-09
9.21954825e-09
1.644911831e-07
9.834788064e-09
9.835624486e-09
1.661175478e-07
1.121187447e-08
1.062349473e-08
1.680473455e-07
1.154303973e-08
1.702855122e-07
2.604347542e-09
7.783309116e-09
1.265201734e-07
5.675782178e-09
9.891254133e-09
1.624823723e-07
8.417787299e-09
1.049381703e-08
1.662130288e-07
1.062265444e-08
1.121255156e-08
1.680474908e-07
1.213251197e-08
1.213210188e-08
1.702514619e-07
1.320656411e-08
1.728128076e-07
2.823179346e-09
1.278889384e-07
8.188422701e-09
6.152222469e-09
1.642827134e-07
1.040526719e-08
9.132122628e-09
1.68205528e-07
1.105360624e-08
1.154223376e-08
1.702854623e-07
1.183275309e-08
1.320623229e-08
1.728130017e-07
1.283134308e-08
1.75751445e-07
1.400251201e-08
1.40004171e-08
2.083763916e-09
2.084027555e-09
9.08411668e-08
4.544248515e-09
2.670529047e-09
1.166598438e-07
6.75022691e-09
2.837027318e-09
1.192816207e-07
8.52032791e-09
3.04685494e-09
1.205243776e-07
9.725572186e-09
3.318630835e-09
1.220010256e-07
3.63909222e-09
1.237123867e-07
2.670535431e-09
4.544438424e-09
1.166598272e-07
5.828761965e-09
5.82850467e-09
1.499748802e-07
8.645116223e-09
6.207447758e-09
1.534034937e-07
1.090436728e-08
6.669873071e-09
1.550467715e-07
1.244195627e-08
7.267177505e-09
1.570011193e-07
7.96759362e-09
1.592643516e-07
2.83641676e-09
6.750802714e-09
1.192817973e-07
6.206246217e-09
8.645248701e-09
1.534037668e-07
9.219237102e-09
9.219967418e-09
1.570040629e-07
1.164419873e-08
9.919367335e-09
1.588220517e-07
1.33050405e-08
1.082133655e-08
1.610029231e-07
1.187662372e-08
1.635326165e-07
3.046745508e-09
8.520893434e-09
1.205245225e-07
6.669523824e-09
1.09047671e-08
1.550470326e-07
9.91907764e-09
1.164504564e-08
1.588219246e-07
1.254959819e-08
1.255038261e-08
1.608612786e-07
1.436628634e-08
1.372057028e-08
1.633366821e-07
1.508999224e-08
1.662089056e-07
3.31849755e-09
9.726222057e-09
1.220014544e-07
7.266428705e-09
1.244289385e-08
1.570016693e-07
1.082072297e-08
1.33056887e-08
1.610033923e-07
1.371966987e-08
1.436711557e-08
1.633370158e-07
1.574180424e-08
1.57421266e-08
1.662131997e-07
1.734759057e-08
1.695547327e-07
3.638838833e-09
1.23711911e-07
1.026955588e-08
7.967083229e-09
1.592639933e-07
1.313859358e-08
1.187665044e-08
1.635322397e-07
1.407459931e-08
1.508947686e-08
1.66208635e-07
1.523636001e-08
1.734748249e-08
1.69554356e-07
1.674821651e-08
1.734081399e-07
1.852287204e-08
1.852088937e-08
2.571370625e-09
2.571524774e-09
8.570321879e-08
5.631304859e-09
3.314937705e-09
1.102903425e-07
8.38830241e-09
3.54841516e-09
1.129811806e-07
1.062046743e-08
3.847625915e-09
1.144495918e-07
1.216011786e-08
4.239368158e-09
1.162269368e-07
4.701750756e-09
1.182932534e-07
3.314793174e-09
5.631651675e-09
1.102902737e-07
7.265021481e-09
7.264905703e-09
1.420797311e-07
1.08103889e-08
7.795370972e-09
1.456163397e-07
1.36786197e-08
8.459252722e-09
1.475721054e-07
1.56578887e-08
9.32442131e-09
1.499417832e-07
1.034186876e-08
1.526941773e-07
3.548271956e-09
8.388636327e-09
1.129815396e-07
7.795030705e-09
1.081052051e-08
1.456167627e-07
1.161669926e-08
1.161726434e-08
1.493658104e-07
1.472475963e-08
1.262538683e-08
1.515531264e-07
1.688433332e-08
1.394045158e-08
1.542323047e-07
1.547925665e-08
1.573480329e-07
3.847644188e-09
1.062106732e-08
1.144496472e-07
8.45928119e-09
1.367891999e-08
1.47572405e-07
1.262517608e-08
1.472543728e-08
1.515531261e-07
1.603942299e-08
1.603996011e-08
1.540376268e-07
1.843154989e-08
1.776587446e-08
1.571242268e-07
1.978507006e-08
1.606948943e-07
4.239322693e-09
1.21609969e-08
1.162274095e-07
9.324037508e-09
1.565877827e-08
1.499423897e-07
1.39398247e-08
1.688544272e-08
1.542327612e-07
1.776493018e-08
1.843251417e-08
1.571244862e-07
2.047468943e-08
2.047566981e-08
1.607988835e-07
2.284700743e-08
1.650517099e-07
4.70167251e-09
1.182929062e-07
1.288347826e-08
1.034174704e-08
1.52693762e-07
1.659408503e-08
1.547942025e-08
1.573475551e-07
1.793754921e-08
1.978470869e-08
1.606946173e-07
1.964642286e-08
2.284713559e-08
1.650507069e-07
2.19221376e-08
1.699640048e-07
2.457256117e-08
2.457100293e-08
3.152725624e-09
3.153036246e-09
7.940255811e-08
6.932767736e-09
4.089871254e-09
1.0242537e-07
1.035978703e-08
4.4103916e-09
1.051487354e-07
1.315727739e-08
4.830140571e-09
1.068269745e-07
1.511120022e-08
5.386036602e-09
1.08891845e-07
6.03999196e-09
1.113027048e-07
4.09023405e-09
6.932661011e-09
1.024253349e-07
9.000879531e-09
9.000346812e-09
1.322636905e-07
1.343410482e-08
9.731780941e-09
1.358670126e-07
1.705367098e-08
1.066721987e-08
1.381205252e-07
1.958455439e-08
1.190374322e-08
1.408980774e-07
1.335413869e-08
1.441333839e-07
4.410283115e-09
1.036028488e-08
1.051487531e-07
9.73139643e-09
1.343420891e-08
1.358672422e-07
1.455145403e-08
1.455213154e-08
1.397305075e-07
1.851630378e-08
1.597684795e-08
1.422837049e-07
2.131078262e-08
1.786835733e-08
1.454781488e-07
2.004677646e-08
1.49211981e-07
4.830266945e-09
1.315775639e-08
1.068271736e-07
1.066730161e-08
1.705385927e-08
1.381209286e-07
1.597662666e-08
1.851707546e-08
1.422839085e-07
2.038725697e-08
2.038787965e-08
1.452209887e-07
2.35075021e-08
2.291213184e-08
1.489651655e-07
2.579403331e-08
1.53256145e-07
5.385965305e-09
1.511223011e-08
1.088921393e-07
1.190330685e-08
1.958535812e-08
1.408985745e-07
1.786774805e-08
2.131175533e-08
1.454786245e-07
2.291120176e-08
2.350833074e-08
1.489655915e-07
2.651751153e-08
2.651724323e-08
1.535925271e-07
2.981457644e-08
1.588407123e-07
6.040364263e-09
1.113025052e-07
1.606727466e-08
1.335432124e-08
1.441330712e-07
2.083701464e-08
2.004734726e-08
1.492114282e-07
2.275980529e-08
2.579345886e-08
1.532565261e-07
2.520537481e-08
2.981455867e-08
1.588388284e-07
2.871316312e-08
1.648662719e-07
3.236789195e-08
3.236406596e-08
3.82008031e-09
3.820419561e-09
7.176692486e-08
8.437409684e-09
4.986447073e-09
9.282650657e-08
1.264888874e-08
5.419760373e-09
9.552253178e-08
1.611798708e-08
5.997491382e-09
9.736544783e-08
1.857313743e-08
6.774813444e-09
9.966677354e-08
7.688575415e-09
1.023682553e-07
4.986485218e-09
8.437539822e-09
9.282663383e-08
1.102260215e-08
1.1022451e-08
1.201969513e-07
1.650621232e-08
1.201617149e-08
1.237921885e-07
2.102815971e-08
1.331226261e-08
1.262887053e-07
2.423088107e-08
1.506091563e-08
1.294141081e-07
1.711082609e-08
1.330632164e-07
5.419376514e-09
1.264948361e-08
9.552270852e-08
1.201544172e-08
1.65064527e-08
1.237923716e-07
1.8035028e-08
1.80357836e-08
1.276962607e-07
2.305533395e-08
2.00162819e-08
1.305644964e-07
2.665869084e-08
2.270670274e-08
1.342339802e-07
2.578705343e-08
1.385463224e-07
5.99736478e-09
1.611853741e-08
9.736590514e-08
1.331203248e-08
2.10284646e-08
1.262892432e-07
2.001607486e-08
2.305604762e-08
1.30564703e-07
2.568108491e-08
2.568194701e-08
1.33895434e-07
2.972894052e-08
2.938387295e-08
1.382451248e-07
3.356582789e-08
1.431680572e-07
6.774686021e-09
1.857406838e-08
9.966688819e-08
1.506037962e-08
2.423193948e-08
1.294144399e-07
2.270644954e-08
2.665943537e-08
1.342342142e-07
2.938325597e-08
2.972992245e-08
1.382458347e-07
3.423430465e-08
3.423356482e-08
1.438968511e-07
3.925707656e-08
1.499680359e-07
7.688490251e-09
1.982490382e-08
1.023681144e-07
1.711057321e-08
2.588489561e-08
1.330630126e-07
2.578739373e-08
2.865360342e-08
1.385454537e-07
3.356475281e-08
3.204566648e-08
1.431685005e-07
3.925686831e-08
3.742113652e-08
1.499642187e-07
4.319354167e-08
1.570007681e-07
1.742402153e-08
2.888288023e-09
1.569391295e-07
1.326353497e-08
3.326414151e-09
1.786133525e-07
9.125256321e-09
3.367510365e-09
1.78596451e-07
6.868006899e-09
3.38289657e-09
1.767140785e-07
5.356692735e-09
3.405915957e-09
1.759676765e-07
3.430419232e-09
1.755161461e-07
4.296720178e-09
1.742938994e-08
2.250617876e-09
1.568241815e-07
1.327450649e-08
2.604257504e-09
1.784929923e-07
9.141896023e-09
2.638317209e-09
1.78477466e-07
6.889292696e-09
2.653276931e-09
1.765980705e-07
5.381333743e-09
2.674460372e-09
1.75855296e-07
2.696924252e-09
1.75407671e-07
4.323006177e-09
1.743444196e-08
1.665429989e-09
1.56766563e-07
1.328532507e-08
1.933833602e-09
1.784352939e-07
9.157870734e-09
1.960837712e-09
1.78420754e-07
6.909258139e-09
1.973635851e-09
1.765443412e-07
5.404050509e-09
1.991088915e-09
1.75804575e-07
2.009640407e-09
1.753602483e-07
4.347138224e-09
1.7438351e-08
1.103845204e-09
1.567391803e-07
1.329390873e-08
1.284700659e-09
1.784093114e-07
9.170856633e-09
1.303512139e-09
1.783965017e-07
6.925738985e-09
1.312461001e-09
1.765224745e-07
5.422932468e-09
1.324904177e-09
1.757851064e-07
1.338277773e-09
1.753433838e-07
4.367270839e-09
1.744130799e-08
5.507074259e-10
1.567276432e-07
1.330037158e-08
6.419562548e-10
1.783996887e-07
9.180452862e-09
6.514819506e-10
1.783880444e-07
6.937577605e-09
6.560485128e-10
1.765154787e-07
5.436436946e-09
6.627120278e-10
1.757796766e-07
6.696040554e-10
1.753401381e-07
4.381447309e-09
1.744276036e-08
2.399728584e-13
1.567236745e-07
1.330361454e-08
2.935863231e-13
1.78396908e-07
9.185264443e-09
2.661507919e-13
1.783857551e-07
6.943606654e-09
1.471035707e-13
1.765139681e-07
5.443557447e-09
1.678259098e-13
1.757790679e-07
1.197023737e-13
1.753404871e-07
4.388953872e-09
1.744281831e-08
-5.503080552e-10
1.567238173e-07
1.330366018e-08
-6.414810887e-10
1.783969568e-07
9.185343466e-09
-6.50995338e-10
1.78385831e-07
6.94368727e-09
-6.558059944e-10
1.765139891e-07
5.443580002e-09
-6.624334425e-10
1.757790168e-07
-6.694686208e-10
1.753404353e-07
4.388993651e-09
1.744125116e-08
-1.103236754e-09
1.567276099e-07
1.330017448e-08
-1.283983691e-09
1.783995366e-07
9.180122417e-09
-1.302668566e-09
1.783877504e-07
6.937384554e-09
-1.312106814e-09
1.765151141e-07
5.436345395e-09
-1.324751132e-09
1.757793931e-07
-1.338086503e-09
1.753395939e-07
4.381493523e-09
1.743820034e-08
-1.664802509e-09
1.567393013e-07
1.329378997e-08
-1.933320431e-09
1.784095416e-07
9.170765051e-09
-1.960506602e-09
1.783966586e-07
6.925587504e-09
-1.973225186e-09
1.765222245e-07
5.422754735e-09
-1.990796104e-09
1.757848905e-07
-2.009470199e-09
1.753432341e-07
4.36712428e-09
1.743437656e-08
-2.249983099e-09
1.567666747e-07
1.328505388e-08
-2.603569674e-09
1.7843519e-07
9.157516056e-09
-2.638042652e-09
1.784208185e-07
6.909001411e-09
-2.652973665e-09
1.765442051e-07
5.403936298e-09
-2.674157551e-09
1.758044266e-07
-2.696674774e-09
1.753600677e-07
4.347283611e-09
1.742930977e-08
-2.887898432e-09
1.568243052e-07
1.327435715e-08
-3.326163188e-09
1.784931944e-07
9.141664071e-09
-3.367005472e-09
1.784774735e-07
6.889122128e-09
-3.382486289e-09
1.76597965e-07
5.381163178e-09
-3.40541271e-09
1.75855154e-07
-3.429728796e-09
1.754072754e-07
4.323014824e-09
1.742384771e-08
1.569391165e-07
-3.635040053e-09
1.326322929e-08
1.786132728e-07
-4.162997399e-09
9.12483622e-09
1.785964648e-07
-4.2091849e-09
6.867745619e-09
1.767138185e-07
-4.223346489e-09
5.356533063e-09
1.759677568e-07
-4.246043323e-09
1.755160225e-07
-4.270188852e-09
4.296955926e-09
9.562120857e-09
3.826075774e-09
1.481570841e-07
9.535633052e-09
4.478354662e-09
1.79534887e-07
8.616961227e-09
4.542743015e-09
1.804166234e-07
7.544105743e-09
4.576818437e-09
1.786888837e-07
6.548061122e-09
4.619940557e-09
1.778658434e-07
4.666731046e-09
1.773520374e-07
5.615061019e-09
9.572570572e-09
3.071015737e-09
1.480114423e-07
9.557621291e-09
3.605278082e-09
1.793855787e-07
8.649372874e-09
3.660797872e-09
1.802725925e-07
7.584883114e-09
3.691817815e-09
1.785523595e-07
6.594592124e-09
3.731237291e-09
1.777391016e-07
3.773691774e-09
1.772362529e-07
5.664123147e-09
9.582163938e-09
2.316796416e-09
1.479433119e-07
9.578124256e-09
2.727097544e-09
1.793223838e-07
8.679320965e-09
2.771176829e-09
1.802140508e-07
7.622292229e-09
2.796795125e-09
1.785012698e-07
6.636907236e-09
2.829435763e-09
1.776967584e-07
2.86434532e-09
1.772033451e-07
5.708400079e-09
9.589501664e-09
1.55418651e-09
1.479170467e-07
9.594537869e-09
1.832694295e-09
1.793035294e-07
8.703791773e-09
1.863259445e-09
1.80199943e-07
7.653044038e-09
1.881540968e-09
1.784933918e-07
6.671899605e-09
1.904893047e-09
1.776958722e-07
1.929603124e-09
1.772099148e-07
5.745311492e-09
9.595182303e-09
7.806948997e-10
1.479108201e-07
9.606641895e-09
9.216354944e-10
1.793041097e-07
8.721551275e-09
9.373871637e-10
1.802039541e-07
7.675021102e-09
9.468111991e-10
1.785018691e-07
6.696580971e-09
9.592666443e-10
1.777089243e-07
9.717776438e-10
1.772285158e-07
5.771224715e-09
9.597945599e-09
4.060686738e-13
1.47910949e-07
9.612749159e-09
5.0269095e-13
1.793081997e-07
8.730631234e-09
5.310807999e-13
1.802098018e-07
7.68627246e-09
4.732849402e-13
1.78509853e-07
6.709564272e-09
6.52775596e-13
1.77719482e-07
4.203700519e-13
1.772417451e-07
5.784777205e-09
9.598078488e-09
-7.800018519e-10
1.479110688e-07
9.612973994e-09
-9.207581082e-10
1.793082746e-07
8.730907739e-09
-9.364896379e-10
1.802098328e-07
7.686453045e-09
-9.459158535e-10
1.785097607e-07
6.709595046e-09
-9.579799041e-10
1.77719408e-07
-9.710605856e-10
1.7724183e-07
5.784734318e-09
9.595122598e-09
-1.553466564e-09
1.479108567e-07
9.606444448e-09
-1.831700103e-09
1.793039859e-07
8.72134279e-09
-1.862530837e-09
1.802037129e-07
7.674888078e-09
-1.881027899e-09
1.785014993e-07
6.696676747e-09