/*--------------------------------*- C++ -*----------------------------------*\
  =========                 |
  \\      /  F ield         | OpenFOAM: The Open Source CFD Toolbox
   \\    /   O peration     | Website:  https://openfoam.org
    \\  /    A nd           | Version:  7
     \\/     M anipulation  |
\*---------------------------------------------------------------------------*/
FoamFile
{
    version     2.0;
    format      ascii;
    class       volScalarField;
    location    "5e-05";
    object      Uz;
}
// * * * * * * * * * * * * * * * * * * * * * * * * * * * * * * * * * * * * * //

dimensions      [0 1 -1 0 0 0 0];

internalField   nonuniform List<scalar> 
5000
(
0
0
0
0
0
-8.4421788e-17
-1.799225e-31
2.5317168e-16
8.4375904e-17
-1.6872533e-16
-1.6870311e-16
8.4343431e-17
-7.1911995e-31
-7.4309818e-31
1.6869396e-16
-1.6872118e-16
1.1787365e-47
-7.437094e-31
-8.44444e-17
1.6897031e-16
8.4530395e-17
0
0
-8.4674929e-17
7.2236232e-31
-6.9861218e-31
-8.4793165e-17
8.4819818e-17
8.4838821e-17
-8.4850042e-17
1.4831876e-30
-7.2347771e-31
-8.4840913e-17
8.4826367e-17
8.4807845e-17
0
0
-8.4739907e-17
-8.4716717e-17
8.4694811e-17
-1.4198979e-30
-8.4657741e-17
8.4643679e-17
-1.4312232e-30
-8.462614e-17
8.4622798e-17
-2.9102009e-30
2.8982719e-30
-2.9104625e-30
1.4432981e-30
8.4640308e-17
0
0
0
0
0
0
0
0
0
0
0
0
-8.249437e-17
-8.1892005e-17
8.1179307e-17
-1.3815824e-30
-4.907052e-47
7.8294743e-17
0
0
-7.4169465e-17
-7.2508045e-17
0
6.8769494e-17
2.3034612e-30
-6.452013e-17
-6.2227576e-17
5.9839207e-17
1.1473774e-16
-1.09663e-16
2.9696612e-32
1.4885723e-16
-9.3953258e-17
-4.6115431e-30
8.3400682e-17
-1.1729271e-16
3.6537753e-17
3.4034112e-17
-3.1598617e-17
2.924187e-17
2.6973023e-17
8.6344213e-31
-4.5456285e-17
-1.436937e-30
-1.8907317e-17
-1.7163186e-17
-5.4515568e-31
9.7560543e-31
2.5200183e-17
1.1297008e-17
-1.0098117e-17
1.2789051e-33
7.9966967e-18
0
-6.2588867e-18
-1.9195809e-31
4.8430178e-18
-4.2422837e-18
-3.7058343e-18
6.4568378e-18
2.8049575e-18
-7.2917439e-18
-2.1006627e-18
5.4325137e-18
-1.5570216e-18
-1.3354145e-18
-6.4943932e-34
-9.7507025e-19
2.4904859e-18
-4.9299044e-32
-1.1949532e-18
1.0102054e-18
4.2603286e-19
-3.5852916e-19
3.0104891e-19
-2.5222832e-19
-4.2173307e-19
1.7591025e-19
5.0568869e-33
1.2165131e-19
2.0170342e-19
-8.3438812e-20
-6.8894259e-20
-5.6772699e-20
-1.6256807e-33
-1.329023e-33
1.0933451e-33
5.1361221e-20
2.0962165e-20
-1.7079446e-20
-2.7781682e-20
-1.127744e-20
-9.1396517e-21
5.1278541e-34
1.1943953e-20
-1.3685373e-36
1.1015905e-36
2.951358e-49
2.4989566e-21
-1.3881672e-34
2.2294707e-34
1.278287e-21
-1.0191285e-21
8.1126982e-22
2.2359156e-35
-5.117731e-22
4.055731e-22
-4.5608763e-38
-2.5360732e-22
0
1.5768248e-22
8.5868844e-36
-1.9499495e-22
7.6508662e-23
-1.7040995e-38
-4.6924986e-23
3.667724e-23
-2.8630166e-23
2.2319776e-23
-7.2409012e-36
-3.7487555e-36
1.0496206e-23
-1.6284749e-23
0
-3.3855112e-37
-7.8511915e-37
2.9135749e-24
2.2466248e-24
1.1926739e-37
-1.331367e-24
1.0233256e-24
5.403446e-38
2.5671197e-40
6.3909076e-38
-7.0636724e-25
2.6994152e-25
2.06104e-25
-1.0806195e-38
8.2444825e-39
-1.8949649e-38
4.7868304e-39
-5.2691288e-26
0
0
0
0
-1.3426145e-26
2.123009e-39
7.4983756e-27
5.6237817e-27
-4.2558348e-27
-3.1918761e-27
4.7624818e-27
1.3324111e-40
-2.734949e-40
-8.106352e-28
-6.586411e-28
4.053176e-28
0
4.559823e-28
1.7531725e-41
-1.013294e-28
-1.013294e-28
2.1167667e-41
2.026588e-28
-2.026588e-28
-1.013294e-28
-5.06647e-29
-1.013294e-28
2.533235e-28
0
0
0
-5.06647e-29
1.519941e-28
2.026588e-28
-1.519941e-28
1.0562234e-41
-5.06647e-29
-5.06647e-29
1.013294e-28
1.4399774e-44
1.4399774e-44
-2.533235e-28
-2.026588e-28
-1.5631051e-42
7.1998869e-45
2.1110068e-41
-1.519941e-28
-7.8962993e-54
-1.4054179e-41
-3.6233116e-42
3.5355727e-42
0
1.013294e-28
1.0520818e-41
-2.026588e-28
1.519941e-28
0
-5.06647e-29
1.013294e-28
1.013294e-28
-3.5178647e-41
-3.039882e-28
-1.013294e-28
0
-4.2764235e-44
0
3.039882e-28
1.013294e-28
-5.06647e-29
0
-8.5528471e-44
-2.026588e-28
-1.013294e-28
-2.026588e-28
-4.053176e-28
2.8108358e-41
-5.06647e-28
-1.519941e-28
2.1081269e-41
-1.519941e-28
1.013294e-28
-4.2764235e-44
-7.0558891e-42
-2.026588e-28
2.533235e-28
-5.06647e-29
-2.026588e-28
4.2277736e-41
5.06647e-28
-5.06647e-28
-1.0519035e-41
7.1876418e-42
0
0
-6.8964008e-42
-5.06647e-29
0
5.06647e-29
-4.3199321e-44
3.546529e-28
4.559823e-28
-2.026588e-28
0
-5.06647e-29
-1.013294e-28
0
-4.053176e-28
-7.1043238e-42
-1.013294e-28
-7.0126898e-42
2.8799547e-44
-1.519941e-28
-2.533235e-28
1.519941e-28
-5.06647e-29
5.06647e-29
2.8799547e-44
4.053176e-28
-1.519941e-28
-5.06647e-29
-5.3455294e-44
3.5135448e-41
-2.026588e-28
0
0
-3.039882e-28
4.2205737e-41
-5.6245516e-41
2.1124468e-41
-1.519941e-28
7.0851521e-42
-7.1998869e-45
1.519941e-28
0
0
0
0
0
0
0
5.06647e-29
0
-3.039882e-28
0
4.559823e-28
1.1243343e-40
-1.519941e-28
0
0
-8.5528471e-44
7.0342895e-42
5.06647e-29
0
0
-5.06647e-29
5.06647e-29
-5.06647e-29
1.4967482e-43
0
1.013294e-28
-7.1998869e-45
2.5658541e-43
1.013294e-28
1.013294e-28
-4.2764235e-43
-1.013294e-28
0
2.533235e-28
1.013294e-28
-5.06647e-29
-1.013294e-28
0
-2.026588e-28
1.013294e-28
-1.013294e-28
2.533235e-28
0
0
0
0
0
0
0
0
5.06647e-29
-7.806133e-56
-2.533235e-28
0
0
0
-2.026588e-28
-1.4054179e-41
5.06647e-29
1.013294e-28
-2.1102868e-41
1.4399774e-44
1.4068579e-41
6.7039617e-42
-1.519941e-28
2.026588e-28
-1.1260623e-40
-1.519941e-28
1.013294e-28
0
0
-1.013294e-28
-1.4068579e-41
1.519941e-28
-1.519941e-28
-2.533235e-28
0
5.06647e-29
-3.039882e-28
3.039882e-28
4.2184137e-41
2.7721165e-69
-7.0342895e-42
1.519941e-28
-1.013294e-28
-1.6529508e-68
9.9905545e-55
1.519941e-28
0
0
1.519941e-28
2.8799547e-44
-6.3243806e-41
1.013294e-28
0
0
-1.013294e-28
-1.4046979e-41
-1.013294e-28
0
0
0
2.026588e-28
-1.4399774e-44
5.06647e-29
-5.06647e-29
0
-4.2248936e-41
-1.013294e-28
-5.06647e-29
4.2205737e-41
1.4068579e-41
-2.1102868e-41
-1.013294e-28
0
0
2.533235e-28
2.8137158e-41
-5.6245516e-41
4.8788331e-57
-1.013294e-28
1.013294e-28
7.0364898e-42
0
3.546529e-28
1.4068579e-41
-5.06647e-29
0
0
5.06647e-29
-2.8799547e-44
-4.8788331e-57
1.519941e-28
-1.519941e-28
-1.9257011e-56
7.0342895e-42
-8.4368274e-41
-3.546529e-28
1.519941e-28
-2.8137158e-41
2.8151558e-41
3.9079171e-54
5.06647e-29
-1.2829271e-43
1.4068579e-41
-2.8194757e-41
0
5.06647e-29
1.1796295e-44
-2.1102868e-41
2.1599661e-44
2.1102868e-41
-2.8165957e-41
8.5528471e-44
1.013294e-28
3.039882e-28
-2.533235e-28
-5.06647e-29
0
-1.519941e-28
6.8226686e-42
0
1.519941e-28
-2.8137158e-41
2.8799547e-44
9.8569633e-55
2.026588e-28
-1.519941e-28
-1.4054179e-41
7.8104699e-54
-5.06647e-29
1.387833e-41
-2.8915715e-41
-1.9541142e-59
2.1081269e-41
2.026588e-28
-1.013294e-28
-1.4068579e-41
1.1796295e-44
0
0
0
1.013294e-28
1.013294e-28
-1.013294e-28
-1.519941e-28
0
2.533235e-28
2.533235e-28
-1.519941e-28
-1.519941e-28
0
-3.2073177e-44
-1.013294e-28
2.026588e-28
2.8137158e-41
5.06647e-29
0
0
0
0
-1.519941e-28
5.6216717e-41
2.026588e-28
-5.5593506e-43
1.4068579e-41
-2.8165957e-41
4.8788331e-57
2.533235e-28
2.533235e-28
-2.026588e-28
5.9373886e-57
7.0270896e-42
-5.06647e-29
0
-1.013294e-28
1.013294e-28
-1.013294e-28
-1.4054179e-41
-5.06647e-29
0
0
-5.06647e-29
7.0270896e-42
1.519941e-28
0
-5.06647e-29
2.1599661e-44
-2.8137158e-41
-1.4054179e-41
1.013294e-28
5.06647e-29
-1.4399774e-44
-3.8830215e-54
1.519941e-28
-3.039882e-28
-4.2205737e-41
7.1998869e-45
-2.1102868e-41
-2.026588e-28
2.026588e-28
0
8.4389874e-41
1.4054179e-41
2.6690901e-56
9.115745e-60
1.2829271e-43
5.06647e-29
1.9515332e-56
-7.0342895e-42
2.8137158e-41
7.0342895e-42
-4.053176e-28
1.013294e-28
5.06647e-29
-1.4068579e-41
2.8137158e-41
2.026588e-28
-1.013294e-28
-5.06647e-29
-4.8788331e-57
0
-9.7576662e-57
5.06647e-29
-1.013294e-28
2.4708276e-71
-7.0270896e-42
-1.4399774e-44
-1.519941e-28
3.039882e-28
2.8137158e-41
9.7324765e-44
-1.4054179e-41
1.4054179e-41
-1.4028005e-41
-1.519941e-28
-5.8545997e-56
1.0555034e-40
-5.6303115e-41
-5.340915e-56
1.4068579e-41
-9.7576662e-57
0
-5.06647e-29
0
0
2.026588e-28
3.8696106e-54
5.06647e-29
0
0
1.013294e-28
-1.2653081e-40
4.053176e-28
-1.013294e-28
2.1599661e-44
-2.8137158e-41
-1.013294e-28
0
0
0
5.06647e-29
2.8108358e-41
-2.533235e-28
0
0
-1.7802802e-56
3.0385817e-60
1.519941e-28
0
0
-5.06647e-29
4.0564834e-54
-2.8151558e-41
2.8137158e-41
2.6027309e-43
1.013294e-28
-4.2184137e-41
5.6245516e-41
-1.4054179e-41
5.06647e-29
0
0
-2.026588e-28
-1.2197083e-55
1.519941e-28
0
0
5.06647e-29
2.3418399e-55
1.519941e-28
0
0
-1.519941e-28
-6.5185248e-68
3.039882e-28
0
0
5.06647e-29
-1.4399774e-44
-5.06647e-29
-5.06647e-29
1.4075779e-41
-4.2227337e-41
7.0342895e-41
1.519941e-28
0
0
0
0
0
1.013294e-28
-4.2184137e-41
-3.039882e-28
0
0
0
0
0
0
0
1.013294e-28
-8.4368274e-41
-2.533235e-28
0
0
0
0
0
0
0
1.519941e-28
-1.4061379e-41
5.06647e-29
0
0
-2.533235e-28
5.6303115e-41
-5.06647e-29
0
0
0
5.06647e-29
1.4075779e-41
-1.519941e-28
0
0
0
0
0
0
0
2.026588e-28
-1.4399774e-44
-5.06647e-29
0
0
0
0
0
0
0
-2.026588e-28
-2.8799547e-44
-1.3670407e-41
0
0
0
-5.8981473e-45
8.4389874e-41
2.026588e-28
0
-2.533235e-28
-1.4075779e-41
-5.06647e-29
0
0
-2.533235e-28
-5.06647e-29
0
-5.06647e-29
0
0
0
0
-1.3898376e-43
3.646298e-59
-1.013294e-28
-5.456053e-44
1.013294e-28
2.026588e-28
5.06647e-29
1.013294e-28
0
0
0
0
-5.06647e-29
2.8151558e-41
-1.519941e-28
0
0
0
0
0
0
0
0
0
0
0
0
0
0
-2.8256557e-41
1.1254863e-40
2.026588e-28
0
0
-1.385326e-41
-1.4068579e-41
-7.1998869e-45
-5.06647e-29
-1.519941e-28
-8.4389874e-41
5.6303115e-41
1.013294e-28
0
0
0
0
0
1.013294e-28
-5.6259916e-41
-1.519941e-28
0
0
0
0
0
0
0
5.06647e-29
1.5644677e-53
5.06647e-29
0
0
0
0
0
0
0
-5.06647e-29
4.2191337e-41
-1.013294e-28
0
0
0
0
0
0
0
0
-5.06647e-29
2.8799547e-44
3.039882e-28
0
0
0
0
-5.06647e-29
1.519941e-28
1.013294e-28
-1.013294e-28
-3.9245832e-54
5.06647e-29
0
0
0
0
-1.013294e-28
1.4061379e-41
1.013294e-28
-1.519941e-28
-1.519941e-28
5.06647e-29
0
0
0
-1.013294e-28
-1.4054179e-41
-3.546529e-28
-3.546529e-28
1.519941e-28
1.013294e-28
-5.06647e-29
0
0
-2.533235e-28
-5.06647e-29
-1.519941e-28
-2.026588e-28
-1.519941e-28
-5.6274316e-41
1.519941e-28
0
0
0
-1.519941e-28
-1.013294e-28
1.519941e-28
5.06647e-29
-1.013294e-28
-4.2184137e-41
5.06647e-29
0
0
0
2.533235e-28
-4.2184137e-41
-2.533235e-28
0
0
0
0
0
0
0
5.06647e-29
1.4061379e-41
-1.013294e-28
-1.4068579e-41
-5.06647e-29
0
0
5.06647e-29
1.4399774e-44
-2.8137158e-41
8.30809e-56
-5.06647e-29
-1.013294e-28
1.4068579e-41
5.06647e-29
0
0
-3.039882e-28
2.1095669e-40
2.8122758e-41
-1.4399774e-44
1.519941e-28
2.8143749e-41
-7.3732176e-44
2.026588e-28
-5.6216717e-41
-1.519941e-28
2.026588e-28
0
0
1.4075779e-41
-1.013294e-28
0
2.533235e-28
-3.039882e-28
1.6877975e-40
1.013294e-28
-1.4061183e-41
0
-2.026588e-28
0
-5.06647e-29
0
5.06647e-29
1.013294e-28
-8.4325075e-41
-5.06647e-29
5.06647e-29
0
-2.8070016e-41
4.2205737e-41
-2.026588e-28
0
-5.06647e-29
5.06647e-29
-1.4399774e-44
-1.417768e-41
-2.026588e-28
0
-5.8981473e-45
-2.026588e-28
2.026588e-28
1.519941e-28
-1.013294e-28
-1.013294e-28
-1.013294e-28
-1.013294e-28
0
0
0
0
0
0
2.026588e-28
4.8788331e-57
-3.039882e-28
1.519941e-28
5.06647e-29
-1.013294e-28
0
0
-2.533235e-28
-3.546529e-28
4.053176e-28
1.519941e-28
0
1.519941e-28
9.8530452e-41
-3.546529e-28
0
0
2.026588e-28
2.026588e-28
-1.519941e-28
1.519941e-28
0
-5.06647e-29
-4.2205737e-41
-2.026588e-28
1.519941e-28
1.4068579e-40
4.3199321e-44
1.013294e-28
1.519941e-28
3.039882e-28
0
0
1.519941e-28
-2.8122758e-41
-2.3520329e-43
0
5.06647e-29
5.06647e-29
5.06647e-29
2.533235e-28
0
0
0
0
0
0
1.013294e-28
1.4061379e-41
1.013294e-28
0
0
0
0
0
0
-1.013294e-28
-9.7576662e-57
-1.0691059e-43
-1.519941e-28
-2.8108358e-41
-1.519941e-28
0
0
0
0
2.533235e-28
9.8429653e-41
-3.039882e-28
5.06647e-29
-2.026588e-28
2.533235e-28
-8.4368274e-41
-8.4382674e-41
-4.2176937e-41
-2.8151558e-41
-5.6274316e-41
5.6245516e-41
-1.013294e-28
0
3.039882e-28
-1.2655241e-40
1.4399774e-44
1.4102842e-41
5.06647e-29
-1.013294e-28
2.533235e-28
-2.8122758e-41
-8.4339475e-41
-2.8129958e-41
-8.4325075e-41
5.6216717e-41
2.8122758e-41
1.013294e-28
2.533235e-28
2.026588e-28
-4.2171753e-41
2.8108358e-41
-5.6245516e-41
-1.4061379e-41
2.8137158e-41
-3.9683642e-54
-5.6245516e-41
2.533235e-28
0
5.06647e-29
-4.2184137e-41
3.2944369e-71
1.519941e-28
0
-5.06647e-29
-5.06647e-29
-1.013294e-28
3.63496e-43
0
0
0
0
-5.06647e-29
5.6245516e-41
-8.4389874e-41
1.013294e-28
5.06647e-29
1.0691059e-42
0
0
0
0
-2.026588e-28
-1.9651229e-56
-1.013294e-28
0
0
0
0
0
0
0
-1.519941e-28
-2.533235e-28
-5.6788872e-41
-5.06647e-29
0
0
0
0
0
0
-5.06647e-29
-5.06647e-29
1.013294e-28
2.026588e-28
0
0
0
0
0
0
1.519941e-28
1.519941e-28
-5.06647e-29
1.013294e-28
0
0
0
0
0
0
2.026588e-28
-5.6259916e-41
-1.013294e-28
0
0
0
0
0
0
1.519941e-28
1.4068579e-41
2.533235e-28
0
0
0
0
5.06647e-29
2.8799547e-44
-1.519941e-28
2.026588e-28
4.8788331e-57
5.6330261e-41
-2.026588e-28
1.1254863e-40
2.026588e-28
-1.013294e-28
5.6259916e-41
2.8129958e-41
1.3177747e-70
5.6245516e-41
7.0270896e-41
-1.519941e-28
1.519941e-28
2.026588e-28
-1.013294e-28
5.9313114e-56
0
0
1.519941e-28
5.6274316e-41
1.2668201e-40
8.4353875e-41
-2.5310482e-40
-1.6865015e-40
8.4368274e-41
-5.6231116e-41
7.0378894e-41
3.039882e-28
0
-2.533235e-28
5.815233e-59
8.4353875e-41
2.136366e-55
-7.1998869e-45
-8.4368274e-41
4.2205737e-41
5.06647e-29
0
0
-2.8122758e-41
-2.8799547e-44
1.519941e-28
0
1.013294e-28
-2.026588e-28
2.811057e-41
-2.026588e-28
0
0
2.026588e-28
-5.6252716e-41
2.8108358e-41
-1.4064979e-40
1.1260623e-40
-4.559823e-28
-2.533235e-28
-5.06647e-29
0
0
0
0
2.8201997e-41
4.2205737e-41
1.6873655e-40
-1.013294e-28
-1.519941e-28
5.06647e-29
0
0
0
0
-1.013294e-28
-3.039882e-28
1.519941e-28
5.06647e-29
0
0
0
0
0
0
-5.06647e-29
-1.013294e-28
4.2764235e-44
5.06647e-29
0
0
0
0
0
0
4.2201244e-41
3.514175e-53
-1.013294e-28
2.026588e-28
3.039882e-28
5.06647e-29
0
1.013294e-28
3.131698e-53
3.374443e-40
1.519941e-28
3.039882e-28
-5.5924001e-41
5.06647e-29
3.039882e-28
-1.519941e-28
-5.06647e-29
-7.1998869e-45
-1.013294e-28
-5.06647e-29
-5.06647e-29
-5.06647e-29
-1.013294e-28
1.519941e-28
7.1998869e-45
5.06647e-29
0
0
0
-8.5528471e-44
-5.06647e-29
5.5988147e-41
5.06647e-29
-3.546529e-28
-5.573117e-28
6.079764e-28
3.9030665e-56
2.8817285e-41
5.06647e-29
1.013294e-28
5.06647e-29
-3.039882e-28
1.013294e-28
5.2691398e-55
-8.4367099e-41
1.013294e-28
-5.06647e-29
-2.026588e-28
-5.06647e-28
2.026588e-28
1.519941e-28
1.519941e-28
-5.06647e-29
-1.519941e-28
-3.039882e-28
2.533235e-28
-2.8116468e-41
5.06647e-29
5.06647e-29
2.1599661e-44
-7.599705e-28
3.039882e-28
-1.6870775e-40
-1.6876535e-40
-4.559823e-28
1.519941e-28
5.06647e-29
2.026588e-28
-1.013294e-28
2.026588e-28
-3.039882e-28
1.519941e-28
-1.519941e-28
1.013294e-28
-4.559823e-28
1.013294e-28
2.026588e-28
-2.026588e-28
5.06647e-29
2.8089188e-41
6.079764e-28
-5.06647e-29
4.053176e-28
2.8122758e-41
-2.026588e-28
-1.013294e-28
0
2.026588e-28
3.374299e-40
-4.559823e-28
5.6238835e-41
2.2498207e-40
-1.519941e-28
-2.533235e-28
4.053176e-28
0
0
0
-5.6238835e-41
5.6259916e-41
3.039882e-28
-1.013294e-28
-1.7105694e-43
-1.519941e-28
1.6873655e-40
1.013294e-28
-1.013294e-28
0
0
0
4.053176e-28
-1.013294e-28
4.053176e-28
-7.599705e-28
-3.122476e-55
1.013294e-28
0
0
5.06647e-29
8.4389874e-41
2.026588e-28
5.06647e-29
3.039882e-28
-6.079764e-28
-1.6870775e-40
-3.039882e-28
-2.8976382e-43
-5.06647e-29
1.013294e-28
1.519941e-28
-5.0616645e-40
-1.519941e-28
-1.013294e-28
-1.519941e-28
2.8799547e-44
-5.06647e-29
8.4368274e-41
-1.013294e-28
-1.013294e-28
5.6245516e-41
1.519941e-28
-1.4399774e-44
-8.4390692e-41
-1.013294e-28
4.6836798e-55
2.026588e-28
5.06647e-29
1.013294e-28
-4.053176e-28
0
-1.2471322e-52
1.013294e-28
3.039882e-28
1.013294e-28
5.06647e-29
1.519941e-28
0
-3.546529e-28
-8.4368274e-41
2.8122758e-41
2.8115558e-41
-1.013294e-28
-2.8122758e-40
4.053176e-28
-1.0124193e-39
-7.599705e-28
2.026588e-28
1.519941e-28
1.013294e-28
1.519941e-28
-4.4209432e-45
6.079764e-28
-2.533235e-28
-4.559823e-28
0
0
-1.013294e-28
-1.013294e-28
0
2.3737069e-56
1.519941e-28
-6.079764e-28
5.6245516e-40
4.559823e-28
6.2483759e-53
5.06647e-29
-1.013294e-28
-2.026588e-28
2.533235e-28
2.533235e-28
-3.039882e-28
-1.519941e-27
4.559823e-28
1.013294e-27
-1.519941e-28
-9.7324765e-44
2.026588e-28
0
-2.533235e-28
0
-1.013294e-28
5.06647e-29
-4.4996413e-40
3.039882e-28
-1.3498924e-39
-1.0639587e-27
2.026588e-28
2.533235e-28
-2.026588e-28
-2.026588e-28
1.519941e-28
1.519941e-28
-5.06647e-29
2.026588e-28
-2.5314802e-40
-5.06647e-29
2.026588e-28
5.06647e-29
-1.013294e-28
-8.4368274e-41
-7.1998869e-45
-1.519941e-28
4.4996413e-40
1.519941e-28
-3.039882e-28
-3.1353523e-53
-4.053176e-28
0
0
8.5528471e-44
-2.8122758e-41
-2.026588e-28
1.013294e-28
4.053176e-28
3.546529e-28
-3.373867e-40
-6.079764e-28
-3.039882e-28
3.039882e-28
-4.053176e-28
1.4399774e-43
1.0125057e-39
4.053176e-28
7.093058e-28
-4.559823e-28
-1.1251983e-40
-7.093058e-28
0
0
5.06647e-28
-4.4996413e-40
-1.6869335e-40
7.8011449e-56
1.519941e-28
2.5658541e-43
-3.5612177e-55
-1.9243906e-42
5.06647e-29
-2.826135e-41
-2.026588e-28
-2.2492447e-40
8.4361074e-40
2.533235e-28
4.053176e-28
3.039882e-28
-2.026588e-28
-1.519941e-28
1.519941e-28
-2.026588e-28
6.079764e-28
-2.8122758e-40
-2.026588e-28
-1.4399774e-44
5.3455294e-43
6.4146353e-44
8.4353875e-41
1.013294e-28
5.06647e-29
0
-5.06647e-29
-5.6231116e-41
3.039882e-28
-5.06647e-29
2.026588e-28
3.546529e-28
3.039882e-28
-2.026588e-28
-2.026588e-28
-5.06647e-29
-1.013294e-28
1.1249103e-40
-2.8115558e-41
-1.519941e-28
3.375595e-40
-2.533235e-28
5.0620965e-40
4.559823e-28
-1.013294e-28
3.9030665e-56
1.519941e-28
1.6871495e-40
1.572185e-53
-1.519941e-28
5.06647e-29
-6.079764e-28
0
0
2.533235e-28
-5.06647e-29
-2.026588e-28
1.013294e-28
1.013294e-28
-1.013294e-28
1.013294e-28
4.559823e-28
-5.06647e-29
1.519941e-28
2.026588e-28
3.039882e-28
-3.039882e-28
-5.06647e-29
2.533235e-28
7.599705e-28
-1.013294e-28
0
8.4353875e-41
2.026588e-28
-5.06647e-28
-6.079764e-28
1.519941e-28
1.013294e-28
3.039882e-28
1.519941e-28
3.039882e-28
1.519941e-28
5.06647e-29
1.0691059e-43
5.06647e-29
-8.4368274e-41
-4.053176e-28
-5.06647e-29
-5.06647e-29
1.013294e-28
-7.1998869e-45
0
2.026588e-28
-1.6876535e-40
-2.1382118e-43
2.1382118e-43
0
0
0
-5.06647e-29
-4.559823e-28
1.013294e-28
-5.06647e-29
0
0
0
0
1.519941e-28
-2.2498207e-40
-7.599705e-28
2.026588e-28
3.039882e-28
1.519941e-28
-4.2191337e-40
-3.039882e-28
5.6244733e-41
-1.013294e-28
2.026588e-28
1.519941e-28
-5.0625285e-40
5.6250631e-41
1.013294e-28
-5.1317082e-43
-2.4308653e-59
1.013294e-28
-7.1998869e-45
-1.519941e-28
-5.6373026e-41
-3.374731e-40
-7.599705e-28
5.7599095e-44
1.0639587e-27
5.06647e-28
5.6216717e-41
6.079764e-28
2.533235e-28
-1.013294e-28
1.013294e-28
1.519941e-28
-8.4361074e-40
-2.026588e-28
1.013294e-28
-9.119646e-28
2.8129958e-40
2.533235e-28
3.546529e-28
1.013294e-28
-8.4325075e-41
1.4057779e-40
7.093058e-28
1.9680891e-40
-4.053176e-28
2.026588e-28
4.2095462e-52
-7.9334883e-43
4.053176e-28
-2.8129958e-40
-2.026588e-28
1.519941e-28
5.06647e-29
-5.06647e-28
4.053176e-28
9.119646e-28
0
0
0
-1.519941e-28
-1.519941e-28
3.039882e-28
6.079764e-28
-6.079764e-28
7.1998869e-44
-1.013294e-28
-3.375307e-40
-7.599705e-28
6.079764e-28
-5.0629604e-40
-2.026588e-28
-5.6231116e-41
5.6259916e-41
3.039882e-28
-1.519941e-28
2.830522e-41
5.0629604e-40
7.599705e-28
-6.079764e-28
-5.06647e-29
-3.374731e-40
4.053176e-28
1.013294e-28
5.06647e-29
-5.06647e-29
-3.039882e-28
1.1249103e-40
-5.06647e-29
-1.519941e-28
3.374731e-40
3.039882e-28
0
-1.519941e-28
-2.026588e-28
-1.013294e-28
2.533235e-28
-3.374731e-40
-2.026588e-28
3.039882e-28
1.2449739e-52
5.6274316e-41
1.6873655e-40
2.2498207e-40
1.2239456e-43
8.417466e-41
6.079764e-28
-1.519941e-28
1.013294e-28
0
1.519941e-28
-5.6231116e-41
-2.2498207e-40
1.6873655e-40
-5.5871651e-41
1.013294e-28
5.06647e-29
0
-5.2691398e-55
-8.4382674e-41
1.519941e-28
-2.2486687e-40
-2.026588e-28
6.079764e-28
4.053176e-28
1.013294e-28
6.2319896e-53
1.519941e-28
0
0
0
1.013294e-28
-1.519941e-28
-3.039882e-28
3.3798157e-40
1.519941e-28
4.559823e-28
-1.6860591e-40
-5.0620965e-40
-2.026588e-28
8.4367099e-41
-6.079764e-28
0
3.039882e-28
-2.8077702e-52
1.519941e-28
-1.1248947e-40
4.053176e-28
0
1.2159528e-27
1.2959796e-43
2.2498207e-40
-5.06647e-29
1.519941e-28
-4.559823e-28
4.2205737e-40
6.079764e-28
-3.039882e-28
5.0629604e-40
1.013294e-28
-1.013294e-28
2.533235e-28
-4.053176e-28
1.013294e-28
-6.749462e-40
-5.06647e-29
-1.013294e-28
-1.519941e-28
-3.546529e-28
9.119646e-28
3.039882e-28
0
5.06647e-29
-1.4246086e-55
-1.9515332e-56
5.06647e-29
-1.4399774e-44
5.06647e-29
-4.6836798e-55
-3.039882e-28
-1.519941e-28
-7.599705e-28
6.079764e-28
4.053176e-28
0
-5.06647e-28
-5.06647e-29
-3.8487812e-43
-3.039882e-28
8.4382674e-41
5.935512e-56
5.06647e-29
0
-1.013294e-28
5.6330261e-41
-1.519941e-28
2.5310482e-40
-3.039882e-28
-5.7599095e-44
8.6597577e-43
0
-6.079764e-28
2.026588e-28
-1.0639587e-27
-6.079764e-28
7.599705e-28
5.06647e-29
-1.1220487e-40
2.8201997e-41
-2.026588e-28
-2.026588e-28
5.6245516e-41
-1.519941e-28
-3.546529e-28
-3.039882e-28
2.533235e-28
-1.6873655e-40
-1.013294e-28
5.0620965e-40
6.079764e-28
0
0
5.5650455e-41
2.2501086e-40
-2.8042736e-41
1.519941e-28
-5.06647e-29
-4.2176937e-40
-8.4368274e-40
-3.039882e-28
-2.8174717e-41
2.8115558e-41
-1.1249103e-40
-1.519941e-28
2.026588e-28
-3.5999434e-44
1.4061379e-40
-1.1247663e-40
5.06647e-29
0
-2.533235e-28
1.013294e-28
-5.06647e-29
1.013294e-28
0
-1.519941e-28
5.06647e-29
1.013294e-28
-4.559823e-28
6.7506139e-40
5.0620965e-40
-1.013294e-28
-3.3749199e-40
-2.1599661e-44
-3.546529e-28
-1.519941e-28
-1.013294e-28
-5.06647e-29
-2.026588e-28
0
1.519941e-28
-1.013294e-28
1.4244871e-55
5.06647e-29
1.1250543e-40
1.319186e-67
-2.8799547e-44
-3.039882e-28
1.519941e-28
4.559823e-28
0
-1.013294e-28
0
-1.4399774e-44
1.013294e-28
5.06647e-29
2.8143749e-41
5.06647e-29
1.013294e-28
0
-4.053176e-28
-3.039882e-28
4.559823e-28
-1.519941e-28
3.546529e-28
-4.3199321e-44
1.519941e-28
4.053176e-28
-5.06647e-29
2.5314802e-40
8.106352e-28
-6.749462e-40
-1.519941e-28
-5.06647e-29
-1.519941e-28
-1.1246587e-40
-1.519941e-28
-2.026588e-28
-1.519941e-28
-2.8799547e-44
1.519941e-28
-1.519941e-28
4.559823e-28
5.6427586e-41
2.3592589e-44
-1.519941e-28
-6.079764e-28
5.06647e-28
-2.533235e-28
1.519941e-28
-1.1251306e-40
3.039882e-28
-1.013294e-28
5.0629604e-40
3.039882e-28
0
1.7105694e-43
-2.3737069e-56
2.026588e-28
-1.519941e-28
-3.7554388e-82
3.4211388e-43
7.26992e-43
-5.6245516e-41
-5.06647e-29
-1.013294e-28
7.6238089e-43
-1.013294e-28
-7.599705e-28
4.559823e-28
1.519941e-28
-5.8500258e-67
1.519941e-28
8.4134107e-41
5.06647e-29
-2.7796753e-43
-3.4211388e-43
5.06647e-29
-1.013294e-28
5.0620965e-40
-1.013294e-28
1.0639587e-27
1.6882295e-40
6.7503259e-40
-2.2495327e-40
-1.013294e-28
4.053176e-28
-5.06647e-29
6.079764e-28
-1.519941e-28
-3.039882e-28
0
-1.013294e-28
6.749462e-40
1.4399774e-43
0
1.519941e-28
2.533235e-28
-5.06647e-29
-1.1212007e-40
-1.013294e-28
2.026588e-28
-4.74748e-56
1.013294e-28
1.013294e-28
3.374731e-40
-5.6245516e-41
2.8448996e-41
1.013294e-28
5.06647e-29
-2.026588e-28
1.4061379e-40
2.026588e-28
1.013294e-28
-4.2764235e-44
-3.039882e-28
2.533235e-28
-2.533235e-28
-2.8158281e-52
1.013294e-28
-2.2503966e-40
5.06647e-28
5.06647e-28
4.4990653e-40
-5.0625285e-40
5.0625285e-40
-1.013294e-28
1.013294e-28
3.546529e-28
-4.559823e-28
0
0
3.039882e-28
-5.6245516e-41
2.1599661e-44
1.1249103e-40
7.7145476e-56
0
1.013294e-28
1.2829271e-43
-5.06647e-29
-4.053176e-28
-6.079764e-28
-2.026588e-28
-3.039882e-28
-3.374731e-40
1.6867853e-40
5.06647e-28
2.026588e-28
0
-6.4146353e-44
1.013294e-28
1.519941e-28
-2.026588e-28
-2.1382118e-44
-5.6245516e-41
-3.039882e-28
-1.519941e-28
-7.599705e-28
3.039882e-28
1.519941e-28
-4.559823e-28
-6.2296162e-53
-2.026588e-28
-4.053176e-28
-1.6869335e-40
2.026588e-28
4.053176e-28
-2.026588e-28
-3.039882e-28
0
1.013294e-28
2.026588e-28
-1.1254863e-40
5.06647e-29
1.013294e-28
1.013294e-28
3.039882e-28
0
0
1.1249103e-40
1.6875815e-40
5.6245516e-41
-3.039882e-28
-3.039882e-28
0
0
3.374299e-40
1.519941e-28
-3.039882e-28
2.026588e-28
-2.8115558e-41
-7.1998869e-45
-1.519941e-28
-4.053176e-28
2.026588e-28
3.039882e-28
1.013294e-28
0
3.039882e-28
-2.026588e-28
8.3950148e-41
5.6250631e-41
-5.06647e-29
-2.026588e-28
-1.013294e-28
-6.079764e-28
-5.6256529e-41
1.1247663e-40
1.013294e-28
-2.026588e-28
-1.519941e-28
0
1.519941e-28
-3.039882e-28
-4.053176e-28
2.026588e-28
-5.6231116e-41
3.039882e-28
-3.039882e-28
-1.1249103e-40
3.039882e-28
0
-3.039882e-28
-1.013294e-28
0
-4.559823e-28
-1.013294e-28
-2.8799547e-44
1.548397e-44
1.013294e-28
5.6231116e-41
-1.013294e-28
-5.6256529e-41
-1.6873655e-40
2.026588e-28
-2.026588e-28
-1.6873655e-40
-2.026588e-28
0
0
0
0
3.039882e-28
5.6259916e-41
-2.026588e-28
5.06647e-29
-2.026588e-28
-5.0629604e-40
-3.039882e-28
-2.026588e-28
-2.8129958e-40
1.519941e-28
-3.039882e-28
5.0629604e-40
3.039882e-28
-4.053176e-28
-2.026588e-28
2.026588e-28
1.013294e-28
0
0
0
0
-3.546529e-28
4.053176e-28
1.519941e-28
5.6245516e-41
5.1656655e-85
1.519941e-28
4.053176e-28
1.013294e-28
-3.039882e-28
-7.599705e-28
2.026588e-28
2.026588e-28
-1.519941e-28
-3.039882e-28
7.599705e-28
3.039882e-28
5.06647e-29
3.1481534e-53
1.013294e-28
0
-5.06647e-29
1.519941e-28
-5.6245516e-40
-1.1519819e-43
-6.748886e-40
-5.06647e-29
-1.519941e-28
7.1998869e-44
4.053176e-28
3.039882e-28
-5.0616645e-40
-2.026588e-28
0
0
0
-3.039882e-28
-3.039882e-28
2.533235e-28
-1.6876627e-40
1.519941e-28
-3.039882e-28
-1.0639587e-27
0
5.06647e-28
2.8115558e-40
3.039882e-28
7.599705e-28
-1.519941e-28
2.5310482e-40
-1.1250126e-40
-6.7500379e-40
6.0607465e-43
-1.5701405e-53
-7.1998869e-45
-2.1158252e-59
-1.013294e-28
4.053176e-28
3.039882e-28
-6.079764e-28
3.039882e-28
5.7599095e-44
-5.6259916e-41
-5.456053e-44
-6.079764e-28
2.026588e-28
-9.7576662e-57
-1.519941e-28
4.2191337e-40
2.026588e-28
2.7994074e-41
0
-3.1035616e-53
-1.519941e-28
2.8799547e-44
1.013294e-28
5.06647e-29
-1.013294e-28
-1.519941e-28
7.093058e-28
-2.026588e-28
2.8115558e-40
-1.1249679e-39
-1.1250543e-40
5.06647e-28
-6.079764e-28
-5.06647e-29
-4.053176e-28
-5.06647e-29
2.8165521e-43
3.039882e-28
-8.4382674e-41
3.039882e-28
0
0
-3.039882e-28
-5.06647e-29
-4.053176e-28
6.079764e-28
1.4399774e-43
-1.1249103e-39
-1.1249103e-40
-1.013294e-28
2.026588e-28
2.2509985e-40
1.519941e-28
4.559823e-28
5.06647e-29
2.1382118e-44
0
0
5.06647e-29
8.4368274e-41
4.559823e-28
2.8799547e-44
-3.039882e-28
-1.519941e-28
-5.6231116e-41
-7.599705e-28
-7.8743723e-40
7.093058e-28
0
1.013294e-28
1.013294e-28
2.533235e-28
-5.6252716e-40
-5.06647e-29
1.013294e-28
-5.06647e-29
0
0
0
0
-2.4478912e-43
2.8122758e-41
1.6865309e-40
2.533235e-28
9.119646e-28
-1.0639587e-27
-4.053176e-28
7.093058e-28
2.026588e-28
5.9052752e-40
-1.6719351e-27
4.0319366e-43
3.7125209e-39
1.519941e-27
3.8505172e-27
2.6345644e-27
4.1048715e-39
-5.06647e-27
-6.6370757e-27
-8.7649931e-27
-1.1956869e-26
3.5772148e-38
4.3064995e-26
0
0
5.1120682e-26
1.1380309e-37
1.2966996e-41
-1.7265329e-41
-1.6151906e-25
-4.2973798e-25
-5.7159914e-25
7.5885587e-25
5.5902905e-37
6.6720343e-25
2.6498651e-24
0
0
-2.0387475e-24
-2.6886743e-24
0
4.6632803e-24
-3.4038662e-36
-8.0555859e-24
1.0571139e-23
-2.7714908e-23
6.0436538e-35
7.1213947e-23
-3.1018094e-23
-4.0486972e-23
-1.0557652e-22
6.8750072e-23
2.6831154e-22
-1.1621656e-22
8.3749327e-35
-3.9110189e-22
-2.5321477e-22
6.5498159e-22
-8.4608488e-22
2.1267029e-49
1.4066468e-21
0
0
-2.9870864e-21
2.1235296e-33
8.1664165e-33
1.1785284e-48
1.2008866e-20
5.6675929e-33
-6.5004235e-21
-1.6532795e-20
-2.0994568e-20
2.6622313e-20
3.7422889e-32
2.1310621e-20
8.9618783e-32
-3.3915001e-20
8.5374719e-20
0
6.7311551e-20
-9.358917e-32
-1.0546779e-19
-2.6339441e-19
-1.822158e-31
4.0865293e-19
0
0
3.8983564e-19
-2.6744036e-31
-1.7832308e-18
-8.1262117e-31
1.7994973e-18
0
-1.3517408e-18
1.6520602e-18
2.0151435e-18
2.4531322e-18
2.9802846e-18
-7.2265829e-18
-1.3114881e-17
5.2779368e-18
1.2716923e-17
-2.2930495e-17
6.3685457e-46
2.19432e-17
0
0
0
0
-5.2010514e-17
-6.1361287e-17
3.6105827e-17
1.2714633e-16
5.5114745e-29
-5.7943041e-17
1.3496145e-16
1.5675115e-16
-9.0779261e-17
-4.1941084e-16
-2.4153057e-16
4.1608071e-16
3.1763968e-16
-5.4399042e-16
-4.5823861e-28
4.6850294e-16
0
0
0
-7.5335552e-16
-4.6716441e-28
1.0405445e-27
-5.2008169e-16
1.7259628e-15
-6.3430029e-16
-6.9696755e-16
2.2896624e-15
1.6658085e-15
-9.0580486e-16
-1.9632979e-15
-2.1202008e-15
3.7998954e-27
-1.3582404e-27
3.714072e-31
2.7820159e-15
0
1.5586802e-15
1.6406509e-15
-1.7203213e-15
-1.79685e-15
1.869367e-15
1.9369831e-15
-3.9976039e-15
-2.0539321e-15
2.1015011e-15
-2.1406707e-15
2.1706536e-15
4.3814676e-15
0
0
-6.5523419e-15
-2.1580019e-15
4.2399072e-15
2.0700926e-15
2.0087438e-15
-3.872866e-15
2.0591738e-27
3.5242596e-15
0
-1.5556426e-15
-4.3313558e-15
-2.9488769e-27
6.7222344e-27
-2.1867128e-15
2.9319453e-15
8.6442676e-16
2.1492001e-31
-6.5389445e-16
9.3011747e-28
7.8491841e-28
-1.1770491e-15
9.6646556e-16
-1.3027211e-27
3.4617006e-28
3.2620443e-16
-1.2590621e-16
9.5550039e-17
-1.4250022e-16
-5.218519e-17
7.5092017e-17
-5.3112066e-17
1.0518112e-32
9.9155504e-29
4.9887472e-33
4.0656507e-29
-8.7564936e-18
1.0059285e-17
1.8476595e-29
-7.5389671e-18
4.7431601e-18
4.5586781e-18
-4.3062808e-18
6.7681196e-30
5.7590346e-18
-1.8898951e-30
-4.6713859e-18
9.1895797e-34
3.576303e-18
-3.2397283e-18
-4.7301156e-30
4.6884743e-30
-1.7844233e-30
3.4768303e-18
-3.2921682e-18
-2.808689e-18
0
3.3438806e-18
2.7971053e-18
-5.3318644e-18
3.8365268e-30
2.9207944e-30
8.256347e-19
1.1603608e-18
3.4896161e-31
-7.8369141e-31
-6.148403e-19
4.188596e-19
-3.0729116e-31
2.9386683e-19
1.0914353e-30
-9.1465973e-19
0
-3.2862936e-18
-3.4577168e-18
3.5558366e-18
1.7601077e-18
1.5246964e-18
2.8892834e-18
0
-1.1749516e-18
-9.1144222e-18
-6.8270781e-18
-2.2027111e-19
1.3839296e-29
-9.9304537e-31
-8.2769932e-31
1.0055995e-18
-4.6624136e-19
2.1977185e-18
7.0287974e-19
-7.7874874e-19
-4.9541964e-19
0
0
3.9533228e-19
2.5441456e-19
0
3.3793704e-20
1.8877526e-19
-7.651046e-19
8.6042621e-31
4.9483003e-19
1.5956619e-30
-6.4350698e-19
-1.1322446e-18
1.5168983e-18
-2.0392903e-30
-1.918411e-18
1.9394532e-18
1.0602358e-18
-2.2567258e-18
9.5670508e-19
1.5014754e-18
-1.5024349e-18
-1.6643758e-18
0
8.9967488e-19
1.8028461e-19