/*--------------------------------*- C++ -*----------------------------------*\
  =========                 |
  \\      /  F ield         | OpenFOAM: The Open Source CFD Toolbox
   \\    /   O peration     | Website:  https://openfoam.org
    \\  /    A nd           | Version:  7
     \\/     M anipulation  |
\*---------------------------------------------------------------------------*/
FoamFile
{
    version     2.0;
    format      ascii;
    class       volScalarField;
    location    "0.00172";
    object      Uz;
}
// * * * * * * * * * * * * * * * * * * * * * * * * * * * * * * * * * * * * * //

dimensions      [0 1 -1 0 0 0 0];

internalField   nonuniform List<scalar> 
5000
(
0
0
0
0
0
1.5157386e-18
3.4264168e-33
-5.188043e-18
-1.8607051e-18
3.7949199e-18
3.7167654e-18
-1.7500054e-18
1.1945084e-32
1.085487e-32
-2.5230323e-18
2.5717511e-18
1.1165837e-47
1.204359e-32
1.3291333e-18
-2.2172557e-18
-9.3683583e-19
0
0
1.0347691e-18
-8.7108477e-33
8.0466181e-33
8.8797518e-19
-8.5187899e-19
-8.5754335e-19
8.427632e-19
-1.4200014e-32
6.616709e-33
7.5125436e-19
-7.3303803e-19
-7.0891208e-19
0
0
6.4383389e-19
6.2429272e-19
-6.0598904e-19
9.8838226e-33
5.7365456e-19
-5.589551e-19
9.221282e-33
5.3262071e-19
-5.2095025e-19
1.7548546e-32
-1.7144962e-32
1.6918593e-32
-8.2591839e-33
-4.7768284e-19
0
0
0
0
0
0
0
0
0
0
0
0
4.1482866e-19
4.2368847e-19
-4.461701e-19
8.1090505e-33
-1.0052421e-48
-4.9277401e-19
0
0
5.1270749e-19
5.3433042e-19
0
-5.4950196e-19
-1.9391671e-32
5.7961505e-19
5.9391219e-19
-6.0135772e-19
-1.2184589e-18
1.2523741e-18
-3.6763739e-34
-1.9928268e-18
1.3542804e-18
7.1638504e-32
-1.413947e-18
2.1835664e-18
-7.4195272e-19
-7.5007288e-19
7.6174535e-19
-7.8264499e-19
-8.0850753e-19
-2.9011863e-32
1.705555e-18
5.9974845e-32
8.804946e-19
9.000844e-19
3.2465407e-32
-6.6121675e-32
-1.940737e-18
-9.9034867e-19
1.0152399e-18
-1.4814252e-34
-1.0650594e-18
0
1.100563e-18
3.9242487e-32
-1.1585345e-18
1.187294e-18
1.209027e-18
-2.4567184e-18
-1.2540885e-18
3.8623117e-18
1.3214841e-18
-4.045066e-18
1.3685158e-18
1.3896168e-18
8.0625556e-34
1.454277e-18
-4.4705969e-18
1.0642677e-31
3.1007937e-18
-3.1534426e-18
-1.6058371e-18
1.639138e-18
-1.6742714e-18
1.7080727e-18
3.4792567e-18
-1.770562e-18
-6.2252172e-32
-1.8363403e-18
-3.7410197e-18
1.9047092e-18
1.9395212e-18
1.9758925e-18
7.0116689e-32
7.1155215e-32
-7.2709031e-32
-4.2433099e-18
-2.1536163e-18
2.1874845e-18
4.4514289e-18
2.2680838e-18
2.3113796e-18
-1.6306024e-31
-4.7725139e-18
6.8762721e-34
-6.9792126e-34
1.688713e-47
-2.5415879e-18
1.7922859e-31
-3.6527739e-31
-2.6587964e-18
2.6967146e-18
-2.7388185e-18
-9.6497555e-32
2.8252104e-18
-2.8644405e-18
4.1263432e-34
2.9464114e-18
0
-3.0383439e-18
-2.131776e-31
6.2387661e-18
-3.1594752e-18
9.1025738e-34
3.2474213e-18
-3.2910325e-18
3.333281e-18
-3.3764323e-18
1.4258803e-30
9.6234739e-31
-3.5147581e-18
7.1149367e-18
0
2.5261884e-31
7.6748688e-31
-3.736298e-18
-3.7822994e-18
-2.6373344e-31
3.8703933e-18
-3.9154609e-18
-2.7249181e-31
-1.7087848e-33
-5.6168235e-31
8.1978314e-18
-4.1440756e-18
-4.1896008e-18
2.9130164e-31
-2.9503719e-31
8.9943176e-31
-3.0196306e-31
4.4191399e-18
0
0
0
0
4.6481016e-18
-9.7799745e-31
-4.7369754e-18
-4.7851587e-18
4.8333208e-18
4.8789145e-18
-9.8436403e-18
-3.435651e-31
1.0398689e-30
5.054118e-18
5.0991529e-18
-5.1422804e-18
0
-5.2272738e-18
-3.648753e-31
5.3184382e-18
5.3638497e-18
-7.5296351e-31
-5.4464085e-18
1.0969295e-17
-5.5239358e-18
-5.5659851e-18
5.6100538e-18
-5.6533404e-18
0
0
0
-5.8072554e-18
5.8480558e-18
1.177604e-17
-5.925697e-18
4.1429598e-31
-5.9982157e-18
-6.0354338e-18
1.2145495e-17
-1.7363272e-33
1.7463744e-33
-6.1793472e-18
-6.2141181e-18
1.2497512e-17
-8.9286269e-34
1.3159474e-30
-6.3498123e-18
3.5446811e-30
8.8977202e-31
-6.4472691e-18
6.4789309e-18
0
6.5411231e-18
-6.5716441e-18
-6.6017124e-18
6.6312858e-18
0
6.6888715e-18
-6.7168886e-18
-6.7445315e-18
2.3510829e-30
1.3599987e-17
1.3656599e-17
-2.0570612e-17
-1.3769497e-17
0
1.3865225e-17
6.9541574e-18
-6.977686e-18
-7.0046602e-18
-7.0327144e-18
1.4114556e-17
1.4154777e-17
-7.0965387e-18
-1.4235789e-17
-1.9808963e-30
1.4327341e-17
-7.1847634e-18
9.9938004e-31
7.2269798e-18
-1.4498148e-17
7.2689582e-18
-1.0145324e-30
-7.2987572e-18
7.3139853e-18
-7.3322117e-18
1.4706615e-17
-3.0766636e-30
-1.4782777e-17
1.4811186e-17
5.1341685e-31
-7.4329029e-18
0
0
-7.4777464e-18
7.4871933e-18
1.4996521e-17
-7.5131363e-18
2.1396768e-33
-7.5394482e-18
-7.5476862e-18
7.5561808e-18
0
7.5789287e-18
7.5911683e-18
0
-1.5200579e-17
-7.6047488e-18
1.523056e-17
-5.2789187e-31
2.1698563e-33
-7.6356628e-18
-7.6361235e-18
7.6406844e-18
-7.6484176e-18
7.6547685e-18
-4.3539712e-33
-1.5328342e-17
7.6646639e-18
7.661375e-18
7.6587332e-18
1.062728e-30
-7.6682461e-18
0
0
7.6572122e-18
-1.0632182e-30
2.1265316e-30
1.064815e-30
-7.6539868e-18
7.6439271e-18
-1.0859851e-33
-7.6441129e-18
0
0
0
0
0
0
0
7.5806007e-18
0
-7.5723758e-18
0
7.5553858e-18
2.0912382e-30
-7.528715e-18
0
0
7.4833793e-18
1.0363533e-30
-7.4574969e-18
0
0
7.4226335e-18
7.393406e-18
-7.3734984e-18
-7.3679129e-18
0
7.3508884e-18
-1.0411145e-33
-7.3024288e-18
7.2893827e-18
7.2797282e-18
-7.260549e-18
-7.2362698e-18
0
7.1986716e-18
7.1864107e-18
-7.1639576e-18
-7.1354936e-18
0
7.0932555e-18
7.0814248e-18
-7.0617837e-18
-7.0348545e-18
0
0
0
0
0
0
0
0
6.8302619e-18
1.9941101e-47
-6.7754743e-18
0
0
0
6.6740466e-18
9.2259693e-31
-6.6219416e-18
6.58766e-18
-9.1037466e-31
9.2841273e-34
9.041511e-31
-6.48781e-18
6.4590805e-18
-6.4283084e-18
3.556626e-30
6.3753067e-18
-6.3462897e-18
0
0
6.2566519e-18
8.6491447e-31
-6.2022196e-18
6.1725498e-18
6.1403475e-18
0
-6.0794249e-18
-6.0510939e-18
6.0241797e-18
1.6640316e-30
-6.345114e-48
8.2318613e-31
-5.8971719e-18
5.8684756e-18
2.1332852e-47
8.069478e-31
5.7791644e-18
0
0
-5.6872763e-18
-8.0409166e-34
2.3411457e-30
-5.5935271e-18
0
0
5.5045214e-18
-1.517724e-30
-5.4413809e-18
0
0
0
5.3167936e-18
-7.5117153e-34
-5.2566216e-18
5.2280796e-18
-5.1979898e-18
1.4359543e-30
1.0268159e-17
-5.103687e-18
-2.113486e-30
-7.003874e-31
6.9619579e-31
4.9837372e-18
0
0
-4.8942449e-18
-6.7559871e-31
1.3423349e-30
-1.5136973e-48
4.774209e-18
-4.7447243e-18
-4.7173265e-18
0
4.6618073e-18
6.429746e-31
-4.6004217e-18
0
0
4.5185257e-18
-1.2760673e-33
-1.3893564e-48
4.4325486e-18
-4.4063964e-18
6.0678405e-31
-6.0409185e-31
1.1996724e-30
4.2956351e-18
-4.2706061e-18
1.1788965e-30
-1.1720196e-30
1.1641623e-30
4.1630434e-18
-4.1371637e-18
1.141743e-30
-5.6858615e-31
0
4.036021e-18
-4.0096442e-18
5.5314003e-31
-5.6272894e-34
5.4648932e-31
-5.4359728e-31
-3.8855807e-18
3.8603956e-18
3.8368156e-18
-3.8142099e-18
-3.7907931e-18
0
3.7419165e-18
3.7188171e-18
0
-3.6731984e-18
5.0678174e-31
-5.1548675e-34
-4.9994447e-31
3.5813841e-18
-3.5585614e-18
-4.9057508e-31
9.7640912e-31
3.4947833e-18
3.4717626e-18
-6.8973108e-18
4.8699563e-34
-4.7250463e-31
-3.3867989e-18
3.3656823e-18
-4.642199e-31
-3.3220164e-18
0
0
0
3.2402859e-18
3.2203388e-18
-3.2004435e-18
-3.1800114e-18
0
3.1397604e-18
3.1204555e-18
-3.100686e-18
-3.080438e-18
0
3.0414741e-18
3.0225769e-18
-3.0031954e-18
-8.2853252e-31
2.9649571e-18
0
0
0
0
-2.87058e-18
7.9137235e-31
2.83369e-18
-2.8136919e-18
-3.8798166e-31
3.8586447e-31
-8.3385936e-49
-2.7410705e-18
-2.7221591e-18
5.4067359e-18
3.728459e-31
-3.6998893e-31
2.6492704e-18
0
-2.6126819e-18
-2.5951211e-18
2.5771432e-18
7.097281e-31
-2.5399992e-18
0
0
2.4874907e-18
-3.4247589e-31
-2.4507371e-18
0
2.4152537e-18
-3.4071204e-34
6.6071837e-31
3.2752127e-31
-2.343824e-18
2.326314e-18
-3.2804284e-34
6.3595219e-31
2.2724357e-18
-2.2550422e-18
-6.2129877e-31
-3.1539923e-34
3.0563545e-31
2.1838217e-18
-2.1666528e-18
0
1.1830154e-30
2.9299095e-31
8.7162506e-31
2.952381e-34
2.0602061e-18
-2.0424045e-18
-3.4809929e-48
2.7856939e-31
-5.5222639e-31
2.7368843e-31
-3.9076995e-18
1.936217e-18
1.9183168e-18
2.6385897e-31
-2.6140468e-31
-3.7303071e-18
1.8474942e-18
1.8299043e-18
-8.3440417e-49
0
-8.5483007e-49
1.7597023e-18
-1.7419571e-18
-8.3817133e-49
2.3676641e-31
2.4012718e-34
1.6724236e-18
-3.3100284e-18
-4.5469971e-31
1.6199915e-18
-2.2228057e-31
2.1989029e-31
-1.5682108e-18
1.5509963e-18
3.3253888e-48
6.3187987e-31
-4.1658058e-31
4.1143841e-31
4.0692358e-31
-8.1594158e-49
0
-1.4147024e-18
0
0
1.3642634e-18
3.7423882e-31
-1.3312162e-18
0
0
2.5632552e-18
1.0534365e-30
-2.4986123e-18
1.2330868e-18
-1.7292119e-34
1.6670454e-31
1.1847866e-18
0
0
0
1.1218459e-18
3.0688204e-31
-1.0908963e-18
0
0
1.0451617e-18
-1.463862e-34
-1.0151638e-18
0
0
9.7078553e-19
2.6526097e-31
2.6167406e-31
-2.5757284e-31
-9.1333091e-19
8.9913209e-19
-2.456406e-31
2.4179e-31
-2.3786221e-31
-8.4386178e-19
0
0
8.0354789e-19
1.5720405e-47
-7.7736825e-19
0
0
7.3872284e-19
9.5482104e-48
-7.1387791e-19
0
0
6.7734089e-19
9.2210506e-48
-6.534378e-19
0
0
6.1894403e-19
-8.6365592e-35
-5.9662003e-19
5.8554205e-19
-1.5962442e-31
1.5662019e-31
-1.5359321e-31
-5.4270992e-19
0
0
0
0
0
4.8259698e-19
-1.3129468e-31
-4.6362607e-19
0
0
0
0
0
0
0
3.9286894e-19
-2.1347899e-31
-3.7647612e-19
0
0
0
0
0
0
0
3.1591204e-19
-8.5710282e-32
-3.019322e-19
0
0
2.8211241e-19
-7.6585759e-32
-2.6927819e-19
0
0
0
2.4512395e-19
6.6511241e-32
-2.3373963e-19
0
0
0
0
0
0
0
1.9208803e-19
-2.6621387e-35
-1.8270296e-19
0
0
0
0
0
0
0
1.4858491e-19
2.0559797e-35
-1.4084698e-19
0
0
0
1.2636696e-19
-6.8241914e-32
-1.1955098e-19
0
1.1308375e-19
3.0536505e-32
-1.0679605e-19
0
0
9.7933995e-20
9.5100647e-20
-9.2302455e-20
-8.9561639e-20
0
0
0
0
-7.6836256e-20
1.0578601e-35
1.4423853e-19
6.9857837e-20
-1.3524615e-19
-1.3083566e-19
6.3264706e-20
6.118553e-20
0
0
0
0
5.1446221e-20
1.378798e-32
-4.7891025e-20
0
0
0
0
0
0
0
0
0
0
0
0
0
0
2.6168455e-20
-1.3889761e-32
-2.3867574e-20
0
0
-2.0649386e-20
5.4545795e-33
-2.6525919e-36
1.7727915e-20
1.6841337e-20
8.873089e-33
-4.1983128e-33
-1.4241859e-20
0
0
0
0
0
9.8667348e-21
-5.0965752e-33
-8.5068519e-21
0
0
0
0
0
0
0
4.2470922e-21
-2.1033406e-33
-3.3775335e-21
0
0
0
0
0
0
0
6.7839579e-22
-3.4690834e-34
-1.6274373e-22
0
0
0
0
0
0
0
0
-1.4535666e-21
2.2402132e-37
1.7134591e-21
0
0
0
0
-2.1529418e-21
2.2150288e-21
2.2903539e-21
-4.7187395e-21
-6.6800908e-34
2.433314e-21
0
0
0
0
-2.586487e-21
7.1833694e-34
5.155131e-21
-2.5830227e-21
-2.6211264e-21
2.664952e-21
0
0
0
-2.6541884e-21
-7.4698141e-34
2.7274687e-21
2.7249419e-21
-2.7042856e-21
-2.685484e-21
2.6961227e-21
0
0
-2.8181935e-21
-2.821551e-21
2.813957e-21
2.8201266e-21
2.8619382e-21
1.6204748e-33
-2.9599447e-21
0
0
0
-2.9997219e-21
-3.0505045e-21
3.113993e-21
3.1773692e-21
3.2132546e-21
8.9509729e-34
-3.2334937e-21
0
0
0
-3.3525003e-21
9.5232599e-34
3.4725825e-21
0
0
0
0
0
0
0
-3.6036222e-21
1.0141408e-33
7.3415308e-21
1.0073488e-33
-3.5597949e-21
0
0
-3.6807808e-21
5.2392963e-37
-1.0190683e-33
9.9306723e-34
3.5032276e-21
3.5307457e-21
-9.9383936e-34
-3.6029889e-21
0
0
-3.4074343e-21
2.7928777e-33
9.3586244e-34
-4.8030692e-37
3.3524594e-21
-3.2982097e-21
-3.2028797e-21
6.2277576e-21
-1.7069136e-33
-3.0687342e-21
3.0300505e-21
0
-2.857574e-21
-7.7496891e-34
2.7383035e-21
0
-2.6004342e-21
2.4964039e-21
-2.6744441e-33
-2.3598715e-21
2.3097587e-21
0
-2.1271944e-21
0
1.9448146e-21
0
-1.834868e-21
1.7520912e-21
-9.1915524e-34
-1.5628318e-21
1.487389e-21
0
-1.3696626e-21
-3.5645721e-34
1.1896047e-21
0
-1.0589401e-21
1.0138422e-21
-2.715991e-37
-8.7293528e-22
7.8857329e-22
0
-6.9032931e-22
-6.6070548e-22
6.1626176e-22
5.4961922e-22
-4.7804234e-22
4.2614521e-22
4.0133839e-22
-3.8911751e-22
0
0
0
0
0
0
-2.0315307e-22
-3.9638131e-52
3.6644704e-22
-1.4289501e-22
-1.0256593e-22
8.7156984e-23
0
0
-1.3912819e-22
-1.3836581e-22
1.1769769e-22
8.7963765e-23
0
-8.6174592e-23
-3.1926927e-35
1.4220392e-22
0
0
-1.481163e-22
-1.3593162e-22
1.3438016e-22
1.4935502e-22
0
-1.9754077e-22
5.8257037e-35
2.11258e-22
-2.1428938e-22
-1.259178e-34
-3.4796785e-38
-2.5967773e-22
2.6550837e-22
2.6947384e-22
0
0
-3.2977963e-22
9.5624042e-35
3.445634e-22
0
-3.6454217e-22
-3.9751395e-22
4.3354961e-22
4.5849269e-22
0
0
0
0
0
0
-6.2235057e-22
1.7922831e-34
6.7975675e-22
0
0
0
0
0
0
-9.6924869e-22
2.7446735e-51
1.0819981e-21
1.1292674e-21
3.2701498e-34
-1.2376644e-21
0
0
0
0
-1.5496772e-21
-4.4837826e-34
1.6805548e-21
-1.7436334e-21
-1.8087786e-21
1.8782677e-21
-1.0841714e-33
-1.6858097e-33
-1.7367844e-33
5.9604481e-34
-1.2224503e-33
6.2842747e-34
2.3463156e-21
0
-2.5009205e-21
2.1205759e-33
-3.6755902e-37
-2.6157549e-21
2.666209e-21
2.7625129e-21
-2.8589972e-21
8.1178118e-34
-2.4654559e-33
-1.6622652e-33
-1.6737462e-33
8.4096101e-34
-1.7048276e-33
-3.144696e-21
3.2092627e-21
3.2471457e-21
-3.2704067e-21
9.107471e-34
-3.6324568e-33
-9.079901e-34
9.2030844e-34
9.3364908e-34
9.4130675e-34
-3.3955241e-21
0
3.3573879e-21
-9.3440315e-34
-1.7605976e-51
3.3946365e-21
0
-3.3318316e-21
3.2773002e-21
3.2740306e-21
-3.2814566e-21
0
0
0
0
-3.0816404e-21
8.5846155e-34
-1.7245451e-33
3.0873899e-21
3.0282729e-21
-2.9503185e-21
0
0
0
0
-2.7717149e-21
-3.8382053e-37
2.6625584e-21
0
0
0
0
0
0
0
-2.3290398e-21
-2.281076e-21
2.2171631e-21
2.1583265e-21
0
0
0
0
0
0
-1.8716514e-21
-1.8427062e-21
1.7996382e-21
1.7463219e-21
0
0
0
0
0
0
-1.4887904e-21
-1.4561441e-21
1.4311114e-21
1.4022948e-21
0
0
0
0
0
0
-1.1953424e-21
6.481257e-34
1.1532685e-21
0
0
0
0
0
0
-1.0302274e-21
2.8607943e-34
1.0359524e-21
0
0
0
0
-9.7437857e-22
-1.3983907e-37
9.9874949e-22
-1.0034434e-21
-9.6690971e-52
9.7620809e-22
-9.6631613e-22
5.3924083e-34
9.8853964e-22
-1.0101147e-21
-5.6860212e-34
-5.6927514e-34
8.3296169e-52
-5.7074091e-34
-2.885345e-34
1.0573324e-21
-1.075497e-21
-1.0921799e-21
2.2133046e-21
-6.2075049e-34
-2.2619185e-21
0
1.1629815e-21
-3.2913665e-34
-3.3598029e-34
-1.0229657e-33
-1.0325898e-33
-6.9409117e-34
1.0550052e-33
-7.1624977e-34
3.6754698e-34
1.3521946e-21
0
-1.3804521e-21
-1.9837904e-37
-1.1797154e-33
-1.2045262e-33
2.0942707e-37
8.2504368e-34
-4.1483729e-34
-1.5021349e-21
0
1.5544046e-21
-8.8563987e-34
-2.3022015e-37
1.6174279e-21
0
-1.5973139e-21
1.5985524e-21
1.6255504e-21
-1.6632051e-21
0
0
-1.7305765e-21
1.9331706e-33
-9.6485371e-34
9.6079967e-34
-4.787342e-34
1.7134306e-21
1.7126636e-21
-1.7308652e-21
0
0
0
0
-1.7439157e-21
-4.7947207e-34
-1.9057593e-33
1.726821e-21
1.7364983e-21
-1.7349661e-21
0
0
0
0
-1.6824661e-21
-1.6832997e-21
1.6707235e-21
1.6515164e-21
0
0
0
0
0
0
-1.5630474e-21
-1.5403556e-21
1.5170886e-21
1.4984151e-21
0
0
0
0
0
0
-1.4040722e-21
1.1648359e-33
2.7854917e-21
-1.3784585e-21
-4.0774768e-21
-1.3423947e-21
0
2.6461643e-21
-1.4589574e-33
-4.3315597e-33
-1.2866283e-21
-2.5536259e-21
2.5399416e-21
-1.2623174e-21
-1.250197e-21
1.2351614e-21
-1.2244242e-21
1.7346584e-37
1.2198136e-21
1.2165287e-21
-1.2085402e-21
-1.1984729e-21
1.1919776e-21
-1.1892533e-21
-1.6884991e-37
1.1839686e-21
0
0
0
2.3480475e-21
-1.1704208e-21
-2.3272016e-21
1.1593408e-21
-1.160308e-21
-1.1669718e-21
2.341675e-21
5.3161968e-51
-1.1532553e-21
1.147294e-21
2.2964843e-21
1.1575537e-21
-3.5008456e-21
1.1666354e-21
3.5638585e-51
-3.4767684e-21
2.3277844e-21
1.1719652e-21
1.1739037e-21
2.3283562e-21
-2.3034047e-21
-1.1466586e-21
-1.1531722e-21
1.1698467e-21
1.1849045e-21
-3.5590131e-21
1.1734733e-21
1.1590156e-21
-1.1494556e-21
-1.1475035e-21
-1.6421189e-37
3.5049761e-21
-1.1788501e-21
1.9620475e-33
-1.9430452e-33
-3.458442e-21
1.1420012e-21
1.1367173e-21
2.2786829e-21
-1.1475214e-21
-2.3038879e-21
2.293949e-21
-1.1346388e-21
1.1222033e-21
1.1140752e-21
-3.3336652e-21
1.112862e-21
1.1112365e-21
-2.2057229e-21
-1.0909487e-21
1.0791604e-21
3.2138713e-21
-1.0683146e-21
-4.2619783e-21
5.8715624e-34
2.088728e-21
1.0300315e-21
0
2.0254338e-21
2.2375484e-33
-3.0015723e-21
9.9005145e-22
-2.1756011e-33
9.7239496e-22
9.6422562e-22
-1.9048273e-21
0
0
0
-9.1451756e-22
5.0546234e-34
1.8017059e-21
-8.8843739e-22
-1.7550832e-21
2.6155908e-21
-2.9002465e-33
-1.7381056e-21
8.6224308e-22
0
0
0
1.6775281e-21
-8.3837386e-22
-1.6757913e-21
2.5173653e-21
-2.3944838e-37
-1.6883917e-21
0
0
-8.4058924e-22
4.7088767e-34
1.7211632e-21
-8.7160061e-22
-1.7509893e-21
2.6353485e-21
-1.4768186e-33
-1.8041836e-21
9.2290112e-22
-9.3988932e-22
1.8948771e-21
9.5330971e-22
-3.2138019e-33
-9.8579799e-22
-2.0299231e-21
3.1345747e-21
-6.0618823e-37
-1.0784063e-21
6.0591575e-34
-1.111519e-21
-1.138815e-21
6.5191484e-34
3.6348747e-21
-3.5265761e-37
-3.781402e-21
2.5598665e-21
-7.5731837e-50
-2.6674302e-21
1.37139e-21
-1.4136144e-21
2.8988119e-21
1.4738531e-21
-3.3232531e-33
-1.5219208e-21
-3.1038903e-21
-1.5923086e-21
-1.6370518e-21
5.0208872e-21
0
-1.7219817e-21
-9.6841022e-34
9.8292106e-34
-1.0059622e-33
1.8577589e-21
-2.1000434e-33
1.9143429e-21
-6.4467089e-33
-5.8482769e-21
3.9326244e-21
6.0236508e-21
2.0510165e-21
-6.2406217e-21
-4.1966245e-21
6.3310744e-21
-2.1096296e-21
-6.3495884e-21
0
0
2.2159141e-21
2.2286477e-21
0
-2.2114708e-21
-2.212759e-21
4.486127e-21
-5.0547383e-33
-6.8686662e-21
2.5398119e-33
2.2679189e-21
2.2426424e-21
2.2498762e-21
-2.2717942e-21
-2.2791961e-21
2.2715082e-21
6.6906282e-21
-2.1849844e-21
-8.7336634e-21
2.1986064e-21
4.4159399e-21
2.1993234e-21
0
-2.1154508e-21
0
-2.0801656e-21
2.0761103e-21
-4.5682475e-33
2.0067104e-21
-6.4994268e-33
-5.7720207e-21
1.9118952e-21
1.8968408e-21
-1.8646481e-21
-1.8132809e-21
1.7553949e-21
5.1257293e-21
-1.6806533e-21
-6.6234275e-21
2.7028211e-33
1.5786605e-21
3.0532543e-21
1.4731904e-21
-2.8465e-21
-7.6455787e-34
-1.8936967e-37
1.287218e-21
-2.7551015e-33
-1.1896873e-21
3.3978642e-21
-1.1941418e-33
-2.0504959e-21
0
0
-8.8198885e-22
4.5759583e-34
1.532931e-21
-7.1519827e-22
-1.3415263e-21
-6.2450115e-22
6.3430268e-34
1.5444688e-21
4.6130944e-22
-4.157857e-22
7.4947365e-22
-1.8731937e-37
-9.2167957e-34
-2.2099243e-22
-3.434923e-22
4.0123888e-22
-1.1225642e-34
-1.3024249e-22
0
0
-1.5821218e-22
2.5220664e-34
1.5306391e-34
4.613133e-38
5.7824293e-22
4.619446e-22
-4.5315338e-34
-9.115724e-22
-3.2224543e-22
3.3494827e-22
-7.00569e-22
-4.134156e-34
1.3377407e-33
4.2982565e-22
8.8934515e-22
-1.338575e-21
4.447588e-22
4.4741061e-22
-4.5751212e-22
4.7314992e-22
-9.6890738e-22
5.3560273e-34
4.697408e-22
6.4795262e-38
8.9246902e-22
-8.8635211e-22
7.3972229e-34
8.776367e-22
-4.198759e-22
0
3.6533148e-22
1.9020248e-34
-9.7941092e-22
3.1360026e-22
5.8790939e-22
2.6202901e-22
2.2271183e-22
-1.8372719e-22
-1.4946197e-22
-1.2196235e-22
9.6957043e-23
-3.5632102e-35
1.1236607e-35
2.8978913e-23
-8.6378338e-35
1.2100622e-22
-5.1540485e-34
-5.5460099e-22
4.4636282e-22
-2.2086637e-50
-3.311194e-22
-4.3094054e-34
2.440398e-34
1.4467907e-21
-5.1952023e-22
-1.6802318e-21
0
0
7.1841275e-22
7.7317553e-22
1.6410574e-21
-8.6196943e-22
-1.8089582e-21
1.9019093e-21
-1.0003907e-21
-3.1579876e-21
1.1020642e-21
1.1441165e-21
1.181886e-21
1.2203856e-21
-2.5209839e-21
-1.3044103e-21
1.3560668e-21
4.2034283e-21
-1.432166e-21
1.4443939e-49
-2.470162e-33
-3.0183373e-21
3.0971907e-21
3.2013207e-21
-1.6409501e-21
-3.3242152e-21
3.354351e-21
1.67707e-21
-5.0308758e-21
-5.121565e-21
1.7565046e-21
3.6018137e-21
1.8282376e-21
-1.0209596e-33
-3.6931086e-21
-1.8545852e-21
1.8572387e-21
3.7196925e-21
-2.6623324e-37
-3.7819183e-21
3.8040876e-21
-3.1718816e-33
-3.8122095e-21
1.9055843e-21
3.8045167e-21
3.7958815e-21
0
-1.8542538e-21
-5.5404107e-21
-1.8526403e-21
1.8588128e-21
0
0
0
0
-1.7603526e-21
9.7892968e-34
5.2686664e-21
-1.7355372e-21
-5.083871e-21
-1.6479371e-21
2.7028505e-33
3.2430545e-21
1.6220891e-21
-1.6105639e-21
3.1644377e-21
1.5480051e-21
-5.0201973e-33
-1.4687975e-21
-2.8973689e-21
4.3122297e-21
-4.0399344e-37
-1.3930779e-21
1.9295465e-37
-1.3195044e-21
-1.2858506e-21
1.4038393e-33
3.7316399e-21
-3.4615664e-37
-3.5550288e-21
-2.2897879e-21
6.1551526e-34
2.173325e-21
1.0724226e-21
-1.0510511e-21
2.0369032e-21
9.8082418e-22
-3.1368176e-33
-9.1232591e-22
-1.7918098e-21
2.6526689e-21
-9.6087681e-34
-8.3589304e-22
-8.0072843e-22
-7.6683901e-22
-4.1119851e-34
4.0232532e-34
1.4264866e-21
3.8725156e-34
-1.3501477e-21
1.2926915e-21
-3.0901304e-33
-1.7922615e-21
1.167091e-21
-6.3697373e-34
-1.1207184e-21
5.4056974e-22
5.1666834e-22
9.9049206e-22
-4.8192255e-22
-1.4269559e-21
0
0
0
1.2640748e-21
1.2095644e-21
-1.1856411e-21
-1.1854595e-21
7.9400985e-22
-1.1236787e-37
3.8765407e-22
-1.2493757e-33
-1.0893089e-21
1.0653161e-21
-1.747172e-33
-6.916045e-22
-1.9120642e-34
1.9238091e-34
7.0029357e-22
-3.5286777e-22
3.5105114e-22
-1.1452879e-33
-1.0119515e-21
1.0104135e-21
3.4229569e-22
-7.7930428e-34
7.1582135e-22
-7.2027913e-22
-3.5934652e-22
-3.6044445e-22
-1.0970879e-21
4.1429192e-34
3.7932815e-22
1.1453867e-21
-2.5594271e-33
-1.1711808e-21
0
4.1317464e-22
8.4557898e-22
-4.2626723e-22
4.2666322e-22
-1.4334825e-33
-8.8191351e-22
1.3686934e-21
-1.0477749e-33
-5.3575741e-34
-5.387711e-34
-5.4135005e-34
4.9502163e-22
-1.5231836e-21
-1.572696e-21
5.3950982e-22
1.0971842e-21
0
-5.5558904e-22
6.2641806e-34
-1.2829861e-33
6.6046839e-34
6.0933304e-22
-6.1716117e-22
-6.2301271e-22
1.8937212e-21
-8.6936547e-50
-1.0981887e-33
6.7304727e-22
-7.5244523e-34
1.3512168e-21
-1.3476186e-21
-1.3611194e-21
-6.9832382e-22
8.0196871e-34
7.4284382e-22
0
0
0
1.5189822e-21
-7.6665027e-22
-1.5495637e-21
2.348024e-21
-7.9063757e-22
-2.4019865e-21
2.4393915e-21
-2.7397389e-33
-1.6496628e-21
2.4638915e-21
1.6349697e-21
0
-1.6511125e-21
-2.8029196e-33
-8.5705969e-22
-1.7230613e-21
8.5320359e-22
0
1.6736083e-21
2.3791192e-37
9.4321011e-34
-8.655162e-22
-2.6247248e-21
2.6161692e-21
-1.4338145e-33
-2.5514529e-21
2.5275202e-21
-4.2017621e-33
-1.6998825e-21
8.6094438e-22
-8.6447482e-22
1.7151932e-21
8.4576572e-22
-3.7072337e-33
-8.2728715e-22
-1.6516285e-21
-8.3016142e-22
-8.3396541e-22
1.6687687e-21
8.2913661e-22
0
-8.0642382e-22
4.4175556e-34
-1.6570693e-52
7.857556e-22
-2.2420235e-37
7.9229572e-22
2.2934492e-50
-2.331673e-21
2.2890575e-21
2.2514991e-21
-1.4864972e-21
-1.4861636e-21
0
1.4943602e-21
-7.4330345e-22
-2.2064634e-21
2.1786577e-21
-1.1967154e-33
-1.4241685e-21
7.0740417e-22
0
-7.0693997e-22
-7.0687455e-22
7.0278175e-22
-1.1561189e-33
1.371513e-21
3.8701943e-37
-2.0437399e-21
0
2.0696827e-21
1.3746227e-21
-2.0435267e-21
-1.3508024e-21
2.0244468e-21
6.8042174e-22
-2.7520591e-21
-6.9064623e-22
1.3697256e-21
1.3557657e-21
-7.5046475e-34
-6.8222108e-22
-6.965742e-22
-7.0978916e-22
7.125663e-22
-7.810254e-34
1.3900511e-21
-2.3050433e-33
-2.0990021e-21
0
0
1.5019141e-21
-1.6620702e-33
-7.400819e-22
2.2037668e-21
-7.3638709e-22
-1.246939e-33
-2.5626759e-33
-2.368093e-21
8.0027285e-22
-4.4371154e-34
8.8129713e-34
7.8969352e-22
-7.9156847e-22
1.1428989e-37
-4.5808643e-34
9.3905095e-34
8.5630307e-22
0
-8.4628084e-22
1.6827091e-21
8.4336414e-22
-1.7159795e-21
0
8.9537119e-22
-9.0144936e-22
-1.7944915e-21
2.6774721e-21
-2.9616749e-33
-2.9631331e-33
8.9958695e-22
-2.7419719e-21
1.3129959e-37
9.2503181e-22
9.2082817e-22
-9.1678438e-22
-9.1316942e-22
9.1204367e-22
0
-9.2272452e-22
1.8468504e-21
-1.52783e-33
-9.0982858e-22
-2.0017226e-33
-1.985605e-33
-2.5412598e-37
-1.7943538e-21
2.6855291e-21
2.6508885e-21
0
-1.7091681e-21
-2.5273157e-21
-1.1911648e-37
8.3689442e-22
8.3095129e-22
-8.1627595e-22
-7.9788537e-22
7.7999968e-22
0
1.5152242e-21
1.4964248e-21
-2.1970562e-21
-7.1219553e-22
6.8997333e-22
-1.9077216e-37
-6.5923159e-22
-1.292889e-21
-6.264841e-22
9.9653029e-34
2.2713554e-21
-1.8157247e-33
-1.5999663e-21
5.2611444e-22
5.1389002e-22
4.8863738e-22
-4.5032828e-22
-4.1217131e-22
-3.8285701e-22
-1.0407424e-37
3.5784715e-22
-3.462236e-22
9.7862936e-22
5.9669816e-22
-7.9818092e-22
2.3350449e-22
4.0699379e-22
-3.5471478e-22
1.5615264e-22
-1.3833972e-22
-2.4054501e-22
2.9840289e-22
-7.5078726e-23
1.5503824e-34
4.4625677e-23
2.9922949e-23
3.8263777e-23
5.4723474e-23
1.3758426e-22
-8.595668e-23
9.350273e-77
-2.733931e-22
-1.6724316e-22
2.129055e-34
2.0669786e-22
4.3370339e-22
-4.5727426e-22
2.4482905e-22
7.978445e-22
-8.7028326e-22
-3.1151996e-22
-5.8152486e-50
-3.33566e-22
1.023165e-21
3.5100945e-22
-3.6453019e-22
-7.6008754e-22
3.928361e-22
-4.0020129e-22
1.3462864e-33
8.1683954e-22
-1.245625e-21
-4.7104666e-34
1.9123247e-33
-9.5730441e-34
8.5521255e-22
-8.4844848e-22
4.2319328e-22
1.7041856e-21
-4.3099992e-22
-8.6192566e-22
0
-8.2019296e-22
8.8550483e-34
2.2227395e-37
4.2975114e-34
3.8428024e-22
3.7661661e-22
-3.6206711e-22
-3.4418847e-22
6.5365254e-22
-6.2343706e-22
3.3145529e-34
5.7167696e-22
-5.4371694e-22
-8.4928105e-34
2.6078822e-34
2.1288117e-22
3.8157803e-22
-1.696062e-22
1.5038076e-22
-7.3481328e-35
-1.1164294e-22
-1.7221337e-22
5.770058e-23
5.8959216e-23
-4.1346965e-24
-1.6228746e-23
5.6744954e-35
-5.6010094e-23
-1.8824653e-34
2.3487529e-22
3.0004743e-22
3.9795048e-34
-6.7632601e-34
7.4209615e-34
-2.4402457e-22
-2.7009158e-22
-2.9990341e-22
3.3130039e-22
0
0
-4.1254259e-22
2.4152743e-34
6.5235072e-38
5.3832806e-34
5.1145951e-22
0
-5.6135622e-22
-1.1660873e-21
6.0419186e-22
1.2527184e-21
1.2984336e-21
1.3461357e-21
-2.0872687e-21
-2.3798439e-33
2.1908176e-21
-1.492098e-21
-1.5236383e-21
0
-8.0076299e-22
1.6404654e-21
8.313062e-22
-1.6789421e-21
-8.4551156e-22
9.4640945e-34
2.603245e-21
-8.8941824e-22
-2.7180794e-21
2.7318879e-21
9.1083865e-22
-2.724179e-21
1.0055124e-33
9.1422386e-22
1.8570768e-21
1.0431339e-33
-1.886823e-21
1.8822459e-21
-9.3653109e-22
-2.8027156e-21
0
9.3608448e-22
1.8658286e-21
-5.1087049e-34
9.0487128e-22
1.7989593e-21
-1.8105394e-21
-1.8131881e-21
0
-8.8685657e-22
-9.6038552e-34
-9.3892527e-34
-9.3339645e-34
2.532989e-21
1.6821221e-21
0
-1.6209244e-21
-1.7464236e-33
-7.6630231e-22
-2.2742791e-21
7.5620704e-22
-4.1541492e-34
1.0413501e-37
7.1225161e-22
1.3762573e-21
-6.678415e-22
-1.3133787e-21
6.506626e-22
0
1.2474941e-21
-6.0174975e-22
-1.7340254e-21
5.5866878e-22
5.4661475e-22
1.0774892e-21
-5.2766383e-22
-1.5316969e-21
4.8870252e-22
-5.1781001e-34
-8.9893835e-22
4.38841e-22
4.3125491e-22
8.4186805e-22
1.2151214e-21
-7.6875719e-22
-7.2845035e-22
6.9889549e-22
3.7785628e-34
-6.6837973e-22
6.5040668e-22
3.4498748e-34
-5.842958e-22
0
5.3025971e-22
5.2225837e-22
0
-7.6041532e-22
-2.4132849e-22
-6.3400508e-38
-2.0634709e-22
-1.9725673e-22
-2.1753265e-34
3.9678834e-22
3.9773544e-22
-6.4801486e-34
-3.7066834e-22
3.4804495e-22
5.4943599e-34
-3.1882368e-22
0
0
0
0
3.2334172e-22
1.7891932e-34
-3.1003267e-22
-1.4486766e-22
2.7669293e-22
-4.7027915e-34
-3.0249839e-22
3.2478485e-22
1.8816054e-34
-1.6887617e-22
3.2101898e-22
-5.0547396e-34
-3.0170317e-22
3.1872421e-22
3.4530113e-22
-3.6946402e-22
-3.8407853e-22
0
0
0
0
-1.9815476e-22
2.0773542e-22
2.1887259e-22
-2.541762e-34
-2.1227296e-77
-2.4063144e-22
-4.8415623e-22
-2.4419011e-22
4.9950424e-22
7.7707391e-22
-2.7055078e-22
-5.637301e-22
8.7048772e-22
5.886906e-22
-8.9052609e-22
-6.0335837e-22
-3.1056349e-22
-3.5779402e-34
6.6908886e-22
0
-3.4883997e-22
3.5155273e-22
-7.9131439e-34
-1.0384998e-37
-1.2566877e-33
-3.9005071e-22
-3.9979897e-22
1.151187e-37
8.1853484e-22
8.3204497e-22
-1.417713e-33
-8.7461295e-22
0
0
0
-4.6458244e-22
-4.7339193e-22
4.8516192e-22
4.9818592e-22
-5.076313e-22
1.021827e-21
1.5388824e-21
0
-1.0558171e-21
-6.009757e-34
-5.5605166e-22
-1.6982719e-21
5.6882987e-22
-9.4824268e-34
1.1463229e-21
-3.870352e-33
-1.1854375e-21
-3.3649229e-34
-8.7709066e-38
6.2318295e-22
-6.2726955e-22
1.2662614e-21
6.4062663e-22
-1.2965374e-21
1.3094944e-21
1.8750608e-37
-7.3825521e-34
-6.7071003e-22
-2.0337614e-21
1.3751183e-21
-5.4131529e-52
7.0074935e-22
-1.1698061e-33
-1.4091054e-21
7.0839646e-22
1.4288091e-21
-8.0314614e-34
-2.1960053e-21
2.0920597e-37
7.3705627e-22
-7.3853921e-22
1.4824301e-21
7.4491907e-22
-1.5015088e-21
1.5144451e-21
8.451612e-34
-4.2369627e-33
1.6973991e-33
-1.5297879e-21
1.5293647e-21
-7.6462485e-22
-1.5284831e-21
7.6493641e-22
-7.6916934e-22
1.5484502e-21
-1.2910376e-33
-2.3114077e-21
0
0
2.267797e-21
7.6059339e-22
-1.5342137e-21
1.5368317e-21
4.3340921e-37
-3.35222e-33
-8.2913296e-34
-1.4824094e-21
1.4870066e-21
1.4928237e-21
-7.4444586e-22
-2.2113488e-21
-7.2690612e-22
7.1741347e-22
0
0
-7.1504934e-22
3.9294666e-34
2.0927524e-21
1.9473017e-37
-1.3505141e-21
-6.739084e-22
7.4933846e-34
2.0118378e-21
1.4572374e-33
-1.2765e-21
0
-6.1338039e-22
1.2371083e-21
6.2480425e-22
-1.3788719e-33
-6.0430005e-22
-1.1650079e-21
5.5883635e-22
0
0
0
0
-5.4711745e-22
2.9712101e-34
1.5559288e-21
-5.0225429e-22
-1.4625691e-21
1.4245369e-21
4.6681467e-22
-9.2677365e-22
-4.6065448e-22
-7.5926964e-34
1.3361364e-21
-2.4325924e-37
-1.3657649e-33
-3.950981e-22
-7.7158263e-22
-3.829101e-22
-4.2325067e-34
3.7641586e-22
3.6494063e-22
3.4770792e-22
3.3111476e-22
-7.0733149e-34
-6.2312219e-22
0
0
-2.9946948e-22
-4.7726581e-34
-3.84772e-38
3.6487652e-38
2.4802389e-22
4.8844306e-22
4.8449231e-22
-4.7683268e-22
-2.5486474e-34
-2.1481345e-22
-5.996903e-22
0
0
1.8457821e-22
1.8354394e-22
0
-1.6975826e-22
8.6836808e-35
1.4408214e-22
-1.3589598e-22
2.6312469e-22
-4.301003e-34
-3.7849716e-22
1.2170381e-22
1.1654726e-22
2.2374348e-22
-1.0788441e-22
-3.1023219e-22
9.6314893e-23
-4.7954116e-35
1.551564e-22
7.3540932e-23
-1.4788258e-22
1.515417e-22
2.3977482e-51
-1.4613879e-22
0
0
1.1191035e-22
-5.827581e-35
-1.6499235e-34
4.4835489e-51
-1.3403358e-22
-5.0144159e-35
4.7173217e-23
9.7287793e-23
9.4783327e-23
-8.3861427e-23
-7.5702306e-35
-2.949646e-23
-1.0373415e-34
3.6606988e-23
-8.3648692e-23
0
-4.2369648e-23
4.1560475e-35
3.3066367e-23
6.4289292e-23
3.8068918e-35
-7.5425764e-23
0
0
-4.48253e-23
2.5436711e-35
1.3723421e-22
4.9274986e-35
-8.7021181e-23
0
4.9602631e-23
-5.5237912e-23
-5.9725479e-23
-6.0779161e-23
-5.8343817e-23
1.1277284e-22
1.7505875e-22
-6.4060269e-23
-1.4186206e-22
2.2742645e-22
7.9045435e-52
-1.4775455e-22
0
0
0
0
1.8672224e-22
1.8617274e-22
-9.023089e-23
-2.6888371e-22
-1.0406134e-34
1.0060906e-22
-2.1446419e-22
-2.2054432e-22
1.0848577e-22
4.1955339e-22
2.0917053e-22
-3.2804502e-22
-2.3354511e-22
3.7021783e-22
2.7963128e-34
-2.4655774e-22
0
0
0
2.5627527e-22
1.4928185e-34
-3.0413971e-34
1.3407974e-22
-3.8487205e-22
1.2506711e-22
1.2701246e-22
-3.9700613e-22
-2.7563713e-22
1.4045007e-22
2.7849627e-22
2.7209207e-22
-4.4637981e-34
1.489502e-34
-3.841977e-38
-2.6954961e-22
0
-1.2774461e-22
-1.2675387e-22
1.2916784e-22
1.3325513e-22
-1.3576455e-22
-1.328279e-22
2.467091e-22
1.1317657e-22
-1.0868962e-22
1.1086999e-22
-1.1616226e-22
-2.3977014e-22
0
0
3.0963095e-22
9.497097e-23
-1.8120828e-22
-8.943426e-23
-8.9720774e-23
1.7884779e-22
-9.6988379e-35
-1.6593908e-22
0
6.7974425e-23
1.8213055e-22
1.2511704e-34
-3.0445474e-34
1.0861093e-22
-1.5684552e-22