-1.25 	300 	0.07205153812723952 	101295.6107373847
-1.247497497497497 	299.9742707130474 	0.05967014488498611 	101301.3263464392
-1.244994994994995 	299.9850965918102 	0.04185949267891648 	101307.6357573904
-1.242492492492492 	299.9907212171279 	0.02744532038436534 	101313.9799994057
-1.23998998998999 	299.9963089840879 	0.01040768022265491 	101320.631635862
-1.237487487487487 	300.0020530400391 	0.008370083822847249 	101327.4253067115
-1.234984984984985 	300.0077581985248 	0.02251042832478253 	101334.1701643783
-1.232482482482482 	300.0133455378902 	0.0386522507230331 	101340.7760018664
-1.22997997997998 	300.0187265308638 	0.05415552845348337 	101347.1380740125
-1.227477477477477 	300.0237475489936 	0.06865059011181698 	101353.0749359987
-1.224974974974975 	300.0283135775769 	0.08189963087092843 	101358.4740141118
-1.222472472472472 	300.032408694906 	0.09369757610994088 	101363.3165878627
-1.21996996996997 	300.0358912390192 	0.1037461379327321 	101367.4350262913
-1.217467467467467 	300.0386448668394 	0.1117294984765951 	101370.6913988194
-1.214964964964965 	300.0406813263971 	0.1176310135112013 	101373.0997649508
-1.212462462462462 	300.0420036056335 	0.1214926248382552 	101374.6635371679
-1.20995995995996 	300.0425778273558 	0.1231407110816334 	101375.3426662228
-1.207457457457457 	300.0423743121589 	0.122509859314901 	101375.1020928526
-1.204954954954955 	300.0413724951246 	0.1195866142299903 	101373.9174055901
-1.202452452452452 	300.0395710014249 	0.1143581462603053 	101371.7870245813
-1.19994994994995 	300.0369912750909 	0.1069365660972672 	101368.7364446966
-1.197447447447447 	300.0337215791723 	0.09749117239943228 	101364.8699166307
-1.194944944944945 	300.0298629499144 	0.08630008245333746 	101360.3071174973
-1.192442442442442 	300.0254798138217 	0.07361669199206257 	101355.1243488323
-1.18993993993994 	300.0206393367322 	0.05966741307228825 	101349.4008041421
-1.187437437437437 	300.015442682466 	0.04466523021792201 	101343.2565055926
-1.184934934934935 	300.0099625573967 	0.02879205309121413 	101336.777225071
-1.182432432432432 	300.0042982535894 	0.01240366945415846 	101330.0805246861
-1.17992992992993 	299.9985824367842 	0.008480551445866454 	101323.3233740698
-1.177427427427427 	299.9928867065128 	0.02063685903235653 	101316.5900609056
-1.174924924924925 	299.9872828312188 	0.03683135625908422 	101309.9657732508
-1.172422422422422 	299.9818770695043 	0.05243124422715585 	101303.5758533474
-1.16991991991992 	299.9767866170185 	0.06712146755906656 	101297.5589806181
-1.167417417417417 	299.9721316282144 	0.08056642474417439 	101292.0571453658
-1.164914914914915 	299.968017626073 	0.09247796987791615 	101287.1946595788
-1.162412412412412 	299.9645180164246 	0.102594678775631 	101283.058580938
-1.15990990990991 	299.9616751797114 	0.110800927977015 	101279.6986992176
-1.157407407407407 	299.9595157339431 	0.1170499675327623 	101277.1466215606
-1.154904904904904 	299.9580783557253 	0.1211989995657191 	101275.4479354126
-1.152402402402403 	299.9574243517065 	0.1230987415451339 	101274.6748784138
-1.1498998998999 	299.9575866507097 	0.1226172699405399 	101274.866685646
-1.147397397397397 	299.9585583894058 	0.1197674666400878 	101276.0149160694
-1.144894894894895 	299.9603134146779 	0.1146892668844474 	101278.0889749873
-1.142392392392392 	299.9628015260912 	0.1075142082662371 	101281.0295035433
-1.13988988988989 	299.9659550191002 	0.09840580628000065 	101284.7562642606
-1.137387387387387 	299.9697207001579 	0.08750136120156225 	101289.2068064224
-1.134884884884885 	299.9740414827286 	0.0749853658198007 	101294.31347013
-1.132382382382382 	299.9788416306329 	0.06111347448861662 	101299.987072097
-1.12987987987988 	299.9840277686771 	0.04615616755810651 	101306.1172045494
-1.127377377377377 	299.9894816493571 	0.03043069127736037 	101312.5639104273
-1.124874874874875 	299.9950779991144 	0.01421980077433856 	101319.1794619632
-1.122372372372372 	300.0007332916578 	0.008353874260412871 	101325.8648906382
-1.11986986986987 	300.0064016509745 	0.01859030101167549 	101332.5662597183
-1.117367367367367 	300.0120076576637 	0.03477254031114747 	101339.194250569
-1.114864864864865 	300.017420507084 	0.05040021590620287 	101345.5940047565
-1.112362362362362 	300.022512641657 	0.06511673615181467 	101351.6149570587
-1.10985985985986 	300.0271845622404 	0.07862477837122907 	101357.1391666903
-1.107357357357357 	300.0313453377602 	0.090630127253125 	101362.0593299147
-1.104854854854855 	300.0349216272791 	0.1009771139632058 	101366.2885066821
-1.102352352352353 	300.0378719152218 	0.1094973125328551 	101369.7773548142
-1.09984984984985 	300.040145588138 	0.1160624316174587 	101372.466244859
-1.097347347347347 	300.0416918124878 	0.1205525872470346 	101374.2948070102
-1.094844844844845 	300.0424654448076 	0.1227565533419142 	101375.2098049476
-1.092342342342342 	300.0424292844868 	0.1226303372116792 	101375.1671504888
-1.08983983983984 	300.0415766643299 	0.1201721681753495 	101374.158852419
-1.087337337337337 	300.0399484337259 	0.1154537001085303 	101372.2334445573
-1.084834834834835 	300.037581786606 	0.1086334913787905 	101369.4347720902
-1.082332332332332 	300.0345254254428 	0.09978755175420279 	101365.8205072872
-1.07982982982983 	300.0308358532458 	0.08910306225894309 	101361.4576795269
-1.077327327327327 	300.0265760818063 	0.07678620240606072 	101356.4206325468
-1.074824824824825 	300.0218245462573 	0.0630840905606434 	101350.802265889
-1.072322322322323 	300.016693328536 	0.04826548062010763 	101344.7352649798
-1.06981981981982 	300.0112648199232 	0.03254466779240848 	101338.3169250083
-1.067317317317317 	300.0056422553017 	0.0162777299690181 	101331.6695972734
-1.064814814814815 	299.9999320894453 	0.008166328484261978 	101324.9189682618
-1.062312312312312 	299.9941954048813 	0.01687342552380857 	101318.1371833873
-1.05980980980981 	299.9885302215895 	0.03321506780308273 	101311.4403883961
-1.057307307307307 	299.9830688420211 	0.04896568619883628 	101304.984606486
-1.054804804804805 	299.9779323519425 	0.06379803311777522 	101298.9133228984
-1.052302302302302 	299.9732223696695 	0.07742598929433731 	101293.3464006681
-1.0497997997998 	299.9690078248896 	0.08964411092909567 	101288.3650411226
-1.047297297297297 	299.9653470500926 	0.1002147791586215 	101284.0384888217
-1.044794794794795 	299.9623104652216 	0.1089677692597991 	101280.4495723931
-1.042292292292292 	299.9599695397777 	0.1157272225407106 	101277.6830417228
-1.03978978978979 	299.958387125013 	0.1202930557149982 	101275.8129032695
-1.037287287287287 	299.9576026210321 	0.1225803401775176 	101274.8856260294
-1.034784784784785 	299.9576166870663 	0.1225249628712866 	101274.9022738197
-1.032282282282283 	299.9584156221075 	0.1201815973850388 	101275.8462676316
-1.02977977977978 	299.9599783140595 	0.1156661333009614 	101277.6930394008
-1.027277277277277 	299.962271676236 	0.1090373536246435 	101280.4033528969
-1.024774774774775 	299.9652580701335 	0.10042036215294 	101283.9326394746
-1.022272272272272 	299.9688896901739 	0.08992460873389357 	101288.2247118685
-1.01976976976977 	299.9730926112705 	0.07774836981020215 	101293.1920114269
-1.017267267267267 	299.9777851554728 	0.0641844935160673 	101298.7383831147
-1.014764764764765 	299.9828734769997 	0.0494873795853602 	101304.7528089799
-1.012262262262262 	299.9882498801251 	0.03395835398197409 	101311.1079052699
-1.00975975975976 	299.9938086170375 	0.01786541063828475 	101317.6789165376
-1.007257257257257 	299.999454391772 	0.007608871620015404 	101324.3530436346
-1.004754754754755 	300.0051130686687 	0.0148663846856291 	101331.0428493444
-1.002252252252252 	300.0107008028701 	0.03099037850160799 	101337.6491608911
-0.9997497497497498 	300.016100481968 	0.04658148245129657 	101344.0333117261
-0.9972472472472473 	300.0212143456464 	0.06137064917260283 	101350.0798542706
-0.9947447447447449 	300.0259630985659 	0.07511449278925142 	101355.6949187782
-0.9922422422422421 	300.0302597011846 	0.08750514256819066 	101360.7755467748
-0.9897397397397399 	300.0340137875219 	0.09835005898774525 	101365.2149337596
-0.9872372372372376 	300.0371513019177 	0.1073948823052782 	101368.9252541589
-0.9847347347347346 	300.03959414539 	0.1144730149224603 	101371.8140906312
-0.9822322322322323 	300.041301306966 	0.1194535811556785 	101373.8330759631
-0.9797297297297296 	300.0422495837404 	0.1221402645245233 	101374.9545054978
-0.9772272272272275 	300.0424100281771 	0.1225687223621715 	101375.1443455882
-0.9747247247247248 	300.0417686690771 	0.1207203726285091 	101374.3859920956
-0.9722222222222224 	300.0403513982557 	0.116625994122471 	101372.7099529649
-0.9697197197197196 	300.0381718831496 	0.1103587159140819 	101370.1326584496
-0.9672172172172175 	300.0352841209834 	0.1019708987919695 	101366.7176880789
-0.9647147147147147 	300.0317483558239 	0.09170657493747006 	101362.5366843131
-0.9622122122122124 	300.0276242149609 	0.07980004637932672 	101357.6600771251
-0.9597097097097099 	300.0229884398419 	0.06646249710055668 	101352.1784773321
-0.9572072072072073 	300.0179418587929 	0.05186938999599322 	101346.2115285924
-0.9547047047047047 	300.0125479478797 	0.03623456706552595 	101339.8340046066
-0.9522022022022023 	300.0069264432124 	0.01997005719580703 	101333.1878359917
-0.9496996996996998 	300.0012100240896 	0.006990499563726349 	101326.429791969
-0.9471971971971973 	299.9954790165067 	0.01314930042127734 	101319.6546315745
-0.9446946946946947 	299.9898212458151 	0.02948194753983907 	101312.9665154422
-0.9421921921921923 	299.9843400078095 	0.04529637213509071 	101306.4872177868
-0.93968968968969 	299.9791401009456 	0.06032492322368368 	101300.3408926462
-0.9371871871871872 	299.9743208383866 	0.07427187280168812 	101294.6447473507
-0.9346846846846848 	299.9699698374843 	0.08687632620699107 	101289.5020870087
-0.9321821821821823 	299.9661709851291 	0.09785034545226987 	101285.0123014973
-0.9296796796796799 	299.963003445356 	0.1069933179086296 	101281.2686089522
-0.9271771771771771 	299.9605280045664 	0.114144670759226 	101278.3430810195
-0.9246746746746748 	299.9587950754211 	0.1191455666999993 	101276.2950586746
-0.9221721721721724 	299.9578378945874 	0.1219147238827667 	101275.163712704
-0.9196696696696698 	299.9576695244778 	0.1223668966893675 	101274.9647482888
-0.9171671671671672 	299.9582903375066 	0.1205392162462628 	101275.6982749188
-0.9146646646646649 	299.9596830195045 	0.1165243677856207 	101277.3440988776
-0.9121621621621623 	299.9618112641607 	0.1103851579339418 	101279.8592747903
-0.9096596596596597 	299.9646362629564 	0.1022463253523063 	101283.1978186821
-0.9071571571571573 	299.9681071192988 	0.09220783836265864 	101287.2998289995
-0.9046546546546547 	299.972161823436 	0.08045675022891373 	101292.0919592491
-0.9021521521521524 	299.9767303036111 	0.06725725150390509 	101297.4916197132
-0.8996496496496498 	299.9817226725627 	0.0528351243079216 	101303.3925680432
-0.8971471471471473 	299.9870274280148 	0.03749968413428176 	101309.6629285385
-0.894644644644645 	299.9925355420444 	0.02154766642380923 	101316.1739917719
-0.892142142142142 	299.9981362148314 	0.005957322676233039 	101322.794765436
-0.8896396396396397 	300.0037547444374 	0.0109282618133199 	101329.4370306294
-0.8871371371371374 	300.0093257572215 	0.02700838739122486 	101336.023479886
-0.8846346346346349 	300.0147490271962 	0.04266594025287903 	101342.435463372
-0.8821321321321324 	300.0199320182875 	0.05764401236862897 	101348.5636395834
-0.8796296296296297 	300.0247801347031 	0.07166464728201374 	101354.2961459645
-0.8771271271271271 	300.0291877918742 	0.08438204743933708 	101359.5080686076
-0.8746246246246248 	300.0330671093741 	0.09561028256300806 	101364.0954955253
-0.8721221221221224 	300.0363465048393 	0.1050791075763709 	101367.9735474305
-0.8696196196196196 	300.0389531095781 	0.1126485597586903 	101371.0560202209
-0.8671171171171175 	300.0408481142508 	0.1181582159191188 	101373.2971347798
-0.8646146146146148 	300.0419938174035 	0.1213946124817362 	101374.6520793542
-0.8621121121121121 	300.0423487062995 	0.1224058495264164 	101375.0718960848
-0.8596096096096097 	300.0419090160088 	0.1211183179290556 	101374.5519529421
-0.857107107107107 	300.0406926311037 	0.1175958290646318 	101373.1134802715
-0.8546046046046049 	300.0387107935761 	0.111908300576028 	101370.7699680823
-0.8521021021021022 	300.0360107626657 	0.1040559815856607 	101367.5770104251
-0.8495995995995997 	300.0326369563252 	0.09428318393613803 	101363.5875207898
-0.8470970970970974 	300.0286356713821 	0.08275240147021545 	101358.8561118662
-0.8445945945945946 	300.0241000731869 	0.06968854658447073 	101353.4929032673
-0.8420920920920922 	300.0191238503797 	0.05530468988390996 	101347.6091220234
-0.8395895895895897 	300.0137863273155 	0.03983387458055317 	101341.2982077671
-0.8370870870870872 	300.0082142093491 	0.02371156588083431 	101334.7103905254
-0.8345845845845846 	300.0025369331423 	0.007262862593119319 	101327.9985249484
-0.8320820820820823 	299.9968234202354 	0.01044464728938856 	101321.2439306626
-0.8295795795795798 	299.991145309259 	0.02566005673624257 	101314.5317462384
-0.8270770770770772 	299.9856033902191 	0.04163407707512304 	101307.9806316365
-0.8245745745745746 	299.9803199747127 	0.05689624478337439 	101301.7355770109
-0.8220720720720721 	299.9754031872856 	0.07113034430134445 	101295.9241030606
-0.8195695695695699 	299.970942778876 	0.08405206186431899 	101290.6520271472
-0.817067067067067 	299.9670194795698 	0.09537077021050584 	101286.0151778059
-0.8145645645645651 	299.9637159557752 	0.1049145859605512 	101282.1107226566
-0.8120620620620621 	299.9610920774565 	0.112503605923269 	101279.009799707
-0.8095595595595597 	299.9592050877955 	0.1179657020389292 	101276.7797151223
-0.8070570570570572 	299.9580857209962 	0.121206352652538 	101275.4566040836
-0.8045545545545546 	299.957747920296 	0.1221307882667559 	101275.0574739332
-0.8020520520520523 	299.9581921851353 	0.1208074625855611 	101275.5823226071
-0.7995495495495494 	299.9594076063619 	0.1173123954153916 	101277.0187173274
-0.7970470470470474 	299.9613567848164 	0.1116852619542205 	101279.3222600283
-0.7945445445445446 	299.9640143890377 	0.1040248922446524 	101282.4628731952
-0.7920420420420423 	299.9673363866149 	0.09440085439569743 	101286.3890135064
-0.7895395395395397 	299.9712691970321 	0.08302059673513154 	101291.0369836466
-0.7870370370370371 	299.9757338345484 	0.07013584793390568 	101296.3139254011
-0.7845345345345348 	299.980635911599 	0.05599010673876255 	101302.1081016443
-0.7820320320320323 	299.9858546407312 	0.04089177775733674 	101308.2766259205
-0.7795295295295296 	299.9912937370648 	0.02513012069879321 	101314.706128194
-0.7770270270270272 	299.9968411348177 	0.009053833896980423 	101321.2637937778
-0.7745245245245247 	300.0024223336814 	0.00957608495109875 	101327.8619047843
-0.7720220220220222 	300.0079764119727 	0.02312864188795424 	101334.4282546259
-0.7695195195195199 	300.0134151590942 	0.03884040143218235 	101340.8583825386
-0.767017017017017 	300.0186479731475 	0.05393969548902568 	101347.0454842852
-0.7645145145145147 	300.0235724713145 	0.06816198371134978 	101352.86817429
-0.7620120120120122 	300.0280803777896 	0.08117796610996636 	101358.1986477637
-0.7595095095095097 	300.0320871417078 	0.0927833106223442 	101362.9367274172
-0.7570070070070072 	300.0355100896783 	0.1026797435073149 	101366.9844232382
-0.7545045045045048 	300.0382801322119 	0.1107009151261403 	101370.2602578982
-0.7520020020020022 	300.0403505769981 	0.1166894165434586 	101372.7087356065
-0.7494994994994997 	300.0416750626014 	0.1204715737419605 	101374.27518312
-0.7469969969969972 	300.0422211140739 	0.122071634423009 	101374.9210787739
-0.7444944944944945 	300.0419945143067 	0.1213746865239806 	101374.6530229607
-0.7419919919919924 	300.040988240269 	0.1184383581043127 	101373.4631448492
-0.7394894894894897 	300.0392095916229 	0.1133209696645927 	101371.3598040494
-0.7369869869869872 	300.0366895881234 	0.1060017414316584 	101368.3798103048
-0.7344844844844846 	300.0334694124089 	0.09671487863324911 	101364.5719863737
-0.7319819819819822 	300.0296055253533 	0.08557023831260523 	101360.0029067047
-0.7294794794794797 	300.025198951567 	0.07282307406902093 	101354.7923555348
-0.7269769769769773 	300.0203216511564 	0.05875020054226485 	101349.0253660345
-0.7244744744744747 	300.0150685349066 	0.04353792237800331 	101342.8142631362
-0.721971971971972 	300.0095509023742 	0.02759440441379844 	101336.2908278955
-0.7194694694694695 	300.0038893297296 	0.01117825850446417 	101329.5973403556
-0.7169669669669674 	299.9981691947405 	0.009077091074876817 	101322.8349572069
-0.7144644644644647 	299.9924689914236 	0.02182828229110973 	101316.0964860536
-0.711961961961962 	299.9868785280617 	0.03795322408647692 	101309.4879927547
-0.7094594594594597 	299.9815272597631 	0.05340230441504414 	101303.1626956426
-0.7069569569569573 	299.9765198621854 	0.06792032517837528 	101297.2439567307
-0.7044544544544545 	299.9719508910165 	0.08114547995256277 	101291.8436170053
-0.7019519519519523 	299.9679065528281 	0.092783263814308 	101287.0636010304
-0.6994494494494495 	299.9644755907572 	0.102713501612354 	101283.0085747236
-0.6969469469469471 	299.9617094426654 	0.110694618725891 	101279.7395124918
-0.6944444444444446 	299.959669685691 	0.1166335763181152 	101277.328811593
-0.6919419419419421 	299.958378976451 	0.1203726625732113 	101275.8032521452
-0.6894394394394396 	299.9578582410713 	0.1218077335798018 	101275.1878626248
-0.6869369369369374 	299.9581172241624 	0.1210371466777766 	101275.4938231012
-0.6844344344344344 	299.9591600152417 	0.1180443190764889 	101276.7262157044
-0.6819319319319321 	299.9609454127717 	0.1129041317757449 	101278.8361262747
-0.6794294294294296 	299.9634537979369 	0.1056719759705496 	101281.8004268054
-0.6769269269269272 	299.9666290522848 	0.09643772252008155 	101285.5530617468
-0.6744244244244245 	299.9704237272534 	0.08545950034402255 	101290.0378002719
-0.6719219219219222 	299.9747627484851 	0.07292761970743691 	101295.1662466595
-0.6694194194194195 	299.979560924085 	0.05911277714491853 	101300.8375004261
-0.6669169169169172 	299.984690275572 	0.04426338156719789 	101306.900350609
-0.6644144144144146 	299.9900666797974 	0.02867748623828867 	101313.2556501332
-0.661911911911912 	299.9955637159086 	0.01277225446141999 	101319.7537477059
-0.6594094094094097 	300.0011003081862 	0.007750196386059234 	101326.2990819304
-0.656906906906907 	300.0066299402504 	0.01923936515772087 	101332.8364030436
-0.6544044044044046 	300.0120821369775 	0.0349934950353328 	101339.282364682
-0.6519019019019021 	300.0173645917853 	0.05023443337452435 	101345.5280769938
-0.6493993993993996 	300.0223630537062 	0.06466077279477717 	101351.4381801953
-0.6468968968968971 	300.026964813345 	0.0779690747471668 	101356.8796076473
-0.6443943943943946 	300.0310865360742 	0.08989936201076902 	101361.7535463427
-0.6418918918918921 	300.0346409797408 	0.1001817871868775 	101365.9566926124
-0.6393893893893897 	300.0375674432119 	0.1086500382277963 	101369.417479121
-0.6368868868868871 	300.0398151140532 	0.1151333746156461 	101372.0755433079
-0.6343843843843846 	300.0413317088985 	0.1194902257852196 	101373.8691987952
-0.6318818818818821 	300.0420823352479 	0.1216845604822891 	101374.7570143532
-0.6293793793793795 	300.0420670832289 	0.1215769670645439 	101374.738874184
-0.6268768768768773 	300.0412596723146 	0.1192191864624501 	101373.7841377595
-0.6243743743743745 	300.0396704871371 	0.1146369998707045 	101371.9045642102
-0.6218718718718721 	300.037322062247 	0.1078210664372449 	101369.1275493413
-0.6193693693693696 	300.0342568205711 	0.09900086409029779 	101365.5031137055
-0.6168668668668671 	300.0305352725189 	0.088258540038161 	101361.1023485648
-0.6143643643643645 	300.0262589935217 	0.0758681790645018 	101356.0458303071
-0.6118618618618621 	300.0214791166691 	0.06209749977976126 	101350.3939863424
-0.6093593593593596 	300.016306000117 	0.04712143275150782 	101344.2774472505
-0.6068568568568571 	300.0108423485887 	0.03133647498704851 	101337.8177688884
-0.6043543543543546 	300.0052084831842 	0.01499407540866738 	101331.1569165444
-0.6018518518518521 	299.9994996200491 	0.006861271597909789 	101324.4078200821
-0.5993493493493496 	299.9937869004057 	0.01803265801385915 	101317.6544547208
-0.5968468468468471 	299.9881535129971 	0.03426797642543922 	101310.9951962703
-0.5943443443443446 	299.9827416612866 	0.04989494965840446 	101304.5982309136
-0.591841841841842 	299.9776547995411 	0.06466452049271687 	101298.5854345367
-0.5893393393393397 	299.9729878033496 	0.07816190016892591 	101293.0692420795
-0.5868368368368371 	299.9688317429641 	0.09010372312330425 	101288.1570930388
-0.5843343343343346 	299.9652752745995 	0.1003935604906166 	101283.9537589614
-0.5818318318318321 	299.9623670161882 	0.1087746008960415 	101280.5167495228
-0.5793293293293297 	299.9601769430818 	0.1151947364341648 	101277.9283203064
-0.5768268268268271 	299.9587166937985 	0.1194292658019358 	101276.2024444173
-0.5743243243243245 	299.9580138313946 	0.121353724824387 	101275.3717504911
-0.5718218218218221 	299.9580941417676 	0.1210988739471543 	101275.4666252184
-0.5693193193193196 	299.9589681697539 	0.1185909343658128 	101276.4995946228
-0.5668168168168171 	299.9605884915075 	0.113942696832533 	101278.4143311213
-0.5643143143143147 	299.9629415883942 	0.1071640346488455 	101281.1951587482
-0.5618118118118121 	299.9659586161696 	0.09834712634063614 	101284.7607193399
-0.5593093093093094 	299.9695985529659 	0.08781045742063863 	101289.0626155845
-0.5568068068068072 	299.9737976376146 	0.07570358575763306 	101294.0256380046
-0.5543043043043046 	299.9784717115818 	0.06229763730522884 	101299.5500805977
-0.551801801801802 	299.9834945794022 	0.04773778762996705 	101305.4870661091
-0.5492992992992995 	299.9888042065485 	0.03231948670211176 	101311.763302522
-0.5467967967967969 	299.9942609334361 	0.01654276714255002 	101318.2137552209
-0.5442942942942947 	299.9997666775039 	0.005091012485673377 	101324.7225489411
-0.5417917917917919 	300.0052810620346 	0.01535301955787006 	101331.241702451
-0.5392892892892895 	300.0107470057727 	0.03114016560484158 	101337.7038949292
-0.536786786786787 	300.01606606238 	0.0464943946115296 	101343.9927494419
-0.5342842842842846 	300.0211211986468 	0.0610803747112663 	101349.9698939509
-0.531781781781782 	300.0258045991367 	0.07462836147266605 	101355.5077724586
-0.5292792792792794 	300.0300352756825 	0.08686172831657482 	101360.5104453661
-0.526776776776777 	300.0337219921904 	0.0975347211536218 	101364.8700124824
-0.5242742742742745 	300.0368079010575 	0.1064762531435272 	101368.519262124
-0.521771771771772 	300.0392335381155 	0.113463738899449 	101371.3878542532
-0.5192692692692695 	300.0409415874858 	0.118388808339833 	101373.4078827983
-0.516766766766767 	300.0418940866835 	0.1211549334696206 	101374.5344099687
-0.5142642642642645 	300.0420843276625 	0.1216320912157711 	101374.7593293986
-0.511761761761762 	300.0414737174371 	0.1198654441375559 	101374.0372474786
-0.5092592592592596 	300.0400765178481 	0.1158070093636507 	101372.3851015501
-0.506756756756757 	300.0379048953614 	0.1095066573191724 	101369.8170867893
-0.5042542542542544 	300.0349998866963 	0.1011581420509143 	101366.3819110531
-0.5017517517517521 	300.031424851066 	0.09084346032695317 	101362.1543021831
-0.4992492492492494 	300.0272813805447 	0.07884862739543627 	101357.2547676681
-0.496746746746747 	300.0226049956925 	0.0653867275161822 	101351.7253029279
-0.4942442442442445 	300.0175231413508 	0.05065667949959979 	101345.7165826309
-0.4917417417417421 	300.0121188823627 	0.03503332047851052 	101339.3270804941
-0.4892392392392395 	300.0065116956949 	0.01877477802413291 	101332.6976615716
-0.486736736736737 	300.000811445595 	0.003812097233005303 	101325.9586799396
-0.4842342342342345 	299.9950853491216 	0.01426735145224201 	101319.1894499745
-0.481731731731732 	299.9894208961031 	0.03059627498672739 	101312.4933911616
-0.4792292292292296 	299.9839599488288 	0.04637923195124639 	101306.0383547647
-0.4767267267267268 	299.9788008710295 	0.06135591510950605 	101299.9400970858
-0.4742242242242246 	299.9740396973788 	0.07509890897049194 	101294.3125494036
-0.471721721721722 	299.9697747185111 	0.08735876955100025 	101289.2716441006
-0.4692192192192195 	299.966087811608 	0.09802201452256837 	101284.9141226965
-0.4667167167167169 	299.9630367625965 	0.1068246766455444 	101281.3083608635
-0.4642142142142145 	299.9606891327484 	0.1137128122387856 	101278.5336668373
-0.461711711711712 	299.9590592242618 	0.1184197114464721 	101276.6073194721
-0.4592092092092094 	299.9581831605611 	0.1208446232211094 	101275.5719076689
-0.456706706706707 	299.9580970350587 	0.1211047526476255 	101275.4701086571
-0.4542042042042045 	299.9587967177667 	0.1190882561206293 	101276.2970616957
-0.451701701701702 	299.9602526759927 	0.1149186922250825 	101278.017497145
-0.4491991991991995 	299.9624503452864 	0.1085718895539894 	101280.6146512256
-0.4466966966966969 	299.9653250625826 	0.1001617876847699 	101284.012016201
-0.4441941941941945 	299.9688278469943 	0.09003002816635804 	101288.1517920924
-0.441691691691692 	299.9728979836182 	0.07831158500972167 	101292.962385278
-0.4391891891891895 	299.9774362534347 	0.06527042225666374 	101298.3262189166
-0.436686686686687 	299.9823534011795 	0.05101319032259082 	101304.1382238029
-0.4341841841841846 	299.9875828625939 	0.03583817365039237 	101310.31961727
-0.431681681681682 	299.9929952198339 	0.02020868979166441 	101316.717588862
-0.4291791791791794 	299.9984744265062 	0.004356221505372196 	101323.1949134693
-0.426676676676677 	300.0039678808022 	0.01210437041115351 	101329.6892190639
-0.4241741741741744 	300.0094322228751 	0.02732864737590282 	101336.1494951655
-0.421671671671672 	300.014770580562 	0.0427418318602977 	101342.4610603675
-0.4191691691691694 	300.0198707424267 	0.05747646662809205 	101348.4914134869
-0.4166666666666669 	300.0246323499996 	0.0712495794462927 	101354.1216815392
-0.4141641641641645 	300.0289696533712 	0.0837910733072942 	101359.2503645032
-0.411661661661662 	300.0327875146033 	0.09484126872664882 	101363.765029075
-0.4091591591591594 	300.0360260746413 	0.1042107313204275 	101367.5947126554
-0.406656656656657 	300.038617335225 	0.1116781686032535 	101370.6591964505
-0.4041541541541545 	300.0405039542006 	0.1171211168767152 	101372.890363504
-0.401651651651652 	300.0416498450397 	0.120429907790536 	101374.2455677403
-0.3991491491491494 	300.0420364118687 	0.1214798187127767 	101374.7027450083
-0.396646646646647 	300.0416233013657 	0.1202979239477752 	101374.2141185999
-0.3941441441441444 	300.0404245066803 	0.1168139848414076 	101372.7966714229
-0.3916416416416419 	300.0384439753053 	0.1110735078403513 	101370.4546164765
-0.3891391391391395 	300.0357197200469 	0.1032454174643603 	101367.2331386151
-0.3866366366366368 	300.0323126136661 	0.09339404817337388 	101363.2041496212
-0.3841341341341344 	300.02830649942 	0.08180909181378969 	101358.466925994
-0.381631631631632 	300.0237429690969 	0.06866914809531627 	101353.0709221551
-0.3791291291291294 	300.0187519353267 	0.05419004210171378 	101347.1695206194
-0.3766266266266269 	300.0134092062425 	0.03874313533090649 	101340.8526564546
-0.3741241241241244 	300.0078326438191 	0.02258286980447431 	101334.2594423698
-0.371621621621622 	300.0021412741471 	0.006107571061465119 	101327.5308016133
-0.3691191191191194 	299.9964076419225 	0.01151821026583989 	101320.752667441
-0.366616616616617 	299.9907245765341 	0.02683694091065885 	101314.0345291457
-0.3641141141141143 	299.9852180224759 	0.04276627670435427 	101307.5254679214
-0.3616116116116119 	299.9799876809365 	0.05792672743431295 	101301.3429594355
-0.3591091091091095 	299.9751337150526 	0.07192226233449797 	101295.6056289558
-0.356606606606607 	299.9707602656761 	0.08453147037899353 	101290.4365361127
-0.3541041041041044 	299.9669422516323 	0.09556405708612301 	101285.9240268905
-0.3516016016016019 	299.9637517819298 	0.1047996877730114 	101282.1534351945
-0.3490990990990994 	299.9612439421362 	0.1121300881536864 	101279.1894069823
-0.346596596596597 	299.9594453186526 	0.1172998672232311 	101277.0636789299
-0.3440940940940944 	299.9583988565108 	0.1202356262311797 	101275.8268524415
-0.3415915915915919 	299.9581463282254 	0.1209947924758744 	101275.528443001
-0.3390890890890895 	299.9586720202278 	0.1194667631675165 	101276.1497500856
-0.3365865865865869 	299.9599662940146 	0.1157715213870175 	101277.6791075503
-0.3340840840840844 	299.9620001265712 	0.1098776778277833 	101280.082641316
-0.3315815815815819 	299.9647237797553 	0.1019155050639303 	101283.3014343975
-0.3290790790790794 	299.968087055572 	0.0922110088204293 	101287.2763523969
-0.3265765765765769 	299.9720323704967 	0.08087664866355067 	101291.9393515832
-0.3240740740740744 	299.9764392525171 	0.0681799661236442 	101297.1478410232
-0.3215715715715718 	299.9812526578973 	0.05422393635174531 	101302.8372009541
-0.3190690690690695 	299.9863911299242 	0.03929842485104334 	101308.9109425315
-0.3165665665665668 	299.991749547899 	0.02383581854745302 	101315.2451328165
-0.3140640640640644 	299.9971964672732 	0.008082670202404506 	101321.6841909641
-0.311561561561562 	300.0026612717488 	0.009273646435069458 	101328.1445358267
-0.3090590590590593 	300.0081165500202 	0.02351621220841676 	101334.5940686702
-0.3065565565565568 	300.0134707909268 	0.03897991095276779 	101340.9242939997
-0.3040540540540545 	300.0186145135931 	0.05383829460595773 	101347.006134589
-0.3015515515515518 	300.0234510347856 	0.06781231224414223 	101352.7248951078
-0.2990490490490494 	300.0278900914158 	0.08064473704023031 	101357.9738207899
-0.2965465465465469 	300.0318332997252 	0.09207058597904536 	101362.6367100805
-0.2940440440440444 	300.0352235656837 	0.1018806603526608 	101366.6457194351
-0.2915415415415418 	300.0379831145202 	0.1098299155626526 	101369.9092438024
-0.2890390390390395 	300.0400488541396 	0.1157912914072023 	101372.3521932021