/*--------------------------------*- C++ -*----------------------------------*\
  =========                 |
  \\      /  F ield         | OpenFOAM: The Open Source CFD Toolbox
   \\    /   O peration     | Website:  https://openfoam.org
    \\  /    A nd           | Version:  7
     \\/     M anipulation  |
\*---------------------------------------------------------------------------*/
FoamFile
{
    version     2.0;
    format      ascii;
    class       volScalarField;
    location    "0.00239";
    object      rho;
}
// * * * * * * * * * * * * * * * * * * * * * * * * * * * * * * * * * * * * * //

dimensions      [1 -3 0 0 0 0 0];

internalField   nonuniform List<scalar> 
5000
(
0.99967431
0.99973763
0.99983597
0.99991529
1.0000136
1.0000934
1.0001918
1.0002717
1.0003701
1.00045
1.0005484
1.0006283
1.0007268
1.0008067
1.0009052
1.0009851
1.0010837
1.0011636
1.0012621
1.0013419
1.0014405
1.0015203
1.0016188
1.0016987
1.0017972
1.001877
1.0019755
1.0020552
1.0021537
1.0022335
1.002332
1.0024117
1.0025101
1.0025898
1.0026883
1.0027679
1.0028663
1.0029459
1.0030444
1.0031239
1.0032224
1.0033019
1.0034003
1.0034798
1.0035782
1.0036577
1.0037561
1.0038355
1.0039339
1.0040133
1.0041116
1.004191
1.0042893
1.0043687
1.004467
1.0045463
1.0046446
1.0047239
1.0048222
1.0049014
1.0049997
1.0050789
1.0051772
1.0052564
1.0053546
1.0054338
1.005532
1.0056111
1.0057094
1.0057884
1.0058867
1.0059657
1.0060639
1.0061429
1.0062411
1.0063201
1.0064183
1.0064972
1.0065954
1.0066743
1.0067725
1.0068513
1.0069495
1.0070283
1.0071265
1.0072052
1.0073034
1.0073821
1.0074803
1.007559
1.0076571
1.0077358
1.0078339
1.0079125
1.0080107
1.0080893
1.0081874
1.0082659
1.008364
1.0084426
1.0085406
1.0086191
1.0087172
1.0087957
1.0088937
1.0089722
1.0090702
1.0091486
1.0092466
1.009325
1.009423
1.0095013
1.0095993
1.0096776
1.0097756
1.0098538
1.0099517
1.0100299
1.0101279
1.010206
1.0103039
1.010382
1.01048
1.0105581
1.010656
1.0107341
1.0108321
1.0109101
1.0110081
1.0110861
1.0111841
1.0112622
1.0113602
1.0114382
1.0115363
1.0116143
1.0117123
1.0117903
1.0118883
1.0119663
1.0120643
1.0121423
1.0122403
1.0123182
1.0124162
1.0124941
1.0125921
1.0126699
1.012768
1.0128458
1.0129438
1.0130215
1.0131195
1.0131973
1.0132952
1.0133729
1.0134709
1.0135486
1.0136465
1.0137242
1.0138221
1.0138997
1.0139977
1.0140752
1.0141732
1.0142507
1.0143486
1.0144261
1.014524
1.0146015
1.0146994
1.0147768
1.0148747
1.0149521
1.01505
1.0151273
1.0152253
1.0153025
1.0154005
1.0154777
1.0155756
1.0156528
1.0157507
1.0158279
1.0159258
1.0160029
1.0161008
1.0161779
1.0162758
1.0163529
1.0164507
1.0165278
1.0166256
1.0167026
1.0168005
1.0168774
1.0169753
1.0170522
1.0171501
1.017227
1.0173247
1.0174017
1.0174993
1.0175764
1.017674
1.0177508
1.0178488
1.0179252
1.0180235
1.0180996
1.018198
1.0182742
1.0183722
1.0184491
1.018546
1.0186242
1.0187195
1.0187995
1.0188929
1.0189748
1.0190663
1.0191499
1.0192397
1.0193248
1.0194134
1.0194995
1.0195871
1.019674
1.019761
1.0198482
1.0199349
1.0200224
1.0201089
1.0201964
1.0202829
1.0203704
1.0204568
1.0205443
1.0206308
1.0207182
1.0208046
1.0208921
1.0209785
1.0210658
1.0211522
1.0212396
1.021326
1.0214133
1.0214997
1.021587
1.0216733
1.0217606
1.0218469
1.0219342
1.0220204
1.0221077
1.0221939
1.0222812
1.0223674
1.0224546
1.0225408
1.0226281
1.0227142
1.0228014
1.0228876
1.0229747
1.023061
1.023148
1.0232343
1.0233213
1.0234077
1.0234945
1.023581
1.0236677
1.0237543
1.0238409
1.0239276
1.0240141
1.0241008
1.0241874
1.0242741
1.0243606
1.0244473
1.0245337
1.0246205
1.0247069
1.0247937
1.02488
1.0249668
1.0250532
1.0251399
1.0252262
1.025313
1.0253993
1.025486
1.0255723
1.025659
1.0257453
1.025832
1.0259182
1.0260049
1.0260912
1.0261778
1.026264
1.0263506
1.0264368
1.0265234
1.0266096
1.0266962
1.0267824
1.0268689
1.0269551
1.0270416
1.0271277
1.0272143
1.0273004
1.0273869
1.027473
1.0275594
1.0276455
1.027732
1.027818
1.0279045
1.0279905
1.0280769
1.0281629
1.0282493
1.0283353
1.0284217
1.0285076
1.028594
1.0286799
1.0287663
1.0288522
1.0289385
1.0290244
1.0291107
1.0291966
1.0292829
1.0293688
1.029455
1.0295409
1.0296271
1.0297129
1.0297992
1.029885
1.0299712
1.0300569
1.0301431
1.0302289
1.0303151
1.0304008
1.0304869
1.0305727
1.0306588
1.0307445
1.0308306
1.0309163
1.0310024
1.031088
1.0311741
1.0312598
1.0313458
1.0314314
1.0315174
1.0316031
1.0316891
1.0317746
1.0318606
1.0319462
1.0320322
1.0321177
1.0322037
1.0322892
1.0323751
1.0324606
1.0325465
1.032632
1.0327179
1.0328034
1.0328892
1.0329747
1.0330605
1.033146
1.0332318
1.0333172
1.033403
1.0334884
1.0335742
1.0336595
1.0337453
1.0338307
1.0339164
1.0340017
1.0340875
1.0341728
1.0342585
1.0343438
1.0344295
1.0345147
1.0346004
1.0346856
1.0347713
1.0348565
1.0349422
1.0350273
1.035113
1.0351982
1.0352838
1.0353689
1.0354545
1.0355397
1.0356253
1.0357104
1.035796
1.0358811
1.0359667
1.0360517
1.0361373
1.0362224
1.036308
1.036393
1.0364786
1.0365636
1.0366492
1.0367342
1.0368197
1.0369048
1.0369903
1.0370754
1.0371608
1.037246
1.0373313
1.0374165
1.0375018
1.037587
1.0376723
1.0377575
1.0378428
1.037928
1.0380132
1.0380984
1.0381836
1.0382688
1.038354
1.0384391
1.0385243
1.0386095
1.0386946
1.0387798
1.0388649
1.03895
1.0390352
1.0391203
1.0392054
1.0392905
1.0393755
1.0394606
1.0395457
1.0396307
1.0397158
1.0398008
1.0398858
1.0399709
1.0400559
1.0401409
1.0402259
1.0403108
1.0403958
1.0404808
1.0405657
1.0406507
1.0407356
1.0408205
1.0409055
1.0409904
1.0410753
1.0411602
1.041245
1.0413299
1.0414148
1.0414996
1.0415845
1.0416693
1.0417541
1.0418389
1.0419237
1.0420085
1.0420933
1.0421781
1.0422629
1.0423476
1.0424324
1.0425171
1.0426019
1.0426866
1.0427713
1.042856
1.0429407
1.0430254
1.0431101
1.0431947
1.0432794
1.043364
1.0434487
1.0435333
1.0436179
1.0437025
1.0437872
1.0438717
1.0439563
1.0440409
1.0441255
1.04421
1.0442946
1.0443791
1.0444637
1.0445482
1.0446327
1.0447172
1.0448017
1.0448862
1.0449707
1.0450551
1.0451396
1.045224
1.0453085
1.0453929
1.0454773
1.0455617
1.0456461
1.0457305
1.0458149
1.0458993
1.0459837
1.046068
1.0461524
1.0462367
1.046321
1.0464053
1.0464897
1.046574
1.0466582
1.0467425
1.0468268
1.0469111
1.0469953
1.0470796
1.0471638
1.047248
1.0473322
1.0474165
1.0475007
1.0475849
1.047669
1.0477532
1.0478374
1.0479215
1.0480057
1.0480898
1.048174
1.0482581
1.0483422
1.0484263
1.0485104
1.0485945
1.0486786
1.0487627
1.0488468
1.0489309
1.0490149
1.049099
1.0491831
1.0492671
1.0493512
1.0494352
1.0495193
1.0496033
1.0496873
1.0497714
1.0498554
1.0499394
1.0500234
1.0501074
1.0501914
1.0502754
1.0503594
1.0504434
1.0505274
1.0506113
1.0506953
1.0507793
1.0508632
1.0509472
1.0510311
1.0511151
1.051199
1.0512829
1.0513668
1.0514507
1.0515346
1.0516185
1.0517024
1.0517863
1.0518702
1.0519541
1.0520379
1.0521218
1.0522056
1.0522895
1.0523733
1.0524571
1.0525409
1.0526247
1.0527085
1.0527923
1.0528761
1.0529599
1.0530436
1.0531274
1.0532111
1.0532949
1.0533786
1.0534623
1.053546
1.0536297
1.0537134
1.0537971
1.0538808
1.0539644
1.0540481
1.0541318
1.0542154
1.054299
1.0543827
1.0544663
1.0545499
1.0546335
1.0547171
1.0548006
1.0548842
1.0549678
1.0550513
1.0551349
1.0552184
1.055302
1.0553855
1.055469
1.0555525
1.055636
1.0557195
1.0558029
1.0558864
1.0559699
1.0560533
1.0561368
1.0562202
1.0563036
1.056387
1.0564704
1.0565538
1.0566372
1.0567206
1.056804
1.0568874
1.0569707
1.0570541
1.0571374
1.0572207
1.057304
1.0573874
1.0574707
1.057554
1.0576372
1.0577205
1.0578038
1.057887
1.0579703
1.0580535
1.0581368
1.05822
1.0583032
1.0583864
1.0584696
1.0585528
1.058636
1.0587191
1.0588023
1.0588854
1.0589686
1.0590517
1.0591348
1.0592179
1.059301
1.0593841
1.0594672
1.0595503
1.0596333
1.0597164
1.0597994
1.0598825
1.0599655
1.0600485
1.0601315
1.0602145
1.0602975
1.0603805
1.0604634
1.0605464
1.0606293
1.0607123
1.0607952
1.0608781
1.060961
1.0610439
1.0611268
1.0612097
1.0612925
1.0613754
1.0614582
1.0615411
1.0616239
1.0617067
1.0617895
1.0618723
1.0619551
1.0620379
1.0621206
1.0622034
1.0622861
1.0623689
1.0624516
1.0625343
1.062617
1.0626997
1.0627824
1.0628651
1.0629478
1.0630304
1.0631131
1.0631957
1.0632783
1.0633609
1.0634435
1.0635261
1.0636087
1.0636912
1.0637738
1.0638563
1.0639388
1.0640213
1.0641038
1.0641863
1.0642688
1.0643512
1.0644336
1.064516
1.0645984
1.0646808
1.0647631
1.0648455
1.0649278
1.06501
1.0650923
1.0651746
1.0652568
1.065339
1.0654212
1.0655033
1.0655854
1.0656675
1.0657496
1.0658317
1.0659137
1.0659957
1.0660777
1.0661596
1.0662415
1.0663234
1.0664052
1.066487
1.0665688
1.0666505
1.0667323
1.0668139
1.0668956
1.0669772
1.0670587
1.0671403
1.0672217
1.0673032
1.0673846
1.067466
1.0675473
1.0676286
1.0677098
1.067791
1.0678721
1.0679532
1.0680342
1.0681152
1.0681962
1.068277
1.0683579
1.0684387
1.0685194
1.0686
1.0686807
1.0687612
1.0688417
1.0689221
1.0690025
1.0690828
1.069163
1.0692432
1.0693233
1.0694033
1.0694833
1.0695632
1.069643
1.0697227
1.0698024
1.069882
1.0699615
1.0700409
1.0701202
1.0701995
1.0702786
1.0703577
1.0704367
1.0705156
1.0705944
1.0706731
1.0707517
1.0708303
1.0709087
1.070987
1.0710652
1.0711433
1.0712213
1.0712992
1.071377
1.0714547
1.0715322
1.0716097
1.071687
1.0717642
1.0718413
1.0719182
1.0719951
1.0720718
1.0721483
1.0722248
1.0723011
1.0723773
1.0724533
1.0725292
1.072605
1.0726806
1.072756
1.0728313
1.0729065
1.0729815
1.0730564
1.0731311
1.0732056
1.07328
1.0733543
1.0734283
1.0735022
1.073576
1.0736495
1.0737229
1.0737961
1.0738691
1.073942
1.0740146
1.0740871
1.0741594
1.0742316
1.0743035
1.0743753
1.0744468
1.0745182
1.0745894
1.0746603
1.0747311
1.0748017
1.074872
1.0749422
1.0750121
1.0750818
1.0751513
1.0752206
1.0752897
1.0753586
1.0754272
1.0754956
1.0755638
1.0756317
1.0756995
1.075767
1.0758342
1.0759012
1.075968
1.0760346
1.0761009
1.076167
1.0762328
1.0762984
1.0763637
1.0764288
1.0764936
1.0765582
1.0766225
1.0766866
1.0767504
1.0768139
1.0768772
1.0769403
1.077003
1.0770655
1.0771278
1.0771897
1.0772515
1.0773129
1.0773741
1.077435
1.0774956
1.0775559
1.077616
1.0776758
1.0777353
1.0777945
1.0778535
1.0779121
1.0779705
1.0780286
1.0780865
1.078144
1.0782013
1.0782582
1.0783149
1.0783713
1.0784275
1.0784833
1.0785389
1.0785941
1.0786491
1.0787038
1.0787582
1.0788123
1.0788661
1.0789197
1.0789729
1.0790259
1.0790786
1.079131
1.0791831
1.0792349
1.0792864
1.0793376
1.0793886
1.0794392
1.0794896
1.0795397
1.0795895
1.079639
1.0796883
1.0797372
1.0797859
1.0798342
1.0798823
1.0799301
1.0799777
1.0800249
1.0800719
1.0801186
1.080165
1.0802112
1.080257
1.0803026
1.0803479
1.080393
1.0804377
1.0804822
1.0805265
1.0805704
1.0806141
1.0806575
1.0807007
1.0807435
1.0807862
1.0808285
1.0808706
1.0809125
1.0809541
1.0809954
1.0810365
1.0810773
1.0811179
1.0811582
1.0811982
1.081238
1.0812776
1.0813169
1.081356
1.0813949
1.0814334
1.0814718
1.0815099
1.0815478
1.0815854
1.0816228
1.08166
1.081697
1.0817337
1.0817702
1.0818065
1.0818425
1.0818784
1.081914
1.0819494
1.0819846
1.0820196
1.0820543
1.0820889
1.0821232
1.0821574
1.0821913
1.082225
1.0822585
1.0822918
1.082325
1.0823579
1.0823906
1.0824232
1.0824556
1.0824878
1.0825198
1.0825516
1.0825832
1.0826146
1.0826459
1.082677
1.0827079
1.0827386
1.0827692
1.0827996
1.0828298
1.0828599
1.0828898
1.0829196
1.0829492
1.0829786
1.0830079
1.083037
1.0830659
1.0830948
1.0831234
1.0831519
1.0831803
1.0832085
1.0832366
1.0832645
1.0832923
1.08332
1.0833475
1.0833749
1.0834022
1.0834293
1.0834563
1.0834831
1.0835098
1.0835364
1.0835629
1.0835893
1.0836155
1.0836416
1.0836676
1.0836935
1.0837193
1.083745
1.0837705
1.0837959
1.0838212
1.0838464
1.0838715
1.0838965
1.0839213
1.0839461
1.0839708
1.0839953
1.0840198
1.0840441
1.0840683
1.0840925
1.0841165
1.0841404
1.0841643
1.084188
1.0842117
1.0842353
1.0842588
1.0842822
1.0843054
1.0843286
1.0843517
1.0843748
1.0843977
1.0844205
1.0844433
1.084466
1.0844886
1.0845111
1.0845335
1.0845558
1.084578
1.0846002
1.0846222
1.0846442
1.0846662
1.084688
1.0847098
1.0847314
1.0847531
1.0847746
1.0847961
1.0848174
1.0848387
1.0848599
1.0848811
1.0849021
1.0849232
1.0849441
1.0849649
1.0849857
1.0850064
1.085027
1.0850476
1.0850681
1.0850885
1.0851089
1.0851292
1.0851494
1.0851695
1.0851895
1.0852095
1.0852294
1.0852493
1.0852691
1.0852887
1.0853084
1.0853279
1.0853474
1.0853669
1.0853862
1.0854055
1.0854248
1.0854439
1.085463
1.085482
1.0855009
1.0855198
1.0855387
1.0855574
1.0855761
1.0855947
1.0856132
1.0856317
1.0856501
1.0856685
1.0856868
1.085705
1.0857231
1.0857412
1.0857592
1.0857772
1.0857951
1.0858129
1.0858306
1.0858483
1.0858659
1.0858835
1.0859009
1.0859183
1.0859357
1.085953
1.0859702
1.0859873
1.0860044
1.0860214
1.0860384
1.0860552
1.086072
1.0860888
1.0861055
1.0861221
1.0861387
1.0861551
1.0861716
1.0861879
1.0862042
1.0862204
1.0862366
1.0862526
1.0862686
1.0862846
1.0863005
1.0863163
1.086332
1.0863478
1.0863634
1.0863789
1.0863944
1.0864099
1.0864252
1.0864405
1.0864558
1.0864709
1.086486
1.086501
1.086516
1.0865309
1.0865458
1.0865606
1.0865753
1.08659
1.0866046
1.0866191
1.0866336
1.086648
1.0866624
1.0866766
1.0866909
1.086705
1.0867191
1.0867332
1.0867472
1.0867611
1.086775
1.0867888
1.0868026
1.0868162
1.0868298
1.0868434
1.0868569
1.0868704
1.0868838
1.0868972
1.0869105
1.0869237
1.0869369
1.08695
1.0869631
1.0869761
1.0869891
1.087002
1.0870148
1.0870276
1.0870403
1.0870531
1.0870657
1.0870783
1.0870908
1.0871033
1.0871158
1.0871282
1.0871405
1.0871528
1.0871651
1.0871773
1.0871894
1.0872015
1.0872135
1.0872255
1.0872375
1.0872494
1.0872613
1.0872731
1.0872849
1.0872966
1.0873083
1.08732
1.0873316
1.0873431
1.0873547
1.0873661
1.0873776
1.0873889
1.0874003
1.0874116
1.0874229
1.0874341
1.0874453
1.0874564
1.0874676
1.0874786
1.0874897
1.0875007
1.0875116
1.0875225
1.0875334
1.0875443
1.0875551
1.0875659
1.0875766
1.0875873
1.087598
1.0876086
1.0876192
1.0876298
1.0876404
1.0876509
1.0876613
1.0876718
1.0876822
1.0876926
1.087703
1.0877133
1.0877236
1.0877338
1.0877441
1.0877543
1.0877645
1.0877746
1.0877847
1.0877948
1.0878049
1.087815
1.087825
1.087835
1.0878449
1.0878549
1.0878648
1.0878747
1.0878846
1.0878944
1.0879042
1.087914
1.0879238
1.0879336
1.0879433
1.087953
1.0879627
1.0879724
1.0879821
1.0879917
1.0880013
1.0880109
1.0880205
1.08803
1.0880396
1.0880491
1.0880586
1.0880681
1.0880776
1.088087
1.0880965
1.0881059
1.0881153
1.0881247
1.0881341
1.0881435
1.0881528
1.0881622
1.0881715
1.0881809
1.0881901
1.0881995
1.0882087
1.0882181
1.0882273
1.0882366
1.0882458
1.0882551
1.0882643
1.0882736
1.0882828
1.088292
1.0883012
1.0883104
1.0883196
1.0883289
1.088338
1.0883473
1.0883564
1.0883657
1.0883748
1.088384
1.0883932
1.0884024
1.0884116
1.0884208
1.08843
1.0884392
1.0884484
1.0884577
1.0884669
1.0884761
1.0884854
1.0884946
1.0885039
1.0885131
1.0885224
1.0885317
1.088541
1.0885503
1.0885596
1.088569
1.0885783
1.0885877
1.088597
1.0886064
1.0886159
1.0886253
1.0886347
1.0886442
1.0886537
1.0886632
1.0886727
1.0886823
1.0886919
1.0887014
1.0887111
1.0887207
1.0887304
1.0887401
1.0887498
1.0887595
1.0887693
1.0887791
1.0887889
1.0887988
1.0888087
1.0888186
1.0888285
1.0888385
1.0888485
1.0888586
1.0888686
1.0888787
1.0888889
1.088899
1.0889092
1.0889195
1.0889298
1.0889401
1.0889504
1.0889608
1.0889712
1.0889817
1.0889922
1.0890027
1.0890133
1.0890239
1.0890346
1.0890453
1.089056
1.0890668
1.0890776
1.0890884
1.0890993
1.0891103
1.0891212
1.0891323
1.0891433
1.0891544
1.0891656
1.0891768
1.089188
1.0891993
1.0892106
1.089222
1.0892334
1.0892448
1.0892563
1.0892679
1.0892795
1.0892911
1.0893028
1.0893145
1.0893263
1.0893381
1.0893499
1.0893618
1.0893738
1.0893857
1.0893978
1.0894098
1.089422
1.0894341
1.0894463
1.0894586
1.0894709
1.0894832
1.0894956
1.0895081
1.0895205
1.0895331
1.0895456
1.0895582
1.0895709
1.0895836
1.0895963
1.0896091
1.0896219
1.0896348
1.0896477
1.0896606
1.0896736
1.0896867
1.0896997
1.0897129
1.089726
1.0897392
1.0897524
1.0897657
1.089779
1.0897924
1.0898058
1.0898192
1.0898326
1.0898461
1.0898597
1.0898732
1.0898869
1.0899005
1.0899142
1.0899279
1.0899416
1.0899554
1.0899692
1.0899831
1.0899969
1.0900108
1.0900248
1.0900387
1.0900527
1.0900667
1.0900808
1.0900949
1.090109
1.0901231
1.0901373
1.0901514
1.0901657
1.0901799
1.0901941
1.0902084
1.0902227
1.090237
1.0902514
1.0902658
1.0902801
1.0902945
1.090309
1.0903234
1.0903379
1.0903523
1.0903668
1.0903813
1.0903959
1.0904104
1.090425
1.0904395
1.0904541
1.0904687
1.0904833
1.090498
1.0905126
1.0905272
1.0905419
1.0905566
1.0905712
1.0905859
1.0906006
1.0906153
1.09063
1.0906447
1.0906594
1.0906741
1.0906889
1.0907036
1.0907183
1.0907331
1.0907478
1.0907626
1.0907773
1.0907921
1.0908068
1.0908216
1.0908363
1.0908511
1.0908658
1.0908806
1.0908953
1.0909101
1.0909248
1.0909396
1.0909543
1.0909691
1.0909838
1.0909985
1.0910133
1.091028
1.0910427
1.0910575
1.0910722
1.0910869
1.0911016
1.0911163
1.0911309
1.0911456
1.0911603
1.0911749
1.0911896
1.0912042
1.0912189
1.0912335
1.0912481
1.0912627
1.0912773
1.0912919
1.0913065
1.0913211
1.0913357
1.0913502
1.0913647
1.0913793
1.0913938
1.0914083
1.0914228
1.0914373
1.0914518
1.0914662
1.0914807
1.0914951
1.0915095
1.0915239
1.0915383
1.0915527
1.091567
1.0915814
1.0915957
1.0916101
1.0916244
1.0916387
1.091653
1.0916672
1.0916815
1.0916957
1.09171
1.0917242
1.0917384
1.0917526
1.0917667
1.0917809
1.0917951
1.0918092
1.0918233
1.0918374
1.0918515
1.0918656
1.0918796
1.0918937
1.0919077
1.0919217
1.0919357
1.0919496
1.0919636
1.0919775
1.0919915
1.0920054
1.0920193
1.0920332
1.092047
1.0920609
1.0920747
1.0920885
1.0921023
1.0921161
1.0921299
1.0921436
1.0921574
1.0921711
1.0921848
1.0921985
1.0922122
1.0922258
1.0922395
1.0922531
1.0922667
1.0922803
1.0922939
1.0923075
1.092321
1.0923346
1.0923481
1.0923616
1.0923751
1.0923885
1.092402
1.0924154
1.0924288
1.0924422
1.0924556
1.092469
1.0924823
1.0924957
1.092509
1.0925223
1.0925356
1.0925488
1.0925621
1.0925753
1.0925886
1.0926018
1.092615
1.0926281
1.0926413
1.0926544
1.0926676
1.0926807
1.0926938
1.0927068
1.0927199
1.0927329
1.0927459
1.092759
1.0927719
1.0927849
1.0927979
1.0928108
1.0928238
1.0928367
1.0928496
1.0928625
1.0928753
1.0928882
1.092901
1.0929138
1.0929266
1.0929394
1.0929522
1.0929649
1.0929776
1.0929903
1.093003
1.0930157
1.0930284
1.093041
1.0930537
1.0930663
1.0930789
1.0930915
1.093104
1.0931166
1.0931291
1.0931416
1.0931541
1.0931666
1.0931791
1.0931915
1.0932039
1.0932163
1.0932287
1.0932411
1.0932535
1.0932658
1.0932781
1.0932905
1.0933027
1.093315
1.0933273
1.0933395
1.0933517
1.093364
1.0933761
1.0933883
1.0934005
1.0934126
1.0934247
1.0934368
1.0934489
1.093461
1.093473
1.0934851
1.0934971
1.0935091
1.0935211
1.093533
1.093545
1.0935569
1.0935688
1.0935807
1.0935926
1.0936045
1.0936163
1.0936281
1.0936399
1.0936517
1.0936635
1.0936753
1.093687
1.0936988
1.0937105
1.0937222
1.0937338
1.0937455
1.0937571
1.0937688
1.0937804
1.093792
1.0938035
1.0938151
1.0938267
1.0938382
1.0938497
1.0938612
1.0938726
1.0938841
1.0938955
1.093907
1.0939184
1.0939298
1.0939412
1.0939525
1.0939639
1.0939752
1.0939865
1.0939978
1.0940091
1.0940203
1.0940316
1.0940428
1.094054
1.0940652
1.0940764
1.0940875
1.0940987
1.0941098
1.0941209
1.094132
1.0941431
1.0941541
1.0941651
1.0941762
1.0941872
1.0941982
1.0942092
1.0942201
1.0942311
1.094242
1.0942529
1.0942638
1.0942747
1.0942855
1.0942963
1.0943072
1.094318
1.0943288
1.0943395
1.0943503
1.094361
1.0943717
1.0943824
1.0943931
1.0944038
1.0944144
1.0944251
1.0944357
1.0944463
1.0944569
1.0944674
1.094478
1.0944885
1.094499
1.0945095
1.09452
1.0945305
1.0945409
1.0945513
1.0945618
1.0945721
1.0945825
1.0945929
1.0946032
1.0946135
1.0946238
1.0946341
1.0946444
1.0946547
1.0946649
1.0946751
1.0946853
1.0946955
1.0947057
1.0947158
1.094726
1.0947361
1.0947462
1.0947563
1.0947663
1.0947764
1.0947864
1.0947964
1.0948064
1.0948164
1.0948264
1.0948363
1.0948463
1.0948562
1.0948661
1.0948759
1.0948858
1.0948956
1.0949055
1.0949153
1.0949251
1.0949348
1.0949446
1.0949543
1.0949641
1.0949738
1.0949834
1.0949931
1.0950028
1.0950124
1.095022
1.0950316
1.0950412
1.0950507
1.0950603
1.0950698
1.0950793
1.0950888
1.0950983
1.0951077
1.0951172
1.0951266
1.095136
1.0951454
1.0951547
1.0951641
1.0951734
1.0951827
1.095192
1.0952013
1.0952106
1.0952198
1.095229
1.0952383
1.0952474
1.0952566
1.0952658
1.0952749
1.095284
1.0952931
1.0953022
1.0953113
1.0953203
1.0953294
1.0953384
1.0953474
1.0953563
1.0953653
1.0953742
1.0953832
1.0953921
1.0954009
1.0954098
1.0954187
1.0954275
1.0954363
1.0954451
1.0954539
1.0954627
1.0954714
1.0954801
1.0954888
1.0954975
1.0955062
1.0955148
1.0955235
1.0955321
1.0955407
1.0955492
1.0955578
1.0955663
1.0955749
1.0955834
1.0955918
1.0956003
1.0956088
1.0956172
1.0956256
1.095634
1.0956424
1.0956507
1.095659
1.0956673
1.0956756
1.0956839
1.0956922
1.0957004
1.0957086
1.0957168
1.095725
1.0957332
1.0957413
1.0957495
1.0957576
1.0957657
1.0957737
1.0957818
1.0957898
1.0957978
1.0958058
1.0958138
1.0958218
1.0958297
1.0958376
1.0958455
1.0958534
1.0958613
1.0958691
1.0958769
1.0958847
1.0958925
1.0959003
1.095908
1.0959157
1.0959234
1.0959311
1.0959388
1.0959465
1.0959541
1.0959617
1.0959693
1.0959769
1.0959845
1.095992
1.0959995
1.096007
1.0960145
1.096022
1.0960294
1.0960368
1.0960443
1.0960517
1.096059
1.0960664
1.0960737
1.096081
1.0960884
1.0960956
1.0961029
1.0961101
1.0961174
1.0961246
1.0961318
1.0961389
1.0961461
1.0961532
1.0961603
1.0961674
1.0961745
1.0961816
1.0961886
1.0961956
1.0962026
1.0962096
1.0962166
1.0962236
1.0962305
1.0962374
1.0962443
1.0962512
1.0962581
1.0962649
1.0962718
1.0962786
1.0962854
1.0962921
1.0962989
1.0963056
1.0963123
1.096319
1.0963257
1.0963324
1.096339
1.0963457
1.0963523
1.0963589
1.0963654
1.096372
1.0963785
1.096385
1.0963916
1.0963981
1.0964046
1.096411
1.0964174
1.0964239
1.0964303
1.0964367
1.0964431
1.0964494
1.0964557
1.096462
1.0964683
1.0964746
1.0964808
1.0964871
1.0964933
1.0964995
1.0965057
1.0965118
1.096518
1.0965241
1.0965302
1.0965363
1.0965424
1.0965484
1.0965545
1.0965605
1.0965665
1.0965725
1.0965785
1.0965844
1.0965903
1.0965962
1.0966021
1.096608
1.0966139
1.0966197
1.0966255
1.0966313
1.0966371
1.0966429
1.0966486
1.0966544
1.0966601
1.0966658
1.0966714
1.0966771
1.0966827
1.0966884
1.096694
1.0966995
1.0967051
1.0967106
1.0967162
1.0967217
1.0967272
1.0967326
1.0967381
1.0967435
1.0967489
1.0967543
1.0967597
1.0967651
1.0967704
1.0967757
1.096781
1.0967863
1.0967916
1.0967968
1.096802
1.0968072
1.0968124
1.0968176
1.0968227
1.0968279
1.096833
1.096838
1.0968431
1.0968482
1.0968532
1.0968582
1.0968632
1.0968681
1.0968731
1.096878
1.0968829
1.0968878
1.0968927
1.0968975
1.0969024
1.0969072
1.096912
1.0969167
1.0969215
1.0969262
1.0969309
1.0969356
1.0969402
1.0969449
1.0969495
1.0969541
1.0969587
1.0969632
1.0969678
1.0969723
1.0969768
1.0969813
1.0969858
1.0969902
1.0969946
1.096999
1.0970034
1.0970078
1.0970121
1.0970164
1.0970207
1.097025
1.0970293
1.0970335
1.0970377
1.0970419
1.0970461
1.0970502
1.0970543
1.0970584
1.0970625
1.0970666
1.0970707
1.0970747
1.0970787
1.0970827
1.0970867
1.0970907
1.0970946
1.0970985
1.0971024
1.0971063
1.0971101
1.097114
1.0971178
1.0971216
1.0971254
1.0971291
1.0971329
1.0971366
1.0971403
1.0971439
1.0971476
1.0971512
1.0971548
1.0971584
1.097162
1.0971656
1.0971691
1.0971727
1.0971762
1.0971797
1.0971831
1.0971866
1.09719
1.0971934
1.0971968
1.0972002
1.0972036
1.0972069
1.0972102
1.0972135
1.0972168
1.0972201
1.0972233
1.0972265
1.0972297
1.0972329
1.0972361
1.0972392
1.0972424
1.0972455
1.0972486
1.0972517
1.0972547
1.0972578
1.0972608
1.0972638
1.0972668
1.0972698
1.0972728
1.0972757
1.0972786
1.0972815
1.0972844
1.0972873
1.0972901
1.0972929
1.0972957
1.0972985
1.0973013
1.0973041
1.0973068
1.0973095
1.0973122
1.0973149
1.0973176
1.0973203
1.0973229
1.0973255
1.0973281
1.0973307
1.0973332
1.0973358
1.0973383
1.0973408
1.0973433
1.0973458
1.0973482
1.0973507
1.0973531
1.0973555
1.0973579
1.0973603
1.0973626
1.097365
1.0973673
1.0973696
1.0973718
1.0973741
1.0973763
1.0973786
1.0973808
1.0973829
1.0973851
1.0973873
1.0973894
1.0973915
1.0973936
1.0973957
1.0973977
1.0973998
1.0974018
1.0974038
1.0974058
1.0974078
1.0974098
1.0974117
1.0974136
1.0974155
1.0974174
1.0974193
1.0974211
1.097423
1.0974248
1.0974266
1.0974283
1.0974301
1.0974318
1.0974336
1.0974353
1.097437
1.0974386
1.0974403
1.0974419
1.0974435
1.0974451
1.0974467
1.0974482
1.0974498
1.0974513
1.0974528
1.0974543
1.0974558
1.0974572
1.0974586
1.0974601
1.0974615
1.0974628
1.0974642
1.0974655
1.0974669
1.0974682
1.0974694
1.0974707
1.097472
1.0974732
1.0974744
1.0974756
1.0974768
1.0974779
1.0974791
1.0974802
1.0974813
1.0974823
1.0974834
1.0974844
1.0974855
1.0974865
1.0974874
1.0974884
1.0974894
1.0974903
1.0974912
1.0974921
1.0974929
1.0974938
1.0974946
1.0974954
1.0974962
1.097497
1.0974977
1.0974985
1.0974992
1.0974999
1.0975006
1.0975012
1.0975018
1.0975025
1.097503
1.0975036
1.0975042
1.0975047
1.0975052
1.0975057
1.0975062
1.0975066
1.0975071
1.0975075
1.0975079
1.0975083
1.0975086
1.0975089
1.0975093
1.0975095
1.0975098
1.0975101
1.0975103
1.0975105
1.0975107
1.0975109
1.097511
1.0975111
1.0975112
1.0975113
1.0975114
1.0975114
1.0975114
1.0975114
1.0975114
1.0975114
1.0975113
1.0975113
1.0975112
1.0975111
1.0975109
1.0975108
1.0975106
1.0975104
1.0975102
1.0975099
1.0975097
1.0975094
1.0975091
1.0975088
1.0975084
1.0975081
1.0975077
1.0975073
1.0975068
1.0975064
1.0975059
1.0975055
1.097505
1.0975044
1.0975039
1.0975033
1.0975028
1.0975022
1.0975015
1.0975009
1.0975002
1.0974996
1.0974989
1.0974981
1.0974974
1.0974966
1.0974958
1.097495
1.0974942
1.0974934
1.0974925
1.0974916
1.0974907
1.0974898
1.0974889
1.0974879
1.0974869
1.0974859
1.0974849
1.0974838
1.0974827
1.0974817
1.0974806
1.0974794
1.0974783
1.0974771
1.0974759
1.0974747
1.0974735
1.0974723
1.097471
1.0974698
1.0974685
1.0974672
1.0974658
1.0974645
1.0974631
1.0974617
1.0974603
1.0974589
1.0974574
1.097456
1.0974545
1.097453
1.0974515
1.0974499
1.0974483
1.0974468
1.0974452
1.0974435
1.0974419
1.0974402
1.0974386
1.0974369
1.0974351
1.0974334
1.0974316
1.0974298
1.0974281
1.0974262
1.0974244
1.0974225
1.0974207
1.0974188
1.0974169
1.0974149
1.097413
1.097411
1.097409
1.097407
1.097405
1.097403
1.0974009
1.0973988
1.0973967
1.0973946
1.0973925
1.0973903
1.0973881
1.0973859
1.0973837
1.0973815
1.0973793
1.097377
1.0973747
1.0973724
1.0973701
1.0973677
1.0973654
1.097363
1.0973606
1.0973582
1.0973557
1.0973533
1.0973508
1.0973483
1.0973458
1.0973432
1.0973406
1.097338
1.0973354
1.0973328
1.0973301
1.0973275
1.0973248
1.0973221
1.0973195
1.0973167
1.097314
1.0973112
1.0973084
1.0973056
1.0973027
1.0972998
1.097297
1.0972941
1.0972912
1.0972883
1.0972854
1.0972824
1.0972794
1.0972764
1.0972734
1.0972703
1.0972673
1.0972642
1.0972611
1.097258
1.0972548
1.0972516
1.0972485
1.0972452
1.097242
1.0972388
1.0972355
1.0972322
1.0972289
1.0972256
1.0972222
1.0972189
1.0972155
1.097212
1.0972086
1.0972052
1.0972017
1.0971982
1.0971947
1.0971911
1.0971876
1.097184
1.0971804
1.0971768
1.0971731
1.0971695
1.0971658
1.097162
1.0971583
1.0971546
1.0971508
1.097147
1.0971432
1.0971393
1.0971355
1.0971316
1.0971277
1.0971238
1.0971198
1.0971159
1.0971119
1.0971079
1.0971039
1.0970999
1.0970958
1.0970918
1.0970877
1.0970836
1.0970795
1.0970753
1.0970712
1.097067
1.0970627
1.0970585
1.0970543
1.09705
1.0970457
1.0970414
1.097037
1.0970326
1.0970282
1.0970238
1.0970193
1.0970149
1.0970104
1.0970058
1.0970013
1.0969967
1.0969922
1.0969875
1.0969829
1.0969783
1.0969736
1.0969689
1.0969642
1.0969594
1.0969546
1.0969499
1.0969451
1.0969402
1.0969354
1.0969305
1.0969256
1.0969207
1.0969158
1.0969109
1.0969059
1.0969009
1.096896
1.096891
1.096886
1.096881
1.096876
1.096871
1.0968661
1.0968611
1.0968561
1.0968511
1.096846
1.096841
1.096836
1.0968311
1.096826
1.096821
1.096816
1.096811
1.0968061
1.0968012
1.0967963
1.0967913
1.0967862
1.0967811
1.096776
1.0967711
1.0967662
1.0967612
1.0967562
1.096751
1.0967459
1.0967409
1.096736
1.096731
1.0967259
1.0967205
1.096715
1.0967094
1.0967038
1.0966984
1.0966929
1.0966874
1.0966817
1.0966757
1.0966695
1.0966633
1.096657
1.0966509
1.0966449
1.0966389
1.0966328
1.0966264
1.0966199
1.0966131
1.0966063
1.0965996
1.0965931
1.0965867
1.0965804
1.0965741
1.0965678
1.0965613
1.0965547
1.096548
1.0965412
1.0965345
1.0965279
1.0965214
1.0965152
1.0965092
1.0965034
1.0964978
1.0964924
1.0964871
1.0964816
1.0964758
1.0964696
1.0964628
1.0964554
1.0964474
1.0964389
1.0964301
1.096421
1.0964118
1.0964017
1.0963889
1.0963679
1.0963227
1.096208
1.0958954
1.0950187
1.0927907
1.0898494
1.0867061
1.0834151
1.0800399
1.076641
1.0732743
1.0699901
1.0668308
1.0638312
1.0610177
1.0584088
1.056016
1.0538439
1.0518916
1.0501536
1.0486206
1.0472803
1.0461186
1.04512
1.0442684
1.043548
1.0429429
1.0424384
1.0420207
1.041677
1.041396
1.0411677
1.0409832
1.040835
1.0407166
1.0406224
1.0405479
1.0404891
1.0404429
1.0404067
1.0403781
1.0403556
1.0403377
1.0403231
1.0403111
1.0403007
1.0402913
1.0402822
1.0402737
1.0402669
1.0402628
1.0402588
1.0402544
1.0402499
1.0402452
1.0402403
1.0402352
1.04023
1.0402247
1.0402193
1.0402137
1.0402081
1.0402025
1.0401967
1.0401909
1.0401851
1.0401792
1.0401732
1.0401673
1.0401613
1.0401554
1.0401494
1.0401435
1.0401376
1.0401317
1.0401258
1.0401199
1.0401141
1.0401083
1.0401025
1.0400968
1.040091
1.0400853
1.0400795
1.0400738
1.0400681
1.0400623
1.0400565
1.0400507
1.0400448
1.040039
1.040033
1.0400271
1.040021
1.0400149
1.0400088
1.0400026
1.0399964
1.03999
1.0399837
1.0399772
1.0399708
1.0399642
1.0399576
1.0399509
1.0399442
1.0399375
1.0399307
1.0399238
1.0399169
1.03991
1.039903
1.039896
1.0398889
1.0398818
1.0398747
1.0398675
1.0398604
1.0398531
1.0398459
1.0398386
1.0398313
1.039824
1.0398167
1.0398093
1.0398019
1.0397945
1.039787
1.0397795
1.039772
1.0397645
1.039757
1.0397494
1.0397418
1.0397342
1.0397266
1.039719
1.0397113
1.0397036
1.0396959
1.0396882
1.0396805
1.0396727
1.039665
1.0396572
1.0396494
1.0396415
1.0396337
1.0396258
1.0396179
1.03961
1.0396021
1.0395942
1.0395862
1.0395782
1.0395702
1.0395622
1.0395542
1.0395461
1.039538
1.0395299
1.0395218
1.0395137
1.0395056
1.0394974
1.0394892
1.039481
1.0394728
1.0394646
1.0394564
1.0394481
1.0394398
1.0394315
1.0394232
1.0394149
1.0394065
1.0393981
1.0393897
1.0393813
1.0393729
1.0393645
1.039356
1.0393475
1.039339
1.0393305
1.0393219