/*--------------------------------*- C++ -*----------------------------------*\
  =========                 |
  \\      /  F ield         | OpenFOAM: The Open Source CFD Toolbox
   \\    /   O peration     | Website:  https://openfoam.org
    \\  /    A nd           | Version:  7
     \\/     M anipulation  |
\*---------------------------------------------------------------------------*/
FoamFile
{
    version     2.0;
    format      ascii;
    class       volVectorField;
    location    "0.00239";
    object      U;
}
// * * * * * * * * * * * * * * * * * * * * * * * * * * * * * * * * * * * * * //

dimensions      [0 1 -1 0 0 0 0];

internalField   nonuniform List<vector> 
5000
(
(-72.573836 3.9256413e-17 0)
(-72.521094 4.0020838e-17 0)
(-72.495845 0 0)
(-72.466886 0 0)
(-72.438901 -2.1113526e-17 0)
(-72.410667 2.4010914e-32 -2.1120223e-17)
(-72.382476 2.1126649e-17 -4.503416e-32)
(-72.354197 0 6.3391887e-17)
(-72.32592 0 2.1133705e-17)
(-72.297572 -2.1136505e-17 -4.227301e-17)
(-72.269224 -4.2276493e-17 -4.2276493e-17)
(-72.24082 2.1139714e-17 2.1139714e-17)
(-72.212418 2.1140151e-17 -1.8025177e-31)
(-72.183975 -2.1140366e-17 -1.8626206e-31)
(-72.155533 0 4.2279301e-17)
(-72.127065 -2.113882e-17 -4.2277639e-17)
(-72.098597 2.7121388e-49 1.3560694e-49)
(-72.070114 2.113555e-17 -1.8621962e-31)
(-72.04163 0 -2.1133211e-17)
(-72.013139 2.1130982e-17 4.2261964e-17)
(-71.984648 -2.1128136e-17 2.1128136e-17)
(-71.956155 -2.1125443e-17 0)
(-71.927661 4.2244426e-17 0)
(-71.899169 -2.1119227e-17 -2.1119227e-17)
(-71.870678 -2.1115727e-17 1.8004352e-31)
(-71.84219 -1.7401564e-31 -1.7401564e-31)
(-71.813703 2.1108832e-17 -2.1108832e-17)
(-71.785221 2.1105461e-17 2.1105461e-17)
(-71.756742 -4.2203259e-17 2.1101629e-17)
(-71.728267 3.6578354e-31 -2.1098138e-17)
(-71.699796 -3.6871306e-31 3.6871306e-31)
(-71.671331 2.1090637e-17 -1.7982959e-31)
(-71.64287 4.2173292e-17 -2.1086646e-17)
(-71.614415 -4.2166061e-17 2.108303e-17)
(-71.585964 3.6545185e-31 2.1079007e-17)
(-71.55752 -1.8329339e-30 0)
(-71.52908 -7.3063746e-31 0)
(-71.500646 4.2135358e-17 -2.1067679e-17)
(-71.472217 -4.2127259e-17 -2.106363e-17)
(-71.443795 -4.2119947e-17 2.1059974e-17)
(-71.415377 4.2111838e-17 -3.5308267e-31)
(-71.386966 -1.4479857e-30 -2.1052259e-17)
(-71.358559 -4.2096404e-17 2.1048202e-17)
(-71.330159 2.1044542e-17 -3.558825e-31)
(-71.301764 6.3121456e-17 -2.1040485e-17)
(-71.273375 -2.1036827e-17 2.1036827e-17)
(-71.244991 -2.1032772e-17 -7.2332267e-31)
(-71.216613 -1.440417e-30 7.202085e-31)
(-71.188241 -4.2050123e-17 -7.2305751e-31)
(-71.159875 0 3.5847858e-31)
(-71.131514 2.1017353e-17 2.1017353e-17)
(-71.103159 2.9862262e-33 0)
(-71.074809 -2.1009647e-17 0)
(-71.046465 4.2011992e-17 0)
(-71.018127 -7.342009e-31 0)
(-70.989795 -4.1996607e-17 0)
(-70.961468 2.0994263e-17 0)
(-70.933147 -7.2485613e-31 0)
(-70.904831 -2.0986588e-17 0)
(-70.876522 0 0)
(-70.848218 2.0978916e-17 0)
(-70.819919 7.1538395e-31 0)
(-70.791627 5.9603852e-33 0)
(-70.76334 2.09676e-17 -2.09676e-17)
(-70.735058 -2.0963558e-17 -2.0963558e-17)
(-70.706783 7.3273143e-31 2.0959915e-17)
(-70.678513 2.0955874e-17 -3.6033907e-31)
(-70.650249 -2.0952236e-17 -1.0206003e-49)
(-70.621991 -2.0948204e-17 2.0948204e-17)
(-70.593738 2.094458e-17 0)
(-70.565491 2.0940564e-17 0)
(-70.53725 -2.0936957e-17 -2.0936957e-17)
(-70.509015 -2.0932957e-17 -2.0932957e-17)
(-70.480785 4.1858724e-17 0)
(-70.45256 2.0925368e-17 2.0925368e-17)
(-70.424341 -2.0921772e-17 7.2247853e-31)
(-70.396128 0 -2.0917771e-17)
(-70.36792 2.0914165e-17 -2.0914165e-17)
(-70.339718 -2.9715114e-33 2.0910152e-17)
(-70.311521 -2.0906537e-17 4.1813074e-17)
(-70.28333 2.0902519e-17 -4.1805038e-17)
(-70.255146 -5.9398263e-33 1.1879653e-32)
(-70.226966 5.9386869e-33 6.2684691e-17)
(-70.198793 2.0891298e-17 -4.1782596e-17)
(-70.170624 2.0887307e-17 -2.1727698e-30)
(-70.142462 7.271002e-31 4.1767452e-17)
(-70.114305 -2.0879749e-17 -6.2639248e-17)
(-70.086154 0 2.087618e-17)
(-70.058008 -2.087221e-17 2.087221e-17)
(-70.029868 -2.1648972e-30 -2.0868643e-17)
(-70.001732 -7.2940189e-31 2.0864673e-17)
(-69.973603 2.0861104e-17 2.0861104e-17)
(-69.945479 2.0857132e-17 7.2617428e-31)
(-69.917361 -4.1707125e-17 -4.1707125e-17)
(-69.889248 -1.4429348e-30 -1.4429348e-30)
(-69.861141 2.0846026e-17 -2.0846026e-17)
(-69.833039 0 -2.084206e-17)
(-69.804944 0 -7.3144834e-31)
(-69.776853 -2.0834545e-17 1.4507758e-30)
(-69.748769 -1.4446081e-30 4.166199e-17)
(-69.720689 4.165408e-17 2.082704e-17)
(-69.692616 -2.0823481e-17 -2.0823481e-17)
(-69.664548 -4.1638996e-17 2.9586286e-33)
(-69.636486 0 2.0815885e-17)
(-69.60843 2.0811814e-17 0)
(-69.580379 2.0808072e-17 -2.0808072e-17)
(-69.552335 -2.0803826e-17 -7.2431836e-31)
(-69.524296 -2.0799865e-17 2.0799865e-17)
(-69.496264 0 -2.0795362e-17)
(-69.468238 0 -2.0791118e-17)
(-69.440218 2.0786326e-17 4.1572652e-17)
(-69.412206 2.0781814e-17 2.0781814e-17)
(-69.3842 0 -6.2330403e-17)
(-69.356201 -2.0772149e-17 -2.0772149e-17)
(-69.328209 7.2599111e-31 6.2301321e-17)
(-69.300224 2.0762563e-17 -2.0762563e-17)
(-69.272246 -2.0757787e-17 -2.0757787e-17)
(-69.244274 5.898549e-33 -1.1797098e-32)
(-69.216308 -7.253753e-31 -2.0749491e-17)
(-69.188348 -8.3597599e-50 6.2238359e-17)
(-69.160393 4.1485591e-17 -1.4502824e-30)
(-69.132443 -8.8421485e-33 -4.1480726e-17)
(-69.104496 -2.073801e-17 4.1476021e-17)
(-69.076552 0 2.0736531e-17)
(-69.048611 -2.0735061e-17 -2.0735061e-17)
(-69.020672 2.0734346e-17 2.0734346e-17)
(-68.992734 2.0733483e-17 -2.0733483e-17)
(-68.964798 -4.1466383e-17 -4.1466383e-17)
(-68.936863 -2.0732555e-17 2.0732555e-17)
(-68.908929 4.146459e-17 7.1593542e-31)
(-68.880996 2.0731511e-17 2.0731511e-17)
(-68.853064 -2.0730953e-17 4.1461905e-17)
(-68.825134 -2.0729752e-17 -2.0729752e-17)
(-68.797207 -2.0728697e-17 -2.0728697e-17)
(-68.769281 0 -2.0726951e-17)
(-68.741359 2.0725334e-17 -7.2158553e-31)
(-68.713439 2.0723032e-17 -7.1856046e-31)
(-68.685523 -2.0720882e-17 7.2143053e-31)
(-68.657611 -7.1838889e-31 4.1436167e-17)
(-68.629703 2.0715484e-17 2.0715484e-17)
(-68.601798 -2.0712288e-17 -2.0712288e-17)
(-68.573899 -2.0709348e-17 -4.1418695e-17)
(-68.546004 0 -2.0705868e-17)
(-68.518115 2.07027e-17 -2.07027e-17)
(-68.49023 2.0699046e-17 1.4354575e-30)
(-68.462351 -2.069575e-17 4.13915e-17)
(-68.434476 2.0692005e-17 -5.8810215e-33)
(-68.406608 -1.1760134e-32 5.8800671e-33)
(-68.378744 -2.0684858e-17 7.1887317e-49)
(-68.350885 2.0681467e-17 2.0681467e-17)
(-68.323032 -2.0677649e-17 -1.4339737e-30)
(-68.295184 1.4396126e-30 2.8792252e-30)
(-68.267341 2.0670387e-17 2.0670387e-17)
(-68.239504 -2.0666945e-17 -2.0666945e-17)
(-68.211672 2.0663082e-17 2.0663082e-17)
(-68.183846 2.065963e-17 7.1636203e-31)
(-68.156025 -2.0655766e-17 -2.0655766e-17)
(-68.12821 0 2.0652323e-17)
(-68.1004 0 -2.9343247e-33)
(-68.072596 -2.064505e-17 -2.064505e-17)
(-68.044796 -2.064122e-17 0)
(-68.017002 2.0637811e-17 2.0637811e-17)
(-67.989214 2.0633989e-17 1.4280136e-30)
(-67.961431 -2.0630581e-17 -4.1261162e-17)
(-67.933652 -1.4304443e-30 2.0626756e-17)
(-67.90588 2.0623344e-17 -5.8615069e-33)
(-67.878112 -2.0619514e-17 -2.0619514e-17)
(-67.85035 -2.0616102e-17 2.0616102e-17)
(-67.822593 0 -2.0612275e-17)
(-67.794842 2.060887e-17 2.060887e-17)
(-67.767096 2.0605053e-17 -8.5853479e-30)
(-67.739355 0 -5.7148148e-30)
(-67.71162 -2.0597846e-17 2.0597846e-17)
(-67.68389 -2.0594452e-17 -4.1188904e-17)
(-67.656165 0 0)
(-67.628445 2.0587237e-17 -1.4277037e-30)
(-67.600731 4.282316e-30 -4.282316e-30)
(-67.573022 -2.0580009e-17 2.0580009e-17)
(-67.545319 2.0576186e-17 2.0576186e-17)
(-67.517621 2.0572784e-17 1.4179307e-30)
(-67.489928 -2.056897e-17 -2.056897e-17)
(-67.462241 -1.4203567e-30 2.056558e-17)
(-67.434559 1.4142502e-30 1.4142502e-30)
(-67.406883 8.7645736e-33 8.7645736e-33)
(-67.379211 2.0554606e-17 2.8479606e-30)
(-67.351546 -2.0551231e-17 -4.1102462e-17)
(-67.323885 -2.8498868e-30 2.0547434e-17)
(-67.29623 1.4130312e-30 2.0544056e-17)
(-67.268579 -1.4127699e-30 -1.4127699e-30)
(-67.240935 2.053688e-17 1.4154561e-30)
(-67.213295 0 -4.2689275e-30)
(-67.185662 0 1.41788e-30)
(-67.158033 -2.0525939e-17 -2.0525939e-17)
(-67.130409 -2.0522586e-17 0)
(-67.102791 0 0)
(-67.075178 0 0)
(-67.04757 2.0511714e-17 0)
(-67.019968 9.2898436e-50 -2.0508375e-17)
(-66.99237 -2.0504607e-17 4.2746618e-30)
(-66.964778 0 2.0501258e-17)
(-66.93719 2.0497482e-17 2.0497482e-17)
(-66.909609 -2.0494121e-17 -2.0494121e-17)
(-66.882032 -5.6781132e-30 -2.0490343e-17)
(-66.854462 4.0973963e-17 4.0973963e-17)
(-66.826896 -2.0483209e-17 1.4175787e-30)
(-66.799335 -4.2520409e-30 -4.2520409e-30)
(-66.77178 -2.9098284e-33 -2.0476097e-17)
(-66.744231 -2.0472771e-17 -2.0472771e-17)
(-66.716686 2.046901e-17 2.046901e-17)
(-66.689147 -2.9083508e-33 0)
(-66.661612 -2.8322134e-30 2.0461941e-17)
(-66.634083 1.4158777e-30 1.4158777e-30)
(-66.606559 -2.0454878e-17 -2.0454878e-17)
(-66.579041 0 -2.0451555e-17)
(-66.551527 2.0447816e-17 2.8476933e-30)
(-66.524019 1.4148973e-30 2.0444465e-17)
(-66.496516 5.6730854e-30 -4.0881505e-17)
(-66.469018 2.0437365e-17 2.0437365e-17)
(-66.441525 0 2.0433691e-17)
(-66.414038 -2.0430269e-17 -2.0430269e-17)
(-66.386556 -2.0426639e-17 2.0426639e-17)
(-66.359079 0 0)
(-66.331608 0 0)
(-66.304142 0 0)
(-66.27668 2.0412573e-17 2.0412573e-17)
(-66.249224 1.4124482e-30 -2.0409077e-17)
(-66.221774 -2.0405542e-17 -4.0811084e-17)
(-66.194328 0 2.0402028e-17)
(-66.166888 0 -1.417514e-30)
(-66.139452 2.0394976e-17 2.0394976e-17)
(-66.112022 2.0391455e-17 2.0391455e-17)
(-66.084598 -2.038792e-17 -4.0775839e-17)
(-66.057178 -2.0384399e-17 5.7935946e-33)
(-66.029764 0 -5.7925881e-33)
(-66.002355 2.0377333e-17 2.0377333e-17)
(-65.974951 2.0373785e-17 2.0373785e-17)
(-65.947552 -2.0370254e-17 -4.0740508e-17)
(-65.920159 -2.0366697e-17 2.8942817e-33)
(-65.892771 0 -4.2422793e-30)
(-65.865388 2.0359586e-17 2.0359586e-17)
(-65.83801 -5.6524636e-30 -1.1304927e-29)
(-65.810638 -1.4114204e-30 -2.8228409e-30)
(-65.783271 2.0348849e-17 2.0348849e-17)
(-65.755909 -2.0345225e-17 -2.0345225e-17)
(-65.728552 -2.0341603e-17 0)
(-65.701201 0 -2.0337944e-17)
(-65.673855 2.0334288e-17 2.0334288e-17)
(-65.646515 -2.8255905e-30 2.0330599e-17)
(-65.61918 2.0326918e-17 -2.0326918e-17)
(-65.59185 2.8187876e-30 0)
(-65.564526 -4.0639044e-17 -2.0319522e-17)
(-65.537208 2.0315818e-17 2.0315818e-17)
(-65.509895 -2.8172528e-30 2.0312146e-17)
(-65.482587 -7.050518e-30 -7.050518e-30)
(-65.455285 -1.4052358e-30 -4.0609724e-17)
(-65.427988 -2.0301274e-17 -4.0602548e-17)
(-65.400696 2.0297765e-17 6.0893296e-17)
(-65.37341 2.029431e-17 4.0588621e-17)
(-65.346129 0 0)
(-65.318852 -2.0287691e-17 -4.0575382e-17)
(-65.29158 -2.028455e-17 -2.028455e-17)
(-65.264313 0 2.0281507e-17)
(-65.237051 2.027861e-17 2.027861e-17)
(-65.209792 2.0275824e-17 2.0275824e-17)
(-65.182538 -4.0546388e-17 -4.0546388e-17)
(-65.155288 -2.0270679e-17 -4.0541358e-17)
(-65.128041 2.0268314e-17 2.0268314e-17)
(-65.100798 2.0266058e-17 4.0532116e-17)
(-65.073559 5.6211314e-30 5.6211314e-30)
(-65.046323 -2.0261897e-17 -4.0523793e-17)
(-65.019089 2.0259961e-17 2.0259961e-17)
(-64.991859 -1.4048776e-30 -2.8097551e-30)
(-64.964632 -2.0256277e-17 -2.0256277e-17)
(-64.937408 2.0254497e-17 4.0508993e-17)
(-64.910186 -1.4073845e-30 -2.0252737e-17)
(-64.882967 1.4101398e-30 2.8202795e-30)
(-64.855751 -5.7551655e-33 2.0249189e-17)
(-64.828538 -1.3983795e-30 -2.0247369e-17)
(-64.801328 2.0245495e-17 2.0245495e-17)
(-64.774121 0 -4.0487122e-17)
(-64.746917 0 8.4453958e-30)
(-64.719717 -2.0239462e-17 4.0478925e-17)
(-64.692519 -2.0237283e-17 -4.0474567e-17)
(-64.665325 0 -1.4004022e-30)
(-64.638135 0 2.0232654e-17)
(-64.610948 0 0)
(-64.583765 0 0)
(-64.556586 2.0224997e-17 2.0224997e-17)
(-64.529411 1.3937713e-30 -2.0222254e-17)
(-64.50224 -4.0438874e-17 -4.0438874e-17)
(-64.475074 8.6188285e-33 2.0216538e-17)
(-64.447912 2.0213582e-17 -5.7450457e-33)
(-64.420755 2.0210564e-17 2.0210564e-17)
(-64.393602 -2.8056112e-30 2.0207506e-17)
(-64.366454 -2.7994373e-30 -2.0204398e-17)
(-64.33931 -2.8707716e-33 0)
(-64.312171 -2.0198076e-17 -2.0198076e-17)
(-64.285036 -2.0194864e-17 -2.0194864e-17)
(-64.257907 -2.019161e-17 0)
(-64.230782 4.0376668e-17 4.0376668e-17)
(-64.203662 6.0555072e-17 2.0185024e-17)
(-64.176547 -2.0181703e-17 -4.0363405e-17)
(-64.149437 -4.0356721e-17 1.396481e-30)
(-64.122332 0 -5.7340852e-33)
(-64.095232 2.0171667e-17 2.0171667e-17)
(-64.068137 2.0168324e-17 2.0168324e-17)
(-64.041047 -2.0164976e-17 -2.0164976e-17)
(-64.013962 5.730282e-33 2.0161637e-17)
(-63.986882 -8.5939968e-33 -2.0158292e-17)
(-63.959807 5.7283827e-33 1.1456765e-32)
(-63.932736 2.0151608e-17 4.0303217e-17)
(-63.905671 2.0148267e-17 -2.0148267e-17)
(-63.87861 -2.0144915e-17 -2.0144915e-17)
(-63.851555 -4.0283135e-17 -2.0141568e-17)
(-63.824504 2.0138208e-17 -2.793128e-30)
(-63.797458 8.0382035e-50 2.0134854e-17)
(-63.770417 2.0131489e-17 0)
(-63.743381 5.5777403e-30 0)
(-63.716351 -4.0249538e-17 -2.0124769e-17)
(-63.689325 0 2.7936586e-30)
(-63.662304 0 -5.5835267e-30)
(-63.635288 4.0229445e-17 -2.7955876e-30)
(-63.608278 -1.1169061e-29 2.0111381e-17)
(-63.581272 -4.0216106e-17 -2.0108053e-17)
(-63.554271 0 2.8570527e-33)
(-63.527275 2.01014e-17 2.01014e-17)
(-63.500283 2.0098071e-17 0)
(-63.473297 -2.0094749e-17 0)
(-63.446315 2.8551623e-33 0)
(-63.419339 -2.7890319e-30 0)
(-63.392367 2.854216e-33 0)
(-63.3654 2.0081432e-17 0)
(-63.338438 -2.0078097e-17 0)
(-63.311481 -2.007477e-17 -2.007477e-17)
(-63.284529 0 0)
(-63.257582 2.006811e-17 2.006811e-17)
(-63.23064 -2.7857946e-30 0)
(-63.203703 -2.0061452e-17 -2.0061452e-17)
(-63.176771 4.011624e-17 -5.5640399e-30)
(-63.149844 -5.5631181e-30 2.0054797e-17)
(-63.122921 -2.0051468e-17 0)
(-63.096004 -5.5669723e-30 0)
(-63.069092 -4.0089654e-17 -2.0044827e-17)
(-63.042185 4.0083033e-17 -2.7825651e-30)
(-63.015282 2.0038202e-17 2.0038202e-17)
(-62.988385 -2.0034899e-17 0)
(-62.961493 -2.8466604e-33 0)
(-62.934605 -2.0028296e-17 -2.0028296e-17)
(-62.907722 0 -2.0024995e-17)
(-62.880844 0 2.0021704e-17)
(-62.853971 2.0018408e-17 2.0018408e-17)
(-62.827103 -2.7760561e-30 0)
(-62.800239 -4.0023656e-17 -2.0011828e-17)
(-62.773381 2.843385e-33 2.843385e-33)
(-62.746527 6.001575e-17 2.000525e-17)
(-62.719678 -2.0001964e-17 -2.0001964e-17)
(-62.692834 -1.9998669e-17 -1.9998669e-17)
(-62.665994 3.9990762e-17 1.9995381e-17)
(-62.63916 -1.9992085e-17 1.9992085e-17)
(-62.612331 1.9988797e-17 0)
(-62.585506 3.9971003e-17 -1.9985502e-17)
(-62.558686 -1.9982216e-17 -1.9982216e-17)
(-62.531871 -1.9978925e-17 1.9978925e-17)
(-62.505061 -1.9975644e-17 1.9975644e-17)
(-62.478256 1.997236e-17 0)
(-62.451456 1.5588259e-49 -1.9969086e-17)
(-62.424661 -1.9965808e-17 -1.9965808e-17)
(-62.39787 1.9962539e-17 1.9962539e-17)
(-62.371084 -1.9959263e-17 1.9959263e-17)
(-62.344303 1.9955995e-17 0)
(-62.317527 5.5291305e-30 0)
(-62.290756 5.6699729e-33 0)
(-62.263989 1.994616e-17 0)
(-62.237227 -3.9885764e-17 0)
(-62.21047 1.9939594e-17 0)
(-62.183718 5.5359174e-30 0)
(-62.156971 -5.5293384e-30 0)
(-62.130229 -1.9929739e-17 -1.9929739e-17)
(-62.103491 -3.9852892e-17 -1.2592583e-48)
(-62.076759 5.9769473e-17 1.9923158e-17)
(-62.050031 5.5256866e-30 0)
(-62.023308 -1.1049545e-29 0)
(-61.99659 5.5181945e-30 0)
(-61.969877 -3.9819891e-17 -1.9909946e-17)
(-61.943168 3.9813251e-17 -2.761008e-30)
(-61.916465 -5.5210958e-30 1.9903308e-17)
(-61.889767 -3.9799957e-17 -1.9899978e-17)
(-61.863073 0 2.7624521e-30)
(-61.836384 0 -2.8270096e-33)
(-61.8097 1.9889975e-17 -2.7615251e-30)
(-61.783022 -2.7582339e-30 1.9886624e-17)
(-61.756348 -1.9883278e-17 -1.9883278e-17)
(-61.729679 -1.9879922e-17 1.9879922e-17)
(-61.703015 1.9876576e-17 -1.1044308e-29)
(-61.676356 5.9619677e-17 -1.9873226e-17)
(-61.649702 -1.9869894e-17 1.9869894e-17)
(-61.623053 -1.9866568e-17 0)
(-61.596408 -5.645481e-33 0)
(-61.569769 -1.9859988e-17 -1.9859988e-17)
(-61.543135 0 -2.7569113e-30)
(-61.516505 3.9707046e-17 1.9853523e-17)
(-61.48988 3.9700694e-17 -1.9850347e-17)
(-61.46326 -1.9847203e-17 -1.9847203e-17)
(-61.436644 -3.9688224e-17 0)
(-61.410033 -1.984106e-17 1.984106e-17)
(-61.383426 3.9676141e-17 1.9838071e-17)
(-61.356824 3.9670259e-17 -1.9835129e-17)
(-61.330226 -3.9664519e-17 -5.5042054e-30)
(-61.303632 -3.9658894e-17 2.2006368e-49)
(-61.277042 0 -2.7527419e-30)
(-61.250457 3.9648089e-17 1.9824044e-17)
(-61.223876 -1.9821458e-17 -1.9821458e-17)
(-61.197298 -3.9637875e-17 -6.5542451e-49)
(-61.170724 1.9816499e-17 -2.7513237e-30)
(-61.144154 1.9814122e-17 -1.9814122e-17)
(-61.117588 -2.8154289e-33 0)
(-61.091025 2.7503617e-30 0)
(-61.064465 1.9807385e-17 1.9807385e-17)
(-61.037909 -1.980524e-17 2.8144938e-33)
(-61.011356 -1.9803146e-17 -8.2399668e-30)
(-60.984806 1.9801078e-17 1.9801078e-17)
(-60.95826 -2.7460873e-30 0)
(-60.931716 -2.8133273e-33 0)
(-60.905176 -2.7455309e-30 -1.9795037e-17)
(-60.878639 -1.9793042e-17 5.4876955e-30)
(-60.852105 1.9791057e-17 1.9791057e-17)
(-60.825575 -8.242541e-30 0)
(-60.799047 -2.7472353e-30 0)
(-60.772523 -5.4910943e-30 0)
(-60.746001 -1.9782964e-17 -1.9782964e-17)
(-60.719483 1.9780868e-17 2.8110304e-33)
(-60.692968 -2.7460808e-30 1.9778737e-17)
(-60.666457 -5.4831244e-30 -1.9776555e-17)
(-60.639948 -2.810101e-33 1.9774328e-17)
(-60.613444 -3.9544093e-17 -5.4959235e-30)
(-60.586942 -1.9769716e-17 -3.9539432e-17)
(-60.560445 1.9767331e-17 1.9767331e-17)
(-60.533951 3.952979e-17 8.2324771e-30)
(-60.50746 -2.7438135e-30 2.7438135e-30)
(-60.480974 -3.9519736e-17 -2.7434611e-30)
(-60.454491 -1.975728e-17 -1.975728e-17)
(-60.428013 3.9509288e-17 0)
(-60.401538 1.9751961e-17 0)
(-60.375067 -1.9749235e-17 1.9749235e-17)
(-60.348601 -1.9746467e-17 2.7416005e-30)
(-60.322138 -5.4796159e-30 -5.4796159e-30)
(-60.29568 1.9740817e-17 5.9623406e-50)
(-60.269226 0 -1.9737941e-17)
(-60.242776 0 1.9735035e-17)
(-60.216331 1.9732101e-17 1.9732101e-17)
(-60.18989 0 0)
(-60.163454 -1.9726161e-17 -1.9726161e-17)
(-60.137021 1.972316e-17 -2.7383646e-30)
(-60.110594 2.8024007e-33 1.9720142e-17)
(-60.08417 -5.4722463e-30 0)
(-60.057752 0 0)
(-60.031338 -1.9710997e-17 -1.9710997e-17)
(-60.004928 1.9707926e-17 5.6013294e-33)
(-59.978523 1.9704845e-17 7.0847755e-50)
(-59.952122 -3.9403516e-17 -1.9701758e-17)
(-59.925726 -1.9698665e-17 1.9698665e-17)
(-59.899335 1.9695567e-17 -2.7289357e-30)
(-59.872948 0 2.7341031e-30)
(-59.846566 0 -5.4645467e-30)
(-59.820188 -1.9686261e-17 -1.9686261e-17)
(-59.793816 5.4684179e-30 1.9683156e-17)
(-59.767447 1.9680051e-17 -5.4647585e-30)
(-59.741083 0 5.4666923e-30)
(-59.714724 0 -5.4658292e-30)
(-59.688369 -1.9670731e-17 -1.9670731e-17)
(-59.662019 8.1947562e-30 1.9667623e-17)
(-59.635674 1.9664514e-17 -5.4604443e-30)
(-59.609333 0 2.7353786e-30)
(-59.582997 0 0)
(-59.556665 0 -1.9655187e-17)
(-59.530338 0 1.9652079e-17)
(-59.504016 0 -2.7280645e-30)
(-59.477698 0 2.7918462e-33)
(-59.451385 0 -2.7272035e-30)
(-59.425076 0 2.7295647e-30)
(-59.398772 3.9273167e-17 1.9636584e-17)
(-59.372473 1.089808e-29 -1.9633492e-17)
(-59.346178 -1.9630401e-17 -1.9630401e-17)
(-59.319887 1.962731e-17 1.962731e-17)
(-59.293601 -1.9624219e-17 1.9624219e-17)
(-59.26732 1.9621127e-17 0)
(-59.241043 -5.453114e-30 -1.9618036e-17)
(-59.214771 -1.9614945e-17 -1.9614945e-17)
(-59.188503 -5.4458221e-30 0)
(-59.16224 -1.9608768e-17 1.9608768e-17)
(-59.135982 0 -2.7220536e-30)
(-59.109728 0 2.785696e-33)
(-59.083478 1.9599507e-17 2.7184112e-30)
(-59.057234 5.4415362e-30 -1.9596421e-17)
(-59.030994 -1.9593337e-17 1.9593337e-17)
(-59.004758 0 2.7171281e-30)
(-58.978527 0 -5.4389691e-30)
(-58.952301 0 -1.9584101e-17)
(-58.926079 0 -1.9581028e-17)
(-58.899861 0 3.9155916e-17)
(-58.873648 0 -2.7817591e-33)
(-58.84744 0 2.7145714e-30)
(-58.821236 3.9137507e-17 1.9568754e-17)
(-58.795037 -1.6287883e-29 -1.9565686e-17)
(-58.768842 -3.9125236e-17 2.7160749e-30)
(-58.742652 1.9559551e-17 1.9559551e-17)
(-58.716466 2.7791434e-33 0)
(-58.690285 1.9553416e-17 0)
(-58.664108 -1.0840817e-29 0)
(-58.637936 -3.9094566e-17 -1.9547283e-17)
(-58.611768 -1.9544217e-17 -1.9544217e-17)
(-58.585605 -7.1350748e-50 1.9541153e-17)
(-58.559446 5.8614269e-17 1.953809e-17)
(-58.533292 0 0)
(-58.507143 -3.9063941e-17 -1.953197e-17)
(-58.480998 0 -1.9528914e-17)
(-58.454857 0 1.952586e-17)
(-58.428721 3.9045611e-17 1.9522805e-17)
(-58.402589 -5.4146985e-30 0)
(-58.376462 -5.8550083e-17 -1.9516694e-17)
(-58.350339 1.9513636e-17 -1.9513636e-17)
(-58.324221 1.9510577e-17 1.9510577e-17)
(-58.298108 -1.9507516e-17 5.4168491e-30)
(-58.271998 1.9504455e-17 -1.9504455e-17)
(-58.245894 -1.9501393e-17 0)
(-58.219793 -5.4087568e-30 0)
(-58.193698 1.9495268e-17 0)
(-58.167606 -1.9492204e-17 0)
(-58.14152 0 1.9489136e-17)
(-58.115437 -1.9486065e-17 -5.4053542e-30)
(-58.08936 1.9482989e-17 -1.9482989e-17)
(-58.063286 3.8959818e-17 1.9479909e-17)
(-58.037218 -1.9476825e-17 2.7041634e-30)
(-58.011154 -1.9473738e-17 -2.7065021e-30)
(-57.985094 -1.9470648e-17 7.3210856e-50)
(-57.959039 -1.9467557e-17 1.9467557e-17)
(-57.932989 3.8928931e-17 1.9464465e-17)
(-57.906943 1.9461374e-17 -3.8922749e-17)
(-57.880902 -1.9458284e-17 -2.7015891e-30)
(-57.854865 0 2.6983955e-30)
(-57.828833 1.9452108e-17 -1.9452108e-17)
(-57.802805 -1.9449023e-17 0)
(-57.776782 -1.9445942e-17 1.9445942e-17)
(-57.750763 5.8328597e-17 1.9442866e-17)
(-57.724749 5.5251222e-33 -1.9439796e-17)
(-57.698739 -3.8873467e-17 -5.3916699e-30)
(-57.672734 1.9433682e-17 1.9433682e-17)
(-57.646734 2.6977514e-30 0)
(-57.620737 1.9427619e-17 0)
(-57.594746 -5.5208074e-33 -1.9424614e-17)
(-57.568758 -3.8843259e-17 2.6937401e-30)
(-57.542775 1.9418668e-17 1.9418668e-17)
(-57.516797 0 0)
(-57.490822 -5.3905546e-30 -1.9412823e-17)
(-57.464852 -2.7583188e-33 2.7583188e-33)
(-57.438886 -1.9407094e-17 -5.3889638e-30)
(-57.412924 1.9404278e-17 -2.6913334e-30)
(-57.386967 -5.3874098e-30 1.9401497e-17)
(-57.361013 -2.6905674e-30 -1.9398755e-17)
(-57.335064 -2.7563449e-33 2.7563449e-33)
(-57.309118 -1.9393394e-17 -5.3851595e-30)
(-57.283177 1.939078e-17 -1.939078e-17)
(-57.25724 4.7783093e-50 1.9388214e-17)
(-57.231306 -5.3830221e-30 5.3830221e-30)
(-57.205376 -2.7545224e-33 2.7545224e-33)
(-57.17945 -3.8761616e-17 -2.6908324e-30)
(-57.153527 -2.687749e-30 -1.9378435e-17)
(-57.127608 1.9376106e-17 1.9376106e-17)
(-57.101692 0 0)
(-57.07578 0 -1.0755445e-29)
(-57.04987 -1.9369355e-17 -2.6864896e-30)
(-57.023965 -8.0585613e-30 -8.0585613e-30)
(-56.998062 1.9365023e-17 -2.7519352e-33)
(-56.972163 -1.9362899e-17 -1.9362899e-17)
(-56.946267 2.6880545e-30 1.93608e-17)
(-56.920374 1.001321e-49 1.001321e-49)
(-56.894485 -2.6874797e-30 -2.6874797e-30)
(-56.868598 1.9354611e-17 5.3743903e-30)
(-56.842715 1.9352568e-17 -2.6869115e-30)
(-56.816835 2.6838784e-30 3.8701056e-17)
(-56.790958 -1.9348487e-17 -1.9348487e-17)
(-56.765084 0 -1.9346441e-17)
(-56.739213 0 -2.6857758e-30)
(-56.713346 1.9342324e-17 2.6854892e-30)
(-56.687481 -1.9340246e-17 3.8680493e-17)
(-56.66162 1.6098468e-29 -1.9338152e-17)
(-56.635762 1.9336039e-17 -1.9336039e-17)
(-56.609907 -1.9333903e-17 2.8916665e-50)
(-56.584056 0 0)
(-56.558208 1.9329551e-17 3.1645668e-50)
(-56.532363 1.932733e-17 -1.932733e-17)
(-56.506521 -1.9325076e-17 1.9325076e-17)
(-56.480683 -1.9322787e-17 3.6508541e-50)
(-56.454848 0 -2.6797086e-30)
(-56.429016 1.9318106e-17 -2.745268e-33)
(-56.403189 1.9315714e-17 -1.9315714e-17)
(-56.377365 -3.8626575e-17 3.8626575e-17)
(-56.351544 -1.9310828e-17 5.3622328e-30)
(-56.325727 1.9308337e-17 -1.9308337e-17)
(-56.299914 1.9305814e-17 2.6776767e-30)
(-56.274104 2.6773225e-30 -2.6773225e-30)
(-56.248299 1.9300676e-17 1.9300676e-17)
(-56.222497 5.3586881e-30 -1.9298063e-17)
(-56.196699 -3.8590845e-17 -2.1434318e-49)
(-56.170905 0 -8.0385631e-30)
(-56.145115 0 5.3592083e-30)
(-56.119329 0 -5.3529725e-30)
(-56.093547 1.9284615e-17 -5.3549539e-30)
(-56.067768 1.928186e-17 5.9044449e-50)
(-56.041994 0 0)
(-56.016224 -1.9276299e-17 1.9276299e-17)
(-55.990459 -2.6704552e-30 0)
(-55.964697 1.9270679e-17 0)
(-55.938939 0 -1.9267851e-17)
(-55.913186 0 -5.3495103e-30)
(-55.887436 -1.9262161e-17 1.9262161e-17)
(-55.861691 -2.6712256e-30 0)
(-55.83595 2.6680913e-30 0)
(-55.810213 -1.9253558e-17 -3.8507116e-17)
(-55.784481 1.9250676e-17 -1.6025646e-29)
(-55.758752 -8.0088861e-30 3.8495577e-17)
(-55.733028 -1.9244898e-17 -1.9244898e-17)
(-55.707308 0 2.7344531e-33)
(-55.681592 -1.9239106e-17 -2.6711585e-30)
(-55.655881 -2.670756e-30 -1.9236207e-17)
(-55.630173 1.9233305e-17 0)
(-55.60447 -1.9230401e-17 0)
(-55.578771 1.9227495e-17 0)
(-55.553077 1.9224586e-17 -1.9224586e-17)
(-55.527386 -1.9221677e-17 -5.332014e-30)
(-55.5017 0 1.9218766e-17)
(-55.476018 1.9215855e-17 0)
(-55.45034 1.9212945e-17 0)
(-55.424667 -1.9210035e-17 -1.9210035e-17)
(-55.398997 -1.9207126e-17 2.7294968e-33)
(-55.373332 0 1.9204218e-17)
(-55.347671 -1.9201309e-17 0)
(-55.322014 1.91984e-17 0)
(-55.296362 1.9195489e-17 -1.9195489e-17)
(-55.270714 -1.9192577e-17 -5.3239419e-30)
(-55.24507 -3.8379329e-17 -5.331315e-30)
(-55.21943 1.0655558e-29 5.3277791e-30)
(-55.193794 5.7551519e-17 1.918384e-17)
(-55.168163 6.7019974e-50 -1.9180929e-17)
(-55.142535 -1.9178021e-17 5.3226295e-30)
(-55.116912 -3.8350231e-17 -5.3218231e-30)
(-55.091294 1.0636585e-29 5.3182927e-30)
(-55.065679 3.8338619e-17 1.9169309e-17)
(-55.040068 -1.9166407e-17 0)
(-55.014462 1.9163504e-17 0)
(-54.98886 -1.91606e-17 -1.91606e-17)
(-54.963262 -1.9157694e-17 -1.674977e-48)
(-54.937668 3.8309572e-17 1.9154786e-17)
(-54.912078 0 0)
(-54.886493 0 0)
(-54.860911 -3.8292105e-17 -1.9146052e-17)
(-54.835334 -5.4031253e-49 -1.0806251e-48)
(-54.809761 3.8280447e-17 1.9140223e-17)
(-54.784192 0 0)
(-54.758628 0 0)
(-54.733067 -3.8262955e-17 -1.9131478e-17)
(-54.707511 -5.4165386e-49 -1.0833077e-48)
(-54.681959 3.8251297e-17 1.9125649e-17)
(-54.656411 0 0)
(-54.630867 0 0)
(-54.605327 -3.8233812e-17 -1.9116906e-17)
(-54.579792 -1.9113991e-17 2.7162614e-33)
(-54.55426 3.8222148e-17 1.9111074e-17)
(-54.528733 1.9108155e-17 -1.9108155e-17)
(-54.503209 0 5.3078583e-30)
(-54.47769 -3.8204617e-17 -5.3070456e-30)
(-54.452174 1.0607035e-29 5.3035175e-30)
(-54.426663 3.8192889e-17 1.9096445e-17)
(-54.401156 -1.9093506e-17 0)
(-54.375653 0 0)
(-54.350154 1.9087613e-17 0)
(-54.324659 -1.908466e-17 0)
(-54.299168 2.7116729e-33 0)
(-54.273681 1.9078738e-17 -1.9078738e-17)
(-54.248198 -1.9075767e-17 5.2942501e-30)
(-54.222719 1.9072789e-17 1.9072789e-17)
(-54.197244 1.9069804e-17 0)
(-54.171773 -1.906681e-17 0)
(-54.146307 -1.9063808e-17 0)
(-54.120844 5.2928042e-30 0)
(-54.095385 1.9057779e-17 0)
(-54.069931 -1.9054752e-17 0)
(-54.04448 -5.2902824e-30 0)
(-54.019033 1.9048671e-17 -1.9048671e-17)
(-53.993591 -1.9045616e-17 1.0571764e-29)
(-53.968152 1.9042551e-17 1.9042551e-17)
(-53.942717 1.9039476e-17 0)
(-53.917286 -1.9036391e-17 0)
(-53.891859 -1.9033296e-17 0)
(-53.866436 5.2843055e-30 0)
(-53.841017 1.9027077e-17 0)
(-53.815602 -1.9023953e-17 0)
(-53.790191 2.7030211e-33 0)
(-53.764784 1.9017679e-17 -1.9017679e-17)
(-53.73938 -1.9014531e-17 5.2772548e-30)
(-53.71398 1.9011376e-17 1.9011376e-17)
(-53.688584 1.9008215e-17 0)
(-53.663192 -1.9005047e-17 0)
(-53.637804 -3.800375e-17 -1.9001875e-17)
(-53.612419 1.0556521e-29 5.2782606e-30)
(-53.587038 3.7991041e-17 1.8995521e-17)
(-53.56166 -1.8992341e-17 0)
(-53.536286 2.698522e-33 0)
(-53.510915 3.7971964e-17 0)
(-53.485548 5.3952378e-33 -1.8982805e-17)
(-53.460185 -1.8979632e-17 -5.2729633e-30)
(-53.434824 0 1.8976463e-17)
(-53.409467 1.8973299e-17 0)
(-53.384114 0 0)
(-53.358763 -1.8966991e-17 0)
(-53.333416 0 0)
(-53.308071 0 0)
(-53.282729 0 0)
(-53.257391 -1.8954465e-17 0)
(-53.232055 -7.8836901e-50 -1.8951351e-17)
(-53.206721 1.8948243e-17 2.6927073e-33)
(-53.181391 0 1.8945141e-17)
(-53.156062 1.8942044e-17 0)
(-53.130737 -5.2589698e-30 0)
(-53.105413 -1.893586e-17 0)
(-53.080092 0 0)
(-53.054773 0 0)
(-53.029456 0 0)
(-53.004141 -1.8923466e-17 0)
(-52.978828 5.2538038e-30 -1.8920347e-17)
(-52.953516 1.8917214e-17 -2.6882978e-33)
(-52.928207 0 1.8914063e-17)
(-52.902899 1.8910892e-17 0)
(-52.877592 5.2476035e-30 0)
(-52.852287 -1.8904466e-17 0)
(-52.826983 0 -1.8901204e-17)
(-52.801681 1.8897903e-17 1.0492457e-29)
(-52.77638 -1.8894559e-17 1.8894559e-17)
(-52.75108 1.0496773e-29 0)
(-52.725781 1.888773e-17 -1.888773e-17)
(-52.700483 -1.8884235e-17 -5.24646e-30)
(-52.675186 0 1.8880682e-17)
(-52.649889 -1.8877065e-17 0)
(-52.624594 -5.2407617e-30 0)
(-52.599299 1.8869619e-17 -1.8869619e-17)
(-52.574005 0 -1.8865783e-17)
(-52.548711 1.8861864e-17 1.8861864e-17)
(-52.523418 -1.885786e-17 1.885786e-17)
(-52.498125 -1.0470631e-29 0)
(-52.472832 1.8849578e-17 0)
(-52.44754 -1.0463248e-29 0)
(-52.422248 -2.6774544e-33 0)
(-52.396956 5.233177e-30 1.8836424e-17)
(-52.371664 -2.6761642e-33 -2.6761642e-33)
(-52.346372 -1.882713e-17 -3.7654259e-17)
(-52.32108 0 -1.8822317e-17)
(-52.295788 1.8817391e-17 3.7634783e-17)
(-52.270496 -5.2211418e-30 3.7624699e-17)
(-52.245203 -5.2197097e-30 -1.880719e-17)
(-52.219909 1.8715649e-49 -1.8801909e-17)
(-52.194616 -5.2194158e-30 0)
(-52.169321 0 0)
(-52.144026 -3.7570649e-17 0)
(-52.11873 -5.2147048e-30 0)
(-52.093433 1.8773627e-17 -1.8773627e-17)
(-52.068135 -1.8767581e-17 -5.2140508e-30)
(-52.042835 5.2070019e-30 1.8761402e-17)
(-52.017535 1.8755089e-17 0)
(-51.992232 1.8748637e-17 0)
(-51.966928 5.2042929e-30 0)
(-51.941623 -5.2024221e-30 0)
(-51.916315 1.8728424e-17 0)
(-51.891006 -1.8721393e-17 0)
(-51.865694 -1.8714214e-17 0)
(-51.840379 0 0)
(-51.815062 -1.8699408e-17 0)
(-51.789743 5.1903323e-30 0)
(-51.76442 1.8683965e-17 0)
(-51.739094 0 0)
(-51.713765 0 0)
(-51.688433 0 0)
(-51.663097 -3.7302204e-17 -1.8651102e-17)
(-51.637757 2.0706579e-29 1.0353289e-29)
(-51.612413 3.7267345e-17 1.8633673e-17)
(-51.587064 0 0)
(-51.56171 0 0)
(-51.536352 0 1.8606116e-17)
(-51.510989 0 -5.1638939e-30)
(-51.485621 0 2.6413467e-33)
(-51.460247 0 -1.8576913e-17)
(-51.434867 0 -1.8566801e-17)
(-51.40948 -3.7112936e-17 -1.0302887e-29)
(-51.384088 1.0304927e-29 5.1524633e-30)
(-51.358688 3.7070212e-17 1.8535106e-17)
(-51.333283 1.8524097e-17 0)
(-51.30787 -1.8512899e-17 0)
(-51.282449 -1.8501517e-17 0)
(-51.257021 5.1369117e-30 0)
(-51.231583 1.0251487e-29 0)
(-51.206137 1.8465961e-17 -1.8465961e-17)
(-51.180683 -1.8453559e-17 1.024575e-29)
(-51.15522 1.844089e-17 1.844089e-17)