/*--------------------------------*- C++ -*----------------------------------*\
  =========                 |
  \\      /  F ield         | OpenFOAM: The Open Source CFD Toolbox
   \\    /   O peration     | Website:  https://openfoam.org
    \\  /    A nd           | Version:  7
     \\/     M anipulation  |
\*---------------------------------------------------------------------------*/
FoamFile
{
    version     2.0;
    format      ascii;
    class       volScalarField;
    location    "0.00163";
    object      T;
}
// * * * * * * * * * * * * * * * * * * * * * * * * * * * * * * * * * * * * * //

dimensions      [0 0 0 1 0 0 0];

internalField   nonuniform List<scalar> 
5000
(
285.85393
285.85329
285.85416
285.85721
285.86406
285.87144
285.87886
285.88901
285.90173
285.91595
285.93014
285.94269
285.95195
285.95712
285.95845
285.95717
285.95187
285.94508
285.93862
285.93218
285.92566
285.91906
285.91244
285.90582
285.89922
285.89267
285.88618
285.87976
285.87342
285.86717
285.86101
285.85495
285.84897
285.84309
285.83731
285.83161
285.82601
285.82051
285.81509
285.80976
285.80453
285.79938
285.79432
285.78934
285.78445
285.77965
285.77492
285.77028
285.76572
285.76124
285.75684
285.75252
285.74827
285.7441
285.74
285.73598
285.73203
285.72816
285.72435
285.72062
285.71695
285.71335
285.70982
285.70635
285.70295
285.69962
285.69634
285.69313
285.68998
285.68689
285.68386
285.68088
285.67796
285.6751
285.67229
285.66954
285.66683
285.66418
285.66158
285.65903
285.65653
285.65407
285.65166
285.6493
285.64698
285.64471
285.64247
285.64028
285.63813
285.63602
285.63395
285.63192
285.62992
285.62796
285.62604
285.62415
285.62229
285.62047
285.61868
285.61692
285.6152
285.6135
285.61183
285.61019
285.60858
285.60699
285.60543
285.6039
285.60239
285.60091
285.59944
285.59799
285.59657
285.59516
285.59378
285.59241
285.59107
285.58975
285.58844
285.58715
285.58588
285.58463
285.5834
285.58218
285.58097
285.57978
285.57861
285.57745
285.5763
285.57517
285.57404
285.57294
285.57184
285.57075
285.56968
285.56862
285.56756
285.56652
285.56549
285.56447
285.56345
285.56245
285.56145
285.56046
285.55949
285.55851
285.55755
285.55659
285.55564
285.5547
285.55376
285.55284
285.55191
285.551
285.55009
285.54918
285.54829
285.54739
285.5465
285.54562
285.54475
285.54387
285.54301
285.54214
285.54128
285.54043
285.53958
285.53874
285.5379
285.53706
285.53623
285.5354
285.53458
285.53375
285.53294
285.53212
285.53131
285.53051
285.5297
285.5289
285.52811
285.52732
285.52653
285.52574
285.52496
285.52417
285.5234
285.52262
285.52185
285.52108
285.52032
285.51956
285.5188
285.51804
285.51729
285.51653
285.51579
285.51504
285.5143
285.51356
285.51282
285.51208
285.51135
285.51062
285.5099
285.50917
285.50845
285.50774
285.50702
285.50631
285.5056
285.50489
285.50419
285.50348
285.50279
285.50209
285.50139
285.5007
285.50001
285.49933
285.49865
285.49797
285.49729
285.49662
285.49595
285.49528
285.49462
285.49395
285.49329
285.49264
285.49199
285.49134
285.49069
285.49004
285.4894
285.48877
285.48813
285.4875
285.48687
285.48625
285.48562
285.485
285.48439
285.48378
285.48317
285.48256
285.48196
285.48136
285.48076
285.48017
285.47958
285.47899
285.4784
285.47782
285.47725
285.47667
285.4761
285.47554
285.47497
285.47441
285.47385
285.4733
285.47274
285.4722
285.47165
285.47111
285.47057
285.47003
285.4695
285.46897
285.46845
285.46792
285.4674
285.46689
285.46638
285.46587
285.46536
285.46485
285.46435
285.46386
285.46336
285.46287
285.46239
285.4619
285.46142
285.46094
285.46046
285.45999
285.45952
285.45905
285.45859
285.45813
285.45767
285.45722
285.45677
285.45632
285.45587
285.45543
285.45499
285.45455
285.45412
285.45368
285.45326
285.45283
285.4524
285.45198
285.45156
285.45115
285.45074
285.45033
285.44992
285.44952
285.44911
285.44871
285.44831
285.44792
285.44753
285.44714
285.44675
285.44636
285.44598
285.4456
285.44522
285.44484
285.44447
285.4441
285.44373
285.44336
285.443
285.44264
285.44228
285.44192
285.44157
285.44121
285.44086
285.44051
285.44016
285.43982
285.43948
285.43914
285.4388
285.43846
285.43813
285.4378
285.43746
285.43714
285.43681
285.43649
285.43617
285.43585
285.43553
285.43521
285.4349
285.43458
285.43427
285.43397
285.43366
285.43336
285.43305
285.43275
285.43246
285.43216
285.43186
285.43157
285.43128
285.43099
285.4307
285.43041
285.43013
285.42985
285.42957
285.42929
285.42902
285.42874
285.42847
285.4282
285.42793
285.42766
285.42739
285.42713
285.42687
285.4266
285.42634
285.42609
285.42583
285.42558
285.42533
285.42508
285.42483
285.42458
285.42434
285.4241
285.42386
285.42361
285.42337
285.42314
285.4229
285.42267
285.42244
285.42221
285.42199
285.42176
285.42154
285.42132
285.4211
285.42088
285.42067
285.42045
285.42024
285.42003
285.41982
285.41961
285.41941
285.41921
285.41901
285.41881
285.41861
285.41841
285.41821
285.41802
285.41783
285.41764
285.41746
285.41727
285.41709
285.41691
285.41672
285.41654
285.41637
285.41619
285.41602
285.41585
285.41568
285.41552
285.41535
285.41519
285.41502
285.41486
285.4147
285.41455
285.4144
285.41424
285.41409
285.41394
285.41379
285.41365
285.4135
285.41336
285.41322
285.41308
285.41294
285.41281
285.41268
285.41255
285.41242
285.41229
285.41216
285.41203
285.41191
285.41179
285.41167
285.41155
285.41143
285.41131
285.4112
285.41109
285.41098
285.41087
285.41077
285.41066
285.41056
285.41046
285.41036
285.41026
285.41016
285.41006
285.40996
285.40987
285.40978
285.40969
285.4096
285.40952
285.40943
285.40934
285.40926
285.40918
285.4091
285.40902
285.40894
285.40887
285.4088
285.40872
285.40865
285.40858
285.40851
285.40844
285.40838
285.40831
285.40825
285.40818
285.40812
285.40806
285.408
285.40794
285.40788
285.40783
285.40777
285.40772
285.40767
285.40761
285.40756
285.40751
285.40747
285.40742
285.40737
285.40732
285.40728
285.40724
285.4072
285.40716
285.40712
285.40707
285.40703
285.40699
285.40696
285.40692
285.40688
285.40685
285.40682
285.40678
285.40675
285.40672
285.40669
285.40666
285.40663
285.4066
285.40657
285.40654
285.40652
285.40649
285.40646
285.40644
285.40642
285.40639
285.40637
285.40635
285.40633
285.40631
285.40629
285.40627
285.40625
285.40623
285.40621
285.40619
285.40617
285.40616
285.40614
285.40613
285.40611
285.4061
285.40608
285.40607
285.40605
285.40604
285.40602
285.40601
285.406
285.40599
285.40597
285.40596
285.40595
285.40594
285.40593
285.40593
285.40592
285.40591
285.4059
285.40589
285.40588
285.40587
285.40586
285.40585
285.40585
285.40584
285.40583
285.40583
285.40582
285.40582
285.40581
285.4058
285.4058
285.40579
285.40579
285.40578
285.40578
285.40577
285.40577
285.40576
285.40576
285.40576
285.40575
285.40575
285.40575
285.40575
285.40574
285.40574
285.40574
285.40573
285.40573
285.40573
285.40573
285.40573
285.40572
285.40572
285.40572
285.40572
285.40572
285.40572
285.40572
285.40572
285.40572
285.40572
285.40572
285.40572
285.40572
285.40572
285.40571
285.40571
285.40571
285.40571
285.40571
285.40571
285.40572
285.40572
285.40572
285.40572
285.40572
285.40572
285.40572
285.40572
285.40572
285.40572
285.40572
285.40573
285.40573
285.40573
285.40573
285.40573
285.40573
285.40573
285.40573
285.40573
285.40573
285.40574
285.40574
285.40574
285.40574
285.40574
285.40574
285.40574
285.40574
285.40575
285.40575
285.40575
285.40575
285.40575
285.40575
285.40576
285.40576
285.40576
285.40576
285.40576
285.40577
285.40577
285.40577
285.40577
285.40577
285.40577
285.40577
285.40578
285.40578
285.40578
285.40578
285.40578
285.40578
285.40578
285.40579
285.40579
285.40579
285.40579
285.40579
285.4058
285.4058
285.4058
285.4058
285.4058
285.4058
285.4058
285.4058
285.4058
285.40581
285.40581
285.40581
285.40581
285.40581
285.40581
285.40581
285.40581
285.40582
285.40582
285.40582
285.40582
285.40582
285.40582
285.40582
285.40583
285.40583
285.40583
285.40583
285.40583
285.40583
285.40583
285.40584
285.40584
285.40584
285.40584
285.40584
285.40584
285.40584
285.40584
285.40585
285.40585
285.40585
285.40585
285.40585
285.40586
285.40586
285.40586
285.40586
285.40586
285.40587
285.40587
285.40587
285.40587
285.40587
285.40587
285.40587
285.40588
285.40588
285.40588
285.40588
285.40588
285.40588
285.40588
285.40588
285.40589
285.40589
285.40589
285.40589
285.40589
285.4059
285.4059
285.4059
285.4059
285.4059
285.4059
285.40591
285.40591
285.40591
285.40591
285.40591
285.40591
285.40591
285.40591
285.40592
285.40592
285.40592
285.40592
285.40592
285.40592
285.40592
285.40592
285.40592
285.40593
285.40593
285.40593
285.40593
285.40593
285.40593
285.40594
285.40594
285.40594
285.40594
285.40594
285.40594
285.40594
285.40594
285.40594
285.40594
285.40594
285.40594
285.40595
285.40595
285.40595
285.40595
285.40595
285.40595
285.40595
285.40596
285.40596
285.40596
285.40596
285.40596
285.40596
285.40596
285.40596
285.40597
285.40597
285.40597
285.40597
285.40597
285.40597
285.40597
285.40597
285.40597
285.40598
285.40598
285.40598
285.40598
285.40598
285.40598
285.40598
285.40598
285.40598
285.40599
285.40599
285.40599
285.40599
285.40599
285.40599
285.40599
285.40599
285.406
285.406
285.406
285.406
285.406
285.406
285.40601
285.40601
285.40601
285.40601
285.40601
285.40601
285.40601
285.40601
285.40601
285.40601
285.40602
285.40602
285.40602
285.40602
285.40602
285.40602
285.40603
285.40603
285.40603
285.40603
285.40603
285.40603
285.40603
285.40603
285.40603
285.40603
285.40603
285.40604
285.40604
285.40604
285.40604
285.40604
285.40604
285.40605
285.40605
285.40605
285.40605
285.40605
285.40605
285.40605
285.40606
285.40606
285.40606
285.40606
285.40606
285.40606
285.40607
285.40607
285.40607
285.40607
285.40607
285.40607
285.40607
285.40608
285.40608
285.40608
285.40608
285.40608
285.40609
285.40609
285.40609
285.40609
285.4061
285.4061
285.4061
285.4061
285.4061
285.4061
285.4061
285.4061
285.4061
285.40611
285.40611
285.40611
285.40611
285.40611
285.40611
285.40612
285.40612
285.40612
285.40612
285.40612
285.40613
285.40613
285.40613
285.40613
285.40613
285.40613
285.40613
285.40614
285.40614
285.40614
285.40614
285.40614
285.40615
285.40615
285.40615
285.40615
285.40615
285.40615
285.40615
285.40615
285.40616
285.40616
285.40616
285.40616
285.40616
285.40616
285.40617
285.40617
285.40617
285.40617
285.40617
285.40617
285.40617
285.40617
285.40618
285.40618
285.40618
285.40618
285.40618
285.40618
285.40618
285.40618
285.40619
285.40619
285.40619
285.40619
285.40619
285.40619
285.4062
285.4062
285.4062
285.4062
285.4062
285.4062
285.4062
285.4062
285.40621
285.40621
285.40621
285.40621
285.40621
285.40622
285.40622
285.40622
285.40622
285.40622
285.40622
285.40622
285.40622
285.40622
285.40623
285.40623
285.40623
285.40623
285.40623
285.40623
285.40624
285.40624
285.40624
285.40624
285.40624
285.40624
285.40624
285.40624
285.40625
285.40625
285.40625
285.40625
285.40625
285.40625
285.40625
285.40626
285.40626
285.40626
285.40626
285.40626
285.40626
285.40627
285.40627
285.40627
285.40627
285.40627
285.40627
285.40628
285.40628
285.40628
285.40628
285.40628
285.40629
285.40629
285.40629
285.40629
285.40629
285.40629
285.40629
285.40629
285.4063
285.4063
285.4063
285.4063
285.4063
285.4063
285.40631
285.40631
285.40631
285.40631
285.40631
285.40631
285.40631
285.40632
285.40632
285.40632
285.40632
285.40632
285.40632
285.40633
285.40633
285.40633
285.40633
285.40633
285.40633
285.40634
285.40634
285.40634
285.40634
285.40634
285.40634
285.40634
285.40635
285.40635
285.40635
285.40635
285.40635
285.40635
285.40636
285.40636
285.40636
285.40636
285.40636
285.40636
285.40636
285.40637
285.40637
285.40637
285.40637
285.40637
285.40637
285.40637
285.40638
285.40638
285.40638
285.40638
285.40638
285.40638
285.40639
285.40639
285.40639
285.40639
285.40639
285.4064
285.4064
285.4064
285.4064
285.4064
285.4064
285.40641
285.40641
285.40641
285.40641
285.40641
285.40641
285.40641
285.40642
285.40642
285.40642
285.40642
285.40642
285.40642
285.40642
285.40643
285.40643
285.40643
285.40643
285.40643
285.40643
285.40644
285.40644
285.40644
285.40644
285.40644
285.40644
285.40645
285.40645
285.40645
285.40645
285.40645
285.40645
285.40645
285.40646
285.40646
285.40646
285.40646
285.40646
285.40647
285.40647
285.40647
285.40647
285.40647
285.40647
285.40648
285.40648
285.40648
285.40648
285.40648
285.40648
285.40648
285.40649
285.40649
285.40649
285.40649
285.40649
285.40649
285.4065
285.4065
285.4065
285.4065
285.4065
285.4065
285.40651
285.40651
285.40651
285.40651
285.40651
285.40651
285.40652
285.40652
285.40652
285.40652
285.40652
285.40652
285.40652
285.40653
285.40653
285.40653
285.40653
285.40653
285.40653
285.40654
285.40654
285.40654
285.40654
285.40654
285.40654
285.40654
285.40655
285.40655
285.40655
285.40655
285.40655
285.40656
285.40656
285.40656
285.40656
285.40656
285.40656
285.40657
285.40657
285.40657
285.40657
285.40657
285.40657
285.40657
285.40658
285.40658
285.40658
285.40658
285.40658
285.40659
285.40659
285.40659
285.40659
285.40659
285.40659
285.4066
285.4066
285.4066
285.4066
285.4066
285.4066
285.40661
285.40661
285.40661
285.40661
285.40661
285.40662
285.40662
285.40662
285.40662
285.40662
285.40663
285.40663
285.40663
285.40663
285.40663
285.40664
285.40664
285.40664
285.40664
285.40664
285.40664
285.40664
285.40665
285.40665
285.40665
285.40665
285.40665
285.40666
285.40666
285.40666
285.40666
285.40667
285.40667
285.40667
285.40667
285.40667
285.40668
285.40668
285.40668
285.40668
285.40668
285.40668
285.40668
285.40669
285.40669
285.40669
285.40669
285.4067
285.4067
285.4067
285.4067
285.4067
285.40671
285.40671
285.40671
285.40671
285.40672
285.40672
285.40672
285.40672
285.40672
285.40672
285.40672
285.40672
285.40673
285.40673
285.40673
285.40673
285.40674
285.40674
285.40674
285.40674
285.40674
285.40675
285.40675
285.40675
285.40675
285.40675
285.40676
285.40676
285.40676
285.40676
285.40676
285.40676
285.40677
285.40677
285.40677
285.40677
285.40677
285.40677
285.40678
285.40678
285.40678
285.40678
285.40678
285.40678
285.40679
285.40679
285.40679
285.40679
285.40679
285.40679
285.4068
285.4068
285.4068
285.4068
285.4068
285.40681
285.40681
285.40681
285.40681
285.40681
285.40681
285.40682
285.40682
285.40682
285.40682
285.40682
285.40682
285.40683
285.40683
285.40683
285.40683
285.40683
285.40683
285.40684
285.40684
285.40684
285.40684
285.40684
285.40685
285.40685
285.40685
285.40685
285.40685
285.40685
285.40686
285.40686
285.40686
285.40686
285.40687
285.40687
285.40687
285.40687
285.40687
285.40687
285.40688
285.40688
285.40688
285.40688
285.40688
285.40688
285.40689
285.40689
285.40689
285.40689
285.40689
285.4069
285.4069
285.4069
285.4069
285.4069
285.40691
285.40691
285.40691
285.40691
285.40691
285.40692
285.40692
285.40692
285.40692
285.40692
285.40693
285.40693
285.40693
285.40693
285.40693
285.40694
285.40694
285.40694
285.40694
285.40695
285.40695
285.40695
285.40695
285.40696
285.40696
285.40696
285.40696
285.40697
285.40697
285.40697
285.40697
285.40697
285.40698
285.40698
285.40698
285.40698
285.40699
285.40699
285.40699
285.40699
285.40699
285.407
285.407
285.407
285.407
285.407
285.40701
285.40701
285.40701
285.40701
285.40702
285.40702
285.40702
285.40702
285.40703
285.40703
285.40703
285.40703
285.40704
285.40704
285.40704
285.40704
285.40704
285.40705
285.40705
285.40705
285.40705
285.40705
285.40706
285.40706
285.40706
285.40706
285.40707
285.40707
285.40707
285.40707
285.40708
285.40708
285.40708
285.40708
285.40708
285.40708
285.40709
285.40709
285.40709
285.40709
285.4071
285.4071
285.4071
285.4071
285.40711
285.40711
285.40711
285.40711
285.40711
285.40712
285.40712
285.40712
285.40712
285.40713
285.40713
285.40713
285.40713
285.40713
285.40713
285.40714
285.40714
285.40714
285.40714
285.40715
285.40715
285.40715
285.40715
285.40716
285.40716
285.40716
285.40716
285.40717
285.40717
285.40717
285.40717
285.40718
285.40718
285.40718
285.40718
285.40719
285.40719
285.40719
285.40719
285.40719
285.40719
285.4072
285.4072
285.4072
285.4072
285.40721
285.40721
285.40721
285.40721
285.40722
285.40722
285.40722
285.40722
285.40723
285.40723
285.40723
285.40723
285.40724
285.40724
285.40724
285.40724
285.40725
285.40725
285.40725
285.40725
285.40725
285.40726
285.40726
285.40726
285.40726
285.40727
285.40727
285.40727
285.40727
285.40728
285.40728
285.40728
285.40728
285.40729
285.40729
285.40729
285.40729
285.4073
285.4073
285.4073
285.4073
285.40731
285.40731
285.40731
285.40731
285.40732
285.40732
285.40732
285.40733
285.40733
285.40733
285.40733
285.40734
285.40734
285.40734
285.40734
285.40735
285.40735
285.40735
285.40735
285.40736
285.40736
285.40736
285.40736
285.40737
285.40737
285.40737
285.40737
285.40738
285.40738
285.40738
285.40738
285.40739
285.40739
285.40739
285.4074
285.4074
285.4074
285.4074
285.4074
285.40741
285.40741
285.40741
285.40741
285.40742
285.40742
285.40742
285.40743
285.40743
285.40743
285.40744
285.40744
285.40744
285.40744
285.40744
285.40745
285.40745
285.40745
285.40746
285.40746
285.40746
285.40746
285.40747
285.40747
285.40747
285.40747
285.40748
285.40748
285.40748
285.40749
285.40749
285.40749
285.40749
285.4075
285.4075
285.4075
285.4075
285.40751
285.40751
285.40751
285.40752
285.40752
285.40752
285.40752
285.40753
285.40753
285.40753
285.40754
285.40754
285.40754
285.40754
285.40755
285.40755
285.40755
285.40755
285.40756
285.40756
285.40756
285.40757
285.40757
285.40757
285.40758
285.40758
285.40758
285.40759
285.40759
285.40759
285.4076
285.4076
285.4076
285.4076
285.4076
285.40761
285.40761
285.40761
285.40762
285.40762
285.40762
285.40763
285.40763
285.40763
285.40763
285.40764
285.40764
285.40764
285.40765
285.40765
285.40765
285.40766
285.40766
285.40766
285.40767
285.40767
285.40767
285.40768
285.40768
285.40768
285.40768
285.40769
285.40769
285.40769
285.4077
285.4077
285.4077
285.40771
285.40771
285.40771
285.40771
285.40772
285.40772
285.40772
285.40773
285.40773
285.40773
285.40774
285.40774
285.40774
285.40774
285.40775
285.40775
285.40775
285.40776
285.40776
285.40776
285.40777
285.40777
285.40777
285.40778
285.40778
285.40778
285.40779
285.40779
285.4078
285.4078
285.4078
285.4078
285.40781
285.40781
285.40781
285.40781
285.40782
285.40782
285.40782
285.40783
285.40783
285.40783
285.40784
285.40784
285.40784
285.40785
285.40785
285.40785
285.40786
285.40786
285.40786
285.40787
285.40787
285.40787
285.40788
285.40788
285.40788
285.40789
285.40789
285.40789
285.4079
285.4079
285.4079
285.40791
285.40791
285.40791
285.40792
285.40792
285.40792
285.40793
285.40793
285.40793
285.40794
285.40794
285.40794
285.40794
285.40795
285.40795
285.40795
285.40796
285.40796
285.40797
285.40797
285.40797
285.40798
285.40798
285.40798
285.40799
285.40799
285.40799
285.408
285.408
285.408
285.40801
285.40801
285.40802
285.40802
285.40802
285.40803
285.40803
285.40803
285.40804
285.40804
285.40804
285.40805
285.40805
285.40805
285.40806
285.40806
285.40806
285.40807
285.40807
285.40807
285.40808
285.40808
285.40809
285.40809
285.40809
285.4081
285.4081
285.40811
285.40811
285.40811
285.40812
285.40812
285.40812
285.40813
285.40813
285.40814
285.40814
285.40814
285.40815
285.40815
285.40816
285.40816
285.40816
285.40817
285.40817
285.40817
285.40818
285.40818
285.40819
285.40819
285.40819
285.4082
285.4082
285.4082
285.40821
285.40821
285.40822
285.40822
285.40823
285.40823
285.40824
285.40824
285.40824
285.40825
285.40825
285.40826
285.40826
285.40826
285.40827
285.40827
285.40828
285.40828
285.40829
285.40829
285.40829
285.4083
285.4083
285.40831
285.40831
285.40831
285.40832
285.40832
285.40832
285.40833
285.40833
285.40834
285.40834
285.40835
285.40835
285.40835
285.40836
285.40836
285.40837
285.40837
285.40838
285.40838
285.40838
285.40839
285.40839
285.4084
285.4084
285.40841
285.40841
285.40842
285.40842
285.40842
285.40843
285.40843
285.40844
285.40844
285.40845
285.40845
285.40845
285.40846
285.40846
285.40847
285.40847
285.40848
285.40848
285.40849
285.40849
285.40849
285.4085
285.4085
285.40851
285.40851
285.40852
285.40852
285.40852
285.40853
285.40853
285.40854
285.40854
285.40855
285.40855
285.40856
285.40856
285.40857
285.40857
285.40857
285.40858
285.40858
285.40859
285.40859
285.4086
285.4086
285.40861
285.40861
285.40862
285.40862
285.40862
285.40863
285.40864
285.40864
285.40865
285.40865
285.40866
285.40866
285.40867
285.40867
285.40868
285.40868
285.40869
285.40869
285.40869
285.4087
285.4087
285.40871
285.40871
285.40872
285.40872
285.40873
285.40873
285.40874
285.40874
285.40875
285.40875
285.40876
285.40876
285.40877
285.40877
285.40878
285.40878
285.40879
285.40879
285.4088
285.4088
285.40881
285.40881
285.40882
285.40883
285.40883
285.40884
285.40884
285.40885
285.40885
285.40886
285.40886
285.40887
285.40887
285.40888
285.40888
285.40889
285.40889
285.4089
285.4089
285.40891
285.40891
285.40892
285.40893
285.40893
285.40894
285.40894
285.40895
285.40895
285.40896
285.40896
285.40897
285.40897
285.40898
285.40899
285.40899
285.409
285.409
285.40901
285.40902
285.40902
285.40903
285.40903
285.40904
285.40904
285.40905
285.40906
285.40906
285.40907
285.40907
285.40908
285.40908
285.40909
285.40909
285.4091
285.40911
285.40911
285.40912
285.40912
285.40913
285.40914
285.40914
285.40915
285.40915
285.40916
285.40917
285.40917
285.40918
285.40919
285.40919
285.4092
285.4092
285.40921
285.40921
285.40922
285.40923
285.40923
285.40924
285.40924
285.40925
285.40926
285.40926
285.40927
285.40928
285.40928
285.40929
285.4093
285.4093
285.40931
285.40932
285.40932
285.40933
285.40934
285.40934
285.40935
285.40936
285.40936
285.40937
285.40938
285.40938
285.40939
285.4094
285.4094
285.40941
285.40942
285.40942
285.40943
285.40944
285.40945
285.40945
285.40946
285.40947
285.40947
285.40948
285.40948
285.40949
285.4095
285.4095
285.40951
285.40952
285.40952
285.40953
285.40954
285.40955
285.40955
285.40956
285.40957
285.40958
285.40958
285.40959
285.4096
285.4096
285.40961
285.40962
285.40962
285.40963
285.40964
285.40964
285.40965
285.40966
285.40967
285.40967
285.40968
285.40969
285.4097
285.4097
285.40971
285.40972
285.40973
285.40973
285.40974
285.40975
285.40976
285.40976
285.40977
285.40978
285.40979
285.40979
285.4098
285.40981
285.40982
285.40982
285.40983
285.40984
285.40985
285.40986
285.40986
285.40987
285.40988
285.40989
285.4099
285.4099
285.40991
285.40992
285.40993
285.40994
285.40995
285.40995
285.40996
285.40997
285.40998
285.40999
285.41
285.41
285.41001
285.41002
285.41003
285.41004
285.41004
285.41005
285.41006
285.41007
285.41008
285.41009
285.4101
285.41011
285.41011
285.41012
285.41013
285.41014
285.41015
285.41016
285.41017
285.41017
285.41018
285.41019
285.4102
285.41021
285.41022
285.41023
285.41024
285.41025
285.41026
285.41027
285.41027
285.41028
285.41029
285.4103
285.41031
285.41032
285.41033
285.41034
285.41035
285.41036
285.41037
285.41038
285.41039
285.4104
285.41041
285.41042
285.41042
285.41043
285.41044
285.41045
285.41046
285.41047
285.41048
285.41049
285.4105
285.41052
285.41053
285.41054
285.41055
285.41056
285.41057
285.41058
285.41059
285.4106
285.41061
285.41062
285.41063
285.41064
285.41065
285.41066
285.41067
285.41068
285.41069
285.41071
285.41071
285.41073
285.41074
285.41075
285.41076
285.41077
285.41078
285.41079
285.4108
285.41081
285.41082
285.41083
285.41084
285.41085
285.41086
285.41088
285.41089
285.4109
285.41091
285.41092
285.41094
285.41095
285.41096
285.41097
285.41099
285.411
285.41101
285.41102
285.41103
285.41105
285.41106
285.41107
285.41108
285.41109
285.4111
285.41111
285.41113
285.41114
285.41115
285.41116
285.41118
285.41119
285.4112
285.41122
285.41123
285.41124
285.41126
285.41127
285.41128
285.4113
285.41131
285.41132
285.41133
285.41135
285.41136
285.41137
285.41139
285.4114
285.41141
285.41143
285.41144
285.41146
285.41147
285.41148
285.4115
285.41151
285.41153
285.41154
285.41155
285.41157
285.41158
285.4116
285.41161
285.41163
285.41164
285.41165
285.41167
285.41168
285.4117
285.41171
285.41173
285.41174
285.41176
285.41177
285.41179
285.4118
285.41182
285.41183
285.41185
285.41187
285.41188
285.4119
285.41191
285.41193
285.41194
285.41196
285.41198
285.41199
285.41201
285.41202
285.41204
285.41206
285.41207
285.41209
285.41211
285.41212
285.41214
285.41216
285.41218
285.41219
285.41221
285.41223
285.41225
285.41226
285.41228
285.4123
285.41232
285.41233
285.41235
285.41237
285.41239
285.41241
285.41242
285.41244
285.41246
285.41248
285.41249
285.41251
285.41253
285.41255
285.41257
285.41259
285.41261
285.41263
285.41265
285.41267
285.41269
285.41271
285.41273
285.41275
285.41277
285.41279
285.41281
285.41283
285.41285
285.41287
285.41289
285.41291
285.41294
285.41296
285.41298
285.413
285.41302
285.41304
285.41307
285.41309
285.41311
285.41313
285.41315
285.41317
285.4132
285.41322
285.41324
285.41326
285.41328
285.41331
285.41333
285.41336
285.41338
285.41341
285.41343
285.41346
285.41348
285.41351
285.41353
285.41356
285.41358
285.41361
285.41363
285.41366
285.41368
285.41371
285.41374
285.41376
285.41379
285.41381
285.41384
285.41387
285.41389
285.41392
285.41395
285.41398
285.414
285.41403
285.41406
285.41409
285.41412
285.41415
285.41418
285.41421
285.41424
285.41427
285.4143
285.41433
285.41437
285.4144
285.41443
285.41446
285.41449
285.41452
285.41455
285.41458
285.41461
285.41464
285.41467
285.4147
285.41473
285.41477
285.4148
285.41484
285.41487
285.4149
285.41494
285.41497
285.41501
285.41505
285.41508
285.41512
285.41515
285.41519
285.41523
285.41527
285.41531
285.41535
285.41539
285.41543
285.41546
285.4155
285.41554
285.41558
285.41562
285.41566
285.4157
285.41574
285.41579
285.41583
285.41587
285.41592
285.41596
285.41601
285.41605
285.4161
285.41614
285.41619
285.41623
285.41628
285.41632
285.41637
285.41642
285.41646
285.41651
285.41656
285.41661
285.41666
285.41671
285.41677
285.41682
285.41687
285.41693
285.41698
285.41704
285.41709
285.41715
285.41721
285.41726
285.41732
285.41738
285.41744
285.4175
285.41756
285.41762
285.41768
285.41774
285.4178
285.41786
285.41793
285.41799
285.41805
285.41812
285.41818
285.41825
285.41832
285.41839
285.41846
285.41853
285.4186
285.41868
285.41876
285.41883
285.41891
285.41899
285.41907
285.41915
285.41923
285.41932
285.4194
285.41948
285.41957
285.41965
285.41974
285.41983
285.41992
285.42001
285.42011
285.4202
285.4203
285.4204
285.42049
285.4206
285.4207
285.4208
285.42091
285.42101
285.42112
285.42123
285.42134
285.42145
285.42156
285.42167
285.42178
285.4219
285.42201
285.42213
285.42225
285.42236
285.42248
285.4226
285.42272
285.42283
285.42295
285.42306
285.42317
285.42328
285.42339
285.42349
285.42359
285.42368
285.42377
285.42385
285.42392
285.42399
285.42405
285.42411
285.42415
285.42419
285.42422
285.42424
285.42425
285.42425
285.42426
285.42426
285.42425
285.42424
285.42421
285.42418
285.42415
285.42412
285.42409
285.42407
285.42406
285.42405
285.42405
285.42405
285.42406
285.42407
285.42411
285.42421
285.42434
285.42449
285.42466
285.42484
285.42505
285.42526
285.42549
285.42574
285.42599
285.42626
285.42653
285.42681
285.42709
285.42737
285.42764
285.4279
285.42815
285.42838
285.4286
285.4288
285.42898
285.42914
285.42928
285.4294
285.42949
285.42956
285.4296
285.42963
285.42966
285.42971
285.42981
285.43003
285.43053
285.43173
285.43471
285.4421
285.46047
285.50643
285.62018
285.9047
286.43092
287.10059
287.89645
288.79764
289.77833
290.8097
291.8622
292.90755
293.92045
294.87974
295.76916
296.5775
297.29848
297.93018
298.47437
298.93566
299.32066
299.63726
299.89389
300.09904
300.26083
300.38673
300.48342
300.5567
300.6115
300.65192
300.68129
300.70229
300.71704
300.72718
300.73397
300.73835
300.74104
300.74256
300.74329
300.74353
300.74353
300.74339
300.74288
300.74213
300.74143
300.74078
300.74018
300.73961
300.73909
300.7386
300.73815
300.73772
300.73731
300.73693
300.73656
300.7362
300.73585
300.73551
300.73517
300.73482
300.73447
300.7341
300.73372
300.73333
300.73291
300.73248
300.73203
300.73157
300.73109
300.7306
300.7301
300.72959
300.72909
300.72858
300.72807
300.72757
300.72709
300.72661
300.72615
300.7257
300.72528
300.72487
300.72447
300.7241
300.72375
300.72341
300.72309
300.72279
300.7225
300.72223
300.72197
300.72173
300.72149
300.72127
300.72105
300.72085
300.72065
300.72046
300.72028
300.72011
300.71994
300.71977
300.71961
300.71945
300.7193
300.71915
300.71901
300.71887
300.71873
300.7186
300.71847
300.71834
300.71821
300.71809
300.71797
300.71785
300.71773
300.71762
300.7175
300.71739
300.71728
300.71717
300.71707
300.71696
300.71686
300.71676
300.71666
300.71656
300.71647
300.71637
300.71628
300.71619
300.71609
300.71601
300.71592
300.71583
300.71574
300.71566
300.71557
300.71549
300.7154
300.71532
300.71524
300.71517
300.71509
300.71501
300.71494
300.71487
300.71479
300.71472
300.71465
300.71458
300.71451
300.71444
300.71438
300.71431
300.71424
300.71418
300.71412
300.71405
300.71399
300.71393
300.71386
300.7138
300.71374
300.71368
300.71362
300.71356
300.7135
300.71344
300.71339
300.71333
300.71327
300.71322
300.71316
300.71311
300.71306
300.71301
300.71295
300.7129
300.71285
300.7128
300.71275
300.7127
300.71265
300.7126
300.71255
300.71251
300.71246
300.71241
300.71236
300.71232
300.71227
300.71222
300.71218
300.71213
300.71209
300.71205
300.712
300.71196
300.71192
300.71187
300.71183
300.71179
300.71175
300.71171
300.71167
300.71163
300.71159
300.71156
300.71152
300.71148
300.71144
300.7114
300.71136
300.71132
300.71129
300.71125
300.71121
300.71117
300.71114
300.7111
300.71107
300.71103
300.711
300.71097
300.71093
300.7109
300.71086
300.71083
300.7108
300.71076
300.71073
300.7107
300.71067
300.71063
300.7106
300.71057
300.71054
300.71051
300.71047
300.71044
300.71041
300.71038
300.71035
300.71032
300.71029
300.71026
300.71023
300.7102
300.71018
300.71015
300.71012
300.71009
300.71007
300.71004
300.71001
300.70998
300.70996
300.70993
300.7099
300.70987
300.70985
300.70982
300.70979
300.70976
300.70974
300.70971
300.70969
300.70966
300.70964
300.70961
300.70958
300.70956
300.70953
300.70951
300.70948
300.70946
300.70944
300.70941
300.70939
300.70937
300.70934
300.70932
300.7093
300.70928
300.70925
300.70923
300.70921
300.70918
300.70916
300.70914
300.70911
300.70909