/*--------------------------------*- C++ -*----------------------------------*\
  =========                 |
  \\      /  F ield         | OpenFOAM: The Open Source CFD Toolbox
   \\    /   O peration     | Website:  https://openfoam.org
    \\  /    A nd           | Version:  7
     \\/     M anipulation  |
\*---------------------------------------------------------------------------*/
FoamFile
{
    version     2.0;
    format      ascii;
    class       volScalarField;
    location    "0.00286";
    object      rho;
}
// * * * * * * * * * * * * * * * * * * * * * * * * * * * * * * * * * * * * * //

dimensions      [1 -3 0 0 0 0 0];

internalField   nonuniform List<scalar> 
5000
(
1.3374795
1.3374795
1.3374795
1.3374795
1.3374795
1.3374795
1.3374795
1.3374795
1.3374795
1.3374795
1.3374795
1.3374795
1.3374795
1.3374795
1.3374795
1.3374795
1.3374795
1.3374795
1.3374795
1.3374795
1.3374795
1.3374795
1.3374795
1.3374795
1.3374795
1.3374795
1.3374795
1.3374795
1.3374795
1.3374795
1.3374796
1.3374796
1.3374796
1.3374796
1.3374796
1.3374796
1.3374796
1.3374796
1.3374796
1.3374796
1.3374796
1.3374796
1.3374796
1.3374796
1.3374796
1.3374796
1.3374796
1.3374796
1.3374796
1.3374796
1.3374796
1.3374796
1.3374796
1.3374796
1.3374796
1.3374796
1.3374796
1.3374796
1.3374796
1.3374796
1.3374796
1.3374796
1.3374796
1.3374796
1.3374796
1.3374796
1.3374796
1.3374796
1.3374796
1.3374796
1.3374796
1.3374796
1.3374796
1.3374796
1.3374796
1.3374796
1.3374796
1.3374796
1.3374797
1.3374797
1.3374797
1.3374797
1.3374797
1.3374797
1.3374797
1.3374797
1.3374797
1.3374797
1.3374797
1.3374797
1.3374797
1.3374797
1.3374797
1.3374797
1.3374797
1.3374797
1.3374797
1.3374797
1.3374797
1.3374797
1.3374797
1.3374797
1.3374797
1.3374797
1.3374797
1.3374797
1.3374797
1.3374797
1.3374797
1.3374797
1.3374797
1.3374797
1.3374797
1.3374797
1.3374797
1.3374797
1.3374797
1.3374797
1.3374797
1.3374797
1.3374796
1.3374796
1.3374796
1.3374796
1.3374796
1.3374796
1.3374795
1.3374795
1.3374794
1.3374791
1.3374786
1.3374773
1.3374745
1.3374698
1.3374632
1.3374542
1.3374419
1.3374256
1.3374044
1.3373775
1.3373443
1.3373043
1.3372573
1.3372037
1.337144
1.3370791
1.3370103
1.336939
1.3368667
1.336795
1.3367252
1.3366587
1.3365965
1.3365392
1.3364874
1.3364414
1.3364011
1.3363663
1.3363367
1.3363119
1.3362914
1.3362746
1.336261
1.3362502
1.3362416
1.3362349
1.3362297
1.3362257
1.3362227
1.3362204
1.3362187
1.3362174
1.3362165
1.3362158
1.3362153
1.336215
1.3362147
1.3362145
1.3362144
1.3362143
1.3362142
1.3362142
1.3362141
1.3362141
1.3362141
1.3362141
1.3362141
1.3362141
1.3362141
1.336214
1.336214
1.336214
1.336214
1.336214
1.336214
1.336214
1.336214
1.336214
1.336214
1.336214
1.336214
1.336214
1.336214
1.336214
1.336214
1.336214
1.336214
1.336214
1.336214
1.336214
1.336214
1.336214
1.336214
1.336214
1.336214
1.336214
1.336214
1.336214
1.336214
1.336214
1.336214
1.336214
1.336214
1.336214
1.336214
1.336214
1.336214
1.336214
1.336214
1.336214
1.336214
1.336214
1.336214
1.336214
1.336214
1.336214
1.336214
1.336214
1.336214
1.336214
1.336214
1.3362139
1.3362139
1.3362139
1.3362139
1.3362139
1.3362139
1.3362139
1.3362139
1.3362139
1.3362139
1.3362139
1.3362139
1.3362139
1.3362139
1.3362139
1.3362139
1.3362139
1.3362139
1.3362139
1.3362139
1.3362139
1.3362139
1.3362139
1.3362139
1.3362139
1.3362139
1.3362139
1.3362139
1.3362139
1.3362139
1.3362139
1.3362139
1.3362139
1.3362139
1.3362139
1.3362139
1.3362139
1.3362139
1.3362139
1.3362139
1.3362139
1.3362139
1.3362139
1.3362139
1.3362139
1.3362139
1.3362139
1.3362139
1.3362139
1.3362139
1.3362139
1.3362139
1.3362139
1.3362138
1.3362138
1.3362138
1.3362138
1.3362138
1.3362138
1.3362138
1.3362138
1.3362138
1.3362138
1.3362138
1.3362138
1.3362138
1.3362138
1.3362138
1.3362138
1.3362138
1.3362138
1.3362138
1.3362138
1.3362138
1.3362138
1.3362138
1.3362138
1.3362138
1.3362138
1.3362138
1.3362138
1.3362138
1.3362138
1.3362138
1.3362138
1.3362138
1.3362138
1.3362138
1.3362138
1.3362138
1.3362138
1.3362138
1.3362138
1.3362138
1.3362138
1.3362138
1.3362138
1.3362138
1.3362138
1.3362138
1.3362138
1.3362138
1.3362138
1.3362138
1.3362137
1.3362137
1.3362137
1.3362137
1.3362137
1.3362137
1.3362137
1.3362137
1.3362137
1.3362137
1.3362137
1.3362137
1.3362137
1.3362137
1.3362137
1.3362137
1.3362137
1.3362137
1.3362137
1.3362137
1.3362137
1.3362137
1.3362137
1.3362137
1.3362137
1.3362137
1.3362137
1.3362137
1.3362137
1.3362137
1.3362137
1.3362137
1.3362137
1.3362137
1.3362137
1.3362137
1.3362137
1.3362137
1.3362137
1.3362137
1.3362137
1.3362137
1.3362137
1.3362137
1.3362137
1.3362137
1.3362137
1.3362136
1.3362136
1.3362136
1.3362136
1.3362136
1.3362136
1.3362136
1.3362136
1.3362136
1.3362136
1.3362136
1.3362136
1.3362136
1.3362136
1.3362136
1.3362136
1.3362136
1.3362136
1.3362136
1.3362136
1.3362136
1.3362136
1.3362136
1.3362136
1.3362136
1.3362136
1.3362136
1.3362136
1.3362136
1.3362136
1.3362136
1.3362136
1.3362136
1.3362136
1.3362136
1.3362136
1.3362136
1.3362136
1.3362136
1.3362136
1.3362136
1.3362136
1.3362136
1.3362136
1.3362135
1.3362135
1.3362135
1.3362135
1.3362135
1.3362135
1.3362135
1.3362135
1.3362135
1.3362135
1.3362135
1.3362135
1.3362135
1.3362135
1.3362135
1.3362135
1.3362135
1.3362135
1.3362135
1.3362135
1.3362135
1.3362135
1.3362135
1.3362135
1.3362135
1.3362135
1.3362135
1.3362135
1.3362135
1.3362135
1.3362135
1.3362135
1.3362135
1.3362135
1.3362135
1.3362135
1.3362135
1.3362135
1.3362135
1.3362135
1.3362135
1.3362134
1.3362134
1.3362134
1.3362134
1.3362134
1.3362134
1.3362134
1.3362134
1.3362134
1.3362134
1.3362134
1.3362134
1.3362134
1.3362134
1.3362134
1.3362134
1.3362134
1.3362134
1.3362134
1.3362134
1.3362134
1.3362134
1.3362134
1.3362134
1.3362134
1.3362134
1.3362134
1.3362134
1.3362134
1.3362134
1.3362134
1.3362134
1.3362134
1.3362134
1.3362134
1.3362134
1.3362133
1.3362133
1.3362133
1.3362133
1.3362133
1.3362133
1.3362133
1.3362133
1.3362133
1.3362133
1.3362133
1.3362133
1.3362133
1.3362133
1.3362133
1.3362133
1.3362133
1.3362133
1.3362133
1.3362133
1.3362133
1.3362133
1.3362133
1.3362133
1.3362133
1.3362133
1.3362133
1.3362133
1.3362133
1.3362133
1.3362133
1.3362133
1.3362133
1.3362133
1.3362133
1.3362133
1.3362133
1.3362133
1.3362132
1.3362132
1.3362132
1.3362132
1.3362132
1.3362132
1.3362132
1.3362132
1.3362132
1.3362132
1.3362132
1.3362132
1.3362132
1.3362132
1.3362132
1.3362132
1.3362132
1.3362132
1.3362132
1.3362132
1.3362132
1.3362132
1.3362132
1.3362132
1.3362132
1.3362132
1.3362132
1.3362132
1.3362132
1.3362132
1.3362132
1.3362132
1.3362132
1.3362132
1.3362132
1.3362132
1.3362132
1.3362131
1.3362131
1.3362131
1.3362131
1.3362131
1.3362131
1.3362131
1.3362131
1.3362131
1.3362131
1.3362131
1.3362131
1.3362131
1.3362131
1.3362131
1.3362131
1.3362131
1.3362131
1.3362131
1.3362131
1.3362131
1.3362131
1.3362131
1.3362131
1.3362131
1.3362131
1.3362131
1.3362131
1.3362131
1.3362131
1.3362131
1.3362131
1.3362131
1.3362131
1.3362131
1.3362131
1.3362131
1.336213
1.336213
1.336213
1.336213
1.336213
1.336213
1.336213
1.336213
1.336213
1.336213
1.336213
1.336213
1.336213
1.336213
1.336213
1.336213
1.336213
1.336213
1.336213
1.336213
1.336213
1.336213
1.336213
1.336213
1.336213
1.336213
1.336213
1.336213
1.336213
1.336213
1.3362129
1.3362129
1.3362129
1.3362129
1.3362129
1.3362129
1.3362129
1.3362129
1.3362129
1.3362129
1.3362129
1.3362129
1.3362129
1.3362129
1.3362129
1.3362129
1.3362129
1.3362129
1.3362129
1.3362129
1.3362129
1.3362129
1.3362129
1.3362129
1.3362129
1.3362129
1.3362129
1.3362129
1.3362129
1.3362129
1.3362129
1.3362129
1.3362129
1.3362129
1.3362128
1.3362128
1.3362128
1.3362128
1.3362128
1.3362128
1.3362128
1.3362128
1.3362128
1.3362128
1.3362128
1.3362128
1.3362128
1.3362128
1.3362128
1.3362128
1.3362128
1.3362128
1.3362128
1.3362128
1.3362128
1.3362128
1.3362128
1.3362128
1.3362128
1.3362128
1.3362128
1.3362128
1.3362128
1.3362128
1.3362128
1.3362127
1.3362127
1.3362127
1.3362127
1.3362127
1.3362127
1.3362127
1.3362127
1.3362127
1.3362127
1.3362127
1.3362127
1.3362127
1.3362127
1.3362127
1.3362127
1.3362127
1.3362127
1.3362127
1.3362127
1.3362127
1.3362127
1.3362127
1.3362127
1.3362127
1.3362127
1.3362127
1.3362127
1.3362127
1.3362127
1.3362126
1.3362126
1.3362126
1.3362126
1.3362126
1.3362126
1.3362126
1.3362126
1.3362126
1.3362126
1.3362126
1.3362126
1.3362126
1.3362126
1.3362126
1.3362126
1.3362126
1.3362126
1.3362126
1.3362126
1.3362126
1.3362126
1.3362126
1.3362126
1.3362126
1.3362126
1.3362126
1.3362126
1.3362126
1.3362125
1.3362125
1.3362125
1.3362125
1.3362125
1.3362125
1.3362125
1.3362125
1.3362125
1.3362125
1.3362125
1.3362125
1.3362125
1.3362125
1.3362125
1.3362125
1.3362125
1.3362125
1.3362125
1.3362125
1.3362125
1.3362125
1.3362125
1.3362125
1.3362125
1.3362125
1.3362125
1.3362125
1.3362125
1.3362124
1.3362124
1.3362124
1.3362124
1.3362124
1.3362124
1.3362124
1.3362124
1.3362124
1.3362124
1.3362124
1.3362124
1.3362124
1.3362124
1.3362124
1.3362124
1.3362124
1.3362124
1.3362124
1.3362124
1.3362124
1.3362124
1.3362124
1.3362124
1.3362124
1.3362124
1.3362123
1.3362123
1.3362123
1.3362123
1.3362123
1.3362123
1.3362123
1.3362123
1.3362123
1.3362123
1.3362123
1.3362123
1.3362123
1.3362123
1.3362123
1.3362123
1.3362123
1.3362123
1.3362123
1.3362123
1.3362123
1.3362123
1.3362123
1.3362123
1.3362123
1.3362123
1.3362123
1.3362123
1.3362123
1.3362122
1.3362122
1.3362122
1.3362122
1.3362122
1.3362122
1.3362122
1.3362122
1.3362122
1.3362122
1.3362122
1.3362122
1.3362122
1.3362122
1.3362122
1.3362122
1.3362122
1.3362122
1.3362122
1.3362122
1.3362122
1.3362122
1.3362122
1.3362122
1.3362122
1.3362121
1.3362121
1.3362121
1.3362121
1.3362121
1.3362121
1.3362121
1.3362121
1.3362121
1.3362121
1.3362121
1.3362121
1.3362121
1.3362121
1.3362121
1.3362121
1.3362121
1.3362121
1.3362121
1.3362121
1.3362121
1.3362121
1.3362121
1.3362121
1.3362121
1.336212
1.336212
1.336212
1.336212
1.336212
1.336212
1.336212
1.336212
1.336212
1.336212
1.336212
1.336212
1.336212
1.336212
1.336212
1.336212
1.336212
1.336212
1.336212
1.336212
1.336212
1.336212
1.336212
1.336212
1.336212
1.336212
1.3362119
1.3362119
1.3362119
1.3362119
1.3362119
1.3362119
1.3362119
1.3362119
1.3362119
1.3362119
1.3362119
1.3362119
1.3362119
1.3362119
1.3362119
1.3362119
1.3362119
1.3362119
1.3362119
1.3362119
1.3362119
1.3362119
1.3362119
1.3362118
1.3362118
1.3362118
1.3362118
1.3362118
1.3362118
1.3362118
1.3362118
1.3362118
1.3362118
1.3362118
1.3362118
1.3362118
1.3362118
1.3362118
1.3362118
1.3362118
1.3362118
1.3362118
1.3362118
1.3362118
1.3362118
1.3362118
1.3362117
1.3362117
1.3362117
1.3362117
1.3362117
1.3362117
1.3362117
1.3362117
1.3362117
1.3362117
1.3362117
1.3362117
1.3362117
1.3362117
1.3362117
1.3362117
1.3362117
1.3362117
1.3362117
1.3362117
1.3362117
1.3362117
1.3362116
1.3362116
1.3362116
1.3362116
1.3362116
1.3362116
1.3362116
1.3362116
1.3362116
1.3362116
1.3362116
1.3362116
1.3362116
1.3362116
1.3362116
1.3362116
1.3362116
1.3362116
1.3362116
1.3362116
1.3362116
1.3362116
1.3362116
1.3362116
1.3362115
1.3362115
1.3362115
1.3362115
1.3362115
1.3362115
1.3362115
1.3362115
1.3362115
1.3362115
1.3362115
1.3362115
1.3362115
1.3362115
1.3362115
1.3362115
1.3362115
1.3362115
1.3362115
1.3362114
1.3362114
1.3362114
1.3362114
1.3362114
1.3362114
1.3362114
1.3362114
1.3362114
1.3362114
1.3362114
1.3362114
1.3362114
1.3362114
1.3362114
1.3362114
1.3362114
1.3362114
1.3362114
1.3362114
1.3362114
1.3362114
1.3362114
1.3362113
1.3362113
1.3362113
1.3362113
1.3362113
1.3362113
1.3362113
1.3362113
1.3362113
1.3362113
1.3362113
1.3362113
1.3362113
1.3362113
1.3362113
1.3362113
1.3362113
1.3362113
1.3362113
1.3362113
1.3362112
1.3362112
1.3362112
1.3362112
1.3362112
1.3362112
1.3362112
1.3362112
1.3362112
1.3362112
1.3362112
1.3362112
1.3362112
1.3362112
1.3362112
1.3362112
1.3362112
1.3362112
1.3362112
1.3362112
1.3362112
1.3362112
1.3362111
1.3362111
1.3362111
1.3362111
1.3362111
1.3362111
1.3362111
1.3362111
1.3362111
1.3362111
1.3362111
1.3362111
1.3362111
1.3362111
1.3362111
1.3362111
1.3362111
1.3362111
1.3362111
1.3362111
1.336211
1.336211
1.336211
1.336211
1.336211
1.336211
1.336211
1.336211
1.336211
1.336211
1.336211
1.336211
1.336211
1.336211
1.336211
1.336211
1.336211
1.336211
1.336211
1.336211
1.3362109
1.3362109
1.3362109
1.3362109
1.3362109
1.3362109
1.3362109
1.3362109
1.3362109
1.3362109
1.3362109
1.3362109
1.3362109
1.3362109
1.3362109
1.3362109
1.3362109
1.3362108
1.3362108
1.3362108
1.3362108
1.3362108
1.3362108
1.3362108
1.3362108
1.3362108
1.3362108
1.3362108
1.3362108
1.3362108
1.3362108
1.3362108
1.3362108
1.3362108
1.3362108
1.3362108
1.3362108
1.3362107
1.3362107
1.3362107
1.3362107
1.3362107
1.3362107
1.3362107
1.3362107
1.3362107
1.3362107
1.3362107
1.3362107
1.3362107
1.3362107
1.3362107
1.3362107
1.3362107
1.3362107
1.3362106
1.3362106
1.3362106
1.3362106
1.3362106
1.3362106
1.3362106
1.3362106
1.3362106
1.3362106
1.3362106
1.3362106
1.3362106
1.3362106
1.3362106
1.3362106
1.3362106
1.3362106
1.3362105
1.3362105
1.3362105
1.3362105
1.3362105
1.3362105
1.3362105
1.3362105
1.3362105
1.3362105
1.3362105
1.3362105
1.3362105
1.3362105
1.3362105
1.3362105
1.3362105
1.3362105
1.3362104
1.3362104
1.3362104
1.3362104
1.3362104
1.3362104
1.3362104
1.3362104
1.3362104
1.3362104
1.3362104
1.3362104
1.3362104
1.3362104
1.3362104
1.3362104
1.3362104
1.3362103
1.3362103
1.3362103
1.3362103
1.3362103
1.3362103
1.3362103
1.3362103
1.3362103
1.3362103
1.3362103
1.3362103
1.3362103
1.3362103
1.3362103
1.3362103
1.3362103
1.3362102
1.3362102
1.3362102
1.3362102
1.3362102
1.3362102
1.3362102
1.3362102
1.3362102
1.3362102
1.3362102
1.3362102
1.3362102
1.3362102
1.3362102
1.3362101
1.3362101
1.3362101
1.3362101
1.3362101
1.3362101
1.3362101
1.3362101
1.3362101
1.3362101
1.3362101
1.3362101
1.3362101
1.3362101
1.3362101
1.3362101
1.3362101
1.3362101
1.33621
1.33621
1.33621
1.33621
1.33621
1.33621
1.33621
1.33621
1.33621
1.33621
1.33621
1.33621
1.33621
1.33621
1.33621
1.33621
1.3362099
1.3362099
1.3362099
1.3362099
1.3362099
1.3362099
1.3362099
1.3362099
1.3362099
1.3362099
1.3362099
1.3362099
1.3362099
1.3362099
1.3362099
1.3362099
1.3362098
1.3362098
1.3362098
1.3362098
1.3362098
1.3362098
1.3362098
1.3362098
1.3362098
1.3362098
1.3362098
1.3362098
1.3362098
1.3362098
1.3362098
1.3362097
1.3362097
1.3362097
1.3362097
1.3362097
1.3362097
1.3362097
1.3362097
1.3362097
1.3362097
1.3362097
1.3362097
1.3362097
1.3362097
1.3362097
1.3362096
1.3362096
1.3362096
1.3362096
1.3362096
1.3362096
1.3362096
1.3362096
1.3362096
1.3362096
1.3362096
1.3362096
1.3362096
1.3362096
1.3362095
1.3362095
1.3362095
1.3362095
1.3362095
1.3362095
1.3362095
1.3362095
1.3362095
1.3362095
1.3362095
1.3362095
1.3362095
1.3362095
1.3362095
1.3362094
1.3362094
1.3362094
1.3362094
1.3362094
1.3362094
1.3362094
1.3362094
1.3362094
1.3362094
1.3362094
1.3362094
1.3362094
1.3362094
1.3362094
1.3362093
1.3362093
1.3362093
1.3362093
1.3362093
1.3362093
1.3362093
1.3362093
1.3362093
1.3362093
1.3362093
1.3362093
1.3362093
1.3362092
1.3362092
1.3362092
1.3362092
1.3362092
1.3362092
1.3362092
1.3362092
1.3362092
1.3362092
1.3362092
1.3362092
1.3362092
1.3362092
1.3362092
1.3362091
1.3362091
1.3362091
1.3362091
1.3362091
1.3362091
1.3362091
1.3362091
1.3362091
1.3362091
1.3362091
1.3362091
1.3362091
1.336209
1.336209
1.336209
1.336209
1.336209
1.336209
1.336209
1.336209
1.336209
1.336209
1.336209
1.336209
1.336209
1.336209
1.3362089
1.3362089
1.3362089
1.3362089
1.3362089
1.3362089
1.3362089
1.3362089
1.3362089
1.3362089
1.3362089
1.3362089
1.3362089
1.3362088
1.3362088
1.3362088
1.3362088
1.3362088
1.3362088
1.3362088
1.3362088
1.3362088
1.3362088
1.3362088
1.3362088
1.3362088
1.3362087
1.3362087
1.3362087
1.3362087
1.3362087
1.3362087
1.3362087
1.3362087
1.3362087
1.3362087
1.3362087
1.3362087
1.3362087
1.3362086
1.3362086
1.3362086
1.3362086
1.3362086
1.3362086
1.3362086
1.3362086
1.3362086
1.3362086
1.3362086
1.3362086
1.3362085
1.3362085
1.3362085
1.3362085
1.3362085
1.3362085
1.3362085
1.3362085
1.3362085
1.3362085
1.3362085
1.3362085
1.3362085
1.3362084
1.3362084
1.3362084
1.3362084
1.3362084
1.3362084
1.3362084
1.3362084
1.3362084
1.3362084
1.3362084
1.3362084
1.3362084
1.3362083
1.3362083
1.3362083
1.3362083
1.3362083
1.3362083
1.3362083
1.3362083
1.3362083
1.3362083
1.3362083
1.3362082
1.3362082
1.3362082
1.3362082
1.3362082
1.3362082
1.3362082
1.3362082
1.3362082
1.3362082
1.3362082
1.3362082
1.3362081
1.3362081
1.3362081
1.3362081
1.3362081
1.3362081
1.3362081
1.3362081
1.3362081
1.3362081
1.3362081
1.3362081
1.336208
1.336208
1.336208
1.336208
1.336208
1.336208
1.336208
1.336208
1.336208
1.336208
1.3362079
1.3362079
1.3362079
1.3362079
1.3362079
1.3362079
1.3362079
1.3362079
1.3362079
1.3362079
1.3362079
1.3362078
1.3362078
1.3362078
1.3362078
1.3362078
1.3362078
1.3362078
1.3362078
1.3362078
1.3362078
1.3362078
1.3362078
1.3362077
1.3362077
1.3362077
1.3362077
1.3362077
1.3362077
1.3362077
1.3362077
1.3362077
1.3362077
1.3362076
1.3362076
1.3362076
1.3362076
1.3362076
1.3362076
1.3362076
1.3362076
1.3362076
1.3362076
1.3362076
1.3362075
1.3362075
1.3362075
1.3362075
1.3362075
1.3362075
1.3362075
1.3362075
1.3362075
1.3362075
1.3362074
1.3362074
1.3362074
1.3362074
1.3362074
1.3362074
1.3362074
1.3362074
1.3362074
1.3362073
1.3362073
1.3362073
1.3362073
1.3362073
1.3362073
1.3362073
1.3362073
1.3362073
1.3362073
1.3362072
1.3362072
1.3362072
1.3362072
1.3362072
1.3362072
1.3362072
1.3362072
1.3362072
1.3362072
1.3362071
1.3362071
1.3362071
1.3362071
1.3362071
1.3362071
1.3362071
1.3362071
1.3362071
1.336207
1.336207
1.336207
1.336207
1.336207
1.336207
1.336207
1.336207
1.336207
1.336207
1.3362069
1.3362069
1.3362069
1.3362069
1.3362069
1.3362069
1.3362069
1.3362069
1.3362069
1.3362068
1.3362068
1.3362068
1.3362068
1.3362068
1.3362068
1.3362068
1.3362068
1.3362068
1.3362067
1.3362067
1.3362067
1.3362067
1.3362067
1.3362067
1.3362067
1.3362067
1.3362066
1.3362066
1.3362066
1.3362066
1.3362066
1.3362066
1.3362066
1.3362066
1.3362066
1.3362065
1.3362065
1.3362065
1.3362065
1.3362065
1.3362065
1.3362065
1.3362065
1.3362065
1.3362064
1.3362064
1.3362064
1.3362064
1.3362064
1.3362064
1.3362064
1.3362064
1.3362063
1.3362063
1.3362063
1.3362063
1.3362063
1.3362063
1.3362063
1.3362063
1.3362062
1.3362062
1.3362062
1.3362062
1.3362062
1.3362062
1.3362062
1.3362062
1.3362062
1.3362061
1.3362061
1.3362061
1.3362061
1.3362061
1.3362061
1.3362061
1.3362061
1.336206
1.336206
1.336206
1.336206
1.336206
1.336206
1.336206
1.336206
1.3362059
1.3362059
1.3362059
1.3362059
1.3362059
1.3362059
1.3362059
1.3362058
1.3362058
1.3362058
1.3362058
1.3362058
1.3362058
1.3362058
1.3362058
1.3362057
1.3362057
1.3362057
1.3362057
1.3362057
1.3362057
1.3362057
1.3362057
1.3362056
1.3362056
1.3362056
1.3362056
1.3362056
1.3362056
1.3362056
1.3362055
1.3362055
1.3362055
1.3362055
1.3362055
1.3362055
1.3362055
1.3362054
1.3362054
1.3362054
1.3362054
1.3362054
1.3362054
1.3362054
1.3362053
1.3362053
1.3362053
1.3362053
1.3362053
1.3362053
1.3362053
1.3362052
1.3362052
1.3362052
1.3362052
1.3362052
1.3362052
1.3362052
1.3362051
1.3362051
1.3362051
1.3362051
1.3362051
1.3362051
1.3362051
1.336205
1.336205
1.336205
1.336205
1.336205
1.336205
1.3362049
1.3362049
1.3362049
1.3362049
1.3362049
1.3362049
1.3362049
1.3362048
1.3362048
1.3362048
1.3362048
1.3362048
1.3362048
1.3362048
1.3362047
1.3362047
1.3362047
1.3362047
1.3362047
1.3362047
1.3362046
1.3362046
1.3362046
1.3362046
1.3362046
1.3362046
1.3362045
1.3362045
1.3362045
1.3362045
1.3362045
1.3362044
1.3362044
1.3362044
1.3362044
1.3362044
1.3362044
1.3362044
1.3362043
1.3362043
1.3362043
1.3362043
1.3362043
1.3362042
1.3362042
1.3362042
1.3362042
1.3362042
1.3362042
1.3362041
1.3362041
1.3362041
1.3362041
1.3362041
1.336204
1.336204
1.336204
1.336204
1.336204
1.3362039
1.3362039
1.3362039
1.3362039
1.3362039
1.3362038
1.3362038
1.3362038
1.3362038
1.3362038
1.3362037
1.3362037
1.3362037
1.3362037
1.3362036
1.3362036
1.3362036
1.3362036
1.3362036
1.3362035
1.3362035
1.3362035
1.3362035
1.3362034
1.3362034
1.3362034
1.3362034
1.3362033
1.3362033
1.3362033
1.3362033
1.3362032
1.3362032
1.3362032
1.3362031
1.3362031
1.3362031
1.3362031
1.336203
1.336203
1.336203
1.3362029
1.3362029
1.3362029
1.3362028
1.3362028
1.3362028
1.3362027
1.3362027
1.3362027
1.3362026
1.3362026
1.3362026
1.3362025
1.3362025
1.3362025
1.3362024
1.3362024
1.3362023
1.3362023
1.3362023
1.3362022
1.3362022
1.3362021
1.3362021
1.336202
1.336202
1.3362019
1.3362019
1.3362018
1.3362018
1.3362017
1.3362017
1.3362016
1.3362016
1.3362015
1.3362015
1.3362014
1.3362013
1.3362013
1.3362012
1.3362012
1.3362011
1.336201
1.336201
1.3362009
1.3362008
1.3362008
1.3362007
1.3362006
1.3362005
1.3362004
1.3362004
1.3362003
1.3362002
1.3362001
1.3362
1.3361999
1.3361998
1.3361997
1.3361996
1.3361995
1.3361994
1.3361993
1.3361992
1.3361991
1.336199
1.3361989
1.3361988
1.3361987
1.3361985
1.3361984
1.3361983
1.3361982
1.336198
1.3361979
1.3361977
1.3361976
1.3361975
1.3361973
1.3361972
1.336197
1.3361968
1.3361967
1.3361965
1.3361963
1.3361962
1.336196
1.3361958
1.3361956
1.3361954
1.3361952
1.336195
1.3361948
1.3361946
1.3361944
1.3361942
1.3361939
1.3361937
1.3361935
1.3361932
1.336193
1.3361927
1.3361925
1.3361922
1.3361919
1.3361917
1.3361914
1.3361911
1.3361908
1.3361905
1.3361902
1.3361899
1.3361896
1.3361892
1.3361889
1.3361886
1.3361882
1.3361879
1.3361875
1.3361871
1.3361867
1.3361864
1.336186
1.3361856
1.3361851
1.3361847
1.3361843
1.3361838
1.3361834
1.3361829
1.3361825
1.336182
1.3361815
1.336181
1.3361805
1.33618
1.3361794
1.3361789
1.3361784
1.3361778
1.3361772
1.3361766
1.336176
1.3361754
1.3361748
1.3361742
1.3361735
1.3361729
1.3361722
1.3361715
1.3361708
1.3361701
1.3361694
1.3361687
1.3361679
1.3361671
1.3361664
1.3361656
1.3361648
1.3361639
1.3361631
1.3361622
1.3361614
1.3361605
1.3361596
1.3361587
1.3361577
1.3361568
1.3361558
1.3361548
1.3361538
1.3361528
1.3361518
1.3361507
1.3361497
1.3361486
1.3361475
1.3361463
1.3361452
1.336144
1.3361428
1.3361416
1.3361404
1.3361392
1.3361379
1.3361366
1.3361353
1.336134
1.3361326
1.3361312
1.3361298
1.3361284
1.336127
1.3361255
1.336124
1.3361225
1.336121
1.3361194
1.3361179
1.3361162
1.3361146
1.336113
1.3361113
1.3361096
1.3361079
1.3361061
1.3361043
1.3361025
1.3361007
1.3360988
1.336097
1.3360951
1.3360931
1.3360912
1.3360892
1.3360871
1.3360851
1.336083
1.3360809
1.3360788
1.3360766
1.3360744
1.3360722
1.33607
1.3360677
1.3360654
1.336063
1.3360607
1.3360583
1.3360558
1.3360534
1.3360509
1.3360484
1.3360458
1.3360432
1.3360406
1.336038
1.3360353
1.3360326
1.3360298
1.3360271
1.3360242
1.3360214
1.3360185
1.3360156
1.3360127
1.3360097
1.3360067
1.3360036
1.3360005
1.3359974
1.3359943
1.3359911
1.3359879
1.3359846
1.3359813
1.335978
1.3359746
1.3359712
1.3359678
1.3359643
1.3359608
1.3359573
1.3359537
1.3359501
1.3359465
1.3359428
1.335939
1.3359353
1.3359315
1.3359277
1.3359238
1.3359199
1.3359159
1.335912
1.3359079
1.3359039
1.3358998
1.3358957
1.3358915
1.3358873
1.3358831
1.3358788
1.3358745
1.3358701
1.3358657
1.3358613
1.3358568
1.3358523
1.3358478
1.3358432
1.3358386
1.3358339
1.3358292
1.3358245
1.3358197
1.3358149
1.3358101
1.3358052
1.3358003
1.3357953
1.3357903
1.3357853
1.3357802
1.3357751
1.33577
1.3357648
1.3357596
1.3357543
1.335749
1.3357437
1.3357383
1.3357329
1.3357275
1.335722
1.3357165
1.335711
1.3357054
1.3356998
1.3356941
1.3356884
1.3356827
1.3356769
1.3356711
1.3356653
1.3356594
1.3356535
1.3356476
1.3356416
1.3356356
1.3356295
1.3356235
1.3356174
1.3356112
1.335605
1.3355988
1.3355926
1.3355863
1.33558
1.3355736
1.3355673
1.3355608
1.3355544
1.3355479
1.3355414
1.3355349
1.3355283
1.3355217
1.3355151
1.3355084
1.3355017
1.335495
1.3354882
1.3354814
1.3354746
1.3354678
1.3354609
1.335454
1.3354471
1.3354401
1.3354331
1.3354261
1.3354191
1.335412
1.3354049
1.3353978
1.3353906
1.3353834
1.3353762
1.335369
1.3353617
1.3353544
1.3353471
1.3353398
1.3353324
1.335325
1.3353176
1.3353102
1.3353027
1.3352953
1.3352878
1.3352802
1.3352727
1.3352651
1.3352575
1.3352499
1.3352422
1.3352346
1.3352269
1.3352192
1.3352114
1.3352037
1.3351959
1.3351881
1.3351803
1.3351725
1.3351646
1.3351568
1.3351489
1.335141
1.335133
1.3351251
1.3351171
1.3351091
1.3351011
1.3350931
1.335085
1.335077
1.3350689
1.3350608
1.3350527
1.3350446
1.3350364
1.3350282
1.3350201
1.3350119
1.3350036
1.3349954
1.3349871
1.3349789
1.3349706
1.3349623
1.334954
1.3349456
1.3349373
1.3349289
1.3349205
1.3349121
1.3349037
1.3348952
1.3348868
1.3348783
1.3348698
1.3348613
1.3348528
1.3348443
1.3348357
1.3348272
1.3348186
1.33481
1.3348013
1.3347927
1.334784
1.3347754
1.3347667
1.334758
1.3347492
1.3347405
1.3347317
1.3347229
1.3347141
1.3347053
1.3346965
1.3346876
1.3346787
1.3346698
1.3346609
1.3346519
1.334643
1.334634
1.3346249
1.3346159
1.3346068
1.3345978
1.3345886
1.3345795
1.3345704
1.3345612
1.334552
1.3345427
1.3345335
1.3345242
1.3345148
1.3345055
1.3344961
1.3344867
1.3344773
1.3344678
1.3344583
1.3344488
1.3344392
1.3344296
1.33442
1.3344103
1.3344006
1.3343908
1.334381
1.3343712
1.3343614
1.3343515
1.3343415
1.3343315
1.3343215
1.3343114
1.3343013
1.3342912
1.334281
1.3342707
1.3342604
1.3342501
1.3342397
1.3342293
1.3342188
1.3342082
1.3341976
1.334187
1.3341762
1.3341655
1.3341547
1.3341438
1.3341328
1.3341218
1.3341108
1.3340997
1.3340885
1.3340772
1.3340659
1.3340545
1.3340431
1.3340315
1.33402
1.3340083
1.3339966
1.3339848
1.3339729
1.3339609
1.3339489
1.3339368
1.3339246
1.3339123
1.3339
1.3338876
1.3338751
1.3338625
1.3338498
1.333837
1.3338242
1.3338113
1.3337982
1.3337851
1.3337719
1.3337586
1.3337452
1.3337317
1.3337181
1.3337045
1.3336907
1.3336768
1.3336629
1.3336488
1.3336346
1.3336203
1.333606
1.3335915
1.3335769
1.3335622
1.3335474
1.3335325
1.3335175
1.3335024
1.3334872
1.3334719
1.3334564
1.3334409
1.3334252
1.3334095
1.3333936
1.3333776
1.3333615
1.3333453
1.3333289
1.3333125
1.3332959
1.3332792
1.3332625
1.3332455
1.3332285
1.3332114
1.3331941
1.3331767
1.3331593
1.3331416
1.3331239
1.3331061
1.3330881
1.3330701
1.3330519
1.3330336
1.3330151
1.3329966
1.3329779
1.3329592
1.3329403
1.3329213
1.3329022
1.332883
1.3328636
1.3328442
1.3328247
1.332805
1.3327852
1.3327653
1.3327453
1.3327252
1.332705
1.3326847
1.3326643
1.3326438
1.3326231
1.3326024
1.3325816
1.3325606
1.3325396
1.3325185
1.3324973
1.3324759
1.3324545
1.332433
1.3324115
1.3323898
1.332368
1.3323462
1.3323242
1.3323022
1.3322801
1.332258
1.3322357
1.3322134
1.332191
1.3321686
1.332146
1.3321234
1.3321008
1.332078
1.3320552
1.3320324
1.3320095
1.3319865
1.3319635
1.3319405
1.3319174
1.3318942
1.331871
1.3318478
1.3318245
1.3318012
1.3317779
1.3317546
1.3317312
1.3317078
1.3316843
1.3316609
1.3316374
1.3316139
1.3315905
1.3315669
1.3315434
1.3315199
1.3314964
1.3314729
1.3314494
1.3314259
1.3314024
1.3313789
1.3313555
1.331332
1.3313086
1.3312852
1.3312618
1.3312385
1.3312152
1.3311919
1.3311687
1.3311455
1.3311223
1.3310992
1.3310762
1.3310532
1.3310303
1.3310074
1.3309845
1.3309618
1.3309391
1.3309164
1.3308939
1.3308714
1.330849
1.3308267
1.3308044
1.3307822
1.3307602
1.3307382
1.3307163
1.3306945
1.3306728
1.3306512
1.3306297
1.3306083
1.330587
1.3305658
1.3305447
1.3305237
1.3305029
1.3304822
1.3304615
1.330441
1.3304207
1.3304004
1.3303803
1.3303603
1.3303404
1.3303207
1.3303011
1.3302817
1.3302623
1.3302431
1.3302241
1.3302052
1.3301865
1.3301678
1.3301494
1.3301311
1.3301129
1.3300949
1.330077
1.3300593
1.3300418
1.3300244
1.3300072
1.3299901
1.3299731
1.3299564
1.3299397
1.3299233
1.329907
1.3298909
1.3298749
1.3298591
1.3298434
1.3298279
1.3298126
1.3297974
1.3297824
1.3297676
1.329753
1.3297384
1.3297241
1.3297099
1.3296959
1.3296821
1.3296684
1.3296549
1.3296415
1.3296283
1.3296153
1.3296024
1.3295897
1.3295772
1.3295648
1.3295526
1.3295405
1.3295286
1.3295169
1.3295053
1.3294939
1.3294826
1.3294715
1.3294606
1.3294498
1.3294391
1.3294286
1.3294183
1.3294082
1.3293981
1.3293883
1.3293786
1.329369
1.3293596
1.3293504
1.3293413
1.3293323
1.3293236
1.3293149
1.3293065
1.3292982
1.3292901
1.3292821
1.3292743
1.3292666
1.3292591
1.3292518
1.3292447
1.3292377
1.3292309
1.3292242
1.3292177
1.3292114
1.3292052
1.3291992
1.3291933
1.3291875
1.3291819
1.3291765
1.3291711
1.3291659
1.3291608
1.3291558
1.329151
1.3291462
1.3291415
1.329137
1.3291325
1.329128
1.3291236
1.3291192
1.3291149
1.3291105
1.3291061
1.3291017
1.3290974
1.329093
1.3290886
1.3290843
1.32908
1.3290757
1.3290714
1.3290672
1.3290631
1.329059
1.3290549
1.329051
1.3290471
1.3290433
1.3290397
1.3290361
1.3290326
1.3290293
1.3290266
1.3290235
1.3290205
1.3290177
1.329016
1.3290147
1.3290121
1.3290091
1.3290054
1.3290003
1.3289934
1.3289826
1.328963
1.3289227
1.3288318
1.3286168
1.3280966
1.3270028
1.3255102
1.3236475
1.3214232
1.3188589
1.3159887
1.3128582
1.3095212
1.306037
1.3024673
1.2988734
1.2953132
1.2918396
1.2884983
1.2853273
1.2823562
1.279606
1.2770896
1.2748129
1.272775
1.2709694
1.2693857
1.2680101
1.2668265
1.2658172
1.2649643
1.26425
1.2636571
1.2631688
1.26277
1.2624471
1.2621881
1.2619821
1.2618195
1.2616919
1.2615927
1.2615165
1.2614588
1.2614159
1.2613842
1.2613609
1.2613438
1.2613314
1.2613225
1.2613163
1.2613124
1.2613102
1.2613092
1.2613089
1.2613091
1.2613102
1.2613117
1.2613131
1.2613146
1.261316
1.2613175
1.2613189
1.2613204
1.2613219
1.2613234
1.261325
1.2613266
1.2613282
1.2613299
1.2613316
1.2613334
1.2613352
1.2613371
1.261339
1.2613409
1.2613428
1.2613448
1.2613468
1.2613488
1.2613508
1.2613527
1.2613547
1.2613566
1.2613584
1.2613602
1.261362
1.2613637
1.2613653
1.2613669
1.2613685
1.2613699
1.2613713
1.2613727
1.261374
1.2613752
1.2613764
1.2613776
1.2613787
1.2613797
1.2613807
1.2613817
1.2613827
1.2613836
1.2613845
1.2613853
1.2613862
1.261387
1.2613878
1.2613885
1.2613893
1.26139
1.2613907
1.2613914
1.2613921
1.2613928
1.2613935
1.2613941
1.2613948
1.2613954
1.2613961
1.2613967
1.2613973
1.2613979
1.2613985
1.2613991
1.2613997
1.2614003
1.2614009
1.2614015
1.261402
1.2614026
1.2614032
1.2614037
1.2614043
1.2614048
1.2614054
1.2614059
1.2614064
1.261407
1.2614075
1.261408
1.2614086
1.2614091
1.2614096
1.2614101
1.2614106
1.2614111
1.2614116
1.2614121
1.2614126
1.2614131
1.2614136
1.2614141
1.2614146
1.2614151
1.2614156
1.261416
1.2614165
1.261417
1.2614175
1.2614179