/*--------------------------------*- C++ -*----------------------------------*\
  =========                 |
  \\      /  F ield         | OpenFOAM: The Open Source CFD Toolbox
   \\    /   O peration     | Website:  https://openfoam.org
    \\  /    A nd           | Version:  7
     \\/     M anipulation  |
\*---------------------------------------------------------------------------*/
FoamFile
{
    version     2.0;
    format      ascii;
    class       volVectorField;
    location    "0.001";
    object      U;
}
// * * * * * * * * * * * * * * * * * * * * * * * * * * * * * * * * * * * * * //

dimensions      [0 1 -1 0 0 0 0];

internalField   nonuniform List<vector> 
5000
(
(1.993435e-12 6.7552933e-29 0)
(2.0792201e-12 2.8526635e-42 0)
(2.0324445e-12 0 0)
(1.9713666e-12 0 0)
(2.2459803e-12 -2.026588e-28 0)
(2.3137912e-12 2.8799547e-43 -2.533235e-28)
(2.3109289e-12 -5.06647e-29 1.079983e-43)
(2.7747406e-12 0 -9.119646e-28)
(2.9972121e-12 0 -6.586411e-28)
(2.6169279e-12 6.079764e-28 1.2159528e-27)
(2.4729084e-12 6.079764e-28 6.079764e-28)
(2.697698e-12 -2.026588e-28 -2.026588e-28)
(2.2121635e-12 -2.026588e-28 1.7279728e-42)
(2.5571842e-12 5.06647e-28 4.4639299e-42)
(2.4970881e-12 0 -1.4186116e-27)
(1.866457e-12 3.039882e-28 6.079764e-28)
(1.8718716e-12 2.3418399e-55 1.1709199e-55)
(1.8526811e-12 2.533235e-28 -2.2319649e-42)
(2.4124855e-12 0 2.026588e-28)
(2.2794204e-12 -2.533235e-28 -5.06647e-28)
(2.5225159e-12 5.06647e-29 -5.06647e-29)
(2.4737074e-12 2.533235e-28 0)
(2.3330411e-12 1.013294e-28 0)
(2.2564835e-12 -1.519941e-28 -1.519941e-28)
(2.3287801e-12 2.533235e-28 -2.1599661e-42)
(2.0512993e-12 -1.8408134e-55 -1.8408134e-55)
(2.262456e-12 1.519941e-28 -1.519941e-28)
(2.4573518e-12 -3.039882e-28 -3.039882e-28)
(2.5432304e-12 7.093058e-28 -3.546529e-28)
(2.7850387e-12 -4.391931e-42 2.533235e-28)
(2.2370328e-12 3.5423443e-42 -3.5423443e-42)
(2.4288113e-12 -5.06647e-29 4.3199321e-43)
(2.6026106e-12 -3.039882e-28 1.519941e-28)
(2.536757e-12 1.013294e-28 -5.06647e-29)
(2.7438322e-12 8.783862e-43 5.06647e-29)
(3.0739913e-12 8.8126615e-42 0)
(3.0191553e-12 5.2703172e-42 0)
(2.9322605e-12 1.013294e-28 -5.06647e-29)
(3.2019049e-12 -1.013294e-28 -5.06647e-29)
(3.1738251e-12 5.06647e-28 -2.533235e-28)
(3.0939234e-12 -2.026588e-28 1.6991733e-42)
(2.9744375e-12 -1.7423726e-41 -2.533235e-28)
(3.0530541e-12 -6.079764e-28 3.039882e-28)
(2.9949926e-12 2.533235e-28 -4.2839327e-42)
(2.5942698e-12 9.119646e-28 -3.039882e-28)
(3.2405506e-12 5.06647e-29 -5.06647e-29)
(3.2644751e-12 3.546529e-28 1.2196608e-41)
(3.2185569e-12 2.0822073e-41 -1.0411036e-41)
(3.8238757e-12 4.053176e-28 6.9694905e-42)
(3.2839918e-12 0 -4.3199321e-42)
(3.5846206e-12 -4.053176e-28 -4.053176e-28)
(3.4010004e-12 -1.4399774e-44 0)
(3.2320129e-12 -1.013294e-28 0)
(3.4953872e-12 -3.039882e-28 0)
(3.4747463e-12 1.7711722e-42 0)
(3.6046667e-12 2.026588e-28 0)
(3.4121117e-12 -1.519941e-28 0)
(3.5475364e-12 -8.7478626e-42 0)
(3.5552864e-12 -2.533235e-28 0)
(3.518725e-12 0 0)
(4.1452719e-12 -4.053176e-28 0)
(4.0218223e-12 -6.9118914e-42 0)
(3.7094654e-12 -4.3199321e-44 0)
(3.9327317e-12 -2.533235e-28 2.533235e-28)
(3.8290187e-12 5.06647e-29 5.06647e-29)
(4.2876051e-12 -3.5423443e-42 -1.013294e-28)
(4.1408193e-12 -5.06647e-29 8.7118631e-43)
(3.3894351e-12 -5.06647e-29 -4.8788331e-57)
(3.6239678e-12 -3.039882e-28 3.039882e-28)
(3.6777372e-12 5.06647e-28 0)
(3.0890166e-12 4.053176e-28 0)
(3.3364763e-12 -4.559823e-28 -4.559823e-28)
(3.2204952e-12 -4.053176e-28 -4.053176e-28)
(3.4323946e-12 -5.1992115e-42 0)
(3.6472022e-12 -4.559823e-28 -4.559823e-28)
(3.664047e-12 3.039882e-28 -1.0497435e-41)
(3.1649484e-12 0 2.533235e-28)
(3.4560262e-12 -6.586411e-28 6.586411e-28)
(3.5800177e-12 8.6398642e-44 -6.079764e-28)
(3.3449702e-12 1.013294e-28 -2.026588e-28)
(3.3055812e-12 2.533235e-28 -5.06647e-28)
(3.4352563e-12 -4.3199321e-44 8.6398642e-44)
(3.3906088e-12 4.3199321e-44 4.559823e-28)
(3.3177722e-12 5.06647e-29 -1.013294e-28)
(3.3444329e-12 -5.06647e-29 5.2703172e-42)
(3.3248002e-12 -1.7639723e-42 -1.013294e-28)
(3.6537414e-12 5.06647e-29 1.519941e-28)
(3.8085266e-12 0 -1.013294e-28)
(3.8670708e-12 1.013294e-28 -1.013294e-28)
(3.5683698e-12 -3.1535505e-41 -3.039882e-28)
(3.5025658e-12 -1.0627033e-41 3.039882e-28)
(3.2991405e-12 -1.013294e-28 -1.013294e-28)
(3.1190044e-12 -1.013294e-28 -3.5279446e-42)
(3.1137335e-12 -1.013294e-28 -1.013294e-28)
(3.2330928e-12 -3.3739196e-55 -3.3739196e-55)
(3.3275409e-12 -1.013294e-28 1.013294e-28)
(3.2458224e-12 0 1.013294e-28)
(2.8001902e-12 0 1.7783721e-42)
(2.9417876e-12 -2.026588e-28 1.4111778e-41)
(2.6533253e-12 -4.2162538e-41 1.2159528e-27)
(2.832114e-12 9.119646e-28 4.559823e-28)
(3.0475429e-12 -3.546529e-28 -3.546529e-28)
(3.3160465e-12 -1.013294e-28 7.1998869e-45)
(3.1182996e-12 0 -5.06647e-29)
(3.0009245e-12 1.013294e-28 0)
(3.260849e-12 -5.06647e-29 5.06647e-29)
(3.1397647e-12 -3.546529e-28 -1.2347806e-41)
(3.0558529e-12 -4.559823e-28 4.559823e-28)
(3.027148e-12 0 -3.039882e-28)
(3.1492831e-12 0 -4.559823e-28)
(3.5102255e-12 2.533235e-28 5.06647e-28)
(3.9981037e-12 -2.026588e-28 -2.026588e-28)
(3.7024279e-12 0 1.2159528e-27)
(3.3756843e-12 1.519941e-28 1.519941e-28)
(2.9023287e-12 1.0627033e-41 9.119646e-28)
(3.2446872e-12 4.559823e-28 -4.559823e-28)
(3.192058e-12 -5.06647e-28 -5.06647e-28)
(3.3774909e-12 1.1519819e-43 -2.3039638e-43)
(3.5020077e-12 -3.5423443e-42 -1.013294e-28)
(3.4815313e-12 -6.0888468e-84 7.3126842e-42)
(3.7110033e-12 -6.079764e-28 2.1254066e-41)
(3.7233145e-12 2.1599661e-43 1.013294e-27)
(3.725256e-12 4.053176e-28 -8.106352e-28)
(3.4740543e-12 0 -1.013294e-28)
(3.2967169e-12 5.06647e-29 5.06647e-29)
(3.4760099e-12 -4.559823e-28 -4.559823e-28)
(3.1395894e-12 -2.533235e-28 2.533235e-28)
(3.1279006e-12 -6.079764e-28 -6.079764e-28)
(3.1065114e-12 -4.053176e-28 4.053176e-28)
(3.684816e-12 3.039882e-28 5.2487175e-42)
(3.7333247e-12 -2.533235e-28 -2.533235e-28)
(3.4730522e-12 2.533235e-28 -5.06647e-28)
(3.5245454e-12 1.519941e-28 1.519941e-28)
(3.620553e-12 1.519941e-28 1.519941e-28)
(3.5284546e-12 0 -4.053176e-28)
(2.9779975e-12 7.093058e-28 -2.4695612e-41)
(3.3393383e-12 4.559823e-28 -1.5810952e-41)
(3.3502475e-12 -2.026588e-28 7.0558891e-42)
(3.4324284e-12 5.2703172e-42 -3.039882e-28)
(3.4382656e-12 -4.053176e-28 -4.053176e-28)
(3.2272971e-12 -5.06647e-29 -5.06647e-29)
(3.1703298e-12 -3.546529e-28 -7.093058e-28)
(3.1893271e-12 0 1.013294e-28)
(3.2684569e-12 -1.013294e-28 1.013294e-28)
(3.4602377e-12 -2.026588e-28 -1.4054179e-41)
(3.6825681e-12 3.546529e-28 -7.093058e-28)
(3.4323499e-12 2.026588e-28 -5.7599095e-44)
(3.3798706e-12 -2.5919593e-43 1.2959796e-43)
(3.8421008e-12 -5.06647e-29 3.0736649e-55)
(3.5148382e-12 -1.519941e-28 -1.519941e-28)
(3.4867776e-12 3.546529e-28 2.4594814e-41)
(3.8495995e-12 -2.4695612e-41 -4.9391224e-41)
(3.7265769e-12 -2.4375614e-42 -2.4375614e-42)
(3.5074598e-12 -2.026588e-28 -2.026588e-28)
(3.152406e-12 2.533235e-28 2.533235e-28)
(3.2520937e-12 2.026588e-28 7.0270896e-42)
(3.3754264e-12 -1.519941e-28 -1.519941e-28)
(3.2141568e-12 0 -2.3306508e-42)
(3.2179572e-12 0 6.4798982e-44)
(3.2416838e-12 4.559823e-28 4.559823e-28)
(3.179362e-12 5.06647e-29 0)
(2.9012613e-12 -1.013294e-28 -1.013294e-28)
(2.7366679e-12 -5.06647e-29 -3.5063449e-42)
(3.196802e-12 2.026588e-28 4.053176e-28)
(3.5022523e-12 2.4594814e-41 -3.546529e-28)
(3.2021452e-12 -2.533235e-28 7.1998869e-44)
(3.4657573e-12 3.039882e-28 3.039882e-28)
(3.1183415e-12 2.026588e-28 -2.026588e-28)
(2.6013181e-12 0 2.533235e-28)
(2.6546521e-12 -3.039882e-28 -3.039882e-28)
(2.8310211e-12 1.519941e-28 -6.3330205e-41)
(2.69369e-12 0 -7.0270896e-41)
(3.0277745e-12 -5.06647e-29 5.06647e-29)
(2.741112e-12 -1.0370327e-42 -2.0740654e-42)
(2.8798987e-12 0 0)
(3.3013767e-12 5.06647e-29 -3.5135448e-42)
(3.1179577e-12 1.0540634e-41 -1.0540634e-41)
(3.1673913e-12 -1.519941e-28 1.519941e-28)
(2.9968665e-12 -1.519941e-28 -1.519941e-28)
(3.0187937e-12 -1.013294e-28 -6.9838903e-42)
(3.3539151e-12 -1.1984907e-41 -1.1984907e-41)
(3.36876e-12 6.99829e-42 -1.013294e-28)
(3.374269e-12 1.7423726e-41 1.7423726e-41)
(3.4911912e-12 -6.4798982e-44 -6.4798982e-44)
(3.3498198e-12 -4.053176e-28 -5.6159118e-41)
(3.4836094e-12 -5.06647e-29 -1.013294e-28)
(3.5920471e-12 -2.1081269e-41 1.519941e-28)
(3.4817163e-12 2.4393217e-41 3.546529e-28)
(3.8725434e-12 -1.3044973e-54 -1.3044973e-54)
(3.8463349e-12 -5.06647e-29 -3.4919451e-42)
(3.4357809e-12 0 -9.2534014e-54)
(3.6170683e-12 0 -1.399658e-41)
(3.3972103e-12 2.533235e-28 2.533235e-28)
(2.9625376e-12 1.519941e-28 0)
(2.4367432e-12 0 0)
(2.5793167e-12 0 0)
(3.030049e-12 4.053176e-28 0)
(3.0234952e-12 1.4636499e-56 -5.06647e-29)
(3.2362195e-12 2.533235e-28 -5.281117e-41)
(3.0014585e-12 0 -2.533235e-28)
(2.6720517e-12 -7.4892019e-42 -7.4892019e-42)
(2.6980747e-12 -1.519941e-28 -1.519941e-28)
(2.9941488e-12 -9.8278456e-41 -3.546529e-28)
(2.7745494e-12 9.119646e-28 9.119646e-28)
(2.6424286e-12 -2.533235e-28 1.7531725e-41)
(3.0988224e-12 -1.0519035e-41 -1.0519035e-41)
(3.2460309e-12 -1.4399774e-44 -1.013294e-28)
(2.6903156e-12 -3.546529e-28 -3.546529e-28)
(2.9173897e-12 5.06647e-29 5.06647e-29)
(3.2886337e-12 5.7599095e-44 0)
(2.8442567e-12 -7.0126898e-42 5.06647e-29)
(2.6184361e-12 2.1038069e-41 2.1038069e-41)
(3.0355158e-12 -5.06647e-29 -5.06647e-29)
(3.0666977e-12 0 5.06647e-29)
(3.0038781e-12 -1.013294e-28 -1.4111778e-41)
(3.0424269e-12 3.5063449e-42 5.06647e-29)
(3.0696029e-12 2.8122758e-41 -2.026588e-28)
(3.2112293e-12 -2.533235e-28 -2.533235e-28)
(3.3925733e-12 0 -1.519941e-28)
(3.4944798e-12 2.026588e-28 2.026588e-28)
(3.651601e-12 3.039882e-28 -3.039882e-28)
(3.2241357e-12 0 0)
(3.4361932e-12 0 0)
(3.2548599e-12 0 0)
(3.0055544e-12 3.546529e-28 3.546529e-28)
(3.7114468e-12 -3.5063449e-42 5.06647e-29)
(3.3069734e-12 2.4024684e-42 4.8049367e-42)
(3.4888349e-12 0 -1.013294e-28)
(3.5275565e-12 0 1.0562234e-41)
(3.9523277e-12 -2.026588e-28 -2.026588e-28)
(4.0970723e-12 -4.559823e-28 -4.559823e-28)
(3.8065031e-12 2.026588e-28 4.053176e-28)
(3.8801672e-12 2.533235e-28 -7.1998869e-44)
(3.4978303e-12 0 8.6398642e-44)
(3.7083252e-12 -1.013294e-28 -1.013294e-28)
(3.9439273e-12 -1.013294e-28 -1.013294e-28)
(4.0055106e-12 4.053176e-28 8.106352e-28)
(3.5501498e-12 4.559823e-28 -6.4798982e-44)
(3.3590502e-12 0 1.0555034e-41)
(3.7511098e-12 -2.533235e-28 -2.533235e-28)
(3.4223001e-12 7.0342895e-41 1.4068579e-40)
(3.4416019e-12 3.5135448e-42 7.0270896e-42)
(3.6675574e-12 -1.013294e-28 -1.013294e-28)
(3.4295176e-12 -1.013294e-28 -1.013294e-28)
(3.2148436e-12 -2.533235e-28 0)
(3.5703898e-12 0 1.1553057e-41)
(3.9903597e-12 -4.053176e-28 -4.053176e-28)
(3.9035297e-12 4.9290426e-41 -3.546529e-28)
(3.5331308e-12 -5.06647e-29 5.06647e-29)
(3.721723e-12 -2.1081269e-41 0)
(3.9385339e-12 6.079764e-28 3.039882e-28)
(3.7978034e-12 -5.573117e-28 -5.573117e-28)
(4.4356269e-12 1.0540634e-40 -7.599705e-28)
(4.3918954e-12 5.2767971e-41 5.2767971e-41)
(3.8049011e-12 -2.1038069e-41 -6.079764e-28)
(4.2458666e-12 -1.2942895e-41 -2.588579e-41)
(4.2542875e-12 -1.013294e-28 -3.039882e-28)
(4.44105e-12 -5.06647e-29 -1.013294e-28)
(4.5333011e-12 0 0)
(4.6171205e-12 1.013294e-28 2.026588e-28)
(4.7378714e-12 1.519941e-28 1.519941e-28)
(4.831123e-12 0 -1.519941e-28)
(4.5439914e-12 1.013294e-28 1.013294e-28)
(4.3038755e-12 4.8683713e-41 4.8683713e-41)
(4.4560029e-12 -1.013294e-28 -1.013294e-28)
(4.4737269e-12 -1.013294e-28 -2.026588e-28)
(4.6722017e-12 -1.013294e-28 -1.013294e-28)
(4.5778429e-12 -3.546529e-28 -7.093058e-28)
(4.9623785e-12 -1.4054179e-40 -1.4054179e-40)
(4.6411218e-12 3.039882e-28 6.079764e-28)
(5.1120707e-12 -4.559823e-28 -4.559823e-28)
(5.3499025e-12 4.9189627e-41 9.8379254e-41)
(5.099996e-12 7.093058e-28 7.093058e-28)
(4.9529128e-12 -3.039882e-28 -6.079764e-28)
(5.1560673e-12 2.4645213e-41 3.546529e-28)
(6.1194528e-12 -7.0558891e-41 -1.4111778e-40)
(5.9614629e-12 3.1679502e-43 -1.1146234e-27)
(6.3417536e-12 7.698119e-41 1.1146234e-27)
(7.0398893e-12 -1.3679469e-27 -1.3679469e-27)
(7.2568023e-12 0 2.9385526e-27)
(7.7240812e-12 0 -7.1872151e-40)
(8.111892e-12 2.026588e-27 -4.053176e-27)
(8.7813115e-12 2.0772527e-27 4.1545054e-27)
(8.9828555e-12 0 1.5427918e-40)
(9.4922331e-12 0 -2.3812409e-27)
(1.0317542e-11 0 0)
(1.1019621e-11 0 0)
(1.2330989e-11 -3.0905467e-27 -3.0905467e-27)
(1.2787016e-11 -2.3745227e-40 3.4451996e-27)
(1.4184571e-11 7.7010344e-27 7.7010344e-27)
(1.5275183e-11 -1.8791705e-42 -4.4078289e-27)
(1.6549415e-11 -4.8638112e-27 1.3823783e-42)
(1.8432359e-11 -5.3704582e-27 -5.3704582e-27)
(1.9440264e-11 8.01909e-40 -5.7757758e-27)
(2.111418e-11 8.213271e-40 5.9277699e-27)
(2.308633e-11 9.2878541e-43 0)
(2.4753424e-11 7.2957168e-27 7.2957168e-27)
(2.7179115e-11 8.0556873e-27 8.0556873e-27)
(2.9426038e-11 8.8663225e-27 0)
(3.1952175e-11 -1.9049927e-26 -1.9049927e-26)
(3.4699731e-11 -3.1462779e-26 -1.0487593e-26)
(3.7817474e-11 1.1450222e-26 2.2900444e-26)
(4.185028e-11 2.5636338e-26 -8.8710526e-40)
(4.5757696e-11 0 4.0031371e-42)
(5.0101301e-11 -1.5503398e-26 -1.5503398e-26)
(5.4932477e-11 -1.7225998e-26 -1.7225998e-26)
(6.0033993e-11 1.8745939e-26 1.8745939e-26)
(6.5604415e-11 -5.7743093e-42 -2.0316545e-26)
(7.118781e-11 9.3310534e-42 2.188715e-26)
(7.7795862e-11 -6.8542923e-42 -1.3708585e-41)
(8.5291016e-11 -2.6598967e-26 -5.3197935e-26)
(9.3385457e-11 -2.8828214e-26 2.8828214e-26)
(1.0203465e-10 3.1462779e-26 3.1462779e-26)
(1.1167549e-10 6.8701333e-26 3.4350666e-26)
(1.2248676e-10 -3.7745201e-26 5.2351817e-39)
(1.3402643e-10 1.6588033e-55 -4.1545054e-26)
(1.4701386e-10 -4.5091583e-26 0)
(1.6090075e-10 -1.3618586e-38 0)
(1.7593109e-10 1.0690252e-25 5.3451258e-26)
(1.9254286e-10 0 -8.1386729e-39)
(2.1145691e-10 0 1.7970442e-38)
(2.3112828e-10 -1.4186116e-25 9.8580851e-39)
(2.5270839e-10 4.296544e-38 -7.7364997e-26)
(2.7637831e-10 1.682068e-25 8.4103402e-26)
(3.0236078e-10 0 -1.3017395e-41)
(3.3073626e-10 -1.0021478e-25 -1.0021478e-25)
(3.6199811e-10 -1.0973974e-25 0)
(3.9534011e-10 1.1977135e-25 0)
(4.318311e-10 -1.8503709e-41 0)
(4.7183299e-10 1.9703045e-38 0)
(5.1589376e-10 -2.2038854e-41 0)
(5.6377763e-10 -1.6947342e-25 0)
(6.1572978e-10 1.8477416e-25 0)
(6.726696e-10 2.017975e-25 2.017975e-25)
(7.35471e-10 0 0)
(8.0340341e-10 -2.4055599e-25 -2.4055599e-25)
(8.7664498e-10 3.6402448e-38 0)
(9.5734914e-10 2.8559691e-25 2.8559691e-25)
(1.0444754e-09 -6.224665e-25 8.6334823e-38)
(1.1399638e-09 9.4036513e-38 -3.3899751e-25)
(1.2445875e-09 3.6924433e-25 0)
(1.358102e-09 1.1170452e-37 0)
(1.4818981e-09 8.7579e-25 4.37895e-25)
(1.6169581e-09 -9.5350965e-25 6.6192664e-38)
(1.7633894e-09 -5.1931317e-25 -5.1931317e-25)
(1.9226484e-09 5.6526606e-25 0)
(2.0963105e-09 8.7435426e-41 0)
(2.2851296e-09 6.6998999e-25 6.6998999e-25)
(2.4907058e-09 0 7.2911569e-25)
(2.7152015e-09 0 -7.9310521e-25)
(2.9583308e-09 -8.6261718e-25 -8.6261718e-25)
(3.223009e-09 1.3016278e-37 0)
(3.51145e-09 2.0411794e-24 1.0205897e-24)
(3.8241458e-09 -1.5767752e-40 -1.5767752e-40)
(4.1643891e-09 -3.6192835e-24 -1.2064278e-24)
(4.5352434e-09 1.3112531e-24 1.3112531e-24)
(4.9370037e-09 1.4249447e-24 1.4249447e-24)
(5.373926e-09 -3.0968291e-24 -1.5484146e-24)
(5.8495771e-09 1.6821187e-24 -1.6821187e-24)
(6.3645059e-09 -1.8269184e-24 0)
(6.9246624e-09 -3.9681606e-24 1.9840803e-24)
(7.5336458e-09 2.1546177e-24 2.1546177e-24)
(8.1942716e-09 2.3395438e-24 -2.3395438e-24)
(8.912043e-09 2.5397707e-24 -2.5397707e-24)
(9.6908008e-09 -2.7563623e-24 0)
(1.0535394e-08 2.3515976e-53 2.9910412e-24)
(1.1452386e-08 3.24553e-24 3.24553e-24)
(1.2447854e-08 -3.5213486e-24 -3.5213486e-24)
(1.3527116e-08 3.819561e-24 -3.819561e-24)
(1.4697364e-08 -4.1422445e-24 0)
(1.5966412e-08 -1.2447107e-36 0)
(1.7343435e-08 -1.3841639e-39 0)
(1.8835104e-08 -5.2793124e-24 0)
(2.0451782e-08 1.1443028e-23 0)
(2.2204667e-08 -6.1997886e-24 0)
(2.4103605e-08 -1.8652966e-36 0)
(2.6161531e-08 2.0187001e-36 0)
(2.8390559e-08 7.8826166e-24 7.8826166e-24)
(3.0804357e-08 1.7073598e-23 -5.2332316e-52)
(3.3417883e-08 -2.7729347e-23 -9.2431158e-24)
(3.6247524e-08 -2.7756582e-36 0)
(3.9310794e-08 6.0088924e-36 0)
(4.2627226e-08 -3.2482995e-36 0)
(4.6215343e-08 2.536822e-23 1.268411e-23)
(5.009737e-08 -2.7446284e-23 1.9033715e-36)
(5.429748e-08 4.1179026e-36 -1.4844858e-23)
(5.8840134e-08 3.211078e-23 1.605539e-23)
(6.3753524e-08 0 -2.4105455e-36)
(6.9065253e-08 0 2.6676013e-39)
(7.4808332e-08 -2.029253e-23 2.8174158e-36)
(8.1016578e-08 3.0421465e-36 -2.193361e-23)
(8.772554e-08 2.3703226e-23 2.3703226e-23)
(9.497507e-08 2.5610955e-23 -2.5610955e-23)
(1.0280792e-07 -2.7667891e-23 1.5373509e-35)
(1.1126904e-07 -8.9657367e-23 2.9885789e-23)
(1.2040692e-07 3.2275491e-23 -3.2275491e-23)
(1.3027498e-07 3.4850068e-23 0)
(1.4092936e-07 1.0693502e-38 0)
(1.5243065e-07 4.0612925e-23 4.0612925e-23)
(1.6484482e-07 0 6.0855749e-36)
(1.7824247e-07 -9.4595352e-23 -4.7297676e-23)
(1.9269689e-07 -1.0205826e-22 5.1029131e-23)
(2.082914e-07 5.504598e-23 5.504598e-23)
(2.2511159e-07 1.187382e-22 0)
(2.4324999e-07 6.4021232e-23 -6.4021232e-23)
(2.6280949e-07 -1.3805381e-22 -6.9026904e-23)
(2.8389717e-07 -1.4882279e-22 7.4411397e-23)
(3.0662717e-07 1.6040454e-22 2.2259177e-35)
(3.3112208e-07 1.7285823e-22 1.2426973e-51)
(3.5751727e-07 0 1.292939e-35)
(3.8595523e-07 -2.0064315e-22 -1.0032158e-22)
(4.1658784e-07 1.0805661e-22 1.0805661e-22)
(4.4957936e-07 2.3273813e-22 -6.633886e-51)
(4.851065e-07 -1.2529973e-22 1.7396621e-35)
(5.2335589e-07 -1.3489309e-22 1.3489309e-22)
(5.6453055e-07 2.0633745e-38 0)
(6.0884578e-07 -2.1695395e-35 0)
(6.5653411e-07 -1.6814165e-22 -1.6814165e-22)
(7.0784353e-07 1.8089385e-22 -2.5706563e-38)
(7.630388e-07 1.9457986e-22 8.0963477e-35)
(8.2240544e-07 -2.0926669e-22 -2.0926669e-22)
(8.8624715e-07 3.1210453e-35 0)
(9.5489068e-07 3.4380043e-38 0)
(1.0286835e-06 3.6069348e-35 2.6005684e-22)
(1.1079974e-06 2.7949633e-22 -7.7491412e-35)
(1.1932326e-06 -3.0033842e-22 -3.0033842e-22)
(1.2848174e-06 1.3440282e-34 0)
(1.3832054e-06 4.8125436e-35 0)
(1.4888844e-06 1.0332283e-34 0)
(1.6023759e-06 3.9977326e-22 3.9977326e-22)
(1.7242362e-06 -4.2922009e-22 -6.0995843e-38)
(1.8550617e-06 6.3971594e-35 -4.607575e-22)
(1.9954874e-06 1.3710957e-34 4.9452734e-22)
(2.1461901e-06 7.541438e-38 -5.3068152e-22)
(2.3078963e-06 1.1387636e-21 1.5826783e-34)
(2.4813788e-06 6.1079959e-22 1.2215992e-21)
(2.6674641e-06 -6.5511747e-22 -6.5511747e-22)
(2.8670336e-06 -1.4050607e-21 -2.9261805e-34)
(3.0810266e-06 1.0458063e-34 -1.0458063e-34)
(3.3104468e-06 1.6149655e-21 1.1211094e-34)
(3.5563639e-06 8.6547619e-22 8.6547619e-22)
(3.8199178e-06 -1.8549502e-21 0)
(4.1023263e-06 -9.9374412e-22 0)
(4.404886e-06 1.0645642e-21 -1.0645642e-21)
(4.728977e-06 1.1402341e-21 -1.5831016e-34)
(5.0760726e-06 3.3889354e-34 3.3889354e-34)
(5.4477408e-06 -1.3074118e-21 4.293866e-51)
(5.8456528e-06 0 1.3996153e-21)
(6.2715887e-06 0 -1.4980614e-21)
(6.727442e-06 -1.6031534e-21 -1.6031534e-21)
(7.2152284e-06 0 0)
(7.7370946e-06 1.8350117e-21 1.8350117e-21)
(8.2953242e-06 -1.9627145e-21 2.7250338e-34)
(8.8923469e-06 -2.9827702e-37 -2.0989379e-21)
(9.5307469e-06 6.2285729e-34 0)
(1.0213272e-05 0 0)
(1.0942846e-05 2.5643133e-21 2.5643133e-21)
(1.1722575e-05 -2.7403706e-21 -7.7886018e-37)
(1.2555759e-05 -2.928001e-21 9.3211524e-51)
(1.3445906e-05 6.2558573e-21 3.1279287e-21)
(1.4396744e-05 3.3409196e-21 -3.3409196e-21)
(1.5412234e-05 -3.5677846e-21 4.9433736e-34)
(1.6496579e-05 0 -5.2889488e-34)
(1.7654243e-05 0 1.1286423e-33)
(1.8889966e-05 4.3404662e-21 4.3404662e-21)
(2.0208778e-05 -1.286853e-33 -4.63193e-21)
(2.1616016e-05 -4.9420901e-21 1.3723201e-33)
(2.3117341e-05 0 -1.4647018e-33)
(2.4718762e-05 0 1.5622252e-33)
(2.6426649e-05 5.996446e-21 5.996446e-21)
(2.8247756e-05 -2.6639004e-33 -6.3934287e-21)
(3.0189238e-05 -6.8154774e-21 1.8925225e-33)
(3.2258689e-05 0 -1.0106113e-33)
(3.446415e-05 0 0)
(3.6814133e-05 0 8.2474267e-21)
(3.9317667e-05 0 -8.7855797e-21)
(4.1984305e-05 0 1.29915e-33)
(4.4824164e-05 0 -1.4159923e-36)
(4.7847953e-05 0 1.4729012e-33)
(5.1067005e-05 0 -1.5694876e-33)
(5.4493312e-05 -2.4037571e-20 -1.2018786e-20)
(5.8139564e-05 -7.0989891e-33 1.278922e-20)
(6.2019177e-05 1.3606586e-20 1.3606586e-20)
(6.6146342e-05 -1.4473573e-20 -1.4473573e-20)
(7.053606e-05 1.5393016e-20 -1.5393016e-20)
(7.5204189e-05 -1.6367903e-20 0)
(8.0167486e-05 4.8369617e-33 1.7401376e-20)
(8.5443656e-05 1.8496743e-20 1.8496743e-20)
(9.1051406e-05 5.4584928e-33 0)
(9.7010489e-05 2.0887268e-20 -2.0887268e-20)
(0.00010334176 0 3.0808527e-33)
(0.00011006724 0 -3.3494359e-36)
(0.00011721017 -2.5030378e-20 -3.4716619e-33)
(0.00012479508 -7.3798693e-33 2.6576875e-20)
(0.00013284784 2.8213757e-20 -2.8213757e-20)
(0.00014139573 0 -4.1534435e-33)
(0.00015046755 0 8.824309e-33)
(0.00016009363 0 3.3717378e-20)
(0.00017030596 0 3.576776e-20)
(0.00018113825 0 -7.5871676e-20)
(0.00019262602 0 5.7167305e-36)
(0.00020480669 0 -5.9155506e-33)
(0.00021771966 -9.0421664e-20 -4.5210832e-20)
(0.00023140642 3.9888621e-32 4.7915878e-20)
(0.00024591066 1.0154672e-19 -7.0493761e-33)
(0.00026127834 -5.3791269e-20 -5.3791269e-20)
(0.00027755786 -8.0970565e-36 0)
(0.00029480011 -6.0342231e-20 0)
(0.00031305862 3.5429281e-32 0)
(0.00033238969 1.3528119e-19 6.7640593e-20)
(0.0003528525 7.1594366e-20 7.1594366e-20)
(0.00037450926 -2.0616486e-49 -7.5765084e-20)
(0.00039742537 -2.4049128e-19 -8.016376e-20)
(0.00042166949 0 0)
(0.00044731379 1.7938319e-19 8.9691597e-20)
(0.00047443403 0 9.4845399e-20)
(0.00050310978 0 -1.0027648e-19)
(0.00053342455 -2.1199719e-19 -1.059986e-19)
(0.00056546596 3.1075582e-32 0)
(0.00059932599 3.5512205e-19 1.1837402e-19)
(0.0006351011 -1.2505799e-19 1.2505799e-19)
(0.00067289244 -1.3209436e-19 -1.3209436e-19)
(0.0007128061 1.3950019e-19 -3.8736427e-32)
(0.00075495325 -1.4729328e-19 1.4729328e-19)
(0.00079945045 1.5549217e-19 0)
(0.00084641978 4.5525167e-32 0)
(0.00089598917 -1.7318561e-19 0)
(0.00094829256 1.8272133e-19 0)
(0.0010034702 0 -1.9274529e-19)
(0.001061669 2.0328028e-19 5.6389114e-32)
(0.0011230425 -2.1435006e-19 2.1435006e-19)
(0.0011877516 -4.5195864e-19 -2.2597932e-19)
(0.0012559645 2.381938e-19 -3.3070839e-32)
(0.001327857 2.5102023e-19 3.4887334e-32)
(0.0014036131 2.6448647e-19 6.6411702e-49)
(0.0014834251 2.7862142e-19 -2.7862142e-19)
(0.0015674938 -5.8691035e-19 -2.9345518e-19)
(0.0016560293 -3.0901898e-19 6.1803797e-19)
(0.0017492509 3.2534531e-19 4.517096e-32)
(0.0018473875 0 -4.7499591e-32)
(0.0019506783 -3.604217e-19 3.604217e-19)
(0.002059373 3.7924312e-19 0)
(0.0021737319 3.9896983e-19 -3.9896983e-19)
(0.0022940269 -1.2589229e-18 -4.1964096e-19)
(0.0024205416 -1.2542417e-34 4.4129707e-19)
(0.0025535714 9.2796045e-19 1.287062e-31)
(0.0026934245 -4.8773401e-19 -4.8773401e-19)
(0.0028404224 -7.1169909e-32 0)
(0.0029948996 -5.3863575e-19 0)
(0.003157205 1.6083246e-34 5.6587893e-19)
(0.0033277017 1.1887665e-18 -8.2439735e-32)
(0.003506768 -6.2420066e-19 -6.2420066e-19)
(0.0036947976 0 0)
(0.0038922003 1.9104146e-31 6.8799119e-19)
(0.0040994024 1.0261335e-34 -1.0261335e-34)
(0.0043168474 7.5770231e-19 2.1039885e-31)
(0.0045449966 -7.9492766e-19 1.1025483e-31)
(0.0047843295 2.3153428e-31 -8.3381662e-19)
(0.0050353445 1.2128228e-31 8.7443458e-19)
(0.0052985597 1.3029208e-34 -1.3029208e-34)
(0.005574513 9.6112954e-19 2.6688655e-31)
(0.0058637634 -1.007348e-18 1.007348e-18)
(0.0061668912 2.3715187e-48 -1.0555785e-18)
(0.0064844989 3.0708571e-31 -3.0708571e-31)
(0.0068172115 1.6461618e-34 -1.6461618e-34)
(0.0071656778 2.4262349e-18 1.6842929e-31)
(0.0075305707 1.7617179e-31 1.2701832e-18)
(0.0079125878 -1.3296665e-18 -1.3296665e-18)
(0.0083124525 0 0)
(0.0087309145 0 8.085319e-31)
(0.0091687505 1.5235188e-18 2.1130892e-31)
(0.0096267653 6.6307976e-31 6.6307976e-31)
(0.010105792 -1.6665314e-18 2.3682836e-34)
(0.010606694 1.7424676e-18 1.7424676e-18)
(0.011130364 -2.5289648e-31 -1.8214952e-18)
(0.011677725 1.6148855e-47 1.6148855e-47)
(0.012249734 2.7618831e-31 2.7618831e-31)
(0.01284738 -2.0782105e-18 -5.7707769e-31)
(0.013471684 -2.170702e-18 3.0138037e-31)
(0.014123703 -3.1440719e-31 -4.5336966e-18)
(0.014804528 2.3667707e-18 2.3667707e-18)
(0.015515288 0 2.4705935e-18)
(0.016257147 0 3.5799127e-31)
(0.017031307 -2.6904519e-18 -3.7354247e-31)
(0.01783901 2.8067508e-18 -5.6135016e-18)
(0.018681536 -2.437042e-30 2.9274767e-18)
(0.019560206 -3.0527689e-18 3.0527689e-18)
(0.020476383 3.1827694e-18 6.374021e-48)
(0.021431472 0 0)
(0.02242692 -3.4574797e-18 6.8556182e-48)
(0.02346422 -3.6024889e-18 3.6024889e-18)
(0.024544908 3.7528055e-18 -3.7528055e-18)
(0.025670566 3.9085869e-18 7.6335294e-48)
(0.026842823 0 5.6449971e-31)
(0.028063357 -4.2371882e-18 6.0214066e-34)
(0.029333892 -4.4103377e-18 4.4103377e-18)
(0.030656203 9.1792222e-18 -9.1792222e-18)
(0.032032114 4.7751805e-18 -1.3259726e-30)
(0.0334635 -4.9672209e-18 4.9672209e-18)
(0.03495229 -5.1659102e-18 -7.1650112e-31)
(0.036500463 -7.4500616e-31 7.4500616e-31)
(0.038110052 -5.583961e-18 -5.583961e-18)
(0.039783146 -1.6115698e-30 5.8036921e-18)
(0.041521887 1.2061622e-17 -4.4456905e-47)
(0.043328474 0 2.6106014e-30)
(0.045205163 0 -1.8080618e-30)
(0.047154265 0 1.8757192e-30)
(0.049178153 -7.0170332e-18 1.9484905e-30)
(0.051279254 -7.2840131e-18 1.305663e-47)
(0.05346006 0 0)
(0.055723117 7.8438978e-18 -7.8438978e-18)
(0.058071037 1.1274587e-30 0)
(0.06050649 -8.4397288e-18 0)
(0.063032208 0 8.7516491e-18)
(0.065650988 0 2.5194441e-30)
(0.068365686 9.4045641e-18 -9.4045641e-18)
(0.071179225 1.3517487e-30 0)
(0.074094589 -1.3990929e-30 0)
(0.077114828 1.0459864e-17 2.0919728e-17)
(0.080243054 -1.0832752e-17 9.0179611e-30)
(0.083482447 4.6671442e-30 -2.2433134e-17)
(0.086836249 1.1611531e-17 1.1611531e-17)
(0.090307769 0 -1.7078415e-33)
(0.093900381 1.2435795e-17 1.7265864e-30)
(0.097617524 1.7862524e-30 1.2865541e-17)
(0.1014627 -1.3307327e-17 0)
(0.10543949 1.3761376e-17 0)
(0.10955152 -1.422791e-17 0)
(0.11380249 -1.4707153e-17 1.4707153e-17)
(0.11819617 1.5199326e-17 4.2162306e-30)
(0.1227364 0 -1.5704651e-17)
(0.12742707 -1.6223347e-17 0)
(0.13227213 -1.6755633e-17 0)
(0.13727563 1.7301727e-17 1.7301727e-17)
(0.14244163 1.7861844e-17 -2.5383207e-33)
(0.14777431 0 -1.84362e-17)
(0.15327787 1.9025006e-17 0)
(0.1589566 -1.9628472e-17 0)
(0.16481482 -2.0246805e-17 2.0246805e-17)
(0.17085694 2.0880211e-17 5.7920846e-30)
(0.17708742 4.3057782e-17 5.981204e-30)
(0.18351077 -1.2325133e-29 -6.1625666e-30)
(0.19013158 -6.8618593e-17 -2.2872864e-17)
(0.19695448 3.3859203e-47 2.3568545e-17)
(0.20398415 2.4280274e-17 -6.7386985e-30)
(0.21122534 5.0016469e-17 6.9407352e-30)
(0.21868284 -1.4287334e-29 -7.1436671e-30)
(0.22636151 -5.302713e-17 -2.6513565e-17)
(0.23426625 2.7291281e-17 0)
(0.242402 -2.8085918e-17 0)
(0.25077377 2.8897639e-17 2.8897639e-17)
(0.25938659 2.9726596e-17 -1.0074112e-45)
(0.26824557 -6.1145879e-17 -3.0572939e-17)
(0.27735582 0 0)
(0.28672253 0 0)
(0.2963509 6.6435376e-17 3.3217688e-17)
(0.3062462 -3.5642637e-46 -7.1285274e-46)
(0.3164137 -7.0140486e-17 -3.5070243e-17)
(0.32685872 0 0)
(0.33758662 0 0)
(0.34860278 7.5970872e-17 3.7985436e-17)
(0.35991261 -3.9155225e-46 -7.8310451e-46)
(0.37152154 -8.0041848e-17 -4.0020924e-17)
(0.38343504 0 0)
(0.39565856 0 0)
(0.40819762 8.6427456e-17 4.3213728e-17)
(0.42105773 4.4315449e-17 -6.297604e-33)
(0.4342444 -9.0871938e-17 -4.5435969e-17)
(0.44776318 -4.6575319e-17 4.6575319e-17)
(0.4616196 0 -1.3261432e-29)
(0.47581922 9.7821177e-17 1.3588448e-29)
(0.49036759 -2.7827169e-29 -1.3913585e-29)
(0.50527025 -1.0264265e-16 -5.1321323e-17)
(0.52053276 5.255497e-17 0)
(0.53616067 0 0)
(0.5521595 -5.5078702e-17 0)
(0.56853478 5.636871e-17 0)
(0.58529203 -8.1964533e-33 0)
(0.60243674 -5.9004746e-17 5.9004746e-17)
(0.61997438 6.0350638e-17 -1.6749595e-29)
(0.6379104 -6.1715006e-17 -6.1715006e-17)
(0.65625024 -6.3097759e-17 0)
(0.67499929 6.4498794e-17 0)
(0.69416292 6.5917999e-17 0)
(0.71374648 -1.8703213e-29 0)
(0.73375524 -6.8810424e-17 0)
(0.75419449 7.028337e-17 0)
(0.77506942 1.9930195e-29 0)
(0.79638522 -7.3281976e-17 7.3281976e-17)
(0.818147 7.4807303e-17 -4.1523738e-29)
(0.84035984 -7.6349744e-17 -7.6349744e-17)
(0.86302876 -7.7909107e-17 0)
(0.88615871 7.9485194e-17 0)
(0.90975461 8.1077796e-17 0)
(0.93382129 -2.296045e-29 0)
(0.95836352 -8.4311665e-17 0)
(0.98338602 8.5952468e-17 0)
(1.0088934 -1.2449968e-32 0)
(1.0348903 -8.928059e-17 8.928059e-17)
(1.0613811 9.0967391e-17 -2.5246907e-29)
(1.0883703 -9.2668996e-17 -9.2668996e-17)
(1.1158623 -9.4385124e-17 0)
(1.1438611 9.6115488e-17 0)
(1.1723711 1.9571959e-16 9.7859794e-17)
(1.2013963 -5.535204e-29 -2.767602e-29)
(1.2309407 -2.0277802e-16 -1.0138901e-16)
(1.2610082 1.031733e-16 0)
(1.2916025 -1.4917172e-32 0)
(1.3227275 -2.1355918e-16 0)
(1.3543867 -3.0866242e-32 1.0860093e-16)
(1.3865836 1.1043395e-16 3.0681003e-29)
(1.4193216 0 -1.1227828e-16)
(1.4526041 -1.1413358e-16 0)
(1.4864342 0 0)
(1.520815 1.1787561e-16 0)
(1.5557496 0 0)
(1.5912407 0 0)
(1.6272913 0 0)
(1.6639038 1.2547494e-16 0)
(1.7010809 -9.2072771e-47 1.2739655e-16)
(1.7388249 -1.2932608e-16 -1.8378341e-32)
(1.7771383 0 -1.3126314e-16)
(1.8160231 -1.3320731e-16 0)
(1.8554815 3.7530745e-29 0)
(1.8955153 1.3711541e-16 0)
(1.9361265 0 0)
(1.9773168 0 0)
(2.0190877 0 0)
(2.0614407 1.4499903e-16 0)
(2.1043772 -4.0813854e-29 1.4698156e-16)
(2.1478983 -1.4896789e-16 2.1169611e-32)
(2.1920053 0 -1.5095762e-16)
(2.236699 -1.529503e-16 0)
(2.2819803 -4.3003272e-29 0)
(2.32785 1.5694288e-16 0)
(2.3743086 0 1.5894192e-16)
(2.4213566 -1.6094223e-16 -8.935804e-29)
(2.4689945 1.6294339e-16 -1.6294339e-16)
(2.5172224 -9.1650758e-29 0)
(2.5660404 -1.6694657e-16 1.6694657e-16)
(2.6154485 1.6894775e-16 4.6937436e-29)
(2.6654467 0 -1.7094808e-16)
(2.7160346 1.7294717e-16 0)
(2.7672118 4.857863e-29 0)
(2.8189779 -1.7693992e-16 1.7693992e-16)
(2.8713323 0 1.7893275e-16)
(2.9242741 -1.8092268e-16 -1.8092268e-16)
(2.9778025 1.829093e-16 -1.829093e-16)
(3.0319166 1.0268177e-28 0)
(3.0866153 -1.8687097e-16 0)
(3.1418972 1.0485029e-28 0)
(3.1977612 2.7116381e-32 0)
(3.2542057 -5.3558177e-29 -1.927786e-16)
(3.3112292 2.7673783e-32 2.7673783e-32)
(3.3688299 1.9668919e-16 3.9337838e-16)
(3.4270062 0 1.9863497e-16)
(3.4857561 -2.0057391e-16 -4.0114783e-16)
(3.5450776 5.6203008e-29 -4.0501127e-16)
(3.6049685 5.6737028e-29 2.0442977e-16)
(3.6654267 9.0331081e-47 2.0634595e-16)