/*--------------------------------*- C++ -*----------------------------------*\
| =========                 |                                                 |
| \\      /  F ield         | OpenFOAM: The Open Source CFD Toolbox           |
|  \\    /   O peration     | Version:  4.x                                   |
|   \\  /    A nd           | Web:      www.OpenFOAM.org                      |
|    \\/     M anipulation  |                                                 |
\*---------------------------------------------------------------------------*/
FoamFile
{
    version     2.0;
    format      ascii;
    class       volScalarField;
    location    "0.0005";
    object      T;
}
// * * * * * * * * * * * * * * * * * * * * * * * * * * * * * * * * * * * * * //

dimensions      [0 0 0 1 0 0 0];

internalField   nonuniform List<scalar> 
23120
(
293
293
293
293
293
293
293
293
293
293
293
293
293
293
293
293
293
293
293
293
293
293
293
293
293
293
293
293
293
293
293
293
293
293
293
293
293
293
293
293
293
293
293
293
293
293
293
293
293
293
293
293
293
293
293
293
293
293
293
293
293
293
293
293
293
293
293
293
293
293
293
293
293
293
293
293
293
293
293
293
293
293
293
293
293
293
293
293
293
293
293
293
293
293
293
293
293
293
293
293
293
293
293
293
293
293
293
293
293
293
293
293
293
293
293
293
293
293
293
293
293
293
293
293
293
293
293
293
293
293
293
293
293
293
293
293
293
293
293
293
293
293
293
293
293
293
293
293
293
293
293
293
293
293
293
293
293
293
293
293
293
293
293
293
293
293
293
293
293
293
293
293
293
293
293
293
293
293
293
293
293
293
293
293
293
293
293
293
293
293
293
293
293
293
293
293
293
293
293
293
293
293
293
293
293
293
293
293
293
293
293
293
293
293
293
293
293
293
293
293
293
293
293
293
293
293
293
293
293
293
293
293
293
293
293
293
293
293
293
293
293
293
293
293
293
293
293
293
293
293
293
293
293
293
293
293
293
293
293
293
293
293
293
293
293
293
293
293
293
293
293
293
293
293
293
293
293
293
293
293
293
293
293
293
293
293
293
293
293
293
293
293
293
293
293
293
293
293
293
293
293
293
293
293
293
293
293
293
293
293
293
293
293
293
293
293
293.001
293.001
293.001
293.001
293
293
293
293
293
293
293
293
293
293
293
293
293
293
293
293
293
293
293
293
293
293
293
293
293.001
293.001
293.001
293.002
293.002
293.003
293.004
293.004
293
293
293
293
293
293
293
293
293
293
293
293
293
293
293
293
293
293
293
293
293
293.001
293.001
293.001
293.002
293.003
293.005
293.006
293.008
293.01
293.012
293.015
293
293
293
293
293
293
293
293
293
293
293
293
293
293
293
293
293
293
293
293.001
293.001
293.002
293.003
293.005
293.008
293.011
293.016
293.02
293.026
293.032
293.038
293.044
293
293
293
293
293
293
293
293
293
293
293
293
293
293
293
293
293
293
293.001
293.002
293.004
293.007
293.011
293.018
293.026
293.035
293.047
293.06
293.075
293.09
293.105
293.119
293
293
293
293
293
293
293
293
293
293
293
293
293
293
293
293
293.001
293.002
293.003
293.007
293.013
293.022
293.034
293.051
293.073
293.098
293.126
293.157
293.189
293.22
293.251
293.278
293
293
293
293
293
293
293
293
293
293
293
293
293
293
293
293.001
293.002
293.005
293.01
293.02
293.036
293.06
293.092
293.134
293.183
293.239
293.298
293.358
293.418
293.473
293.522
293.562
293
293
293
293
293
293
293
293
293
293
293
293
293
293
293.001
293.003
293.006
293.014
293.029
293.054
293.094
293.149
293.222
293.309
293.407
293.511
293.614
293.712
293.799
293.873
293.932
293.972
293
293
293
293
293
293
293
293
293
293
293
293
293
293.001
293.003
293.007
293.016
293.036
293.071
293.13
293.216
293.331
293.471
293.629
293.793
293.951
294.093
294.212
294.303
294.367
294.404
294.416
293
293
293
293
293
293
293
293
293
293
293
293
293.001
293.003
293.007
293.017
293.039
293.082
293.16
293.279
293.445
293.65
293.882
294.119
294.338
294.522
294.661
294.751
294.795
294.798
294.771
294.721
293
293
293
293
293
293
293
293
293
293
293
293.001
293.002
293.006
293.015
293.037
293.084
293.172
293.321
293.537
293.814
294.128
294.444
294.725
294.943
295.085
295.148
295.136
295.081
294.983
294.859
294.727
293
293
293
293
293
293
293
293
293
293
293
293.001
293.004
293.012
293.031
293.075
293.164
293.328
293.583
293.924
294.322
294.721
295.064
295.31
295.442
295.448
295.374
295.235
295.048
294.84
294.628
294.429
293
293
293
293
293
293
293
293
293
293
293.001
293.003
293.008
293.023
293.059
293.138
293.295
293.566
293.953
294.425
294.909
295.322
295.602
295.72
295.673
295.532
295.297
295.02
294.73
294.449
294.191
293.968
293
293
293
293
293
293
293
293
293
293
293.002
293.005
293.015
293.041
293.103
293.235
293.487
293.888
294.413
294.979
295.477
295.813
295.938
295.86
295.656
295.337
294.976
294.614
294.278
293.983
293.736
293.537
293
293
293
293
293
293
293
293
293
293.001
293.003
293.009
293.026
293.068
293.167
293.37
293.741
294.279
294.912
295.509
295.935
296.113
296.034
295.796
295.412
294.98
294.555
294.174
293.853
293.596
293.402
293.256
293
293
293
293
293
293
293
293
293
293.001
293.004
293.014
293.04
293.106
293.253
293.546
294.045
294.703
295.395
295.947
296.235
296.207
295.975
295.558
295.067
294.583
294.157
293.81
293.545
293.354
293.224
293.134
293
293
293
293
293
293
293
293
293.001
293.002
293.007
293.021
293.06
293.154
293.359
293.756
294.377
295.123
295.814
296.265
296.364
296.178
295.785
295.249
294.71
294.231
293.848
293.565
293.371
293.245
293.17
293.117
293
293
293
293
293
293
293
293
293.001
293.003
293.01
293.03
293.084
293.212
293.484
293.989
294.712
295.505
296.145
296.455
296.377
296.065
295.527
294.939
294.398
293.961
293.643
293.432
293.303
293.229
293.188
293.154
293
293
293
293
293
293
293
293
293.001
293.004
293.014
293.041
293.112
293.279
293.623
294.23
295.032
295.832
296.385
296.535
296.331
295.888
295.267
294.664
294.155
293.777
293.529
293.384
293.307
293.269
293.245
293.22
293
293
293
293
293
293
293
293
293.002
293.006
293.018
293.053
293.144
293.352
293.769
294.465
295.32
296.096
296.549
296.544
296.245
295.686
295.031
294.439
293.979
293.666
293.485
293.394
293.359
293.345
293.329
293.305
293
293
293
293
293
293
293
293.001
293.002
293.007
293.023
293.067
293.178
293.428
293.916
294.685
295.569
296.3
296.64
296.519
296.134
295.491
294.829
294.267
293.862
293.614
293.49
293.449
293.445
293.444
293.432
293.408
293
293
293
293
293
293
293
293.001
293.003
293.009
293.028
293.082
293.214
293.504
294.058
294.883
295.778
296.454
296.681
296.479
296.009
295.319
294.663
294.141
293.793
293.605
293.535
293.534
293.553
293.566
293.555
293.532
293
293
293
293
293
293
293
293.001
293.003
293.011
293.034
293.096
293.249
293.578
294.19
295.057
295.95
296.568
296.689
296.429
295.885
295.173
294.533
294.054
293.761
293.626
293.608
293.639
293.682
293.708
293.7
293.678
293
293
293
293
293
293
293
293.001
293.004
293.013
293.039
293.111
293.283
293.647
294.308
295.206
296.087
296.648
296.682
296.373
295.771
295.05
294.433
293.997
293.756
293.672
293.697
293.755
293.824
293.872
293.868
293.847
293
293
293
293
293
293
293
293.001
293.004
293.014
293.044
293.124
293.314
293.71
294.412
295.33
296.196
296.702
296.667
296.318
295.67
294.95
294.358
293.964
293.767
293.735
293.793
293.884
293.978
294.043
294.063
294.042
293
293
293
293
293
293
293
293.001
293.005
293.016
293.049
293.137
293.343
293.766
294.5
295.433
296.281
296.738
296.647
296.265
295.584
294.87
294.303
293.947
293.789
293.804
293.89
294.017
294.138
294.226
294.272
294.263
293
293
293
293
293
293
293
293.001
293.005
293.018
293.054
293.148
293.368
293.814
294.574
295.516
296.347
296.761
296.629
296.215
295.512
294.805
294.262
293.941
293.817
293.871
293.985
294.146
294.297
294.415
294.492
294.509
293
293
293
293
293
293
293
293.002
293.006
293.019
293.058
293.158
293.389
293.855
294.634
295.583
296.398
296.774
296.612
296.171
295.453
294.754
294.232
293.936
293.851
293.93
294.075
294.265
294.449
294.602
294.72
294.765
293
293
293
293
293
293
293
293.002
293.006
293.02
293.061
293.166
293.407
293.888
294.682
295.635
296.437
296.782
296.596
296.131
295.403
294.711
294.208
293.93
293.884
293.981
294.152
294.368
294.584
294.78
294.948
295.041
293
293
293
293
293
293
293
293.002
293.006
293.021
293.063
293.172
293.421
293.914
294.719
295.675
296.465
296.785
296.581
296.098
295.362
294.676
294.188
293.928
293.907
294.019
294.211
294.448
294.693
294.934
295.163
295.337
293
293
293
293
293
293
293
293.002
293.007
293.022
293.065
293.177
293.431
293.933
294.748
295.705
296.486
296.785
296.568
296.07
295.327
294.647
294.171
293.925
293.922
294.044
294.248
294.497
294.763
295.04
295.324
295.626
293
293
293
293
293
293
293
293.001
293.001
293.001
293.001
293.001
293.001
293.001
293.001
293.001
293.001
293.001
293.001
293.001
293.001
293.001
293.001
293.001
293.001
293.001
293.001
293.001
293.001
293.001
293.001
293.001
293.001
293.001
293.001
293.002
293.002
293.002
293.002
293.002
293.002
293.002
293.002
293.002
293.002
293.003
293.003
293.003
293.003
293.003
293.003
293.003
293.003
293.003
293.003
293.003
293.003
293.004
293.004
293.004
293.004
293.004
293.004
293.004
293.005
293.005
293.005
293.006
293.006
293.006
293.007
293.007
293.007
293.008
293.008
293.008
293.009
293.009
293.009
293.009
293.01
293.01
293.01
293.01
293.01
293.011
293.011
293.011
293.011
293.011
293.011
293.011
293.012
293.012
293.012
293.012
293.016
293.017
293.018
293.019
293.02
293.02
293.021
293.022
293.023
293.024
293.024
293.025
293.026
293.027
293.027
293.028
293.028
293.029
293.029
293.03
293.03
293.031
293.031
293.031
293.032
293.032
293.032
293.032
293.032
293.032
293.032
293.032
293.048
293.05
293.052
293.054
293.056
293.058
293.06
293.062
293.064
293.065
293.067
293.068
293.07
293.071
293.072
293.073
293.074
293.075
293.076
293.077
293.078
293.078
293.079
293.079
293.079
293.079
293.079
293.079
293.079
293.079
293.078
293.077
293.127
293.131
293.135
293.138
293.142
293.146
293.149
293.152
293.155
293.158
293.161
293.163
293.165
293.167
293.169
293.171
293.172
293.173
293.174
293.175
293.175
293.176
293.176
293.176
293.175
293.175
293.174
293.173
293.171
293.17
293.168
293.166
293.291
293.297
293.303
293.309
293.314
293.319
293.324
293.328
293.332
293.336
293.339
293.342
293.344
293.346
293.347
293.349
293.349
293.349
293.349
293.349
293.348
293.346
293.344
293.342
293.34
293.337
293.333
293.33
293.326
293.321
293.317
293.311
293.58
293.587
293.593
293.598
293.603
293.608
293.611
293.615
293.617
293.619
293.62
293.62
293.62
293.619
293.618
293.616
293.613
293.609
293.605
293.601
293.595
293.59
293.583
293.576
293.569
293.561
293.553
293.544
293.535
293.526
293.516
293.505
293.985
293.988
293.989
293.989
293.989
293.988
293.986
293.983
293.979
293.975
293.969
293.962
293.955
293.947
293.938
293.928
293.918
293.906
293.895
293.882
293.869
293.855
293.841
293.827
293.812
293.796
293.78
293.764
293.747
293.73
293.713
293.696
294.41
294.401
294.391
294.38
294.368
294.355
294.341
294.325
294.309
294.292
294.275
294.256
294.237
294.217
294.196
294.175
294.153
294.131
294.108
294.085
294.062
294.038
294.014
293.99
293.965
293.941
293.916
293.892
293.867
293.842
293.818
293.794
294.679
294.653
294.627
294.6
294.571
294.542
294.511
294.48
294.449
294.416
294.384
294.351
294.318
294.284
294.251
294.217
294.184
294.15
294.117
294.084
294.051
294.018
293.986
293.954
293.923
293.891
293.861
293.83
293.801
293.771
293.743
293.716
294.639
294.597
294.555
294.512
294.47
294.427
294.383
294.34
294.297
294.254
294.211
294.169
294.127
294.086
294.045
294.005
293.965
293.926
293.888
293.851
293.814
293.778
293.743
293.708
293.674
293.641
293.609
293.577
293.547
293.517
293.488
293.461
294.319
294.269
294.218
294.167
294.116
294.065
294.015
293.966
293.917
293.87
293.823
293.777
293.732
293.689
293.646
293.605
293.565
293.526
293.488
293.452
293.416
293.382
293.349
293.317
293.286
293.256
293.228
293.2
293.173
293.148
293.123
293.1
293.851
293.798
293.747
293.696
293.646
293.597
293.549
293.503
293.458
293.414
293.371
293.33
293.29
293.252
293.215
293.179
293.145
293.112
293.08
293.05
293.021
292.993
292.967
292.941
292.917
292.894
292.871
292.85
292.83
292.811
292.792
292.774
293.436
293.391
293.346
293.302
293.26
293.22
293.181
293.143
293.107
293.071
293.038
293.005
292.974
292.944
292.915
292.887
292.861
292.836
292.811
292.788
292.767
292.746
292.726
292.707
292.689
292.671
292.655
292.639
292.624
292.61
292.596
292.582
293.183
293.148
293.113
293.08
293.048
293.017
292.987
292.959
292.932
292.906
292.881
292.857
292.834
292.811
292.79
292.769
292.749
292.73
292.711
292.694
292.677
292.66
292.645
292.63
292.616
292.603
292.59
292.577
292.566
292.555
292.544
292.532
293.083
293.057
293.031
293.005
292.981
292.958
292.937
292.916
292.895
292.875
292.856
292.837
292.819
292.801
292.783
292.766
292.75
292.733
292.718
292.702
292.687
292.673
292.659
292.646
292.633
292.62
292.608
292.597
292.586
292.576
292.566
292.556
293.08
293.058
293.037
293.016
292.995
292.975
292.956
292.937
292.919
292.901
292.883
292.865
292.847
292.83
292.813
292.795
292.779
292.762
292.746
292.73
292.714
292.699
292.685
292.671
292.657
292.644
292.631
292.62
292.608
292.598
292.588
292.578
293.12
293.099
293.077
293.056
293.035
293.015
292.995
292.975
292.955
292.935
292.916
292.896
292.876
292.856
292.836
292.816
292.796
292.777
292.757
292.739
292.72
292.702
292.684
292.668
292.652
292.636
292.622
292.608
292.595
292.583
292.572
292.562
293.184
293.161
293.137
293.113
293.089
293.065
293.04
293.016
292.992
292.967
292.942
292.918
292.893
292.868
292.843
292.818
292.794
292.77
292.746
292.723
292.7
292.678
292.657
292.637
292.617
292.598
292.581
292.564
292.549
292.535
292.522
292.51
293.263
293.236
293.208
293.179
293.15
293.121
293.091
293.061
293.03
292.999
292.968
292.936
292.905
292.873
292.842
292.811
292.78
292.75
292.72
292.69
292.662
292.634
292.607
292.582
292.557
292.534
292.513
292.492
292.474
292.456
292.441
292.427
293.359
293.328
293.295
293.261
293.226
293.19
293.153
293.116
293.078
293.039
293
292.961
292.921
292.882
292.843
292.804
292.765
292.727
292.689
292.652
292.617
292.582
292.549
292.517
292.487
292.458
292.431
292.406
292.383
292.363
292.344
292.327
293.477
293.441
293.402
293.362
293.32
293.278
293.233
293.188
293.142
293.095
293.048
293
292.951
292.902
292.854
292.805
292.757
292.71
292.663
292.617
292.572
292.529
292.488
292.448
292.41
292.375
292.342
292.311
292.283
292.257
292.235
292.215
293.616
293.576
293.533
293.486
293.438
293.388
293.336
293.283
293.228
293.172
293.115
293.057
292.998
292.939
292.879
292.819
292.761
292.702
292.644
292.588
292.532
292.478
292.426
292.376
292.329
292.285
292.243
292.205
292.17
292.139
292.111
292.087
293.779
293.737
293.687
293.635
293.58
293.522
293.462
293.4
293.335
293.269
293.202
293.133
293.063
292.992
292.921
292.849
292.777
292.705
292.634
292.564
292.495
292.428
292.363
292.301
292.241
292.185
292.132
292.084
292.04
292.001
291.967
291.937
293.967
293.921
293.865
293.806
293.744
293.678
293.609
293.537
293.463
293.386
293.308
293.227
293.145
293.061
292.976
292.891
292.804
292.717
292.63
292.545
292.46
292.377
292.295
292.216
292.141
292.069
292.003
291.941
291.885
291.835
291.792
291.754
294.175
294.126
294.063
293.996
293.925
293.851
293.772
293.69
293.606
293.518
293.428
293.335
293.24
293.143
293.044
292.944
292.842
292.739
292.635
292.531
292.428
292.325
292.223
292.124
292.027
291.935
291.848
291.768
291.694
291.629
291.573
291.525
294.4
294.343
294.274
294.199
294.12
294.035
293.946
293.854
293.758
293.659
293.557
293.453
293.345
293.235
293.123
293.007
292.89
292.77
292.647
292.523
292.397
292.271
292.146
292.022
291.899
291.781
291.667
291.56
291.461
291.373
291.298
291.233
294.653
294.582
294.502
294.416
294.324
294.228
294.127
294.023
293.915
293.805
293.692
293.576
293.457
293.336
293.211
293.083
292.952
292.817
292.678
292.536
292.39
292.24
292.088
291.934
291.779
291.624
291.471
291.325
291.187
291.063
290.956
290.867
294.941
294.841
294.744
294.641
294.533
294.421
294.306
294.188
294.068
293.946
293.822
293.696
293.568
293.438
293.305
293.168
293.027
292.882
292.73
292.571
292.406
292.233
292.051
291.862
291.667
291.468
291.267
291.066
290.871
290.687
290.526
290.388
295.278
295.145
295.006
294.874
294.747
294.619
294.489
294.358
294.225
294.092
293.959
293.824
293.688
293.551
293.412
293.271
293.126
292.978
292.823
292.659
292.487
292.303
292.105
291.893
291.664
291.413
291.147
290.861
290.572
290.279
290.028
289.82
295.751
295.527
295.308
295.032
294.81
294.629
294.468
294.317
294.169
294.029
293.892
293.761
293.628
293.5
293.365
293.236
293.105
292.97
292.845
292.698
292.549
292.398
292.219
291.997
291.799
291.47
291.307
290.812
290.449
289.892
289.338
288.648
293
293
293
293
293
293
293
293
293
293
293
293
293
293
293
293
293
293
293
293
293
293
293
293
293
293
293
293
293
293
293
293
293
293
293
293
293
293
293
293
293
293
293
293
293
293
293
293
293
293
293
293
293
293
293
293
293
293
293
293
293
293
293
293
293
293
293
293
293
293
293
293
293
293
293
293
293
293
293
293
293
293
293
293
293
293
293
293
293
293
293
293
293
293
293
293
293
293
293
293
293
293
293
293
293
293
293
293
293
293
293
293
293
293
293
293
293
293
293
293
293
293
293
293
293
293
293
293
293
293
293
293
293
293
293
293
293
293
293
293
293
293
293
293
293
293
293
293
293
293
293
293
293
293
293
293
293
293
293
293
293
293
293
293
293
293
293
293
293
293
293
293
293
293
293
293
293
293
293
293
293
293
293
293
293
293
293
293
293
293
293
293
293
293
293
293
293
293
293
293
293
293
293
293
293
293
293
293
293
293
293
293
293
293
293
293
293
293
293
293
293
293
293
293
293
293
293
293
293
293
293
293
293
293
293
293
293
293
293
293
293
293
293
293
293
293
293
293
293
293
293
293
293
293
293
293
293
293
293
293
293
293
293
293
293
293
293
293
293
293
293
293
293
293
293
293
293
293
293
293
293
293
293
293
293
293
293
293
293
293
293
293
293
293
293
293
293
293
293
293
293
293
293
293
293
293
293
293
293
293
293
293
293
293
293
293
293
293
293
293
293
293
293
293
293
293
293
293
293
293
293
293
293
293
293
293
293
293
293
293
293
293
293
293
293
293
293
293
293
293
293
293
293
293
293
293
293
293
293
293
293
293
293
293
293
293
293
293
293
293
293
293
293
293
293
293
293
293
293
293
293
293
293.001
293.002
293.004
293.008
293.016
293.032
293.059
293.106
293.177
293.278
293.406
293.549
293.689
293.811
293.902
293.962
293.996
294.01
294.008
294.005
294.005
294.007
294.011
294.012
293
293
293
293
293
293
293
293
293
293
293
293
293
293
293
293
293
293
293
293
293
293
293
293
293
293
293
293
293
293
293
293
293
293
293
293
293
293
293
293
293
293
293
293
293
293
293
293
293
293
293
293
293
293
293
293
293
293
293
293
293
293
293
293
293
293
293
293
293
293
293
293
293
293
293
293
293
293
293
293
293
293
293
293
293
293
293
293
293
293
293
293
293
293
293
293
293
293
293
293
293
293
293
293
293
293
293
293
293
293
293
293
293
293
293
293
293
293
293
293
293
293
293
293
293
293
293.001
293.002
293.004
293.008
293.017
293.032
293.06
293.106
293.178
293.279
293.407
293.549
293.69
293.811
293.902
293.962
293.995
294.009
294.008
294.006
294.006
294.009
294.014
294.023
293
293
293
293
293
293
293
293
293
293
293
293
293
293
293
293
293
293
293
293
293
293
293
293
293
293
293
293
293
293
293
293
293
293
293
293
293
293
293
293
293
293
293
293
293
293
293
293
293
293
293
293
293
293
293
293
293
293
293
293
293
293
293
293
293
293
293
293
293
293
293
293
293
293
293
293
293
293
293
293
293
293
293
293
293
293
293
293
293
293
293
293
293
293
293
293
293
293
293
293
293
293
293
293
293
293
293
293
293
293
293
293
293
293
293
293
293
293
293
293
293
293
293
293
293
293
293.001
293.002
293.004
293.008
293.017
293.033
293.061
293.107
293.179
293.28
293.408
293.551
293.691
293.813
293.904
293.963
293.996
294.01
294.009
294.007
294.008
294.01
294.016
294.031
293
293
293
293
293
293
293
293
293
293
293
293
293
293
293
293
293
293
293
293
293
293
293
293
293
293
293
293
293
293
293
293
293
293
293
293
293
293
293
293
293
293
293
293
293
293
293
293
293
293
293
293
293
293
293
293
293
293
293
293
293
293
293
293
293
293
293
293
293
293
293
293
293
293
293
293
293
293
293
293
293
293
293
293
293
293
293
293
293
293
293
293
293
293
293
293
293
293
293
293
293
293
293
293
293
293
293
293
293
293
293
293
293
293
293
293
293
293
293
293
293
293
293
293
293
293
293.001
293.002
293.004
293.008
293.017
293.033
293.061
293.108
293.18
293.281
293.409
293.552
293.693
293.814
293.906
293.965
293.998
294.011
294.011
294.009
294.009
294.012
294.018
294.034
293
293
293
293
293
293
293
293
293
293
293
293
293
293
293
293
293
293
293
293
293
293
293
293
293
293
293
293
293
293
293
293
293
293
293
293
293
293
293
293
293
293
293
293
293
293
293
293
293
293
293
293
293
293
293
293
293
293
293
293
293
293
293
293
293
293
293
293
293
293
293
293
293
293
293
293
293
293
293
293
293
293
293
293
293
293
293
293
293
293
293
293
293
293
293
293
293
293
293
293
293
293
293
293
293
293
293
293
293
293
293
293
293
293
293
293
293
293
293
293
293
293
293
293
293
293
293.001
293.002
293.004
293.008
293.017
293.033
293.061
293.108
293.18
293.281
293.409
293.553
293.695
293.817
293.908
293.968
294.001
294.014
294.013
294.011
294.011
294.013
294.018
294.034
293
293
293
293
293
293
293
293
293
293
293
293
293
293
293
293
293
293
293
293
293
293
293
293
293
293
293
293
293
293
293
293
293
293
293
293
293
293
293
293
293
293
293
293
293
293
293
293
293
293
293
293
293
293
293
293
293
293
293
293
293
293
293
293
293
293
293
293
293
293
293
293
293
293
293
293
293
293
293
293
293
293
293
293
293
293
293
293
293
293
293
293
293
293
293
293
293
293
293
293
293
293
293
293
293
293
293
293
293
293
293
293
293
293
293
293
293
293
293
293
293
293
293
293
293
293
293.001
293.002
293.004
293.008
293.017
293.033
293.061
293.108
293.18
293.281
293.41
293.554
293.697
293.819
293.911
293.971
294.004
294.017
294.016
294.014
294.013
294.014
294.018
294.033
293
293
293
293
293
293
293
293
293
293
293
293
293
293
293
293
293
293
293
293
293
293
293
293
293
293
293
293
293
293
293
293
293
293
293
293
293
293
293
293
293
293
293
293
293
293
293
293
293
293
293
293
293
293
293
293
293
293
293
293
293
293
293
293
293
293
293
293
293
293
293
293
293
293
293
293
293
293
293
293
293
293
293
293
293
293
293
293
293
293
293
293
293
293
293
293
293
293
293
293
293
293
293
293
293
293
293
293
293
293
293
293
293
293
293
293
293
293
293
293
293
293
293
293
293
293
293.001
293.002
293.004
293.008
293.017
293.032
293.06
293.107
293.179
293.281
293.411
293.556
293.699
293.823
293.915
293.975
294.007
294.02
294.02
294.017
294.014
294.014
294.018
294.032
293
293
293
293
293
293
293
293
293
293
293
293
293
293
293
293
293
293
293
293
293
293
293
293
293
293
293
293
293
293
293
293
293
293
293
293
293
293
293
293
293
293
293
293
293
293
293
293
293
293
293
293
293
293
293
293
293
293
293
293
293
293
293
293
293
293
293
293
293
293
293
293
293
293
293
293
293
293
293
293
293
293
293
293
293
293
293
293
293
293
293
293
293
293
293
293
293
293
293
293
293
293
293
293
293
293
293
293
293
293
293
293
293
293
293
293
293
293
293
293
293
293
293
293
293
293
293.001
293.002
293.004
293.008
293.016
293.032
293.059
293.106
293.178
293.281
293.411
293.557
293.702
293.826
293.919
293.979
294.012
294.025
294.024
294.02
294.016
294.015
294.017
294.031
293.001
293.001
293.001
293.001
293.001
293.001
293.001
293.001
293.001
293.001
293.001
293.001
293.001
293.001
293.001
293.001
293.001
293.001
293.001
293.001
293.001
293.001
293.001
293.001
293.001
293.001
293.001
293.001
293.001
293.001
293.001
293.001
293.001
293.001
293.001
293.001
293.001
293.001
293.001
293.001
293.001
293.001
293.001
293
293
293
293
293
293
293
293
293
293
293
293
293
293
293
293
293
293
293
293
293
293
293
293
293
293
293
293
293
293
293
293
293
293
293
293
293
293
293
293
293
293
293
293
293
293
293
293
293
293
293
293
293
293
293
293
293
293
293
293
293
293
293
293
293
293
293
293
293
293
293
293
293
293
293
293
293
293
293
293
293
293
293
293.001
293.002
293.004
293.008
293.016
293.031
293.058
293.104
293.177
293.28
293.411
293.559
293.705
293.831
293.926
293.987
294.021
294.033
294.029
294.023
294.017
294.014
294.016
294.028
293.004
293.004
293.004
293.004
293.004
293.004
293.004
293.004
293.004
293.004
293.004
293.004
293.004
293.004
293.004
293.004
293.004
293.004
293.004
293.004
293.004
293.004
293.003
293.003
293.003
293.003
293.003
293.003
293.003
293.003
293.003
293.003
293.003
293.003
293.002
293.002
293.002
293.002
293.002
293.002
293.002
293.002
293.002
293.001
293.001
293.001
293.001
293.001
293.001
293.001
293.001
293.001
293.001
293.001
293
293
293
293
293
293
293
293
293
293
293
293
293
293
293
293
293
293
293
293
293
293
293
293
293
293
293
293
293
293
293
293
293
293
293
293
293
293
293
293
293
293
293
293
293
293
293
293
293
293
293
293
293
293
293
293
293
293
293
293
293
293
293
293
293
293
293
293
293
293
293
293
293.001
293.002
293.004
293.007
293.015
293.03
293.057
293.103
293.175
293.279
293.412
293.561
293.709
293.837
293.934
293.996
294.031
294.041
294.034
294.025
294.017
294.013
294.015
294.026
293.012
293.012
293.012
293.012
293.012
293.012
293.012
293.012
293.012
293.012
293.012
293.012
293.011
293.011
293.011
293.011
293.011
293.011
293.011
293.011
293.011
293.01
293.01
293.01
293.01
293.01
293.009
293.009
293.009
293.009
293.008
293.008
293.008
293.007
293.007
293.007
293.007
293.006
293.006
293.006
293.005
293.005
293.005
293.004
293.004
293.004
293.003
293.003
293.003
293.002
293.002
293.002
293.002
293.001
293.001
293.001
293.001
293.001
293
293
293
293
293
293
293
293
293
293
293
293
293
293
293
293
293
293
293
293
293
293
293
293
293
293
293
293
293
293
293
293
293
293
293
293
293
293
293
293
293
293
293
293
293
293
293
293
293
293
293
293
293
293
293
293
293
293
293
293
293
293
293
293
293
293
293
293
293.001
293.002
293.004
293.007
293.015
293.03
293.057
293.103
293.175
293.279
293.412
293.563
293.712
293.841
293.938
294.001
294.037
294.046
294.038
294.027
294.017
294.012
294.014
294.024
293.032
293.032
293.032
293.032
293.032
293.032
293.032
293.032
293.031
293.031
293.031
293.031
293.031
293.03
293.03
293.03
293.03
293.029
293.029
293.028
293.028
293.027
293.027
293.026
293.026
293.025
293.024
293.024
293.023
293.022
293.021
293.021
293.02
293.019
293.018
293.017
293.017
293.016
293.015
293.014
293.013
293.012
293.011
293.01
293.01
293.009
293.008
293.007
293.006
293.006
293.005
293.004
293.004
293.003
293.002
293.002
293.001
293.001
293.001
293
293
293
292.999
292.999
292.999
292.999
292.999
292.999
292.999
292.999
292.999
292.999
292.999
292.999
292.999
292.999
292.999
292.999
292.999
292.999
292.999
292.999
292.999
293
293
293
293
293
293
293
293
293
293
293
293
293
293
293
293
293
293
293
293
293
293
293
293
293
293
293
293
293
293
293
293
293
293
293
293
293
293
293
293
293
293
293
293.001
293.002
293.004
293.007
293.015
293.03
293.057
293.103
293.175
293.279
293.412
293.563
293.713
293.842
293.94
294.003
294.039
294.048
294.04
294.028
294.018
294.012
294.013
294.023
293.077
293.077
293.077
293.077
293.076
293.076
293.076
293.075
293.075
293.074
293.074
293.073
293.073
293.072
293.071
293.07
293.069
293.068
293.067
293.066
293.065
293.063
293.062
293.06
293.059
293.057
293.056
293.054
293.052
293.05
293.049
293.047
293.045
293.043
293.041
293.039
293.037
293.035
293.033
293.031
293.028
293.026
293.024
293.022
293.02
293.018
293.017
293.015
293.013
293.011
293.009
293.008
293.006
293.005
293.004
293.002
293.001
293
292.999
292.998
292.998
292.997
292.997
292.996
292.996
292.996
292.995
292.995
292.995
292.995
292.995
292.996
292.996
292.996
292.996
292.996
292.997
292.997
292.997
292.998
292.998
292.998
292.998
292.999
292.999
292.999
292.999
292.999
292.999
293
293
293
293
293
293
293
293
293
293
293
293
293
293
293
293
293
293
293
293
293
293
293
293
293
293
293
293
293
293
293
293
293
293
293
293
293
293.001
293.002
293.004
293.008
293.015
293.03
293.057
293.103
293.176
293.28
293.413
293.563
293.713
293.842
293.939
294.002
294.037
294.047
294.039
294.027
294.017
294.011
294.012
294.021
293.165
293.164
293.164
293.163
293.162
293.161
293.16
293.158
293.157
293.156
293.154
293.152
293.15
293.148
293.146
293.144
293.142
293.139
293.136
293.134
293.131
293.128
293.125
293.121
293.118
293.114
293.111
293.107
293.103
293.099
293.095
293.091
293.087
293.083
293.078
293.074
293.07
293.065
293.061
293.057
293.053
293.048
293.044
293.04
293.036
293.032
293.028
293.024
293.02
293.017
293.014
293.01
293.007
293.005
293.002
292.999
292.997
292.995
292.993
292.992
292.99
292.989
292.988
292.987
292.987
292.986
292.986
292.986
292.986
292.986
292.987
292.987
292.988
292.989
292.989
292.99
292.991
292.992
292.992
292.993
292.994
292.995
292.995
292.996
292.997
292.997
292.998
292.998
292.998
292.999
292.999
292.999
292.999
293
293
293
293
293
293
293
293
293
293
293
293
293
293
293
293
293
293
293
293
293
293
293
293
293
293
293
293
293
293
293
293
293
293.001
293.002
293.004
293.008
293.016
293.031
293.058
293.104
293.177
293.281
293.413
293.563
293.712
293.84
293.936
293.999
294.033
294.042
294.035
294.024
294.014
294.008
294.009
294.018
293.308
293.306
293.304
293.302
293.299
293.296
293.293
293.29
293.286
293.283
293.279
293.275
293.27
293.266
293.261
293.256
293.251
293.245
293.24
293.234
293.228
293.222
293.215
293.209
293.202
293.195
293.188
293.181
293.173
293.166
293.158
293.15
293.143
293.135
293.127
293.119
293.111
293.103
293.095
293.087
293.079
293.072
293.064
293.056
293.049
293.042
293.035
293.028
293.022
293.016
293.01
293.004
292.999
292.994
292.989
292.985
292.981
292.977
292.974
292.972
292.969
292.967
292.966
292.965
292.964
292.964
292.964
292.964
292.965
292.965
292.967
292.968
292.97
292.971
292.973
292.975
292.977
292.979
292.981
292.983
292.985
292.987
292.988
292.99
292.991
292.993
292.994
292.995
292.996
292.997
292.997
292.998
292.998
292.999
292.999
292.999
292.999
293
293
293
293
293
293
293
293
293
293
293
293
293
293
293
293
293
293
293
293
293
293
293
293
293
293
293
293
293
293.001
293.002
293.004
293.008
293.016
293.031
293.059
293.105
293.178
293.282
293.414
293.563
293.71
293.837
293.932
293.993
294.025
294.034
294.028
294.018
294.009
294.003