/*--------------------------------*- C++ -*----------------------------------*\
  =========                 |
  \\      /  F ield         | OpenFOAM: The Open Source CFD Toolbox
   \\    /   O peration     | Website:  https://openfoam.org
    \\  /    A nd           | Version:  7
     \\/     M anipulation  |
\*---------------------------------------------------------------------------*/
FoamFile
{
    version     2.0;
    format      ascii;
    class       volVectorField;
    location    "0.00114";
    object      U;
}
// * * * * * * * * * * * * * * * * * * * * * * * * * * * * * * * * * * * * * //

dimensions      [0 1 -1 0 0 0 0];

internalField   nonuniform List<vector> 
5000
(
(5.4495033e-12 -1.1483999e-27 0)
(5.9125353e-12 -9.119646e-28 0)
(5.975283e-12 0 0)
(6.388806e-12 0 0)
(6.4078653e-12 1.3172822e-27 0)
(6.6217073e-12 -1.3823783e-42 1.2159528e-27)
(6.9109072e-12 -1.3679469e-27 2.9159542e-42)
(7.0461489e-12 0 -4.559823e-27)
(7.4511593e-12 0 -1.4692763e-27)
(8.2391235e-12 1.7225998e-27 3.4451996e-27)
(8.6792282e-12 4.1545054e-27 4.1545054e-27)
(9.0135411e-12 -2.2292468e-27 -2.2292468e-27)
(9.7327628e-12 -1.9252586e-27 1.6415742e-41)
(1.0442861e-11 1.6719351e-27 1.4730969e-41)
(1.1039905e-11 0 -4.4584936e-27)
(1.2125139e-11 2.7358938e-27 5.4717876e-27)
(1.3262294e-11 -6.2449064e-55 -3.1224532e-55)
(1.3754212e-11 -3.4451996e-27 3.0354723e-41)
(1.508068e-11 0 3.5971937e-27)
(1.6334909e-11 -3.7998525e-27 -7.599705e-27)
(1.7271652e-11 4.2558348e-27 -4.2558348e-27)
(1.8719662e-11 4.9144759e-27 0)
(2.0440892e-11 -1.0436928e-26 0)
(2.1240521e-11 5.5224523e-27 5.5224523e-27)
(2.3357252e-11 5.9277699e-27 -5.0543206e-41)
(2.5927377e-11 5.7627895e-41 5.7627895e-41)
(2.8073445e-11 -7.9036932e-27 7.9036932e-27)
(3.0349283e-11 -8.4103402e-27 -8.4103402e-27)
(3.2881182e-11 1.7732645e-26 -8.8663225e-27)
(3.5167425e-11 -1.6513661e-40 9.5249636e-27)
(3.8124164e-11 1.8685866e-40 -1.8685866e-40)
(4.1966719e-11 -1.1602216e-26 9.8926446e-41)
(4.5426217e-11 -2.4927032e-26 1.2463516e-26)
(4.8974632e-11 2.7156279e-26 -1.357814e-26)
(5.2978515e-11 -2.608807e-40 -1.5047416e-26)
(5.7762621e-11 1.4408702e-39 0)
(6.2271256e-11 6.236542e-40 0)
(6.7331956e-11 -3.8707831e-26 1.9353915e-26)
(7.3515858e-11 4.1443724e-26 2.0721862e-26)
(7.9876637e-11 4.5192912e-26 -2.2596456e-26)
(8.6915749e-11 -4.9144759e-26 4.1204953e-40)
(9.4243847e-11 1.8538845e-39 2.695362e-26)
(1.0217163e-10 5.9581687e-26 -2.9790843e-26)
(1.1156908e-10 -3.2526737e-26 5.5005696e-40)
(1.2102546e-10 -1.0624388e-25 3.5414625e-26)
(1.3193042e-10 3.8302513e-26 -3.8302513e-26)
(1.4370984e-10 4.1646383e-26 1.4322303e-39)
(1.5687973e-10 3.1198406e-39 -1.5599203e-39)
(1.7175959e-10 9.8390847e-26 1.6918438e-39)
(1.8637043e-10 0 -9.1323365e-40)
(2.0255193e-10 -5.8061746e-26 -5.8061746e-26)
(2.2047616e-10 -8.971059e-42 0)
(2.4005788e-10 6.9055986e-26 0)
(2.6065607e-10 -1.4966352e-25 0)
(2.8367183e-10 2.8427313e-39 0)
(3.0902862e-10 1.768198e-25 0)
(3.3639942e-10 -9.6060271e-26 0)
(3.6585058e-10 3.6076185e-39 0)
(3.9736453e-10 1.132356e-25 0)
(4.3219289e-10 0 0)
(4.7060497e-10 -1.340588e-25 0)
(5.117718e-10 -4.9592821e-39 0)
(5.5607193e-10 -4.4740097e-41 0)
(6.052156e-10 -1.7129735e-25 1.7129735e-25)
(6.5731799e-10 1.8614211e-25 1.8614211e-25)
(7.143271e-10 -7.0474941e-39 -2.0159484e-25)
(7.766451e-10 -2.1907416e-25 3.7670096e-39)
(8.4281245e-10 2.3761744e-25 -8.8794763e-55)
(9.1591647e-10 2.5737667e-25 -2.5737667e-25)
(9.9526511e-10 -2.7926383e-25 0)
(1.0799585e-09 -3.031269e-25 0)
(1.1728627e-09 3.2840858e-25 3.2840858e-25)
(1.2733621e-09 3.5602085e-25 3.5602085e-25)
(1.3827687e-09 -7.7283933e-25 0)
(1.5013417e-09 -4.1879441e-25 -4.1879441e-25)
(1.6299389e-09 4.5415837e-25 -1.5683168e-38)
(1.7692645e-09 0 4.9241022e-25)
(1.9204422e-09 -5.3344862e-25 5.3344862e-25)
(2.0837924e-09 8.211471e-41 -5.778309e-25)
(2.2610946e-09 6.2611436e-25 -1.2522287e-24)
(2.4519908e-09 -6.7794435e-25 1.3558887e-24)
(2.6587179e-09 2.0858072e-40 -4.1716145e-40)
(2.8839262e-09 -2.2578845e-40 -2.3832675e-24)
(3.1271046e-09 -8.5972929e-25 1.7194586e-24)
(3.3906808e-09 -9.3050788e-25 9.6794646e-38)
(3.6752392e-09 -3.5058949e-38 -2.0139218e-24)
(3.983146e-09 1.0898484e-24 3.2695451e-24)
(4.3167262e-09 0 -1.1790689e-24)
(4.6771894e-09 1.2752305e-24 -1.2752305e-24)
(5.0673777e-09 1.4314491e-37 1.3798531e-24)
(5.4904004e-09 5.2173419e-38 -1.4924301e-24)
(5.9473107e-09 -1.61362e-24 -1.61362e-24)
(6.4409711e-09 -1.7445883e-24 -6.0740622e-38)
(6.9749283e-09 3.7714802e-24 3.7714802e-24)
(7.5515418e-09 1.4104623e-37 1.4104623e-37)
(8.1740936e-09 -2.2023945e-24 2.2023945e-24)
(8.8479817e-09 0 2.3802783e-24)
(9.5766691e-09 0 9.0300398e-38)
(1.0363334e-08 2.7786548e-24 -1.9348659e-37)
(1.1212143e-08 2.0805807e-37 -6.0003217e-24)
(1.2129799e-08 -6.4804204e-24 -3.2402102e-24)
(1.3121565e-08 3.4993601e-24 3.4993601e-24)
(1.4191876e-08 7.5558293e-24 -5.3687396e-40)
(1.5346492e-08 0 -4.077951e-24)
(1.659348e-08 -4.4015971e-24 0)
(1.7938795e-08 -4.7501703e-24 4.7501703e-24)
(1.9389529e-08 5.1248864e-24 1.7843109e-37)
(2.0955738e-08 5.5283294e-24 -5.5283294e-24)
(2.2645909e-08 0 5.9635391e-24)
(2.4467841e-08 0 6.4323396e-24)
(2.643305e-08 -6.936656e-24 -1.3873312e-23)
(2.8552485e-08 -7.4789203e-24 -7.4789203e-24)
(3.0836918e-08 0 2.4187429e-23)
(3.3300282e-08 8.6906173e-24 8.6906173e-24)
(3.5955237e-08 -3.2744368e-37 -2.8099757e-23)
(3.8815707e-08 -1.0092915e-23 1.0092915e-23)
(4.1897713e-08 1.0874367e-23 1.0874367e-23)
(4.5218352e-08 -3.3297317e-39 6.6594634e-39)
(4.8794923e-08 4.41137e-37 1.2618803e-23)
(5.2647494e-08 -4.8446813e-53 -4.0768769e-23)
(5.6796393e-08 -2.926697e-23 1.0231353e-36)
(6.1264444e-08 6.7168681e-39 3.1510505e-23)
(6.6073797e-08 1.6960363e-23 -3.3920726e-23)
(7.1250273e-08 0 -1.8255201e-23)
(7.6822166e-08 1.9645693e-23 1.9645693e-23)
(8.2817906e-08 -2.113863e-23 -2.113863e-23)
(8.9267761e-08 -2.2741762e-23 2.2741762e-23)
(9.6207328e-08 4.8925887e-23 4.8925887e-23)
(1.0367176e-07 2.6311091e-23 -2.6311091e-23)
(1.1169813e-07 -5.6589531e-23 -9.7708551e-37)
(1.2032978e-07 -3.0423291e-23 -3.0423291e-23)
(1.2961063e-07 3.2706901e-23 -6.5413802e-23)
(1.3958603e-07 3.5156438e-23 3.5156438e-23)
(1.5030886e-07 3.7784365e-23 3.7784365e-23)
(1.6183241e-07 0 4.060264e-23)
(1.7421273e-07 -4.3624333e-23 1.5188507e-36)
(1.8751386e-07 -4.6863733e-23 1.6249758e-36)
(2.0180188e-07 5.0336443e-23 -1.7525435e-36)
(2.1714847e-07 1.8744656e-36 -1.0811786e-22)
(2.3362801e-07 -5.804756e-23 -5.804756e-23)
(2.5132176e-07 6.2321279e-23 6.2321279e-23)
(2.7031735e-07 6.6899899e-23 1.337998e-22)
(2.9070677e-07 0 7.180409e-23)
(3.1258895e-07 -7.705579e-23 7.705579e-23)
(3.3606984e-07 -8.2679724e-23 -5.7337538e-36)
(3.6126294e-07 8.8701527e-23 -1.7740305e-22)
(3.8828745e-07 -9.5146736e-23 2.7042329e-38)
(4.1727325e-07 5.800586e-38 -2.900293e-38)
(4.483597e-07 1.0942739e-22 3.3072195e-51)
(4.81691e-07 -1.1732561e-22 -1.1732561e-22)
(5.1742598e-07 1.2577537e-22 8.7223925e-36)
(5.5573138e-07 -9.3874865e-36 -1.8774973e-35)
(5.9678511e-07 -1.44479e-22 -1.44479e-22)
(6.4077978e-07 1.5481476e-22 1.5481476e-22)
(6.8791745e-07 -1.6586442e-22 -1.6586442e-22)
(7.38416e-07 -1.7767604e-22 -6.1608251e-36)
(7.9250482e-07 1.9029955e-22 1.9029955e-22)
(8.504328e-07 0 -2.0378888e-22)
(9.1246381e-07 0 3.1008415e-38)
(9.7887463e-07 2.3359928e-22 2.3359928e-22)
(1.0499657e-06 2.5004428e-22 0)
(1.1260565e-06 -2.6760699e-22 -2.6760699e-22)
(1.2074851e-06 -2.8635947e-22 -1.981804e-35)
(1.2946117e-06 3.0637917e-22 6.1275834e-22)
(1.3878217e-06 2.2729034e-35 -3.2774868e-22)
(1.4875253e-06 -3.5055483e-22 9.9633676e-38)
(1.5941589e-06 3.7489036e-22 3.7489036e-22)
(1.7081855e-06 4.008548e-22 -4.008548e-22)
(1.8301004e-06 0 4.2855268e-22)
(1.9604281e-06 -4.580935e-22 -4.580935e-22)
(2.0997269e-06 -4.8959519e-22 2.0399584e-34)
(2.2485932e-06 0 1.4512898e-34)
(2.40766e-06 5.5899027e-22 -5.5899027e-22)
(2.5775983e-06 5.9715483e-22 1.1943097e-21)
(2.7591241e-06 0 0)
(2.9529995e-06 -6.8116536e-22 4.7238117e-35)
(3.16003e-06 -1.5131999e-34 1.5131999e-34)
(3.381075e-06 7.7651602e-22 -7.7651602e-22)
(3.6170475e-06 -8.2889334e-22 -8.2889334e-22)
(3.8689151e-06 -8.8466631e-22 -6.0973542e-35)
(4.1377086e-06 9.4404595e-22 9.4404595e-22)
(4.4245207e-06 6.9565866e-35 -1.0072557e-21)
(4.7305115e-06 -7.3906848e-35 -7.3906848e-35)
(5.0569116e-06 -4.886212e-37 -4.886212e-37)
(5.4050293e-06 -1.2222924e-21 -1.6935575e-34)
(5.7762532e-06 1.3033224e-21 2.6066448e-21)
(6.1720532e-06 1.9272181e-34 -1.3895073e-21)
(6.5939914e-06 -1.0187501e-34 -1.4811605e-21)
(7.043724e-06 1.0857786e-34 1.0857786e-34)
(7.5230067e-06 -1.6822153e-21 -1.1594273e-34)
(8.0337014e-06 0 3.7263529e-34)
(8.5777821e-06 0 -1.3186994e-34)
(9.1573407e-06 2.0337201e-21 2.0337201e-21)
(9.774593e-06 2.1658331e-21 0)
(1.0431887e-05 0 0)
(1.1131712e-05 0 0)
(1.1876702e-05 -2.6134665e-21 0)
(1.2669648e-05 8.3318324e-51 2.7814905e-21)
(1.3513503e-05 2.9598508e-21 -6.1704969e-34)
(1.4411392e-05 0 -3.1491514e-21)
(1.5366627e-05 -3.3500294e-21 -3.3500294e-21)
(1.638271e-05 3.5631573e-21 3.5631573e-21)
(1.7463345e-05 1.050044e-33 3.7892449e-21)
(1.8612451e-05 -8.0580794e-21 -8.0580794e-21)
(1.9834174e-05 4.2833305e-21 -2.9643586e-34)
(2.1132894e-05 9.4528577e-34 9.4528577e-34)
(2.2513247e-05 6.876303e-37 4.8387681e-21)
(2.398013e-05 5.1417125e-21 5.1417125e-21)
(2.5538718e-05 -5.4627533e-21 -5.4627533e-21)
(2.7194484e-05 8.2464382e-37 0)
(2.8953204e-05 8.5308185e-34 -6.163275e-21)
(3.0820981e-05 -4.529567e-34 -4.529567e-34)
(3.2804263e-05 6.9491878e-21 6.9491878e-21)
(3.4909854e-05 0 7.3771913e-21)
(3.7144937e-05 -7.8303014e-21 -1.0904977e-33)
(3.9517098e-05 -5.7510271e-34 -8.3099087e-21)
(4.203434e-05 -2.4471848e-33 1.7634953e-20)
(4.4705106e-05 -9.3545428e-21 -9.3545428e-21)
(4.7538305e-05 0 -9.9227242e-21)
(5.054333e-05 1.0523721e-20 1.0523721e-20)
(5.3730092e-05 1.115932e-20 -1.115932e-20)
(5.7109034e-05 0 0)
(6.0691167e-05 0 0)
(6.4488096e-05 0 0)
(6.8512049e-05 -1.4086712e-20 -1.4086712e-20)
(7.2775914e-05 -1.0329421e-33 1.4925429e-20)
(7.7293256e-05 1.5811518e-20 3.1623035e-20)
(8.207837e-05 0 -1.6747491e-20)
(8.7146303e-05 0 1.2324928e-33)
(9.2512901e-05 -1.8779767e-20 -1.8779767e-20)
(9.8194837e-05 -1.9881737e-20 -1.9881737e-20)
(0.00010420966 2.1044934e-20 4.2089869e-20)
(0.00011057583 2.2272549e-20 -6.3302392e-36)
(0.00011731278 0 6.6984063e-36)
(0.00012444092 -2.4934553e-20 -2.4934553e-20)
(0.00013198175 -2.6376108e-20 -2.6376108e-20)
(0.00013995785 2.789643e-20 5.579286e-20)
(0.00014839296 2.949954e-20 -4.1921368e-36)
(0.00015731202 0 6.4977748e-33)
(0.00016674126 -3.2971163e-20 -3.2971163e-20)
(0.00017670821 9.6767889e-33 1.9353578e-32)
(0.00018724181 2.5539193e-33 5.1078386e-33)
(0.00019837242 -3.8911331e-20 -3.8911331e-20)
(0.00021013195 4.1106761e-20 4.1106761e-20)
(0.00022255388 4.3418878e-20 0)
(0.00023567335 0 4.5853448e-20)
(0.00024952723 -4.84165e-20 -4.84165e-20)
(0.0002641542 7.1039805e-33 -5.1114334e-20)
(0.00027959485 -5.395353e-20 5.395353e-20)
(0.00029589173 -7.8975938e-33 0)
(0.00031308945 1.2016759e-19 6.0083795e-20)
(0.00033123478 -6.3389531e-20 -6.3389531e-20)
(0.00035037676 9.2741743e-33 -6.6865983e-20)
(0.00037056674 2.4482966e-32 2.4482966e-32)
(0.00039185854 5.1465005e-33 1.4872804e-19)
(0.00041430854 7.8402989e-20 1.5680598e-19)
(0.00043797578 -8.2647472e-20 -2.4794242e-19)
(0.00046292206 -8.7107117e-20 -1.7421423e-19)
(0.00048921209 0 0)
(0.0005169136 9.6712535e-20 1.9342507e-19)
(0.00054609746 1.018797e-19 1.018797e-19)
(0.00057683781 0 -1.0730485e-19)
(0.00060921219 -1.1299982e-19 -1.1299982e-19)
(0.00064330172 -1.1897693e-19 -1.1897693e-19)
(0.00067919119 2.5049802e-19 2.5049802e-19)
(0.00071696924 1.318294e-19 2.6365881e-19)
(0.00075672852 -1.38732e-19 -1.38732e-19)
(0.00079856583 -1.4597124e-19 -2.9194247e-19)
(0.00084258231 -4.2597502e-32 -4.2597502e-32)
(0.00088888358 1.6152029e-19 3.2304058e-19)
(0.00093757995 -1.6986194e-19 -1.6986194e-19)
(0.0009887866 1.2385999e-32 2.4771997e-32)
(0.0010426237 1.8776377e-19 1.8776377e-19)
(0.0010992168 -1.9735965e-19 -3.9471931e-19)
(0.0011586968 1.4413176e-32 2.0741045e-19)
(0.0012212001 -1.5175562e-32 -3.0351125e-32)
(0.0012868693 6.5073192e-35 -2.2895594e-19)
(0.0013558529 1.6609525e-32 2.4049206e-19)
(0.0014283057 -2.5256603e-19 -2.5256603e-19)
(0.001504389 0 5.3040105e-19)
(0.001584271 0 -1.1616499e-31)
(0.001668127 2.922461e-19 -5.844922e-19)
(0.0017561395 3.0670683e-19 6.1341366e-19)
(0.0018484985 0 2.2272669e-32)
(0.0019454018 0 -3.3763509e-19)
(0.0020470556 0 0)
(0.0021536742 0 0)
(0.0022654806 -3.8946562e-19 -3.8946562e-19)
(0.0023827069 -2.8141938e-32 4.0831193e-19)
(0.0025055945 8.559914e-19 8.559914e-19)
(0.0026343943 -1.9122845e-34 -4.485502e-19)
(0.0027693673 -4.7000981e-19 1.3358482e-34)
(0.0029107845 -4.9241007e-19 -4.9241007e-19)
(0.0030589279 7.161199e-32 -5.157877e-19)
(0.0032140902 7.4845175e-32 5.4018061e-19)
(0.0033765753 8.0380569e-35 0)
(0.0035466992 5.9217019e-19 5.9217019e-19)
(0.0037247896 6.1984901e-19 6.1984901e-19)
(0.0039111868 6.4870745e-19 0)
(0.004106244 -1.3575798e-18 -1.3575798e-18)
(0.0043103276 -2.1304265e-18 -7.1014218e-19)
(0.0045238174 7.4281144e-19 1.4856229e-18)
(0.0047471078 1.5536927e-18 -5.3763097e-32)
(0.0049806072 0 2.3086868e-34)
(0.0052247393 -8.492149e-19 -8.492149e-19)
(0.005479943 -8.8765332e-19 -8.8765332e-19)
(0.005746673 9.2766692e-19 9.2766692e-19)
(0.0060254005 -2.7549503e-34 -9.6931197e-19)
(0.0063166133 4.3171712e-34 1.0126464e-18)
(0.0066208165 -3.0062486e-34 -6.0124973e-34)
(0.006938533 -1.1046232e-18 -2.2092463e-18)
(0.0072703038 -1.1533897e-18 1.1533897e-18)
(0.0076166888 1.2040939e-18 1.2040939e-18)
(0.0079782671 2.5136045e-18 1.2568023e-18)
(0.0083556376 -1.311583e-18 1.8191386e-31)
(0.0087494193 2.7931066e-48 -1.368506e-18)
(0.0091602523 -1.4276432e-18 0)
(0.0095887979 -4.1263819e-31 0)
(0.010035739 3.1057136e-18 1.5528568e-18)
(0.010501783 0 -2.2479402e-31)
(0.010987657 0 4.6843866e-31)
(0.011494114 -3.5183755e-18 2.4449571e-31)
(0.01202193 1.0180999e-30 -1.8332244e-18)
(0.012571908 3.8200629e-18 1.9100315e-18)
(0.013144873 0 -2.8275284e-34)
(0.013741679 -2.0723081e-18 -2.0723081e-18)
(0.014363205 -2.1579584e-18 0)
(0.015010357 2.2467406e-18 0)
(0.01568407 -3.3235639e-34 0)
(0.016385306 3.3794845e-31 0)
(0.017115056 -3.5993879e-34 0)
(0.017874341 -2.6351297e-18 0)
(0.018664214 2.7410457e-18 0)
(0.019485756 2.850698e-18 2.850698e-18)
(0.02034008 0 0)
(0.021228333 -3.0816456e-18 -3.0816456e-18)
(0.022151692 4.4472738e-31 0)
(0.023111369 3.3288626e-18 3.3288626e-18)
(0.02410861 -6.9177187e-18 9.5947334e-31)
(0.025144695 9.9675896e-31 -3.5932723e-18)
(0.026220938 3.7322222e-18 0)
(0.027338692 1.0762414e-30 0)
(0.028499342 8.0484514e-18 4.0242257e-18)
(0.029704314 -8.3550616e-18 5.8000859e-31)
(0.030955069 -4.335876e-18 -4.335876e-18)
(0.032253107 4.4993919e-18 0)
(0.033599966 6.6339276e-34 0)
(0.034997225 4.8424694e-18 4.8424694e-18)
(0.036446502 0 5.0223023e-18)
(0.037949454 0 -5.2078486e-18)
(0.039507781 -5.3992486e-18 -5.3992486e-18)
(0.041123223 7.7624308e-31 0)
(0.042797564 1.160036e-17 5.8001802e-18)
(0.044532627 -8.5407254e-34 -8.5407254e-34)
(0.046330282 -1.8678764e-17 -6.2262547e-18)
(0.048192441 6.4490897e-18 6.4490897e-18)
(0.050121057 6.6786564e-18 6.6786564e-18)
(0.052118133 -1.3830214e-17 -6.9151068e-18)
(0.054185713 7.1585942e-18 -7.1585942e-18)
(0.056325886 -7.4092732e-18 0)
(0.058540789 -1.53346e-17 7.6672999e-18)
(0.060832603 7.9328313e-18 7.9328313e-18)
(0.063203557 8.2060258e-18 -8.2060258e-18)
(0.065655925 8.4870428e-18 -8.4870428e-18)
(0.068192029 -8.7760427e-18 0)
(0.070814238 2.900391e-47 9.0731867e-18)
(0.073524969 9.378637e-18 9.378637e-18)
(0.076326686 -9.6925563e-18 -9.6925563e-18)
(0.079221901 1.0015108e-17 -1.0015108e-17)
(0.082213174 -1.0346456e-17 0)
(0.085303115 -2.9614274e-30 0)
(0.088494379 -3.1366767e-33 0)
(0.091789674 -1.1394925e-17 0)
(0.095191751 2.352621e-17 0)
(0.098703414 -1.2140906e-17 0)
(0.10232751 -3.4789128e-30 0)
(0.10606695 3.5856267e-30 0)
(0.10992467 1.3333677e-17 1.3333677e-17)
(0.11390366 2.7503209e-17 -3.2583769e-46)
(0.11800698 -4.2539917e-17 -1.4179972e-17)
(0.12223772 -4.0552349e-30 0)
(0.12659901 8.3599795e-30 0)
(0.13109404 -4.3033615e-30 0)
(0.13572604 3.2002172e-17 1.6001086e-17)
(0.1404983 -3.2968146e-17 2.286307e-30)
(0.14541414 4.7097547e-30 -1.6978459e-17)
(0.15047693 3.4968797e-17 1.7484399e-17)
(0.15569009 0 -2.4994048e-30)
(0.16105708 0 2.6334915e-33)
(0.16658142 -1.9073061e-17 2.6481047e-30)
(0.17226664 2.7221866e-30 -1.9626727e-17)
(0.17811634 2.0192692e-17 2.0192692e-17)
(0.18413417 2.0771098e-17 -2.0771098e-17)
(0.19032379 -2.1362086e-17 1.1869724e-29)
(0.19668892 -6.5897375e-17 2.1965792e-17)
(0.20323332 2.2582349e-17 -2.2582349e-17)
(0.20996079 2.321189e-17 0)
(0.21687516 6.7798685e-33 0)
(0.22398031 2.4510428e-17 2.4510428e-17)
(0.23128013 0 3.4959466e-30)
(0.23877858 -5.172477e-17 -2.5862385e-17)
(0.24647963 -5.3117372e-17 2.6558686e-17)
(0.25438728 2.7268682e-17 2.7268682e-17)
(0.26250559 5.598496e-17 0)
(0.27083863 2.8730179e-17 -2.8730179e-17)
(0.27939049 -5.8963752e-17 -2.9481876e-17)
(0.2881653 -6.0495328e-17 3.0247664e-17)
(0.29716722 6.2055258e-17 8.6113459e-30)
(0.30640043 6.364371e-17 1.5418548e-46)
(0.31586913 0 4.5304089e-30)
(0.32557756 -6.6906785e-17 -3.3453392e-17)
(0.33552994 3.4290844e-17 3.4290844e-17)
(0.34573057 7.0285672e-17 -6.6120956e-46)
(0.35618371 -3.6009425e-17 4.9995503e-30)
(0.36689367 -3.6890661e-17 3.6890661e-17)
(0.37786475 5.3697974e-33 0)
(0.3891013 -5.3727284e-30 0)
(0.40060765 -3.9622681e-17 -3.9622681e-17)
(0.41238814 4.0562904e-17 -5.7643353e-33)
(0.42444713 4.1517943e-17 1.727536e-29)
(0.43678898 -4.2487814e-17 -4.2487814e-17)
(0.44941805 6.02955e-30 0)
(0.46233872 6.3198632e-33 0)
(0.47555535 6.3088815e-30 4.5486482e-17)
(0.4890723 4.6515712e-17 -1.2896657e-29)
(0.50289393 -4.7559757e-17 -4.7559757e-17)
(0.51702461 2.0250624e-29 0)
(0.53146868 6.8992669e-30 0)
(0.54623049 1.4093524e-29 0)
(0.56131435 5.1883535e-17 5.1883535e-17)
(0.57672459 -5.3001182e-17 -7.531921e-33)
(0.59246551 7.5158851e-30 -5.4133408e-17)
(0.60854139 1.532663e-29 5.528015e-17)
(0.62495649 8.0207965e-33 -5.6441338e-17)
(0.64171505 1.1523379e-16 1.6015441e-29)
(0.6588213 5.8806738e-17 1.1761348e-16)
(0.67627943 -6.0010777e-17 -6.0010777e-17)
(0.69409361 -1.2245783e-16 -2.5503077e-29)
(0.71226798 8.6720951e-30 -8.6720951e-30)
(0.73080663 1.2741413e-16 8.8450924e-30)
(0.74971366 6.4966853e-17 6.4966853e-17)
(0.76899309 -1.3248057e-16 0)
(0.78864893 -6.7527228e-17 0)
(0.80868515 6.8827548e-17 -6.8827548e-17)
(0.82910566 7.0141102e-17 -9.7383942e-30)
(0.84991434 1.9835013e-29 1.9835013e-29)
(0.87111504 -7.2807304e-17 6.4599701e-47)
(0.89271153 0 7.4159633e-17)
(0.91470757 0 -7.5524557e-17)
(0.93710684 -7.6901901e-17 -7.6901901e-17)
(0.95991298 0 0)
(0.98312958 7.9693121e-17 7.9693121e-17)
(1.0067602 -8.1106617e-17 1.1260847e-29)
(1.0308082 -1.1728471e-32 -8.2531774e-17)
(1.0552771 2.3304418e-29 0)
(1.0801703 0 0)
(1.1054909 8.687514e-17 8.687514e-17)
(1.1312423 -8.8344843e-17 -2.5109115e-32)
(1.1574276 -8.9825132e-17 7.1207327e-47)
(1.18405 1.8263155e-16 9.1315775e-17)
(1.2111123 9.2816539e-17 -9.2816539e-17)
(1.2386177 -9.4327181e-17 1.3069581e-29)
(1.266569 0 -1.3307466e-29)
(1.2949689 0 2.7025851e-29)
(1.3238203 9.8915915e-17 9.8915915e-17)
(1.3531258 -2.7911015e-29 -1.0046358e-16)
(1.382888 -1.0201986e-16 2.8328886e-29)
(1.4131095 0 -2.8778072e-29)
(1.4437926 0 2.9215005e-29)
(1.4749397 1.0673771e-16 1.0673771e-16)
(1.5065531 -4.5135252e-29 -1.0832575e-16)
(1.538635 -1.0992104e-16 3.0522886e-29)
(1.5711875 0 -1.5515598e-29)
(1.6042127 0 0)
(1.6377125 0 1.1474759e-16)
(1.6716887 0 -1.1636903e-16)
(1.7061431 0 1.6382612e-29)
(1.7410775 0 -1.7000314e-32)
(1.7764935 0 1.6836728e-29)
(1.8123925 0 -1.7082299e-29)
(1.848776 -2.4911514e-16 -1.2455757e-16)
(1.8856453 -7.0055834e-29 1.2620945e-16)
(1.9230018 1.2786535e-16 1.2786535e-16)
(1.9608465 -1.2952497e-16 -1.2952497e-16)
(1.9991805 1.3118801e-16 -1.3118801e-16)
(2.0380049 -1.3285416e-16 0)
(2.0773206 3.7392623e-29 1.345231e-16)
(2.1171283 1.3619455e-16 1.3619455e-16)
(2.1574288 3.8283252e-29 0)
(2.1982227 1.3954371e-16 -1.3954371e-16)
(2.2395105 0 1.9607104e-29)
(2.2812928 0 -2.0307194e-32)
(2.3235698 -1.4457851e-16 -2.0052742e-29)
(2.3663418 -4.0613076e-29 1.462585e-16)
(2.4096091 1.4793885e-16 -1.4793885e-16)
(2.4533718 0 -2.0751882e-29)
(2.4976297 0 4.2012831e-29)
(2.5423829 0 1.5297898e-16)
(2.5876312 0 1.5465772e-16)
(2.6333743 0 -3.126706e-16)
(2.6796119 0 2.2454774e-32)
(2.7263435 0 -2.2148092e-29)
(2.7735687 -3.2271626e-16 -1.6135813e-16)
(2.8212868 1.3571633e-28 1.6302812e-16)
(2.8694971 3.2939097e-16 -2.286633e-29)
(2.9181988 -1.6635993e-16 -1.6635993e-16)
(2.9673912 -2.3877245e-32 0)
(3.0170732 -1.6967892e-16 0)
(3.0672438 9.5005386e-29 0)
(3.1179019 3.4596565e-16 1.7298282e-16)
(3.1690464 1.7462842e-16 1.7462842e-16)
(3.2206759 -7.76343e-47 -1.7626941e-16)
(3.272789 -5.3371658e-16 -1.7790553e-16)
(3.3253845 0 0)
(3.3784607 3.6232411e-16 1.8116205e-16)
(3.432016 0 1.8278193e-16)
(3.4860489 0 -1.8439588e-16)
(3.5405574 -3.7200726e-16 -1.8600363e-16)
(3.59554 5.2040836e-29 0)
(3.6509945 5.6759861e-16 1.8919954e-16)
(3.7069192 -1.9078719e-16 1.9078719e-16)
(3.7633118 -1.9236765e-16 -1.9236765e-16)
(3.8201704 1.9394068e-16 -5.3853468e-29)
(3.8774928 -1.9550604e-16 1.9550604e-16)
(3.9352767 1.9706348e-16 0)
(3.9935197 5.5094371e-29 0)
(4.0522195 -2.0015373e-16 0)
(4.1113737 2.0168608e-16 0)
(4.1709797 0 -2.0320962e-16)
(4.2310349 2.0472412e-16 5.6789628e-29)
(4.2915368 -2.0622938e-16 2.0622938e-16)
(4.3524825 -4.1545036e-16 -2.0772518e-16)
(4.4138694 2.0921132e-16 -2.904691e-29)
(4.4756945 2.1068759e-16 2.9281817e-29)
(4.537955 2.121538e-16 6.8502928e-47)
(4.600648 2.1360974e-16 -2.1360974e-16)
(4.6637704 -4.3011044e-16 -2.1505522e-16)
(4.7273192 -2.1649005e-16 4.3298011e-16)
(4.7912912 2.1791405e-16 3.0255198e-29)
(4.8556833 0 -3.0420209e-29)
(4.9204923 -2.2072882e-16 2.2072882e-16)
(4.9857148 2.2211924e-16 0)
(5.0513476 2.2349811e-16 -2.2349811e-16)
(5.1173872 -6.7459579e-16 -2.2486526e-16)
(5.1838303 -6.4295744e-32 2.2622054e-16)
(5.2506733 4.5512753e-16 6.3125252e-29)
(5.3179127 -2.288948e-16 -2.288948e-16)
(5.385545 -3.1962849e-29 0)
(5.4535664 -2.3151962e-16 0)
(5.5219735 6.6169468e-32 2.3281312e-16)
(5.5907624 4.6818762e-16 -3.2468329e-29)
(5.6599293 -2.3536154e-16 -2.3536154e-16)
(5.7294706 0 0)
(5.7993823 6.6048324e-29 2.3785761e-16)
(5.8696606 3.3976115e-32 -3.3976115e-32)
(5.9403015 2.4030021e-16 6.6726588e-29)
(6.0113012 -2.4150115e-16 3.3495712e-29)
(6.0826556 6.738972e-29 -2.4268833e-16)
(6.1543606 3.3823108e-29 2.4386164e-16)
(6.2264123 3.4819572e-32 -3.4819572e-32)
(6.2988065 2.4616616e-16 6.8355445e-29)
(6.371539 -2.4729714e-16 2.4729714e-16)
(6.4446058 5.085715e-47 -2.4841379e-16)
(6.5180025 6.9285623e-29 -6.9285623e-29)
(6.591725 3.5612916e-32 -3.5612916e-32)
(6.665769 5.033532e-16 3.4942792e-29)
(6.7401302 3.5053798e-29 2.5273481e-16)
(6.8148042 -2.5377816e-16 -2.5377816e-16)
(6.8897867 0 0)
(6.9650734 0 1.4203583e-28)
(7.0406597 2.5681806e-16 3.5620137e-29)
(7.1165412 1.072694e-28 1.072694e-28)
(7.1927135 -2.587686e-16 3.6773229e-32)
(7.2691721 2.5972078e-16 2.5972078e-16)
(7.3459124 -3.6189694e-29 -2.6065745e-16)
(7.4229298 1.6447647e-46 1.6447647e-46)
(7.5002199 3.6443284e-29 3.6443284e-29)
(7.577778 -2.633736e-16 -7.3133607e-29)
(7.6555994 -2.6424742e-16 3.6688125e-29)
(7.7336795 -3.6769564e-29 -5.3021066e-16)
(7.8120137 2.6594725e-16 2.6594725e-16)
(7.8905972 0 2.6677312e-16)
(7.9694253 0 3.7151217e-29)
(8.0484933 -2.6837638e-16 -3.726139e-29)
(8.1277964 2.6915363e-16 -5.3830726e-16)
(8.2073299 -2.2469626e-28 2.6991454e-16)
(8.2870888 -2.7065904e-16 2.7065904e-16)
(8.3670685 2.7138706e-16 3.1570707e-47)
(8.447264 0 0)
(8.5276704 -2.7279342e-16 2.9937156e-47)
(8.608283 -2.7347163e-16 2.7347163e-16)
(8.6890967 2.741331e-16 -2.741331e-16)
(8.7701067 2.7477778e-16 2.7466803e-47)
(8.851308 0 3.8198192e-29)
(8.9326956 -2.7601653e-16 3.9224308e-32)
(9.0142646 -2.7661048e-16 2.7661048e-16)
(9.09601 5.543748e-16 -5.543748e-16)
(9.1779267 2.7774723e-16 -7.712488e-29)
(9.2600098 -2.7828993e-16 2.7828993e-16)
(9.3422541 -2.7881542e-16 -3.8671125e-29)
(9.4246545 -3.8741617e-29 3.8741617e-29)
(9.5072061 -2.798146e-16 -2.798146e-16)
(9.5899037 -7.7830448e-29 2.8028817e-16)
(9.6727422 5.6148867e-16 -7.2884383e-47)
(9.7557164 0 1.1715835e-28)
(9.8388212 0 -7.82359e-29)
(9.9220514 0 7.8267877e-29)
(10.005402 -2.8239377e-16 7.841513e-29)
(10.088867 -2.8276206e-16 1.3929281e-47)
(10.172443 0 0)
(10.256122 2.8344542e-16 -2.8344542e-16)
(10.339902 3.9316657e-29 0)
(10.423775 -2.8405746e-16 0)
(10.507737 0 2.8433661e-16)
(10.591782 0 7.9027142e-29)
(10.675906 2.8484092e-16 -2.8484092e-16)
(10.760102 3.9538065e-29 0)
(10.844366 -3.9526226e-29 0)
(10.928692 2.8546166e-16 5.7092332e-16)
(11.013075 -2.8563218e-16 2.3778076e-28)
(11.097509 1.1891314e-28 -5.7156885e-16)
(11.181989 2.8591834e-16 2.8591834e-16)
(11.266509 0 -4.064786e-32)
(11.351065 2.86131e-16 3.9726442e-29)
(11.43565 3.9737361e-29 2.8620964e-16)
(11.520259 -2.8626976e-16 0)
(11.604887 2.8631131e-16 0)
(11.689528 -2.8633425e-16 0)
(11.774176 -2.8633845e-16 2.8633845e-16)
(11.858827 2.8632334e-16 7.9424917e-29)
(11.943474 0 -2.8628866e-16)
(12.028112 -2.8623485e-16 0)
(12.112736 -2.8616215e-16 0)
(12.197339 2.860705e-16 2.860705e-16)
(12.281916 2.8595988e-16 -4.0637343e-32)
(12.366462 0 -2.8583023e-16)
(12.45097 2.856815e-16 0)
(12.535436 -2.8551364e-16 0)
(12.619854 -2.8532662e-16 2.8532662e-16)
(12.704217 2.8512038e-16 7.909122e-29)
(12.78852 5.6978976e-16 7.9150125e-29)
(12.872758 -1.5808332e-28 -7.9041661e-29)
(12.956925 -8.5315774e-16 -2.8438591e-16)
(13.041014 -1.7496904e-47 2.8410236e-16)
(13.125021 2.8379937e-16 -7.8765108e-29)
(13.208939 5.669538e-16 7.867561e-29)
(13.292763 -1.5708091e-28 -7.8540457e-29)
(13.376487 -5.6554669e-16 -2.8277335e-16)
(13.460104 2.8239218e-16 0)
(13.54361 -2.8199137e-16 0)
(13.626999 2.8157087e-16 2.8157087e-16)
(13.710264 2.8113065e-16 6.2456057e-46)
(13.793399 -5.6134135e-16 -2.8067067e-16)
(13.876399 0 0)
(13.959258 0 0)
(14.041971 5.5834364e-16 2.7917182e-16)
(14.12453 2.3763808e-46 4.7527615e-46)
(14.20693 -5.561463e-16 -2.7807315e-16)
(14.289166 0 0)
(14.371231 0 0)
(14.45312 5.5255079e-16 2.7627539e-16)
(14.534826 2.7561993e-46 5.5123987e-46)
(14.616343 -5.4995348e-16 -2.7497674e-16)
(14.697666 0 0)
(14.778788 0 0)
(14.859704 5.4575621e-16 2.728781e-16)
(14.940407 2.7213831e-16 -3.867318e-32)
(15.020892 -5.4275674e-16 -2.7137837e-16)
(15.101152 -2.7059828e-16 2.7059828e-16)
(15.181182 0 -7.4955881e-29)
(15.260975 5.3795518e-16 7.4727948e-29)
(15.340526 -1.4891261e-28 -7.4456306e-29)
(15.419828 -5.3455243e-16 -2.6727622e-16)
(15.498876 2.6639528e-16 0)
(15.577664 0 0)
(15.656184 -2.6457293e-16 0)
(15.734432 2.6363154e-16 0)
(15.812402 -3.7327656e-32 0)
(15.890087 -2.6168842e-16 2.6168842e-16)
(15.967482 2.6068673e-16 -7.2350472e-29)
(16.04458 -2.5966499e-16 -2.5966499e-16)
(16.121375 -2.5862324e-16 0)
(16.197862 2.575615e-16 0)
(16.274035 2.5647983e-16 0)
(16.349887 -7.0913459e-29 0)
(16.425413 -2.5425683e-16 0)
(16.500607 2.5311562e-16 0)
(16.575462 6.9962799e-29 0)
(16.649973 -2.5077406e-16 2.5077406e-16)
(16.724135 2.4957384e-16 -1.3853245e-28)
(16.797941 -2.483541e-16 -2.483541e-16)
(16.871385 -2.4711491e-16 0)
(16.944462 2.4585635e-16 0)
(17.017166 2.4457853e-16 0)
(17.089491 -6.7554441e-29 0)
(17.161431 -2.4196547e-16 0)
(17.232981 2.4063044e-16 0)
(17.304135 -3.4003244e-32 0)
(17.374888 -2.3790396e-16 2.3790396e-16)
(17.445233 2.3651277e-16 -6.5641278e-29)
(17.515166 -2.3510311e-16 -2.3510311e-16)
(17.58468 -2.3367513e-16 0)
(17.653771 2.3222899e-16 0)
(17.722433 4.6152966e-16 2.3076483e-16)
(17.79066 -1.2739972e-28 -6.369986e-29)
(17.858447 -4.5556626e-16 -2.2778313e-16)
(17.92579 2.2626594e-16 0)
(17.992682 -3.1936258e-32 0)
(18.059119 -4.4635961e-16 0)
(18.125095 -6.2985706e-32 2.2161125e-16)
(18.190606 2.2002599e-16 6.1128107e-29)
(18.255646 0 -2.1842423e-16)
(18.32021 -2.1680621e-16 0)
(18.384295 0 0)
(18.447894 2.1352229e-16 0)
(18.511003 0 0)
(18.573618 0 0)
(18.635735 0 0)
(18.697347 2.0677005e-16 0)
(18.758452 8.5180543e-47 2.0504515e-16)
(18.819045 -2.0330608e-16 -2.8891531e-32)
(18.879121 0 -2.0155314e-16)
(18.938677 -1.9978666e-16 0)
(18.997709 5.4982585e-29 0)
(19.056212 1.962143e-16 0)
(19.114183 0 0)
(19.171617 0 0)
(19.228513 0 0)
(19.284865 1.8892156e-16 0)
(19.34067 -5.1945506e-29 1.870696e-16)
(19.395926 -1.8520688e-16 2.6319481e-32)
(19.450629 0 -1.8333379e-16)
(19.504775 -1.8145072e-16 0)
(19.558363 -4.9834187e-29 0)
(19.611389 1.7765626e-16 0)
(19.66385 0 1.757457e-16)
(19.715743 -1.7382683e-16 -9.65118e-29)
(19.767068 1.7190007e-16 -1.7190007e-16)
(19.81782 -9.4440589e-29 0)
(19.867998 -1.6802469e-16 1.6802469e-16)
(19.9176 1.6607697e-16 4.6139869e-29)
(19.966624 0 -1.6412318e-16)
(20.015068 1.6216379e-16 0)
(20.06293 4.4484151e-29 0)
(20.110209 -1.5823013e-16 1.5823013e-16)
(20.156904 0 1.5625683e-16)
(20.203014 -1.5427987e-16 -1.5427987e-16)
(20.248537 1.5229976e-16 -1.5229976e-16)
(20.293472 8.3480079e-29 0)
(20.337819 -1.483321e-16 0)
(20.381577 8.1253709e-29 0)
(20.424746 2.0514496e-32 0)
(20.467325 -3.9553469e-29 -1.4236972e-16)
(20.509314 1.9949402e-32 1.9949402e-32)
(20.550714 1.3839362e-16 2.7678725e-16)
(20.591524 0 1.3640681e-16)
(20.631744 -1.3442153e-16 -2.6884306e-16)
(20.671377 3.6756666e-29 -2.6487664e-16)
(20.710421 3.6206972e-29 1.3045771e-16)
(20.748877 -9.5836531e-47 1.2848025e-16)
(20.786748 3.5128329e-29 0)
(20.824033 0 0)
(20.860735 2.451442e-16 0)
(20.896854 3.3491716e-29 0)
(20.932393 -1.1865891e-16 1.1865891e-16)
(20.967352 1.1671159e-16 3.2425072e-29)
(21.001735 -3.1853361e-29 -1.1477117e-16)
(21.035542 -1.1283818e-16 0)
(21.068777 -1.1091314e-16 0)
(21.101442 -3.026618e-29 0)
(21.133539 2.9736485e-29 0)
(21.165071 -1.0519094e-16 0)
(21.196041 1.033029e-16 0)
(21.226452 1.0142537e-16 0)
(21.256307 0 0)
(21.28561 9.7703869e-17 0)
(21.314363 -2.6618655e-29 0)
(21.342571 -9.4030333e-17 0)
(21.370237 0 0)
(21.397366 0 0)
(21.42396 0 0)
(21.450026 1.7368432e-16 8.6842161e-17)
(21.475565 -9.4501028e-29 -4.7250514e-29)
(21.500584 -1.6666935e-16 -8.3334675e-17)
(21.525087 0 0)
(21.549077 0 0)