/*--------------------------------*- C++ -*----------------------------------*\
  =========                 |
  \\      /  F ield         | OpenFOAM: The Open Source CFD Toolbox
   \\    /   O peration     | Website:  https://openfoam.org
    \\  /    A nd           | Version:  7
     \\/     M anipulation  |
\*---------------------------------------------------------------------------*/
FoamFile
{
    version     2.0;
    format      ascii;
    class       volVectorField;
    location    "0.00089";
    object      U;
}
// * * * * * * * * * * * * * * * * * * * * * * * * * * * * * * * * * * * * * //

dimensions      [0 1 -1 0 0 0 0];

internalField   nonuniform List<vector> 
5000
(
(3.0156524e-12 -6.7552933e-29 0)
(3.0284219e-12 -5.06647e-28 0)
(2.9086309e-12 0 0)
(2.9570762e-12 0 0)
(2.6840735e-12 -4.559823e-28 0)
(2.8979154e-12 5.7599095e-44 -5.06647e-29)
(2.7490221e-12 -2.533235e-28 5.3999152e-43)
(3.1033105e-12 0 -1.0639587e-27)
(3.2892742e-12 0 -3.546529e-28)
(3.0915288e-12 1.013294e-28 2.026588e-28)
(3.0205248e-12 -1.013294e-28 -1.013294e-28)
(3.31833e-12 -1.013294e-28 -1.013294e-28)
(3.1613654e-12 2.026588e-28 -1.7279728e-42)
(3.1048006e-12 -4.559823e-28 -4.0175369e-42)
(3.5193055e-12 0 2.026588e-28)
(3.399783e-12 8.905652e-42 1.7811304e-41)
(3.4417055e-12 -1.5612266e-55 -7.806133e-56)
(3.2399761e-12 -3.546529e-28 3.1247509e-42)
(3.1426408e-12 0 3.039882e-28)
(2.3524359e-12 2.026588e-28 4.053176e-28)
(2.2304538e-12 -5.573117e-28 5.573117e-28)
(2.6197385e-12 -8.106352e-28 0)
(2.8441498e-12 1.2159528e-27 0)
(2.8771155e-12 1.013294e-28 1.013294e-28)
(2.7303655e-12 -1.6986664e-42 3.6544524e-55)
(2.7084391e-12 -2.5055606e-42 -2.5055606e-42)
(3.0656268e-12 -3.546529e-28 3.546529e-28)
(3.041476e-12 -6.079764e-28 -6.079764e-28)
(2.8718003e-12 6.079764e-28 -3.039882e-28)
(2.8215464e-12 -5.2703172e-42 3.039882e-28)
(2.3100483e-12 2.6567583e-42 -2.6567583e-42)
(2.173257e-12 1.519941e-28 -1.2959796e-42)
(2.4200718e-12 4.053176e-28 -2.026588e-28)
(2.5732647e-12 5.1081157e-42 -2.5540578e-42)
(2.4517701e-12 -4.391931e-42 -2.533235e-28)
(2.343836e-12 -4.4063308e-42 0)
(2.4350311e-12 -1.5810952e-41 0)
(2.1290897e-12 1.4186116e-27 -7.093058e-28)
(2.2527031e-12 -1.4186116e-27 -7.093058e-28)
(2.881763e-12 -6.079764e-28 3.039882e-28)
(2.9113845e-12 4.053176e-28 -3.3983466e-42)
(2.8284065e-12 -6.9694905e-42 -1.013294e-28)
(2.6879765e-12 -6.079764e-28 3.039882e-28)
(2.921977e-12 3.546529e-28 -5.9975058e-42)
(2.7403009e-12 3.039882e-28 -1.013294e-28)
(2.6564264e-12 -2.026588e-28 2.026588e-28)
(2.6438431e-12 2.026588e-28 6.9694905e-42)
(2.5249094e-12 6.9406909e-42 -3.4703455e-42)
(2.2540419e-12 -4.053176e-28 -6.9694905e-42)
(1.5681269e-12 0 1.7279728e-42)
(2.0878023e-12 2.026588e-28 2.026588e-28)
(2.1232287e-12 -3.8286129e-58 0)
(2.4653499e-12 2.533235e-28 0)
(2.3636465e-12 -3.039882e-28 0)
(2.0509435e-12 3.5423443e-42 0)
(2.2538795e-12 5.06647e-28 0)
(2.1708478e-12 -2.533235e-28 0)
(2.5983346e-12 8.7478626e-42 0)
(2.3505302e-12 -1.013294e-28 0)
(2.3139688e-12 0 0)
(2.8309924e-12 -2.026588e-28 0)
(2.6345272e-12 1.4767507e-55 0)
(2.6507402e-12 -1.0079842e-43 0)
(2.8374988e-12 -6.079764e-28 6.079764e-28)
(2.5147392e-12 4.559823e-28 4.559823e-28)
(2.6447558e-12 -1.4169377e-41 -4.053176e-28)
(2.5344777e-12 -2.026588e-28 3.4847452e-42)
(2.2576945e-12 -5.06647e-29 4.8788331e-57)
(1.9811185e-12 -3.039882e-28 3.039882e-28)
(2.1444111e-12 2.533235e-28 0)
(2.5048924e-12 -1.519941e-28 0)
(2.6793365e-12 1.519941e-28 1.519941e-28)
(2.5633554e-12 -1.519941e-28 -1.519941e-28)
(2.6657315e-12 6.079764e-28 0)
(2.2964149e-12 -5.06647e-29 -5.06647e-29)
(2.7148451e-12 1.085578e-41 -4.1453508e-55)
(2.8363785e-12 0 1.519941e-28)
(2.4703166e-12 -1.013294e-28 1.013294e-28)
(2.2657382e-12 -4.3199321e-44 3.039882e-28)
(2.3957683e-12 -2.026588e-28 4.053176e-28)
(2.5024104e-12 2.026588e-28 -4.053176e-28)
(2.3765311e-12 2.8799547e-44 -5.7599095e-44)
(2.3683914e-12 -8.6398642e-44 -9.119646e-28)
(2.1860315e-12 -2.026588e-28 4.053176e-28)
(2.3222155e-12 1.519941e-28 -1.5810952e-41)
(2.0105207e-12 1.4111778e-41 8.106352e-28)
(2.156923e-12 -3.546529e-28 -1.0639587e-27)
(2.2386927e-12 0 1.519941e-28)
(2.2972369e-12 2.533235e-28 -2.533235e-28)
(2.6921834e-12 4.2047339e-41 4.053176e-28)
(2.2978096e-12 5.3135165e-42 -1.519941e-28)
(2.1673998e-12 1.519941e-28 1.519941e-28)
(2.4253569e-12 3.039882e-28 1.0583834e-41)
(2.1280239e-12 -9.119646e-28 -9.119646e-28)
(2.3203987e-12 -2.4544414e-41 -2.4544414e-41)
(1.9402459e-12 1.013294e-28 -1.013294e-28)
(2.1140817e-12 0 -5.06647e-29)
(2.5081281e-12 0 1.0670232e-41)
(2.3941712e-12 3.039882e-28 -2.1167667e-41)
(2.1057088e-12 2.4594814e-41 -7.093058e-28)
(2.1019587e-12 -1.519941e-27 -7.599705e-28)
(1.8427867e-12 5.573117e-28 5.573117e-28)
(1.8922437e-12 -1.013294e-28 7.1998869e-45)
(2.0230667e-12 0 2.026588e-28)
(2.1977537e-12 -2.026588e-28 0)
(2.1291083e-12 -1.519941e-28 1.519941e-28)
(2.1175474e-12 1.519941e-28 5.2919169e-42)
(2.4717287e-12 3.039882e-28 -3.039882e-28)
(2.4795315e-12 0 3.039882e-28)
(2.4921433e-12 0 3.546529e-28)
(2.3784849e-12 5.06647e-29 1.013294e-28)
(2.1727156e-12 2.533235e-28 2.533235e-28)
(1.7675165e-12 0 -9.119646e-28)
(2.1709281e-12 -2.533235e-28 -2.533235e-28)
(2.6467744e-12 -8.8558609e-42 -7.599705e-28)
(2.660563e-12 -5.06647e-29 5.06647e-29)
(2.4619027e-12 -3.039882e-28 -3.039882e-28)
(2.7933667e-12 -1.4399774e-44 2.8799547e-44)
(2.7353447e-12 8.8558609e-42 2.533235e-28)
(2.8608993e-12 -9.7576662e-57 -9.119646e-28)
(3.455449e-12 -5.06647e-28 1.7711722e-41)
(3.7233145e-12 -4.3199321e-44 -2.026588e-28)
(3.3236706e-12 -2.533235e-28 5.06647e-28)
(3.0724689e-12 0 1.519941e-28)
(3.2967169e-12 1.013294e-28 1.013294e-28)
(3.3664866e-12 -3.546529e-28 -3.546529e-28)
(3.1030816e-12 -2.533235e-28 2.533235e-28)
(2.8723462e-12 1.013294e-28 1.013294e-28)
(2.6319104e-12 1.519941e-28 -1.519941e-28)
(2.9911685e-12 -1.013294e-28 -1.7495725e-42)
(2.6745996e-12 -1.519941e-28 -1.519941e-28)
(3.1079746e-12 3.546529e-28 -7.093058e-28)
(3.12296e-12 1.6907067e-41 1.6907067e-41)
(2.6713511e-12 -3.039882e-28 -3.039882e-28)
(2.8348071e-12 0 -2.026588e-28)
(2.6129199e-12 3.546529e-28 -1.2347806e-41)
(2.7187063e-12 6.079764e-28 -2.1081269e-41)
(2.6200922e-12 -7.093058e-28 2.4695612e-41)
(2.6292576e-12 -1.7567724e-41 1.013294e-27)
(2.598587e-12 -5.3113937e-42 -5.3113937e-42)
(2.0955565e-12 -2.026588e-28 -2.026588e-28)
(2.0020814e-12 -3.039882e-28 -6.079764e-28)
(2.4591718e-12 0 -1.519941e-28)
(2.3192551e-12 5.06647e-29 -5.06647e-29)
(2.3650048e-12 -2.026588e-28 -1.4054179e-41)
(2.2587653e-12 2.026588e-28 -4.053176e-28)
(2.337117e-12 -1.013294e-28 2.8799547e-44)
(2.7957464e-12 2.5919593e-43 -1.2959796e-43)
(2.6008368e-12 6.586411e-28 -1.3172849e-55)
(2.0180198e-12 -3.039882e-28 -3.039882e-28)
(1.8439283e-12 5.06647e-29 3.5135448e-42)
(1.5861181e-12 1.4111778e-41 2.8223557e-41)
(1.7551576e-12 3.039882e-28 3.039882e-28)
(2.3392113e-12 1.013294e-28 1.013294e-28)
(2.1666964e-12 -5.06647e-28 -5.06647e-28)
(1.9378142e-12 -3.039882e-28 -1.0540634e-41)
(1.9516236e-12 -1.013294e-28 -1.013294e-28)
(2.0094006e-12 0 2.026588e-28)
(1.9401855e-12 0 -4.3199321e-44)
(1.9639121e-12 -2.026588e-28 -2.026588e-28)
(2.0476213e-12 -1.519941e-28 0)
(2.025075e-12 -1.519941e-28 -1.519941e-28)
(1.8604815e-12 -4.559823e-28 -3.1557104e-41)
(1.8460148e-12 5.06647e-29 1.013294e-28)
(1.7863874e-12 -2.4594814e-41 3.546529e-28)
(1.7783424e-12 5.06647e-28 -1.4399774e-43)
(2.1879856e-12 -5.06647e-28 -5.06647e-28)
(2.1691396e-12 -2.533235e-28 2.533235e-28)
(2.2727482e-12 0 2.026588e-28)
(1.9610046e-12 5.06647e-29 5.06647e-29)
(2.064358e-12 4.053176e-28 -1.6888055e-40)
(2.0000425e-12 0 -1.4054179e-41)
(2.4071425e-12 1.519941e-28 -1.519941e-28)
(2.0474645e-12 -3.039882e-28 -6.079764e-28)
(1.8211736e-12 0 0)
(2.0966205e-12 1.519941e-28 -1.0540634e-41)
(2.0957404e-12 6.3243806e-41 -6.3243806e-41)
(1.9991428e-12 -2.533235e-28 2.533235e-28)
(1.9016336e-12 1.519941e-28 1.519941e-28)
(2.1791152e-12 2.533235e-28 1.7459726e-41)
(2.0396356e-12 -3.546529e-28 -3.546529e-28)
(2.0909883e-12 -1.0497435e-41 1.519941e-28)
(1.9139584e-12 -1.0454236e-41 -1.0454236e-41)
(1.9943729e-12 -8.6398642e-44 -8.6398642e-44)
(2.2910946e-12 -3.039882e-28 -4.2119338e-41)
(1.6582212e-12 2.049197e-41 4.0983941e-41)
(1.5111046e-12 -4.2162538e-41 3.039882e-28)
(1.838867e-12 6.9694905e-42 1.013294e-28)
(1.8281086e-12 1.0454236e-41 1.0454236e-41)
(2.0939622e-12 -3.039882e-28 -2.0951671e-41)
(1.7929315e-12 0 9.480091e-41)
(1.9012034e-12 0 -2.4494015e-41)
(1.6813454e-12 5.06647e-29 5.06647e-29)
(1.5387348e-12 -3.039882e-28 0)
(1.4875413e-12 0 0)
(1.5570993e-12 0 0)
(1.8252928e-12 -2.026588e-28 0)
(1.6727079e-12 1.9515332e-56 2.026588e-28)
(1.7028934e-12 2.026588e-28 -4.2248936e-41)
(1.7601946e-12 0 -5.06647e-29)
(2.3799896e-12 -3.039882e-28 -3.039882e-28)
(2.4060125e-12 2.533235e-28 2.533235e-28)
(2.2274858e-12 -2.8079559e-41 -1.013294e-28)
(2.4094718e-12 -2.026588e-28 -2.026588e-28)
(2.9344907e-12 1.519941e-28 -1.0519035e-41)
(3.1718379e-12 -1.0519035e-41 -1.0519035e-41)
(2.77143e-12 -5.7599095e-44 -4.053176e-28)
(3.0188854e-12 -7.093058e-28 -7.093058e-28)
(3.2824673e-12 4.559823e-28 4.559823e-28)
(3.2886337e-12 -1.4399774e-44 0)
(3.3918732e-12 5.1244117e-55 -3.6190386e-42)
(2.8374827e-12 7.0126898e-42 7.0126898e-42)
(2.8894847e-12 5.06647e-29 5.06647e-29)
(3.2857443e-12 0 3.546529e-28)
(3.3324479e-12 -4.559823e-28 -6.3503002e-41)
(3.4075046e-12 -2.1038069e-41 -3.039882e-28)
(3.5442038e-12 2.8122758e-41 -2.026588e-28)
(3.2112293e-12 3.039882e-28 3.039882e-28)
(3.2465423e-12 0 2.026588e-28)
(2.8738478e-12 -3.546529e-28 -3.546529e-28)
(2.8484302e-12 -4.559823e-28 4.559823e-28)
(2.7495347e-12 0 0)
(2.6330224e-12 0 0)
(2.4516891e-12 0 0)
(2.0563526e-12 -1.013294e-28 -1.013294e-28)
(2.6162139e-12 -7.0126898e-42 1.013294e-28)
(2.6863414e-12 3.546529e-28 7.093058e-28)
(2.9047107e-12 0 -3.039882e-28)
(2.9799401e-12 0 2.1124468e-41)
(3.1856647e-12 -5.06647e-28 -5.06647e-28)
(3.0748549e-12 -3.039882e-28 -3.039882e-28)
(3.0033323e-12 2.026588e-28 4.053176e-28)
(3.3325507e-12 3.546529e-28 -1.0079842e-43)
(3.5708458e-12 0 8.6398642e-44)
(3.3432475e-12 2.026588e-28 2.026588e-28)
(2.8486944e-12 4.559823e-28 4.559823e-28)
(3.3483708e-12 -1.519941e-28 -3.039882e-28)
(3.367611e-12 5.06647e-29 -7.1998869e-45)
(3.1765114e-12 0 -1.0555034e-41)
(3.2400011e-12 2.026588e-28 2.026588e-28)
(2.984207e-12 -7.0342895e-41 -1.4068579e-40)
(3.1860475e-12 3.5135448e-42 7.0270896e-42)
(3.5215264e-12 -1.519941e-28 -1.519941e-28)
(3.3565021e-12 -5.06647e-29 -5.06647e-29)
(2.995797e-12 1.519941e-28 0)
(3.4243587e-12 0 5.06647e-29)
(3.4062355e-12 9.3448012e-42 9.3448012e-42)
(3.5384521e-12 1.4082979e-41 -1.013294e-28)
(3.496623e-12 3.546529e-28 -3.546529e-28)
(3.3201376e-12 7.7297985e-41 0)
(3.5369485e-12 -6.079764e-28 -3.039882e-28)
(3.0676482e-12 3.546529e-28 3.546529e-28)
(3.0483319e-12 -2.8108358e-41 2.026588e-28)
(3.1506314e-12 5.2767971e-41 5.2767971e-41)
(3.2207769e-12 3.1557104e-41 9.119646e-28)
(3.6982501e-12 4.053176e-28 8.106352e-28)
(3.5241322e-12 -2.026588e-28 -6.079764e-28)
(3.6013714e-12 -1.519941e-28 -3.039882e-28)
(3.8761614e-12 0 0)
(3.923473e-12 3.039882e-28 6.079764e-28)
(3.6426385e-12 2.026588e-28 2.026588e-28)
(3.7358901e-12 0 5.06647e-29)
(4.2154215e-12 -3.546529e-28 -3.546529e-28)
(4.0118134e-12 -6.586411e-28 -6.586411e-28)
(4.0179097e-12 8.106352e-28 8.106352e-28)
(3.7435716e-12 -1.013294e-28 -2.026588e-28)
(3.540461e-12 2.026588e-28 2.026588e-28)
(3.3730867e-12 3.546529e-28 7.093058e-28)
(3.3925446e-12 2.1081269e-40 2.1081269e-40)
(3.3998579e-12 -3.546529e-28 -7.093058e-28)
(3.834299e-12 -2.7155289e-42 -2.7155289e-42)
(3.414991e-12 3.5135448e-42 7.0270896e-42)
(3.2381e-12 2.6617841e-42 2.655886e-42)
(3.7846643e-12 -5.06647e-29 -1.013294e-28)
(3.6957567e-12 -3.5207447e-42 -5.06647e-29)
(3.928987e-12 2.8223557e-41 5.6447113e-41)
(4.0630592e-12 -1.0079842e-43 3.546529e-28)
(4.2973189e-12 -1.7495725e-41 -2.533235e-28)
(4.0827605e-12 -1.013294e-28 -1.013294e-28)
(3.9345958e-12 0 7.093058e-28)
(3.9272737e-12 0 -2.1138868e-41)
(3.9500069e-12 3.039882e-28 -6.079764e-28)
(4.3638721e-12 4.053176e-28 8.106352e-28)
(4.0177997e-12 0 1.0519035e-41)
(3.9795607e-12 0 1.013294e-28)
(3.9286835e-12 0 0)
(3.6815602e-12 0 0)
(3.6056331e-12 -1.013294e-28 -1.013294e-28)
(3.4045203e-12 -6.9838903e-42 1.013294e-28)
(4.0354126e-12 3.039882e-28 3.039882e-28)
(3.8847605e-12 -1.9439695e-43 -4.559823e-28)
(3.6621744e-12 -1.519941e-28 4.3199321e-44)
(3.4641759e-12 5.06647e-28 5.06647e-28)
(3.449864e-12 -4.9240026e-41 3.546529e-28)
(3.663469e-12 1.4039779e-41 1.013294e-28)
(3.773723e-12 -1.4399774e-44 0)
(3.3963822e-12 5.06647e-29 5.06647e-29)
(3.376053e-12 1.519941e-28 1.519941e-28)
(3.6515573e-12 -1.013294e-28 0)
(3.6951661e-12 -2.026588e-28 -2.026588e-28)
(3.7046401e-12 -7.599705e-28 -2.533235e-28)
(3.8287464e-12 2.533235e-28 5.06647e-28)
(3.9917287e-12 4.053176e-28 -1.402538e-41)
(3.8102756e-12 0 -5.7599095e-44)
(3.7364411e-12 1.519941e-28 1.519941e-28)
(3.7120847e-12 -2.026588e-28 -2.026588e-28)
(3.373944e-12 -5.06647e-29 -5.06647e-29)
(3.1396312e-12 8.6398642e-44 3.039882e-28)
(3.2833696e-12 -4.3199321e-44 -1.013294e-28)
(3.5755784e-12 2.8799547e-44 5.7599095e-44)
(3.6596565e-12 1.013294e-28 2.026588e-28)
(3.4668352e-12 1.013294e-28 -1.013294e-28)
(3.573207e-12 2.026588e-28 2.026588e-28)
(3.9775905e-12 1.1146234e-27 5.573117e-28)
(3.8000193e-12 -2.533235e-28 3.5135448e-41)
(3.2556249e-12 4.8788331e-57 -5.06647e-29)
(3.3923195e-12 -5.06647e-29 0)
(3.6253043e-12 1.4039779e-41 0)
(3.9430182e-12 2.026588e-28 1.013294e-28)
(3.7612125e-12 0 -1.4068579e-41)
(3.6912264e-12 0 -8.4368274e-41)
(3.6849142e-12 5.06647e-28 -3.5207447e-41)
(3.9444836e-12 1.6882295e-40 -3.039882e-28)
(3.9573762e-12 1.1146234e-27 5.573117e-28)
(3.9463241e-12 0 -7.1998869e-44)
(3.5536787e-12 5.06647e-29 5.06647e-29)
(3.6744061e-12 2.026588e-28 0)
(3.46577e-12 5.06647e-29 0)
(3.5220123e-12 3.5999434e-44 0)
(3.4018722e-12 -1.4068579e-41 0)
(3.4342814e-12 -7.1998869e-45 0)
(3.5660004e-12 5.06647e-29 0)
(3.129504e-12 2.026588e-28 0)
(3.1172189e-12 2.533235e-28 2.533235e-28)
(3.1982773e-12 0 0)
(2.8976797e-12 4.053176e-28 4.053176e-28)
(2.6126107e-12 -7.0342895e-42 0)
(2.5980999e-12 1.519941e-28 1.519941e-28)
(2.7993682e-12 2.026588e-28 -2.8108358e-41)
(2.9294632e-12 -7.0270896e-41 2.533235e-28)
(2.9219457e-12 5.06647e-29 0)
(2.8607657e-12 -1.1585082e-53 0)
(2.3479659e-12 -4.053176e-28 -2.026588e-28)
(2.9863576e-12 1.3163134e-41 -1.0708729e-54)
(3.2770547e-12 -4.053176e-28 -4.053176e-28)
(2.9606449e-12 4.559823e-28 0)
(2.6267655e-12 -1.4399774e-44 0)
(2.3356249e-12 -5.06647e-28 -5.06647e-28)
(2.3001047e-12 0 -4.559823e-28)
(2.6381693e-12 0 -1.013294e-28)
(2.5527642e-12 -6.079764e-28 -6.079764e-28)
(2.6226291e-12 3.5135448e-41 0)
(3.1269254e-12 1.013294e-28 5.06647e-29)
(2.8416986e-12 -2.1599661e-44 -2.1599661e-44)
(2.7960578e-12 -1.519941e-28 -5.06647e-29)
(2.95054e-12 -1.519941e-28 -1.519941e-28)
(2.7969253e-12 -2.026588e-28 -2.026588e-28)
(3.3053803e-12 -4.053176e-28 -2.026588e-28)
(3.3333724e-12 1.519941e-28 -1.519941e-28)
(3.1010679e-12 3.039882e-28 0)
(3.2285378e-12 -1.013294e-28 5.06647e-29)
(3.8099807e-12 5.06647e-28 5.06647e-28)
(3.7913567e-12 7.093058e-28 -7.093058e-28)
(3.6010815e-12 6.586411e-28 -6.586411e-28)
(3.6847773e-12 -5.06647e-29 0)
(3.2691043e-12 3.9030665e-56 -4.0294239e-42)
(3.296019e-12 1.519941e-28 1.519941e-28)
(3.0149884e-12 1.013294e-28 1.013294e-28)
(2.6689274e-12 -4.053176e-28 4.053176e-28)
(2.8066215e-12 5.06647e-28 0)
(2.6984095e-12 9.8278456e-41 0)
(2.97702e-12 5.7599095e-44 0)
(3.2316008e-12 -2.026588e-28 0)
(3.3458808e-12 1.4186116e-27 0)
(3.3836961e-12 -4.559823e-28 0)
(2.9683484e-12 -4.2205737e-41 0)
(3.4990426e-12 2.8108358e-41 0)
(3.2905705e-12 3.8915454e-42 3.8915454e-42)
(2.8660187e-12 4.053176e-28 -3.1224532e-55)
(2.9106945e-12 -4.559823e-28 -1.519941e-28)
(2.4705399e-12 -1.4054179e-41 0)
(2.2278913e-12 1.1243343e-40 0)
(2.0754178e-12 7.0198897e-41 0)
(2.3549719e-12 -1.013294e-27 -5.06647e-28)
(2.8044847e-12 1.013294e-28 -7.0270896e-42)
(2.6597432e-12 -4.2162538e-41 1.519941e-28)
(2.3969306e-12 -7.093058e-28 -3.546529e-28)
(3.1561873e-12 0 2.1102868e-41)
(3.2977431e-12 0 -7.1998869e-45)
(3.157933e-12 1.519941e-28 -2.1102868e-41)
(3.3678095e-12 -3.5135448e-41 2.533235e-28)
(3.2986581e-12 -2.026588e-28 -2.026588e-28)
(3.2621842e-12 1.1756335e-41 -1.1732743e-41)
(3.2998138e-12 -1.013294e-28 5.6303115e-41)
(3.1253694e-12 1.2159528e-27 -4.053176e-28)
(3.3655456e-12 -3.039882e-28 3.039882e-28)
(3.0872891e-12 2.026588e-28 0)
(2.6763299e-12 -4.3199321e-44 0)
(2.6276218e-12 -3.039882e-28 -3.039882e-28)
(2.5195119e-12 0 -7.0342895e-42)
(2.9544693e-12 2.7594343e-55 1.3797172e-55)
(2.7751796e-12 3.039882e-28 -1.519941e-28)
(2.8561764e-12 -3.039882e-28 -3.039882e-28)
(2.8951728e-12 -3.039882e-28 0)
(2.6302162e-12 -2.026588e-28 2.026588e-28)
(2.3975546e-12 9.119646e-28 4.559823e-28)
(2.6828251e-12 2.026588e-28 -1.013294e-28)
(2.516105e-12 4.053176e-28 5.6245516e-41)
(2.1355314e-12 8.2431677e-43 -3.9030665e-56)
(2.5406992e-12 0 2.1102868e-41)
(2.2684811e-12 -3.039882e-28 -1.519941e-28)
(2.277499e-12 5.06647e-29 5.06647e-29)
(2.569905e-12 4.053176e-28 2.2385041e-68)
(2.8378914e-12 1.4928264e-41 -2.0901404e-54)
(2.2742985e-12 2.533235e-28 -2.533235e-28)
(2.7893267e-12 -2.1599661e-44 0)
(2.4139365e-12 2.1102868e-41 0)
(2.3242089e-12 -5.06647e-29 -5.06647e-29)
(2.6089918e-12 5.06647e-29 -7.1998869e-45)
(2.332164e-12 -2.533235e-28 -1.0540634e-40)
(2.6016409e-12 1.013294e-28 1.013294e-28)
(2.4540011e-12 1.0676361e-54 0)
(2.3732012e-12 2.8799547e-44 0)
(2.3484664e-12 3.5135448e-41 2.533235e-28)
(2.5570979e-12 -2.3665442e-41 6.5702756e-54)
(2.6689977e-12 1.519941e-28 1.519941e-28)
(2.9467642e-12 -2.1102868e-41 0)
(2.9413978e-12 4.9240026e-41 0)
(3.3013955e-12 1.1249103e-40 0)
(3.4387407e-12 -1.013294e-28 -1.013294e-28)
(2.9167149e-12 4.559823e-28 6.4798982e-44)
(2.9262215e-12 -1.4068579e-41 1.013294e-28)
(3.4789986e-12 8.4281876e-41 3.039882e-28)
(3.2886685e-12 3.5999434e-44 -2.533235e-28)
(3.6293049e-12 5.06647e-28 7.0414894e-41)
(3.7253339e-12 5.06647e-28 1.013294e-27)
(3.7729194e-12 -6.079764e-28 -6.079764e-28)
(3.4675616e-12 -7.093058e-28 -1.4772008e-40)
(3.3777329e-12 -5.6274316e-41 5.6274316e-41)
(3.63576e-12 -1.013294e-27 -7.0342895e-41)
(3.6136057e-12 5.06647e-29 5.06647e-29)
(3.6061566e-12 -3.6153792e-41 0)
(3.3096752e-12 5.06647e-29 0)
(3.5315978e-12 1.013294e-28 -1.013294e-28)
(3.8581881e-12 3.546529e-28 -4.9240026e-41)
(3.7932064e-12 1.1249103e-40 1.1249103e-40)
(4.2083567e-12 -7.093058e-28 3.9030665e-56)
(4.2313687e-12 0 9.626293e-28)
(4.2813679e-12 0 -1.0639587e-27)
(4.1422551e-12 -7.599705e-28 -7.599705e-28)
(3.5090158e-12 0 0)
(3.4440309e-12 -1.013294e-28 -1.013294e-28)
(3.4288855e-12 3.546529e-28 -4.9240026e-41)
(3.6364177e-12 5.0399208e-44 3.546529e-28)
(3.6406559e-12 -7.0306895e-41 0)
(3.7577965e-12 0 0)
(3.6485288e-12 -5.06647e-29 -5.06647e-29)
(3.6328086e-12 -5.06647e-29 -1.4399774e-44)
(3.6019942e-12 -1.013294e-28 9.7576662e-57)
(3.6149044e-12 8.106352e-28 4.053176e-28)
(3.6992992e-12 3.546529e-28 -3.546529e-28)
(3.3709827e-12 -2.026588e-28 2.8079559e-41)
(3.5508083e-12 0 -2.1102868e-41)
(3.6980499e-12 0 4.2184137e-41)
(3.2211555e-12 -1.013294e-28 -1.013294e-28)
(2.9843327e-12 7.0378894e-41 2.533235e-28)
(3.3899053e-12 -5.06647e-29 1.4068579e-41)
(2.8924642e-12 0 1.4075779e-41)
(2.6508273e-12 0 -1.1260623e-40)
(2.7622139e-12 -2.026588e-28 -2.026588e-28)
(3.3640269e-12 -1.4777048e-40 -3.546529e-28)
(3.5315992e-12 -4.559823e-28 1.2661721e-40)
(3.2544224e-12 0 -7.7535582e-41)
(3.5087996e-12 0 0)
(3.2944685e-12 0 -1.013294e-28)
(3.7230463e-12 0 1.013294e-28)
(3.6574251e-12 0 -2.1102868e-41)
(3.6962615e-12 0 2.1599661e-44)
(3.9442152e-12 0 -3.5171447e-41)
(3.9354172e-12 0 6.3373404e-41)
(4.0266237e-12 4.053176e-28 2.026588e-28)
(4.0807215e-12 -5.6245516e-41 1.013294e-28)
(4.2552697e-12 4.559823e-28 4.559823e-28)
(4.5183914e-12 -6.586411e-28 -6.586411e-28)
(5.0456145e-12 7.093058e-28 -7.093058e-28)
(5.4019327e-12 -9.626293e-28 0)
(5.2234634e-12 1.971617e-40 7.093058e-28)
(4.9060882e-12 2.026588e-28 2.026588e-28)
(5.1895967e-12 -8.5498396e-55 0)
(5.4413605e-12 1.013294e-28 -1.013294e-28)
(5.4594285e-12 0 5.6274316e-41)
(6.0518323e-12 0 -7.9198756e-44)
(6.332137e-12 -1.0639587e-27 -1.4756888e-40)
(6.9050965e-12 -4.2205737e-40 1.519941e-27)
(7.3378571e-12 1.5706057e-27 -1.5706057e-27)
(7.7770435e-12 0 -2.670294e-40)
(8.4690385e-12 0 6.4715463e-40)
(9.5522015e-12 0 2.4825703e-27)
(1.0047475e-11 0 2.2799115e-27)
(1.01642e-11 0 -4.6611524e-27)
(1.1042497e-11 0 3.6719423e-43)
(1.1898486e-11 0 -3.7946284e-40)
(1.2617054e-11 -6.1810934e-27 -3.0905467e-27)
(1.3989813e-11 3.0367395e-39 3.6478584e-27)
(1.5207749e-11 8.2076814e-27 -5.6977745e-40)
(1.6130892e-11 -4.4584936e-27 -4.4584936e-27)
(1.7207583e-11 -7.0558891e-43 0)
(1.8533343e-11 -5.573117e-27 0)
(2.0336407e-11 3.2027113e-39 0)
(2.2359466e-11 1.2564846e-26 6.2824228e-27)
(2.4492463e-11 7.3463815e-27 7.3463815e-27)
(2.6716943e-11 -1.9515332e-56 -8.0050226e-27)
(2.9093507e-11 -2.6598967e-26 -8.8663225e-27)
(3.1793057e-11 0 0)
(3.5088787e-11 2.188715e-26 1.0943575e-26)
(3.8751884e-11 0 1.1956869e-26)
(4.2244108e-11 0 -1.3020828e-26)
(4.6427594e-11 -2.9081538e-26 -1.4540769e-26)
(5.0896763e-11 4.5535541e-39 0)
(5.6048321e-11 5.4109899e-26 1.8036633e-26)
(6.1580282e-11 -1.9455245e-26 1.9455245e-26)
(6.7992669e-11 -2.1532497e-26 -2.1532497e-26)
(7.4826396e-11 2.3660415e-26 -6.5700264e-39)
(8.1895854e-11 -2.5889662e-26 2.5889662e-26)
(8.9728995e-11 2.8524226e-26 0)
(9.873168e-11 8.6995369e-39 0)
(1.0831032e-10 -3.4401331e-26 0)
(1.1907975e-10 3.7846531e-26 0)
(1.3037177e-10 0 -4.1595718e-26)
(1.429345e-10 4.5800889e-26 1.2704978e-38)
(1.5789e-10 -5.0158053e-26 5.0158053e-26)
(1.7297173e-10 -1.1014506e-25 -5.5072529e-26)
(1.8993935e-10 6.1050963e-26 -8.4763188e-39)
(2.0857056e-10 6.6877404e-26 9.294766e-39)
(2.2964529e-10 7.3058497e-26 3.2200299e-55)
(2.526658e-10 8.0455543e-26 -8.0455543e-26)
(2.772239e-10 -1.7651581e-25 -8.8257907e-26)
(3.0503627e-10 -9.6921571e-26 1.9384314e-25)
(3.350704e-10 1.063452e-25 1.4764974e-38)
(3.6710698e-10 0 -1.6127171e-38)
(4.032657e-10 -1.2772571e-25 1.2772571e-25)
(4.4227679e-10 1.4008789e-25 0)
(4.850748e-10 1.5331138e-25 -1.5331138e-25)
(5.3216072e-10 -5.047724e-25 -1.6825747e-25)
(5.8388781e-10 -5.2472776e-41 1.8462217e-25)
(6.4066965e-10 4.0460829e-25 5.6118337e-38)
(7.0289342e-10 -2.214554e-25 -2.214554e-25)
(7.7106127e-10 -3.3645007e-38 0)
(8.4555861e-10 -2.6543236e-25 0)
(9.2773871e-10 8.2597102e-41 2.9061272e-25)
(1.0173344e-09 6.3655129e-25 -4.4144177e-38)
(1.1151245e-09 -3.4826915e-25 -3.4826915e-25)
(1.2219068e-09 0 0)
(1.3394244e-09 1.1571406e-37 4.1671716e-25)
(1.4681381e-09 6.4849381e-41 -6.4849381e-41)
(1.6085578e-09 4.9919929e-25 1.3861771e-37)
(1.7622157e-09 -5.4581081e-25 7.5702836e-38)
(1.9301782e-09 1.657982e-37 -5.9708349e-25)
(2.1142068e-09 9.0487833e-38 6.5240934e-25)
(2.3152757e-09 1.0137441e-40 -1.0137441e-40)
(2.5343523e-09 7.8013505e-25 2.1662798e-37)
(2.7739458e-09 -8.5228158e-25 8.5228158e-25)
(3.0362333e-09 3.9567337e-54 -9.3096386e-25)
(3.3231113e-09 2.8239859e-37 -2.8239859e-37)
(3.6364179e-09 1.5782872e-40 -1.5782872e-40)
(3.9777722e-09 2.4249139e-24 1.6833758e-37)
(4.3507168e-09 1.8361082e-37 1.3238179e-24)
(4.7576334e-09 -1.4452612e-24 -1.4452612e-24)
(5.2021293e-09 0 0)
(5.6873967e-09 0 9.5549028e-37)
(6.2161176e-09 1.8776338e-24 2.6042394e-37)
(6.7938329e-09 8.5225245e-37 8.5225245e-37)
(7.4238742e-09 -2.2341106e-24 3.1748621e-40)
(8.1103266e-09 2.4363641e-24 2.4363641e-24)
(8.8595564e-09 -3.6890628e-37 -2.6570595e-24)
(9.6755061e-09 4.7949172e-53 4.7949172e-53)
(1.0564905e-08 4.3827844e-37 4.3827844e-37)
(1.1535419e-08 -3.4398798e-24 -9.5518617e-37)
(1.2592387e-08 -3.7480225e-24 5.2037563e-37)
(1.3742789e-08 -5.662991e-37 -8.1659336e-24)
(1.4996594e-08 4.44679e-24 4.44679e-24)
(1.6362229e-08 0 4.8418227e-24)
(1.7849422e-08 0 7.3187561e-37)
(1.9468403e-08 -5.7378786e-24 -7.9664735e-37)
(2.1229917e-08 6.2450829e-24 -1.2490166e-23)
(2.3147653e-08 -5.6579096e-36 6.7965175e-24)
(2.5233695e-08 -7.3945129e-24 7.3945129e-24)
(2.750358e-08 8.0437304e-24 3.2561332e-53)
(2.9971932e-08 0 0)
(3.2656456e-08 -9.5130573e-24 3.8284203e-53)
(3.5576276e-08 -1.0342388e-23 1.0342388e-23)
(3.8749324e-08 1.1242396e-23 -1.1242396e-23)
(4.2198703e-08 1.2218704e-23 4.8924939e-53)
(4.5947148e-08 0 1.8415261e-36)
(5.0020856e-08 -1.4424949e-23 2.0499086e-39)
(5.4445113e-08 -1.5669477e-23 1.5669477e-23)
(5.925086e-08 3.4037153e-23 -3.4037153e-23)
(6.4470263e-08 1.8480152e-23 -5.1315704e-36)
(7.0136246e-08 -2.0063322e-23 2.0063322e-23)
(7.6287509e-08 -2.177812e-23 -3.0205804e-36)
(8.2964662e-08 -3.2781162e-36 3.2781162e-36)
(9.0210493e-08 -2.5645914e-23 -2.5645914e-23)
(9.807101e-08 -7.7260134e-36 2.7823432e-23)
(1.0659815e-07 6.0359694e-23 -4.7164656e-52)
(1.1584694e-07 0 1.363721e-35)
(1.2587588e-07 0 -9.8596186e-36)
(1.3675004e-07 0 1.0677944e-35)
(1.4853789e-07 -4.1702317e-23 1.1579904e-35)
(1.6131317e-07 -4.5194077e-23 1.7469638e-52)
(1.7515696e-07 0 0)
(1.9015534e-07 5.3049386e-23 -5.3049386e-23)
(2.0640212e-07 7.961292e-36 0)
(2.2399757e-07 -6.2224256e-23 0)
(2.4305023e-07 0 6.7372347e-23)
(2.6367701e-07 0 2.0252099e-35)
(2.8600413e-07 7.8938439e-23 -7.8938439e-23)
(3.1016776e-07 1.1847926e-35 0)
(3.363141e-07 -1.2805627e-35 0)
(3.6459908e-07 9.9977159e-23 1.9995432e-22)
(3.9519352e-07 -1.0812992e-22 9.0015116e-35)
(4.2827988e-07 4.8652174e-35 -2.3385194e-22)
(4.6405461e-07 1.2641511e-22 1.2641511e-22)
(5.0272888e-07 0 -1.9418988e-38)
(5.4452933e-07 1.4768365e-22 2.0504405e-35)
(5.8970102e-07 2.2156084e-35 1.5957992e-22)
(6.3850697e-07 -1.7240336e-22 0)
(6.9122902e-07 1.8622231e-22 0)
(7.4817107e-07 -2.011114e-22 0)
(8.0965998e-07 -2.1715098e-22 2.1715098e-22)
(8.7604671e-07 2.3442653e-22 6.5028954e-35)
(9.4770746e-07 0 -2.5302969e-22)
(1.0250473e-06 -2.7305821e-22 0)
(1.108501e-06 -2.9461695e-22 0)
(1.1985344e-06 3.1781835e-22 3.1781835e-22)
(1.2956478e-06 3.4278333e-22 -4.871244e-38)
(1.4003799e-06 0 -3.6964028e-22)
(1.5133068e-06 3.9852716e-22 0)
(1.6350458e-06 -4.2959096e-22 0)
(1.7662612e-06 -4.6298923e-22 4.6298923e-22)
(1.9076636e-06 4.9889008e-22 1.3839006e-34)
(2.0600152e-06 1.074947e-21 1.4932207e-34)
(2.2241337e-06 -3.215163e-34 -1.6075815e-34)
(2.4008939e-06 -1.8704195e-21 -6.2347316e-22)
(2.5912341e-06 2.3855982e-51 6.713133e-22)
(2.7961594e-06 7.2268822e-22 -2.0057344e-34)
(3.0167442e-06 1.5556948e-21 2.158822e-34)
(3.2541407e-06 -4.64393e-34 -2.321965e-34)
(3.5095831e-06 -1.8012118e-21 -9.0060588e-22)
(3.7843905e-06 9.6879398e-22 0)
(4.0799749e-06 -1.0419472e-21 0)
(4.3978462e-06 1.1204113e-21 1.1204113e-21)
(4.7396212e-06 1.2045546e-21 -1.0481624e-49)
(5.1070254e-06 -2.5895401e-21 -1.2947701e-21)
(5.5019057e-06 0 0)
(5.9262379e-06 0 0)
(6.3821301e-06 3.2123629e-21 1.6061815e-21)
(6.8718373e-06 -4.7403875e-50 -9.480775e-50)
(7.3977643e-06 -3.7051869e-21 -1.8525934e-21)
(7.9624831e-06 0 0)
(8.5687396e-06 0 0)
(9.2194617e-06 4.5831386e-21 2.2915693e-21)
(9.9177774e-06 -6.6657469e-50 -1.3331494e-49)
(1.0667025e-05 -5.2761074e-21 -2.6380537e-21)
(1.1470761e-05 0 0)
(1.2332782e-05 0 0)
(1.3257139e-05 6.5074426e-21 3.2537213e-21)
(1.4248144e-05 3.4880102e-21 -4.9567606e-37)
(1.5310399e-05 -7.4768873e-21 -3.7384436e-21)
(1.6448804e-05 -4.0060796e-21 4.0060796e-21)
(1.7668581e-05 0 -1.1924242e-33)
(1.8975293e-05 9.195037e-21 1.2772928e-33)
(2.0374863e-05 -2.7344706e-33 -1.3672353e-33)
(2.1873597e-05 -1.0544323e-20 -5.2721613e-21)
(2.3478206e-05 5.6440901e-21 0)
(2.5195836e-05 0 0)
(2.7034085e-05 -6.4647158e-21 0)
(2.900104e-05 6.9167067e-21 0)
(3.1105298e-05 -1.0514392e-36 0)
(3.3356001e-05 -7.9130365e-21 7.9130365e-21)
(3.5762866e-05 8.4612944e-21 -2.3483307e-33)
(3.8336222e-05 -9.045755e-21 -9.045755e-21)
(4.1087043e-05 -9.6686767e-21 0)
(4.4026985e-05 1.0332451e-20 0)
(4.716843e-05 1.103961e-20 0)
(5.0524522e-05 -3.274634e-33 0)
(5.4109221e-05 -1.259494e-20 0)
(5.7937334e-05 1.3448935e-20 0)
(6.2024577e-05 3.9869244e-33 0)
(6.6387623e-05 -1.5325409e-20 1.5325409e-20)
(7.1044155e-05 1.6354762e-20 -9.0781359e-33)
(7.6012924e-05 -1.7449768e-20 -1.7449768e-20)
(8.1313803e-05 -1.8614364e-20 0)
(8.696786e-05 1.9852708e-20 0)
(9.2997417e-05 2.1169189e-20 0)
(9.9426124e-05 -6.2668057e-33 0)
(0.00010627903 -2.4055335e-20 0)
(0.00011358264 2.5635035e-20 0)
(0.00012136505 -3.8814059e-36 0)
(0.00012965596 -2.9094851e-20 2.9094851e-20)
(0.00013848681 3.0986723e-20 -8.5999929e-33)
(0.00014789088 -3.2994933e-20 -3.2994933e-20)
(0.00015790333 -3.5126173e-20 0)
(0.00016856137 3.7387488e-20 0)
(0.00017990431 7.9572591e-20 3.9786295e-20)
(0.00019197372 -2.3520649e-32 -1.1760325e-32)
(0.00020481351 -9.0056013e-20 -4.5028007e-20)
(0.00021847007 4.7887756e-20 0)
(0.00023299238 -7.2359863e-36 0)
(0.00024843218 -1.0826093e-19 0)
(0.00026484407 -1.6351862e-35 5.7532999e-20)
(0.00028228568 6.113687e-20 1.698518e-32)
(0.00030081782 0 -6.4953146e-20)
(0.00032050461 -6.899345e-20 0)
(0.0003414137 0 0)
(0.00036361639 7.7795555e-20 0)
(0.00038718787 0 0)
(0.00041220734 0 0)
(0.00043875826 0 0)
(0.00046692854 9.8666909e-20 0)
(0.00049681073 -2.9618417e-49 1.0465274e-19)
(0.00052850228 -1.1097863e-19 -1.5771012e-35)
(0.00056210577 0 -1.1766241e-19)
(0.00059772911 -1.2472272e-19 0)
(0.00063548583 3.6703503e-32 0)
(0.00067549535 1.4005194e-19 0)
(0.0007178832 0 0)
(0.00076278136 0 0)
(0.00081032852 0 0)
(0.0008606704 1.7615067e-19 0)
(0.00091396005 -5.1772558e-32 1.8644677e-19)
(0.0009703582 -1.9730309e-19 2.8038455e-35)
(0.0010300336 0 -2.0874748e-19)
(0.0010931633 -2.2080901e-19 0)
(0.0011599332 -6.4810127e-32 0)
(0.0012305382 2.4690621e-19 0)
(0.0013051828 0 2.6100655e-19)
(0.0013840812 -2.758535e-19 -1.5315885e-31)
(0.0014674583 2.9148294e-19 -2.9148294e-19)
(0.0015555494 -1.7110086e-31 0)
(0.0016486013 -3.2524049e-19 3.2524049e-19)
(0.0017468722 3.4344813e-19 9.5417518e-32)
(0.0018506328 0 -3.6259745e-19)
(0.0019601662 3.8273242e-19 0)
(0.0020757689 1.1215465e-31 0)
(0.0021977508 -4.2614408e-19 4.2614408e-19)
(0.0023264364 0 4.4951782e-19)
(0.0024621648 -4.7407139e-19 -4.7407139e-19)
(0.0026052906 4.9985822e-19 -4.9985822e-19)
(0.0027561843 2.9263806e-31 0)
(0.0029152332 -5.5535572e-19 0)