/*--------------------------------*- C++ -*----------------------------------*\
  =========                 |
  \\      /  F ield         | OpenFOAM: The Open Source CFD Toolbox
   \\    /   O peration     | Website:  https://openfoam.org
    \\  /    A nd           | Version:  7
     \\/     M anipulation  |
\*---------------------------------------------------------------------------*/
FoamFile
{
    version     2.0;
    format      ascii;
    class       volScalarField;
    location    "0.00194";
    object      mag(U);
}
// * * * * * * * * * * * * * * * * * * * * * * * * * * * * * * * * * * * * * //

dimensions      [0 1 -1 0 0 0 0];

internalField   nonuniform List<scalar> 
5000
(
0.077536904
0.08037073
0.073935152
0.07922569
0.077776377
0.077605145
0.077461297
0.077501026
0.077604515
0.07758999
0.077580501
0.077584966
0.077589816
0.077593088
0.077596739
0.077600569
0.077604424
0.077608317
0.07761226
0.077616253
0.077620308
0.077624394
0.077628491
0.077632643
0.077636868
0.077641143
0.077645464
0.077649834
0.077654258
0.077658733
0.077663261
0.077667842
0.077672477
0.077677168
0.077681914
0.077686716
0.077691575
0.077696492
0.077701467
0.0777065
0.077711594
0.077716748
0.077721966
0.07772725
0.077732599
0.07773803
0.077743514
0.077749007
0.077754552
0.077760204
0.077765943
0.077771737
0.077777591
0.077783515
0.077789509
0.077795572
0.077801703
0.077807905
0.077814177
0.077820521
0.077826936
0.077833423
0.077839983
0.077846616
0.077853323
0.077860105
0.077866961
0.077873893
0.077880901
0.077887985
0.077895147
0.077902386
0.077909703
0.077917098
0.077924574
0.077932133
0.077939775
0.077947514
0.077955341
0.077963265
0.077971281
0.077979296
0.077987287
0.077995398
0.07800371
0.078012139
0.078020606
0.07802913
0.078037749
0.078046466
0.078055268
0.078064153
0.078073125
0.078082185
0.078091332
0.078100568
0.078109893
0.078119307
0.078128809
0.078138401
0.078148085
0.078157859
0.078167725
0.078177684
0.078187739
0.078197896
0.078208154
0.078218533
0.078229027
0.078239621
0.078250298
0.078260946
0.078271508
0.078282191
0.078293206
0.078304452
0.0783157
0.078326926
0.078338255
0.078349739
0.078361335
0.078373012
0.07838478
0.078396652
0.078408629
0.078420705
0.078432884
0.078445163
0.07845755
0.07847004
0.078482639
0.078495357
0.078508192
0.078521162
0.078534275
0.078547504
0.078560811
0.07857412
0.078587323
0.078600511
0.078613999
0.07862793
0.078642053
0.078656073
0.078670039
0.078684166
0.078698516
0.078712995
0.078727545
0.078742185
0.078756956
0.078771851
0.078786864
0.078801996
0.078817252
0.078832649
0.078848185
0.078863862
0.078879696
0.078895678
0.078911753
0.078927846
0.078943859
0.078959796
0.078975917
0.078992536
0.079009592
0.079026682
0.079043576
0.079060483
0.07907766
0.079095111
0.079112667
0.079130289
0.079148026
0.079165933
0.079184003
0.079202206
0.079220558
0.079239083
0.079257782
0.079276651
0.079295674
0.079314796
0.079333945
0.079353054
0.079372143
0.07939141
0.079411142
0.079431375
0.079451769
0.079472012
0.079492182
0.079512598
0.079533352
0.079554317
0.079575362
0.079596516
0.079617865
0.079639421
0.079661161
0.079683088
0.079705212
0.079727535
0.079750043
0.079772689
0.079795405
0.07981814
0.079840903
0.079863831
0.079887182
0.079911076
0.079935297
0.079959469
0.079983536
0.080007777
0.080032417
0.080057392
0.080082519
0.080107767
0.080133231
0.080158963
0.08018495
0.080211178
0.080237647
0.08026436
0.0802913
0.080318418
0.080345658
0.080373
0.080400489
0.080428303
0.080456668
0.080485618
0.080514831
0.080543996
0.080573199
0.080602787
0.080632916
0.080663422
0.080694134
0.08072509
0.080756413
0.080788141
0.080820246
0.08085271
0.080885539
0.080918736
0.080952278
0.080986136
0.081020307
0.081054843
0.081089861
0.081125527
0.081161902
0.081198811
0.081236016
0.081273511
0.081311555
0.081350351
0.081389838
0.081429869
0.081470437
0.081511658
0.081553612
0.081596301
0.081639711
0.081683856
0.081728757
0.08177443
0.081820881
0.081868157
0.081916339
0.081965549
0.08201591
0.082067435
0.082119998
0.082173495
0.08222803
0.08228385
0.082341085
0.082399681
0.08245958
0.082520856
0.082583643
0.082648029
0.082714046
0.082781727
0.082851136
0.082922342
0.08299541
0.083070423
0.083147489
0.083226749
0.08330835
0.083392386
0.08347885
0.083567715
0.083659094
0.083753238
0.083850356
0.083950504
0.084053694
0.084160042
0.084269737
0.084382951
0.084499799
0.084620391
0.084744866
0.084873386
0.085006117
0.085143233
0.085284928
0.08543141
0.08558288
0.085739506
0.085901422
0.086068784
0.086241838
0.086420883
0.08660617
0.086797885
0.086996218
0.087201422
0.08741379
0.087633597
0.087861098
0.088096555
0.088340255
0.088592507
0.088853629
0.089123954
0.089403822
0.089693581
0.089993565
0.090304097
0.090625514
0.090958213
0.091302639
0.091659218
0.092028331
0.092410368
0.092805765
0.093214998
0.093638539
0.09407685
0.094530408
0.094999715
0.095485293
0.095987681
0.096507426
0.097045092
0.097601247
0.098176461
0.098771313
0.099386419
0.10002244
0.10068003
0.10135987
0.1020626
0.1027889
0.1035395
0.10431514
0.10511657
0.10594454
0.10679982
0.10768323
0.10859559
0.10953773
0.1105105
0.11151478
0.11255144
0.11362139
0.11472556
0.11586491
0.11704042
0.11825307
0.11950384
0.12079377
0.12212391
0.12349532
0.12490911
0.12636636
0.12786821
0.12941582
0.13101035
0.13265299
0.13434496
0.13608748
0.1378818
0.13972921
0.141631
0.14358849
0.14560302
0.14767595
0.14980864
0.15200252
0.154259
0.15657952
0.15896556
0.16141859
0.16394013
0.16653171
0.16919486
0.17193116
0.1747422
0.17762958
0.18059494
0.18363992
0.18676621
0.18997548
0.19326945
0.19664984
0.20011844
0.20367701
0.20732738
0.21107138
0.21491089
0.2188478
0.22288405
0.22702154
0.23126221
0.23560796
0.24006066
0.24462217
0.24929431
0.25407892
0.25897787
0.26399312
0.26912666
0.27438054
0.27975681
0.28525748
0.29088455
0.29663994
0.30252561
0.3085436
0.31469616
0.32098552
0.32741372
0.33398254
0.34069385
0.34754997
0.35455341
0.3617064
0.36901075
0.3764683
0.38408139
0.39185259
0.39978415
0.40787778
0.41613519
0.42455857
0.43315042
0.44191299
0.45084803
0.45995727
0.46924287
0.47870724
0.48835258
0.49818064
0.50819317
0.51839223
0.52878005
0.53935877
0.55013035
0.56109677
0.57226001
0.58362197
0.59518443
0.60694938
0.61891901
0.63109544
0.64348045
0.6560756
0.66888268
0.68190384
0.69514117
0.70859624
0.7222703
0.73616482
0.75028176
0.76462313
0.77919053
0.79398521
0.80900855
0.82426231
0.83974824
0.85546782
0.87142233
0.88761317
0.90404195
0.92071013
0.93761886
0.95476927
0.9721627
0.98980073
1.0076848
1.0258159
1.0441949
1.062823
1.0817017
1.1008322
1.1202155
1.1398521
1.1597432
1.1798897
1.2002929
1.2209534
1.2418717
1.2630486
1.284485
1.3061817
1.3281394
1.3503583
1.3728391
1.3955825
1.4185891
1.4418593
1.4653935
1.489192
1.5132554
1.5375841
1.5621782
1.5870381
1.6121639
1.6375559
1.6632141
1.6891385
1.7153293
1.7417866
1.7685105
1.7955007
1.8227573
1.85028
1.8780689
1.9061237
1.9344443
1.9630303
1.9918817
2.0209982
2.0503795
2.0800254
2.1099353
2.140109
2.1705457
2.201245
2.2322063
2.263429
2.2949124
2.3266561
2.3586593
2.3909212
2.4234409
2.4562173
2.4892496
2.5225372
2.556079
2.5898743
2.6239224
2.6582228
2.6927749
2.7275779
2.7626309
2.7979329
2.8334829
2.8692796
2.905322
2.9416089
2.9781389
3.0149106
3.051923
3.0891751
3.1266657
3.164393
3.2023553
3.2405513
3.2789799
3.3176401
3.3565306
3.3956505
3.4349988
3.4745746
3.5143767
3.5544035
3.594653
3.6351233
3.6758128
3.7167203
3.7578447
3.7991849
3.8407393
3.882506
3.9244834
3.9666704
4.0090659
4.0516679
4.0944744
4.1374836
4.1806939
4.2241041
4.2677133
4.3115202
4.3555232
4.3997202
4.4441092
4.4886883
4.5334556
4.5784096
4.6235489
4.6688722
4.7143783
4.7600654
4.8059317
4.8519756
4.8981953
4.944589
4.9911547
5.0378904
5.0847946
5.1318664
5.1791045
5.2265069
5.2740714
5.321796
5.3696793
5.4177203
5.465917
5.5142674
5.5627699
5.611423
5.6602249
5.7091733
5.758266
5.807502
5.8568807
5.9064006
5.9560591
6.0058538
6.0557831
6.1058457
6.1560404
6.2063655
6.2568193
6.3073997
6.3581044
6.4089317
6.4598807
6.5109508
6.5621405
6.6134471
6.6648679
6.7164008
6.7680448
6.8197989
6.8716617
6.9236312
6.9757057
7.0278835
7.0801631
7.132543
7.1850214
7.2375963
7.2902663
7.3430296
7.3958849
7.4488304
7.5018647
7.5549859
7.6081924
7.6614827
7.7148554
7.7683091
7.8218417
7.8754513
7.9291362
7.9828953
8.0367274
8.090631
8.1446044
8.1986454
8.2527525
8.3069241
8.3611589
8.4154555
8.4698123
8.5242279
8.5787005
8.6332286
8.6878104
8.7424446
8.7971297
8.8518643
8.9066468
8.9614756
9.0163492
9.0712661
9.1262245
9.181223
9.2362604
9.2913355
9.3464465
9.4015916
9.4567692
9.511978
9.567217
9.6224846
9.6777791
9.7330986
9.7884419
9.8438079
9.8991952
9.9546023
10.010027
10.065469
10.120925
10.176395
10.231878
10.287372
10.342876
10.398387
10.453904
10.509427
10.564954
10.620483
10.676013
10.731543
10.78707
10.842595
10.898114
10.953627
11.009132
11.064629
11.120115
11.175589
11.23105
11.286497
11.341928
11.397341
11.452735
11.508109
11.563462
11.618792
11.674098
11.729377
11.78463
11.839854
11.895048
11.950212
12.005343
12.060439
12.1155
12.170525
12.225511
12.280459
12.335365
12.390229
12.44505
12.499825
12.554555
12.609237
12.66387
12.718453
12.772984
12.827462
12.881885
12.936253
12.990564
13.044817
13.099009
13.153141
13.20721
13.261215
13.315155
13.369028
13.422834
13.47657
13.530236
13.58383
13.637351
13.690797
13.744167
13.79746
13.850675
13.903809
13.956862
14.009832
14.062719
14.11552
14.168235
14.220862
14.273399
14.325846
14.378201
14.430463
14.48263
14.534701
14.586675
14.63855
14.690326
14.742001
14.793572
14.84504
14.896403
14.947659
14.998807
15.049847
15.100776
15.151593
15.202296
15.252886
15.30336
15.353717
15.403956
15.454075
15.504072
15.553948
15.6037
15.653328
15.70283
15.752204
15.80145
15.850565
15.899549
15.9484
15.997118
16.045701
16.094147
16.142456
16.190626
16.238655
16.286543
16.334288
16.38189
16.429346
16.476656
16.523817
16.57083
16.617693
16.664405
16.710963
16.757368
16.803617
16.84971
16.895646
16.941423
16.98704
17.032496
17.077789
17.122919
17.167884
17.212683
17.257315
17.301778
17.346073
17.390196
17.434149
17.477928
17.521533
17.564962
17.608216
17.651292
17.69419
17.736908
17.779446
17.821802
17.863974
17.905963
17.947767
17.989385
18.030816
18.072059
18.113112
18.153976
18.194648
18.235128
18.275415
18.315509
18.355406
18.395108
18.434613
18.473919
18.513028
18.551936
18.590644
18.62915
18.667454
18.705554
18.74345
18.781142
18.818627
18.855906
18.892978
18.929841
18.966495
19.00294
19.039174
19.075197
19.111008
19.146606
19.181991
19.217162
19.252118
19.286859
19.321384
19.355692
19.389784
19.423657
19.457313
19.490749
19.523966
19.556963
19.58974
19.622296
19.654631
19.686744
19.718635
19.750303
19.781748
19.81297
19.843968
19.874742
19.905292
19.935617
19.965717
19.995592
20.025242
20.054666
20.083864
20.112836
20.141582
20.170102
20.198395
20.226462
20.254302
20.281915
20.309302
20.336462
20.363395
20.390102
20.416582
20.442835
20.468862
20.494663
20.520237
20.545586
20.570708
20.595605
20.620276
20.644722
20.668943
20.69294
20.716712
20.74026
20.763584
20.786685
20.809563
20.832218
20.854652
20.876863
20.898854
20.920624
20.942173
20.963503
20.984615
21.005507
21.026182
21.046639
21.06688
21.086905
21.106715
21.12631
21.145692
21.16486
21.183817
21.202561
21.221095
21.239419
21.257535
21.275442
21.293141
21.310635
21.327923
21.345006
21.361886
21.378564
21.39504
21.411315
21.427391
21.443268
21.458948
21.474432
21.48972
21.504814
21.519716
21.534425
21.548944
21.563273
21.577414
21.591368
21.605135
21.618719
21.632118
21.645336
21.658372
21.671229
21.683908
21.69641
21.708735
21.720887
21.732865
21.744672
21.756308
21.767775
21.779075
21.790208
21.801177
21.811982
21.822625
21.833107
21.84343
21.853596
21.863605
21.873459
21.88316
21.892708
21.902107
21.911356
21.920457
21.929412
21.938223
21.94689
21.955416
21.963802
21.972048
21.980158
21.988131
21.99597
22.003677
22.011252
22.018697
22.026014
22.033204
22.040268
22.047209
22.054027
22.060724
22.067302
22.073761
22.080104
22.086332
22.092446
22.098448
22.10434
22.110121
22.115796
22.121363
22.126826
22.132185
22.137442
22.142598
22.147655
22.152614
22.157476
22.162243
22.166917
22.171497
22.175987
22.180387
22.184699
22.188923
22.193062
22.197117
22.201088
22.204977
22.208786
22.212516
22.216167
22.219742
22.223241
22.226666
22.230018
22.233298
22.236508
22.239648
22.242719
22.245724
22.248663
22.251536
22.254346
22.257094
22.25978
22.262405
22.264972
22.26748
22.269931
22.272326
22.274665
22.276951
22.279184
22.281364
22.283494
22.285573
22.287604
22.289586
22.291521
22.293409
22.295252
22.297051
22.298806
22.300519
22.302189
22.303818
22.305407
22.306957
22.308468
22.309942
22.311379
22.312779
22.314144
22.315474
22.31677
22.318034
22.319264
22.320463
22.321631
22.322769
22.323876
22.324955
22.326005
22.327028
22.328023
22.328992
22.329935
22.330852
22.331745
22.332614
22.333459
22.334281
22.335081
22.335858
22.336614
22.33735
22.338064
22.338759
22.339435
22.340091
22.340729
22.341349
22.341951
22.342536
22.343104
22.343657
22.344193
22.344713
22.345219
22.345709
22.346186
22.346648
22.347097
22.347533
22.347955
22.348365
22.348763
22.349149
22.349523
22.349886
22.350238
22.35058
22.350911
22.351231
22.351542
22.351844
22.352136
22.352419
22.352693
22.352959
22.353216
22.353465
22.353707
22.353941
22.354167
22.354386
22.354598
22.354803
22.355002
22.355194
22.355381
22.355561
22.355735
22.355903
22.356066
22.356224
22.356376
22.356523
22.356666
22.356804
22.356937
22.357065
22.35719
22.35731
22.357426
22.357538
22.357646
22.357751
22.357851
22.357949
22.358043
22.358134
22.358221
22.358306
22.358388
22.358466
22.358542
22.358615
22.358686
22.358754
22.35882
22.358883
22.358944
22.359003
22.35906
22.359114
22.359167
22.359218
22.359266
22.359313
22.359359
22.359402
22.359444
22.359485
22.359523
22.359561
22.359597
22.359631
22.359664
22.359696
22.359727
22.359756
22.359785
22.359812
22.359838
22.359863
22.359887
22.359911
22.359933
22.359954
22.359975
22.359994
22.360013
22.360031
22.360048
22.360065
22.360081
22.360096
22.360111
22.360125
22.360138
22.360151
22.360163
22.360174
22.360185
22.360196
22.360206
22.360216
22.360226
22.360234
22.360243
22.360251
22.360259
22.360266
22.360273
22.36028
22.360286
22.360292
22.360298
22.360303
22.360308
22.360313
22.360318
22.360323
22.360327
22.360331
22.360335
22.360338
22.360342
22.360345
22.360348
22.360351
22.360354
22.360356
22.360359
22.360361
22.360363
22.360365
22.360367
22.360369
22.360371
22.360372
22.360374
22.360375
22.360377
22.360378
22.360379
22.36038
22.360381
22.360382
22.360383
22.360384
22.360385
22.360386
22.360386
22.360387
22.360388
22.360388
22.360389
22.360389
22.36039
22.36039
22.36039
22.360391
22.360391
22.360391
22.360392
22.360392
22.360392
22.360392
22.360392
22.360393
22.360393
22.360393
22.360393
22.360393
22.360393
22.360393
22.360393
22.360393
22.360394
22.360394
22.360394
22.360394
22.360394
22.360394
22.360394
22.360394
22.360394
22.360394
22.360394
22.360394
22.360394
22.360394
22.360394
22.360394
22.360393
22.360393
22.360393
22.360393
22.360393
22.360393
22.360393
22.360393
22.360393
22.360393
22.360393
22.360392
22.360392
22.360392
22.360392
22.360392
22.360392
22.360392
22.360392
22.360391
22.360391
22.360391
22.360391
22.360391
22.360391
22.36039
22.36039
22.36039
22.36039
22.360389
22.360389
22.360389
22.360389
22.360388
22.360388
22.360388
22.360388
22.360387
22.360387
22.360387
22.360387
22.360386
22.360386
22.360386
22.360385
22.360385
22.360385
22.360385
22.360384
22.360384
22.360384
22.360383
22.360383
22.360382
22.360382
22.360382
22.360382
22.360381
22.360381
22.36038
22.36038
22.36038
22.360379
22.360379
22.360379
22.360378
22.360378
22.360377
22.360377
22.360377
22.360376
22.360376
22.360376
22.360375
22.360375
22.360374
22.360374
22.360374
22.360373
22.360373
22.360372
22.360372
22.360372
22.360371
22.360371
22.360371
22.36037
22.36037
22.360369
22.360369
22.360369
22.360368
22.360368
22.360367
22.360367
22.360367
22.360366
22.360366
22.360365
22.360365
22.360365
22.360364
22.360364
22.360364
22.360363
22.360363
22.360362
22.360362
22.360362
22.360361
22.360361
22.36036
22.36036
22.36036
22.360359
22.360359
22.360359
22.360358
22.360358
22.360357
22.360357
22.360357
22.360356
22.360356
22.360355
22.360355
22.360355
22.360354
22.360354
22.360354
22.360353
22.360353
22.360352
22.360352
22.360352
22.360351
22.360351
22.36035
22.36035
22.36035
22.360349
22.360349
22.360348
22.360348
22.360348
22.360347
22.360347
22.360346
22.360346
22.360346
22.360345
22.360345
22.360344
22.360344
22.360344
22.360343
22.360343
22.360342
22.360342
22.360342
22.360341
22.360341
22.36034
22.36034
22.36034
22.360339
22.360339
22.360338
22.360338
22.360338
22.360337
22.360337
22.360336
22.360336
22.360336
22.360335
22.360335
22.360334
22.360334
22.360334
22.360333
22.360333
22.360332
22.360332
22.360332
22.360331
22.360331
22.360331
22.36033
22.36033
22.360329
22.360329
22.360329
22.360328
22.360328
22.360328
22.360327
22.360327
22.360326
22.360326
22.360326
22.360325
22.360325
22.360325
22.360324
22.360324
22.360323
22.360323
22.360323
22.360322
22.360322
22.360322
22.360321
22.360321
22.360321
22.36032
22.36032
22.360319
22.360319
22.360319
22.360318
22.360318
22.360318
22.360317
22.360317
22.360317
22.360316
22.360316
22.360315
22.360315
22.360315
22.360314
22.360314
22.360314
22.360313
22.360313
22.360313
22.360312
22.360312
22.360312
22.360311
22.360311
22.360311
22.36031
22.36031
22.36031
22.360309
22.360309
22.360308
22.360308
22.360308
22.360308
22.360307
22.360307
22.360307
22.360306
22.360306
22.360306
22.360305
22.360305
22.360305
22.360304
22.360304
22.360304
22.360303
22.360303
22.360303
22.360302
22.360302
22.360302
22.360302
22.360301
22.360301
22.360301
22.3603
22.3603
22.3603
22.360299
22.360299
22.360299
22.360299
22.360298
22.360298
22.360298
22.360297
22.360297
22.360297
22.360297
22.360296
22.360296
22.360296
22.360296
22.360295
22.360295
22.360295
22.360295
22.360294
22.360294
22.360294
22.360294
22.360293
22.360293
22.360293
22.360293
22.360292
22.360292
22.360292
22.360292
22.360291
22.360291
22.360291
22.360291
22.36029
22.36029
22.36029
22.36029
22.36029
22.360289
22.360289
22.360289
22.360289
22.360288
22.360288
22.360288
22.360288
22.360287
22.360287
22.360287
22.360287
22.360286
22.360286
22.360286
22.360286
22.360285
22.360285
22.360285
22.360285
22.360284
22.360284
22.360284
22.360284
22.360283
22.360283
22.360283
22.360282
22.360282
22.360282
22.360282
22.360281
22.360281
22.360281
22.36028
22.36028
22.36028
22.360279
22.360279
22.360279
22.360278
22.360278
22.360278
22.360277
22.360277
22.360277
22.360276
22.360276
22.360276
22.360275
22.360275
22.360274
22.360274
22.360274
22.360273
22.360273
22.360272
22.360272
22.360272
22.360271
22.360271
22.36027
22.36027
22.36027
22.360269
22.360269
22.360268
22.360268
22.360267
22.360267
22.360267
22.360266
22.360266
22.360265
22.360265
22.360264
22.360264
22.360263
22.360263
22.360262
22.360262
22.360262
22.360261
22.360261
22.36026
22.36026
22.360259
22.360259
22.360258
22.360258
22.360257
22.360257
22.360256
22.360256
22.360255
22.360255
22.360254
22.360254
22.360253
22.360253
22.360253
22.360252
22.360252
22.360251
22.360251
22.36025
22.36025
22.360249
22.360249
22.360248
22.360248
22.360248
22.360247
22.360247
22.360246
22.360246
22.360245
22.360245
22.360245
22.360244
22.360244
22.360243
22.360243
22.360242
22.360242
22.360242
22.360241
22.360241
22.36024
22.36024
22.36024
22.360239
22.360239
22.360238
22.360238
22.360238
22.360237
22.360237
22.360237
22.360236
22.360236
22.360235
22.360235
22.360235
22.360234
22.360234
22.360234
22.360233
22.360233
22.360233
22.360232
22.360232
22.360232
22.360231
22.360231
22.360231
22.36023
22.36023
22.36023
22.360229
22.360229
22.360229
22.360229
22.360228
22.360228
22.360228
22.360227
22.360227
22.360227
22.360226
22.360226
22.360226
22.360226
22.360225
22.360225
22.360225
22.360224
22.360224
22.360224
22.360224
22.360223
22.360223
22.360223
22.360222
22.360222
22.360222
22.360222
22.360221
22.360221
22.360221
22.36022
22.36022
22.36022
22.36022
22.360219
22.360219
22.360219
22.360219
22.360218
22.360218
22.360218
22.360217
22.360217
22.360217
22.360217
22.360216
22.360216
22.360216
22.360216
22.360215
22.360215
22.360215
22.360214
22.360214
22.360214
22.360214
22.360213
22.360213
22.360213
22.360213
22.360212
22.360212
22.360212
22.360212
22.360211
22.360211
22.360211
22.360211
22.36021
22.36021
22.36021
22.36021
22.360209
22.360209
22.360209
22.360209
22.360208
22.360208
22.360208
22.360208
22.360207
22.360207
22.360207
22.360207
22.360206
22.360206
22.360206
22.360206
22.360205
22.360205
22.360205
22.360205
22.360205
22.360204
22.360204
22.360204
22.360204
22.360203
22.360203
22.360203
22.360203
22.360202
22.360202
22.360202
22.360202
22.360201
22.360201
22.360201
22.360201
22.3602
22.3602
22.3602
22.3602
22.3602
22.360199
22.360199
22.360199
22.360199
22.360198
22.360198
22.360198
22.360198
22.360197
22.360197
22.360197
22.360197
22.360196
22.360196
22.360196
22.360196
22.360195
22.360195
22.360195
22.360195
22.360194
22.360194
22.360194
22.360193
22.360193
22.360193
22.360193
22.360192
22.360192
22.360192
22.360192
22.360191
22.360191
22.360191
22.360191
22.36019
22.36019
22.36019
22.360189
22.360189
22.360189
22.360188
22.360188
22.360188
22.360188
22.360187
22.360187
22.360187
22.360186
22.360186
22.360186
22.360186
22.360185
22.360185
22.360185
22.360184
22.360184
22.360184
22.360183
22.360183
22.360183
22.360182
22.360182
22.360182
22.360182
22.360181
22.360181
22.360181
22.36018
22.36018
22.36018
22.360179
22.360179
22.360179
22.360179
22.360178
22.360178
22.360178
22.360177
22.360177
22.360177
22.360176
22.360176
22.360176
22.360176
22.360175
22.360175
22.360175
22.360174
22.360174
22.360174
22.360173
22.360173
22.360173
22.360173
22.360172
22.360172
22.360172
22.360171
22.360171
22.360171
22.360171
22.36017
22.36017
22.36017
22.360169
22.360169
22.360169
22.360169
22.360168
22.360168
22.360168
22.360167
22.360167
22.360167
22.360167
22.360166
22.360166
22.360166
22.360165
22.360165
22.360165
22.360165
22.360164
22.360164
22.360164
22.360164
22.360163
22.360163
22.360163
22.360162
22.360162
22.360162
22.360162
22.360161
22.360161
22.360161
22.36016
22.36016
22.36016
22.36016
22.360159
22.360159
22.360159
22.360159
22.360158
22.360158
22.360158
22.360157
22.360157
22.360157
22.360157
22.360156
22.360156
22.360156
22.360156
22.360155
22.360155
22.360155
22.360155
22.360154
22.360154
22.360154
22.360154
22.360153
22.360153
22.360153
22.360153
22.360152
22.360152
22.360152
22.360152
22.360151
22.360151
22.360151
22.360151
22.36015
22.36015
22.36015
22.36015
22.360149
22.360149
22.360149
22.360149
22.360149
22.360148
22.360148
22.360148
22.360148
22.360147
22.360147
22.360147
22.360147
22.360147
22.360146
22.360146
22.360146
22.360146
22.360146
22.360145
22.360145
22.360145
22.360145
22.360145
22.360144
22.360144
22.360144
22.360144
22.360144
22.360143
22.360143
22.360143
22.360143
22.360143
22.360142
22.360142
22.360142
22.360142
22.360142
22.360142
22.360141
22.360141
22.360141
22.360141
22.360141
22.36014
22.36014
22.36014
22.36014
22.36014
22.360139
22.360139
22.360139
22.360139
22.360139
22.360138
22.360138
22.360138
22.360138
22.360138
22.360138
22.360137
22.360137
22.360137
22.360137
22.360136
22.360136
22.360136
22.360136
22.360136
22.360135
22.360135
22.360135
22.360134
22.360134
22.360134
22.360134
22.360134
22.360133
22.360133
22.360133
22.360132
22.360132
22.360132
22.360132
22.360131
22.360131
22.360131
22.36013
22.36013
22.36013
22.360129
22.360129
22.360129
22.360129
22.360128
22.360128
22.360127
22.360127
22.360127
22.360126
22.360126
22.360126
22.360125
22.360125
22.360125
22.360124
22.360124
22.360123
22.360123
22.360123
22.360122
22.360122
22.360121
22.360121
22.36012
22.36012
22.36012
22.360119
22.360119
22.360118
22.360118
22.360117
22.360117
22.360117
22.360116
22.360116
22.360115
22.360115
22.360114
22.360114
22.360113
22.360113
22.360112
22.360112
22.360111
22.360111
22.360111
22.36011
22.36011
22.360109
22.360109
22.360108
22.360108
22.360107
22.360107
22.360106
22.360106
22.360105
22.360105
22.360104
22.360104
22.360103
22.360103
22.360103
22.360102
22.360102
22.360101
22.360101
22.3601
22.3601
22.360099
22.360099
22.360099
22.360098
22.360098
22.360097
22.360097
22.360096
22.360096
22.360096
22.360095
22.360095
22.360094
22.360094
22.360094
22.360093
22.360093
22.360092
22.360092
22.360092
22.360091
22.360091
22.360091
22.36009
22.36009
22.36009
22.360089
22.360089
22.360088
22.360088
22.360088
22.360087
22.360087
22.360087
22.360087
22.360086
22.360086
22.360086
22.360085
22.360085
22.360085
22.360084
22.360084
22.360084
22.360084
22.360083
22.360083
22.360083
22.360083
22.360082
22.360082
22.360082
22.360081
22.360081
22.360081
22.360081
22.360081
22.36008
22.36008
22.36008
22.36008
22.360079
22.360079
22.360079
22.360079
22.360078
22.360078
22.360078
22.360078
22.360078
22.360077
22.360077
22.360077
22.360077
22.360077
22.360076
22.360076
22.360076
22.360076
22.360076
22.360075
22.360075
22.360075
22.360075
22.360075
22.360075
22.360074
22.360074
22.360074
22.360074
22.360074
22.360073
22.360073
22.360073
22.360073
22.360073
22.360073
22.360072
22.360072
22.360072
22.360072
22.360072
22.360072
22.360071
22.360071
22.360071
22.360071
22.360071
22.360071
22.36007
22.36007
22.36007
22.36007
22.36007
22.36007
22.360069
22.360069
22.360069
22.360069
22.360069
22.360069
22.360068
22.360068
22.360068
22.360068
22.360068
22.360068
22.360067
22.360067
22.360067
22.360067
22.360067
22.360067
22.360066
22.360066
22.360066
22.360066
22.360066
22.360065
22.360065
22.360065
22.360065
22.360065
22.360065
22.360064
22.360064
22.360064
22.360064
22.360064
22.360063
22.360063
22.360063
22.360063
22.360063
22.360062
22.360062
22.360062
22.360062
22.360062
22.360062
22.360061
22.360061
22.360061
22.360061
22.36006
22.36006
22.36006
22.36006
22.36006
22.360059
22.360059
22.360059
22.360059
22.360059
22.360058
22.360058
22.360058
22.360058
22.360058
22.360057
22.360057
22.360057
22.360057
22.360056
22.360056
22.360056
22.360056
22.360056
22.360055
22.360055
22.360055
22.360055
22.360054
22.360054
22.360054
22.360054
22.360053
22.360053
22.360053
22.360053
22.360052
22.360052
22.360052
22.360052
22.360051
22.360051
22.360051
22.360051
22.36005
22.36005
22.36005
22.36005
22.360049
22.360049
22.360049
22.360049
22.360048
22.360048
22.360048
22.360048
22.360047
22.360047
22.360047
22.360047
22.360046
22.360046
22.360046
22.360046
22.360045
22.360045
22.360045
22.360044
22.360044
22.360044
22.360044
22.360043
22.360043
22.360043
22.360043
22.360042
22.360042
22.360042
22.360042
22.360041
22.360041
22.360041
22.36004
22.36004
22.36004
22.36004
22.360039
22.360039
22.360039
22.360039
22.360038
22.360038
22.360038
22.360038
22.360037
22.360037
22.360037
22.360036
22.360036
22.360036
22.360036
22.360035
22.360035
22.360035
22.360035
22.360034
22.360034
22.360034
22.360034
22.360033
22.360033
22.360033
22.360033
22.360032
22.360032
22.360032
22.360032
22.360031
22.360031
22.360031
22.360031
22.360031
22.36003
22.36003
22.36003
22.36003
22.360029
22.360029
22.360029
22.360029
22.360028
22.360028
22.360028
22.360028
22.360028
22.360027
22.360027
22.360027
22.360027
22.360026
22.360026
22.360026
22.360026
22.360026
22.360025
22.360025
22.360025
22.360025
22.360024
22.360024
22.360024
22.360024
22.360023
22.360023
22.360023
22.360023
22.360023
22.360022
22.360022
22.360022
22.360022
22.360021
22.360021
22.360021
22.360021
22.36002
22.36002
22.36002
22.36002
22.36002
22.360019
22.360019
22.360019
22.360019
22.360018
22.360018
22.360018
22.360018
22.360017
22.360017
22.360017
22.360017
22.360016
22.360016
22.360016
22.360015
22.360015
22.360015
22.360015
22.360014
22.360014
22.360014
22.360014
22.360013
22.360013
22.360013
22.360012
22.360012
22.360012
22.360012
22.360011
22.360011
22.360011
22.36001
22.36001
22.36001
22.36001
22.360009
22.360009
22.360009
22.360009
22.360008
22.360008
22.360007
22.360007
22.360007
22.360007
22.360006
22.360006
22.360005
22.360004
22.360004
22.360004
22.360003
22.360003
22.360003
22.360003
22.360002
22.360002
22.360002
22.360002
22.360001
22.360001
22.36
22.359999
22.359998
22.359997
22.359997
22.359996
22.359996
22.359996
22.359997
22.359999
22.360002
22.360004
22.360007
22.360009
22.360009
22.360007
22.360003
22.359996
22.359989
22.359984
22.359995
22.360042
22.360193
22.36061
22.361531
22.361127
22.359832
22.3598
22.359945
22.359936
22.359917
22.359922
22.359932
22.359939
22.359947
22.359957
22.359967
22.359975
22.359983
22.35999
22.359995
22.359999
22.360003
22.360005
22.360007
22.360008
22.360009
22.360009
22.36001
22.36001
22.36001
22.36001
22.36001
22.36001
22.360009
22.360009
22.360009
22.360009
22.360008
22.360008
22.360008
22.360008
22.360008
22.360007
22.360007
22.360005
22.360001
22.360002
22.360007
22.360007
22.360006
22.360006
22.360006
22.360006
22.360006
22.360006
22.360006
22.360006
22.360006
22.360005
22.360005
22.360005
22.360005
22.360005
22.360005
22.360004
22.360004
22.360004
22.360004
22.360004
22.360004
22.360004
22.360003
22.360003
22.360003
22.360003
22.360003
22.360003
22.360003
22.360002
22.360002
22.360002
22.360002
22.360002
22.360002
22.360001
22.360001
22.360001
22.360001
22.360001
22.360001
22.36
22.36
22.36
22.36
22.36
22.36
22.359999
22.359999
22.359999
22.359999
22.359999
22.359998
22.359998
22.359998
22.359998
22.359998
22.359997
22.359997
22.359997
22.359997
22.359997
22.359996
22.359996
22.359996
22.359996
22.359996
22.359996
22.359995
22.359995
22.359995
22.359995
22.359994
22.359994
22.359994
22.359994
22.359994
22.359993
22.359993
22.359993
22.359993
22.359993
22.359992
22.359992
22.359992
22.359992
22.359991
22.359991
22.359991
22.359991
22.35999
22.35999
22.35999
22.35999
22.359989
22.359989
22.359989
22.359989
22.359989
22.359988
22.359988
22.359988
22.359988
22.359987
22.359987
22.359987
22.359987
22.359986
22.359986
22.359986
22.359986
22.359985
22.359985
22.359985
22.359985
22.359984
22.359984
22.359984
22.359984
22.359983
22.359983
22.359983
22.359983
22.359982
22.359982
22.359982