/*--------------------------------*- C++ -*----------------------------------*\
  =========                 |
  \\      /  F ield         | OpenFOAM: The Open Source CFD Toolbox
   \\    /   O peration     | Website:  https://openfoam.org
    \\  /    A nd           | Version:  7
     \\/     M anipulation  |
\*---------------------------------------------------------------------------*/
FoamFile
{
    version     2.0;
    format      ascii;
    class       volScalarField;
    location    "0.0022";
    object      rho;
}
// * * * * * * * * * * * * * * * * * * * * * * * * * * * * * * * * * * * * * //

dimensions      [1 -3 0 0 0 0 0];

internalField   nonuniform List<scalar> 
5000
(
1.3371279
1.337128
1.337128
1.337128
1.337128
1.337128
1.337128
1.337128
1.337128
1.337128
1.337128
1.337128
1.337128
1.337128
1.337128
1.337128
1.337128
1.3371281
1.3371281
1.3371281
1.3371281
1.3371281
1.3371281
1.3371281
1.3371281
1.3371281
1.3371281
1.3371281
1.3371281
1.3371281
1.3371281
1.3371281
1.3371282
1.3371282
1.3371282
1.3371282
1.3371282
1.3371282
1.3371282
1.3371282
1.3371282
1.3371282
1.3371281
1.3371281
1.3371281
1.3371281
1.3371281
1.3371281
1.337128
1.3371279
1.3371276
1.3371271
1.3371263
1.3371251
1.3371231
1.3371201
1.3371154
1.3371086
1.337099
1.3370862
1.3370698
1.3370491
1.3370236
1.3369924
1.3369544
1.3369087
1.3368542
1.3367904
1.3367171
1.336635
1.3365456
1.3364507
1.336353
1.3362553
1.3361601
1.3360698
1.3359865
1.3359115
1.3358454
1.3357885
1.3357405
1.3357008
1.3356684
1.3356425
1.3356221
1.3356061
1.3355938
1.3355844
1.3355773
1.3355719
1.3355679
1.3355649
1.3355627
1.3355611
1.3355599
1.335559
1.3355584
1.3355579
1.3355576
1.3355573
1.3355571
1.335557
1.3355569
1.3355569
1.3355568
1.3355568
1.3355567
1.3355567
1.3355567
1.3355567
1.3355567
1.3355567
1.3355567
1.3355567
1.3355567
1.3355567
1.3355567
1.3355567
1.3355567
1.3355567
1.3355567
1.3355567
1.3355567
1.3355567
1.3355567
1.3355566
1.3355566
1.3355566
1.3355566
1.3355566
1.3355566
1.3355566
1.3355566
1.3355566
1.3355566
1.3355566
1.3355566
1.3355566
1.3355566
1.3355566
1.3355566
1.3355566
1.3355566
1.3355566
1.3355566
1.3355566
1.3355566
1.3355566
1.3355566
1.3355566
1.3355566
1.3355566
1.3355566
1.3355566
1.3355566
1.3355566
1.3355566
1.3355566
1.3355566
1.3355566
1.3355566
1.3355566
1.3355566
1.3355566
1.3355566
1.3355565
1.3355565
1.3355565
1.3355565
1.3355565
1.3355565
1.3355565
1.3355565
1.3355565
1.3355565
1.3355565
1.3355565
1.3355565
1.3355565
1.3355565
1.3355565
1.3355565
1.3355565
1.3355565
1.3355565
1.3355565
1.3355565
1.3355565
1.3355565
1.3355565
1.3355565
1.3355565
1.3355565
1.3355565
1.3355565
1.3355565
1.3355565
1.3355565
1.3355565
1.3355565
1.3355565
1.3355565
1.3355565
1.3355565
1.3355565
1.3355565
1.3355565
1.3355565
1.3355565
1.3355565
1.3355565
1.3355565
1.3355565
1.3355565
1.3355565
1.3355564
1.3355564
1.3355564
1.3355564
1.3355564
1.3355564
1.3355564
1.3355564
1.3355564
1.3355564
1.3355564
1.3355564
1.3355564
1.3355564
1.3355564
1.3355564
1.3355564
1.3355564
1.3355564
1.3355564
1.3355564
1.3355564
1.3355564
1.3355564
1.3355564
1.3355564
1.3355564
1.3355564
1.3355564
1.3355564
1.3355564
1.3355564
1.3355564
1.3355564
1.3355564
1.3355564
1.3355564
1.3355564
1.3355564
1.3355564
1.3355564
1.3355564
1.3355564
1.3355564
1.3355564
1.3355564
1.3355564
1.3355564
1.3355564
1.3355564
1.3355564
1.3355564
1.3355564
1.3355564
1.3355564
1.3355564
1.3355564
1.3355564
1.3355564
1.3355564
1.3355564
1.3355564
1.3355564
1.3355564
1.3355564
1.3355564
1.3355564
1.3355564
1.3355564
1.3355564
1.3355564
1.3355564
1.3355564
1.3355564
1.3355564
1.3355564
1.3355564
1.3355564
1.3355564
1.3355564
1.3355564
1.3355564
1.3355564
1.3355564
1.3355564
1.3355564
1.3355564
1.3355564
1.3355565
1.3355565
1.3355565
1.3355565
1.3355565
1.3355565
1.3355565
1.3355565
1.3355565
1.3355565
1.3355565
1.3355565
1.3355565
1.3355565
1.3355565
1.3355565
1.3355565
1.3355565
1.3355565
1.3355565
1.3355565
1.3355565
1.3355565
1.3355565
1.3355565
1.3355565
1.3355565
1.3355565
1.3355565
1.3355565
1.3355565
1.3355565
1.3355565
1.3355565
1.3355565
1.3355565
1.3355565
1.3355565
1.3355565
1.3355565
1.3355565
1.3355565
1.3355565
1.3355566
1.3355566
1.3355566
1.3355566
1.3355566
1.3355566
1.3355566
1.3355566
1.3355566
1.3355566
1.3355566
1.3355566
1.3355566
1.3355566
1.3355566
1.3355566
1.3355566
1.3355566
1.3355566
1.3355566
1.3355566
1.3355566
1.3355566
1.3355566
1.3355566
1.3355566
1.3355566
1.3355566
1.3355566
1.3355566
1.3355566
1.3355566
1.3355566
1.3355566
1.3355566
1.3355566
1.3355566
1.3355566
1.3355566
1.3355567
1.3355567
1.3355567
1.3355567
1.3355567
1.3355567
1.3355567
1.3355567
1.3355567
1.3355567
1.3355567
1.3355567
1.3355567
1.3355567
1.3355567
1.3355567
1.3355567
1.3355567
1.3355567
1.3355567
1.3355567
1.3355567
1.3355567
1.3355567
1.3355567
1.3355567
1.3355567
1.3355567
1.3355567
1.3355567
1.3355567
1.3355567
1.3355567
1.3355567
1.3355567
1.3355567
1.3355567
1.3355567
1.3355567
1.3355567
1.3355567
1.3355567
1.3355567
1.3355567
1.3355567
1.3355567
1.3355567
1.3355567
1.3355567
1.3355567
1.3355567
1.3355567
1.3355567
1.3355567
1.3355567
1.3355567
1.3355567
1.3355567
1.3355567
1.3355567
1.3355567
1.3355567
1.3355567
1.3355567
1.3355567
1.3355567
1.3355567
1.3355567
1.3355567
1.3355567
1.3355567
1.3355567
1.3355567
1.3355567
1.3355567
1.3355567
1.3355567
1.3355567
1.3355567
1.3355567
1.3355567
1.3355567
1.3355567
1.3355567
1.3355567
1.3355567
1.3355567
1.3355567
1.3355567
1.3355567
1.3355567
1.3355567
1.3355567
1.3355567
1.3355567
1.3355567
1.3355567
1.3355567
1.3355567
1.3355567
1.3355567
1.3355567
1.3355567
1.3355567
1.3355567
1.3355567
1.3355567
1.3355567
1.3355567
1.3355567
1.3355567
1.3355567
1.3355567
1.3355567
1.3355567
1.3355566
1.3355566
1.3355566
1.3355566
1.3355566
1.3355566
1.3355566
1.3355566
1.3355566
1.3355566
1.3355566
1.3355566
1.3355566
1.3355566
1.3355566
1.3355566
1.3355566
1.3355566
1.3355566
1.3355566
1.3355566
1.3355566
1.3355566
1.3355566
1.3355566
1.3355566
1.3355566
1.3355566
1.3355566
1.3355566
1.3355566
1.3355566
1.3355566
1.3355566
1.3355566
1.3355566
1.3355566
1.3355566
1.3355566
1.3355566
1.3355566
1.3355566
1.3355566
1.3355566
1.3355566
1.3355566
1.3355566
1.3355565
1.3355565
1.3355565
1.3355565
1.3355565
1.3355565
1.3355565
1.3355565
1.3355565
1.3355565
1.3355565
1.3355565
1.3355565
1.3355565
1.3355565
1.3355565
1.3355565
1.3355565
1.3355565
1.3355565
1.3355565
1.3355565
1.3355565
1.3355565
1.3355565
1.3355565
1.3355565
1.3355565
1.3355565
1.3355565
1.3355565
1.3355565
1.3355565
1.3355565
1.3355565
1.3355564
1.3355564
1.3355564
1.3355564
1.3355564
1.3355564
1.3355564
1.3355564
1.3355564
1.3355564
1.3355564
1.3355564
1.3355564
1.3355564
1.3355564
1.3355564
1.3355564
1.3355564
1.3355564
1.3355564
1.3355564
1.3355564
1.3355564
1.3355564
1.3355564
1.3355564
1.3355564
1.3355564
1.3355564
1.3355564
1.3355564
1.3355563
1.3355563
1.3355563
1.3355563
1.3355563
1.3355563
1.3355563
1.3355563
1.3355563
1.3355563
1.3355563
1.3355563
1.3355563
1.3355563
1.3355563
1.3355563
1.3355563
1.3355563
1.3355563
1.3355563
1.3355563
1.3355563
1.3355563
1.3355563
1.3355563
1.3355562
1.3355562
1.3355562
1.3355562
1.3355562
1.3355562
1.3355562
1.3355562
1.3355562
1.3355562
1.3355562
1.3355562
1.3355562
1.3355562
1.3355562
1.3355562
1.3355562
1.3355562
1.3355562
1.3355562
1.3355562
1.3355562
1.3355561
1.3355561
1.3355561
1.3355561
1.3355561
1.3355561
1.3355561
1.3355561
1.3355561
1.3355561
1.3355561
1.3355561
1.3355561
1.3355561
1.3355561
1.3355561
1.3355561
1.3355561
1.335556
1.335556
1.335556
1.335556
1.335556
1.335556
1.335556
1.335556
1.335556
1.335556
1.335556
1.335556
1.335556
1.335556
1.335556
1.3355559
1.3355559
1.3355559
1.3355559
1.3355559
1.3355559
1.3355559
1.3355559
1.3355559
1.3355559
1.3355559
1.3355559
1.3355558
1.3355558
1.3355558
1.3355558
1.3355558
1.3355558
1.3355558
1.3355558
1.3355558
1.3355557
1.3355557
1.3355557
1.3355557
1.3355557
1.3355557
1.3355557
1.3355557
1.3355556
1.3355556
1.3355556
1.3355556
1.3355556
1.3355556
1.3355556
1.3355555
1.3355555
1.3355555
1.3355555
1.3355555
1.3355554
1.3355554
1.3355554
1.3355554
1.3355554
1.3355554
1.3355553
1.3355553
1.3355553
1.3355553
1.3355552
1.3355552
1.3355552
1.3355552
1.3355551
1.3355551
1.3355551
1.3355551
1.335555
1.335555
1.335555
1.3355549
1.3355549
1.3355549
1.3355548
1.3355548
1.3355548
1.3355547
1.3355547
1.3355547
1.3355546
1.3355546
1.3355546
1.3355545
1.3355545
1.3355544
1.3355544
1.3355543
1.3355543
1.3355542
1.3355542
1.3355541
1.3355541
1.335554
1.335554
1.3355539
1.3355539
1.3355538
1.3355537
1.3355537
1.3355536
1.3355536
1.3355535
1.3355534
1.3355533
1.3355533
1.3355532
1.3355531
1.3355531
1.335553
1.3355529
1.3355528
1.3355527
1.3355526
1.3355526
1.3355525
1.3355524
1.3355523
1.3355522
1.3355521
1.335552
1.3355519
1.3355518
1.3355516
1.3355515
1.3355514
1.3355513
1.3355512
1.3355511
1.3355509
1.3355508
1.3355507
1.3355505
1.3355504
1.3355502
1.3355501
1.33555
1.3355498
1.3355496
1.3355495
1.3355493
1.3355491
1.335549
1.3355488
1.3355486
1.3355484
1.3355482
1.335548
1.3355478
1.3355476
1.3355474
1.3355472
1.335547
1.3355468
1.3355466
1.3355463
1.3355461
1.3355458
1.3355456
1.3355453
1.3355451
1.3355448
1.3355445
1.3355442
1.335544
1.3355437
1.3355434
1.3355431
1.3355427
1.3355424
1.3355421
1.3355418
1.3355414
1.3355411
1.3355407
1.3355404
1.33554
1.3355396
1.3355392
1.3355388
1.3355384
1.335538
1.3355376
1.3355371
1.3355367
1.3355363
1.3355358
1.3355353
1.3355348
1.3355344
1.3355339
1.3355333
1.3355328
1.3355323
1.3355318
1.3355312
1.3355306
1.3355301
1.3355295
1.3355289
1.3355283
1.3355276
1.335527
1.3355264
1.3355257
1.335525
1.3355244
1.3355237
1.3355229
1.3355222
1.3355215
1.3355207
1.33552
1.3355192
1.3355184
1.3355176
1.3355168
1.3355159
1.3355151
1.3355142
1.3355133
1.3355124
1.3355115
1.3355106
1.3355096
1.3355086
1.3355077
1.3355067
1.3355056
1.3355046
1.3355036
1.3355025
1.3355014
1.3355003
1.3354992
1.335498
1.3354969
1.3354957
1.3354945
1.3354933
1.335492
1.3354908
1.3354895
1.3354882
1.3354869
1.3354855
1.3354842
1.3354828
1.3354814
1.33548
1.3354785
1.3354771
1.3354756
1.3354741
1.3354725
1.335471
1.3354694
1.3354678
1.3354662
1.3354645
1.3354629
1.3354612
1.3354594
1.3354577
1.3354559
1.3354541
1.3354523
1.3354505
1.3354486
1.3354467
1.3354448
1.3354429
1.3354409
1.3354389
1.3354369
1.3354349
1.3354328
1.3354307
1.3354286
1.3354264
1.3354242
1.335422
1.3354198
1.3354175
1.3354153
1.3354129
1.3354106
1.3354082
1.3354058
1.3354034
1.335401
1.3353985
1.335396
1.3353934
1.3353909
1.3353883
1.3353856
1.335383
1.3353803
1.3353776
1.3353748
1.335372
1.3353692
1.3353664
1.3353635
1.3353606
1.3353577
1.3353547
1.3353518
1.3353487
1.3353457
1.3353426
1.3353395
1.3353364
1.3353332
1.33533
1.3353268
1.3353235
1.3353202
1.3353169
1.3353135
1.3353101
1.3353067
1.3353032
1.3352998
1.3352962
1.3352927
1.3352891
1.3352855
1.3352819
1.3352782
1.3352745
1.3352707
1.335267
1.3352632
1.3352593
1.3352555
1.3352516
1.3352476
1.3352437
1.3352397
1.3352357
1.3352316
1.3352275
1.3352234
1.3352193
1.3352151
1.3352109
1.3352066
1.3352024
1.335198
1.3351937
1.3351893
1.3351849
1.3351805
1.3351761
1.3351716
1.335167
1.3351625
1.3351579
1.3351533
1.3351486
1.335144
1.3351393
1.3351345
1.3351298
1.335125
1.3351202
1.3351153
1.3351104
1.3351055
1.3351006
1.3350956
1.3350906
1.3350856
1.3350805
1.3350754
1.3350703
1.3350652
1.33506
1.3350548
1.3350496
1.3350443
1.3350391
1.3350338
1.3350284
1.3350231
1.3350177
1.3350123
1.3350068
1.3350014
1.3349959
1.3349904
1.3349848
1.3349793
1.3349737
1.3349681
1.3349624
1.3349568
1.3349511
1.3349454
1.3349396
1.3349339
1.3349281
1.3349223
1.3349165
1.3349106
1.3349048
1.3348989
1.334893
1.3348871
1.3348811
1.3348751
1.3348691
1.3348631
1.3348571
1.334851
1.334845
1.3348389
1.3348328
1.3348267
1.3348205
1.3348144
1.3348082
1.334802
1.3347958
1.3347895
1.3347833
1.334777
1.3347708
1.3347645
1.3347582
1.3347518
1.3347455
1.3347391
1.3347328
1.3347264
1.33472
1.3347136
1.3347072
1.3347008
1.3346943
1.3346879
1.3346814
1.334675
1.3346685
1.334662
1.3346555
1.334649
1.3346424
1.3346359
1.3346294
1.3346228
1.3346163
1.3346097
1.3346031
1.3345966
1.33459
1.3345834
1.3345768
1.3345702
1.3345636
1.334557
1.3345504
1.3345438
1.3345371
1.3345305
1.3345239
1.3345173
1.3345106
1.334504
1.3344974
1.3344907
1.3344841
1.3344774
1.3344708
1.3344642
1.3344575
1.3344509
1.3344442
1.3344376
1.334431
1.3344243
1.3344177
1.3344111
1.3344045
1.3343978
1.3343912
1.3343846
1.334378
1.3343714
1.3343648
1.3343582
1.3343516
1.334345
1.3343385
1.3343319
1.3343253
1.3343188
1.3343122
1.3343057
1.3342992
1.3342926
1.3342861
1.3342796
1.3342731
1.3342666
1.3342602
1.3342537
1.3342472
1.3342408
1.3342344
1.334228
1.3342215
1.3342152
1.3342088
1.3342024
1.334196
1.3341897
1.3341834
1.334177
1.3341707
1.3341645
1.3341582
1.3341519
1.3341457
1.3341395
1.3341332
1.3341271
1.3341209
1.3341147
1.3341086
1.3341024
1.3340963
1.3340902
1.3340842
1.3340781
1.3340721
1.3340661
1.3340601
1.3340541
1.3340481
1.3340422
1.3340363
1.3340304
1.3340245
1.3340186
1.3340128
1.334007
1.3340012
1.3339954
1.3339896
1.3339839
1.3339782
1.3339725
1.3339668
1.3339612
1.3339556
1.33395
1.3339444
1.3339388
1.3339333
1.3339278
1.3339223
1.3339169
1.3339114
1.333906
1.3339006
1.3338953
1.3338899
1.3338846
1.3338793
1.3338741
1.3338688
1.3338636
1.3338585
1.3338533
1.3338482
1.3338431
1.333838
1.3338329
1.3338279
1.3338229
1.3338179
1.333813
1.3338081
1.3338032
1.3337983
1.3337935
1.3337887
1.3337839
1.3337791
1.3337744
1.3337697
1.333765
1.3337604
1.3337558
1.3337512
1.3337466
1.3337421
1.3337376
1.3337331
1.3337287
1.3337242
1.3337198
1.3337155
1.3337111
1.3337068
1.3337026
1.3336983
1.3336941
1.3336899
1.3336857
1.3336816
1.3336775
1.3336734
1.3336694
1.3336653
1.3336613
1.3336574
1.3336534
1.3336495
1.3336457
1.3336418
1.333638
1.3336342
1.3336304
1.3336267
1.333623
1.3336193
1.3336157
1.333612
1.3336084
1.3336049
1.3336013
1.3335978
1.3335943
1.3335909
1.3335875
1.3335841
1.3335807
1.3335774
1.3335741
1.3335708
1.3335675
1.3335643
1.3335611
1.3335579
1.3335548
1.3335516
1.3335486
1.3335455
1.3335425
1.3335394
1.3335365
1.3335335
1.3335306
1.3335277
1.3335248
1.3335219
1.3335191
1.3335163
1.3335136
1.3335108
1.3335081
1.3335054
1.3335027
1.3335001
1.3334975
1.3334949
1.3334923
1.3334898
1.3334873
1.3334848
1.3334823
1.3334799
1.3334774
1.3334751
1.3334727
1.3334703
1.333468
1.3334657
1.3334635
1.3334612
1.333459
1.3334568
1.3334546
1.3334525
1.3334503
1.3334482
1.3334461
1.3334441
1.333442
1.33344
1.333438
1.333436
1.3334341
1.3334322
1.3334303
1.3334284
1.3334265
1.3334247
1.3334228
1.333421
1.3334192
1.3334175
1.3334157
1.333414
1.3334123
1.3334106
1.333409
1.3334073
1.3334057
1.3334041
1.3334025
1.3334009
1.3333994
1.3333979
1.3333964
1.3333949
1.3333934
1.3333919
1.3333905
1.3333891
1.3333877
1.3333863
1.3333849
1.3333836
1.3333822
1.3333809
1.3333796
1.3333783
1.3333771
1.3333758
1.3333746
1.3333733
1.3333721
1.333371
1.3333698
1.3333686
1.3333675
1.3333663
1.3333652
1.3333641
1.333363
1.333362
1.3333609
1.3333599
1.3333589
1.3333578
1.3333568
1.3333558
1.3333549
1.3333539
1.333353
1.333352
1.3333511
1.3333502
1.3333493
1.3333484
1.3333475
1.3333467
1.3333458
1.333345
1.3333442
1.3333433
1.3333425
1.3333418
1.333341
1.3333402
1.3333394
1.3333387
1.333338
1.3333372
1.3333365
1.3333358
1.3333351
1.3333344
1.3333338
1.3333331
1.3333324
1.3333318
1.3333311
1.3333305
1.3333299
1.3333293
1.3333287
1.3333281
1.3333275
1.3333269
1.3333264
1.3333258
1.3333253
1.3333247
1.3333242
1.3333237
1.3333231
1.3333226
1.3333221
1.3333216
1.3333211
1.3333207
1.3333202
1.3333197
1.3333193
1.3333188
1.3333184
1.3333179
1.3333175
1.3333171
1.3333167
1.3333162
1.3333158
1.3333154
1.333315
1.3333147
1.3333143
1.3333139
1.3333135
1.3333132
1.3333128
1.3333125
1.3333121
1.3333118
1.3333114
1.3333111
1.3333108
1.3333105
1.3333101
1.3333098
1.3333095
1.3333092
1.3333089
1.3333086
1.3333083
1.3333081
1.3333078
1.3333075
1.3333072
1.333307
1.3333067
1.3333065
1.3333062
1.3333059
1.3333057
1.3333055
1.3333052
1.333305
1.3333048
1.3333045
1.3333043
1.3333041
1.3333039
1.3333037
1.3333035
1.3333033
1.3333031
1.3333029
1.3333027
1.3333025
1.3333023
1.3333021
1.3333019
1.3333017
1.3333016
1.3333014
1.3333012
1.333301
1.3333009
1.3333007
1.3333006
1.3333004
1.3333002
1.3333001
1.3332999
1.3332998
1.3332996
1.3332995
1.3332994
1.3332992
1.3332991
1.333299
1.3332988
1.3332987
1.3332986
1.3332985
1.3332983
1.3332982
1.3332981
1.333298
1.3332979
1.3332977
1.3332976
1.3332975
1.3332974
1.3332973
1.3332972
1.3332971
1.333297
1.3332969
1.3332968
1.3332967
1.3332966
1.3332965
1.3332964
1.3332963
1.3332963
1.3332962
1.3332961
1.333296
1.3332959
1.3332958
1.3332958
1.3332957
1.3332956
1.3332955
1.3332955
1.3332954
1.3332953
1.3332952
1.3332952
1.3332951
1.333295
1.333295
1.3332949
1.3332948
1.3332948
1.3332947
1.3332947
1.3332946
1.3332945
1.3332945
1.3332944
1.3332944
1.3332943
1.3332943
1.3332942
1.3332941
1.3332941
1.333294
1.333294
1.3332939
1.3332939
1.3332938
1.3332938
1.3332937
1.3332937
1.3332937
1.3332936
1.3332936
1.3332935
1.3332935
1.3332934
1.3332934
1.3332934
1.3332933
1.3332933
1.3332932
1.3332932
1.3332932
1.3332931
1.3332931
1.3332931
1.333293
1.333293
1.333293
1.3332929
1.3332929
1.3332929
1.3332928
1.3332928
1.3332928
1.3332927
1.3332927
1.3332927
1.3332926
1.3332926
1.3332926
1.3332926
1.3332925
1.3332925
1.3332925
1.3332925
1.3332924
1.3332924
1.3332924
1.3332923
1.3332923
1.3332923
1.3332923
1.3332922
1.3332922
1.3332922
1.3332922
1.3332921
1.3332921
1.3332921
1.3332921
1.333292
1.333292
1.333292
1.333292
1.333292
1.3332919
1.3332919
1.3332919
1.3332919
1.3332919
1.3332918
1.3332918
1.3332918
1.3332918
1.3332918
1.3332917
1.3332917
1.3332917
1.3332917
1.3332917
1.3332916
1.3332916
1.3332916
1.3332916
1.3332916
1.3332916
1.3332915
1.3332915
1.3332915
1.3332915
1.3332915
1.3332914
1.3332914
1.3332914
1.3332914
1.3332914
1.3332914
1.3332913
1.3332913
1.3332913
1.3332913
1.3332913
1.3332913
1.3332912
1.3332912
1.3332912
1.3332912
1.3332912
1.3332912
1.3332911
1.3332911
1.3332911
1.3332911
1.3332911
1.3332911
1.333291
1.333291
1.333291
1.333291
1.333291
1.333291
1.3332909
1.3332909
1.3332909
1.3332909
1.3332909
1.3332909
1.3332909
1.3332908
1.3332908
1.3332908
1.3332908
1.3332908
1.3332908
1.3332907
1.3332907
1.3332907
1.3332907
1.3332907
1.3332907
1.3332907
1.3332906
1.3332906
1.3332906
1.3332906
1.3332906
1.3332906
1.3332905
1.3332905
1.3332905
1.3332905
1.3332905
1.3332905
1.3332905
1.3332904
1.3332904
1.3332904
1.3332904
1.3332904
1.3332904
1.3332903
1.3332903
1.3332903
1.3332903
1.3332903
1.3332903
1.3332903
1.3332902
1.3332902
1.3332902
1.3332902
1.3332902
1.3332902
1.3332901
1.3332901
1.3332901
1.3332901
1.3332901
1.3332901
1.3332901
1.33329
1.33329
1.33329
1.33329
1.33329
1.33329
1.3332899
1.3332899
1.3332899
1.3332899
1.3332899
1.3332899
1.3332898
1.3332898
1.3332898
1.3332898
1.3332898
1.3332898
1.3332897
1.3332897
1.3332897
1.3332897
1.3332897
1.3332897
1.3332897
1.3332896
1.3332896
1.3332896
1.3332896
1.3332896
1.3332896
1.3332895
1.3332895
1.3332895
1.3332895
1.3332895
1.3332895
1.3332894
1.3332894
1.3332894
1.3332894
1.3332894
1.3332894
1.3332893
1.3332893
1.3332893
1.3332893
1.3332893
1.3332893
1.3332892
1.3332892
1.3332892
1.3332892
1.3332892
1.3332892
1.3332891
1.3332891
1.3332891
1.3332891
1.3332891
1.333289
1.333289
1.333289
1.333289
1.333289
1.333289
1.3332889
1.3332889
1.3332889
1.3332889
1.3332889
1.3332889
1.3332888
1.3332888
1.3332888
1.3332888
1.3332888
1.3332888
1.3332887
1.3332887
1.3332887
1.3332887
1.3332887
1.3332886
1.3332886
1.3332886
1.3332886
1.3332886
1.3332885
1.3332885
1.3332885
1.3332885
1.3332885
1.3332885
1.3332884
1.3332884
1.3332884
1.3332884
1.3332884
1.3332884
1.3332883
1.3332883
1.3332883
1.3332883
1.3332883
1.3332882
1.3332882
1.3332882
1.3332882
1.3332882
1.3332881
1.3332881
1.3332881
1.3332881
1.3332881
1.333288
1.333288
1.333288
1.333288
1.333288
1.333288
1.3332879
1.3332879
1.3332879
1.3332879
1.3332879
1.3332878
1.3332878
1.3332878
1.3332878
1.3332878
1.3332877
1.3332877
1.3332877
1.3332877
1.3332877
1.3332876
1.3332876
1.3332876
1.3332876
1.3332876
1.3332875
1.3332875
1.3332875
1.3332875
1.3332874
1.3332874
1.3332874
1.3332874
1.3332874
1.3332873
1.3332873
1.3332873
1.3332873
1.3332873
1.3332872
1.3332872
1.3332872
1.3332872
1.3332872
1.3332871
1.3332871
1.3332871
1.3332871
1.3332871
1.333287
1.333287
1.333287
1.333287
1.3332869
1.3332869
1.3332869
1.3332869
1.3332869
1.3332868
1.3332868
1.3332868
1.3332868
1.3332868
1.3332867
1.3332867
1.3332867
1.3332867
1.3332866
1.3332866
1.3332866
1.3332866
1.3332866
1.3332865
1.3332865
1.3332865
1.3332865
1.3332864
1.3332864
1.3332864
1.3332864
1.3332864
1.3332863
1.3332863
1.3332863
1.3332863
1.3332862
1.3332862
1.3332862
1.3332862
1.3332861
1.3332861
1.3332861
1.3332861
1.333286
1.333286
1.333286
1.333286
1.333286
1.3332859
1.3332859
1.3332859
1.3332859
1.3332858
1.3332858
1.3332858
1.3332858
1.3332857
1.3332857
1.3332857
1.3332857
1.3332856
1.3332856
1.3332856
1.3332856
1.3332855
1.3332855
1.3332855
1.3332855
1.3332854
1.3332854
1.3332854
1.3332854
1.3332853
1.3332853
1.3332853
1.3332853
1.3332852
1.3332852
1.3332852
1.3332852
1.3332851
1.3332851
1.3332851
1.3332851
1.333285
1.333285
1.333285
1.333285
1.3332849
1.3332849
1.3332849
1.3332849
1.3332848
1.3332848
1.3332848
1.3332848
1.3332847
1.3332847
1.3332847
1.3332847
1.3332846
1.3332846
1.3332846
1.3332846
1.3332845
1.3332845
1.3332845
1.3332844
1.3332844
1.3332844
1.3332844
1.3332843
1.3332843
1.3332843
1.3332842
1.3332842
1.3332842
1.3332842
1.3332841
1.3332841
1.3332841
1.3332841
1.333284
1.333284
1.333284
1.3332839
1.3332839
1.3332839
1.3332839
1.3332838
1.3332838
1.3332838
1.3332837
1.3332837
1.3332837
1.3332837
1.3332836
1.3332836
1.3332836
1.3332835
1.3332835
1.3332835
1.3332834
1.3332834
1.3332834
1.3332833
1.3332833
1.3332833
1.3332833
1.3332832
1.3332832
1.3332832
1.3332831
1.3332831
1.3332831
1.3332831
1.333283
1.333283
1.333283
1.3332829
1.3332829
1.3332829
1.3332829
1.3332828
1.3332828
1.3332828
1.3332827
1.3332827
1.3332827
1.3332826
1.3332826
1.3332826
1.3332825
1.3332825
1.3332825
1.3332824
1.3332824
1.3332824
1.3332823
1.3332823
1.3332823
1.3332822
1.3332822
1.3332822
1.3332821
1.3332821
1.3332821
1.333282
1.333282
1.333282
1.3332819
1.3332819
1.3332819
1.3332819
1.3332818
1.3332818
1.3332818
1.3332817
1.3332817
1.3332817
1.3332816
1.3332816
1.3332816
1.3332815
1.3332815
1.3332815
1.3332814
1.3332814
1.3332814
1.3332813
1.3332813
1.3332812
1.3332812
1.3332812
1.3332811
1.3332811
1.3332811
1.333281
1.333281
1.3332809
1.3332809
1.3332809
1.3332808
1.3332808
1.3332808
1.3332807
1.3332807
1.3332807
1.3332806
1.3332806
1.3332806
1.3332805
1.3332805
1.3332805
1.3332804
1.3332804
1.3332803
1.3332803
1.3332803
1.3332802
1.3332802
1.3332801
1.3332801
1.3332801
1.33328
1.33328
1.3332799
1.3332799
1.3332799
1.3332798
1.3332798
1.3332798
1.3332797
1.3332797
1.3332796
1.3332796
1.3332795
1.3332795
1.3332795
1.3332794
1.3332794
1.3332794
1.3332793
1.3332793
1.3332792
1.3332792
1.3332791
1.3332791
1.3332791
1.333279
1.333279
1.3332789
1.3332789
1.3332789
1.3332788
1.3332788
1.3332787
1.3332787
1.3332786
1.3332786
1.3332786
1.3332785
1.3332785
1.3332784
1.3332784
1.3332783
1.3332783
1.3332783
1.3332782
1.3332782
1.3332781
1.3332781
1.333278
1.333278
1.3332779
1.3332779
1.3332778
1.3332778
1.3332778
1.3332777
1.3332777
1.3332776
1.3332776
1.3332775
1.3332775
1.3332774
1.3332774
1.3332773
1.3332773
1.3332772
1.3332772
1.3332771
1.3332771
1.3332771
1.333277
1.333277
1.3332769
1.3332769
1.3332768
1.3332768
1.3332767
1.3332767
1.3332766
1.3332766
1.3332765
1.3332765
1.3332764
1.3332764
1.3332763
1.3332763
1.3332762
1.3332762
1.3332761
1.3332761
1.333276
1.333276
1.3332759
1.3332759
1.3332758
1.3332758
1.3332757
1.3332757
1.3332756
1.3332755
1.3332755
1.3332754
1.3332754
1.3332753
1.3332753
1.3332752
1.3332752
1.3332751
1.3332751
1.333275
1.333275
1.3332749
1.3332748
1.3332748
1.3332747
1.3332747
1.3332746
1.3332745
1.3332745
1.3332744
1.3332744
1.3332743
1.3332742
1.3332742
1.3332741
1.3332741
1.333274
1.333274
1.3332739
1.3332739
1.3332738
1.3332737
1.3332737
1.3332736
1.3332736
1.3332735
1.3332735
1.3332734
1.3332733
1.3332733
1.3332732
1.3332731
1.3332731
1.333273
1.3332729
1.3332729
1.3332728
1.3332727
1.3332727
1.3332726
1.3332725
1.3332725
1.3332724
1.3332723
1.3332723
1.3332722
1.3332722
1.3332721
1.333272
1.333272
1.3332719
1.3332718
1.3332718
1.3332717
1.3332716
1.3332715
1.3332715
1.3332714
1.3332713
1.3332713
1.3332712
1.3332711
1.3332711
1.333271
1.3332709
1.3332708
1.3332708
1.3332707
1.3332706
1.3332706
1.3332705
1.3332704
1.3332703
1.3332703
1.3332702
1.3332701
1.33327
1.33327
1.3332699
1.3332698
1.3332697
1.3332697
1.3332696
1.3332695
1.3332694
1.3332694
1.3332693
1.3332692
1.3332691
1.333269
1.333269
1.3332689
1.3332688
1.3332687
1.3332686
1.3332685
1.3332685
1.3332684
1.3332683
1.3332682
1.3332681
1.3332681
1.333268
1.3332679
1.3332678
1.3332677
1.3332676
1.3332675
1.3332674
1.3332673
1.3332673
1.3332672
1.3332671
1.333267
1.3332669
1.3332668
1.3332667
1.3332666
1.3332665
1.3332664
1.3332664
1.3332663
1.3332662
1.3332661
1.333266
1.3332659
1.3332658
1.3332657
1.3332656
1.3332655
1.3332654
1.3332653
1.3332652
1.3332651
1.333265
1.3332649
1.3332648
1.3332647
1.3332646
1.3332645
1.3332644
1.3332643
1.3332642
1.3332641
1.333264
1.3332639
1.3332638
1.3332637
1.3332635
1.3332634
1.3332633
1.3332632
1.3332631
1.333263
1.3332629
1.3332628
1.3332626
1.3332625
1.3332624
1.3332623
1.3332622
1.3332621
1.333262
1.3332618
1.3332617
1.3332616
1.3332615
1.3332614
1.3332613
1.3332611
1.333261
1.3332609
1.3332608
1.3332606
1.3332605
1.3332604
1.3332603
1.3332601
1.33326
1.3332599
1.3332597
1.3332596
1.3332595
1.3332593
1.3332592
1.3332591
1.3332589
1.3332588
1.3332587
1.3332585
1.3332584
1.3332582
1.3332581
1.3332579
1.3332578
1.3332577
1.3332575
1.3332574
1.3332572
1.3332571
1.3332569
1.3332568
1.3332566
1.3332565
1.3332563
1.3332562
1.333256
1.3332558
1.3332557
1.3332555
1.3332554
1.3332552
1.333255
1.3332549
1.3332547
1.3332545
1.3332544
1.3332542
1.333254
1.3332538
1.3332537
1.3332535
1.3332533
1.3332531
1.333253
1.3332528
1.3332526
1.3332524
1.3332522
1.3332521
1.3332519
1.3332517
1.3332515
1.3332513
1.3332511
1.3332509
1.3332507
1.3332505
1.3332503
1.3332501
1.3332499
1.3332497
1.3332495
1.3332493
1.333249
1.3332488
1.3332486
1.3332484
1.3332482
1.3332479
1.3332477
1.3332475
1.3332473
1.333247
1.3332468
1.3332466
1.3332463
1.3332461
1.3332459
1.3332456
1.3332454
1.3332451
1.3332449
1.3332446
1.3332444
1.3332441
1.3332439
1.3332436
1.3332433
1.3332431
1.3332428
1.3332425
1.3332423
1.333242
1.3332417
1.3332414
1.3332412
1.3332409
1.3332406
1.3332403
1.33324
1.3332397
1.3332394
1.3332391
1.3332388
1.3332385
1.3332381
1.3332378
1.3332375
1.3332372
1.3332368
1.3332365
1.3332362
1.3332358
1.3332355
1.3332352
1.3332348
1.3332345
1.3332341
1.3332338
1.3332334
1.333233
1.3332327
1.3332323
1.3332319
1.3332315
1.3332311
1.3332307
1.3332303
1.3332299
1.3332295
1.3332291
1.3332287
1.3332283
1.3332279
1.3332275
1.3332271
1.3332266
1.3332262
1.3332258
1.3332253
1.3332249
1.3332244
1.3332239
1.3332234
1.333223
1.3332225
1.3332219
1.3332214
1.3332209
1.3332203
1.3332198
1.3332192
1.3332186
1.333218
1.3332174
1.3332168
1.3332161
1.3332155
1.3332148
1.3332141
1.3332133
1.3332126
1.3332118
1.333211
1.3332102
1.3332094
1.3332086
1.3332077
1.3332068
1.3332059
1.3332049
1.333204
1.333203
1.333202
1.333201
1.3331999
1.3331988
1.3331977
1.3331966
1.3331954
1.3331942
1.333193
1.3331917
1.3331904
1.3331891
1.3331877
1.3331863
1.3331849
1.3331835
1.333182
1.3331805
1.3331789
1.3331774
1.3331758
1.3331742
1.3331726
1.333171
1.3331694
1.3331678
1.3331663
1.3331647
1.3331633
1.3331618
1.3331605
1.3331592
1.3331581
1.3331571
1.3331562
1.3331556
1.3331551
1.3331549
1.3331548
1.3331548
1.3331549
1.3331553
1.3331564
1.3331578
1.3331591
1.3331601
1.3331608
1.333161
1.333161
1.3331608
1.3331599
1.3331571
1.3331497
1.333131
1.3330855
1.3329748
1.3327129
1.3320844
1.3309732
1.3294852
1.3276065
1.3253381
1.3226988
1.3197234
1.3164608
1.3129709
1.3093207
1.3055804
1.3018202
1.2981063
1.2944984
1.291048
1.2877967
1.2847759
1.2820067
1.2795005
1.2772604
1.2752818
1.2735543
1.2720628
1.2707891
1.2697129
1.2688132
1.2680687
1.267459
1.2669648
1.2665685
1.2662538
1.2660069
1.2658152
1.2656683
1.2655572
1.2654744
1.2654139
1.2653705
1.2653404
1.2653202
1.2653074
1.2653001
1.2652966
1.2652956
1.2652958
1.265297
1.2653009
1.2653061
1.2653112
1.2653161
1.2653208
1.2653251
1.2653292
1.265333
1.2653365
1.2653397
1.2653428
1.2653456
1.2653483
1.2653507
1.265353
1.2653552
1.2653572
1.2653591
1.2653609
1.2653627
1.2653643
1.2653658
1.2653673
1.2653687
1.2653701
1.2653714
1.2653726
1.2653738
1.265375
1.2653761
1.2653772
1.2653782
1.2653792
1.2653802
1.2653811
1.2653821
1.2653829
1.2653838
1.2653846
1.2653855
1.2653863
1.265387
1.2653878
1.2653886
1.2653893
1.26539
1.2653907
1.2653914
1.2653921
1.2653928
1.2653934
1.2653941
1.2653948
1.2653954
1.265396
1.2653967
1.2653973
1.2653979
1.2653986
1.2653992
1.2653998
1.2654004
1.265401
1.2654016
1.2654022
1.2654028
1.2654033
1.2654039
1.2654045
1.265405
1.2654056
1.2654061
1.2654066
1.2654072
1.2654077
1.2654082
1.2654087
1.2654092
1.2654096
1.2654101
1.2654106
1.265411
1.2654115
1.2654119
1.2654124
1.2654128
1.2654132
1.2654136
1.265414
1.2654144
1.2654148
1.2654152
1.2654156
1.2654159
1.2654163
1.2654167
1.265417
1.2654174
1.2654177
1.265418
1.2654184
1.2654187
1.265419
1.2654194
1.2654197
1.26542
1.2654203
1.2654206
1.2654209
1.2654212
1.2654215
1.2654218
1.2654221
1.2654224
1.2654227
1.2654229
1.2654232
1.2654235
1.2654238
1.265424
1.2654243
1.2654245
1.2654248
1.2654251
1.2654253
1.2654256
1.2654258
1.265426
1.2654263
1.2654265
1.2654268
1.265427
1.2654272
1.2654275
1.2654277
1.2654279
1.2654281
1.2654284
1.2654286
1.2654288
1.265429
1.2654292
1.2654294
1.2654297
1.2654299
1.2654301
1.2654303
1.2654305
1.2654307
1.2654309
1.2654311
1.2654313
1.2654315
1.2654317
1.2654319
1.265432
1.2654322
1.2654324
1.2654326
1.2654328
1.265433
1.2654331
1.2654333
1.2654335
1.2654337
1.2654339
1.265434
1.2654342
1.2654344
1.2654345
1.2654347
1.2654349
1.265435
1.2654352
1.2654354
1.2654355
1.2654357
1.2654358
1.265436
1.2654362