/*--------------------------------*- C++ -*----------------------------------*\
| =========                 |                                                 |
| \\      /  F ield         | OpenFOAM: The Open Source CFD Toolbox           |
|  \\    /   O peration     | Version:  4.x                                   |
|   \\  /    A nd           | Web:      www.OpenFOAM.org                      |
|    \\/     M anipulation  |                                                 |
\*---------------------------------------------------------------------------*/
FoamFile
{
    version     2.0;
    format      ascii;
    class       volVectorField;
    location    "0.23";
    object      U;
}
// * * * * * * * * * * * * * * * * * * * * * * * * * * * * * * * * * * * * * //

dimensions      [0 1 -1 0 0 0 0];

internalField   nonuniform List<vector> 
6394
(
(0.0299885901 9.661057964e-05 0.003756218007)
(0.02998756268 3.165663993e-05 0.003756139887)
(0.02998756232 -3.167108258e-05 0.003756140329)
(0.02998858945 -9.661887488e-05 0.003756219698)
(0.02999117298 -0.0001672100726 0.003756426386)
(0.02999667693 -0.0002483180953 0.003756739755)
(0.0300077316 -0.0003516778434 0.003757569136)
(0.0300295259 -0.0004806231648 0.00375753335)
(0.03481939723 0.0001066870191 0.005140113529)
(0.03481997184 3.496631168e-05 0.005140533686)
(0.03481997113 -3.497673007e-05 0.005140534226)
(0.03481939461 -0.0001066921305 0.005140115322)
(0.03481849536 -0.0001846421627 0.0051393445)
(0.03481799275 -0.0002743485083 0.005138388892)
(0.03481948878 -0.0003895467831 0.005137690933)
(0.03482617372 -0.0005356607865 0.005138001201)
(0.03490955046 0.0001068591474 0.002598277416)
(0.03490988665 3.499508614e-05 0.002598941657)
(0.03490988577 -3.500772892e-05 0.002598942461)
(0.03490954769 -0.0001068676913 0.002598278282)
(0.03490914339 -0.0001852245053 0.00259701621)
(0.03490935812 -0.0002757398874 0.002595349586)
(0.03491166265 -0.0003922717029 0.002593709277)
(0.03491843428 -0.0005393358066 0.002593095022)
(0.03462464968 0.0001052731418 0.001862672883)
(0.03462465968 3.449883853e-05 0.001862717262)
(0.03462465924 -3.45116801e-05 0.001862717933)
(0.03462464826 -0.0001052822354 0.001862672906)
(0.03462484273 -0.0001822271907 0.001862762489)
(0.03462578893 -0.0002707956721 0.001863414821)
(0.03462873527 -0.0003845287189 0.001865261802)
(0.03463534552 -0.0005278384658 0.001869523786)
(0.03453565148 0.0001052988683 0.001038744645)
(0.03453576555 3.454092342e-05 0.001038668804)
(0.03453576548 -3.455440963e-05 0.001038669852)
(0.03453565051 -0.0001053085881 0.001038744908)
(0.03453562385 -0.0001819038718 0.001039066023)
(0.03453619276 -0.0002695673922 0.001040023274)
(0.03453853802 -0.0003814676986 0.001042129648)
(0.03454410934 -0.0005216759327 0.001046365422)
(0.03450709862 0.0001054045433 0.0007546843817)
(0.03450739208 3.461827964e-05 0.0007546375191)
(0.03450739199 -3.463047039e-05 0.0007546390634)
(0.0345070968 -0.0001054141264 0.0007546854795)
(0.03450669537 -0.0001816512775 0.0007549632954)
(0.03450665554 -0.0002683668011 0.000755859227)
(0.03450809654 -0.0003784551612 0.0007578289086)
(0.03451228927 -0.0005160740042 0.0007616377215)
(0.0271057115 0.000239909519 0.003095477265)
(0.0270980582 7.925707157e-05 0.003095996092)
(0.02709805824 -7.927454248e-05 0.003095995742)
(0.02710571289 -0.0002399244473 0.003095477293)
(0.02712288748 -0.0004075388354 0.003094359675)
(0.0271541573 -0.0005879829418 0.003092389064)
(0.02720738321 -0.0007920293626 0.003089847069)
(0.02729980703 -0.00102068972 0.003083902013)
(0.03610473513 0.000358024526 0.005679735567)
(0.03609392509 0.0001183020523 0.005681155321)
(0.03609392628 -0.0001183408245 0.005681155447)
(0.03610473941 -0.0003580639891 0.005679734565)
(0.03612907679 -0.0006079022163 0.005676853932)
(0.03617359872 -0.0008764468772 0.005672423496)
(0.0362502418 -0.001178881825 0.005666525802)
(0.03638434447 -0.001520326647 0.005659224553)
(0.03736750111 0.0003410199556 0.004257002037)
(0.03735786965 0.0001125192529 0.004258781071)
(0.03735787093 -0.0001125314372 0.004258780686)
(0.03736750437 -0.0003410303512 0.004256998977)
(0.03738922768 -0.0005808422633 0.004253499094)
(0.03742933868 -0.0008414780012 0.004248334673)
(0.03749930973 -0.001139619995 0.004241571823)
(0.03762497498 -0.00148182971 0.004233234142)
(0.03646816692 0.000339141957 0.003583079503)
(0.03646025453 0.0001118804869 0.003583582373)
(0.0364602551 -0.000111880549 0.003583581966)
(0.03646816677 -0.0003391411419 0.003583077927)
(0.03648651147 -0.0005778951016 0.003582131597)
(0.03652178154 -0.0008379198735 0.003580824541)
(0.0365859983 -0.001136707011 0.003579109863)
(0.03670645101 -0.001481110551 0.003576356491)
(0.03576375733 0.0003417220863 0.002505029256)
(0.03575550628 0.0001127480541 0.002505369865)
(0.03575550625 -0.000112746057 0.002505368375)
(0.03576375608 -0.0003417176529 0.002505027006)
(0.03578277098 -0.0005821171515 0.002504409799)
(0.03581899657 -0.0008437539755 0.002503646683)
(0.03588439894 -0.001144142439 0.002502753391)
(0.0360059465 -0.0014901467 0.002501450635)
(0.03533114565 0.0003434420253 0.001991721407)
(0.03532299441 0.0001133365953 0.001991733658)
(0.03532299444 -0.0001133357453 0.001991732068)
(0.03533114314 -0.000343440235 0.001991717799)
(0.03534995799 -0.0005848191367 0.001991702226)
(0.03538584701 -0.0008472251041 0.001991762017)
(0.03545077111 -0.001148169301 0.001991880033)
(0.03557164878 -0.001494700338 0.001991740257)
(0.02108955319 0.0003123549723 0.002052051142)
(0.02107512206 0.000103547336 0.002052178483)
(0.02107512237 -0.0001035888887 0.002052177823)
(0.02108955959 -0.0003123986201 0.002052051126)
(0.02112168545 -0.00052667188 0.002051746176)
(0.02117894681 -0.0007511461886 0.002051146237)
(0.02127421233 -0.0009937190649 0.002050682979)
(0.02143184661 -0.00125352306 0.002047695528)
(0.03521819315 0.0004508829921 0.005220085054)
(0.03520212919 0.0001491896496 0.005220607382)
(0.03520213079 -0.0001492375561 0.005220608339)
(0.03521820179 -0.0004509378552 0.005220085933)
(0.03525418731 -0.0007633165829 0.005218930166)
(0.03531899756 -0.001095693815 0.005216940349)
(0.03542856315 -0.001463671928 0.005213833601)
(0.03561347283 -0.001872143005 0.005208850751)
(0.03827237961 0.0005167066944 0.004461439196)
(0.03825708688 0.0001712603619 0.004457735176)
(0.03825708873 -0.0001713001089 0.00445773762)
(0.03827238543 -0.0005167495714 0.004461446129)
(0.0383072896 -0.0008719340123 0.004468888567)
(0.03837175566 -0.001246310327 0.004480217397)
(0.03848375456 -0.001655833587 0.004495419161)
(0.03868301387 -0.002108948677 0.004506829772)
(0.03781555983 0.000532100557 0.004234000622)
(0.03779808611 0.0001762917012 0.004234631951)
(0.03779809182 -0.000176317285 0.004234628938)
(0.03781557338 -0.0005321280338 0.004234004195)
(0.03785492806 -0.0008984032354 0.004233159228)
(0.03792632197 -0.001284366214 0.004232982194)
(0.0380479732 -0.001704485065 0.004234694097)
(0.03825419356 -0.002164367352 0.004239313915)
(0.03704564898 0.0005383461957 0.003300195866)
(0.03702830696 0.0001784211119 0.003300461913)
(0.03702831262 -0.0001784412227 0.00330045614)
(0.03704566492 -0.0005383673713 0.003300205858)
(0.0370849339 -0.0009083409893 0.003300030865)
(0.03715664569 -0.00129727294 0.003300564231)
(0.03727963476 -0.001719481371 0.003302457645)
(0.03748896116 -0.002180075471 0.003306133804)
(0.03643553761 0.0005420900025 0.002756794625)
(0.03641859745 0.0001797358272 0.002757502082)
(0.03641860482 -0.0001797542033 0.002757494778)
(0.03643555398 -0.0005421115322 0.002756802029)
(0.03647414304 -0.0009139298896 0.002755698469)
(0.0365451837 -0.001303708998 0.002754723276)
(0.03666805626 -0.001725395041 0.002754464849)
(0.03687849497 -0.002183918148 0.002755444158)
(0.01807381484 0.0005653914053 0.001064153617)
(0.01803656472 0.0003392647963 0.00106476816)
(0.01801975656 0.0001130894961 0.001065141679)
(0.0180197574 -0.0001131847122 0.001065141729)
(0.01803657183 -0.0003393617018 0.001064765857)
(0.01807381926 -0.0005654829077 0.001064160117)
(0.01813936585 -0.0007918901964 0.001063648079)
(0.01824632894 -0.001020337623 0.001064308429)
(0.01841579842 -0.001245689273 0.001066024011)
(0.03409278625 0.0009133521292 0.00356657737)
(0.03404030467 0.000545422257 0.0035665176)
(0.03401677981 0.000181383418 0.003566760096)
(0.03401678075 -0.0001815610687 0.003566761326)
(0.03404031859 -0.0005456064579 0.003566517832)
(0.03409279016 -0.0009135258614 0.003566590763)
(0.03418617576 -0.001288929744 0.003568207737)
(0.03434108466 -0.001678359906 0.003573826519)
(0.03459206516 -0.002080432296 0.003587152377)
(0.03879764619 0.001030827564 0.003716139147)
(0.0387396575 0.0006145462837 0.003723369437)
(0.03871356504 0.0002041840799 0.003727436088)
(0.03871356971 -0.0002043827436 0.003727436041)
(0.03873967804 -0.000614749223 0.003723368394)
(0.03879765752 -0.001031021459 0.003716150886)
(0.03890035963 -0.001457952197 0.003707638701)
(0.03906982913 -0.001903505485 0.003701160571)
(0.03933647542 -0.002363584343 0.00370901273)
(0.03888164981 0.001072011779 0.003829708513)
(0.03882537424 0.0006406190079 0.003832502514)
(0.03880012844 0.0002130994003 0.003834282918)
(0.03880013458 -0.0002133100617 0.00383428119)
(0.0388253929 -0.000640828418 0.003832519473)
(0.03888165662 -0.001072210366 0.003829726863)
(0.03898164203 -0.001511107789 0.003827409674)
(0.03914719121 -0.001964734001 0.003828222249)
(0.03941369194 -0.002429563143 0.003837027898)
(0.03826642869 0.001086475507 0.003331142725)
(0.03821280796 0.0006500590288 0.003334652364)
(0.0381889645 0.000216375862 0.003336779849)
(0.03818896831 -0.0002165780575 0.003336774925)
(0.03821281707 -0.000650258105 0.00333468617)
(0.03826643301 -0.001086664641 0.00333116639)
(0.03836295447 -0.001528563593 0.003327615096)
(0.03852523177 -0.001981684306 0.003326409619)
(0.03879015606 -0.002441215705 0.003331058165)
(0.03762053062 0.001094338407 0.002936062959)
(0.03756901834 0.0006554961877 0.00294001037)
(0.03754630436 0.0002183161648 0.002942325802)
(0.03754630923 -0.0002185037174 0.002942322843)
(0.03756902277 -0.0006556776509 0.002940059099)
(0.03762053031 -0.001094509545 0.002936108611)
(0.03771421716 -0.001537030885 0.002931692208)
(0.03787327923 -0.001988070762 0.002928623716)
(0.03813524574 -0.002442122846 0.002928959011)
(0.01627779182 0.0005506742493 0.0004993792875)
(0.01624461539 0.000334682026 0.0004997924544)
(0.01622965734 0.0001122562179 0.000500062343)
(0.01622965704 -0.0001123276022 0.0005000635749)
(0.01624460896 -0.0003347501857 0.0004997918817)
(0.01627778231 -0.0005507413716 0.0004993869841)
(0.01633590151 -0.0007558383802 0.0004991679963)
(0.01642950111 -0.0009460331421 0.0004999279171)
(0.01657361125 -0.001112307166 0.0005019001434)
(0.03319372972 0.0009560003621 0.002123442234)
(0.03313880868 0.0005778130804 0.002125313224)
(0.03311409089 0.0001932706748 0.002126504293)
(0.0331140867 -0.0001934720881 0.002126509335)
(0.03313879839 -0.0005780118304 0.002125319324)
(0.0331936997 -0.0009561815673 0.002123465876)
(0.03329030139 -0.001323821934 0.002122283114)
(0.03344714515 -0.00167767115 0.002124269731)
(0.03369176867 -0.002007204186 0.002133503103)
(0.03887579042 0.001086091637 0.002660022565)
(0.0388181304 0.0006554511584 0.002664267242)
(0.03879233502 0.0002190675312 0.002666769073)
(0.03879232777 -0.000219326075 0.00266677671)
(0.03881811165 -0.000655703389 0.002664283962)
(0.03887574356 -0.001086320468 0.002660060311)
(0.03897811682 -0.001507416749 0.002655928639)
(0.03914632704 -0.001915903278 0.002655019194)
(0.03941158405 -0.002299814526 0.002663097921)
(0.03950845742 0.001124212533 0.003058549444)
(0.0394545106 0.0006789925203 0.003063679389)
(0.03943074967 0.0002270312898 0.003066687487)
(0.03943073994 -0.0002273011983 0.003066692469)
(0.03945447882 -0.0006792519428 0.003063720006)
(0.03950839233 -0.001124447776 0.003058596447)
(0.03960646383 -0.001558460892 0.00305328458)
(0.03977088718 -0.001977371859 0.00305095101)
(0.04003387144 -0.002367197707 0.003056238411)
(0.03913840282 0.001139749364 0.002933791703)
(0.03908735939 0.0006892219634 0.002941474538)
(0.03906509107 0.0002305947101 0.002945855959)
(0.03906507649 -0.000230851659 0.002945856939)
(0.0390873093 -0.0006894677476 0.002941535455)
(0.03913832633 -0.00113997561 0.00293384631)
(0.03923189971 -0.001576806351 0.00292500541)
(0.03938951254 -0.001994890843 0.002918011391)
(0.03964356763 -0.002378732486 0.002916588469)
(0.03862289154 0.001152214246 0.002759171099)
(0.03857587863 0.0006977570416 0.002768142658)
(0.03855567189 0.0002336223536 0.002773151105)
(0.0385556583 -0.0002338583665 0.002773153486)
(0.03857582436 -0.0006979796495 0.002768221891)
(0.0386228105 -0.001152420255 0.002759249949)
(0.03871049138 -0.001590498399 0.002748094968)
(0.0388609071 -0.002006280574 0.00273713576)
(0.03910649645 -0.002383711293 0.002729612006)
(0.01536336086 0.0005242547294 0.0002376757821)
(0.0153436537 0.0003225123502 0.0002384598295)
(0.01533517742 0.0001088293587 0.0002389140228)
(0.015335175 -0.0001088404006 0.0002389149903)
(0.01534363573 -0.0003225186243 0.0002384588716)
(0.01536333609 -0.0005242694441 0.0002376800124)
(0.01539970669 -0.000706005 0.0002368411386)
(0.01546053363 -0.0008601503725 0.0002364906856)
(0.01555555128 -0.0009759091979 0.0002367940755)
(0.03253573681 0.0009364405794 0.001254106866)
(0.03249615203 0.0005726225642 0.001258412726)
(0.03247887101 0.000192648827 0.001260800025)
(0.03247886324 -0.0001927302347 0.001260805217)
(0.03249611396 -0.000572699342 0.001258419449)
(0.03253567803 -0.0009365124164 0.001254127251)
(0.03260767165 -0.001273139261 0.00124920073)
(0.03272701729 -0.001572149976 0.001245922351)
(0.03291338417 -0.001817133985 0.001247418077)
(0.03865372765 0.001068198715 0.001882790446)
(0.03861073728 0.0006519908132 0.001890668333)
(0.0385921048 0.0002191381329 0.001894959772)
(0.03859208963 -0.0002192613747 0.001894966888)
(0.0386106782 -0.0006521084363 0.001890685586)
(0.03865363707 -0.00106830301 0.001882822829)
(0.03873250192 -0.001456350654 0.001873476675)
(0.03886470839 -0.001805286065 0.001865857118)
(0.03907419675 -0.0020961123 0.001863917754)
(0.03975459324 0.001107718086 0.002392489391)
(0.03971472541 0.0006766761321 0.002402396327)
(0.03969789846 0.0002275556205 0.002407859257)
(0.0396978787 -0.0002276825949 0.002407860502)
(0.03971465055 -0.000676794946 0.002402429502)
(0.03975447878 -0.001107821474 0.002392518824)
(0.03982826786 -0.001509135497 0.002379947786)
(0.03995398019 -0.001869259576 0.002367519222)
(0.04015751592 -0.002166615058 0.002359708173)
(0.03966628489 0.001131088816 0.002502579838)
(0.03963390225 0.0006922030274 0.002516127398)
(0.03962078904 0.0002329740424 0.002523418193)
(0.03962076572 -0.0002330858399 0.002523410583)
(0.03963381324 -0.0006923085121 0.002516168895)
(0.03966616325 -0.001131185226 0.002502600307)
(0.03972943242 -0.001536098878 0.002483916746)
(0.03984406751 -0.001894088308 0.002463366206)
(0.0400383442 -0.002186284606 0.002448463316)
(0.03936327894 0.001152376791 0.002497449848)
(0.03933983122 0.0007061695402 0.00251360828)
(0.03933134389 0.0002378490811 0.002522254816)
(0.03933132391 -0.0002379348045 0.002522244767)
(0.03933974534 -0.0007062515948 0.002513653938)
(0.03936316296 -0.001152456074 0.002497473185)
(0.03941456168 -0.00156168006 0.00247553966)
(0.03951446765 -0.001920142825 0.002451258936)
(0.0396900248 -0.002205803103 0.002428909438)
(0.01491162504 0.0006795786031 0.0001311993542)
(0.01490450964 0.0005130353603 0.0001332069431)
(0.01490373072 0.0003189963904 0.0001347639952)
(0.01490461035 0.0001082196767 0.0001356085535)
(0.01490460588 -0.000108198717 0.0001356072683)
(0.01490370738 -0.0003189724975 0.0001347596802)
(0.01490447737 -0.0005130142336 0.0001332027072)
(0.01491159161 -0.0006795656541 0.00013119219)
(0.01493151066 -0.0008090535196 0.0001291402677)
(0.01497134515 -0.0008907439123 0.0001271990148)
(0.03211143169 0.001224396928 0.0008237543201)
(0.03208235164 0.0009164987854 0.0008346133652)
(0.03207046695 0.000566822437 0.0008430208233)
(0.03206690592 0.0001917918297 0.0008474919643)
(0.03206689871 -0.0001917641643 0.0008474912975)
(0.03207041863 -0.000566789995 0.0008430176954)
(0.03208229 -0.000916472659 0.000834612864)
(0.03211133722 -0.001224369407 0.0008237390827)
(0.0321700332 -0.001475595398 0.0008125940466)
(0.03227262679 -0.00165263272 0.0008035010857)
(0.03841230498 0.001405670331 0.001438812172)
(0.03838169416 0.001050544712 0.001457899264)
(0.03837046901 0.0006489259067 0.001473244688)
(0.03836751608 0.0002193750627 0.001481562529)
(0.0383675042 -0.0002193548226 0.001481560327)
(0.03837040357 -0.0006489013623 0.00147324368)
(0.03838160883 -0.001050525652 0.00145789493)
(0.03841217024 -0.001405642384 0.001438795573)
(0.03847818144 -0.001698681013 0.001419792719)
(0.03859687974 -0.001910524404 0.001402614565)
(0.03983920329 0.001471057998 0.001964699933)
(0.03981507994 0.001103514939 0.00199082759)
(0.03981127521 0.0006835922626 0.002011751549)
(0.03981252651 0.0002313544363 0.002023241398)
(0.03981251175 -0.0002313296286 0.002023230257)
(0.0398112021 -0.0006835644383 0.002011750935)
(0.03981497899 -0.001103496899 0.001990805292)
(0.03983904083 -0.001471029447 0.001964680748)
(0.03989710809 -0.001774852652 0.001937276216)
(0.04000275624 -0.00199229279 0.001911775249)
(0.03999025798 0.001512464103 0.002206915151)
(0.03998105119 0.001132041551 0.002242192879)
(0.0399879338 0.0007003099667 0.002268242088)
(0.03999453554 0.0002370360641 0.002281640358)
(0.03999452135 -0.0002369884038 0.002281618012)
(0.03998785522 -0.0007002633727 0.002268240008)
(0.03998095219 -0.001132014503 0.002242148199)
(0.03999008139 -0.001512423239 0.002206894178)
(0.040033494 -0.001827065917 0.002170052035)
(0.04011762312 -0.002037582294 0.002133172441)
(0.03989766496 0.001551577102 0.002302132616)
(0.03991018223 0.001163082768 0.00233996362)
(0.03992990846 0.0007200620582 0.002368358056)
(0.03994300062 0.0002438279523 0.002383399053)
(0.03994299344 -0.0002437515568 0.00238337171)
(0.03992984068 -0.0007199916573 0.002368348577)
(0.0399101071 -0.001163036959 0.002339908607)
(0.03989750674 -0.001551521407 0.00230210951)
(0.03991178332 -0.00186534781 0.002259220377)
(0.03997857956 -0.002078073272 0.002214313107)
(0.01455418814 0.0008741344774 9.265528936e-05)
(0.01456916752 0.0008122801469 9.737442913e-05)
(0.01459335932 0.0006939315803 0.0001017362843)
(0.01461938254 0.0005304218192 0.0001053907262)
(0.0146408201 0.0003325665312 0.0001080580364)
(0.01465278813 0.0001133224632 0.0001095715498)
(0.01465278223 -0.0001132996338 0.0001095695261)
(0.01464079776 -0.0003325441158 0.000108054079)
(0.01461935202 -0.0005304041906 0.0001053842364)
(0.01459332661 -0.0006939136235 0.0001017300043)
(0.0145691389 -0.0008122663909 9.736537562e-05)
(0.0145541563 -0.0008741309304 9.264548369e-05)
(0.03169712291 0.001582545265 0.0006412406258)
(0.03168721185 0.001451345702 0.0006641480299)
(0.03170158491 0.001227752492 0.000687552075)
(0.03172683869 0.0009321635265 0.000707495055)
(0.03175082479 0.0005822174898 0.0007218560264)
(0.03176477978 0.0001981120158 0.0007296995081)
(0.03176477252 -0.000198043807 0.0007296951079)
(0.03175078005 -0.0005821501153 0.0007218462173)
(0.03172678216 -0.0009321081957 0.0007074791741)
(0.03170150866 -0.001227701898 0.0006875299073)
(0.03168712855 -0.00145131065 0.0006641155439)
(0.03169703002 -0.001582521448 0.0006412072615)
(0.03807074089 0.001826521028 0.001227123358)
(0.03805697644 0.001670701932 0.001268044384)
(0.03807384048 0.001412451366 0.001306225856)
(0.03810552175 0.001071044557 0.001336577545)
(0.03813555332 0.0006677915757 0.001359491181)
(0.03815223428 0.0002270670507 0.001373628064)
(0.03815222655 -0.0002269840587 0.001373617493)
(0.03813549855 -0.0006677085724 0.001359472188)
(0.03810545041 -0.0010709747 0.001336543431)
(0.03807372977 -0.001412390128 0.001306187437)
(0.03805684822 -0.001670664212 0.001267995079)
(0.03807060853 -0.001826490274 0.001227076153)
(0.03969264357 0.001929511861 0.001738852549)
(0.03969519823 0.001767955296 0.001792006014)
(0.03972005627 0.00150455954 0.001857553551)
(0.03977355314 0.001149698195 0.001920936681)
(0.0398294728 0.0007194417388 0.001962427843)
(0.03986144349 0.00024499742 0.001983751002)
(0.03986143809 -0.0002449165387 0.001983731734)
(0.03982942137 -0.0007193603615 0.001962403349)
(0.03977347995 -0.001149633182 0.001920886164)
(0.03971992176 -0.001504507412 0.00185750993)
(0.03969503707 -0.001767923681 0.001791941224)
(0.03969249166 -0.001929478759 0.001738789889)
(0.04000040624 0.002014349602 0.002048969871)
(0.04004944807 0.001857485732 0.002129122948)
(0.04013323468 0.001566756931 0.002184775928)
(0.04020203197 0.001182281766 0.002227753249)
(0.04025859927 0.0007362355079 0.002267320081)
(0.04029205947 0.0002501473411 0.002291262909)
(0.04029205889 -0.0002500469471 0.002291233576)
(0.04025855061 -0.0007361379534 0.002267289272)
(0.04020197831 -0.001182209975 0.002227676228)
(0.0401331225 -0.001566689987 0.002184709984)
(0.04004931122 -0.001857456908 0.002129045424)
(0.04000024297 -0.002014320507 0.002048897686)
(0.04026314298 0.001620933733 0.00233128965)
(0.04035917671 0.001231261058 0.002394164166)
(0.04043577533 0.0007684424242 0.002440523314)
(0.04047815437 0.0002611876213 0.002465647879)
(0.04047816192 -0.000261068367 0.002465614532)
(0.04043573849 -0.0007683269621 0.002440484639)
(0.04035915126 -0.001231169342 0.002394075927)
(0.04026305033 -0.00162084195 0.002331221215)
(0.04016583816 -0.00191037949 0.002258074843)
(0.04008706443 -0.002096675809 0.002202905801)
(0.01416698842 0.0009275683382 9.03989083e-05)
(0.01423541063 0.0008738143428 9.853976302e-05)
(0.01430461282 0.000755490105 0.0001060109379)
(0.01436617023 0.0005824005767 0.0001121635598)
(0.01441232708 0.000367194855 0.0001165520295)
(0.01443699693 0.0001254416462 0.0001188678517)
(0.01443699082 -0.0001254288749 0.0001188662936)
(0.01441230638 -0.0003671835599 0.0001165500994)
(0.01436614426 -0.0005823942229 0.000112160478)
(0.01430458734 -0.0007554828839 0.0001060092855)
(0.01423538861 -0.0008738071794 9.853735124e-05)
(0.01416697075 -0.0009275652876 9.039532958e-05)
(0.03110294867 0.001630173066 0.0006323865526)
(0.03118955271 0.001522406499 0.0006709856436)
(0.03128433321 0.00130702101 0.0007081912157)
(0.03137219759 0.001002696953 0.0007389534534)
(0.03143959234 0.0006304008964 0.0007610059289)
(0.03147599495 0.000215110024 0.0007725473058)
(0.03147598641 -0.0002150484316 0.0007725422292)
(0.03143955154 -0.0006303434854 0.0007609957127)
(0.03137214472 -0.001002651944 0.0007389348974)
(0.0312842677 -0.001306981052 0.0007081722245)
(0.03118948892 -0.001522375096 0.0006709618006)
(0.0311028902 -0.001630150621 0.0006323620739)
(0.03749244005 0.001872006229 0.001241284164)
(0.03759496562 0.001744022387 0.001309713404)
(0.03770677873 0.001494952493 0.001374828966)
(0.03781116742 0.001144697714 0.001426906404)
(0.03789221903 0.0007187911431 0.001463655225)
(0.03793668407 0.0002451086587 0.001482775546)
(0.03793667783 -0.0002450259148 0.001482762777)
(0.03789217467 -0.0007187119493 0.001463631283)
(0.03781110398 -0.001144630903 0.001426867572)
(0.0377066832 -0.001494892213 0.001374793178)
(0.03759486439 -0.001743977426 0.001309672367)
(0.0374923463 -0.001871973197 0.001241245485)
(0.03928291402 0.001994647846 0.001773809411)
(0.03942137593 0.001857504421 0.001862928539)
(0.03957279518 0.001593662381 0.001954504182)
(0.03971239147 0.00121760539 0.002029605372)
(0.03981566011 0.0007642411723 0.002085001643)
(0.03987126697 0.0002606151547 0.002113642429)
(0.03987126483 -0.0002605320881 0.002113621897)
(0.03981562095 -0.0007641577264 0.002084971272)
(0.03971233696 -0.001217532632 0.002029546033)
(0.03957270457 -0.001593593551 0.001954448646)
(0.03942126781 -0.001857456968 0.001862865547)
(0.03928280645 -0.001994613375 0.001773752154)
(0.0398115851 0.002103047009 0.002134306629)
(0.03999814319 0.00195745016 0.002243773092)
(0.04019392518 0.001685169612 0.002349896682)
(0.04037280092 0.001295175785 0.002438049957)
(0.04050312865 0.0008142315669 0.002502273195)
(0.04057250434 0.0002778275208 0.002538557163)
(0.0405725094 -0.0002777388314 0.002538530894)
(0.04050310079 -0.0008141442782 0.00250223741)
(0.04037277694 -0.001295103401 0.002437970577)
(0.04019386134 -0.001685099939 0.002349824758)
(0.03999805475 -0.001957406634 0.002243681201)
(0.03981147355 -0.002103015489 0.002134222331)
(0.04057421091 0.001794021402 0.002575112339)
(0.04078107113 0.001381418104 0.002678081174)
(0.04093702743 0.0008699290161 0.002752525995)
(0.04102115801 0.0002969555807 0.002791888947)
(0.04102116973 -0.0002968626651 0.002791860476)
(0.04093701083 -0.0008698380799 0.002752486543)
(0.0407810829 -0.001381340366 0.002677996638)
(0.04057418155 -0.001793946189 0.002575035634)
(0.040339862 -0.002082983522 0.00245764692)
(0.04008964059 -0.002220784877 0.002330410568)
(0.01373852367 0.001049186093 0.0001039832677)
(0.01385859043 0.00099730572 0.0001166022003)
(0.01397348405 0.0008690454455 0.0001282929179)
(0.01407220841 0.0006739905349 0.0001381806021)
(0.0141446145 0.0004266168721 0.0001452864067)
(0.01418291163 0.0001460015059 0.0001489693652)
(0.01418290713 -0.0001460026243 0.000148967995)
(0.01414459813 -0.0004266177754 0.0001452853067)
(0.0140721884 -0.00067399307 0.0001381801735)
(0.01397346559 -0.0008690442261 0.000128294387)
(0.01385857838 -0.0009973018849 0.0001166036885)
(0.01373851932 -0.001049184941 0.0001039845569)
(0.03042124772 0.001803862585 0.0007182030872)
(0.03060606349 0.001704991474 0.0007783260087)
(0.03078593491 0.001479250283 0.0008341088856)
(0.03094232149 0.001143692788 0.0008814556748)
(0.0310579137 0.0007224471454 0.0009159515971)
(0.03111935589 0.0002469862046 0.0009340030999)
(0.03111934893 -0.0002469535367 0.0009339979029)
(0.0310578808 -0.0007224163303 0.0009159428269)
(0.03094227619 -0.001143668724 0.0008814417187)
(0.03078587967 -0.00147922527 0.000834095703)
(0.03060601733 -0.001704968285 0.0007783117298)
(0.0304212162 -0.001803844888 0.0007181898649)
(0.03682845052 0.002067308931 0.001409979805)
(0.03705347307 0.001950098673 0.001516511843)
(0.03727258209 0.001688629418 0.001618227315)
(0.03746281053 0.001304462037 0.001706052703)
(0.03760368327 0.0008239199703 0.001769435397)
(0.03767914983 0.0002816653779 0.001801729542)
(0.0376791454 -0.0002816189807 0.001801719633)
(0.0376036507 -0.0008238729045 0.001769417811)
(0.03746276252 -0.001304421564 0.001706024905)
(0.03727250895 -0.001688587761 0.0016182018)
(0.03705340471 -0.001950060722 0.001516482726)
(0.03682839518 -0.002067278382 0.001409952801)
(0.03877341173 0.002227067749 0.002015081918)
(0.03905284876 0.002103905503 0.002164916627)
(0.03933436204 0.001815972254 0.002289965161)
(0.03957019421 0.001397532579 0.002393437476)
(0.0397386477 0.0008809775209 0.0024724773)
(0.03982763475 0.0003009283932 0.002515130743)
(0.03982763636 -0.0003008764918 0.002515114409)
(0.03973862498 -0.0008809202396 0.002472450759)
(0.039570164 -0.001397477691 0.00239338778)
(0.03933430913 -0.001815912312 0.00228991582)
(0.03905279757 -0.002103854706 0.002164864359)
(0.0387733529 -0.00222703448 0.0020150401)
(0.03949648424 0.002383839445 0.002450669318)
(0.03983675789 0.002249184751 0.002619047844)
(0.04015997566 0.001961803064 0.002794765904)
(0.04044480004 0.001526898962 0.002950946952)
(0.04065618777 0.0009687415533 0.003061282)
(0.04076773045 0.0003317092005 0.003115923661)
(0.04076773917 -0.0003316663551 0.003115905115)
(0.04065617952 -0.000968691435 0.00306125637)
(0.04044480081 -0.001526848312 0.002950894675)
(0.04015995177 -0.001961746084 0.002794718601)
(0.0398367222 -0.002249135031 0.00261896444)
(0.03949643354 -0.002383802956 0.00245059204)
(0.04077389379 0.002142898863 0.003132120177)
(0.04111679751 0.001666276637 0.003296646846)
(0.04136957368 0.001057633087 0.003416598135)
(0.04150385754 0.0003625998665 0.003479625017)
(0.04150387382 -0.0003625600518 0.00347960511)
(0.04136957866 -0.001057581426 0.003416573325)
(0.04111682553 -0.001666223073 0.003296598258)
(0.04077388576 -0.002142851517 0.003132075155)
(0.04037636963 -0.002452496513 0.002934053961)
(0.03996904089 -0.002569656765 0.002713250841)
(0.01322160811 0.001237697816 0.0001247906979)
(0.01339208081 0.001184106525 0.0001431411589)
(0.01355328355 0.001037529132 0.0001603336333)
(0.01369053057 0.0008080796059 0.0001749890072)
(0.01379055829 0.0005129630692 0.0001856177812)
(0.01384330482 0.0001758040185 0.0001911816435)
(0.01384329985 -0.0001758165194 0.0001911813971)
(0.01379054291 -0.0005129724804 0.0001856190393)
(0.01369051207 -0.0008080862184 0.0001749917337)
(0.0135532673 -0.001037529659 0.0001603382013)
(0.01339206896 -0.001184103272 0.0001431460902)
(0.01322160443 -0.001237698125 0.0001247957686)
(0.02958917664 0.00210663478 0.0008735780544)
(0.02987509991 0.002007892905 0.0009637312391)
(0.03014655249 0.00175459504 0.001047959577)
(0.03037848231 0.001363996414 0.001119647864)
(0.03054807963 0.0008647282269 0.001171819296)
(0.03063775236 0.0002961539903 0.001199222309)
(0.03063774227 -0.0002961461805 0.00119921973)
(0.03054804398 -0.0008647183445 0.001171816197)
(0.03037843243 -0.001363985743 0.001119643945)
(0.03014649537 -0.001754577662 0.001047956538)
(0.02987505177 -0.002007874276 0.0009637293756)
(0.02958915011 -0.002106622412 0.0008735778615)
(0.03602450371 0.002421572341 0.001718600901)
(0.03638207969 0.00230644944 0.001879326282)
(0.03672273498 0.002014320376 0.002031164595)
(0.03701388715 0.001565911091 0.002161858365)
(0.03722688261 0.0009929538352 0.002257011976)
(0.0373397058 0.0003401223732 0.002306655148)
(0.03733969588 -0.0003401025395 0.002306650975)
(0.03722684135 -0.0009929300567 0.002257006552)
(0.03701382776 -0.001565888083 0.002161848972)
(0.03672265758 -0.002014292456 0.002031155657)
(0.03638201297 -0.002306422028 0.001879315419)
(0.03602446013 -0.002421549082 0.001718590536)
(0.03813502231 0.002646274544 0.002456646363)
(0.03857432863 0.002525294535 0.002681824846)
(0.0389928229 0.002208155734 0.002889751101)
(0.03934756963 0.001718429545 0.003064735862)
(0.0396062731 0.001090382586 0.00319208047)
(0.03974343818 0.0003736561343 0.003259330907)
(0.03974343174 -0.0003736290274 0.003259324792)