/*--------------------------------*- C++ -*----------------------------------*\
| =========                 |                                                 |
| \\      /  F ield         | OpenFOAM: The Open Source CFD Toolbox           |
|  \\    /   O peration     | Version:  4.x                                   |
|   \\  /    A nd           | Web:      www.OpenFOAM.org                      |
|    \\/     M anipulation  |                                                 |
\*---------------------------------------------------------------------------*/
FoamFile
{
    version     2.0;
    format      ascii;
    class       volVectorField;
    location    "0.4";
    object      U;
}
// * * * * * * * * * * * * * * * * * * * * * * * * * * * * * * * * * * * * * //

dimensions      [0 1 -1 0 0 0 0];

internalField   nonuniform List<vector> 
6279
(
(0.0508073476 0.01514379116 -0.00776686325)
(0.05543812237 0.01635297375 -0.00942102761)
(0.06051837865 0.01499702415 -0.01088581138)
(0.06530154835 0.01218192681 -0.01218192366)
(0.06909888338 0.008000420345 -0.01316429843)
(0.07121248386 0.002787909808 -0.0137057332)
(0.07121252292 -0.002787946075 -0.01370571333)
(0.06909897515 -0.008000476367 -0.01316426164)
(0.06530165093 -0.01218203586 -0.01218188694)
(0.06051849289 -0.01499700521 -0.01088571219)
(0.05543824969 -0.01635294064 -0.009421125678)
(0.05080750238 -0.01514370375 -0.007766828465)
(0.04825658452 0.01361045043 -0.009656588294)
(0.05217297939 0.01464482826 -0.01163316046)
(0.05647423611 0.01341369397 -0.01341371035)
(0.06051837375 0.01088577881 -0.01499698093)
(0.06370812383 0.007143691386 -0.01621003104)
(0.06547543305 0.002488202763 -0.01687024756)
(0.06547548283 -0.002488207444 -0.01687021112)
(0.0637082451 -0.007143725816 -0.01620993574)
(0.060518506 -0.01088584854 -0.01499686075)
(0.05647437494 -0.01341372758 -0.01341352969)
(0.05217303762 -0.01464482377 -0.01163320055)
(0.04825667344 -0.01361034051 -0.009656559708)
(0.04551153767 0.01189757604 -0.01072182725)
(0.04871531252 0.01273349938 -0.01273350903)
(0.05217297618 0.0116331805 -0.01464483917)
(0.05543815124 0.009421040458 -0.01635294036)
(0.05799083869 0.006170265419 -0.01766897543)
(0.05940204083 0.002146486474 -0.0183835289)
(0.05940208686 -0.002146410936 -0.0183834987)
(0.05799096131 -0.006170220602 -0.01766890024)
(0.05543828827 -0.009421032105 -0.01635285313)
(0.05217306707 -0.01163327512 -0.01464474958)
(0.04871528405 -0.01273359806 -0.01273355466)
(0.04551158599 -0.01189745043 -0.01072188031)
(0.04275956896 0.01004441295 -0.01004438539)
(0.04551147558 0.01072182655 -0.01189768391)
(0.04825650498 0.009656601523 -0.01361059077)
(0.05080726165 0.007766864866 -0.01514395281)
(0.05275793997 0.005063288463 -0.0163226529)
(0.05382017057 0.001756287838 -0.01698698781)
(0.053820187 -0.00175622385 -0.01698697186)
(0.05275797981 -0.005063256443 -0.01632263084)
(0.05080728874 -0.007766872176 -0.01514394182)
(0.04825648984 -0.009656706456 -0.01361060119)
(0.04551145684 -0.01072193871 -0.01189767159)
(0.04275968146 -0.01004435023 -0.0100443919)
(0.05623548563 0.01843783744 -0.009448000288)
(0.06209144116 0.02031100604 -0.01150854335)
(0.0682198288 0.0181926696 -0.01322767949)
(0.07375000189 0.01477534708 -0.01477535066)
(0.07810132895 0.009695281297 -0.01597155186)
(0.08052511763 0.003384666376 -0.0166165779)
(0.08052518565 -0.003384616294 -0.01661655316)
(0.07810153791 -0.009695257201 -0.01597149997)
(0.07375030656 -0.01477543331 -0.01477533134)
(0.06822024515 -0.01819272118 -0.01322760333)
(0.06209176009 -0.02031099814 -0.01150863989)
(0.05623575863 -0.01843788152 -0.009448116719)
(0.05308032299 0.01671192634 -0.01173963798)
(0.05815780477 0.01831545797 -0.01424851325)
(0.06345775461 0.01633412029 -0.01633414273)
(0.06821986939 0.01322763717 -0.01819263702)
(0.07192573045 0.008646039094 -0.01962735137)
(0.07396820516 0.003011514094 -0.02040393478)
(0.07396825867 -0.003011452279 -0.02040391743)
(0.07192588873 -0.008646026441 -0.01962730868)
(0.06822007117 -0.01322771261 -0.01819262589)
(0.06345799464 -0.01633421263 -0.01633408057)
(0.05815793303 -0.0183155123 -0.01424862223)
(0.05308044218 -0.01671189216 -0.01173975795)
(0.04963952546 0.01461339749 -0.01342212061)
(0.05382639183 0.01604325961 -0.01604325688)
(0.05815782307 0.01424852059 -0.01831545412)
(0.0620914927 0.01150853136 -0.02031095407)
(0.06512154399 0.00749540599 -0.02184985638)
(0.06678267637 0.002607349006 -0.02268003431)
(0.06678267314 -0.00260725322 -0.02268003394)
(0.06512155221 -0.007495360678 -0.02184984781)
(0.06209148097 -0.01150855604 -0.0203109654)
(0.05815777293 -0.01424862878 -0.01831543035)
(0.05382636589 -0.01604336936 -0.01604330618)
(0.04963955739 -0.01461338112 -0.0134221752)
(0.04583089946 0.01229564015 -0.01229562243)
(0.04963953802 0.01342213365 -0.0146134217)
(0.0530803493 0.01173965226 -0.01671194148)
(0.05623556364 0.009447989288 -0.01843782426)
(0.05856268312 0.00611803209 -0.01986382089)
(0.05984775253 0.0021247216 -0.02059753268)
(0.05984773244 -0.002124667738 -0.02059752818)
(0.05856265392 -0.006118003048 -0.01986381624)
(0.05623553232 -0.009447996211 -0.01843782593)
(0.05308033621 -0.01173972608 -0.01671195143)
(0.04963965669 -0.01342223388 -0.01461343104)
(0.04583123982 -0.01229553427 -0.01229562032)
(0.06399392532 0.02294292488 -0.01133117534)
(0.07091384602 0.02468047558 -0.01388190502)
(0.07813318169 0.02139685733 -0.01561294425)
(0.08434770894 0.0170300258 -0.01703003954)
(0.08899668139 0.01099394404 -0.01808688912)
(0.09149239906 0.003798004666 -0.01867368488)
(0.09149244121 -0.003797878884 -0.01867367106)
(0.08899681184 -0.01099381285 -0.01808686216)
(0.08434790009 -0.01703000089 -0.01703008154)
(0.07813348171 -0.02139690149 -0.01561297382)
(0.07091408544 -0.02468059298 -0.01388208932)
(0.06399404616 -0.02294310778 -0.01133135187)
(0.0601053381 0.02096662269 -0.01424726173)
(0.06618704394 0.02264776953 -0.01739897769)
(0.07257223644 0.01960322361 -0.01960320565)
(0.07813323308 0.01561290068 -0.02139680197)
(0.08229782625 0.01007933257 -0.02273740752)
(0.08454566994 0.003480847383 -0.02347944924)
(0.0845456847 -0.003480752173 -0.02347946031)
(0.08229788893 -0.01007925712 -0.0227374465)
(0.07813330931 -0.01561291205 -0.02139693011)
(0.07257236215 -0.01960330996 -0.01960332825)
(0.06618712399 -0.02264789734 -0.01739922442)
(0.06010534409 -0.02096679436 -0.01424747299)
(0.05586107359 0.01859244738 -0.01690388203)
(0.0608716863 0.02019122592 -0.02019117311)
(0.06618707292 0.01739902247 -0.02264774021)
(0.07091393117 0.01388189222 -0.0246804248)
(0.07442881416 0.008945291844 -0.02619585647)
(0.07633920467 0.003085500978 -0.02702049907)
(0.07633918511 -0.003085450332 -0.02702051091)
(0.0744287936 -0.008945250048 -0.02619588618)
(0.0709138937 -0.01388189509 -0.0246805097)
(0.06618707741 -0.01739909419 -0.02264779741)
(0.0608717557 -0.0201913236 -0.02019127487)
(0.05586114487 -0.01859255207 -0.01690394296)
(0.05103205953 0.01549070043 -0.01549061228)
(0.05586111142 0.01690393056 -0.01859239519)
(0.06010541283 0.0142472906 -0.02096655837)
(0.06399400808 0.01133114809 -0.02294290282)
(0.06678211437 0.007273515886 -0.02435141376)
(0.06827347131 0.002501145001 -0.02517354346)
(0.06827346625 -0.002501111633 -0.0251735348)
(0.06678212377 -0.007273486443 -0.02435139651)
(0.06399403356 -0.01133113538 -0.02294293788)
(0.06010548276 -0.01424732647 -0.02096657322)
(0.05586125583 -0.01690399374 -0.01859246428)
(0.05103212004 -0.01549091092 -0.01549060158)
(0.07539824301 0.02908553806 -0.01528890552)
(0.08365011206 0.0316407344 -0.01801532909)
(0.09215911818 0.0270555586 -0.0199367287)
(0.09916688669 0.0216660422 -0.02166605321)
(0.1046143312 0.01392486671 -0.0229908205)
(0.1076155786 0.004828149787 -0.02366211704)
(0.1076155895 -0.004828003759 -0.02366210766)
(0.1046143711 -0.01392472786 -0.02299077462)
(0.09916691334 -0.02166598189 -0.02166606775)
(0.09215920641 -0.02705552025 -0.01993672953)
(0.08365015378 -0.03164080739 -0.01801545279)
(0.07539821942 -0.02908574813 -0.01528909224)
(0.07056283915 0.02731543763 -0.01894329738)
(0.07802266622 0.02933630794 -0.02244816226)
(0.08580039561 0.02492132845 -0.02492131558)
(0.09215914594 0.01993668312 -0.02705549942)
(0.09702307856 0.01273736348 -0.02872157836)
(0.09966804402 0.004406075844 -0.02956183798)
(0.09966804348 -0.004405948184 -0.02956185351)
(0.0970230957 -0.01273726317 -0.02872159869)
(0.09215913192 -0.01993666034 -0.02705561422)
(0.0858004219 -0.0249213403 -0.02492141956)
(0.07802264855 -0.02933639568 -0.02244839308)
(0.07056282636 -0.0273155764 -0.01894354447)
(0.06506607249 0.02422848343 -0.02291752595)
(0.07133106529 0.02638344374 -0.0263833813)
(0.07802265446 0.02244821586 -0.02933628413)
(0.08365014782 0.01801531558 -0.03164067869)
(0.08785728688 0.01145744679 -0.03353748532)
(0.09014789381 0.003968041858 -0.03449605204)
(0.09014788842 -0.003967957538 -0.03449607188)
(0.08785729015 -0.01145738549 -0.03353752473)
(0.0836501577 -0.01801529495 -0.03164076445)
(0.07802271378 -0.0224482184 -0.02933635157)
(0.07133113234 -0.02638352556 -0.02638348753)
(0.06506606054 -0.02422866463 -0.02291766794)
(0.05869289529 0.02116946994 -0.02116939013)
(0.06506606769 0.02291758028 -0.02422841586)
(0.0705628223 0.01894333535 -0.02731541108)
(0.07539828135 0.01528889014 -0.02908548926)
(0.07856968187 0.00960503841 -0.03104970318)
(0.08041859714 0.003340109897 -0.03187358812)
(0.08041859674 -0.0033400594 -0.03187359351)
(0.07856970021 -0.009604976624 -0.03104971577)
(0.07539832845 -0.01528884723 -0.0290855453)
(0.07056290399 -0.01894330709 -0.02731547789)
(0.06506614927 -0.02291764667 -0.0242284975)
(0.05869286955 -0.02116963452 -0.02116953025)
(0.0910947681 0.03741214452 -0.01754910276)
(0.1010815775 0.03694261539 -0.02081761315)
(0.1108993863 0.03087290442 -0.02269783529)
(0.1188257025 0.02374172374 -0.02374174032)
(0.1246899009 0.01488567883 -0.02437174336)
(0.1276722572 0.005058536765 -0.02480525134)
(0.1276722567 -0.005058388171 -0.02480524708)
(0.1246899309 -0.01488554512 -0.02437171229)
(0.1188257761 -0.0237416811 -0.02374176038)
(0.1108995559 -0.03087299955 -0.02269785304)
(0.1010817148 -0.03694274571 -0.02081766183)
(0.09109484466 -0.03741235222 -0.01754920756)
(0.08525412069 0.03534830928 -0.02271726979)
(0.09446383518 0.03509270837 -0.02683166942)
(0.1034945268 0.02939581956 -0.02939580695)
(0.110899413 0.02269779833 -0.03087286299)
(0.1164215336 0.01431769522 -0.03188399964)
(0.1193141204 0.004895542415 -0.03247771967)
(0.1193141063 -0.004895418478 -0.03247772548)
(0.1164215301 -0.01431759372 -0.0318839963)
(0.1108994389 -0.02269778041 -0.03087293999)
(0.1034946366 -0.02939592784 -0.02939588726)
(0.09446393136 -0.03509284305 -0.02683177192)
(0.08525413527 -0.03534852275 -0.02271742748)
(0.07860966025 0.0321221545 -0.02786023343)
(0.08653474738 0.03232406363 -0.03232402275)
(0.09446381663 0.0268317119 -0.03509269975)
(0.1010815816 0.02081759975 -0.03694259876)
(0.1059757723 0.01307602951 -0.03823730056)
(0.1085515145 0.004474794626 -0.03891984548)
(0.1085514983 -0.004474695053 -0.03891985821)
(0.1059757494 -0.01307596378 -0.03823731214)
(0.1010815995 -0.02081758745 -0.03694264261)
(0.09446392256 -0.02683176523 -0.03509271574)
(0.08653488709 -0.03232416562 -0.03232406768)
(0.07860973063 -0.03212230337 -0.02786030408)
(0.07024468843 0.02766995369 -0.02766987637)
(0.07860964504 0.02786028637 -0.0321221039)
(0.08525411945 0.02271730594 -0.03534827762)
(0.09109477757 0.0175490753 -0.03741213946)
(0.09517618821 0.01096110061 -0.03899652305)
(0.09737468682 0.003756758335 -0.03981590198)
(0.09737467827 -0.003756683607 -0.03981591578)
(0.09517619611 -0.01096103777 -0.0389965392)
(0.09109482311 -0.01754904217 -0.03741220282)
(0.08525423637 -0.02271735456 -0.03534832016)
(0.07860972436 -0.02786038626 -0.03212220189)
(0.07024465838 -0.02767024989 -0.02766990679)
(0.1185526689 0.04311715868 -0.02536446321)
(0.1302783611 0.04875280667 -0.0286323765)
(0.1403506564 0.04009255623 -0.02999126925)
(0.1486408149 0.03179553196 -0.03179553668)
(0.1548279078 0.02021140407 -0.03349762479)
(0.1579773658 0.007030575081 -0.03428671728)
(0.1579773495 -0.007030403774 -0.03428672162)
(0.1548278901 -0.02021121454 -0.0334976054)
(0.1486408133 -0.03179533262 -0.03179555115)
(0.1403507352 -0.04009239737 -0.02999129287)
(0.1302784611 -0.04875294562 -0.02863251067)
(0.1185526701 -0.04311745084 -0.02536459801)
(0.1120484982 0.04196137259 -0.03163431085)
(0.1228949006 0.04644981694 -0.03611956962)
(0.1323715941 0.03785062414 -0.03785060001)
(0.1403506551 0.02999124371 -0.04009251225)
(0.1462598358 0.01877858367 -0.04217681318)
(0.1492977263 0.006429027803 -0.04317788939)
(0.1492977078 -0.006428884575 -0.04317791098)
(0.1462598115 -0.01877841299 -0.04217683643)
(0.1403506457 -0.02999106042 -0.04009257948)
(0.1323716532 -0.0378504921 -0.0378506739)
(0.1228949783 -0.04644994474 -0.03611973697)
(0.1120484676 -0.04196166338 -0.03163445464)
(0.1045766659 0.03903339157 -0.04013661004)
(0.1140796967 0.04370136477 -0.04370132207)
(0.1228948754 0.03611961723 -0.04644980974)
(0.1302783337 0.02863237823 -0.04875279347)
(0.1356772169 0.0178773122 -0.05108149355)
(0.1383632495 0.00613162507 -0.05219225305)
(0.1383632277 -0.006131528239 -0.05219225948)
(0.1356771811 -0.01787716114 -0.05108149539)
(0.1302783449 -0.02863219808 -0.04875283969)
(0.1228949553 -0.03611951517 -0.04644987843)
(0.1140797876 -0.04370149204 -0.0437014455)
(0.1045766524 -0.03903367184 -0.04013674931)
(0.09383697359 0.03572318404 -0.03572314441)
(0.1045766476 0.04013664994 -0.0390333558)
(0.112048449 0.03163434357 -0.04196138907)
(0.1185526265 0.0253644552 -0.04311716892)
(0.1222799435 0.01560817299 -0.04531078816)
(0.1243879143 0.005385336199 -0.04598600965)
(0.1243879026 -0.005385238301 -0.04598601485)
(0.1222799296 -0.01560803704 -0.04531078583)
(0.1185526246 -0.02536429958 -0.04311723401)
(0.1120484743 -0.03163423943 -0.04196150026)
(0.1045766809 -0.04013675924 -0.03903351436)
(0.09383690355 -0.03572345754 -0.03572329755)
(0.1580469034 0.0713823168 -0.02731039378)
(0.1729143624 0.05572347826 -0.02929586861)
(0.1855334373 0.04424163406 -0.03268570242)
(0.1942237519 0.03178683418 -0.03178685707)
(0.2000350913 0.01860802749 -0.02998767441)
(0.2027099749 0.005915349963 -0.02902568739)
(0.2027099491 -0.005915224943 -0.0290256992)
(0.2000350397 -0.0186079029 -0.02998769368)
(0.1942236961 -0.03178674821 -0.03178691002)
(0.1855333919 -0.04424162875 -0.03268576099)
(0.1729143061 -0.05572367942 -0.02929600037)
(0.158046827 -0.07138261475 -0.02731054729)
(0.1479380275 0.07109105812 -0.03656785959)
(0.1618352854 0.05610898261 -0.04031041236)
(0.1746105683 0.04487413983 -0.04487415382)
(0.1855333967 0.03268566306 -0.04424163976)
(0.1923281259 0.01979325466 -0.04267442441)
(0.1955542773 0.006707014965 -0.04177653439)
(0.1955542526 -0.006706924777 -0.04177653982)
(0.1923280773 -0.019793156 -0.04267442614)
(0.1855333543 -0.0326855842 -0.04424167321)
(0.1746105279 -0.04487412934 -0.04487419736)
(0.1618352461 -0.0561091573 -0.04031052483)
(0.1479379781 -0.07109133757 -0.03656798681)
(0.1357626571 0.06455803909 -0.04787877267)
(0.1482768764 0.05112119328 -0.05112115804)
(0.1618352337 0.04031041603 -0.05610898472)
(0.1729142776 0.02929583164 -0.05572347716)
(0.1798592769 0.01714734117 -0.05537673524)
(0.1832569783 0.005745449883 -0.05491903115)
(0.1832569605 -0.005745393483 -0.05491903302)
(0.1798592473 -0.01714725776 -0.05537672304)
(0.1729142632 -0.02929574603 -0.05572348861)
(0.1618352143 -0.04031039371 -0.05610898921)
(0.148276842 -0.05112135106 -0.05112118422)
(0.1357625835 -0.06455830579 -0.04787881616)
(0.1230982939 0.06358503412 -0.06358494697)
(0.1357626572 0.04787882727 -0.06455797947)
(0.1479379797 0.03656786934 -0.07109104774)
(0.1580468615 0.02731035767 -0.07138230111)
(0.1642392745 0.01586973772 -0.07318921176)
(0.1675997233 0.005449275423 -0.07350727116)
(0.1675997057 -0.005449205358 -0.07350727898)
(0.1642392312 -0.01586964008 -0.07318920533)
(0.1580468078 -0.0273102459 -0.07138235308)
(0.1479379482 -0.03656779306 -0.07109110886)
(0.135762671 -0.04787897119 -0.06455809808)
(0.1230983261 -0.06358535024 -0.06358498188)
(0.1751530906 0.1048833127 -0.04838303838)
(0.1954915992 0.08792079181 -0.05079966909)
(0.2171816332 0.07698305324 -0.0537172107)
(0.2334491482 0.06096637058 -0.0609664285)
(0.2437282901 0.03856354271 -0.06550896482)
(0.2480505241 0.01331472093 -0.06663450824)
(0.2480505096 -0.01331469907 -0.06663450273)
(0.24372827 -0.03856352287 -0.06550895165)
(0.2334491524 -0.06096637884 -0.06096645246)
(0.2171816697 -0.07698309636 -0.05371724903)
(0.1954916475 -0.08792092581 -0.05079974421)
(0.1751531543 -0.1048834433 -0.04838311914)
(0.1640743398 0.09849474478 -0.06235188098)
(0.1843748893 0.08054877427 -0.06394908778)
(0.2049331554 0.06874374943 -0.0687437937)
(0.2171815764 0.05371714372 -0.07698309405)
(0.2268565394 0.03256946588 -0.08222332331)
(0.2315799344 0.0108327408 -0.08391140003)
(0.2315799218 -0.01083271641 -0.08391139832)
(0.2268565259 -0.0325694431 -0.08222331698)
(0.2171815936 -0.05371713146 -0.07698311462)
(0.204933219 -0.06874376206 -0.06874382556)
(0.1843749474 -0.08054888576 -0.06394913687)
(0.1640744024 -0.098494833 -0.06235193234)
(0.1517723734 0.08948298297 -0.074443619)
(0.1714517932 0.07503734278 -0.07503727595)
(0.1843748396 0.06394909478 -0.08054876684)
(0.1954915118 0.05079965113 -0.08792078803)
(0.2038859718 0.03143492306 -0.09395267961)
(0.2083338662 0.01071271216 -0.09663341907)
(0.2083338593 -0.01071265981 -0.09663342086)
(0.2038859669 -0.03143487545 -0.0939526725)
(0.1954915358 -0.05079961843 -0.0879207866)
(0.1843748883 -0.06394910229 -0.08054873879)
(0.1714518137 -0.07503749425 -0.07503722334)
(0.1517723511 -0.08948311291 -0.0744435657)
(0.1349520665 0.08895056476 -0.08895042482)
(0.1517723616 0.07444372114 -0.08948290992)
(0.1640742648 0.06235193595 -0.09849474104)
(0.1751530172 0.0483830652 -0.1048833146)
(0.1822446604 0.02910151318 -0.1106859676)
(0.1858344667 0.009869865946 -0.1129334434)
(0.185834462 -0.009869815385 -0.1129334395)
(0.1822446467 -0.02910144129 -0.1106859537)
(0.1751530276 -0.04838297866 -0.1048833233)
(0.1640743104 -0.06235188169 -0.09849475381)
(0.1517724479 -0.07444383605 -0.08948288276)
(0.1349521123 -0.08895069717 -0.08895037319)
(0.2415717357 0.1360713811 -0.05440107911)
(0.2677796098 0.1124192361 -0.06018228911)
(0.2936281145 0.08130176452 -0.06247537396)
(0.3141589913 0.05747732291 -0.05747742015)
(0.325854907 0.03240032311 -0.0550953243)
(0.3305053374 0.01005808695 -0.05346057142)
(0.3305053343 -0.01005804611 -0.05346056409)
(0.3258549255 -0.03240029452 -0.05509529686)
(0.314159066 -0.05747731101 -0.05747740808)
(0.2936282459 -0.08130178069 -0.06247538327)
(0.2677797437 -0.1124193758 -0.06018231486)
(0.2415718358 -0.1360715066 -0.0544010986)
(0.2188309059 0.1339557782 -0.07260754719)
(0.2435721888 0.1136527065 -0.08403753286)
(0.2668363005 0.08514021034 -0.08514024817)
(0.2936280365 0.06247531344 -0.08130184498)
(0.3086961442 0.0386779729 -0.08145444848)
(0.3157899821 0.01307945427 -0.08169312946)
(0.3157899884 -0.01307937942 -0.08169312051)
(0.308696181 -0.0386779148 -0.08145441783)
(0.2936281224 -0.06247528409 -0.08130181957)
(0.2668364202 -0.08514023194 -0.08514022382)
(0.2435722879 -0.1136528422 -0.08403751967)
(0.2188309682 -0.1339558483 -0.07260755813)
(0.185036344 0.1250871309 -0.09803030126)
(0.2142070609 0.1090929752 -0.1090928722)
(0.2435721224 0.08403758042 -0.1136526987)
(0.2677795132 0.06018228953 -0.1124192807)
(0.2831321941 0.03569818824 -0.1131596551)
(0.2905414031 0.0118313166 -0.1128838675)
(0.2905414077 -0.01183126465 -0.1128838542)
(0.2831322247 -0.03569814047 -0.1131596132)
(0.2677795908 -0.06018225766 -0.1124192324)
(0.2435722353 -0.08403759634 -0.1136526368)
(0.2142071544 -0.1090930992 -0.1090927981)
(0.1850363638 -0.1250871982 -0.09803023236)
(0.1460208999 0.1203214288 -0.1203212675)
(0.185036349 0.09803045315 -0.1250870498)
(0.2188308133 0.07260761506 -0.1339557709)
(0.2415716045 0.05440108555 -0.1360714121)
(0.2539811796 0.03230698602 -0.1398551874)
(0.2598208135 0.01105249273 -0.1413877845)
(0.2598208145 -0.01105238795 -0.1413877757)
(0.2539811999 -0.03230686686 -0.139855158)
(0.2415716731 -0.05440097981 -0.1360713938)
(0.2188309382 -0.07260754804 -0.1339557574)
(0.1850365157 -0.09803051499 -0.1250870199)
(0.1460209932 -0.1203215012 -0.120321233)
(0.2593918612 0.2268379561 -0.09155421335)
(0.3383173651 0.1850102615 -0.08658202072)
(0.3778264603 0.1657547636 -0.1007999885)
(0.4052137849 0.1213824129 -0.1213825359)
(0.4196523237 0.0728734777 -0.1290380941)
(0.4233492977 0.02391910725 -0.1299692921)
(0.423349298 -0.02391906222 -0.1299692805)
(0.4196523671 -0.07287345323 -0.129038068)
(0.4052139088 -0.1213824208 -0.1213825214)
(0.3778266425 -0.1657548334 -0.1007999619)
(0.338317523 -0.1850103905 -0.08658200369)
(0.2593919449 -0.2268380229 -0.09155426701)
(0.2376685922 0.2131646121 -0.1252151215)
(0.3225252098 0.1751879877 -0.1212869872)
(0.3611712979 0.1452504938 -0.1452505253)
(0.377826395 0.1007999075 -0.1657548608)
(0.3928343296 0.05582481322 -0.1707514986)
(0.4001862849 0.01771735507 -0.1715522269)
(0.400186292 -0.01771733648 -0.1715522169)
(0.3928343784 -0.05582479063 -0.1707514717)
(0.3778265058 -0.1007998909 -0.1657548381)
(0.3611714491 -0.1452505136 -0.1452504913)
(0.3225253448 -0.1751880213 -0.1212869859)
(0.2376686253 -0.2131645764 -0.1252152232)
(0.2072224985 0.1823902484 -0.155761261)
(0.2889178008 0.1550310469 -0.1550309471)
(0.3225251626 0.1212870312 -0.1751879451)
(0.3383172519 0.08658201288 -0.1850102944)
(0.3472701002 0.04999305174 -0.1903983963)
(0.3518368833 0.01667908902 -0.1930158138)
(0.3518368871 -0.01667898355 -0.1930158078)
(0.3472701303 -0.04999295211 -0.1903983766)
(0.3383173398 -0.08658193852 -0.1850102792)
(0.322525303 -0.121286988 -0.1751879172)
(0.2889179275 -0.1550310584 -0.1550309212)
(0.2072225154 -0.1823901988 -0.1557613215)
(0.148337742 0.1755030904 -0.1755029892)
(0.2072225089 0.1557613832 -0.182390166)
(0.237668537 0.1252152279 -0.2131645851)
(0.2593917714 0.09155432752 -0.226837983)
(0.27183977 0.05305997233 -0.2354081247)
(0.2774880199 0.01772166128 -0.2388366564)
(0.2774880193 -0.01772140653 -0.2388366548)
(0.2718397917 -0.05305974865 -0.2354081013)
(0.2593918434 -0.09155416496 -0.2268379715)
(0.2376686804 -0.1252151105 -0.2131645864)
(0.207222666 -0.1557613527 -0.182390174)
(0.1483378022 -0.1755030494 -0.1755030968)
(0.4647416178 0.326335026 -0.05869664295)
(0.4823316168 0.2605617185 -0.07026899424)
(0.541801965 0.1443466688 -0.06574214771)
(0.5573040623 0.09346887442 -0.05449928854)
(0.5775825774 0.05824316436 -0.05824331701)
(0.583517526 0.02048172205 -0.05987419957)
(0.5835175264 -0.0204817312 -0.05987418822)
(0.5775826144 -0.05824318844 -0.05824329522)
(0.5573042102 -0.09346893004 -0.0544992638)
(0.5418022017 -0.1443467722 -0.06574209094)
(0.48233182 -0.2605618713 -0.07026896837)
(0.4647417852 -0.3263351334 -0.05869671398)
(0.4421654698 0.3149479548 -0.1009980595)
(0.4685798849 0.2524833145 -0.1194838269)
(0.5272659029 0.141911336 -0.1077801457)
(0.5457081181 0.09378439118 -0.09378452761)
(0.557303957 0.05449915746 -0.09346905509)
(0.5652206465 0.01900721057 -0.0955471751)
(0.5652206486 -0.0190071766 -0.09554716839)
(0.5573039756 -0.0544991329 -0.09346903733)
(0.5457082229 -0.09378439726 -0.09378449919)
(0.5272660894 -0.1419113781 -0.1077801119)
(0.4685800237 -0.2524833582 -0.1194838935)
(0.4421655584 -0.3149479683 -0.1009981871)
(0.3901420881 0.3047923984 -0.1395633016)
(0.4378516409 0.2467467274 -0.1710651833)
(0.497297655 0.1532502917 -0.1532502215)
(0.5272658399 0.1077801365 -0.1419113887)
(0.5418018247 0.06574209189 -0.1443468437)
(0.5488141625 0.02246930653 -0.1466349544)
(0.5488141727 -0.02246914763 -0.1466349536)
(0.5418018746 -0.06574195236 -0.1443468328)
(0.5272659615 -0.1077800483 -0.1419113755)
(0.4972978159 -0.1532502334 -0.1532502346)
(0.4378517279 -0.2467466987 -0.1710653047)
(0.3901420707 -0.3047923553 -0.1395634456)
(0.3045212208 0.2893475417 -0.2129048743)
(0.3814598454 0.2426336975 -0.242633487)
(0.4378515948 0.1710653876 -0.2467466276)
(0.4685798095 0.1194840198 -0.2524832915)
(0.4823315347 0.07026914267 -0.2605618435)
(0.4887785077 0.02314397454 -0.2640504156)
(0.4887785067 -0.02314365966 -0.2640504235)
(0.4823315771 -0.07026887813 -0.260561819)
(0.4685799305 -0.1194838378 -0.2524832598)
(0.4378517545 -0.1710652678 -0.2467466244)
(0.3814599186 -0.2426336438 -0.2426335759)
(0.3045211747 -0.289347505 -0.2129050065)
(0.1784254656 0.2687334592 -0.2687333484)
(0.3045212055 0.2129051109 -0.289347468)
(0.3901420512 0.13956349 -0.3047924052)
(0.4421654364 0.1009982622 -0.3149480052)
(0.4647415932 0.05869679438 -0.3263351595)
(0.4733664967 0.01980807024 -0.3302730857)
(0.4733665168 -0.01980790513 -0.3302730743)
(0.4647416749 -0.05869666575 -0.3263351286)
(0.4421655863 -0.1009981699 -0.3149479786)
(0.3901422483 -0.1395634078 -0.3047923912)
(0.3045213047 -0.2129050559 -0.2893474972)
(0.1784254318 -0.2687334704 -0.2687334576)
(0.519949763 0.6500461282 -0.05938071252)
(0.8144268327 0.4442792613 -0.07492150238)
(0.7664213817 0.3152403379 -0.09446606695)
(0.7254519874 0.1703749685 -0.1006013104)
(0.7253089652 0.09831420034 -0.09831436561)
(0.7306483748 0.03220795246 -0.09610510306)
(0.7306483917 -0.0322079228 -0.09610508155)
(0.7253090871 -0.09831418429 -0.09831431326)
(0.7254522765 -0.1703750176 -0.1006012713)
(0.7664217368 -0.3152404722 -0.0944660806)
(0.8144270707 -0.4442793466 -0.0749215947)
(0.51994989 -0.6500461951 -0.05938081962)
(0.5195369388 0.6367020435 -0.1086725235)
(0.809407095 0.4403306321 -0.1373445309)
(0.7586761488 0.3112313319 -0.17230369)
(0.7221885502 0.1740183112 -0.174018354)
(0.7254519036 0.1006012166 -0.1703751697)
(0.7315602998 0.03253010598 -0.1691778465)
(0.7315603283 -0.03253000281 -0.1691778347)
(0.7254520468 -0.1006011247 -0.1703751272)
(0.7221887853 -0.1740182706 -0.1740183181)
(0.7586763334 -0.3112313199 -0.172303749)
(0.809407171 -0.4403306039 -0.137344684)
(0.5195370443 -0.6367020168 -0.1086726752)
(0.5177443577 0.6142694287 -0.1660263624)
(0.7790044107 0.4440110381 -0.2191083693)
(0.7612161671 0.3013485956 -0.3013484172)
(0.758676049 0.172303879 -0.3112313117)
(0.766421324 0.09446620153 -0.3152405031)
(0.7718839746 0.02989452126 -0.3190300116)
(0.7718840001 -0.02989434429 -0.3190300159)
(0.7664214532 -0.09446604956 -0.3152404736)
(0.7586762496 -0.1723037549 -0.3112312843)
(0.7612163119 -0.3013484921 -0.3013484694)
(0.7790044305 -0.4440109644 -0.2191085073)
(0.5177443561 -0.6142694015 -0.1660264736)
(0.5069425735 0.5631976688 -0.2848175796)
(0.7214836996 0.3841270692 -0.384126922)
(0.7790044047 0.2191085706 -0.4440109759)
(0.8094070768 0.137344773 -0.4403306571)
(0.8144268746 0.07492170437 -0.4442794013)
(0.8130444512 0.02446167567 -0.451067478)
(0.8130444892 -0.02446160014 -0.4510674752)
(0.8144269786 -0.07492165046 -0.4442793719)
(0.8094072373 -0.137344734 -0.440330616)
(0.7790045484 -0.2191085128 -0.4440109605)
(0.7214837144 -0.3841269967 -0.3841269828)
(0.5069425138 -0.5631976497 -0.2848176553)
(0.4009610884 0.4491420043 -0.4491419536)
(0.5069425978 0.2848177015 -0.5631976608)
(0.5177444146 0.1660264692 -0.6142694647)
(0.5195369641 0.10867264 -0.6367021239)
(0.5199497775 0.0593807776 -0.6500462775)
(0.5216327128 0.01961484587 -0.6537471209)
(0.5216327609 -0.01961487435 -0.6537471355)
(0.5199499032 -0.05938082327 -0.650046305)
(0.5195371213 -0.1086727023 -0.6367021441)
(0.517744509 -0.1660264801 -0.6142694937)
(0.5069426098 -0.2848176626 -0.563197714)
(0.4009610478 -0.4491419875 -0.4491420476)
(0.04887205644 0.01770272934 -0.008670491839)
(0.04639546823 0.01566305514 -0.01071810288)
(0.04377353301 0.01356422005 -0.0117449905)
(0.04120489251 0.01126369017 -0.01085419091)
(0.04996017935 0.02405614424 -0.0114656919)
(0.04667243225 0.02086305673 -0.0139357009)
(0.04312229849 0.01788028776 -0.01504619487)
(0.03980261834 0.0145707674 -0.01383960024)
(0.05000626588 0.03345709759 -0.01527736362)
(0.04564102923 0.02854181903 -0.01853073364)
(0.04092563245 0.02401129595 -0.01976592605)
(0.03683254769 0.01893321146 -0.01803325704)
(0.04603852821 0.04689850153 -0.02066298901)
(0.04115067095 0.03896628833 -0.02487937198)
(0.03561974571 0.03178361133 -0.02593080912)
(0.03120299656 0.02430572633 -0.02325655936)
(0.03804243001 0.06143679389 -0.02729956648)
(0.03225852815 0.05005300934 -0.03212142582)
(0.02626644225 0.03936243986 -0.03230508288)
(0.02163384841 0.02932494963 -0.02818204058)
(0.0142138769 0.06764110232 -0.02719332824)
(0.01114075532 0.05276284716 -0.03132297647)
(0.008284545624 0.03919564421 -0.03056060232)
(0.005858158776 0.02689645759 -0.0251256873)
(0.05392228228 0.02303157132 -0.01047253666)
(0.05066584639 0.02079525683 -0.01298676032)
(0.04743700713 0.01795395287 -0.01484773477)
(0.04363403769 0.01507919298 -0.01381445281)
(0.05662935583 0.03194144826 -0.01438623102)
(0.05217753414 0.02840138696 -0.01748803439)
(0.0477441172 0.02427162579 -0.01959726987)
(0.04263406545 0.02040479542 -0.01823859396)
(0.05756947553 0.04478352061 -0.01940264335)
(0.05152169186 0.03942755282 -0.02334649138)
(0.04581793075 0.03309203063 -0.02593789633)
(0.0394852362 0.02719253079 -0.02399562971)
(0.05316949871 0.06352820114 -0.02711556573)
(0.04627375348 0.05460519762 -0.03163038451)
(0.03988321145 0.04443322226 -0.03422879029)
(0.03318247046 0.03539411356 -0.03091258141)
(0.04452892657 0.0848293609 -0.03335714674)
(0.03697738636 0.07110032413 -0.03865344329)
(0.03071334082 0.05565200232 -0.04195729444)
(0.02383954024 0.04333038613 -0.0368367282)
(0.01752910454 0.09311577536 -0.03490604868)
(0.0137051331 0.0748209397 -0.03968060486)
(0.01089606721 0.05443219073 -0.04180831956)
(0.007696047225 0.03988724221 -0.03319510271)
(0.06131928773 0.02984290806 -0.01249133216)
(0.0574682931 0.02677996236 -0.01565662764)
(0.05356505334 0.02348870262 -0.01857574997)
(0.04886025987 0.0193977151 -0.01746379908)
(0.06707759292 0.04117403539 -0.01765793857)
(0.06188897721 0.03609985329 -0.0215019592)
(0.05645297955 0.03134962506 -0.02466348107)
(0.05044097797 0.02584799794 -0.02294690346)
(0.07083128104 0.05619839517 -0.0230504679)
(0.06390256727 0.04822399956 -0.02797064885)