/*--------------------------------*- C++ -*----------------------------------*\
  =========                 |
  \\      /  F ield         | OpenFOAM: The Open Source CFD Toolbox
   \\    /   O peration     | Website:  https://openfoam.org
    \\  /    A nd           | Version:  7
     \\/     M anipulation  |
\*---------------------------------------------------------------------------*/
FoamFile
{
    version     2.0;
    format      ascii;
    class       volScalarField;
    location    "0.00202";
    object      rho;
}
// * * * * * * * * * * * * * * * * * * * * * * * * * * * * * * * * * * * * * //

dimensions      [1 -3 0 0 0 0 0];

internalField   nonuniform List<scalar> 
5000
(
1.3374766
1.3374766
1.3374766
1.3374766
1.3374766
1.3374766
1.3374766
1.3374766
1.3374766
1.3374766
1.3374767
1.3374767
1.3374767
1.3374767
1.3374767
1.3374767
1.3374767
1.3374767
1.3374767
1.3374767
1.3374767
1.3374767
1.3374766
1.3374766
1.3374766
1.3374766
1.3374766
1.3374766
1.3374765
1.3374765
1.3374764
1.3374764
1.3374762
1.3374758
1.337475
1.3374736
1.3374717
1.3374689
1.3374641
1.3374564
1.3374445
1.3374279
1.3374064
1.3373798
1.3373477
1.3373096
1.3372642
1.3372103
1.337147
1.3370741
1.3369928
1.3369051
1.3368141
1.3367234
1.3366366
1.3365566
1.3364854
1.3364244
1.3363737
1.3363329
1.3363009
1.3362764
1.336258
1.3362445
1.3362348
1.3362278
1.3362229
1.3362194
1.3362169
1.3362152
1.336214
1.3362132
1.3362126
1.3362122
1.3362119
1.3362117
1.3362116
1.3362115
1.3362114
1.3362114
1.3362114
1.3362113
1.3362113
1.3362113
1.3362113
1.3362113
1.3362113
1.3362113
1.3362113
1.3362113
1.3362113
1.3362113
1.3362113
1.3362113
1.3362113
1.3362113
1.3362113
1.3362113
1.3362113
1.3362113
1.3362113
1.3362113
1.3362113
1.3362113
1.3362113
1.3362113
1.3362113
1.3362113
1.3362113
1.3362113
1.3362113
1.3362113
1.3362113
1.3362113
1.3362113
1.3362113
1.3362113
1.3362113
1.3362113
1.3362113
1.3362113
1.3362113
1.3362113
1.3362113
1.3362113
1.3362113
1.3362113
1.3362113
1.3362113
1.3362113
1.3362113
1.3362113
1.3362113
1.3362113
1.3362113
1.3362113
1.3362113
1.3362113
1.3362113
1.3362113
1.3362113
1.3362113
1.3362113
1.3362113
1.3362113
1.3362113
1.3362113
1.3362113
1.3362113
1.3362113
1.3362113
1.3362113
1.3362113
1.3362113
1.3362113
1.3362113
1.3362113
1.3362113
1.3362113
1.3362113
1.3362113
1.3362113
1.3362113
1.3362113
1.3362113
1.3362113
1.3362113
1.3362113
1.3362113
1.3362113
1.3362113
1.3362113
1.3362113
1.3362113
1.3362113
1.3362113
1.3362113
1.3362113
1.3362113
1.3362113
1.3362113
1.3362113
1.3362113
1.3362113
1.3362113
1.3362113
1.3362113
1.3362113
1.3362113
1.3362113
1.3362113
1.3362113
1.3362113
1.3362113
1.3362113
1.3362113
1.3362113
1.3362113
1.3362113
1.3362113
1.3362113
1.3362113
1.3362113
1.3362113
1.3362113
1.3362113
1.3362113
1.3362113
1.3362113
1.3362113
1.3362113
1.3362113
1.3362113
1.3362113
1.3362113
1.3362113
1.3362113
1.3362113
1.3362113
1.3362113
1.3362113
1.3362113
1.3362113
1.3362113
1.3362113
1.3362113
1.3362113
1.3362113
1.3362113
1.3362113
1.3362113
1.3362113
1.3362113
1.3362113
1.3362113
1.3362113
1.3362113
1.3362113
1.3362113
1.3362113
1.3362113
1.3362113
1.3362113
1.3362113
1.3362113
1.3362113
1.3362113
1.3362113
1.3362113
1.3362113
1.3362113
1.3362113
1.3362113
1.3362113
1.3362113
1.3362113
1.3362113
1.3362113
1.3362113
1.3362113
1.3362113
1.3362113
1.3362113
1.3362113
1.3362113
1.3362113
1.3362113
1.3362113
1.3362113
1.3362113
1.3362113
1.3362113
1.3362113
1.3362113
1.3362113
1.3362113
1.3362113
1.3362113
1.3362113
1.3362113
1.3362113
1.3362113
1.3362113
1.3362113
1.3362113
1.3362113
1.3362113
1.3362113
1.3362113
1.3362113
1.3362113
1.3362113
1.3362113
1.3362113
1.3362113
1.3362113
1.3362113
1.3362113
1.3362113
1.3362113
1.3362113
1.3362113
1.3362113
1.3362113
1.3362113
1.3362113
1.3362113
1.3362113
1.3362113
1.3362113
1.3362113
1.3362113
1.3362113
1.3362113
1.3362113
1.3362113
1.3362113
1.3362113
1.3362113
1.3362113
1.3362113
1.3362113
1.3362113
1.3362113
1.3362113
1.3362113
1.3362113
1.3362113
1.3362113
1.3362113
1.3362113
1.3362113
1.3362113
1.3362113
1.3362113
1.3362113
1.3362113
1.3362113
1.3362113
1.3362113
1.3362113
1.3362113
1.3362113
1.3362113
1.3362113
1.3362112
1.3362112
1.3362112
1.3362112
1.3362112
1.3362112
1.3362112
1.3362112
1.3362112
1.3362112
1.3362112
1.3362112
1.3362112
1.3362112
1.3362112
1.3362112
1.3362112
1.3362112
1.3362112
1.3362112
1.3362112
1.3362112
1.3362112
1.3362112
1.3362112
1.3362112
1.3362112
1.3362112
1.3362112
1.3362112
1.3362112
1.3362112
1.3362112
1.3362112
1.3362112
1.3362112
1.3362112
1.3362112
1.3362112
1.3362112
1.3362112
1.3362112
1.3362112
1.3362112
1.3362112
1.3362112
1.3362112
1.3362112
1.3362112
1.3362112
1.3362112
1.3362111
1.3362111
1.3362111
1.3362111
1.3362111
1.3362111
1.3362111
1.3362111
1.3362111
1.3362111
1.3362111
1.3362111
1.3362111
1.3362111
1.3362111
1.3362111
1.3362111
1.3362111
1.3362111
1.3362111
1.3362111
1.3362111
1.3362111
1.3362111
1.3362111
1.3362111
1.3362111
1.3362111
1.3362111
1.3362111
1.3362111
1.336211
1.336211
1.336211
1.336211
1.336211
1.336211
1.336211
1.336211
1.336211
1.336211
1.336211
1.336211
1.336211
1.336211
1.336211
1.336211
1.336211
1.336211
1.336211
1.336211
1.336211
1.336211
1.336211
1.336211
1.336211
1.3362109
1.3362109
1.3362109
1.3362109
1.3362109
1.3362109
1.3362109
1.3362109
1.3362109
1.3362109
1.3362109
1.3362109
1.3362109
1.3362109
1.3362109
1.3362109
1.3362109
1.3362109
1.3362108
1.3362108
1.3362108
1.3362108
1.3362108
1.3362108
1.3362108
1.3362108
1.3362108
1.3362108
1.3362107
1.3362107
1.3362107
1.3362107
1.3362107
1.3362107
1.3362107
1.3362107
1.3362107
1.3362106
1.3362106
1.3362106
1.3362106
1.3362106
1.3362106
1.3362105
1.3362105
1.3362105
1.3362105
1.3362105
1.3362104
1.3362104
1.3362104
1.3362104
1.3362104
1.3362104
1.3362103
1.3362103
1.3362103
1.3362102
1.3362102
1.3362102
1.3362101
1.3362101
1.3362101
1.3362101
1.33621
1.33621
1.33621
1.3362099
1.3362099
1.3362098
1.3362098
1.3362098
1.3362097
1.3362097
1.3362096
1.3362096
1.3362095
1.3362095
1.3362094
1.3362094
1.3362093
1.3362092
1.3362092
1.3362091
1.336209
1.336209
1.3362089
1.3362088
1.3362087
1.3362087
1.3362086
1.3362085
1.3362084
1.3362083
1.3362082
1.3362081
1.336208
1.3362079
1.3362078
1.3362077
1.3362076
1.3362075
1.3362074
1.3362073
1.3362071
1.336207
1.3362069
1.3362067
1.3362066
1.3362064
1.3362063
1.3362061
1.336206
1.3362058
1.3362056
1.3362055
1.3362053
1.3362051
1.3362049
1.3362047
1.3362045
1.3362043
1.3362041
1.3362039
1.3362036
1.3362034
1.3362031
1.3362029
1.3362026
1.3362024
1.3362021
1.3362018
1.3362015
1.3362012
1.3362009
1.3362006
1.3362002
1.3361999
1.3361996
1.3361992
1.3361988
1.3361984
1.336198
1.3361976
1.3361972
1.3361968
1.3361963
1.3361959
1.3361954
1.3361949
1.3361944
1.3361939
1.3361934
1.3361929
1.3361923
1.3361918
1.3361912
1.3361906
1.33619
1.3361894
1.3361887
1.336188
1.3361874
1.3361867
1.3361859
1.3361852
1.3361844
1.3361837
1.3361829
1.3361821
1.3361812
1.3361804
1.3361795
1.3361786
1.3361777
1.3361768
1.3361758
1.3361748
1.3361738
1.3361728
1.3361717
1.3361707
1.3361696
1.3361685
1.3361673
1.3361661
1.3361649
1.3361637
1.3361625
1.3361612
1.3361599
1.3361585
1.3361572
1.3361558
1.3361544
1.3361529
1.3361515
1.3361499
1.3361484
1.3361468
1.3361453
1.3361436
1.336142
1.3361403
1.3361386
1.3361368
1.336135
1.3361332
1.3361313
1.3361295
1.3361275
1.3361256
1.3361236
1.3361216
1.3361195
1.3361174
1.3361153
1.3361131
1.3361109
1.3361087
1.3361064
1.3361041
1.3361017
1.3360993
1.3360969
1.3360944
1.3360919
1.3360894
1.3360868
1.3360841
1.3360815
1.3360787
1.336076
1.3360732
1.3360704
1.3360675
1.3360646
1.3360616
1.3360586
1.3360556
1.3360525
1.3360493
1.3360462
1.3360429
1.3360397
1.3360364
1.336033
1.3360296
1.3360262
1.3360227
1.3360192
1.3360156
1.336012
1.3360083
1.3360046
1.3360008
1.335997
1.3359931
1.3359892
1.3359853
1.3359813
1.3359773
1.3359732
1.335969
1.3359649
1.3359606
1.3359563
1.335952
1.3359476
1.3359432
1.3359388
1.3359343
1.3359297
1.3359251
1.3359204
1.3359157
1.335911
1.3359062
1.3359013
1.3358964
1.3358915
1.3358865
1.3358814
1.3358763
1.3358712
1.335866
1.3358608
1.3358555
1.3358502
1.3358448
1.3358394
1.3358339
1.3358284
1.3358229
1.3358173
1.3358116
1.3358059
1.3358002
1.3357944
1.3357886
1.3357827
1.3357767
1.3357708
1.3357648
1.3357587
1.3357526
1.3357464
1.3357403
1.335734
1.3357277
1.3357214
1.335715
1.3357086
1.3357022
1.3356957
1.3356891
1.3356826
1.335676
1.3356693
1.3356626
1.3356558
1.3356491
1.3356422
1.3356354
1.3356285
1.3356215
1.3356145
1.3356075
1.3356005
1.3355934
1.3355862
1.3355791
1.3355719
1.3355646
1.3355574
1.3355501
1.3355427
1.3355353
1.3355279
1.3355205
1.335513
1.3355055
1.3354979
1.3354904
1.3354828
1.3354751
1.3354674
1.3354597
1.335452
1.3354443
1.3354365
1.3354286
1.3354208
1.3354129
1.335405
1.3353971
1.3353891
1.3353812
1.3353732
1.3353651
1.3353571
1.335349
1.3353409
1.3353328
1.3353246
1.3353165
1.3353083
1.3353001
1.3352918
1.3352836
1.3352753
1.335267
1.3352587
1.3352504
1.335242
1.3352337
1.3352253
1.3352169
1.3352085
1.3352001
1.3351916
1.3351832
1.3351747
1.3351662
1.3351578
1.3351493
1.3351407
1.3351322
1.3351237
1.3351151
1.3351066
1.335098
1.3350894
1.3350809
1.3350723
1.3350637
1.3350551
1.3350465
1.3350379
1.3350292
1.3350206
1.335012
1.3350034
1.3349947
1.3349861
1.3349775
1.3349688
1.3349602
1.3349516
1.3349429
1.3349343
1.3349257
1.334917
1.3349084
1.3348998
1.3348911
1.3348825
1.3348739
1.3348653
1.3348567
1.3348481
1.3348395
1.3348309
1.3348223
1.3348138
1.3348052
1.3347966
1.3347881
1.3347795
1.334771
1.3347625
1.334754
1.3347455
1.334737
1.3347285
1.3347201
1.3347116
1.3347032
1.3346948
1.3346864
1.334678
1.3346696
1.3346613
1.3346529
1.3346446
1.3346363
1.334628
1.3346197
1.3346115
1.3346032
1.334595
1.3345868
1.3345786
1.3345705
1.3345623
1.3345542
1.3345461
1.334538
1.33453
1.3345219
1.3345139
1.334506
1.334498
1.33449
1.3344821
1.3344742
1.3344664
1.3344585
1.3344507
1.3344429
1.3344351
1.3344274
1.3344197
1.334412
1.3344043
1.3343967
1.3343891
1.3343815
1.3343739
1.3343664
1.3343589
1.3343514
1.334344
1.3343366
1.3343292
1.3343218
1.3343145
1.3343072
1.3342999
1.3342927
1.3342855
1.3342783
1.3342712
1.334264
1.3342569
1.3342499
1.3342428
1.3342358
1.3342289
1.3342219
1.334215
1.3342082
1.3342013
1.3341945
1.3341877
1.334181
1.3341743
1.3341676
1.334161
1.3341543
1.3341478
1.3341412
1.3341347
1.3341282
1.3341218
1.3341153
1.3341089
1.3341026
1.3340962
1.33409
1.3340837
1.3340775
1.3340713
1.3340651
1.334059
1.3340529
1.3340468
1.3340408
1.3340348
1.3340288
1.3340229
1.334017
1.3340111
1.3340053
1.3339995
1.3339937
1.3339879
1.3339822
1.3339765
1.3339709
1.3339653
1.3339597
1.3339541
1.3339486
1.3339431
1.3339377
1.3339323
1.3339269
1.3339215
1.3339162
1.3339109
1.3339056
1.3339004
1.3338952
1.33389
1.3338848
1.3338797
1.3338746
1.3338696
1.3338646
1.3338596
1.3338546
1.3338497
1.3338448
1.3338399
1.333835
1.3338302
1.3338254
1.3338207
1.333816
1.3338113
1.3338066
1.3338019
1.3337973
1.3337927
1.3337882
1.3337836
1.3337791
1.3337747
1.3337702
1.3337658
1.3337614
1.333757
1.3337527
1.3337484
1.3337441
1.3337399
1.3337356
1.3337314
1.3337273
1.3337231
1.333719
1.3337149
1.3337108
1.3337068
1.3337028
1.3336988
1.3336948
1.3336909
1.3336869
1.3336831
1.3336792
1.3336753
1.3336715
1.3336677
1.333664
1.3336602
1.3336565
1.3336528
1.3336492
1.3336455
1.3336419
1.3336383
1.3336347
1.3336312
1.3336277
1.3336242
1.3336207
1.3336172
1.3336138
1.3336104
1.333607
1.3336037
1.3336003
1.333597
1.3335937
1.3335904
1.3335872
1.333584
1.3335808
1.3335776
1.3335745
1.3335713
1.3335682
1.3335651
1.3335621
1.333559
1.333556
1.333553
1.33355
1.3335471
1.3335442
1.3335412
1.3335384
1.3335355
1.3335327
1.3335298
1.333527
1.3335243
1.3335215
1.3335188
1.333516
1.3335134
1.3335107
1.333508
1.3335054
1.3335028
1.3335002
1.3334976
1.3334951
1.3334926
1.3334901
1.3334876
1.3334851
1.3334827
1.3334803
1.3334779
1.3334755
1.3334731
1.3334708
1.3334685
1.3334662
1.3334639
1.3334617
1.3334594
1.3334572
1.333455
1.3334528
1.3334507
1.3334485
1.3334464
1.3334443
1.3334423
1.3334402
1.3334382
1.3334362
1.3334342
1.3334322
1.3334302
1.3334283
1.3334264
1.3334245
1.3334226
1.3334207
1.3334189
1.3334171
1.3334153
1.3334135
1.3334117
1.33341
1.3334083
1.3334065
1.3334049
1.3334032
1.3334015
1.3333999
1.3333983
1.3333967
1.3333951
1.3333935
1.333392
1.3333905
1.333389
1.3333875
1.333386
1.3333845
1.3333831
1.3333817
1.3333803
1.3333789
1.3333775
1.3333762
1.3333749
1.3333735
1.3333722
1.3333709
1.3333697
1.3333684
1.3333672
1.333366
1.3333648
1.3333636
1.3333624
1.3333612
1.3333601
1.333359
1.3333579
1.3333568
1.3333557
1.3333546
1.3333536
1.3333525
1.3333515
1.3333505
1.3333495
1.3333486
1.3333476
1.3333466
1.3333457
1.3333448
1.3333439
1.333343
1.3333421
1.3333412
1.3333404
1.3333396
1.3333387
1.3333379
1.3333371
1.3333363
1.3333356
1.3333348
1.333334
1.3333333
1.3333326
1.3333319
1.3333312
1.3333305
1.3333298
1.3333291
1.3333285
1.3333278
1.3333272
1.3333266
1.3333259
1.3333253
1.3333247
1.3333242
1.3333236
1.333323
1.3333225
1.3333219
1.3333214
1.3333209
1.3333204
1.3333199
1.3333194
1.3333189
1.3333184
1.3333179
1.3333175
1.333317
1.3333166
1.3333162
1.3333157
1.3333153
1.3333149
1.3333145
1.3333141
1.3333137
1.3333133
1.333313
1.3333126
1.3333122
1.3333119
1.3333116
1.3333112
1.3333109
1.3333106
1.3333103
1.3333099
1.3333096
1.3333093
1.3333091
1.3333088
1.3333085
1.3333082
1.3333079
1.3333077
1.3333074
1.3333072
1.3333069
1.3333067
1.3333065
1.3333062
1.333306
1.3333058
1.3333056
1.3333054
1.3333052
1.333305
1.3333048
1.3333046
1.3333044
1.3333042
1.333304
1.3333039
1.3333037
1.3333035
1.3333034
1.3333032
1.3333031
1.3333029
1.3333028
1.3333026
1.3333025
1.3333023
1.3333022
1.3333021
1.3333019
1.3333018
1.3333017
1.3333016
1.3333015
1.3333014
1.3333013
1.3333011
1.333301
1.3333009
1.3333008
1.3333007
1.3333006
1.3333005
1.3333005
1.3333004
1.3333003
1.3333002
1.3333001
1.3333001
1.3333
1.3332999
1.3332998
1.3332998
1.3332997
1.3332996
1.3332996
1.3332995
1.3332994
1.3332994
1.3332993
1.3332993
1.3332992
1.3332991
1.3332991
1.333299
1.333299
1.3332989
1.3332989
1.3332989
1.3332988
1.3332988
1.3332987
1.3332987
1.3332987
1.3332986
1.3332986
1.3332985
1.3332985
1.3332985
1.3332984
1.3332984
1.3332984
1.3332983
1.3332983
1.3332983
1.3332983
1.3332982
1.3332982
1.3332982
1.3332982
1.3332981
1.3332981
1.3332981
1.3332981
1.333298
1.333298
1.333298
1.333298
1.333298
1.3332979
1.3332979
1.3332979
1.3332979
1.3332979
1.3332978
1.3332978
1.3332978
1.3332978
1.3332978
1.3332978
1.3332978
1.3332977
1.3332977
1.3332977
1.3332977
1.3332977
1.3332977
1.3332977
1.3332976
1.3332976
1.3332976
1.3332976
1.3332976
1.3332976
1.3332976
1.3332976
1.3332976
1.3332975
1.3332975
1.3332975
1.3332975
1.3332975
1.3332975
1.3332975
1.3332975
1.3332975
1.3332975
1.3332974
1.3332974
1.3332974
1.3332974
1.3332974
1.3332974
1.3332974
1.3332974
1.3332974
1.3332974
1.3332974
1.3332973
1.3332973
1.3332973
1.3332973
1.3332973
1.3332973
1.3332973
1.3332973
1.3332973
1.3332973
1.3332973
1.3332973
1.3332973
1.3332972
1.3332972
1.3332972
1.3332972
1.3332972
1.3332972
1.3332972
1.3332972
1.3332972
1.3332972
1.3332972
1.3332972
1.3332972
1.3332971
1.3332971
1.3332971
1.3332971
1.3332971
1.3332971
1.3332971
1.3332971
1.3332971
1.3332971
1.3332971
1.3332971
1.3332971
1.333297
1.333297
1.333297
1.333297
1.333297
1.333297
1.333297
1.333297
1.333297
1.333297
1.333297
1.3332969
1.3332969
1.3332969
1.3332969
1.3332969
1.3332969
1.3332969
1.3332969
1.3332969
1.3332969
1.3332969
1.3332968
1.3332968
1.3332968
1.3332968
1.3332968
1.3332968
1.3332968
1.3332968
1.3332968
1.3332968
1.3332968
1.3332967
1.3332967
1.3332967
1.3332967
1.3332967
1.3332967
1.3332967
1.3332967
1.3332967
1.3332967
1.3332966
1.3332966
1.3332966
1.3332966
1.3332966
1.3332966
1.3332966
1.3332966
1.3332966
1.3332966
1.3332965
1.3332965
1.3332965
1.3332965
1.3332965
1.3332965
1.3332965
1.3332965
1.3332965
1.3332965
1.3332964
1.3332964
1.3332964
1.3332964
1.3332964
1.3332964
1.3332964
1.3332964
1.3332964
1.3332964
1.3332963
1.3332963
1.3332963
1.3332963
1.3332963
1.3332963
1.3332963
1.3332963
1.3332962
1.3332962
1.3332962
1.3332962
1.3332962
1.3332962
1.3332962
1.3332962
1.3332962
1.3332962
1.3332962
1.3332961
1.3332961
1.3332961
1.3332961
1.3332961
1.3332961
1.3332961
1.3332961
1.333296
1.333296
1.333296
1.333296
1.333296
1.333296
1.333296
1.333296
1.333296
1.3332959
1.3332959
1.3332959
1.3332959
1.3332959
1.3332959
1.3332959
1.3332959
1.3332959
1.3332959
1.3332959
1.3332958
1.3332958
1.3332958
1.3332958
1.3332958
1.3332958
1.3332958
1.3332958
1.3332958
1.3332958
1.3332957
1.3332957
1.3332957
1.3332957
1.3332957
1.3332957
1.3332957
1.3332957
1.3332957
1.3332957
1.3332956
1.3332956
1.3332956
1.3332956
1.3332956
1.3332956
1.3332956
1.3332956
1.3332956
1.3332956
1.3332955
1.3332955
1.3332955
1.3332955
1.3332955
1.3332955
1.3332955
1.3332955
1.3332955
1.3332955
1.3332954
1.3332954
1.3332954
1.3332954
1.3332954
1.3332954
1.3332954
1.3332954
1.3332954
1.3332954
1.3332953
1.3332953
1.3332953
1.3332953
1.3332953
1.3332953
1.3332953
1.3332953
1.3332953
1.3332953
1.3332952
1.3332952
1.3332952
1.3332952
1.3332952
1.3332952
1.3332952
1.3332952
1.3332952
1.3332952
1.3332951
1.3332951
1.3332951
1.3332951
1.3332951
1.3332951
1.3332951
1.3332951
1.3332951
1.3332951
1.333295
1.333295
1.333295
1.333295
1.333295
1.333295
1.333295
1.333295
1.333295
1.3332949
1.3332949
1.3332949
1.3332949
1.3332949
1.3332949
1.3332949
1.3332949
1.3332949
1.3332948
1.3332948
1.3332948
1.3332948
1.3332948
1.3332948
1.3332948
1.3332948
1.3332948
1.3332947
1.3332947
1.3332947
1.3332947
1.3332947
1.3332947
1.3332947
1.3332947
1.3332947
1.3332946
1.3332946
1.3332946
1.3332946
1.3332946
1.3332946
1.3332946
1.3332946
1.3332945
1.3332945
1.3332945
1.3332945
1.3332945
1.3332945
1.3332945
1.3332945
1.3332945
1.3332944
1.3332944
1.3332944
1.3332944
1.3332944
1.3332944
1.3332944
1.3332943
1.3332943
1.3332943
1.3332943
1.3332943
1.3332943
1.3332943
1.3332943
1.3332942
1.3332942
1.3332942
1.3332942
1.3332942
1.3332942
1.3332942
1.3332942
1.3332942
1.3332941
1.3332941
1.3332941
1.3332941
1.3332941
1.3332941
1.3332941
1.3332941
1.333294
1.333294
1.333294
1.333294
1.333294
1.333294
1.333294
1.3332939
1.3332939
1.3332939
1.3332939
1.3332939
1.3332939
1.3332939
1.3332939
1.3332938
1.3332938
1.3332938
1.3332938
1.3332938
1.3332938
1.3332938
1.3332938
1.3332937
1.3332937
1.3332937
1.3332937
1.3332937
1.3332937
1.3332937
1.3332936
1.3332936
1.3332936
1.3332936
1.3332936
1.3332936
1.3332936
1.3332936
1.3332935
1.3332935
1.3332935
1.3332935
1.3332935
1.3332935
1.3332934
1.3332934
1.3332934
1.3332934
1.3332934
1.3332934
1.3332934
1.3332934
1.3332933
1.3332933
1.3332933
1.3332933
1.3332933
1.3332933
1.3332933
1.3332932
1.3332932
1.3332932
1.3332932
1.3332932
1.3332932
1.3332932
1.3332931
1.3332931
1.3332931
1.3332931
1.3332931
1.3332931
1.3332931
1.333293
1.333293
1.333293
1.333293
1.333293
1.333293
1.3332929
1.3332929
1.3332929
1.3332929
1.3332929
1.3332929
1.3332929
1.3332928
1.3332928
1.3332928
1.3332928
1.3332928
1.3332928
1.3332928
1.3332927
1.3332927
1.3332927
1.3332927
1.3332927
1.3332927
1.3332926
1.3332926
1.3332926
1.3332926
1.3332926
1.3332926
1.3332925
1.3332925
1.3332925
1.3332925
1.3332925
1.3332925
1.3332924
1.3332924
1.3332924
1.3332924
1.3332924
1.3332924
1.3332923
1.3332923
1.3332923
1.3332923
1.3332923
1.3332923
1.3332922
1.3332922
1.3332922
1.3332922
1.3332922
1.3332922
1.3332922
1.3332921
1.3332921
1.3332921
1.3332921
1.3332921
1.3332921
1.333292
1.333292
1.333292
1.333292
1.333292
1.333292
1.3332919
1.3332919
1.3332919
1.3332919
1.3332919
1.3332919
1.3332918
1.3332918
1.3332918
1.3332918
1.3332918
1.3332917
1.3332917
1.3332917
1.3332917
1.3332917
1.3332917
1.3332916
1.3332916
1.3332916
1.3332916
1.3332916
1.3332916
1.3332915
1.3332915
1.3332915
1.3332915
1.3332915
1.3332915
1.3332914
1.3332914
1.3332914
1.3332914
1.3332914
1.3332913
1.3332913
1.3332913
1.3332913
1.3332913
1.3332912
1.3332912
1.3332912
1.3332912
1.3332912
1.3332912
1.3332911
1.3332911
1.3332911
1.3332911
1.3332911
1.3332911
1.333291
1.333291
1.333291
1.333291
1.333291
1.3332909
1.3332909
1.3332909
1.3332909
1.3332909
1.3332909
1.3332908
1.3332908
1.3332908
1.3332908
1.3332908
1.3332907
1.3332907
1.3332907
1.3332907
1.3332907
1.3332906
1.3332906
1.3332906
1.3332906
1.3332906
1.3332905
1.3332905
1.3332905
1.3332905
1.3332905
1.3332905
1.3332904
1.3332904
1.3332904
1.3332904
1.3332904
1.3332903
1.3332903
1.3332903
1.3332903
1.3332903
1.3332902
1.3332902
1.3332902
1.3332902
1.3332902
1.3332901
1.3332901
1.3332901
1.3332901
1.3332901
1.33329
1.33329
1.33329
1.33329
1.33329
1.3332899
1.3332899
1.3332899
1.3332899
1.3332899
1.3332898
1.3332898
1.3332898
1.3332898
1.3332898
1.3332897
1.3332897
1.3332897
1.3332897
1.3332896
1.3332896
1.3332896
1.3332896
1.3332895
1.3332895
1.3332895
1.3332895
1.3332895
1.3332894
1.3332894
1.3332894
1.3332894
1.3332894
1.3332893
1.3332893
1.3332893
1.3332893
1.3332892
1.3332892
1.3332892
1.3332892
1.3332891
1.3332891
1.3332891
1.3332891
1.3332891
1.333289
1.333289
1.333289
1.333289
1.3332889
1.3332889
1.3332889
1.3332889
1.3332888
1.3332888
1.3332888
1.3332888
1.3332887
1.3332887
1.3332887
1.3332887
1.3332886
1.3332886
1.3332886
1.3332886
1.3332885
1.3332885
1.3332885
1.3332885
1.3332884
1.3332884
1.3332884
1.3332884
1.3332883
1.3332883
1.3332883
1.3332883
1.3332882
1.3332882
1.3332882
1.3332882
1.3332881
1.3332881
1.3332881
1.3332881
1.333288
1.333288
1.333288
1.333288
1.3332879
1.3332879
1.3332879
1.3332879
1.3332878
1.3332878
1.3332878
1.3332877
1.3332877
1.3332877
1.3332877
1.3332876
1.3332876
1.3332876
1.3332876
1.3332875
1.3332875
1.3332875
1.3332875
1.3332874
1.3332874
1.3332874
1.3332874
1.3332873
1.3332873
1.3332873
1.3332872
1.3332872
1.3332872
1.3332872
1.3332871
1.3332871
1.3332871
1.333287
1.333287
1.333287
1.333287
1.3332869
1.3332869
1.3332869
1.3332869
1.3332868
1.3332868
1.3332868
1.3332867
1.3332867
1.3332867
1.3332867
1.3332866
1.3332866
1.3332866
1.3332865
1.3332865
1.3332865
1.3332864
1.3332864
1.3332864
1.3332864
1.3332863
1.3332863
1.3332863
1.3332862
1.3332862
1.3332862
1.3332862
1.3332861
1.3332861
1.3332861
1.333286
1.333286
1.333286
1.3332859
1.3332859
1.3332859
1.3332858
1.3332858
1.3332858
1.3332858
1.3332857
1.3332857
1.3332857
1.3332856
1.3332856
1.3332856
1.3332855
1.3332855
1.3332855
1.3332854
1.3332854
1.3332854
1.3332853
1.3332853
1.3332853
1.3332852
1.3332852
1.3332852
1.3332852
1.3332851
1.3332851
1.3332851
1.333285
1.333285
1.333285
1.3332849
1.3332849
1.3332849
1.3332848
1.3332848
1.3332847
1.3332847
1.3332847
1.3332846
1.3332846
1.3332846
1.3332845
1.3332845
1.3332845
1.3332844
1.3332844
1.3332844
1.3332843
1.3332843
1.3332843
1.3332842
1.3332842
1.3332842
1.3332841
1.3332841
1.333284
1.333284
1.333284
1.3332839
1.3332839
1.3332839
1.3332838
1.3332838
1.3332838
1.3332837
1.3332837
1.3332836
1.3332836
1.3332835
1.3332835
1.3332835
1.3332834
1.3332834
1.3332834
1.3332833
1.3332833
1.3332832
1.3332832
1.3332832
1.3332831
1.3332831
1.3332831
1.333283
1.333283
1.3332829
1.3332829
1.3332828
1.3332828
1.3332828
1.3332827
1.3332827
1.3332826
1.3332826
1.3332826
1.3332825
1.3332825
1.3332824
1.3332824
1.3332824
1.3332823
1.3332823
1.3332822
1.3332822
1.3332821
1.3332821
1.3332821
1.333282
1.333282
1.3332819
1.3332819
1.3332818
1.3332818
1.3332817
1.3332817
1.3332817
1.3332816
1.3332816
1.3332815
1.3332815
1.3332814
1.3332814
1.3332814
1.3332813
1.3332813
1.3332812
1.3332812
1.3332811
1.3332811
1.333281
1.333281
1.3332809
1.3332809
1.3332808
1.3332808
1.3332808
1.3332807
1.3332807
1.3332806
1.3332806
1.3332805
1.3332805
1.3332804
1.3332804
1.3332803
1.3332803
1.3332802
1.3332802
1.3332801
1.3332801
1.33328
1.33328
1.3332799
1.3332799
1.3332798
1.3332798
1.3332797
1.3332797
1.3332796
1.3332796
1.3332795
1.3332795
1.3332794
1.3332794
1.3332793
1.3332793
1.3332792
1.3332791
1.3332791
1.333279
1.333279
1.3332789
1.3332789
1.3332788
1.3332788
1.3332787
1.3332786
1.3332786
1.3332785
1.3332785
1.3332784
1.3332784
1.3332783
1.3332783
1.3332782
1.3332782
1.3332781
1.333278
1.333278
1.3332779
1.3332779
1.3332778
1.3332777
1.3332777
1.3332776
1.3332776
1.3332775
1.3332774
1.3332774
1.3332773
1.3332773
1.3332772
1.3332771
1.3332771
1.333277
1.3332769
1.3332769
1.3332768
1.3332768
1.3332767
1.3332766
1.3332766
1.3332765
1.3332764
1.3332764
1.3332763
1.3332762
1.3332762
1.3332761
1.333276
1.333276
1.3332759
1.3332758
1.3332758
1.3332757
1.3332756
1.3332756
1.3332755
1.3332754
1.3332754
1.3332753
1.3332752
1.3332752
1.3332751
1.333275
1.333275
1.3332749
1.3332748
1.3332747
1.3332747
1.3332746
1.3332745
1.3332744
1.3332744
1.3332743
1.3332742
1.3332741
1.3332741
1.333274
1.3332739
1.3332738
1.3332738
1.3332737
1.3332736
1.3332735
1.3332735
1.3332734
1.3332733
1.3332732
1.3332731
1.3332731
1.333273
1.3332729
1.3332728
1.3332727
1.3332726
1.3332726
1.3332725
1.3332724
1.3332723
1.3332722
1.3332721
1.3332721
1.333272
1.3332719
1.3332718
1.3332717
1.3332716
1.3332715
1.3332715
1.3332714
1.3332713
1.3332712
1.3332711
1.333271
1.3332709
1.3332708
1.3332707
1.3332706
1.3332705
1.3332704
1.3332703
1.3332703
1.3332702
1.3332701
1.33327
1.3332699
1.3332698
1.3332697
1.3332696
1.3332695
1.3332694
1.3332693
1.3332692
1.333269
1.3332689
1.3332688
1.3332687
1.3332686
1.3332685
1.3332684
1.3332683
1.3332682
1.3332681
1.333268
1.3332679
1.3332678
1.3332677
1.3332676
1.3332675
1.3332673
1.3332672
1.3332671
1.333267
1.3332669
1.3332667
1.3332666
1.3332665
1.3332664
1.3332663
1.3332661
1.333266
1.3332659
1.3332658
1.3332657
1.3332655
1.3332654
1.3332653
1.3332652
1.333265
1.3332649
1.3332648
1.3332646
1.3332645
1.3332644
1.3332642
1.3332641
1.333264
1.3332638
1.3332637
1.3332635
1.3332634
1.3332632
1.3332631
1.333263
1.3332628
1.3332627
1.3332625
1.3332624
1.3332622
1.3332621
1.333262
1.3332618
1.3332617
1.3332615
1.3332614
1.3332612
1.3332611
1.3332609
1.3332607
1.3332606
1.3332604
1.3332603
1.3332601
1.3332599
1.3332598
1.3332596
1.3332594
1.3332592
1.3332591
1.3332589
1.3332587
1.3332585
1.3332583
1.3332582
1.333258
1.3332578
1.3332576
1.3332574
1.3332572
1.3332571
1.3332569
1.3332567
1.3332565
1.3332563
1.3332561
1.3332559
1.3332557
1.3332555
1.3332553
1.3332551
1.3332548
1.3332546
1.3332544
1.3332542
1.333254
1.3332538
1.3332536
1.3332533
1.3332531
1.3332529
1.3332527
1.3332524
1.3332522
1.3332519
1.3332517
1.3332515
1.3332512
1.3332509
1.3332507
1.3332504
1.3332502
1.3332499
1.3332496
1.3332494
1.3332491
1.3332488
1.3332486
1.3332483
1.333248
1.3332477
1.3332474
1.3332471
1.3332469
1.3332466
1.3332463
1.333246
1.3332457
1.3332454
1.3332451
1.3332447
1.3332444
1.3332441
1.3332438
1.3332434
1.3332431
1.3332427
1.3332424
1.333242
1.3332416
1.3332413
1.3332409
1.3332405
1.3332401
1.3332397
1.3332394
1.333239
1.3332386
1.3332382
1.3332377
1.3332373
1.3332369
1.3332365
1.333236
1.3332356
1.3332351
1.3332347
1.3332342
1.3332337
1.3332332
1.3332328
1.3332323
1.3332318
1.3332313
1.3332308
1.3332302
1.3332297
1.3332292
1.3332287
1.3332282
1.3332276
1.3332271
1.3332265
1.333226
1.3332255
1.3332249
1.3332244
1.3332238
1.3332233
1.3332228
1.3332222
1.3332217
1.3332212
1.3332207
1.3332203
1.3332199
1.3332194
1.333219
1.3332187
1.3332184
1.3332181
1.3332178
1.3332176
1.3332174
1.3332172
1.3332171
1.333217
1.333217
1.333217
1.333217
1.333217
1.333217
1.3332171
1.3332172
1.3332173
1.3332174
1.3332175
1.3332176
1.3332176
1.3332176
1.3332176
1.3332176
1.3332176
1.3332176
1.3332174
1.333217
1.3332164
1.3332158
1.3332151
1.3332143
1.3332134
1.3332125
1.3332114
1.3332103
1.3332092
1.333208
1.3332068
1.3332055
1.3332043
1.333203
1.3332018
1.3332006
1.3331995
1.3331984
1.3331973
1.3331964
1.3331955
1.3331947
1.3331941
1.3331935
1.3331931
1.3331928
1.3331926
1.3331925
1.3331923
1.3331919
1.3331912
1.3331897
1.3331861
1.3331775
1.3331564
1.3331045
1.3329761
1.3326581
1.3318745
1.3301836
1.3278878
1.3250801
1.3218105
1.3181519
1.3141937
1.3100355
1.3057795
1.3015249
1.2973622
1.2933691
1.2896087
1.2861279
1.2829577
1.2801142
1.2776008
1.2754098
1.2735252
1.2719248
1.2705825
1.2694702
1.2685592
1.2678215
1.2672309
1.2667633
1.2663971
1.2661136
1.2658965
1.2657322
1.2656094
1.2655187
1.2654527
1.2654055
1.2653723
1.2653495
1.2653343
1.2653247
1.2653189
1.2653158
1.2653145
1.2653142
1.2653144
1.2653153
1.2653175
1.26532
1.2653222
1.2653244
1.2653264
1.2653283
1.2653302
1.2653319
1.2653335
1.2653351
1.2653366
1.2653381
1.2653397
1.2653412
1.2653427
1.2653443
1.2653459
1.2653476
1.2653493
1.2653511
1.2653529
1.2653548
1.2653568
1.2653588
1.2653609
1.265363
1.2653651
1.2653671
1.2653692
1.2653713
1.2653733
1.2653753
1.2653773
1.2653791
1.265381
1.2653827
1.2653844
1.265386
1.2653875
1.265389
1.2653904
1.2653917
1.265393
1.2653942
1.2653953
1.2653964
1.2653974
1.2653984
1.2653993
1.2654002
1.2654011
1.2654019
1.2654027
1.2654035
1.2654042
1.2654049
1.2654056
1.2654063
1.2654069
1.2654076
1.2654082
1.2654088
1.2654094
1.26541
1.2654105
1.2654111
1.2654116
1.2654122
1.2654127
1.2654132
1.2654137
1.2654142
1.2654147
1.2654151
1.2654156
1.2654161
1.2654165
1.265417
1.2654174
1.2654178
1.2654182
1.2654187
1.2654191
1.2654195
1.2654199
1.2654203
1.2654207
1.265421
1.2654214
1.2654218
1.2654222
1.2654225
1.2654229
1.2654232
1.2654236
1.2654239
1.2654243
1.2654246
1.2654249
1.2654252
1.2654256
1.2654259
1.2654262
1.2654265
1.2654268
1.2654271
1.2654274
1.2654277
1.265428
1.2654282
1.2654285
1.2654288
1.2654291
1.2654293
1.2654296
1.2654299
1.2654301
1.2654304
1.2654306
1.2654309
1.2654312
1.2654314
1.2654317
1.2654319
1.2654321
1.2654324
1.2654326
1.2654329
1.2654331
1.2654333
1.2654335
1.2654338
1.265434
1.2654342
1.2654344
1.2654346
1.2654348
1.2654351
1.2654353
1.2654355
1.2654357
1.2654359
1.2654361
1.2654363
1.2654365
1.2654367
1.2654369
1.2654371
1.2654373
1.2654375
1.2654376
1.2654378
1.265438
1.2654382
1.2654384
1.2654386
1.2654387
1.2654389
1.2654391
1.2654392
1.2654394
1.2654396
1.2654397
1.2654399
1.2654401
1.2654402
1.2654404
1.2654406
1.2654407
1.2654409
1.265441
1.2654412
1.2654414
1.2654415
1.2654417
1.2654418
1.265442
1.2654421
1.2654423
1.2654424
1.2654425
1.2654427
1.2654428
1.265443
1.2654431
1.2654432
1.2654434
1.2654435
1.2654437
1.2654438
1.2654439
1.2654441
1.2654442
1.2654443
1.2654445
1.2654446
1.2654447
1.2654449
1.265445
1.2654451