/*--------------------------------*- C++ -*----------------------------------*\
  =========                 |
  \\      /  F ield         | OpenFOAM: The Open Source CFD Toolbox
   \\    /   O peration     | Website:  https://openfoam.org
    \\  /    A nd           | Version:  7
     \\/     M anipulation  |
\*---------------------------------------------------------------------------*/
FoamFile
{
    version     2.0;
    format      ascii;
    class       volScalarField;
    location    "0.00202";
    object      Uz;
}
// * * * * * * * * * * * * * * * * * * * * * * * * * * * * * * * * * * * * * //

dimensions      [0 1 -1 0 0 0 0];

internalField   nonuniform List<scalar> 
5000
(
0
0
0
0
0
-4.8569891e-21
-1.0462209e-35
1.5196269e-20
5.1358635e-21
-1.0185416e-20
-1.0035311e-20
4.9561203e-21
-4.1943616e-35
-4.3393379e-35
9.8859539e-21
-9.8955816e-21
-7.9280836e-51
-4.3350717e-35
-4.8888558e-21
9.705982e-21
4.819391e-21
0
0
-4.8043648e-21
4.1124711e-35
-3.9847799e-35
-4.8393224e-21
4.8221436e-21
4.7945381e-21
-4.7710023e-21
8.2654749e-35
-3.9984423e-35
-4.6793348e-21
4.3958765e-21
4.3136967e-21
0
0
-4.6342661e-21
-4.6384715e-21
4.6768648e-21
-7.7862432e-35
-4.6203957e-21
4.6409615e-21
-7.873743e-35
-4.6291186e-21
4.5919927e-21
-1.5743534e-34
1.5618107e-34
-1.5475312e-34
7.6021099e-35
4.4721989e-21
0
0
0
0
0
0
0
0
0
0
0
0
-4.0918639e-21
-4.119984e-21
4.0608693e-21
-6.7838641e-35
8.362769e-52
3.8313257e-21
0
0
-3.8919935e-21
-3.8181202e-21
0
3.6667786e-21
1.2378042e-34
-3.5143266e-21
-3.5005994e-21
3.4973578e-21
6.8437586e-21
-6.6096971e-21
1.7949349e-36
9.2486131e-21
-6.2636473e-21
-3.3108166e-34
6.3418095e-21
-9.2005541e-21
2.9232087e-21
2.7551717e-21
-2.6485556e-21
2.6646963e-21
2.7099269e-21
9.5141741e-35
-5.3977416e-21
-1.8163507e-34
-2.5234588e-21
-2.3425933e-21
-7.9354651e-35
1.6248006e-34
4.7819212e-21
2.3942116e-21
-2.3495296e-21
3.2126441e-37
2.2034078e-21
0
-2.250701e-21
-7.9399755e-35
2.2439014e-21
-2.1436557e-21
-2.0554089e-21
3.782132e-21
1.8897455e-21
-6.1968868e-21
-2.1626273e-21
6.6034269e-21
-2.2084814e-21
-2.1810607e-21
-1.1833094e-36
-2.060101e-21
6.483248e-21
-1.5752874e-34
-4.5983125e-21
4.5727625e-21
2.2044872e-21
-2.1820027e-21
2.2703974e-21
-2.3732996e-21
-4.8671194e-21
2.4405644e-21
8.3152955e-35
2.3946933e-21
4.8785937e-21
-2.5255331e-21
-2.5756183e-21
-2.5756127e-21
-8.9053576e-35
-8.6880013e-35
8.7280421e-35
5.1977572e-21
2.6831219e-21
-2.7181378e-21
-5.3755956e-21
-2.6099306e-21
-2.5641994e-21
1.8144629e-34
5.4399922e-21
-7.9177261e-37
7.9169228e-37
4.7097243e-51
2.7253582e-21
-1.8960881e-34
3.8583619e-34
2.7959358e-21
-2.7907346e-21
2.7470752e-21
9.4769145e-35
-2.7710831e-21
2.8213163e-21
-4.0008229e-37
-2.7546533e-21
0
2.7466048e-21
1.9438856e-34
-5.6858901e-21
2.8065433e-21
-7.6863939e-37
-2.6583076e-21
2.7247795e-21
-2.8358649e-21
2.8800619e-21
-1.1895366e-33
-7.7724725e-34
2.7157215e-21
-5.3954974e-21
0
-1.9849102e-34
-6.008827e-34
2.8537684e-21
2.772072e-21
1.8882388e-34
-2.7996738e-21
2.874994e-21
1.9994447e-34
1.2245622e-36
3.8554644e-34
-5.50075e-21
2.8171949e-21
2.895127e-21
-2.0111193e-34
1.9919662e-34
-5.8437147e-34
1.9212021e-34
-2.8385321e-21
0
0
0
0
-2.8059675e-21
5.9521308e-34
2.8974302e-21
2.8790522e-21
-2.8072809e-21
-2.7847035e-21
5.671571e-21
2.006734e-34
-5.99605e-34
-2.8287428e-21
-2.7857783e-21
2.7888448e-21
0
2.8309431e-21
1.924443e-34
-2.7394396e-21
-2.7510177e-21
3.8726205e-34
2.7771877e-21
-5.457071e-21
2.6457356e-21
2.6272815e-21
-2.689628e-21
2.7500873e-21
0
0
0
2.5109819e-21
-2.5313055e-21
-5.2236096e-21
2.645386e-21
-1.8141534e-34
2.5495232e-21
2.4865129e-21
-4.9524633e-21
7.1874241e-37
-7.292815e-37
2.5285707e-21
2.4603857e-21
-4.8135707e-21
3.4317346e-37
-5.1831048e-34
2.5186864e-21
-1.3774675e-33
-3.3338754e-34
2.3151791e-21
-2.3125026e-21
0
-2.4912572e-21
2.5178253e-21
2.4773599e-21
-2.411233e-21
0
-2.3412205e-21
2.4074283e-21
2.4812987e-21
-8.7078463e-34
-4.9044155e-21
-4.7172296e-21
6.9782828e-21
4.7812395e-21
0
-5.0750099e-21
-2.4707842e-21
2.3698823e-21
2.2754254e-21
2.2992414e-21
-4.8484702e-21
-5.0012016e-21
2.4705729e-21
4.7947586e-21
6.5325411e-34
-4.733312e-21
2.3922046e-21
-3.2948044e-34
-2.3080893e-21
4.4343537e-21
-2.2124092e-21
3.1916625e-34
2.3234288e-21
-2.2658393e-21
2.154537e-21
-4.0683931e-21
8.5018184e-34
4.2875076e-21
-4.4475766e-21
-1.531121e-34
2.0863435e-21
0
0
1.9030432e-21
-2.0237043e-21
-4.1598639e-21
2.067111e-21
-5.7381937e-37
1.9645735e-21
1.9073566e-21
-1.8495827e-21
0
-1.8681248e-21
-1.9505655e-21
0
3.9852818e-21
1.9414751e-21
-3.8181269e-21
1.2954674e-34
-5.1793213e-37
1.8289822e-21
1.9146099e-21
-1.9997049e-21
2.0178606e-21
-1.9230537e-21
1.0070009e-36
3.5418653e-21
-1.9141543e-21
-2.0465302e-21
-2.0786683e-21
-2.8045727e-34
1.9292358e-21
0
0
-1.9831175e-21
2.8481107e-34
-5.6083512e-34
-2.7004328e-34
1.8785918e-21
-1.8891489e-21
2.7732312e-37
1.9244035e-21
0
0
0
0
0
0
0
-1.706901e-21
0
1.6781323e-21
0
-1.3906857e-21
-3.9701807e-34
1.5626782e-21
0
0
-1.4791403e-21
-1.8844834e-34
1.2804855e-21
0
0
-1.4813753e-21
-1.3092172e-21
1.0350223e-21
1.0489041e-21
0
-1.3759907e-21
1.9759446e-37
1.3670648e-21
-1.3691549e-21
-1.3677984e-21
1.2436051e-21
1.0652569e-21
0
-1.2700445e-21
-1.3971229e-21
1.4552158e-21
1.4284139e-21
0
-1.0718483e-21
-1.0486936e-21
1.1887322e-21
1.3258893e-21
0
0
0
0
0
0
0
0
-1.0838155e-21
-2.4990511e-49
6.1300874e-22
0
0
0
-8.9385141e-22
-1.2323367e-34
8.433536e-22
-6.1200691e-22
2.1474322e-35
-2.3008735e-40
-3.2342528e-35
4.6168214e-22
-4.8737068e-22
4.2942462e-22
-2.611817e-34
-5.6924799e-22
5.8757867e-22
0
0
-1.8442378e-22
-4.6590211e-35
5.0486977e-22
-5.7930178e-22
-5.3249202e-22
0
2.4327812e-23
1.076285e-22
-3.5468933e-22
-1.4968517e-34
-1.3380812e-50
-7.8010241e-35
1.9400417e-22
-1.0207922e-24
1.8320194e-49
-5.0776384e-35
-5.7022912e-22
0
0
5.1112854e-22
-9.6508066e-39
1.5121916e-34
-1.9129155e-22
0
0
-3.9713599e-22
1.3788159e-34
3.9676814e-22
0
0
0
-1.0693794e-22
4.3647025e-38
4.2954385e-22
-2.5461362e-22
-4.1856215e-22
2.4088684e-34
1.3655484e-21
-2.8110719e-22
-2.2532001e-35
-1.1460699e-35
5.5057392e-35
6.0512001e-22
0
0
-3.0554089e-22
-8.7291615e-35
2.7512799e-34
-1.3535149e-50
6.7170818e-22
-4.7302227e-22
-3.3712618e-22
0
6.6893876e-22
2.0623242e-34
-1.9143167e-21
0
0
8.2537349e-22
-2.0561149e-37
3.2497604e-50
1.8509493e-21
-2.1448821e-21
2.5043121e-34
-1.9953168e-34
4.2694861e-34
2.1251634e-21
-2.5825881e-21
6.9821097e-34
-6.2420121e-34
5.9400178e-34
2.1984531e-21
-2.8184782e-21
1.0463441e-33
-5.5497791e-34
0
3.2296471e-21
-3.2019649e-21
4.6392642e-34
-6.0363031e-37
7.7825598e-34
-9.1075869e-34
-6.4258123e-21
5.7491849e-21
5.6496643e-21
-5.7080546e-21
-5.8716882e-21
0
7.7628762e-21
8.9675124e-21
0
-8.5403574e-21
1.1370157e-33
-1.1948555e-36
-1.2139177e-33
9.4898503e-21
-1.0649001e-20
-1.6435002e-33
3.3630263e-33
1.183127e-20
1.1903414e-20
-2.4975097e-20
1.940739e-36
-2.0676374e-33
-1.536302e-20
1.5253764e-20
-2.1522615e-33
-1.6285889e-20
0
0
0
1.9468784e-20
2.0430434e-20
-2.1920314e-20
-2.2928363e-20
0
2.3352925e-20
2.4129796e-20
-2.5648037e-20
-2.7593813e-20
0
2.9325738e-20
2.9549369e-20
-3.0422288e-20
-8.8635062e-33
3.3899886e-20
0
0
0
0
-4.0452811e-20
1.1754079e-32
4.4429787e-20
-4.6185712e-20
-6.6045248e-33
6.7895214e-33
7.7695686e-50
-5.2674094e-20
-5.4851204e-20
1.1330078e-19
8.0711699e-33
-8.2973335e-33
6.20301e-20
0
-6.734752e-20
-6.9781444e-20
7.1703568e-20
2.033314e-32
-7.5209389e-20
0
0
8.4311208e-20
-1.2127294e-32
-9.0142876e-20
0
9.4880455e-20
-1.3932502e-35
2.8267905e-32
1.4649243e-32
-1.0897707e-19
1.119048e-19
-1.6335371e-35
3.2934094e-32
1.2289784e-19
-1.2743886e-19
-3.6591403e-32
-1.9286485e-35
1.936676e-32
1.435586e-19
-1.4815892e-19
0
8.7964732e-32
2.2687414e-32
7.0126478e-32
2.4652512e-35
1.7867282e-19
-1.8428249e-19
1.1368821e-48
2.7269441e-32
-5.6264514e-32
2.9006051e-32
-4.3078344e-19
2.220889e-19
2.2894649e-19
3.2752322e-32
-3.3736968e-32
-5.0071154e-19
2.5809192e-19
2.6616758e-19
3.9937794e-49
0
4.1239555e-49
2.9959041e-19
-3.0854323e-19
4.526089e-49
4.5460707e-32
4.796858e-35
3.471825e-19
-7.1373759e-19
-1.0191097e-31
3.778402e-19
-5.3985401e-32
5.5587889e-32
-4.1218451e-19
4.2346595e-19
-2.2775291e-48
1.8622587e-31
-1.276644e-31
1.3114454e-31
1.3489325e-31
6.4969182e-49
0
-5.2625075e-19
0
0
5.6906472e-19
1.6221059e-31
-5.9951595e-19
0
0
1.2931081e-18
5.5183423e-31
-1.359281e-18
6.9670469e-19
-1.014595e-34
1.0154456e-31
7.4905222e-19
0
0
0
8.2334852e-19
2.3374152e-31
-8.6217082e-19
0
0
9.228123e-19
-1.3409987e-34
-9.6471297e-19
0
0
1.0296973e-18
2.918471e-31
2.9860129e-31
-3.0481025e-31
-1.120825e-18
1.1442542e-18
-3.2419e-31
3.3091984e-31
-3.3756106e-31
-1.2416401e-18
0
0
1.3174655e-18
-3.1414529e-47
-1.3698731e-18
0
0
1.45038e-18
-2.1207578e-47
-1.5054741e-18
0
0
1.5906859e-18
-2.2416309e-47
-1.6489429e-18
0
0
1.7381338e-18
-2.5131839e-34
-1.799172e-18
1.8301506e-18
-5.1715054e-31
5.2593164e-31
-5.3451053e-31
-1.9569484e-18
0
0
0
0
0
2.154885e-18
-6.074862e-31
-2.2228742e-18
0
0
0
0
0
0
0
2.5045019e-18
-1.4102363e-30
-2.5770405e-18
0
0
0
0
0
0
0
2.876177e-18
-8.0886719e-31
-2.9527972e-18
0
0
3.0687218e-18
-8.6339802e-31
-3.146914e-18
0
0
0
3.3049189e-18
9.292103e-31
-3.3844005e-18
0
0
0
0
0
0
0
3.7065842e-18
-5.3251163e-34
-3.7880249e-18
0
0
0
0
0
0
0
4.1141782e-18
5.9045892e-34
-4.1957121e-18
0
0
0
4.3584768e-18
-2.4424222e-30
-4.4394704e-18
0
4.5202251e-18
1.2670389e-30
-4.6009291e-18
0
0
4.7209043e-18
4.760686e-18
-4.8004207e-18
-4.8400491e-18
0
0
0
0
-5.0358357e-18
7.2113778e-34
1.0226122e-17
5.151376e-18
-1.0379093e-17
-1.0455155e-17
5.265416e-18
5.3030067e-18
0
0
0
0
5.4878759e-18
1.5347321e-30
-5.5601617e-18
0
0
0
0
0
0
0
0
0
0
0
0
0
0
6.0693821e-18
-3.3881837e-30
-6.1320194e-18
0
0
-6.2240596e-18
1.7366441e-30
-8.9297319e-34
6.3129504e-18
6.3418255e-18
3.536976e-30
-1.7777155e-30
-6.4267466e-18
0
0
0
0
0
6.5865164e-18
-3.6710563e-30
-6.6369268e-18
0
0
0
0
0
0
0
6.8227668e-18
-3.7991376e-30
-6.865459e-18
0
0
0
0
0
0
0
7.0191792e-18
-5.8596481e-30
-7.0533166e-18
0
0
0
0
0
0
0
0
7.1867176e-18
-1.023105e-33
-7.2117537e-18
0
0
0
0
7.266397e-18
-7.2760111e-18
-7.2851823e-18
1.4587912e-17
2.0277144e-30
-7.3102919e-18
0
0
0
0
7.3430225e-18
-2.0394545e-30
-1.4706491e-17
7.3575821e-18
7.3614519e-18
-7.3649235e-18
0
0
0
7.3747267e-18
2.0460707e-30
-7.3768609e-18
-7.377356e-18
7.3774273e-18
7.3770124e-18
-7.3761337e-18
0
0
7.3708863e-18
7.3683125e-18
-7.3653201e-18
-7.361892e-18
-7.3580313e-18
-4.0839847e-30
7.3490885e-18
0
0
0
7.3263167e-18
7.319585e-18
-7.3124697e-18
-7.3049724e-18
-7.2970796e-18
-2.0229119e-30
7.2800581e-18
0
0
0
7.2414135e-18
-2.0068258e-30
-7.2198198e-18
0
0
0
0
0
0
0
7.1187185e-18
-1.9717625e-30
-1.4179767e-17
-1.9645743e-30
7.0597044e-18
0
0
7.0120088e-18
-9.9411391e-34
1.9378134e-30
-1.9320515e-30
-6.9438959e-18
-6.9260929e-18
1.9182124e-30
6.8896056e-18
0
0
6.8327069e-18
-5.6736935e-30
-1.885406e-30
9.6253593e-34
-6.7529121e-18
6.732321e-18
6.7114567e-18
-1.3380639e-17
3.6998678e-30
6.647311e-18
-6.6254701e-18
0
6.5811012e-18
1.8221116e-30
-6.5357698e-18
0
6.4895832e-18
-6.4662016e-18
7.1541217e-30
6.4188382e-18
-6.3948458e-18
0
6.3462962e-18
0
-6.2970713e-18
0
6.2471631e-18
-6.2219631e-18
3.4378322e-30
6.1711285e-18
-6.1454924e-18
0
6.0937876e-18
1.6848913e-30
-6.0415856e-18
0
5.9889184e-18
-5.9623994e-18
1.6870472e-33
5.9090472e-18
-5.8822428e-18
0
5.8283683e-18
5.8012904e-18
-5.7741302e-18
-5.7469037e-18
5.7196214e-18
-5.6922784e-18
-5.6648672e-18
5.6373912e-18
0
0
0
0
0
0
5.4439329e-18
1.3376406e-48
-1.0776846e-17
5.3606596e-18
5.3328757e-18
-5.3050704e-18
0
0
5.2216795e-18
5.1939217e-18
-5.1661755e-18
-5.13843e-18
0
5.0829722e-18
1.4044729e-30
-5.0276614e-18
0
0
4.9449955e-18
4.9174932e-18
-4.890034e-18
-4.8626346e-18
0
4.8080378e-18
-1.3275424e-30
-4.7536778e-18
4.7265655e-18
2.60992e-30
6.6400553e-34
4.6456188e-18
-4.6187967e-18
-4.5920573e-18
0
0
4.5122705e-18
-1.2449863e-30
-4.4594644e-18
0
4.4070228e-18
4.3809362e-18
-4.354936e-18
-4.3290223e-18
0
0
0
0
0
0
4.1503092e-18
-1.1448937e-30
-4.1001499e-18
0
0
0
0
0
0
3.9277783e-18
1.1640504e-48
-3.8794554e-18
-3.8554503e-18
-1.0628582e-30
3.8077717e-18
0
0
0
0
3.6903723e-18
1.0177913e-30
-3.6441562e-18
3.6211932e-18
3.5983283e-18
-3.5755679e-18
1.9721379e-30
2.9399339e-30
2.9202389e-30
-9.6836398e-31
1.9233721e-30
-9.5504208e-31
-3.419059e-18
0
3.3752239e-18
-2.7921237e-30
4.7347062e-34
3.3101565e-18
-3.2886533e-18
-3.2672409e-18
3.2459174e-18
-8.9497229e-31
2.6664e-30
1.7669674e-30
1.7539694e-30
-8.7118648e-31
1.73171e-30
3.099044e-18
-3.0784073e-18
-3.0578481e-18
3.0373553e-18
-8.3688361e-31
3.3266532e-30
8.2603638e-31
-8.2085323e-31
-8.1443569e-31
-8.0929221e-31
2.8959921e-18
0
-2.8562207e-18
7.8721904e-31
3.7906044e-48
-2.7970862e-18
0
2.7579973e-18
-2.7385359e-18
-2.7191309e-18
2.6997853e-18
0
0
0
0
2.6039406e-18
-7.1741619e-31
1.4246751e-30
-2.5470744e-18
-2.5282267e-18
2.5094261e-18
0
0
0
0
2.4161466e-18
3.4072415e-34
-2.3791596e-18
0
0
0
0
0
0
0
2.2329618e-18
2.2148764e-18
-2.1968365e-18
-2.1788396e-18
0
0
0
0
0
0
2.0539896e-18
2.0363115e-18
-2.0186747e-18
-2.0010847e-18
0
0
0
0
0
0
1.8791387e-18
1.8618914e-18
-1.8446852e-18
-1.8275206e-18
0
0
0
0
0
0
1.7086864e-18
-9.3937659e-31
-1.6751807e-18
0
0
0
0
0
0
1.5595295e-18
-4.2852416e-31
-1.5269899e-18
0
0
0
0
1.446674e-18
2.0332751e-34
-1.4149801e-18
1.3992439e-18
7.5308481e-49
-1.3679648e-18
1.3524175e-18
-7.424806e-31
-1.3215242e-18
1.3061928e-18
7.1675432e-31
7.0832803e-31
1.161281e-47
6.9141396e-31
3.4137828e-31
-1.2157642e-18
1.200961e-18
1.1862468e-18
-2.3432306e-18
6.4192789e-31
2.2851655e-18
0
-1.1138647e-18
3.0534812e-31
3.0157883e-31
8.9196889e-31
8.8050209e-31
5.7900543e-31
-8.5747562e-31
5.6390452e-31
-2.7853538e-31
-9.8906702e-19
0
9.6235003e-19
1.3487945e-34
7.7919601e-31
7.6847919e-31
-1.2932458e-34
-4.9802133e-31
2.4560428e-31
8.7185876e-19
0
-8.4689669e-19
4.6324594e-31
1.1686071e-34
-8.1021282e-19
0
7.8628607e-19
-7.7447562e-19
-7.62767e-19
7.5116556e-19
0
0
7.1700968e-19
-7.8367895e-31
3.8544184e-31
-3.7964717e-31
1.8695455e-31
-6.6219476e-19
-6.5157092e-19
6.4105192e-19
0
0
0
0
5.9001454e-19
1.610935e-31
6.3320579e-31
-5.6072517e-19
-5.5118217e-19
5.4174688e-19
0
0
0
0
4.9615434e-19
4.8736946e-19
-4.7869262e-19
-4.7012073e-19
0
0
0
0
0
0
4.1306212e-19
4.0533129e-19
-3.9769882e-19
-3.901682e-19
0
0
0
0
0
0
3.4034336e-19
-2.77826e-31
-6.5400938e-19
3.2048653e-19
9.4219204e-19
3.0773437e-19
0
-5.9069641e-19
3.2124613e-31
9.4358447e-31
2.7748574e-19
5.4343734e-19
-5.3207936e-19
2.6044631e-19
2.5494001e-19
-2.4952447e-19
2.4420019e-19
-3.3958918e-35
-2.3381484e-19
-2.287477e-19
2.2376162e-19
2.1885773e-19
-2.1403769e-19
2.0930117e-19
2.9081952e-35
-2.0007049e-19
0
0
0
-3.6509998e-19
1.7835953e-19
3.4848423e-19
-1.7019893e-19
1.6623048e-19
1.6233582e-19
-3.1702583e-19
-1.4330722e-48
1.5107199e-19
-1.4745323e-19
-2.8780728e-19
-1.404226e-19
4.1102421e-19
-1.3365763e-19
-1.6936566e-47
3.8143142e-19
-2.4796068e-19
-1.2087855e-19
-1.1783783e-19
-2.2971665e-19
2.2387917e-19
1.0908086e-19
1.0628057e-19
-1.0353481e-19
-1.008408e-19
2.9460051e-19
-9.5615292e-20
-9.3086382e-20
9.0611308e-20
8.8186986e-20
1.2194749e-35
-2.5046909e-19
8.1217485e-20
-1.3152429e-31
1.2794837e-31
2.2406997e-19
-7.2599656e-20
-7.0556906e-20
-1.371292e-19
6.6621333e-20
1.2945025e-19
-1.257404e-19
6.1049334e-20
-5.9262937e-20
-5.7517701e-20
1.674543e-19
-5.4163052e-20
-5.2549792e-20
1.019516e-19
4.9436324e-20
-4.7927505e-20
-1.3935284e-19
4.501111e-20
1.7444002e-19
-2.3449916e-32
-8.1837085e-20
-3.9624412e-20
0
-7.4244072e-20
-7.9730702e-32
1.0421883e-19
-3.3597789e-20
7.2132892e-32
-3.1406937e-20
-3.0351145e-20
5.8639469e-20
0
0
0
2.5477035e-20
-1.3649603e-32
-4.7424128e-20
2.2861166e-20
4.4068496e-20
-6.369245e-20
6.8116562e-32
3.939558e-20
-1.8964246e-20
0
0
0
-3.2474194e-20
1.560188e-20
2.9974045e-20
-4.3172965e-20
3.9262082e-36
2.6511501e-20
0
0
1.1673534e-20
-6.2066689e-33
-2.1404022e-20
1.0243503e-20
1.9600913e-20
-2.8104451e-20
1.4894336e-32
1.7072876e-20
-8.1420254e-21
7.7628482e-21
-1.479664e-20
-7.0471918e-21
2.2337446e-32
6.3780548e-21
1.2116715e-20
-1.7247837e-20
3.0987658e-36
5.1649831e-21
-2.7143522e-33
4.6251871e-21
4.3683173e-21
-2.2865832e-33
-1.163886e-20
1.0374164e-36
1.0294777e-20
-6.4440236e-21
-4.6902584e-49
5.6348451e-21
-2.6246374e-21
2.4408147e-21
-4.53565e-21
-2.1054513e-21
4.3260043e-33
1.791717e-21
3.2767686e-21
1.4916924e-21
1.3533719e-21
-3.6756592e-21
0
9.899587e-22
4.8480189e-34
-4.2137717e-34
3.6087609e-34
-5.485036e-22
5.0562243e-34
-3.698653e-22
9.5351317e-34
6.0616248e-22
-2.3872177e-22
-1.2238559e-22
3.1216041e-23
-2.8765044e-22
-3.097018e-22
6.3696018e-22
-2.7085363e-22
-9.8483646e-22
0
0
4.7264617e-22
5.0897038e-22
0
-5.8273045e-22
-6.1917493e-22
1.3106261e-21
-1.5231161e-33
-2.124802e-21
8.0693818e-34
7.4569047e-22
7.645807e-22
7.8419298e-22
-8.0533715e-22
-8.2194753e-22
8.2998966e-22
2.5031505e-21
-8.3852025e-22
-3.3699621e-21
8.4832612e-22
1.7122984e-21
8.6091497e-22
0
-8.5337989e-22
0
-8.4006371e-22
8.3588789e-22
-1.845274e-33
8.2190342e-22
-2.694658e-33
-2.3811052e-21
7.7863491e-22
7.671474e-22
-7.5765209e-22
-7.4524893e-22
7.2666123e-22
2.1150908e-21
-6.8334315e-22
-2.6519439e-21
1.0745947e-33
6.2709503e-22
1.2104242e-21
5.8017612e-22
-1.1104832e-21
-2.9558128e-34
-7.2667922e-38
4.8795553e-22
-1.0198097e-33
-4.2871354e-22
1.2012488e-21
-4.1727249e-34
-7.0773863e-22
0
0
-2.702449e-22
1.3219402e-34
4.1950189e-22
-1.8487479e-22
-3.2170767e-22
-1.3462805e-22
1.1637635e-34
2.1773293e-22
4.1169273e-23
-1.3254949e-23
-2.2474637e-23
1.9963687e-38
2.0246939e-34
8.8863704e-23
2.382014e-22
-4.4737648e-22
1.9527722e-34
3.9796364e-22
0
0
-5.4071262e-22
6.6052195e-34
3.5764651e-34
9.7583115e-38
1.0889443e-21
7.6690509e-22
-6.7694483e-34
-1.291753e-21
-4.5104243e-22
4.6670606e-22
-9.6172525e-22
-5.5102871e-34
1.7169747e-33
5.3709056e-22
1.1115022e-21
-1.7035408e-21
5.7567686e-22
5.8457609e-22
-5.9639515e-22
6.1174384e-22
-1.2557489e-21
7.0818979e-34
6.4122854e-22
9.1391297e-38
1.2947102e-21
-1.3108364e-21
1.1089533e-33
1.349248e-21
-6.7607101e-22
0
6.6749921e-22
3.6965767e-34
-2.0052268e-21
6.7264749e-22
1.3464423e-21
6.6661437e-22
6.557921e-22
-6.462365e-22
-6.3942886e-22
-6.3586336e-22
6.3355434e-22
-3.4766503e-34
3.3960849e-34
-5.9465448e-22
6.4312986e-34
-5.668023e-22
1.8569957e-33
1.6468969e-21
-1.0705095e-21
-8.356331e-51
4.9215622e-22
5.2306866e-34
-2.5188059e-34
-1.3179762e-21
4.2463158e-22
1.212442e-21
0
0
-3.247372e-22
-3.030934e-22
-5.7055409e-22
2.670862e-22
4.8504742e-22
-4.233996e-22
1.7948889e-22
4.4875094e-22
-1.2343238e-22
-1.0125985e-22
-7.9950381e-23
-5.4211899e-23
4.5662285e-23
-1.075787e-23
4.3627308e-23
2.2127804e-22
-9.9910297e-23
1.3040665e-49
-2.5288598e-34
-3.6571129e-22
4.3169725e-22
4.9801097e-22
-2.7960262e-22
-6.1252734e-22
6.6344801e-22
3.596611e-22
-1.1715565e-21
-1.2693682e-21
4.5570511e-22
9.6910071e-22
5.0864402e-22
-2.9563171e-34
-1.1180881e-21
-5.8817342e-22
6.2055425e-22
1.3075287e-21
-9.67858e-38
-1.4008884e-21
1.4378327e-21
-1.2304292e-33
-1.523838e-21
7.9185408e-22
1.6496723e-21
1.7074511e-21
0
-8.9104067e-22
-2.7221943e-21
-9.2407215e-22
9.413963e-22
0
0
0
0
-1.0439577e-21
5.8739182e-34
3.2161034e-21
-1.0855408e-21
-3.2960614e-21
-1.1096675e-21
1.8647437e-33
2.2663253e-21
1.1462801e-21
-1.1556484e-21
2.3253657e-21
1.1654215e-21
-3.8778138e-33
-1.1675459e-21
-2.3631463e-21
3.5809953e-21
-3.4083369e-37
-1.2008857e-21
1.6929746e-37
-1.1787154e-21
-1.1799621e-21
1.3264643e-33
3.6210823e-21
-3.4411301e-37
-3.6223607e-21
-2.392131e-21
6.5454933e-34
2.3441762e-21
1.1789645e-21
-1.1865704e-21
2.3763086e-21
1.1825586e-21
-3.8964366e-33
-1.1542444e-21
-2.2870437e-21
3.4304177e-21
-1.269459e-33
-1.1380517e-21
-1.1288419e-21
-1.1117003e-21
-6.0695371e-34
6.025286e-34
2.1716414e-21
6.0096828e-34
-2.1431024e-21
2.1134043e-21
-5.1795518e-33
-3.055639e-21
2.0239268e-21
-1.1236066e-33
-2.0134153e-21
9.9275643e-22
9.7606815e-22
1.9129422e-21
-9.3928108e-22
-2.79493e-21
0
0
0
2.6832537e-21
2.6303242e-21
-2.5844126e-21
-2.5581777e-21
1.6969882e-21
-2.3910783e-37
8.2868111e-22
-2.7119259e-33
-2.3953735e-21
2.3568195e-21
-3.8931501e-33
-1.5530981e-21
-4.2696985e-34
4.1944613e-34
1.479211e-21
-7.2390281e-22
7.1306551e-22
-2.3648824e-33
-2.1314983e-21
2.1268272e-21
7.0133153e-22
-1.5283461e-33
1.3511357e-21
-1.3306761e-21
-6.5819212e-22
-6.5500281e-22
-1.9608822e-21
7.2334924e-34
6.4821296e-22
1.9285194e-21
-4.2319617e-33
-1.8824198e-21
0
6.1602288e-22
1.2280352e-21
-6.1449301e-22
6.1511394e-22
-2.0430248e-33
-1.2176109e-21
1.8119379e-21
-1.3339778e-33
-6.6588483e-34
-6.656494e-34
-6.6599154e-34
5.9907853e-22
-1.7930717e-21
-1.7914893e-21
5.9781749e-22
1.1966749e-21
0
-5.9555012e-22
6.5890498e-34
-1.3183161e-33
6.6202955e-34
6.0073898e-22
-6.0330329e-22
-6.015865e-22
1.7970995e-21
-1.5971863e-50
-9.9902424e-34
6.0492242e-22
-6.776552e-34
1.2253137e-21
-1.2186561e-21
-1.2113047e-21
-6.0434176e-22
6.7261479e-34
6.1147106e-22
0
0
0
1.2368269e-21
-6.1924488e-22
-1.2450516e-21
1.8757637e-21
-6.2430972e-22
-1.8588404e-21
1.8430863e-21
-2.038559e-33
-1.23093e-21
1.8720978e-21
1.2639992e-21
0
-1.2550813e-21
-2.0639179e-33
-6.1447379e-22
-1.2244714e-21
6.1413193e-22
0
1.2459068e-21
1.7759292e-37
6.9202846e-34
-6.1910285e-22
-1.8399887e-21
1.8243434e-21
-1.0053233e-33
-1.801144e-21
1.8051048e-21
-3.0263284e-33
-1.2123811e-21
6.0031941e-22
-5.907279e-22
1.1620406e-21
5.7458687e-22
-2.5500197e-33
-5.7878479e-22
-1.1652108e-21
-5.7987086e-22
-5.6943022e-22
1.1161214e-21
5.4860115e-22
0
-5.4408278e-22
3.039671e-34
1.0811697e-51
5.4214243e-22
-1.5070626e-37
5.1895154e-22
6.3124531e-51
-1.5126412e-21
1.5132131e-21
1.5187363e-21
-1.0117365e-21
-9.992422e-22
0
9.5373425e-22
-4.6733219e-22
-1.3817587e-21
1.3734551e-21
-7.6190254e-34
-9.1356743e-22
4.5289043e-22
0
-4.318804e-22
-4.2116344e-22
4.1311851e-22
-6.8070307e-34
8.1605017e-22
2.3166365e-37
-1.2120181e-21
0
1.1533441e-21
7.4877101e-22
-1.1006548e-21
-7.2469347e-22
1.0815142e-21
3.5889887e-22
-1.4217053e-21
-3.4843456e-22
6.7722814e-22
6.5842593e-22
-3.5724626e-34
-3.1691024e-22
-3.1456638e-22
-3.1284604e-22
3.0869111e-22
-3.3433232e-34
5.8469694e-22
-9.4857533e-34
-8.4058967e-22
0
0
5.4143554e-22
-5.8145697e-34
-2.5297727e-22
7.4321677e-22
-2.4641294e-22
-4.1116397e-34
-8.1598696e-34
-7.1281922e-22
2.2577254e-22
-1.1959454e-34
2.3495949e-34
2.1346888e-22
-2.1689483e-22
3.0879083e-38
-1.1723074e-34
2.2078788e-34
1.8719219e-22
0
-1.821557e-22
3.7307131e-22
1.8945366e-22
-3.7515915e-22
0
1.6820503e-22
-1.592727e-22
-3.1292163e-22
4.7715889e-22
-5.4455435e-34
-5.5210329e-34
1.6357192e-22
-4.6867693e-22
2.0829584e-38
1.3994016e-22
1.3921583e-22
-1.4300877e-22
-1.4768696e-22
1.5006368e-22
0
-1.4196753e-22
2.6952178e-22
-2.1831531e-34
-1.3240445e-22
-3.0408271e-34
-3.142998e-34
-4.0912362e-38
-2.8549303e-22
4.1595359e-22
4.0571276e-22
0
-2.7722396e-22
-4.3140617e-22
-2.1100997e-38
1.5048311e-22
1.4917522e-22
-1.4702133e-22
-1.4755112e-22
1.5200425e-22
0
3.3197594e-22
3.4183944e-22
-5.1734249e-22
-1.7176899e-22
1.7273917e-22
-5.0489453e-38
-1.8579163e-22
-3.903302e-22
-2.031204e-22
3.4582549e-34
8.3668292e-22
-7.0493663e-34
-6.5286948e-22
2.2674292e-22
2.3761627e-22
2.4726262e-22
-2.5399666e-22
-2.5897181e-22
-2.6517833e-22
-7.7933546e-38
2.8520514e-22
-2.9572861e-22
9.1045023e-22
6.1732453e-22
-9.444585e-22
3.2516673e-22
6.7913576e-22
-7.1176907e-22
3.6919834e-22
-3.7609899e-22
-7.5637844e-22
1.145767e-21
-3.9152566e-22
1.3580827e-33
1.2835934e-21
-8.9221373e-22
-4.5904196e-22
-4.6627933e-22
-9.423239e-22
4.7846873e-22
-5.6769456e-77
1.0022847e-21
5.1763483e-22
-5.9384437e-34
-5.5056579e-22
-1.1260571e-21
1.1445318e-21
-5.7968065e-22
-1.7638057e-21
1.7916708e-21
6.0810877e-22
7.9719648e-50
6.3999491e-22
-1.9656266e-21
-6.6481701e-22
6.7064557e-22
1.3549743e-21
-6.8414857e-22
6.9223879e-22
-2.3521325e-33
-1.4470952e-21
2.2103024e-21
8.2494943e-34
-3.3154767e-33
1.6656665e-33
-1.5081008e-21
1.5237055e-21
-7.7517898e-22
-3.1521098e-21
7.9591768e-22
1.5993539e-21
0
1.6097979e-21
-1.7917094e-33
-4.6231024e-37
-9.1185505e-34
-8.253519e-22
-8.2619741e-22
8.2468251e-22
8.2240627e-22
-1.6510278e-21
1.6597005e-21
-9.2296312e-34
-1.6592919e-21
1.6459882e-21
2.7125703e-33
-9.003075e-34
-8.1515683e-22
-1.6351324e-21
8.1387791e-22
-8.0658043e-22
4.4067325e-34
7.8040606e-22
1.548674e-21
-7.7543036e-22
-1.5500428e-21
7.6899478e-22
-7.5827789e-22
1.2392694e-33
-7.2885934e-22
-1.5925671e-33
1.4213912e-21
1.4090425e-21
1.5422648e-33
-2.2669016e-33
2.2102646e-33
-6.4594954e-22
-6.3092876e-22
-6.2014537e-22
6.107401e-22
0
0
-5.5882987e-22
2.9863512e-34
7.3806181e-38
5.6182255e-34
4.9464822e-22
0
-4.6005467e-22
-8.7432358e-22
4.1388199e-22
7.8690765e-22
7.5432993e-22
7.2605711e-22
-1.0427819e-21
-1.0952224e-33
9.1992017e-22
-5.6746339e-22
-5.2525618e-22
0
-2.2679759e-22
4.1806674e-22
1.8932156e-22
-3.3555809e-22
-1.4638639e-22
1.411163e-34
3.2967209e-22
-9.3164678e-23
-2.2584464e-22
1.6694796e-22
3.5095609e-23
-4.7530319e-23
-7.3357054e-37
-1.5572775e-23
-6.1980986e-23
-5.3873618e-35
1.3647354e-22
-1.7412582e-22
1.0186918e-22
3.3897e-22
0
-1.3554895e-22
-3.013716e-22
9.3534735e-35
-1.8546037e-22
-3.9590723e-22
4.1179735e-22
4.2522547e-22
0
2.3092002e-22
2.6942855e-34
2.8115209e-34
2.8952576e-34
-7.9912163e-22
-5.4360645e-22
0
5.7137131e-22
6.4559186e-34
2.9271241e-22
8.7916881e-22
-2.9389203e-22
1.6454948e-34
-4.2780199e-38
-3.0489753e-22
-6.0888169e-22
2.9981516e-22
5.8880829e-22
-2.9047754e-22
0
-5.8042027e-22
2.8984505e-22
8.5336335e-22
-2.7481939e-22
-2.6472309e-22
-5.1285911e-22
2.5095215e-22
7.4329745e-22
-2.4335577e-22
2.5982211e-34
4.4128194e-22
-2.0657614e-22
-1.9416642e-22
-3.6891918e-22
-5.3161188e-22
3.3870551e-22
3.1465341e-22
-2.8267957e-22
-1.3798917e-34
2.1727598e-22
-1.9133338e-22
-9.5079673e-35
1.513703e-22
0
-8.7967229e-23
-4.9128449e-23
0
-2.8330183e-23
-2.1740798e-23
-9.4572697e-39
-4.7690897e-23
-6.5792733e-23
-9.5074706e-35
2.1021659e-22
2.4318854e-22
-4.4621261e-34
-2.9093646e-22
3.2024754e-22
5.9476035e-34
-3.9846171e-22
0
0
0
0
5.3228375e-22
3.127375e-34
-6.0295394e-22
-3.2310926e-22
6.8560548e-22
-1.1906814e-33
-7.3251816e-22
7.4586985e-22
4.2408069e-34
-3.9348862e-22
8.1567913e-22
-1.4156037e-33
-8.8343581e-22
9.1252657e-22
9.3459712e-22
-9.4887676e-22
-9.5911257e-22
0
0
0
0
-5.2868717e-22
5.3970939e-22
5.4390521e-22
-6.0405426e-34
-1.8275348e-77
-5.4424309e-22
-1.0996387e-21
-5.6207621e-22
1.1497682e-21
1.7469966e-21
-5.8241922e-22
-1.159067e-21
1.7303756e-21
1.1486052e-21
-1.7259127e-21
-1.1623569e-21
-5.8780096e-22
-6.5731351e-34
1.1829625e-21
0
-5.8248141e-22
5.7739917e-22
-1.271311e-33
-1.6235979e-37
-1.9071286e-33
-5.7319777e-22
-5.7002238e-22
1.6010346e-37
1.1110274e-21
1.0947921e-21
-1.8019843e-33
-1.0776282e-21
0
0
0
-5.1558005e-22
-5.0542365e-22
4.9656922e-22
4.9139072e-22
-4.8809604e-22
9.6544915e-22
1.4204723e-21
0
-9.0393971e-22
-4.9116431e-34
-4.3588976e-22
-1.2886179e-21
4.2146648e-22
-6.84637e-34
7.9938116e-22
-2.5950852e-33
-7.634896e-22
-2.0828076e-34
-5.2166702e-38
3.5529417e-22
-3.424549e-22
6.6273663e-22
3.2326483e-22
-6.3595123e-22
6.2545094e-22
8.6385789e-38
-3.2247333e-34
-2.7620513e-22
-7.9423453e-22
5.1415178e-22
3.9762439e-52
2.4823233e-22
-4.019152e-34
-4.6257721e-22
2.1995493e-22
4.1943277e-22
-2.2380022e-34
-5.8510731e-22
5.3546212e-38
1.8071566e-22
-1.7245207e-22
3.2993021e-22
1.590678e-22
-3.0811987e-22
2.9657318e-22
1.5613076e-34
-7.3161599e-34
2.7547985e-34
-2.3830909e-22
2.3278492e-22
-1.1390383e-22
-2.1934014e-22
1.0266072e-22
-9.4062704e-23
1.7431807e-22
-1.3961084e-34
-2.491264e-22
0
0
2.3158926e-22
7.1490357e-23
-1.3134232e-22
1.2305181e-22
3.3809158e-38
-2.6220009e-34
-6.5914325e-35
-1.1914029e-22
1.1795842e-22
1.1384488e-22
-5.3136252e-23
-1.4715097e-22
-4.7057812e-23
4.8050395e-23
0
0
-5.4622044e-23
2.9290752e-35
1.4759615e-22
1.3452372e-38
-9.8073667e-23
-5.3148721e-23
6.3714604e-35
1.7917591e-22
1.309819e-34
-1.1291395e-22
0
-5.819561e-23
1.258517e-22
6.7713411e-23
-1.5601417e-34
-6.9855631e-23
-1.3840016e-22
7.1084928e-23
0
0
0
0
-8.2774309e-23
4.5441743e-35
2.58303e-22
-9.4172228e-23
-3.0823968e-22
3.2599036e-22
1.0912414e-22
-2.0838303e-22
-9.9742388e-23
-1.6833632e-34
3.2558102e-22
-6.7400577e-38
-4.2313772e-34
-1.3187334e-22
-2.6489615e-22
-1.2999388e-22
-1.4156749e-34
1.2782921e-22
1.3162218e-22
1.3800509e-22
1.4511956e-22
-3.3542676e-34
-3.1018139e-22
0
0
-1.5249433e-22
-2.5440525e-34
-2.2268258e-38
2.3189316e-38
1.6999669e-22
3.5024015e-22
3.5315383e-22
-3.4820227e-22
-1.9009483e-34
-1.7102379e-22
-5.2369682e-22
0
0
1.9071561e-22
1.9067207e-22
0
-1.8525671e-22
1.0315896e-34
1.8949903e-22
-1.9531213e-22
4.0126238e-22
-6.7433243e-34
-5.9891714e-22
1.9470134e-22
1.9182534e-22
3.8662693e-22
-1.9856937e-22
-6.1501147e-22
2.0989135e-22
-1.174629e-34
4.1798233e-22
2.0407362e-22
-4.0151374e-22
4.0045325e-22
-6.513806e-51
-4.1222003e-22
0
0
4.2655491e-22
-2.3700454e-34
-7.1223917e-34
1.3492388e-51
-6.3480692e-22
-2.318366e-34
2.0691759e-22
4.1470966e-22
4.2068816e-22
-4.2951474e-22
-4.8527978e-34
-2.2019138e-22
-7.2838917e-34
2.1535585e-22
-4.2617364e-22
0
-2.1384153e-22
2.3990445e-34
2.18775e-22
4.4227522e-22
2.4757713e-34
-4.4842448e-22
0
0
-2.1883555e-22
1.2124762e-34
6.6112698e-22
2.4930371e-34
-4.583235e-22
0
2.3093521e-22
-2.2760782e-22
-2.251903e-22
-2.2510822e-22
-2.2742825e-22
4.6336615e-22
7.0715288e-22
-2.3800421e-22
-4.7586636e-22
7.0972115e-22
1.5565149e-52
-4.714279e-22
0
0
0
0
4.8945475e-22
4.882547e-22
-2.4251071e-22
-7.2428015e-22
-2.6861794e-34
2.4387436e-22
-4.9378696e-22
-4.9724718e-22
2.4783187e-22
9.8183475e-22
4.8696838e-22
-7.3014605e-22
-4.9045553e-22
7.441327e-22
5.5299421e-34
-4.9442191e-22
0
0
0
4.8544574e-22
2.716827e-34
-5.429617e-34
2.4065127e-22
-7.0798627e-22
2.3288695e-22
2.319443e-22
-6.9954418e-22
-4.6875986e-22
2.3263496e-22
4.5410836e-22
4.4194053e-22
-7.2199579e-34
2.3890369e-34
-6.1375455e-38
-4.3310848e-22
0
-2.0597812e-22
-1.9711726e-22
1.9030054e-22
1.8700095e-22
-1.8649403e-22
-1.8619408e-22
3.6724862e-22
1.7785923e-22
-1.6990582e-22
1.6216989e-22
-1.5586107e-22
-3.0122688e-22
0
0
3.9691113e-22
1.2582331e-22
-2.4168035e-22
-1.1653955e-22
-1.1094865e-22
2.0427944e-22
-1.0027437e-34
-1.5796574e-22
0
6.7630648e-23
1.945836e-22
1.3350494e-34
-2.8709123e-34
7.9020334e-23
-7.8180407e-23