/*--------------------------------*- C++ -*----------------------------------*\
  =========                 |
  \\      /  F ield         | OpenFOAM: The Open Source CFD Toolbox
   \\    /   O peration     | Website:  https://openfoam.org
    \\  /    A nd           | Version:  7
     \\/     M anipulation  |
\*---------------------------------------------------------------------------*/
FoamFile
{
    version     2.0;
    format      ascii;
    class       volScalarField;
    location    "0.00033";
    object      Ux;
}
// * * * * * * * * * * * * * * * * * * * * * * * * * * * * * * * * * * * * * //

dimensions      [0 1 -1 0 0 0 0];

internalField   nonuniform List<scalar> 
5000
(
-14.086923
-14.0828
-14.058424
-14.036566
-14.010687
-13.985383
-13.959229
-13.933187
-13.906933
-13.880713
-13.854437
-13.828176
-13.801902
-13.775634
-13.749364
-13.723097
-13.696832
-13.670569
-13.644308
-13.618049
-13.59179
-13.565533
-13.539275
-13.513018
-13.48676
-13.460502
-13.434243
-13.407983
-13.381724
-13.355464
-13.329205
-13.302947
-13.276691
-13.250436
-13.224184
-13.197934
-13.171688
-13.145445
-13.119207
-13.092972
-13.066742
-13.040517
-13.014297
-12.988081
-12.961871
-12.935665
-12.909465
-12.88327
-12.85708
-12.830896
-12.804716
-12.778543
-12.752374
-12.726212
-12.700055
-12.673904
-12.647759
-12.62162
-12.595488
-12.569361
-12.543242
-12.517128
-12.491022
-12.464922
-12.438829
-12.412743
-12.386663
-12.360591
-12.334525
-12.308467
-12.282415
-12.25637
-12.230332
-12.204301
-12.178277
-12.152259
-12.126248
-12.100243
-12.074246
-12.048254
-12.022269
-11.99629
-11.970318
-11.944352
-11.918392
-11.892438
-11.86649
-11.840548
-11.814613
-11.788683
-11.762759
-11.736842
-11.71093
-11.685024
-11.659124
-11.633229
-11.607341
-11.581458
-11.555581
-11.52971
-11.503844
-11.477985
-11.452131
-11.426282
-11.40044
-11.374603
-11.348772
-11.322947
-11.297127
-11.271313
-11.245505
-11.219702
-11.193905
-11.168114
-11.142328
-11.116549
-11.090774
-11.065006
-11.039243
-11.013486
-10.987734
-10.961988
-10.936248
-10.910513
-10.884784
-10.859061
-10.833343
-10.807631
-10.781925
-10.756224
-10.730529
-10.704839
-10.679155
-10.653477
-10.627804
-10.602137
-10.576476
-10.55082
-10.52517
-10.499525
-10.473886
-10.448253
-10.422625
-10.397003
-10.371386
-10.345775
-10.320169
-10.29457
-10.268975
-10.243387
-10.217803
-10.192226
-10.166654
-10.141088
-10.115527
-10.089971
-10.064422
-10.038878
-10.013339
-9.9878059
-9.9622784
-9.9367565
-9.9112401
-9.8857293
-9.8602239
-9.8347242
-9.80923
-9.7837413
-9.7582581
-9.7327805
-9.7073084
-9.6818418
-9.6563807
-9.6309252
-9.6054752
-9.5800306
-9.5545917
-9.5291582
-9.5037302
-9.4783077
-9.4528907
-9.4274793
-9.4020733
-9.3766728
-9.3512778
-9.3258883
-9.3005043
-9.2751258
-9.2497528
-9.2243852
-9.1990231
-9.1736665
-9.1483154
-9.1229697
-9.0976295
-9.0722948
-9.0469655
-9.0216418
-8.9963234
-8.9710105
-8.9457031
-8.9204011
-8.8951046
-8.8698135
-8.8445279
-8.8192477
-8.793973
-8.7687037
-8.7434398
-8.7181814
-8.6929283
-8.6676808
-8.6424386
-8.6172019
-8.5919706
-8.5667447
-8.5415243
-8.5163092
-8.4910996
-8.4658954
-8.4406966
-8.4155032
-8.3903152
-8.3651326
-8.3399554
-8.3147836
-8.2896172
-8.2644562
-8.2393006
-8.2141504
-8.1890055
-8.1638661
-8.138732
-8.1136033
-8.08848
-8.0633621
-8.0382496
-8.0131424
-7.9880406
-7.9629442
-7.9378531
-7.9127674
-7.8876871
-7.8626121
-7.8375425
-7.8124783
-7.7874194
-7.7623658
-7.7373177
-7.7122748
-7.6872373
-7.6622052
-7.6371784
-7.612157
-7.5871409
-7.5621301
-7.5371247
-7.5121246
-7.4871298
-7.4621404
-7.4371563
-7.4121775
-7.3872041
-7.362236
-7.3372732
-7.3123157
-7.2873636
-7.2624168
-7.2374753
-7.2125391
-7.1876083
-7.1626827
-7.1377625
-7.1128475
-7.0879379
-7.0630336
-7.0381346
-7.0132409
-6.9883525
-6.9634694
-6.9385917
-6.9137192
-6.888852
-6.8639901
-6.8391335
-6.8142822
-6.7894362
-6.7645955
-6.7397601
-6.71493
-6.6901051
-6.6652856
-6.6404713
-6.6156623
-6.5908586
-6.5660602
-6.5412671
-6.5164793
-6.4916967
-6.4669194
-6.4421474
-6.4173807
-6.3926193
-6.3678631
-6.3431122
-6.3183666
-6.2936262
-6.2688911
-6.2441613
-6.2194368
-6.1947176
-6.1700036
-6.1452948
-6.1205914
-6.0958932
-6.0712003
-6.0465126
-6.0218302
-5.9971531
-5.9724812
-5.9478146
-5.9231533
-5.8984972
-5.8738464
-5.8492009
-5.8245606
-5.7999255
-5.7752958
-5.7506712
-5.726052
-5.701438
-5.6768293
-5.6522258
-5.6276275
-5.6030346
-5.5784469
-5.5538644
-5.5292872
-5.5047152
-5.4801485
-5.4555871
-5.4310309
-5.40648
-5.3819343
-5.3573939
-5.3328587
-5.3083288
-5.2838041
-5.2592847
-5.2347705
-5.2102616
-5.1857579
-5.1612595
-5.1367663
-5.1122784
-5.0877957
-5.0633183
-5.0388461
-5.0143792
-4.9899175
-4.9654611
-4.9410099
-4.916564
-4.8921233
-4.8676879
-4.8432577
-4.8188328
-4.7944131
-4.7699986
-4.7455894
-4.7211855
-4.6967868
-4.6723933
-4.6480051
-4.6236222
-4.5992444
-4.574872
-4.5505047
-4.5261428
-4.501786
-4.4774345
-4.4530882
-4.4287472
-4.4044114
-4.3800809
-4.3557556
-4.3314355
-4.3071207
-4.2828111
-4.2585067
-4.2342076
-4.2099136
-4.185625
-4.1613415
-4.1370633
-4.1127903
-4.0885225
-4.0642599
-4.0400025
-4.0157504
-3.9915034
-3.9672617
-3.9430251
-3.9187937
-3.8945676
-3.8703466
-3.8461308
-3.8219201
-3.7977146
-3.7735143
-3.7493192
-3.7251291
-3.7009442
-3.6767645
-3.6525898
-3.6284203
-3.6042559
-3.5800965
-3.5559422
-3.531793
-3.5076489
-3.4835098
-3.4593757
-3.4352466
-3.4111225
-3.3870034
-3.3628893
-3.3387801
-3.3146758
-3.2905765
-3.2664821
-3.2423926
-3.2183079
-3.1942281
-3.1701532
-3.146083
-3.1220177
-3.0979572
-3.0739015
-3.0498506
-3.0258044
-3.001763
-2.9777264
-2.9536945
-2.9296674
-2.9056451
-2.8816276
-2.8576149
-2.833607
-2.8096039
-2.7856058
-2.7616125
-2.7376243
-2.7136411
-2.689663
-2.6656901
-2.6417225
-2.6177603
-2.5938036
-2.5698525
-2.5459073
-2.521968
-2.4980349
-2.4741083
-2.4501882
-2.426275
-2.402369
-2.3784705
-2.3545799
-2.3306974
-2.3068236
-2.2829589
-2.2591037
-2.2352586
-2.2114242
-2.1876011
-2.1637899
-2.1399913
-2.1162062
-2.0924353
-2.0686794
-2.0449397
-2.0212169
-1.9975122
-1.9738267
-1.9501616
-1.9265182
-1.9028978
-1.8793018
-1.8557317
-1.8321891
-1.8086756
-1.785193
-1.7617431
-1.7383278
-1.7149492
-1.6916092
-1.6683102
-1.6450543
-1.621844
-1.5986817
-1.5755701
-1.5525116
-1.5295093
-1.5065658
-1.4836841
-1.4608673
-1.4381185
-1.415441
-1.3928381
-1.3703133
-1.3478699
-1.3255117
-1.3032423
-1.2810654
-1.258985
-1.2370049
-1.215129
-1.1933616
-1.1717066
-1.1501682
-1.1287507
-1.1074583
-1.0862954
-1.0652663
-1.0443753
-1.0236269
-1.0030255
-0.98257558
-0.9622815
-0.94214772
-0.92217867
-0.90237876
-0.88275236
-0.86330384
-0.84403751
-0.82495763
-0.80606841
-0.787374
-0.76887848
-0.75058585
-0.73250004
-0.71462486
-0.69696404
-0.6795212
-0.66229985
-0.64530337
-0.62853502
-0.61199792
-0.59569505
-0.57962926
-0.56380324
-0.54821951
-0.53288045
-0.51778825
-0.50294496
-0.48835243
-0.47401234
-0.45992619
-0.44609531
-0.43252082
-0.41920365
-0.40614458
-0.39334415
-0.38080274
-0.36852052
-0.35649749
-0.34473344
-0.33322797
-0.32198051
-0.31099028
-0.30025634
-0.28977754
-0.27955257
-0.26957995
-0.259858
-0.25038491
-0.24115867
-0.23217714
-0.223438
-0.21493881
-0.20667697
-0.19864973
-0.19085423
-0.18328748
-0.17594637
-0.16882766
-0.16192802
-0.15524403
-0.14877215
-0.14250877
-0.1364502
-0.13059268
-0.12493237
-0.11946538
-0.11418777
-0.10909555
-0.10418469
-0.099451142
-0.094890806
-0.090499583
-0.086273352
-0.082207989
-0.078299367
-0.074543361
-0.07093586
-0.067472766
-0.064150003
-0.060963519
-0.057909293
-0.05498334
-0.052181711
-0.049500505
-0.046935864
-0.044483983
-0.042141109
-0.03990355
-0.037767669
-0.035729897
-0.033786726
-0.031934719
-0.030170507
-0.028490791
-0.026892348
-0.025372025
-0.023926749
-0.022553519
-0.021249413
-0.020011588
-0.018837276
-0.017723789
-0.016668517
-0.015668926
-0.014722564
-0.013827051
-0.012980088
-0.012179452
-0.011422992
-0.010708634
-0.010034378
-0.0093982947
-0.008798527
-0.0082332876
-0.0077008575
-0.0071995853
-0.0067278854
-0.0062842363
-0.0058671796
-0.0054753178
-0.0051073132
-0.0047618863
-0.0044378136
-0.0041339266
-0.0038491098
-0.003582299
-0.00333248
-0.0030986864
-0.0028799983
-0.0026755408
-0.002484482
-0.0023060316
-0.0021394395
-0.0019839937
-0.0018390195
-0.0017038775
-0.0015779623
-0.0014607009
-0.0013515516
-0.0012500025
-0.0011555701
-0.0010677979
-0.00098625558
-0.00091053738
-0.00084026103
-0.00077506668
-0.00071461573
-0.0006585898
-0.0006066897
-0.00055863444
-0.00051416029
-0.00047301985
-0.0004349812
-0.00039982706
-0.00036735397
-0.00033737153
-0.00030970167
-0.00028417796
-0.00026064491
-0.00023895736
-0.00021897987
-0.00020058612
-0.00018365839
-0.00016808701
-0.00015376991
-0.0001406121
-0.00012852525
-0.00011742727
-0.00010724191
-9.7898369e-05
-8.9330971e-05
-8.1478805e-05
-7.4285415e-05
-6.7698506e-05
-6.1669662e-05
-5.6154081e-05
-5.1110328e-05
-4.6500105e-05
-4.2288028e-05
-3.8441427e-05
-3.4930151e-05
-3.1726389e-05
-2.8804502e-05
-2.6140866e-05
-2.3713724e-05
-2.1503052e-05
-1.9490426e-05
-1.7658903e-05
-1.5992916e-05
-1.4478163e-05
-1.3101513e-05
-1.1850918e-05
-1.0715326e-05
-9.684606e-06
-8.7494771e-06
-7.9014375e-06
-7.1327055e-06
-6.4361631e-06
-5.8053004e-06
-5.2341671e-06
-4.7173265e-06
-4.2498168e-06
-3.8271086e-06
-3.4450685e-06
-3.0999297e-06
-2.7882592e-06
-2.5069285e-06
-2.2530908e-06
-2.024155e-06
-1.8177634e-06
-1.6317739e-06
-1.4642387e-06
-1.3133891e-06
-1.1776187e-06
-1.0554711e-06
-9.4562472e-07
-8.4687999e-07
-7.5815285e-07
-6.7845799e-07
-6.0690531e-07
-5.426895e-07
-4.850816e-07
-4.334221e-07
-3.871153e-07
-3.456239e-07
-3.0846115e-07
-2.7518943e-07
-2.4541427e-07
-2.1877681e-07
-1.9495628e-07
-1.7366391e-07
-1.5463849e-07
-1.3764584e-07
-1.2247412e-07
-1.0893377e-07
-9.6854256e-08
-8.6082499e-08
-7.6479596e-08
-6.7922612e-08
-6.0301414e-08
-5.3514844e-08
-4.7474484e-08
-4.2100621e-08
-3.7320976e-08
-3.3071499e-08
-2.9296246e-08
-2.5942182e-08
-2.2962834e-08
-2.0318626e-08
-1.7972719e-08
-1.5891697e-08
-1.4046297e-08
-1.241073e-08
-1.0961709e-08
-9.6782701e-09
-8.5421285e-09
-7.5368963e-09
-6.6472014e-09
-5.860506e-09
-5.1652521e-09
-4.551098e-09
-4.0082552e-09
-3.5285547e-09
-3.1057609e-09
-2.7324528e-09
-2.402972e-09
-2.1124045e-09
-1.8564853e-09
-1.6308602e-09
-1.4318905e-09
-1.2571894e-09
-1.1032844e-09
-9.6763849e-10
-8.4878908e-10
-7.4424507e-10
-6.5236629e-10
-5.7161166e-10
-5.0072067e-10
-4.3866265e-10
-3.8352502e-10
-3.3513447e-10
-2.9296558e-10
-2.5595329e-10
-2.2357816e-10
-1.9553048e-10
-1.7064621e-10
-1.494152e-10
-1.2988974e-10
-1.1282464e-10
-9.8114841e-11
-8.5432811e-11
-7.47579e-11
-6.4835554e-11
-5.6167976e-11
-4.8746378e-11
-4.262391e-11
-3.6804715e-11
-3.1632852e-11
-2.7360566e-11
-2.3489554e-11
-2.0222935e-11
-1.778753e-11
-1.5217726e-11
-1.303516e-11
-1.1360489e-11
-9.8977651e-12
-8.3256438e-12
-7.0397836e-12
-6.1031882e-12
-5.0621717e-12
-4.4220092e-12
-3.6161695e-12
-3.2576297e-12
-2.8368079e-12
-2.3166877e-12
-2.1184848e-12
-2.2185829e-12
-2.0161869e-12
-1.5008575e-12
-1.2183267e-12
-1.09446e-12
-9.714622e-13
-8.6195148e-13
-1.2297789e-12
-1.0643346e-12
-7.5983494e-13
-6.7950931e-13
-4.5147567e-13
-3.3794149e-13
-2.7060059e-13
8.6997121e-14
1.0358987e-13
-8.1608447e-14
-3.2330191e-13
-5.1594881e-13
-6.9661184e-13
-6.8491539e-13
-4.0925176e-13
-6.1127542e-13
-6.1489051e-13
-4.7050758e-13
-3.9916786e-13
1.0192822e-14
6.5533036e-14
-7.8166002e-14
-1.7481618e-13
-2.472537e-13
8.1050117e-14
2.5468167e-14
-1.9046178e-13
-1.6320438e-13
-1.3143687e-14
1.3780792e-13
9.8326036e-14
1.5675104e-13
1.0887808e-13
1.8445702e-13
7.1255549e-14
-1.880407e-13
-1.5881147e-14
3.0263241e-13
1.6790981e-14
-7.3281856e-14
-2.2934962e-13
-4.6568053e-13
-5.4555984e-13
-6.9924711e-13
-6.3740638e-13
-4.6003026e-13
-5.573632e-13
-3.5404986e-13
-9.8683889e-14
-2.5455316e-13
-3.3486192e-13
-4.0718813e-13
-3.3367268e-13
-3.2857005e-13
-3.1662866e-13
-3.3527843e-13
-5.7983026e-13
-5.2479243e-13
-5.3455722e-13
-2.3747733e-13
-3.190446e-13
-6.0941841e-13
-6.3472242e-13
-7.8827585e-13
-8.3343783e-13
-9.9437022e-13
-8.2946853e-13
-1.0167943e-12
-1.2403167e-12
-1.1104594e-12
-6.1526417e-13
-6.7453488e-13
-5.9056072e-13
-6.2637985e-13
-7.4983917e-13
-1.1480527e-12
-1.1208782e-12
-1.0290556e-12
-8.5467038e-13
-7.2037492e-13
-8.054367e-13
-8.0931135e-13
-8.8031661e-13
-9.1324633e-13
-9.080166e-13
-5.7291792e-13
-6.9383298e-13
-5.3160085e-13
-7.944685e-13
-1.1460941e-12
-1.1582177e-12
-1.1065592e-12
-9.419724e-13
-1.2268676e-12
-9.7666361e-13
-1.2082106e-12
-1.4911059e-12
-1.4342874e-12
-1.6013007e-12
-1.6473961e-12
-1.9220701e-12
-1.8984933e-12
-2.3439026e-12
-2.0174147e-12
-1.7064816e-12
-1.9542276e-12
-1.8543856e-12
-1.7341216e-12
-1.564621e-12
-1.5880591e-12
-1.3773458e-12
-1.6800228e-12
-1.7287682e-12
-1.4286385e-12
-1.2658882e-12
-1.4948824e-12
-1.2439112e-12
-8.7937823e-13
-8.1282706e-13
-8.1062011e-13
-5.1309027e-13
-2.6607479e-13
-5.0361723e-13
-5.2611649e-13
-4.0694005e-13
-1.254057e-13
-8.0979511e-14
-8.4466929e-14
1.5050964e-14
-6.8633648e-14
-2.965154e-13
-1.3496041e-13
6.5558572e-14
-1.4603879e-13
-7.9843852e-15
9.3097502e-14
7.983104e-14
2.3599423e-13
-8.5019633e-14
3.0682137e-13
3.2504293e-13
2.6264871e-13
4.3795028e-13
5.5684156e-13
8.3057196e-13
7.4659266e-13
2.6966883e-13
8.2803533e-14
1.1460805e-13
1.3231146e-13
5.08764e-13
7.5500614e-13
7.0156136e-13
5.939462e-13
4.6360459e-13
7.5020483e-13
1.0262396e-12
1.1550766e-12
1.0087949e-12
7.6092318e-13
8.306043e-13
5.7061501e-13
6.9729549e-13
4.919828e-13
3.4923164e-13
2.8011923e-13
1.4568153e-13
2.0761648e-13
-5.6948984e-14
-5.9684567e-14
-2.6840325e-13
-8.4973405e-14
1.4138044e-13
1.6064203e-13
-2.7778679e-13
-3.9459553e-13
-4.8028621e-13
-8.7875643e-13
-8.1586057e-13
-5.9271552e-13
-6.198505e-13
-5.6498016e-13
-5.9263742e-13
-5.1522632e-13
-3.2773835e-13
-1.5769107e-13
-2.9898185e-13
-2.9834756e-13
6.3797114e-14
1.9178972e-14
2.512914e-13
4.1398381e-13
4.365209e-13
3.2060702e-13
4.9191906e-13
4.5634314e-13
2.2915678e-13
1.2435188e-13
3.2537742e-13
5.3386275e-13
2.4367252e-13
3.9760851e-13
3.4034407e-13
2.2000411e-13
6.090184e-13
1.8630215e-13
1.8566447e-14
-3.3449249e-13
-1.9531765e-13
1.6172295e-14
-3.5621983e-13
-3.4273087e-13
-5.3703537e-13
-2.771992e-13
-2.3750657e-13
-6.8286497e-14
-3.4602186e-13
-3.0746124e-13
-5.2933702e-13
-5.4549283e-13
-2.5176907e-13
-6.3201512e-13
-7.8868544e-13
-9.107007e-13
-6.9160354e-13
-9.1240332e-13
-7.9015971e-13
-7.3592532e-13
-8.0754509e-13
-8.6556187e-13
-6.639085e-13
-7.6121972e-13
-8.3493972e-13
-6.0345648e-13
-6.4169113e-13
-5.8946813e-13
-7.8864228e-13
-8.4854168e-13
-6.8824367e-13
-8.0732112e-13
-8.9853562e-13
-6.9478647e-13
-5.2015317e-13
-4.6581295e-13
-6.7110863e-13
-5.2079306e-13
-6.5366933e-13
-6.179853e-13
-4.2912485e-13
-5.9748152e-13
-4.9255823e-13
-6.0886382e-13
-6.2460417e-13
-6.6133428e-13
-6.5517357e-13
-4.6935026e-13
-3.4525141e-13
-3.6491708e-13
-3.4056639e-13
-1.4701862e-13
1.465405e-13
1.7131879e-13
-2.1646382e-13
-3.1805012e-13
-2.0781537e-13
-1.1100124e-14
2.0987926e-13
1.5469335e-13
2.07659e-13
3.3236702e-13
1.8088502e-13
1.1836162e-13
2.9013238e-13
2.1668431e-13
1.7408283e-13
3.2022157e-13
4.6476838e-13
4.7522225e-13
2.9499192e-13
7.5237077e-14
-3.1031464e-13
-3.5733888e-13
-2.2270317e-13
-2.8972836e-13
-3.2635841e-13
-3.1260874e-13
-2.4118888e-13
-4.1440746e-14
3.5209649e-13
4.2261312e-13
4.4768571e-13
2.4031928e-13
2.3532616e-13
3.7230326e-13
1.299213e-13
1.8027076e-13
2.1225493e-13
1.7578342e-13
-2.6978909e-13
-5.1653011e-13
-2.8089471e-13
-1.3908884e-13
-1.2892353e-13
1.486212e-13
2.7448537e-13
-3.1105575e-14
7.2353343e-14
8.1124681e-14
1.7148192e-13
4.4995863e-14
-2.4844719e-13
3.0444702e-15
1.0889249e-13
-1.9877819e-13
-1.9534448e-13
2.7990886e-13
2.9071813e-13
3.6624646e-13
2.9462695e-13
1.6575429e-13
3.4394385e-13
5.4696573e-13
6.0409002e-13
3.9701315e-13
1.3472145e-13
1.7939749e-13
-9.1954384e-14
1.7378861e-13
1.7330589e-13
1.420076e-13
2.377551e-13
-1.5146892e-13
-1.848503e-13
-3.0077036e-13
-4.1188793e-13
-3.4784608e-13
-2.2921975e-13
8.6628815e-14
3.5251053e-13
2.4844607e-13
2.0419249e-13
2.9504248e-14
-1.7005746e-13
-1.8273298e-13
-2.6912704e-13
-3.1588357e-13
-1.4707095e-13
-2.0942537e-13
-4.1784948e-13
-1.2102915e-13
-2.7327006e-13
-3.0223995e-13
-2.6060244e-13
-2.4059672e-13
-1.2791162e-13
-4.6618561e-14
-1.6737689e-13
-2.0058251e-13
-3.276814e-13
-3.6919435e-13
-2.921945e-13
-4.6769037e-13
-5.7883887e-13
-6.5534891e-13
-3.4490189e-13
-4.0341664e-13
-2.6488216e-13
-1.6266485e-13
1.6714144e-13
4.5063204e-14
-2.4120732e-14
1.0519595e-13
-1.8605406e-14
1.1715638e-13
2.3887399e-13
2.2948066e-13
3.9971426e-13
3.9463948e-13
6.047026e-13
6.5022644e-13
3.1858429e-13
4.3309853e-13
4.683363e-13
2.8814217e-13
3.2013153e-13
1.9787973e-13
-1.5165891e-15
1.3997637e-13
-1.1921626e-14
-2.9180736e-13
-2.5564952e-13
-2.681107e-13
4.4653851e-14
1.0566962e-13
2.9279693e-13
3.6015216e-13
1.7454789e-13
3.6810129e-13
5.1891765e-13
6.7582472e-13
4.6428518e-13
7.9385012e-13
1.2754051e-12
1.2452852e-12
1.417214e-12
1.521587e-12
1.5079209e-12
1.8675674e-12
1.533626e-12
1.6450878e-12
1.5931894e-12
1.4537684e-12
1.851343e-12
1.6506571e-12
1.2955328e-12
1.0739264e-12
1.1819088e-12
1.2955134e-12
1.3206634e-12
1.1146234e-12
9.3794684e-13
1.1806916e-12
1.6541545e-12
1.3779711e-12
1.324253e-12
1.2789937e-12
1.0949617e-12
1.0624404e-12
1.3553067e-12
1.5798168e-12
1.6310791e-12
1.7014634e-12
1.860844e-12
1.7529192e-12
1.6604733e-12
1.5702639e-12
1.508083e-12
1.4635272e-12
1.200676e-12
9.9374233e-13
9.5899005e-13
1.1532429e-12
1.321414e-12
1.0418562e-12
9.1926853e-13
1.2079945e-12
1.0753166e-12
7.1815935e-13
5.794974e-13
5.4337476e-13
3.2989503e-13
2.4470051e-13
2.9838366e-13
3.8849303e-13
2.7163186e-13
4.8298299e-13
3.4321228e-13
1.4547904e-13
3.2216184e-13
2.676938e-13
2.7975457e-13
-4.0413776e-14
-3.2843164e-13
-9.5158494e-14
2.2349669e-13
3.5579689e-13
3.7063952e-13
1.9579326e-13
2.4634285e-13
1.6600819e-13
-1.257316e-14
1.5688443e-13
2.8813191e-13
5.7031959e-14
-3.1448272e-13
-1.487841e-13
7.0138106e-14
8.1326245e-14
-3.3155943e-13
-4.0501268e-13
-1.5482119e-13
-1.09087e-13
1.4188132e-13
4.9044141e-13
5.4497831e-13
5.0573011e-13
6.2686166e-13
8.1410326e-13
8.3023341e-13
5.4057505e-13
6.3157961e-13
7.1490486e-13
4.5719936e-13
2.8749726e-13
4.064945e-13
3.9344682e-13
-1.1201788e-14
-1.6069919e-13
1.1301135e-13
-4.6635799e-14
2.17445e-14
1.2081864e-13
3.2531347e-13
5.2669904e-13
2.5432289e-13
2.7119669e-13
2.0799127e-13
4.5527729e-13
7.8541716e-13
9.6603724e-13
7.8754482e-13
5.2149445e-13
6.9035606e-13
4.9774522e-13
5.7407783e-13
1.929407e-13
-4.2993155e-14
-4.9287722e-14
-7.5406057e-14
5.9520361e-14
-1.4019997e-14
-4.2571571e-14
1.3835128e-13
2.790788e-13
-3.0065046e-14
-4.4425e-14
1.4047976e-13
3.516491e-13
2.3433794e-13
3.5724882e-13
3.0922803e-13
2.9219441e-13
8.0371096e-14
7.8437276e-14
1.3919181e-13
-7.4302933e-14
2.0771441e-13
2.1027199e-13
1.0932015e-13
-9.6656102e-15
-3.3579031e-13
-5.5752521e-14
1.3578776e-14
1.2198756e-13
2.9047303e-13
1.2220907e-13
4.1210994e-13
4.1410907e-13
1.9257867e-13
3.6139574e-13
2.8669557e-13
1.9698553e-13
-7.0475047e-14
6.1396664e-14
3.5388149e-14
1.6585197e-13
9.9439734e-14
-1.8167893e-13
-1.2906981e-13
-3.876912e-13
-3.7495789e-14
1.8676506e-13
6.8022286e-13
9.3899177e-13
7.4999611e-13
6.9465921e-13
4.1563247e-13
2.9436988e-13
4.1499104e-13
8.8027102e-13
1.1234923e-12
1.2389424e-12
1.2241504e-12
1.0243837e-12
4.8330711e-13
4.1315868e-13
3.8263024e-13
7.1118937e-13
7.1714354e-13
8.3213656e-13
7.7531266e-13
6.6878632e-13
9.527593e-13
9.3200043e-13
9.6894852e-13
9.546733e-13
1.2352579e-12
1.4892652e-12
1.5764678e-12
1.3243803e-12
1.3817695e-12
1.1843727e-12
1.3439458e-12
9.0133836e-13
1.097449e-12
1.0114313e-12
9.9855459e-13
8.0347244e-13
8.8265572e-13
1.2758289e-12
6.198423e-13
5.4964262e-13
5.5426229e-13
3.3681375e-13
2.059866e-13
2.1636829e-13
1.5148914e-13
1.6014396e-13
1.4670812e-13
5.3722582e-13
8.5559479e-13
6.3235184e-13
7.2901746e-13
1.0085372e-12
7.9083745e-13
7.9662981e-13
9.8228141e-13
7.5881843e-13
5.3577059e-13
3.9641789e-13
4.7927942e-13
6.8779514e-13
3.232809e-13
5.5368292e-13
6.1228302e-13
5.4499883e-13
6.6124279e-13
5.5207523e-13
5.764909e-13
3.675976e-13
8.5380729e-14
-2.8191388e-14
-7.4152032e-14
-1.7163071e-13
-1.2510676e-13
4.435694e-14
6.4066336e-14
4.8318931e-14
-8.4834403e-15
-1.4561583e-14
-4.0858303e-14
-8.2418749e-14
6.7314626e-14
-2.1164698e-14
1.3946969e-13
-3.9134744e-14
1.6671522e-13
6.3471782e-14
-8.3401294e-14
5.460997e-14
1.8543422e-13
2.6898921e-13
1.6469066e-13
5.347382e-14
-2.7135694e-13
-3.1048026e-13
-1.1415423e-13
-6.8122031e-14
-7.9015183e-14
2.5965444e-14
1.2703332e-14
-2.0291091e-15
-3.5062819e-13
-1.1071919e-13
-1.743177e-13
-4.6256998e-14
1.3046035e-13
1.1979827e-13
-7.9815436e-14
3.7992534e-14
2.4903811e-13
2.4435699e-13
2.7699547e-13
3.0727855e-13
3.0633169e-13
1.6944713e-13
6.1763641e-13
7.6082674e-13
7.8932389e-13
9.4891662e-13
8.2697457e-13
1.0736901e-12
1.3891179e-12
1.4462952e-12
1.2311516e-12
8.2256608e-13
8.5985899e-13
8.355711e-13
7.1408037e-13
5.029821e-13
3.0716972e-14
7.6113847e-14
2.3418445e-13
-5.2701665e-14
3.8941727e-14
-9.3267666e-14
-2.6641984e-13
-6.9583357e-13
-7.0920381e-13
-5.4952205e-13
-5.2146754e-13
-4.3701817e-13
-4.2530202e-13
-2.3997349e-13
-3.0519396e-13
-1.5056182e-13
-5.2750882e-14
-1.8141215e-13
-8.6389408e-14
-9.6900821e-14
-4.9896622e-14
1.1547566e-13
4.5891882e-14
1.2095958e-13
-2.7597585e-13
1.6668432e-13
3.9832439e-13
4.5275375e-13
4.2998021e-13
7.1970414e-14
3.2232154e-13
-4.5349862e-14
1.2324422e-13
8.5585006e-15
-3.3859094e-14
6.9806039e-14
7.6400685e-14
1.7059101e-14
2.5897863e-13
2.5396716e-13
4.1953927e-13
4.9171323e-13
5.2958324e-13
6.7992442e-13
4.6409545e-13
5.9864815e-13
9.166601e-13
5.6835966e-13
6.431079e-13
1.0038107e-12
9.6716992e-13
1.3972563e-12
1.1866461e-12
1.1200304e-12
1.4381452e-12
1.597372e-12
1.5597045e-12
1.3341462e-12
1.1041845e-12
1.4056401e-12
1.6056503e-12
1.3529835e-12
1.3995494e-12
1.5034647e-12
1.6293024e-12
1.4924073e-12
1.2236641e-12
8.8429809e-13
6.7736831e-13
1.0282571e-12
1.0782484e-12
1.1587945e-12
9.928312e-13
1.3400472e-12
1.5901628e-12
1.7027542e-12
1.8439912e-12
2.0372991e-12
2.6229773e-12
2.7913876e-12
3.4092743e-12
3.6121455e-12
3.4310364e-12
3.9042968e-12
4.4815587e-12
5.4120165e-12
6.2635236e-12
6.9928071e-12
7.923287e-12
8.7961096e-12
9.9702908e-12
1.1077901e-11
1.247616e-11
1.4000802e-11
1.6528804e-11
1.8956428e-11
2.111975e-11
2.5116746e-11
2.895989e-11
3.3020989e-11
3.7987298e-11
4.3603226e-11
5.0220463e-11
5.7811764e-11
6.6877442e-11
7.7164269e-11
8.9198056e-11
1.0326836e-10
1.1916445e-10
1.3788961e-10
1.5930919e-10
1.8363472e-10
2.1214235e-10
2.4486895e-10
2.8219184e-10
3.2588984e-10
3.7568596e-10
4.3206212e-10
4.9685044e-10
5.7259668e-10
6.5947896e-10
7.5839416e-10
8.722712e-10
1.0030177e-09
1.1529411e-09
1.324473e-09
1.5213705e-09
1.7465752e-09
2.0049322e-09
2.3009678e-09
2.6393507e-09
3.0260601e-09
3.4686471e-09
3.9752458e-09
4.5541747e-09
5.2144588e-09
5.9688091e-09
6.8305527e-09
7.8136741e-09
8.9355114e-09
1.0214985e-08
1.1673105e-08
1.333472e-08
1.5227908e-08
1.738342e-08
1.9836525e-08
2.2628228e-08
2.5804513e-08
2.9415546e-08
3.3520102e-08
3.8183688e-08
4.3480371e-08
4.9494214e-08
5.6319788e-08
6.406399e-08
7.2846561e-08
8.2802979e-08
9.4086727e-08
1.0686948e-07
1.2134458e-07
1.3772953e-07
1.5627024e-07
1.7724208e-07
2.0095419e-07
2.2775606e-07
2.580372e-07
2.9223565e-07
3.3084489e-07
3.7441573e-07
4.235674e-07
4.7899299e-07
5.4146843e-07
6.1186326e-07
6.9115167e-07
7.8042076e-07
8.8088628e-07
9.9391012e-07
1.1210117e-06
1.2638859e-06
1.4244265e-06
1.6047473e-06
1.8072038e-06
2.0344226e-06
2.289329e-06
2.5751823e-06
2.8956095e-06
3.2546471e-06
3.656784e-06
4.10701e-06
4.6108703e-06
5.1745228e-06
5.8048035e-06
6.5092986e-06
7.2964219e-06
8.175499e-06
9.1568646e-06
1.0251965e-05
1.147347e-05
1.2835402e-05
1.4353263e-05
1.6044195e-05
1.7927137e-05
2.0023001e-05
2.2354876e-05
2.4948234e-05
2.783116e-05
3.1034616e-05
3.459271e-05
3.8542997e-05
4.2926814e-05
4.7789629e-05
5.3181437e-05
5.9157177e-05
6.5777193e-05
7.3107735e-05
8.1221491e-05
9.0198185e-05
0.0001001252
0.00011109828
0.00012322225
0.00013661184
0.00015139256
0.00016770163
0.00018568896
0.00020551831
0.00022736841
0.00025143426
0.00027792848
0.00030708277
0.00033914952
0.00037440346
0.00041314351
0.00045569471
0.00050241031
0.00055367402
0.00060990239
0.00067154735
0.00073909897
0.00081308834
0.00089409073
0.00098272882
0.0010796763
0.0011856616
0.0013014718
0.0014279571
0.0015660349
0.0017166949
0.0018810042
0.0020601122
0.0022552566
0.0024677695
0.0026990831
0.0029507369
0.0032243844
0.0035218006
0.0038448894
0.0041956921
0.0045763956
0.0049893415
0.0054370352
0.0059221558
0.0064475663
0.0070163239
0.0076316913
0.0082971483
0.0090164033
0.009793406
0.01063236
0.011537737
0.012514288
0.013567061
0.014701412
0.015923023
0.017237915
0.018652467
0.020173427
0.021807933
0.023563528
0.025448178
0.027470288
0.02963872
0.031962812
0.034452394
0.037117808
0.039969926
0.043020164
0.046280507
0.049763521
0.053482375
0.057450855
0.061683384
0.066195036
0.071001557
0.076119376
0.081565622
0.08735814
0.093515503
0.10005703
0.10700278
0.11437359
0.12219106
0.13047759
0.13925635
0.14855131
0.15838725
0.16878973
0.17978513
0.19140063
0.2036642
0.21660461
0.23025141
0.24463492
0.25978625
0.27573724
0.29252047
0.31016924
0.32871754
0.34820005
0.36865209
0.39010958
0.41260906
0.4361876
0.46088281
0.48673276
0.51377599
0.54205142
0.57159831
0.60245625
0.63466508
0.66826484
0.70329571
0.73979799
0.77781199
0.81737801
0.85853627
0.90132685
0.94578959
0.99196409
1.0398896
1.089605
1.1411486
1.1945582
1.2498711
1.3071239
1.3663524
1.4275915
1.4908754
1.5562373
1.6237093
1.6933226
1.7651072
1.8390918
1.915304
1.99377
2.0745146
2.1575612
2.2429318
2.3306469
2.4207251
2.5131838
2.6080384
2.7053029
2.8049893
2.9071078
3.011667
3.1186734
3.2281319
3.3400453
3.4544145
3.5712385
3.6905142
3.8122368
3.9363992
4.0629926
4.1920058
4.3234261
4.4572383
4.5934255
4.7319686
4.8728467
5.0160367
5.1615135
5.3092503
5.459218
5.6113857
5.7657206
5.9221879
6.0807509
6.2413711
6.4040081
6.5686196
6.7351615
6.9035881
7.0738518
7.2459032
7.4196914
7.5951635
7.7722654
7.950941
8.1311329
8.3127821
8.4958279
8.6802083
8.8658599
9.0527178
9.2407158
9.4297862
9.6198604
9.8108682
10.002738
10.195398
10.388774
10.582792
10.777376
10.972449
11.167933
11.363751
11.559823
11.756068
11.952406
12.148756
12.345034
12.541158
12.737044
12.932609
13.12777
13.32244
13.516538
13.709976
13.902671
14.094538
14.285491
14.47545
14.664324
14.852036
15.038497
15.223627
15.407345
15.589565
15.770212
15.949201
16.126457
16.301902
16.475458
16.647055
16.816612
16.984067
17.149342
17.312373
17.473095
17.631441
17.787354
17.94077
18.091638
18.239899
18.385504
18.528406
18.668556
18.805916
18.940442
19.072104
19.200865
19.326696
19.449574
19.569474
19.686381
19.800276
19.911151
20.018999
20.123813
20.225599
20.324355
20.420094
20.512823
20.60256
20.689324
20.773135
20.854024
20.932014
21.007144
21.079447
21.148961
21.215732
21.2798
21.341219
21.400033
21.456299
21.510071
21.561404
21.610361
21.656997
21.701381
21.743569
21.78363
21.82163
21.85763
21.891704
21.923911
21.954325
21.983009
22.01003
22.035459
22.059356
22.081792
22.102825
22.122525
22.140952
22.158166
22.174231
22.189199
22.203135
22.216088
22.228116
22.23927
22.249598
22.259155
22.26798
22.276124
22.283628
22.290532
22.29688
22.302702
22.308043
22.31293
22.317398
22.321478
22.325196
22.328585
22.331663
22.334461
22.336997
22.339294
22.341372
22.343246
22.34494
22.346462
22.347834
22.349064
22.350167
22.351157
22.352038
22.352829
22.35353
22.354157
22.354713
22.355205
22.355643
22.356027
22.356369
22.356668
22.356931
22.357162
22.357362
22.35754
22.357691
22.357825
22.35794
22.358038
22.358125
22.358195
22.358261
22.358312
22.358359
22.358399
22.358432
22.358468
22.35851
22.358565
22.358608
22.358631
22.358667
22.358735
22.358802
22.358841
22.358869
22.358916
22.358985
22.359039
22.359068
22.3591
22.359155
22.359212
22.359245
22.359268
22.359307
22.359363
22.359403
22.359418
22.359442
22.359497
22.359546
22.359557
22.359563
22.359617
22.359675
22.359698
22.359708
22.359753
22.359812
22.359841
22.359862
22.359894
22.359941
22.359974
22.36
22.360029
22.360067
22.360123
22.360173
22.360195
22.360204
22.360231
22.360254
22.360259
22.360283
22.360335
22.360378
22.360402
22.360427
22.360467
22.360509
22.36055
22.360595
22.360647
22.360706
22.360739
22.360733
22.360751
22.360788
22.360792
22.360774
22.360766
22.360773
22.36079
22.360802
22.360811
22.360808
22.360805
22.360826
22.360854
22.360872
22.360893
22.360926
22.360964
22.361002
22.36104
22.361082
22.361116
22.361154
22.361192
22.361215
22.361238
22.361272
22.361287
22.361286
22.361292
22.361292
22.361285
22.361291
22.361309
22.361308
22.361295
22.361303
22.361326
22.36134
22.361352
22.361375
22.3614
22.361425
22.361453
22.361483
22.361515
22.361551
22.361591
22.361607
22.361618
22.361635
22.361646
22.361636
22.361617
22.361619
22.361629
22.36163
22.361629
22.361633
22.361641
22.361652
22.361642
22.361604
22.361579
22.361598
22.361602
22.361587
22.361572
22.361577
22.361579
22.361572
22.361574
22.361581
22.361571
22.361554
22.361554
22.361556
22.361552
22.361551
22.361549
22.361538
22.361525
22.361522
22.361522
22.361523
22.361527
22.361529
22.361534
22.36154
22.361548
22.361553
22.361561
22.361569
22.36158
22.361585
22.361583
22.361579
22.361584
22.361593
22.361598
22.361599
22.361591
22.361591
22.361596
22.361601
22.3616
22.361591
22.361579
22.361583
22.36158
22.361569
22.361548
22.361548
22.36155
22.361544
22.361529
22.361506
22.361496
22.361497
22.361493
22.361486
22.361478
22.361468
22.361452
22.361447
22.361443
22.361434
22.361416
22.36141
22.36141
22.361406
22.361398
22.361388
22.361379
22.361368
22.361361
22.361361
22.361358
22.36135
22.361337
22.361333
22.361332
22.361326
22.361316
22.361307
22.361305
22.3613
22.361291
22.361278
22.361274
22.36127
22.361263
22.361252
22.361246
22.361242
22.361234
22.361219
22.361206
22.361203
22.3612
22.361198
22.361194
22.361188
22.361177
22.361169
22.361167
22.361163
22.361156
22.361147
22.361138
22.36113
22.361124
22.361123
22.361121
22.361117
22.361109
22.3611
22.36109
22.36109
22.361089
22.361084
22.361077
22.361068