-1.25 	300 	0.05902899196242745 	101349.0876837051
-1.247497497497497 	300.0181393590341 	0.05769849986818391 	101348.4931192978
-1.244994994994995 	300.0193406262775 	0.05596155474357177 	101347.8928338574
-1.242492492492492 	300.0188527365586 	0.054687595351814 	101347.2875033101
-1.23998998998999 	300.0183356333737 	0.05309501960958872 	101346.6775781483
-1.237487487487487 	300.017816373018 	0.05160616022000998 	101346.0636355354
-1.234984984984985 	300.0172938711457 	0.05009318654101415 	101345.4458558228
-1.232482482482482 	300.0167688511733 	0.04857269224601314 	101344.8251039088
-1.22997997997998 	300.0162405178648 	0.04704391100922194 	101344.2004351596
-1.227477477477477 	300.0157091204869 	0.04550632196833633 	101343.5721461989
-1.224974974974975 	300.0151752562088 	0.04395596684383987 	101342.9409476928
-1.222472472472472 	300.0146380347721 	0.04239686847463455 	101342.3057754363
-1.21996996996997 	300.0140992502833 	0.04083669008492082 	101341.6687566732
-1.217467467467467 	300.0135570923099 	0.03927087159984066 	101341.0277627944
-1.214964964964965 	300.0130107332295 	0.03768948279455767 	101340.381803889
-1.212462462462462 	300.0124641042883 	0.03610252896849057 	101339.7355207005
-1.20995995995996 	300.0119155631225 	0.0345101886287964 	101339.086981161
-1.207457457457457 	300.0113614632292 	0.03290848411245152 	101338.4318758485
-1.204954954954955 	300.0108061655629 	0.0313061613245766 	101337.77535393
-1.202452452452452 	300.0102529520548 	0.02970062311842064 	101337.1212996109
-1.19994994994995 	300.0096977115321 	0.02808611698100683 	101336.4648571318
-1.197447447447447 	300.0091377213669 	0.0264619071892494 	101335.8028028448
-1.194944944944945 	300.0085746994453 	0.02483269956269656 	101335.1371645512
-1.192442442442442 	300.0080093023736 	0.02319899998348074 	101334.4687186943
-1.18993993993994 	300.0074428799672 	0.02155919118034198 	101333.7990644629
-1.187437437437437 	300.0068793246825 	0.01992482649347454 	101333.1328038184
-1.184934934934935 	300.0063187148191 	0.0182979348723975 	101332.4700258999
-1.182432432432432 	300.0057555999133 	0.01666628373525759 	101331.8042884425
-1.17992992992993 	300.0051854794176 	0.01501706823774769 	101331.1302733804
-1.177427427427427 	300.0046091534829 	0.0133484619700989 	101330.4489291419
-1.174924924924925 	300.0040314494319 	0.0116742417771438 	101329.7659604777
-1.172422422422422 	300.0034562913929 	0.01000565525920034 	101329.0860025604
-1.16991991991992 	300.0028835769301 	0.008345247711631452 	101328.4089346238
-1.167417417417417 	300.0023113290352 	0.00668895099756914 	101327.732422233
-1.164914914914915 	300.0017386910577 	0.00503097357477481 	101327.0554550265
-1.162412412412412 	300.001165637919 	0.003371286297932996 	101326.3780019486
-1.15990990990991 	300.0005926788646 	0.001712191315513614 	101325.7006604141
-1.157407407407407 	300.0000205914666 	0.0008183698037162728 	101325.0243476461
-1.154904904904904 	299.9994485607904 	0.001602121743705026 	101324.3481030805
-1.152402402402403 	299.9988758790277 	0.003261600273832927 	101323.671095301
-1.1498998998999 	299.9983029156795 	0.004922236193708848 	101322.9937636789
-1.147397397397397 	299.9977300120187 	0.006583746151834229 	101322.3165100166
-1.144894894894895 	299.997157307448 	0.008243335910430893 	101321.6394943709
-1.142392392392392 	299.9965849144827 	0.009900810786606786 	101320.9628444239
-1.13988988988989 	299.9960130012204 	0.0115561088376104 	101320.2867574617
-1.137387387387387 	299.9954417126152 	0.01320965721553274 	101319.6114064638
-1.134884884884885 	299.9948711341946 	0.01486297993490784 	101318.936896089
-1.132382382382382 	299.9943013760024 	0.01651322423426844 	101318.2633590495
-1.12987987987988 	299.9937326602872 	0.0181602582617591 	101317.5910587827
-1.127377377377377 	299.9931652740939 	0.01980290886641015 	101316.9203359919
-1.124874874874875 	299.9925993765589 	0.02144228246003452 	101316.2513786892
-1.122372372372372 	299.9920349170362 	0.02308042980527019 	101315.5841269593
-1.11986986986987 	299.9914718295456 	0.02471259207714657 	101314.9185021326
-1.117367367367367 	299.9909102159723 	0.02633875887584229 	101314.2546230572
-1.114864864864865 	299.9903502691776 	0.02795716391579195 	101313.5927184451
-1.112362362362362 	299.9897920829683 	0.02957178659536312 	101312.932898624
-1.10985985985986 	299.9892356256095 	0.03118729746690931 	101312.2751265471
-1.107357357357357 	299.9886809588396 	0.03279552262478073 	101311.6194745123
-1.104854854854855 	299.9881283788808 	0.03439575977003134 	101310.9662911885
-1.102352352352353 	299.9875782030786 	0.03598687572270816 	101310.3159529441
-1.09984984984985 	299.9870304935287 	0.03757224459062681 	101309.6685327519
-1.097347347347347 	299.9864851299919 	0.03915605499917196 	101309.0238889717
-1.094844844844845 	299.9859421257438 	0.04073045672850338 	101308.3820370549
-1.092342342342342 	299.9854017258168 	0.04229530959912085 	101307.7432657305
-1.08983983983984 	299.9848641462979 	0.0438506023511207 	101307.1078313225
-1.087337337337337 	299.9843293466441 	0.045398752498192 	101306.4756859077
-1.084834834834835 	299.9837972097314 	0.04694253675692141 	101305.8466912794
-1.082332332332332 	299.9832678794731 	0.04847641759416585 	101305.2210166298
-1.07982982982983 	299.982741711872 	0.05000047919222726 	101304.5990825246
-1.077327327327327 	299.9822189200984 	0.05151460831027078 	101303.9811416445
-1.074824824824825 	299.9816994560612 	0.05301936408673063 	101303.3671367137
-1.072322322322323 	299.9811832567549 	0.05451565915477117 	101302.7569936512
-1.06981981981982 	299.9806704737541 	0.05600108163946284 	101302.1508910494
-1.067317317317317 	299.9801613578676 	0.05747617581301844 	101301.5491251464
-1.064814814814815 	299.9796559868241 	0.05894010951073545 	101300.9517884337
-1.062312312312312 	299.979154275377 	0.06039320978360171 	101300.3587799436
-1.05980980980981 	299.978656244445 	0.06183590925914005 	101299.770124314
-1.057307307307307 	299.978162115281 	0.06326703403863033 	101299.1860826806
-1.054804804804805 	299.9776721142745 	0.06468707933499546 	101298.6069225417
-1.052302302302302 	299.9771862982301 	0.06609462606007926 	101298.0327113275
-1.0497997997998 	299.9767046300323 	0.06748977452442588 	101297.4634051351
-1.047297297297297 	299.9762271894307 	0.06887258691380559 	101296.8990979258
-1.044794794794795 	299.9757541872848 	0.07024266720840085 	101296.3400384605
-1.042292292292292 	299.9752857477607 	0.07160061866416592 	101295.7863742516
-1.03978978978979 	299.974821849376 	0.07294468470004412 	101295.2380800523
-1.037287287287287 	299.9743624991322 	0.07427506668343567 	101294.6951630635
-1.034784784784785 	299.9739078154507 	0.07559154017317313 	101294.1577632329
-1.032282282282283 	299.9734579636926 	0.07689430592990351 	101293.6260766031
-1.02977977977978 	299.9730130591765 	0.07818418086039436 	101293.1002401209
-1.027277277277277 	299.9725731180494 	0.07945889361367633 	101292.5802716279
-1.024774774774775 	299.9721381733069 	0.08071859558019795 	101292.0662088438
-1.022272272272272 	299.9717083784207 	0.08196257044357017 	101291.5582348764
-1.01976976976977 	299.971283872726 	0.08319190466672188 	101291.0565155312
-1.017267267267267 	299.9708646940599 	0.08440789182789619 	101290.5610942322
-1.014764764764765 	299.9704508721397 	0.08560733821788002 	101290.0720033625
-1.012262262262262 	299.9700424534377 	0.08679038435258139 	101289.5892988251
-1.00975975975976 	299.9696395249971 	0.08795505262130068 	101289.1130877702
-1.007257257257257 	299.9692422230132 	0.08910458104621405 	101288.6435303504
-1.004754754754755 	299.9688505960925 	0.0902418757241675 	101288.1806800084
-1.002252252252252 	299.9684646495749 	0.09136094656374877 	101287.724540122
-0.9997497497497498 	299.9680845100202 	0.09246192450355006 	101287.2752639443
-0.9972472472472473 	299.9677103114726 	0.09354277520503368 	101286.8330167323
-0.9947447447447449 	299.9673421037232 	0.09460783934742599 	101286.3978556865
-0.9922422422422421 	299.9669799383212 	0.09566088097993283 	101285.9698338716
-0.9897397397397399 	299.9666238570549 	0.09669429893122485 	101285.548994633
-0.9872372372372376 	299.9662739141299 	0.09770808302865924 	101285.1354072872
-0.9847347347347346 	299.9659302120064 	0.09870054214927756 	101284.7292053389
-0.9822322322322323 	299.9655927755711 	0.09967616389644096 	101284.3304212386
-0.9797297297297296 	299.9652616010706 	0.1006386539012259 	101283.9390407904
-0.9772272272272275 	299.9649368027712 	0.1015807693277754 	101283.5551843793
-0.9747247247247248 	299.9646185075226 	0.1025028165031177 	101283.1790004401
-0.9722222222222224 	299.9643067811148 	0.1034048847745628 	101282.8105804814
-0.9697197197197196 	299.9640016675593 	0.1042885401407774 	101282.4499908962
-0.9672172172172175 	299.9637031911055 	0.1051549500955167 	101282.0972628925
-0.9647147147147147 	299.963411435145 	0.1060009746392254 	101281.7524813936
-0.9622122122122124 	299.9631265142651 	0.1068269646317732 	101281.4157647822
-0.9597097097097099 	299.9628484101298 	0.1076321432418452 	101281.0870849604
-0.9572072072072073 	299.9625770395451 	0.1084174872805035 	101280.7663526997
-0.9547047047047047 	299.9623124259784 	0.1091837887831428 	101280.4536143157
-0.9522022022022023 	299.9620546892953 	0.1099297877561003 	101280.1490254056
-0.9496996996996998 	299.9618039741056 	0.1106560911737554 	101279.8527557452
-0.9471971971971973 	299.9615603771958 	0.1113616518920195 	101279.5649042919
-0.9446946946946947 	299.9613239327174 	0.1120468951827778 	101279.2854921792
-0.9421921921921923 	299.9610947261446 	0.1127118133481868 	101279.0146093835
-0.93968968968969 	299.9608728673113 	0.1133555802642152 	101278.7523900137
-0.9371871871871872 	299.960658308757 	0.1139785036415007 	101278.4987939675
-0.9346846846846848 	299.9604508736239 	0.1145792115578201 	101278.25362847
-0.9321821821821823 	299.960250474494 	0.1151584292408994 	101278.0168004942
-0.9296796796796799 	299.9600572161832 	0.1157165733809563 	101277.7884354945
-0.9271771771771771 	299.9598713089463 	0.1162540779135949 	101277.5687740431
-0.9246746746746748 	299.9596928734161 	0.1167715908212401 	101277.3579456274
-0.9221721721721724 	299.9595218875987 	0.1172671240722332 	101277.1559098433
-0.9196696696696698 	299.9593584082418 	0.1177407979706334 	101276.9627224909
-0.9171671671671672 	299.9592026485928 	0.1181921887129035 	101276.778632895
-0.9146646646646649 	299.9590547068969 	0.1186218760223927 	101276.6037618418
-0.9121621621621623 	299.9589143868061 	0.1190304040416194 	101276.4378845399
-0.9096596596596597 	299.9587813921764 	0.1194155313669313 	101276.2806581949
-0.9071571571571573 	299.9586556734067 	0.1197781065111924 	101276.1320305486
-0.9046546546546547 	299.9585375179574 	0.1201180035934128 	101275.9923449642
-0.9021521521521524 	299.9584271554737 	0.1204373133748099 	101275.8618756081
-0.8996496496496498 	299.9583244622115 	0.1207368841856797 	101275.7404780826
-0.8971471471471473 	299.9582292860802 	0.1210129201500497 	101275.62797163
-0.894644644644645 	299.9581418132304 	0.1212659299262267 	101275.5245763228
-0.892142142142142 	299.9580623472743 	0.121493812223032 	101275.4306511983
-0.8896396396396397 	299.9579909115347 	0.1217008354951192 	101275.3462204231
-0.8871371371371374 	299.9579271743008 	0.1218893247793313 	101275.2708913783
-0.8846346346346349 	299.9578708620057 	0.1220526618791597 	101275.204337976
-0.8821321321321324 	299.9578221590713 	0.1221923221422813 	101275.1467776105
-0.8796296296296297 	299.9577814101553 	0.1223068555463508 	101275.098619748
-0.8771271271271271 	299.9577485500619 	0.12240127052807 	101275.0597885834
-0.8746246246246248 	299.9577232929479 	0.1224782204210235 	101275.0299450578
-0.8721221221221224 	299.9577056291905 	0.1225301098098577 	101275.0090739498
-0.8696196196196196 	299.9576958397607 	0.1225580420150096 	101274.9975059759
-0.8671171171171175 	299.9576941489595 	0.1225608811915547 	101274.9955065492
-0.8646146146146148 	299.957700407801 	0.122542560406867 	101275.0029013797
-0.8621121121121121 	299.9577142742117 	0.1225050825641032 	101275.0192886456
-0.8596096096096097 	299.9577357943645 	0.1224428690112591 	101275.044722952
-0.857107107107107 	299.9577652173629 	0.1223574650605636 	101275.0794993598
-0.8546046046046049 	299.9578024863994 	0.12224866299296 	101275.1235488707
-0.8521021021021022 	299.9578474590248 	0.1221179965177289 	101275.1767005544
-0.8495995995995997 	299.9579001260178 	0.1219663113929544 	101275.2389421633
-0.8470970970970974 	299.9579604663083 	0.1217913638576731 	101275.3102484707
-0.8445945945945946 	299.9580286347332 	0.121594122362038 	101275.3908047841
-0.8420920920920922 	299.9581047319146 	0.1213737549922363 	101275.4807325801
-0.8395895895895897 	299.9581885035385 	0.1211309559964641 	101275.5797329719
-0.8370870870870872 	299.9582798579012 	0.1208663442998916 	101275.6876971885
-0.8345845845845846 	299.9583789422099 	0.1205793097996123 	101275.8047983819
-0.8320820820820823 	299.9584857077613 	0.1202703537364468 	101275.9309780598
-0.8295795795795798 	299.9586001548536 	0.1199384482526837 	101276.0662342974
-0.8270770770770772 	299.9587222451883 	0.1195846759256155 	101276.2105201981
-0.8245745745745746 	299.9588517597089 	0.1192091914439064 	101276.3635769325
-0.8220720720720721 	299.9589888434674 	0.1188117362331225 	101276.5255771852
-0.8195695695695699 	299.9591336899755 	0.1183929936848305 	101276.6967517251
-0.817067067067067 	299.959286038661 	0.1179516374694769 	101276.876792822
-0.8145645645645651 	299.9594457591286 	0.1174885972142108 	101277.0655468994
-0.8120620620620621 	299.9596129662439 	0.1170039574549839 	101277.2631503934
-0.8095595595595597 	299.9597876761997 	0.1164977028550876 	101277.4696232916
-0.8070570570570572 	299.9599698928565 	0.115970602526525 	101277.6849699373
-0.8045545545545546 	299.9601594439348 	0.1154215623436316 	101277.9089857303
-0.8020520520520523 	299.9603561229189 	0.1148513047413436 	101278.1414257847
-0.7995495495495494 	299.9605601185133 	0.114259457388339 	101278.3825116007
-0.7970470470470474 	299.9607715616385 	0.1136468733852121 	101278.6323962838
-0.7945445445445446 	299.9609902141065 	0.1130143796871257 	101278.8907998966
-0.7920420420420423 	299.961215922519 	0.1123604374871624 	101279.157542736
-0.7895395395395397 	299.9614487015195 	0.1116859178024 	101279.4326424299
-0.7870370370370371 	299.9616886373825 	0.1109897004750181 	101279.7162007133
-0.7845345345345348 	299.9619357797995 	0.1102736290288648 	101280.0082770533
-0.7820320320320323 	299.962189956321 	0.1095389540692445 	101280.3086670846
-0.7795295295295296 	299.9624509191603 	0.1087829443268031 	101280.6170778055
-0.7770270270270272 	299.9627187749169 	0.1080066680497187 	101280.9336354756
-0.7745245245245247 	299.9629936325449 	0.1072077830401525 	101281.2584679759
-0.7720220220220222 	299.963275365525 	0.1063906964362519 	101281.5914270209
-0.7695195195195199 	299.9635637180509 	0.1055580390464703 	101281.9322106282
-0.767017017017017 	299.9638585871173 	0.1047043589547148 	101282.2806963404
-0.7645145145145147 	299.9641599983074 	0.1038309743758479 	101282.6369147323
-0.7620120120120122 	299.9644682230709 	0.1029349494835026 	101283.0011861934
-0.7595095095095097 	299.9647831811615 	0.102021792042915 	101283.3734163984
-0.7570070070070072 	299.9651046301298 	0.1010942526457372 	101283.7533195472
-0.7545045045045048 	299.9654324255999 	0.1001454377149074 	101284.1407238557
-0.7520020020020022 	299.9657665977386 	0.09917743636835864 	101284.5356651509
-0.7494994994994997 	299.9661069811597 	0.09818861239813614 	101284.9379474379
-0.7469969969969972 	299.9664535417338 	0.09718351576435935 	101285.3475316964
-0.7444944944944945 	299.9668061639597 	0.09616422782078812 	101285.7642822816
-0.7419919919919924 	299.9671648596541 	0.09512537464292474 	101286.1882122681
-0.7394894894894897 	299.9675296724727 	0.09406894393262194 	101286.6193730829
-0.7369869869869872 	299.967900491882 	0.09299449080274766 	101287.0576331154
-0.7344844844844846 	299.9682770561714 	0.09190355591179435 	101287.5026836765
-0.7319819819819822 	299.9686595449025 	0.09079645578596235 	101287.9547379572
-0.7294794794794797 	299.9690482250147 	0.08967074922649097 	101288.4141117125
-0.7269769769769773 	299.9694429537139 	0.08852775675876502 	101288.8806361709
-0.7244744744744747 	299.9698431182607 	0.08736803201694728 	101289.3535865615
-0.721971971971972 	299.9702479558558 	0.08619417988772787 	101289.8320609383
-0.7194694694694695 	299.9706574571893 	0.08500659305773406 	101290.3160482426
-0.7169669669669674 	299.9710726663571 	0.08380322193762091 	101290.8067833596
-0.7144644644644647 	299.9714942972331 	0.08258338315105132 	101291.3051105556
-0.711961961961962 	299.971921822054 	0.08134594296564329 	101291.8104065096
-0.7094594594594597 	299.9723542324056 	0.08009382223170472 	101292.3214792374
-0.7069569569569573 	299.9727908000807 	0.07882917930123844 	101292.8374665639
-0.7044544544544545 	299.9732316843959 	0.07755179246923216 	101293.3585562199
-0.7019519519519523 	299.9736778202119 	0.0762603073344171 	101293.885853935
-0.6994494494494495 	299.9741295819923 	0.07495096750756752 	101294.4198031661
-0.6969469469469471 	299.974586588436 	0.07362461606349974 	101294.9599545276
-0.6944444444444446 	299.9750484866352 	0.07228495457161495 	101295.5058912449
-0.6919419419419421 	299.9755144386547 	0.07093597349627175 	101296.0566215705
-0.6894394394394396 	299.9759835629213 	0.06957888391656936 	101296.6111031827
-0.6869369369369374 	299.976456173417 	0.06821031034312115 	101297.169706426
-0.6844344344344344 	299.976933351823 	0.06682721088828715 	101297.7337093408
-0.6819319319319321 	299.9774163992014 	0.06542651486098391 	101298.304650343
-0.6794294294294296 	299.9779060332444 	0.0640100344277777 	101298.8833793017
-0.6769269269269272 	299.978400230675 	0.06258120587701874 	101299.4675058632
-0.6744244244244245 	299.9788961570965 	0.06114245907314849 	101300.0536807824
-0.6719219219219222 	299.9793935107742 	0.05969906259813405 	101300.6415468221
-0.6694194194194195 	299.9798932729477 	0.05824935482834816 	101301.2322604085
-0.6669169169169172 	299.9803968811837 	0.05678995833364397 	101301.8275206288
-0.6644144144144146 	299.9809062285386 	0.05531711388661796 	101302.4295659415
-0.661911911911912 	299.9814212882761 	0.05382563830646742 	101303.0383630955
-0.6594094094094097 	299.9819410282915 	0.0523187744789152 	101303.6526947239
-0.656906906906907 	299.9824647574437 	0.05080115783208401 	101304.2717459514
-0.6544044044044046 	299.9829900821032 	0.04928061554436344 	101304.8926878678
-0.6519019019019021 	299.9835152302749 	0.04776033965403198 	101305.5134269619
-0.6493993993993996 	299.9840411231368 	0.04623598039574295 	101306.1350516753
-0.6468968968968971 	299.9845692342702 	0.0447049820493764 	101306.7592997353
-0.6443943943943946 	299.9851016384681 	0.04315787977391733 	101307.3886234089
-0.6418918918918921 	299.9856402574948 	0.04159776005733841 	101308.0252928792
-0.6393893893893897 	299.9861841528201 	0.0400265649956931 	101308.6681984828
-0.6368868868868871 	299.9867317117142 	0.03844086883754131 	101309.3154344857
-0.6343843843843846 	299.9872815871085 	0.03684902937277564 	101309.9654119054
-0.6318818818818821 	299.987831992237 	0.03525241627784946 	101310.616018285
-0.6293793793793795 	299.988381515338 	0.03365938384423647 	101311.2655882975
-0.6268768768768773 	299.9889303252024 	0.0320725393590352 	101311.9143235163
-0.6243743743743745 	299.989479049381 	0.03048224506298601 	101312.5629453739
-0.6218718718718721 	299.9900299408266 	0.02888549247201203 	101313.2141378351
-0.6193693693693696 	299.990584786188 	0.02727699822854316 	101313.8700414203
-0.6168668668668671 	299.9911444681647 	0.02565566014067188 	101314.5316474151
-0.6143643643643645 	299.9917084795876 	0.02402240475339027 	101315.1983667661
-0.6118618618618621 	299.9922764613002 	0.02237800989057894 	101315.8697822645
-0.6093593593593596 	299.9928466514117 	0.02072712669769421 	101316.5438103888
-0.6068568568568571 	299.9934178359805 	0.01907236853633526 	101317.219015891
-0.6043543543543546 	299.9939886236123 	0.01741948709816113 	101317.8937536998
-0.6018518518518521 	299.9945572624391 	0.01577272323450947 	101318.5659529664
-0.5993493493493496 	299.9951229909885 	0.01413292987094113 	101319.2347160964
-0.5968468468468471 	299.9956871292661 	0.01249923857896053 	101319.9016050778
-0.5943443443443446 	299.9962502959348 	0.01086720840736968 	101320.5673502455
-0.591841841841842 	299.9968130927823 	0.009235955714335869 	101321.2326626203
-0.5893393393393397 	299.9973763423587 	0.007603942437040588 	101321.8985140043
-0.5868368368368371 	299.9979412828602 	0.005967019109194068 	101322.5663678549
-0.5843343343343346 	299.9985091468077 	0.00432203260769265 	101323.2376810972
-0.5818318318318321 	299.9990809329504 	0.002665896418297265 	101323.9136333546
-0.5793293293293297 	299.9996562356878 	0.0009993798445950873 	101324.5937445644
-0.5768268268268271 	300.0002340861471 	0.0009560882463976321 	101325.2768698769
-0.5743243243243245 	300.0008120269666 	0.002346814511544844 	101325.9601051044
-0.5718218218218221 	300.0013890141055 	0.004018175962969418 	101326.6422161483
-0.5693193193193196 	300.0019648700881 	0.005686342435385599 	101327.3229931193
-0.5668168168168171 	300.0025395924455 	0.007351247757778788 	101328.0024335337
-0.5643143143143147 	300.0031132197631 	0.0090129822327762 	101328.6805825445
-0.5618118118118121 	300.0036857858053 	0.01067163792060961 	101329.3574799499
-0.5593093093093094 	300.0042573043502 	0.01232725528795659 	101330.0331422769
-0.5568068068068072 	300.0048277665866 	0.01397980941244679 	101330.7075590728
-0.5543043043043046 	300.0053971423579 	0.0156292120076895 	101331.380694717
-0.551801801801802 	300.0059653833715 	0.01727532074481971 	101332.0524919815
-0.5492992992992995 	300.0065324263318 	0.01891795038779873 	101332.7228758674
-0.5467967967967969 	300.0070981958963 	0.02055688361670851 	101333.3917573962
-0.5442942942942947 	300.0076626079593 	0.02219188040141997 	101334.0590372294
-0.5417917917917919 	300.0082255723017 	0.02382268380228123 	101334.724608797
-0.5392892892892895 	300.0087869951896 	0.02544902398380211 	101335.3883608286
-0.536786786786787 	300.0093467803134 	0.02707062214059931 	101336.0501794671
-0.5342842842842846 	300.0099048299066 	0.02868719303669039 	101336.7099495245
-0.531781781781782 	300.0104610458124 	0.03029844775166906 	101337.3675546969
-0.5292792792792794 	300.0110153287338 	0.03190409637085264 	101338.0228775833
-0.526776776776777 	300.011567578991 	0.03350384960455491 	101338.6757999712
-0.5242742742742745 	300.0121176958986 	0.03509741962710237 	101339.3262030829
-0.521771771771772 	300.012665578699 	0.03668451935082706 	101339.973967802
-0.5192692692692695 	300.013211126724 	0.03826486121874949 	101340.618975378
-0.516766766766767 	300.0137542412298 	0.03983815806796064 	101341.2611083146
-0.5142642642642645 	300.0142948236595 	0.04140412232628598 	101341.9002503321
-0.511761761761762 	300.0148327760263 	0.04296246583328269 	101342.5362856149
-0.5092592592592596 	300.0153680004884 	0.04451290154113923 	101343.169098653
-0.506756756756757 	300.0159003998964 	0.04605514548704343 	101343.7985744735
-0.5042542542542544 	300.0164298775335 	0.04758891657344125 	101344.4245980991
-0.5017517517517521 	300.0169563356026 	0.04911393577643994 	101345.0470540123
-0.4992492492492494 	300.0174796763199 	0.05062992624299571 	101345.6658271029
-0.496746746746747 	300.0179998036056 	0.05213661389367247 	101346.2808038046
-0.4942442442442445 	300.0185166223741 	0.05363372484031188 	101346.8918714829
-0.4917417417417421 	300.0190300383939 	0.05512098379333817 	101347.4989178166
-0.4892392392392395 	300.0195399578075 	0.05659811676344476 	101348.1018320834
-0.486736736736737 	300.0200462883937 	0.05806485288518169 	101348.700505821
-0.4842342342342345 	300.0205489384755 	0.05952092233693872 	101349.2948308922
-0.481731731731732 	300.0210478164332 	0.06096605559822525 	101349.8846982486
-0.4792292292292296 	300.0215428311819 	0.06239998692976372 	101350.4699997202
-0.4767267267267268 	300.0220338928576 	0.06382245663355962 	101351.0506290486
-0.4742242242242246 	300.0225209110392 	0.06523320643052158 	101351.6264796442
-0.471721721721722 	300.0230037936015 	0.06663197723073729 	101352.1974435872
-0.4692192192192195 	300.0234824513681 	0.06801851414997573 	101352.7634147731
-0.4667167167167169 	300.0239567985661 	0.06939256831675183 	101353.324290581
-0.4642142142142145 	300.0244267489601 	0.07075389016787322 	101353.8799684637
-0.461711711711712 	300.0248922134033 	0.07210222692562401 	101354.4303441795
-0.4592092092092094 	300.0253531049482 	0.07343732977845684 	101354.9753159925
-0.456706706706707 	300.0258093416027 	0.07475895796260577 	101355.514786905
-0.4542042042042045 	300.0262608422588 	0.07606687016150908 	101356.0486596759
-0.451701701701702 	300.026707523418 	0.07736081979083187 	101356.5768338217
-0.4491991991991995 	300.0271493014507 	0.07864056586723055 	101357.0992112511
-0.4466966966966969 	300.0275860973523 	0.07990587962096102 	101357.6157002011
-0.4441941941941945 	300.0280178325688 	0.0811565328656435 	101358.1262088738
-0.441691691691692 	300.0284444256968 	0.08239228911063658 	101358.6306399734
-0.4391891891891895 	300.0288657975535 	0.08361291566459146 	101359.1288975242
-0.436686686686687 	300.0292818752586 	0.08481819675985988 	101359.620894337
-0.4341841841841846 	300.0296925855419 	0.08600792019089661 	101360.1065450572
-0.431681681681682 	300.0300978469485 	0.08718185948572957 	101360.5857561591
-0.4291791791791794 	300.0304975784654 	0.0883397872057666 	101361.0584326745
-0.426676676676677 	300.0308917117965 	0.08948149901184407 	101361.5244916316
-0.4241741741741744 	300.0312801849279 	0.09060680249984171 	101361.9838567714
-0.421671671671672 	300.0316629256889 	0.09171548673773613 	101362.4364413943
-0.4191691691691694 	300.0320398518712 	0.09280732767336276 	101362.8821508262
-0.4166666666666669 	300.0324108914187 	0.09388212614162075 	101363.3209032687
-0.4141641641641645 	300.032775986461 	0.09493971032236742 	101363.7526318178
-0.411661661661662 	300.033135075273 	0.09597989101191834 	101364.1772603611
-0.4091591591591594 	300.0334880817454 	0.09700244778451317 	101364.5946950675
-0.406656656656657 	300.0338349353399 	0.09800717841071346 	101365.0048506766
-0.4041541541541545 	300.0341755845984 	0.09899392937559763 	101365.4076680545
-0.401651651651652 	300.0345099753334 	0.09996254677552741 	101365.8030883712
-0.3991491491491494 	300.0348380317275 	0.1009128243888304 	101366.1910244139
-0.396646646646647 	300.0351596752081 	0.1018445455465088 	101366.5713818389
-0.3941441441441444 	300.0354748589968 	0.1027575581887002 	101366.9440999536
-0.3916416416416419 	300.0357835546164 	0.1036517515889313 	101367.3091407789
-0.3891391391391395 	300.0360857053823 	0.1045269595185645 	101367.6664373336
-0.3866366366366368 	300.0363812204315 	0.1053829519922556 	101368.0158874889
-0.3841341341341344 	300.0366700280474 	0.1062195458990313 	101368.3574121554
-0.381631631631632 	300.0369521044148 	0.1070366585751595 	101368.6909852403
-0.3791291291291294 	300.0372274292384 	0.1078341989754768 	101369.0165777711
-0.3766266266266269 	300.0374959320412 	0.1086119604304074 	101369.3340997728
-0.3741241241241244 	300.0377575232836 	0.1093697020853091 	101369.6434407691
-0.371621621621622 	300.0380121629759 	0.1101073101382627 	101369.9445553561
-0.3691191191191194 	300.038259854597 	0.1108247763400207 	101370.2374545533
-0.366616616616617 	300.0385005616827 	0.1115219987261967 	101370.5221022218
-0.3641141141141143 	300.0387341790213 	0.1121987124160515 	101370.7983761626
-0.3616116116116119 	300.0389606207669 	0.1128546887914781 	101371.0661695377
-0.3591091091091095 	300.0391798975243 	0.1134899146894298 	101371.3254863373
-0.356606606606607 	300.0393920534177 	0.1141044519607494 	101371.5763722781
-0.3541041041041044 	300.0395970383689 	0.1146981560033843 	101371.8187681632
-0.3516016016016019 	300.039794708915 	0.1152706878650585 	101372.0525119014
-0.3490990990990994 	300.0399849770986 	0.115821848770896 	101372.2775092582
-0.346596596596597 	300.0401678940921 	0.1163517521461832 	101372.4938263658
-0.3440940940940944 	300.0403435311466 	0.1168605334667678 	101372.7015450246
-0.3415915915915919 	300.0405118175917 	0.1173479836967244 	101372.9005725208
-0.3390890890890895 	300.0406725825028 	0.1178136675904926 	101373.0906962563
-0.3365865865865869 	300.0408257620772 	0.1182574196428288 	101373.2718356638
-0.3340840840840844 	300.0409714745284 	0.1186795124888948 	101373.4441339442
-0.3315815815815819 	300.0411098257705 	0.1190801891427003 	101373.6077255152
-0.3290790790790794 	300.0412406981893 	0.1194591695077895 	101373.7624822523
-0.3265765765765769 	300.0413638425695 	0.1198158676502753 	101373.9081154937
-0.3240740740740744 	300.0414791839879 	0.1201501039985567 	101374.0445344014
-0.3215715715715718 	300.0415869258757 	0.12046233746731 	101374.1719705987
-0.3190690690690695 	300.0416872729926 	0.1207530072213705 	101374.29065418
-0.3165665665665668 	300.0417801150326 	0.1210218076884013 	101374.4004458673
-0.3140640640640644 	300.0418651141868 	0.1212679270168096 	101374.5009459784
-0.311561561561562 	300.0419421256171 	0.1214910471517366 	101374.5919913966
-0.3090590590590593 	300.0420114035069 	0.1216918046869686 	101374.6738946484
-0.3065565565565568 	300.0420732780074 	0.1218709933066155 	101374.7470569241
-0.3040540540540545 	300.0421276843833 	0.1220284364742643 	101374.8114057674
-0.3015515515515518 	300.0421741708657 	0.1221630306370568 	101374.8664030024
-0.2990490490490494 	300.0422124395073 	0.1222740572034252 	101374.9116868685
-0.2965465465465469 	300.0422427632595 	0.1223621706491726 	101374.9475686237
-0.2940440440440444 	300.0422657049683 	0.1224287044981533 	101374.9747050598
-0.2915415415415418 	300.042281418486 	0.1224739906940005 	101374.9932745133
-0.2890390390390395 	300.042289386567 	0.1224967598703164 	101375.0026684768