/*--------------------------------*- C++ -*----------------------------------*\
| =========                 |                                                 |
| \\      /  F ield         | OpenFOAM: The Open Source CFD Toolbox           |
|  \\    /   O peration     | Version:  4.x                                   |
|   \\  /    A nd           | Web:      www.OpenFOAM.org                      |
|    \\/     M anipulation  |                                                 |
\*---------------------------------------------------------------------------*/
FoamFile
{
    version     2.0;
    format      ascii;
    class       volScalarField;
    location    "0.23";
    object      T;
}
// * * * * * * * * * * * * * * * * * * * * * * * * * * * * * * * * * * * * * //

dimensions      [0 0 0 1 0 0 0];

internalField   nonuniform List<scalar> 
6273
(
299.9997618
299.9997223
299.9996913
299.9996581
299.9996145
299.9995846
299.9997416
299.9997122
299.9996833
299.9996524
299.9996138
299.9995895
299.9997597
299.9997365
299.9997171
299.9996971
299.9996723
299.9996593
299.9997908
299.9997746
299.9997714
299.9997791
299.9997849
299.9997923
299.9998007
299.9997945
299.9998127
299.9998544
299.9998981
299.9999305
299.9997963
299.9997975
299.9998311
299.9998967
299.9999691
300.0000127
299.9994263
299.999349
299.9993091
299.999289
299.999258
299.9992493
299.9993888
299.9993358
299.9993183
299.9993159
299.9993005
299.999301
299.9994253
299.9993958
299.9994092
299.9994403
299.9994552
299.9994672
299.9994929
299.99949
299.9995435
299.9996272
299.9996911
299.9997283
299.9995358
299.9995572
299.999645
299.9997766
299.9998976
299.9999766
299.9995621
299.9995912
299.9996863
299.9998391
300.0000021
300.0001104
299.9992459
299.9991778
299.9991923
299.9992575
299.9993198
299.9993664
299.9991955
299.999166
299.9992204
299.9993209
299.9993977
299.9994366
299.9992344
299.9992461
299.9993474
299.9994914
299.9995868
299.9996104
299.9993296
299.9993747
299.999514
299.9996853
299.9997975
299.9998369
299.9994196
299.9994752
299.9996192
299.9997964
299.9999461
300.0000333
299.9994896
299.9995285
299.9996388
299.9998046
299.9999872
300.0001142
299.9991862
299.9991541
299.999234
299.9993811
299.9994782
299.9994913
299.9991431
299.9991553
299.9992797
299.9994498
299.9995414
299.9995381
299.9991875
299.9992395
299.9994076
299.999595
299.9996788
299.9996643
299.9992891
299.9993593
299.9995317
299.9997067
299.9998037
299.9998173
299.9993836
299.999437
299.9995661
299.9997148
299.9998458
299.9999165
299.9994407
299.9994527
299.9995227
299.99965
299.9998139
299.9999151
299.9992813
299.999305
299.9994204
299.9995522
299.9995868
299.9995341
299.9992653
299.9993159
299.9994587
299.9995955
299.9996194
299.9995596
299.9992981
299.9993698
299.9995333
299.9996679
299.9996889
299.9996389
299.9993567
299.9994224
299.9995604
299.9996747
299.999723
299.9997268
299.9993999
299.9994303
299.9995109
299.9996014
299.9996924
299.9997463
299.9994137
299.9993997
299.9994213
299.9995004
299.9996323
299.9997093
299.9995365
299.9995812
299.9996666
299.9997184
299.9996838
299.9995888
299.9995276
299.999574
299.9996723
299.9997324
299.9997019
299.999615
299.9995091
299.9995624
299.9996728
299.999743
299.9997308
299.9996783
299.9994898
299.9995363
299.9996303
299.9996973
299.9997215
299.9997314
299.9994813
299.9994993
299.9995405
299.9995955
299.999672
299.9997276
299.9994783
299.9994579
299.9994549
299.9995047
299.9996156
299.9996921
299.9997928
299.9997936
299.9998271
299.9998956
299.9999716
300.0000034
299.999788
299.9997814
299.9998066
299.9998649
299.9999234
299.999939
299.9997712
299.9997603
299.999787
299.9998372
299.9998633
299.9998572
299.9997459
299.9997501
299.9998017
299.9998583
299.999864
299.9998407
299.9997407
299.9997751
299.9998655
299.9999314
299.9999276
299.9998999
299.9997806
299.9998397
299.9999546
300.0000255
300.0000285
300.0000175
299.9998521
299.9999112
300.0000181
300.0000931
300.0001169
300.0001365
299.9998915
299.9999347
300.000022
300.0001048
300.0001524
300.0001944
299.9998902
299.9999166
299.9999863
300.0000734
300.0001392
300.0001873
299.9998778
299.999886
299.9999309
300.0000086
300.00008
300.0001204
299.9998609
299.9998432
299.9998563
299.9999178
299.9999922
300.0000357
299.9998301
299.999784
299.9997759
299.9998323
299.9999084
299.9999585
299.9995805
299.9995971
299.9996732
299.9998197
299.9999868
300.0000996
299.9995718
299.999571
299.9996254
299.9997463
299.9998811
299.9999903
299.9995219
299.9995206
299.9995855
299.9996917
299.9997632
299.9998374
299.9994639
299.9995032
299.9996199
299.999734
299.9997698
299.9998031
299.9994737
299.9995619
299.9997468
299.9998667
299.9998751
299.9998766
299.9995802
299.9996927
299.9998991
300.0000197
300.0000378
300.0000451
299.9997218
299.9998162
299.9999931
300.0001091
300.000159
300.0002118
299.999759
299.99982
299.9999607
300.0000912
300.0001892
300.0003005
299.9997283
299.9997573
299.9998628
300.0000017
300.0001434
300.0002749
299.9996738
299.9996675
299.9997276
299.9998515
300.0000121
300.000117
299.9996123
299.9995593
299.9995805
299.9996889
299.9998587
299.9999714
299.9995382
299.9994441
299.9994539
299.9995789
299.9997629
299.999897
299.9995224
299.9995297
299.999602
299.9997521
299.9999438
300.000092
299.9994914
299.9994799
299.9995326
299.9996636
299.9998316
300.0000031
299.9994024
299.9994064
299.9994884
299.9996272
299.999746
299.9998996
299.9993405
299.999399
299.9995479
299.9997006
299.9997806
299.9998821
299.9994035
299.9995063
299.999719
299.9998647
299.9998998
299.999937
299.9995748
299.9996851
299.9998969
300.0000143
300.000033
300.0000505
299.9997051
299.9997809
299.9999417
300.0000327
300.0000763
300.0001458
299.9997009
299.9997362
299.9998469
299.9999379
300.0000333
300.000175
299.9995962
299.9996013
299.9996725
299.9997733
299.9999301
300.0000978
299.9994779
299.9994487
299.9994902
299.9996051
299.9998138
299.9999904
299.9994015
299.9993332
299.9993614
299.9995035
299.9997514
299.999967
299.9993399
299.9992481
299.9992881
299.9994691
299.9997418
299.9999853
299.9994377
299.9994156
299.9994497
299.9995664
299.9997428
299.9998563
299.9993692
299.9993388
299.999386
299.9995204
299.9996832
299.9998221
299.9992743
299.9992918
299.9993981
299.9995655
299.9997033
299.9998468
299.9992743
299.9993471
299.99953
299.9997165
299.9998099
299.9999093
299.999416
299.9995235
299.9997452
299.999898
299.9999331
299.9999689
299.9996357
299.9997183
299.9998951
299.9999893
299.9999942
300.0000111
299.9997432
299.9997732
299.9998689
299.9999221
299.999955
300.0000297
299.9996675
299.9996562
299.999697
299.9997476
299.9998388
299.9999897
299.9995004
299.9994589
299.9994739
299.999547
299.9997125
299.9998862
299.9993794
299.9993125
299.9993194
299.9994243
299.9996388
299.9998364
299.9993279
299.999242
299.9992626
299.9994069
299.9996505
299.9999016
299.999309
299.9992317
299.9992832
299.9994642
299.9997152
299.9999812
299.999379
299.9993362
299.9993487
299.9994403
299.9995802
299.9996529
299.999291
299.9992629
299.9993148
299.9994455
299.9995817
299.9996769
299.9992182
299.9992456
299.9993654
299.9995376
299.9996617
299.9997877
299.9992624
299.9993362
299.9995275
299.9997138
299.9998025
299.9998954
299.9994597
299.9995409
299.9997231
299.9998586
299.9998978
299.999946
299.9996969
299.9997207
299.9998083
299.9998755
299.9998998
299.9999548
299.9997593
299.9997078
299.9997082
299.9997362
299.9997973
299.9999336
299.9996394
299.9995451
299.9995075
299.9995453
299.9996634
299.9998683
299.9994986
299.9993924
299.9993554
299.9994209
299.9995843
299.9997536
299.9994583
299.9993398
299.9993099
299.9993952
299.9995626
299.9997106
299.9994744
299.9993629
299.9993585
299.9994642
299.99962
299.9997807
299.9994955
299.9994288
299.9994699
299.9995785
299.9996989
299.999857
299.9994445
299.9994009
299.9993933
299.9994528
299.9995681
299.9996593
299.999367
299.9993419
299.9993794
299.9994694
299.9995788
299.9996981
299.9993141
299.9993409
299.9994453
299.9995733
299.9996725
299.9998217
299.9993729
299.9994366
299.9996016
299.9997431
299.9998196
299.9999412
299.9995703
299.9996255
299.9997603
299.9998646
299.9999108
300.0000011
299.9997673
299.9997486
299.9997852
299.9998371
299.999885
300.000008
299.9997791
299.9996773
299.9996304
299.9996543
299.9997442
299.9999769
299.9996476
299.9995023
299.9994249
299.9994658
299.9996087
299.9998908
299.9995767
299.9994277
299.999356
299.9994134
299.9995657
299.9997485
299.9996326
299.9994938
299.9994347
299.9994844
299.9995785
299.9996796
299.999704
299.9995958
299.9995651
299.9996013
299.999644
299.9997016
299.9997377
299.9996706
299.9996665
299.9996754
299.9996924
299.999734
299.9997852
299.9997197
299.999712
299.9997773
299.9998592
299.999907
299.9997385
299.9996763
299.999681
299.9997548
299.9998326
299.9998746
299.9997114
299.9996663
299.9996819
299.9997558
299.9998094
299.999829
299.9997132
299.9996776
299.9996945
299.9997472
299.9997595
299.9997473
299.999733
299.9996847
299.9996902
299.999722
299.9997304
299.9997257
299.9997376
299.9996854
299.9996875
299.9997152
299.9997384
299.9997599
299.9994459
299.9993348
299.9993529
299.9995009
299.9996966
299.999835
299.9993615
299.9992631
299.9993004
299.9994575
299.9996299
299.9997482
299.9992969
299.9992114
299.9992634
299.9994099
299.9995274
299.9996003
299.9992675
299.9991716
299.9992179
299.9993379
299.9994205
299.9994773
299.9992383
299.9991284
299.9991607
299.9992727
299.9993804
299.9994725
299.9992012
299.9991138
299.9991511
299.9992751
299.9994197
299.9995544
299.9992817
299.9991924
299.9992498
299.9994442
299.9997134
299.9999468
299.9992126
299.9991382
299.9992133
299.9994004
299.9996299
299.9998289
299.999151
299.9990721
299.999147
299.9993137
299.9994937
299.9996525
299.999079
299.998975
299.9990324
299.9991911
299.9993744
299.9995425
299.9989822
299.9988928
299.9989612
299.9991431
299.9993607
299.9995737
299.998931
299.9988908
299.9989818
299.9991876
299.9994339
299.999685
299.9993077
299.9992625
299.9993387
299.9995036
299.9997244
299.99996
299.9993133
299.99928
299.9993512
299.999473
299.9996443
299.9998398
299.9992963
299.9992456
299.9992856
299.9993869
299.9995489
299.9997197
299.9992116
299.9991404
299.999168
299.9993064
299.9995134
299.9996989
299.9991014
299.9990515
299.9991113
299.9993056
299.9995619
299.9997987
299.9990566
299.9990447
299.9991317
299.9993517
299.9996261
299.9999049
299.9995325
299.9995097
299.9995543
299.9996131
299.9996903
299.9998156
299.9995822
299.999557
299.999556
299.9995457
299.9995812
299.9996762
299.9995915
299.9995419
299.9994804
299.9994682
299.99953
299.9996269
299.9995271
299.9994601
299.9994024
299.9994459
299.9995724
299.9997132
299.9994365
299.9993807
299.9993733
299.9994813
299.9996584
299.9998584
299.9993865
299.9993497
299.9993751
299.9995122
299.9997147
299.9999571
299.9997702
299.9997297
299.9997039
299.9996672
299.999646
299.9996596
299.9998086
299.9997519
299.9996583
299.999558
299.9995025
299.9995059
299.9998146
299.9997229
299.9995734
299.9994786
299.9994451
299.99947
299.9997769
299.9996673
299.9995344
299.9994951
299.999519
299.9995966
299.9997286
299.999643
299.9995698
299.9995812
299.9996473
299.9997761
299.9997117
299.9996561
299.9996288
299.9996532
299.9997387
299.9998995
299.9995934
299.9996417
299.9997138
299.99979
299.9998755
299.9999758
300.0000323
299.999963
299.9998096
299.9997221
299.9997635
299.9998559
299.9996024
299.9996532
299.9997248
299.9998019
299.9998897
299.9999837
300.000021
299.9999387
299.9998006
299.999741
299.9997923
299.9998629
299.9996741
299.9997176
299.9997784
299.999844
299.9999182
299.9999954
300.0000248
299.9999616
299.9998622
299.9998262
299.9998622
299.9998957
299.9998083
299.9998352
299.9998705
299.9999061
299.9999508
300.0000133
300.0000556
300.0000352
299.99997
299.9999284
299.9999232
299.9999188
299.9999416
299.9999381
299.9999379
299.9999449
299.9999718
300.0000364
300.0001054
300.0001071
300.000031
299.999957
299.9999204
299.9998918
300.0000006
299.9999656
299.9999534
299.9999571
299.9999851
300.000065
300.0001634
300.0001573
300.0000366
299.999928
299.9998787
299.9998513
299.9992908
299.9993882
299.9994943
299.9995986
299.9997348
299.99991
299.9999854
299.9998339
299.9995978
299.9995352
299.9996915
299.9998225
299.9993408
299.999426
299.9995175
299.9996149
299.9997439
299.9999035
299.9999572
299.9998069
299.9996133
299.9995805
299.9997155
299.9997982
299.9994983
299.9995523
299.999608
299.9996743
299.9997742
299.9999109
299.9999661
299.9998555
299.9997167
299.9997013
299.9997833
299.9998107
299.9997524
299.9997657
299.9997643
299.9997674
299.9998183
299.9999407
300.0000223
299.9999716
299.9998534
299.9998043
299.9998118
299.9997989
299.9999937
299.999958
299.9998948
299.9998541
299.9998808
300.000006
300.0001274
300.0000992
299.9999454
299.9998319
299.9997845
299.999741
300.0001168
300.0000498
299.9999586
299.9999125
299.9999514
300.000113
300.0002881
300.0002359
299.9999961
299.9998261
299.9997507
299.9997024
299.9994051
299.9994419
299.9994676
299.9994967
299.9995981
299.9997782
299.9998615
299.9997417
299.9995888
299.9996017
299.9997653
299.9998382
299.9994535
299.9994666
299.9994719
299.9994956
299.9995962
299.9997649
299.99983
299.9997094
299.9995831
299.9996071
299.9997262
299.9997582
299.9995975
299.9995711
299.9995381
299.9995429
299.9996235
299.9997681
299.9998267
299.9997292
299.9996321
299.99965
299.9997122
299.9997124
299.9998247
299.99977
299.9996779
299.9996284
299.9996714
299.9997984
299.9998685
299.9997996
299.9997008
299.9996713
299.9996814
299.999674
300.0000304
299.999951
299.9998151
299.9997301
299.9997546
299.999884
299.9999823
299.9999294
299.9997812
299.9996817
299.9996518
299.9996466
300.0001186
300.0000335
299.9999036
299.9998424
299.9998891
300.000054
300.0001938
300.0001101
299.9998728
299.9997259
299.9996916
299.9996882
299.9994681
299.9994453
299.9994304
299.9994485
299.9995592
299.9997436
299.9998096
299.9996741
299.9995413
299.999569
299.9996943
299.9997411
299.9994977
299.999456
299.9994317
299.9994521
299.9995634
299.9997256
299.999752
299.9996037
299.9994838
299.9995079
299.9995965
299.9996235
299.9996039
299.9995366
299.9994949
299.9995047
299.9995922
299.9997117
299.9997085
299.9995771
299.9994781
299.9994846
299.9995339
299.9995533
299.999774
299.9996888
299.9996139
299.9995858
299.9996345
299.9997326
299.9997381
299.9996316
299.9995259
299.9994913
299.9994979
299.9995221
299.9998824
299.9997738
299.9996803
299.9996548
299.9997042
299.9998115
299.9998513
299.9997776
299.9996279
299.9995181
299.9994957
299.999521
299.9998772
299.999772
299.9997216
299.9997512
299.9998401
299.9999825
300.0000723
299.9999988
299.9997607
299.999596
299.9995648
299.9995797
299.9994639
299.999444
299.999464
299.9995291
299.9996836
299.9998587
299.9998449
299.9996176
299.9994514
299.9994867
299.9996226
299.9996847
299.9994887
299.999465
299.9994822
299.9995423
299.9996743
299.9997926
299.9997208
299.9994834
299.9993471
299.9993948
299.9995065
299.9995546
299.9995781
299.9995504
299.9995595
299.9995975
299.9996761
299.9997205
299.9996199
299.9994358
299.99935
299.9993886
299.9994587
299.9994926
299.9997021
299.9996652
299.9996533
299.9996633
299.9997018
299.99973
299.999652
299.999516
299.9994415
299.9994313
299.9994557
299.9994808
299.9997269
299.9996742
299.9996683
299.9997071
299.9997679
299.9998121
299.9997906
299.9997059
299.9995754
299.9994788
299.9994607
299.9994754
299.9996793
299.9996496
299.9997009
299.9998189
299.9999277
300.0000083
300.0000398
299.9999643
299.9997416
299.9995656
299.9995088
299.9994916
299.9995318
299.9995579
299.9996379
299.9997464
299.9999181
300.0000399
299.9999076
299.9995918
299.9994188
299.9994881
299.9996667
299.9997486
299.9995694
299.9995981
299.9996672
299.9997497
299.999867
299.9999099
299.9997271
299.9994338
299.9993157
299.9994236
299.9995913
299.9996531
299.9996642
299.9997031
299.9997514
299.9997816
299.9998126
299.999776
299.9995982
299.9993971
299.9993449
299.9994626
299.999594
299.9996284
299.999743
299.9997747
299.999802
299.9998059
299.9998086
299.9997685
299.9996308
299.9994922
299.9994702
299.9995403
299.9996161
299.9996269
299.9997375
299.9997567
299.9998034
299.9998457
299.9998682
299.999855
299.9997828
299.9996922
299.9996109
299.9995924
299.9996118
299.9996002
299.9997111
299.9997674
299.9998837
299.9999981
300.0000655
300.0000945
300.0000745
299.9999772
299.9998095
299.9996958
299.9996384
299.9995678
299.9999376
299.999972
300.0000117
300.0000016
299.9999716
299.9999818
299.9999994
299.9999661
299.9999366
299.9999318
299.9999012
299.9998498
299.9998981
299.9999328
299.9999688
299.9999643
299.9999415
299.9999586
299.9999843
299.9999585
299.9999427
299.9999595
299.9999508
299.9998988
299.9998456
299.9998805
299.9999092
299.9998945
299.9998805
299.9999203
299.9999515
299.9999212
299.9998954
299.9999134
299.9999244
299.9998917
299.99976
299.9998053
299.9998273
299.9998115
299.9998245
299.9998915
299.9999251
299.9998807
299.9998311
299.99983
299.9998486
299.9998384
299.9997511
299.9997991
299.999808
299.9997887
299.9998175
299.9999036
299.9999416
299.9998952
299.9998327
299.9998125
299.9998227
299.9998245
299.9998032
299.999842
299.9998289
299.999802
299.999841
299.9999373
299.9999797
299.9999415
299.9998856
299.9998559
299.9998436
299.9998361
299.9999229
299.9999982
300.0000041
299.9998883
299.9997544
299.9997856
299.9998501
299.9998495
299.9998703
299.9998859
299.9998114
299.9997004
299.9998341
299.9999017
299.9998915
299.9997898
299.999713
299.9997733
299.9998355
299.999826
299.9998544
299.9999032
299.9998767
299.9997634
299.9996898
299.9997782
299.9997783
299.9997004
299.9996727
299.9997645
299.999811
299.9997573
299.9997389
299.9997949
299.9998194
299.9997485
299.9995681
299.9996774
299.9996854
299.9996217
299.9996378
299.9997535
299.9997876
299.9996967
299.9996355
299.9996637
299.9997044
299.9996737
299.9995955
299.9997012
299.9996841
299.999615
299.9996515
299.9997865
299.9998242
299.999728
299.9996462
299.9996408
299.99967
299.9996592
299.9996969
299.9997716
299.9997194
299.9996455
299.9997004
299.9998553
299.9999184
299.999839
299.9997391
299.999695
299.999691
299.9996813
300.0001145
300.0001802
300.0000924
299.9998165
299.999624
299.9996736
299.9997954
299.9998954
300.0000147
300.0000397
299.9999338
299.9998179
299.999967
299.9999909
299.9998782
299.9996494
299.9995693
299.9996601
299.9997676
299.9998379
299.9999621
300.0000203
299.9999528
299.9998141
299.9997852
299.9998239
299.9997369
299.9995813
299.9995695
299.999691
299.9997543
299.9997559
299.9998234
299.9998986
299.9998861
299.9997627
299.9996938
299.9997597
299.9996888
299.9995733
299.9995986
299.9997138
299.9997287
299.9996669
299.999676
299.9997508
299.9997728
299.9996861
299.9997655
299.9998376
299.999749
299.9996219
299.9996432
299.9997445
299.9997464
299.999665
299.9996468
299.9997042
299.9997304
299.9996594
299.9998992
299.9999472
299.9998213
299.9996736
299.9996927
299.9998043
299.9998353
299.9997622
299.9997166
299.9997299
299.9997364
299.9996691
300.0001534
300.0002052
300.0000734
299.9997662
299.9996474
299.9997702
299.9999498
300.0001251
300.000283
300.000292
300.0001197
299.9999456
299.99997
299.9999493
299.9997749
299.9995653
299.9995708
299.9997427
299.9999071
300.0000449
300.0002021
300.0002315
300.0000804
299.9998777
299.9998318
299.9998098
299.9996602
299.9995285
299.9996052
299.9998027
299.9999061
299.9999745
300.0000845
300.0001102
299.9999791
299.9997682
299.9998245
299.9998189
299.9996973
299.9996255
299.9997293
299.999874
299.9998956
299.999879
299.9999307
299.9999485
299.9998529
299.999662
299.9999731
299.999976
299.9998396
299.9997398
299.9998065
299.9999091
299.9998984
299.9998489
299.9998664
299.9998733
299.9997875
299.999607
300.0001076
300.0000967
299.9999199
299.9997896
299.999838
299.9999405
299.999945
299.9998871
299.9998724
299.9998618
299.9997733
299.9995987
299.9999312
299.9999454
299.9998266
299.9996382
299.9996675
299.9998649
300.0000441
300.0001986
300.0003342
300.0003288
300.0001392
299.9999261
299.9997523
299.9997175
299.9995681
299.9994864
299.9996117
299.9998586
300.0000219
300.0001466
300.0002713
300.0002671
300.0000637
299.9997956
299.9996924
299.9996465
299.9995077
299.9994919
299.9996961
299.9999555
300.0000669
300.0001217
300.0001919
300.0001598
299.9999411
299.9996449
299.9998041
299.9997676
299.9996491
299.9996711
299.9998728
300.0000544
300.0000888
300.0000676
300.0000697
300.0000103
299.999809
299.9995258
299.9999999
299.9999704
299.9998341
299.9998211
299.999964
300.0000876
300.000085
300.0000329
300.0000096
299.9999343
299.9997442
299.9994772
300.0001217
300.0000785
299.9999132
299.9998748
299.999986
300.0000819
300.0000751
300.0000245
299.9999979
299.9999173
299.9997311
299.9994741
299.9996761
299.9996663
299.9996038
299.9995767
299.999716
299.9999435
300.0000668
300.0001307
300.0002006
300.0001746
300.0000094
299.9998385
299.9995343
299.9995002
299.9994103
299.9994403
299.9996605
299.9999299
300.0000515
300.0001186
300.0001782
300.0001315
299.999935
299.99971
299.9995109
299.9994688
299.9993762
299.9994486
299.9997424
300.0000196
300.0001128
300.0001307
300.0001409
300.0000578
299.9998369
299.9995678
299.9996559
299.9995997
299.9995136
299.999614
299.9998962
300.000107
300.0001529
300.0001196
300.000081
299.9999683
299.9997382
299.9994667
299.9998539
299.9997938
299.9997055
299.9997837
299.999996
300.0001454
300.000168
300.0001151
300.000053
299.9999221
299.9996862
299.9994273
299.9999805
299.9999087
299.9998126
299.9998677
300.0000337
300.0001434
300.0001648
300.0001219
300.0000535
299.9999093
299.9996689
299.9994252
299.9998933
299.999881
299.9998719
299.9998748
299.9998494
299.9998016
299.9998778
299.9998566
299.999837
299.9998141
299.9997622
299.9997061
299.9998863
299.9998436
299.9997887
299.9997308
299.9996698
299.9996282
299.9998857
299.9998263
299.9997525
299.9996841
299.9996292
299.9995949
299.9998543
299.9998131
299.9997621
299.9996954
299.9996313
299.9995858
299.9998356
299.999829
299.9998094
299.9997385
299.9996553
299.9996016
299.9998206
299.9997398
299.9996707
299.9995955
299.9994597
299.9993567
299.9997587
299.9996581
299.9995566
299.9994475
299.9993063
299.9992267
299.9997382
299.9996097
299.999465
299.9993271
299.9992018
299.9991501
299.9997209
299.9995924
299.9994479
299.9993049
299.9991801
299.9991273
299.9996904
299.9996128
299.9995055
299.9993609
299.9992164
299.9991507
299.9996896
299.9996757
299.9996165
299.9994667
299.9993069
299.9992402
299.999776
299.9996673
299.9995611
299.9994295
299.9993002
299.9992416
299.9996808
299.9995707
299.9994496
299.9993061
299.9991982
299.9991801
299.9996456
299.9995397
299.9993975
299.9992344
299.9991414
299.9991398
299.999635
299.999541
299.9994036
299.9992345
299.9991301
299.9991122
299.9996417
299.9995849
299.999476
299.9993109
299.9991836
299.9991478
299.9996937
299.999684
299.9996063
299.9994435
299.9993074
299.999269
299.9997099
299.9996586
299.9996051
299.9995415
299.9994876
299.999473
299.9995988
299.9995632
299.9995179
299.9994638
299.9994311
299.9994421
299.9995476
299.9995182
299.9994552
299.9993792
299.9993385
299.9993447
299.9995271
299.999498
299.9994347
299.9993291
299.9992618
299.9992529
299.9995376
299.999526
299.9994823
299.9993709
299.9992837
299.9992666
299.9995919
299.9996073
299.999586
299.9994841
299.9993962
299.9993801
299.9996829
299.9996523
299.9996349
299.9996465
299.9996871
299.9997113
299.9995546
299.9995383
299.9995439
299.9995764
299.9996129
299.999627
299.9994941
299.9994665
299.9994534
299.9994619
299.9994718
299.9994722
299.999474
299.9994352
299.9994129
299.9994004
299.9993955
299.9993991
299.9994686
299.9994504
299.999457
299.9994571
299.9994621
299.999478
299.9994802
299.9995038
299.9995642
299.9996107
299.9996399
299.9996523
299.9997178
299.9996262
299.9995831
299.9996361
299.999729
299.9997835
299.9996036
299.9995228
299.9995031
299.9995714
299.999651
299.9996814
299.9995563
299.9994572
299.9994256
299.9994699
299.9995198
299.9995448
299.9995342
299.999433
299.9994083
299.9994504
299.9995045
299.999554
299.9995073
299.999445
299.9994636
299.9995486
299.9996442
299.9997243
299.999492
299.9994886
299.9995934
299.9997496
299.9998707
299.9999261
299.999802
299.9998476
299.9998591
299.999787
299.9997
299.9996547
299.9998141
299.9998946
299.9999117
299.9998278
299.9997435
299.9997082
299.9998894
299.9999473
299.9999282
299.9998322
299.9997647
299.999741
299.999936
299.9999457
299.9998999
299.9998247
299.9997933
299.9997888
299.9999445
299.9999327
299.9998987
299.9998634
299.9998686
299.999884
299.9999761
299.9999839
299.9999632
299.9999312
299.9999399
299.9999545
299.9999389
299.9999731
299.9999695
299.9999286
299.9999318
299.9999423
299.999886
299.999933
299.9999424
299.9998751
299.9998608
299.9998698
299.9999063
299.9999558
299.999961
299.9998529
299.9998093
299.9998126
299.9999189
299.9999714
299.9999716
299.9998564
299.9997908
299.9997793
299.9998808
299.9999253
299.9999255
299.9998371
299.9997643
299.9997327
299.9998418
299.9998758
299.9998683
299.9997869
299.9997133
299.9996744
299.9996887
299.9997496
299.9997337
299.9995733
299.9994192
299.9993708
299.9997633
299.9998608
299.9998256
299.9996278
299.9994817
299.9994478
299.999912
299.9999408
299.9998313
299.9996334
299.999529
299.9995231
299.9999732
299.9999187
299.999792
299.9996627
299.9996217
299.9996593
299.9999629
299.9998756
299.9997976
299.9997591
299.9997805
299.9998497
300.0000263
299.9999521
299.9998891
299.9998638
299.9998857
299.9999458
300.000036
299.9999881
299.9999102
299.9998474
299.9998423
299.9998898
299.9999786
299.9999403
299.9998602
299.9997441
299.9997152
299.9997581
299.9999891
299.9999691
299.9998912
299.9997172
299.9996573
299.9996805
299.9999721
299.9999861
299.9999264
299.9997375
299.9996489
299.9996338
299.9998317
299.9998641
299.9998301
299.9996873
299.9995893
299.999548
299.9996924
299.9997069
299.9996722
299.9995542
299.9994678
299.9994412
299.9997672
299.9997875
299.999718
299.9995443
299.9994234
299.9994042
299.9998628
299.9998643
299.9997382
299.9995546
299.9994658
299.9994822
299.9999601
299.9998723
299.9996978
299.9995676
299.9995462
299.9996211
299.9999691
299.999839
299.9997038
299.999657
299.9997222
299.9998411
299.9999159
299.9998071
299.9997576
299.9997809
299.9998807
299.9999896
299.9999124
299.999833
299.9998058
299.9998241
299.9998862
299.9999611
299.9999713
299.9998823
299.9998252
299.9997931
299.9997956
299.9998404
300.0000514
299.9999515
299.9998545
299.9997639
299.9997335
299.9997591
300.0001613
300.0000853
299.9999656
299.9998249
299.9997641
299.9997576
300.0001829
300.0001542
300.0000337
299.9998698
299.9997783
299.9997391
300.000051
300.0000353
299.9999118
299.9997662
299.9996739
299.9996273
299.9998609
299.9997977
299.9996725
299.9995605
299.9995017
299.9995001
299.999659
299.9996731
299.9996542
299.9995737
299.9995146
299.9995075
299.9997034
299.9996726
299.9996279
299.9995795
299.999571
299.9995993
299.999731
299.9996351
299.9995855
299.9996
299.9996747
299.9997598
299.9997588
299.9996512
299.9996245
299.9997039
299.9998462
299.9999528
299.9997628
299.9996912
299.9996924
299.9997977
299.9999237
299.9999991
299.9997908
299.9997273
299.9997266
299.9997894
299.9998455
299.9998583
299.9999166
299.9998266
299.999796
299.9997847
299.9997652
299.9997307
300.0001049
299.9999901
299.9999227
299.9998472
299.9997748
299.9997175
300.0002694
300.0001843
300.0000812
299.9999388
299.9998202
299.9997435
300.0003097
300.00026
300.0001213
299.9999386
299.9997902
299.9997064
300.0002036
300.0001385
299.9999517
299.9997704
299.9996441
299.9995978
299.9999987
299.999873
299.9996797
299.9995476
299.999507
299.99953
299.9995016
299.9995456
299.9996451
299.9997413
299.9997817
299.999771
299.9995103
299.9995263
299.999628
299.9997707
299.9998363
299.9998366
299.9995249
299.999494
299.9995891
299.999791
299.9999037
299.9999359
299.9995842
299.9995273
299.9996087
299.9998322
299.9999646
300.0000003
299.9996384
299.9995735
299.9996316
299.9998215
299.9999125
299.999903
299.9997306
299.9996511
299.9996745
299.9997701
299.9997799
299.9997045
299.9999351
299.9998276
299.9998078
299.9998107
299.9997308
299.9996219
300.0001565
300.00004
299.9999808
299.9998987
299.9997601
299.9996532
300.0002972
300.0002171
300.0001124
299.9999487
299.9997756
299.9996804
300.0003251
300.0002705
300.0001157
299.9998922
299.9997155
299.9996437
300.0002201
300.0001312
299.999911
299.9996936
299.9995843
299.9995699
299.9999929
299.9998321
299.9996194
299.9995029
299.9994975
299.999544
299.9994996
299.9995357
299.9996869
299.9998765
299.9999692
299.9999749
299.9995037
299.9995179
299.9996848
299.9998884
299.9999725
299.9999686
299.9995341
299.9995105
299.9996729
299.9999015
300.0000004
300.0000135
299.9996398
299.999568
299.9996893
299.9999029
299.9999987
300.000013
299.9997482
299.9996341
299.9996906
299.9998417
299.9999006
299.9998865
299.9998861
299.9997532
299.9997536
299.9998124
299.9998023
299.9997515
300.0000419
299.9999164
299.9998941
299.9998873
299.9998138
299.9997601
300.000146
300.0000486
300.0000002
299.9999327
299.9998384
299.9998044
300.0002334
300.0001724
300.0000714
299.9999287
299.9998175
299.9997916
300.0002426
300.0001948
300.0000369
299.9998363
299.9997251
299.999703
300.0001298
300.0000434
299.9998335
299.9996548
299.9995861
299.9995916
299.9999112
299.9997709
299.9995884
299.9995051
299.9995117
299.9995494
299.9998385
299.9998446
299.9998035
299.9997193
299.9996547
299.9996389
299.9998553
299.9998114
299.9997275
299.999656
299.9996286
299.9996468
299.9998348
299.9997555
299.9996772
299.9996369
299.9996458
299.9996827
299.9997992
299.9997325
299.9996796
299.9996643
299.9996837
299.9997188
299.9997993
299.9997555
299.9997211
299.9997076
299.9997203
299.9997556
299.9998173
299.9997868
299.9997562
299.9997401
299.9997563
299.9997992
299.9996412
299.9995946
299.999514
299.9994149
299.9993696
299.9993904
299.9996384
299.9995201
299.9994001
299.9993352
299.9993465
299.9994145
299.9996023
299.9994564
299.9993546
299.9993323
299.9993949
299.9994791
299.9995694
299.9994492
299.9993861
299.9993932
299.9994567
299.9995329
299.9995899
299.999506
299.9994584
299.9994559
299.9995041
299.9995733
299.9996314
299.9995599
299.9995092
299.9995015
299.9995485
299.999609
299.9997263
299.9995854
299.9994585