/*--------------------------------*- C++ -*----------------------------------*\
  =========                 |
  \\      /  F ield         | OpenFOAM: The Open Source CFD Toolbox
   \\    /   O peration     | Website:  https://openfoam.org
    \\  /    A nd           | Version:  7
     \\/     M anipulation  |
\*---------------------------------------------------------------------------*/
FoamFile
{
    version     2.0;
    format      ascii;
    class       volScalarField;
    location    "0.00279";
    object      mag(U);
}
// * * * * * * * * * * * * * * * * * * * * * * * * * * * * * * * * * * * * * //

dimensions      [0 1 -1 0 0 0 0];

internalField   nonuniform List<scalar> 
5000
(
23.100094
23.100093
23.100093
23.100092
23.100092
23.100092
23.100092
23.100091
23.100091
23.100091
23.10009
23.10009
23.10009
23.100089
23.100089
23.100089
23.100088
23.100088
23.100088
23.100088
23.100087
23.100087
23.100087
23.100087
23.100086
23.100086
23.100086
23.100085
23.100085
23.100085
23.100084
23.100084
23.100084
23.100083
23.100083
23.100083
23.100083
23.100082
23.100082
23.100082
23.100081
23.100081
23.100081
23.100081
23.10008
23.10008
23.10008
23.100079
23.100079
23.100079
23.100078
23.100078
23.100078
23.100078
23.100077
23.100077
23.100077
23.100076
23.100076
23.100076
23.100076
23.100075
23.100075
23.100075
23.100074
23.100074
23.100074
23.100074
23.100073
23.100073
23.100073
23.100073
23.100072
23.100072
23.100072
23.100071
23.100071
23.100071
23.100071
23.10007
23.10007
23.10007
23.100069
23.100069
23.100069
23.100069
23.100068
23.100068
23.100068
23.100067
23.100067
23.100067
23.100067
23.100066
23.100066
23.100066
23.100066
23.100065
23.100065
23.100065
23.100064
23.100064
23.100064
23.100064
23.100063
23.100063
23.100063
23.100063
23.100062
23.100062
23.100062
23.100061
23.100061
23.100061
23.100061
23.10006
23.10006
23.10006
23.10006
23.100059
23.100059
23.100059
23.100059
23.100061
23.10006
23.100058
23.100057
23.100057
23.100057
23.100057
23.100056
23.100056
23.100056
23.100055
23.100055
23.100055
23.100055
23.100054
23.100054
23.100054
23.100054
23.100053
23.100053
23.100053
23.100053
23.100052
23.100052
23.100052
23.100052
23.100051
23.100051
23.100051
23.100051
23.10005
23.10005
23.10005
23.10005
23.100049
23.100049
23.100049
23.100048
23.100048
23.100048
23.100048
23.100047
23.100047
23.100047
23.100047
23.100046
23.100046
23.100046
23.100046
23.100045
23.100045
23.100045
23.100045
23.100044
23.100044
23.100044
23.100044
23.100043
23.100043
23.100043
23.100043
23.100042
23.100042
23.100042
23.100042
23.100041
23.100041
23.100041
23.100041
23.10004
23.10004
23.10004
23.10004
23.100039
23.100039
23.100039
23.100039
23.100038
23.100038
23.100038
23.100038
23.100037
23.100037
23.100037
23.100037
23.100036
23.100036
23.100036
23.100036
23.100035
23.100035
23.100035
23.100035
23.100034
23.100034
23.100034
23.100034
23.100034
23.100033
23.100033
23.100033
23.100033
23.100032
23.100032
23.100032
23.100032
23.100031
23.100031
23.100031
23.100031
23.10003
23.10003
23.10003
23.10003
23.100029
23.100029
23.100029
23.100029
23.100028
23.100028
23.100028
23.100028
23.100028
23.100027
23.100027
23.100027
23.100027
23.100026
23.100026
23.100026
23.100026
23.100025
23.100025
23.100025
23.100025
23.100025
23.100024
23.100024
23.100024
23.100024
23.100023
23.100023
23.100023
23.100023
23.100022
23.100022
23.100022
23.100022
23.100022
23.100021
23.100021
23.100021
23.100021
23.10002
23.10002
23.10002
23.10002
23.10002
23.100019
23.100019
23.100019
23.100019
23.100018
23.100018
23.100018
23.100018
23.100018
23.100017
23.100017
23.100017
23.100017
23.100016
23.100016
23.100016
23.100016
23.100016
23.100015
23.100015
23.100015
23.100015
23.100014
23.100014
23.100014
23.100014
23.100014
23.100013
23.100013
23.100013
23.100013
23.100012
23.100012
23.100012
23.100012
23.100012
23.100011
23.100011
23.100011
23.100011
23.100011
23.10001
23.10001
23.10001
23.10001
23.10001
23.100009
23.100009
23.100009
23.100009
23.100008
23.100008
23.100008
23.100008
23.100008
23.100007
23.100007
23.100007
23.100007
23.100007
23.100006
23.100006
23.100006
23.100006
23.100005
23.100005
23.100005
23.100005
23.100005
23.100004
23.100004
23.100004
23.100004
23.100004
23.100003
23.100003
23.100003
23.100003
23.100002
23.100002
23.100002
23.100002
23.100002
23.100001
23.100001
23.100001
23.100001
23.100001
23.1
23.1
23.1
23.1
23.099999
23.099999
23.099999
23.099999
23.099999
23.099998
23.099998
23.099998
23.099998
23.099998
23.099997
23.099997
23.099997
23.099997
23.099996
23.099996
23.099996
23.099996
23.099996
23.099995
23.099995
23.099995
23.099995
23.099995
23.099994
23.099994
23.099994
23.099994
23.099993
23.099993
23.099993
23.099993
23.099993
23.099992
23.099992
23.099992
23.099992
23.099991
23.099991
23.099991
23.099991
23.099991
23.09999
23.09999
23.09999
23.09999
23.09999
23.099989
23.099989
23.099989
23.099989
23.099988
23.099988
23.099988
23.099988
23.099988
23.099987
23.099987
23.099987
23.099987
23.099986
23.099986
23.099986
23.099986
23.099985
23.099985
23.099985
23.099985
23.099985
23.099984
23.099984
23.099984
23.099984
23.099984
23.099983
23.099983
23.099983
23.099983
23.099982
23.099982
23.099982
23.099982
23.099981
23.099981
23.099981
23.099981
23.099981
23.09998
23.09998
23.09998
23.09998
23.099979
23.099979
23.099979
23.099979
23.099979
23.099978
23.099978
23.099978
23.099978
23.099978
23.099977
23.099977
23.099977
23.099977
23.099976
23.099976
23.099976
23.099976
23.099976
23.099975
23.099975
23.099975
23.099975
23.099974
23.099974
23.099974
23.099974
23.099974
23.099973
23.099973
23.099973
23.099973
23.099973
23.099972
23.099972
23.099972
23.099972
23.099971
23.099971
23.099971
23.099971
23.099971
23.09997
23.09997
23.09997
23.09997
23.09997
23.099969
23.099969
23.099969
23.099969
23.099969
23.099968
23.099968
23.099968
23.099968
23.099968
23.099967
23.099967
23.099967
23.099967
23.099967
23.099966
23.099966
23.099966
23.099966
23.099965
23.099965
23.099965
23.099965
23.099965
23.099965
23.099964
23.099964
23.099964
23.099964
23.099964
23.099963
23.099963
23.099963
23.099963
23.099963
23.099962
23.099962
23.099962
23.099962
23.099962
23.099961
23.099961
23.099961
23.099961
23.099961
23.09996
23.09996
23.09996
23.09996
23.09996
23.09996
23.099959
23.099959
23.099959
23.099959
23.099959
23.099958
23.099958
23.099958
23.099958
23.099958
23.099958
23.099957
23.099957
23.099957
23.099957
23.099957
23.099956
23.099956
23.099956
23.099956
23.099956
23.099956
23.099955
23.099955
23.099955
23.099955
23.099955
23.099955
23.099954
23.099954
23.099954
23.099954
23.099954
23.099953
23.099953
23.099953
23.099953
23.099953
23.099953
23.099952
23.099952
23.099952
23.099952
23.099952
23.099952
23.099951
23.099951
23.099951
23.099951
23.099951
23.099951
23.09995
23.09995
23.09995
23.09995
23.09995
23.09995
23.099949
23.099949
23.099949
23.099949
23.099949
23.099949
23.099948
23.099948
23.099948
23.099948
23.099948
23.099948
23.099947
23.099947
23.099947
23.099947
23.099947
23.099947
23.099947
23.099946
23.099946
23.099946
23.099946
23.099946
23.099946
23.099945
23.099945
23.099945
23.099945
23.099945
23.099945
23.099944
23.099944
23.099944
23.099944
23.099944
23.099944
23.099943
23.099943
23.099943
23.099943
23.099943
23.099943
23.099942
23.099942
23.099942
23.099942
23.099942
23.099942
23.099941
23.099941
23.099941
23.099941
23.099941
23.099941
23.09994
23.09994
23.09994
23.09994
23.09994
23.09994
23.099939
23.099939
23.099939
23.099939
23.099939
23.099939
23.099939
23.099938
23.099938
23.099938
23.099938
23.099938
23.099938
23.099937
23.099937
23.099937
23.099937
23.099937
23.099937
23.099937
23.099936
23.099936
23.099936
23.099936
23.099936
23.099936
23.099935
23.099935
23.099935
23.099935
23.099935
23.099935
23.099935
23.099934
23.099934
23.099934
23.099934
23.099934
23.099934
23.099933
23.099933
23.099933
23.099933
23.099933
23.099933
23.099932
23.099932
23.099932
23.099932
23.099932
23.099932
23.099932
23.099931
23.099931
23.099931
23.099931
23.099931
23.099931
23.09993
23.09993
23.09993
23.09993
23.09993
23.09993
23.09993
23.099929
23.099929
23.099929
23.099929
23.099929
23.099929
23.099929
23.099928
23.099928
23.099928
23.099928
23.099928
23.099928
23.099928
23.099927
23.099927
23.099927
23.099927
23.099927
23.099927
23.099926
23.099926
23.099926
23.099926
23.099926
23.099926
23.099926
23.099925
23.099925
23.099925
23.099925
23.099925
23.099925
23.099924
23.099924
23.099924
23.099924
23.099924
23.099924
23.099924
23.099923
23.099923
23.099923
23.099923
23.099923
23.099923
23.099922
23.099922
23.099922
23.099922
23.099922
23.099922
23.099922
23.099921
23.099921
23.099921
23.099921
23.099921
23.099921
23.099921
23.09992
23.09992
23.09992
23.09992
23.09992
23.09992
23.09992
23.099919
23.099919
23.099919
23.099919
23.099919
23.099919
23.099919
23.099918
23.099918
23.099918
23.099918
23.099918
23.099918
23.099918
23.099917
23.099917
23.099917
23.099917
23.099917
23.099917
23.099917
23.099916
23.099916
23.099916
23.099916
23.099916
23.099916
23.099916
23.099915
23.099915
23.099915
23.099915
23.099915
23.099915
23.099915
23.099914
23.099914
23.099914
23.099914
23.099914
23.099914
23.099914
23.099914
23.099913
23.099913
23.099913
23.099913
23.099913
23.099913
23.099913
23.099912
23.099912
23.099912
23.099912
23.099912
23.099912
23.099912
23.099911
23.099911
23.099911
23.099911
23.099911
23.099911
23.099911
23.099911
23.09991
23.09991
23.09991
23.09991
23.09991
23.09991
23.09991
23.099909
23.099909
23.099909
23.099909
23.099909
23.099909
23.099909
23.099909
23.099908
23.099908
23.099908
23.099908
23.099908
23.099908
23.099908
23.099907
23.099907
23.099907
23.099907
23.099907
23.099907
23.099907
23.099907
23.099906
23.099906
23.099906
23.099906
23.099906
23.099906
23.099906
23.099906
23.099905
23.099905
23.099905
23.099905
23.099905
23.099905
23.099905
23.099905
23.099904
23.099904
23.099904
23.099904
23.099904
23.099904
23.099904
23.099904
23.099903
23.099903
23.099903
23.099903
23.099903
23.099903
23.099903
23.099903
23.099902
23.099902
23.099902
23.099902
23.099902
23.099902
23.099902
23.099901
23.099901
23.099901
23.099901
23.099901
23.099901
23.099901
23.099901
23.0999
23.0999
23.0999
23.0999
23.0999
23.0999
23.0999
23.0999
23.099899
23.099899
23.099899
23.099899
23.099899
23.099899
23.099899
23.099899
23.099898
23.099898
23.099898
23.099898
23.099898
23.099898
23.099898
23.099898
23.099897
23.099897
23.099897
23.099897
23.099897
23.099897
23.099897
23.099897
23.099897
23.099896
23.099896
23.099896
23.099896
23.099896
23.099896
23.099896
23.099896
23.099895
23.099895
23.099895
23.099895
23.099895
23.099895
23.099895
23.099895
23.099894
23.099894
23.099894
23.099894
23.099894
23.099894
23.099894
23.099894
23.099894
23.099893
23.099893
23.099893
23.099893
23.099893
23.099893
23.099893
23.099893
23.099892
23.099892
23.099892
23.099892
23.099892
23.099892
23.099892
23.099892
23.099892
23.099891
23.099891
23.099891
23.099891
23.099891
23.099891
23.099891
23.099891
23.099891
23.09989
23.09989
23.09989
23.09989
23.09989
23.09989
23.09989
23.09989
23.09989
23.099889
23.099889
23.099889
23.099889
23.099889
23.099889
23.099889
23.099889
23.099889
23.099889
23.099888
23.099888
23.099888
23.099888
23.099888
23.099888
23.099888
23.099888
23.099888
23.099888
23.099887
23.099887
23.099887
23.099887
23.099887
23.099887
23.099887
23.099887
23.099887
23.099887
23.099886
23.099886
23.099886
23.099886
23.099886
23.099886
23.099886
23.099886
23.099886
23.099886
23.099886
23.099885
23.099885
23.099885
23.099885
23.099885
23.099885
23.099885
23.099885
23.099885
23.099885
23.099884
23.099884
23.099884
23.099884
23.099884
23.099884
23.099884
23.099884
23.099884
23.099884
23.099884
23.099884
23.099883
23.099883
23.099883
23.099883
23.099883
23.099883
23.099883
23.099883
23.099883
23.099883
23.099883
23.099882
23.099882
23.099882
23.099882
23.099882
23.099882
23.099882
23.099882
23.099882
23.099882
23.099882
23.099882
23.099881
23.099881
23.099881
23.099881
23.099881
23.099881
23.099881
23.099881
23.099881
23.099881
23.099881
23.09988
23.09988
23.09988
23.09988
23.09988
23.09988
23.09988
23.09988
23.09988
23.09988
23.09988
23.09988
23.099879
23.099879
23.099879
23.099879
23.099879
23.099879
23.099879
23.099879
23.099879
23.099879
23.099879
23.099879
23.099878
23.099878
23.099878
23.099878
23.099878
23.099878
23.099878
23.099878
23.099878
23.099878
23.099878
23.099877
23.099877
23.099877
23.099877
23.099877
23.099877
23.099877
23.099877
23.099877
23.099877
23.099877
23.099876
23.099876
23.099876
23.099876
23.099876
23.099876
23.099876
23.099876
23.099876
23.099876
23.099876
23.099875
23.099875
23.099875
23.099875
23.099875
23.099875
23.099875
23.099875
23.099875
23.099875
23.099875
23.099874
23.099874
23.099874
23.099874
23.099874
23.099874
23.099874
23.099874
23.099874
23.099874
23.099873
23.099873
23.099873
23.099873
23.099873
23.099873
23.099873
23.099873
23.099873
23.099873
23.099872
23.099872
23.099872
23.099872
23.099872
23.099872
23.099872
23.099872
23.099872
23.099872
23.099872
23.099871
23.099871
23.099871
23.099871
23.099871
23.099871
23.099871
23.099871
23.099871
23.099871
23.09987
23.09987
23.09987
23.09987
23.09987
23.09987
23.09987
23.09987
23.09987
23.09987
23.099869
23.099869
23.099869
23.099869
23.099869
23.099869
23.099869
23.099869
23.099869
23.099869
23.099868
23.099868
23.099868
23.099868
23.099868
23.099868
23.099868
23.099868
23.099868
23.099868
23.099868
23.099867
23.099867
23.099867
23.099867
23.099867
23.099867
23.099867
23.099867
23.099867
23.099867
23.099867
23.099866
23.099866
23.099866
23.099866
23.099866
23.099866
23.099866
23.099866
23.099866
23.099866
23.099866
23.099865
23.099865
23.099865
23.099865
23.099865
23.099865
23.099865
23.099865
23.099865
23.099865
23.099865
23.099865
23.099865
23.099864
23.099864
23.099864
23.099864
23.099864
23.099864
23.099864
23.099864
23.099864
23.099864
23.099864
23.099864
23.099864
23.099864
23.099863
23.099863
23.099863
23.099863
23.099863
23.099863
23.099863
23.099863
23.099863
23.099863
23.099863
23.099863
23.099863
23.099863
23.099863
23.099862
23.099862
23.099862
23.099862
23.099862
23.099862
23.099862
23.099862
23.099862
23.099862
23.099862
23.099862
23.099862
23.099862
23.099862
23.099862
23.099862
23.099862
23.099861
23.099861
23.099861
23.099861
23.099861
23.099861
23.099861
23.099861
23.099861
23.099861
23.099861
23.099861
23.099861
23.099861
23.099861
23.099861
23.099861
23.099861
23.09986
23.09986
23.09986
23.09986
23.09986
23.09986
23.09986
23.09986
23.09986
23.09986
23.09986
23.09986
23.09986
23.09986
23.09986
23.09986
23.09986
23.09986
23.09986
23.099859
23.099859
23.099859
23.099859
23.099859
23.099859
23.099859
23.099859
23.099859
23.099859
23.099859
23.099859
23.099859
23.099859
23.099859
23.099859
23.099859
23.099859
23.099858
23.099858
23.099858
23.099858
23.099858
23.099858
23.099858
23.099858
23.099858
23.099858
23.099858
23.099858
23.099858
23.099858
23.099858
23.099858
23.099857
23.099857
23.099857
23.099857
23.099857
23.099857
23.099857
23.099857
23.099857
23.099857
23.099857
23.099857
23.099857
23.099857
23.099857
23.099856
23.099856
23.099856
23.099856
23.099856
23.099856
23.099856
23.099856
23.099856
23.099856
23.099856
23.099856
23.099856
23.099856
23.099855
23.099855
23.099855
23.099855
23.099855
23.099855
23.099855
23.099855
23.099855
23.099855
23.099855
23.099855
23.099854
23.099854
23.099854
23.099854
23.099854
23.099854
23.099854
23.099854
23.099854
23.099854
23.099854
23.099853
23.099853
23.099853
23.099853
23.099853
23.099853
23.099853
23.099853
23.099853
23.099853
23.099853
23.099852
23.099852
23.099852
23.099852
23.099852
23.099852
23.099852
23.099852
23.099852
23.099852
23.099851
23.099851
23.099851
23.099851
23.099851
23.099851
23.099851
23.099851
23.099851
23.09985
23.09985
23.09985
23.09985
23.09985
23.09985
23.09985
23.09985
23.099849
23.099849
23.099849
23.099849
23.099849
23.099849
23.099849
23.099849
23.099848
23.099848
23.099848
23.099848
23.099848
23.099848
23.099848
23.099847
23.099847
23.099847
23.099847
23.099847
23.099847
23.099847
23.099846
23.099846
23.099846
23.099846
23.099846
23.099846
23.099845
23.099845
23.099845
23.099845
23.099845
23.099845
23.099844
23.099844
23.099844
23.099844
23.099844
23.099844
23.099843
23.099843
23.099843
23.099843
23.099843
23.099842
23.099842
23.099842
23.099842
23.099842
23.099841
23.099841
23.099841
23.099841
23.099841
23.09984
23.09984
23.09984
23.09984
23.09984
23.099839
23.099839
23.099839
23.099839
23.099838
23.099838
23.099838
23.099838
23.099837
23.099837
23.099837
23.099837
23.099836
23.099836
23.099836
23.099836
23.099835
23.099835
23.099835
23.099835
23.099834
23.099834
23.099834
23.099834
23.099833
23.099833
23.099833
23.099833
23.099832
23.099832
23.099832
23.099831
23.099831
23.099831
23.099831
23.09983
23.09983
23.09983
23.099829
23.099829
23.099829
23.099828
23.099828
23.099828
23.099828
23.099827
23.099827
23.099827
23.099826
23.099826
23.099826
23.099825
23.099825
23.099825
23.099824
23.099824
23.099824
23.099823
23.099823
23.099823
23.099822
23.099822
23.099822
23.099821
23.099821
23.099821
23.09982
23.09982
23.09982
23.099819
23.099819
23.099819
23.099818
23.099818
23.099817
23.099817
23.099817
23.099816
23.099816
23.099816
23.099815
23.099815
23.099815
23.099814
23.099814
23.099813
23.099813
23.099813
23.099812
23.099812
23.099811
23.099811
23.099811
23.09981
23.09981
23.099809
23.099809
23.099809
23.099808
23.099808
23.099808
23.099807
23.099807
23.099806
23.099806
23.099805
23.099805
23.099805
23.099804
23.099804
23.099803
23.099803
23.099803
23.099802
23.099802
23.099801
23.099801
23.0998
23.0998
23.099799
23.099799
23.099799
23.099798
23.099798
23.099797
23.099797
23.099796
23.099796
23.099795
23.099795
23.099794
23.099794
23.099794
23.099793
23.099793
23.099792
23.099792
23.099791
23.099791
23.09979
23.09979
23.099789
23.099789
23.099788
23.099788
23.099787
23.099786
23.099786
23.099785
23.099785
23.099784
23.099784
23.099783
23.099783
23.099782
23.099781
23.099781
23.09978
23.09978
23.099779
23.099778
23.099778
23.099777
23.099777
23.099776
23.099775
23.099775
23.099774
23.099773
23.099773
23.099772
23.099771
23.099771
23.09977
23.099769
23.099768
23.099768
23.099767
23.099766
23.099765
23.099764
23.099764
23.099763
23.099762
23.099761
23.09976
23.099759
23.099758
23.099757
23.099756
23.099755
23.099754
23.099753
23.099752
23.099751
23.09975
23.099749
23.099748
23.099747
23.099746
23.099745
23.099743
23.099742
23.099741
23.09974
23.099738
23.099737
23.099736
23.099734
23.099733
23.099731
23.09973
23.099728
23.099726
23.099725
23.099723
23.099721
23.09972
23.099718
23.099716
23.099714
23.099712
23.09971
23.099708
23.099706
23.099704
23.099701
23.099699
23.099697
23.099694
23.099692
23.099689
23.099687
23.099684
23.099681
23.099678
23.099675
23.099672
23.099669
23.099666
23.099663
23.099659
23.099656
23.099652
23.099648
23.099645
23.099641
23.099637
23.099632
23.099628
23.099624
23.099619
23.099615
23.09961
23.099605
23.0996
23.099595
23.099589
23.099584
23.099578
23.099572
23.099566
23.09956
23.099553
23.099547
23.09954
23.099533
23.099526
23.099518
23.099511
23.099503
23.099495
23.099486
23.099478
23.099469
23.09946
23.09945
23.099441
23.099431
23.099421
23.09941
23.099399
23.099388
23.099377
23.099365
23.099353
23.09934
23.099327
23.099314
23.099301
23.099287
23.099272
23.099257
23.099242
23.099226
23.09921
23.099194
23.099177
23.099159
23.099141
23.099123
23.099103
23.099084
23.099064
23.099043
23.099022
23.099
23.098977
23.098954
23.098931
23.098906
23.098881
23.098855
23.098829
23.098802
23.098774
23.098745
23.098716
23.098685
23.098654
23.098623
23.09859
23.098556
23.098522
23.098486
23.09845
23.098413
23.098375
23.098335
23.098295
23.098254
23.098211
23.098168
23.098123
23.098078
23.098031
23.097983
23.097933
23.097883
23.097831
23.097778
23.097723
23.097668
23.097611
23.097552
23.097492
23.09743
23.097367
23.097303
23.097237
23.097169
23.0971
23.097029
23.096956
23.096882
23.096806
23.096728
23.096648
23.096567
23.096483
23.096398
23.09631
23.096221
23.096129
23.096036
23.09594
23.095842
23.095742
23.09564
23.095535
23.095428
23.095319
23.095207
23.095093
23.094976
23.094857
23.094735
23.094611
23.094484
23.094354
23.094221
23.094086
23.093948
23.093806
23.093662
23.093515
23.093365
23.093212
23.093055
23.092896
23.092733
23.092567
23.092397
23.092224
23.092048
23.091868
23.091685
23.091498
23.091307
23.091112
23.090914
23.090712
23.090506
23.090296
23.090083
23.089865
23.089643
23.089417
23.089186
23.088952
23.088713
23.088469
23.088221
23.087969
23.087712
23.087451
23.087185
23.086914
23.086638
23.086357
23.086072
23.085781
23.085486
23.085185
23.084879
23.084568
23.084252
23.08393
23.083603
23.083271
23.082933
23.082589
23.08224
23.081885
23.081524
23.081158
23.080785
23.080407
23.080022
23.079632
23.079235
23.078832
23.078423
23.078008
23.077586
23.077158
23.076723
23.076282
23.075834
23.075379
23.074918
23.07445
23.073975
23.073493
23.073004
23.072508
23.072004
23.071494
23.070977
23.070452
23.06992
23.06938
23.068834
23.068279
23.067717
23.067148
23.06657
23.065985
23.065393
23.064792
23.064184
23.063567
23.062943
23.06231
23.06167
23.061021
23.060364
23.059699
23.059026
23.058344
23.057654
23.056955
23.056248
23.055533
23.054809
23.054076
23.053334
23.052584
23.051825
23.051058
23.050281
23.049496
23.048702
23.047899
23.047086
23.046265
23.045435
23.044596
23.043747
23.04289
23.042023
23.041147
23.040262
23.039367
23.038463
23.03755
23.036627
23.035695
23.034754
23.033803
23.032843
23.031873
23.030894
23.029905
23.028907
23.027899
23.026882
23.025855
23.024818
23.023772
23.022716
23.021651
23.020575
23.019491
23.018396
23.017292
23.016178
23.015055
23.013921
23.012778
23.011626
23.010463
23.009292
23.00811
23.006919
23.005718
23.004507
23.003286
23.002056
23.000817
22.999568
22.998309
22.99704
22.995762
22.994474
22.993177
22.99187
22.990554
22.989228
22.987893
22.986548
22.985194
22.98383
22.982457
22.981075
22.979683
22.978282
22.976872
22.975453
22.974024
22.972586
22.971139
22.969683
22.968218
22.966744
22.965261
22.963769
22.962268
22.960758
22.95924
22.957713
22.956177
22.954632
22.953079
22.951517
22.949947
22.948368
22.946781
22.945185
22.943582
22.94197
22.94035
22.938721
22.937085
22.935441
22.933789
22.932129
22.930461
22.928786
22.927103
22.925412
22.923714
22.922008
22.920295
22.918574
22.916847
22.915112
22.91337
22.911621
22.909866
22.908103
22.906334
22.904557
22.902775
22.900985
22.89919
22.897388
22.895579
22.893765
22.891944
22.890117
22.888284
22.886446
22.884602
22.882751
22.880896
22.879035
22.877168
22.875296
22.873419
22.871537
22.869649
22.867757
22.86586
22.863958
22.862051
22.86014
22.858224
22.856304
22.854379
22.85245
22.850517
22.848581
22.84664
22.844695
22.842747
22.840795
22.838839
22.836881
22.834918
22.832953
22.830984
22.829013
22.827038
22.825061
22.82308
22.821098
22.819112
22.817125
22.815135
22.813142
22.811148
22.809152
22.807153
22.805153
22.803151
22.801148
22.799143
22.797136
22.795129
22.79312
22.79111
22.789099
22.787087
22.785074
22.78306
22.781046
22.779031
22.777016
22.775001
22.772986
22.77097
22.768954
22.766939
22.764923
22.762908
22.760893
22.758879
22.756865
22.754852
22.75284
22.750828
22.748818
22.746809
22.7448
22.742793
22.740788
22.738783
22.736781
22.734779
22.73278
22.730782
22.728786
22.726793
22.724801
22.722811
22.720824
22.718839
22.716856
22.714876
22.712898
22.710924
22.708951
22.706982
22.705016
22.703052
22.701092
22.699135
22.697181
22.69523
22.693283
22.69134
22.689399
22.687463
22.68553
22.683601
22.681676
22.679755
22.677837
22.675924
22.674015
22.67211
22.67021
22.668314
22.666422
22.664535
22.662652
22.660774
22.6589
22.657032
22.655168
22.653309
22.651454
22.649605
22.647761
22.645922
22.644088
22.64226
22.640436
22.638618
22.636806
22.634999
22.633197
22.631401
22.62961
22.627825
22.626046
22.624272
22.622505
22.620743
22.618987
22.617236
22.615492
22.613754
22.612022
22.610296
22.608576
22.606862
22.605154
22.603453
22.601758
22.600069
22.598387
22.59671
22.595041
22.593378
22.591721
22.59007
22.588427
22.586789
22.585159
22.583535
22.581917
22.580307
22.578703
22.577105
22.575515
22.573931
22.572354
22.570784
22.569221
22.567664
22.566114
22.564572
22.563036
22.561507
22.559985
22.55847
22.556962
22.55546
22.553966
22.552479
22.550999
22.549526
22.54806
22.546601
22.545149
22.543705
22.542267
22.540836
22.539413
22.537996
22.536587
22.535185
22.53379
22.532402
22.531022
22.529648
22.528282
22.526923
22.525571
22.524226
22.522888
22.521558
22.520234
22.518918
22.517609
22.516308
22.515013
22.513726
22.512446
22.511173
22.509907
22.508649
22.507397
22.506153
22.504917
22.503687
22.502465
22.50125
22.500042
22.498841
22.497647
22.496461
22.495282
22.49411
22.492946
22.491788
22.490638
22.489495
22.48836
22.487231
22.48611
22.484996
22.48389
22.48279
22.481698
22.480614
22.479536
22.478466
22.477403
22.476347
22.475299
22.474257
22.473224
22.472197
22.471178
22.470166
22.469162
22.468164
22.467175
22.466192
22.465217
22.46425
22.46329
22.462337
22.461392
22.460454
22.459524
22.458601
22.457685
22.456778
22.455878
22.454985
22.4541
22.453223
22.452353
22.451491
22.450637
22.44979
22.448952
22.448121
22.447298
22.446483
22.445675
22.444876
22.444085
22.443302
22.442526
22.441759
22.441001
22.44025
22.439507
22.438773
22.438048
22.43733
22.436621
22.435921
22.435229
22.434546
22.433872
22.433206
22.432549
22.431902
22.431263
22.430633
22.430012
22.429401
22.428798
22.428206
22.427622
22.427048
22.426484
22.42593
22.425385
22.42485
22.424325
22.423811
22.423306
22.422812
22.422328
22.421855
22.421392
22.42094
22.420499
22.420069
22.41965
22.419243
22.418847
22.418462
22.418089
22.417727
22.417378
22.417041
22.416715
22.416403
22.416102
22.415815
22.41554
22.415278
22.41503
22.414794
22.414572
22.414364
22.41417
22.41399
22.413824
22.413672
22.413535
22.413413
22.413305
22.413213
22.413136
22.413075
22.41303
22.413
22.412986
22.412989
22.413008
22.413045
22.413099
22.41317
22.413258
22.413365
22.413489
22.413632
22.413793
22.413973
22.414172
22.414391
22.414629
22.414886
22.415164
22.415462
22.415781
22.41612
22.41648
22.416862
22.417266
22.417691
22.418139
22.418609
22.419102
22.419618
22.420158
22.420721
22.421307
22.421919
22.422554
22.423215
22.4239
22.424611
22.425348
22.42611
22.426899
22.427715
22.428557
22.429426
22.430323
22.431248
22.432201
22.433182
22.434192
22.435231
22.436299
22.437397
22.438525
22.439683
22.440871
22.44209
22.44334
22.444622
22.445935
22.44728
22.448658
22.450067
22.45151
22.452986
22.454495
22.456037
22.457614
22.459225
22.46087
22.462549
22.464264
22.466014
22.467799
22.46962
22.471477
22.47337
22.475299
22.477265
22.479268
22.481308
22.483385
22.485499
22.487651
22.489841
22.492069
22.494335
22.496639
22.498982
22.501363
22.503783
22.506243
22.508741
22.511278
22.513855
22.516471
22.519127
22.521822
22.524557
22.527331
22.530146
22.533
22.535894
22.538828
22.541802
22.544816
22.54787
22.550964
22.554098
22.557271
22.560485
22.563738
22.567032
22.570364
22.573737
22.577149
22.5806
22.584091
22.587621
22.59119
22.594797
22.598444
22.602128
22.605852
22.609613
22.613412
22.617249
22.621124
22.625035
22.628984
22.632969
22.636991
22.641048
22.645142
22.649271
22.653435
22.657633
22.661867
22.666134
22.670435
22.674769
22.679136
22.683535
22.687967
22.69243
22.696924
22.701449
22.706003
22.710588
22.715202
22.719844
22.724514
22.729212
22.733938
22.738689
22.743467
22.74827
22.753097
22.757949
22.762824
22.767722
22.772643
22.777585
22.782548
22.787532
22.792535
22.797558
22.802598
22.807657
22.812732
22.817824
22.822931
22.828053
22.833189
22.838339
22.843501
22.848675
22.853861
22.859056
22.864262
22.869476
22.874699
22.879929
22.885165
22.890407
22.895655
22.900906
22.906161
22.911419
22.916679
22.921939
22.9272
22.932461
22.93772
22.942977
22.948232
22.953482
22.958729
22.96397
22.969204
22.974433
22.979653
22.984865
22.990068
22.995261
23.000444
23.005614
23.010773
23.015919
23.02105
23.026168
23.03127
23.036356
23.041425
23.046477
23.051511
23.056525
23.061521
23.066496
23.071449
23.076382
23.081292
23.086179
23.091042
23.095881
23.100695
23.105483
23.110245
23.114981
23.119689
23.124369
23.129021
23.133644
23.138237
23.1428
23.147332
23.151833
23.156302
23.160737
23.165139
23.169506
23.173837
23.178133
23.182392
23.186618
23.190811
23.194975
23.199108
23.203208
23.207273
23.211291
23.215253
23.219171
23.22306
23.226919
23.230755
23.234589
23.238452
23.242492
23.246502
23.24957
23.252564
23.25617
23.259884
23.26327
23.266683
23.270101
23.273461
23.276782
23.280064
23.283308
23.286516
23.289684
23.292811
23.295899
23.298946
23.301954
23.30492
23.307845
23.310729
23.313573
23.316376
23.319139
23.321862
23.324546
23.32719
23.329795
23.332362
23.334891
23.337381
23.339833
23.342249
23.344626
23.346967
23.34927
23.351538
23.353769
23.355964
23.358124
23.360245
23.362333
23.364388
23.366404
23.368386
23.370337
23.372249
23.374122
23.375972
23.377794
23.379576
23.381324
23.383041
23.384725
23.386378
23.388
23.389591
23.391151
23.392681
23.394181
23.395651
23.397092
23.398504
23.399888
23.401243
23.402571
23.403871
23.405144
23.40639
23.407609
23.408803
23.40997
23.411113
23.41223
23.413323
23.414392
23.415437
23.416458
23.417456
23.418431
23.419384
23.420315
23.421224
23.422112
23.422979
23.423825
23.424651
23.425457
23.426243
23.42701
23.427759
23.428488
23.4292
23.429894
23.43057
23.431229
23.431872
23.432498
23.433107
23.433701
23.43428
23.434843
23.435391
23.435925
23.436444
23.43695
23.437441
23.43792
23.438385
23.438838
23.439278
23.439706
23.440122
23.440526
23.440919
23.441301
23.441672
23.442032
23.442382
23.442722
23.443052
23.443373
23.443684
23.443986
23.444279
23.444564
23.444839
23.445107
23.445367
23.445619
23.445863
23.4461
23.44633
23.446553
23.446769
23.446978
23.447181
23.447378
23.447569
23.447754
23.447932
23.448106
23.448274
23.448437
23.448594
23.448747
23.448895
23.449038
23.449177
23.449311
23.449441
23.449567
23.449689
23.449807
23.449922
23.450032
23.45014
23.450243
23.450344
23.450441
23.450535
23.450627
23.450715
23.450801
23.450883
23.450963
23.451041