/*--------------------------------*- C++ -*----------------------------------*\
  =========                 |
  \\      /  F ield         | OpenFOAM: The Open Source CFD Toolbox
   \\    /   O peration     | Website:  https://openfoam.org
    \\  /    A nd           | Version:  7
     \\/     M anipulation  |
\*---------------------------------------------------------------------------*/
FoamFile
{
    version     2.0;
    format      ascii;
    class       volScalarField;
    location    "0.00279";
    object      Uz;
}
// * * * * * * * * * * * * * * * * * * * * * * * * * * * * * * * * * * * * * //

dimensions      [0 1 -1 0 0 0 0];

internalField   nonuniform List<scalar> 
5000
(
0
0
0
0
0
-1.0971987e-21
-2.1238398e-36
2.9560996e-21
1.0774828e-21
-2.2588471e-21
-2.2956875e-21
1.151615e-21
-9.8066257e-36
-1.0101966e-35
2.285059e-21
-2.2768136e-21
-1.7647796e-51
-9.9490133e-36
-1.1241809e-21
2.2405423e-21
1.1156753e-21
0
0
-1.1169713e-21
9.5621548e-36
-9.266583e-36
-1.1256992e-21
1.1253678e-21
1.1230731e-21
-1.1188849e-21
1.9457836e-35
-9.450651e-36
-1.10355e-21
1.0992949e-21
1.0994308e-21
0
0
-1.1126914e-21
-1.1114836e-21
1.1021629e-21
-1.8299294e-35
-1.0799325e-21
1.0707212e-21
-1.813787e-35
-1.0843481e-21
1.0971326e-21
-3.80339e-35
3.7845136e-35
-3.7647243e-35
1.8462583e-35
1.0726408e-21
0
0
0
0
0
0
0
0
0
0
0
0
-1.0766932e-21
-1.0781022e-21
1.0749008e-21
-1.8414628e-35
-3.4295206e-53
1.0654443e-21
0
0
-1.0675587e-21
-1.0667636e-21
0
1.0630713e-21
3.669544e-35
-1.0629038e-21
-1.0623816e-21
1.0603805e-21
2.1160238e-21
-2.1116646e-21
5.9941221e-37
3.1657899e-21
-2.1117645e-21
-1.0974332e-34
2.1063836e-21
-3.1528994e-21
1.049219e-21
1.0486907e-21
-1.0490439e-21
1.0489504e-21
1.0476431e-21
3.6418029e-35
-2.0892742e-21
-7.2233529e-35
-1.0435724e-21
-1.0439174e-21
-3.6644917e-35
7.25751e-35
2.0838242e-21
1.0430106e-21
-1.0423833e-21
1.4794853e-37
1.0390627e-21
0
-1.0323771e-21
-3.5799849e-35
1.0240152e-21
-1.0202854e-21
-1.0178646e-21
2.0351505e-21
1.0199761e-21
-3.0774584e-21
-1.0355244e-21
3.1452622e-21
-1.0628755e-21
-1.0764021e-21
-6.163497e-37
-1.0837149e-21
3.2001021e-21
-7.2700543e-35
-1.8740038e-21
1.8162094e-21
5.1551564e-22
-6.3476583e-22
1.2056749e-21
-9.9464815e-22
-1.6625313e-21
9.2637592e-22
3.5428547e-35
1.047271e-21
2.0672465e-21
-1.0297191e-21
-1.0264571e-21
-1.0086441e-21
-3.467592e-35
-3.4559006e-35
3.5020096e-35
2.0190993e-21
1.0039084e-21
-9.9625842e-22
-1.9760507e-21
-9.8333396e-22
-9.8778739e-22
6.925007e-35
2.0089794e-21
-2.8484608e-37
2.8314812e-37
1.976342e-52
9.8172372e-22
-6.8232526e-35
1.3831777e-34
9.9932545e-22
-9.9816257e-22
9.922662e-22
3.4135153e-35
-9.7826385e-22
9.7851249e-22
-1.4014665e-37
-9.9271451e-22
0
9.8825167e-22
6.7967457e-35
-1.9534251e-21
9.75412e-22
-2.7880433e-37
-9.8594058e-22
9.8638767e-22
-9.8325271e-22
9.7825348e-22
-4.0601066e-34
-2.7034948e-34
9.7862082e-22
-1.963341e-21
0
-6.7647562e-35
-2.0202129e-34
9.6851119e-22
9.7202901e-22
6.7217897e-35
-9.7472251e-22
9.7136964e-22
6.6414498e-35
4.0985265e-37
1.3335721e-34
-1.9361044e-21
9.7188324e-22
9.6927752e-22
-6.633142e-35
6.6111348e-35
-1.9875443e-34
6.6279308e-35
-9.6446178e-22
0
0
0
0
-9.4892907e-22
1.9895166e-34
9.5991128e-22
9.6077157e-22
-9.5722669e-22
-9.5334674e-22
1.9001945e-21
6.560854e-35
-1.9706489e-34
-9.5172233e-22
-9.5374531e-22
9.5380563e-22
0
9.4901452e-22
6.5499296e-35
-9.4354735e-22
-9.4159108e-22
1.3135179e-34
9.4506583e-22
-1.8899477e-21
9.4257635e-22
9.384068e-22
-9.3491419e-22
9.3463523e-22
0
0
0
9.3573325e-22
-9.3197303e-22
-1.8589253e-21
9.316015e-22
-6.4902296e-35
9.3263286e-22
9.2947703e-22
-1.8497052e-21
2.6193973e-37
-2.6256843e-37
9.2763391e-22
9.2872291e-22
-1.8512455e-21
1.3079193e-37
-1.9078294e-34
9.1465284e-22
-5.1036539e-34
-1.2804863e-34
9.2362819e-22
-9.2114731e-22
0
-9.1639389e-22
9.1565332e-22
9.1514035e-22
-9.1270277e-22
0
-9.0951335e-22
9.1264374e-22
9.1380785e-22
-3.1628038e-34
-1.8132542e-21
-1.800619e-21
2.686541e-21
1.7934168e-21
0
-1.8159426e-21
-9.0668504e-22
9.0161273e-22
8.9556783e-22
8.9041688e-22
-1.779043e-21
-1.7891784e-21
9.0031108e-22
1.803128e-21
2.4902274e-34
-1.7865194e-21
8.8888415e-22
-1.228831e-34
-8.8836483e-22
1.7838479e-21
-8.9313945e-22
1.2413111e-34
8.8756651e-22
-8.8459e-22
8.8451614e-22
-1.7723102e-21
3.7014446e-34
1.7711529e-21
-1.7629511e-21
-6.0760324e-35
8.7782154e-22
0
0
8.8169546e-22
-8.7742189e-22
-1.7457739e-21
8.7051104e-22
-2.4850825e-37
8.776993e-22
8.7706978e-22
-8.74086e-22
0
-8.6483977e-22
-8.6672007e-22
0
1.7499098e-21
8.7206096e-22
-1.7339449e-21
5.9622273e-35
-2.4408215e-37
8.6365523e-22
8.6912793e-22
-8.7020669e-22
8.6655696e-22
-8.6048669e-22
4.8610341e-37
1.7092688e-21
-8.6108864e-22
-8.6627866e-22
-8.6617732e-22
-1.1962544e-34
8.5693411e-22
0
0
-8.5869445e-22
1.1998756e-34
-2.4015641e-34
-1.1998086e-34
8.615771e-22
-8.6012743e-22
1.2194505e-37
8.5510626e-22
0
0
0
0
0
0
0
-8.3849968e-22
0
8.4946897e-22
0
-8.6431944e-22
-2.3791152e-34
8.4997557e-22
0
0
-8.4481228e-22
-1.1902252e-34
8.6382187e-22
0
0
-8.4919994e-22
-8.4390311e-22
8.4455464e-22
8.5234327e-22
0
-8.6442513e-22
1.2227056e-37
8.5542902e-22
-8.5013334e-22
-8.4691759e-22
8.5123107e-22
8.6010026e-22
0
-8.634479e-22
-8.5954395e-22
8.5491621e-22
8.5201735e-22
0
-8.628901e-22
-8.6742819e-22
8.6496408e-22
8.605971e-22
0
0
0
0
0
0
0
0
-8.5548973e-22
4.2329576e-51
8.6942444e-22
0
0
0
-8.6627294e-22
-1.1979791e-34
8.6721367e-22
-8.7449621e-22
1.2205808e-34
-1.2464284e-37
-1.212359e-34
8.6830886e-22
-8.6563185e-22
8.7147909e-22
-4.8909735e-34
-8.8434062e-22
8.8090199e-22
0
0
-8.6681046e-22
-1.2147592e-34
8.8567705e-22
-8.9023478e-22
-8.8617553e-22
0
8.7411771e-22
8.7090389e-22
-8.7826414e-22
-2.4689555e-34
7.1375418e-52
-1.2380263e-34
8.8627049e-22
-8.803113e-22
5.2801867e-51
-1.2253976e-34
-8.9331476e-22
0
0
8.9085933e-22
1.2572375e-37
-3.6659291e-34
8.8577021e-22
0
0
-8.999303e-22
2.483592e-34
8.8993797e-22
0
0
0
-9.0341149e-22
1.2837466e-37
9.0050207e-22
-8.9611163e-22
8.9306158e-22
-2.4869591e-34
-1.8012582e-21
9.0565269e-22
3.7707973e-34
1.253186e-34
-1.2492094e-34
-8.9800882e-22
0
0
9.0517337e-22
1.2548302e-34
-2.4993968e-34
-1.4271875e-52
-9.010274e-22
9.0389313e-22
9.0394613e-22
0
-8.970344e-22
-1.2405401e-34
8.9696499e-22
0
0
-9.0216978e-22
2.5440294e-37
-2.0293612e-52
-8.8485899e-22
8.9314277e-22
-1.2522949e-34
1.2597521e-34
-2.5021091e-34
-8.9438802e-22
8.8680557e-22
-2.4498056e-34
2.4651936e-34
-2.4928304e-34
-9.0280551e-22
9.005764e-22
-2.4849529e-34
1.2367291e-34
0
-8.8312549e-22
8.8853959e-22
-1.2424542e-34
1.2741861e-37
-1.2394886e-34
1.2342659e-34
8.8334136e-22
-8.8004563e-22
-8.8233496e-22
8.8674325e-22
8.8877873e-22
0
-8.8268141e-22
-8.7898673e-22
0
8.7934887e-22
-1.2244063e-34
1.2512756e-37
1.2163574e-34
-8.7311705e-22
8.7058145e-22
1.210462e-34
-2.42887e-34
-8.7290283e-22
-8.6941854e-22
1.7288551e-21
-1.2232307e-37
1.1961862e-34
8.6537602e-22
-8.6588497e-22
1.1979354e-34
8.5711676e-22
0
0
0
-8.590413e-22
-8.5652261e-22
8.5149538e-22
8.4619798e-22
0
-8.4478586e-22
-8.4724759e-22
8.4621457e-22
8.4285565e-22
0
-8.3181372e-22
-8.3342581e-22
8.3755871e-22
2.3291675e-34
-8.3423816e-22
0
0
0
0
8.2910844e-22
-2.2984359e-34
-8.2245807e-22
8.1380004e-22
1.1191473e-34
-1.118563e-34
-1.0558906e-52
8.185941e-22
8.1891622e-22
-1.6265352e-21
-1.1202316e-34
1.1098386e-34
-7.9648534e-22
0
8.0643581e-22
8.0801275e-22
-8.0360295e-22
-2.2141705e-34
7.9260883e-22
0
0
-7.9497222e-22
1.1047099e-34
7.9295244e-22
0
-7.8329359e-22
1.1081835e-37
-2.1709581e-34
-1.0884875e-34
7.8514922e-22
-7.8257876e-22
1.1062854e-37
-2.1523552e-34
-7.7421871e-22
7.7519362e-22
2.1544254e-34
1.1010511e-37
-1.071727e-34
-7.6959271e-22
7.6908502e-22
0
-4.2643725e-34
-1.0607743e-34
-3.1669016e-34
-1.0782785e-37
-7.6075283e-22
7.6263599e-22
9.5087889e-52
-1.0516978e-34
2.0903244e-34
-1.0404614e-34
1.5024846e-21
-7.5386053e-22
-7.541528e-22
-1.0440111e-34
1.0372421e-34
1.4866761e-21
-7.4413467e-22
-7.4679535e-22
1.9078748e-52
0
5.8614392e-53
-7.3686792e-22
7.3675001e-22
-4.3222563e-53
-1.032223e-34
-1.0544006e-37
-7.3720515e-22
1.4632248e-21
2.0230007e-34
-7.3304135e-22
1.0230676e-34
-1.0239619e-34
7.3513015e-22
-7.2851912e-22
6.8817303e-52
-3.014303e-34
2.0314707e-34
-2.0390634e-34
-2.028989e-34
3.5847989e-52
0
7.0707132e-22
0
0
-7.3489546e-22
-2.0381763e-34
7.2644218e-22
0
0
-1.415028e-21
-5.9431868e-34
1.4455597e-21
-7.2848318e-22
1.0368945e-37
-1.01121e-34
-7.2587663e-22
0
0
0
-7.1336215e-22
-1.9819594e-34
7.2017093e-22
0
0
-7.1936597e-22
1.0156277e-37
7.116675e-22
0
0
-7.2221894e-22
-2.0011473e-34
-1.9987781e-34
1.9930094e-34
7.1684171e-22
-7.1807472e-22
1.998037e-34
-2.0007898e-34
2.000013e-34
7.2088281e-22
0
0
-7.2198761e-22
-1.0495412e-52
7.2225907e-22
0
0
-7.2139974e-22
-3.0878923e-52
7.2067861e-22
0
0
-7.1989808e-22
4.315652e-52
7.2085274e-22
0
0
-7.2267311e-22
1.0267667e-37
7.2206329e-22
-7.210325e-22
1.9995837e-34
-1.9958413e-34
1.9918357e-34
7.1618237e-22
0
0
0
0
0
-7.2271797e-22
2.0065316e-34
7.2172936e-22
0
0
0
0
0
0
0
-7.2091366e-22
4.0103144e-34
7.2171761e-22
0
0
0
0
0
0
0
-7.2134292e-22
1.9984393e-34
7.192015e-22
0
0
-7.1892262e-22
1.9993208e-34
7.2001794e-22
0
0
0
-7.2010507e-22
-2.001249e-34
7.2059118e-22
0
0
0
0
0
0
0
-7.2239954e-22
1.0267121e-37
7.2251151e-22
0
0
0
0
0
0
0
-7.2137573e-22
-1.0253291e-37
7.2161376e-22
0
0
0
-7.2171688e-22
4.0061326e-34
7.2124939e-22
0
-7.2034415e-22
-1.9998807e-34
7.1947745e-22
0
0
-7.1921713e-22
-7.1936582e-22
7.1946581e-22
7.1955084e-22
0
0
0
0
7.2004185e-22
-1.0233483e-37
-1.4403607e-21
-7.2023134e-22
1.4405405e-21
1.4405916e-21
-7.2030709e-22
-7.2030499e-22
0
0
0
0
-7.2012472e-22
-2.0004828e-34
7.1999299e-22
0
0
0
0
0
0
0
0
0
0
0
0
0
0
-7.1901683e-22
3.9926402e-34
7.1883198e-22
0
0
7.1849356e-22
-1.9947614e-34
1.020636e-37
-7.18026e-22
-7.1782288e-22
-3.9841021e-34
1.9927533e-34
7.1693178e-22
0
0
0
0
0
-7.1418356e-22
3.963299e-34
7.1354087e-22
0
0
0
0
0
0
0
-7.1197757e-22
3.9508394e-34
7.1154695e-22
0
0
0
0
0
0
0
-7.0944646e-22
5.9053092e-34
7.0878227e-22
0
0
0
0
0
0
0
0
-7.0412899e-22
9.9992502e-38
7.0320863e-22
0
0
0
0
-7.0137801e-22
7.0100138e-22
7.0061717e-22
-1.4004567e-21
-1.9433048e-34
6.994393e-22
0
0
0
0
-6.9739305e-22
1.9343527e-34
1.3930699e-21
-6.9609281e-22
-6.9564475e-22
6.9519712e-22
0
0
0
-6.9352266e-22
-1.9226535e-34
6.9269612e-22
6.9228633e-22
-6.9187783e-22
-6.9147182e-22
6.9106797e-22
0
0
-6.8986753e-22
-6.8947178e-22
6.8907807e-22
6.8868566e-22
6.8829498e-22
3.8203548e-34
-6.8751589e-22
0
0
0
-6.8587916e-22
-6.8542483e-22
6.8494914e-22
6.8445887e-22
6.839652e-22
1.8969318e-34
-6.8303238e-22
0
0
0
-6.8158419e-22
1.8908579e-34
6.8102393e-22
0
0
0
0
0
0
0
-6.7900723e-22
1.8838935e-34
1.3571514e-21
1.8837015e-34
-6.7817366e-22
0
0
-6.7760656e-22
9.6267359e-38
-1.880545e-34
1.879049e-34
6.7684086e-22
6.76627e-22
-1.8782229e-34
-6.7615406e-22
0
0
-6.7539186e-22
5.6225298e-34
1.8733476e-34
-9.5901017e-38
6.7473589e-22
-6.7465629e-22
-6.7459338e-22
1.3490951e-21
-3.7421425e-34
-6.7448383e-22
6.7445644e-22
0
-6.7442232e-22
-1.8736925e-34
6.7442563e-22
0
-6.7445197e-22
6.7447396e-22
-7.4898998e-34
-6.7453155e-22
6.7456646e-22
0
-6.7464683e-22
0
6.7473669e-22
0
-6.7483213e-22
6.7488072e-22
-3.7444514e-34
-6.7497618e-22
6.7501835e-22
0
-6.750875e-22
-1.8746613e-34
6.7513916e-22
0
-6.7517598e-22
6.7519222e-22
-1.9190676e-37
-6.7523778e-22
6.7527271e-22
0
-6.7535503e-22
-6.7539373e-22
6.7542547e-22
6.7545343e-22
-6.7548037e-22
6.7550499e-22
6.7552485e-22
-6.7553889e-22
0
0
0
0
0
0
-6.7543516e-22
-2.9055569e-54
1.3506268e-21
-6.7523059e-22
-6.7513198e-22
6.7501777e-22
0
0
-6.7460599e-22
-6.7446214e-22
6.7431851e-22
6.7417288e-22
0
-6.7386689e-22
-1.8716984e-34
6.7353164e-22
0
0
-6.729548e-22
-6.727451e-22
6.7253055e-22
6.7231259e-22
0
-6.7186135e-22
1.8649591e-34
6.7136963e-22
-6.7110698e-22
-3.7255425e-34
-9.5290679e-38
-6.7025172e-22
6.6994363e-22
6.6962365e-22
0
0
-6.6859054e-22
1.8545624e-34
6.6783244e-22
0
-6.6700541e-22
-6.6656189e-22
6.660998e-22
6.6562027e-22
0
0
0
0
0
0
-6.6202456e-22
1.8358574e-34
6.609263e-22
0
0
0
0
0
0
-6.5684459e-22
-2.9419419e-53
6.5562256e-22
6.5500091e-22
1.8151966e-34
-6.5373208e-22
0
0
0
0
-6.5042909e-22
-1.8032945e-34
6.4905755e-22
-6.4836163e-22
-6.4765945e-22
6.4695063e-22
-3.5870953e-34
-5.3755525e-34
-5.3676643e-34
1.7893256e-34
-3.5727369e-34
1.7834081e-34
6.418426e-22
0
-6.4035846e-22
5.3254986e-34
-9.078802e-38
-6.3811481e-22
6.373641e-22
6.366122e-22
-6.358602e-22
1.762667e-34
-5.2799395e-34
-3.5178926e-34
-3.5110304e-34
1.7534397e-34
-3.5045341e-34
-6.3061718e-22
6.2987597e-22
6.2913833e-22
-6.2840381e-22
1.7411384e-34
-6.9600439e-34
-1.7380012e-34
1.7368915e-34
1.7331255e-34
1.7320373e-34
-6.2336488e-22
0
6.2196316e-22
-1.724258e-34
-1.3210673e-52
6.198965e-22
0
-6.1854423e-22
6.1787729e-22
6.1721673e-22
-6.1656264e-22
0
0
0
0
-6.1340387e-22
1.7007418e-34
-3.3990256e-34
6.1160586e-22
6.110242e-22
-6.1045124e-22
0
0
0
0
-6.0772537e-22
-8.6289669e-38
6.0670418e-22
0
0
0
0
0
0
0
-6.0303372e-22
-6.0262145e-22
6.0221965e-22
6.0182854e-22
0
0
0
0
0
0
-5.9938648e-22
-5.990779e-22
5.9877876e-22
5.9848923e-22
0
0
0
0
0
0
-5.9671648e-22
-5.9650301e-22
5.9630081e-22
5.9611071e-22
0
0
0
0
0
0
-5.9510028e-22
3.3035413e-34
5.9490823e-22
0
0
0
0
0
0
-5.9458489e-22
1.6510412e-34
5.9459515e-22
0
0
0
0
-5.9481186e-22
-8.4537959e-38
5.9496347e-22
-5.95053e-22
5.1607068e-54
5.9525664e-22
-5.9537103e-22
3.3071355e-34
5.9562492e-22
-5.9576417e-22
-3.3086097e-34
-3.3094746e-34
1.3544454e-52
-3.3104862e-34
-1.654894e-34
5.9676928e-22
-5.9696381e-22
-5.9716536e-22
1.194748e-21
-3.3153789e-34
-1.1956251e-21
0
5.9827654e-22
-1.6619649e-34
-1.6635019e-34
-4.986648e-34
-4.9896436e-34
-3.3261808e-34
4.9940418e-34
-3.330008e-34
1.667897e-34
6.0062347e-22
0
-6.0118354e-22
-8.547353e-38
-5.0094007e-34
-5.0126186e-34
8.5594585e-38
3.3449016e-34
-1.6740916e-34
-6.0316567e-22
0
6.0372016e-22
-3.3526232e-34
-8.5871061e-38
6.0452998e-22
0
-6.0505011e-22
6.053039e-22
6.05553e-22
-6.0579751e-22
0
0
-6.0649921e-22
6.7364031e-34
-3.3672567e-34
3.3710237e-34
-1.6873801e-34
6.0756088e-22
6.0775684e-22
-6.079478e-22
0
0
0
0
-6.0882682e-22
-1.6910341e-34
-6.7623729e-34
6.0928552e-22
6.0942437e-22
-6.0955488e-22
0
0
0
0
-6.1006583e-22
-6.1013535e-22
6.1019289e-22
6.1023778e-22
0
0
0
0
0
0
-6.101851e-22
-6.1012492e-22
6.1005195e-22
6.0996605e-22
0
0
0
0
0
0
-6.090019e-22
5.0699123e-34
1.2172141e-21
-6.0838901e-22
-1.8244724e-21
-6.0791348e-22
0
1.2147725e-21
-6.7414749e-34
-2.0207582e-33
-6.0649077e-22
-1.2123282e-21
1.2116456e-21
-6.0546737e-22
-6.0509861e-22
6.0471689e-22
-6.0432318e-22
8.582173e-38
6.0349783e-22
6.0306688e-22
-6.0262362e-22
-6.0216844e-22
6.0170138e-22
-6.0122207e-22
-8.5368939e-38
6.002276e-22
0
0
0
1.196217e-21
-5.9755366e-22
-1.1939795e-21
5.9641788e-22
-5.9583866e-22
-5.9525264e-22
1.189321e-21
2.3123895e-52
-5.9346024e-22
5.9285349e-22
1.1844867e-21
5.9163005e-22
-1.7730429e-21
5.9039685e-22
3.2210867e-51
-1.7674746e-21
1.1770756e-21
5.8791765e-22
5.8729826e-22
1.1733609e-21
-1.1721288e-21
-5.8545026e-22
-5.8483903e-22
5.8423126e-22
5.8362737e-22
-1.7490835e-21
5.8243356e-22
5.8184511e-22
-5.8126281e-22
-5.8068775e-22
-8.2440105e-38
1.7386852e-21
-5.7901226e-22
9.631246e-34
-9.6257224e-34
-1.732279e-21
5.7692115e-22
5.7642894e-22
1.1519012e-21
-5.7548662e-22
-1.1500759e-21
1.1492107e-21
-5.7418907e-22
5.7379019e-22
5.7340933e-22
-1.7191406e-21
5.7270342e-22
5.7237967e-22
-1.1441517e-21
-5.7179295e-22
5.7153181e-22
1.7138768e-21
-5.7107507e-22
-2.2835239e-21
3.1678743e-34
1.141126e-21
5.7043977e-22
0
1.1405355e-21
1.2659e-33
-1.7105945e-21
5.7020185e-22
-1.2660891e-33
5.7029006e-22
5.7037405e-22
-1.1409694e-21
0
0
0
-5.7119985e-22
3.1727763e-34
1.1434434e-21
-5.7202436e-22
-1.1447084e-21
1.7181364e-21
-1.9086777e-33
-1.1470227e-21
5.73952e-22
0
0
0
1.1519867e-21
-5.7657297e-22
-1.1543597e-21
1.7334425e-21
-1.6441295e-37
-1.1583324e-21
0
0
-5.8139344e-22
3.2324124e-34
1.1660142e-21
-5.8385107e-22
-1.1694385e-21
1.7568319e-21
-9.7653165e-34
-1.1749248e-21
5.8842072e-22
-5.8939943e-22
1.1807962e-21
5.9141618e-22
-1.9729674e-33
-5.9350611e-22
-1.1891543e-21
1.7869941e-21
-3.3922662e-37
-5.9789049e-22
3.3250013e-34
-6.0016717e-22
-6.0132786e-22
3.344304e-34
1.8110071e-21
-1.7190912e-37
-1.8181195e-21
1.2144639e-21
-2.7881313e-51
-1.2192473e-21
6.1082223e-22
-6.1201985e-22
1.2264322e-21
6.1441033e-22
-1.3669959e-33
-6.1678678e-22
-1.2359344e-21
-6.1914004e-22
-6.2030451e-22
1.86438e-21
0
-6.2373788e-22
-3.468438e-34
3.4745736e-34
-3.4797314e-34
6.2812635e-22
-6.9848778e-34
6.3021824e-22
-2.1022921e-33
-1.8966753e-21
1.2663904e-21
1.902422e-21
6.3505925e-22
-1.9078536e-21
-1.2736308e-21
1.9129483e-21
-6.3845257e-22
-1.9176723e-21
0
0
6.4133249e-22
6.4196264e-22
0
-6.4310812e-22
-6.436204e-22
1.2881817e-21
-1.4310263e-33
-1.934706e-21
7.1631476e-34
6.4553248e-22
6.4577774e-22
6.459742e-22
-6.4612117e-22
-6.4621777e-22
6.4626276e-22
1.9387653e-21
-6.4619434e-22
-2.5843175e-21
6.4590969e-22
1.2913684e-21
6.4540173e-22
0
-6.4466217e-22
0
-6.4368883e-22
6.4311132e-22
-1.426485e-33
6.417729e-22
-2.1348588e-33
-1.9205586e-21
6.3929821e-22
6.3834695e-22
-6.3733163e-22
-6.3625165e-22
6.3510691e-22
1.9016901e-21
-6.3262063e-22
-2.5251148e-21
1.049057e-33
6.2839604e-22
1.2537109e-21
6.2524838e-22
-1.2471501e-21
-3.4516622e-34
-8.8111665e-38
6.1815926e-22
-1.3682003e-33
-6.1422008e-22
1.8364586e-21
-6.7721545e-34
-1.2156463e-21
0
0
-6.0084465e-22
3.3215203e-34
1.1917451e-21
-5.9329184e-22
-1.1812963e-21
-5.8794162e-22
6.4946398e-34
1.7470234e-21
5.7944875e-22
-5.7649544e-22
1.146964e-21
-3.2424015e-37
-1.8894533e-33
-5.6408736e-22
-1.1216804e-21
1.672608e-21
-6.1537689e-34
-1.1015197e-21
0
0
1.0803726e-21
-1.1913169e-33
-5.9141908e-34
-1.503907e-37
-1.5760713e-21
-1.0430488e-21
8.6214e-34
1.5411374e-21
5.097351e-22
-5.0571114e-22
1.0032818e-21
5.5218767e-34
-1.6429968e-33
-4.8916527e-22
-9.6984159e-22
1.4419056e-21
-4.7630981e-22
-4.7194513e-22
4.6754291e-22
-4.6310331e-22
9.1725415e-22
-5.0413822e-34
-4.4957108e-22
-6.3237187e-38
-8.8076152e-22
8.7147388e-22
-7.1769281e-34
-8.5271095e-22
4.2162001e-22
0
-4.1206327e-22
-2.2599402e-34
1.2072006e-21
-3.9753065e-22
-7.8527516e-22
-3.8772069e-22
-3.8278074e-22
3.7781831e-22
3.7283413e-22
3.678294e-22
-3.6280449e-22
1.985842e-34
-1.9572409e-34
3.4761791e-22
-3.8034778e-34
3.3740847e-22
-1.106645e-33
-9.8141253e-22
6.4396113e-22
1.9939018e-51
-3.1162684e-22
-3.4014226e-34
1.6724577e-34
8.8802579e-22
-2.9078261e-22
-8.5664296e-22
0
0
2.6978964e-22
2.6451926e-22
5.1847921e-22
-2.5395122e-22
-4.9730924e-22
4.8670115e-22
-2.3804126e-22
-6.9818477e-22
2.2741186e-22
2.2209281e-22
2.1677216e-22
2.1144942e-22
-4.1224889e-22
-2.0079578e-22
1.9546136e-22
5.7036278e-22
-1.8477457e-22
-2.7846058e-50
-2.8981212e-34
-3.3741408e-22
3.266848e-22
3.1594523e-22
-1.5259607e-22
-2.9442155e-22
2.8363435e-22
1.3641621e-22
-3.9302586e-22
-3.7678695e-22
1.2017936e-22
2.2952483e-22
1.0934558e-22
-5.7687992e-35
-1.9701933e-22
-9.308528e-23
8.7648741e-23
1.6439665e-22
-1.0904017e-38
-1.4249572e-22
1.3151792e-22
-1.0036511e-34
-1.0950838e-22
4.9241635e-23
8.7428529e-23
7.6339245e-23
0
-2.7034046e-23
-6.4389198e-23
-1.58965e-23
1.0301379e-23
0
0
0
0
1.7998776e-23
-1.3156081e-35
-8.8230338e-23
3.5123091e-23
1.2254749e-22
4.6601823e-23
-8.7259418e-35
-1.1645365e-22
-6.4109854e-23
7.0038419e-23
-1.5200524e-22
-8.1985656e-23
2.9300249e-34
9.3940831e-23
1.9980655e-22
-3.1763134e-22
3.1803051e-38
1.1799886e-22
-1.764972e-38
1.3048554e-22
1.3682105e-22
-1.58928e-34
-4.4840298e-22
4.4266619e-38
4.8612046e-22
3.3678094e-22
-9.6998889e-35
-3.6278127e-22
-1.880211e-22
1.9468896e-22
-4.0272473e-22
-2.0803722e-22
7.1511105e-34
2.2149607e-22
4.5667686e-22
-7.0579255e-22
2.6900487e-34
2.4927375e-22
2.5631812e-22
2.633952e-22
1.5008938e-34
-1.5413811e-34
-5.7017419e-22
-1.6231955e-34
5.9994686e-22
-6.1493358e-22
1.5735708e-33
9.6747432e-22
-6.6015545e-22
3.7507779e-34
6.9122741e-22
-3.5358715e-22
-3.6165107e-22
-7.394874e-22
3.7781886e-22
1.1576293e-21
0
0
0
-1.2572294e-21
-1.2832235e-21
1.3093522e-21
1.3354427e-21
-9.0766517e-22
1.3146875e-37
-4.7142158e-22
1.6003906e-33
1.4689103e-21
-1.496776e-21
2.5395347e-33
1.0352438e-21
2.9247582e-34
-2.9792091e-34
-1.0925223e-21
5.5606184e-22
-5.6594443e-22
1.9182892e-33
1.7577273e-21
-1.7882112e-21
-6.0640527e-22
1.3696735e-33
-1.2548446e-21
1.2758513e-21
6.483867e-22
6.5890813e-22
2.0089704e-21
-7.5574724e-34
-6.9221356e-22
-2.1116014e-21
4.765935e-33
2.1809803e-21
0
-7.4975979e-22
-1.5228501e-21
7.7344824e-22
-7.8578082e-22
2.6586628e-33
1.621736e-21
-2.4705983e-21
1.8567922e-33
9.4356596e-34
9.5789866e-34
9.7276286e-34
-8.8949721e-22
2.7078493e-21
2.7475681e-21
-9.296096e-22
-1.8883362e-21
0
9.7521551e-22
-1.099546e-33
2.2325913e-33
-1.1321336e-33
-1.03409e-21
1.0491381e-21
1.0653975e-21
-3.2484173e-21
9.2004754e-50
1.8631792e-33
-1.1358637e-21
1.2786878e-33
-2.3377927e-21
2.3721865e-21
2.4089295e-21
1.2240191e-21
-1.3812731e-33
-1.2650059e-21
0
0
0
-2.6927505e-21
1.3676226e-21
2.7794408e-21
-4.2378785e-21
1.4361921e-21
4.3807694e-21
-4.4541679e-21
5.027681e-33
3.0700761e-21
-4.6835709e-21
-3.176383e-21
0
3.2891971e-21
5.5735735e-33
1.7030888e-21
3.4658567e-21
-1.7634151e-21
0
-3.6553864e-21
-5.2921422e-37
-2.1068753e-33
1.9349032e-21
5.9184006e-21
-6.0331594e-21
3.4145174e-33
6.2644519e-21
-6.383585e-21
1.0839368e-32
4.4265845e-21
-2.259708e-21
2.308167e-21
-4.7157498e-21
-2.4081334e-21
1.0918385e-32
2.5101667e-21
5.1261031e-21
2.6179757e-21
2.6752026e-21
-5.4696703e-21
-2.7970009e-21
0
2.9292187e-21
-1.664872e-33
1.3831445e-50
-3.1400449e-21
9.1288075e-37
-3.2860951e-21
1.8451018e-49
1.0343271e-20
-1.0607972e-20
-1.088215e-20
7.4396341e-21
7.6243265e-21
0
-8.0028154e-21
4.1029811e-21
1.2632878e-20
-1.2973811e-20
7.3982247e-33
9.1225718e-21
-4.6817348e-21
0
4.9311373e-21
5.0639672e-21
-5.2036191e-21
8.9083348e-33
-1.1001197e-20
-3.2145169e-36
1.7436461e-20
0
-1.8413442e-20
-1.2620465e-20
1.9473442e-20
1.3360959e-20
-2.0629831e-20
-7.0772138e-21
2.9123127e-20
7.4879287e-21
-1.5402703e-20
-1.5848667e-20
9.0575424e-33
8.4043482e-21
8.6582579e-21
8.9174515e-21
-9.1803817e-21
1.0488965e-32
-1.9448697e-20
3.3345796e-32
3.0942501e-20
0
0
-2.2573976e-20
2.5816754e-32
1.1972597e-20
-3.6988511e-20
1.2699977e-20
2.178717e-32
4.4917519e-32
4.1704217e-20
-1.4327127e-20
8.1922809e-33
-1.6883494e-32
-1.5666237e-20
1.6139442e-20
-2.3632948e-36
9.5135685e-33
-1.9608873e-32
-1.8207138e-20
0
1.9331128e-20
-3.982993e-20
-2.0516593e-20
4.2277109e-20
0
-2.2446651e-20
2.3130361e-20
4.7664651e-20
-7.3657268e-20
8.4247718e-32
8.6766852e-32
-2.6837901e-20
8.2946928e-20
-4.0475676e-36
-2.9338714e-20
-3.0218727e-20
3.1123112e-20
3.2054302e-20
-3.3012016e-20
0
3.5011996e-20
-7.210673e-20
6.1827296e-32
3.8219561e-20
8.7376049e-32
8.9933107e-32
1.1853546e-35
8.5869755e-20
-1.3258552e-19
-1.3645908e-19
0
9.6341486e-20
1.487141e-19
7.24947e-36
-5.2495961e-20
-5.4015325e-20
5.5569746e-20
5.7160572e-20
-5.8792375e-20
0
-1.2439629e-19
-1.2794891e-19
1.9738768e-19
6.7659083e-20
-6.9563789e-20
2.0325434e-35
7.3514871e-20
1.5114373e-19
7.7686036e-20
-1.3299979e-31
-3.2830339e-19
2.8091108e-31
2.6000266e-19
-8.904455e-20
-9.1482259e-20
-9.3984035e-20
9.6550236e-20
9.9178919e-20
1.0186786e-19
2.9733842e-35
-1.0742758e-19
1.1030483e-19
-3.3975779e-19
-2.325465e-19
3.5810012e-19
-1.2253137e-19
-2.5153192e-19
2.5814235e-19
-1.3245004e-19
1.359068e-19
2.7888996e-19
-4.2919792e-19
1.4676901e-19
-5.0149429e-31
-4.6324904e-19
3.1672479e-19
1.6239479e-19
1.6651785e-19
3.4146844e-19
-1.75044e-19
1.7395933e-74
-3.6787516e-19
-1.8852086e-19
2.1448006e-31
1.9797631e-19
4.057146e-19
-4.1568689e-19
2.1293401e-19
6.5438227e-19
-6.7027001e-19
-2.2882371e-19
-2.8923295e-47
-2.3995302e-19
7.3706519e-19
2.5153915e-19
-2.5750521e-19
-5.2717418e-19
2.6978667e-19
-2.7610656e-19
9.4101662e-31
5.7822897e-19
-8.8741022e-19
-3.3612224e-31
1.3747939e-30
-7.0291872e-31
6.4766696e-19
-6.6235332e-19
3.386554e-19
1.3850677e-18
-3.5401004e-19
-7.2377476e-19
0
-7.5613918e-19
8.5789197e-31
2.2444649e-34
4.4790485e-31
4.1221844e-19
4.2111812e-19
-4.3016588e-19
-4.3936787e-19
8.974582e-19
-9.1650316e-19
5.1947834e-31
9.5555152e-19
-9.7554919e-19
-1.6583407e-30
5.6423581e-31
5.1873517e-19
1.0587763e-18
-5.4021231e-19
5.5120864e-19
-3.1216183e-31
-5.7371561e-19
-1.1704495e-18
5.9690532e-19
1.2175209e-18
-6.2079436e-19
6.3301058e-19
-1.0749391e-30
6.5799336e-19
1.489666e-30
-1.367402e-18
-1.3936529e-18
-1.576518e-30
2.4102449e-30
-2.4558461e-30
7.5121012e-19
7.6528314e-19
7.7954538e-19
-7.9399737e-19
0
0
8.385165e-19
-4.7389606e-31
-1.235179e-34
-9.8226951e-31
-9.0062995e-19
0
9.3287682e-19
1.8986056e-18
-9.6592993e-19
-1.9655143e-18
-1.999569e-18
-2.0340275e-18
3.1033429e-18
3.5039332e-30
-3.2098053e-18
2.1759731e-18
2.2124806e-18
0
1.1433561e-18
-2.3244465e-18
-1.1812997e-18
2.4011693e-18
1.2200755e-18
-1.3763328e-30
-3.7790005e-18
1.279769e-18
3.900238e-18
-3.9617974e-18
-1.3413271e-18
4.0867794e-18
-1.5355812e-30
-1.4047298e-18
-2.8525377e-18
-1.6071049e-30
2.9399381e-18
-2.9842604e-18
1.5144941e-18
4.6111693e-18
0
-1.5827724e-18
-3.211861e-18
9.04844e-31
-1.6528567e-18
-3.3532417e-18
3.4011597e-18
3.4494609e-18
0
1.7736069e-18
1.996427e-30
2.0243567e-30
2.0519822e-30
-5.6210572e-18
-3.7983526e-18
0
3.9014116e-18
4.3884164e-30
2.0029723e-18
6.0881424e-18
-2.0559684e-18
1.155778e-30
-2.9980161e-34
-2.1367734e-18
-4.3281053e-18
2.1915033e-18
4.4382461e-18
-2.2469082e-18
0
-4.6059253e-18
2.3312299e-18
7.07897e-18
-2.3882411e-18
-2.4169789e-18
-4.8917305e-18
2.4748962e-18
7.5122112e-18
-2.5333885e-18
2.8447897e-30
5.1849111e-18
-2.6221979e-18
-2.6520717e-18
-5.364144e-18
-8.1365896e-18
5.4848908e-18
5.5456374e-18
-5.6066295e-18
-3.1452867e-30
5.7293131e-18
-5.790984e-18
-3.2487852e-30
5.9149554e-18
0
-6.0397447e-18
-6.1024296e-18
0
9.3425074e-18
3.1457754e-18
9.0308982e-34
3.2092339e-18
3.2410778e-18
3.6325881e-30
-6.6099448e-18
-6.6740359e-18
1.1220729e-29
6.8025933e-18
-6.867043e-18
-1.1542678e-29
6.996224e-18
0
0
0
0
-7.3205655e-18
-4.1006271e-30
7.4506974e-18
3.7579044e-18
-7.5809495e-18
1.2734702e-29
7.7113053e-18
-7.7764967e-18
-4.3538405e-30
3.9534163e-18
-7.9719627e-18
1.3385834e-29
8.1021454e-18
-8.1671884e-18
-8.2321812e-18
8.297107e-18
8.3619539e-18
0
0
0
0
4.342449e-18
-4.3745864e-18
-4.4066562e-18
4.9275832e-30
1.4083481e-73
4.5024488e-18
9.0684725e-18
4.5659416e-18
-9.195111e-18
-1.3887214e-17
4.6604877e-18
9.3836126e-18
-1.4169086e-17
-9.5083034e-18
1.4355502e-17
9.6321282e-18
4.8468332e-18
5.4147339e-30
-9.8159574e-18
0
4.968615e-18
-4.9987382e-18
1.1165287e-29
1.4377264e-33
1.6944652e-29
5.1177328e-18
5.1470843e-18
-1.4711865e-33
-1.041062e-17
-1.0468355e-17
1.7526271e-29
1.0582778e-17
0
0
0
5.4035709e-18
5.4311376e-18
-5.4585099e-18
-5.4856834e-18
5.5126513e-18
-1.1078813e-17
-1.6697827e-17
0
1.1236703e-17
6.2643445e-30
5.66988e-18
1.7085925e-17
-5.7205038e-18
9.5674996e-30
-1.154034e-17
3.8600844e-29
1.1637707e-17
3.243213e-30
8.3368744e-34
-5.8900287e-18
5.913246e-18
-1.18724e-17
-5.9588866e-18
1.1962609e-17
-1.2006907e-17
-1.7125029e-33
6.7147454e-30
6.0682797e-18
1.8268009e-17
-1.2220217e-17
1.9502217e-48
-6.1507877e-18
1.0277365e-29
1.2380623e-17
-6.2096395e-18
-1.2457348e-17
6.9337985e-30
1.8797525e-17
-1.7860111e-33
-6.3017882e-18
6.319304e-18
-1.2673031e-17
-6.3534204e-18
1.2740028e-17
-1.2772583e-17
-7.1056519e-30
3.5626e-29
-1.4285521e-29
1.2896442e-17
-1.2925814e-17
6.4772702e-18
1.2982613e-17
-6.5050157e-18
6.5183984e-18
-1.3062913e-17
1.0899426e-29
1.9669772e-17
0
0
-1.9775347e-17
-6.6028445e-18
1.3227154e-17
-1.3247958e-17
-3.771019e-33
2.9502393e-29
7.3860145e-30
1.3324395e-17
-1.3341802e-17
-1.335854e-17
6.6873038e-18
2.0085001e-17
6.702355e-18
-6.7093652e-18
0
0
6.7283499e-18
-3.7378827e-30
-2.0217939e-17
-1.9168405e-33
1.3497824e-17
6.7532009e-18
-7.4995464e-30
-2.0282304e-17
-1.5018232e-29
1.3533955e-17
0
6.7718276e-18
-1.35475e-17
-6.775343e-18
1.5048051e-29
6.7775298e-18
1.355623e-17
-6.778362e-18
0
0
0
0
6.7744362e-18
-3.7593424e-30
-2.031169e-17
6.7681389e-18
2.0296176e-17
-2.0286973e-17
-6.7589387e-18
1.3510474e-17
6.7512204e-18
1.123415e-29
-2.0226732e-17
3.8297039e-33
2.2422604e-29
6.7264428e-18
1.3441124e-17
6.7143787e-18
7.4448758e-30
-6.7011099e-18
-6.6940257e-18
-6.686644e-18
-6.6789669e-18
1.4811642e-29
1.3325479e-17
0
0
6.636252e-18
1.1034284e-29
9.4035786e-34
-9.3894355e-34
-6.5970021e-18
-1.3173011e-17
-1.3151478e-17
1.312941e-17
7.2790007e-30
6.5418431e-18
1.959007e-17
0
0
-6.4930382e-18
-6.4802056e-18
0
6.4537998e-18
-3.5748205e-30
-6.4264376e-18
6.4124054e-18
-1.279628e-17
2.126044e-29
1.9106746e-17
-6.3539621e-18
-6.3387884e-18
-1.2646798e-17
6.307797e-18
1.887595e-17
-6.2759594e-18
3.4755138e-30
-1.2486579e-17
-6.2266497e-18
1.2419625e-17
-1.2385563e-17
-2.6729382e-47
1.2316306e-17
0
0
-1.2209649e-17
6.75023e-30
2.0213918e-29
-2.8650984e-47
1.8093763e-17
6.6755837e-30
-5.9934779e-18
-1.1948701e-17
-1.1910132e-17
1.1871257e-17
1.3135409e-29
5.8963092e-18
1.9574556e-29
-5.8564279e-18
1.1672564e-17
0
5.7955867e-18
-6.4095341e-30
-5.7543747e-18
-1.1467174e-17
-6.3403246e-30
1.1383339e-17
0
0
5.6279598e-18
-3.1120387e-30
-1.6754873e-17
-6.1761196e-30
1.108314e-17
0
-5.4978238e-18
5.4758221e-18
5.4537382e-18
5.4315748e-18
5.4093346e-18
-1.0774041e-17
-1.6093907e-17
5.342183e-18
1.0639331e-17
-1.5891262e-17
-8.7394014e-48
1.0503519e-17
0
0
0
0
-1.0275109e-17
-1.0229164e-17
5.0915748e-18
1.5205606e-17
5.6041013e-30
-5.022367e-18
9.998484e-18
9.9521849e-18
-4.9529213e-18
-1.9718929e-17
-9.8130566e-18
1.4649938e-17
9.7201759e-18
-1.4510569e-17
-1.0686331e-29
9.580761e-18
0
0
0
-9.3948835e-18
-5.1891029e-30
1.0328016e-29
-4.6278424e-18
1.3814024e-17
-4.5815259e-18
-4.558398e-18
1.3605883e-17
9.0244378e-18
-4.4891745e-18
-8.9323264e-18
-8.8863733e-18
1.4723949e-29
-4.8829707e-30
1.243303e-33
8.703332e-18
0
4.3061749e-18
4.2835062e-18
-4.2608913e-18
-4.2383321e-18
4.2158305e-18
4.1933888e-18
-8.3420196e-18
-4.148697e-18
4.1264531e-18
-4.10428e-18
4.0821799e-18
8.1203087e-18
0
0
-1.1983649e-17
-3.9728493e-18
7.9024745e-18
3.9297156e-18
3.9082861e-18
-7.7739011e-18
4.2937254e-30
7.6891493e-18
0
-3.802614e-18
-1.1345386e-17
-8.3496868e-30
2.0764692e-29
-7.4400221e-18
1.1098955e-17
3.6794163e-18
1.0400376e-33
-3.6393254e-18
6.0262194e-30