/*--------------------------------*- C++ -*----------------------------------*\
  =========                 |
  \\      /  F ield         | OpenFOAM: The Open Source CFD Toolbox
   \\    /   O peration     | Website:  https://openfoam.org
    \\  /    A nd           | Version:  7
     \\/     M anipulation  |
\*---------------------------------------------------------------------------*/
FoamFile
{
    version     2.0;
    format      ascii;
    class       volVectorField;
    location    "0.00295";
    object      U;
}
// * * * * * * * * * * * * * * * * * * * * * * * * * * * * * * * * * * * * * //

dimensions      [0 1 -1 0 0 0 0];

internalField   nonuniform List<vector> 
5000
(
(23.172917 1.7727585e-21 0)
(23.172917 2.5052462e-21 0)
(23.172916 0 0)
(23.172915 0 0)
(23.172915 -1.2117272e-21 0)
(23.172915 1.3173717e-36 -1.1587724e-21)
(23.172915 1.0444095e-21 -2.2262928e-36)
(23.172915 0 3.0931787e-21)
(23.172915 0 1.1383384e-21)
(23.172914 -1.1988412e-21 -2.3976823e-21)
(23.172914 -2.4427536e-21 -2.4427536e-21)
(23.172914 1.2275987e-21 1.2275987e-21)
(23.172913 1.2281618e-21 -1.0471937e-35)
(23.172913 -1.2264401e-21 -1.0805832e-35)
(23.172913 0 2.446372e-21)
(23.172912 -1.2186983e-21 -2.4373966e-21)
(23.172912 -4.4143261e-51 -2.207163e-51)
(23.172912 1.2072945e-21 -1.0637146e-35)
(23.172912 0 -1.2008908e-21)
(23.172911 1.1948478e-21 2.3896956e-21)
(23.172911 -1.1905102e-21 1.1905102e-21)
(23.172911 -1.1828631e-21 0)
(23.172911 2.35085e-21 0)
(23.17291 -1.1785626e-21 -1.1785626e-21)
(23.17291 -1.1890468e-21 1.0138423e-35)
(23.17291 -9.8869503e-36 -9.8869503e-36)
(23.17291 1.2068671e-21 -1.2068671e-21)
(23.172909 1.2116396e-21 1.2116396e-21)
(23.172909 -2.4258358e-21 1.2129179e-21)
(23.172909 2.0981531e-35 -1.2102e-21)
(23.172908 -2.1063223e-35 2.1063223e-35)
(23.172908 1.1985066e-21 -1.0219082e-35)
(23.172908 2.3850431e-21 -1.1925216e-21)
(23.172908 -2.3741796e-21 1.1870898e-21)
(23.172907 2.0473444e-35 1.1808939e-21)
(23.172907 -1.0247759e-34 0)
(23.172907 -4.1014717e-35 0)
(23.172907 2.3821739e-21 -1.191087e-21)
(23.172906 -2.3991727e-21 -1.1995864e-21)
(23.172906 -2.410888e-21 1.205444e-21)
(23.172906 2.4087131e-21 -2.0195624e-35)
(23.172905 -8.2329042e-35 -1.1969817e-21)
(23.172905 -2.376116e-21 1.188058e-21)
(23.172905 1.181134e-21 -1.997406e-35)
(23.172905 3.5155544e-21 -1.1718515e-21)
(23.172904 -1.1654173e-21 1.1654173e-21)
(23.172904 -1.171522e-21 -4.0288957e-35)
(23.172904 -8.1121772e-35 4.0560886e-35)
(23.172903 -2.3921548e-21 -4.1133423e-35)
(23.172903 0 2.0479054e-35)
(23.172903 1.1954591e-21 1.1954591e-21)
(23.172903 1.682336e-37 0)
(23.172902 -1.174519e-21 0)
(23.172902 2.3237534e-21 0)
(23.172902 -4.0343827e-35 0)
(23.172902 -2.3276537e-21 0)
(23.172901 1.1807461e-21 0)
(23.172901 -4.1291174e-35 0)
(23.172901 -1.1974308e-21 0)
(23.1729 0 0)
(23.1729 1.1711662e-21 0)
(23.1729 3.9391422e-35 0)
(23.1729 3.2519684e-37 0)
(23.1729 1.1527133e-21 -1.1527133e-21)
(23.172899 -1.1713676e-21 -1.1713676e-21)
(23.172899 4.1551031e-35 1.1885748e-21)
(23.172899 1.1929755e-21 -2.0513375e-35)
(23.172898 -1.1831599e-21 -6.5499557e-52)
(23.172898 -1.1709679e-21 1.1709679e-21)
(23.172898 1.1582706e-21 0)
(23.172898 1.1482161e-21 0)
(23.172897 -1.1511325e-21 -1.1511325e-21)
(23.172897 -1.1647495e-21 -1.1647495e-21)
(23.172897 2.3570251e-21 0)
(23.172896 1.1854159e-21 1.1854159e-21)
(23.172896 -1.182246e-21 4.0825765e-35)
(23.172896 0 -1.1734875e-21)
(23.172896 1.1669074e-21 -1.1669074e-21)
(23.172895 -1.6470916e-37 1.1590377e-21)
(23.172895 -1.1531673e-21 2.3063346e-21)
(23.172895 1.1578621e-21 -2.3157242e-21)
(23.172895 -3.3215869e-37 6.6431737e-37)
(23.172894 3.3490606e-37 3.5350378e-21)
(23.172894 1.178898e-21 -2.3577959e-21)
(23.172894 1.1712887e-21 -1.218415e-34)
(23.172894 4.0527358e-35 2.3280484e-21)
(23.172893 -1.1562088e-21 -3.4686264e-21)
(23.172893 0 1.1500162e-21)
(23.172893 -1.1526222e-21 1.1526222e-21)
(23.172893 -1.2055324e-34 -1.1620794e-21)
(23.172892 -4.0966247e-35 1.1718469e-21)
(23.172892 1.1735993e-21 1.1735993e-21)
(23.172892 1.1668542e-21 4.0625889e-35)
(23.172891 -2.3193176e-21 -2.3193176e-21)
(23.172891 -7.9747102e-35 -7.9747102e-35)
(23.172891 1.1466296e-21 -1.1466296e-21)
(23.172891 0 -1.1489768e-21)
(23.17289 0 -4.0638757e-35)
(23.17289 -1.1637852e-21 8.1038077e-35)
(23.17289 -8.0686702e-35 2.3269762e-21)
(23.17289 2.3203734e-21 1.1601867e-21)
(23.172889 -1.1549932e-21 -1.1549932e-21)
(23.172889 -2.3016599e-21 1.6354277e-37)
(23.172889 0 1.1515571e-21)
(23.172889 1.1567774e-21 0)
(23.172888 1.1596965e-21 -1.1596965e-21)
(23.172888 -1.1558006e-21 -4.0241041e-35)
(23.172888 -1.1502371e-21 1.1502371e-21)
(23.172888 0 -1.1434578e-21)
(23.172887 0 -1.1385699e-21)
(23.172887 1.1426986e-21 2.2853972e-21)
(23.172887 1.1519286e-21 1.1519286e-21)
(23.172887 0 -3.4712533e-21)
(23.172886 -1.1539964e-21 -1.1539964e-21)
(23.172886 4.0156274e-35 3.4460324e-21)
(23.172886 1.1438084e-21 -1.1438084e-21)
(23.172886 -1.140416e-21 -1.140416e-21)
(23.172885 3.2458808e-37 -6.4917615e-37)
(23.172885 -4.0101973e-35 -1.1471242e-21)
(23.172885 -9.416845e-53 3.4523422e-21)
(23.172884 2.3005811e-21 -8.0425331e-35)
(23.172884 -4.8837504e-37 -2.2910892e-21)
(23.172884 -1.1425199e-21 2.2850399e-21)
(23.172884 0 1.1428817e-21)
(23.172883 -1.1411606e-21 -1.1411606e-21)
(23.172883 1.1383561e-21 1.1383561e-21)
(23.172883 1.1357238e-21 -1.1357238e-21)
(23.172883 -2.2665508e-21 -2.2665508e-21)
(23.172882 -1.1317534e-21 1.1317534e-21)
(23.172882 2.2639143e-21 3.9089171e-35)
(23.172882 1.1351891e-21 1.1351891e-21)
(23.172882 -1.1415481e-21 2.2830962e-21)
(23.172881 -1.1501695e-21 -1.1501695e-21)
(23.172881 -1.1604919e-21 -1.1604919e-21)
(23.172881 0 -1.1708589e-21)
(23.172881 1.1822415e-21 -4.1161623e-35)
(23.17288 1.1768294e-21 -4.0805952e-35)
(23.17288 -1.1376321e-21 3.9608475e-35)
(23.172881 -2.5253967e-35 1.4566311e-21)
(23.17288 7.6098999e-22 7.6098999e-22)
(23.172879 -1.2232051e-21 -1.2232051e-21)
(23.172879 -1.1883812e-21 -2.3767623e-21)
(23.172879 0 -1.0955682e-21)
(23.172879 1.1040444e-21 -1.1040444e-21)
(23.172878 1.1421247e-21 7.9205174e-35)
(23.172878 -1.1156114e-21 2.2312227e-21)
(23.172878 1.1000237e-21 -3.1264554e-37)
(23.172878 -6.2919372e-37 3.1459686e-37)
(23.172877 -1.1224027e-21 7.2375518e-52)
(23.172877 1.1277042e-21 1.1277042e-21)
(23.172877 -1.119634e-21 -7.7645464e-35)
(23.172876 7.7262072e-35 1.5452414e-34)
(23.172876 1.0993954e-21 1.0993954e-21)
(23.172876 -1.0918622e-21 -1.0918622e-21)
(23.172876 1.0949326e-21 1.0949326e-21)
(23.172876 1.1063988e-21 3.8363808e-35)
(23.172875 -1.1171834e-21 -1.1171834e-21)
(23.172875 0 1.1187561e-21)
(23.172875 0 -1.5795876e-37)
(23.172874 -1.1041858e-21 -1.1041858e-21)
(23.172874 -1.0957989e-21 0)
(23.172874 1.0894559e-21 1.0894559e-21)
(23.172874 1.0934205e-21 7.5672199e-35)
(23.172874 -1.1041712e-21 -2.2083424e-21)
(23.172873 -7.7005305e-35 1.110403e-21)
(23.172873 1.1076626e-21 -3.1481665e-37)
(23.172873 -1.10059e-21 -1.10059e-21)
(23.172873 -1.0921434e-21 1.0921434e-21)
(23.172872 0 -1.0844158e-21)
(23.172872 1.0830657e-21 1.0830657e-21)
(23.172872 1.0905437e-21 -4.5438838e-34)
(23.172872 0 -3.0449673e-34)
(23.172871 -1.0996562e-21 1.0996562e-21)
(23.172871 -1.09719e-21 -2.1943801e-21)
(23.172871 0 0)
(23.172871 1.088664e-21 -7.5497727e-35)
(23.17287 2.2650509e-34 -2.2650509e-34)
(23.17287 -1.089966e-21 1.089966e-21)
(23.17287 1.0891031e-21 1.0891031e-21)
(23.17287 1.0867281e-21 7.4900176e-35)
(23.172869 -1.0805577e-21 -1.0805577e-21)
(23.172869 -7.4272044e-35 1.0753972e-21)
(23.172869 7.4162977e-35 7.4162977e-35)
(23.172869 4.6239513e-37 4.6239513e-37)
(23.172868 1.0866988e-21 1.5056846e-34)
(23.172868 -1.0808255e-21 -2.1616511e-21)
(23.172868 -1.4865434e-34 1.0717847e-21)
(23.172868 7.2994689e-35 1.0612696e-21)
(23.172867 -7.2675907e-35 -7.2675907e-35)
(23.172867 1.0656452e-21 7.3447084e-35)
(23.172867 0 -2.2424885e-34)
(23.172867 0 7.4792991e-35)
(23.172866 -1.0751922e-21 -1.0751922e-21)
(23.172866 -1.0655924e-21 0)
(23.172866 0 0)
(23.172866 0 0)
(23.172866 1.0529893e-21 0)
(23.172865 -8.1723618e-53 -1.0662299e-21)
(23.172865 -1.0739866e-21 2.2389746e-34)
(23.172865 0 1.0711679e-21)
(23.172865 1.0632514e-21 1.0632514e-21)
(23.172864 -1.0547386e-21 -1.0547386e-21)
(23.172864 -2.9001961e-34 -1.0465803e-21)
(23.172864 2.0887819e-21 2.0887819e-21)
(23.172864 -1.051571e-21 7.2775929e-35)
(23.172863 -2.2044297e-34 -2.2044297e-34)
(23.172863 -1.5142831e-37 -1.065582e-21)
(23.172863 -1.0602398e-21 -1.0602398e-21)
(23.172863 1.0531804e-21 1.0531804e-21)
(23.172862 -1.4860423e-37 0)
(23.172862 -1.439074e-34 1.0396903e-21)
(23.172862 7.2058332e-35 7.2058332e-35)
(23.172862 -1.049177e-21 -1.049177e-21)
(23.172862 0 -1.0547134e-21)
(23.172861 1.0532921e-21 1.4668817e-34)
(23.172861 7.2495725e-35 1.0475222e-21)
(23.172861 2.8873807e-34 -2.0807102e-21)
(23.172861 1.0334479e-21 1.0334479e-21)
(23.17286 0 1.0315068e-21)
(23.17286 -1.0375929e-21 -1.0375929e-21)
(23.17286 -1.0444924e-21 1.0444924e-21)
(23.17286 0 0)
(23.172859 0 0)
(23.172859 0 0)
(23.172859 1.0329254e-21 1.0329254e-21)
(23.172859 7.1270495e-35 -1.0298183e-21)
(23.172859 -1.0328503e-21 -2.0657006e-21)
(23.172858 0 1.0365793e-21)
(23.172858 0 -7.2069937e-35)
(23.172858 1.0350129e-21 1.0350129e-21)
(23.172858 1.0313775e-21 1.0313775e-21)
(23.172857 -1.0285832e-21 -2.0571664e-21)
(23.172857 -1.0284784e-21 2.9231114e-37)
(23.172857 0 -2.9278876e-37)
(23.172857 1.0304175e-21 1.0304175e-21)
(23.172857 1.0288933e-21 1.0288933e-21)
(23.172856 -1.0260961e-21 -2.0521923e-21)
(23.172856 -1.0241353e-21 1.4553838e-37)
(23.172856 0 -2.1349349e-34)
(23.172856 1.0256579e-21 1.0256579e-21)
(23.172855 -2.8415087e-34 -5.6830173e-34)
(23.172855 -7.0672663e-35 -1.4134533e-34)
(23.172855 1.0137888e-21 1.0137888e-21)
(23.172855 -1.010428e-21 -1.010428e-21)
(23.172854 -1.0140525e-21 0)
(23.172854 0 -1.0188356e-21)
(23.172854 1.0195833e-21 1.0195833e-21)
(23.172854 -1.4113707e-34 1.015505e-21)
(23.172854 1.0090037e-21 -1.0090037e-21)
(23.172853 1.3902861e-34 0)
(23.172853 -2.0003729e-21 -1.0001864e-21)
(23.172853 1.006115e-21 1.006115e-21)
(23.172853 -1.404503e-34 1.0126344e-21)
(23.172852 -3.5205403e-34 -3.5205403e-34)
(23.172852 -6.9925503e-35 -2.0207679e-21)
(23.172852 -1.0052492e-21 -2.0104984e-21)
(23.172852 1.0001465e-21 3.0004394e-21)
(23.172852 9.9763865e-22 1.9952773e-21)
(23.172851 0 0)
(23.172851 -1.0057087e-21 -2.0114174e-21)
(23.172851 -1.0068354e-21 -1.0068354e-21)
(23.172851 0 1.0049952e-21)
(23.17285 1.002108e-21 1.002108e-21)
(23.17285 9.9999506e-22 9.9999506e-22)
(23.17285 -1.9986888e-21 -1.9986888e-21)
(23.17285 -1.0004859e-21 -2.0009717e-21)
(23.17285 1.0007687e-21 1.0007687e-21)
(23.172849 9.9916925e-22 1.9983385e-21)
(23.172849 2.7669972e-34 2.7669972e-34)
(23.172849 -9.9732093e-22 -1.9946419e-21)
(23.172849 9.9700577e-22 9.9700577e-22)
(23.172849 -6.9050598e-35 -1.381012e-34)
(23.172848 -9.939415e-22 -9.939415e-22)
(23.172848 9.9048903e-22 1.9809781e-21)
(23.172848 -6.8617452e-35 -9.8742821e-22)
(23.172848 6.8798185e-35 1.3759637e-34)
(23.172847 -2.8145585e-37 9.9028475e-22)
(23.172847 -6.8474832e-35 -9.9145842e-22)
(23.172847 9.8954772e-22 9.8954772e-22)
(23.172847 0 -1.970049e-21)
(23.172847 0 4.09023e-34)
(23.172846 -9.7887738e-22 1.9577548e-21)
(23.172846 -9.8351818e-22 -1.9670364e-21)
(23.172846 0 -6.8301788e-35)
(23.172846 0 9.8583935e-22)
(23.172845 0 0)
(23.172845 0 0)
(23.172845 9.7141828e-22 9.7141828e-22)
(23.172845 6.7001568e-35 -9.7212705e-22)
(23.172845 -1.957391e-21 -1.957391e-21)
(23.172844 4.1909166e-37 9.830318e-22)
(23.172844 9.8137522e-22 -2.7892361e-37)
(23.172844 9.7745694e-22 9.7745694e-22)
(23.172844 -1.3497648e-34 9.7217249e-22)
(23.172844 -1.3412395e-34 -9.6801376e-22)
(23.172843 -1.3769327e-37 0)
(23.172843 -9.7435273e-22 -9.7435273e-22)
(23.172843 -9.7845738e-22 -9.7845738e-22)
(23.172843 -9.7725862e-22 0)
(23.172843 1.9476185e-21 1.9476185e-21)
(23.172842 2.9117817e-21 9.7059389e-22)
(23.172842 -9.68081e-22 -1.936162e-21)
(23.172842 -1.9357731e-21 6.6984391e-35)
(23.172842 0 -2.7566307e-37)
(23.172841 9.7222734e-22 9.7222734e-22)
(23.172841 9.7304107e-22 9.7304107e-22)
(23.172841 -9.7188144e-22 -9.7188144e-22)
(23.172841 2.755913e-37 9.6965067e-22)
(23.172841 -4.1255173e-37 -9.6769156e-22)
(23.17284 2.7433041e-37 5.4866081e-37)
(23.17284 9.6282522e-22 1.9256504e-21)
(23.17284 9.6330921e-22 -9.6330921e-22)
(23.17284 -9.6582624e-22 -9.6582624e-22)
(23.17284 -1.9346665e-21 -9.6733324e-22)
(23.172839 9.6561116e-22 -1.3392828e-34)
(23.172839 8.997093e-53 9.6275663e-22)
(23.172839 9.5931294e-22 0)
(23.172839 2.6512555e-34 0)
(23.172839 -1.9177265e-21 -9.5886326e-22)
(23.172838 0 1.3351708e-34)
(23.172838 0 -2.6705399e-34)
(23.172838 1.9216197e-21 -1.3353543e-34)
(23.172838 -5.3180025e-34 9.5757717e-22)
(23.172838 -1.9100079e-21 -9.5500393e-22)
(23.172837 0 1.3579527e-37)
(23.172837 9.5732645e-22 9.5732645e-22)
(23.172837 9.5811276e-22 0)
(23.172837 -9.5735433e-22 0)
(23.172837 1.3561427e-37 0)
(23.172836 -1.3214066e-34 0)
(23.172836 1.3539601e-37 0)
(23.172836 9.5436586e-22 0)
(23.172836 -9.5454887e-22 0)
(23.172835 -9.5310352e-22 -9.5310352e-22)
(23.172835 0 0)
(23.172835 9.4501561e-22 9.4501561e-22)
(23.172835 -1.3130927e-34 0)
(23.172835 -9.5037117e-22 -9.5037117e-22)
(23.172834 1.9073863e-21 -2.6455056e-34)
(23.172834 -2.6399144e-34 9.5167758e-22)
(23.172834 -9.477406e-22 0)
(23.172834 -2.6176497e-34 0)
(23.172834 -1.8780155e-21 -9.3900774e-22)
(23.172833 1.8850522e-21 -1.3086037e-34)
(23.172833 9.4819239e-22 9.4819239e-22)
(23.172833 -9.5047715e-22 0)
(23.172833 -1.347135e-37 0)
(23.172833 -9.4372893e-22 -9.4372893e-22)
(23.172832 0 -9.3925678e-22)
(23.172832 0 9.3700364e-22)
(23.172832 9.4068689e-22 9.4068689e-22)
(23.172832 -1.3112543e-34 0)
(23.172832 -1.8943403e-21 -9.4717015e-22)
(23.172831 1.3443665e-37 1.3443665e-37)
(23.172831 2.8315897e-21 9.4386325e-22)
(23.172831 -9.4249357e-22 -9.4249357e-22)
(23.172831 -9.422673e-22 -9.422673e-22)
(23.172831 1.8862172e-21 9.4310858e-22)
(23.17283 -9.4312514e-22 9.4312514e-22)
(23.17283 9.4160939e-22 0)
(23.17283 1.8811528e-21 -9.4057639e-22)
(23.17283 -9.4178827e-22 -9.4178827e-22)
(23.17283 -9.4311555e-22 9.4311555e-22)
(23.172829 -9.4153563e-22 9.4153563e-22)
(23.172829 9.3890287e-22 0)
(23.172829 -8.7572384e-53 -9.3530463e-22)
(23.172829 -9.3224483e-22 -9.3224483e-22)
(23.172829 9.3428986e-22 9.3428986e-22)
(23.172828 -9.3814935e-22 9.3814935e-22)
(23.172828 9.4007414e-22 0)
(23.172828 2.6002349e-34 0)
(23.172828 2.65438e-37 0)
(23.172828 9.294308e-22 0)
(23.172827 -1.8566856e-21 0)
(23.172827 9.3347576e-22 0)
(23.172827 2.6049423e-34 0)
(23.172827 -2.6010912e-34 0)
(23.172827 -9.3493853e-22 -9.3493853e-22)
(23.172826 -1.8606147e-21 6.9424513e-52)
(23.172826 2.7803698e-21 9.2678994e-22)
(23.172826 2.5780596e-34 0)
(23.172826 -5.1788441e-34 0)
(23.172826 2.592208e-34 0)
(23.172825 -1.8681976e-21 -9.3409879e-22)
(23.172825 1.8576553e-21 -1.2882648e-34)
(23.172825 -2.5633314e-34 9.2406974e-22)
(23.172825 -1.8494482e-21 -9.247241e-22)
(23.172825 0 1.2927711e-34)
(23.172824 0 -1.3306276e-37)
(23.172824 9.3430638e-22 -1.2971914e-34)
(23.172824 -1.2891455e-34 9.2946259e-22)
(23.172824 -9.2267374e-22 -9.2267374e-22)
(23.172824 -9.1797945e-22 9.1797945e-22)
(23.172823 9.2353935e-22 -5.1315949e-34)
(23.172823 2.7955054e-21 -9.3183514e-22)
(23.172823 -9.3515414e-22 9.3515414e-22)
(23.172823 -9.3121023e-22 0)
(23.172823 -2.625773e-37 0)
(23.172822 -9.1547467e-22 -9.1547467e-22)
(23.172822 0 -1.2673872e-34)
(23.172822 1.8435292e-21 9.2176461e-22)
(23.172822 1.865094e-21 -9.3254699e-22)
(23.172822 -9.3615008e-22 -9.3615008e-22)
(23.172821 -1.8622977e-21 0)
(23.172821 -9.2473003e-22 9.2473003e-22)
(23.172821 1.8324779e-21 9.1623896e-22)
(23.172821 1.8224353e-21 -9.1121767e-22)
(23.172821 -1.8370869e-21 -2.549307e-34)
(23.172821 -1.8621418e-21 -2.7157412e-52)
(23.17282 0 -1.301384e-34)
(23.17282 1.8664738e-21 9.3323691e-22)
(23.17282 -9.2678237e-22 -9.2678237e-22)
(23.17282 -1.8389599e-21 9.3875174e-52)
(23.17282 9.1390726e-22 -1.2688693e-34)
(23.172819 9.1691478e-22 -9.1691478e-22)
(23.172819 -1.3165248e-37 0)
(23.172819 1.2962925e-34 0)
(23.172819 9.3409048e-22 9.3409048e-22)
(23.172819 -9.3000911e-22 1.3216224e-37)
(23.172818 -9.2490138e-22 -3.8484576e-34)
(23.172818 9.1950547e-22 9.1950547e-22)
(23.172818 -1.2729365e-34 0)
(23.172818 -1.3123028e-37 0)
(23.172818 -1.2915809e-34 -9.312185e-22)
(23.172817 -9.3466797e-22 2.5914022e-34)
(23.172817 9.3218889e-22 9.3218889e-22)
(23.172817 -3.8678067e-34 0)
(23.172817 -1.2834488e-34 0)
(23.172817 -2.5567425e-34 0)
(23.172816 -9.2401694e-22 -9.2401694e-22)
(23.172816 9.2991314e-22 1.3214861e-37)
(23.172816 -1.296163e-34 9.335656e-22)
(23.172816 -2.5850897e-34 -9.3239118e-22)
(23.172816 -1.3211928e-37 9.2970677e-22)
(23.172815 -1.8527935e-21 -2.5750524e-34)
(23.172815 -9.2406554e-22 -1.8481311e-21)
(23.172815 9.2705391e-22 9.2705391e-22)
(23.172815 1.8617976e-21 3.877381e-34)
(23.172815 -1.2945392e-34 1.2945392e-34)
(23.172814 -1.8634587e-21 -1.2936135e-34)
(23.172814 -9.2896633e-22 -9.2896633e-22)
(23.172814 1.8534908e-21 0)
(23.172814 9.27796e-22 0)
(23.172814 -9.3045959e-22 9.3045959e-22)
(23.172813 -9.3251036e-22 1.2946979e-34)
(23.172813 -2.5878926e-34 -2.5878926e-34)
(23.172813 9.2989323e-22 4.0556074e-54)
(23.172813 0 -9.2761371e-22)
(23.172813 0 9.2844741e-22)
(23.172813 9.3102731e-22 9.3102731e-22)
(23.172812 0 0)
(23.172812 -9.3268789e-22 -9.3268789e-22)
(23.172812 9.3011635e-22 -1.291374e-34)
(23.172812 1.3182744e-37 9.2765311e-22)
(23.172812 -2.5762688e-34 0)
(23.172811 0 0)
(23.172811 -9.330314e-22 -9.330314e-22)
(23.172811 9.325087e-22 2.6503491e-37)
(23.172811 9.2884839e-22 1.4878808e-53)
(23.172811 -1.850085e-21 -9.2504249e-22)
(23.17281 -9.2477876e-22 9.2477876e-22)
(23.17281 9.3032283e-22 -1.2890166e-34)
(23.17281 0 1.2973672e-34)
(23.17281 0 -2.5906509e-34)
(23.17281 -9.3064484e-22 -9.3064484e-22)
(23.172809 2.5711702e-34 9.2547324e-22)
(23.172809 9.2142165e-22 -2.5586046e-34)
(23.172809 0 2.5669472e-34)
(23.172809 0 -2.5875116e-34)
(23.172809 -9.3654539e-22 -9.3654539e-22)
(23.172808 3.8953469e-34 9.3489315e-22)
(23.172808 9.309493e-22 -2.585061e-34)
(23.172808 0 1.2889324e-34)
(23.172808 0 0)
(23.172808 0 -9.2580521e-22)
(23.172807 0 9.3145731e-22)
(23.172807 0 -1.2984481e-34)
(23.172807 0 1.3282003e-37)
(23.172807 0 -1.2938962e-34)
(23.172807 0 1.2913599e-34)
(23.172807 1.8560593e-21 9.2802966e-22)
(23.172806 5.1653242e-34 -9.3056164e-22)
(23.172806 -9.3412631e-22 -9.3412631e-22)
(23.172806 9.347458e-22 9.347458e-22)
(23.172806 -9.3293713e-22 9.3293713e-22)
(23.172806 9.309105e-22 0)
(23.172805 -2.5856985e-34 -9.3022678e-22)
(23.172805 -9.3155674e-22 -9.3155674e-22)
(23.172805 -2.5921096e-34 0)
(23.172805 -9.3346531e-22 9.3346531e-22)
(23.172805 0 -1.2923036e-34)
(23.172804 0 1.3186414e-37)
(23.172804 9.2764064e-22 1.2866185e-34)
(23.172804 2.5851428e-34 -9.3097877e-22)
(23.172804 -9.342776e-22 9.342776e-22)
(23.172804 0 1.2945668e-34)
(23.172803 0 -2.5831143e-34)
(23.172803 0 -9.2602179e-22)
(23.172803 0 -9.2330033e-22)
(23.172803 0 1.8544088e-21)
(23.172803 0 -1.3238734e-37)
(23.172802 0 1.2936817e-34)
(23.172802 1.8617547e-21 9.3087734e-22)
(23.172802 -7.7075766e-34 -9.2586631e-22)
(23.172802 -1.842631e-21 1.2791549e-34)
(23.172802 9.2174515e-22 9.2174515e-22)
(23.172802 1.3190743e-37 0)
(23.172801 9.3294796e-22 0)
(23.172801 -5.1673599e-34 0)
(23.172801 -1.8574626e-21 -9.2873128e-22)
(23.172801 -9.2371596e-22 -9.2371596e-22)
(23.172801 1.7238919e-52 9.1977208e-22)
(23.1728 2.7659755e-21 9.2199183e-22)
(23.1728 0 0)
(23.1728 -1.8642784e-21 -9.3213921e-22)
(23.1728 0 -9.3047197e-22)
(23.1728 0 9.2689165e-22)
(23.172799 1.8445997e-21 9.2229987e-22)
(23.172799 -2.5490763e-34 0)
(23.172799 -2.7668889e-21 -9.222963e-22)
(23.172799 9.2722431e-22 -9.2722431e-22)
(23.172799 9.2934077e-22 9.2934077e-22)
(23.172798 -9.2782521e-22 2.576386e-34)
(23.172798 9.2381769e-22 -9.2381769e-22)
(23.172798 -9.1990641e-22 0)
(23.172798 -2.5498635e-34 0)
(23.172798 9.2356784e-22 0)
(23.172798 -9.2800645e-22 0)
(23.172797 0 9.2731421e-22)
(23.172797 -9.2423096e-22 -2.5637786e-34)
(23.172797 9.2033868e-22 -9.2033868e-22)
(23.172797 1.8345074e-21 9.1725372e-22)
(23.172797 -9.1969756e-22 1.2769086e-34)
(23.172796 -9.2308784e-22 -1.2829274e-34)
(23.172796 -9.2413999e-22 1.8111715e-52)
(23.172796 -9.2256208e-22 9.2256208e-22)
(23.172796 1.8358759e-21 9.1793795e-22)
(23.172796 9.1368761e-22 -1.8273752e-21)
(23.172795 -9.1388125e-22 -1.2688332e-34)
(23.172795 0 1.2748013e-34)
(23.172795 9.2356636e-22 -9.2356636e-22)
(23.172795 -9.2209366e-22 0)
(23.172795 -9.1824753e-22 9.1824753e-22)
(23.172795 2.7404684e-21 9.1348945e-22)
(23.172794 2.5856989e-37 -9.0976193e-22)
(23.172794 -1.8248905e-21 -2.5310856e-34)
(23.172794 9.1700895e-22 9.1700895e-22)
(23.172794 1.2760512e-34 0)
(23.172794 9.1734096e-22 0)
(23.172793 -2.5940445e-37 -9.1269827e-22)
(23.172793 -1.8160928e-21 1.2594417e-34)
(23.172793 9.0703616e-22 9.0703616e-22)
(23.172793 0 0)
(23.172793 -2.5436094e-34 -9.1602148e-22)
(23.172792 -1.3002646e-37 1.3002646e-37)
(23.172792 -9.11994e-22 -2.5324259e-34)
(23.172792 9.0705404e-22 -1.2580653e-34)
(23.172792 -2.5060769e-34 9.0250502e-22)
(23.172792 -1.2538199e-34 -9.0399318e-22)
(23.172792 -1.2926447e-37 1.2926447e-37)
(23.172791 -9.1279572e-22 -2.5346521e-34)
(23.172791 9.1039892e-22 -9.1039892e-22)
(23.172791 1.0644925e-52 9.0586535e-22)
(23.172791 -2.5002846e-34 2.5002846e-34)
(23.172791 -1.2751641e-37 1.2751641e-37)
(23.17279 -1.8031077e-21 -1.2517179e-34)
(23.17279 -1.2572952e-34 -9.0649879e-22)
(23.17279 9.0763742e-22 9.0763742e-22)
(23.17279 0 0)
(23.17279 0 -4.9933968e-34)
(23.17279 -8.9381814e-22 -1.2397074e-34)
(23.172789 -3.7141691e-34 -3.7141691e-34)
(23.172789 8.9829407e-22 -1.2765527e-37)
(23.172789 -9.0268556e-22 -9.0268556e-22)
(23.172789 1.252656e-34 9.0222959e-22)
(23.172789 8.4097979e-52 8.4097979e-52)
(23.172788 -1.240967e-34 -1.240967e-34)
(23.172788 8.8927425e-22 2.4693376e-34)
(23.172788 8.898823e-22 -1.235513e-34)
(23.172788 1.2398279e-34 1.7878101e-21)
(23.172788 -8.9763531e-22 -8.9763531e-22)
(23.172788 0 -8.9614092e-22)
(23.172787 0 -1.2365363e-34)
(23.172787 8.8414754e-22 1.2275509e-34)
(23.172787 -8.8122506e-22 1.7624501e-21)
(23.172787 7.3823137e-34 -8.8679438e-22)
(23.172787 8.9182733e-22 -8.9182733e-22)
(23.172786 -8.9186728e-22 3.2882678e-52)
(23.172786 0 0)
(23.172786 8.786831e-22 6.4645559e-53)
(23.172786 8.6999239e-22 -8.6999239e-22)
(23.172786 -8.6975428e-22 8.6975428e-22)
(23.172786 -8.7951119e-22 -1.4593094e-52)
(23.172785 0 -1.2311108e-34)
(23.172785 8.8781569e-22 -1.261662e-37)
(23.172785 8.811203e-22 -8.811203e-22)
(23.172785 -1.7405929e-21 1.7405929e-21)
(23.172785 -8.5848447e-22 2.3838405e-34)
(23.172785 8.5600711e-22 -8.5600711e-22)
(23.172784 8.6715099e-22 1.2027206e-34)
(23.172784 1.2239552e-34 -1.2239552e-34)
(23.172784 8.8727373e-22 8.8727373e-22)
(23.172784 2.4390381e-34 -8.7836258e-22)
(23.172784 -1.7343939e-21 -2.0540443e-51)
(23.172783 0 -3.543402e-34)
(23.172783 0 2.3304303e-34)
(23.172783 0 -2.3488913e-34)
(23.172783 8.6267383e-22 -2.3954736e-34)
(23.172783 8.7656241e-22 1.8446388e-53)
(23.172783 0 0)
(23.172782 -8.7386267e-22 8.7386267e-22)
(23.172782 -1.194671e-34 0)
(23.172782 8.5052836e-22 0)
(23.172782 0 -8.3778856e-22)
(23.172782 0 -2.3196443e-34)
(23.172782 -8.4688483e-22 8.4688483e-22)
(23.172781 -1.1925106e-34 0)
(23.172781 1.201446e-34 0)
(23.172781 -8.685893e-22 -1.7371786e-21)
(23.172781 8.6593357e-22 -7.2086534e-34)
(23.172781 -3.5830944e-34 1.7222531e-21)
(23.172781 -8.5667393e-22 -8.5667393e-22)
(23.17278 0 1.2120263e-37)
(23.17278 -8.4836201e-22 -1.1778662e-34)
(23.17278 -1.1737439e-34 -8.4539284e-22)
(23.17278 8.4715367e-22 0)
(23.17278 -8.5181749e-22 0)
(23.17278 8.5539403e-22 0)
(23.172779 8.5494716e-22 -8.5494716e-22)
(23.172779 -8.5251862e-22 -2.3648516e-34)
(23.172779 0 8.5025552e-22)
(23.172779 8.4886717e-22 0)
(23.172779 8.4723485e-22 0)
(23.172779 -8.4574725e-22 -8.4574725e-22)
(23.172778 -8.4386384e-22 1.1992026e-37)
(23.172778 0 8.3873607e-22)
(23.172778 -8.32858e-22 0)
(23.172778 8.3171208e-22 0)
(23.172778 8.3755098e-22 -8.3755098e-22)
(23.172778 -8.4182192e-22 -2.3351794e-34)
(23.172777 -1.6809464e-21 -2.3350213e-34)
(23.172777 4.6346614e-34 2.3173307e-34)
(23.172777 2.4697332e-21 8.2324439e-22)
(23.172777 -2.8358959e-52 -8.1170086e-22)
(23.172777 -8.1071766e-22 2.2500495e-34)
(23.172777 -1.6437199e-21 -2.2809736e-34)
(23.172776 4.6446335e-34 2.3223167e-34)
(23.172776 1.6839706e-21 8.4198529e-22)
(23.172776 -8.3217491e-22 0)
(23.172776 8.1772996e-22 0)
(23.172776 -7.9267176e-22 -7.9267176e-22)
(23.172776 -7.7574239e-22 1.4926674e-50)
(23.172776 1.5743923e-21 7.8719613e-22)
(23.172775 0 0)
(23.172775 0 0)
(23.172775 -1.666448e-21 -8.3322398e-22)
(23.172775 -2.1711531e-51 -4.3423062e-51)
(23.172775 1.6516544e-21 8.2582719e-22)
(23.172774 0 0)
(23.172774 0 0)
(23.172774 -1.624094e-21 -8.1204698e-22)
(23.172774 2.6671979e-52 5.3343958e-52)
(23.172774 1.6200762e-21 8.1003809e-22)
(23.172774 0 0)
(23.172774 0 0)
(23.172773 -1.6190773e-21 -8.0953863e-22)
(23.172773 -8.0788583e-22 1.1480748e-37)
(23.172773 1.6193074e-21 8.0965372e-22)
(23.172773 8.1522653e-22 -8.1522653e-22)
(23.172773 0 2.2688026e-34)
(23.172773 -1.6217495e-21 -2.2527902e-34)
(23.172772 4.4651844e-34 2.2325922e-34)
(23.172772 1.5897702e-21 7.9488509e-22)
(23.172772 -7.8635852e-22 0)
(23.172772 0 0)
(23.172772 7.9603597e-22 0)
(23.172772 -8.0666884e-22 0)
(23.172772 1.1522829e-37 0)
(23.172771 8.0587304e-22 -8.0587304e-22)
(23.172771 -7.9845264e-22 2.2160094e-34)
(23.172771 7.9032159e-22 7.9032159e-22)
(23.172771 7.8280077e-22 0)
(23.172771 -7.8293072e-22 0)
(23.172771 -7.9076716e-22 0)
(23.172771 2.2191484e-34 0)
(23.17277 8.0172294e-22 0)
(23.17277 -7.9810197e-22 0)
(23.17277 -2.2044319e-34 0)
(23.17277 7.8905986e-22 -7.8905986e-22)
(23.17277 -7.8525129e-22 4.3587413e-34)
(23.17277 7.8678379e-22 7.8678379e-22)
(23.172769 7.9174893e-22 0)
(23.172769 -7.9486509e-22 0)
(23.172769 -7.9460572e-22 0)
(23.172769 2.2025204e-34 0)
(23.172769 7.9087625e-22 0)
(23.172769 -7.8875801e-22 0)
(23.172769 1.1206641e-37 0)
(23.172768 7.9025988e-22 -7.9025988e-22)
(23.172768 -7.9227547e-22 2.1988654e-34)
(23.172768 7.9334508e-22 7.9334508e-22)
(23.172768 7.9291156e-22 0)
(23.172768 -7.9173901e-22 0)
(23.172768 -1.5816652e-21 -7.9083258e-22)
(23.172767 4.3902466e-34 2.1951233e-34)
(23.172767 1.5785097e-21 7.8925485e-22)
(23.172767 -7.8810115e-22 0)
(23.172767 1.1181062e-37 0)
(23.172767 1.5712091e-21 0)
(23.172767 2.2304051e-37 -7.8475404e-22)
(23.172767 -7.8422267e-22 -2.1787447e-34)
(23.172766 0 7.8370253e-22)
(23.172766 7.8317594e-22 0)
(23.172766 0 0)
(23.172766 -7.819222e-22 0)
(23.172766 0 0)
(23.172766 0 0)
(23.172766 0 0)
(23.172765 -7.8138214e-22 0)
(23.172765 -1.6442253e-53 -7.8148798e-22)
(23.172765 7.8082596e-22 1.1096204e-37)
(23.172765 0 7.8014014e-22)
(23.172765 7.8021345e-22 0)
(23.172765 -2.1683947e-34 0)
(23.172765 -7.8156647e-22 0)
(23.172765 0 0)
(23.172764 0 0)
(23.172764 0 0)
(23.172764 -7.8190418e-22 0)
(23.172764 2.1715311e-34 -7.8202617e-22)
(23.172764 7.8213957e-22 -1.1114872e-37)
(23.172764 0 7.8220139e-22)
(23.172764 7.8215198e-22 0)
(23.172763 2.1702983e-34 0)
(23.172763 -7.8180753e-22 0)
(23.172763 0 -7.8169055e-22)
(23.172763 7.8161009e-22 4.3396406e-34)
(23.172763 -7.8153073e-22 7.8153073e-22)
(23.172763 4.3427466e-34 0)
(23.172763 7.8177364e-22 -7.8177364e-22)
(23.172762 -7.8204001e-22 -2.1726808e-34)
(23.172762 0 7.8229917e-22)
(23.172762 -7.8255094e-22 0)
(23.172762 -2.1737178e-34 0)
(23.172762 7.8309275e-22 -7.8309275e-22)
(23.172762 0 -7.8338294e-22)
(23.172762 7.8368122e-22 7.8368122e-22)
(23.172761 -7.8398847e-22 7.8398847e-22)
(23.172761 -4.3557267e-34 0)
(23.172761 7.8463778e-22 0)
(23.172761 -4.3583677e-34 0)
(23.172761 -1.1160397e-37 0)
(23.172761 2.1829023e-34 7.8571916e-22)
(23.17276 -1.1171318e-37 -1.1171318e-37)
(23.17276 -7.8652108e-22 -1.5730422e-21)
(23.17276 0 -7.8694779e-22)
(23.17276 7.873912e-22 1.5747824e-21)
(23.17276 -2.1865861e-34 1.5757022e-21)
(23.17276 -2.1879101e-34 -7.8832813e-22)
(23.17276 -2.0893195e-53 -7.8882386e-22)
(23.172759 -2.191844e-34 0)
(23.172759 0 0)
(23.172759 -1.5805993e-21 0)
(23.172759 -2.1955187e-34 0)
(23.172759 7.9088384e-22 -7.9088384e-22)
(23.172759 -7.9070233e-22 -2.1967467e-34)
(23.172758 2.1933274e-34 7.9028006e-22)
(23.172758 7.8966168e-22 0)
(23.172758 7.8889899e-22 0)
(23.172758 2.1882905e-34 0)
(23.172758 -2.1861445e-34 0)
(23.172758 7.8675422e-22 0)
(23.172758 -7.8661105e-22 0)
(23.172758 -7.86305e-22 0)
(23.172757 0 0)
(23.172757 -7.8643011e-22 0)
(23.172757 2.1870008e-34 0)
(23.172757 7.8886056e-22 0)
(23.172757 0 0)
(23.172757 0 0)
(23.172757 0 0)
(23.172756 -1.5837317e-21 -7.9186584e-22)
(23.172756 8.8028386e-34 4.4014193e-34)
(23.172756 1.5863742e-21 7.9318709e-22)
(23.172756 0 0)
(23.172756 0 0)
(23.172756 0 7.9504412e-22)
(23.172756 0 -2.2093355e-34)
(23.172755 0 1.1314987e-37)
(23.172755 0 -7.9678383e-22)
(23.172755 0 -7.9732608e-22)
(23.172755 -1.5956922e-21 -4.429786e-34)
(23.172755 4.4359443e-34 2.2179722e-34)
(23.172755 1.5975088e-21 7.9875442e-22)
(23.172755 7.9901047e-22 0)
(23.172754 -7.9912185e-22 0)
(23.172754 -7.9913476e-22 0)
(23.172754 2.2201308e-34 0)
(23.172754 4.4337361e-34 0)
(23.172754 7.9933585e-22 -7.9933585e-22)
(23.172754 -7.9953272e-22 4.4391503e-34)
(23.172754 7.9981259e-22 7.9981259e-22)
(23.172753 8.0023666e-22 0)
(23.172753 -8.0067126e-22 0)
(23.172753 -8.0105209e-22 0)
(23.172753 4.4483813e-34 0)
(23.172753 8.0172855e-22 0)
(23.172753 8.0199793e-22 0)
(23.172753 -2.2252652e-34 0)
(23.172752 -8.0236134e-22 -8.0236134e-22)
(23.172752 -8.0251773e-22 4.4545832e-34)
(23.172752 8.0271176e-22 8.0271176e-22)
(23.172752 8.0290615e-22 0)
(23.172752 -8.0311715e-22 0)
(23.172752 8.0339021e-22 0)
(23.172752 0 0)
(23.172751 -8.0392025e-22 0)
(23.172751 -8.0417475e-22 0)
(23.172751 2.2314727e-34 0)
(23.172751 8.0469731e-22 -8.0469731e-22)
(23.172751 -8.0495408e-22 6.7033041e-34)
(23.172751 8.0520799e-22 8.0520799e-22)
(23.172751 8.0545941e-22 0)
(23.17275 -8.0570655e-22 0)
(23.17275 8.0594801e-22 0)
(23.17275 2.23861e-34 0)
(23.17275 -8.0641166e-22 0)
(23.17275 -8.0663276e-22 0)