-1.25 	300 	0.07299230437389562 	101354.3892626145
-1.247497497497497 	300.0265460050379 	0.08137578624202008 	101359.9716191273
-1.244994994994995 	300.0333014467461 	0.09647948707228592 	101364.4169674501
-1.242492492492492 	300.0366649036016 	0.1065847473000932 	101368.327667203
-1.23998998998999 	300.039285457073 	0.1134059710578194 	101371.4494133978
-1.237487487487487 	300.0411403631651 	0.1189325725878315 	101373.6432985384
-1.234984984984985 	300.0422120472206 	0.1220764469843436 	101374.9107969494
-1.232482482482482 	300.0425983858822 	0.1231334184156469 	101375.3676836219
-1.22997997997998 	300.0422196183277 	0.1219927665186043 	101374.9196911092
-1.227477477477477 	300.0410072693303 	0.118509553176706 	101373.4860603849
-1.224974974974975 	300.0390104427176 	0.1127496692078095 	101371.1247293858
-1.222472472472472 	300.0362823677386 	0.1048458140812616 	101367.8987143598
-1.21996996996997 	300.0328629781815 	0.09494738568997968 	101363.8553071794
-1.217467467467467 	300.0288345056555 	0.08332704138548383 	101359.0916923697
-1.214964964964965 	300.024317895496 	0.07027526528462831 	101353.7510522257
-1.212462462462462 	300.0193881102722 	0.05601743078997568 	101347.9220547997
-1.20995995995996 	300.0141129364203 	0.04078207659026407 	101341.684945049
-1.207457457457457 	300.0085993410399 	0.02481372586028864 	101335.1662501146
-1.204954954954955 	300.0029296143264 	0.008430626322014507 	101328.4632150681
-1.202452452452452 	299.9971832638121 	0.008633033984083976 	101321.6698807713
-1.19994994994995 	299.9914766542541 	0.02469555577273764 	101314.92391623
-1.197447447447447 	299.985925940338 	0.04074847183297679 	101308.3624872812
-1.194944944944945 	299.9806134177882 	0.05612281598214654 	101302.08290824
-1.192442442442442 	299.975611646906 	0.0705512231918855 	101296.1709541378
-1.18993993993994 	299.9710561810538 	0.08368334518476289 	101290.7866071638
-1.187437437437437 	299.9670759659684 	0.09522250274957178 	101286.082415993
-1.184934934934935 	299.9637278542043 	0.1048904725984169 	101282.1253583373
-1.182432432432432 	299.9610524622929 	0.1125911878169551 	101278.9634400589
-1.17992992992993 	299.9590919079559 	0.1182581291460396 	101276.6464344623
-1.177427427427427 	299.957854070754 	0.1218283316746099 	101275.183404131
-1.174924924924925 	299.95737984204 	0.1232047947991602 	101274.6229499127
-1.172422422422422 	299.9577228896437 	0.1222226601149147 	101275.0282928321
-1.16991991991992 	299.958877433877 	0.1188691717885048 	101276.3926334295
-1.167417417417417 	299.9608120385855 	0.113243485126651 	101278.6789360717
-1.164914914914915 	299.9634932202025 	0.1055385942382868 	101281.8474846686
-1.162412412412412 	299.9668304797906 	0.09593164617801488 	101285.7915802272
-1.15990990990991 	299.970744152381 	0.08457506159394182 	101290.4170072854
-1.157407407407407 	299.9751750085578 	0.07172767343677876 	101295.6539141023
-1.154904904904904 	299.9800558576159 	0.0575733856430824 	101301.4229612278
-1.152402402402403 	299.9853144057324 	0.04239033051211855 	101307.6385921483
-1.1498998998999 	299.9908467882152 	0.02650666515386525 	101314.178281485
-1.147397397397397 	299.9964884336398 	0.01016200539622385 	101320.8474075132
-1.144894894894895 	300.0021503222247 	0.008672167172435137 	101327.540832496
-1.142392392392392 	300.0078064050692 	0.02264351586747569 	101334.227755052
-1.13988988988989 	300.0133708567549 	0.03872143648815657 	101340.8065582252
-1.137387387387387 	300.0187254530449 	0.05417538253820256 	101347.1376178415
-1.134884884884885 	300.0237381438412 	0.06864227862830495 	101353.0646473378
-1.132382382382382 	300.0282940117176 	0.08181078582870586 	101358.4518052151
-1.12987987987988 	300.0323136608421 	0.0934242203391345 	101363.2051115156
-1.127377377377377 	300.0357414745968 	0.103350146455715 	101367.2586118589
-1.124874874874875 	300.0385317820485 	0.1114283233843215 	101370.5583872582
-1.122372372372372 	300.0406343454451 	0.1174936042753696 	101373.0448746769
-1.11986986986987 	300.0419918324218 	0.1214136140739937 	101374.6503468082
-1.117367367367367 	300.0425601751804 	0.1230350059412866 	101375.3225640592
-1.114864864864865 	300.0423149113182 	0.1223187976768177 	101375.0324957419
-1.112362362362362 	300.0412614672224 	0.1192803887078223 	101373.7868003164
-1.10985985985986 	300.0394418722329 	0.1140064170187976 	101371.6350386723
-1.107357357357357 	300.0369040290385 	0.1066528109026769 	101368.6339693901
-1.104854854854855 	300.0336868264102 	0.09734241980142613 	101364.8295908151
-1.102352352352353 	300.029844212272 	0.08625109618541155 	101360.2856937132
-1.09984984984985 	300.0254455849652 	0.07355093191745897 	101355.0845292635
-1.097347347347347 	300.020579322036 	0.05948931122330725 	101349.3305667997
-1.094844844844845 	300.0153557511601 	0.04438822289440719 	101343.1544240919
-1.092342342342342 	300.0098750972178 	0.02852720439507262 	101336.6746108233
-1.08983983983984 	300.0042288577415 	0.01222610252358141 	101329.9992566138
-1.087337337337337 	299.9985123479418 	0.008734015430740732 	101323.2411712455
-1.084834834834835 	299.9927944222749 	0.0208985781879175 	101316.481716039
-1.082332332332332 	299.9871725375197 	0.03714760610228802 	101309.8360984452
-1.07982982982983 	299.9817774020252 	0.05273970873335522 	101303.4588479514
-1.077327327327327 	299.976721310939 	0.06731084596454538 	101297.4825673102
-1.074824824824825 	299.972114095301 	0.08060850368070605 	101292.037046347
-1.072322322322323 	299.9680377332652 	0.09243432573634792 	101287.2191741048
-1.06981981981982 	299.9645384121805 	0.1025370018007905 	101283.0833774148
-1.067317317317317 	299.9616736702891 	0.1107797795375002 	101279.6977121942
-1.064814814814815 	299.9595136804119 	0.1170010466206021 	101277.1449577734
-1.062312312312312 	299.9581105798918 	0.1210551103733029 	101275.4866183716
-1.05980980980981 	299.9575119281686 	0.1228392496524677 	101274.7791271938
-1.057307307307307 	299.9577232541857 	0.1222569575084054 	101275.0287957844
-1.054804804804805 	299.9587085556961 	0.1193608339746842 	101276.1931633104
-1.052302302302302 	299.96045289595 	0.1142707137483516 	101278.2545774632
-1.0497997997998 	299.962935446798 	0.1071386017769187 	101281.1883789418
-1.047297297297297 	299.9660894495094 	0.09804400687951886 	101284.9158765525
-1.044794794794795 	299.9698632835694 	0.08708573259350515 	101289.3759827178
-1.042292292292292 	299.9741845414656 	0.07455785587935433 	101294.4833263548
-1.03978978978979 	299.9789597463355 	0.06071441469673463 	101300.1274258428
-1.037287287287287 	299.9841242261669 	0.0458544792740502 	101306.2318255556
-1.034784784784785 	299.9895765373103 	0.03020535443573533 	101312.6767943235
-1.032282282282283 	299.9951721619455 	0.013964656396275 	101319.2914283352
-1.02977977977978 	300.0008225392563 	0.008382827827720585 	101325.9711824128
-1.027277277277277 	300.0064829543842 	0.01883361015817021 	101332.6631134521
-1.024774774774775 	300.0120576977158 	0.03494595397780004 	101339.2540365899
-1.022272272272272 	300.0174161335253 	0.05043756808935074 	101345.5895587509
-1.01976976976977 	300.022453128842 	0.06499241178075077 	101351.5452421386
-1.017267267267267 	300.0270925644344 	0.07838259669728383 	101357.0311610849
-1.014764764764765 	300.0312570662293 	0.09037531874028208 	101361.95567761
-1.012262262262262 	300.034864995922 	0.1007965194693437 	101366.2221620203
-1.00975975975976 	300.0378419002266 	0.109403032152342 	101369.7425747605
-1.007257257257257 	300.0401172371033 	0.1159835808336995 	101372.4333769998
-1.004754754754755 	300.0416403688604 	0.1203994527128323 	101374.2347174989
-1.002252252252252 	300.0423824402616 	0.122529853000165 	101375.1123870141
-0.9997497497497498 	300.0423274603521 	0.1223916169513481 	101375.0473679943
-0.9972472472472473 	300.0414851475514 	0.1199727932755435 	101374.0513256466
-0.9947447447447449 	300.0398834693891 	0.115307575410519 	101372.1573046018
-0.9922422422422421 	300.0375403909407 	0.1084984283785929 	101369.3865106473
-0.9897397397397399 	300.0344906479348 	0.09965393253812813 	101365.780132332
-0.9872372372372376 	300.0307927552271 	0.08896302928486542 	101361.4073924236
-0.9847347347347346 	300.0265184544323 	0.07662456849478035 	101356.3531479539
-0.9822322322322323 	300.0217606309334 	0.06288217855187089 	101350.7274123879
-0.9797297297297296 	300.0166157258259 	0.04799792951620375 	101344.6441686389
-0.9772272272272275 	300.0111624479468 	0.0322517886380732 	101338.1966444783
-0.9747247247247248 	300.0055119902357 	0.01595578182501617 	101331.5163067213
-0.9722222222222224 	299.9997839780464 	0.00805498193899138 	101324.7444912898
-0.9697197197197196 	299.994063566361 	0.01720688206959045 	101317.9820709825
-0.9672172172172175 	299.9884492855754 	0.03344978558361818 	101311.3453391874
-0.9647147147147147 	299.9830370448163 	0.04910298638569893 	101304.947782914
-0.9622122122122124 	299.9779137211252 	0.06387768333323064 	101298.8920376898
-0.9597097097097099 	299.9731901786968 	0.07754200545907251 	101293.3089403925
-0.9572072072072073 	299.9689625646724 	0.08980076970773139 	101288.3122853243
-0.9547047047047047 	299.9653036617341 	0.1003303261746238 	101283.9878414821
-0.9522022022022023 	299.9622967148534 	0.108979128026274 	101280.4340683864
-0.9496996996996998 	299.9600011894522 	0.1155923100536711 	101277.7211756892
-0.9471971971971973 	299.9584554393516 	0.1200713968352646 	101275.8942358968
-0.9446946946946947 	299.9576944212072 	0.1223233501932788 	101274.994843705
-0.9421921921921923 	299.957721905059 	0.1222441020860509 	101275.0272670845
-0.93968968968969 	299.9585214121335 	0.1198755885500273 	101275.9720474566
-0.9371871871871872 	299.960099821822 	0.1153052662058446 	101277.8373694523
-0.9346846846846848 	299.9624209554944 	0.1086484683801269 	101280.5804041821
-0.9321821821821823 	299.9654225111483 	0.09999198010718713 	101284.1277062459
-0.9296796796796799 	299.9690459093294 	0.08947266860669206 	101288.4100021266
-0.9271771771771771 	299.9732253672478 	0.07734008426939994 	101293.3496880437
-0.9246746746746748 	299.9778863589904 	0.06381582240762326 	101298.8587466805
-0.9221721721721724 	299.9829754642867 	0.04918567735168197 	101304.8740069881
-0.9196696696696698 	299.9883653104829 	0.03367311733720205 	101311.2450626898
-0.9171671671671672 	299.9939237488076 	0.01754855187756338 	101317.8156920798
-0.9146646646646649 	299.9995405084706 	0.007218533776001824 	101324.4556025341
-0.9121621621621623 	300.005156609687 	0.01498473743071349 	101331.0950843804
-0.9096596596596597 	300.0107037742844 	0.03101548844735711 	101337.65333649
-0.9071571571571573 	300.0160793109453 	0.04654902398552979 	101344.0089770776
-0.9046546546546547 	300.0211840064002 	0.06129252772543283 	101350.0446706289
-0.9021521521521524 	300.0259253072568 	0.07498399342940504 	101355.6509511783
-0.8996496496496498 	300.0302079633303 	0.0873498787479856 	101360.7151397534
-0.8971471471471473 	300.0339484394101 	0.0981706160681432 	101365.1383391276
-0.894644644644645 	300.0370742649166 	0.1072035878533127 	101368.8348065781
-0.892142142142142 	300.0395183443744 	0.1142663276952311 	101371.7251683247
-0.8896396396396397 	300.0412289634643 	0.1192052379475429 	101373.7482093859
-0.8871371371371374 	300.0421695610492 	0.1219062947136728 	101374.8606608366
-0.8846346346346349 	300.0423163464159 	0.1223390819726528 	101375.0342660121
-0.8821321321321324 	300.0416750217872 	0.1204800413107881 	101374.275866273
-0.8796296296296297 	300.0402655620797 	0.1163815758699965 	101372.6091750973
-0.8771271271271271 	300.0381089799027 	0.1101309912848872 	101370.0589329381
-0.8746246246246248 	300.035240763504 	0.1018352217718328 	101366.66719777
-0.8721221221221224 	300.0317102259061 	0.09163581178986087 	101362.4923258411
-0.8696196196196196 	300.0275767136876 	0.07969852555455892 	101357.6045126492
-0.8671171171171175 	300.0229269394914 	0.06625386788750692 	101352.1064952303
-0.8646146146146148 	300.0178536377824 	0.05157425798608 	101346.107875092
-0.8621121121121121 	300.0124526079863 	0.03598127097370312 	101339.7220612873
-0.8596096096096097 	300.0068432718034 	0.01978604461584096 	101333.0902456154
-0.857107107107107 	300.0011429090575 	0.006442487536593085 	101326.3510366147
-0.8546046046046049 	299.9954258174118 	0.01329225389746924 	101319.5924769051
-0.8521021021021022 	299.9897785459877 	0.02963317301046881 	101312.9166906806
-0.8495995995995997 	299.9842927067679 	0.04546828305938218 	101306.4320778817
-0.8470970970970974 	299.9790779365615 	0.06050235096481025 	101300.2681632418
-0.8445945945945946 	299.9742538016811 	0.07445836876032907 	101294.566098825
-0.8420920920920922 	299.969914912473 	0.08702823188634345 	101289.4379067385
-0.8395895895895897 	299.9661334251679 	0.0979198879731937 	101284.9685556005
-0.8370870870870872 	299.9629933634785 	0.1069727555316181 	101281.2574615069
-0.8345845845845846 	299.9605460217951 	0.1140287976638468 	101278.365127963
-0.8320820820820823 	299.9588427416573 	0.1189792685279151 	101276.3519904734
-0.8295795795795798 	299.9579170604675 	0.1217169024979766 	101275.2580064621
-0.8270770770770772 	299.957770528829 	0.1221304930316448 	101275.0847745211
-0.8245745745745746 	299.958389568037 	0.1202702883549158 	101275.8163143363
-0.8220720720720721 	299.9597909102802 	0.1162213296959608 	101277.4723716323
-0.8195695695695699 	299.9619285053222 	0.1100776764533461 	101279.9984547149
-0.817067067067067 	299.9647655003909 	0.1018870934116924 	101283.35128408
-0.8145645645645651 	299.9682487101678 	0.09176495562066365 	101287.4678527574
-0.8120620620620621 	299.9723142839914 	0.07996788969600675 	101292.272925801
-0.8095595595595597 	299.9768754768514 	0.06674884785202741 	101297.6639807208
-0.8070570570570572 	299.9818772658942 	0.0524175117402122 	101303.5759433105
-0.8045545545545546 	299.987171589055 	0.03715544520157692 	101309.8340619012
-0.8020520520520523 	299.99265905334 	0.02123254596401686 	101316.3206978492
-0.7995495495495494 	299.9982224343152 	0.005185705144135308 	101322.8974650409
-0.7970470470470474 	300.0038022992609 	0.01105232273321021 	101329.4940253035
-0.7945445445445446 	300.0093456257796 	0.02708566771089441 	101336.047618715
-0.7920420420420423 	300.0147520159607 	0.04271184492805755 	101342.4397109238
-0.7895395395395397 	300.0199158676913 	0.05762422801998312 	101348.5452528002
-0.7870370370370371 	300.0247427799098 	0.07156389197406615 	101354.252729517
-0.7845345345345348 	300.0291374649047 	0.08424892837764757 	101359.4493375473
-0.7820320320320323 	300.0330155659544 	0.09546295293788912 	101364.0351973098
-0.7795295295295296 	300.0362965810734 	0.1049386771696291 	101367.9152030866
-0.7770270270270272 	300.0389063625004 	0.1124738540077677 	101371.0014666589
-0.7745245245245247 	300.0407896549136 	0.11792264752 	101373.2287268106
-0.7720220220220222 	300.0419133118576 	0.1211629566202942 	101374.5576629393
-0.7695195195195199 	300.0422571714274 	0.1221753771696511 	101374.9643067395
-0.767017017017017 	300.0418251925701 	0.1209203480695918 	101374.4534956108
-0.7645145145145147 	300.0406242230599 	0.1174230574085055 	101373.0333239593
-0.7620120120120122 	300.0386635489508 	0.1117372168584751 	101370.7147899939
-0.7595095095095097 	300.0359689585261 	0.1039356290666067 	101367.5283649075
-0.7570070070070072 	300.0325866993231 	0.09415755203704923 	101363.5287653206
-0.7545045045045048 	300.0285772350674 	0.08257632277408576 	101358.7876615428
-0.7520020020020022 	300.0240315406498 	0.06943730835245637 	101353.4126156301
-0.7494994994994997 	300.0190423759499 	0.05501616007064203 	101347.5134532735
-0.7469969969969972 	300.0137089016213 	0.0396228577936235 	101341.2074575562
-0.7444944944944945 	300.0081445505937 	0.02355931893254956 	101334.6287087245
-0.7419919919919924 	300.0024627295983 	0.007108233309741578 	101327.9114199789
-0.7394894894894897 	299.9967436400674 	0.01075572908496597 	101321.1503619026
-0.7369869869869872 	299.9910718265704 	0.02586956754303472 	101314.4455219619
-0.7344844844844846 	299.9855414054463 	0.04184429531202313 	101307.9081649834
-0.7319819819819822 	299.9802651214997 	0.05708360762420505 	101301.67141644
-0.7294794794794797 	299.9753526121489 	0.07129292168534145 	101295.8649190141
-0.7269769769769773 	299.9708988800297 	0.0841605749410038 	101290.6008835563
-0.7244744744744747 	299.9669903792582 	0.09542815385104488 	101285.9814135739
-0.721971971971972 	299.9637141413639 	0.1048724998014144 	101282.109386038
-0.7194694694694695 	299.961123817955 	0.1123468933864065 	101279.0479961661
-0.7169669669669674 	299.9592694123792 	0.1177262107489226 	101276.8563301868
-0.7144644644644647 	299.9581761746845 	0.120917027032213 	101275.5642481835
-0.711961961961962 	299.957851187428 	0.1218628350322702 	101275.18015391
-0.7094594594594597 	299.9582962111651 	0.1205407291075869 	101275.7060769908
-0.7069569569569573 	299.9595194059016 	0.1170256476446861 	101277.1515400842
-0.7044544544544545 	299.9614833028724 	0.1113457116610988 	101279.4723838976
-0.7019519519519523 	299.9641606725157 	0.1035887622713152 	101282.6365105845
-0.6994494494494495 	299.9674966358156 	0.09391586712062039 	101286.579059992
-0.6969469469469471 	299.9714265187493 	0.08250873568738873 	101291.2237412308
-0.6944444444444446 	299.9758699048211 	0.06966144500129132 	101296.4754683078
-0.6919419419419421 	299.9807523567729 	0.05562421547539376 	101302.2463579489
-0.6894394394394396 	299.9859444007999 	0.04062366234683861 	101308.3834816687
-0.6869369369369374 	299.9913624206462 	0.02496026897699095 	101314.787988919
-0.6844344344344344 	299.9968911016235 	0.008959032643099381 	101321.3236674614
-0.6819319319319321 	300.0024501222527 	0.009612653151230754 	101327.8954775163
-0.6794294294294296 	300.0079881438371 	0.02315977770778217 	101334.4427504046
-0.6769269269269272 	300.0134168415011 	0.03886872731033565 	101340.8611083563
-0.6744244244244245 	300.0186338725036 	0.05393734033157652 	101347.0294895462
-0.6719219219219222 	300.0235399064167 	0.06812412076514618 	101352.830464149
-0.6694194194194195 	300.028034034014 	0.08109841968101099 	101358.1445786712
-0.6669169169169172 	300.0320313502049 	0.09265402958788312 	101362.8713876522
-0.6644144144144146 	300.0354517777855 	0.1025229966487649 	101366.916192822
-0.661911911911912 	300.0382239752074 	0.1104989870999118 	101370.1945340212
-0.6594094094094097 	300.0402919860269 	0.116475435021587 	101372.6402298586
-0.656906906906907 	300.0416163104916 	0.1202852012922483 	101374.2064443253
-0.6544044044044046 	300.0421683282085 	0.1219126478387077 	101374.8592938036
-0.6519019019019021 	300.0419442800838 	0.1212721717772889 	101374.5943275262
-0.6493993993993996 	300.0409400013799 	0.1183442453280584 	101373.4067903858
-0.6468968968968971 	300.0391620028337 	0.1132098002101615 	101371.3042850299
-0.6443943943943946 	300.0366361454778 	0.1058878034807477 	101368.3173721865
-0.6418918918918921 	300.0334089492171 	0.09655651753796393 	101364.5011310865
-0.6393893893893897 	300.0295396424546 	0.08536732725815765 	101359.92570419
-0.6368868868868871 	300.0251159399227 	0.07254411544726466 	101354.6948957209
-0.6343843843843846 	300.0202229079178 	0.05840507360352409 	101348.9093494065
-0.6318818818818821 	300.0149614024923 	0.04321503326509711 	101342.6883667393
-0.6293793793793795 	300.0094445705109 	0.02730019583246349 	101336.1657417551
-0.6268768768768773 	300.0037854603403 	0.01093664430129498 	101329.4751973585
-0.6243743743743745 	299.9980699364723 	0.009019620145611459 	101322.7179179086
-0.6218718718718721 	299.9923754846291 	0.02208307422970966 	101315.9861498701
-0.6193693693693696 	299.9867965668458 	0.03819968026322496 	101309.3917513752
-0.6168668668668671 	299.9814532904097 	0.05364891307384127 	101303.0758878696
-0.6143643643643645 	299.9764555079204 	0.06811242912527464 	101297.1685322608
-0.6118618618618621 	299.9719001050037 	0.0812872556229252 	101291.7842989442
-0.6093593593593596 	299.9678782458958 	0.09288895685733944 	101287.0308307755
-0.6068568568568571 	299.9644726683523 	0.1027092663940856 	101283.0059053812
-0.6043543543543546 	299.9617363158012 	0.110600752372387 	101279.7719140185
-0.6018518518518521 	299.9597197214047 	0.1164285837098768 	101277.3885841708
-0.5993493493493496 	299.9584491212905 	0.1201142669198055 	101275.886866119
-0.5968468468468471 	299.9579412693615 	0.1215719005548789 	101275.2866859444
-0.5943443443443446 	299.9582118301225 	0.1207714182542695 	101275.6064248301
-0.591841841841842 	299.9592654328644 	0.1177602006272456 	101276.8514469308
-0.5893393393393397 	299.9610683755895 	0.1125440387645205 	101278.9820835336
-0.5868368368368371 	299.9635936655004 	0.1052398263207452 	101281.9664472359
-0.5843343343343346 	299.96678692598 	0.09599008912550254 	101285.7403420298
-0.5818318318318321 	299.9705849437325 	0.08496904203703437 	101290.2291406683
-0.5793293293293297 	299.9749124448691 	0.07247047936777602 	101295.3438296732
-0.5768268268268271 	299.9796823015801 	0.05871559373667588 	101300.981606831
-0.5743243243243245 	299.9847785369582 	0.04397186577639968 	101307.0054050344
-0.5718218218218221 	299.9901199304578 	0.02854190031327238 	101313.3192874207
-0.5693193193193196 	299.995598216331 	0.01270049923886144 	101319.7953278602
-0.5668168168168171 	300.0011226321231 	0.007396636810276433 	101326.3261198855
-0.5643143143143147 	300.0066508332451 	0.01928880827897821 	101332.8617316439
-0.5618118118118121 	300.0120977724698 	0.03504383915508906 	101339.3015693345
-0.5593093093093094 	300.0173592348035 	0.05023382653167725 	101345.5224306416
-0.5568068068068072 	300.022330922201 	0.06461873683322786 	101351.4009815583
-0.5543043043043046 	300.0269103769909 	0.07784157239348446 	101356.8159018191
-0.551801801801802 	300.0310156905329 	0.08972032228124915 	101361.6703952035
-0.5492992992992995 	300.0345699400493 	0.09998016532003741 	101365.8734044328
-0.5467967967967969 	300.0375019874709 	0.1084152484334451 	101369.3407658745
-0.5442942942942947 	300.039752884643 	0.1149239791596092 	101372.00273522
-0.5417917917917919 	300.0412713536729 	0.1192828829810576 	101373.7985107485
-0.5392892892892895 	300.042020192151 	0.1214785750048339 	101374.6841471827
-0.536786786786787 	300.0419928085195 	0.1214006022280352 	101374.6517501927
-0.5342842842842846 	300.0411835431379 	0.1190251784652581 	101373.6948268793
-0.531781781781782 	300.0395979459814 	0.1144639278959916 	101371.8198592103
-0.5292792792792794 	300.037260318954 	0.1076825082110555 	101369.0555167774
-0.526776776776777 	300.0342072283932 	0.09886267717508167 	101365.4451395636
-0.5242742742742745 	300.0304922683725 	0.08812562221873466 	101361.0521994381
-0.521771771771772 	300.0261982845479 	0.07566611731360202 	101355.9747528396
-0.5192692692692695 	300.0214076614671 	0.06183477797960125 	101350.3102364953
-0.516766766766767 	300.0162216994725 	0.04685104316458896 	101344.1785101542
-0.5142642642642645 	300.0107547191401 	0.03106359798912512 	101337.7147500501
-0.511761761761762 	300.0051145952003 	0.01476103276242153 	101331.0465940944
-0.5092592592592596 	299.9993978435013 	0.006450126920736964 	101324.288196062
-0.506756756756757 	299.9936821218373 	0.01830427203087171 	101317.5312977528
-0.5042542542542544 	299.9880655385766 	0.03453229297066942 	101310.8919485151
-0.5017517517517521 	299.9826679077265 	0.05014114525700489 	101304.511622793
-0.4992492492492494 	299.977595370336 	0.06480569086891921 	101298.5158587514
-0.496746746746747 	299.9729422236164 	0.07827028239764755 	101293.0160627164
-0.4942442442442445 	299.9688041044707 	0.0902115547970021 	101288.1251345458
-0.4917417417417421 	299.9652628472737 	0.1004434264385528 	101283.9398427516
-0.4892392392392395 	299.9623776869415 	0.1087805770925115 	101280.5299384449
-0.486736736736737 	299.9602003118801 	0.1150666439318433 	101277.9566149657
-0.4842342342342345 	299.9587591417894 	0.1192372672759046 	101276.2533102506
-0.481731731731732 	299.9580754672476 	0.1211816691313685 	101275.4453122458
-0.4792292292292296 	299.9581733919449 	0.1208859161432907 	101275.5610703079
-0.4767267267267268 	299.9590533723158 	0.1183705997172244 	101276.6008818185
-0.4742242242242246 	299.9606903643351 	0.113626413964333 	101278.5354055221
-0.471721721721722 	299.9630586706999 	0.1067842479396096 	101281.3342345839
-0.4692192192192195 	299.9661069325392 	0.0979633003821182 	101284.9367357642
-0.4667167167167169 	299.9697709581524 	0.08734390426184728 	101289.2671645242
-0.4642142142142145 	299.973978596351 	0.07521072020398799 	101294.2401153896
-0.461711711711712 	299.9786333163498 	0.06175660495113035 	101299.7417675319
-0.4592092092092094 	299.9836344652147 	0.04727383015083678 	101305.6531244787
-0.456706706706707 	299.9889017636719 	0.03204974387020757 	101311.8793485853
-0.4542042042042045 	299.9943321805085 	0.01634894869960351 	101318.2987484686
-0.451701701701702 	299.9998251656724 	0.004407731721854247 	101324.7922875842
-0.4491991991991995 	300.005336328401 	0.01549913474450673 	101331.3076946114
-0.4466966966966969 	300.0107875298463 	0.03125714180970057 	101337.7525048484
-0.4441941941941945 	300.0160804815269 	0.04652729298683393 	101344.0105263979
-0.441691691691692 	300.0211073941717 	0.06106589945344597 	101349.9543104584
-0.4391891891891895 	300.0257687092234 	0.07452303936589473 	101355.4659519918
-0.436686686686687 	300.0299832342744 	0.08673010964979819 	101360.4495544453
-0.4341841841841846 	300.0336719496244 	0.09738786835584684 	101364.811526549
-0.431681681681682 	300.0367612880182 	0.1063007923212106 	101368.4648809179
-0.4291791791791794 	300.0391907939564 	0.1133186745095341 	101371.3380369578
-0.426676676676677 	300.0408984993038 	0.1182234094274835 	101373.3575859068
-0.4241741741741744 	300.0418446891341 	0.1209810987300966 	101374.4766352142
-0.421671671671672 	300.0420157925421 	0.1214564568255168 	101374.6789730206
-0.4191691691691694 	300.0414006241231 	0.1196461805489934 	101373.9515554258
-0.4166666666666669 	300.0400020435141 	0.1156153285309847 	101372.2977546822
-0.4141641641641645 	300.0378439787276 	0.1093487806563287 	101369.7457470175
-0.411661661661662 	300.0349547865984 	0.101019340479843 	101366.329193306
-0.4091591591591594 	300.0313902938201 	0.09072458681388677 	101362.1141293438
-0.406656656656657 	300.0272278493212 	0.07866514312748285 	101357.1922057893
-0.4041541541541545 	300.0225459558314 	0.06515091424312813 	101351.6561971288
-0.401651651651652 	300.0174442782012 	0.05040299003750236 	101345.6240607135
-0.3991491491491494 	300.0120359377368 	0.03476923750292783 	101339.2295896282
-0.396646646646647 	300.0064221504874 	0.01853716232456739 	101332.5924755136
-0.3941441441441444 	300.0007128944908 	0.003035641078005713 	101325.8428846983
-0.3916416416416419 	299.9949878041666 	0.01454418586167593 	101319.0748376896
-0.3891391391391395 	299.9893440710745 	0.03085628895496149 	101312.4033080182
-0.3866366366366368 	299.9838967651557 	0.04659289502595651 	101305.9642227225
-0.3841341341341344 	299.9787539489334 	0.06144740496967239 	101299.885304463
-0.381631631631632 	299.9740070722546 	0.07516802091838795 	101294.2746975375
-0.3791291291291294 	299.9697553046764 	0.08743885114915684 	101289.2494056461
-0.3766266266266269 	299.9660786569359 	0.09807223830150104 	101284.9040540697
-0.3741241241241244 	299.963045821436 	0.1068443825747764 	101281.3196261553
-0.371621621621622 	299.9607117609411 	0.1135782602369571 	101278.5610908762
-0.3691191191191194 	299.9591139198754 	0.1182151466546895 	101276.6726742072
-0.366616616616617 	299.9582714881639 	0.1206195511259781 	101275.6770104781
-0.3641141141141143 	299.9582069395827 	0.1208096422710526 	101275.6007646813
-0.3616116116116119 	299.9589116448732 	0.118781866148378 	101276.4334616441
-0.3591091091091095 	299.9603701164275 	0.1145272980994555 	101278.1569847843
-0.356606606606607 	299.9625597530245 	0.1082014374301119 	101280.7446691165
-0.3541041041041044 	299.9654421704233 	0.09986197229031482 	101284.1511506001
-0.3516016016016019 	299.9689554409188 	0.08969997361789114 	101288.3033608633
-0.3490990990990994 	299.9730341058382 	0.07794979397896798 	101293.1238514478
-0.346596596596597 	299.9775758206417 	0.06480343682479375 	101298.4918841501
-0.3440940940940944 	299.982489790514 	0.05058939968124331 	101304.3001343499
-0.3415915915915919 	299.9876863695749 	0.035566981446958 	101310.4427171387
-0.3390890890890895 	299.9930674402435 	0.020012936450025 	101316.8037002744
-0.3365865865865869 	299.9985245716104 	0.004219800743651505 	101323.2547849951
-0.3340840840840844 	300.0040089429365 	0.01224585284433493 	101329.738460624
-0.3315815815815819 	300.0094569573814 	0.02742946622526704 	101336.1794056187
-0.3290790790790794 	300.0147739991611 	0.04276486069836654 	101342.4658619502
-0.3265765765765769 	300.0198499024135 	0.0574412410132881 	101348.4674961237
-0.3240740740740744 	300.0245909706339 	0.07111152228373956 	101354.0733680196
-0.3215715715715718 	300.0289149786068 	0.08363196691770736 	101359.1864053249
-0.3190690690690695 	300.0327371625837 	0.09468056261161953 	101363.7061348013
-0.3165665665665668 	300.0359814095698 	0.1040502760049652 	101367.5426753261
-0.3140640640640644 	300.0385832009719 	0.1115760300288653 	101370.6195448396
-0.311561561561562 	300.0404744220926 	0.1170135224379491 	101372.8560863164
-0.3090590590590593 	300.0416160677578 	0.1203383265909783 	101374.206313404
-0.3065565565565568 	300.041986239536 	0.121379626747776 	101374.6440590265
-0.3040540540540545 	300.0415656015409 	0.1201334543764697 	101374.1466855518
-0.3015515515515518 	300.0403572041984 	0.1166427750151358 	101372.7177839568
-0.2990490490490494 	300.0383819211194 	0.1108836352403728 	101370.3819172468
-0.2965465465465469 	300.0356613592271 	0.1030517900124273 	101367.1647919001
-0.2940440440440444 	300.0322529592511 	0.09320953882520444 	101363.1342492324
-0.2915415415415418 	300.028227333651 	0.08155639323569419 	101358.3741151061
-0.2890390390390395 	300.0236588705517 	0.0683761878467333 	101352.9721583291