/*--------------------------------*- C++ -*----------------------------------*\
  =========                 |
  \\      /  F ield         | OpenFOAM: The Open Source CFD Toolbox
   \\    /   O peration     | Website:  https://openfoam.org
    \\  /    A nd           | Version:  7
     \\/     M anipulation  |
\*---------------------------------------------------------------------------*/
FoamFile
{
    version     2.0;
    format      ascii;
    class       volScalarField;
    location    "0.00021";
    object      Ux;
}
// * * * * * * * * * * * * * * * * * * * * * * * * * * * * * * * * * * * * * //

dimensions      [0 1 -1 0 0 0 0];

internalField   nonuniform List<scalar> 
5000
(
-1.1717032e-13
-2.7720435e-13
-5.7164751e-13
-7.7692184e-13
-6.7211424e-13
-5.3998286e-13
-5.3670427e-13
-5.0750799e-13
-6.1732201e-13
-6.5398002e-13
-5.9193511e-13
-4.5328302e-13
-4.428514e-13
-6.6635365e-13
-6.3409456e-13
-5.1083832e-13
-4.4556683e-13
-2.8519043e-13
7.7048836e-14
1.6679241e-13
4.074492e-14
-2.1768031e-13
-2.7053882e-13
-3.9410133e-13
-1.2609113e-13
8.9354658e-14
-3.109121e-13
-5.0602863e-13
-7.3860603e-13
-8.3971103e-13
-7.0303308e-13
-4.7249844e-13
-2.7652374e-13
-5.5057555e-13
-4.62362e-13
-3.4391463e-13
-3.6488439e-13
-2.9993062e-13
-1.7026979e-13
-2.7547224e-13
-3.966752e-13
-2.9158256e-13
-5.6726196e-13
-3.3953531e-13
-6.3427057e-13
-8.0199789e-13
-4.1647584e-13
-3.5641019e-13
-3.0937443e-13
-2.8555481e-13
-5.2358617e-13
-6.7497643e-13
-3.1962113e-13
-5.5708598e-13
-6.2575832e-13
-5.5162717e-13
-7.0967049e-13
-4.033456e-13
-6.0648722e-13
-6.8971107e-13
-3.8540082e-13
-6.5950073e-13
-7.5640254e-13
-5.7323541e-13
-4.2019934e-13
1.576051e-13
-2.0115572e-13
-3.6955475e-13
-4.4556444e-13
-5.2619111e-13
-4.3061746e-13
-6.2056466e-13
-4.3524173e-13
-4.8876564e-13
-3.3083072e-13
-3.2630729e-13
-3.9398727e-13
-4.1528074e-13
-5.1398665e-13
-3.2423074e-13
-1.8165063e-14
-3.3381937e-14
-4.2479747e-13
-5.9403466e-13
-4.9886263e-13
-4.9060245e-13
-2.7152955e-13
-5.0521067e-13
-6.0781266e-13
-4.1827804e-13
-1.090797e-13
-1.6225186e-13
-3.5168555e-13
-1.2986628e-13
-7.2740908e-14
-4.1042308e-14
-1.6320504e-13
-1.2048657e-13
-2.9211393e-13
-2.4002998e-13
-3.6562474e-13
-5.8349556e-13
-2.844167e-13
-2.8622008e-13
-1.3343768e-13
-2.8405486e-13
-4.6309519e-13
-7.7318451e-13
-8.1483782e-13
-7.2784142e-13
-5.6387021e-13
-3.7552634e-13
-2.3447803e-13
1.5706855e-13
-4.3448086e-13
-8.7977741e-13
-6.0474944e-13
-3.8189603e-13
-1.3644728e-13
-1.2041595e-13
-6.5304348e-13
-5.4991928e-13
-3.0930825e-13
-6.0809901e-14
-2.7054793e-13
-3.6688858e-13
-1.1233965e-13
-1.5962355e-13
-5.6430004e-14
-3.3043409e-14
-3.0123948e-13
-4.6202838e-13
-6.6449505e-14
1.2493463e-13
-5.8433141e-14
-2.7712594e-13
-1.0790732e-13
2.6214701e-13
1.6361447e-13
-1.0663824e-13
-2.5544616e-14
2.9579977e-13
4.5626461e-13
6.6590974e-13
5.628903e-13
3.4986558e-13
4.6107426e-13
5.724236e-13
3.1590716e-13
1.8806819e-13
-2.2987506e-14
-3.5928932e-13
5.572124e-14
1.3094796e-13
2.89741e-13
1.7266386e-13
3.279408e-13
2.5063907e-13
9.3348988e-14
1.9282922e-13
1.3682513e-14
1.4766326e-13
2.4273126e-13
5.1119965e-13
3.9224722e-13
1.6789368e-13
3.2426422e-13
6.9011885e-13
6.9059299e-13
2.8758001e-13
1.0206572e-13
1.3814653e-13
8.4336087e-14
-8.1394433e-14
1.0388504e-14
1.4026074e-13
2.8031894e-14
-1.817397e-13
7.6245441e-14
1.0775591e-13
-2.7632566e-13
-3.4909936e-13
-3.7234026e-13
-4.1240147e-13
-2.0010388e-13
-6.5910907e-13
-7.4324981e-13
-3.6894003e-13
-5.1797154e-13
-5.8570762e-13
-7.8451658e-13
-8.236448e-13
-6.0449692e-13
-3.5921254e-13
-5.4046493e-13
-4.6360539e-13
-2.4926092e-13
-4.1599249e-13
-2.2791093e-13
-2.4636339e-13
-3.1702147e-13
-2.2210086e-14
3.5194592e-14
-8.2639412e-14
-8.972118e-14
-5.7730105e-14
-2.3315899e-13
-9.5683163e-14
1.4188698e-13
2.9403054e-14
-3.7070823e-13
-2.2232421e-13
-1.0552095e-13
-4.4626189e-13
-3.762845e-13
-2.6928358e-13
-3.3337702e-13
-2.7389312e-13
-2.1119929e-13
-4.620491e-13
-8.5163164e-13
-9.8384044e-13
-7.4759654e-13
-5.3555868e-13
-5.6216677e-13
-4.8283889e-13
-5.1949658e-13
-4.1019427e-13
-1.6474742e-13
-4.1400082e-13
-8.8999189e-14
-3.6222716e-13
-5.4639917e-13
-6.9280462e-13
-7.4014583e-13
-5.02262e-13
-5.3240443e-13
-3.5481184e-13
-4.7124103e-14
1.7517436e-13
-1.312743e-13
-7.318306e-14
1.828914e-13
1.5750931e-13
-4.5756042e-14
-1.9492967e-13
-1.1356927e-13
2.9143272e-14
-1.4730814e-13
-2.8272233e-13
-8.2339946e-14
-1.1537248e-13
-1.4701013e-13
7.8959437e-14
1.9200155e-13
6.0707802e-14
-2.0467948e-13
-4.117445e-13
-1.9171617e-13
5.9582559e-14
-7.6133599e-14
-1.873255e-13
-2.6362471e-13
-2.9427731e-13
-1.0016602e-13
2.4385432e-15
-1.6188258e-13
9.2407792e-14
4.2811421e-13
7.4300537e-13
5.7050492e-13
4.9573893e-13
3.841056e-13
3.1597045e-13
2.8684428e-13
1.855722e-13
4.761714e-13
6.3559018e-13
3.571432e-13
-2.3641617e-13
-1.90802e-13
3.7287332e-14
-4.7381269e-15
9.7778556e-14
7.1404645e-14
-5.0280077e-15
2.3203292e-13
5.9100447e-13
7.0796559e-13
5.7812734e-13
4.2701891e-13
2.4869854e-13
7.3517306e-14
1.413479e-13
1.6921971e-13
-8.1040451e-14
1.3213177e-13
5.2477432e-14
4.6415641e-14
2.999441e-13
3.459258e-13
5.2023033e-13
5.3718157e-13
5.5195768e-13
1.7693418e-13
1.0237957e-13
8.1383712e-13
4.4718364e-13
1.6651931e-13
3.8571255e-13
4.2415598e-13
4.1843692e-13
5.0655487e-13
3.4506805e-13
4.6868587e-13
6.9551797e-13
6.9074498e-13
7.685718e-13
5.1128844e-13
-1.2777601e-14
-2.4704865e-13
-2.0623838e-14
-2.5735698e-14
3.7355046e-14
1.2213586e-13
4.4369922e-14
-1.7441532e-14
8.8801815e-14
-1.1051014e-13
8.8792666e-14
1.80527e-13
1.890323e-13
-3.7544456e-14
2.3185943e-14
1.8638682e-13
2.0066864e-13
2.6242339e-13
2.9811075e-13
2.4382475e-13
1.6400012e-13
2.0668073e-13
3.2347611e-13
4.8606997e-13
-3.9223353e-14
-3.6024825e-14
2.1769957e-14
1.6460368e-14
1.497226e-13
1.7809093e-13
5.9808458e-14
2.8471941e-13
1.7204548e-13
1.561061e-13
2.0401264e-13
8.0792921e-14
9.837093e-14
1.7771779e-14
-9.4405233e-14
-6.1849658e-14
-2.0919817e-15
-4.3136547e-13
-3.2452355e-13
8.1255228e-14
-1.3187088e-14
-1.2115704e-13
9.2928852e-14
3.0238237e-13
4.3662762e-13
1.1794738e-13
2.1457028e-13
3.9842042e-13
2.8000892e-13
-8.1478709e-14
3.2801249e-14
5.236262e-14
1.389967e-13
2.5897854e-13
3.0149734e-13
3.1047528e-13
1.6348531e-13
1.7055077e-13
1.195679e-13
-2.8342053e-14
2.2113133e-16
1.3941793e-13
2.1828652e-13
1.2888575e-13
-6.2977561e-15
2.1171318e-14
2.5100232e-13
6.2060026e-13
6.3359134e-13
2.6854755e-13
4.2470545e-16
2.1387525e-13
2.4413178e-13
6.6271644e-14
-2.0681159e-14
1.2684002e-13
2.7857014e-14
-4.3730835e-14
-2.9147256e-13
-3.7019724e-13
-4.1334324e-13
-1.8088159e-13
1.0669238e-13
1.8660677e-13
-6.2255759e-14
-7.3188329e-14
-6.0478935e-14
-1.6384867e-13
3.6084144e-13
2.1515423e-13
3.9762343e-15
-6.2198346e-14
1.3338689e-13
2.3259765e-13
1.9656277e-14
-7.432885e-14
-1.41237e-13
-3.7830535e-13
-3.8904096e-13
-7.738248e-14
1.8994491e-13
2.7536271e-13
3.6444517e-13
4.0491114e-13
3.8585437e-13
5.2204549e-14
2.4431136e-13
6.3041615e-13
5.8972462e-13
6.7702771e-13
7.1943462e-13
7.7713587e-13
9.0510917e-13
8.9336953e-13
6.4277335e-13
6.1226979e-13
6.6950418e-13
5.8346131e-13
4.2541772e-13
5.6702948e-13
7.0680959e-13
4.082044e-13
4.1623823e-13
4.6174747e-13
6.4904444e-13
4.8912391e-13
1.5834543e-13
1.092303e-13
4.4245369e-14
2.7552738e-13
2.3663221e-13
9.9402781e-14
-2.1698631e-13
-2.8974619e-13
-1.6399886e-13
-2.3132101e-13
-1.8190299e-13
-1.3401597e-13
-3.163014e-13
-1.7298357e-13
-2.5741968e-14
-3.2009755e-13
-5.5692035e-13
-3.703944e-13
-3.5672673e-13
-1.6027046e-13
-2.6793048e-13
-4.6928827e-13
-3.3822377e-13
-4.6936946e-13
-2.8800784e-13
-4.293234e-13
-3.2931551e-13
-2.489056e-13
-2.8308471e-13
-1.0814657e-13
-2.2646786e-13
4.7277462e-14
6.4867458e-14
1.2989244e-13
2.8349081e-13
4.8214407e-13
7.6544668e-13
5.5046968e-13
4.1563326e-13
3.3406409e-13
2.9376578e-13
3.4834161e-13
5.7566775e-13
1.2581716e-13
-1.0439411e-13
2.1884319e-13
4.7549074e-13
4.7383828e-13
4.6176838e-13
4.4593281e-13
1.5042169e-14
5.3659953e-14
3.3462422e-14
-1.4632514e-14
4.3846867e-14
2.7607367e-13
1.7699883e-13
4.8934521e-14
-1.9513973e-13
-1.4444886e-13
-1.9793185e-14
-4.0753748e-14
3.5833795e-13
5.0792833e-13
2.8685671e-13
4.1333554e-14
1.2667029e-13
7.764115e-14
2.4527266e-13
2.6049485e-13
1.1842683e-13
-8.3152421e-15
-3.133569e-13
-3.0658205e-13
-1.7359874e-13
-2.9915039e-13
-3.5039082e-13
-4.4725269e-14
2.1047538e-13
2.9461183e-13
1.526319e-13
6.6933109e-14
1.4397478e-13
9.897779e-14
2.9377065e-13
1.2097498e-13
-1.5046448e-13
-1.9859299e-13
-2.4165006e-13
-3.2642476e-13
-5.2620408e-13
-5.1016314e-13
-4.5286143e-13
-1.8639226e-13
-1.5898265e-13
-9.0376081e-14
3.1408552e-14
-2.4611003e-13
-1.2873317e-13
-3.4212916e-14
-1.4261438e-13
-2.7472208e-14
-3.702683e-13
-5.5569503e-13
-2.645389e-13
-4.9624121e-13
-7.0441469e-13
-7.0773978e-13
-3.8880798e-13
-2.133706e-13
-4.8477644e-13
-6.0080265e-13
-6.4427914e-13
-8.1103941e-13
-9.5708475e-13
-5.2204126e-13
-3.3274564e-13
-6.0699865e-13
-4.9645527e-13
-4.4605936e-13
-7.3191126e-13
-8.2595553e-13
-8.8251758e-13
-7.4623168e-13
-6.7630682e-13
-8.4137298e-13
-1.0957489e-12
-7.7012186e-13
-7.4176982e-13
-9.6651413e-13
-1.2883433e-12
-9.7746417e-13
-7.3306243e-13
-9.3957992e-13
-8.5894936e-13
-5.1578092e-13
-3.4976778e-13
-5.0800876e-13
-6.3922208e-13
-8.6923533e-13
-9.4361179e-13
-7.9512886e-13
-6.3660997e-13
-4.016855e-13
-2.4584762e-13
-4.021422e-13
-4.4828316e-13
-4.736863e-13
-3.6627303e-13
-6.0453209e-14
-6.3223793e-14
-3.9904761e-13
-5.1929913e-13
-3.8008178e-13
4.9765216e-15
1.0286811e-13
2.507571e-13
2.4381443e-13
1.7586306e-13
3.855414e-14
2.284583e-13
1.6044932e-13
-3.0377869e-14
-5.299256e-14
1.9445313e-13
8.5122387e-14
-2.1420763e-13
-4.1978642e-14
-2.7445312e-13
-4.5484729e-14
-2.6627206e-14
1.5667519e-16
-1.4010787e-13
-3.9124202e-15
1.1980499e-14
2.4727517e-14
1.6493385e-13
7.6388369e-14
1.3088121e-13
1.0422195e-13
1.3370157e-13
8.8261133e-14
-8.5909093e-14
-1.475868e-14
2.2648193e-13
-9.1124549e-14
-5.1429032e-14
1.6045475e-13
1.5586102e-13
2.5924271e-13
7.8804005e-14
1.984653e-14
2.0336241e-13
3.363257e-13
2.2571724e-13
1.813947e-13
2.8574698e-13
2.2505775e-13
5.2323744e-13
3.8742196e-13
2.1395737e-13
-3.1708089e-14
-3.716952e-13
-2.0447643e-13
-1.1334907e-13
-4.7072057e-14
-1.4730673e-13
-3.7336199e-13
-4.9651978e-13
-6.8569203e-13
-1.8548309e-13
-4.4541107e-14
-3.5298415e-13
-4.8679382e-13
-5.1727323e-13
-4.1436897e-13
-6.3164968e-13
-6.9926222e-13
-5.8304383e-13
-7.6508473e-13
-8.7345895e-13
-7.1872256e-13
-8.2198887e-13
-3.5038268e-13
-2.1100647e-13
-2.7475904e-13
-1.6295676e-13
-1.5102404e-13
3.9177951e-14
-4.7810211e-14
-7.5065296e-14
-3.0578122e-13
-4.5485028e-13
-5.3207393e-13
-5.8797111e-13
-5.8058665e-13
-4.4328613e-13
-3.5378012e-13
-5.7879906e-13
-5.4982693e-13
-4.0616284e-13
-1.2064577e-13
-2.5433371e-14
-9.5178561e-14
-3.9637979e-14
-1.6767003e-13
-9.2509462e-14
-1.3113607e-13
1.1339548e-13
2.1164151e-13
1.5548614e-13
-8.3791954e-14
-2.413297e-13
-1.6169801e-13
1.6011171e-13
3.196029e-13
4.3929471e-13
3.3168187e-13
5.1983266e-14
1.0901428e-13
1.8944027e-13
1.59935e-13
2.0496104e-13
4.3142341e-13
5.5297296e-13
5.8991409e-13
6.3032775e-13
6.2337289e-13
5.9442469e-13
7.5990035e-13
9.0233711e-13
6.654023e-13
5.7444564e-13
8.5935604e-13
1.1721835e-12
1.2025308e-12
1.1261787e-12
1.0934199e-12
7.6087874e-13
8.1886234e-13
6.4298141e-13
7.9915391e-13
6.8735336e-13
4.9109964e-13
3.9605889e-13
2.8663132e-13
4.5928642e-13
5.4518425e-13
4.6921799e-13
4.8593817e-13
6.436863e-13
8.7731953e-13
1.102846e-12
8.5649346e-13
7.6719318e-13
7.4206417e-13
3.6844171e-13
3.5347597e-13
8.247726e-13
8.4518216e-13
6.3670046e-13
5.1398031e-13
6.5813838e-13
7.5690866e-13
4.619768e-13
3.7488116e-13
5.955966e-13
6.6009541e-13
6.349889e-13
3.9421056e-13
3.9603838e-13
4.9530407e-13
6.4277138e-13
6.8955782e-13
7.4467969e-13
8.1061668e-13
7.4225064e-13
5.9937237e-13
5.7100176e-13
4.4755098e-13
1.5719971e-13
9.6034342e-14
-1.3608501e-13
1.4868548e-13
1.8373782e-13
-1.2296781e-13
-2.3906448e-13
-2.6302229e-13
-3.8709675e-13
-7.1730301e-13
-7.0324654e-13
-6.7360958e-13
-4.5648283e-13
-6.6984622e-13
-9.4032912e-13
-1.1365441e-12
-9.5384013e-13
-1.0208561e-12
-1.0341592e-12
-9.7261821e-13
-1.0499409e-12
-7.7092741e-13
-8.5194979e-13
-1.0115183e-12
-1.1938513e-12
-1.1387557e-12
-9.594391e-13
-1.0761118e-12
-1.045506e-12
-9.8309668e-13
-1.2608153e-12
-9.6178236e-13
-8.8245116e-13
-7.3049708e-13
-5.7575725e-13
-9.1365668e-13
-1.183722e-12
-1.2076395e-12
-9.7649202e-13
-1.0796167e-12
-1.1317891e-12
-7.5709995e-13
-5.2198892e-13
-5.384841e-13
-7.5078411e-13
-9.0182404e-13
-6.929471e-13
-4.1620819e-13
-5.1204244e-13
-7.1731767e-13
-7.2230707e-13
-5.9523123e-13
-7.2729417e-13
-5.219302e-13
-5.4038731e-13
-9.6028196e-13
-7.1006024e-13
-4.9332904e-13
-3.9610556e-13
-4.1545261e-13
-2.9722743e-13
-3.5433062e-13
-3.2238403e-13
-5.4454094e-13
-7.8909515e-13
-4.5565903e-13
-5.0533948e-13
-4.0198581e-13
-6.3963066e-13
-7.879696e-13
-5.4830546e-13
-3.4205013e-13
-1.315375e-13
-1.8371761e-13
-1.8286461e-13
6.9984929e-14
-1.322831e-14
-2.7014743e-13
-2.2685151e-13
-4.5384943e-14
7.8593179e-14
1.3552076e-13
-3.4431051e-14
1.3089963e-13
1.6047492e-13
9.7771027e-14
4.4225102e-13
4.9550373e-13
5.1396194e-13
4.4058471e-13
2.5035447e-13
2.5587246e-13
2.063799e-13
1.3077204e-13
2.760248e-13
1.0081202e-13
-2.6423887e-14
7.2513404e-14
2.4810143e-13
1.3727696e-13
1.8119056e-13
1.9310001e-13
1.1554346e-13
-1.0638737e-13
-3.0589807e-13
-3.7763413e-13
-3.9440175e-13
-3.7961674e-13
-3.8319429e-13
-2.819582e-13
-4.5784167e-13
-4.2588674e-13
-3.9946799e-13
-2.8599227e-13
-1.0908062e-13
-3.9519285e-14
-2.6226918e-13
-1.8769522e-13
-4.2941834e-13
-5.3261352e-13
-4.1526369e-13
-3.9732669e-13
-2.0071939e-13
-1.774738e-13
-1.4319594e-13
-3.0916297e-13
-6.14716e-13
-4.512258e-13
-1.2429735e-13
1.4139858e-13
3.1558945e-14
-5.7777087e-14
-2.7939131e-13
-4.0345368e-13
-3.0385743e-13
-2.8203582e-13
-6.1999031e-14
-3.5925895e-13
-2.5688445e-13
-1.2954799e-13
-2.3537934e-13
-3.4029934e-13
-3.2995998e-13
-3.1367239e-13
-2.5002098e-13
-3.0535484e-13
-2.6325782e-13
-3.4171079e-13
-3.4207217e-13
-4.9743971e-16
-2.6090188e-13
-2.9229119e-13
-3.7706531e-13
-4.0685089e-13
-3.0207766e-13
-5.5874989e-13
-5.5815776e-13
-3.9049358e-13
1.5118226e-13
3.5848393e-13
5.1191339e-13
7.5709846e-14
-2.1120301e-13
-1.8075329e-13
-2.616949e-13
-2.7331934e-13
-4.3727636e-13
-8.3056121e-14
7.2868847e-14
1.1179023e-13
-1.2887279e-13
-8.2240632e-14
-2.2073728e-13
-1.4823142e-13
-1.0057375e-13
-4.0752518e-14
-2.3389099e-13
-4.369397e-13
-1.165623e-13
2.0883248e-14
-5.26416e-14
-3.6967487e-13
-3.7863545e-13
-4.4496828e-13
-2.3764421e-13
-5.7847179e-14
-3.5774945e-13
-4.9136967e-13
-6.2481482e-13
-6.1913604e-13
-4.5922148e-13
-4.9923399e-13
-4.7639625e-13
-3.2891676e-13
-1.7729225e-13
-2.7163491e-13
-2.4075856e-13
-7.8966754e-14
-1.1514754e-13
-4.330222e-13
-8.8932443e-14
-1.9351466e-13
-3.7840881e-13
-3.7958343e-13
-3.5842638e-13
-2.4034341e-13
-2.3175031e-13
5.0260405e-14
-1.2197625e-13
9.338348e-14
3.3311419e-14
1.6873596e-13
-1.232395e-13
-9.5867462e-14
5.6204335e-14
-4.2485513e-13
-4.830901e-13
-3.4429727e-13
-4.8013828e-14
1.0538289e-13
3.548361e-14
-3.0817692e-13
-6.9438566e-14
-2.7516842e-13
-3.0835643e-13
-6.5072309e-13
-8.8646916e-13
-4.9939401e-13
-4.4071096e-13
-4.8028005e-13
-5.1101537e-13
-2.2240245e-13
-5.6156243e-13
-7.3592077e-13
-7.4620138e-13
-6.3296808e-13
-3.8206515e-13
-6.1877244e-14
-4.5037385e-14
-5.9239325e-14
-1.5047664e-13
-2.29731e-13
-1.4195766e-13
-2.9725563e-13
-1.291914e-13
-1.0817193e-13
-3.8886351e-13
-2.6331597e-13
-5.4791251e-14
-5.5111173e-14
-3.0532343e-14
-7.8529558e-14
-4.4054119e-14
-1.8297968e-13
-2.7270836e-13
-3.1449957e-13
-4.3485005e-13
-4.8746363e-13
-4.9632516e-13
-4.9029359e-13
-3.2147951e-13
-3.7245781e-13
-4.7966388e-13
-1.9411746e-13
-3.51237e-13
-5.0126287e-13
-7.0513342e-13
-5.8870571e-13
-3.9271219e-13
-2.594849e-13
-2.8997127e-13
-4.4665982e-13
-5.6307041e-13
-7.3955302e-13
-5.2944877e-13
-8.7236405e-13
-7.0246735e-13
-3.0231396e-13
-8.1011256e-13
-9.2889981e-13
-7.667825e-13
-7.6397868e-13
-8.8640066e-13
-8.1368359e-13
-7.6242568e-13
-1.0212248e-12
-1.1792709e-12
-1.2491118e-12
-1.2380684e-12
-1.1946304e-12
-8.8963688e-13
-8.1229527e-13
-1.0060415e-12
-7.3595627e-13
-7.6103043e-13
-8.3936708e-13
-7.5083174e-13
-8.8654705e-13
-9.1874671e-13
-8.4406717e-13
-6.3797149e-13
-6.2636826e-13
-8.5107467e-13
-1.026932e-12
-8.7131166e-13
-8.6991521e-13
-8.2251074e-13
-8.3980134e-13
-1.2162155e-12
-1.1685864e-12
-1.1239353e-12
-1.1009762e-12
-8.4445492e-13
-8.0332073e-13
-6.6949397e-13
-3.7762428e-13
-4.8452058e-13
-6.7061168e-13
-9.0229582e-13
-6.4654767e-13
-4.0822248e-13
-4.199697e-14
7.6793788e-14
-2.5202356e-14
1.0125346e-13
2.979621e-13
5.1228257e-14
-8.9551816e-14
1.2950148e-13
6.0287414e-14
3.0598839e-14
6.6011691e-14
8.7324713e-14
1.6498689e-14
3.2322681e-13
3.8928398e-13
3.1724447e-13
4.713766e-13
2.5846757e-13
2.9517776e-13
5.9666542e-13
7.065794e-13
8.9008753e-13
9.0959357e-13
1.0557009e-12
9.9815775e-13
9.3241137e-13
1.1519987e-12
9.3341969e-13
9.913125e-13
1.2184532e-12
1.1124951e-12
1.1188126e-12
9.7715133e-13
1.1666575e-12
1.0045059e-12
9.7407564e-13
1.0521229e-12
1.005348e-12
9.4089414e-13
1.1565076e-12
9.9686232e-13
1.069945e-12
1.0235074e-12
8.2877143e-13
5.91582e-13
7.3394952e-13
1.088425e-12
7.6111152e-13
4.7816002e-13
5.0944209e-14
4.4935855e-13
4.4149634e-13
4.875845e-13
8.1101616e-13
6.3154388e-13
8.7646011e-13
6.2457557e-13
3.5146348e-13
5.1344723e-13
6.2692799e-13
5.4432326e-13
5.2602637e-13
2.8341752e-13
1.4397739e-13
3.1120351e-13
6.3170176e-13
5.032067e-13
5.1745694e-13
5.1898842e-13
1.8085439e-13
4.6779831e-13
8.7123751e-13
8.8143473e-13
6.5023364e-13
5.3585161e-13
8.5495692e-13
8.7028158e-13
7.1794274e-13
9.3560709e-13
8.3025131e-13
9.4064369e-13
1.1079811e-12
9.3940616e-13
9.9464577e-13
9.1041387e-13
4.9638182e-13
6.8650073e-13
6.687722e-13
8.0242654e-13
6.7639381e-13
6.3483985e-13
1.0349638e-12
8.7179183e-13
9.2967293e-13
7.4221693e-13
9.8641039e-13
1.1161884e-12
9.7824273e-13
8.3321546e-13
8.5357752e-13
9.7222982e-13
1.1547513e-12
1.2040489e-12
9.3415477e-13
1.0655597e-12
1.1897882e-12
1.106303e-12
1.0686177e-12
1.0560898e-12
6.1314197e-13
4.8121348e-13
7.3017666e-13
9.4940225e-13
1.1687965e-12
1.2788861e-12
9.4385383e-13
8.7765089e-13
5.7960457e-13
4.1931473e-13
7.7930958e-13
7.6315873e-13
8.4748257e-13
5.3464706e-13
6.5229668e-13
5.684733e-13
4.4792757e-13
8.3247349e-13
8.4914101e-13
7.1694671e-13
4.3389213e-13
5.2537029e-13
8.0328203e-13
9.5423164e-13
9.1555691e-13
9.9374661e-13
1.0194695e-12
5.7086468e-13
6.6460578e-13
5.8767354e-13
4.8111904e-13
5.048183e-13
7.4474598e-13
1.2519847e-12
9.9702849e-13
1.133976e-12
7.8961187e-13
6.9832825e-13
6.3694128e-13
6.8134927e-13
5.4429985e-13
2.007361e-13
6.1529559e-13
1.0590306e-12
4.935918e-13
-1.4372006e-15
3.0115684e-13
1.5646415e-13
2.6220823e-13
3.0454751e-13
2.02618e-13
1.9822066e-13
2.2643787e-13
2.3611166e-13
2.4640434e-13
-2.1382596e-13
-2.5809266e-13
-9.2838372e-14
-3.7955475e-13
-1.6230927e-13
2.8203139e-14
4.7474396e-14
4.2226339e-14
-2.3448052e-13
-2.3152125e-13
-6.9592367e-14
6.7759846e-14
-2.0539266e-13
-4.3355855e-13
-5.0201184e-13
-5.9421975e-13
-3.5030878e-13
-6.2497156e-13
-6.525933e-13
-4.4755463e-13
-6.2986247e-13
-8.8003406e-13
-8.8674839e-13
-9.1786097e-13
-7.3270822e-13
-3.7596551e-13
-1.8623358e-13
-5.3124462e-13
-4.448436e-13
-2.7588833e-13
-4.6059345e-13
-3.0611866e-13
-3.9993364e-13
-6.2089475e-14
-5.4449277e-14
-1.5331039e-13
-2.235831e-13
-2.986325e-13
-4.1872168e-13
-7.8942648e-13
-5.7242625e-13
-2.4686787e-13
-2.0790867e-13
-1.2316981e-13
-1.4951885e-13
-1.7764991e-13
-2.6018117e-13
-1.6305047e-13
-2.9484408e-13
-4.6720088e-13
-2.3326065e-13
-4.0463813e-13
-2.4449665e-13
-1.4905767e-13
-2.7970144e-13
-3.0174107e-13
-5.495337e-15
-6.7721275e-14
-3.9290098e-13
-6.6881904e-14
1.9499842e-13
3.7259723e-13
6.5474464e-13
7.4323553e-13
3.879807e-13
2.1404714e-13
1.8884312e-13
3.5402317e-13
3.6071872e-13
4.8089083e-13
7.6547092e-13
5.4349791e-13
5.9547329e-13
6.4343437e-13
6.0497684e-13
5.2535192e-13
6.0532105e-13
5.93931e-13
6.7801217e-13
5.9551284e-13
5.6628408e-13
4.9819931e-13
2.8029702e-13
8.3152748e-14
5.9622278e-14
3.0025649e-13
1.7355002e-13
4.0503997e-13
1.3142325e-13
1.6237537e-14
3.0112867e-13
5.1065097e-13
4.0056199e-13
3.8568892e-13
6.0167229e-13
1.9160073e-13
-7.5003633e-14
-1.6346064e-13
-3.1960309e-13
-2.4608439e-13
1.345604e-13
3.2689802e-15
-8.2004881e-14
-1.3084506e-13
-5.1029898e-13
-6.3904292e-13
-5.6308836e-13
-1.8121923e-13
-1.4477219e-13
-4.3919541e-14
-1.0596953e-13
-1.2288676e-13
1.2092522e-13
6.6532572e-14
1.5871224e-13
2.6650443e-13
2.1483066e-13
1.4257552e-13
1.6578074e-13
1.4635611e-13
2.8529503e-13
3.1513021e-13
2.8070729e-13
5.8253085e-14
-5.4836781e-14
-2.119395e-13
-2.3022335e-13
1.3163145e-14
-1.0671254e-14
-2.0020406e-13
-2.3998453e-13
3.6909695e-14
3.796867e-13
3.683537e-13
4.5916163e-13
4.5031054e-13
1.5404216e-13
-2.9288533e-14
4.7997556e-14
1.1537762e-13
2.1345878e-13
3.8019699e-14
2.4438197e-13
2.4724816e-13
4.6119605e-14
3.6208551e-13
1.7432479e-13
5.6036305e-13
2.812194e-13
4.0458497e-14
2.2569419e-13
3.8312133e-13
4.1187446e-13
1.1747918e-13
1.117611e-13
-7.9000846e-14
-1.085342e-13
4.378406e-13
3.3123262e-13
5.5640616e-13
4.3562084e-13
4.338156e-13
5.8251674e-13
2.7345089e-13
5.1648517e-13
5.8506295e-13
5.4733168e-13
3.650552e-13
4.2163056e-13
5.0513636e-13
5.4099883e-13
4.0329534e-13
3.4229587e-13
5.336343e-13
5.7566504e-13
5.601385e-13
6.9113175e-13
5.9620514e-13
7.7531266e-13
6.6422284e-13
2.2990558e-13
2.4474178e-13
4.0627261e-13
2.6741465e-13
4.8091625e-13
7.8055826e-13
8.5817756e-13
1.0158897e-12
8.5742676e-13
8.4530683e-13
6.9593298e-13
4.5138018e-13
8.4645815e-13
1.0862723e-12
8.6803933e-13
7.8567491e-13
8.0279499e-13
8.5142618e-13
9.0870998e-13
8.220818e-13
7.8106677e-13
7.2835951e-13
9.7173694e-13
1.2052723e-12
1.0856315e-12
8.8482306e-13
4.3785753e-13
1.6073951e-13
6.7351232e-13
6.9076427e-13
5.7796659e-13
8.4835941e-13
1.1435937e-12
1.2041477e-12
8.075005e-13
9.8927369e-13
1.1682676e-12
8.1186438e-13
7.6267094e-13
3.9995514e-13
5.1933945e-13
9.4722476e-13
1.3791167e-12
1.3077254e-12
1.1665897e-12
1.0914217e-12
9.2137786e-13
1.1310105e-12
1.2270461e-12
1.3045127e-12
1.170592e-12
1.0291891e-12
5.8029079e-13
7.488418e-13
5.5070297e-13
6.2907804e-13
7.4910835e-13
5.027617e-13
3.0881493e-13
3.6656746e-13
2.6354386e-13
8.3168093e-14
3.7397638e-13
2.6222857e-13
1.0368363e-13
9.826914e-14
1.7209735e-13
8.4216829e-14
-6.1846594e-14
3.6994227e-14
3.5485165e-14
-1.5894515e-14
-7.1194851e-14
-1.6080718e-14
3.0391536e-13
1.6928983e-13
-1.6452276e-13
-3.408783e-13
-1.180383e-13
-2.2375449e-13
-2.0881566e-13
-5.03664e-14
-7.0391024e-13
-6.2975419e-13
-5.1812378e-13
-4.5565535e-13
-3.1591754e-13
-5.262231e-13
-5.8447797e-13
-7.9023746e-13
-1.0920457e-12
-1.2134405e-12
-1.3000099e-12
-1.2797997e-12
-1.2642274e-12
-8.1796335e-13
-7.8638317e-13
-9.5382059e-13
-1.133893e-12
-1.3747268e-12
-1.5298485e-12
-1.5912657e-12
-1.4340894e-12
-1.4288239e-12
-1.7547239e-12
-1.8551661e-12
-1.5763255e-12
-1.4535484e-12
-1.0016514e-12
-9.1866343e-13
-8.7490955e-13
-1.1100393e-12
-9.8270433e-13
-9.1881436e-13
-8.8054798e-13
-7.3884518e-13
-8.0110383e-13
-2.5706287e-13
-4.3436454e-13
-5.3810084e-13
-5.6694029e-13
-7.2267368e-13
-5.7244264e-13
-4.3777838e-13
-4.0220132e-13
-5.9334133e-13
-6.9424726e-13
-7.0951874e-13
-5.3083815e-13
-5.366666e-13
-6.8167007e-13
-7.0503601e-13
-7.265721e-13
-6.7914064e-13
-6.584863e-13
-5.8284365e-13
-4.1357551e-13
-2.1250448e-13
-3.9022177e-13
-7.4407289e-13
-5.6150632e-13
-6.3339192e-13
-4.975485e-13
-4.6478784e-13
-5.9058954e-13
-6.776125e-13
-8.5193718e-13
-4.9238665e-13
-5.9355117e-13
-5.9433345e-13
-5.111144e-13
-6.3960127e-13
-8.3614868e-13
-8.0729781e-13
-3.7200467e-13
-3.7604876e-13
-3.5885594e-13
-5.828487e-13
-4.796766e-13
-3.2836255e-13
-5.4365121e-13
-5.8431086e-13
-5.1821458e-13
-1.1501276e-13
3.9953882e-14
2.2385027e-13
-4.7754001e-14
-2.6356595e-13
-3.0370577e-13
-2.6636216e-13
-4.1095002e-13
-3.7634379e-13
4.5377534e-14
-7.0013583e-14
-1.9352341e-13
-2.714026e-13
-3.5044022e-13
-4.2372422e-13
-3.5570539e-13
8.5299113e-14
2.7950866e-13
-1.3725959e-13
-3.4317732e-14
5.0206535e-14
2.1557067e-13
4.3466393e-13
4.0723811e-13
5.8740207e-13
3.5226469e-13
8.1332658e-14
1.9359907e-13
5.001778e-13
2.4859853e-13
-1.1096842e-14
2.6360608e-13
4.6231376e-13
4.4587e-13
1.4879683e-13
5.9226871e-13
8.1468769e-13
6.3830646e-13
3.4283953e-13
3.0321986e-13
4.2754701e-13
5.8368691e-13
5.7390594e-13
6.5797025e-13
5.47358e-13
1.835827e-13
3.2539938e-13
2.4480007e-13
4.2951361e-13
4.3740448e-13
2.1666281e-13
-4.2775409e-14
6.7718779e-14
1.4584347e-13
-2.3319062e-14
8.6797055e-14
2.1794115e-13
2.3850413e-13
1.9471117e-13
2.253181e-13
-2.5123805e-14
-6.1299004e-14
-6.260326e-14
-6.5586723e-14
-3.2290019e-15
-1.9737156e-13
-5.8201093e-14
8.3471563e-14
2.5605067e-13
1.8974995e-13
7.6559702e-14
2.11216e-13
2.4599726e-13
9.3271958e-14
-7.4231691e-14
-7.6688852e-14
5.5226041e-14
-8.2515575e-14
-2.1477199e-13
9.4468955e-14
-3.829525e-13
-3.4652317e-13
-3.8568392e-13
-4.3271623e-13
-3.9441124e-13
-4.684216e-13
-5.1166301e-14
-5.5589422e-14
3.8696724e-14
-2.7871041e-14
1.4731596e-13
7.4815009e-14
1.9477863e-13
3.7675397e-13
5.7377245e-14
-6.7254097e-15
2.0186094e-13
4.1099205e-13
3.8654801e-13
4.2038507e-13
4.1901799e-13
4.7349598e-13
4.5106679e-13
3.5694484e-13
2.4321921e-13
1.3730425e-13
4.3032024e-13
4.4694528e-13
4.6516045e-13
9.8357817e-13
9.2236391e-13
6.5834212e-13
4.4142702e-13
2.9575386e-13
3.8932204e-13
3.7595305e-13
3.8186341e-13
2.8965552e-13
7.1281921e-14
-1.6720712e-13
-2.3314141e-13
-4.3446723e-13
-4.1350382e-13
-4.0576955e-13
-6.2334486e-13
-4.3604977e-13
-2.6915472e-13
-3.6663992e-13
-2.3470054e-13
-1.3492581e-13
-1.6287105e-13
-4.7482574e-13
-3.8894258e-13
-3.0288637e-13
-1.860593e-13
-9.1142781e-14
-2.360842e-14
-3.6356789e-14
-1.9870893e-13
-2.0921162e-13
2.2587584e-13
5.2073953e-13
2.7331493e-13
2.6279036e-13
1.4444827e-14
2.1224741e-13
2.3847319e-13
1.9276257e-13
1.3131118e-13
3.2476522e-13
6.3537556e-13
3.1378141e-13
2.607377e-13
5.1971752e-13
6.849153e-13
6.6989405e-13
6.0280695e-13
7.206684e-13
4.8216997e-13
1.9124406e-13
2.4144332e-13
7.604155e-13
6.9645767e-13
3.7340624e-13
4.4762991e-13
2.1771786e-13
4.4718782e-13
5.187004e-13
-3.8805776e-14
-1.6627997e-13
9.0075126e-14
-3.0949448e-14
6.3307475e-14
1.6526872e-13
2.9018907e-13
1.4230742e-13
1.7921979e-13
2.8189258e-13
2.3552876e-13
1.5872871e-13
1.9183963e-13
7.7774227e-14
-9.0920523e-14
-3.9527422e-13
-5.3158642e-13
-4.0815737e-13
-2.4641821e-13
-2.9481551e-13
-2.9008947e-13
-3.461845e-13
-6.0638867e-13
-1.0339892e-12
-1.0763071e-12
-7.3518271e-13
-6.9758784e-13
-6.7579589e-13
-8.3092426e-13
-9.4974247e-13
-1.2722325e-12
-1.4611098e-12
-1.4323036e-12
-1.0863579e-12
-1.0887476e-12
-1.222896e-12
-1.0425157e-12
-1.146931e-12
-1.4365668e-12
-1.4978698e-12
-1.1657115e-12
-1.1013914e-12
-1.0633908e-12
-8.3040164e-13
-1.0517016e-12
-7.5675919e-13
-3.9894987e-13
-2.9379951e-13
-3.7526972e-13
-3.104935e-13
-3.627473e-13
-1.5875873e-13
-4.3093955e-13
-3.0858599e-13
-3.8781274e-13
-3.4142019e-13
3.3800887e-15
-5.6404679e-13
-6.2649742e-13
-5.7082566e-13
-7.1775173e-13
-5.4581701e-13
-3.0556196e-15
8.2924699e-14
-2.0695848e-13
-4.088939e-13
-4.7708574e-13
-5.2253453e-13
-6.5974561e-13
-5.8903456e-13
-4.6132602e-13
-6.4244515e-13
-6.151024e-13
-4.9903392e-13
-4.6544272e-13
-3.1999127e-13
-1.2900361e-13
-2.4627108e-13
-1.9236355e-13
-4.4071447e-13
-2.6122303e-13
-3.378511e-13
-2.2626499e-13
9.1864059e-14
3.9121206e-14
-1.2529944e-13
-2.6847998e-13
-5.0533798e-14
1.8482119e-13
9.1918432e-14
-2.495823e-13
-2.020708e-13
-1.5643818e-13
-3.4607372e-13
-4.605926e-13
-3.1016233e-13
-1.6340205e-13
-1.6065236e-13
-1.0715208e-13
-3.1637641e-15
-2.9405803e-13
-1.621429e-13
-9.8678897e-14
-1.8242788e-13
-1.5660298e-13
7.0078639e-14
-1.6999385e-13
-1.1313114e-13
1.8002189e-14
8.5799556e-14
1.1971806e-13
-6.8307683e-14
2.6868491e-13
2.8913235e-13
4.2494372e-13
7.5088815e-13
1.152362e-12
1.2445241e-12
1.1939475e-12
1.6398683e-12
2.205185e-12
2.3831301e-12
3.0066205e-12
3.5232636e-12
4.1435179e-12
5.1833998e-12
6.2709981e-12
7.7632802e-12
9.3996294e-12
1.1210797e-11
1.3333647e-11
1.6437167e-11
1.9347342e-11
2.292259e-11
2.7437444e-11
3.2605656e-11
3.9009615e-11
4.6537608e-11
5.5118827e-11
6.5438949e-11
7.8122118e-11
9.3079544e-11
1.1072575e-10
1.3154985e-10
1.5631171e-10
1.8543772e-10
2.2010057e-10
2.6117222e-10
3.0985305e-10
3.6691903e-10
4.3446973e-10
5.1407512e-10
6.0794958e-10
7.1894537e-10
8.4951214e-10
1.0032914e-09
1.1848439e-09
1.3983137e-09
1.649654e-09
1.9457588e-09
2.2932216e-09
2.7014377e-09
3.1808498e-09
3.7441872e-09
4.4049191e-09
5.179261e-09
6.0878248e-09
7.1525885e-09
8.399757e-09
9.8596549e-09
1.1567574e-08
1.3564906e-08
1.5899763e-08
1.8628042e-08
2.1814141e-08
2.5533193e-08
2.9871293e-08
3.4929747e-08
4.082604e-08
4.76947e-08
5.5692114e-08
6.4999035e-08
7.5824872e-08
8.8410333e-08
1.0303399e-07
1.2001809e-07
1.3973366e-07
1.6260693e-07
1.8913142e-07
2.198736e-07
2.5548419e-07
2.9671439e-07
3.4442562e-07
3.9960737e-07
4.6339587e-07
5.3709497e-07
6.2219843e-07
7.2041855e-07
8.3371678e-07
9.6433731e-07
1.1148477e-06
1.2881823e-06
1.4876935e-06
1.7172095e-06
1.9810984e-06
2.2843405e-06
2.632613e-06
3.0323801e-06
3.491e-06
4.016844e-06
4.6194277e-06
5.309561e-06
6.0995159e-06
7.0032189e-06
8.0364605e-06
9.2171325e-06
1.0565495e-05
1.210448e-05
1.3860018e-05
1.5861414e-05
1.8141773e-05
2.0738451e-05
2.3693588e-05
2.7054682e-05
3.0875231e-05
3.5215454e-05
4.0143089e-05
4.5734278e-05
5.2074547e-05
5.9259904e-05
6.7398035e-05
7.6609649e-05
8.7029955e-05
9.8810289e-05
0.00011211992
0.00012714805
0.00014410598
0.00016322953
0.0001847817
0.00020905558
0.00023637753
0.00026711071
0.00030165891
0.00034047073
0.00038404421
0.00043293184
0.00048774601
0.00054916499
0.00061793942
0.0006948994
0.0007809621
0.00087714013
0.00098455055
0.0011044246
0.0012381183
0.0013871239
0.0015530819
0.0017377948
0.0019432409
0.0021715896
0.0024252184
0.0027067298
0.0030189707
0.0033650522
0.0037483712
0.0041726336
0.0046418781
0.0051605028
0.0057332921
0.0063654464
0.0070626124
0.0078309158
0.0086769956