/*--------------------------------*- C++ -*----------------------------------*\
  =========                 |
  \\      /  F ield         | OpenFOAM: The Open Source CFD Toolbox
   \\    /   O peration     | Website:  https://openfoam.org
    \\  /    A nd           | Version:  7
     \\/     M anipulation  |
\*---------------------------------------------------------------------------*/
FoamFile
{
    version     2.0;
    format      ascii;
    class       volVectorField;
    location    "0.00175";
    object      U;
}
// * * * * * * * * * * * * * * * * * * * * * * * * * * * * * * * * * * * * * //

dimensions      [0 1 -1 0 0 0 0];

internalField   nonuniform List<vector> 
5000
(
(23.164564 -2.1360354e-18 0)
(23.16523 -2.734933e-18 0)
(23.16616 0 0)
(23.167581 0 0)
(23.168084 9.1310615e-19 0)
(23.16769 -8.1134424e-34 7.1366594e-19)
(23.16698 -7.7789879e-19 1.658191e-33)
(23.167039 0 -2.5735083e-18)
(23.167291 0 -9.4045909e-19)
(23.167715 9.8163347e-19 1.9632669e-18)
(23.168275 1.923911e-18 1.923911e-18)
(23.168997 -8.9795985e-19 -8.9795985e-19)
(23.169271 -6.9438552e-19 5.920687e-33)
(23.169092 5.9073448e-19 5.204802e-33)
(23.168826 0 -1.2363362e-18)
(23.168882 6.480684e-19 1.2961368e-18)
(23.16905 1.1460291e-47 5.7301455e-48)
(23.169298 -7.0709319e-19 6.2300071e-33)
(23.169614 0 6.8179652e-19)
(23.170099 -6.421622e-19 -1.2843244e-18)
(23.170169 5.2695989e-19 -5.2695989e-19)
(23.170051 4.5182382e-19 0)
(23.170057 -9.4185429e-19 0)
(23.170144 5.0615841e-19 5.0615841e-19)
(23.170304 5.2555005e-19 -4.4811092e-33)
(23.170554 4.2783235e-33 4.2783235e-33)
(23.170676 -4.5052845e-19 4.5052845e-19)
(23.170665 -3.9581085e-19 -3.9581085e-19)
(23.170688 8.2036389e-19 -4.1018194e-19)
(23.170744 -7.3719371e-33 4.2520816e-19)
(23.170832 7.4730572e-33 -7.4730572e-33)
(23.170873 -4.2015768e-19 3.5824798e-33)
(23.170912 -7.9948367e-19 3.9974183e-19)
(23.170965 7.7746263e-19 -3.8873132e-19)
(23.171028 -6.6621711e-33 -3.8426935e-19)
(23.171076 3.2492144e-32 0)
(23.171121 1.2528383e-32 0)
(23.17117 -7.0512838e-19 3.5256419e-19)
(23.171222 6.904783e-19 3.4523915e-19)
(23.171267 6.7244871e-19 -3.3622436e-19)
(23.171309 -6.5582173e-19 5.4986745e-33)
(23.17135 2.2053334e-32 3.2063335e-19)
(23.171388 6.2750681e-19 -3.137534e-19)
(23.171422 -3.073127e-19 5.1969395e-33)
(23.171454 -9.0413561e-19 3.0137854e-19)
(23.171482 2.9595968e-19 -2.9595968e-19)
(23.171507 2.911321e-19 1.0012111e-32)
(23.171528 1.9630225e-32 -9.8151125e-33)
(23.171547 5.6506753e-19 9.716412e-33)
(23.171564 0 -4.7610154e-33)
(23.171578 -2.7722314e-19 -2.7722314e-19)
(23.171591 -3.9117613e-35 0)
(23.171605 2.7404646e-19 0)
(23.171617 -5.4798136e-19 0)
(23.171628 9.6137775e-33 0)
(23.171644 5.4651556e-19 0)
(23.171664 -2.7291281e-19 0)
(23.171683 9.5723089e-33 0)
(23.171701 2.7771887e-19 0)
(23.171725 0 0)
(23.171754 -2.7516319e-19 0)
(23.171794 -9.524858e-33 0)
(23.171806 -7.3766449e-35 0)
(23.171791 -2.4261393e-19 2.4261393e-19)
(23.171752 2.6285678e-19 2.6285678e-19)
(23.171712 -9.9153527e-33 -2.8363045e-19)
(23.1717 -2.776498e-19 4.7742256e-33)
(23.171675 2.6582618e-19 6.750821e-50)
(23.17162 2.6697972e-19 -2.6697972e-19)
(23.171533 -2.8605915e-19 0)
(23.171478 -2.8847581e-19 0)
(23.171478 2.7967144e-19 2.7967144e-19)
(23.171464 2.7962944e-19 2.7962944e-19)
(23.171424 -5.7476796e-19 0)
(23.171354 -3.0719339e-19 -3.0719339e-19)
(23.17127 3.2390677e-19 -1.1185271e-32)
(23.17119 0 3.3731602e-19)
(23.171124 -3.4729327e-19 3.4729327e-19)
(23.17106 5.0512337e-35 -3.5544897e-19)
(23.170994 3.6497967e-19 -7.2995935e-19)
(23.170935 -3.7704635e-19 7.5409269e-19)
(23.170889 1.1009335e-34 -2.201867e-34)
(23.170841 -1.1103043e-34 -1.1719608e-18)
(23.170782 -3.9035106e-19 7.8070213e-19)
(23.170704 -3.9597995e-19 4.1191204e-32)
(23.17061 -1.4187519e-32 -8.1498602e-19)
(23.170507 4.2226523e-19 1.2667957e-18)
(23.170404 0 -4.3658631e-19)
(23.170303 4.5006699e-19 -4.5006699e-19)
(23.170217 4.8178024e-32 4.6441466e-19)
(23.170137 1.6660446e-32 -4.7657506e-19)
(23.170054 -4.8280616e-19 -4.8280616e-19)
(23.169958 -4.8698041e-19 -1.6954999e-32)
(23.169842 9.9309882e-19 9.9309882e-19)
(23.169712 3.5631125e-32 3.5631125e-32)
(23.169586 -5.3505647e-19 5.3505647e-19)
(23.169479 0 5.5147621e-19)
(23.169371 0 1.9754183e-32)
(23.169254 5.7031706e-19 -3.9712995e-32)
(23.169122 4.0398268e-32 -1.1650719e-18)
(23.168981 -1.2026581e-18 -6.0132903e-19)
(23.16884 6.2089245e-19 6.2089245e-19)
(23.168702 1.2725672e-18 -9.042134e-35)
(23.16856 0 -6.4813752e-19)
(23.168408 -6.6059702e-19 0)
(23.168245 -6.7795391e-19 6.7795391e-19)
(23.168077 6.9895514e-19 2.4335237e-32)
(23.167913 7.1972206e-19 -7.1972206e-19)
(23.167756 0 7.3934321e-19)
(23.167599 0 7.5606568e-19)
(23.167436 -7.6830654e-19 -1.5366131e-18)
(23.16726 -7.8030436e-19 -7.8030436e-19)
(23.167065 0 2.3909521e-18)
(23.166859 8.1933718e-19 8.1933718e-19)
(23.166649 -2.9511857e-32 -2.532576e-18)
(23.166447 -8.6799719e-19 8.6799719e-19)
(23.166249 8.8829249e-19 8.8829249e-19)
(23.166047 -2.5698464e-34 5.1396928e-34)
(23.165833 3.2128421e-32 9.1903928e-19)
(23.165603 -8.7964273e-49 -2.8134269e-18)
(23.165362 -1.9234932e-18 6.7242825e-32)
(23.165116 4.212501e-34 1.9761894e-18)
(23.164871 1.0134254e-18 -2.0268508e-18)
(23.164629 0 -1.0374174e-18)
(23.164386 1.0601135e-18 1.0601135e-18)
(23.16414 -1.0807496e-18 -1.0807496e-18)
(23.163886 -1.1000059e-18 1.1000059e-18)
(23.16362 2.2390542e-18 2.2390542e-18)
(23.163339 1.1414891e-18 -1.1414891e-18)
(23.163045 -2.3346431e-18 -4.0310387e-32)
(23.162745 -1.1964171e-18 -1.1964171e-18)
(23.162443 1.2255979e-18 -2.4511957e-18)
(23.162146 1.2531963e-18 1.2531963e-18)
(23.161847 1.2782961e-18 1.2782961e-18)
(23.161544 0 1.3002544e-18)
(23.161228 -1.3215085e-18 4.6010425e-32)
(23.160896 -1.3447301e-18 4.6627825e-32)
(23.160549 1.3717265e-18 -4.7758845e-32)
(23.160191 4.8640052e-32 -2.8055241e-18)
(23.159828 -1.4360998e-18 -1.4360998e-18)
(23.15947 1.4687816e-18 1.4687816e-18)
(23.159116 1.4984446e-18 2.9968891e-18)
(23.158757 0 1.5237063e-18)
(23.158387 -1.5466421e-18 1.5466421e-18)
(23.158 -1.5723276e-18 -1.090393e-31)
(23.157595 1.603113e-18 -3.206226e-18)
(23.157181 -1.6375824e-18 4.6542891e-34)
(23.156761 9.5095163e-34 -4.7547581e-34)
(23.156341 1.707152e-18 1.449612e-47)
(23.155918 -1.7394652e-18 -1.7394652e-18)
(23.155492 1.7698001e-18 1.2273381e-31)
(23.155057 -1.2524794e-31 -2.5049588e-31)
(23.154609 -1.8275434e-18 -1.8275434e-18)
(23.154146 1.8583601e-18 1.8583601e-18)
(23.153667 -1.8924608e-18 -1.8924608e-18)
(23.153179 -1.9295559e-18 -6.6906359e-32)
(23.152685 1.9677218e-18 1.9677218e-18)
(23.152188 0 -2.0044695e-18)
(23.151688 0 2.8968891e-34)
(23.151179 2.0708058e-18 2.0708058e-18)
(23.150658 2.1037581e-18 0)
(23.150124 -2.139153e-18 -2.139153e-18)
(23.149578 -2.1769754e-18 -1.5066164e-31)
(23.149025 2.2157049e-18 4.4314098e-18)
(23.148464 1.5628747e-31 -2.2536379e-18)
(23.147896 -2.2902606e-18 6.5093122e-34)
(23.147318 2.3265317e-18 2.3265317e-18)
(23.146729 2.3637783e-18 -2.3637783e-18)
(23.146129 0 2.402374e-18)
(23.145519 -2.4415381e-18 -2.4415381e-18)
(23.144899 -2.4802948e-18 1.0334452e-30)
(23.14427 0 6.9861654e-31)
(23.143628 2.55681e-18 -2.55681e-18)
(23.142974 2.5961201e-18 5.1922402e-18)
(23.142308 0 0)
(23.141632 -2.6786132e-18 1.8575907e-31)
(23.140948 -5.6613864e-31 5.6613864e-31)
(23.140256 2.763851e-18 -2.763851e-18)
(23.139559 -2.8056115e-18 -2.8056115e-18)
(23.138853 -2.8457744e-18 -1.961383e-31)
(23.138137 2.8846009e-18 2.8846009e-18)
(23.137405 2.0191208e-31 -2.9235185e-18)
(23.136657 -2.038838e-31 -2.038838e-31)
(23.135894 -1.2822409e-33 -1.2822409e-33)
(23.135119 -3.0529975e-18 -4.2301061e-31)
(23.134336 3.0986064e-18 6.1972127e-18)
(23.133547 4.359337e-31 -3.1430437e-18)
(23.13275 -2.1914103e-31 -3.1860907e-18)
(23.131943 2.2206011e-31 2.2206011e-31)
(23.131124 -3.2710421e-18 -2.2544888e-31)
(23.130292 0 6.8891649e-31)
(23.129447 0 -2.3179756e-31)
(23.128586 3.3997791e-18 3.3997791e-18)
(23.127712 3.4456052e-18 0)
(23.126827 0 0)
(23.125936 0 0)
(23.125039 -3.587768e-18 0)
(23.124134 2.1394306e-48 3.6288739e-18)
(23.123212 3.6685286e-18 -7.6479003e-31)
(23.122269 0 -3.7113414e-18)
(23.121308 -3.7595929e-18 -3.7595929e-18)
(23.120337 3.8112983e-18 3.8112983e-18)
(23.119361 1.0701397e-30 3.8617634e-18)
(23.118382 -7.814899e-18 -7.814899e-18)
(23.117392 3.9491104e-18 -2.7330554e-31)
(23.116386 8.2861299e-31 8.2861299e-31)
(23.115361 5.7367274e-34 4.0368631e-18)
(23.114323 4.0868858e-18 4.0868858e-18)
(23.113276 -4.1378744e-18 -4.1378744e-18)
(23.112224 5.9488387e-34 0)
(23.111163 5.8556864e-31 -4.2305677e-18)
(23.110089 -2.9575172e-31 -2.9575172e-31)
(23.108997 4.3178317e-18 4.3178317e-18)
(23.107889 0 4.3648751e-18)
(23.106767 -4.413508e-18 -6.1465327e-31)
(23.105634 -3.088184e-31 -4.4622512e-18)
(23.10449 -1.2518698e-30 9.0212496e-18)
(23.103336 -4.5587282e-18 -4.5587282e-18)
(23.102173 0 -4.6061421e-18)
(23.100998 4.6521557e-18 4.6521557e-18)
(23.099811 4.697183e-18 -4.697183e-18)
(23.098608 0 0)
(23.09739 0 0)
(23.09616 0 0)
(23.094922 -4.8904391e-18 -4.8904391e-18)
(23.093675 -3.4167288e-31 4.9369798e-18)
(23.092415 4.9820828e-18 9.9641656e-18)
(23.09114 0 -5.0282071e-18)
(23.089852 0 3.5276171e-31)
(23.088552 -5.1252423e-18 -5.1252423e-18)
(23.087241 -5.1730778e-18 -5.1730778e-18)
(23.08592 5.2196203e-18 1.0439241e-17)
(23.084585 5.2660323e-18 -1.4966964e-33)
(23.083237 0 1.510113e-33)
(23.081877 -5.3610066e-18 -5.3610066e-18)
(23.080506 -5.4085646e-18 -5.4085646e-18)
(23.079123 5.4555675e-18 1.0911135e-17)
(23.077728 5.5022925e-18 -7.819228e-34)
(23.07632 0 1.156062e-30)
(23.0749 -5.5962639e-18 -5.5962639e-18)
(23.073468 1.5670528e-30 3.1341056e-30)
(23.072025 3.9461065e-31 7.8922131e-31)
(23.070569 -5.7368102e-18 -5.7368102e-18)
(23.069101 5.7834124e-18 5.7834124e-18)
(23.067622 5.8301433e-18 0)
(23.06613 0 5.876853e-18)
(23.064627 -5.923426e-18 -5.923426e-18)
(23.063113 8.2971887e-31 -5.9699668e-18)
(23.061587 -6.0164971e-18 6.0164971e-18)
(23.06005 -8.4088364e-31 0)
(23.058503 1.221638e-17 6.1081901e-18)
(23.056943 -6.1529432e-18 -6.1529432e-18)
(23.055369 8.5955082e-31 -6.197286e-18)
(23.053782 2.1669822e-30 2.1669822e-30)
(23.05218 4.351349e-31 1.2574906e-17)
(23.050567 6.3347523e-18 1.2669505e-17)
(23.048945 -6.3827279e-18 -1.9148184e-17)
(23.047317 -6.4286132e-18 -1.2857226e-17)
(23.04568 0 0)
(23.044028 6.5095182e-18 1.3019036e-17)
(23.042358 6.550547e-18 6.550547e-18)
(23.04067 0 -6.5965121e-18)
(23.038971 -6.6463596e-18 -6.6463596e-18)
(23.03727 -6.6954629e-18 -6.6954629e-18)
(23.035567 1.3478106e-17 1.3478106e-17)
(23.033857 6.7768075e-18 1.3553615e-17)
(23.032131 -6.8133414e-18 -6.8133414e-18)
(23.030386 -6.8534958e-18 -1.3706992e-17)
(23.028625 -1.9135368e-30 -1.9135368e-30)
(23.026854 6.9445793e-18 1.3889159e-17)
(23.025079 -6.9885704e-18 -6.9885704e-18)
(23.023297 4.8739679e-31 9.7479359e-31)
(23.021503 7.064896e-18 7.064896e-18)
(23.019695 -7.1023015e-18 -1.4204603e-17)
(23.017871 4.9635171e-31 7.1426681e-18)
(23.016035 -5.003207e-31 -1.0006414e-30)
(23.014192 2.0540294e-33 -7.2269736e-18)
(23.012342 5.018902e-31 7.2669512e-18)
(23.010484 -7.3058056e-18 -7.3058056e-18)
(23.008619 0 1.4689228e-17)
(23.006746 0 -3.0803159e-30)
(23.004866 7.4186132e-18 -1.4837226e-17)
(23.002973 7.452051e-18 1.4904102e-17)
(23.001066 0 5.1804551e-31)
(22.999142 0 -7.5216863e-18)
(22.997207 0 0)
(22.995267 0 0)
(22.993326 -7.6391097e-18 -7.6391097e-18)
(22.99138 -5.2867203e-31 7.6705128e-18)
(22.989423 1.5398656e-17 1.5398656e-17)
(22.987451 -3.2957068e-33 -7.7304916e-18)
(22.985465 -7.7660221e-18 2.2072362e-33)
(22.983472 -7.8036884e-18 -7.8036884e-18)
(22.981477 1.0883755e-30 -7.8390599e-18)
(22.979478 1.0904e-30 7.869752e-18)
(22.977471 1.1223892e-33 0)
(22.975453 7.9281594e-18 7.9281594e-18)
(22.973427 7.9603361e-18 7.9603361e-18)
(22.971394 7.9913284e-18 0)
(22.969353 -1.6038098e-17 -1.6038098e-17)
(22.967302 -2.4136761e-17 -8.0455872e-18)
(22.965238 8.074148e-18 1.6148296e-17)
(22.963166 1.6209899e-17 -5.6091814e-31)
(22.961089 0 2.3122906e-33)
(22.959008 -8.1643694e-18 -8.1643694e-18)
(22.956923 -8.1908392e-18 -8.1908392e-18)
(22.954832 8.2158426e-18 8.2158426e-18)
(22.952732 -2.3422094e-33 -8.2409169e-18)
(22.950625 3.5245574e-33 8.2672893e-18)
(22.948512 -2.3572917e-33 -4.7145834e-33)
(22.946394 -8.3185519e-18 -1.6637104e-17)
(22.944269 -8.3410027e-18 8.3410027e-18)
(22.942136 8.3647005e-18 8.3647005e-18)
(22.939996 1.678384e-17 8.3919201e-18)
(22.937857 -8.4170585e-18 1.1674287e-30)
(22.935714 1.0066498e-48 -8.434862e-18)
(22.933559 -8.4501921e-18 0)
(22.931388 -2.3470186e-30 0)
(22.929205 1.699296e-17 8.4964802e-18)
(22.927024 0 -1.1834879e-30)
(22.924852 0 2.3716824e-30)
(22.922676 -1.7126724e-17 1.1901546e-30)
(22.920495 4.7663707e-30 -8.5824852e-18)
(22.918309 1.7205383e-17 8.6026915e-18)
(22.91612 0 -1.2247782e-33)
(22.91392 -8.6304694e-18 -8.6304694e-18)
(22.911706 -8.6443841e-18 0)
(22.909479 8.6668154e-18 0)
(22.907252 -1.2351593e-33 0)
(22.905048 1.2092307e-30 0)
(22.902839 -1.2390502e-33 0)
(22.900615 -8.7261759e-18 0)
(22.898373 8.7389405e-18 0)
(22.896117 8.7604373e-18 8.7604373e-18)
(22.893877 0 0)
(22.891645 -8.7956409e-18 -8.7956409e-18)
(22.889406 1.2222467e-30 0)
(22.887155 8.8129744e-18 8.8129744e-18)
(22.884893 -1.7660018e-17 2.4494082e-30)
(22.882647 2.4544172e-30 -8.8480665e-18)
(22.880402 8.8555773e-18 0)
(22.878145 2.4594118e-30 0)
(22.87587 1.7724929e-17 8.8624643e-18)
(22.873579 -1.7758765e-17 1.2328139e-30)
(22.871302 -8.9000909e-18 -8.9000909e-18)
(22.869061 8.9110051e-18 0)
(22.866813 1.2661442e-33 0)
(22.864542 8.905644e-18 8.905644e-18)
(22.862246 0 8.9097827e-18)
(22.859932 0 -8.9273818e-18)
(22.857644 -8.9486382e-18 -8.9486382e-18)
(22.8554 1.2423201e-30 0)
(22.853147 1.7901598e-17 8.9507989e-18)
(22.850867 -1.2707763e-33 -1.2707763e-33)
(22.848559 -2.6830826e-17 -8.9436087e-18)
(22.846231 8.9592852e-18 8.9592852e-18)
(22.843931 8.978114e-18 8.978114e-18)
(22.841671 -1.7965069e-17 -8.9825343e-18)
(22.8394 8.972835e-18 -8.972835e-18)
(22.837102 -8.9631842e-18 0)
(22.834778 -1.7927506e-17 8.963753e-18)
(22.832436 8.9785948e-18 8.9785948e-18)
(22.830139 8.9985782e-18 -8.9985782e-18)
(22.827915 9.0040098e-18 -9.0040098e-18)
(22.825681 -8.9873869e-18 0)
(22.823409 -1.3093067e-48 8.9634428e-18)
(22.821091 8.9571229e-18 8.9571229e-18)
(22.818748 -8.9664881e-18 -8.9664881e-18)
(22.816395 8.9816211e-18 -8.9816211e-18)
(22.814126 -8.9931693e-18 0)
(22.811868 -2.4898202e-30 0)
(22.809588 -2.5474513e-33 0)
(22.807274 -8.9515931e-18 0)
(22.804939 1.7903244e-17 0)
(22.802588 -8.9625684e-18 0)
(22.800318 -2.4928724e-30 0)
(22.798107 2.4892815e-30 0)
(22.795881 8.9487218e-18 8.9487218e-18)
(22.793616 1.7845203e-17 1.437939e-47)
(22.791309 -2.6742445e-17 -8.9141484e-18)
(22.788983 -2.4748778e-30 0)
(22.786661 4.9550451e-30 0)
(22.784428 -2.4755128e-30 0)
(22.7822 1.7836161e-17 8.9180803e-18)
(22.779951 -1.7780937e-17 1.2330897e-30)
(22.777668 2.4612723e-30 -8.8727788e-18)
(22.775364 1.773485e-17 8.8674251e-18)
(22.77305 0 -1.2313844e-30)
(22.770775 0 1.2606605e-33)
(22.768549 -8.8650868e-18 1.2308291e-30)
(22.766321 1.2272228e-30 -8.8481688e-18)
(22.76408 8.8283401e-18 8.8283401e-18)
(22.761824 8.8146052e-18 -8.8146052e-18)
(22.75956 -8.8073063e-18 4.8937306e-30)
(22.757316 -2.6400326e-17 8.8001086e-18)
(22.755081 8.7860362e-18 -8.7860362e-18)
(22.752841 8.7685106e-18 0)
(22.750595 2.4881221e-33 0)
(22.748349 8.7426036e-18 8.7426036e-18)
(22.746118 0 1.2119935e-30)
(22.743889 -1.7430606e-17 -8.715303e-18)
(22.741671 -1.7400561e-17 8.7002803e-18)
(22.739456 8.6829373e-18 8.6829373e-18)
(22.737239 1.7330011e-17 0)
(22.735021 8.6473648e-18 -8.6473648e-18)
(22.7328 -1.7264631e-17 -8.6323156e-18)
(22.730602 -1.7240074e-17 8.6200369e-18)
(22.728435 1.7206611e-17 2.3877441e-30)
(22.726264 1.7155516e-17 -4.3970267e-48)
(22.724079 0 1.1870614e-30)
(22.721879 -1.7059379e-17 -8.5296896e-18)
(22.719674 8.5159909e-18 8.5159909e-18)
(22.717473 1.7007631e-17 9.3063618e-48)
(22.715324 -8.4904282e-18 1.1788115e-30)
(22.713199 -8.4695315e-18 8.4695315e-18)
(22.711068 1.1992671e-33 0)
(22.708919 -1.1674179e-30 0)
(22.706754 -8.3861258e-18 -8.3861258e-18)
(22.704582 8.3681769e-18 -1.1891895e-33)
(22.702407 8.35236e-18 3.4753654e-30)
(22.700278 -8.3380542e-18 -8.3380542e-18)
(22.698185 1.1535149e-30 0)
(22.696086 1.1775482e-33 0)
(22.693975 1.1451091e-30 8.2561363e-18)
(22.691853 8.2315963e-18 -2.2822412e-30)
(22.689723 -8.2135078e-18 -8.2135078e-18)
(22.68763 3.4146695e-30 0)
(22.685577 1.1351135e-30 0)
(22.68352 2.2602084e-30 0)
(22.68145 8.1103492e-18 8.1103492e-18)
(22.679369 -8.0830806e-18 -1.1486748e-33)
(22.677279 1.1192884e-30 -8.0617115e-18)
(22.675209 2.2295592e-30 8.0415829e-18)
(22.673165 1.1394766e-33 -8.0183539e-18)
(22.671132 1.5985631e-17 2.2217176e-30)
(22.669107 7.9653003e-18 1.5930601e-17)
(22.667082 -7.9367627e-18 -7.9367627e-18)
(22.665058 -1.5816163e-17 -3.2938753e-30)
(22.663035 1.0940621e-30 -1.0940621e-30)
(22.661017 1.5706348e-17 1.0903351e-30)
(22.659019 7.8263329e-18 7.8263329e-18)
(22.657031 -1.5595719e-17 0)
(22.655044 -7.7679558e-18 0)
(22.653057 7.7384044e-18 -7.7384044e-18)
(22.651074 7.7104827e-18 -1.0705238e-30)
(22.649112 2.1323569e-30 2.1323569e-30)
(22.647166 -7.6541603e-18 -1.4571793e-48)
(22.645222 0 7.622935e-18)
(22.643276 0 -7.5915768e-18)
(22.641332 -7.5617581e-18 -7.5617581e-18)
(22.639403 0 0)
(22.637487 7.5027324e-18 7.5027324e-18)
(22.635577 -7.4719398e-18 1.0374045e-30)
(22.633673 -1.0574374e-33 -7.4410539e-18)
(22.631778 2.0565961e-30 0)
(22.629892 0 0)
(22.628011 7.3469173e-18 7.3469173e-18)
(22.626134 -7.3156939e-18 -2.0792453e-33)
(22.624272 -7.2845605e-18 -1.5154962e-48)
(22.622418 1.4505647e-17 7.2528234e-18)
(22.62057 7.2207845e-18 -7.2207845e-18)
(22.618732 -7.1885231e-18 9.9601181e-31)
(22.616899 0 -9.9352491e-31)
(22.615073 0 1.9769411e-30)
(22.613253 7.0907905e-18 7.0907905e-18)
(22.611441 -1.9612359e-30 -7.0593199e-18)
(22.609649 -7.0278266e-18 1.9514876e-30)
(22.607868 0 -1.9433355e-30)
(22.60609 0 1.9338274e-30)
(22.604312 6.9266553e-18 6.9266553e-18)
(22.602539 -2.8724494e-30 -6.8939516e-18)
(22.600784 -6.8618584e-18 1.9054015e-30)
(22.59904 0 -9.5005729e-31)
(22.597304 0 0)
(22.595568 0 6.7602722e-18)
(22.593839 0 -6.7271544e-18)
(22.592125 0 9.2948131e-31)
(22.590423 0 -9.4663597e-34)
(22.588731 0 9.2009587e-31)
(22.587039 0 -9.1628334e-31)
(22.585356 -1.311915e-17 -6.5595748e-18)
(22.58369 -3.6225752e-30 6.526269e-18)
(22.582031 6.491888e-18 6.491888e-18)
(22.580377 -6.4569368e-18 -6.4569368e-18)
(22.578725 6.4227208e-18 -6.4227208e-18)
(22.577083 -6.3897032e-18 0)
(22.57546 1.7669087e-30 6.3566027e-18)
(22.573847 6.3221797e-18 6.3221797e-18)
(22.572237 1.7457594e-30 0)
(22.570628 6.2523684e-18 -6.2523684e-18)
(22.56903 0 8.6345299e-31)
(22.567447 0 -8.7907836e-34)
(22.565878 -6.1518425e-18 -8.532479e-31)
(22.564312 -1.6985464e-30 6.1169179e-18)
(22.562749 6.0825054e-18 -6.0825054e-18)
(22.561198 0 -8.3897545e-31)
(22.55966 0 1.6703163e-30)
(22.558131 0 5.9809414e-18)
(22.556606 0 5.9466448e-18)
(22.555091 0 -1.1825478e-17)
(22.553587 0 8.3541376e-34)
(22.552089 0 -8.106109e-31)
(22.550599 -1.1620843e-17 -5.8104216e-18)
(22.549118 4.8089799e-30 5.7767476e-18)
(22.547647 1.148594e-17 -7.9735425e-31)
(22.546186 -5.7088522e-18 -5.7088522e-18)
(22.544728 -8.0646882e-34 0)
(22.543283 -5.6417412e-18 0)
(22.54185 3.1097935e-30 0)
(22.540422 1.1148107e-17 5.5740536e-18)
(22.539001 5.53986e-18 5.53986e-18)
(22.537584 1.5709204e-48 -5.5065569e-18)
(22.536179 -1.6422589e-17 -5.4741964e-18)
(22.534793 0 0)
(22.533412 1.08144e-17 5.4072001e-18)
(22.532032 0 5.3726355e-18)
(22.530655 0 -5.3389222e-18)
(22.529286 -1.0613286e-17 -5.306643e-18)
(22.527934 1.4632897e-30 0)
(22.526595 1.5728861e-17 5.2429536e-18)
(22.525267 -5.2097874e-18 5.2097874e-18)
(22.523939 -5.1766107e-18 -5.1766107e-18)
(22.522619 5.1444042e-18 -1.4284987e-30)
(22.521313 -5.112397e-18 5.112397e-18)
(22.520016 5.0794656e-18 0)
(22.51872 1.399792e-30 0)
(22.517429 -5.0136233e-18 0)
(22.516143 4.982392e-18 0)
(22.514872 0 -4.9523448e-18)
(22.513622 4.9217867e-18 1.3652834e-30)
(22.512378 -4.8895214e-18 4.8895214e-18)
(22.511135 -9.713051e-18 -4.8565255e-18)
(22.509891 4.8241975e-18 -6.6979182e-31)
(22.508653 4.793255e-18 6.6617693e-31)
(22.507425 4.7637898e-18 -1.3890336e-48)
(22.506217 4.7345706e-18 -4.7345706e-18)
(22.505021 -9.4082467e-18 -4.7041233e-18)
(22.503826 -4.6726309e-18 9.3452618e-18)
(22.502633 4.6413605e-18 6.4440673e-31)
(22.501444 0 -6.3957285e-31)
(22.500265 -4.5823817e-18 4.5823817e-18)
(22.499101 4.5536382e-18 0)
(22.497946 4.524063e-18 -4.524063e-18)
(22.496794 -1.3482093e-17 -4.494031e-18)
(22.495645 -1.2689197e-33 4.4646143e-18)
(22.494503 8.872653e-18 1.2306187e-30)
(22.493374 -4.4085724e-18 -4.4085724e-18)
(22.492255 -6.0817002e-31 0)
(22.491142 -4.3515604e-18 0)
(22.49003 1.2286718e-33 4.3230044e-18)
(22.488923 8.5909943e-18 -5.9577662e-31)
(22.487828 -4.2688133e-18 -4.2688133e-18)
(22.486744 0 0)
(22.485667 1.1705069e-30 4.2153069e-18)
(22.484597 5.9517357e-34 -5.9517357e-34)
(22.483531 4.1609692e-18 1.1554184e-30)
(22.482468 -4.1342191e-18 5.7340768e-31)
(22.481411 1.1407786e-30 -4.1082474e-18)
(22.480362 5.6629262e-31 4.0829201e-18)
(22.479323 5.7665085e-34 -5.7665085e-34)
(22.478292 4.0325927e-18 1.1197708e-30)
(22.477266 -4.0072195e-18 4.0072195e-18)
(22.476244 -1.2032387e-48 -3.9820312e-18)
(22.475227 1.0988977e-30 -1.0988977e-30)
(22.474218 5.5896739e-34 -5.5896739e-34)
(22.473217 7.8188834e-18 5.4278708e-31)
(22.472222 5.388879e-31 3.8853345e-18)
(22.471231 -3.8613766e-18 -3.8613766e-18)
(22.470244 0 0)
(22.469265 0 2.118244e-30)
(22.468293 3.7924657e-18 5.2600719e-31)
(22.467328 1.5685624e-30 1.5685624e-30)
(22.466366 -3.747209e-18 5.3251043e-34)
(22.465411 3.7250266e-18 3.7250266e-18)
(22.464462 -5.1412352e-31 -3.7029914e-18)
(22.463519 -4.2229289e-48 -4.2229289e-48)
(22.462578 5.0806394e-31 5.0806394e-31)
(22.461644 -3.6381778e-18 -1.0102496e-30)
(22.460717 -3.6173258e-18 5.0222969e-31)
(22.459796 -4.9883191e-31 -7.1930686e-18)
(22.45888 3.5758405e-18 3.5758405e-18)
(22.457969 0 3.5553674e-18)
(22.457064 0 4.9080443e-31)
(22.456164 -3.5147116e-18 -4.8798273e-31)
(22.455267 3.4945241e-18 -6.9890482e-18)
(22.454375 -2.8925757e-30 3.4746828e-18)
(22.453487 -3.4551981e-18 3.4551981e-18)
(22.452606 3.4359524e-18 -9.2295987e-49)
(22.45173 0 0)
(22.450859 -3.3977798e-18 -9.1583238e-49)
(22.449994 -3.3787773e-18 3.3787773e-18)
(22.449132 3.359871e-18 -3.359871e-18)
(22.448275 3.3412368e-18 -8.8865212e-49)
(22.447423 0 4.6087138e-31)
(22.446576 -3.3044316e-18 4.6958797e-34)
(22.445733 -3.2859842e-18 3.2859842e-18)
(22.444894 6.535477e-18 -6.535477e-18)
(22.444059 3.2498462e-18 -9.0241763e-31)
(22.44323 -3.2321893e-18 3.2321893e-18)
(22.442407 -3.2144692e-18 -4.4584026e-31)
(22.441589 -4.4335288e-31 4.4335288e-31)
(22.440773 -3.1786102e-18 -3.1786102e-18)
(22.439959 -8.7775638e-31 3.1610345e-18)
(22.439152 6.2876469e-18 3.292288e-48)
(22.438351 0 1.3027796e-30)
(22.437555 0 -8.6387028e-31)
(22.436764 0 8.5813777e-31)
(22.435975 -3.0744675e-18 8.5371845e-31)
(22.43519 -3.0571524e-18 -8.2804175e-49)
(22.434409 0 0)
(22.433633 3.0231261e-18 -3.0231261e-18)
(22.432862 4.1652217e-31 0)
(22.432096 -2.9891213e-18 0)
(22.431334 0 2.9720101e-18)
(22.430575 0 8.2052234e-31)
(22.429821 2.9379517e-18 -2.9379517e-18)
(22.429072 4.0514552e-31 0)
(22.428327 -4.0238896e-31 0)
(22.427587 2.8872475e-18 5.7744949e-18)
(22.426852 -2.8702209e-18 2.3893782e-30)
(22.426121 1.1871157e-30 -5.7059999e-18)
(22.425392 2.8357197e-18 2.8357197e-18)
(22.424667 0 -4.0054774e-34)
(22.423946 2.8017287e-18 3.8899215e-31)
(22.423232 3.8665898e-31 2.7849239e-18)
(22.422523 -2.7679433e-18 0)
(22.421818 2.7507496e-18 0)
(22.421116 -2.7334773e-18 0)
(22.420419 -2.7162019e-18 2.7162019e-18)
(22.419726 2.6989125e-18 7.4866722e-31)
(22.419038 0 -2.6816195e-18)
(22.418353 -2.6643652e-18 0)
(22.417674 -2.6471072e-18 0)
(22.416999 2.6297369e-18 2.6297369e-18)
(22.416329 2.6122315e-18 -3.7122042e-34)
(22.415662 0 -2.5946805e-18)
(22.415 2.5771728e-18 0)
(22.414343 -2.5596543e-18 0)
(22.41369 -2.5420311e-18 2.5420311e-18)
(22.413042 2.5243375e-18 7.0024082e-31)
(22.412398 5.0132293e-18 6.9639322e-31)
(22.411759 -1.3821997e-30 -6.9109985e-31)
(22.411124 -7.4129544e-18 -2.4709848e-18)
(22.410494 -8.6098061e-49 2.4531052e-18)
(22.409868 2.4352515e-18 -6.758748e-31)
(22.409247 4.8347759e-18 6.70917e-31)
(22.408631 -1.3311622e-30 -6.6558108e-31)
(22.40802 -4.7624508e-18 -2.3812254e-18)
(22.407412 2.3630204e-18 0)
(22.406808 -2.3449014e-18 0)
(22.40621 2.3268427e-18 2.3268427e-18)
(22.405617 2.3087068e-18 2.1930272e-47)
(22.405029 -4.5808076e-18 -2.2904038e-18)
(22.404445 0 0)
(22.403865 0 0)
(22.40329 4.4706712e-18 2.2353356e-18)
(22.40272 7.0841225e-48 1.4168245e-47)
(22.402155 -4.3971047e-18 -2.1985524e-18)
(22.401595 0 0)
(22.401039 0 0)
(22.400488 4.2862978e-18 2.1431489e-18)
(22.399942 7.1688084e-48 1.4337617e-47)
(22.399401 -4.2119327e-18 -2.1059664e-18)
(22.398863 0 0)
(22.398331 0 0)
(22.397803 4.1002742e-18 2.0501371e-18)
(22.39728 2.0315577e-18 -2.8870171e-34)
(22.396762 -4.0260053e-18 -2.0130027e-18)
(22.396249 -1.9944186e-18 1.9944186e-18)
(22.395741 0 -5.4890369e-31)
(22.395238 3.9140161e-18 5.437003e-31)
(22.394738 -1.0764796e-30 -5.3823981e-31)
(22.394243 -3.8395984e-18 -1.9197992e-18)
(22.393754 1.9013033e-18 0)
(22.39327 0 0)
(22.392791 -1.8640288e-18 0)
(22.392315 1.8453341e-18 0)
(22.391844 -2.5959692e-34 0)
(22.391378 -1.8082815e-18 1.8082815e-18)
(22.390917 1.7898315e-18 -4.9674625e-31)
(22.390461 -1.7713519e-18 -1.7713519e-18)
(22.39001 -1.7528893e-18 0)
(22.389563 1.7344543e-18 0)
(22.389121 1.7160171e-18 0)
(22.388684 -4.7138909e-31 0)
(22.388251 -1.6792592e-18 0)
(22.387822 1.6610437e-18 0)
(22.387399 4.5619931e-31 0)
(22.38698 -1.624719e-18 1.624719e-18)
(22.386566 1.6065135e-18 -8.9173707e-31)
(22.386156 -1.58837e-18 -1.58837e-18)
(22.385751 -1.5703722e-18 0)
(22.385351 1.5524869e-18 0)
(22.384955 1.5346072e-18 0)
(22.384564 -4.2115938e-31 0)
(22.384177 -1.4988593e-18 0)
(22.383795 1.4811499e-18 0)
(22.383417 -2.0798645e-34 0)
(22.383044 -1.4460303e-18 1.4460303e-18)
(22.382675 1.4284858e-18 -3.9645907e-31)
(22.382311 -1.4110234e-18 -1.4110234e-18)
(22.38195 -1.3937131e-18 0)
(22.381595 1.3765588e-18 0)
(22.381244 2.7189567e-18 1.3594784e-18)
(22.380899 -7.4587454e-31 -3.7293727e-31)
(22.380557 -2.6504512e-18 -1.3252256e-18)
(22.380218 1.3082181e-18 0)
(22.379884 -1.8352215e-34 0)
(22.379554 -2.549618e-18 0)
(22.379229 -3.5762405e-34 1.2582778e-18)
(22.378909 1.241749e-18 3.4498545e-31)
(22.378593 0 -1.2252368e-18)
(22.37828 -1.2088273e-18 0)
(22.377971 0 0)
(22.377667 1.1765078e-18 0)
(22.377367 0 0)
(22.377071 0 0)
(22.376779 0 0)
(22.376491 1.1131032e-18 0)
(22.376207 7.4988931e-49 1.0974645e-18)
(22.375927 -1.0819769e-18 -1.5375817e-34)
(22.37565 0 -1.0666657e-18)
(22.375378 -1.0514919e-18 0)
(22.37511 2.8778315e-31 0)
(22.374846 1.0213341e-18 0)
(22.374585 0 0)
(22.374328 0 0)
(22.374075 0 0)
(22.373826 9.6255062e-19 0)
(22.37358 -2.6327023e-31 9.4810621e-19)
(22.373338 -9.3377613e-19 1.3269757e-34)
(22.373099 0 -9.1962432e-19)
(22.372864 -9.0566438e-19 0)
(22.372633 -2.4751721e-31 0)
(22.372406 8.7803873e-19 0)
(22.372182 0 8.6430955e-19)
(22.371961 -8.5074381e-19 -4.7234836e-31)
(22.371743 8.3738759e-19 -8.3738759e-19)
(22.371529 -4.5797421e-31 0)
(22.371319 -8.1116604e-19 8.1116604e-19)
(22.371112 7.9813534e-19 2.2173972e-31)
(22.370908 0 -7.8516823e-19)
(22.370707 7.7237556e-19 0)
(22.370509 2.1098111e-31 0)
(22.370315 -7.4741682e-19 7.4741682e-19)
(22.370124 0 7.3516065e-19)
(22.369937 -7.2294312e-19 -7.2294312e-19)
(22.369752 7.1077674e-19 -7.1077674e-19)
(22.36957 3.8806567e-31 0)
(22.369391 -6.8695978e-19 0)
(22.369214 3.74969e-31 0)
(22.369042 9.434511e-35 0)
(22.368873 -1.8127827e-31 -6.5249739e-19)
(22.368706 9.1112947e-35 9.1112947e-35)
(22.368541 6.2993336e-19 1.2598667e-18)
(22.36838 0 6.18908e-19)
(22.368221 -6.0807721e-19 -1.2161544e-18)
(22.368065 1.6580007e-31 -1.1947919e-18)
(22.367913 1.6285822e-31 5.8679615e-19)
(22.367763 -5.0468915e-49 5.7626787e-19)
(22.367615 1.5713015e-31 0)
(22.367469 0 0)
(22.367327 1.0911911e-18 0)
(22.367187 1.4874771e-31 0)
(22.36705 -5.2585303e-19 5.2585303e-19)
(22.366915 5.1611976e-19 1.4338953e-31)
(22.366783 -1.405789e-31 -5.0652129e-19)
(22.366653 -4.9708077e-19 0)
(22.366525 -4.8778176e-19 0)
(22.3664 -1.3289553e-31 0)
(22.366277 1.3037356e-31 0)
(22.366156 -4.6056533e-19 0)
(22.366038 4.517729e-19 0)
(22.365922 4.4312394e-19 0)
(22.365808 0 0)
(22.365697 4.2618235e-19 0)
(22.365588 -1.1602296e-31 0)
(22.365481 -4.0957378e-19 0)
(22.365375 0 0)
(22.365271 0 0)
(22.36517 0 0)
(22.365071 7.5598185e-19 3.7799093e-19)
(22.364973 -4.1143732e-31 -2.0571866e-31)
(22.364878 -7.2593544e-19 -3.6296772e-19)
(22.364785 0 0)
(22.364693 0 0)
(22.364603 0 -3.4112894e-19)
(22.364515 0 9.2776387e-32)
(22.364428 0 -4.6504751e-35)
(22.364344 0 3.2049244e-19)
(22.364262 0 3.1378758e-19)
(22.364181 6.1429767e-19 1.7053459e-31)
(22.364101 -1.670474e-31 -8.3523698e-32)
(22.364023 -5.8856791e-19 -2.9428396e-19)
(22.363947 -2.8808796e-19 0)
(22.363872 2.8200037e-19 0)
(22.3638 2.75948e-19 0)
(22.363729 -7.4994136e-32 0)
(22.363658 -1.4648408e-31 0)
(22.36359 -2.5828479e-19 2.5828479e-19)
(22.363522 2.5268904e-19 -1.4029753e-31)
(22.363457 -2.472107e-19 -2.472107e-19)
(22.363393 -2.4177799e-19 0)
(22.36333 2.363763e-19 0)
(22.363269 2.310684e-19 0)
(22.363208 -1.253904e-31 0)
(22.363149 -2.2087504e-19 0)
(22.363091 -2.1598319e-19 0)
(22.363036 5.8570918e-32 0)
(22.362981 2.063081e-19 2.063081e-19)
(22.362927 2.0151889e-19 -1.1185829e-31)
(22.362874 -1.9685135e-19 -1.9685135e-19)
(22.362823 -1.9232848e-19 0)
(22.362772 1.8794417e-19 0)
(22.362723 -1.8365872e-19 0)
(22.362675 0 0)
(22.362629 1.7515879e-19 0)
(22.362583 1.7098137e-19 0)
(22.362537 -4.6302103e-32 0)
(22.362493 -1.6297328e-19 1.6297328e-19)
(22.36245 1.5913792e-19 -1.3252307e-31)
(22.362409 -1.5537092e-19 -1.5537092e-19)
(22.362368 -1.5163362e-19 0)
(22.362328 1.479402e-19 0)
(22.362289 -1.4432866e-19 0)
(22.36225 -3.9102999e-32 0)
(22.362213 1.3741198e-19 0)
(22.362177 1.3406528e-19 0)
(22.362141 1.8580605e-35 0)
(22.362107 -2.5496226e-19 0)