/*--------------------------------*- C++ -*----------------------------------*\
  =========                 |
  \\      /  F ield         | OpenFOAM: The Open Source CFD Toolbox
   \\    /   O peration     | Website:  https://openfoam.org
    \\  /    A nd           | Version:  7
     \\/     M anipulation  |
\*---------------------------------------------------------------------------*/
FoamFile
{
    version     2.0;
    format      ascii;
    class       volScalarField;
    location    "0.00175";
    object      Ux;
}
// * * * * * * * * * * * * * * * * * * * * * * * * * * * * * * * * * * * * * //

dimensions      [0 1 -1 0 0 0 0];

internalField   nonuniform List<scalar> 
5000
(
23.164564
23.16523
23.16616
23.167581
23.168084
23.16769
23.16698
23.167039
23.167291
23.167715
23.168275
23.168997
23.169271
23.169092
23.168826
23.168882
23.16905
23.169298
23.169614
23.170099
23.170169
23.170051
23.170057
23.170144
23.170304
23.170554
23.170676
23.170665
23.170688
23.170744
23.170832
23.170873
23.170912
23.170965
23.171028
23.171076
23.171121
23.17117
23.171222
23.171267
23.171309
23.17135
23.171388
23.171422
23.171454
23.171482
23.171507
23.171528
23.171547
23.171564
23.171578
23.171591
23.171605
23.171617
23.171628
23.171644
23.171664
23.171683
23.171701
23.171725
23.171754
23.171794
23.171806
23.171791
23.171752
23.171712
23.1717
23.171675
23.17162
23.171533
23.171478
23.171478
23.171464
23.171424
23.171354
23.17127
23.17119
23.171124
23.17106
23.170994
23.170935
23.170889
23.170841
23.170782
23.170704
23.17061
23.170507
23.170404
23.170303
23.170217
23.170137
23.170054
23.169958
23.169842
23.169712
23.169586
23.169479
23.169371
23.169254
23.169122
23.168981
23.16884
23.168702
23.16856
23.168408
23.168245
23.168077
23.167913
23.167756
23.167599
23.167436
23.16726
23.167065
23.166859
23.166649
23.166447
23.166249
23.166047
23.165833
23.165603
23.165362
23.165116
23.164871
23.164629
23.164386
23.16414
23.163886
23.16362
23.163339
23.163045
23.162745
23.162443
23.162146
23.161847
23.161544
23.161228
23.160896
23.160549
23.160191
23.159828
23.15947
23.159116
23.158757
23.158387
23.158
23.157595
23.157181
23.156761
23.156341
23.155918
23.155492
23.155057
23.154609
23.154146
23.153667
23.153179
23.152685
23.152188
23.151688
23.151179
23.150658
23.150124
23.149578
23.149025
23.148464
23.147896
23.147318
23.146729
23.146129
23.145519
23.144899
23.14427
23.143628
23.142974
23.142308
23.141632
23.140948
23.140256
23.139559
23.138853
23.138137
23.137405
23.136657
23.135894
23.135119
23.134336
23.133547
23.13275
23.131943
23.131124
23.130292
23.129447
23.128586
23.127712
23.126827
23.125936
23.125039
23.124134
23.123212
23.122269
23.121308
23.120337
23.119361
23.118382
23.117392
23.116386
23.115361
23.114323
23.113276
23.112224
23.111163
23.110089
23.108997
23.107889
23.106767
23.105634
23.10449
23.103336
23.102173
23.100998
23.099811
23.098608
23.09739
23.09616
23.094922
23.093675
23.092415
23.09114
23.089852
23.088552
23.087241
23.08592
23.084585
23.083237
23.081877
23.080506
23.079123
23.077728
23.07632
23.0749
23.073468
23.072025
23.070569
23.069101
23.067622
23.06613
23.064627
23.063113
23.061587
23.06005
23.058503
23.056943
23.055369
23.053782
23.05218
23.050567
23.048945
23.047317
23.04568
23.044028
23.042358
23.04067
23.038971
23.03727
23.035567
23.033857
23.032131
23.030386
23.028625
23.026854
23.025079
23.023297
23.021503
23.019695
23.017871
23.016035
23.014192
23.012342
23.010484
23.008619
23.006746
23.004866
23.002973
23.001066
22.999142
22.997207
22.995267
22.993326
22.99138
22.989423
22.987451
22.985465
22.983472
22.981477
22.979478
22.977471
22.975453
22.973427
22.971394
22.969353
22.967302
22.965238
22.963166
22.961089
22.959008
22.956923
22.954832
22.952732
22.950625
22.948512
22.946394
22.944269
22.942136
22.939996
22.937857
22.935714
22.933559
22.931388
22.929205
22.927024
22.924852
22.922676
22.920495
22.918309
22.91612
22.91392
22.911706
22.909479
22.907252
22.905048
22.902839
22.900615
22.898373
22.896117
22.893877
22.891645
22.889406
22.887155
22.884893
22.882647
22.880402
22.878145
22.87587
22.873579
22.871302
22.869061
22.866813
22.864542
22.862246
22.859932
22.857644
22.8554
22.853147
22.850867
22.848559
22.846231
22.843931
22.841671
22.8394
22.837102
22.834778
22.832436
22.830139
22.827915
22.825681
22.823409
22.821091
22.818748
22.816395
22.814126
22.811868
22.809588
22.807274
22.804939
22.802588
22.800318
22.798107
22.795881
22.793616
22.791309
22.788983
22.786661
22.784428
22.7822
22.779951
22.777668
22.775364
22.77305
22.770775
22.768549
22.766321
22.76408
22.761824
22.75956
22.757316
22.755081
22.752841
22.750595
22.748349
22.746118
22.743889
22.741671
22.739456
22.737239
22.735021
22.7328
22.730602
22.728435
22.726264
22.724079
22.721879
22.719674
22.717473
22.715324
22.713199
22.711068
22.708919
22.706754
22.704582
22.702407
22.700278
22.698185
22.696086
22.693975
22.691853
22.689723
22.68763
22.685577
22.68352
22.68145
22.679369
22.677279
22.675209
22.673165
22.671132
22.669107
22.667082
22.665058
22.663035
22.661017
22.659019
22.657031
22.655044
22.653057
22.651074
22.649112
22.647166
22.645222
22.643276
22.641332
22.639403
22.637487
22.635577
22.633673
22.631778
22.629892
22.628011
22.626134
22.624272
22.622418
22.62057
22.618732
22.616899
22.615073
22.613253
22.611441
22.609649
22.607868
22.60609
22.604312
22.602539
22.600784
22.59904
22.597304
22.595568
22.593839
22.592125
22.590423
22.588731
22.587039
22.585356
22.58369
22.582031
22.580377
22.578725
22.577083
22.57546
22.573847
22.572237
22.570628
22.56903
22.567447
22.565878
22.564312
22.562749
22.561198
22.55966
22.558131
22.556606
22.555091
22.553587
22.552089
22.550599
22.549118
22.547647
22.546186
22.544728
22.543283
22.54185
22.540422
22.539001
22.537584
22.536179
22.534793
22.533412
22.532032
22.530655
22.529286
22.527934
22.526595
22.525267
22.523939
22.522619
22.521313
22.520016
22.51872
22.517429
22.516143
22.514872
22.513622
22.512378
22.511135
22.509891
22.508653
22.507425
22.506217
22.505021
22.503826
22.502633
22.501444
22.500265
22.499101
22.497946
22.496794
22.495645
22.494503
22.493374
22.492255
22.491142
22.49003
22.488923
22.487828
22.486744
22.485667
22.484597
22.483531
22.482468
22.481411
22.480362
22.479323
22.478292
22.477266
22.476244
22.475227
22.474218
22.473217
22.472222
22.471231
22.470244
22.469265
22.468293
22.467328
22.466366
22.465411
22.464462
22.463519
22.462578
22.461644
22.460717
22.459796
22.45888
22.457969
22.457064
22.456164
22.455267
22.454375
22.453487
22.452606
22.45173
22.450859
22.449994
22.449132
22.448275
22.447423
22.446576
22.445733
22.444894
22.444059
22.44323
22.442407
22.441589
22.440773
22.439959
22.439152
22.438351
22.437555
22.436764
22.435975
22.43519
22.434409
22.433633
22.432862
22.432096
22.431334
22.430575
22.429821
22.429072
22.428327
22.427587
22.426852
22.426121
22.425392
22.424667
22.423946
22.423232
22.422523
22.421818
22.421116
22.420419
22.419726
22.419038
22.418353
22.417674
22.416999
22.416329
22.415662
22.415
22.414343
22.41369
22.413042
22.412398
22.411759
22.411124
22.410494
22.409868
22.409247
22.408631
22.40802
22.407412
22.406808
22.40621
22.405617
22.405029
22.404445
22.403865
22.40329
22.40272
22.402155
22.401595
22.401039
22.400488
22.399942
22.399401
22.398863
22.398331
22.397803
22.39728
22.396762
22.396249
22.395741
22.395238
22.394738
22.394243
22.393754
22.39327
22.392791
22.392315
22.391844
22.391378
22.390917
22.390461
22.39001
22.389563
22.389121
22.388684
22.388251
22.387822
22.387399
22.38698
22.386566
22.386156
22.385751
22.385351
22.384955
22.384564
22.384177
22.383795
22.383417
22.383044
22.382675
22.382311
22.38195
22.381595
22.381244
22.380899
22.380557
22.380218
22.379884
22.379554
22.379229
22.378909
22.378593
22.37828
22.377971
22.377667
22.377367
22.377071
22.376779
22.376491
22.376207
22.375927
22.37565
22.375378
22.37511
22.374846
22.374585
22.374328
22.374075
22.373826
22.37358
22.373338
22.373099
22.372864
22.372633
22.372406
22.372182
22.371961
22.371743
22.371529
22.371319
22.371112
22.370908
22.370707
22.370509
22.370315
22.370124
22.369937
22.369752
22.36957
22.369391
22.369214
22.369042
22.368873
22.368706
22.368541
22.36838
22.368221
22.368065
22.367913
22.367763
22.367615
22.367469
22.367327
22.367187
22.36705
22.366915
22.366783
22.366653
22.366525
22.3664
22.366277
22.366156
22.366038
22.365922
22.365808
22.365697
22.365588
22.365481
22.365375
22.365271
22.36517
22.365071
22.364973
22.364878
22.364785
22.364693
22.364603
22.364515
22.364428
22.364344
22.364262
22.364181
22.364101
22.364023
22.363947
22.363872
22.3638
22.363729
22.363658
22.36359
22.363522
22.363457
22.363393
22.36333
22.363269
22.363208
22.363149
22.363091
22.363036
22.362981
22.362927
22.362874
22.362823
22.362772
22.362723
22.362675
22.362629
22.362583
22.362537
22.362493
22.36245
22.362409
22.362368
22.362328
22.362289
22.36225
22.362213
22.362177
22.362141
22.362107
22.362073
22.362039
22.362007
22.361976
22.361945
22.361915
22.361886
22.361857
22.361829
22.361802
22.361776
22.36175
22.361724
22.3617
22.361676
22.361652
22.361629
22.361607
22.361585
22.361564
22.361543
22.361523
22.361504
22.361485
22.361466
22.361448
22.36143
22.361413
22.361396
22.36138
22.361365
22.361349
22.361334
22.361319
22.361304
22.36129
22.361277
22.361265
22.361252
22.361239
22.361227
22.361215
22.361203
22.361192
22.361182
22.361171
22.361161
22.361151
22.361141
22.361131
22.361123
22.361114
22.361105
22.361097
22.361088
22.36108
22.361073
22.361065
22.361058
22.361051
22.361044
22.361037
22.361031
22.361025
22.361019
22.361013
22.361007
22.361001
22.360995
22.36099
22.360985
22.36098
22.360975
22.36097
22.360966
22.360961
22.360957
22.360953
22.360949
22.360945
22.360941
22.360937
22.360933
22.36093
22.360927
22.360923
22.36092
22.360916
22.360913
22.36091
22.360907
22.360905
22.360902
22.360899
22.360896
22.360894
22.360891
22.360889
22.360886
22.360884
22.360881
22.360879
22.360877
22.360875
22.360873
22.360871
22.360868
22.360866
22.360865
22.360863
22.360861
22.360859
22.360857
22.360855
22.360854
22.360852
22.360851
22.360849
22.360847
22.360845
22.360844
22.360842
22.360841
22.36084
22.360838
22.360836
22.360835
22.360834
22.360832
22.360831
22.36083
22.360828
22.360827
22.360826
22.360824
22.360823
22.360822
22.36082
22.360819
22.360818
22.360817
22.360816
22.360815
22.360813
22.360812
22.360811
22.36081
22.360809
22.360808
22.360807
22.360805
22.360804
22.360803
22.360802
22.360801
22.3608
22.360799
22.360798
22.360797
22.360796
22.360795
22.360794
22.360793
22.360792
22.360791
22.36079
22.36079
22.360788
22.360787
22.360786
22.360785
22.360785
22.360784
22.360783
22.360782
22.360781
22.36078
22.360779
22.360778
22.360778
22.360777
22.360776
22.360775
22.360774
22.360773
22.360772
22.360772
22.360771
22.36077
22.360769
22.360768
22.360767
22.360766
22.360765
22.360764
22.360764
22.360763
22.360762
22.360761
22.36076
22.360759
22.360758
22.360758
22.360757
22.360757
22.360756
22.360755
22.360754
22.360753
22.360752
22.360751
22.360751
22.36075
22.360749
22.360748
22.360747
22.360746
22.360746
22.360745
22.360744
22.360743
22.360743
22.360742
22.360741
22.36074
22.360739
22.360739
22.360738
22.360737
22.360736
22.360735
22.360735
22.360734
22.360733
22.360732
22.360731
22.360731
22.36073
22.360729
22.360728
22.360727
22.360727
22.360726
22.360725
22.360724
22.360724
22.360723
22.360722
22.360722
22.360721
22.36072
22.360719
22.360718
22.360718
22.360717
22.360716
22.360716
22.360715
22.360714
22.360713
22.360713
22.360712
22.360711
22.36071
22.36071
22.360709
22.360708
22.360708
22.360707
22.360706
22.360705
22.360705
22.360704
22.360704
22.360703
22.360702
22.360701
22.360701
22.3607
22.360699
22.360699
22.360698
22.360697
22.360697
22.360696
22.360695
22.360695
22.360694
22.360693
22.360693
22.360692
22.360692
22.360691
22.36069
22.360689
22.360688
22.360688
22.360687
22.360687
22.360686
22.360686
22.360685
22.360684
22.360684
22.360683
22.360682
22.360682
22.360681
22.36068
22.36068
22.360679
22.360679
22.360678
22.360677
22.360676
22.360676
22.360675
22.360675
22.360674
22.360673
22.360673
22.360672
22.360672
22.360671
22.36067
22.36067
22.360669
22.360668
22.360668
22.360667
22.360667
22.360666
22.360665
22.360665
22.360664
22.360664
22.360663
22.360662
22.360662
22.360661
22.36066
22.36066
22.360659
22.360659
22.360658
22.360657
22.360657
22.360656
22.360655
22.360655
22.360654
22.360654
22.360653
22.360652
22.360651
22.360651
22.36065
22.36065
22.360649
22.360648
22.360648
22.360647
22.360647
22.360646
22.360645
22.360645
22.360644
22.360643
22.360643
22.360642
22.360642
22.360641
22.36064
22.36064
22.360639
22.360638
22.360638
22.360637
22.360637
22.360636
22.360635
22.360634
22.360634
22.360633
22.360633
22.360632
22.360631
22.360631
22.36063
22.360629
22.360629
22.360628
22.360627
22.360627
22.360626
22.360625
22.360625
22.360624
22.360624
22.360623
22.360622
22.360621
22.360621
22.36062
22.36062
22.360619
22.360618
22.360618
22.360617
22.360616
22.360616
22.360615
22.360615
22.360614
22.360613
22.360612
22.360612
22.360611
22.360611
22.36061
22.360609
22.360609
22.360608
22.360607
22.360607
22.360606
22.360605
22.360605
22.360604
22.360603
22.360603
22.360602
22.360601
22.360601
22.3606
22.3606
22.360599
22.360598
22.360598
22.360597
22.360596
22.360596
22.360595
22.360594
22.360594
22.360593
22.360592
22.360592
22.360591
22.360591
22.36059
22.360589
22.360589
22.360588
22.360587
22.360587
22.360586
22.360585
22.360585
22.360584
22.360583
22.360583
22.360582
22.360582
22.360581
22.36058
22.36058
22.360579
22.360578
22.360578
22.360577
22.360576
22.360576
22.360575
22.360575
22.360574
22.360573
22.360573
22.360572
22.360571
22.360571
22.36057
22.36057
22.360569
22.360568
22.360568
22.360567
22.360567
22.360566
22.360565
22.360565
22.360564
22.360564
22.360563
22.360562
22.360562
22.360561
22.360561
22.36056
22.36056
22.360559
22.360558
22.360558
22.360557
22.360557
22.360556
22.360555
22.360555
22.360554
22.360554
22.360553
22.360553
22.360552
22.360551
22.360551
22.36055
22.36055
22.360549
22.360549
22.360548
22.360548
22.360547
22.360547
22.360546
22.360546
22.360545
22.360545
22.360544
22.360544
22.360543
22.360542
22.360542
22.360541
22.360541
22.36054
22.36054
22.360539
22.360539
22.360538
22.360538
22.360537
22.360537
22.360536
22.360536
22.360535
22.360535
22.360534
22.360534
22.360533
22.360532
22.360532
22.360531
22.360531
22.360531
22.36053
22.360529
22.360529
22.360528
22.360528
22.360527
22.360527
22.360526
22.360526
22.360525
22.360525
22.360524
22.360524
22.360523
22.360523
22.360522
22.360521
22.360521
22.36052
22.36052
22.360519
22.360519
22.360518
22.360518
22.360517
22.360516
22.360516
22.360516
22.360515
22.360514
22.360514
22.360513
22.360513
22.360512
22.360512
22.360511
22.36051
22.36051
22.360509
22.360509
22.360508
22.360508
22.360507
22.360507
22.360506
22.360505
22.360505
22.360504
22.360504
22.360503
22.360503
22.360502
22.360502
22.360501
22.3605
22.3605
22.360499
22.360499
22.360498
22.360498
22.360497
22.360496
22.360496
22.360495
22.360495
22.360494
22.360494
22.360493
22.360493
22.360492
22.360491
22.360491
22.36049
22.36049
22.360489
22.360489
22.360488
22.360488
22.360487
22.360486
22.360486
22.360485
22.360485
22.360484
22.360484
22.360483
22.360482
22.360482
22.360481
22.360481
22.36048
22.36048
22.360479
22.360479
22.360478
22.360478
22.360477
22.360477
22.360476
22.360475
22.360475
22.360474
22.360474
22.360473
22.360473
22.360472
22.360472
22.360471
22.360471
22.36047
22.36047
22.360469
22.360468
22.360468
22.360467
22.360467
22.360466
22.360466
22.360465
22.360465
22.360464
22.360464
22.360463
22.360463
22.360462
22.360462
22.360461
22.360461
22.36046
22.36046
22.360459
22.360459
22.360458
22.360457
22.360457
22.360457
22.360456
22.360456
22.360455
22.360454
22.360454
22.360453
22.360453
22.360453
22.360452
22.360452
22.360451
22.36045
22.36045
22.36045
22.360449
22.360449
22.360448
22.360448
22.360447
22.360447
22.360446
22.360446
22.360445
22.360445
22.360444
22.360444
22.360443
22.360443
22.360442
22.360442
22.360441
22.360441
22.360441
22.36044
22.360439
22.360439
22.360438
22.360438
22.360438
22.360437
22.360437
22.360436
22.360436
22.360435
22.360435
22.360434
22.360434
22.360434
22.360433
22.360433
22.360432
22.360432
22.360431
22.360431
22.36043
22.36043
22.360429
22.360429
22.360428
22.360428
22.360428
22.360427
22.360427
22.360426
22.360426
22.360425
22.360425
22.360425
22.360424
22.360424
22.360423
22.360423
22.360422
22.360422
22.360421
22.360421
22.36042
22.36042
22.36042
22.360419
22.360419
22.360418
22.360418
22.360417
22.360417
22.360417
22.360416
22.360416
22.360415
22.360415
22.360414
22.360414
22.360413
22.360413
22.360413
22.360412
22.360412
22.360411
22.360411
22.36041
22.36041
22.36041
22.360409
22.360409
22.360408
22.360408
22.360407
22.360407
22.360406
22.360406
22.360406
22.360405
22.360405
22.360404
22.360404
22.360403
22.360403
22.360402
22.360402
22.360401
22.360401
22.3604
22.3604
22.3604
22.360399
22.360399
22.360398
22.360398
22.360397
22.360397
22.360396
22.360396
22.360395
22.360395
22.360394
22.360394
22.360394
22.360393
22.360393
22.360392
22.360392
22.360391
22.360391
22.36039
22.36039
22.360389
22.360389
22.360388
22.360388
22.360387
22.360387
22.360387
22.360386
22.360386
22.360385
22.360385
22.360384
22.360384
22.360383
22.360383
22.360382
22.360382
22.360381
22.360381
22.360381
22.36038
22.36038
22.360379
22.360379
22.360378
22.360378
22.360377
22.360377
22.360376
22.360376
22.360375
22.360375
22.360375
22.360374
22.360374
22.360373
22.360373
22.360372
22.360372
22.360371
22.360371
22.36037
22.36037
22.36037
22.360369
22.360369
22.360368
22.360368
22.360367
22.360367
22.360366
22.360366
22.360366
22.360365
22.360365
22.360364
22.360364
22.360363
22.360363
22.360362
22.360362
22.360362
22.360361
22.360361
22.36036
22.36036
22.360359
22.360359
22.360358
22.360358
22.360358
22.360357
22.360357
22.360356
22.360356
22.360355
22.360355
22.360354
22.360354
22.360354
22.360353
22.360353
22.360352
22.360352
22.360351
22.360351
22.360351
22.36035
22.36035
22.360349
22.360349
22.360348
22.360348
22.360347
22.360347
22.360347
22.360346
22.360346
22.360345
22.360345
22.360344
22.360344
22.360344
22.360343
22.360343
22.360342
22.360342
22.360341
22.360341
22.360341
22.36034
22.36034
22.360339
22.360339
22.360338
22.360338
22.360337
22.360337
22.360337
22.360336
22.360336
22.360335
22.360335
22.360334
22.360334
22.360334
22.360333
22.360333
22.360332
22.360332
22.360331
22.360331
22.360331
22.36033
22.36033
22.360329
22.360329
22.360328
22.360328
22.360328
22.360327
22.360327
22.360326
22.360326
22.360325
22.360325
22.360325
22.360324
22.360324
22.360323
22.360323
22.360322
22.360322
22.360321
22.360321
22.360321
22.36032
22.36032
22.36032
22.360319
22.360319
22.360318
22.360318
22.360317
22.360317
22.360316
22.360316
22.360316
22.360315
22.360315
22.360314
22.360314
22.360313
22.360313
22.360313
22.360312
22.360312
22.360311
22.360311
22.360311
22.36031
22.36031
22.360309
22.360309
22.360309
22.360308
22.360308
22.360307
22.360307
22.360307
22.360306
22.360306
22.360305
22.360305
22.360304
22.360304
22.360304
22.360303
22.360303
22.360302
22.360302
22.360302
22.360301
22.360301
22.3603
22.3603
22.3603
22.360299
22.360299
22.360299
22.360298
22.360298
22.360297
22.360297
22.360296
22.360296
22.360296
22.360295
22.360295
22.360295
22.360294
22.360294
22.360293
22.360293
22.360293
22.360292
22.360292
22.360291
22.360291
22.360291
22.36029
22.36029
22.36029
22.360289
22.360289
22.360288
22.360288
22.360288
22.360287
22.360287
22.360286
22.360286
22.360286
22.360285
22.360285
22.360285
22.360284
22.360284
22.360283
22.360283
22.360283
22.360282
22.360282
22.360281
22.360281
22.36028
22.36028
22.36028
22.360279
22.360279
22.360279
22.360278
22.360278
22.360277
22.360277
22.360277
22.360276
22.360276
22.360275
22.360275
22.360275
22.360274
22.360274
22.360273
22.360273
22.360273
22.360272
22.360272
22.360271
22.360271
22.360271
22.36027
22.36027
22.360269
22.360269
22.360269
22.360268
22.360268
22.360267
22.360267
22.360266
22.360266
22.360266
22.360265
22.360265
22.360264
22.360264
22.360264
22.360263
22.360263
22.360262
22.360262
22.360261
22.360261
22.360261
22.36026
22.36026
22.360259
22.360259
22.360259
22.360258
22.360258
22.360257
22.360257
22.360256
22.360256
22.360256
22.360255
22.360255
22.360254
22.360254
22.360253
22.360253
22.360253
22.360252
22.360252
22.360251
22.360251
22.360251
22.36025
22.36025
22.360249
22.360249
22.360248
22.360248
22.360248
22.360247
22.360247
22.360246
22.360246
22.360246
22.360245
22.360245
22.360244
22.360244
22.360243
22.360243
22.360243
22.360242
22.360242
22.360241
22.360241
22.36024
22.36024
22.36024
22.360239
22.360239
22.360238
22.360238
22.360237
22.360237
22.360237
22.360236
22.360236
22.360235
22.360235
22.360235
22.360234
22.360234
22.360233
22.360233
22.360232
22.360232
22.360232
22.360231
22.360231
22.36023
22.36023
22.360229
22.360229
22.360229
22.360228
22.360228
22.360227
22.360227
22.360226
22.360226
22.360226
22.360225
22.360225
22.360224
22.360224
22.360224
22.360223
22.360223
22.360222
22.360222
22.360221
22.360221
22.360221
22.36022
22.36022
22.360219
22.360219
22.360219
22.360218
22.360218
22.360217
22.360217
22.360217
22.360216
22.360216
22.360215
22.360215
22.360214
22.360214
22.360214
22.360213
22.360213
22.360212
22.360212
22.360211
22.360211
22.360211
22.36021
22.36021
22.36021
22.360209
22.360209
22.360208
22.360208
22.360208
22.360207
22.360207
22.360206
22.360206
22.360205
22.360205
22.360205
22.360205
22.360204
22.360204
22.360203
22.360203
22.360202
22.360202
22.360202
22.360201
22.360201
22.360201
22.3602
22.3602
22.360199
22.360199
22.360199
22.360198
22.360198
22.360198
22.360197
22.360197
22.360196
22.360196
22.360196
22.360195
22.360195
22.360195
22.360194
22.360194
22.360194
22.360193
22.360193
22.360193
22.360192
22.360192
22.360192
22.360191
22.360191
22.36019
22.36019
22.36019
22.360189
22.360189
22.360189
22.360188
22.360188
22.360187
22.360187
22.360187
22.360187
22.360186
22.360186
22.360185
22.360185
22.360185
22.360184
22.360184
22.360184
22.360183
22.360183
22.360183
22.360182
22.360182
22.360182
22.360181
22.360181
22.36018
22.36018
22.36018
22.360179
22.360179
22.360179
22.360178
22.360178
22.360178
22.360177
22.360177
22.360176
22.360176
22.360176
22.360175
22.360175
22.360175
22.360174
22.360174
22.360174
22.360173
22.360173
22.360172
22.360172
22.360172
22.360171
22.360171
22.360171
22.36017
22.36017
22.360169
22.360169
22.360169
22.360168
22.360168
22.360168
22.360167
22.360167
22.360167
22.360166
22.360166
22.360166
22.360165
22.360165
22.360164
22.360164
22.360164
22.360163
22.360163
22.360163
22.360162
22.360162
22.360161
22.360161
22.360161
22.36016
22.36016
22.36016
22.360159
22.360159
22.360158
22.360158
22.360158
22.360158
22.360157
22.360157
22.360156
22.360156
22.360156
22.360155
22.360155
22.360155
22.360154
22.360154
22.360154
22.360153
22.360153
22.360153
22.360152
22.360152
22.360151
22.360151
22.360151
22.36015
22.36015
22.36015
22.360149
22.360149
22.360149
22.360148
22.360148
22.360148
22.360147
22.360147
22.360147
22.360146
22.360146
22.360146
22.360145
22.360145
22.360145
22.360144
22.360144
22.360144
22.360143
22.360143
22.360143
22.360142
22.360142
22.360142
22.360141
22.360141
22.360141
22.36014
22.36014
22.36014
22.360139
22.360139
22.360139
22.360138
22.360138
22.360138
22.360137
22.360137
22.360137
22.360136
22.360136
22.360136
22.360136
22.360135
22.360135
22.360134
22.360134
22.360134
22.360134
22.360133
22.360133
22.360133
22.360132
22.360132
22.360132
22.360131
22.360131
22.360131
22.36013
22.36013
22.36013
22.360129
22.360129
22.360129
22.360128
22.360128
22.360128
22.360127
22.360127
22.360127
22.360126
22.360126
22.360125
22.360125
22.360125
22.360124
22.360124
22.360124
22.360123
22.360123
22.360123
22.360122
22.360122
22.360122
22.360121
22.360121
22.360121
22.36012
22.36012
22.36012
22.360119
22.360119
22.360119
22.360118
22.360118
22.360117
22.360117
22.360117
22.360116
22.360116
22.360116
22.360115
22.360115
22.360115
22.360114
22.360114
22.360114
22.360113
22.360113
22.360112
22.360112
22.360112
22.360111
22.360111
22.360111
22.36011
22.36011
22.36011
22.360109
22.360109
22.360109
22.360108
22.360108
22.360107
22.360107
22.360107
22.360106
22.360106
22.360106
22.360105
22.360105
22.360104
22.360104
22.360104
22.360103
22.360103
22.360103
22.360102
22.360102
22.360102
22.360101
22.360101
22.360101
22.3601
22.3601
22.360099
22.360099
22.360099
22.360098
22.360098
22.360098
22.360097
22.360097
22.360097
22.360096
22.360096
22.360096
22.360095
22.360095
22.360094
22.360094
22.360094
22.360093
22.360093
22.360093
22.360092
22.360092
22.360092
22.360091
22.360091
22.36009
22.36009
22.36009
22.360089
22.360089
22.360089
22.360088
22.360088
22.360088
22.360087
22.360087
22.360087
22.360086
22.360086
22.360085
22.360085
22.360085
22.360084
22.360084
22.360084
22.360083
22.360083
22.360083
22.360082
22.360082
22.360081
22.360081
22.360081
22.36008
22.36008
22.36008
22.360079
22.360079
22.360079
22.360078
22.360078
22.360078
22.360077
22.360077
22.360076
22.360076
22.360076
22.360075
22.360075
22.360075
22.360074
22.360074
22.360074
22.360073
22.360073
22.360072
22.360072
22.360072
22.360071
22.360071
22.360071
22.36007
22.36007
22.360069
22.360069
22.360069
22.360068
22.360068
22.360068
22.360067
22.360067
22.360067
22.360066
22.360066
22.360065
22.360065
22.360065
22.360064
22.360064
22.360064
22.360063
22.360063
22.360063
22.360062
22.360062
22.360061
22.360061
22.360061
22.36006
22.36006
22.36006
22.360059
22.360059
22.360059
22.360058
22.360058
22.360057
22.360057
22.360057
22.360056
22.360056
22.360056
22.360055
22.360055
22.360054
22.360054
22.360054
22.360053
22.360053
22.360053
22.360052
22.360052
22.360051
22.360051
22.360051
22.36005
22.36005
22.36005
22.360049
22.360049
22.360049
22.360048
22.360048
22.360048
22.360047
22.360047
22.360046
22.360046
22.360046
22.360045
22.360045
22.360045
22.360044
22.360044
22.360044
22.360043
22.360043
22.360043
22.360042
22.360042
22.360041
22.360041
22.360041
22.36004
22.36004
22.36004
22.360039
22.360039
22.360039
22.360038
22.360038
22.360038
22.360037
22.360037
22.360037
22.360036
22.360036
22.360036
22.360035
22.360035
22.360035
22.360034
22.360034
22.360034
22.360033
22.360033
22.360033
22.360032
22.360032
22.360031
22.360031
22.360031
22.360031
22.36003
22.36003
22.360029
22.360029
22.360029
22.360028
22.360028
22.360028
22.360027
22.360027
22.360027
22.360027
22.360026
22.360026
22.360026
22.360025
22.360025
22.360025
22.360024
22.360024
22.360024
22.360023
22.360023
22.360023
22.360022
22.360022
22.360022
22.360021
22.360021
22.360021
22.36002
22.36002
22.36002
22.360019
22.360019
22.360019
22.360018
22.360018
22.360018
22.360017
22.360017
22.360017
22.360016
22.360016
22.360016
22.360015
22.360015
22.360015
22.360014
22.360014
22.360014
22.360013
22.360013
22.360013
22.360012
22.360012
22.360012
22.360011
22.360011
22.360011
22.36001
22.36001
22.36001
22.36001
22.360009
22.360009
22.360009
22.360008
22.360008
22.360007
22.360006
22.360005
22.360004
22.360002
22.36
22.360001
22.360003
22.360004
22.360005
22.360007
22.360009
22.360012
22.360015
22.360019
22.360024
22.36003
22.360045
22.360087
22.360195
22.360533
22.360941
22.360556
22.35984
22.359899
22.359984
22.35997
22.359957
22.359957
22.359957
22.359957
22.359959
22.359963
22.359969
22.359975
22.359982
22.359989
22.359995
22.360001
22.360006
22.36001
22.360013
22.360016
22.360017
22.360018
22.360019
22.36002
22.36002
22.36002
22.36002
22.36002
22.360019
22.360019
22.360019
22.360018
22.360018
22.360018
22.360017
22.360017
22.360016
22.360014
22.360006
22.360003
22.360012
22.360017
22.360015
22.360014
22.360014
22.360014
22.360014
22.360014
22.360014
22.360014
22.360014
22.360013
22.360013
22.360013
22.360013
22.360013
22.360012
22.360012
22.360012
22.360012
22.360012
22.360011
22.360011
22.360011
22.360011
22.36001
22.36001
22.36001
22.360009
22.360009
22.360009
22.360009
22.360008
22.360008
22.360008
22.360007
22.360007
22.360007
22.360007
22.360006
22.360006
22.360006
22.360005
22.360005
22.360005
22.360004
22.360004
22.360004
22.360004
22.360003
22.360003
22.360003
22.360002
22.360002
22.360002
22.360001
22.360001
22.360001
22.36
22.36
22.36
22.36
22.359999
22.359999
22.359999
22.359998
22.359998
22.359998
22.359997
22.359997
22.359997
22.359996
22.359996
22.359996
22.359995
22.359995
22.359995
22.359994
22.359994
22.359994
22.359993
22.359993
22.359993
22.359992
22.359992
22.359992
22.359991
22.359991
22.359991
22.35999
22.35999
22.35999
22.359989
22.359989
22.359989
22.359988
22.359988
22.359988
22.359987
22.359987
22.359987
22.359986
22.359986
22.359986
22.359985
22.359985
22.359985
22.359984
22.359984
22.359984
22.359983
22.359983
22.359983
22.359982
22.359982
22.359982
22.359981
22.359981
22.35998
22.35998
22.35998
22.359979
22.359979
22.359979
22.359978
22.359978
22.359978
22.359977
22.359977
22.359977
22.359976
22.359976
22.359976
22.359975
22.359975
22.359975
22.359974
22.359974
22.359974
22.359973
22.359973
22.359973
22.359972
22.359972
22.359971
22.359971
22.359971
22.35997
22.35997
22.35997
22.359969
22.359969
22.359969
22.359968
22.359968
22.359968
22.359967
22.359967
22.359966
22.359966
22.359966
22.359965
22.359965
22.359965
22.359964
22.359964
22.359964
22.359963
22.359963
22.359963
22.359962
22.359962
22.359961
22.359961
22.359961
22.35996
22.35996
22.35996
22.359959
22.359959
22.359959
22.359958
22.359958
22.359958
22.359957
22.359957
22.359956
22.359956
22.359956
22.359955
22.359955
22.359955
22.359954
22.359954
22.359954
22.359953
22.359953
22.359952
22.359952
22.359952
22.359951
22.359951
22.359951
22.35995
22.35995
22.359949
22.359949
22.359949
22.359948
22.359948
22.359948
22.359947
22.359947
22.359946
22.359946
22.359946
22.359945
22.359945
22.359944
22.359944
22.359944
22.359943
22.359943
22.359943
22.359942
22.359942
22.359941
22.359941
22.359941
22.35994
22.35994
22.35994
22.359939
22.359939
22.359939
22.359938
22.359938
22.359937
22.359937
22.359937