-1.25 	300 	0.0720608295545275 	101295.610737385
-1.247497497497497 	299.9757558914607 	0.05967793848176083 	101301.3272370398
-1.244994994994995 	299.9852145582653 	0.04186295469104355 	101307.6374592429
-1.242492492492492 	299.9907110993182 	0.02744504616191354 	101313.9818557453
-1.23998998998999 	299.9963084849748 	0.0104032158043088 	101320.6333234744
-1.237487487487487 	300.0020542450251 	0.008368522948267784 	101327.4269938969
-1.234984984984985 	300.0077592925036 	0.02251574238820008 	101334.1717685857
-1.232482482482482 	300.0133466233191 	0.03865397489504967 	101340.7776253778
-1.22997997997998 	300.018727701517 	0.05415364953633742 	101347.1398453194
-1.227477477477477 	300.0237486894954 	0.06864555128181429 	101353.0766853878
-1.224974974974975 	300.0283147216838 	0.08189429212163045 	101358.4757867049
-1.222472472472472 	300.0324099793403 	0.09369455616122267 	101363.3185048034
-1.21996996996997 	300.0358926197118 	0.103746592465232 	101367.4370176123
-1.217467467467467 	300.0386461909458 	0.111733818610735 	101370.693329109
-1.214964964964965 	300.040682287173 	0.1176370606525403 	101373.1012634415
-1.212462462462462 	300.0420039699109 	0.121499201720263 	101374.6643381068
-1.20995995995996 	300.0425776633444 	0.1231445296442557 	101375.3428413614
-1.207457457457457 	300.0423737026578 	0.1225095133593122 	101375.1017210499
-1.204954954954955 	300.0413712947166 	0.1195834817340728 	101373.9163407027
-1.202452452452452 	300.0395696162898 	0.1143544661871366 	101371.7857623717
-1.19994994994995 	300.0369898759849 	0.1069339609330371 	101368.7351548672
-1.197447447447447 	300.0337199717712 	0.09749081868803149 	101364.8683867306
-1.194944944944945 	300.0298613502715 	0.08630191823908173 	101360.3055953124
-1.192442442442442 	300.0254785779882 	0.07362202802398599 	101355.1232348214
-1.18993993993994 	300.0206382536338 	0.05967527805514575 	101349.3998994287
-1.187437437437437 	300.0154414386535 	0.0446724795866481 	101343.2554008176
-1.184934934934935 	300.0099606004797 	0.02879669877931929 	101336.7752914461
-1.182432432432432 	300.0042954698848 	0.01240483781631213 	101330.0776177639
-1.17992992992993 	299.9985792771809 	0.008481444567209619 	101323.3199909071
-1.177427427427427 	299.9928831499643 	0.02063911198011681 	101316.5862358458
-1.174924924924925 	299.9872789713148 	0.03683232259259618 	101309.9615815951
-1.172422422422422 	299.9818732210136 	0.05242963637029241 	101303.5716922982
-1.16991991991992 	299.9767832031642 	0.06711672298133947 	101297.5553298676
-1.167417417417417 	299.9721288869662 	0.08055922857960149 	101292.0542568151
-1.164914914914915 	299.9680152870724 	0.09247003571876111 	101287.1922737695
-1.162412412412412 	299.9645157477721 	0.1025872638040433 	101283.0562733928
-1.15990990990991 	299.9616728220833 	0.1107966828778194 	101279.6963053904
-1.157407407407407 	299.9595131583609 	0.1170497689457038 	101277.1439571347
-1.154904904904904 	299.9580754437596 	0.1212018617757762 	101275.4448436011
-1.152402402402403 	299.9574211876797 	0.1231030102904289 	101274.6715160332
-1.1498998998999 	299.9575837831042 	0.1226205823868071 	101274.8636689739
-1.147397397397397 	299.9585563969118 	0.1197687702254381 	101276.0129538974
-1.144894894894895 	299.9603127250982 	0.1146876370532152 	101278.0885354405
-1.142392392392392 	299.9628020040533 	0.1075101591903407 	101281.0304176693
-1.13988988988989 	299.9659558934261 	0.09840146876960082 	101284.757673614
-1.137387387387387 	299.9697213455609 	0.08749874542008997 	101289.2079408248
-1.134884884884885 	299.9740416266807 	0.07498565526060808 	101294.3140339471
-1.132382382382382 	299.9788411192745 	0.0611153724344454 	101299.9868429982
-1.12987987987988 	299.9840265981121 	0.04615875881276973 	101306.1161720376
-1.127377377377377 	299.9894802160122 	0.03043331636220295 	101312.5625898101
-1.124874874874875 	299.9950769699842 	0.0142210259886683 	101319.1786151234
-1.122372372372372 	300.0007331521189 	0.008354814080251264 	101325.8651195496
-1.11986986986987 	300.0064028087054 	0.01859340996731942 	101332.5680006189
-1.117367367367367 	300.0120100269428 	0.0347772213548123 	101339.1974033278
-1.114864864864865 	300.0174239489223 	0.05040380149165547 	101345.5984455561
-1.112362362362362 	300.0225166964349 	0.0651175918113788 	101351.6201188739
-1.10985985985986 	300.0271881745844 	0.07862259432422097 	101357.1438289999
-1.107357357357357 	300.0313477137936 	0.09062615041377227 	101362.0625097844
-1.104854854854855 	300.0349227461461 	0.1009724502908584 	101366.2901803595
-1.102352352352353 	300.0378720142825 	0.1094935265910782 	101369.7778409422
-1.09984984984985 	300.04014577127 	0.1160609627357139 	101372.4668265852
-1.097347347347347 	300.041693144255 	0.1205536222661566 	101374.2967645701
-1.094844844844845 	300.0424683197288 	0.1227609486065388 	101375.2135783537
-1.092342342342342 	300.0424337040849 	0.1226364704523931 	101375.1727277198
-1.08983983983984 	300.0415824754591 	0.120177375349491 	101374.166089386
-1.087337337337337 	300.0399549536891 	0.1154571253870061 	101372.2415233474
-1.084834834834835 	300.0375884038323 	0.1086346660741182 	101369.4429683945
-1.082332332332332 	300.0345312532831 	0.09978861761174834 	101365.8277771475
-1.07982982982983 	300.0308404205415 	0.08910399129873069 	101361.4634363471
-1.077327327327327 	300.0265796062675 	0.07678775711023454 	101356.4251575392
-1.074824824824825 	300.0218281696524 	0.06308676221189949 	101350.806923191
-1.072322322322323 	300.0166974930603 	0.04826807031848501 	101344.7405547257
-1.06981981981982 	300.0112701733821 	0.03255083853745716 	101338.3236379414
-1.067317317317317 	300.0056489065541 	0.01628676838094347 	101331.6778239211
-1.064814814814815 	299.9999392783537 	0.008165797219334097 	101324.9278180584
-1.062312312312312 	299.9942022910685 	0.01686685963375027 	101318.1457002298
-1.05980980980981 	299.9885360583322 	0.03321143173088877 	101311.4476454436
-1.057307307307307 	299.9830733789799 	0.04896429094671731 	101304.9903608088
-1.054804804804805 	299.9779358432679 	0.06379677775844296 	101298.9178193267
-1.052302302302302 	299.9732254226073 	0.07742395733073698 	101293.3503524029
-1.0497997997998 	299.9690109962443 	0.08964076280425029 	101288.3691645006
-1.047297297297297 	299.9653505914583 	0.1002106306303799 	101284.0430349401
-1.044794794794795 	299.9623146961853 	0.108962838767835 	101280.4549629426
-1.042292292292292 	299.9599746879763 	0.1157218619723289 	101277.6894963221
-1.03978978978979 	299.9583927301383 	0.1202885209116419 	101275.8198747517
-1.037287287287287 	299.9576078830521 	0.1225771110675517 	101274.8922206858
-1.034784784784785 	299.9576208882302 	0.1225230757769571 	101274.9076022525
-1.032282282282283 	299.9584182226591 	0.1201810215034043 	101275.8497332187
-1.02977977977978 	299.9599796053887 	0.1156667646709084 	101277.6949395875
-1.027277277277277 	299.9622724701944 	0.1090382256845512 	101280.4046454058
-1.024774774774775 	299.9652592162419 	0.1004195608807388 	101283.9343690865
-1.022272272272272 	299.9688917407825 	0.08992142885340362 	101288.2275006875
-1.01976976976977 	299.9730955315518 	0.07774403940232583 	101293.1958551871
-1.017267267267267 	299.9777886363709 	0.06418036657668115 	101298.7428747178
-1.014764764764765 	299.9828770434488 	0.04948457538583897 	101304.7573817937
-1.012262262262262 	299.9882530634661 	0.03395641378345849 	101311.1120402435
-1.00975975975976 	299.9938112662456 	0.01786464221789224 	101317.6824175634
-1.007257257257257 	299.9994564967511 	0.007608458073511416 	101324.3559196084
-1.004754754754755 	300.0051148637572 	0.01486482062468494 	101331.0453523783
-1.002252252252252 	300.0107028281643 	0.03098834529457158 	101337.6519129527
-0.9997497497497498 	300.0161030807665 	0.0465798783864915 	101344.0367536132
-0.9972472472472473 	300.0212178222812 	0.06136954496520646 	101350.0843384345
-0.9947447447447449 	300.0259674864105 	0.07511311253544016 	101355.7004867487
-0.9922422422422421 	300.0302645047147 	0.0875031134255625 	101360.7816126145
-0.9897397397397399 	300.0340184260588 	0.09834755675686097 	101365.2207813422
-0.9872372372372376 	300.0371552997448 	0.1073924937126681 	101368.9303403591
-0.9847347347347346 	300.0395970958056 	0.1144721144432082 	101371.8179602791
-0.9822322322322323 	300.0413034739747 	0.1194535584738118 	101373.836010564
-0.9797297297297296 	300.0422518941563 	0.1221406326285942 	101374.9576291215
-0.9772272272272275 	300.0424127626417 	0.122568764855707 	101375.1479483687
-0.9747247247247248 	300.0417714157552 	0.1207195080847713 	101374.3895915071
-0.9722222222222224 	300.0403544853011 	0.1166248592328699 	101372.713987034
-0.9697197197197196 	300.0381746684451 	0.1103573916350817 	101370.1363190084
-0.9672172172172175 	300.0352864291202 	0.1019678325173442 	101366.7208092673
-0.9647147147147147 	300.0317499077265 	0.0917024807524676 	101362.5388900463
-0.9622122122122124 	300.0276250623874 	0.07979654771977435 	101357.6614283963
-0.9597097097097099 	300.0229892714938 	0.06646031000222774 	101352.1798434622
-0.9572072072072073 	300.0179425602067 	0.05186781056568034 	101346.2127235584
-0.9547047047047047 	300.012548251553 	0.03623310975393344 	101339.8347566233
-0.9522022022022023 	300.0069269967292 	0.01996853400075664 	101333.1888629147
-0.9496996996996998 	300.0012115359918 	0.006990847934144626 	101326.4319299845
-0.9471971971971973 	299.9954814608915 	0.01315095998412343 	101319.6579022912
-0.9446946946946947 	299.9898240730898 	0.02948340365664991 	101312.9702221945
-0.9421921921921923 	299.9843424480876 	0.04529692681441921 	101306.4904959641
-0.93968968968969 	299.9791417508734 	0.06032534934395153 	101300.3432164543
-0.9371871871871872 	299.9743215748747 	0.07427282876313646 	101294.6459717622
-0.9346846846846848 	299.9699698291258 	0.08687727127146093 	101289.5024576464
-0.9321821821821823 	299.9661705166374 	0.09785041321158823 	101285.0121139356
-0.9296796796796799 	299.9630026853499 	0.1069923983907938 	101281.2681063301
-0.9271771771771771 	299.9605272857461 	0.1141439899918745 	101278.3426069383
-0.9246746746746748 	299.9587947160275 	0.119146478670161 	101276.2949908871
-0.9221721721721724 	299.957837716851 	0.1219167471042355 	101275.1638843858
-0.9196696696696698 	299.9576692479604 	0.1223692981566099 	101274.9647901529
-0.9171671671671672 	299.958289900912 	0.1205400551762753 	101275.698156129
-0.9146646646646649 	299.9596825012567 	0.1165242198554623 	101277.3438643291
-0.9121621621621623 	299.9618105631243 	0.1103837497965078 	101279.8588052607
-0.9096596596596597 	299.9646350362717 	0.1022443965299226 	101283.1967483646
-0.9071571571571573 	299.9681049514488 	0.09220603485523178 	101287.2976413071
-0.9046546546546547 	299.9721588281204 	0.08045445040789907 	101292.0888125217
-0.9021521521521524 	299.9767274153995 	0.06725669325496103 	101297.4885863024
-0.8996496496496498 	299.9817203242186 	0.05283505194019688 	101303.3901550476
-0.8971471471471473 	299.9870257081429 	0.03749967276846097 	101309.6612710161
-0.894644644644645 	299.9925340609097 	0.02154737817196296 	101316.1726204035
-0.892142142142142 	299.9981344459475 	0.005958413222658636 	101322.7930657051
-0.8896396396396397 	300.0037523303006 	0.01092972822793637 	101329.434558563
-0.8871371371371374 	300.0093229010484 	0.0270096310292241 	101336.0204656363
-0.8846346346346349 	300.0147455591714 	0.04266794415112685 	101342.4317346999
-0.8821321321321324 	300.0199281400439 	0.05764714606746332 	101348.5594348738
-0.8796296296296297 	300.0247765083914 	0.07166769328671886 	101354.2922442744
-0.8771271271271271 	300.0291850392468 	0.08438200188954577 	101359.5051972457
-0.8746246246246248 	300.0330654141942 	0.09560716666040607 	101364.0938526888
-0.8721221221221224 	300.0363455318011 	0.1050746464584223 	101367.9727614104
-0.8696196196196196 	300.0389516864412 	0.1126453749629244 	101371.0547225748
-0.8671171171171175 	300.0408458147567 	0.1181572047043687 	101373.2947927325
-0.8646146146146148 	300.0419910598888 	0.1213928562782517 	101374.649205587
-0.8621121121121121 	300.0423453637234 	0.1224042246999112 	101375.0683056421
-0.8596096096096097 	300.0419048473241 	0.1211179459080231 	101374.5473817906
-0.857107107107107 	300.0406884258076 	0.117597584479068 	101373.1088956707
-0.8546046046046049 	300.0387068908614 	0.1119109722104124 	101370.7657231628
-0.8521021021021022 	300.0360079344608 	0.1040549352386323 	101367.5740542957
-0.8495995995995997 	300.0326354011655 	0.09427973986112338 	101363.5860454216
-0.8470970970970974 	300.0286349177303 	0.08274891060677356 	101358.8555745144
-0.8445945945945946 	300.0240993369915 	0.06968503009388559 	101353.4924211159
-0.8420920920920922 	300.0191217988093 	0.05530024009915514 	101347.6070612352
-0.8395895895895897 	300.0137822427797 	0.03982741112709195 	101341.2937690325
-0.8370870870870872 	300.0082088158687 	0.02370496264220583 	101334.704379268
-0.8345845845845846 	300.0025311960235 	0.00725875090351358 	101327.9920902107
-0.8320820820820823 	299.9968180555924 	0.01044480265389713 	101321.2379762436
-0.8295795795795798 	299.99114075997 	0.02566222049810336 	101314.5267287537
-0.8270770770770772 	299.9856000755977 	0.04163788132717229 	101307.9771073786
-0.8245745745745746 	299.9803178592157 	0.05690048479490854 	101301.7334415461
-0.8220720720720721 	299.9754017400686 	0.0711334244458898 	101295.922737447
-0.8195695695695699 	299.9709413126402 	0.08405415102460555 	101290.6506809144
-0.817067067067067 	299.9670177701655 	0.09537236324601701 	101286.0135178936
-0.8145645645645651 	299.9637136793731 	0.1049157595541782 	101282.1084283156
-0.8120620620620621 	299.9610895457845 	0.1125039463756243 	101279.0071738108
-0.8095595595595597 	299.9592025842068 	0.1179648841441316 	101276.7771029186
-0.8070570570570572 	299.9580836158378 	0.1212055746357129 	101275.4545041996
-0.8045545545545546 	299.957746656605 	0.1221318912191551 	101275.0563425624
-0.8020520520520523 	299.958191953808 	0.1208100067629333 	101275.5824484386
-0.7995495495495494 	299.9594079373305 	0.1173149742156455 	101277.0194766556
-0.7970470470470474 	299.9613573099925 	0.1116860512849547 	101279.3232279428
-0.7945445445445446 	299.9640148050345 	0.1040236671482109 	101282.4637538181
-0.7920420420420423 	299.9673369883157 	0.09439782598345677 	101286.3900898026
-0.7895395395395397 	299.9712699506857 	0.08301601934135788 	101291.0382731624
-0.7870370370370371 	299.9757346169725 	0.07012991190525295 	101296.3152192246
-0.7845345345345348 	299.9806363467588 	0.05598469104692327 	101302.1089652666
-0.7820320320320323 	299.9858549792114 	0.04088859199228499 	101308.2774127689
-0.7795295295295296 	299.9912942826194 	0.02513006374865722 	101314.7071433867
-0.7770270270270272 	299.9968421857367 	0.009055118115742293 	101321.2654290024
-0.7745245245245247 	300.0024238807328 	0.009577716360823336 	101327.8641045041
-0.7720220220220222 	300.0079779161348 	0.02313133456374312 	101334.4303847285
-0.7695195195195199 	300.0134161470855 	0.03884506977638901 	101340.8599318656
-0.767017017017017 	300.0186481469303 	0.05394491879285053 	101347.0460625092
-0.7645145145145147 	300.0235717842113 	0.06816675181532489 	101352.8677521989
-0.7620120120120122 	300.0280793060072 	0.0811819971493887 	101358.1977523894
-0.7595095095095097 	300.0320862268749 	0.09278510690300835 	101362.9359994556
-0.7570070070070072 	300.0355097468458 	0.1026791597988672 	101366.9843937666
-0.7545045045045048 	300.0382805262589 	0.1106977365377892 	101370.2610974
-0.7520020020020022 	300.0403512030387 	0.1166851329338811 	101372.7098619983
-0.7494994994994997 	300.0416753536921 	0.1204689804296278 	101374.275900615
-0.7469969969969972 	300.0422209996801 	0.1220712104514685 	101374.9212987752
-0.7444944944944945 	300.0419938167806 	0.1213772374409652 	101374.6525702789
-0.7419919919919924 	300.0409870082524 	0.1184423063632812 	101373.4620620116
-0.7394894894894897 	300.0392080805265 	0.1133250400722791 	101371.3583978817
-0.7369869869869872 	300.0366879327268 	0.1060055183033721 	101368.3782292248
-0.7344844844844846 	300.0334679998077 	0.09671586557255366 	101364.5706709489
-0.7319819819819822 	300.0296052689461 	0.08556779405786445 	101360.0029721787
-0.7294794794794797 	300.0251995623666 	0.07281733267874595 	101354.7934509184
-0.7269769769769773 	300.0203226506729 	0.05874508727095875 	101349.0269242779
-0.7244744744744747 	300.0150696964775 	0.04353790603705811 	101342.8160164139
-0.721971971971972 	300.009552178777 	0.02759940373170836 	101336.2926898933
-0.7194694694694695 	300.0038899376609 	0.01118703772464402 	101329.5984196161
-0.7169669669669674 	299.9981688372214 	0.009073228053428018 	101322.8349120603
-0.7144644644644647 	299.9924684326236 	0.02181905398190981 	101316.0961941491
-0.711961961961962 	299.9868784349384 	0.03794603759748503 	101309.4882659502
-0.7094594594594597 	299.9815280738512 	0.05339794068081843 	101303.1640117887
-0.7069569569569573 	299.9765213505732 	0.06791916083924895 	101297.2460733838
-0.7044544544544545 	299.9719525077322 	0.08114681988665789 	101291.8459075653
-0.7019519519519523 	299.9679077642062 	0.09278244992607744 	101287.065400418
-0.6994494494494495 	299.9644762795348 	0.1027101672526169 	101283.0097757292
-0.6969469469469471 	299.961709433866 	0.110686969212566 	101279.7398576568
-0.6944444444444446 	299.9596691678446 	0.1166222929940277 	101277.3285556238
-0.6919419419419421 	299.9583782331223 	0.1203603216342302 	101275.8027570929
-0.6894394394394396 	299.95785807881 	0.121795182683496 	101275.1880413952
-0.6869369369369374 	299.9581180423893 	0.1210273312219601 	101275.4951811814
-0.6844344344344344 	299.9591617906204 	0.1180378615584392 	101276.7286697298
-0.6819319319319321 	299.9609476462284 	0.1129000852476566 	101278.8391213334
-0.6794294294294296 	299.9634558659301 	0.1056698551774847 	101281.8032577026
-0.6769269269269272 	299.9666303691034 	0.0964351119952977 	101285.5549885984
-0.6744244244244245 	299.9704237543912 	0.08545527633652666 	101290.0382248468
-0.6719219219219222 	299.9747614591978 	0.07292123617070026 	101295.1650777295
-0.6694194194194195 	299.9795589057694 	0.05910327507702275 	101300.8354690678
-0.6669169169169172 	299.9846885332203 	0.04425407222057963 	101306.898678634
-0.6644144144144146 	299.9900656483069 	0.02867079599294627 	101313.2547998423
-0.661911911911912 	299.995563493907 	0.01276971526798306 	101319.7538785552
-0.6594094094094097 	300.0011009535453 	0.007747671204608075 	101326.3001998703
-0.656906906906907 	300.006631062871 	0.01923579853370991 	101332.8380808626
-0.6544044044044046 	300.0120832232649 	0.03498931847084608 	101339.2840353865
-0.6519019019019021 	300.0173649774616 	0.05023278377787299 	101345.5289004727
-0.6493993993993996 	300.0223622411909 	0.0646640033232677 	101351.437610222
-0.6468968968968971 	300.0269630263788 	0.07797585533649268 	101356.8778498202
-0.6443943943943946 	300.0310843757293 	0.08990937717688798 	101361.7513385078
-0.6418918918918921 	300.0346391573186 	0.1001902361226818 	101365.9549223966
-0.6393893893893897 	300.0375665854654 	0.1086561427176429 	101369.4168318736
-0.6368868868868871 	300.0398151982172 	0.1151357977149658 	101372.0760281187
-0.6343843843843846 	300.0413324374945 	0.1194888336171336 	101373.870421371
-0.6318818818818821 	300.0420832584908 	0.121680795325764 	101374.7584514744
-0.6293793793793795 	300.0420673310247 	0.121571790314876 	101374.739545282
-0.6268768768768773 	300.0412586135346 	0.1192165189639492 	101373.7832551393
-0.6243743743743745 	300.0396680378205 	0.1146374913127653 	101371.9020782844
-0.6218718718718721 	300.037318742562 	0.1078258279114824 	101369.1239798387
-0.6193693693693696 	300.0342534807457 	0.09900783405182978 	101365.4994969611
-0.6168668668668671 	300.0305328347747 	0.08826428751390905 	101361.0998380867
-0.6143643643643645 	300.0262573273407 	0.075871403953471 	101356.0442289424
-0.6118618618618621 	300.0214782527216 	0.06209784600729357 	101350.3933426202
-0.6093593593593596 	300.0163057841729 	0.04711968440798349 	101344.2775634763
-0.6068568568568571 	300.0108425498517 	0.03133541426176349 	101337.8183436397
-0.6043543543543546 	300.0052081961896 	0.01499338714427986 	101331.1569466582
-0.6018518518518521 	299.9994981635651 	0.0068584970111981 	101324.4064679252
-0.5993493493493496 	299.9937845068256 	0.01802776428940213 	101317.6519973185
-0.5968468468468471 	299.9881508479581 	0.03426133691768669 	101310.9924230556
-0.5943443443443446 	299.9827394081593 	0.0498877143926209 	101304.5959001709
-0.591841841841842 	299.9776531081312 	0.06465908794949977 	101298.5838017588
-0.5893393393393397 	299.972986733665 	0.07815838944768946 	101293.0683493201
-0.5868368368368371 	299.9688310659469 	0.09010298630144968 	101288.1566671983
-0.5843343343343346 	299.9652745238129 	0.100394517727599 	101283.95325044
-0.5818318318318321 	299.9623656370698 	0.1087755581638946 	101280.5154521974
-0.5793293293293297 	299.9601746728587 	0.1151938863805151 	101277.9260022908
-0.5768268268268271 	299.9587138351933 	0.1194261118232031 	101276.199441796
-0.5743243243243245 	299.9580112867895 	0.1213482841356392 	101275.3691218179
-0.5718218218218221 	299.9580925754684 	0.1210931383989895 	101275.4651543229
-0.5693193193193196 	299.9589676828055 	0.1185863441210885 	101276.4993543289
-0.5668168168168171 	299.9605886194621 	0.1139407490913077 	101278.4148474021
-0.5643143143143147 	299.9629421872137 	0.1071656809169104 	101281.1962434051
-0.5618118118118121 	299.9659594018181 	0.09835059779214168 	101284.7620300801
-0.5593093093093094 	299.9695990980104 	0.08781365136886893 	101289.0636386376
-0.5568068068068072 	299.9737972810993 	0.07570382990936736 	101294.0255541428
-0.5543043043043046 	299.9784703014683 	0.06229360089077784 	101299.548776431
-0.551801801801802 	299.9834925223672 	0.04773043696013543 	101305.4850100403
-0.5492992992992995 	299.9888024612152 	0.03230959744527154 	101311.761623645
-0.5467967967967969 	299.9942599376764 	0.01653253039741612 	101318.2129545812
-0.5442942942942947 	299.9997666635944 	0.005095621498147002 	101324.7228719298
-0.5417917917917919 	300.0052818033776 	0.01535956894598293 	101331.242937699
-0.5392892892892895 	300.0107482681831 	0.03114177956107682 	101337.7057608352
-0.536786786786787 	300.0160674925283 	0.04649194245220713 	101343.9948268975
-0.5342842842842846 	300.0211221420234 	0.06107704423637837 	101349.9713780325
-0.531781781781782 	300.0258048578976 	0.07462807023450253 	101355.5084233986
-0.5292792792792794 	300.0300348300119 	0.08686500857411716 	101360.5102730836
-0.526776776776777 	300.0337216227983 	0.09753927294286643 	101364.8699451369
-0.5242742742742745 	300.0368082206274 	0.1064799731769755 	101368.5200267361
-0.521771771771772 	300.0392344957179 	0.1134662697390263 	101371.3893540557
-0.5192692692692695 	300.0409426987155 	0.1183906840766648 	101373.4095499057
-0.516766766766767 	300.0418957012225 	0.1211545142144166 	101374.536668252
-0.5142642642642645 	300.0420860148391 	0.1216293584180889 	101374.7616919338
-0.511761761761762 	300.0414749368446 	0.119862372121101 	101374.0390752616
-0.5092592592592596 	300.0400766672229 	0.115808095030957 	101372.3856449758
-0.506756756756757 	300.0379042482211 	0.1095123691301231 	101369.8166825569
-0.5042542542542544 	300.0349991850335 	0.1011659385876846 	101366.3814198167
-0.5017517517517521 	300.0314254854177 	0.09084845838337377 	101362.1554204238
-0.4992492492492494 	300.0272823361611 	0.0788495060182919 	101357.2562801441
-0.496746746746747 	300.0226076158536 	0.06538584464457256 	101351.7287637832
-0.4942442442442445 	300.0175270209226 	0.05065644313549228 	101345.7215389239
-0.4917417417417421 	300.0121245603829 	0.03503544726171708 	101339.3341225301
-0.4892392392392395 	300.0065180290021 	0.0187755877879666 	101332.7055171259
-0.486736736736737 	300.0008164923224 	0.003809844144828004 	101325.9650226508
-0.4842342342342345 	299.995088752491 	0.01426085802815691 	101319.1938398941
-0.481731731731732 	299.9894226669025 	0.03058803701001403 	101312.4958550432
-0.4792292292292296 	299.9839609669611 	0.04637000938012513 	101306.0398810563
-0.4767267267267268 	299.9788019335865 	0.06134782239784598 	101299.9417197552
-0.4742242242242246 	299.9740417372163 	0.07509306520825143 	101294.3153366806
-0.471721721721722 	299.9697783727226 	0.08735650491786442 	101289.2763353804
-0.4692192192192195 	299.9660929177006 	0.09802328475296379 	101284.9205297121
-0.4667167167167169 	299.9630429710322 	0.1068278177825991 	101281.3160207816
-0.4642142142142145 	299.9606952486366 	0.1137165419978098 	101278.5412655763
-0.461711711711712 	299.959064100431 	0.118421086731644 	101276.6134579523
-0.4592092092092094 	299.9581863544174 	0.1208427661892212 	101275.5760589894
-0.456706706706707 	299.9580985300407 	0.1210995936515821 	101275.4722504753
-0.4542042042042045 	299.9587972379074 	0.1190814034975651 	101276.2980014292
-0.451701701701702 	299.9602535010973 	0.1149132928199669 	101278.0188459498
-0.4491991991991995 	299.9624523796581 	0.1085702002800052 	101280.6174320838
-0.4466966966966969 	299.9653285513503 	0.1001677618883259 	101284.016519514
-0.4441941941941945 	299.9688328907037 	0.09004203047441696 	101288.1581308494
-0.441691691691692 	299.9729044507359 	0.07832643137411795 	101292.9703556889
-0.4391891891891895 	299.9774430633666 	0.06528239300507802 	101298.3346405271
-0.436686686686687 	299.9823593721915 	0.05101896631939812 	101304.1456547655
-0.4341841841841846 	299.9875869686909 	0.03583709383977652 	101310.3248580681
-0.431681681681682 	299.9929975366448 	0.0202021330529982 	101316.7206954909
-0.4291791791791794 	299.9984755580365 	0.004348791620624518 	101323.1965861289
-0.426676676676677 	300.0039685758495 	0.01210694696421852 	101329.6904101447
-0.4241741741741744 	300.0094338523526 	0.02732768078596639 	101336.1517899283
-0.421671671671672 	300.0147744609717 	0.04273310411785054 	101342.4660403143
-0.4191691691691694 	300.0198769427115 	0.05746040004665018 	101348.4991088516
-0.4166666666666669 	300.0246396049125 	0.07123034930254532 	101354.1306045276
-0.4141641641641645 	300.0289763242292 	0.08377360632162151 	101359.2586162326
-0.411661661661662 	300.0327915436377 	0.09483006571192973 	101363.7701548284
-0.4091591591591594 	300.0360274450878 	0.1042070585014538 	101367.5967271287
-0.406656656656657 	300.0386172239624 	0.1116787440333882 	101370.6594261173
-0.4041541541541545 	300.0405033917388 	0.1171231486834581 	101372.8900503131
-0.401651651651652 	300.0416500124422 	0.1204316410598662 	101374.2461231492
-0.3991491491491494 	300.0420397897471 	0.1214764450799869 	101374.707099007
-0.396646646646647 	300.0416294550919 	0.120290806033442 	101374.2217929169
-0.3941441441441444 	300.0404335320761 	0.1168011067122546 	101372.8077023339
-0.3916416416416419 	300.0384532950826 	0.1110563178172657 	101370.4659998053
-0.3891391391391395 	300.0357262723178 	0.1032346408931626 	101367.2412346351
-0.3866366366366368 	300.0323147434267 	0.09339047218458711 	101363.2070265565
-0.3841341341341344 	300.0283079231094 	0.08181741952729762 	101358.469004177
-0.381631631631632 	300.0237416640944 	0.06868263564213541 	101353.0697343618
-0.3791291291291294 	300.0187514286118 	0.05419778930500377 	101347.1692877027
-0.3766266266266269 	300.0134084746942 	0.03874216964064718 	101340.8521301098
-0.3741241241241244 	300.0078328077034 	0.02257073119291118 	101334.2599934437
-0.371621621621622 	300.0021446985503 	0.006089134064790102 	101327.5352409443
-0.3691191191191194 	299.9964135425149 	0.01153097833202262 	101320.7600005935
-0.366616616616617 	299.9907304048058 	0.02685109253249561 	101314.0417831825
-0.3641141141141143 	299.9852221300417 	0.04277370897101167 	101307.5306523009
-0.3616116116116119 	299.9799888486647 	0.05792597193969173 	101301.344701546
-0.3591091091091095 	299.9751315332267 	0.07191201330351378 	101295.6034354238
-0.356606606606607 	299.9707561664176 	0.08451642250015284 	101290.4320547601
-0.3541041041041044 	299.9669381045844 	0.09554929215842861 	101285.9194951089
-0.3516016016016019 	299.9637498532353 	0.104791893441034 	101282.1514810635
-0.3490990990990994 	299.9612457149147 	0.1121362122661218 	101279.1918740261
-0.346596596596597 	299.9594490147057 	0.1173130664480768 	101277.0684249675
-0.3440940940940944 	299.958401838008 	0.1202508864334288 	101275.83075107
-0.3415915915915919 	299.9581483760252 	0.1210065532609038 	101275.5312330881
-0.3390890890890895 	299.9586715147853 	0.1194712642629312 	101276.1494766595
-0.3365865865865869 	299.9599623477699 	0.1157697723761144 	101277.6748197227
-0.3340840840840844 	299.9619941330833 	0.1098675108546551 	101280.0759354247
-0.3315815815815819 	299.9647167796536 	0.1018979087312922 	101283.2935418629
-0.3290790790790794 	299.9680812085113 	0.09219385167738489 	101287.2698116943
-0.3265765765765769 	299.9720299430994 	0.08086791289034781 	101291.9368105681
-0.3240740740740744 	299.976439879691 	0.06817979695033961 	101297.1489590563
-0.3215715715715718 	299.9812564068599 	0.05423086033444514 	101302.842003452
-0.3190690690690695 	299.9863972902347 	0.03930603647985635 	101308.9186115742
-0.3165665665665668 	299.9917545692647 	0.0238374501689859 	101315.2514303744
-0.3140640640640644 	299.9971978255096 	0.008076972915068207 	101321.6861322609
-0.311561561561562 	300.0026586999078 	0.009284109688813675 	101328.141869838
-0.3090590590590593 	300.008111162114 	0.02353329177630549 	101334.5880614703
-0.3065565565565568 	300.0134640349545 	0.03899654374539969 	101340.9166983799
-0.3040540540540545 	300.0186090248285 	0.05385004557383233 	101347.0000057576
-0.3015515515515518 	300.0234484135304 	0.06781582727056927 	101352.7221372939
-0.2990490490490494 	300.0278904896959 	0.08063765693034118 	101357.974661634
-0.2965465465465469 	300.0318363227661 	0.09205816878497713 	101362.6406451837
-0.2940440440440444 	300.0352260974896 	0.101863767978236 	101366.6491051112
-0.2915415415415418 	300.0379829444311 	0.1098184676826239 	101369.9094012013
-0.2890390390390395 	300.0400458696396 	0.1157874285219906 	101372.3490109588