-1.25 	300 	0.0451050264670234 	101343.4062276343
-1.247497497497497 	300.010037637145 	0.04371488027509603 	101342.7752992924
-1.244994994994995 	300.0142659353613 	0.04186227109038882 	101342.1394378697
-1.242492492492492 	300.0139569157721 	0.04049562809892163 	101341.5004195395
-1.23998998998999 	300.0134145823517 	0.03882806904701341 	101340.8579883708
-1.237487487487487 	300.0128685513464 	0.03727427008324941 	101340.2135662626
-1.234984984984985 	300.0123208468926 	0.03569202907543499 	101339.5660226891
-1.232482482482482 	300.0117700236956 	0.03409518402296335 	101338.9147903373
-1.22997997997998 	300.0112189496111 	0.03249798989663794 	101338.2632620813
-1.227477477477477 	300.0106634894912 	0.03088990616466144 	101337.6065500517
-1.224974974974975 	300.0101053523047 	0.02927438641222889 	101336.9466834842
-1.222472472472472 	300.0095498093216 	0.02766300690688425 	101336.2898796889
-1.21996996996997 	300.0089931570388 	0.02604840959705642 	101335.6317620696
-1.217467467467467 	300.0084289415694 	0.02441654160417098 	101334.9647151392
-1.214964964964965 	300.0078607085973 	0.02277160919448119 	101334.2929248969
-1.212462462462462 	300.0072949077547 	0.02113150212018734 	101333.6240076295
-1.20995995995996 	300.00673064498 	0.01949690678358737 	101332.9569114354
-1.207457457457457 	300.0061670449116 	0.01786572456862476 	101332.2906044218
-1.204954954954955 	300.0056050568933 	0.01623768120107742 	101331.6262031781
-1.202452452452452 	300.0050399940781 	0.01459727099257856 	101330.9581664079
-1.19994994994995 	300.0044657872518 	0.01293321148608844 	101330.2793242601
-1.197447447447447 	300.0038845728267 	0.01125185912095597 	101329.5922069305
-1.194944944944945 	300.0033044433721 	0.009573798645481104 	101328.906379631
-1.192442442442442 	300.0027303574208 	0.007911665741659926 	101328.2276967342
-1.18993993993994 	300.0021610169213 	0.006259913942419426 	101327.5546236591
-1.187437437437437 	300.0015925589272 	0.004611581462297431 	101326.8825959747
-1.184934934934935 	300.0010224358713 	0.002960129720723828 	101326.2086008954
-1.182432432432432 	300.0004502283904 	0.001303438829338496 	101325.5321445747
-1.17992992992993 	299.999876672398 	0.0008475626129856439 	101324.8541000993
-1.177427427427427 	299.9993026220233 	0.002020004269341968 	101324.1754783201
-1.174924924924925 	299.9987286212637 	0.003683537834143372 	101323.4969169949
-1.172422422422422 	299.998154913959 	0.005346123358374838 	101322.8187018102
-1.16991991991992 	299.9975815931954 	0.007007071478543175 	101322.1409468079
-1.167417417417417 	299.9970087186151 	0.008666378652927634 	101321.4637267396
-1.164914914914915 	299.9964363582199 	0.01032461420266421 	101320.7871227334
-1.162412412412412 	299.995864594957 	0.0119809498782213 	101320.1112279114
-1.15990990990991 	299.9952935310912 	0.01363508276139083 	101319.4361574109
-1.157407407407407 	299.9947232916266 	0.01528646144879931 	101318.7620583203
-1.154904904904904 	299.9941540166818 	0.01693514388117812 	101318.0891008309
-1.152402402402403 	299.9935858453479 	0.01858104551885 	101317.4174554636
-1.1498998998999 	299.9930189020578 	0.0202235525666105 	101316.7472713332
-1.147397397397397 	299.9924532859135 	0.02186249016518303 	101316.0786632985
-1.144894894894895 	299.9918890737848 	0.02349708756770372 	101315.4117171137
-1.142392392392392 	299.9913263359613 	0.0251275516069253 	101314.7465108517
-1.13988988988989 	299.990765147328 	0.02675321023256693 	101314.0831321867
-1.137387387387387 	299.990205594498 	0.02837378879137129 	101313.4216849969
-1.134884884884885 	299.9896477855153 	0.02998924009882926 	101312.7623003154
-1.132382382382382 	299.9890918583399 	0.03159910172183895 	101312.1051433823
-1.12987987987988 	299.9885379612795 	0.03320441962272577 	101311.450390337
-1.127377377377377 	299.9879862210997 	0.03480288178481843 	101310.7981927127
-1.124874874874875 	299.987436737268 	0.03639431705159241 	101310.1486676803
-1.122372372372372 	299.9868895889489 	0.03798026460968234 	101309.5019088561
-1.11986986986987 	299.9863448457928 	0.03955869082459989 	101308.8579979114
-1.117367367367367 	299.9858025785638 	0.04113000758760907 	101308.2170167617
-1.114864864864865 	299.9852628674557 	0.04269227973524672 	101307.5790610595
-1.112362362362362 	299.9847258144006 	0.04424660276364049 	101306.9442505785
-1.10985985985986 	299.9841915444575 	0.04579556065370433 	101306.3127337202
-1.107357357357357 	299.9836601975062 	0.04733525812744536 	101305.6846749224
-1.104854854854855 	299.9831319021766 	0.0488659865691156 	101305.0602249992
-1.102352352352353 	299.9826067601618 	0.05038647663690175 	101304.4395055335
-1.09984984984985 	299.9820848540555 	0.05189752139041014 	101303.822613266
-1.097347347347347 	299.9815662515589 	0.05340156918187851 	101303.2096289084
-1.094844844844845 	299.9810510204193 	0.0548947638721405 	101302.6006324675
-1.092342342342342 	299.9805392383324 	0.05637730126453371 	101301.9957147129
-1.08983983983984 	299.9800309928906 	0.0578487418547929 	101301.3949800373
-1.087337337337337 	299.979526388498 	0.0593098883788352 	101300.7985517608
-1.084834834834835 	299.979025542126 	0.06076198644112434 	101300.2065683952
-1.082332332332332 	299.9785285708675 	0.06220179450214121 	101299.6191670979
-1.07982982982983 	299.9780355816995 	0.06362981545548202 	101299.0364743281
-1.077327327327327 	299.9775466701967 	0.06504614875488131 	101298.4586041689
-1.074824824824825 	299.9770619223649 	0.06644948158384564 	101297.88565769
-1.072322322322323 	299.9765814174013 	0.06784135017558424 	101297.3177287468
-1.06981981981982 	299.9761052306016 	0.0692218303022029 	101296.7549056187
-1.067317317317317 	299.9756334322817 	0.07058904683196664 	101296.1972713103
-1.064814814814815 	299.9751660982556 	0.07194264572544931 	101295.6449159684
-1.062312312312312 	299.9747033160875 	0.07328215360007212 	101295.0979427804
-1.05980980980981 	299.9742451784152 	0.07460881891896132 	101294.5564613768
-1.057307307307307 	299.9737917806694 	0.07592350182978459 	101294.020584018
-1.054804804804805 	299.9733432170311 	0.07722377292866658 	101293.490421968
-1.052302302302302 	299.9728995785142 	0.07850884226477869 	101292.9660830607
-1.0497997997998 	299.9724609524878 	0.07977894774401578 	101292.4476704546
-1.047297297297297 	299.972027417404 	0.08103456482762438 	101291.9352769127
-1.044794794794795 	299.9715990431261 	0.08227615770520251 	101291.428984245
-1.042292292292292 	299.9711758969174 	0.08350249103863927 	101290.9288727146
-1.03978978978979 	299.9707580532053 	0.0847127299524886 	101290.435030476
-1.037287287287287 	299.9703455958107 	0.08590736762021611 	101289.9475553361
-1.034784784784785 	299.969938608925 	0.08708633710729706 	101289.4665470805
-1.032282282282283 	299.9695371686253 	0.08824958901955611 	101288.9920960352
-1.02977977977978 	299.96914134015 	0.08939670831238691 	101288.5242799377
-1.027277277277277 	299.9687511877448 	0.09052681437637786 	101288.0631736903
-1.024774774774775 	299.9683667822036 	0.09164030411726498 	101287.60885951
-1.022272272272272 	299.9679881982501 	0.09273653812599195 	101287.161427547
-1.01976976976977 	299.9676155134455 	0.09381589091834955 	101286.7209703512
-1.017267267267267 	299.9672488049613 	0.09487850414472235 	101286.2875778189
-1.014764764764765 	299.9668881464436 	0.09592326950862143 	101285.8613344455
-1.012262262262262 	299.9665336029125 	0.09695096279405796 	101285.4423181171
-1.00975975975976 	299.9661852319698 	0.09795957351059198 	101285.0306013369
-1.007257257257257 	299.9658430942116 	0.09895023292003305 	101284.6262542605
-1.004754754754755 	299.9655072578742 	0.09992373865147117 	101284.2293537642
-1.002252252252252 	299.9651777961362 	0.1008780011427344 	101283.8399838381
-0.9997497497497498 	299.9648547677978 	0.1018146102574849 	101283.4582174349
-0.9972472472472473 	299.9645382112279 	0.1027305854185136 	101283.0841069507
-0.9947447447447449 	299.9642281646232 	0.1036276246838141 	101282.7176953672
-0.9922422422422421 	299.9639246831894 	0.1045081198139568 	101282.3590399283
-0.9897397397397399 	299.9636278466481 	0.1053682938729861 	101282.0082293566
-0.9872372372372376 	299.9633377362949 	0.1062090718925972 	101281.6653651799
-0.9847347347347346 	299.9630544091235 	0.1070287160006714 	101281.3305271187
-0.9822322322322323 	299.9627779115749 	0.1078288444445634 	101281.0037723455
-0.9797297297297296 	299.9625082966649 	0.1086114567768001 	101280.6851537844
-0.9772272272272275 	299.9622456192464 	0.1093727701379936 	101280.3747222164
-0.9747247247247248 	299.9619899168484 	0.1101134984523788 	101280.0725207308
-0.9722222222222224 	299.9617412093297 	0.1108335314070008 	101279.7785866978
-0.9697197197197196 	299.9614995245762 	0.1115332482324033 	101279.4929665392
-0.9672172172172175 	299.9612649214544 	0.1122134467648163 	101279.2157323051
-0.9647147147147147 	299.9610374768222 	0.1128727254202837 	101278.9469616174
-0.9622122122122124 	299.9608172421881 	0.1135111094461103 	101278.6866986595
-0.9597097097097099 	299.9606042393974 	0.1141280835325507 	101278.4349630662
-0.9572072072072073 	299.9603984887069 	0.114724064406834 	101278.1917876772
-0.9547047047047047 	299.9602000207225 	0.1152990710857956 	101277.9572266459
-0.9522022022022023 	299.9600088767044 	0.1158523009909536 	101277.7313425243
-0.9496996996996998 	299.9598251066393 	0.1163843636039093 	101277.5141930435
-0.9471971971971973 	299.9596487601778 	0.1168950491279141 	101277.3058223857
-0.9446946946946947 	299.9594798861606 	0.1173837644658003 	101277.106269547
-0.9421921921921923 	299.9593185291583 	0.1178512979713427 	101276.9155756658
-0.93968968968969 	299.9591647097965 	0.1182979894830946 	101276.7337693263
-0.9371871871871872 	299.959018421885 	0.1187225527134667 	101276.5608590963
-0.9346846846846848 	299.9588796573653 	0.1191246642559113 	101276.3968518249
-0.9321821821821823 	299.95874842474 	0.1195036593592607 	101276.2417673899
-0.9296796796796799 	299.9586247466667 	0.1198609423483348 	101276.0956340752
-0.9271771771771771 	299.9585086568326 	0.1201979603966648 	101275.9584841806
-0.9246746746746748 	299.9584002018174 	0.1205124648614156 	101275.8303596572
-0.9221721721721724 	299.9582994373726 	0.1208040364257123 	101275.7113123414
-0.9196696696696698 	299.9582064196601 	0.1210727601138713 	101275.601397506
-0.9171671671671672 	299.9581211925101 	0.1213192888995711 	101275.5006643668
-0.9146646646646649 	299.9580437607136 	0.1215448236860689 	101275.4091225275
-0.9121621621621623 	299.9579740834491 	0.1217477611451924 	101275.3267312163
-0.9096596596596597 	299.9579121280109 	0.1219273096463989 	101275.2534591775
-0.9071571571571573 	299.9578578921415 	0.1220843642033582 	101275.1893096757
-0.9046546546546547 	299.9578113651279 	0.122218586864125 	101275.1342741699
-0.9021521521521524 	299.9577725495893 	0.1223308933480836 	101275.0883582154
-0.8996496496496498 	299.9577415025291 	0.1224212491027436 	101275.051630872
-0.8971471471471473 	299.9577182856593 	0.1224884139908284 	101275.0241645775
-0.894644644644645 	299.9577029192907 	0.1225333833340911 	101275.0059828811
-0.892142142142142 	299.9576954023864 	0.1225542647265459 	101274.9970863393
-0.8896396396396397 	299.9576957208403 	0.1225530513609271 	101274.9974538132
-0.8871371371371374 	299.9577038245164 	0.1225306478286835 	101275.0070249331
-0.8846346346346349 	299.9577196658198 	0.1224846466024369 	101275.0257410539
-0.8821321321321324 	299.9577432414715 	0.1224168853614747 	101275.0535979556
-0.8796296296296297 	299.9577745748232 	0.122324658334383 	101275.090625669
-0.8771271271271271 	299.957813671338 	0.1222104685679574 	101275.136831094
-0.8746246246246248 	299.957860535425 	0.1220760144315592 	101275.1922181857
-0.8721221221221224 	299.9579152123011 	0.1219178386310054 	101275.2568379771
-0.8696196196196196 	299.9579777283657 	0.1217374673145832 	101275.3307191117
-0.8671171171171175 	299.9580480247268 	0.1215331025647262 	101275.4137924984
-0.8646146146146148 	299.958126031835 	0.1213066494953187 	101275.5059779929
-0.8621121121121121 	299.958211738914 	0.1210595424951843 	101275.6072650542
-0.8596096096096097 	299.9583051315329 	0.1207889704690417 	101275.7176368331
-0.857107107107107 	299.9584061536557 	0.1204961285696445 	101275.837027687
-0.8546046046046049 	299.9585147818774 	0.1201807568297337 	101275.965408406
-0.8521021021021022 	299.9586310577981 	0.1198435285959725 	101276.1028251883
-0.8495995995995997 	299.9587550075775 	0.1194849331917436 	101276.2493081885
-0.8470970970970974 	299.9588865839003 	0.1191040117102619 	101276.4048008121
-0.8445945945945946 	299.9590257345343 	0.1187011946873795 	101276.569243386
-0.8420920920920922 	299.9591724629056 	0.1182759957010655 	101276.7426430238
-0.8395895895895897 	299.9593267603726 	0.1178289290770929 	101276.9249908981
-0.8370870870870872 	299.9594885380202 	0.1173604123317254 	101277.1161817956
-0.8345845845845846 	299.9596577037712 	0.1168702442448852 	101277.316105811
-0.8320820820820823 	299.9598342471786 	0.1163587489795745 	101277.5247497629
-0.8295795795795798 	299.9600181926546 	0.1158255801333425 	101277.7421403033
-0.8270770770770772 	299.9602095092343 	0.1152712287628162 	101277.9682391712
-0.8245745745745746 	299.9604081321682 	0.1146958875452633 	101278.2029701757
-0.8220720720720721 	299.9606140379866 	0.1140994775782529 	101278.4463063864
-0.8195695695695699 	299.9608272439305 	0.1134820581942785 	101278.6982703307
-0.817067067067067 	299.9610477249918 	0.1128433393358321 	101278.9588331676
-0.8145645645645651 	299.9612753885074 	0.1121833958745778 	101279.2278855839
-0.8120620620620621 	299.9615101364701 	0.1115029862097767 	101279.5053123859
-0.8095595595595597 	299.9617519311516 	0.1108028267144676 	101279.7910698048
-0.8070570570570572 	299.9620007701644 	0.1100821893483741 	101280.0851551037
-0.8045545545545546 	299.9622566376806 	0.1093409580821007 	101280.3875484284
-0.8020520520520523 	299.9625194615165 	0.1085786013883775 	101280.6981633112
-0.7995495495495494 	299.9627891445858 	0.107796677719087 	101281.0168841444
-0.7970470470470474 	299.9630656353023 	0.1069968703511707 	101281.3436481516
-0.7945445445445446 	299.9633489493256 	0.1061768170043921 	101281.678475274
-0.7920420420420423 	299.9636390804267 	0.1053361650226203 	101282.0213598518
-0.7895395395395397 	299.9639359232889 	0.1044755483551152 	101282.3721775619
-0.7870370370370371 	299.9642393099215 	0.103595842466052 	101282.7307301042
-0.7845345345345348 	299.9645491632334 	0.1026988201063339 	101283.0969264185
-0.7820320320320323 	299.9648655651656 	0.1017829732081505 	101283.4708633998
-0.7795295295295296 	299.9651886049461 	0.1008470876867566 	101283.852646225
-0.7770270270270272 	299.965518158753 	0.09989274250728046 	101284.2421284773
-0.7745245245245247 	299.9658539276944 	0.09891901530115682 	101284.6389566328
-0.7720220220220222 	299.9661957231539 	0.097928463798323 	101285.0429082406
-0.7695195195195199 	299.9665436688062 	0.0969214317907688 	101285.4541303681
-0.767017017017017 	299.9668980251344 	0.09589469397997348 	101285.8729301204
-0.7645145145145147 	299.9672587672488 	0.09485006878358132 	101286.2992780669
-0.7620120120120122 	299.9676254604075 	0.09378633040781699 	101286.7326608815
-0.7595095095095097 	299.9679976742696 	0.09270741760291837 	101287.17256929
-0.7570070070070072 	299.9683754486992 	0.09161375182514642 	101287.6190517724
-0.7545045045045048 	299.9687592197406 	0.09050165156516098 	101288.0726227312
-0.7520020020020022 	299.9691492806788 	0.08937276424054792 	101288.5336288705
-0.7494994994994997 	299.9695453212206 	0.08822475843767111 	101289.0017028339
-0.7469969969969972 	299.96994662558 	0.08706175227230564 	101289.475998999
-0.7444944944944945 	299.9703528066214 	0.08588594135807251 	101289.9560618485
-0.7419919919919924 	299.9707641889446 	0.08469387038679238 	101290.4422740615
-0.7394894894894897 	299.9711813937473 	0.0834852326103693 	101290.9353698259
-0.7369869869869872 	299.9716046546577 	0.0822587251230535 	101291.4356242145
-0.7344844844844846 	299.9720334284864 	0.08101673399261299 	101291.9423949525
-0.7319819819819822 	299.9724667822077 	0.07976189889776028 	101292.4545805551
-0.7294794794794797 	299.9729042572039 	0.07849442153011829 	101292.9716395207
-0.7269769769769773 	299.9733462489617 	0.07721377494416107 	101293.4940396462
-0.7244744744744747 	299.9737936106737 	0.07591711125926175 	101294.0227893899
-0.721971971971972 	299.9742468635736 	0.07460379068912813 	101294.5585033371
-0.7194694694694695 	299.9747056182372 	0.07327509765925549 	101295.1007208966
-0.7169669669669674 	299.9751687907893 	0.07193353746732029 	101295.6481610906
-0.7144644644644647 	299.9756354329119 	0.07058193207066271 	101296.1997039801
-0.711961961961962 	299.9761054174156 	0.069220129967015 	101296.7552012598
-0.7094594594594597 	299.976579506691 	0.0678465737023819 	101297.3155545201
-0.7069569569569573 	299.977058776932 	0.06645834016416863 	101297.8820339574
-0.7044544544544545 	299.9775436652895 	0.06505403383289317 	101298.4551537906
-0.7019519519519523 	299.9780335596514 	0.06363538174902542 	101299.0341907346
-0.6994494494494495 	299.9785271885824 	0.06220535178157853 	101299.6176435606
-0.6969469469469471 	299.979023444514 	0.06076734317801438 	101300.2042048494
-0.6944444444444446 	299.9795220529761 	0.05932207743147781 	101300.7935517662
-0.6919419419419421 	299.9800237752816 	0.05786797725756387 	101301.3865822935
-0.6894394394394396 	299.980529776779 	0.05640196926027506 	101301.984673493
-0.6869369369369374 	299.9810408475593 	0.05492150845056853 	101302.5887580604
-0.6844344344344344 	299.9815569263497 	0.05342675377832122 	101303.1987624853
-0.6819319319319321 	299.9820770360537 	0.05192054969334639 	101303.813532499
-0.6794294294294296 	299.9825998454525 	0.05040709688097254 	101304.4314959613
-0.6769269269269272 	299.9831243661167 	0.04888815790463812 	101305.0514868185
-0.6744244244244245 	299.9836503662015 	0.04736406471007339 	101305.6732317223
-0.6719219219219222 	299.9841783908686 	0.0458326896346927 	101306.2973748458
-0.6694194194194195 	299.9847094320189 	0.04429268282292001 	101306.9250841422
-0.6669169169169172 	299.9852443901896 	0.04274360540073645 	101307.5574234685
-0.6644144144144146 	299.9857836394523 	0.04118219404810765 	101308.1948376136
-0.661911911911912 	299.9863268725784 	0.03960848603341004 	101308.8369617542
-0.6594094094094097 	299.9868732346554 	0.03802600859510254 	101309.4827873172
-0.656906906906907 	299.9874216646498 	0.03643696097777924 	101310.13106267
-0.6544044044044046 	299.9879713033582 	0.03484534224127615 	101310.7807701741
-0.6519019019019021 	299.988521697469 	0.03325190293595547 	101311.4313754772
-0.6493993993993996 	299.989072943526 	0.03165447646038014 	101312.0829925009
-0.6468968968968971 	299.9896254596815 	0.03005367967809686 	101312.7361126707
-0.6443943943943946 	299.9901798194998 	0.02844566443867003 	101313.3914146612
-0.6418918918918921 	299.9907365273392 	0.02683233767005979 	101314.0494934005
-0.6393893893893897 	299.9912959187249 	0.02521360832740387 	101314.7107449161
-0.6368868868868871 	299.9918579856899 	0.02358569152683087 	101315.3751603031
-0.6343843843843846 	299.9924224665929 	0.02195126326643765 	101316.0424314486
-0.6318818818818821 	299.9929889054627 	0.02030907002562302 	101316.7120197392
-0.6293793793793795 	299.9935568263789 	0.01866358083384947 	101317.383363652
-0.6268768768768773 	299.9941257819488 	0.01701606812480597 	101318.0559409833
-0.6243743743743745 	299.9946954829934 	0.01536532285551844 	101318.7293781355
-0.6218718718718721 	299.9952656487851 	0.01371430743870243 	101319.4033814353
-0.6193693693693696 	299.9958361160263 	0.01206119593003376 	101320.0777852863
-0.6168668668668671 	299.9964069203952 	0.01040761510634279 	101320.7525682877
-0.6143643643643645 	299.9969780379632 	0.008753821766278317 	101321.4277177159
-0.6118618618618621 	299.9975494652999 	0.007098646573009224 	101322.1032366152
-0.6093593593593596 	299.9981211895314 	0.005442748480469577 	101322.779107664
-0.6068568568568571 	299.9986931299999 	0.003785606984762852 	101323.455235342
-0.6043543543543546 	299.9992652002585 	0.002128211913080573 	101324.1315167607
-0.6018518518518521 	299.9998373794634 	0.0004707298157774786 	101324.8079282067
-0.5993493493493496 	300.0004096319624 	0.001221732649109531 	101325.4844304019
-0.5968468468468471 	300.0009819305621 	0.002845015992145733 	101326.1609934167
-0.5943443443443446 	300.001554192325 	0.004503025688392577 	101326.8375185185
-0.591841841841842 	300.0021263098004 	0.0061603673653923 	101327.5138782844
-0.5893393393393397 	300.00269816861 	0.007816770871829245 	101328.1899375868
-0.5868368368368371 	300.0032696462327 	0.009472014866325585 	101328.8655501285
-0.5843343343343346 	300.0038406079721 	0.01112571560149766 	101329.5405562562
-0.5818318318318321 	300.0044109118129 	0.01277790323000224 	101330.2147866913
-0.5793293293293297 	300.004980416552 	0.01442782078135548 	101330.8880737765
-0.5768268268268271 	300.0055489926857 	0.01607508808318054 	101331.5602646584
-0.5743243243243245 	300.0061165280285 	0.01771911561710829 	101332.2312270354
-0.5718218218218221 	300.0066829252381 	0.01935973014865896 	101332.900846077
-0.5693193193193196 	300.0072480955766 	0.02099702711036764 	101333.5690169421
-0.5668168168168171 	300.0078119492975 	0.02263052430909822 	101334.2356345646
-0.5643143143143147 	300.0083743891967 	0.02425992944945642 	101334.9005838803
-0.5618118118118121 	300.0089353073322 	0.02588442273956014 	101335.5637363893
-0.5593093093093094 	300.0094945853077 	0.0275041657539278 	101336.2249549609
-0.5568068068068072 	300.0100521096239 	0.02911926198367305 	101336.8841041365
-0.5543043043043046 	300.0106077751528 	0.03072947049890725 	101337.5410589435
-0.551801801801802 	300.0111614849766 	0.03233407271546961 	101338.1957048017
-0.5492992992992995 	300.0117131467114 	0.03393156636489457 	101338.8479312947
-0.5467967967967969 	300.0122626647805 	0.03552282163602016 	101339.4976264896
-0.5442942942942947 	300.0128099396631 	0.03710803129156245 	101340.144672462
-0.5417917917917919 	300.0133548644967 	0.03868764738826189 	101340.7889433684
-0.5392892892892895 	300.0138973304211 	0.04026029915071679 	101341.4303099338
-0.536786786786787 	300.014437232567 	0.0418230401348653 	101342.0686468589
-0.5342842842842846 	300.0149744695976 	0.04337820540903164 	101342.703836683
-0.531781781781782 	300.0155089492122 	0.0449269883529767 	101343.3357686526
-0.5292792792792794 	300.0160405788027 	0.04646702927309414 	101343.9643336156
-0.526776776776777 	300.0165692632745 	0.04800004268910467 	101344.5894196799
-0.5242742742742745 	300.0170949068967 	0.0495225763150786 	101345.2109120487
-0.521771771771772 	300.0176174106444 	0.05103407519209322 	101345.8286952944
-0.5192692692692695 	300.0181366792569 	0.05253821353383541 	101346.4426564075
-0.516766766766767 	300.0186526202074 	0.05403248146733075 	101347.0526849588
-0.5142642642642645 	300.0191651378194 	0.05551909222174056 	101347.6586694689
-0.511761761761762 	300.0196741382846 	0.05699385978123599 	101348.2604966707
-0.5092592592592596 	300.0201795239149 	0.05845620608849045 	101348.8580531521
-0.506756756756757 	300.020681199291 	0.05990953565090889 	101349.4512250363
-0.5042542542542544 	300.0211790681436 	0.06135147585650312 	101350.0398979186
-0.5017517517517521 	300.0216730346241 	0.06278313877524964 	101350.623959601
-0.4992492492492494 	300.0221630107709 	0.06420251692409286 	101351.2033049759
-0.496746746746747 	300.0226489122804 	0.06560964507958963 	101351.7778358338
-0.4942442442442445 	300.0231306588983 	0.06700528955108465 	101352.3474561455
-0.4917417417417421 	300.0236081701199 	0.06838831392846079 	101352.9120699362
-0.4892392392392395 	300.0240813644527 	0.0697595497930244 	101353.4715816314
-0.486736736736737 	300.0245501590053 	0.07111759815198007 	101354.0258929882
-0.4842342342342345 	300.0250144632573 	0.07246229363664158 	101354.5748979817
-0.481731731731732 	300.0254741845526 	0.07379386575837403 	101355.1184853024
-0.4792292292292296 	300.025929231735 	0.07511169527970973 	101355.6565476973
-0.4767267267267268 	300.0263795195249 	0.07641612521087567 	101356.1889845594
-0.4742242242242246 	300.0268249635392 	0.07770629871770666 	101356.7156952022
-0.471721721721722 	300.0272654726874 	0.07898220258252343 	101357.2365740557
-0.4692192192192195 	300.0277009589411 	0.08024378086920528 	101357.7515152741
-0.4667167167167169 	300.0281313392293 	0.08149062947374357 	101358.2604202871
-0.4642142142142145 	300.0285565393861 	0.08272285096114193 	101358.7632004734
-0.461711711711712 	300.0289764913646 	0.08393962720623613 	101359.259776669
-0.4592092092092094 	300.0293911334676 	0.08514084341952849 	101359.7500771151
-0.456706706706707 	300.029800406912 	0.08632618765928952 	101360.2340316093
-0.4542042042042045 	300.0302042470104 	0.08749556424408807 	101360.7115633067
-0.451701701701702 	300.0306025821002 	0.08864922606963963 	101361.182584906
-0.4491991991991995 	300.0309953275375 	0.08978664713374396 	101361.6469976871
-0.4466966966966969 	300.0313823860035 	0.09090779821362124 	101362.1046880993
-0.4441941941941945 	300.031763651252 	0.09201206554829172 	101362.5555306425
-0.441691691691692 	300.0321390250368 	0.09309942863928443 	101362.9994092463
-0.4391891891891895 	300.0325084441237 	0.09417002026407524 	101363.4362463375
-0.436686686686687 	300.0328718797831 	0.09522330878310359 	101363.8660071399
-0.4341841841841846 	300.0332293117885 	0.09625918177497415 	101364.2886693744
-0.431681681681682 	300.0335807020137 	0.09727668650280379 	101364.7041895916
-0.4291791791791794 	300.0339259896595 	0.09827622606818714 	101365.1124978506
-0.426676676676677 	300.0342651045998 	0.09925819153287088 	101365.5135082829
-0.4241741741741744 	300.0345979611176 	0.1002224666093442 	101365.9071170225
-0.421671671671672 	300.0349244529111 	0.1011687007530174 	101366.2931971064
-0.4191691691691694 	300.0352444690897 	0.1020950558286942 	101366.6716192524
-0.4166666666666669 	300.0355579285124 	0.1030025764663936 	101367.0422918542
-0.4141641641641645 	300.0358647997398 	0.1038917675304765 	101367.4051787227
-0.411661661661662 	300.0361650818405 	0.1047627148819526 	101367.7602754802
-0.4091591591591594 	300.03645876751 	0.1056153875599626 	101368.1075706583
-0.406656656656657 	300.0367458270948 	0.1064457300693869 	101368.4470257183
-0.4041541541541545 	300.0370262037059 	0.1072559612865883 	101368.7785762592
-0.401651651651652 	300.0372998211873 	0.1080485787027273 	101369.1021374563
-0.3991491491491494 	300.037566590591 	0.1088211880204405 	101369.4176056861
-0.396646646646647 	300.0378264176917 	0.1095759945699355 	101369.7248700774
-0.3941441441441444 	300.0380792345841 	0.1103085419492421 	101370.0238419417
-0.3916416416416419 	300.0383250065918 	0.1110187523559823 	101370.3144786917
-0.3891391391391395 	300.0385637283717 	0.111710525276664 	101370.5967728233
-0.3866366366366368 	300.0387953902977 	0.1123814376356052 	101370.8707185153
-0.3841341341341344 	300.0390199661541 	0.1130328923516138 	101371.1362908064
-0.381631631631632 	300.0392374185998 	0.1136623834261103 	101371.3934467378
-0.3791291291291294 	300.0394477047288 	0.1142707581796441 	101371.6421313027
-0.3766266266266269 	300.039650776024 	0.1148589960129521 	101371.8822801066
-0.3741241241241244 	300.0398465731371 	0.1154255532748335 	101372.1138187803
-0.371621621621622 	300.0400350286855 	0.115972080637782 	101372.3366701957
-0.3691191191191194 	300.0402160859675 	0.1164966777295523 	101372.5507726118
-0.366616616616617 	300.040389707252 	0.1169995402419456 	101372.7560897344
-0.3641141141141143 	300.0405558762088 	0.1174810651570457 	101372.9526035114
-0.3616116116116119 	300.0407145886336 	0.1179406373425185 	101373.1403038682
-0.3591091091091095 	300.0408658427027 	0.1183790040453193 	101373.3191805989
-0.356606606606607 	300.0410096296067 	0.1187952365220762 	101373.489216594
-0.3541041041041044 	300.0411459263692 	0.1191896465477155 	101373.6503851429
-0.3516016016016019 	300.0412746958669 	0.1195624212932151 	101373.8026491393
-0.3490990990990994 	300.0413958896094 	0.1199132699817876 	101373.9459616421
-0.346596596596597 	300.0415094578759 	0.1202425614800672 	101374.0802690743
-0.3440940940940944 	300.0416153571028 	0.1205495017179606 	101374.2055172415
-0.3415915915915919 	300.0417135614031 	0.1208342011833135 	101374.3216671049
-0.3390890890890895 	300.0418040767722 	0.1210964987316312 	101374.4287146979
-0.3365865865865869 	300.0418869298397 	0.1213363387021875 	101374.5266869598
-0.3340840840840844 	300.0419621350156 	0.1215541574795803 	101374.6156044379
-0.3315815815815819 	300.0420296636516 	0.1217494795470087 	101374.6954419237
-0.3290790790790794 	300.0420894507398 	0.1219225385284377 	101374.7661339257
-0.3265765765765769 	300.0421414491319 	0.1220730094258811 	101374.8276301026
-0.3240740740740744 	300.0421856663139 	0.1222010413702754 	101374.8799374101
-0.3215715715715718 	300.0422221427712 	0.1223070438877646 	101374.9230947383
-0.3190690690690695 	300.0422508924384 	0.1223905191856314 	101374.9571068823
-0.3165665665665668 	300.0422718790846 	0.1224515624079051 	101374.981921921
-0.3140640640640644 	300.0422850587632 	0.1224894480075327 	101374.9974876727
-0.311561561561562 	300.0422904375508 	0.1225045847313589 	101375.0038204277
-0.3090590590590593 	300.0422880705577 	0.1224976776721052 	101375.0009951871
-0.3065565565565568 	300.0422779795848 	0.1224685033885172 	101374.9890510959
-0.3040540540540545 	300.0422601133938 	0.1224172259608821 	101374.9679302573
-0.3015515515515518 	300.0422343892262 	0.1223424584622236 	101374.9375299376
-0.2990490490490494 	300.0422007937891 	0.1222447470756035 	101374.8978268696
-0.2965465465465469 	300.0421594287571 	0.1221250101258904 	101374.8489285129
-0.2940440440440444 	300.0421104183499 	0.1219833647485487 	101374.7909734605
-0.2915415415415418 	300.042053781385 	0.1218202447251354 	101374.7239810152
-0.2890390390390395 	300.0419894060186 	0.1216330022608244 	101374.647820828