-1.25 	300 	0.1183475969765473 	101277.4471741852
-1.247497497497497 	299.9566033840307 	0.1190844641621691 	101275.3271495865
-1.244994994994995 	299.9574493495961 	0.1224873116494307 	101274.7013741437
-1.242492492492492 	299.9575730986046 	0.1234206198813513 	101274.8472654431
-1.23998998998999 	299.9584044591112 	0.1200526968611677 	101275.8342233553
-1.237487487487487 	299.9601235885802 	0.1152881688241335 	101277.8656471236
-1.234984984984985 	299.9626095456375 	0.10807944156907 	101280.8035484746
-1.232482482482482 	299.9657829148073 	0.09889958222837197 	101284.5538819356
-1.22997997997998 	299.9696196121661 	0.08784884868587778 	101289.0882731572
-1.227477477477477 	299.9739747274301 	0.07523431048584157 	101294.2355951423
-1.224974974974975 	299.9787447514769 	0.0614197980156915 	101299.8735246002
-1.222472472472472 	299.9838825705909 	0.04655752159301813 	101305.946456571
-1.21996996996997 	299.9893246183349 	0.03083338219699858 	101312.3792958821
-1.217467467467467 	299.9949478594078 	0.01455241027021819 	101319.0265961921
-1.214964964964965 	300.0006409927234 	0.008323110486221304 	101325.7568545865
-1.212462462462462 	300.0063630726987 	0.01846955758179259 	101332.5216445714
-1.20995995995996 	300.0120030156237 	0.03470436151668688 	101339.1896807217
-1.207457457457457 	300.0174056377 	0.05033014275857517 	101345.5774484641
-1.204954954954955 	300.0225084390562 	0.06510731162252636 	101351.6109691671
-1.202452452452452 	300.0272349794965 	0.07877384105543954 	101357.1998472048
-1.19994994994995 	300.0314473620039 	0.09091360591416225 	101362.1809838557
-1.197447447447447 	300.0350416718968 	0.1012965305042348 	101366.4313837588
-1.194944944944945 	300.0379757677206 	0.1098054302974981 	101369.9011729071
-1.192442442442442 	300.0402173707935 	0.1162969970901531 	101372.5521369747
-1.18993993993994 	300.0417400573843 	0.1206926969328989 	101374.3529092049
-1.187437437437437 	300.0425251255116 	0.1229101860288051 	101375.281408977
-1.184934934934935 	300.0425259453456 	0.1228591482932696 	101375.2823873553
-1.182432432432432 	300.0416992242406 	0.1204649504503175 	101374.3047750357
-1.17992992992993 	300.0400585842526 	0.1157320232536402 	101372.3647220397
-1.177427427427427 	300.0376644934912 	0.1088293913802214 	101369.5335900833
-1.174924924924925 	300.0345867750652 	0.09993982326394631 	101365.8941041938
-1.172422422422422 	300.0308851206646 	0.08923962679034862 	101361.5168853081
-1.16991991991992 	300.0266262411634 	0.07694669568362431 	101356.4809165453
-1.167417417417417 	300.0218884099161 	0.0632573411239272 	101350.8788250612
-1.164914914914915 	300.0167569380051 	0.04840429256099475 	101344.8114673009
-1.162412412412412 	300.0113200767551 	0.03266543792791358 	101338.3833273408
-1.15990990990991 	300.0056990956265 	0.01639288553949829 	101331.7377796592
-1.157407407407407 	300.0000043194898 	0.008210957107044463 	101325.0053107999
-1.154904904904904 	299.9942982595587 	0.01659426884792714 	101318.2598372081
-1.152402402402403 	299.9886552996443 	0.03289435468254288 	101311.5892104379
-1.1498998998999 	299.9831779736194 	0.04867244635262519 	101305.1147011128
-1.147397397397397 	299.9779914531417 	0.06362586032881354 	101298.9841946322
-1.144894894894895 	299.9732284968209 	0.07739001464602585 	101293.3545754186
-1.142392392392392 	299.9689897141187 	0.0896708773898628 	101288.3447039202
-1.13988988988989 	299.9653438710557 	0.1002317958450233 	101284.0357200749
-1.137387387387387 	299.962335737833 	0.1089355065882872 	101280.4805477093
-1.134884884884885 	299.9600035636029 	0.1156841226344841 	101277.724283409
-1.132382382382382 	299.9583961490252 	0.1203274943096741 	101275.8245362537
-1.12987987987988 	299.9575569362277 	0.1227637609893545 	101274.8327107632
-1.127377377377377 	299.9575073664838 	0.1228609764590666 	101274.7740832118
-1.124874874874875 	299.9582699858383 	0.1205985147261794 	101275.6752697825
-1.122372372372372 	299.9598342510749 	0.1160830756636476 	101277.5238062613
-1.11986986986987 	299.9621460252616 	0.1094050778201181 	101280.2558279782
-1.117367367367367 	299.9651452086293 	0.1007506054543555 	101283.8003127313
-1.114864864864865 	299.9687741938366 	0.09027190977951027 	101288.0892059188
-1.112362362362362 	299.9729592929065 	0.07814592550197007 	101293.0355499238
-1.10985985985986 	299.9776412135963 	0.06463251039094832 	101298.5692741018
-1.107357357357357 	299.9827316519195 	0.04994744219395309 	101304.5861426805
-1.104854854854855 	299.9881119018169 	0.03438956774662363 	101310.9458490417
-1.102352352352353 	299.9936699596406 	0.01827512952103254 	101317.5160097279
-1.09984984984985 	299.999315258461 	0.007869327103272029 	101324.1896522497
-1.097347347347347 	300.0049915397116 	0.01451605225862537 	101330.9002069613
-1.094844844844845 	300.0106314337689 	0.03076734771339327 	101337.5681118605
-1.092342342342342 	300.0161019352244 	0.04656786894832143 	101344.0360581126
-1.08983983983984 	300.0212763509102 	0.06154496969381573 	101350.1541861706
-1.087337337337337 	300.0260510105469 	0.07535262204718257 	101355.7999276041
-1.084834834834835 	300.0303365890364 	0.08770491794757185 	101360.8675339949
-1.082332332332332 	300.0340642788605 	0.09847200248711316 	101365.2756294901
-1.07982982982983 	300.0371888169456 	0.1075183228657222 	101368.9706120369
-1.077327327327327 	300.0396486912344 	0.1146492141857361 	101371.8796460761
-1.074824824824825 	300.0413870499694 	0.119675610663442 	101373.9354951412
-1.072322322322323 	300.0423508677518 	0.1224122810749434 	101375.0753802497
-1.06981981981982 	300.0425019680403 	0.1228170533488388 	101375.2540865413
-1.067317317317317 	300.041842791838 	0.1209325252550555 	101374.4746206376
-1.064814814814815 	300.040410629477 	0.1167926324329319 	101372.7810698934
-1.062312312312312 	300.0382361713363 	0.1105109086582009 	101370.2096847653
-1.05980980980981 	300.0353603746607 	0.1021789275648387 	101366.80896208
-1.057307307307307 	300.0318260016149 	0.09194383491189496 	101362.6295287749
-1.054804804804805 	300.0276903126802 	0.08002246545121509 	101357.7392005373
-1.052302302302302 	300.0230399528085 	0.06659592695512445 	101352.2404664765
-1.0497997997998 	300.0179783751003 	0.05195607573007038 	101346.2557071296
-1.047297297297297 	300.0125989510032 	0.0363931244521876 	101339.8954100203
-1.044794794794795 	300.0070081582841 	0.02020661181241009 	101333.2854840258
-1.042292292292292 	300.0013041999438 	0.007425034092708425 	101326.5420952885
-1.03978978978979 	299.9955689213575 	0.01287891073585839 	101319.7619857792
-1.037287287287287 	299.9898959229137 	0.02927714970632376 	101313.0557999089
-1.034784784784785 	299.9843978606457 	0.04513637297277197 	101306.5567071061
-1.032282282282283 	299.9791905979375 	0.06018923934482551 	101300.4016177424
-1.02977977977978 	299.9743712244963 	0.07412466945334806 	101294.705276057
-1.027277277277277 	299.9700110777881 	0.08673166210410183 	101289.5518892869
-1.024774774774775 	299.966193126928 	0.09776336047174093 	101285.0394851608
-1.022272272272272 	299.9629959299473 	0.1069962611050637 	101281.2608347423
-1.01976976976977 	299.9604886467502 	0.1142421967813195 	101278.29760216
-1.017267267267267 	299.9587326789008 	0.1192998412133645 	101276.2223041406
-1.014764764764765 	299.9577631189601 	0.1221169615272795 	101275.0764016154
-1.012262262262262 	299.9575757713448 	0.1226336422245592 	101274.854966909
-1.00975975975976 	299.958174731608 	0.1208822465567885 	101275.5627595425
-1.007257257257257 	299.9595458301531 	0.1169275246390238 	101277.1830095734
-1.004754754754755 	299.961664710922 	0.1107787083690328 	101279.687061615
-1.002252252252252 	299.9644963108001 	0.1025967203915341 	101283.0334565229
-0.9997497497497498 	299.9679870935085 	0.09253281217842364 	101287.1590006106
-0.9972472472472473 	299.9720453881966 	0.08078804372929742 	101291.9554400008
-0.9947447447447449 	299.9766083189775 	0.0676195808190892 	101297.348491285
-0.9922422422422421 	299.9815873667494 	0.05322135477462893 	101303.2336283335
-0.9897397397397399 	299.9868914565702 	0.03786817380308601 	101309.5032314926
-0.9872372372372376 	299.9924162679021 	0.02189446773393252 	101316.0340434758
-0.9847347347347346 	299.9980485232384 	0.006644948844198131 	101322.6921823187
-0.9822322322322323 	300.0037106436637 	0.0107923007236353 	101329.3859467136
-0.9797297297297296 	300.0093223633314 	0.02698801471217037 	101336.0204525024
-0.9772272272272275 	300.0147734705888 	0.04275932095206429 	101342.4653819498
-0.9747247247247248 	300.0199645293827 	0.0577632229081427 	101348.6031435713
-0.9722222222222224 	300.0248080460869 	0.0717689079217097 	101354.3302174374
-0.9697197197197196 	300.0292184819888 	0.08450311761927677 	101359.5454296776
-0.9672172172172175 	300.0331105498445 	0.09572779941582639 	101364.1478548925
-0.9647147147147147 	300.0364052665495 	0.1052573562680239 	101368.0440320345
-0.9622122122122124 	300.0390310379163 	0.1128415102061503 	101371.1492598512
-0.9597097097097099 	300.0409355547708 	0.1183503696472157 	101373.4015833919
-0.9572072072072073 	300.0420768489621 	0.1216343142582172 	101374.7513602093
-0.9547047047047047 	300.0424277250665 	0.1226268278970079 	101375.1663430158
-0.9522022022022023 	300.0419802988145 	0.1213441009210095 	101374.6372385977
-0.9496996996996998 	300.0407471240692 	0.1177664545617535 	101373.1790237115
-0.9471971971971973 	300.0387574250743 	0.1120244085123161 	101370.8261391138
-0.9446946946946947 	300.0360567568804 	0.1042019491968078 	101367.63249492
-0.9421921921921923 	300.032689372316 	0.09444501576897352 	101363.6505190225
-0.93968968968969 	300.0287113557972 	0.08296525718196422 	101358.9465761934
-0.9371871871871872 	300.0241950043991 	0.06990036770008054 	101353.6062636868
-0.9346846846846848 	300.0192252027257 	0.05554322329245967 	101347.7299730219
-0.9321821821821823 	300.0138977338464 	0.04014510530379228 	101341.431030903
-0.9296796796796799 	300.0083268359486 	0.02402280632789336 	101334.8445739589
-0.9271771771771771 	300.0026242957613 	0.007553642207940294 	101328.1027621116
-0.9246746746746748 	299.9968920442211 	0.01009886919503999 	101321.3261632491
-0.9221721721721724 	299.9912144777974 	0.02545390376301726 	101314.6145182816
-0.9196696696696698 	299.985685278185 	0.04142305948445733 	101308.0785388953
-0.9171671671671672 	299.9804063818887 	0.0566966375414131 	101301.8387378333
-0.9146646646646649 	299.9754770195055 	0.07093448352121536 	101296.0123039113
-0.9121621621621623 	299.9709888990839 	0.08390589941493831 	101290.7076328324
-0.9096596596596597 	299.9670421087917 	0.09529873150419446 	101286.0429333902
-0.9071571571571573 	299.9637157548747 	0.1049085765198144 	101282.1115945817
-0.9046546546546547 	299.96107395467 	0.1125503386448491 	101278.9894013898
-0.9021521521521524 	299.9591668091865 	0.1180530037092932 	101276.7354215061
-0.8996496496496498 	299.9580247589873 	0.1213673810787836 	101275.3856532151
-0.8971471471471473 	299.9576572814011 	0.1224016022042327 	101274.951354501
-0.894644644644645 	299.9580801975944 	0.1211772542616575 	101275.4510901749
-0.892142142142142 	299.959279182467 	0.1177170282797469 	101276.8679619913
-0.8896396396396397 	299.9612293084713 	0.1120575044297367 	101279.172551824
-0.8871371371371374 	299.9638940043399 	0.1043547852532425 	101282.3216812559
-0.8846346346346349 	299.9672216092681 	0.09473679576725738 	101286.2543638113
-0.8821321321321324 	299.9711414916455 	0.08339018477098223 	101290.8871554055
-0.8796296296296297 	299.9755969623408 	0.07053528414513451 	101296.1531667185
-0.8771271271271271 	299.9804905374693 	0.05638870697020164 	101301.9372195836
-0.8746246246246248 	299.9857221056116 	0.0412563660851687 	101308.1210379567
-0.8721221221221224 	299.991182738971 	0.02547442407411085 	101314.5759292573
-0.8696196196196196 	299.9967565542412 	0.009337813508005421 	101321.1648934311
-0.8671171171171175 	300.0023654346237 	0.009446964860504182 	101327.7956529666
-0.8646146146146148 	300.0079464423209 	0.0230156833091546 	101334.3937788291
-0.8621121121121121 	300.0134109043097 	0.03883578850795821 	101340.8544155813
-0.8596096096096097 	300.0186616770497 	0.05400983007800368 	101347.0627071282
-0.857107107107107 	300.0235962103882 	0.06827110823780784 	101352.8973232858
-0.8546046046046049 	300.0281146384572 	0.0813044579173199 	101358.2401887646
-0.8521021021021022 	300.032130499187 	0.09289476198857163 	101362.9889645425
-0.8495995995995997 	300.0355680103683 	0.1028334931647529 	101367.0539673588
-0.8470970970970974 	300.0383598444745 	0.1108920479458424 	101370.355553004
-0.8445945945945946 	300.04044776674 	0.1169269120606818 	101372.8247379702
-0.8420920920920922 	300.041776682225 	0.1207508883029879 	101374.3964050761
-0.8395895895895897 	300.042314419812 	0.1223138136584812 	101375.0323892462
-0.8370870870870872 	300.0420606232237 	0.1215973731844175 	101374.7322606171
-0.8345845845845846 	300.0410303042559 	0.1186092973407391 	101373.5139274118
-0.8320820820820823 	300.0392467599155 	0.1134516325074479 	101371.4048217453
-0.8295795795795798 	300.0367382670673 	0.1061637854560745 	101368.4384417966
-0.8270770770770772 	300.0335343438913 	0.09688096678081262 	101364.6497388565
-0.8245745745745746 	300.029687175643 	0.08577131493635046 	101360.1005016408
-0.8220720720720721 	300.0252745480846 	0.07300841641821189 	101354.8827912614
-0.8195695695695699 	300.0203860527131 	0.05889469241610133 	101349.1025673716
-0.817067067067067 	300.0151256353221 	0.04370081737163932 	101342.8828580951
-0.8145645645645651 	300.0096070344242 	0.02774590700552467 	101336.3581584137
-0.8120620620620621 	300.003938443037 	0.01137549345195207 	101329.656422079
-0.8095595595595597 	299.9982203961337 	0.009097815013056116 	101322.8965431153
-0.8070570570570572 	299.9925261537614 	0.0216566989956064 	101316.165094428
-0.8045545545545546 	299.986950449753 	0.03776260881556921 	101309.5740955184
-0.8020520520520523 	299.9816043614596 	0.05323999376281058 	101303.2547954153
-0.7995495495495494 	299.9765889994675 	0.06773506840516344 	101297.3266746272
-0.7970470470470474 	299.9720004174368 	0.08099753392857018 	101291.9032123599
-0.7945445445445446 	299.9679350554142 	0.09272567281011569 	101287.0983176527
-0.7920420420420423 	299.9644717089258 	0.1027048771475535 	101283.0050694008
-0.7895395395395397 	299.9616810210621 	0.110765456301745 	101279.7068945032
-0.7870370370370371 	299.9596207832031 	0.116717197663171 	101277.2720033952
-0.7845345345345348 	299.9583204985639 	0.1204948692565401 	101275.7352115403
-0.7820320320320323 	299.9577919780569 	0.1220093007513558 	101275.1105748691
-0.7795295295295296 	299.9580424119754 	0.1212857217135839 	101275.406503631
-0.7770270270270272 	299.9590591644062 	0.1183575382164997 	101276.6079992664
-0.7745245245245247 	299.9608266365714 	0.1132345059606806 	101278.6967345027
-0.7720220220220222 	299.9633206981432 	0.106032363148482 	101281.6441950059
-0.7695195195195199 	299.9664911692462 	0.09684485849583593 	101285.3911240633
-0.767017017017017 	299.9702766011251 	0.0858704733036379 	101289.8650069929
-0.7645145145145147 	299.9746094990789 	0.0733549032131854 	101294.9860802565
-0.7620120120120122 	299.9793941904725 	0.05952905267719306 	101300.6413976204
-0.7595095095095097 	299.9845308386747 	0.04468553336681392 	101306.7129646211
-0.7570070070070072 	299.989917208515 	0.02912771998127375 	101313.0799768743
-0.7545045045045048 	299.9954387182416 	0.0131504282081725 	101319.6070718277
-0.7520020020020022 	300.0010135011267 	0.007967085248689056 	101326.197419628
-0.7494994994994997 	300.0065839384774 	0.01907309921883388 	101332.7829738493
-0.7469969969969972 	300.0120670694809 	0.03493629107546087 	101339.2656228492
-0.7444944944944945 	300.0173615832301 	0.05024156134543452 	101345.525532801
-0.7419919919919924 	300.0223634166492 	0.06471768795347818 	101351.4396982133
-0.7394894894894897 	300.0269747617168 	0.07805288959382356 	101356.8923458579
-0.7369869869869872 	300.0311142272466 	0.08999354089172515 	101361.7872349128
-0.7344844844844846 	300.0346945504481 	0.1003330199545233 	101366.0211101413
-0.7319819819819822 	300.0376413361637 	0.1088293080836877 	101369.5058761324
-0.7294794794794797 	300.0398946171236 	0.1153360942277412 	101372.1706349527
-0.7269769769769773 	300.0414085549029 	0.1196977325201637 	101373.9610721889
-0.7244744744744747 	300.0421530823526 	0.1218359458503991 	101374.8416184393
-0.721971971971972 	300.0421211721979 	0.1217447089794499 	101374.8039079441
-0.7194694694694695 	300.0413038804502 	0.1193808141614804 	101373.8374552893
-0.7169669669669674 	300.0397141363509 	0.1148131753865201 	101371.9575628475
-0.7144644644644647 	300.0373767230083 	0.1080556856579551 	101369.193470418
-0.711961961961962 	300.0343262930776 	0.09921069950613394 	101365.5862665223
-0.7094594594594597 	300.0306145554692 	0.08849037304094207 	101361.1971613689
-0.7069569569569573 	300.0263211844516 	0.07604998741853904 	101356.1204034083
-0.7044544544544545 	300.0215281899183 	0.06221157853739858 	101350.4530734695
-0.7019519519519523 	300.0163457354789 	0.0472316800392253 	101344.3254670868
-0.6994494494494495 	300.0108833672552 	0.03140980332479042 	101337.8671961678
-0.6969469469469471 	300.0052490279043 	0.01513787640752632 	101331.205891525
-0.6944444444444446 	299.9995437814012 	0.007263787654913684 	101324.4610570763
-0.6919419419419421 	299.9938355341658 	0.01784801285481008 	101317.7129980001
-0.6894394394394396 	299.9882216076034 	0.03403201417284422 	101311.0767245588
-0.6869369369369374 	299.9828152841602 	0.04970450826960184 	101304.686180118
-0.6844344344344344 	299.977714788731 	0.06444651333346765 	101298.6573721108
-0.6819319319319321 	299.9730235019096 	0.07802434025823735 	101293.1124671485
-0.6794294294294296 	299.9688425224795 	0.09009332039777705 	101288.170900012
-0.6769269269269272 	299.9652566044355 	0.1004328111913889 	101283.9327333411
-0.6744244244244245 	299.9623351563359 	0.1089135103435254 	101280.4800278761
-0.6719219219219222 	299.9601269465346 	0.1152921386418679 	101277.8702575401
-0.6694194194194195 	299.9586537058641 	0.1195419118573235 	101276.1290519805
-0.6669169169169172 	299.9579410877901 	0.1215534083308814 	101275.2868510333
-0.6644144144144146 	299.958006643436 	0.1213338673870193 	101275.3642638918
-0.661911911911912 	299.9588475058434 	0.1189413351859955 	101276.3579417319
-0.6594094094094097 	299.9604498541768 	0.1143007145443181 	101278.2515107681
-0.656906906906907 	299.9627886979582 	0.1075627855885506 	101281.0155111139
-0.6544044044044046 	299.9658127702469 	0.09879470085120991 	101284.5894254046
-0.6519019019019021 	299.9694706830678 	0.08820260286984845 	101288.9125228485
-0.6493993993993996 	299.9736858979566 	0.07607625913315093 	101293.8945132335
-0.6468968968968971 	299.9783607796451 	0.06254715560744359 	101299.4199699702
-0.6443943943943946 	299.9833986784056 	0.04796256787415502 	101305.3747487007
-0.6418918918918921 	299.9887070581411 	0.03260364247840144 	101311.6495419637
-0.6393893893893897 	299.9941713909722 	0.01676830168555814 	101318.1089334975
-0.6368868868868871 	299.9997072538384 	0.00566890775797131 	101324.6532407682
-0.6343843843843846 	300.0052471393936 	0.01523735610511682 	101331.2025896885
-0.6318818818818821 	300.0107315280963 	0.03109905777804175 	101337.6866290057
-0.6293793793793795 	300.0160653129568 	0.04648953786474387 	101343.992934341
-0.6268768768768773 	300.0211383520165 	0.06116246108990037 	101349.991182038
-0.6243743743743745 	300.025841202221 	0.07473101781140426 	101355.5521509947
-0.6218718718718721 	300.0300868485001 	0.08700196221246921 	101360.5726328748
-0.6193693693693696 	300.0337854107775 	0.09771478550942132 	101364.9460921205
-0.6168668668668671 	300.0368777998316 	0.1066432991746773 	101368.6029902398
-0.6143643643643645 	300.039303681253 	0.113660191236863 	101371.4718144533
-0.6118618618618621 	300.0410074663523 	0.1185542516565264 	101373.4867747371
-0.6093593593593596 	300.0419511074542 	0.1212864151557465 	101374.6028074406
-0.6068568568568571 	300.0421232027059 	0.1217603737910558 	101374.806340261
-0.6043543543543546 	300.041502846067 	0.1199487560369184 	101374.0727722153
-0.6018518518518521 	300.0401065633946 	0.1159234717690596 	101372.4216560586
-0.5993493493493496 	300.0379539197074 	0.1096733590466783 	101369.876075278
-0.5968468468468471 	300.0350787083891 	0.10137498577556 	101366.4760661856
-0.5943443443443446 	300.0315311400585 	0.09113125953413299 	101362.2810338055
-0.591841841841842 	300.0273835910944 	0.07911474153155851 	101357.3766885644
-0.5893393393393397 	300.0227029567031 	0.06562042860622971 	101351.8421558179
-0.5868368368368371 	300.0176052710331 	0.05087080961203053 	101345.8147251114
-0.5843343343343346 	300.012198255483 	0.03524216014583503 	101339.4218336934
-0.5818318318318321 	300.0065936259054 	0.01903451250993727 	101332.7955634781
-0.5793293293293297 	300.0008965438397 	0.004543902161671184 	101326.0603189263
-0.5768268268268271 	299.9951738378535 	0.01400892115301759 	101319.295085828
-0.5743243243243245 	299.9895160920734 	0.03034014244601152 	101312.6069539988
-0.5718218218218221 	299.9840484554577 	0.04614604271597226 	101306.1438583492
-0.5693193193193196 	299.9788777376481 	0.06110392514274431 	101300.0319820594
-0.5668168168168171 	299.9741023402103 	0.07491043718101115 	101294.3876183083
-0.5643143143143147 	299.9698138021659 	0.08727876856006983 	101289.3188770619
-0.5618118118118121 	299.9660927384048 	0.0980244784207782 	101284.9209818901
-0.5593093093093094 	299.9630124352538 	0.1069230217819967 	101281.2804943442
-0.5568068068068072 	299.9606387625428 	0.1138114959970594 	101278.4751758147
-0.5543043043043046 	299.9590032920996 	0.1185440854102084 	101276.5422548411
-0.551801801801802 	299.9581310237211 	0.1210253483080269 	101275.5113352979
-0.5492992992992995 	299.9580360450738 	0.1212969311017259 	101275.3990812731
-0.5467967967967969 	299.9587119900913 	0.1193449896421051 	101276.1978359627
-0.5442942942942947 	299.9601420573601 	0.1152128718940956 	101277.887812637
-0.5417917917917919 	299.9623069272024 	0.1089603433800667 	101280.446206577
-0.5392892892892895 	299.9651628305963 	0.100661950252867 	101283.821333468
-0.536786786786787 	299.9686652986168 	0.09053045333419207 	101287.9607316449
-0.5342842842842846 	299.9727470508885 	0.07876068348576674 	101292.7849084052
-0.531781781781782 	299.9773096913663 	0.06559166714083259 	101298.1776644541
-0.5292792792792794 	299.9822521825206 	0.05129523030233425 	101304.0196232068
-0.526776776776777 	299.9874813305164 	0.03615909701421392 	101310.2006648793
-0.5242742742742745 	299.992887495951 	0.02052356249263405 	101316.591271346
-0.521771771771772 	299.9983802494771 	0.004638294950087581 	101323.0845126328
-0.5192692692692695 	300.0038984070191 	0.0118877205083326 	101329.6081012593
-0.516766766766767 	300.0093900324669 	0.02721504416380913 	101336.1006356094
-0.5142642642642645 	300.0147581329547 	0.04272064869264047 	101342.4474097694
-0.511761761761762 	300.0198873176361 	0.05753743510754755 	101348.5120196453
-0.5092592592592596 	300.0246667483683 	0.07134141501228258 	101354.1633101404
-0.506756756756757 	300.0290008034913 	0.08387140031780145 	101359.2881962375
-0.5042542542542544 	300.0328142810303 	0.09490175674501213 	101363.7976926646
-0.5017517517517521 	300.0360518194429 	0.1042568157408334 	101367.6262338387
-0.4992492492492494 	300.0386567856153 	0.1117742193099552 	101370.7068487058
-0.496746746746747 	300.0405689495497 	0.1172865909827051 	101372.9682062013
-0.4942442442442445 	300.041735675784 	0.1206482046841047 	101374.3480479335
-0.4917417417417421 	300.0421157981719 	0.1217330061324119 	101374.7976400016
-0.4892392392392395 	300.0416878494275 	0.1204927385854075 	101374.2915471066
-0.486736736736737 	300.0404610083016 	0.1169397665558932 	101372.8408401222
-0.4842342342342345 	300.0384615898826 	0.1111504079273271 	101370.4764560313
-0.481731731731732 	300.0357318843669 	0.1032687252834396 	101367.2484847111
-0.4792292292292296 	300.0323308052212 	0.09343278736532419 	101363.2266780178
-0.4767267267267268 	300.0283203445622 	0.08183101831384207 	101358.4843864824
-0.4742242242242246 	300.0237695122058 	0.06867882774163765 	101353.1033038223
-0.471721721721722 	300.018768708874 	0.05421480237558873 	101347.1903766772
-0.4692192192192195 	300.0134191684528 	0.03876188370401011 	101340.8653650648
-0.4667167167167169 	300.0078392362986 	0.02263987970015331 	101334.2682468756
-0.4642142142142145 	300.0021534461486 	0.006189007366215979 	101327.5462692604
-0.461711711711712 	299.9964534038584 	0.01145023466197047 	101320.8077604378
-0.4592092092092094 	299.9908158616193 	0.02659673099685015 	101314.1434503899
-0.456706706706707 	299.9853232966868 	0.04247818252155375 	101307.6508096245
-0.4542042042042045 	299.9800645100713 	0.05767766470178841 	101301.4347872243
-0.451701701701702 	299.9751461527136 	0.07187801881731737 	101295.6213939303
-0.4491991991991995 	299.9706915357249 	0.08473310188815217 	101290.3563205305
-0.4466966966966969 	299.9668203939735 	0.09590872275057896 	101285.7810291418
-0.4441941941941945 	299.9636297878765 	0.1051264743270756 	101282.0101461337
-0.441691691691692 	299.9611760085844 	0.1122304288072023 	101279.110146578
-0.4391891891891895 	299.9594707444234 	0.1171716388433849 	101277.0947648308
-0.436686686686687 	299.9584962843511 	0.1199952867348259 	101275.9430403613
-0.4341841841841846 	299.9582275438567 	0.1207772692327812 	101275.625452065
-0.431681681681682 	299.9586503955259 	0.1195428476726781 	101276.1251154154
-0.4291791791791794 	299.9597781667762 	0.1162572037368053 	101277.4578330994
-0.426676676676677 	299.9616443672156 	0.1108319211416672 	101279.6632483822
-0.4241741741741744 	299.964274652156 	0.1032063226682215 	101282.7717061593
-0.421671671671672 	299.9676575033652 	0.09342156901384582 	101286.7696840578
-0.4191691691691694 	299.9717254029015 	0.08167948318414131 	101291.5774428281
-0.4166666666666669 	299.9763427756512 	0.06836257632031376 	101297.0348345731
-0.4141641641641645 	299.9813347020187 	0.0539564449224062 	101302.935191084
-0.411661661661662 	299.986525045952 	0.03897889550845501 	101309.0703354701
-0.4091591591591594 	299.9917687828898 	0.02382619102241432 	101315.2688834496
-0.406656656656657 	299.9969775308322 	0.00873339526194971 	101321.4263422282
-0.4041541541541545 	300.0021361018551 	0.008260648440201608 	101327.5247400209
-0.401651651651652 	300.0072810509355 	0.02114766980610519 	101333.6073065552
-0.3991491491491494 	300.0124444502748 	0.03610413359653442 	101339.7119309538
-0.396646646646647 	300.0176186870602 	0.05106800827169142 	101345.8296464938
-0.3941441441441444 	300.0227332257605 	0.06583366357012235 	101351.8770551832
-0.3916416416416419 	300.0276504116244 	0.08000708708670654 	101357.6913662916
-0.3891391391391395 	300.0321791922491 	0.09304295869929273 	101363.0466570303
-0.3866366366366368 	300.0361000931461 	0.1043160055621633 	101367.683312489
-0.3841341341341344 	300.0391967624741 	0.1132110284691306 	101371.3454174151
-0.381631631631632 	300.041288676137 	0.1192156805964303 	101373.8194084893
-0.3791291291291294 	300.0422591245016 	0.1219997332211034 	101374.9671564589
-0.3766266266266269 	300.0420737871195 	0.1214674847267389 	101374.7479649176
-0.3741241241241244 	300.0407866226888 	0.1177757119700305 	101373.2259274751
-0.371621621621622 	300.0385347074889 	0.111315507559595 	101370.5629839507
-0.3691191191191194 	300.0355192579538 	0.1026604938561346 	101366.997104691
-0.366616616616617 	300.0319790710179 	0.09249131513453432 	101362.8107789325
-0.3641141141141143 	300.0281607437831 	0.08151106323329244 	101358.2956636945
-0.3616116116116119 	300.0242904680439 	0.07036601631745065 	101353.7192493196
-0.3591091091091095 	300.020552670003 	0.05958641960420191 	101349.2996101189
-0.356606606606607 	300.0170803933588 	0.04955879601667219 	101345.1940412332
-0.3541041041041044 	300.0139573420409 	0.0405285977414901 	101341.5014844922
-0.3516016016016019 	300.0112252397823 	0.03261995438716218 	101338.271240887
-0.3490990990990994 	300.0088927638501 	0.02586109263685222 	101335.513540239
-0.346596596596597 	300.0069445341571 	0.02021015666117425 	101333.2101733502
-0.3440940940940944 	300.0053492859172 	0.01557877773611907 	101331.3241567902
-0.3415915915915919 	300.0040667347636 	0.01185193930021304 	101329.8078490598
-0.3390890890890895 	300.0030529435308 	0.008903560594782308 	101328.6092949816
-0.3365865865865869 	300.0022642190424 	0.006607854384646939 	101327.6768315879
-0.3340840840840844 	300.0016597017522 	0.004846912586231608 	101326.9621490544
-0.3315815815815819 	300.0012028814319 	0.003515178110781178 	101326.4220809984
-0.3290790790790794 	300.0008622872758 	0.002521519868133976 	101326.0194202626
-0.3265765765765769 	300.0006115902369 	0.001789590538613642 	101325.7230391906
-0.3240740740740744 	300.0004293200798 	0.001257053602435209 	101325.5075542488
-0.3215715715715718 	300.0002983573902 	0.0008741499901354048 	101325.3527265548
-0.3190690690690695 	300.0002053249978 	0.00060195631904711 	101325.2427412421
-0.3165665665665668 	300.0001399600724 	0.0004105804193461702 	101325.1654649195
-0.3140640640640644 	300.0000945200286 	0.0002774510622380062 	101325.1117444073
-0.311561561561562 	300.0000632549871 	0.0001857907669674316 	101325.0747821081
-0.3090590590590593 	300.0000419573663 	0.0001233106547711696 	101325.0496033211
-0.3065565565565568 	300.0000275896711 	8.113348645048009e-05 	101325.0326173823
-0.3040540540540545 	300.0000179882916 	5.293005567196318e-05 	101325.0212663225
-0.3015515515515518 	300.0000116309456 	3.424388293995988e-05 	101325.0137504249
-0.2990490490490494 	300.0000074590768 	2.197423096825681e-05 	101325.0088184446
-0.2965465465465469 	300.0000047455198 	1.398823657348171e-05 	101325.0056103275
-0.2940440440440444 	300.0000029954842 	8.834778013487152e-06 	101325.0035413571
-0.2915415415415418 	300.0000018762823 	5.536995703596298e-06 	101325.0022181885