/*--------------------------------*- C++ -*----------------------------------*\
  =========                 |
  \\      /  F ield         | OpenFOAM: The Open Source CFD Toolbox
   \\    /   O peration     | Website:  https://openfoam.org
    \\  /    A nd           | Version:  7
     \\/     M anipulation  |
\*---------------------------------------------------------------------------*/
FoamFile
{
    version     2.0;
    format      ascii;
    class       volScalarField;
    location    "0.00031";
    object      p;
}
// * * * * * * * * * * * * * * * * * * * * * * * * * * * * * * * * * * * * * //

dimensions      [1 -1 -2 0 0 0 0];

internalField   nonuniform List<scalar> 
5000
(
113663.43
113675.4
113687.65
113699.95
113712.25
113724.56
113736.85
113749.14
113761.43
113773.72
113786.01
113798.29
113810.58
113822.86
113835.14
113847.43
113859.71
113871.99
113884.28
113896.56
113908.84
113921.12
113933.4
113945.68
113957.96
113970.23
113982.51
113994.78
114007.05
114019.31
114031.58
114043.84
114056.1
114068.35
114080.61
114092.86
114105.1
114117.35
114129.59
114141.83
114154.07
114166.31
114178.54
114190.78
114203.01
114215.24
114227.46
114239.69
114251.91
114264.13
114276.35
114288.57
114300.78
114313
114325.21
114337.42
114349.63
114361.84
114374.04
114386.25
114398.45
114410.65
114422.85
114435.05
114447.25
114459.44
114471.63
114483.83
114496.02
114508.2
114520.39
114532.58
114544.76
114556.94
114569.12
114581.3
114593.48
114605.65
114617.83
114630
114642.17
114654.34
114666.51
114678.67
114690.84
114703
114715.16
114727.32
114739.48
114751.64
114763.79
114775.95
114788.1
114800.25
114812.4
114824.54
114836.69
114848.83
114860.98
114873.12
114885.26
114897.39
114909.53
114921.66
114933.8
114945.93
114958.06
114970.19
114982.31
114994.44
115006.56
115018.68
115030.8
115042.92
115055.04
115067.15
115079.27
115091.38
115103.49
115115.6
115127.71
115139.82
115151.92
115164.02
115176.13
115188.23
115200.32
115212.42
115224.52
115236.61
115248.7
115260.79
115272.88
115284.97
115297.06
115309.14
115321.22
115333.31
115345.38
115357.46
115369.54
115381.62
115393.69
115405.76
115417.83
115429.9
115441.97
115454.03
115466.1
115478.16
115490.22
115502.28
115514.34
115526.4
115538.45
115550.51
115562.56
115574.61
115586.66
115598.7
115610.75
115622.79
115634.84
115646.88
115658.92
115670.96
115682.99
115695.03
115707.06
115719.09
115731.12
115743.15
115755.18
115767.21
115779.23
115791.25
115803.27
115815.29
115827.31
115839.33
115851.34
115863.36
115875.37
115887.38
115899.39
115911.4
115923.4
115935.41
115947.41
115959.41
115971.41
115983.41
115995.41
116007.4
116019.4
116031.39
116043.38
116055.37
116067.35
116079.34
116091.33
116103.31
116115.29
116127.27
116139.25
116151.23
116163.2
116175.18
116187.15
116199.12
116211.09
116223.06
116235.02
116246.99
116258.95
116270.91
116282.87
116294.83
116306.79
116318.74
116330.7
116342.65
116354.6
116366.55
116378.5
116390.45
116402.39
116414.34
116426.28
116438.22
116450.16
116462.1
116474.03
116485.97
116497.9
116509.83
116521.76
116533.69
116545.62
116557.54
116569.47
116581.39
116593.31
116605.23
116617.15
116629.06
116640.98
116652.89
116664.8
116676.71
116688.62
116700.53
116712.44
116724.34
116736.24
116748.15
116760.05
116771.94
116783.84
116795.74
116807.63
116819.52
116831.41
116843.3
116855.19
116867.08
116878.96
116890.84
116902.73
116914.61
116926.48
116938.36
116950.24
116962.11
116973.98
116985.85
116997.72
117009.59
117021.46
117033.32
117045.19
117057.05
117068.91
117080.77
117092.63
117104.48
117116.34
117128.19
117140.04
117151.89
117163.74
117175.59
117187.43
117199.28
117211.12
117222.96
117234.8
117246.64
117258.47
117270.31
117282.14
117293.97
117305.8
117317.63
117329.46
117341.28
117353.11
117364.93
117376.75
117388.57
117400.39
117412.2
117424.02
117435.83
117447.64
117459.45
117471.26
117483.07
117494.88
117506.68
117518.48
117530.28
117542.08
117553.88
117565.68
117577.47
117589.27
117601.06
117612.85
117624.64
117636.43
117648.21
117660
117671.78
117683.56
117695.34
117707.12
117718.9
117730.67
117742.44
117754.22
117765.99
117777.76
117789.52
117801.29
117813.05
117824.82
117836.58
117848.34
117860.09
117871.85
117883.61
117895.36
117907.11
117918.86
117930.61
117942.36
117954.1
117965.85
117977.59
117989.33
118001.07
118012.81
118024.55
118036.28
118048.01
118059.75
118071.48
118083.21
118094.93
118106.66
118118.38
118130.11
118141.83
118153.55
118165.27
118176.98
118188.7
118200.41
118212.12
118223.83
118235.54
118247.25
118258.96
118270.66
118282.36
118294.06
118305.77
118317.46
118329.16
118340.86
118352.55
118364.24
118375.94
118387.63
118399.31
118411
118422.69
118434.37
118446.05
118457.74
118469.42
118481.09
118492.77
118504.45
118516.12
118527.8
118539.47
118551.14
118562.81
118574.48
118586.14
118597.81
118609.47
118621.14
118632.8
118644.46
118656.12
118667.78
118679.43
118691.09
118702.74
118714.4
118726.05
118737.7
118749.34
118760.99
118772.64
118784.28
118795.92
118807.56
118819.2
118830.83
118842.47
118854.1
118865.73
118877.35
118888.97
118900.59
118912.21
118923.82
118935.43
118947.04
118958.64
118970.24
118981.83
118993.41
119004.99
119016.57
119028.14
119039.7
119051.25
119062.79
119074.33
119085.85
119097.37
119108.87
119120.37
119131.85
119143.31
119154.76
119166.2
119177.62
119189.02
119200.41
119211.77
119223.12
119234.44
119245.74
119257.01
119268.26
119279.48
119290.67
119301.83
119312.95
119324.05
119335.1
119346.12
119357.1
119368.04
119378.94
119389.79
119400.59
119411.35
119422.05
119432.7
119443.29
119453.83
119464.31
119474.72
119485.07
119495.35
119505.56
119515.71
119525.77
119535.77
119545.68
119555.51
119565.26
119574.92
119584.5
119593.98
119603.38
119612.68
119621.88
119630.98
119639.98
119648.88
119657.67
119666.36
119674.94
119683.4
119691.75
119699.99
119708.11
119716.12
119724
119731.76
119739.41
119746.92
119754.32
119761.58
119768.72
119775.74
119782.62
119789.38
119796
119802.5
119808.87
119815.1
119821.2
119827.18
119833.02
119838.73
119844.31
119849.76
119855.08
119860.27
119865.33
119870.26
119875.07
119879.75
119884.31
119888.74
119893.04
119897.23
119901.3
119905.25
119909.08
119912.79
119916.39
119919.88
119923.26
119926.52
119929.68
119932.74
119935.69
119938.54
119941.29
119943.95
119946.51
119948.97
119951.35
119953.63
119955.83
119957.95
119959.98
119961.93
119963.81
119965.61
119967.33
119968.98
119970.56
119972.08
119973.53
119974.92
119976.24
119977.51
119978.72
119979.87
119980.97
119982.02
119983.02
119983.97
119984.87
119985.73
119986.55
119987.33
119988.07
119988.77
119989.43
119990.06
119990.66
119991.23
119991.76
119992.27
119992.75
119993.2
119993.63
119994.03
119994.41
119994.77
119995.11
119995.43
119995.72
119996.01
119996.27
119996.52
119996.76
119996.98
119997.18
119997.38
119997.56
119997.73
119997.89
119998.03
119998.17
119998.3
119998.43
119998.54
119998.65
119998.74
119998.84
119998.92
119999
119999.08
119999.15
119999.21
119999.27
119999.33
119999.38
119999.43
119999.47
119999.51
119999.55
119999.59
119999.62
119999.65
119999.68
119999.7
119999.73
119999.75
119999.77
119999.79
119999.81
119999.82
119999.84
119999.85
119999.86
119999.88
119999.89
119999.9
119999.91
119999.91
119999.92
119999.93
119999.93
119999.94
119999.95
119999.95
119999.95
119999.96
119999.96
119999.97
119999.97
119999.97
119999.97
119999.98
119999.98
119999.98
119999.98
119999.98
119999.99
119999.99
119999.99
119999.99
119999.99
119999.99
119999.99
119999.99
119999.99
119999.99
119999.99
120000
120000
120000
120000
120000
120000
120000
120000
120000
120000
120000
120000
120000
120000
120000
120000
120000
120000
120000
120000
120000
120000
120000
120000
120000
120000
120000
120000
120000
120000
120000
120000
120000
120000
120000
120000
120000
120000
120000
120000
120000
120000
120000
120000
120000
120000
120000
120000
120000
120000
120000
120000
120000
120000
120000
120000
120000
120000
120000
120000
120000
120000
120000
120000
120000
120000
120000
120000
120000
120000
120000
120000
120000
120000
120000
120000
120000
120000
120000
120000
120000
120000
120000
120000
120000
120000
120000
120000
120000
120000
120000
120000
120000
120000
120000
120000
120000
120000
120000
120000
120000
120000
120000
120000
120000
120000
120000
120000
120000
120000
120000
120000
120000
120000
120000
120000
120000
120000
120000
120000
120000
120000
120000
120000
120000
120000
120000
120000
120000
120000
120000
120000
120000
120000
120000
120000
120000
120000
120000
120000
120000
120000
120000
120000
120000
120000
120000
120000
120000
120000
120000
120000
120000
120000
120000
120000
120000
120000
120000
120000
120000
120000
120000
120000
120000
120000
120000
120000
120000
120000
120000
120000
120000
120000
120000
120000
120000
120000
120000
120000
120000
120000
120000
120000
120000
120000
120000
120000
120000
120000
120000
120000
120000
120000
120000
120000
120000
120000
120000
120000
120000
120000
120000
120000
120000
120000
120000
120000
120000
120000
120000
120000
120000
120000
120000
120000
120000
120000
120000
120000
120000
120000
120000
120000
120000
120000
120000
120000
120000
120000
120000
120000
120000
120000
120000
120000
120000
120000
120000
120000
120000
120000
120000
120000
120000
120000
120000
120000
120000
120000
120000
120000
120000
120000
120000
120000
120000
120000
120000
120000
120000
120000
120000
120000
120000
120000
120000
120000
120000
120000
120000
120000
120000
120000
120000
120000
120000
120000
120000
120000
120000
120000
120000
120000
120000
120000
120000
120000
120000
120000
120000
120000
120000
120000
120000
120000
120000
120000
120000
120000
120000
120000
120000
120000
120000
120000
120000
120000
120000
120000
120000
120000
120000
120000
120000
120000
120000
120000
120000
120000
120000
120000
120000
120000
120000
120000
120000
120000
120000
120000
120000
120000
120000
120000
120000
120000
120000
120000
120000
120000
120000
120000
120000
120000
120000
120000
120000
120000
120000
120000
120000
120000
120000
120000
120000
120000
120000
120000
120000
120000
120000
120000
120000
120000
120000
120000
120000
120000
120000
120000
120000
120000
120000
120000
120000
120000
120000
120000
120000
120000
120000
120000
120000
120000
120000
120000
120000
120000
120000
120000
120000
120000
120000
120000
120000
120000
120000
120000
120000
120000
120000
120000
120000
120000
120000
120000
120000
120000
120000
120000
120000
120000
120000
120000
120000
120000
120000
120000
120000
120000
120000
120000
120000
120000
120000
120000
120000
120000
120000
120000
120000
120000
120000
120000
120000
120000
120000
120000
120000
120000
120000
120000
120000
120000
120000
120000
120000
120000
120000
120000
120000
120000
120000
120000
120000
120000
120000
120000
120000
120000
120000
120000
120000
120000
120000
120000
120000
120000
120000
120000
120000
120000
120000
120000
120000
120000
120000
120000
120000
120000
120000
120000
120000
120000
120000
120000
120000
120000
120000
120000
120000
120000
120000
120000
120000
120000
120000
120000
120000
120000
120000
120000
120000
120000
120000
120000
120000
120000
120000
120000
120000
120000
120000
120000
120000
120000
120000
120000
120000
120000
120000
120000
120000
120000
120000
120000
120000
120000
120000
120000
120000
120000
120000
120000
120000
120000
120000
120000
120000
120000
120000
120000
120000
120000
120000
120000
120000
120000
120000
120000
120000
120000
120000
120000
120000
120000
120000
120000
120000
120000
120000
120000
120000
120000
120000
120000
120000
120000
120000
120000
120000
120000
120000
120000
120000
120000
120000
120000
120000
120000
120000
120000
120000
120000
120000
120000
120000
120000
120000
120000
120000
120000
120000
120000
120000
120000
120000
120000
120000
120000
120000
120000
120000
120000
120000
120000
120000
120000
120000
120000
120000
120000
120000
120000
120000
120000
120000
120000
120000
120000
120000
120000
120000
120000
120000
120000
120000
120000
120000
120000
120000
120000
120000
120000
120000
120000
120000
120000
120000
120000
120000
120000
120000
120000
120000
120000
120000
120000
120000
120000
120000
120000
120000
120000
120000
120000
120000
120000
120000
120000
120000
120000
120000
120000
120000
120000
120000
120000
120000
120000
120000
120000
120000
120000
120000
120000
120000
120000
120000
120000
120000
120000
120000
120000
120000
120000
120000
120000
120000
120000
120000
120000
120000
120000
120000
120000
120000
120000
120000
120000
120000
120000
120000
120000
120000
120000
120000
120000
120000
120000
120000
120000
120000
120000
120000
120000
120000
120000
120000
120000
120000
120000
120000
120000
120000
120000
120000
120000
120000
120000
120000
120000
120000
120000
120000
120000
120000
120000
120000
120000
120000
120000
120000
120000
120000
120000
120000
120000
120000
120000
120000
120000
120000
120000
120000
120000
120000
120000
120000
120000
120000
120000
120000
120000
120000
120000
120000
120000
120000
120000
120000
120000
120000
120000
120000
120000
120000
120000
120000
120000
120000
120000
120000
120000
120000
120000
120000
120000
120000
120000
120000
120000
120000
120000
120000
120000
120000
120000
120000
120000
120000
120000
120000
120000
120000
120000
120000
120000
120000
120000
120000
120000
120000
120000
120000
120000
120000
120000
120000
120000
120000
120000
120000
120000
120000
120000
120000
120000
120000
120000
120000
120000
120000
120000
120000
120000
120000
120000
120000
120000
120000
120000
120000
120000
120000
120000
120000
120000
120000
120000
120000
120000
120000
120000
120000
120000
120000
120000
120000
120000
120000
120000
120000
120000
120000
120000
120000
120000
120000
120000
120000
120000
120000
120000
120000
120000
120000
120000
120000
120000
120000
120000
120000
120000
120000
120000
120000
120000
120000
120000
120000
120000
120000
120000
120000
120000
120000
120000
120000
120000
120000
120000
120000
120000
120000
120000
120000
120000
120000
120000
120000
120000
120000
120000
120000
120000
120000
120000
120000
120000
120000
120000
120000
120000
120000
120000
120000
120000
120000
120000
120000
120000
120000
120000
120000
120000
120000
120000
120000
120000
120000
120000
120000
120000
120000
120000
120000
120000
120000
120000
120000
120000
120000
120000
120000
120000
120000
120000
120000
120000
120000
120000
120000
120000
120000
120000
120000
120000
120000
120000
120000
120000
120000
120000
120000
120000
120000
120000
120000
120000
120000
120000
120000
120000
120000
120000
120000
120000
120000
120000
120000
120000
120000
120000
120000
120000
120000
120000
120000
120000
120000
120000
120000
120000
120000
120000
120000
120000
120000
120000
120000
120000
120000
120000
120000
120000
120000
120000
120000
120000
120000
120000
120000
120000
120000
120000
120000
120000
120000
120000
120000
120000
120000
120000
120000
120000
120000
120000
120000
120000
120000
120000
120000
120000
120000
120000
120000
120000
120000
120000
120000
120000
120000
120000
120000
120000
120000
120000
120000
120000
120000
120000
120000
120000
120000
120000
120000
120000
120000
120000
120000
120000
120000
120000
120000
120000
120000
120000
120000
120000
120000
120000
120000
120000
120000
120000
120000
120000
120000
120000
120000
120000
120000
120000
120000
119999.99
119999.99
119999.99
119999.99
119999.99
119999.99
119999.99
119999.99
119999.99
119999.99
119999.98
119999.98
119999.98
119999.98
119999.98
119999.97
119999.97
119999.97
119999.96
119999.96
119999.95
119999.95
119999.94
119999.94
119999.93
119999.92
119999.91
119999.9
119999.89
119999.88
119999.87
119999.85
119999.84
119999.82
119999.8
119999.78
119999.75
119999.73
119999.7
119999.67
119999.63
119999.6
119999.55
119999.51
119999.46
119999.4
119999.34
119999.28
119999.21
119999.13
119999.04
119998.95
119998.85
119998.73
119998.61
119998.48
119998.33
119998.18
119998
119997.82
119997.61
119997.39
119997.15
119996.89
119996.61
119996.3
119995.97
119995.61
119995.22
119994.8
119994.34
119993.85
119993.32
119992.74
119992.12
119991.45
119990.73
119989.95
119989.11
119988.21
119987.24
119986.19
119985.07
119983.87
119982.58
119981.19
119979.7
119978.11
119976.41
119974.58
119972.63
119970.55
119968.32
119965.94
119963.4
119960.69
119957.81
119954.74
119951.47
119947.99
119944.28
119940.35
119936.18
119931.75
119927.04
119922.06
119916.78
119911.19
119905.28
119899.02
119892.41
119885.42
119878.05
119870.28
119862.08
119853.44
119844.34
119834.77
119824.7
119814.11
119802.99
119791.32
119779.07
119766.23
119752.77
119738.68
119723.93
119708.5
119692.37
119675.52
119657.93
119639.57
119620.43
119600.48
119579.7
119558.07
119535.56
119512.16
119487.85
119462.61
119436.4
119409.22
119381.05
119351.86
119321.64
119290.37
119258.02
119224.59
119190.06
119154.41
119117.62
119079.68
119040.58
119000.3
118958.83
118916.16
118872.28
118827.19
118780.86
118733.29
118684.49
118634.43
118583.12
118530.55
118476.73
118421.64
118365.29
118307.68
118248.82
118188.69
118127.32
118064.7
118000.84
117935.75
117869.44
117801.92
117733.19
117663.28
117592.19
117519.94
117446.55
117372.03
117296.39
117219.67
117141.88
117063.03
116983.16
116902.29
116820.43
116737.63
116653.89
116569.25
116483.74
116397.39
116310.23
116222.28
116133.58
116044.16
115954.06
115863.31
115771.95
115680
115587.51
115494.51
115401.05
115307.15
115212.87
115118.23
115023.28
114928.05
114832.6
114736.96
114641.17
114545.28
114449.32
114353.35
114257.4
114161.51
114065.74
113970.12
113874.71
113779.53
113684.65
113590.09
113495.92
113402.16
113308.87
113216.08
113123.85
113032.21
112941.21
112850.9
112761.3
112672.48
112584.45
112497.28
112410.99
112325.64
112241.24
112157.86
112075.51
111994.24
111914.08
111835.07
111757.24
111680.62
111605.24
111531.14
111458.33
111386.85
111316.72
111247.96
111180.6
111114.66
111050.15
110987.09
110925.49
110865.38
110806.76
110749.64
110694.02
110639.92
110587.34
110536.27
110486.72
110438.69
110392.17
110347.15
110303.63
110261.6
110221.05
110181.95
110144.3
110108.08
110073.27
110039.85
110007.79
109977.08
109947.68
109919.58
109892.74
109867.13
109842.73
109819.51
109797.43
109776.46
109756.57
109737.73
109719.89
109703.03
109687.12
109672.11
109657.98
109644.69
109632.2
109620.48
109609.5
109599.22
109589.61
109580.65
109572.29
109564.5
109557.26
109550.54
109544.31
109538.54
109533.2
109528.26
109523.71
109519.52
109515.67
109512.13
109508.88
109505.9
109503.18
109500.7
109498.43
109496.36
109494.48
109492.77
109491.23
109489.82
109488.56
109487.41
109486.38
109485.45
109484.61
109483.86
109483.19
109482.58
109482.05
109481.56
109481.14
109480.75
109480.42
109480.11
109479.85
109479.61
109479.4
109479.22
109479.06
109478.92
109478.79
109478.68
109478.59
109478.51
109478.43
109478.37
109478.32
109478.27
109478.23
109478.2
109478.17
109478.15
109478.13
109478.12
109478.11
109478.09
109478.08
109478.06
109478.05
109478.03
109478.01
109477.99
109477.97
109477.95
109477.93
109477.9
109477.88
109477.86
109477.84
109477.82
109477.8
109477.78
109477.76
109477.74
109477.72
109477.7
109477.69
109477.68
109477.66
109477.64
109477.62
109477.61
109477.6
109477.58
109477.56
109477.55
109477.54
109477.53
109477.51
109477.5
109477.48
109477.46
109477.45
109477.44
109477.42
109477.41
109477.4
109477.39
109477.37
109477.36
109477.35
109477.34
109477.33
109477.32
109477.31
109477.3
109477.29
109477.28
109477.26
109477.25
109477.24
109477.23
109477.21
109477.19
109477.18
109477.16
109477.15
109477.15
109477.14
109477.13
109477.12
109477.12
109477.11
109477.11
109477.1
109477.1
109477.09
109477.08
109477.08
109477.07
109477.05
109477.04
109477.02
109477.01
109476.99
109476.97
109476.96
109476.95
109476.94
109476.92
109476.91
109476.9
109476.9
109476.89
109476.88
109476.87
109476.87
109476.87
109476.87
109476.87
109476.87
109476.87
109476.87
109476.87
109476.87
109476.87
109476.87
109476.87
109476.88
109476.88
109476.88
109476.88
109476.87
109476.87
109476.87
109476.86
109476.86
109476.85
109476.85
109476.84
109476.83
109476.83
109476.82
109476.81
109476.8
109476.8
109476.79
109476.79
109476.78
109476.78
109476.78
109476.78
109476.78
109476.78
109476.78
109476.78
109476.78
109476.78
109476.78
109476.78
109476.78
109476.79
109476.79
109476.79
109476.79
109476.79
109476.79
109476.79
109476.79
109476.79
109476.79
109476.79
109476.78
109476.78
109476.78
109476.78
109476.78
109476.78
109476.78
109476.78
109476.78
109476.78
109476.78
109476.78
109476.79
109476.79
109476.79
109476.79
109476.79
109476.79
109476.79
109476.8
109476.8
109476.8
109476.81
109476.81
109476.81
109476.81
109476.82
109476.82
109476.82
109476.83
109476.83
109476.83
109476.84
109476.84
109476.84
109476.85
109476.85
109476.85
109476.85
109476.86
109476.86
109476.86
109476.86
109476.87
109476.87
109476.87
109476.87
109476.88
109476.88
109476.88
109476.88
109476.88
109476.89
109476.89
109476.89
109476.89
109476.89
109476.9
109476.9
109476.9
109476.9
109476.9
109476.9
109476.9
109476.91
109476.91
109476.91
109476.91
109476.91
109476.91
109476.91
109476.91
109476.91
109476.92
109476.92
109476.92
109476.92
109476.92
109476.92
109476.92
109476.92
109476.93
109476.93
109476.93
109476.93
109476.93
109476.93
109476.94
109476.94
109476.94
109476.94
109476.94
109476.95
109476.95
109476.95
109476.95
109476.95
109476.95
109476.96
109476.96
109476.96
109476.96
109476.96
109476.97
109476.97
109476.97
109476.97
109476.97
109476.98
109476.98
109476.98
109476.98
109476.98
109476.99
109476.99
109476.99
109476.99
109476.99
109477
109477
109477
109477
109477
109477
109477.01
109477.01
109477.01
109477.01
109477.01
109477.01
109477.01
109477.02
109477.02
109477.02
109477.02
109477.02
109477.02
109477.02
109477.02
109477.03
109477.03
109477.03
109477.03
109477.03
109477.03
109477.03
109477.03
109477.03
109477.03
109477.03
109477.03
109477.03
109477.03
109477.03
109477.03
109477.03
109477.03
109477.03
109477.03
109477.03
109477.03
109477.03
109477.03
109477.03
109477.03
109477.03
109477.03
109477.03
109477.03
109477.03
109477.03
109477.03
109477.03
109477.03
109477.03
109477.03
109477.03
109477.03
109477.03
109477.03
109477.03
109477.03
109477.03
109477.03
109477.03
109477.03
109477.03
109477.03
109477.04
109477.04
109477.04
109477.04
109477.04
109477.04
109477.04
109477.04
109477.04
109477.04
109477.04
109477.04
109477.04
109477.04
109477.04
109477.05
109477.05
109477.05
109477.05
109477.05
109477.05
109477.05
109477.05
109477.05
109477.05
109477.05
109477.06
109477.06
109477.06
109477.06
109477.06
109477.06
109477.06
109477.06
109477.06
109477.06
109477.06
109477.06
109477.06
109477.06
109477.06
109477.06
109477.06
109477.06
109477.07
109477.07
109477.08
109477.09
109477.1
109477.11
109477.11
109477.11
109477.1
109477.08
109477.05
109477.01
109476.97
109476.93
109476.9
109476.87
109476.89
109477.02
109477.2
109477.3
109477.26
109477.2
109477.18
109477.16
109477.14
109477.12
109477.1
109477.09
109477.08
109477.08
109477.08
109477.08
109477.08
109477.09
109477.09
109477.09
109477.09
109477.1
109477.1
109477.1
109477.1
109477.1
109477.1
109477.1
109477.1
109477.1
109477.1
109477.1
109477.1
109477.1
109477.1
109477.1
109477.1
109477.1
109477.1
109477.1
109477.1
109477.1
109477.1
109477.1
109477.1
109477.1
109477.1
109477.1
109477.1
109477.1
109477.1
109477.11
109477.11
109477.11
109477.11
109477.11
109477.11
109477.11
109477.11
109477.11
109477.11
109477.11
109477.1
109477.1
109477.1
109477.1
109477.1
109477.1
109477.1
109477.1
109477.1
109477.1
109477.1
109477.1
109477.1
109477.1
109477.1
109477.1
109477.1
109477.1
109477.1
109477.1
109477.09
109477.09
109477.09
109477.09
109477.09
109477.09
109477.09
109477.09
109477.09
109477.09
109477.08
109477.08
109477.08
109477.08
109477.08
109477.08
109477.08
109477.08
109477.08
109477.07
109477.07
109477.07
109477.07
109477.07
109477.07
109477.07
109477.06
109477.06
109477.06
109477.06
109477.06
109477.06
109477.06
109477.05
109477.05
109477.05
109477.05
109477.05
109477.05
109477.05
109477.04
109477.04
109477.04
109477.04
109477.04
109477.04
109477.04
109477.03
109477.03
109477.03
109477.03
109477.03
109477.03
109477.02
109477.02
109477.02
109477.02
109477.02
109477.02
109477.01
109477.01
109477.01
109477.01
109477.01
109477.01
109477.01
109477
109477
109477
109477
109477
109477
109477
109477
109476.99
109476.99
109476.99
109476.99
109476.99
109476.99
109476.99
109476.99
109476.99
109476.99
109476.99
109476.98
109476.98
109476.98
109476.98
109476.98
109476.98
109476.98
109476.98
109476.98
109476.98
109476.98
109476.98
109476.98
109476.98
109476.97
109476.97
109476.97
109476.97
109476.97
109476.97
109476.97
109476.97
109476.97
109476.97
109476.97
109476.97
109476.97
109476.97
109476.96
109476.96
109476.96
109476.96
109476.96
109476.96
109476.96
109476.96
109476.96
109476.96
109476.96
109476.96
109476.96
109476.96
109476.96
109476.96
109476.96
109476.96
109476.96
109476.96
109476.97
109476.97
109476.97
109476.97
109476.97
109476.97
109476.97
109476.97
109476.97
109476.97
109476.97
109476.97
109476.97
109476.97
109476.97
109476.97
109476.97
109476.97
109476.96
109476.96
109476.96
109476.96
109476.96
109476.96
109476.96
109476.96
109476.96
109476.96
109476.95
109476.95
109476.95
109476.95
109476.95
109476.95
109476.94
109476.94
109476.94
109476.94
109476.93
109476.93
109476.93
109476.93
109476.92
109476.92
109476.92
109476.91
109476.91
109476.91
109476.91
109476.9
109476.9
109476.9
109476.89
109476.89
109476.89
109476.88
109476.88
109476.88
109476.87
109476.87
109476.87
109476.86
109476.86
109476.86
109476.85
109476.85
109476.84
109476.84
109476.84
109476.83
109476.83
109476.83
109476.82
109476.82
109476.81
109476.81
109476.81
109476.8
109476.8
109476.79
109476.79
109476.79
109476.78
109476.78
109476.77
109476.77
109476.76
109476.76
109476.76
109476.75
109476.75
109476.74
109476.74
109476.73
109476.73
109476.73
109476.72
109476.72
109476.71
109476.71
109476.7
109476.7
109476.7
109476.69
109476.69
109476.68
109476.68
109476.68
109476.67
109476.67
109476.66
109476.66
109476.66
109476.65
109476.65
109476.65
109476.64
109476.64
109476.64
109476.64
109476.63
109476.63
109476.63
109476.63
109476.63
109476.62
109476.62
109476.62
109476.62
109476.62
109476.62
109476.61
109476.61
109476.61
109476.61
109476.61
109476.61
109476.61
109476.62
109476.62
109476.62
109476.63
109476.63
109476.63
109476.64
109476.64
109476.65
109476.65
109476.66
109476.66
109476.67
109476.68
109476.69
109476.69
109476.7
109476.71
109476.72
109476.73
109476.74
109476.75
109476.76
109476.77
109476.79
109476.8
109476.81
109476.83
109476.85
109476.87
109476.89
109476.91
109476.92
109476.93
109476.94
109476.96
109476.98
109476.99
109476.99
109477
109477.01
109477.03
109477.04
109477.04
109477.04
109477.04
109477.03
109477.02
109477
109476.98
109476.94
109476.89
109476.84
109476.78
109476.71
109476.63
109476.54
109476.44
109476.33
109476.2
109476.06
109475.9
109475.72
109475.51
109475.29
109475.03
109474.75
109474.43
109474.07
109473.68
109473.24
109472.75
109472.2
109471.6
109470.93
109470.18
109469.36
109468.46
109467.45
109466.35
109465.13
109463.79
109462.32
109460.69
109458.92
109456.96
109454.83
109452.49
109449.93
109447.14
109444.09
109440.77
109437.15
109433.21
109428.93
109424.28
109419.24
109413.77
109407.85
109401.44
109394.52
109387.04
109378.97
109370.27
109360.91
109350.83
109340.01
109328.38
109315.9
109302.52
109288.2
109272.88
109256.5
109239.01
109220.35
109200.45
109179.27
109156.72
109132.76
109107.32
109080.32
109051.7
109021.39
108989.32
108955.43
108919.63
108881.87
108842.08
108800.17
108756.09
108709.76
108661.13
108610.12
108556.68
108500.74
108442.25
108381.16
108317.41
108250.97
108181.78
108109.82
108035.05
107957.46
107877.02
107793.71
107707.55
107618.53
107526.66
107431.97
107334.48
107234.23
107131.26
107025.64
106917.43
106806.7
106693.54
106578.04
106460.31
106340.45
106218.59
106094.86
105969.4
105842.36
105713.88
105584.13
105453.27
105321.48
105188.92
105055.79
104922.26
104788.52
104654.75
104521.14
104387.88
104255.14
104123.11
103991.97
103861.89
103733.05
103605.59
103479.68
103355.47
103233.1
103112.69
102994.39
102878.29
102764.51
102653.14
102544.27
102437.97
102334.32
102233.37
102135.16
102039.74
101947.13
101857.36
101770.43
101686.35
101605.12
101526.71
101451.12
101378.31
101308.26
101240.93
101176.27
101114.25
101054.8
100997.87
100943.42
100891.37
100841.66
100794.24
100749.02
100705.95
100664.96
100625.98
100588.93
100553.76
100520.38
100488.74
100458.76
100430.38
100403.53
100378.14
100354.16
100331.52
100310.16
100290.02
100271.04
100253.18
100236.36
100220.55
100205.69
100191.73
100178.63
100166.34
100154.82
100144.02
100133.91
100124.44
100115.59
100107.32
100099.58
100092.36
100085.62
100079.34
100073.48
100068.02
100062.93
100058.2
100053.8
100049.71
100045.9
100042.37
100039.09
100036.05
100033.23
100030.61
100028.19
100025.95
100023.87
100021.95
100020.18
100018.54
100017.02
100015.63
100014.34
100013.15
100012.05
100011.04
100010.11
100009.26
100008.47
100007.74
100007.08
100006.47
100005.91
100005.39
100004.92
100004.49
100004.09
100003.73
100003.4
100003.09
100002.81
100002.56
100002.33
100002.11
100001.92
100001.74
100001.58
100001.44
100001.3
100001.18
100001.07
100000.97
100000.88
100000.79
100000.72
100000.65
100000.59
100000.53
100000.48
100000.43
100000.39
100000.35
100000.32
100000.28
100000.26
100000.23
100000.21
100000.19
100000.17
100000.15
100000.14
100000.12
100000.11
100000.1
100000.09
100000.08
100000.07
100000.06
100000.06
100000.05
100000.05
100000.04
100000.04
100000.03
100000.03
100000.03
100000.02
100000.02
100000.02
100000.02
100000.01
100000.01
100000.01
100000.01
100000.01
100000.01
100000.01
100000.01
100000.01
100000.01
100000
100000
100000
100000
100000
100000
100000
100000
100000
100000
100000
100000
100000
100000
100000
100000
100000
100000
100000
100000
100000
100000
100000
100000
100000
100000
100000
100000
100000
100000
100000
100000
100000
100000
100000
100000
100000
100000
100000
100000
100000
100000
100000
100000
100000
100000
100000
100000
100000
100000
100000
100000
100000
100000
100000
100000
100000
100000
100000
100000
100000
100000
100000
100000
100000
100000
100000
100000
100000
100000
100000
100000
100000
100000
100000
100000
100000
100000
100000
100000
100000
100000
100000
100000
100000