/*--------------------------------*- C++ -*----------------------------------*\
  =========                 |
  \\      /  F ield         | OpenFOAM: The Open Source CFD Toolbox
   \\    /   O peration     | Website:  https://openfoam.org
    \\  /    A nd           | Version:  7
     \\/     M anipulation  |
\*---------------------------------------------------------------------------*/
FoamFile
{
    version     2.0;
    format      ascii;
    class       volScalarField;
    location    "0.00031";
    object      rho;
}
// * * * * * * * * * * * * * * * * * * * * * * * * * * * * * * * * * * * * * //

dimensions      [1 -3 0 0 0 0 0];

internalField   nonuniform List<scalar> 
5000
(
1.3695105
1.3695867
1.3697058
1.3697967
1.3699166
1.3700088
1.3701279
1.3702191
1.370339
1.3704324
1.3705467
1.3706468
1.3707553
1.3708594
1.3709656
1.3710709
1.3711765
1.371282
1.3713876
1.3714931
1.3715986
1.3717041
1.3718096
1.3719151
1.3720206
1.3721261
1.3722315
1.3723369
1.3724423
1.3725477
1.372653
1.3727583
1.3728636
1.3729689
1.3730741
1.3731793
1.3732845
1.3733897
1.3734948
1.3735999
1.373705
1.3738101
1.3739152
1.3740202
1.3741252
1.3742302
1.3743352
1.3744401
1.3745451
1.37465
1.3747549
1.3748598
1.3749647
1.3750695
1.3751744
1.3752792
1.375384
1.3754888
1.3755936
1.3756983
1.3758031
1.3759078
1.3760125
1.3761172
1.3762219
1.3763266
1.3764312
1.3765358
1.3766405
1.3767451
1.3768496
1.3769542
1.3770588
1.3771633
1.3772678
1.3773723
1.3774768
1.3775812
1.3776857
1.3777901
1.3778945
1.3779989
1.3781033
1.3782077
1.378312
1.3784164
1.3785207
1.378625
1.3787293
1.3788335
1.3789378
1.379042
1.3791462
1.3792504
1.3793546
1.3794588
1.3795629
1.3796671
1.3797712
1.3798753
1.3799793
1.3800834
1.3801875
1.3802915
1.3803955
1.3804995
1.3806035
1.3807075
1.3808114
1.3809153
1.3810192
1.3811231
1.381227
1.3813309
1.3814347
1.3815386
1.3816424
1.3817462
1.38185
1.3819537
1.3820575
1.3821612
1.3822649
1.3823686
1.3824723
1.382576
1.3826796
1.3827833
1.3828869
1.3829905
1.3830941
1.3831976
1.3833012
1.3834047
1.3835083
1.3836118
1.3837152
1.3838187
1.3839222
1.3840256
1.384129
1.3842324
1.3843358
1.3844392
1.3845425
1.3846459
1.3847492
1.3848525
1.3849558
1.3850591
1.3851623
1.3852656
1.3853688
1.385472
1.3855752
1.3856784
1.3857815
1.3858847
1.3859878
1.3860909
1.386194
1.3862971
1.3864002
1.3865032
1.3866062
1.3867092
1.3868122
1.3869152
1.3870182
1.3871211
1.3872241
1.387327
1.3874299
1.3875328
1.3876356
1.3877385
1.3878413
1.3879441
1.3880469
1.3881497
1.3882525
1.3883553
1.388458
1.3885607
1.3886634
1.3887661
1.3888688
1.3889714
1.3890741
1.3891767
1.3892793
1.3893819
1.3894845
1.3895871
1.3896896
1.3897921
1.3898946
1.3899971
1.3900996
1.3902021
1.3903045
1.390407
1.3905094
1.3906118
1.3907142
1.3908165
1.3909189
1.3910212
1.3911235
1.3912259
1.3913281
1.3914304
1.3915327
1.3916349
1.3917371
1.3918393
1.3919415
1.3920437
1.3921459
1.392248
1.3923501
1.3924523
1.3925544
1.3926564
1.3927585
1.3928606
1.3929626
1.3930646
1.3931666
1.3932686
1.3933706
1.3934725
1.3935745
1.3936764
1.3937783
1.3938802
1.393982
1.3940839
1.3941858
1.3942876
1.3943894
1.3944912
1.394593
1.3946947
1.3947965
1.3948982
1.3949999
1.3951016
1.3952033
1.395305
1.3954066
1.3955083
1.3956099
1.3957115
1.3958131
1.3959146
1.3960162
1.3961177
1.3962193
1.3963208
1.3964223
1.3965237
1.3966252
1.3967267
1.3968281
1.3969295
1.3970309
1.3971323
1.3972336
1.397335
1.3974363
1.3975377
1.397639
1.3977402
1.3978415
1.3979428
1.398044
1.3981452
1.3982464
1.3983476
1.3984488
1.39855
1.3986511
1.3987522
1.3988534
1.3989545
1.3990555
1.3991566
1.3992577
1.3993587
1.3994597
1.3995607
1.3996617
1.3997627
1.3998636
1.3999646
1.4000655
1.4001664
1.4002673
1.4003682
1.400469
1.4005699
1.4006707
1.4007715
1.4008723
1.4009731
1.4010738
1.4011746
1.4012753
1.401376
1.4014767
1.4015774
1.4016781
1.4017787
1.4018794
1.40198
1.4020806
1.4021812
1.4022818
1.4023823
1.4024829
1.4025834
1.4026839
1.4027844
1.4028849
1.4029853
1.4030858
1.4031862
1.4032866
1.403387
1.4034874
1.4035878
1.4036881
1.4037884
1.4038888
1.4039891
1.4040894
1.4041896
1.4042899
1.4043901
1.4044903
1.4045905
1.4046907
1.4047909
1.4048911
1.4049912
1.4050913
1.4051915
1.4052915
1.4053916
1.4054917
1.4055917
1.4056918
1.4057918
1.4058918
1.4059918
1.4060917
1.4061917
1.4062916
1.4063915
1.4064914
1.4065913
1.4066912
1.406791
1.4068909
1.4069907
1.4070905
1.4071903
1.4072901
1.4073898
1.4074896
1.4075893
1.407689
1.4077887
1.4078884
1.4079881
1.4080877
1.4081873
1.408287
1.4083866
1.4084862
1.4085857
1.4086853
1.4087848
1.4088843
1.4089838
1.4090833
1.4091828
1.4092823
1.4093817
1.4094812
1.4095806
1.40968
1.4097794
1.4098787
1.4099781
1.4100774
1.4101768
1.4102761
1.4103754
1.4104746
1.4105739
1.4106732
1.4107724
1.4108716
1.4109708
1.41107
1.4111692
1.4112684
1.4113676
1.4114667
1.4115658
1.4116649
1.411764
1.4118631
1.4119622
1.4120613
1.4121603
1.4122593
1.4123584
1.4124574
1.4125563
1.4126553
1.4127543
1.4128532
1.4129522
1.4130511
1.41315
1.4132488
1.4133477
1.4134465
1.4135454
1.4136442
1.4137429
1.4138417
1.4139404
1.4140392
1.4141378
1.4142365
1.4143351
1.4144337
1.4145323
1.4146308
1.4147293
1.4148277
1.4149261
1.4150245
1.4151228
1.415221
1.4153192
1.4154173
1.4155153
1.4156133
1.4157112
1.415809
1.4159067
1.4160044
1.4161019
1.4161993
1.4162966
1.4163938
1.4164908
1.4165877
1.4166845
1.4167811
1.4168775
1.4169737
1.4170698
1.4171657
1.4172613
1.4173567
1.4174519
1.4175468
1.4176415
1.4177359
1.41783
1.4179238
1.4180173
1.4181104
1.4182032
1.4182956
1.4183877
1.4184793
1.4185705
1.4186613
1.4187516
1.4188415
1.4189308
1.4190197
1.419108
1.4191958
1.419283
1.4193696
1.4194556
1.419541
1.4196257
1.4197098
1.4197932
1.4198758
1.4199578
1.420039
1.4201194
1.4201991
1.420278
1.420356
1.4204332
1.4205095
1.420585
1.4206596
1.4207332
1.420806
1.4208777
1.4209486
1.4210184
1.4210873
1.4211552
1.4212221
1.4212879
1.4213527
1.4214165
1.4214791
1.4215408
1.4216013
1.4216608
1.4217192
1.4217765
1.4218327
1.4218878
1.4219418
1.4219947
1.4220464
1.4220971
1.4221466
1.4221951
1.4222424
1.4222886
1.4223337
1.4223778
1.4224207
1.4224626
1.4225033
1.422543
1.4225817
1.4226193
1.4226558
1.4226913
1.4227258
1.4227593
1.4227918
1.4228233
1.4228539
1.4228835
1.4229121
1.4229399
1.4229667
1.4229926
1.4230177
1.4230419
1.4230652
1.4230877
1.4231095
1.4231304
1.4231505
1.4231699
1.4231886
1.4232066
1.4232238
1.4232404
1.4232563
1.4232715
1.4232862
1.4233002
1.4233136
1.4233265
1.4233388
1.4233506
1.4233618
1.4233726
1.4233829
1.4233927
1.423402
1.4234109
1.4234194
1.4234275
1.4234351
1.4234425
1.4234494
1.423456
1.4234623
1.4234682
1.4234739
1.4234792
1.4234843
1.4234891
1.4234937
1.423498
1.423502
1.4235059
1.4235095
1.4235129
1.4235161
1.4235192
1.4235221
1.4235248
1.4235273
1.4235297
1.423532
1.4235341
1.4235361
1.4235379
1.4235397
1.4235413
1.4235429
1.4235443
1.4235457
1.4235469
1.4235481
1.4235492
1.4235503
1.4235512
1.4235521
1.423553
1.4235538
1.4235545
1.4235552
1.4235558
1.4235564
1.423557
1.4235575
1.4235579
1.4235584
1.4235588
1.4235592
1.4235595
1.4235598
1.4235601
1.4235604
1.4235607
1.4235609
1.4235611
1.4235614
1.4235615
1.4235617
1.4235619
1.423562
1.4235622
1.4235623
1.4235624
1.4235625
1.4235626
1.4235627
1.4235628
1.4235629
1.4235629
1.423563
1.4235631
1.4235631
1.4235632
1.4235632
1.4235632
1.4235633
1.4235633
1.4235633
1.4235634
1.4235634
1.4235634
1.4235634
1.4235635
1.4235635
1.4235635
1.4235635
1.4235635
1.4235635
1.4235636
1.4235636
1.4235636
1.4235636
1.4235636
1.4235636
1.4235636
1.4235636
1.4235636
1.4235636
1.4235636
1.4235636
1.4235636
1.4235636
1.4235636
1.4235636
1.4235636
1.4235636
1.4235636
1.4235636
1.4235637
1.4235637
1.4235637
1.4235637
1.4235637
1.4235637
1.4235637
1.4235637
1.4235637
1.4235637
1.4235637
1.4235637
1.4235637
1.4235637
1.4235637
1.4235637
1.4235637
1.4235637
1.4235637
1.4235637
1.4235637
1.4235637
1.4235637
1.4235637
1.4235637
1.4235637
1.4235637
1.4235637
1.4235637
1.4235637
1.4235637
1.4235637
1.4235637
1.4235637
1.4235637
1.4235637
1.4235637
1.4235637
1.4235637
1.4235637
1.4235637
1.4235637
1.4235637
1.4235637
1.4235637
1.4235637
1.4235637
1.4235637
1.4235637
1.4235637
1.4235637
1.4235637
1.4235637
1.4235637
1.4235637
1.4235637
1.4235637
1.4235637
1.4235637
1.4235637
1.4235637
1.4235637
1.4235637
1.4235637
1.4235637
1.4235637
1.4235637
1.4235637
1.4235637
1.4235637
1.4235637
1.4235637
1.4235637
1.4235637
1.4235637
1.4235637
1.4235637
1.4235637
1.4235637
1.4235637
1.4235637
1.4235637
1.4235637
1.4235637
1.4235637
1.4235637
1.4235637
1.4235637
1.4235637
1.4235637
1.4235637
1.4235637
1.4235637
1.4235637
1.4235637
1.4235637
1.4235637
1.4235637
1.4235637
1.4235637
1.4235637
1.4235637
1.4235637
1.4235637
1.4235637
1.4235637
1.4235637
1.4235637
1.4235637
1.4235637
1.4235637
1.4235637
1.4235637
1.4235637
1.4235637
1.4235637
1.4235637
1.4235637
1.4235637
1.4235637
1.4235637
1.4235637
1.4235637
1.4235637
1.4235637
1.4235637
1.4235637
1.4235637
1.4235637
1.4235637
1.4235637
1.4235637
1.4235637
1.4235637
1.4235637
1.4235637
1.4235637
1.4235637
1.4235637
1.4235637
1.4235637
1.4235637
1.4235637
1.4235637
1.4235637
1.4235637
1.4235637
1.4235637
1.4235637
1.4235637
1.4235637
1.4235637
1.4235637
1.4235637
1.4235637
1.4235637
1.4235637
1.4235637
1.4235637
1.4235637
1.4235637
1.4235637
1.4235637
1.4235637
1.4235637
1.4235637
1.4235637
1.4235637
1.4235637
1.4235637
1.4235637
1.4235637
1.4235637
1.4235637
1.4235637
1.4235637
1.4235637
1.4235637
1.4235637
1.4235637
1.4235637
1.4235637
1.4235637
1.4235637
1.4235637
1.4235637
1.4235637
1.4235637
1.4235637
1.4235637
1.4235637
1.4235637
1.4235637
1.4235637
1.4235637
1.4235637
1.4235637
1.4235637
1.4235637
1.4235637
1.4235637
1.4235637
1.4235637
1.4235637
1.4235637
1.4235637
1.4235637
1.4235637
1.4235637
1.4235637
1.4235637
1.4235637
1.4235637
1.4235637
1.4235637
1.4235637
1.4235637
1.4235637
1.4235637
1.4235637
1.4235637
1.4235637
1.4235637
1.4235637
1.4235637
1.4235637
1.4235637
1.4235637
1.4235637
1.4235637
1.4235637
1.4235637
1.4235637
1.4235637
1.4235637
1.4235637
1.4235637
1.4235637
1.4235637
1.4235637
1.4235637
1.4235637
1.4235637
1.4235637
1.4235637
1.4235637
1.4235637
1.4235637
1.4235637
1.4235637
1.4235637
1.4235637
1.4235637
1.4235637
1.4235637
1.4235637
1.4235637
1.4235637
1.4235637
1.4235637
1.4235637
1.4235637
1.4235637
1.4235637
1.4235637
1.4235637
1.4235637
1.4235637
1.4235637
1.4235637
1.4235637
1.4235637
1.4235637
1.4235637
1.4235637
1.4235637
1.4235637
1.4235637
1.4235637
1.4235637
1.4235637
1.4235637
1.4235637
1.4235637
1.4235637
1.4235637
1.4235637
1.4235637
1.4235637
1.4235637
1.4235637
1.4235637
1.4235637
1.4235637
1.4235637
1.4235637
1.4235637
1.4235637
1.4235637
1.4235637
1.4235637
1.4235637
1.4235637
1.4235637
1.4235637
1.4235637
1.4235637
1.4235637
1.4235637
1.4235637
1.4235637
1.4235637
1.4235637
1.4235637
1.4235637
1.4235637
1.4235637
1.4235637
1.4235637
1.4235637
1.4235637
1.4235637
1.4235637
1.4235637
1.4235637
1.4235637
1.4235637
1.4235637
1.4235637
1.4235637
1.4235637
1.4235637
1.4235637
1.4235637
1.4235637
1.4235637
1.4235637
1.4235637
1.4235637
1.4235637
1.4235637
1.4235637
1.4235637
1.4235637
1.4235637
1.4235637
1.4235637
1.4235637
1.4235637
1.4235637
1.4235637
1.4235637
1.4235637
1.4235637
1.4235637
1.4235637
1.4235637
1.4235637
1.4235637
1.4235637
1.4235637
1.4235637
1.4235637
1.4235637
1.4235637
1.4235637
1.4235637
1.4235637
1.4235637
1.4235637
1.4235637
1.4235637
1.4235637
1.4235637
1.4235637
1.4235637
1.4235637
1.4235637
1.4235637
1.4235637
1.4235637
1.4235637
1.4235637
1.4235637
1.4235637
1.4235637
1.4235637
1.4235637
1.4235637
1.4235637
1.4235637
1.4235637
1.4235637
1.4235637
1.4235637
1.4235637
1.4235637
1.4235637
1.4235637
1.4235637
1.4235637
1.4235637
1.4235637
1.4235637
1.4235637
1.4235637
1.4235637
1.4235637
1.4235637
1.4235637
1.4235637
1.4235637
1.4235637
1.4235637
1.4235637
1.4235637
1.4235637
1.4235637
1.4235637
1.4235637
1.4235637
1.4235637
1.4235637
1.4235637
1.4235637
1.4235637
1.4235637
1.4235637
1.4235637
1.4235637
1.4235637
1.4235637
1.4235637
1.4235637
1.4235637
1.4235637
1.4235637
1.4235637
1.4235637
1.4235637
1.4235637
1.4235637
1.4235637
1.4235637
1.4235637
1.4235637
1.4235637
1.4235637
1.4235637
1.4235637
1.4235637
1.4235637
1.4235637
1.4235637
1.4235637
1.4235637
1.4235637
1.4235637
1.4235637
1.4235637
1.4235637
1.4235637
1.4235637
1.4235637
1.4235637
1.4235637
1.4235637
1.4235637
1.4235637
1.4235637
1.4235637
1.4235637
1.4235637
1.4235637
1.4235637
1.4235637
1.4235637
1.4235637
1.4235637
1.4235637
1.4235637
1.4235637
1.4235637
1.4235637
1.4235637
1.4235637
1.4235637
1.4235637
1.4235637
1.4235637
1.4235637
1.4235637
1.4235637
1.4235637
1.4235637
1.4235637
1.4235637
1.4235637
1.4235637
1.4235637
1.4235637
1.4235637
1.4235637
1.4235637
1.4235637
1.4235637
1.4235637
1.4235637
1.4235637
1.4235637
1.4235637
1.4235637
1.4235637
1.4235637
1.4235637
1.4235637
1.4235637
1.4235637
1.4235637
1.4235637
1.4235637
1.4235637
1.4235637
1.4235637
1.4235637
1.4235637
1.4235637
1.4235637
1.4235637
1.4235637
1.4235637
1.4235637
1.4235637
1.4235637
1.4235637
1.4235637
1.4235637
1.4235637
1.4235637
1.4235637
1.4235637
1.4235637
1.4235637
1.4235637
1.4235637
1.4235637
1.4235637
1.4235637
1.4235637
1.4235637
1.4235637
1.4235637
1.4235637
1.4235637
1.4235637
1.4235637
1.4235637
1.4235637
1.4235637
1.4235637
1.4235637
1.4235637
1.4235637
1.4235637
1.4235637
1.4235637
1.4235637
1.4235637
1.4235637
1.4235637
1.4235637
1.4235637
1.4235637
1.4235637
1.4235637
1.4235637
1.4235637
1.4235637
1.4235637
1.4235637
1.4235637
1.4235637
1.4235637
1.4235637
1.4235637
1.4235637
1.4235637
1.4235637
1.4235637
1.4235637
1.4235637
1.4235637
1.4235637
1.4235637
1.4235637
1.4235637
1.4235637
1.4235637
1.4235637
1.4235637
1.4235637
1.4235637
1.4235637
1.4235637
1.4235637
1.4235637
1.4235637
1.4235637
1.4235637
1.4235637
1.4235637
1.4235637
1.4235637
1.4235637
1.4235637
1.4235637
1.4235637
1.4235637
1.4235637
1.4235637
1.4235637
1.4235637
1.4235637
1.4235637
1.4235637
1.4235637
1.4235637
1.4235637
1.4235637
1.4235637
1.4235637
1.4235637
1.4235637
1.4235637
1.4235637
1.4235637
1.4235637
1.4235637
1.4235637
1.4235637
1.4235637
1.4235637
1.4235637
1.4235637
1.4235637
1.4235637
1.4235637
1.4235637
1.4235637
1.4235637
1.4235637
1.4235637
1.4235637
1.4235637
1.4235637
1.4235637
1.4235637
1.4235637
1.4235637
1.4235637
1.4235637
1.4235637
1.4235637
1.4235637
1.4235637
1.4235637
1.4235637
1.4235637
1.4235637
1.4235637
1.4235637
1.4235637
1.4235637
1.4235637
1.4235637
1.4235637
1.4235637
1.4235637
1.4235637
1.4235637
1.4235637
1.4235637
1.4235637
1.4235637
1.4235637
1.4235637
1.4235637
1.4235637
1.4235637
1.4235637
1.4235637
1.4235637
1.4235637
1.4235637
1.4235637
1.4235637
1.4235637
1.4235637
1.4235637
1.4235637
1.4235637
1.4235637
1.4235637
1.4235637
1.4235637
1.4235637
1.4235637
1.4235637
1.4235637
1.4235637
1.4235637
1.4235637
1.4235637
1.4235637
1.4235637
1.4235637
1.4235637
1.4235637
1.4235637
1.4235637
1.4235637
1.4235637
1.4235637
1.4235637
1.4235637
1.4235637
1.4235637
1.4235637
1.4235637
1.4235637
1.4235637
1.4235637
1.4235637
1.4235637
1.4235637
1.4235637
1.4235637
1.4235637
1.4235637
1.4235637
1.4235637
1.4235637
1.4235637
1.4235637
1.4235637
1.4235637
1.4235637
1.4235637
1.4235637
1.4235637
1.4235637
1.4235637
1.4235637
1.4235637
1.4235637
1.4235637
1.4235637
1.4235637
1.4235637
1.4235637
1.4235637
1.4235637
1.4235637
1.4235637
1.4235637
1.4235637
1.4235637
1.4235637
1.4235637
1.4235637
1.4235637
1.4235637
1.4235637
1.4235637
1.4235637
1.4235637
1.4235637
1.4235637
1.4235637
1.4235637
1.4235637
1.4235637
1.4235637
1.4235637
1.4235637
1.4235637
1.4235637
1.4235637
1.4235637
1.4235637
1.4235637
1.4235637
1.4235637
1.4235637
1.4235637
1.4235637
1.4235637
1.4235637
1.4235637
1.4235637
1.4235637
1.4235637
1.4235637
1.4235637
1.4235637
1.4235637
1.4235637
1.4235637
1.4235637
1.4235637
1.4235637
1.4235637
1.4235637
1.4235637
1.4235637
1.4235637
1.4235637
1.4235637
1.4235637
1.4235637
1.4235637
1.4235637
1.4235637
1.4235637
1.4235637
1.4235637
1.4235637
1.4235637
1.4235637
1.4235637
1.4235637
1.4235637
1.4235637
1.4235637
1.4235637
1.4235637
1.4235637
1.4235637
1.4235637
1.4235637
1.4235637
1.4235637
1.4235637
1.4235637
1.4235637
1.4235637
1.4235637
1.4235637
1.4235637
1.4235637
1.4235637
1.4235637
1.4235637
1.4235637
1.4235637
1.4235637
1.4235637
1.4235637
1.4235637
1.4235637
1.4235637
1.4235637
1.4235637
1.4235637
1.4235637
1.4235637
1.4235637
1.4235637
1.4235637
1.4235637
1.4235637
1.4235637
1.4235637
1.4235637
1.4235637
1.4235637
1.4235637
1.4235637
1.4235637
1.4235637
1.4235637
1.4235637
1.4235637
1.4235637
1.4235637
1.4235637
1.4235637
1.4235637
1.4235637
1.4235637
1.4235637
1.4235637
1.4235637
1.4235637
1.4235637
1.4235637
1.4235637
1.4235637
1.4235637
1.4235637
1.4235637
1.4235637
1.4235637
1.4235637
1.4235637
1.4235637
1.4235637
1.4235637
1.4235637
1.4235637
1.4235637
1.4235637
1.4235637
1.4235637
1.4235637
1.4235637
1.4235637
1.4235637
1.4235637
1.4235637
1.4235637
1.4235637
1.4235637
1.4235637
1.4235637
1.4235637
1.4235637
1.4235637
1.4235637
1.4235637
1.4235637
1.4235637
1.4235637
1.4235637
1.4235637
1.4235637
1.4235637
1.4235637
1.4235637
1.4235637
1.4235637
1.4235637
1.4235637
1.4235637
1.4235637
1.4235637
1.4235637
1.4235637
1.4235637
1.4235637
1.4235637
1.4235637
1.4235637
1.4235637
1.4235637
1.4235637
1.4235637
1.4235637
1.4235637
1.4235637
1.4235637
1.4235637
1.4235637
1.4235637
1.4235637
1.4235637
1.4235637
1.4235637
1.4235637
1.4235637
1.4235637
1.4235637
1.4235637
1.4235637
1.4235637
1.4235637
1.4235637
1.4235637
1.4235637
1.4235637
1.4235637
1.4235637
1.4235637
1.4235637
1.4235637
1.4235637
1.4235637
1.4235637
1.4235637
1.4235637
1.4235637
1.4235637
1.4235637
1.4235637
1.4235637
1.4235637
1.4235637
1.4235637
1.4235637
1.4235637
1.4235637
1.4235637
1.4235637
1.4235637
1.4235637
1.4235637
1.4235637
1.4235637
1.4235637
1.4235637
1.4235637
1.4235637
1.4235637
1.4235637
1.4235637
1.4235637
1.4235637
1.4235637
1.4235637
1.4235637
1.4235637
1.4235637
1.4235637
1.4235637
1.4235637
1.4235637
1.4235637
1.4235637
1.4235637
1.4235637
1.4235637
1.4235637
1.4235637
1.4235637
1.4235637
1.4235637
1.4235637
1.4235637
1.4235637
1.4235637
1.4235637
1.4235637
1.4235637
1.4235637
1.4235637
1.4235637
1.4235637
1.4235637
1.4235637
1.4235637
1.4235637
1.4235637
1.4235637
1.4235637
1.4235637
1.4235637
1.4235637
1.4235637
1.4235637
1.4235637
1.4235637
1.4235637
1.4235637
1.4235637
1.4235637
1.4235637
1.4235637
1.4235637
1.4235637
1.4235637
1.4235637
1.4235637
1.4235637
1.4235637
1.4235637
1.4235637
1.4235636
1.4235636
1.4235636
1.4235636
1.4235636
1.4235636
1.4235636
1.4235636
1.4235636
1.4235636
1.4235636
1.4235636
1.4235636
1.4235636
1.4235636
1.4235636
1.4235636
1.4235636
1.4235635
1.4235635
1.4235635
1.4235635
1.4235635
1.4235635
1.4235634
1.4235634
1.4235634
1.4235633
1.4235633
1.4235633
1.4235632
1.4235632
1.4235631
1.4235631
1.423563
1.4235629
1.4235628
1.4235627
1.4235626
1.4235625
1.4235624
1.4235623
1.4235621
1.4235619
1.4235618
1.4235616
1.4235613
1.4235611
1.4235608
1.4235605
1.4235602
1.4235599
1.4235595
1.423559
1.4235586
1.4235581
1.4235575
1.4235569
1.4235562
1.4235555
1.4235547
1.4235538
1.4235529
1.4235518
1.4235507
1.4235495
1.4235481
1.4235467
1.4235451
1.4235434
1.4235415
1.4235394
1.4235372
1.4235348
1.4235322
1.4235294
1.4235263
1.423523
1.4235194
1.4235155
1.4235113
1.4235068
1.4235019
1.4234966
1.4234909
1.4234848
1.4234781
1.423471
1.4234633
1.4234551
1.4234462
1.4234367
1.4234264
1.4234154
1.4234036
1.423391
1.4233775
1.423363
1.4233475
1.4233309
1.4233132
1.4232942
1.423274
1.4232524
1.4232294
1.4232049
1.4231788
1.423151
1.4231214
1.4230899
1.4230565
1.423021
1.4229834
1.4229434
1.4229011
1.4228562
1.4228087
1.4227584
1.4227053
1.4226491
1.4225898
1.4225271
1.4224611
1.4223914
1.422318
1.4222407
1.4221593
1.4220738
1.4219839
1.4218894
1.4217902
1.4216862
1.4215771
1.4214628
1.421343
1.4212177
1.4210866
1.4209496
1.4208065
1.420657
1.420501
1.4203384
1.4201689
1.4199923
1.4198085
1.4196173
1.4194185
1.419212
1.4189974
1.4187748
1.4185438
1.4183044
1.4180563
1.4177995
1.4175337
1.4172588
1.4169746
1.4166811
1.416378
1.4160652
1.4157427
1.4154102
1.4150677
1.4147151
1.4143523
1.4139791
1.4135955
1.4132014
1.4127968
1.4123815
1.4119556
1.411519
1.4110717
1.4106135
1.4101446
1.4096649
1.4091744
1.4086732
1.4081612
1.4076385
1.4071051
1.4065611
1.4060065
1.4054414
1.4048659
1.4042801
1.4036841
1.403078
1.4024618
1.4018358
1.4012001
1.4005549
1.3999002
1.3992362
1.3985632
1.3978813
1.3971907
1.3964917
1.3957843
1.3950689
1.3943457
1.3936148
1.3928766
1.3921314
1.3913793
1.3906206
1.3898556
1.3890846
1.3883079
1.3875258
1.3867386
1.3859465
1.3851499
1.3843492
1.3835446
1.3827365
1.3819251
1.381111
1.3802943
1.3794755
1.3786549
1.3778328
1.3770097
1.3761858
1.3753617
1.3745375
1.3737138
1.3728908
1.372069
1.3712487
1.3704304
1.3696143
1.3688009
1.3679906
1.3671838
1.3663808
1.365582
1.3647877
1.3639985
1.3632146
1.3624364
1.3616643
1.3608986
1.3601398
1.3593881
1.3586439
1.3579076
1.3571795
1.3564599
1.3557492
1.3550477
1.3543556
1.3536734
1.3530012
1.3523394
1.3516882
1.3510479
1.3504187
1.3498009
1.3491946
1.3486002
1.3480178
1.3474475
1.3468896
1.3463441
1.3458113
1.3452913
1.344784
1.3442897
1.3438084
1.3433402
1.342885
1.342443
1.342014
1.3415982
1.3411954
1.3408056
1.3404287
1.3400647
1.3397135
1.3393749
1.3390488
1.338735
1.3384335
1.338144
1.3378663
1.3376002
1.3373456
1.3371021
1.3368696
1.3366478
1.3364364
1.3362352
1.3360439
1.3358623
1.33569
1.3355267
1.3353722
1.3352261
1.3350883
1.3349583
1.3348358
1.3347207
1.3346125
1.334511
1.3344159
1.3343268
1.3342436
1.3341659
1.3340935
1.3340261
1.3339634
1.3339052
1.3338512
1.3338012
1.3337549
1.3337122
1.3336728
1.3336365
1.3336031
1.3335724
1.3335443
1.3335185
1.3334949
1.3334734
1.3334537
1.3334358
1.3334195
1.3334047
1.3333913
1.3333791
1.3333681
1.3333581
1.3333492
1.3333411
1.3333338
1.3333273
1.3333214
1.3333162
1.3333114
1.3333072
1.3333035
1.3333002
1.3332972
1.3332945
1.3332922
1.3332901
1.3332882
1.3332866
1.3332852
1.3332839
1.3332828
1.3332818
1.3332809
1.3332801
1.3332795
1.3332789
1.3332784
1.3332779
1.3332775
1.3332772
1.3332769
1.3332767
1.3332764
1.3332763
1.3332761
1.3332759
1.3332758
1.3332755
1.3332754
1.3332752
1.333275
1.3332747
1.3332744
1.3332742
1.333274
1.3332737
1.3332734
1.3332732
1.333273
1.3332728
1.3332725
1.3332723
1.333272
1.3332718
1.3332716
1.3332714
1.3332712
1.3332711
1.3332708
1.3332706
1.3332704
1.3332702
1.33327
1.3332699
1.3332697
1.3332695
1.3332693
1.3332691
1.333269
1.3332688
1.3332685
1.3332683
1.3332682
1.333268
1.3332678
1.3332676
1.3332674
1.3332672
1.3332671
1.3332669
1.3332667
1.3332666
1.3332664
1.3332662
1.3332661
1.333266
1.3332658
1.3332657
1.3332655
1.3332653
1.333265
1.3332648
1.3332646
1.3332644
1.3332643
1.3332641
1.333264
1.3332638
1.3332636
1.3332634
1.3332633
1.3332632
1.3332631
1.333263
1.3332629
1.3332628
1.3332627
1.3332626
1.3332624
1.3332622
1.333262
1.3332618
1.3332616
1.3332614
1.3332611
1.3332609
1.3332607
1.3332606
1.3332604
1.3332602
1.3332601
1.3332599
1.3332597
1.3332595
1.3332593
1.3332592
1.3332591
1.333259
1.3332589
1.3332588
1.3332588
1.3332587
1.3332587
1.3332586
1.3332585
1.3332584
1.3332583
1.3332582
1.3332581
1.3332581
1.333258
1.3332579
1.3332578
1.3332577
1.3332575
1.3332574
1.3332573
1.3332571
1.333257
1.3332569
1.3332566
1.3332565
1.3332563
1.3332561
1.333256
1.3332559
1.3332558
1.3332556
1.3332555
1.3332553
1.3332552
1.3332551
1.3332551
1.333255
1.3332549
1.3332547
1.3332546
1.3332545
1.3332544
1.3332543
1.3332542
1.3332541
1.333254
1.3332539
1.3332538
1.3332538
1.3332537
1.3332536
1.3332535
1.3332533
1.3332532
1.3332531
1.3332529
1.3332528
1.3332528
1.3332526
1.3332525
1.3332524
1.3332522
1.3332521
1.333252
1.3332519
1.3332517
1.3332516
1.3332515
1.3332514
1.3332513
1.3332511
1.3332509
1.3332509
1.3332507
1.3332506
1.3332505
1.3332504
1.3332503
1.3332503
1.3332503
1.3332501
1.33325
1.3332498
1.3332497
1.3332497
1.3332496
1.3332495
1.3332493
1.3332492
1.333249
1.3332489
1.3332488
1.3332487
1.3332486
1.3332485
1.3332483
1.3332482
1.3332481
1.333248
1.3332478
1.3332476
1.3332475
1.3332473
1.3332472
1.333247
1.3332469
1.3332468
1.3332466
1.3332465
1.3332464
1.3332462
1.333246
1.3332459
1.3332457
1.3332456
1.3332454
1.3332453
1.3332451
1.3332449
1.3332447
1.3332445
1.3332443
1.3332442
1.333244
1.3332439
1.3332437
1.3332435
1.3332433
1.3332431
1.3332429
1.3332427
1.3332425
1.3332423
1.3332421
1.3332419
1.3332418
1.3332415
1.3332412
1.333241
1.3332408
1.3332406
1.3332405
1.3332403
1.3332401
1.3332399
1.3332396
1.3332393
1.3332391
1.3332389
1.3332388
1.3332386
1.3332383
1.333238
1.3332378
1.3332376
1.3332374
1.3332371
1.3332369
1.3332366
1.3332364
1.3332361
1.3332357
1.3332355
1.3332352
1.333235
1.3332347
1.3332344
1.3332342
1.3332339
1.3332336
1.3332334
1.3332331
1.3332328
1.3332325
1.3332321
1.3332317
1.3332313
1.333231
1.3332307
1.3332305
1.3332302
1.3332298
1.3332295
1.3332291
1.3332288
1.3332283
1.3332279
1.3332275
1.3332271
1.3332268
1.3332264
1.3332261
1.3332257
1.3332253
1.3332249
1.3332245
1.333224
1.3332236
1.3332232
1.3332228
1.3332223
1.3332218
1.3332214
1.3332209
1.3332203
1.3332198
1.3332193
1.3332187
1.3332182
1.3332176
1.3332171
1.3332166
1.3332161
1.3332156
1.3332151
1.3332145
1.333214
1.3332135
1.3332129
1.3332124
1.3332118
1.3332112
1.3332106
1.3332101
1.3332096
1.3332091
1.3332086
1.333208
1.3332074
1.3332069
1.3332065
1.3332061
1.3332058
1.3332056
1.3332054
1.3332051
1.3332049
1.3332047
1.3332045
1.3332043
1.3332043
1.3332043
1.3332043
1.3332043
1.3332044
1.3332045
1.3332048
1.333205
1.3332053
1.3332055
1.3332058
1.3332061
1.3332063
1.3332065
1.3332066
1.3332067
1.3332067
1.3332067
1.3332066
1.3332064
1.3332058
1.333205
1.3332041
1.3332031
1.3332021
1.3332008
1.3331994
1.3331979
1.3331963
1.3331949
1.3331936
1.3331925
1.3331913
1.3331902
1.333189
1.3331877
1.3331864
1.333185
1.3331835
1.3331821
1.3331809
1.3331799
1.3331792
1.3331789
1.3331788
1.3331788
1.3331789
1.3331792
1.3331793
1.3331793
1.3331791
1.3331782
1.333177
1.3331763
1.3331759
1.3331753
1.333174
1.3331708
1.3331616
1.3331344
1.3330543
1.3328247
1.332179
1.3304232
1.3256952
1.3163758
1.3061968
1.2964715
1.2879814
1.2810882
1.275827
1.2720247
1.2694095
1.267692
1.2666127
1.2659637
1.265591
1.2653878
1.2652839
1.2652354
1.2652162
1.2652111
1.2652114
1.2652148
1.2652217
1.2652281
1.2652343
1.2652408
1.2652476
1.2652548
1.2652622
1.2652695
1.2652765
1.265283
1.2652889
1.2652941
1.2652985
1.2653021
1.2653051
1.2653074
1.2653094
1.2653111
1.2653128
1.2653144
1.265316
1.2653176
1.2653193
1.2653209
1.2653225
1.2653241
1.2653256
1.2653271
1.2653285
1.2653299
1.2653312
1.2653324
1.2653336
1.2653349
1.2653363
1.2653377
1.2653393
1.265341
1.2653428
1.2653447
1.2653468
1.265349
1.2653514
1.2653538
1.2653562
1.2653586
1.265361
1.2653633
1.2653655
1.2653677
1.2653698
1.2653717
1.2653735
1.2653752
1.2653768
1.2653783
1.2653796
1.265381
1.2653823
1.2653835
1.2653846
1.2653857
1.2653867
1.2653876
1.2653885
1.2653892
1.26539
1.2653908
1.2653915
1.2653923
1.265393
1.2653937
1.2653944
1.265395
1.2653956
1.2653963
1.265397
1.2653976
1.2653982
1.2653987
1.2653992
1.2653998
1.2654003
1.2654008
1.2654013
1.2654018
1.2654023
1.2654028
1.2654032
1.2654037
1.2654042
1.2654046
1.265405
1.2654055
1.2654059
1.2654064
1.2654068
1.2654073
1.2654076
1.265408
1.2654084
1.2654087
1.2654091
1.2654095
1.2654099
1.2654102
1.2654105
1.2654109
1.2654112
1.2654115
1.2654118
1.2654121
1.2654125
1.2654129
1.2654132
1.2654135
1.2654138
1.2654141
1.2654144
1.2654147
1.2654151
1.2654154
1.2654157
1.2654159
1.2654162
1.2654164
1.2654167
1.2654169
1.2654172
1.2654175
1.2654178
1.265418
1.2654183
1.2654185
1.2654188
1.265419
1.2654193
1.2654195
1.2654197
1.26542
1.2654202
1.2654205
1.2654207
1.2654209
1.2654211
1.2654213
1.2654216
1.2654218
1.2654221
1.2654223
1.2654225
1.2654226
1.2654228
1.2654231
1.2654233
1.2654235
1.2654237
1.2654239
1.2654241
1.2654242
1.2654244
1.2654246
1.2654248
1.265425
1.2654252
1.2654254
1.2654255
1.2654257
1.2654259
1.2654261
1.2654263
1.2654265
1.2654267
1.2654269
1.265427
1.2654272
1.2654273
1.2654275
1.2654276
1.2654278
1.265428
1.2654281
1.2654283
1.2654285
1.2654286
1.2654288
1.2654289
1.2654291
1.2654292
1.2654294
1.2654295
1.2654296
1.2654298
1.26543
1.2654302
1.2654303
1.2654305
1.2654307
1.2654308
1.2654309
1.2654311
1.2654312
1.2654313
1.2654315
1.2654316
1.2654318
1.2654319
1.2654321
1.2654322
1.2654323
1.2654324
1.2654325
1.2654326
1.2654328
1.2654329
1.265433
1.2654331
1.2654332
1.2654334
1.2654335
1.2654336
1.2654337
1.2654338
1.265434
1.2654341
1.2654342
1.2654343
1.2654344
1.2654344
1.2654345
1.2654346
1.2654347
1.2654348
1.2654349
1.265435
1.2654351
1.2654352
1.2654353
1.2654354
1.2654355
1.2654355
1.2654356
1.2654356
1.2654357
1.2654358
1.2654359
1.265436
1.2654361
1.2654362
1.2654362
1.2654363
1.2654364
1.2654365
1.2654365
1.2654366
1.2654367
1.2654367
1.2654368
1.2654369
1.2654369
1.265437
1.265437
1.2654371
1.2654371
1.2654372
1.2654373
1.2654374
1.2654374
1.2654375
1.2654376
1.2654376
1.2654377
1.2654377
1.2654378
1.2654379
1.2654379
1.2654379
1.265438
1.265438
1.265438
1.2654381
1.2654382
1.2654382
1.2654383
1.2654383
1.2654384
1.2654384
1.2654385
1.2654385
1.2654386
1.2654386
1.2654386
1.2654386
1.2654387
1.2654388
1.2654388
1.2654389
1.265439
1.265439
1.265439
1.2654391
1.2654391
1.2654391
1.2654392
1.2654392
1.2654392
1.2654393
1.2654393
1.2654394
1.2654395
1.2654395
1.2654396
1.2654396
1.2654396
1.2654397
1.2654398
1.2654398
1.2654399
1.2654399
1.26544
1.26544
1.2654401
1.2654402
1.2654402
1.2654403
1.2654403
1.2654404
1.2654404
1.2654405
1.2654405
1.2654406
1.2654408
1.2654409
1.2654409
1.265441
1.265441
1.2654411
1.2654411
1.2654413
1.2654414
1.2654416
1.2654417
1.2654418
1.2654419
1.265442
1.2654421
1.2654423
1.2654424
1.2654426
1.2654427
1.2654428
1.2654429
1.265443
1.2654432
1.2654433
1.2654435
1.2654437
1.2654439
1.265444
1.2654443
1.2654445
1.2654447
1.2654449
1.265445
1.2654452
1.2654454
1.2654456
1.2654458
1.265446
1.2654461
1.2654462
1.2654463
1.2654465
1.2654466
1.2654467
1.2654468
1.2654469
1.2654469
1.265447
1.265447
1.2654469
1.2654467
1.2654464
1.2654461
1.2654457
1.2654453
1.2654448
1.2654442
1.2654435
1.2654427
1.2654419
1.2654409
1.2654398
1.2654385
1.265437
1.2654354
1.2654336
1.2654316