/*--------------------------------*- C++ -*----------------------------------*\
  =========                 |
  \\      /  F ield         | OpenFOAM: The Open Source CFD Toolbox
   \\    /   O peration     | Website:  https://openfoam.org
    \\  /    A nd           | Version:  7
     \\/     M anipulation  |
\*---------------------------------------------------------------------------*/
FoamFile
{
    version     2.0;
    format      ascii;
    class       volScalarField;
    location    "0.00155";
    object      Uz;
}
// * * * * * * * * * * * * * * * * * * * * * * * * * * * * * * * * * * * * * //

dimensions      [0 1 -1 0 0 0 0];

internalField   nonuniform List<scalar> 
5000
(
0
0
0
0
0
7.9601042e-18
1.6276231e-32
-2.189868e-17
-6.9519427e-18
1.3188554e-17
1.2460925e-17
-5.8651354e-18
4.6914467e-32
4.5321811e-32
-9.5806002e-18
8.8797093e-18
1.3445076e-46
3.2962512e-32
3.39045e-18
-6.0764323e-18
-2.6847672e-18
0
0
1.6214794e-18
-1.0801922e-32
7.5314289e-33
5.4901358e-19
-1.8123346e-19
1.6826528e-19
-5.2290414e-19
1.5370931e-32
-1.0459776e-32
-1.5777885e-18
1.9265412e-18
2.2716877e-18
0
0
-3.2988346e-18
-3.6373227e-18
3.9736584e-18
-7.223776e-32
-4.6403876e-18
4.9710425e-18
-8.9622055e-32
-5.6262115e-18
5.9505354e-18
-2.1571437e-31
2.2577231e-31
-2.3762499e-31
1.2320201e-31
7.5370868e-18
0
0
0
0
0
0
0
0
0
0
0
0
-1.133886e-17
-1.1609122e-17
1.1876222e-17
-2.0874873e-31
1.2465148e-47
1.2656846e-17
0
0
-1.3405561e-17
-1.3648176e-17
0
1.412218e-17
4.956614e-31
-1.4581283e-17
-1.4805529e-17
1.5026134e-17
3.0485848e-17
-3.0911681e-17
8.9045364e-33
4.761183e-17
-3.2145157e-17
-1.6925426e-30
3.2930323e-17
-4.9967453e-17
1.6842889e-17
1.702636e-17
-1.7206139e-17
1.7382175e-17
1.7554578e-17
6.1707031e-31
-3.5777634e-17
-1.2492233e-30
-1.8208702e-17
-1.8363296e-17
-6.4987355e-31
1.2995161e-30
3.76135e-17
1.8947784e-17
-1.9085461e-17
2.7312995e-33
1.9350881e-17
0
-1.960329e-17
-6.8674828e-31
1.9843109e-17
-1.9958435e-17
-2.0070782e-17
4.0360356e-17
2.0286673e-17
-6.117088e-17
-2.0491103e-17
6.1767424e-17
-2.0684472e-17
-2.0777128e-17
-1.1861615e-32
-2.0954639e-17
6.311873e-17
-1.4767961e-30
-4.2404014e-17
4.2559257e-17
2.1354974e-17
-2.1428095e-17
2.1499047e-17
-2.1567838e-17
-4.3269044e-17
2.1699141e-17
7.5148613e-31
2.1822504e-17
4.376274e-17
-2.193841e-17
-2.1993682e-17
-2.2047218e-17
-7.6941508e-31
-7.6801699e-31
7.7285987e-31
4.4490369e-17
2.2290832e-17
-2.2334966e-17
-4.4755202e-17
-2.2418726e-17
-2.2458368e-17
1.560111e-30
4.506647e-17
-6.4143474e-33
6.4239517e-33
-1.4342236e-47
2.2665457e-17
-1.5738665e-30
3.1645358e-30
2.2749534e-17
-2.2774837e-17
2.2798848e-17
7.9132935e-31
-2.2843357e-17
2.2864052e-17
-3.2519865e-33
-2.2902768e-17
0
2.2938542e-17
1.5886832e-30
-4.5944352e-17
2.2988428e-17
-6.5382515e-33
-2.3020236e-17
2.3035939e-17
-2.305157e-17
2.3067183e-17
-9.6177239e-30
-6.4074011e-30
2.3114043e-17
-4.6259507e-17
0
-1.6062232e-30
-4.8220022e-30
2.3193609e-17
2.3209825e-17
1.600805e-30
-2.3242407e-17
2.325873e-17
1.6008727e-30
9.9297614e-33
3.2294538e-30
-4.6649023e-17
2.3341145e-17
2.3357888e-17
-1.6077259e-30
1.6122152e-30
-4.8667787e-30
1.6178984e-30
-2.3443035e-17
0
0
0
0
-2.3530578e-17
4.9092302e-30
2.3566585e-17
2.3584843e-17
-2.3603297e-17
-2.3621936e-17
4.728154e-17
1.6374173e-30
-4.9162255e-30
-2.3698179e-17
-2.3717674e-17
2.3737399e-17
0
2.3777607e-17
1.6469894e-30
-2.3818744e-17
-2.3839683e-17
3.323016e-30
2.3882284e-17
-4.7807775e-17
2.3925675e-17
2.3947644e-17
-2.396986e-17
2.3992335e-17
0
0
0
2.4084336e-17
-2.4107689e-17
-4.8262389e-17
2.4154871e-17
-1.6802021e-30
2.4202559e-17
2.4226492e-17
-4.8500977e-17
6.8992508e-33
-6.9061359e-33
2.4323158e-17
2.4347604e-17
-4.8744194e-17
3.4669677e-33
-5.0876898e-30
2.4445788e-17
-1.358994e-29
-3.3974475e-30
2.4520174e-17
-2.4545108e-17
0
-2.4595214e-17
2.4620471e-17
2.4645896e-17
-2.4671456e-17
0
-2.4722758e-17
2.4748463e-17
2.4774262e-17
-8.609919e-30
-4.9652643e-17
-4.9705064e-17
7.4636293e-17
4.9809952e-17
0
-4.9914895e-17
-2.4983819e-17
2.5010284e-17
2.5036767e-17
2.5063192e-17
-5.0179059e-17
-5.0231608e-17
2.5142079e-17
5.0336794e-17
6.9889161e-30
-5.0442051e-17
2.5247202e-17
-3.5053472e-30
-2.529919e-17
5.0650193e-17
-2.5351008e-17
3.5341489e-30
2.5402706e-17
-2.5428365e-17
2.5453858e-17
-5.0958431e-17
1.0641258e-29
5.1059447e-17
-5.1109728e-17
-1.7703007e-30
2.5604604e-17
0
0
2.5677614e-17
-2.5701593e-17
-5.1450703e-17
2.574884e-17
-7.3248514e-33
2.5794912e-17
2.5817481e-17
-2.5839724e-17
0
-2.5883174e-17
-2.5904379e-17
0
5.1891407e-17
2.5965746e-17
-5.1970661e-17
1.7996875e-30
-7.3962344e-33
2.6041526e-17
2.6059479e-17
-2.6077e-17
2.6094043e-17
-2.6110594e-17
1.4851295e-32
5.2284636e-17
-2.6157555e-17
-2.6172389e-17
-2.6186803e-17
-3.6339942e-30
2.6214313e-17
0
0
-2.6252378e-17
3.6465353e-30
-7.2925442e-30
-3.6534301e-30
2.6297903e-17
-2.6308422e-17
3.7400982e-33
2.6328448e-17
0
0
0
0
0
0
0
-2.6397704e-17
0
2.6412929e-17
0
-2.6427495e-17
-7.3328326e-30
2.644142e-17
0
0
-2.6461059e-17
-3.6747188e-30
2.6473354e-17
0
0
-2.6490687e-17
-2.6496153e-17
2.650143e-17
2.650649e-17
0
-2.6515892e-17
3.7687517e-33
2.6524344e-17
-2.6528232e-17
-2.6531891e-17
2.6535308e-17
2.6538463e-17
0
-2.6543918e-17
-2.6546209e-17
2.6548221e-17
2.6549967e-17
0
-2.6552694e-17
-2.6553673e-17
2.6554382e-17
2.6554807e-17
0
0
0
0
0
0
0
0
-2.6548835e-17
4.3211237e-49
2.6545591e-17
0
0
0
-2.653783e-17
-3.6804496e-30
2.6533558e-17
-2.653136e-17
3.6833071e-30
-3.7697004e-33
-3.6826875e-30
2.6522452e-17
-2.6520247e-17
2.6518074e-17
-1.4733439e-29
-2.6513878e-17
2.6511858e-17
0
0
-2.6506065e-17
-3.679849e-30
2.6502466e-17
-2.650077e-17
-2.6499141e-17
0
2.6496034e-17
2.6494536e-17
-2.6493064e-17
-7.35243e-30
-1.4113017e-49
-3.6777024e-30
2.6487358e-17
-2.6485931e-17
5.3492704e-49
-3.6768996e-30
-2.6481456e-17
0
0
2.6476555e-17
3.7622952e-33
-1.1015235e-29
2.6471025e-17
0
0
-2.6464637e-17
7.3367805e-30
2.6459929e-17
0
0
0
-2.6449258e-17
3.7582492e-33
2.6443312e-17
-2.6440215e-17
2.6437037e-17
-7.3476472e-30
-5.2860887e-17
2.6427046e-17
1.1005963e-29
3.668172e-30
-3.6676867e-30
-2.6413116e-17
0
0
2.6402426e-17
3.6652166e-30
-7.3256921e-30
6.6500734e-50
-2.6388265e-17
2.6384836e-17
2.6381462e-17
0
-2.6374888e-17
-3.6614475e-30
2.6368575e-17
0
0
-2.6359705e-17
7.4910869e-33
2.5800181e-50
-2.6351586e-17
2.6349033e-17
-3.6504694e-30
3.6576252e-30
-7.3108646e-30
-2.6339615e-17
2.6337445e-17
-7.3127969e-30
7.3159642e-30
-7.3154003e-30
-2.6329237e-17
2.6327276e-17
-7.3100227e-30
3.6622253e-30
0
-2.6319539e-17
2.6317583e-17
-3.6536609e-30
3.7393904e-33
-3.6531037e-30
3.6565555e-30
2.6307405e-17
-2.6305208e-17
-2.6302941e-17
2.6300607e-17
2.6298207e-17
0
-2.6293183e-17
-2.6290538e-17
0
2.6284965e-17
-3.6490004e-30
3.7344764e-33
3.6444201e-30
-2.627276e-17
2.6269465e-17
3.6430493e-30
-7.2925946e-30
-2.6259007e-17
-2.6255372e-17
5.2503338e-17
-3.7300495e-33
3.639993e-30
2.6240095e-17
-2.6236097e-17
3.64206e-30
2.6227984e-17
0
0
0
-2.6211375e-17
-2.6207159e-17
2.6202944e-17
2.6198742e-17
0
-2.6190405e-17
-2.6186277e-17
2.6182186e-17
2.6178142e-17
0
-2.6170235e-17
-2.6166386e-17
2.6162615e-17
7.2638129e-30
-2.6155322e-17
0
0
0
0
2.6138767e-17
-7.2499538e-30
-2.6132869e-17
2.6130075e-17
3.6275272e-30
-3.6308796e-30
1.7663249e-50
2.6119887e-17
2.6117573e-17
-5.2230692e-17
-3.625558e-30
3.6215596e-30
-2.6109119e-17
0
2.6105256e-17
2.6103384e-17
-2.6101541e-17
-7.239955e-30
2.6097914e-17
0
0
-2.6092516e-17
3.6187259e-30
2.6088849e-17
0
-2.6085028e-17
3.706623e-33
-7.2421747e-30
-3.6170906e-30
2.6076756e-17
-2.6074545e-17
3.7050913e-33
-7.2390928e-30
-2.6067459e-17
2.6064939e-17
7.2369957e-30
3.7033054e-33
-3.6177521e-30
-2.6054196e-17
2.6051345e-17
0
-1.4460897e-29
-3.6120254e-30
-1.0834785e-29
-3.6999578e-33
-2.6032958e-17
2.6029752e-17
2.2526398e-49
-3.613073e-30
7.2252388e-30
-3.612163e-30
5.2026842e-17
-2.6010115e-17
-2.6006818e-17
-3.6103328e-30
3.6098814e-30
5.1994135e-17
-2.5993879e-17
-2.5990724e-17
4.9697571e-50
0
4.4829899e-50
-2.597857e-17
2.5975668e-17
3.6409749e-50
-3.6019913e-30
-3.6901775e-33
-2.5964647e-17
5.1924071e-17
7.2084316e-30
-2.5956987e-17
3.5998429e-30
-3.599513e-30
2.5949849e-17
-2.5947574e-17
-2.9746819e-50
-1.0809534e-29
7.2069866e-30
-7.1990252e-30
-7.2021301e-30
3.4387417e-52
0
2.5930632e-17
0
0
-2.5924577e-17
-7.1981775e-30
2.592052e-17
0
0
-5.1828581e-17
-2.1571143e-29
5.181999e-17
-2.59078e-17
3.6814033e-33
-3.5964169e-30
-2.5901009e-17
0
0
0
-2.5891356e-17
-7.1814559e-30
2.5886268e-17
0
0
-2.5878321e-17
3.6771447e-33
2.5872867e-17
0
0
-2.5864497e-17
-7.1739159e-30
-7.1841463e-30
7.1796755e-30
2.585306e-17
-2.5850202e-17
7.1736209e-30
-7.1728296e-30
7.1683676e-30
2.5838819e-17
0
0
-2.5830477e-17
-8.1049325e-49
2.5825064e-17
0
0
-2.5817203e-17
-3.7796887e-49
2.5812164e-17
0
0
-2.5804933e-17
-2.1142883e-49
2.5800326e-17
0
0
-2.5793699e-17
3.6652019e-33
2.5789467e-17
-2.5787403e-17
7.1637474e-30
-7.1631879e-30
7.15897e-30
2.5779379e-17
0
0
0
0
0
-2.5767597e-17
7.1509312e-30
2.5763575e-17
0
0
0
0
0
0
0
-2.5746368e-17
1.4289892e-29
2.5741644e-17
0
0
0
0
0
0
0
-2.572055e-17
7.1376296e-30
2.5714724e-17
0
0
-2.5705581e-17
7.1407116e-30
2.5699283e-17
0
0
0
-2.5686205e-17
-7.1352689e-30
2.5679501e-17
0
0
0
0
0
0
0
-2.565242e-17
3.6449531e-33
2.5645758e-17
0
0
0
0
0
0
0
-2.5620421e-17
-3.6404588e-33
2.561453e-17
0
0
0
-2.5603432e-17
1.4214028e-29
2.5598223e-17
0
-2.5593224e-17
-7.1096947e-30
2.5588444e-17
0
0
-2.5581651e-17
-2.5579476e-17
2.5577341e-17
2.5575241e-17
0
0
0
0
2.5565192e-17
-3.6327558e-33
-5.1122623e-17
-2.5559386e-17
5.1114934e-17
5.11111e-17
-2.5553631e-17
-2.5551707e-17
0
0
0
0
-2.5541944e-17
-7.0955621e-30
2.5537913e-17
0
0
0
0
0
0
0
0
0
0
0
0
0
0
-2.5504752e-17
1.416301e-29
2.5500008e-17
0
0
2.5492812e-17
-7.0781783e-30
3.6220635e-33
-2.5485618e-17
-2.5483243e-17
-1.4147445e-29
7.0784983e-30
2.5476166e-17
0
0
0
0
0
-2.5462466e-17
1.4135998e-29
2.545808e-17
0
0
0
0
0
0
0
-2.5441646e-17
1.4120969e-29
2.5437789e-17
0
0
0
0
0
0
0
-2.5423092e-17
2.1169745e-29
2.5419518e-17
0
0
0
0
0
0
0
0
-2.5402961e-17
3.6097024e-33
2.539905e-17
0
0
0
0
-2.5388697e-17
2.5386509e-17
2.5384273e-17
-5.0763973e-17
-7.0474252e-30
2.537728e-17
0
0
0
0
-2.5364676e-17
7.0389166e-30
5.0718512e-17
-2.535647e-17
-2.5353641e-17
2.5350768e-17
0
0
0
-2.5338693e-17
-7.0279837e-30
2.5332424e-17
2.5329207e-17
-2.5325901e-17
-2.5322528e-17
2.5319156e-17
0
0
-2.5309062e-17
-2.5305423e-17
2.530166e-17
2.5297978e-17
2.529453e-17
1.4045794e-29
-2.528793e-17
0
0
0
-2.5271627e-17
-2.5268857e-17
2.5266141e-17
2.5262421e-17
2.5257534e-17
7.0084453e-30
-2.5247463e-17
0
0
0
-2.5237915e-17
7.0035805e-30
2.5229869e-17
0
0
0
0
0
0
0
-2.5195895e-17
6.9919269e-30
5.0380385e-17
6.9941795e-30
-2.5185146e-17
0
0
-2.5174248e-17
3.5769079e-33
-6.988219e-30
6.9837199e-30
2.5160339e-17
2.5158092e-17
-6.9852923e-30
-2.5153045e-17
0
0
-2.5143028e-17
2.0936055e-29
6.9769286e-30
-3.5720929e-33
2.513351e-17
-2.5130515e-17
-2.5127932e-17
5.0251432e-17
-1.3938378e-29
-2.5121593e-17
2.5119682e-17
0
-2.5115089e-17
-6.9766878e-30
2.5109116e-17
0
-2.5105639e-17
2.5104774e-17
-2.7875545e-29
-2.5100601e-17
2.5097558e-17
0
-2.5093294e-17
0
2.5089898e-17
0
-2.5085378e-17
2.5083412e-17
-1.3915194e-29
-2.5080537e-17
2.5079094e-17
0
-2.5074542e-17
-6.9620769e-30
2.5070569e-17
0
-2.5068432e-17
2.5066223e-17
-7.1233299e-33
-2.5059793e-17
2.505767e-17
0
-2.5056647e-17
-2.5054629e-17
2.5050692e-17
2.5046398e-17
-2.5043626e-17
2.5042929e-17
2.5043225e-17
-2.5042383e-17
0
0
0
0
0
0
-2.5023546e-17
-9.0881131e-50
5.0032932e-17
-2.501357e-17
-2.5011271e-17
2.500906e-17
0
0
-2.4998893e-17
-2.4995709e-17
2.4993472e-17
2.4991683e-17
0
-2.4984966e-17
-6.9400552e-30
2.4976385e-17
0
0
-2.4970134e-17
-2.4967042e-17
2.4963305e-17
2.4959577e-17
0
-2.4951504e-17
6.9272811e-30
2.4942741e-17
-2.4939258e-17
-1.3848828e-29
-3.5433562e-33
-2.4931012e-17
2.4927414e-17
2.4923761e-17
0
0
-2.491209e-17
6.912855e-30
2.4903737e-17
0
-2.4896573e-17
-2.4893165e-17
2.4889765e-17
2.4886193e-17
0
0
0
0
0
0
-2.4858328e-17
6.8981357e-30
2.4851088e-17
0
0
0
0
0
0
-2.4821525e-17
-2.1635044e-50
2.4816077e-17
2.4811954e-17
6.8814367e-30
-2.4802395e-17
0
0
0
0
-2.4781878e-17
-6.8770114e-30
2.4775122e-17
-2.4771449e-17
-2.4767429e-17
2.4762732e-17
-1.3742362e-29
-2.0613102e-29
-2.0602866e-29
6.875037e-30
-1.3741482e-29
6.8662558e-30
2.4736065e-17
0
-2.4728332e-17
2.0585382e-29
-3.5127423e-33
-2.4713834e-17
2.4709922e-17
2.4707347e-17
-2.4705451e-17
6.8560292e-30
-2.0557942e-29
-1.3710928e-29
-1.369792e-29
6.8478318e-30
-1.370065e-29
-2.4679102e-17
2.467586e-17
2.467269e-17
-2.4669537e-17
6.8423476e-30
-2.7379852e-29
-6.8440581e-30
6.8466467e-30
6.8387202e-30
6.8413239e-30
-2.4646962e-17
0
2.4641068e-17
-6.8379694e-30
-2.6988517e-49
2.4631744e-17
0
-2.4626909e-17
2.4624298e-17
2.4620752e-17
-2.4617e-17
0
0
0
0
-2.4607474e-17
6.8285118e-30
-1.3658571e-29
2.4597293e-17
2.4594694e-17
-2.4592428e-17
0
0
0
0
-2.4582371e-17
-3.4930575e-33
2.4577961e-17
0
0
0
0
0
0
0
-2.4561791e-17
-2.4561295e-17
2.4560278e-17
2.4558032e-17
0
0
0
0
0
0
-2.4542342e-17
-2.4540573e-17
2.4538818e-17
2.4536991e-17
0
0
0
0
0
0
-2.4522195e-17
-2.4519182e-17
2.4516989e-17
2.4515995e-17
0
0
0
0
0
0
-2.4499355e-17
1.3601131e-29
2.4494047e-17
0
0
0
0
0
0
-2.4476864e-17
6.7956624e-30
2.4469622e-17
0
0
0
0
-2.4456034e-17
-3.4750135e-33
2.4450343e-17
-2.4447357e-17
-6.1069876e-50
2.4441207e-17
-2.4438075e-17
1.357018e-29
2.4431721e-17
-2.4428477e-17
-1.3561307e-29
-1.3559471e-29
-1.188962e-48
-1.3552263e-29
-6.7716902e-30
2.4408109e-17
-2.4404688e-17
-2.4401443e-17
4.8796763e-17
-1.3534258e-29
-4.878314e-17
0
2.438383e-17
-6.7699073e-30
-6.7724203e-30
-2.0290118e-29
-2.0290581e-29
-1.3518086e-29
2.0284442e-29
-1.3517472e-29
6.7663821e-30
2.4351441e-17
0
-2.4344044e-17
-3.4589658e-33
-2.025951e-29
-2.0259861e-29
3.4573762e-33
1.3502459e-29
-6.7536524e-30
-2.4317887e-17
0
2.4310304e-17
-1.349215e-29
-3.4537311e-33
2.4299622e-17
0
-2.429074e-17
2.4287205e-17
2.4284743e-17
-2.428214e-17
0
0
-2.4269165e-17
2.6941389e-29
-1.346003e-29
1.3468477e-29
-6.7385436e-30
2.4251679e-17
2.4247991e-17
-2.424412e-17
0
0
0
0
-2.4228349e-17
-6.7265927e-30
-2.6888397e-29
2.4217025e-17
2.4213848e-17
-2.4210893e-17
0
0
0
0
-2.4195244e-17
-2.419331e-17
2.419119e-17
2.4187918e-17
0
0
0
0
0
0
-2.4167288e-17
-2.4164263e-17
2.4161046e-17
2.4158397e-17
0
0
0
0
0
0
-2.4141011e-17
2.0101771e-29
4.8273806e-17
-2.4134943e-17
-7.239754e-17
-2.4129715e-17
0
4.8251702e-17
-2.6789135e-29
-8.0334076e-29
-2.4120139e-17
-4.8233895e-17
4.8228786e-17
-2.4112315e-17
-2.4110428e-17
2.4108653e-17
-2.4106926e-17
3.4255277e-33
2.4102762e-17
2.4100569e-17
-2.4098808e-17
-2.4097598e-17
2.409619e-17
-2.4093985e-17
-3.4235968e-33
2.4088703e-17
0
0
0
4.8163465e-17
-2.4080675e-17
-4.8156149e-17
2.4074914e-17
-2.4071985e-17
-2.4069641e-17
4.8136184e-17
-6.4341342e-49
-2.4066351e-17
2.4063597e-17
4.8120992e-17
2.4057872e-17
-7.216707e-17
2.4053782e-17
-1.6404079e-48
-7.2151444e-17
4.8096722e-17
2.4045961e-17
2.4043295e-17
4.8080916e-17
-4.8075689e-17
-2.4035833e-17
-2.403462e-17
2.4032925e-17
2.4029827e-17
-7.2079257e-17
2.4023392e-17
2.4020782e-17
-2.4018527e-17
-2.4016814e-17
-3.4127171e-33
7.2035988e-17
-2.4008836e-17
3.9968374e-29
-3.9977352e-29
-7.2001074e-17
2.399793e-17
2.3995682e-17
4.7986332e-17
-2.3990177e-17
-4.797384e-17
4.7966996e-17
-2.3980123e-17
2.3977281e-17
2.3975405e-17
-7.1919573e-17
2.3969568e-17
2.3965482e-17
-4.7923584e-17
-2.3958616e-17
2.3955653e-17
7.1858745e-17
-2.3950104e-17
-9.5787488e-17
1.3290369e-29
4.7879407e-17
2.3936048e-17
0
4.785807e-17
5.311694e-29
-7.1770483e-17
2.3919657e-17
-5.3099112e-29
2.3911014e-17
2.3907436e-17
-4.7809185e-17
0
0
0
-2.3889516e-17
1.3262092e-29
4.7765873e-17
-2.3879042e-17
-4.7749925e-17
7.1613351e-17
-7.9490159e-29
-4.7727889e-17
2.3859765e-17
0
0
0
4.7688777e-17
-2.3840051e-17
-4.7671418e-17
7.1495095e-17
-6.7723272e-33
-4.7648326e-17
0
0
-2.3811288e-17
1.321836e-29
4.7607389e-17
-2.379945e-17
-4.7589868e-17
7.1371983e-17
-3.9603882e-29
-4.7566607e-17
2.3779163e-17
-2.3774403e-17
4.753986e-17
2.3766366e-17
-7.9135763e-29
-2.3759326e-17
-4.7508212e-17
7.1247799e-17
-1.3497912e-32
-2.3743016e-17
1.3177175e-29
-2.3734328e-17
-2.3729502e-17
1.3169695e-29
7.1168942e-17
-6.7414949e-33
-7.1145156e-17
4.7421277e-17
3.9842937e-48
-4.7407386e-17
2.3700114e-17
-2.3696188e-17
4.7384726e-17
2.3688822e-17
-5.2595e-29
-2.3681506e-17
-4.7356338e-17
-2.3674602e-17
-2.3670708e-17
7.1001322e-17
0
-2.3660506e-17
-1.3131459e-29
1.3129673e-29
-1.3124585e-29
2.3647477e-17
-2.6248678e-29
2.3641203e-17
-7.8726159e-29
-7.0905527e-17
4.7264335e-17
7.0888189e-17
2.3626601e-17
-7.0870985e-17
-4.7241718e-17
7.0855002e-17
-2.3615716e-17
-7.0838636e-17
0
0
2.3605534e-17
2.3602764e-17
0
-2.3598265e-17
-2.3596021e-17
4.718641e-17
-5.237867e-29
-7.0767647e-17
2.6185415e-29
2.3584238e-17
2.3581735e-17
2.3580458e-17
-2.3578766e-17
-2.35759e-17
2.3573491e-17
7.0716919e-17
-2.3570832e-17
-9.4273174e-17
2.3566063e-17
4.712943e-17
2.3563269e-17
0
-2.3559387e-17
0
-2.3556463e-17
2.3554637e-17
-5.2294642e-29
2.3551478e-17
-7.8432102e-29
-7.0644637e-17
2.3546565e-17
2.3545123e-17
-2.3543593e-17
-2.3541882e-17
2.3540268e-17
7.0616453e-17
-2.3537264e-17
-9.4142204e-17
3.9196059e-29
2.3532464e-17
4.7061729e-17
2.3529104e-17
-4.7054926e-17
-1.3058696e-29
-3.3430034e-33
2.352246e-17
-5.2223299e-29
-2.3519228e-17
7.0552385e-17
-2.6105846e-29
-4.7027737e-17
0
0
-2.3508391e-17
1.3047995e-29
4.7010144e-17
-2.3503055e-17
-4.7001775e-17
-2.3499184e-17
2.6079265e-29
7.0486228e-17
2.3492923e-17
-2.3491194e-17
4.6979576e-17
-1.3351099e-32
-7.8221515e-29
-2.3482592e-17
-4.696154e-17
7.0436631e-17
-2.6069617e-29
-4.694949e-17
0
0
4.6936151e-17
-5.21007e-29
-2.6040941e-29
-6.6680926e-33
-7.0375934e-17
-4.691079e-17
3.9061203e-29
7.0352106e-17
2.344835e-17
-2.3446024e-17
4.6886983e-17
2.6016272e-29
-7.8053598e-29
-2.3435701e-17
-4.6865997e-17
7.0290989e-17
-2.3427666e-17
-2.3424823e-17
2.3422056e-17
-2.3419727e-17
4.6833474e-17
-2.599223e-29
-2.3410416e-17
-3.326431e-33
-4.6809596e-17
4.6804097e-17
-3.8958305e-29
-4.6792437e-17
2.339331e-17
0
-2.3387314e-17
-1.297674e-29
7.0143878e-17
-2.33782e-17
-4.6750222e-17
-2.3372108e-17
-2.3368929e-17
2.3365735e-17
2.3362952e-17
2.3359681e-17
-2.3355928e-17
1.296254e-29
-1.2957569e-29
2.3346707e-17
-2.5921639e-29
2.3340496e-17
-7.7723784e-29
-7.0002281e-17
4.6661815e-17
6.3136473e-49
-2.3324435e-17
-2.5886796e-29
1.2946547e-29
6.994397e-17
-2.3311481e-17
-6.9924473e-17
0
0
2.3298194e-17
2.3294755e-17
4.6582892e-17
-2.3288167e-17
-4.6569681e-17
4.6563046e-17
-2.3278185e-17
-6.982443e-17
2.3271442e-17
2.3268078e-17
2.3264677e-17
2.3261273e-17
-4.6515799e-17
-2.3254484e-17
2.325107e-17
6.9743338e-17
-2.3244372e-17
-1.0403035e-47
-3.8689068e-29
-4.6468464e-17
4.6462008e-17
4.6455611e-17
-2.3224616e-17
-4.6442858e-17
4.6436526e-17
2.3215101e-17
-6.9635745e-17
-6.9626102e-17
2.3205453e-17
4.6404302e-17
2.3198795e-17
-1.2875209e-29
-4.6383917e-17
-2.3188487e-17
2.3185009e-17
4.636304e-17
-3.293795e-33
-4.6349092e-17
4.6342174e-17
-3.8585971e-29
-4.6328371e-17
2.3160747e-17
4.6314621e-17
4.6307743e-17
0
-2.3146979e-17
-6.9430567e-17
-2.3140046e-17
2.3136568e-17
0
0
0
0
-2.3118991e-17
1.2830824e-29
6.9336023e-17
-2.3108562e-17
-6.9315421e-17
-2.3101845e-17
3.8470981e-29
4.6190776e-17
2.3092285e-17
-2.3089206e-17
4.6172156e-17
2.3082909e-17
-7.6872368e-29
-2.3076196e-17
-4.6145143e-17
6.9206877e-17
-6.5554602e-33
-2.3060907e-17
3.2766388e-33
-2.3053524e-17
-2.3049648e-17
2.5584548e-29
6.9126684e-17
-6.5479146e-33
-6.9103998e-17
-4.6061696e-17
1.2775179e-29
4.6046217e-17
2.3019213e-17
-2.3015258e-17
4.6022564e-17
2.3007333e-17
-7.6604899e-29
-2.2999213e-17
-4.599056e-17
6.8973441e-17
-2.5525519e-29
-2.2982929e-17
-2.2978688e-17
-2.2974238e-17
-1.2743451e-29
1.2744211e-29
4.5921824e-17
1.2739529e-29
-4.5906188e-17
4.5899294e-17
-1.1463913e-28
-6.8828476e-17
4.5877716e-17
-2.5467355e-29
-4.5860948e-17
2.2927149e-17
2.2924547e-17
4.584412e-17
-2.2919384e-17
-6.8750917e-17
0
0
0
6.8738092e-17
6.874512e-17
-6.8767226e-17
-6.8792827e-17
4.5856235e-17
-6.5161542e-33
2.2924796e-17
-7.6377886e-29
-6.8712243e-17
6.8609058e-17
-1.1428492e-28
-4.5750204e-17
-1.2695257e-29
1.2702657e-29
4.5759739e-17
-2.2880581e-17
2.288079e-17
-7.6215492e-29
-6.8639162e-17
6.8635473e-17
2.2876844e-17
-5.078905e-29
4.5744915e-17
-4.5739608e-17
-2.2866898e-17
-2.2863776e-17
-6.8581414e-17
2.5374761e-29
2.2853435e-17
6.8549266e-17
-1.5217517e-28
-6.8526529e-17
0
2.2834414e-17
4.5660989e-17
-2.2826564e-17
2.282263e-17
-7.5996674e-29
-4.5629554e-17
6.8432597e-17
-5.0631925e-29
-2.5327863e-29
-2.5310624e-29
-2.5306372e-29
2.2791606e-17
-6.8363468e-17
-6.8352193e-17
2.2780331e-17
4.5553248e-17
0
-2.2769286e-17
2.5266864e-29
-5.0538652e-29
2.5265342e-29
2.2754887e-17
-2.2751344e-17
-2.2747821e-17
6.8232953e-17
1.0135258e-47
-3.7869356e-29
2.2733913e-17
-2.5221367e-29
4.5454127e-17
-4.5447321e-17
-4.5440542e-17
-2.2716894e-17
2.5212243e-29
2.2710181e-17
0
0
0
4.5393773e-17
-2.2693587e-17
-4.5380597e-17
6.806105e-17
-2.2683741e-17
-6.8041417e-17
6.8031634e-17
-7.5514621e-29
-4.5341427e-17
6.8002416e-17
4.5328469e-17
0
-4.5315552e-17
-7.5443561e-29
-2.265134e-17
-4.5296254e-17
2.2644917e-17
0
4.5277028e-17
6.4333445e-33
2.5125099e-29
-2.2628934e-17
-6.7877239e-17
6.7867693e-17
-3.768572e-29
-6.7848626e-17
6.7839094e-17
-1.1297097e-28
-4.5213371e-17
2.260352e-17
-2.2600358e-17
4.5194396e-17
2.2594037e-17
-1.0031723e-28
-2.258772e-17
-4.5169132e-17
-2.2581417e-17
-2.257827e-17
4.515025e-17
2.2571979e-17
0
-2.2565692e-17
1.2527139e-29
3.1428774e-49
2.2556287e-17
-6.4099919e-33
2.2550021e-17
3.7681008e-48
-6.7631285e-17
6.7621915e-17
6.7612551e-17
-4.506879e-17
-4.5062543e-17
0
4.5050068e-17
-2.2521922e-17
-6.7556433e-17
6.7547098e-17
-3.7494988e-29
-4.5018953e-17
2.250637e-17
0
-2.2500165e-17
-2.2497063e-17
2.2493961e-17
-3.745241e-29
4.4975529e-17
1.2781056e-32
-6.7444742e-17
0
6.7426192e-17
4.4944614e-17
-6.7407661e-17
-4.4932276e-17
6.7389172e-17
2.2459978e-17
-8.982759e-17
-2.2453819e-17
4.4901485e-17
4.489534e-17
-2.4916917e-29
-2.2441533e-17
-2.2438466e-17
-2.2435401e-17
2.2432337e-17
-2.4899906e-29
4.485244e-17
-7.4679364e-29
-6.7260338e-17
0
0
4.4821935e-17
-4.9758774e-29
-2.2404886e-17
6.7205547e-17
-2.2398814e-17
-3.7287718e-29
-7.4578084e-29
-6.7169191e-17
2.2386708e-17
-1.2421467e-29
2.4845949e-29
2.2377663e-17
-2.2374655e-17
3.1792027e-33
-1.24163e-29
2.4826093e-29
2.2362657e-17
0
-2.2356682e-17
4.47074e-17
2.2350724e-17
-4.4695506e-17
0
2.2341822e-17
-2.2338859e-17
-4.4671801e-17
6.6998846e-17
-7.438179e-29
-7.4359314e-29
2.2324134e-17
-6.6963609e-17
3.1716178e-33
2.2315354e-17
2.2312437e-17
-2.2309526e-17
-2.2306622e-17
2.2303724e-17
0
-2.2297944e-17
4.4590124e-17
-3.7127907e-29
-2.2289315e-17
-4.9489026e-29
-4.9470009e-29
-6.3325663e-33
-4.4555782e-17
6.6825154e-17
6.6816653e-17
0
-4.4533138e-17
-6.6791262e-17
-3.1634707e-33
2.2258144e-17
2.2255348e-17
-2.2252559e-17
-2.2249777e-17
2.2247003e-17
0
4.4482946e-17
4.4477434e-17
-6.6707906e-17
-2.2233228e-17
2.2230496e-17
-6.317512e-33
-2.2225048e-17
-4.4444667e-17
-2.2219627e-17
3.7002567e-29
8.8856961e-17
-7.3974611e-29
-6.6626637e-17
2.2206207e-17
2.2203543e-17
2.2200888e-17
-2.2198241e-17
-2.2195602e-17
-2.2192969e-17
-6.3068744e-33
2.2187721e-17
-2.2185109e-17
6.6547518e-17
4.435982e-17
-6.6531964e-17
2.2174739e-17
4.4344326e-17
-4.433919e-17
2.2167036e-17
-2.2164485e-17
-4.4323881e-17
6.6478205e-17
-2.2156869e-17
7.379666e-29
6.6455486e-17
-4.4298645e-17
-2.2146824e-17
-2.214433e-17
-4.4283683e-17
2.213936e-17
-1.0903333e-73
4.4268842e-17
2.2131965e-17
-2.4567125e-29
-2.2127073e-17
-4.4249271e-17
4.4244408e-17
-2.211978e-17
-6.6352092e-17
6.6344867e-17
2.2112555e-17
-4.9692924e-48
2.2107771e-17
-6.6316166e-17
-2.2103014e-17
2.2100646e-17
4.4196571e-17
-2.2095931e-17
2.2093582e-17
-7.3573896e-29
-4.4177804e-17
6.6259718e-17
2.4529427e-29
-9.8069757e-29
4.9017195e-29
-4.4154632e-17
4.4150036e-17
-2.2072726e-17
-8.828176e-17
2.2068158e-17
4.4131761e-17
0
4.4122693e-17
-4.8977883e-29
-1.253786e-32
-2.4483945e-29
-2.2052345e-17
-2.2050108e-17
2.2047877e-17
2.2045652e-17
-4.4086862e-17
4.4082427e-17
-2.446664e-29
-4.4073586e-17
4.4069182e-17
7.3377917e-29
-2.4456871e-29
-2.2028012e-17
-4.4051656e-17
2.202365e-17
-2.2021476e-17
1.2222387e-29
2.2017136e-17
4.4029941e-17
-2.2012811e-17
-4.4021316e-17
2.200851e-17
-2.2006363e-17
3.6648292e-29
-2.2002074e-17
-4.8859046e-29
4.3995598e-17
4.3991339e-17
4.8826102e-29
-7.324771e-29
7.3240645e-29
-2.198718e-17
-2.1985062e-17
-2.1982947e-17
2.1980835e-17
0
0
-2.1974519e-17
1.2196361e-29
3.1221698e-33
2.4388061e-29
2.1966122e-17
0
-2.1961935e-17
-4.3919689e-17
2.1957755e-17
4.3911334e-17
4.390716e-17
4.3902988e-17
-6.5848226e-17
-7.3094599e-29
6.583573e-17
-4.3886324e-17
-4.3882161e-17
0
-2.1936919e-17
4.386968e-17
2.1932762e-17
-4.3861367e-17
-2.1928604e-17
2.4341774e-29
6.5773333e-17
-2.1922366e-17
-6.5760863e-17
6.5754627e-17
2.1916129e-17
-6.5742146e-17
2.43225e-29
2.1909886e-17
4.3815608e-17
2.4312452e-29
-4.3807271e-17
4.3803101e-17
-2.1899465e-17
-6.5692132e-17
0
2.1893196e-17
4.3782205e-17
-1.2156285e-29
2.1886915e-17
4.3769634e-17
-4.3765432e-17
-4.3761224e-17
0
-2.18764e-17
-2.4283789e-29
-2.4284553e-29
-2.4279097e-29
6.560384e-17
4.3731647e-17
0
-4.3723144e-17
-4.8528393e-29
-2.1857309e-17
-6.556551e-17
2.1853026e-17
-1.2125792e-29
3.1048908e-33
2.1846573e-17
4.368883e-17
-2.1842252e-17
-4.3680165e-17
2.1837908e-17
0
4.366709e-17
-2.1831357e-17
-6.5487488e-17
2.1826962e-17
2.1824755e-17
4.3645086e-17
-2.1820327e-17
-6.5454317e-17
2.1815878e-17
-2.4213358e-29
-4.3622795e-17
2.1809145e-17
2.1806886e-17
4.3609248e-17
6.540707e-17
-4.3600165e-17
-4.35956e-17
4.3591017e-17
2.4187578e-29
-4.3581798e-17
4.3577168e-17
2.4186062e-29
-4.356787e-17
0
4.355851e-17
4.3553804e-17
0
-6.5316506e-17
-2.1769789e-17
-6.1866682e-33
-2.1765011e-17
-2.176261e-17
-2.4150944e-29
4.351556e-17
4.3510702e-17
-7.2447119e-29
-4.3500937e-17
4.3496034e-17
7.2422619e-29
-4.3486176e-17
0
0
0
0
4.3461213e-17
2.4127655e-29
-4.3451119e-17
-2.1723022e-17
4.3440948e-17
-7.2342915e-29
-4.343071e-17
4.342557e-17
2.4107799e-29
-2.1707621e-17
4.3410052e-17
-7.2291302e-29
-4.3399626e-17
4.3394388e-17
4.3389135e-17
-4.3383868e-17
-4.3378587e-17
0
0
0
0
-2.1675979e-17
2.1673294e-17
2.1670603e-17
-2.4054668e-29
-1.0549463e-73
-2.1662492e-17
-4.3319549e-17
-2.165705e-17
4.3308636e-17
6.4954742e-17
-2.1648838e-17
-4.3292182e-17
6.4930012e-17
4.3281153e-17
-6.4913428e-17
-4.3270073e-17
-2.1632258e-17
-2.4012004e-29
4.3253369e-17
0
-2.1621086e-17
2.161828e-17
-4.7992911e-29
-6.1426855e-33
-7.1964446e-29
-2.1607e-17
-2.1604162e-17
6.1394637e-33
4.3196939e-17
4.3191235e-17
-7.1907598e-29
-4.3179791e-17
0
0
0
-2.157836e-17
-2.1575459e-17
2.157255e-17
2.1569634e-17
-2.156671e-17
4.3127553e-17
6.4682503e-17
0
-4.3109839e-17
-2.391981e-29
-2.1548963e-17
-6.4637909e-17
2.1542965e-17
-3.5868922e-29
4.3073832e-17
-1.4344746e-28
-4.3061622e-17
-1.1949529e-29
-3.0588362e-33
2.152154e-17
-2.1518416e-17
4.3030548e-17
2.1512112e-17
-4.3017858e-17
4.3011451e-17
6.1113783e-33
-2.3873548e-29
-2.149598e-17
-6.4478043e-17
4.2978706e-17
1.9485092e-49
2.1482612e-17
-3.5773866e-29
-4.2951503e-17
2.147227e-17
4.2937503e-17
-2.3823527e-29
-6.4384794e-17
6.0987199e-33
2.1454286e-17
-2.1450565e-17
4.289359e-17
2.1442975e-17
-4.2878207e-17
4.2870358e-17
2.37858e-29
-1.1894315e-28
4.7571822e-29
-4.2837829e-17
4.2829377e-17
-2.1410394e-17
-4.2812057e-17
2.1401592e-17
-2.139708e-17
4.2784975e-17
-3.5621661e-29
-6.4149142e-17
0
0
6.4104612e-17
2.1363064e-17
-4.2715638e-17
4.2704931e-17
1.2134364e-32
-9.4768851e-29
-2.3685881e-29
-4.265977e-17
4.2647864e-17
4.2635693e-17
-2.1311622e-17
-6.3915752e-17
-2.129873e-17
2.129206e-17
0
0
-2.1271091e-17
1.1803002e-29
6.3768733e-17
6.0391996e-33
-4.2481311e-17
-2.123257e-17
2.3556146e-29
6.3647343e-17
4.7086124e-29
-4.2396241e-17
0
-2.1179544e-17
4.2339788e-17
2.1159991e-17
-4.6965057e-29
-2.1139396e-17
-4.2257385e-17
2.111771e-17
0
0
0
0
-2.1058272e-17
1.1681808e-29
6.3096694e-17
-2.1018692e-17
-6.3014373e-17
6.2971558e-17
2.0975868e-17
-4.1921656e-17
-2.0945391e-17
-3.4849493e-29
6.2739858e-17
-1.1878339e-32
-6.9544065e-29
-2.086188e-17
-4.1687674e-17
-2.0825324e-17
-2.3092274e-29
2.0786843e-17
2.076685e-17
2.0746339e-17
2.07253e-17
-4.5968558e-29
-4.1363193e-17
0
0
-2.0611801e-17
-3.4279708e-29
-2.9220774e-33
2.9184278e-33
2.0510296e-17
4.0966676e-17
4.0911439e-17
-4.0854855e-17
-2.2656974e-29
-2.0368774e-17
-6.1015176e-17
0
0
2.0242877e-17
2.0209535e-17
0
-2.0140523e-17
1.1159709e-29
2.0068333e-17
-2.0031015e-17
3.9985728e-17
-6.645547e-29
-5.974203e-17
1.9873286e-17
1.9831683e-17
3.9578382e-17
-1.9745795e-17
-5.9104449e-17
1.9656243e-17
-1.0887863e-29
3.9125881e-17
1.951486e-17
-3.8931622e-17
3.8831566e-17
7.7652889e-47
-3.8625489e-17
0
0
3.830121e-17
-2.1176092e-29
-6.3413896e-29
8.8828748e-47
-5.6759691e-17
-2.0939671e-29
1.8798175e-17
3.7471401e-17
3.734428e-17
-3.7214973e-17
-4.1168288e-29
-1.8474881e-17
-6.13139e-29
1.8337851e-17
-3.6535335e-17
0
-1.8123945e-17
2.0033555e-29
1.7975727e-17
3.5799861e-17
1.9781181e-29
-3.5489916e-17
0
0
-1.7504051e-17
9.6702552e-30
5.2013473e-17
1.9153488e-29
-3.4334255e-17
0
1.699199e-17
-1.6902765e-17
-1.6812444e-17
-1.6721034e-17
-1.6628541e-17
3.3069948e-17
4.9321022e-17
-1.6344648e-17
-3.2495814e-17
4.8450375e-17
3.7962636e-47
-3.1902967e-17
0
0
0
0
3.0874947e-17
3.0663585e-17
-1.5225185e-17
-4.5352995e-17
-1.6671078e-29
1.489995e-17
-2.9579579e-17
-2.9357568e-17
1.4566952e-17
5.7817239e-17
2.8681752e-17
-4.2680009e-17
-2.8223419e-17
4.1988048e-17
3.081301e-29
-2.7525029e-17
0
0
0
2.657528e-17
1.4617824e-29
-2.8971162e-29
1.2925288e-17
-3.8410342e-17
1.2681117e-17
1.2558321e-17
-3.7305248e-17
-2.4622854e-17
1.2187378e-17
2.4125923e-17
2.3876406e-17
-3.9349812e-29
1.2978509e-29
-3.2861524e-33
-2.2872484e-17
0
-1.118386e-17
-1.105741e-17
1.0930821e-17
1.0804118e-17
-1.0677328e-17
-1.0550475e-17
2.0847172e-17
1.0296689e-17
-1.0169807e-17
1.0042968e-17
-9.9161943e-18
-1.9579025e-17
0
0
2.823083e-17
9.2842201e-18
-1.8316764e-17
-9.0327858e-18
-8.907456e-18
1.7564835e-17
-9.6162774e-30
-1.7066621e-17
0
8.2856555e-18
2.4487287e-17
1.7848144e-29
-4.3951479e-29
1.5590846e-17