/*--------------------------------*- C++ -*----------------------------------*\
  =========                 |
  \\      /  F ield         | OpenFOAM: The Open Source CFD Toolbox
   \\    /   O peration     | Website:  https://openfoam.org
    \\  /    A nd           | Version:  7
     \\/     M anipulation  |
\*---------------------------------------------------------------------------*/
FoamFile
{
    version     2.0;
    format      ascii;
    class       volScalarField;
    location    "0.00237";
    object      Uy;
}
// * * * * * * * * * * * * * * * * * * * * * * * * * * * * * * * * * * * * * //

dimensions      [0 1 -1 0 0 0 0];

internalField   nonuniform List<scalar> 
5000
(
3.368875e-21
4.5634115e-21
0
0
-2.1965442e-21
2.3850255e-36
1.9055465e-21
0
0
-2.1577466e-21
-4.380673e-21
2.1941295e-21
2.1889684e-21
-2.1794147e-21
0
-2.1583355e-21
-6.8046325e-51
2.1397357e-21
0
2.1248839e-21
-2.1309851e-21
-2.143188e-21
4.3004562e-21
-2.1440164e-21
-2.1288248e-21
-1.7430436e-35
2.1011363e-21
2.09392e-21
-4.2036503e-21
3.6688697e-35
-3.7170815e-35
2.1266389e-21
4.2319429e-21
-4.2014857e-21
3.6206529e-35
-1.8082367e-34
-7.1794855e-35
4.1324406e-21
-4.1397939e-21
-4.1568699e-21
4.1709966e-21
-1.4352415e-34
-4.1632212e-21
2.0747829e-21
6.2048787e-21
-2.0636721e-21
-2.0641975e-21
-1.4143715e-34
-4.1185115e-21
0
2.0424263e-21
2.8981049e-37
-2.0416866e-21
4.0842178e-21
-7.1207009e-35
-4.0614109e-21
2.0216126e-21
-6.9592822e-35
-2.0211396e-21
0
2.0274724e-21
6.871198e-35
5.6793212e-37
1.9819633e-21
-1.968599e-21
6.848133e-35
1.959356e-21
-1.9642244e-21
-1.9544865e-21
1.9757021e-21
2.0182026e-21
-2.042278e-21
-2.0669902e-21
4.2321045e-21
1.995171e-21
-1.9974861e-21
0
1.0569487e-21
-3.2045546e-37
-2.1184587e-21
1.9113463e-21
-5.4965914e-37
5.6863814e-37
1.9309111e-21
1.8946516e-21
6.6509298e-35
-1.9265571e-21
0
-1.9006345e-21
-1.9440004e-34
-6.4918715e-35
1.8664807e-21
1.8971455e-21
-3.8276529e-21
-1.3202893e-34
1.8917771e-21
0
0
-1.8596381e-21
-1.3083528e-34
3.7925729e-21
-1.8815029e-21
-3.719137e-21
0
1.8080567e-21
1.8277673e-21
-1.8623686e-21
-1.8792804e-21
0
0
1.8112124e-21
1.7867734e-21
0
-1.8235806e-21
6.4591243e-35
1.8501248e-21
-1.8336669e-21
5.1536405e-37
-6.2682961e-35
7.7306308e-52
3.6107992e-21
-7.7851383e-37
-1.8294784e-21
0
-1.7873343e-21
1.7624232e-21
1.75556e-21
-3.5602695e-21
-1.8067672e-21
3.6266556e-21
1.796243e-21
-1.7758157e-21
-1.7537634e-21
-1.7428974e-21
0
1.7851512e-21
1.7949045e-21
-1.7821604e-21
-6.1187116e-35
1.747129e-21
-1.7365757e-21
-1.7457253e-21
0
1.770112e-21
1.7626118e-21
-1.7486994e-21
1.7352279e-21
-9.8355084e-37
-1.7425282e-21
1.7542229e-21
-1.7498064e-21
1.2103094e-34
1.7233618e-21
-1.7150678e-21
1.7266263e-21
1.7374574e-21
-1.7370896e-21
0
0
-1.6955233e-21
-1.7020515e-21
1.7215906e-21
1.7342363e-21
-1.7271964e-21
-1.1880746e-34
1.6988217e-21
-1.6909058e-21
-1.7019296e-21
0
1.7167038e-21
1.7105639e-21
0
-1.6897883e-21
-1.6936686e-21
0
1.7088304e-21
3.5516657e-34
-1.7000943e-21
1.6962247e-21
1.6953666e-21
-1.6974961e-21
-1.1723046e-34
1.161958e-34
7.1763244e-37
1.6891116e-21
-1.694825e-21
-2.3485316e-34
1.1601814e-34
-1.1498222e-34
1.6629155e-21
0
0
-1.6927017e-21
-1.6866853e-21
0
0
1.6642132e-21
-2.1075454e-52
-1.6916199e-21
0
1.6750641e-21
-1.6633923e-21
-4.6053337e-34
3.3529596e-21
-1.6908268e-21
-3.5064235e-34
-2.3862674e-37
-1.6683794e-21
1.6630957e-21
-2.3801747e-37
-2.3347943e-34
1.1672633e-34
-1.6800199e-21
0
1.6637984e-21
1.1573789e-34
4.6759381e-34
1.6887954e-21
0
-1.6796424e-21
-1.6768106e-21
0
0
0
1.6768598e-21
1.1554545e-34
-1.6722632e-21
0
0
1.6894015e-21
1.681163e-21
-1.6734728e-21
-1.6702176e-21
0
1.6891948e-21
1.6975412e-21
-1.6994785e-21
-1.6959823e-21
0
1.6815751e-21
-4.6451036e-34
-1.1596291e-34
1.6863407e-21
-1.6969492e-21
-1.6961596e-21
0
1.6757305e-21
-2.318144e-34
1.678623e-21
2.3483852e-34
-3.4011918e-21
1.697903e-21
-2.3376155e-34
-5.8222167e-34
-1.1651729e-34
-1.6946794e-21
1.7008869e-21
1.6976055e-21
0
-1.671345e-21
-1.6796967e-21
0
1.7114527e-21
1.7046536e-21
-3.3769492e-21
-1.6717911e-21
1.6690328e-21
1.6913501e-21
4.7389326e-34
-1.7095038e-21
1.7010317e-21
-1.1668265e-34
-1.671452e-21
1.6821634e-21
-1.1844797e-34
1.1964597e-34
-4.8649413e-37
-1.1728619e-34
1.6826643e-21
0
0
-1.7113525e-21
-1.7156024e-21
0
0
0
0
1.7041278e-21
1.1825564e-34
-3.4307291e-21
7.2732565e-37
1.698577e-21
1.7001344e-21
-2.3708499e-34
-2.3719269e-34
-2.4305807e-37
-1.7002732e-21
-1.6940358e-21
-1.7025225e-21
3.4312456e-21
5.1358777e-21
-1.6966924e-21
-3.3561161e-21
0
1.6946742e-21
1.7125889e-21
-1.7121456e-21
4.8107947e-37
-7.0382351e-37
4.6161633e-37
1.6439679e-21
1.6879995e-21
-1.7249191e-21
-3.465208e-21
1.7095276e-21
1.1622011e-51
1.6507121e-21
4.5202456e-34
-3.2959542e-21
0
0
3.4369465e-21
-9.4657245e-34
-3.3712675e-21
0
1.6476259e-21
1.6563482e-21
-1.6814908e-21
2.4136688e-37
-2.358951e-34
2.397472e-37
1.6689246e-21
-1.6531996e-21
-1.6536774e-21
0
1.6876744e-21
-2.3417741e-34
-1.676223e-21
3.314687e-21
-4.5601332e-34
-1.6494096e-21
-4.6349459e-34
-3.367054e-21
3.3576833e-21
1.6663589e-21
-1.6535623e-21
-2.3386769e-37
-1.6539073e-21
0
0
1.6629425e-21
-2.2959398e-34
-3.2995547e-21
2.3382804e-37
4.9339842e-21
-1.6473883e-21
-1.6540063e-21
3.3136709e-21
-1.650316e-21
1.6410857e-21
3.2554679e-21
-1.6186829e-21
-1.6279863e-21
-1.6364534e-21
1.6347062e-21
1.4920414e-51
-1.6037636e-21
1.5903966e-21
-1.604444e-21
1.6287088e-21
4.540207e-34
4.6059066e-37
1.5940771e-21
-3.1226844e-21
1.5522378e-21
4.4009595e-34
-4.4974e-34
-1.6325135e-21
-3.2295206e-21
4.7733803e-21
4.3312803e-34
-8.5673166e-34
4.323484e-34
-3.1803286e-21
3.2138933e-21
-4.4494725e-34
-3.1747972e-21
0
0
1.5440837e-21
-2.1785044e-34
-1.5876979e-21
-1.5864394e-21
1.5714448e-21
4.6286267e-21
-1.5219608e-21
-1.5304488e-21
-4.4348543e-37
-1.5782071e-21
0
3.1098277e-21
3.0453374e-21
-1.4984424e-21
-3.0142701e-21
-1.5393645e-21
3.122431e-21
3.1276319e-21
-3.1055249e-21
-3.075382e-21
0
3.0418049e-21
-1.5332184e-21
-3.0920197e-21
1.5441941e-21
1.5338087e-21
-2.1628882e-37
2.1050375e-34
1.5239821e-21
-1.5341504e-21
-1.5298735e-21
1.5146688e-21
-2.0778165e-34
-2.1223532e-37
-2.0954585e-34
-1.5244345e-21
1.5182208e-21
-6.2630863e-34
-2.0548236e-34
-4.0745979e-34
-1.4874091e-21
1.5077584e-21
-2.0990914e-34
-4.1458963e-34
-2.0761975e-37
-2.8683667e-21
-1.44296e-21
1.4780603e-21
3.0140597e-21
-2.1015057e-34
-2.9916037e-21
-1.4722174e-21
2.8931585e-21
1.4295873e-21
-1.4396795e-21
-1.4634242e-21
-4.1211409e-34
1.4908708e-21
0
0
1.4442196e-21
0
-1.4328578e-21
1.4572097e-21
2.0896005e-37
-4.0721943e-34
0
-1.4342008e-21
1.4205636e-21
1.4301908e-21
-2.8981932e-21
-1.4604695e-21
1.4552491e-21
0
0
-1.423361e-21
3.9869234e-34
1.4463689e-21
0
0
-1.4083378e-21
5.8711803e-34
1.4283863e-21
0
0
0
0
0
0
0
0
2.8325807e-21
7.7324964e-34
-1.3779076e-21
1.3870633e-21
-1.4092279e-21
1.4231495e-21
-3.9369388e-34
-1.4000422e-21
-3.8377213e-34
-1.3762106e-21
0
0
1.4051446e-21
3.8697692e-34
-1.3704373e-21
0
0
0
0
0
0
0
2.6846334e-21
-1.1480627e-33
-2.812758e-21
1.4075239e-21
1.9642e-37
1.3495627e-21
-7.2865625e-34
-2.6270352e-21
-1.3545574e-21
9.1564656e-53
4.2089104e-21
0
-2.7455907e-21
0
0
2.6782012e-21
-3.7925656e-34
-4.1531154e-21
1.3849936e-21
1.3740937e-21
-1.3533702e-21
1.3386543e-21
-1.3459839e-21
-3.7990272e-34
1.3863066e-21
-1.3812914e-21
0
-1.3516287e-21
1.344751e-21
2.7225005e-21
-1.3796395e-21
-1.380415e-21
-1.3711569e-21
-1.358184e-21
2.7053605e-21
1.361676e-21
-1.3745666e-21
0
1.3588112e-21
-1.3465334e-21
-1.3531678e-21
4.1003227e-21
3.9079799e-37
-2.7393509e-21
1.344772e-21
1.845788e-34
1.343363e-21
-3.8926734e-37
-2.769502e-21
1.3768202e-21
0
-3.706571e-34
-1.8966832e-37
-1.3626915e-21
1.3812436e-21
-3.8324322e-34
-1.9011152e-34
-1.9181776e-37
-1.3394338e-21
1.3571941e-21
2.0863e-53
-3.8285877e-34
-1.9497614e-37
-2.6906342e-21
-1.845959e-34
1.3495138e-21
0
0
-1.3787893e-21
-5.6166907e-34
1.3234888e-21
-1.3288496e-21
1.8957949e-34
5.4695696e-52
-1.9274532e-34
1.3734367e-21
1.3380672e-21
1.8257551e-34
-1.3354755e-21
0
0
1.3866041e-21
-1.3717725e-21
1.1111905e-33
1.3163627e-21
-1.3420119e-21
0
1.3974345e-21
1.3851271e-21
-1.3662516e-21
-1.328209e-21
0
1.3502376e-21
1.3850891e-21
-2.805896e-21
-1.4048778e-21
1.3999433e-21
1.3978812e-21
1.9325963e-34
1.3851458e-21
3.8126346e-34
-2.6963714e-21
0
0
0
1.3937144e-21
1.4011578e-21
0
-1.3687792e-21
-1.8587268e-34
1.331876e-21
0
0
-1.3892112e-21
-1.9109591e-34
1.8596612e-34
-1.3173448e-21
1.3333492e-21
-5.7097736e-34
-1.3898852e-21
0
-1.3684605e-21
-1.847268e-34
1.3119005e-21
-1.3380403e-21
1.3697974e-21
1.3840123e-21
-1.3854014e-21
0
1.3795374e-21
1.3812433e-21
-1.3836254e-21
-1.3848984e-21
0
-1.3788986e-21
1.3740368e-21
1.3686159e-21
-1.3644777e-21
-2.7324306e-21
7.6157438e-34
4.1256366e-21
2.9327673e-53
-1.3766881e-21
-2.7529805e-21
7.6356051e-34
2.7514597e-21
-1.3745976e-21
1.3730706e-21
-1.3714491e-21
-1.3698925e-21
2.7372083e-21
0
0
-2.7260572e-21
-5.0437531e-52
2.7147777e-21
0
0
-2.7152848e-21
-7.2239671e-52
2.7173041e-21
0
0
-2.7041032e-21
-1.3491806e-21
2.6887773e-21
1.3387915e-21
0
-2.6372934e-21
7.3120019e-34
2.6513432e-21
-1.3387834e-21
0
1.3324073e-21
-1.3217355e-21
1.856692e-37
1.29427e-21
-1.2975599e-21
1.3101884e-21
1.3194254e-21
-1.323314e-21
-1.3205713e-21
3.6413124e-34
1.3028032e-21
-1.2921165e-21
-3.563329e-34
1.2851637e-21
-1.2927693e-21
1.2991099e-21
1.3017022e-21
-1.2989959e-21
-1.2922672e-21
3.5709146e-34
1.2784516e-21
-1.2720263e-21
1.8085014e-37
1.2778079e-21
-1.277897e-21
1.2714286e-21
1.2636197e-21
-1.2539437e-21
-2.491605e-21
6.9176813e-34
2.4981805e-21
-1.2510614e-21
1.7762958e-37
2.4958318e-21
3.5412912e-37
-1.2439168e-21
0
1.2381754e-21
0
-1.2306831e-21
0
0
0
-1.2176294e-21
-2.1171048e-52
1.2104272e-21
0
1.1985538e-21
-3.3096619e-34
-1.1862895e-21
0
0
0
-1.1811862e-21
3.2698262e-34
1.1736116e-21
0
1.1637621e-21
3.2209962e-34
-1.1584553e-21
0
1.148988e-21
-1.1409869e-21
6.2993174e-34
1.1263128e-21
-1.1211141e-21
0
-1.1199563e-21
-3.1029346e-34
1.1140326e-21
0
1.106636e-21
-1.102301e-21
-6.0962174e-34
1.0933745e-21
-6.0485793e-34
-1.542563e-37
3.0044005e-34
-1.5307744e-37
-1.0728645e-21
0
1.0628277e-21
-2.9349016e-34
-2.9194987e-34
2.0069866e-52
-2.8933e-34
0
-2.0662639e-21
-2.8556044e-34
1.023495e-21
-1.0185187e-21
2.8126152e-34
1.0081801e-21
1.0027415e-21
2.768878e-34
-2.7532791e-34
9.8581277e-22
-9.8010261e-22
-9.7460375e-22
0
-9.6395891e-22
2.6620388e-34
9.5341449e-22
0
0
0
-1.8644955e-21
1.0292876e-33
1.8418664e-21
0
0
0
0
0
0
0
-1.7414778e-21
4.805835e-34
1.7160761e-21
8.5009176e-22
-8.4180347e-22
-8.3366685e-22
2.2958259e-34
4.5509144e-34
8.1486692e-22
-8.0897429e-22
8.0210479e-22
7.9454647e-22
-7.868714e-22
-7.7932473e-22
4.2867912e-34
7.6570161e-22
7.5902008e-22
-2.086274e-34
-7.4513129e-22
-7.383416e-22
7.3173273e-22
7.2513284e-22
-7.1830491e-22
7.1106174e-22
0
-6.9375844e-22
-6.8476304e-22
1.8770477e-34
6.6990241e-22
-6.640889e-22
6.5789609e-22
6.5088434e-22
-6.4268268e-22
6.3325525e-22
1.7304553e-34
-6.1363658e-22
-6.0576048e-22
-8.5182221e-38
1.1867421e-21
3.2563404e-34
-5.7840711e-22
-5.6957204e-22
0
5.520693e-22
0
0
0
5.2319597e-22
5.1482119e-22
-5.0626391e-22
-4.979877e-22
0
4.8368226e-22
-1.3240426e-34
-4.6894266e-22
0
0
4.4229003e-22
-2.4092148e-34
-4.2707262e-22
0
0
4.0644578e-22
-2.2119992e-34
-3.9017963e-22
0
3.7355534e-22
-1.0172784e-34
9.9817402e-35
-9.7965606e-35
-3.4554297e-22
0
-3.3025751e-22
1.7892237e-34
3.1476961e-22
0
3.009323e-22
-2.9429233e-22
-2.8752258e-22
5.6127214e-22
7.6074276e-35
-5.3333264e-22
7.2072399e-35
2.5231961e-22
0
0
2.2942707e-22
-6.1557205e-35
-2.1487872e-22
0
2.022912e-22
-1.9575775e-22
-1.8894318e-22
1.8198062e-22
0
-1.6789327e-22
1.6097983e-22
8.5692046e-35
-8.2208348e-35
1.4206282e-22
-1.1339851e-34
1.3033728e-22
-1.2443595e-22
3.2846862e-35
-6.2210051e-35
-2.1076466e-22
2.7301806e-35
9.1140662e-23
0
0
0
-1.3085365e-22
-6.0926168e-23
1.1155704e-22
4.9737585e-23
0
0
2.5215107e-23
3.3857228e-52
-1.1249286e-23
0
-5.5704896e-24
3.1454086e-24
-2.0351547e-23
-1.8102597e-23
0
6.8144125e-23
1.1424226e-38
-1.3711062e-22
1.4346878e-35
1.1710411e-22
-6.5896446e-23
-4.1781846e-38
8.1045956e-23
-2.4442288e-35
-5.2304245e-35
-1.0052039e-22
0
-1.1423363e-22
6.7528826e-35
2.5830038e-22
-1.3665769e-22
2.399051e-34
1.5153164e-22
-3.1826526e-22
2.3729705e-38
1.7498988e-22
0
0
0
2.0506454e-22
-2.1273649e-22
-4.4220273e-22
2.3019236e-22
6.6600127e-35
6.9172918e-35
2.5780228e-22
0
-2.7313111e-22
4.005135e-38
5.8270056e-22
-3.0129689e-22
-1.7261288e-34
3.20259e-22
3.2880492e-22
-1.8753266e-34
-6.9380758e-22
0
-3.6762186e-22
-3.7817343e-22
0
3.9818185e-22
4.0784645e-22
-4.1770031e-22
0
4.3872639e-22
0
0
-4.7275219e-22
4.0314091e-34
4.9533092e-22
0
0
-5.3010979e-22
-5.4245761e-22
5.5489844e-22
5.6715869e-22
-5.7918949e-22
-5.9120791e-22
1.2070237e-21
6.1624221e-22
-1.748354e-34
-6.4251179e-22
3.6380501e-34
3.711948e-34
-6.8257893e-22
6.963237e-22
-7.1029463e-22
7.2452598e-22
6.3022132e-37
-7.5416168e-22
1.5388103e-21
7.8441012e-22
7.9885706e-22
-1.6259775e-21
-1.6552138e-21
8.4349712e-22
-8.6069411e-22
8.7820291e-22
-4.9682001e-34
-1.8184482e-21
9.2308073e-22
-2.6038883e-34
2.6568856e-34
9.7718908e-22
0
0
-1.0405421e-21
-1.0538621e-21
0
1.0844413e-21
1.1060889e-21
0
1.1577718e-21
-3.2831386e-34
-1.2030796e-21
1.221037e-21
-3.4397491e-34
-1.2626774e-21
0
-1.3180794e-21
-7.4767752e-34
1.3731622e-21
-1.3974763e-21
3.9417652e-34
1.448342e-21
1.4783972e-21
4.1941357e-34
-1.545033e-21
0
1.6103237e-21
-1.6417679e-21
4.7573585e-37
-9.4830176e-34
-1.7432915e-21
1.7812193e-21
0
3.7278601e-21
-4.2371732e-33
-1.9539364e-21
-1.1099844e-33
-4.0907358e-21
4.1833347e-21
4.2798212e-21
-4.3821388e-21
-4.4902491e-21
-2.3012332e-21
0
2.4172008e-21
4.9560861e-21
-3.6126104e-37
2.6097406e-21
-2.6800498e-21
-2.752074e-21
2.8256071e-21
-5.8030643e-21
5.9620628e-21
5.1039571e-33
-6.3025062e-21
6.4807609e-21
-1.8494263e-33
3.4267675e-21
-3.5265269e-21
-3.6315389e-21
3.740959e-21
1.0689736e-33
7.9384605e-21
-8.1777921e-21
-8.4279317e-21
8.6895053e-21
1.2434232e-33
4.6190246e-21
-2.6443404e-33
-4.9097198e-21
-1.4061096e-33
3.2287851e-50
-5.4068304e-21
-1.1171397e-20
5.7663193e-21
-8.2063492e-50
6.1373953e-21
1.0555373e-32
-6.5494768e-21
1.3551341e-20
-3.8915936e-33
-1.4499335e-20
1.1903493e-50
7.7308052e-21
0
0
8.5353373e-21
-8.8369571e-21
-1.829515e-20
0
0
0
1.0444604e-20
1.0805798e-20
0
-1.1577343e-20
1.1978262e-20
2.0631159e-32
-2.5610167e-20
0
0
0
1.4669031e-20
1.5175996e-20
-1.5697466e-20
1.6236115e-20
9.3268727e-33
-3.4744855e-20
0
0
3.843673e-20
-5.64861e-36
-2.0554969e-20
2.1260985e-20
-2.199018e-20
2.2739664e-20
-1.3055821e-32
-4.8600716e-20
0
0
2.6852692e-20
2.7764084e-20
0
0
-3.0652851e-20
-3.1674072e-20
0
3.3819977e-20
3.494439e-20
-3.6102913e-20
3.7297054e-20
3.8528736e-20
-3.9798775e-20
-4.1106657e-20
2.3576141e-32
4.3836161e-20
-4.5262526e-20
-1.2970599e-32
4.8253481e-20
0
5.142763e-20
-2.9471515e-32
-5.4780818e-20
5.6530709e-20
-3.2387747e-32
-6.0190052e-20
0
6.4068689e-20
-1.8352909e-32
-9.6885833e-36
7.0318739e-20
-7.25166e-20
-7.477184e-20
0
1.5895078e-19
-9.1007759e-32
-8.4470788e-20
-1.2374298e-35
-1.7949576e-19
1.8496844e-19
1.9057903e-19
-1.963421e-19
-1.0113548e-19
0
2.1464685e-19
-1.8405135e-31
-2.2769828e-19
0
2.4140753e-19
6.9009582e-32
-1.2791335e-19
-3.6561391e-32
-2.7104999e-19
2.7896671e-19
3.5851207e-31
-2.9536635e-19
3.0385367e-19
-8.6724156e-32
-3.2149598e-19
-1.6533928e-19
3.4009501e-19
1.7486446e-19
-3.5957231e-19
3.6963514e-19
4.7448966e-31
-3.9051411e-19
4.0136264e-19
-5.7268562e-32
2.1192316e-19
-2.4158774e-31
-6.7097545e-19
1.2751435e-31
4.7187232e-19
-2.4229966e-19
-4.976243e-19
2.5546742e-19
-1.456126e-31
2.6919931e-19
3.0687934e-31
-2.8353919e-19
5.81911e-19
-2.4860707e-31
3.4005347e-31
-1.7429727e-31
-3.2221953e-19
0
-3.3883449e-19
-3.4741093e-19
0
0
0
0
0
4.0263068e-19
4.1247337e-19
0
-4.3272752e-19
4.4314426e-19
7.5587543e-31
-9.2917618e-19
0
0
0
5.0993731e-19
5.2176286e-19
-5.3379491e-19
-5.4604876e-19
1.117068e-18
9.5174802e-31
-1.1683733e-18
0
1.2213853e-18
1.0398963e-30
-6.3805768e-19
6.5208225e-19
-6.6634122e-19
6.8083524e-19
3.8609077e-31
-1.4210524e-18
0
0
7.5680258e-19
7.7269288e-19
0
8.0520284e-19
2.3357845e-34
8.3870483e-19
-8.5581728e-19
-2.6194979e-18
0
-1.8171817e-18
-1.8533659e-18
0
2.8909029e-18
1.9649604e-18
-2.0031331e-18
1.0208968e-18
1.0404797e-18
-3.18097e-18
-1.0804296e-18
-1.5643209e-34
-1.1214049e-18
1.1422602e-18
1.1633609e-18
1.184715e-18
-1.0457063e-48
1.2282092e-18
1.2503463e-18
-1.2727332e-18
0
-2.6364845e-18
-2.6827442e-18
0
1.3884104e-18
2.8246314e-18
7.9714557e-31
1.460866e-18
2.9710106e-18
-3.0207834e-18
-3.0710608e-18
-1.5609231e-18
-1.5865665e-18
0
1.6385822e-18
4.9948443e-18
-1.6915538e-18
1.4006573e-46
5.2364671e-18
-3.5456314e-18
-1.8003778e-18
-1.8281736e-18
-3.7124039e-18
3.7689236e-18
1.9129509e-18
-1.9416665e-18
-1.970607e-18
-1.9997719e-18
6.0874802e-18
2.0587687e-18
-6.265778e-18
-2.1186269e-18
2.1488689e-18
4.3586392e-18
-2.2099809e-18
2.2408524e-18
-3.7826362e-30
3.8360214e-30
7.0040404e-18
-2.3663417e-18
-2.3981909e-18
-4.8604527e-18
-2.4624469e-18
4.9897027e-18
7.1834102e-34
2.5602029e-18
-2.5931417e-18
-7.8787446e-18
7.9785515e-18
2.6929453e-18
-8.1795916e-18
0
8.382482e-18
2.8281993e-18
-8.5871544e-18
2.8967162e-18
5.8623784e-18
1.646241e-30
-3.3306053e-30
-3.0353553e-18
0
-6.2107524e-18
-6.2811474e-18
3.1758929e-18
3.2113186e-18
6.4936659e-18
-3.2824257e-18
-3.3180982e-18
6.7077167e-18
0
-6.851311e-18
-6.9233539e-18
3.4977618e-18
7.0677996e-18
-1.9816699e-30
-3.6063271e-18
7.28524e-18
-3.6789647e-18
1.2373823e-29
7.503555e-18
-3.7882247e-18
0
-7.7223409e-18
0
8.7362096e-30
3.9707169e-18
8.0144952e-18
-1.2131301e-17
1.1596817e-33
8.2334927e-18
0
-8.3792987e-18
-4.2260687e-18
8.5249097e-18
-4.7729289e-30
-4.3350881e-18
8.7426509e-18
-4.4075082e-18
7.3983998e-30
8.9593906e-18
-4.5156857e-18
4.5515977e-18
-9.1748522e-18
-1.3869502e-17
0
1.4083111e-17
9.4596468e-18
-1.4295518e-17
-9.6008274e-18
4.8355392e-18
9.7410796e-18
-4.905407e-18
-4.9401366e-18
9.949459e-18
-5.0091871e-18
-1.0087013e-17
5.0776788e-18
-7.264151e-34
1.0291072e-17
1.0358417e-17
-1.5638131e-17
5.2460413e-18
8.7925672e-30
-1.5936509e-17
0
1.6132603e-17
1.0819835e-17
-5.4420977e-18
-5.4740725e-18
-5.5058375e-18
0
-5.5687125e-18
3.1083197e-30
1.1261347e-17
-3.1416503e-30
-5.6917051e-18
0
-5.7517848e-18
1.1562888e-17
1.7432519e-17
-1.1679945e-17
-1.7606546e-17
-5.8974701e-18
5.9258296e-18
1.1907825e-17
-5.9817053e-18
6.009205e-18
6.0364178e-18
-1.2126703e-17
1.2180012e-17
6.1163715e-18
-1.8427297e-17
-1.2336357e-17
6.1936086e-18
1.865619e-17
-1.3862577e-29
1.3917009e-29
6.2922661e-18
7.0118757e-30
6.3396788e-18
-6.3628815e-18
-6.3857552e-18
-6.4083059e-18
6.4305318e-18
6.4524232e-18
-1.9421901e-17
6.4951558e-18
1.3031982e-17
-1.9609442e-17
-1.8635063e-33
6.5764373e-18
-1.3191784e-17
-6.6149814e-18
0
6.6520488e-18
6.6700394e-18
1.3375352e-17
-6.7049561e-18
2.2386887e-29
2.0215206e-17
-6.7545518e-18
-6.7703222e-18
-6.7857213e-18
6.8007536e-18
6.8154158e-18
-2.0489096e-17
6.843594e-18
1.3714199e-17
1.1442435e-29
6.8829622e-18
-1.3790655e-17
-2.0721931e-17
-3.8395334e-30
3.8467312e-30
9.8636125e-34
6.9513152e-18
1.3922699e-17
6.9710023e-18
-2.0940797e-17
7.7589979e-30
1.3995196e-17
0
0
-7.0206539e-18
3.9008325e-30
-3.9034503e-30
-7.0402007e-18
1.4091851e-17
7.0512638e-18
7.8314694e-30
-7.0607845e-18
-2.1194861e-17
-7.0687262e-18
0
0
0
2.1239854e-17
1.4163595e-17
-2.1249745e-17
7.8666685e-30
1.4169955e-17
0
0
-1.4169331e-17
1.5728108e-29
7.8606166e-30
-1.4161636e-17
7.0787792e-18
1.4152734e-17
1.4147172e-17
-7.0704365e-18
-2.1200757e-17
-7.0630332e-18
0
0
0
2.1131535e-17
1.4076303e-17
-2.1096308e-17
1.559919e-29
7.0189447e-18
-9.9644231e-34
7.0043879e-18
-1.3993186e-17
7.7582487e-30
6.9799799e-18
-1.3942329e-17
0
3.8601708e-30
1.3885441e-17
1.386517e-17
-2.0766375e-17
-1.3822682e-17
6.9002363e-18
3.8228373e-30
-6.8770851e-18
2.0595141e-17
1.3705404e-17
-6.8400516e-18
-6.8270969e-18
6.8138428e-18
6.8002961e-18
-6.7864613e-18
-6.7723402e-18
3.7511665e-30
-3.7420532e-30
-6.7282683e-18
0
-6.6975018e-18
1.3363439e-17
1.9997019e-17
-1.3298728e-17
-1.3265587e-17
-6.6159659e-18
7.3248313e-30
1.3163134e-17
-6.5640051e-18
6.5462033e-18
6.528163e-18
-1.3019773e-17
1.2982757e-17
6.4726465e-18
-6.4536968e-18
-1.2869064e-17
-6.415153e-18
1.2791122e-17
-3.5372188e-30
6.3557528e-18
6.3355492e-18
-1.8945462e-17
6.2945695e-18
6.2737969e-18
-1.8758513e-17
8.8557707e-34
1.8631124e-17
6.1888855e-18
-1.8501695e-17
6.1454153e-18
1.1487543e-46
1.0158319e-29
1.2158006e-17
-1.2113113e-17
-1.2067936e-17
6.0112424e-18
-6.6480132e-30
-1.1930771e-17
5.9422562e-18
1.7756989e-17
5.8956122e-18
-5.8721113e-18
0
-5.824777e-18
-1.1601894e-17
8.2096265e-34
1.7258914e-17
5.728833e-18
-1.1409206e-17
8.0721719e-34
1.131177e-17
-1.1262803e-17
9.3382549e-30
1.1164388e-17
-1.6672436e-17
-1.1065392e-17
0
0
5.4579811e-18
1.6298875e-17
5.4078804e-18
-1.6148262e-17
5.9477338e-30
1.0664756e-17
-1.0614268e-17
-1.0563707e-17
5.2565359e-18
1.0462367e-17
-5.2058026e-18
-5.1804008e-18
1.5464947e-17
5.1295489e-18
8.5009428e-30
-2.8175874e-30
-5.053164e-18
5.0276786e-18
-1.0004378e-17
-1.4930099e-17
0
1.4777196e-17
9.8005126e-18
-1.4624366e-17
1.3782626e-33
4.8238843e-18
-9.5969074e-18
4.7730412e-18
4.7476489e-18
5.2424476e-30
-4.6969342e-18
-9.343232e-18
4.6463261e-18
9.2421308e-18
9.1916704e-18
-5.0754024e-30
-4.545479e-18
4.5203592e-18
-8.9905614e-18
-1.3410732e-17
0
1.3260878e-17
8.7907635e-18
-1.3111559e-17
4.8256334e-30
4.3209529e-18
-4.2962489e-18
-4.2715959e-18
2.356197e-30
8.4448882e-18
-2.3301827e-30
-8.3470431e-18
4.6055996e-30
4.5786169e-30
8.2011892e-18
1.2229214e-17
-8.1045525e-18
4.4730726e-30
1.3334723e-29
-3.9802851e-18
-3.9564219e-18
-7.8652474e-18
1.1726671e-17
3.8852245e-18
-7.7232575e-18
7.6762095e-18
2.1683791e-33
-1.1373813e-17
-3.7679574e-18
3.7447118e-18
1.1164612e-17
-1.2318531e-29
-7.3508223e-18
-3.6524609e-18
7.2591669e-18
1.0820327e-17
-1.0752113e-17
-3.5613722e-18
-3.9275801e-30
-3.5162686e-18
6.987663e-18
-1.9269289e-30
3.449177e-18
-3.4269558e-18
1.1341497e-29
1.0148204e-17
-1.0082213e-17
-1.0016451e-17
0
0
0
3.2518527e-18
9.6908815e-18
3.208811e-18
3.5385027e-30
3.1660694e-18
-9.4344102e-18
-3.1236049e-18
3.1024764e-18
3.0814206e-18
3.0604392e-18
-6.0790655e-18
3.0186993e-18
-2.9979347e-18
9.9155534e-30
5.913208e-18
-8.8081226e-18
-5.8310961e-18
0
5.749549e-18
3.1689206e-30
-2.8342784e-18
8.4423908e-18
2.794048e-18
-2.7740317e-18
0
0
-2.714381e-18
-5.3892626e-18
5.9391987e-30
5.3106616e-18
2.6357764e-18
-2.6162851e-18
2.5968573e-18
-2.5774939e-18
-1.0021661e-46
4.2286689e-30
-7.5593657e-18
0
0
4.9252986e-18
4.8874571e-18
2.4248698e-18
-2.670764e-30
-7.1620077e-18
2.6302468e-30
4.7000962e-18
0
-4.6260189e-18
-2.2945803e-18
4.55242e-18
-2.2578997e-18
-2.2396508e-18
6.6643965e-18
-2.2033438e-18
7.277989e-30
4.3345609e-18
-6.4480069e-18
-4.2629002e-18
0
0
0
6.1815764e-18
4.0858929e-18
-6.0762823e-18
-4.01594e-18
0
3.9464896e-18
-2.1714284e-30
-1.938762e-18
3.8432183e-18
-1.9045173e-18
1.8874894e-18
1.8705284e-18
-5.5609026e-18
3.673606e-18
3.6400625e-18
-1.8033191e-18
1.7866686e-18
-3.5401644e-18
-5.2606868e-18
0
5.1621775e-18
3.4088132e-18
-1.6881514e-18
-1.6719605e-18
1.8382281e-30
-1.6397747e-18
5.4088567e-30
1.6078576e-18
8.8390955e-31
3.0331993e-48
-1.5605085e-18
0
-1.5292823e-18
3.0275418e-18
4.4949898e-18
-4.448887e-18
-4.4030119e-18
0
2.874615e-18
2.8444612e-18
-2.8144483e-18
1.3922902e-18
1.3774316e-18
-4.0879551e-18
2.6959031e-18
2.6666571e-18
-1.3187792e-18
-2.6086063e-18
-1.2899019e-18
3.8267318e-18
1.2613321e-18
2.0768218e-30
-2.4661806e-18
-6.9297346e-34
3.6155145e-18
-2.3826582e-18
-3.532697e-18
-1.1638825e-18
3.4508455e-18
2.2735328e-18
-3.3700121e-18
2.4648392e-30
2.1934671e-18
1.0835555e-18
-5.9418678e-31
-2.1148969e-18
1.1595778e-30
-1.0316827e-18
-1.0189335e-18
3.018822e-18
9.9370175e-19
1.089298e-30
-1.9376289e-18
3.1855819e-30
2.8328218e-18
-1.8642758e-18
1.0219675e-30
1.0089512e-30
1.9902734e-30
8.8450984e-19
-2.6184794e-18
8.6123256e-19
1.4147509e-30
2.7919795e-30
2.4810004e-18
-8.1577662e-19
-1.60929e-18
8.8102141e-31
-7.8265475e-19
-7.7179673e-19
1.5220636e-18
1.5007233e-18
-8.2117003e-31
-2.1879115e-18
7.9789867e-31
7.0861433e-19
-1.3968152e-18
6.8829584e-19
6.782808e-19
-3.7080116e-31
3.6553633e-31
-6.4879789e-19
1.2783052e-18
-6.2959918e-19
2.0657064e-30
2.0341824e-30
-1.8045552e-18
1.1846942e-18
-1.657742e-34
-1.1485492e-18
5.6537347e-19
1.6696988e-18
5.4785654e-19
-1.61773e-18
5.8918272e-31
5.2229176e-19
-1.0278993e-18
1.0113917e-18
2.4859389e-30
-4.8946281e-19
4.8148872e-19
-4.7360761e-19
9.3163216e-19
-4.5811255e-19
-1.3514881e-18
0
0
8.5635081e-19
1.1963206e-34
-8.2749971e-19
4.0666857e-19
1.1990181e-18
3.9276121e-19
-1.1578018e-18
-1.0777302e-34
-4.1357555e-31
-7.3194893e-19
1.0784841e-18
1.7640667e-30
-3.4678336e-19
3.4054968e-19
3.3439732e-19
-3.6468096e-31
-3.2234381e-19
6.3288427e-19
-6.2124183e-19
1.0153842e-30
5.9842663e-19
-8.8087521e-19
-5.7623062e-19
2.8268595e-19
8.3200883e-19
2.7206384e-19
-2.6686659e-19
0
2.566917e-19
-2.5171374e-19
-7.4043408e-19
-1.3432006e-31
4.7446493e-19
-2.3255148e-19
-2.2794027e-19
4.4679413e-19
-2.1892184e-19
2.1451676e-19
4.2036572e-19
-6.177555e-19
6.7182532e-31
-4.3876764e-31
-3.870482e-19
3.7904445e-19
1.8558599e-19
1.8171507e-19
1.9765661e-31
-1.7416272e-19
3.4095474e-19
-3.3370466e-19
-4.8986985e-19
0
1.5635198e-19
-8.4911258e-32
-4.2532658e-35
4.3913341e-19
1.4316152e-19
-4.2001035e-19
1.3690508e-19
1.5666233e-47
-3.9263535e-19
1.2794489e-19
3.7518314e-19
1.2222583e-19
-2.3888246e-19
1.1670951e-19
-1.1403059e-19
3.7102274e-31
2.1764995e-19
-3.1888476e-19
-1.1530536e-31
4.502146e-31
-1.9795824e-19
1.9326185e-19
1.0471966e-31
-9.2073739e-20
1.7972695e-19
8.7697031e-20
0
0
-1.6288726e-19
1.7637754e-31
4.4039581e-35
8.3876513e-32
7.3673284e-20
7.1831372e-20
-7.002656e-20
-6.8256529e-20
1.3304159e-19
-1.2964241e-19
7.0116281e-32
1.2306809e-19
-1.1988874e-19
-1.9446108e-31
6.312907e-32
-5.5372726e-20
1.0782374e-19
-5.2483721e-20
1.1343092e-31
9.9447545e-20
0
-9.4167316e-20
-4.5806398e-20
8.9115474e-20
4.3336689e-20
-4.2148054e-20
6.826958e-32
3.9850614e-20
0
0
-7.3169923e-20
-7.109997e-20
0
6.7109784e-20
3.2590977e-20
-3.1647866e-20
3.0727027e-20
-2.9829903e-20
0
5.621053e-20
0
0
-2.5671334e-20
2.764002e-32
2.4144381e-20
0
-2.2698999e-20
-1.2214231e-32
2.13264e-20
0
-4.0034509e-20
-3.8778374e-20
1.877912e-20
2.0187205e-32
-1.7610246e-20
3.4095493e-20
3.2995235e-20
-3.1922208e-20
-4.3883352e-36
-3.3164612e-32
-4.1056536e-36
2.7941386e-20
-1.3508784e-20
1.4495584e-32
-1.261606e-20
1.2186982e-20
3.5314086e-20
-3.4107328e-20
-1.0979891e-20
1.0602612e-20
1.136097e-32
9.8760046e-21
-1.905339e-20
-1.8376866e-20
1.7722846e-20
2.8457701e-32
8.2396138e-21
7.9422339e-21
-1.5304393e-20
7.3702726e-21
-7.8783091e-33
3.79543e-33
-6.5801612e-21
-1.2669233e-20
1.2192123e-20
1.1728064e-20
0
-5.4225391e-21
-5.7881247e-33
1.0025476e-20
5.3483945e-33
-1.3882633e-20
-8.8856718e-21
0
8.1882232e-21
8.7264237e-33
3.7746084e-21
3.6233431e-21
-1.0425072e-20
1.8481239e-33
6.3819465e-21
-3.0576392e-21
-5.8612734e-21
2.8098512e-21
5.3875033e-21
2.5806204e-21
0
-4.7290912e-21
2.2632653e-21
6.5002923e-21
-2.0744387e-21
-1.9854428e-21
-3.7992743e-21
-1.817392e-21
3.4782739e-21
1.6650044e-21
1.5940992e-21
-1.6932784e-33
-1.4585731e-21
-1.3947873e-21
-2.6689133e-21
-1.2782418e-21
0
0
0
2.154836e-21
2.0630216e-21
-1.9776241e-21
-1.0548648e-33
-1.0158786e-33
9.7772639e-34
1.8795469e-33
-1.6246878e-21
0
1.5040064e-21
7.2691131e-22
-7.0481509e-22
6.8330748e-22
6.606703e-22
0
0
-1.198338e-21
1.9476186e-33
1.2720503e-33
-1.122836e-21
1.0960943e-21
1.0666884e-21
0
-1.0200827e-21
5.5848889e-34
9.9730115e-22
-9.8903425e-22
-5.4229106e-34
9.6063671e-22
0
-9.3679485e-22
-4.6694453e-22
9.3531909e-22
-4.6825546e-22
-1.0349893e-33
9.226252e-22
-9.1491943e-22
-9.1344034e-22
0
0
0
9.4129285e-22
9.3472761e-22
-9.2795941e-22
0
9.3455482e-22
0
4.8142349e-22
-9.7534499e-22
-4.8900067e-22
4.8648775e-22
-9.6907228e-22
-4.8538544e-22
9.7900055e-22
4.9550918e-22
5.5710632e-34
-5.075146e-22
1.1345268e-33
-2.9053289e-37
-1.0190334e-21
0
5.101388e-22
1.0269961e-21
5.1815265e-22
0
0
0
5.2387606e-22
-1.0416752e-21
-5.1996853e-22
5.214288e-22
5.2440463e-22
-5.2776579e-22
-5.2968367e-22
1.0555365e-21
0
-1.0360683e-21
-1.0300661e-21
0
0
1.0280459e-21
5.6951032e-34
5.092873e-22
5.0317718e-22
-4.9680008e-22
4.9138556e-22
-4.8720811e-22
-9.6785714e-22
-4.8093869e-22
0
9.4177083e-22
5.1324846e-34
-4.5374984e-22
4.4607397e-22
4.3944824e-22
8.6741149e-22
-8.5655699e-22
-4.2150259e-22
1.1713458e-37
-4.0117272e-22
7.8115192e-22
-3.81095e-22
3.727312e-22
1.7067025e-50
-3.5690415e-22
6.9306209e-22
-6.688358e-22
-6.444241e-22
0
3.0021818e-22
5.8057477e-22
-1.5531417e-34
-2.6783994e-22
-2.5505231e-22
4.8473754e-22
4.606206e-22
-2.1905953e-22
-4.1498794e-22
-3.8862299e-22
1.798355e-22
3.3080934e-22
-1.5187278e-22
1.4000791e-22
-2.1603751e-34
-1.188531e-22
2.1021202e-22
-1.7823836e-22
-8.0964583e-35
3.2205363e-34
-8.9852767e-23
6.7286816e-23
1.0093196e-34
-1.0242041e-23
-7.9429565e-24
1.9008384e-23
-9.623701e-39
2.1120859e-34
6.0101191e-23
-1.4481314e-22
1.8947976e-34
-5.480434e-35
1.1208015e-22
-3.546842e-38
-2.7385916e-22
2.9856469e-22
9.2212084e-38
-7.7919479e-34
3.7748795e-22
-4.0192382e-22
-4.6905693e-34
4.4153879e-22
-2.3118766e-22
-2.4299016e-22
-2.5599815e-22
2.696417e-22
-3.1315765e-34
-5.830148e-22
0
0
6.3058051e-22
9.2470606e-38
-6.74654e-22
3.4967693e-22
-4.0000146e-34
3.6844992e-22
8.3175535e-34
-7.617252e-22
0
-3.9489725e-22
8.0707986e-22
4.1339117e-22
-9.3923949e-34
4.2990634e-22
-8.6845833e-22
4.3844759e-22
-4.9123444e-34
-8.9425916e-22
0
0
4.6991194e-22
-2.6299422e-34
4.7604782e-22
-4.7763483e-22
-1.4381671e-21
1.4498858e-21
4.9014876e-22
-9.9264325e-22
4.9992048e-22
8.353104e-34
5.0215564e-22
-2.8578452e-37
-1.682704e-33
5.0885824e-22
-1.0238564e-21
-5.1268895e-22
0
-5.0916676e-22
5.096549e-22
5.1401084e-22
5.1778559e-22
-1.1502777e-33
5.7153825e-34
-5.6577356e-34
-1.0095766e-21
5.0425447e-22
8.4783036e-34
-1.0302357e-21
7.3405552e-38
5.121764e-22
1.0123796e-21
9.9941061e-22
-9.8927515e-22
-5.4905413e-34
-4.9742816e-22
-5.0020522e-22
1.0011871e-21
-9.9447737e-22
-4.9130795e-22
1.4574054e-21
9.6065543e-22
-4.7563853e-22
-9.4811738e-22