-1.25 	300 	0.07298528546154461 	101354.3892626141
-1.247497497497497 	300.0245406680559 	0.08137023088271302 	101359.9732278893
-1.244994994994995 	300.0331850128102 	0.09647511543865864 	101364.4196039442
-1.242492492492492 	300.0366854715718 	0.1065830347572726 	101368.3306464081
-1.23998998998999 	300.039289660082 	0.1134051693053595 	101371.4521462233
-1.237487487487487 	300.0411424397544 	0.1189336533795784 	101373.645393653
-1.234984984984985 	300.0422135829638 	0.1220755414129197 	101374.9121932614
-1.232482482482482 	300.0425995725823 	0.1231314181120484 	101375.3686338667
-1.22997997997998 	300.0422209731628 	0.1219872087271787 	101374.9207769503
-1.227477477477477 	300.0410091671027 	0.1185006655752291 	101373.4877697156
-1.224974974974975 	300.0390129880946 	0.1127391531815124 	101371.127178829
-1.222472472472472 	300.0362852487027 	0.1048346772062284 	101367.9015891941
-1.21996996996997 	300.0328656870538 	0.0949389595574365 	101363.8580316461
-1.217467467467467 	300.0288368062551 	0.0833203383271936 	101359.0939258503
-1.214964964964965 	300.0243197797187 	0.07027165113045424 	101353.7527957499
-1.212462462462462 	300.0193894396128 	0.05601559018265011 	101347.9231314056
-1.20995995995996 	300.0141135376736 	0.04078194984979837 	101341.6851619287
-1.207457457457457 	300.0085995898157 	0.02481308416546248 	101335.1660778957
-1.204954954954955 	300.0029302273393 	0.008427918490662076 	101328.4634665521
-1.202452452452452 	299.9971844398028 	0.008633684531674964 	101321.6707676395
-1.19994994994995 	299.9914782448806 	0.02470207714093875 	101314.9253099739
-1.197447447447447 	299.9859279343079 	0.04075571340149717 	101308.3643483258
-1.194944944944945 	299.9806153283337 	0.05612878221537808 	101302.0846714728
-1.192442442442442 	299.9756130104934 	0.07055406133302085 	101296.1721032495
-1.18993993993994 	299.9710566230207 	0.0836811680495638 	101290.78662683
-1.187437437437437 	299.9670753241301 	0.09521601670037382 	101286.0811693279
-1.184934934934935 	299.9637263677813 	0.1048842442058392 	101282.1230947614
-1.182432432432432 	299.961050615309 	0.112587157306142 	101278.9607443286
-1.17992992992993 	299.9590901972225 	0.1182560009696162 	101276.6439439779
-1.177427427427427 	299.9578529758085 	0.1218297368367725 	101275.1816041815
-1.174924924924925 	299.9573796655005 	0.1232085471495158 	101274.6222476942
-1.172422422422422 	299.957723519601 	0.1222269543352367 	101275.0285201966
-1.16991991991992 	299.9588786134942 	0.1188717982956019 	101276.3935143594
-1.167417417417417 	299.960813263451 	0.1132429500330117 	101278.6799165997
-1.164914914914915 	299.9634937908244 	0.1055355746497354 	101281.8476548212
-1.162412412412412 	299.9668300346205 	0.09592630103043617 	101285.7905579309
-1.15990990990991 	299.9707428275637 	0.08456795332435456 	101290.4149193762
-1.157407407407407 	299.9751729032662 	0.0717208130331959 	101295.6509208574
-1.154904904904904 	299.980053215549 	0.05756858802788535 	101301.4193744748
-1.152402402402403 	299.9853119945686 	0.04238853995323289 	101307.635240489
-1.1498998998999 	299.9908451707789 	0.02650673823864468 	101314.1758755755
-1.147397397397397 	299.9964878104462 	0.01016202917254683 	101320.8461482535
-1.144894894894895 	300.0021505641301 	0.008673706222583058 	101327.5406191196
-1.142392392392392 	300.0078072273458 	0.02264855657353616 	101334.22826367
-1.13988988988989 	300.0133719562475 	0.03872940190121355 	101340.8073571679
-1.137387387387387 	300.0187263926592 	0.05418564132107271 	101347.1382353976
-1.134884884884885 	300.0237386401885 	0.06865312600233633 	101353.0647097632
-1.132382382382382 	300.0282940834506 	0.08182005597802779 	101358.4513908796
-1.12987987987988 	300.0323137638123 	0.09343027499938752 	101363.204766812
-1.127377377377377 	300.0357420717851 	0.1033523736464467 	101367.2588192643
-1.124874874874875 	300.0385329224637 	0.1114280276086531 	101370.5592441164
-1.122372372372372 	300.0406361642999 	0.1174920329146636 	101373.0464996497
-1.11986986986987 	300.041994131931 	0.1214127194888621 	101374.6525701434
-1.117367367367367 	300.0425624624214 	0.1230369051124182 	101375.3248007744
-1.114864864864865 	300.0423167637528 	0.1223243707014142 	101375.0341899407
-1.112362362362362 	300.0412625841415 	0.1192893879939504 	101373.7876314998
-1.10985985985986 	300.0394422686566 	0.114017618305664 	101371.6349843475
-1.107357357357357 	300.0369040104322 	0.1066641095003603 	101368.6334526846
-1.104854854854855 	300.0336868441768 	0.09735175687952698 	101364.8291445745
-1.102352352352353 	300.0298447256674 	0.08625687475889493 	101360.2858065609
-1.09984984984985 	300.0254467599366 	0.07355352652018086 	101355.0854305504
-1.097347347347347 	300.0205808092089 	0.05949006602524437 	101349.3318123875
-1.094844844844845 	300.0153569227263 	0.04438880725976885 	101343.1553092192
-1.092342342342342 	300.0098757269717 	0.0285298153514876 	101336.6748868865
-1.08983983983984 	300.0042288108091 	0.01223105573985087 	101329.9987128971
-1.087337337337337 	299.9985116158358 	0.008731776699482875 	101323.2398126866
-1.084834834834835 	299.9927933664624 	0.02089034369084493 	101316.4799722626
-1.082332332332332 	299.9871715722375 	0.03714044404164291 	101309.8344516085
-1.07982982982983 	299.9817768711493 	0.05273434824381895 	101303.4577435002
-1.077327327327327 	299.9767215938538 	0.06730939992083064 	101297.4824233509
-1.074824824824825 	299.972115099743 	0.08060978100738517 	101292.0377354658
-1.072322322322323 	299.9680390674963 	0.09243538340148497 	101287.2202630127
-1.06981981981982 	299.9645396565432 	0.1025382173754884 	101283.0843352866
-1.067317317317317 	299.9616742468781 	0.1107801283056358 	101279.697908023
-1.064814814814815 	299.9595132681512 	0.1169993463012289 	101277.1440016775
-1.062312312312312 	299.95810941413 	0.121051153330604 	101275.4847380522
-1.05980980980981 	299.957510294012 	0.122833555588892 	101274.7767212455
-1.057307307307307 	299.9577216130082 	0.1222518867200453 	101275.0263340148
-1.054804804804805 	299.9587074689085 	0.1193582997481439 	101276.1913855833
-1.052302302302302 	299.9604526419011 	0.1142713842875444 	101278.2538202503
-1.0497997997998 	299.9629359414434 	0.1071425849335575 	101281.1884639599
-1.047297297297297 	299.9660904198831 	0.09805012423478451 	101284.9165453026
-1.044794794794795 	299.9698643723045 	0.08709334196495853 	101289.3767497898
-1.042292292292292 	299.9741852909854 	0.07456507790272397 	101294.4837189199
-1.03978978978979 	299.9789597844433 	0.06072031252280434 	101300.1270095379
-1.037287287287287 	299.9841232529876 	0.04585980363439182 	101306.230174813
-1.034784784784785 	299.9895748177433 	0.0302104763469022 	101312.6742796037
-1.032282282282283 	299.9951703915843 	0.01397071876129374 	101319.2888133133
-1.02977977977978 	300.000821306432 	0.008381041502736095 	101325.9692277031
-1.027277277277277 	300.0064826778421 	0.01882414999004744 	101332.6623162708
-1.024774774774775 	300.012058341138 	0.03493385433716524 	101339.2542980775
-1.022272272272272 	300.0174172283773 	0.05042361422905312 	101345.5903681607
-1.01976976976977 	300.0224541891457 	0.06497769589260011 	101351.5459735414
-1.017267267267267 	300.0270929237103 	0.07836884718701063 	101357.0310838713
-1.014764764764765 	300.0312563992123 	0.09036382700615131 	101361.9544140537
-1.012262262262262 	300.0348635553873 	0.1007868628603557 	101366.2199628194
-1.00975975975976 	300.0378402324195 	0.1093956186076575 	101369.7401110088
-1.007257257257257 	300.0401157649737 	0.115976008470615 	101372.4311192754
-1.004754754754755 	300.0416392412721 	0.1203918779807777 	101374.2328759774
-1.002252252252252 	300.0423818637248 	0.1225193058243384 	101375.1112297328
-0.9997497497497498 	300.0423279242194 	0.1223784703374743 	101375.047423945
-0.9972472472472473 	300.0414865445833 	0.1199583280762122 	101374.0524788235
-0.9947447447447449 	300.039885193574 	0.1152911591036568 	101372.1588374269
-0.9922422422422421 	300.0375418019663 	0.1084828690745078 	101369.3876641226
-0.9897397397397399 	300.0344913442551 	0.09963831247615276 	101365.780472132
-0.9872372372372376 	300.0307926127559 	0.08894933842985354 	101361.4067455498
-0.9847347347347346 	300.0265179125143 	0.07661358122458921 	101356.3519962604
-0.9822322322322323 	300.0217600289224 	0.0628729664990062 	101350.726204367
-0.9797297297297296 	300.0166155881913 	0.04798956009516993 	101344.6434818088
-0.9772272272272275 	300.01116293712 	0.03224099033192318 	101338.1967291243
-0.9747247247247248 	300.0055131657472 	0.01594170342045754 	101331.5172281044
-0.9722222222222224 	299.999786064648 	0.008058351008476572 	101324.7464445141
-0.9697197197197196 	299.9940663416513 	0.01722369270533229 	101317.9848627532
-0.9672172172172175 	299.988452434757 	0.0334671383010974 	101311.3485378709
-0.9647147147147147 	299.983039967431 	0.04911969255235507 	101304.9507415936
-0.9622122122122124 	299.9779160225041 	0.06389171744733298 	101298.8942915685
-0.9597097097097099 	299.973191781586 	0.07755388365169785 	101293.3103224733
-0.9572072072072073 	299.9689635545183 	0.08981169098445185 	101288.3129680199
-0.9547047047047047 	299.9653045830028 	0.1003405874245141 	101283.9884054407
-0.9522022022022023 	299.9622978790239 	0.1089901025261611 	101280.4349467463
-0.9496996996996998 	299.9600030612035 	0.1156040340356801 	101277.7229201609
-0.9471971971971973 	299.9584585028606 	0.120084311328841 	101275.8973473438
-0.9446946946946947 	299.9576984338335 	0.1223371748955949 	101274.9991014138
-0.9421921921921923 	299.9577266166829 	0.1222572670394585 	101275.0323097014
-0.93968968968969 	299.9585263591056 	0.1198869199129692 	101275.9773953413
-0.9371871871871872 	299.9601042041771 	0.1153136405899214 	101277.8420779659
-0.9346846846846848 	299.9624242865724 	0.1086546603387232 	101280.5838338956
-0.9321821821821823 	299.9654247689473 	0.09999686837241158 	101284.1298892494
-0.9296796796796799 	299.969047350409 	0.08947676587265078 	101288.4111781694
-0.9271771771771771 	299.9732262926586 	0.07734515624700027 	101293.3502817339
-0.9246746746746748 	299.977887434155 	0.063822461703137 	101298.8595443472
-0.9221721721721724 	299.9829773731697 	0.04919494052710814 	101304.8757551918
-0.9196696696696698 	299.9883684745841 	0.03368420610704873 	101311.2483135044
-0.9171671671671672 	299.9939281416093 	0.01756060417617384 	101317.8203568512
-0.9146646646646649 	299.9995455913936 	0.007216885630725183 	101324.4611081068
-0.9121621621621623 	300.0051614026635 	0.01497663570288163 	101331.1002743896
-0.9096596596596597 	300.0107075079927 	0.03100999791680433 	101337.6572456839
-0.9071571571571573 	300.0160816276082 	0.04654623829848758 	101344.0112181815
-0.9046546546546547 	300.0211852054243 	0.06129128928802925 	101350.045563735
-0.9021521521521524 	300.0259259068994 	0.074983661860893 	101355.6511540364
-0.8996496496496498 	300.0302087878504 	0.08734841802358038 	101360.715632731
-0.8971471471471473 	300.0339501938889 	0.09816749013024957 	101365.1399139514
-0.894644644644645 	300.0370773344805 	0.1071993404624098 	101368.8379307249
-0.892142142142142 	300.0395224603909 	0.1142611990644385 	101371.7295138241
-0.8896396396396397 	300.0412332958144 	0.1192001531343498 	101373.7528241035
-0.8871371371371374 	300.0421729181419 	0.1219009791381784 	101374.8641483072
-0.8846346346346349 	300.0423181116131 	0.1223346256358887 	101375.0358568944
-0.8821321321321324 	300.0416751690191 	0.1204771071258302 	101374.2755322904
-0.8796296296296297 	300.0402648127568 	0.1163800983958724 	101372.6077728852
-0.8771271271271271 	300.0381082530001 	0.1101296759027645 	101370.0575610785
-0.8746246246246248 	300.0352407539382 	0.1018316987579588 	101366.6667037946
-0.8721221221221224 	300.0317110352736 	0.09163063448295271 	101362.4927954982
-0.8696196196196196 	300.027578300152 	0.07969124753607769 	101357.6058741245
-0.8671171171171175 	300.022928766832 	0.0662457635904289 	101352.108151281
-0.8646146146146148 	300.0178551443319 	0.05156639068318992 	101346.109137565
-0.8621121121121121 	300.0124531201752 	0.03597407838799901 	101339.7221816706
-0.8596096096096097 	300.0068424205432 	0.01978171250861863 	101333.0887600287
-0.857107107107107 	300.0011404835656 	0.006441700593200431 	101326.3476499194
-0.8546046046046049 	299.9954224377517 	0.0132913559317643 	101319.5879877919
-0.8521021021021022 	299.9897752895814 	0.02963234372929154 	101312.9123196126
-0.8495995995995997 	299.9842903007519 	0.04546844730946832 	101306.4287473978
-0.8470970970970974 	299.9790767526697 	0.06050365671512899 	101300.2662924891
-0.8445945945945946 	299.9742539452549 	0.0744615434405127 	101294.5657489318
-0.8420920920920922 	299.9699158150132 	0.08703235556954216 	101289.4384876943
-0.8395895895895897 	299.9661343266368 	0.0979248006059073 	101284.9690982017
-0.8370870870870872 	299.9629932767382 	0.1069762715559964 	101281.2568707879
-0.8345845845845846 	299.9605443021721 	0.1140292521255725 	101278.3626330954
-0.8320820820820823 	299.95883951387 	0.1189759731331125 	101276.3476574136
-0.8295795795795798 	299.9579129809559 	0.1217109774827597 	101275.2527071381
-0.8270770770770772 	299.9577665285786 	0.1221226698514304 	101275.0795205374
-0.8245745745745746 	299.9583863132522 	0.1202634089135515 	101275.8119809523
-0.8220720720720721 	299.9597888847408 	0.1162172750644391 	101277.4695207284
-0.8195695695695699 	299.9619276778787 	0.1100768687465553 	101279.9969600797
-0.817067067067067 	299.9647657275436 	0.1018888779920154 	101283.3510751589
-0.8145645645645651 	299.9682496637876 	0.09176538169606274 	101287.4684513595
-0.8120620620620621 	299.9723149136106 	0.07996656674071841 	101292.2731831926
-0.8095595595595597 	299.9768748126641 	0.0667447671330504 	101297.6627362682
-0.8070570570570572 	299.9818753232607 	0.05241078715178472 	101303.5731289651
-0.8045545545545546 	299.9871690657282 	0.03714710913219236 	101309.8305997891
-0.8020520520520523 	299.9926573088169 	0.02122370218787079 	101316.3181036021
-0.7995495495495494 	299.9982223244512 	0.005186642268492444 	101322.896846239
-0.7970470470470474 	300.0038042774454 	0.0110565306374069 	101329.4959036353
-0.7945445445445446 	300.0093494971927 	0.02708680998390892 	101336.051675877
-0.7920420420420423 	300.0147568022099 	0.042710013044911 	101342.4448869853
-0.7895395395395397 	300.0199201798063 	0.05762180362101158 	101348.5498184204
-0.7870370370370371 	300.0247453762222 	0.07156292607522452 	101354.2553091019
-0.7845345345345348 	300.0291379963045 	0.08425259550074489 	101359.4495031821
-0.7820320320320323 	300.033014811004 	0.09546940897757525 	101364.0337871681
-0.7795295295295296 	300.0362955421068 	0.1049454772926829 	101367.9134831577
-0.7770270270270272 	300.0389061255019 	0.1124801018387069 	101371.0006619737
-0.7745245245245247 	300.0407907622185 	0.1179251480130942 	101373.22954302
-0.7720220220220222 	300.0419162207493 	0.1211623094094578 	101374.5606356178
-0.7695195195195199 	300.0422616860923 	0.1221724576934248 	101374.9691350691
-0.767017017017017 	300.0418300959201 	0.1209169536487817 	101374.458797529
-0.7645145145145147 	300.0406278445868 	0.1174229303675032 	101373.0370853419
-0.7620120120120122 	300.0386647395856 	0.1117407168794608 	101370.7157013504
-0.7595095095095097 	300.0359678273455 	0.1039425713722315 	101367.526555402
-0.7570070070070072 	300.0325846708202 	0.0941661247557571 	101363.5258621062
-0.7545045045045048 	300.0285758338877 	0.08258421422406911 	101358.7855064602
-0.7520020020020022 	300.0240317477333 	0.06944369372474138 	101353.4123444062
-0.7494994994994997 	300.0190446183366 	0.05501879414405163 	101347.5156051724
-0.7469969969969972 	300.0137131990243 	0.03962140585097506 	101341.2120635827
-0.7444944944944945 	300.0081500041547 	0.02355475629406736 	101334.6346573363
-0.7419919919919924 	300.0024678619961 	0.007103591792323156 	101327.9169882177
-0.7394894894894897 	299.9967469384789 	0.01075435516571902 	101321.1537513345
-0.7369869869869872 	299.9910724777002 	0.02586712077785668 	101314.4457874253
-0.7344844844844846 	299.9855400230733 	0.04183871011803782 	101307.9060562544
-0.7319819819819822 	299.9802630045883 	0.05707789635082554 	101301.6684212216
-0.7294794794794797 	299.9753508019416 	0.07128940883164844 	101295.8622817406
-0.7269769769769773 	299.9708983730558 	0.08416109945002601 	101290.5997820723
-0.7244744744744747 	299.966992000369 	0.09543477921778327 	101285.9828209289
-0.721971971971972 	299.9637176061303 	0.1048827942014469 	101282.1130099189
-0.7194694694694695 	299.9611283260728 	0.1123585365535931 	101279.0528417484
-0.7169669669669674 	299.9592732464787 	0.1177344920265586 	101276.8603603368
-0.7144644644644647 	299.9581776568079 	0.1209187280442 	101275.5655072111
-0.711961961961962 	299.9578500603891 	0.121860770441781 	101275.1783085964
-0.7094594594594597 	299.9582935562648 	0.1205363551547509 	101275.7024707798
-0.7069569569569573 	299.9595162233181 	0.1170224464058344 	101277.1473048444
-0.7044544544544545 	299.9614816545197 	0.1113456195338489 	101279.469929767
-0.7019519519519523 	299.9641612541871 	0.1035956088911908 	101282.6367087573
-0.6994494494494495 	299.9674998002248 	0.09393074445807917 	101286.5822836712
-0.6969469469469471 	299.971431722699 	0.08252944519363312 	101291.229421608
-0.6944444444444446 	299.975875895646 	0.06968270157166095 	101296.4820774388
-0.6919419419419421 	299.980755441585 	0.05563608931193688 	101302.2494924358
-0.6894394394394396 	299.985944770197 	0.04063013666092377 	101308.3834271649
-0.6869369369369374 	299.9913592128926 	0.02496749360309212 	101314.7836747466
-0.6844344344344344 	299.9968862369921 	0.008967124795311613 	101321.3174452863
-0.6819319319319321 	300.0024461763163 	0.009608587524127011 	101327.8903423157
-0.6794294294294296 	300.0079865017803 	0.02314780487698498 	101334.4402928735
-0.6769269269269272 	300.0134177838905 	0.03885099850126365 	101340.8617319385
-0.6744244244244245 	300.0186371575697 	0.05391787331622397 	101347.032849052
-0.6719219219219222 	300.023544677167 	0.06810470928491841 	101352.8356345
-0.6694194194194195 	300.0280386651883 	0.08108427751073218 	101358.1495855814
-0.6669169169169172 	300.0320342009188 	0.09264742524415888 	101362.8742406736
-0.6644144144144146 	300.0354517815213 	0.1025215436152413 	101366.9157070899
-0.661911911911912 	300.0382212749211 	0.1105023380385342 	101370.1908153104
-0.6594094094094097 	300.0402880556711 	0.1164785002987297 	101372.6351107989
-0.656906906906907 	300.0416133986913 	0.1202850523147378 	101374.2025357896
-0.6544044044044046 	300.0421678009968 	0.1219075758677584 	101374.8581533444
-0.6519019019019021 	300.0419464611771 	0.1212602672886574 	101374.5964189352
-0.6493993993993996 	300.0409443236688 	0.1183282706197944 	101373.4113769568
-0.6468968968968971 	300.0391668063032 	0.1131941209677809 	101371.3094928728
-0.6443943943943946 	300.0366397717742 	0.1058757431234488 	101368.321199953
-0.6418918918918921 	300.0334103480719 	0.09655316637362309 	101364.5022698803
-0.6393893893893897 	300.0295382441228 	0.08536929501811649 	101359.9235604203
-0.6368868868868871 	300.0251125346049 	0.07255084248001833 	101354.6903522614
-0.6343843843843846 	300.020219083581 	0.05841188396882339 	101348.9043462646
-0.6318818818818821 	300.014958660146 	0.04321774494878454 	101342.6846652629
-0.6293793793793795 	300.0094443241049 	0.02729824631227747 	101336.1649429507
-0.6268768768768773 	300.003788006542 	0.01092638072346189 	101329.4777173587
-0.6243743743743745 	299.9980744449472 	0.009024086608442086 	101322.7227390935
-0.6218718718718721 	299.9923797100742 	0.02209384322173152 	101315.9907283918
-0.6193693693693696 	299.9867986002192 	0.03820718078099906 	101309.3937307154
-0.6168668668668671 	299.9814521719633 	0.0536488637207431 	101303.0740677089
-0.6143643643643645 	299.9764518975527 	0.06810902825368202 	101297.1637725431
-0.6118618618618621 	299.9718951421025 	0.08127913685457709 	101291.7779295587
-0.6093593593593596 	299.9678735391358 	0.09288222163664783 	101287.0247702411
-0.6068568568568571 	299.9644694723565 	0.1027078802868667 	101283.0016810679
-0.6043543543543546 	299.9617354681492 	0.1106036608323741 	101279.7704183656
-0.6018518518518521 	299.9597210612139 	0.1164396915858942 	101277.3896755364
-0.5993493493493496 	299.9584518639042 	0.1201248493106931 	101275.8896111048
-0.5968468468468471 	299.9579436704365 	0.1215802657125194 	101275.2890194772
-0.5943443443443446 	299.9582126615547 	0.1207734294297847 	101275.606966359
-0.591841841841842 	299.9592642349549 	0.1177553395115942 	101276.8495425397
-0.5893393393393397 	299.9610652037171 	0.1125374152703831 	101278.9778414366
-0.5868368368368371 	299.9635897925249 	0.1052310130755863 	101281.9613717874
-0.5843343343343346 	299.9667839171667 	0.09598501251239118 	101285.7362804532
-0.5818318318318321 	299.970583700668 	0.08496589818553699 	101290.2272310109
-0.5793293293293297 	299.9749134827501 	0.07247017851694987 	101295.3445703297
-0.5768268268268271 	299.9796851409865 	0.05871801503181957 	101300.9844637575
-0.5743243243243245 	299.9847815953249 	0.0439707669497478 	101307.0085170581
-0.5718218218218221 	299.9901225686505 	0.02853700257793171 	101313.3218987798
-0.5693193193193196 	299.9955993999344 	0.012690129661784 	101319.7962835595
-0.5668168168168171 	300.001122035045 	0.007404951597074204 	101326.3249277949
-0.5643143143143147 	300.0066488820734 	0.01930367488011401 	101332.8589237791
-0.5618118118118121 	300.0120952816688 	0.03505939259363412 	101339.2981164143
-0.5593093093093094 	300.0173573402346 	0.05024475585738183 	101345.5196851935
-0.5568068068068072 	300.0223305485714 	0.06462545659581763 	101351.4000927952
-0.5543043043043046 	300.0269119851131 	0.07784402988898068 	101356.8173201185
-0.551801801801802 	300.0310189365592 	0.08972062319349608 	101361.6737332265
-0.5492992992992995 	300.0345739260587 	0.09998319851245706 	101365.8776065647
-0.5467967967967969 	300.037505052114 	0.1084205432213909 	101369.3438870931
-0.5442942942942947 	300.0397538403223 	0.1149338251561691 	101372.0034150652
-0.5417917917917919 	300.0412703236921 	0.119295031141584 	101373.7968141391
-0.5392892892892895 	300.042018323403 	0.1214914893095329 	101374.6814386268
-0.536786786786787 	300.0419915567552 	0.1214147949209575 	101374.6497554635
-0.5342842842842846 	300.0411841407156 	0.1190368735597238 	101373.695038974
-0.531781781781782 	300.0396003719287 	0.1144728247154993 	101371.8222686429
-0.5292792792792794 	300.0372639556461 	0.1076878329956858 	101369.0593433441
-0.526776776776777 	300.0342108250402 	0.09886560610642525 	101365.4488990717
-0.5242742742742745 	300.0304950863169 	0.08813094555191189 	101361.0550152881
-0.521771771771772 	300.0261996721486 	0.07567645600934957 	101355.9758997357
-0.5192692692692695 	300.0214075742203 	0.06185175627446693 	101350.3096618503
-0.516766766766767 	300.0162201272837 	0.04687273316179386 	101344.1761855014
-0.5142642642642645 	300.0107528085572 	0.03108587060184619 	101337.711998596
-0.511761761761762 	300.0051134415478 	0.0147791550711973 	101331.0447157449
-0.5092592592592596 	299.9993985159223 	0.006443754270141157 	101324.2884985245
-0.506756756756757 	299.9936850395562 	0.0182945062572431 	101317.5342630458
-0.5042542542542544 	299.9880698783172 	0.03452588840154504 	101310.8966271484
-0.5017517517517521 	299.9826725742507 	0.05013399785665513 	101304.516645428
-0.4992492492492494 	299.9775993411244 	0.06479889305204085 	101298.5200422354
-0.496746746746747 	299.972944645274 	0.07825912024857562 	101293.0184385299
-0.4942442442442445 	299.9688049773735 	0.09019639086082912 	101288.1256718033
-0.4917417417417421 	299.9652629311869 	0.1004259851352544 	101283.9395051525
-0.4892392392392395 	299.9623779117948 	0.1087636268594694 	101280.5297123605
-0.486736736736737 	299.9602015951288 	0.1150552569035946 	101277.9576309202
-0.4842342342342345 	299.9587618841742 	0.1192315052554089 	101276.2560615591
-0.481731731731732 	299.9580795701291 	0.1211818833208126 	101275.4496666014
-0.4792292292292296 	299.958178404942 	0.1208861234639071 	101275.5665652904
-0.4767267267267268 	299.9590591612473 	0.118368692461887 	101276.6072333414
-0.4742242242242246 	299.960695691082 	0.113618757082231 	101278.5412014863
-0.471721721721722 	299.963063008569 	0.1067704387426236 	101281.3388653193
-0.4692192192192195 	299.9661099010513 	0.09794709205504265 	101284.9397480743
-0.4667167167167169 	299.969772542028 	0.08732652793112675 	101289.2686083206
-0.4642142142142145 	299.9739798121411 	0.07519914050402048 	101294.2410580509
-0.461711711711712 	299.9786351871069 	0.06175406251491153 	101299.743480983
-0.4592092092092094 	299.9836373634456 	0.047277510311811 	101305.6560480547
-0.456706706706707 	299.9889060033065 	0.03205870076473201 	101311.883860781
-0.4542042042042045 	299.9943372824362 	0.01635608407435994 	101318.3043492369
-0.451701701701702 	299.9998298825045 	0.004405862716209885 	101324.7973652241
-0.4491991991991995 	300.0053398813652 	0.01549819773215621 	101331.3113957762
-0.4466966966966969 	300.010790236703 	0.03126262966205842 	101337.7551987564
-0.4441941941941945 	300.0160827624472 	0.04653462546124337 	101344.0127210747
-0.441691691691692 	300.0211099769845 	0.06107762523840815 	101349.9569315166
-0.4391891891891895 	300.0257722234341 	0.07452896489741767 	101355.4696092353
-0.436686686686687 	300.0299878010771 	0.08673407852542755 	101360.4544590363
-0.4341841841841846 	300.0336774369576 	0.09738921511869277 	101364.8174991417
-0.431681681681682 	300.0367673184653 	0.1062950932256654 	101368.4715226734
-0.4291791791791794 	300.0391964857038 	0.113318237017385 	101371.3443231501
-0.426676676676677 	300.0409036061218 	0.1182237557225064 	101373.363130596
-0.4241741741741744 	300.0418487516399 	0.1209873116966018 	101374.4809495671
-0.421671671671672 	300.0420188243343 	0.1214677992991865 	101374.6820354731
-0.4191691691691694 	300.0414027352412 	0.1196556665250465 	101373.9535674798
-0.4166666666666669 	300.0400041608299 	0.1156244230979583 	101372.2997989484
-0.4141641641641645 	300.0378469382649 	0.1093525856270146 	101369.748759203
-0.411661661661662 	300.0349592498916 	0.1010184417924924 	101366.3339888231
-0.4091591591591594 	300.0313959669738 	0.09072266770114788 	101362.120311062
-0.406656656656657 	300.0272338955674 	0.07866120496104789 	101357.198874043
-0.4041541541541545 	300.0225513709498 	0.06515082514591403 	101351.6621278508
-0.401651651651652 	300.0174483970569 	0.0504078256193107 	101345.6284518772
-0.3991491491491494 	300.0120384058429 	0.03477877872186495 	101339.2320282217
-0.396646646646647 	300.0064234680522 	0.01855242929481999 	101332.593501345
-0.3941441441441444 	300.0007134035282 	0.003027199696654067 	101325.843009642
-0.3916416416416419 	299.9949887378609 	0.01453427433702161 	101319.0754572358
-0.3891391391391395 	299.9893463426782 	0.03085064226562003 	101312.4055287186
-0.3866366366366368 	299.9839006968885 	0.04659396337466384 	101305.9683921383
-0.3841341341341344 	299.9787590958048 	0.06144817251282027 	101299.8908584531
-0.381631631631632 	299.9740125520301 	0.07516943756258269 	101294.2807003489
-0.3791291291291294 	299.9697600291111 	0.08743710899950478 	101289.2545007684
-0.3766266266266269 	299.966081824964 	0.09806467190825033 	101284.9073473483
-0.3741241241241244 	299.9630475959295 	0.1068353884697426 	101281.3212480513
-0.371621621621622 	299.9607130171019 	0.1135638069268591 	101278.5620515781
-0.3691191191191194 	299.9591152440485 	0.1182033883385338 	101276.6737611811
-0.366616616616617 	299.9582737257084 	0.1206106724552977 	101275.6791705517
-0.3641141141141143 	299.9582105246602 	0.1208056897149174 	101275.6045637234
-0.3616116116116119 	299.9589167202432 	0.1187831275969571 	101276.4389774944
-0.3591091091091095 	299.9603760602612 	0.1145283996599159 	101278.1634940704
-0.356606606606607 	299.9625657317988 	0.1082011544981566 	101280.7512496924
-0.3541041041041044 	299.9654468998086 	0.09985812719126375 	101284.1562508071
-0.3516016016016019 	299.9689580299942 	0.0896929312577483 	101288.3059905851
-0.3490990990990994 	299.9730345459246 	0.07794310360425266 	101293.1238757275
-0.346596596596597 	299.9775751325759 	0.06480017841191156 	101298.490568317
-0.3440940940940944 	299.9824892736393 	0.05058847381877987 	101304.2990242151
-0.3415915915915919 	299.9876871491874 	0.03557462679749433 	101310.4431474569
-0.3390890890890895 	299.9930699957965 	0.02002161315671552 	101316.8062910687
-0.3365865865865869 	299.9985287969849 	0.004232429270375981 	101323.2592805979
-0.3340840840840844 	300.0040133080673 	0.01223887617629808 	101329.7431207442
-0.3315815815815819 	300.0094601066935 	0.0274246114861016 	101336.1826203016
-0.3290790790790794 	300.0147755239847 	0.04276438063222477 	101342.46717607
-0.3265765765765769 	300.0198502396985 	0.05744936586017767 	101348.4674583646
-0.3240740740740744 	300.0245908546483 	0.07111961882263634 	101354.0727294807
-0.3215715715715718 	300.0289147478816 	0.08363949301100833 	101359.1856395761
-0.3190690690690695 	300.0327379426253 	0.09468079190097252 	101363.7065389073
-0.3165665665665668 	300.0359843890723 	0.1040469926862063 	101367.5457193855
-0.3140640640640644 	300.038588457781 	0.1115703942784357 	101370.6253134582
-0.311561561561562 	300.0404806272585 	0.1170076674959455 	101372.8629247432
-0.3090590590590593 	300.0416206503861 	0.12033300954066 	101374.2112495137
-0.3065565565565568 	300.0419874439145 	0.1213755684893048 	101374.6449573762
-0.3040540540540545 	300.0415637713326 	0.1201345953424888 	101374.1440438051
-0.3015515515515518 	300.0403544208065 	0.1166483738235812 	101372.7140363211
-0.2990490490490494 	300.0383801397647 	0.1108944869942809 	101370.3793150277
-0.2965465465465469 	300.0356620133182 	0.1030621134712108 	101367.1650849862
-0.2940440440440444 	300.032256206439 	0.09321706716422143 	101363.1375624959
-0.2915415415415418 	300.0282321452124 	0.08155799550789533 	101358.3793286536
-0.2890390390390395 	300.0236641135386 	0.06837266386003311 	101352.9778919117