-1.25 	300 	0.1222774432429349 	101374.9013364214
-1.247497497497497 	300.0399956352979 	0.122140372300232 	101374.9440022931
-1.244994994994995 	300.0422125383884 	0.1223335336622565 	101374.9722475813
-1.242492492492492 	300.0422817210146 	0.1225577642189828 	101374.9918335504
-1.23998998998999 	300.0422889577291 	0.1224808238364674 	101375.0023460222
-1.237487487487487 	300.0422898404067 	0.1224998870483316 	101375.0035709394
-1.234984984984985 	300.0422830347116 	0.1224807113192456 	101374.9955279817
-1.232482482482482 	300.0422684330566 	0.1224398724128953 	101374.9782680702
-1.22997997997998 	300.0422461201496 	0.1223781025857646 	101374.9518870064
-1.227477477477477 	300.0422160839261 	0.1222918327388041 	101374.9163715615
-1.224974974974975 	300.042178269178 	0.1221788457181773 	101374.871661498
-1.222472472472472 	300.0421327185823 	0.1220446998288406 	101374.8177952822
-1.21996996996997 	300.042079444779 	0.1218921408312955 	101374.7547946344
-1.217467467467467 	300.0420184129061 	0.121719528735065 	101374.6826301962
-1.214964964964965 	300.0419496186811 	0.1215189514790733 	101374.6012840227
-1.212462462462462 	300.0418730255816 	0.1212934849548242 	101374.5107072772
-1.20995995995996 	300.0417886517193 	0.1210479036512644 	101374.4109302018
-1.207457457457457 	300.0416965976497 	0.1207837592476005 	101374.302073263
-1.204954954954955 	300.041596905887 	0.1204995732375151 	101374.1841824957
-1.202452452452452 	300.0414896178435 	0.1201876864498311 	101374.057308299
-1.19994994994995 	300.0413748244588 	0.1198510763784883 	101373.9215612698
-1.197447447447447 	300.0412525433321 	0.1194942555394063 	101373.7769614166
-1.194944944944945 	300.0411226835124 	0.1191193187796251 	101373.6233990254
-1.192442442442442 	300.0409851672765 	0.1187238298494242 	101373.4607780715
-1.18993993993994 	300.0408399298814 	0.118301410926131 	101373.2890240426
-1.187437437437437 	300.0406870324083 	0.1178566754950324 	101373.1082130349
-1.184934934934935 	300.0405265948749 	0.1173920168605478 	101372.9184843453
-1.182432432432432 	300.0403586390339 	0.1169070176267997 	101372.7198644221
-1.17992992992993 	300.0401832875356 	0.1164015495833026 	101372.5125011268
-1.177427427427427 	300.0400007648482 	0.1158726135819445 	101372.2966605112
-1.174924924924925 	300.0398112063373 	0.1153212390529176 	101372.0724984447
-1.172422422422422 	300.0396145126231 	0.114748862953348 	101371.8398946446
-1.16991991991992 	300.0394104090641 	0.1141566930034595 	101371.5985282993
-1.167417417417417 	300.0391987490946 	0.1135446190389048 	101371.3482306891
-1.164914914914915 	300.0389796561515 	0.1129107986019161 	101371.0891482238
-1.162412412412412 	300.0387533651681 	0.112255330047126 	101370.821554184
-1.15990990990991 	300.0385198564834 	0.1115787930054485 	101370.5454195109
-1.157407407407407 	300.0382790421986 	0.1108827404633499 	101370.26063977
-1.154904904904904 	300.038031243404 	0.1101670414024636 	101369.9675989654
-1.152402402402403 	300.0377768310311 	0.1094304526560932 	101369.66674152
-1.1498998998999 	300.0375158865498 	0.1086729263134805 	101369.3581666625
-1.147397397397397 	300.0372481942732 	0.1078947654524004 	101369.0416172199
-1.144894894894895 	300.0369733336939 	0.1070978713047624 	101368.7165906958
-1.142392392392392 	300.0366913908371 	0.1062819426771476 	101368.3831834011
-1.13988988988989 	300.0364027843784 	0.1054462853826284 	101368.0418897965
-1.137387387387387 	300.0361073553171 	0.1045907173178658 	101367.692523886
-1.134884884884885 	300.0358049530937 	0.1037149329674315 	101367.3349105733
-1.132382382382382 	300.0354958841025 	0.1028210247838195 	101366.9694147437
-1.12987987987988 	300.0351803389402 	0.1019084883901875 	101366.5962625508
-1.127377377377377 	300.0348586418184 	0.1009778152277974 	101366.2158390011
-1.124874874874875 	300.034531011928 	0.1000282023241966 	101365.8284032715
-1.122372372372372 	300.0341969295799 	0.09905788965448541 	101365.4333407364
-1.11986986986987 	300.0338563213547 	0.09807037486507067 	101365.0305643412
-1.117367367367367 	300.0335096898264 	0.09706525755253261 	101364.6206665796
-1.114864864864865 	300.0331567213863 	0.09604448369666639 	101364.2032778108
-1.112362362362362 	300.0327972285192 	0.09500589862804684 	101363.7781755105
-1.10985985985986 	300.032431727156 	0.0939453459665501 	101363.3459695709
-1.107357357357357 	300.0320601359846 	0.09286884655475369 	101362.9065642261
-1.104854854854855 	300.0316825498424 	0.09177619516033186 	101362.4600702726
-1.102352352352353 	300.0312996575756 	0.09066883180743945 	101362.0073038137
-1.09984984984985 	300.0309111908819 	0.08954494924356117 	101361.5479468231
-1.097347347347347 	300.030516734886 	0.08839961715859203 	101361.0815085596
-1.094844844844845 	300.0301168041253 	0.08723890842342114 	101360.6085985304
-1.092342342342342 	300.0297115799133 	0.08606403940072258 	101360.1294300403
-1.08983983983984 	300.029300600658 	0.08487485558063178 	101359.6434579732
-1.087337337337337 	300.0288838352626 	0.08367010339499185 	101359.1506460565
-1.084834834834835 	300.0284617433188 	0.08244711900204055 	101358.6515375937
-1.082332332332332 	300.0280346081272 	0.08120890275115844 	101358.1464666615
-1.07982982982983 	300.0276022267208 	0.07995578287021018 	101357.6351934854
-1.077327327327327 	300.0271646419088 	0.07868869635534402 	101357.1177701132
-1.074824824824825 	300.0267224728258 	0.07741032971876118 	101356.5949282421
-1.072322322322323 	300.026275666305 	0.07611646850103101 	101356.0666042919
-1.06981981981982 	300.0258236229264 	0.07480452259864574 	101355.5320893737
-1.067317317317317 	300.0253665744573 	0.07347894427222997 	101354.9916581712
-1.064814814814815 	300.024905190982 	0.07214232953134046 	101354.4461037633
-1.062312312312312 	300.0244392687384 	0.07079518836335709 	101353.895184744
-1.05980980980981 	300.0239683953922 	0.06943308865097286 	101353.3384131078
-1.057307307307307 	300.0234927921254 	0.06805344797926002 	101352.7760505205
-1.054804804804805 	300.0230130525073 	0.06666190013194757 	101352.2087993729
-1.052302302302302 	300.0225295323846 	0.06526106776675071 	101351.6370806028
-1.0497997997998 	300.0220420794363 	0.063850216863203 	101351.0607140818
-1.047297297297297 	300.0215504013424 	0.06242709660655228 	101350.4793536058
-1.044794794794795 	300.0210544357445 	0.06098949973880717 	101349.8929251682
-1.042292292292292 	300.0205544253888 	0.05953960567505855 	101349.3017170476
-1.03978978978979 	300.0200507533186 	0.05808046341526343 	101348.7061828582
-1.037287287287287 	300.0195439296899 	0.05661291770526286 	101348.1069243725
-1.034784784784785 	300.0190337934961 	0.05513571754343938 	101347.5037506079
-1.032282282282283 	300.0185194163112 	0.05364534011194303 	101346.8955644135
-1.02977977977978 	300.0180003831292 	0.05214101982652858 	101346.2818767258
-1.027277277277277 	300.0174778040534 	0.05062748307417145 	101345.6640001977
-1.024774774774775 	300.0169534349169 	0.0491091491159198 	101345.0440092384
-1.022272272272272 	300.0164278767396 	0.04758735981060798 	101344.422614767
-1.01976976976977 	300.0158995896103 	0.04605635584999353 	101343.7979962294
-1.017267267267267 	300.0153662818999 	0.0445098548002177 	101343.1674434821
-1.014764764764765 	300.0148275933832 	0.04294968509755315 	101342.5305301698
-1.012262262262262 	300.0142857181198 	0.04138091492703629 	101341.8898524404
-1.00975975975976 	300.0137433484072 	0.03981205623595268 	101341.2485973044
-1.007257257257257 	300.01320137553 	0.03824245358384532 	101340.6078157008
-1.004754754754755 	300.0126582316823 	0.03666552314184338 	101339.9656485375
-1.002252252252252 	300.0121111454482 	0.0350793892565975 	101339.3188173043
-0.9997497497497498 	300.0115586570772 	0.03347939830935771 	101338.6656012217
-0.9972472472472473 	300.0110017586695 	0.03186969107470723 	101338.0071819984
-0.9947447447447449 	300.0104429752919 	0.0302532304757853 	101337.3465430902
-0.9922422422422421 	300.0098843324422 	0.02863204428915311 	101336.6860699585
-0.9897397397397399 	300.0093263419352 	0.02701398302995685 	101336.0263618966
-0.9872372372372376 	300.008768300265 	0.02539680925093969 	101335.3665919725
-0.9847347347347346 	300.0082092472418 	0.0237791031025668 	101334.7056375
-0.9822322322322323 	300.0076478987499 	0.02215401396967809 	101334.0419828646
-0.9797297297297296 	300.0070831878148 	0.02051571135267042 	101333.3743566791
-0.9772272272272275 	300.0065151830329 	0.0188698656663725 	101332.7028270991
-0.9747247247247248 	300.0059449602095 	0.01721817754905712 	101332.02866531
-0.9722222222222224 	300.0053734989408 	0.01556391815239505 	101331.3530432709
-0.9697197197197196 	300.0048015411986 	0.01390783452474465 	101330.6768516974
-0.9672172172172175 	300.0042290224348 	0.01224816784723482 	101330.0000162976
-0.9647147147147147 	300.0036555683789 	0.01058618516218967 	101329.3220812599
-0.9622122122122124 	300.0030813127338 	0.008921885190163003 	101328.6431879925
-0.9597097097097099 	300.0025068047252 	0.007257330477523669 	101327.9639800323
-0.9572072072072073 	300.001932085754 	0.005594215087927091 	101327.2845154123
-0.9547047047047047 	300.0013579039756 	0.003931355834220105 	101326.605696446
-0.9522022022022023 	300.0007844183403 	0.002269379843921583 	101325.9277256713
-0.9496996996996998 	300.0002119404515 	0.0006337105267323768 	101325.2509697384
-0.9471971971971973 	299.9996400650199 	0.001046450744623507 	101324.5749335172
-0.9446946946946947 	299.9990679476268 	0.002703791921389637 	101323.8986000335
-0.9421921921921923 	299.9984954699545 	0.00436252543740074 	101323.2218188584
-0.93968968968969 	299.9979228447024 	0.00602167337675893 	101322.5448459974
-0.9371871871871872 	299.9973502508921 	0.007681335802753229 	101321.8679091018
-0.9346846846846848 	299.9967777836374 	0.009339941869689762 	101321.1911370697
-0.9321821821821823 	299.996205536489 	0.01099756741145582 	101320.5146506401
-0.9296796796796799 	299.9956336942014 	0.01265362956393042 	101319.8386695919
-0.9271771771771771 	299.9950625070055 	0.01430762128722715 	101319.1634816446
-0.9246746746746748 	299.9944922241736 	0.01595973817448313 	101318.4893683404
-0.9221721721721724 	299.9939230490547 	0.01760821033192601 	101317.81655605
-0.9196696696696698 	299.9933551249094 	0.01925326003919713 	101317.1452029592
-0.9171671671671672 	299.9927885726823 	0.02089429644769102 	101316.4754493647
-0.9146646646646649 	299.9922234785191 	0.02253183947354211 	101315.8074016112
-0.9121621621621623 	299.9916598307802 	0.02416652730488602 	101315.1410532259
-0.9096596596596597 	299.9910975810241 	0.02579616125690653 	101314.4763545804
-0.9071571571571573 	299.9905367641945 	0.02742091079554313 	101313.813353157
-0.9046546546546547 	299.9899775192849 	0.02903951580564982 	101313.1522167809
-0.9021521521521524 	299.9894200413239 	0.0306532995710002 	101312.4931784984
-0.8996496496496498 	299.9888645136028 	0.03226325901190254 	101311.8364568404
-0.8971471471471473 	299.9883110901575 	0.03386625691696615 	101311.1822334043
-0.894644644644645 	299.987759947258 	0.03546265784091282 	101310.5307164551
-0.892142142142142 	299.9872112509045 	0.0370499384406643 	101309.8821024031
-0.8896396396396397 	299.9866650491678 	0.03863211769729542 	101309.2364441975
-0.8871371371371374 	299.9861212826714 	0.04021149073434599 	101308.5936709787
-0.8846346346346349 	299.9855799158621 	0.04178147762089697 	101307.9537385852
-0.8821321321321324 	299.9850410268041 	0.0433424741469244 	101307.3167384742
-0.8796296296296297 	299.984504784496 	0.04489209774937504 	101306.6828726179
-0.8771271271271271 	299.9839713393176 	0.04643519650388972 	101306.0523195246
-0.8746246246246248 	299.9834407996756 	0.0479745548803071 	101305.4252059222
-0.8721221221221224 	299.9829133366252 	0.04950296917225418 	101304.801731399
-0.8696196196196196 	299.9823891879379 	0.05102123339533458 	101304.1821741763
-0.8671171171171175 	299.9818685029342 	0.05252777865360604 	101303.5667114298
-0.8646146146146148 	299.9813512519327 	0.05402623651816942 	101302.9553100845
-0.8621121121121121 	299.9808373342152 	0.05551835594266372 	101302.3478535727
-0.8596096096096097 	299.9803267838166 	0.0569982593365399 	101301.7443821143
-0.857107107107107 	299.9798198086488 	0.05846676328273254 	101301.1451416708
-0.8546046046046049 	299.9793165933867 	0.05992342929912597 	101300.5503488939
-0.8521021021021022 	299.9788171649877 	0.06136962820279391 	101299.9600326801
-0.8495995995995997 	299.9783215380907 	0.06280582002473531 	101299.3742093295
-0.8470970970970974 	299.9778298984476 	0.0642296792639514 	101298.7930977885
-0.8445945945945946 	299.9773425147936 	0.06564192887612474 	101298.2170178357
-0.8420920920920922 	299.9768594897322 	0.06704158110831865 	101297.6460937399
-0.8395895895895897 	299.9763807032737 	0.06842910829744549 	101297.0801848642
-0.8370870870870872 	299.9759060784344 	0.06980432013774988 	101296.5191998973
-0.8345845845845846 	299.9754358112518 	0.07116611877997193 	101295.9633694171
-0.8320820820820823 	299.9749701951248 	0.07251528372492164 	101295.4130390575
-0.8295795795795798 	299.974509303938 	0.07385068464811725 	101294.8682940539
-0.8270770770770772 	299.9740530232516 	0.07517251613735421 	101294.3289974484
-0.8245745745745746 	299.973601360358 	0.07648042924338787 	101293.7951579039
-0.8220720720720721 	299.9731545704373 	0.07777411172089238 	101293.2670778791
-0.8195695695695699 	299.9727129145651 	0.07905424179446841 	101292.7450680524
-0.817067067067067 	299.9722763998483 	0.08031937156917048 	101292.2291371366
-0.8145645645645651 	299.9718449028791 	0.08156954630673291 	101291.7191396534
-0.8120620620620621 	299.9714184860263 	0.08280429821326046 	101291.215149962
-0.8095595595595597 	299.9709973904497 	0.08402389706606603 	101290.7174534213
-0.8070570570570572 	299.9705817584535 	0.0852288845766309 	101290.2262181148
-0.8045545545545546 	299.9701715462778 	0.08641751225650471 	101289.7413913717
-0.8020520520520523 	299.969766716113 	0.08758999153063764 	101289.2629274044
-0.7995495495495494 	299.9693674056143 	0.08874576556567081 	101288.7909874014
-0.7970470470470474 	299.9689738275803 	0.08988569379762083 	101288.325820857
-0.7945445445445446 	299.9685860445865 	0.09101026077645252 	101287.8675034289
-0.7920420420420423 	299.9682040083556 	0.09211723866750579 	101287.4159796756
-0.7895395395395397 	299.9678277797652 	0.09320697574949607 	101286.9713216278
-0.7870370370370371 	299.9674575298732 	0.09427839486015899 	101286.5337312121
-0.7845345345345348 	299.967093382884 	0.09533311557764081 	101286.1033553957
-0.7820320320320323 	299.9667353579567 	0.09637188533884314 	101285.6802165436
-0.7795295295295296 	299.9663834203009 	0.09739174877455101 	101285.2642732425
-0.7770270270270272 	299.9660376068429 	0.09839333322224908 	101284.8555690851
-0.7745245245245247 	299.9656980566336 	0.09937432989738418 	101284.4542678351
-0.7720220220220222 	299.9653648414172 	0.1003388813829276 	101284.0604546451
-0.7695195195195199 	299.9650379617221 	0.10128862060097 	101283.6741310105
-0.767017017017017 	299.9647175034022 	0.1022176816382398 	101283.2953975844
-0.7645145145145147 	299.964403592213 	0.1031270001889649 	101282.9244026945
-0.7620120120120122 	299.9640963308843 	0.1040137186425087 	101282.5612679111
-0.7595095095095097 	299.9637958190698 	0.1048833643593791 	101282.2061105702
-0.7570070070070072 	299.9635020341188 	0.1057382092044315 	101281.8589052205
-0.7545045045045048 	299.9632149051411 	0.1065709999378978 	101281.5195667538
-0.7520020020020022 	299.9629345074752 	0.1073832801487663 	101281.1881836212
-0.7494994994994997 	299.962660914577 	0.1081733636473659 	101280.8648425949
-0.7469969969969972 	299.962394103405 	0.1089454539840661 	101280.549517129
-0.7444944944944945 	299.9621341486898 	0.1097010605863525 	101280.2422969678
-0.7419919919919924 	299.9618811960952 	0.1104344135261838 	101279.943352895
-0.7394894894894897 	299.9616353804363 	0.1111465065907366 	101279.6528438244
-0.7369869869869872 	299.9613968288385 	0.1118366360493044 	101279.3709192199
-0.7344844844844846 	299.9611655213658 	0.1125066756371009 	101279.0975557323
-0.7319819819819822 	299.9609413597817 	0.1131571827628297 	101278.832638554
-0.7294794794794797 	299.960724362257 	0.1137861095825685 	101278.5761887497
-0.7269769769769773 	299.9605145360486 	0.1143943583126856 	101278.3282147244
-0.7244744744744747 	299.9603118493258 	0.114980993099706 	101278.0886786273
-0.721971971971972 	299.9601163561122 	0.1155470572078893 	101277.8576436503
-0.7194694694694695 	299.9599281531341 	0.1160924482517232 	101277.6352241835
-0.7169669669669674 	299.9597473906638 	0.1166158389201959 	101277.4215978919
-0.7144644644644647 	299.9595742403952 	0.1171177316691514 	101277.2169682611
-0.711961961961962 	299.9594087202462 	0.1175970653047478 	101277.0213573964
-0.7094594594594597 	299.9592507557136 	0.1180547388791662 	101276.8346772832
-0.7069569569569573 	299.9591003218172 	0.1184908840542618 	101276.6568967002
-0.7044544544544545 	299.9589574035829 	0.1189052334301525 	101276.487996074
-0.7019519519519523 	299.9588219770184 	0.1192983000486809 	101276.3279478062
-0.6994494494494495 	299.958694007214 	0.1196689075027608 	101276.1767120103
-0.6969469469469471 	299.9585734740272 	0.1200176652700788 	101276.0342664724
-0.6944444444444446 	299.9584604983158 	0.1203441862363598 	101275.9007547979
-0.6919419419419421 	299.9583552981194 	0.1206485237843575 	101275.7764323666
-0.6894394394394396 	299.9582579562838 	0.1209310489857389 	101275.6613962088
-0.6869369369369374 	299.9581684161653 	0.1211904372015787 	101275.5555787108
-0.6844344344344344 	299.9580866527954 	0.1214275392296978 	101275.4589498473
-0.6819319319319321 	299.9580126945593 	0.1216419375319041 	101275.3715438986
-0.6794294294294296 	299.9579465345645 	0.1218343575913219 	101275.2933546888
-0.6769269269269272 	299.9578880553337 	0.122005232745162 	101275.2242449355
-0.6744244244244245 	299.9578370957846 	0.1221527278095743 	101275.164024266
-0.6719219219219222 	299.9577936865429 	0.1222775570976218 	101275.1127279235
-0.6694194194194195 	299.9577580553923 	0.1223788838239005 	101275.0706207371
-0.6669169169169172 	299.9577303199645 	0.1224583621456368 	101275.037841305
-0.6644144144144146 	299.95771044144 	0.1225166469730603 	101275.0143463434
-0.661911911911912 	299.9576984116752 	0.1225513446738732 	101275.0001251526
-0.6594094094094097 	299.9576943178349 	0.1225635255740759 	101274.995284292
-0.656906906906907 	299.9576982323456 	0.1225513032784987 	101274.9999095287
-0.6544044044044046 	299.9577100233066 	0.12251818419793 	101275.0138442244
-0.6519019019019021 	299.9577293712425 	0.1224649222420996 	101275.0367117477
-0.6493993993993996 	299.9577561707093 	0.1223866916565849 	101275.0683869574
-0.6468968968968971 	299.957790680721 	0.122285319024096 	101275.1091724462
-0.6443943943943946 	299.9578331324959 	0.1221581265080356 	101275.1593412575
-0.6418918918918921 	299.9578834625851 	0.1220112976288452 	101275.2188192027
-0.6393893893893897 	299.9579414744824 	0.1218464512900119 	101275.2873732594
-0.6368868868868871 	299.9580071545175 	0.1216561568759568 	101275.3649870428
-0.6343843843843846 	299.9580807687711 	0.1214429672363288 	101275.4519768847
-0.6318818818818821 	299.9581624491257 	0.1212046865737702 	101275.5484975901
-0.6293793793793795 	299.9582518230583 	0.1209465121917966 	101275.6541124426
-0.6268768768768773 	299.9583484948448 	0.1206694336864564 	101275.7683560816
-0.6243743743743745 	299.9584525417895 	0.1203670358782712 	101275.8913736675
-0.6218718718718721 	299.9585644297217 	0.1200421193734403 	101276.0236022326
-0.6193693693693696 	299.9586842579886 	0.1196943741850433 	101276.165175653
-0.6168668668668671 	299.9588116626236 	0.119325666172303 	101276.3157328549
-0.6143643643643645 	299.9589463499149 	0.118935934681545 	101276.4749082741
-0.6118618618618621 	299.9590885424827 	0.1185231573907684 	101276.6429523846
-0.6093593593593596 	299.9592386031295 	0.1180890491978615 	101276.8202928917
-0.6068568568568571 	299.9593963238603 	0.1176325750990752 	101277.0066836504
-0.6043543543543546 	299.9595613447436 	0.1171547494985045 	101277.2016995083
-0.6018518518518521 	299.9597336227458 	0.1166557187450343 	101277.4052900945
-0.5993493493493496 	299.9599132769688 	0.1161345765115754 	101277.6175990519
-0.5968468468468471 	299.9601004883022 	0.1155924726520314 	101277.8388425681
-0.5943443443443446 	299.9602952084695 	0.1150285764141842 	101278.0689624855
-0.591841841841842 	299.9604970040677 	0.1144436064393944 	101278.3074468383
-0.5893393393393397 	299.9607058773749 	0.1138378192027531 	101278.554297985
-0.5868368368368371 	299.9609221417235 	0.1132114445924301 	101278.8098853951
-0.5843343343343346 	299.9611456146083 	0.1125648192680715 	101279.0739927399
-0.5818318318318321 	299.9613761933733 	0.1118965858039733 	101279.3464971333
-0.5793293293293297 	299.961614039069 	0.1112076839063703 	101279.6275883918
-0.5768268268268271 	299.9618589617698 	0.1104977631209571 	101279.917042432
-0.5743243243243245 	299.9621109007616 	0.1097675451070007 	101280.2147880917
-0.5718218218218221 	299.962369857719 	0.1090183324329832 	101280.5208272725
-0.5693193193193196 	299.962635452459 	0.1082486266541278 	101280.8347111266
-0.5668168168168171 	299.9629077903036 	0.1074589963323524 	101281.1565648905
-0.5643143143143147 	299.9631872299548 	0.1066491057591906 	101281.4868123171
-0.5618118118118121 	299.9634735305667 	0.1058197326642607 	101281.8251689483
-0.5593093093093094 	299.9637664188738 	0.1049720387013185 	101282.171313884
-0.5568068068068072 	299.9640657531377 	0.1041049398414988 	101282.5250785911
-0.5543043043043046 	299.9643715263317 	0.1032186491814457 	101282.8864544301
-0.551801801801802 	299.9646842466324 	0.1023117031735804 	101283.2560415264
-0.5492992992992995 	299.9650040541451 	0.1013855768330713 	101283.6340052181
-0.5467967967967969 	299.9653303055513 	0.1004416407297725 	101284.0195854943
-0.5442942942942947 	299.9656623937007 	0.09947936661746323 	101284.4120646547
-0.5417917917917919 	299.9660001804222 	0.09850059232216617 	101284.8112801329
-0.5392892892892895 	299.9663438975097 	0.09750285661790534 	101285.2175055575
-0.536786786786787 	299.9666941845201 	0.09648777079453814 	101285.6314970265
-0.5342842842842846 	299.967051238942 	0.09545528960025634 	101286.0534885114
-0.531781781781782 	299.9674147645123 	0.09440230464184689 	101286.4831288129
-0.5292792792792794 	299.9677841554657 	0.09333221724941379 	101286.9197020617
-0.526776776776777 	299.9681590126455 	0.09224301956544974 	101287.3627363311
-0.5242742742742745 	299.9685390468552 	0.09114121819882359 	101287.8118910519
-0.521771771771772 	299.9689248247013 	0.0900270706155456 	101288.2678367153
-0.5192692692692695 	299.9693168741873 	0.08889158471508075 	101288.7311965522
-0.516766766766767 	299.9697153840651 	0.08773731723156718 	101289.2021927436
-0.5142642642642645 	299.9701196674533 	0.0865628375996058 	101289.6800132713
-0.511761761761762 	299.9705287865179 	0.08537735501993947 	101290.1635503169
-0.5092592592592596 	299.970941929634 	0.08418350683563752 	101290.6518460821
-0.506756756756757 	299.9713597826248 	0.0829728336579304 	101291.1457106106
-0.5042542542542544 	299.9717834666574 	0.08174533798723671 	101291.6464688914
-0.5017517517517521 	299.972213826182 	0.0804974996986553 	101292.1551187458
-0.4992492492492494 	299.9726504918671 	0.07923269863001534 	101292.6712236161
-0.496746746746747 	299.9730924395042 	0.07795429461943666 	101293.1935731059
-0.4942442442442445 	299.9735382646532 	0.07666283342308458 	101293.7205068868
-0.4917417417417421 	299.9739874153518 	0.07536187693656608 	101294.2513724833
-0.4892392392392395 	299.9744400053611 	0.07404972047529697 	101294.7863053772
-0.486736736736737 	299.97489697902 	0.07272486350815575 	101295.3264228595
-0.4842342342342345 	299.9753597362069 	0.07138409136693381 	101295.8733795619
-0.481731731731732 	299.9758290919693 	0.07002455680025112 	101296.4281374704
-0.4792292292292296 	299.9763044583239 	0.0686484400892514 	101296.9900007057
-0.4767267267267268 	299.9767843204667 	0.06725878892121422 	101297.5571784885
-0.4742242242242246 	299.9772668713769 	0.0658612557812735 	101298.1275357744
-0.471721721721722 	299.9777512074206 	0.06445789764744865 	101298.7000065452
-0.4692192192192195 	299.9782380812561 	0.06304698832112664 	101299.2754803427
-0.4667167167167169 	299.9787289805994 	0.06162522074152785 	101299.8557151297
-0.4642142142142145 	299.9792249915842 	0.06018735025232139 	101300.4419936981
-0.461711711711712 	299.9797268170389 	0.05873280435012101 	101301.0351473661
-0.4592092092092094 	299.9802343194574 	0.05726251915559445 	101301.6350142641
-0.456706706706707 	299.9807463531927 	0.05577965612938776 	101302.240239877
-0.4542042042042045 	299.9812613644654 	0.05428939493823236 	101302.8489864158
-0.451701701701702 	299.9817775742089 	0.0527944693070824 	101303.4591498862
-0.4491991991991995 	299.9822942620931 	0.05129689003891923 	101304.0698805028
-0.4466966966966969 	299.9828126680181 	0.04979456382773117 	101304.6826460977
-0.4441941941941945 	299.9833344768182 	0.0482837092649171 	101305.2994397727
-0.441691691691692 	299.9838606199886 	0.04675984830980039 	101305.9213615872
-0.4391891891891895 	299.9843919855135 	0.04521932314242474 	101306.5494578882
-0.436686686686687 	299.9849284376204 	0.04366388739886534 	101307.1835667946
-0.4341841841841846 	299.9854691399225 	0.04209602304272782 	101307.8227005737
-0.431681681681682 	299.9860132094144 	0.04052153484983097 	101308.4658182019
-0.4291791791791794 	299.9865587916942 	0.03894411066862628 	101309.1107294454
-0.426676676676677 	299.9871035839689 	0.03736464612425407 	101309.7547098659
-0.4241741741741744 	299.9876480195211 	0.03578704625154298 	101310.3982690998
-0.421671671671672 	299.9881930996382 	0.03420839503972554 	101311.0425909052
-0.4191691691691694 	299.9887396094356 	0.03262540439494663 	101311.6886060906
-0.4166666666666669 	299.9892889030061 	0.03103522768302616 	101312.3379179822
-0.4141641641641645 	299.9898416418048 	0.02943221854575961 	101312.991310629
-0.411661661661662 	299.9903979749079 	0.02781658699250415 	101313.6489559239
-0.4091591591591594 	299.9909600011829 	0.02618698340653592 	101314.3133311792
-0.406656656656657 	299.9915260599895 	0.02454950906481212 	101314.9824718121
-0.4041541541541545 	299.9920939409631 	0.02290665175760302 	101315.6537665298
-0.401651651651652 	299.9926626992701 	0.02125900486156478 	101316.3261020285
-0.3991491491491494 	299.9932316584739 	0.01961274893113883 	101316.9986837578
-0.396646646646647 	299.9937988548395 	0.01796552281896608 	101317.6691876906
-0.3941441441441444 	299.9943652811754 	0.01632611541070377 	101318.3387833327
-0.3916416416416419 	299.9949294384559 	0.01469477745870948 	101319.0056943586
-0.3891391391391395 	299.9954917514852 	0.01306344016637282 	101319.6704231156
-0.3866366366366368 	299.9960535520969 	0.01143575207765714 	101320.3345485091
-0.3841341341341344 	299.9966158033675 	0.009805470811867783 	101320.999217609
-0.381631631631632 	299.9971793086125 	0.008171863247784036 	101321.6653797048
-0.3791291291291294 	299.997744986841 	0.006535378840951605 	101322.3341170309
-0.3766266266266269 	299.9983125533673 	0.004890971358207853 	101323.00508617
-0.3741241241241244 	299.9988828295236 	0.003238490712190108 	101323.6792544199
-0.371621621621622 	299.99945726249 	0.001575197946647484 	101324.3583334726
-0.3691191191191194 	300.0000344693451 	0.0004883369507032439 	101325.0406945837
-0.366616616616617 	300.0006124723618 	0.001769777518379526 	101325.7240058939
-0.3641141141141143 	300.0011896610379 	0.003441673940850625 	101326.4063673099
-0.3616116116116119 	300.001765757489 	0.005110586343157229 	101327.0874454847
-0.3591091091091095 	300.0023407575143 	0.006776337276043649 	101327.7672269717
-0.356606606606607 	300.0029146830221 	0.008438952476350991 	101328.445731157
-0.3541041041041044 	300.0034875503873 	0.01009846932180331 	101329.122977332
-0.3516016016016019 	300.0040593582578 	0.01175489963167905 	101329.7989713836
-0.3490990990990994 	300.0046300877882 	0.01340821591458415 	101330.4737009282
-0.346596596596597 	300.0051997072456 	0.0150583453689515 	101331.1471340542
-0.3440940940940944 	300.0057681757289 	0.01670516798086201 	101331.8192200563
-0.3415915915915919 	300.0063354443118 	0.01834852101282337 	101332.4898920929
-0.3390890890890895 	300.0069014546699 	0.01998820704109901 	101333.159070836
-0.3365865865865869 	300.0074661356691 	0.02162400173446979 	101333.8266669238
-0.3340840840840844 	300.0080294013819 	0.02325565995272862 	101334.4925819673
-0.3315815815815819 	300.0085911547268 	0.0248829218679946 	101335.1567102116
-0.3290790790790794 	300.0091512930219 	0.02650551947449585 	101335.8189413147
-0.3265765765765769 	300.0097097151852 	0.02812317971102172 	101336.4791620455
-0.3240740740740744 	300.0102663248769 	0.02973562360236115 	101337.1372563522
-0.3215715715715718 	300.0108210298588 	0.03134256718207595 	101337.7931062914
-0.3190690690690695 	300.0113737410465 	0.03294372467060282 	101338.4465944263
-0.3165665665665668 	300.0119243678437 	0.0345388095203801 	101339.0976046949
-0.3140640640640644 	300.0124728119967 	0.03612753200339147 	101339.7460207725
-0.311561561561562 	300.0130189674961 	0.03770959927347357 	101340.3917253802
-0.3090590590590593 	300.0135627261022 	0.03928472083514693 	101341.0346021095
-0.3065565565565568 	300.0141039815127 	0.04085261156641732 	101341.6745360348
-0.3040540540540545 	300.0146426319039 	0.04241298777012237 	101342.3114110544
-0.3015515515515518 	300.0151785798557 	0.04396556533042185 	101342.9451084337
-0.2990490490490494 	300.0157117331256 	0.04551006327443704 	101343.5755099055
-0.2965465465465469 	300.0162420046526 	0.04704620633004756 	101344.2025005599
-0.2940440440440444 	300.0167693059327 	0.04857371867185847 	101344.8259666888
-0.2915415415415418 	300.0172935425693 	0.05009231759875651 	101345.445793022
-0.2890390390390395 	300.01781461516 	0.05160171931080246 	101346.0618653964