/*--------------------------------*- C++ -*----------------------------------*\
  =========                 |
  \\      /  F ield         | OpenFOAM: The Open Source CFD Toolbox
   \\    /   O peration     | Website:  https://openfoam.org
    \\  /    A nd           | Version:  7
     \\/     M anipulation  |
\*---------------------------------------------------------------------------*/
FoamFile
{
    version     2.0;
    format      ascii;
    class       volScalarField;
    location    "0.00299";
    object      Ux;
}
// * * * * * * * * * * * * * * * * * * * * * * * * * * * * * * * * * * * * * //

dimensions      [0 1 -1 0 0 0 0];

internalField   nonuniform List<scalar> 
5000
(
23.100001
23.100001
23.1
23.1
23.1
23.099999
23.099999
23.099999
23.099999
23.099999
23.099999
23.099998
23.099998
23.099998
23.099998
23.099997
23.099997
23.099997
23.099997
23.099996
23.099996
23.099996
23.099996
23.099996
23.099996
23.099995
23.099995
23.099995
23.099995
23.099994
23.099994
23.099994
23.099994
23.099993
23.099993
23.099993
23.099993
23.099993
23.099992
23.099992
23.099992
23.099992
23.099991
23.099991
23.099991
23.099991
23.099991
23.09999
23.09999
23.09999
23.09999
23.099989
23.099989
23.099989
23.099989
23.099989
23.099988
23.099988
23.099988
23.099988
23.099987
23.099987
23.099987
23.099987
23.099987
23.099986
23.099986
23.099986
23.099986
23.099985
23.099985
23.099985
23.099985
23.099985
23.099984
23.099984
23.099984
23.099984
23.099983
23.099983
23.099983
23.099983
23.099982
23.099982
23.099982
23.099982
23.099982
23.099981
23.099981
23.099981
23.099981
23.09998
23.09998
23.09998
23.09998
23.099979
23.099979
23.099979
23.099979
23.099979
23.099978
23.099978
23.099978
23.099978
23.099977
23.099977
23.099977
23.099977
23.099977
23.099976
23.099976
23.099976
23.099976
23.099975
23.099975
23.099975
23.099975
23.099974
23.099974
23.099974
23.099974
23.099974
23.099973
23.099973
23.099973
23.099973
23.099972
23.099972
23.099972
23.099972
23.099971
23.099971
23.099971
23.099971
23.09997
23.09997
23.09997
23.09997
23.09997
23.099969
23.099969
23.099969
23.099969
23.099969
23.099969
23.099969
23.09997
23.099968
23.099967
23.099967
23.099967
23.099967
23.099966
23.099966
23.099966
23.099966
23.099965
23.099965
23.099965
23.099965
23.099965
23.099964
23.099964
23.099964
23.099964
23.099963
23.099963
23.099963
23.099963
23.099963
23.099962
23.099962
23.099962
23.099962
23.099961
23.099961
23.099961
23.099961
23.09996
23.09996
23.09996
23.09996
23.09996
23.099959
23.099959
23.099959
23.099959
23.099958
23.099958
23.099958
23.099958
23.099958
23.099957
23.099957
23.099957
23.099957
23.099957
23.099956
23.099956
23.099956
23.099956
23.099955
23.099955
23.099955
23.099955
23.099955
23.099954
23.099954
23.099954
23.099954
23.099954
23.099953
23.099953
23.099953
23.099953
23.099953
23.099952
23.099952
23.099952
23.099952
23.099951
23.099951
23.099951
23.099951
23.099951
23.09995
23.09995
23.09995
23.09995
23.09995
23.099949
23.099949
23.099949
23.099949
23.099949
23.099948
23.099948
23.099948
23.099948
23.099948
23.099947
23.099947
23.099947
23.099947
23.099947
23.099946
23.099946
23.099946
23.099946
23.099946
23.099946
23.099945
23.099945
23.099945
23.099945
23.099945
23.099944
23.099944
23.099944
23.099944
23.099944
23.099943
23.099943
23.099943
23.099943
23.099943
23.099942
23.099942
23.099942
23.099942
23.099942
23.099942
23.099941
23.099941
23.099941
23.099941
23.099941
23.09994
23.09994
23.09994
23.09994
23.09994
23.09994
23.099939
23.099939
23.099939
23.099939
23.099939
23.099938
23.099938
23.099938
23.099938
23.099938
23.099938
23.099937
23.099937
23.099937
23.099937
23.099937
23.099936
23.099936
23.099936
23.099936
23.099936
23.099936
23.099935
23.099935
23.099935
23.099935
23.099935
23.099934
23.099934
23.099934
23.099934
23.099934
23.099934
23.099933
23.099933
23.099933
23.099933
23.099933
23.099933
23.099932
23.099932
23.099932
23.099932
23.099932
23.099932
23.099931
23.099931
23.099931
23.099931
23.099931
23.09993
23.09993
23.09993
23.09993
23.09993
23.09993
23.099929
23.099929
23.099929
23.099929
23.099929
23.099929
23.099928
23.099928
23.099928
23.099928
23.099928
23.099927
23.099927
23.099927
23.099927
23.099927
23.099927
23.099926
23.099926
23.099926
23.099926
23.099926
23.099926
23.099925
23.099925
23.099925
23.099925
23.099925
23.099925
23.099924
23.099924
23.099924
23.099924
23.099924
23.099924
23.099923
23.099923
23.099923
23.099923
23.099923
23.099923
23.099922
23.099922
23.099922
23.099922
23.099922
23.099922
23.099921
23.099921
23.099921
23.099921
23.099921
23.099921
23.09992
23.09992
23.09992
23.09992
23.09992
23.09992
23.099919
23.099919
23.099919
23.099919
23.099919
23.099919
23.099918
23.099918
23.099918
23.099918
23.099918
23.099918
23.099917
23.099917
23.099917
23.099917
23.099917
23.099916
23.099916
23.099916
23.099916
23.099916
23.099916
23.099915
23.099915
23.099915
23.099915
23.099915
23.099915
23.099914
23.099914
23.099914
23.099914
23.099914
23.099914
23.099913
23.099913
23.099913
23.099913
23.099913
23.099913
23.099912
23.099912
23.099912
23.099912
23.099912
23.099912
23.099911
23.099911
23.099911
23.099911
23.099911
23.099911
23.09991
23.09991
23.09991
23.09991
23.09991
23.09991
23.099909
23.099909
23.099909
23.099909
23.099909
23.099909
23.099908
23.099908
23.099908
23.099908
23.099908
23.099908
23.099908
23.099907
23.099907
23.099907
23.099907
23.099907
23.099906
23.099906
23.099906
23.099906
23.099906
23.099906
23.099906
23.099905
23.099905
23.099905
23.099905
23.099905
23.099905
23.099904
23.099904
23.099904
23.099904
23.099904
23.099904
23.099903
23.099903
23.099903
23.099903
23.099903
23.099903
23.099903
23.099902
23.099902
23.099902
23.099902
23.099902
23.099902
23.099901
23.099901
23.099901
23.099901
23.099901
23.099901
23.0999
23.0999
23.0999
23.0999
23.0999
23.0999
23.0999
23.099899
23.099899
23.099899
23.099899
23.099899
23.099899
23.099898
23.099898
23.099898
23.099898
23.099898
23.099898
23.099897
23.099897
23.099897
23.099897
23.099897
23.099897
23.099897
23.099896
23.099896
23.099896
23.099896
23.099896
23.099896
23.099895
23.099895
23.099895
23.099895
23.099895
23.099895
23.099895
23.099894
23.099894
23.099894
23.099894
23.099894
23.099894
23.099894
23.099893
23.099893
23.099893
23.099893
23.099893
23.099893
23.099892
23.099892
23.099892
23.099892
23.099892
23.099892
23.099892
23.099891
23.099891
23.099891
23.099891
23.099891
23.099891
23.099891
23.09989
23.09989
23.09989
23.09989
23.09989
23.09989
23.099889
23.099889
23.099889
23.099889
23.099889
23.099889
23.099889
23.099888
23.099888
23.099888
23.099888
23.099888
23.099888
23.099888
23.099887
23.099887
23.099887
23.099887
23.099887
23.099887
23.099887
23.099886
23.099886
23.099886
23.099886
23.099886
23.099886
23.099886
23.099885
23.099885
23.099885
23.099885
23.099885
23.099885
23.099884
23.099884
23.099884
23.099884
23.099884
23.099884
23.099884
23.099883
23.099883
23.099883
23.099883
23.099883
23.099883
23.099883
23.099883
23.099882
23.099882
23.099882
23.099882
23.099882
23.099882
23.099882
23.099881
23.099881
23.099881
23.099881
23.099881
23.099881
23.099881
23.09988
23.09988
23.09988
23.09988
23.09988
23.09988
23.09988
23.099879
23.099879
23.099879
23.099879
23.099879
23.099879
23.099879
23.099878
23.099878
23.099878
23.099878
23.099878
23.099878
23.099878
23.099877
23.099877
23.099877
23.099877
23.099877
23.099877
23.099877
23.099876
23.099876
23.099876
23.099876
23.099876
23.099876
23.099876
23.099875
23.099875
23.099875
23.099875
23.099875
23.099875
23.099875
23.099875
23.099874
23.099874
23.099874
23.099874
23.099874
23.099874
23.099874
23.099874
23.099873
23.099873
23.099873
23.099873
23.099873
23.099873
23.099873
23.099872
23.099872
23.099872
23.099872
23.099872
23.099872
23.099872
23.099872
23.099871
23.099871
23.099871
23.099871
23.099871
23.099871
23.099871
23.099871
23.09987
23.09987
23.09987
23.09987
23.09987
23.09987
23.09987
23.09987
23.099869
23.099869
23.099869
23.099869
23.099869
23.099869
23.099869
23.099869
23.099868
23.099868
23.099868
23.099868
23.099868
23.099868
23.099868
23.099868
23.099868
23.099867
23.099867
23.099867
23.099867
23.099867
23.099867
23.099867
23.099867
23.099866
23.099866
23.099866
23.099866
23.099866
23.099866
23.099866
23.099866
23.099866
23.099865
23.099865
23.099865
23.099865
23.099865
23.099865
23.099865
23.099865
23.099864
23.099864
23.099864
23.099864
23.099864
23.099864
23.099864
23.099864
23.099864
23.099863
23.099863
23.099863
23.099863
23.099863
23.099863
23.099863
23.099863
23.099863
23.099862
23.099862
23.099862
23.099862
23.099862
23.099862
23.099862
23.099862
23.099861
23.099861
23.099861
23.099861
23.099861
23.099861
23.099861
23.099861
23.099861
23.099861
23.09986
23.09986
23.09986
23.09986
23.09986
23.09986
23.09986
23.09986
23.09986
23.099859
23.099859
23.099859
23.099859
23.099859
23.099859
23.099859
23.099859
23.099859
23.099858
23.099858
23.099858
23.099858
23.099858
23.099858
23.099858
23.099858
23.099858
23.099857
23.099857
23.099857
23.099857
23.099857
23.099857
23.099857
23.099857
23.099857
23.099857
23.099856
23.099856
23.099856
23.099856
23.099856
23.099856
23.099856
23.099856
23.099856
23.099855
23.099855
23.099855
23.099855
23.099855
23.099855
23.099855
23.099855
23.099855
23.099854
23.099854
23.099854
23.099854
23.099854
23.099854
23.099854
23.099854
23.099854
23.099853
23.099853
23.099853
23.099853
23.099853
23.099853
23.099853
23.099853
23.099853
23.099852
23.099852
23.099852
23.099852
23.099852
23.099852
23.099852
23.099852
23.099852
23.099851
23.099851
23.099851
23.099851
23.099851
23.099851
23.099851
23.099851
23.099851
23.09985
23.09985
23.09985
23.09985
23.09985
23.09985
23.09985
23.09985
23.099849
23.099849
23.099849
23.099849
23.099849
23.099849
23.099849
23.099849
23.099849
23.099848
23.099848
23.099848
23.099848
23.099848
23.099848
23.099848
23.099848
23.099848
23.099847
23.099847
23.099847
23.099847
23.099847
23.099847
23.099847
23.099847
23.099847
23.099846
23.099846
23.099846
23.099846
23.099846
23.099846
23.099846
23.099846
23.099846
23.099845
23.099845
23.099845
23.099845
23.099845
23.099845
23.099845
23.099845
23.099844
23.099844
23.099844
23.099844
23.099844
23.099844
23.099844
23.099844
23.099844
23.099843
23.099843
23.099843
23.099843
23.099843
23.099843
23.099843
23.099843
23.099843
23.099842
23.099842
23.099842
23.099842
23.099842
23.099842
23.099842
23.099842
23.099842
23.099842
23.099841
23.099841
23.099841
23.099841
23.099841
23.099841
23.099841
23.099841
23.099841
23.09984
23.09984
23.09984
23.09984
23.09984
23.09984
23.09984
23.09984
23.09984
23.09984
23.099839
23.099839
23.099839
23.099839
23.099839
23.099839
23.099839
23.099839
23.099839
23.099839
23.099839
23.099838
23.099838
23.099838
23.099838
23.099838
23.099838
23.099838
23.099838
23.099838
23.099838
23.099837
23.099837
23.099837
23.099837
23.099837
23.099837
23.099837
23.099837
23.099837
23.099837
23.099837
23.099836
23.099836
23.099836
23.099836
23.099836
23.099836
23.099836
23.099836
23.099836
23.099836
23.099836
23.099835
23.099835
23.099835
23.099835
23.099835
23.099835
23.099835
23.099835
23.099835
23.099835
23.099835
23.099834
23.099834
23.099834
23.099834
23.099834
23.099834
23.099834
23.099834
23.099834
23.099834
23.099834
23.099833
23.099833
23.099833
23.099833
23.099833
23.099833
23.099833
23.099833
23.099833
23.099833
23.099833
23.099832
23.099832
23.099832
23.099832
23.099832
23.099832
23.099832
23.099832
23.099832
23.099832
23.099832
23.099831
23.099831
23.099831
23.099831
23.099831
23.099831
23.099831
23.099831
23.099831
23.099831
23.099831
23.09983
23.09983
23.09983
23.09983
23.09983
23.09983
23.09983
23.09983
23.09983
23.09983
23.09983
23.099829
23.099829
23.099829
23.099829
23.099829
23.099829
23.099829
23.099829
23.099829
23.099829
23.099829
23.099828
23.099828
23.099828
23.099828
23.099828
23.099828
23.099828
23.099828
23.099828
23.099828
23.099827
23.099827
23.099827
23.099827
23.099827
23.099827
23.099827
23.099827
23.099827
23.099827
23.099826
23.099826
23.099826
23.099826
23.099826
23.099826
23.099826
23.099826
23.099826
23.099826
23.099825
23.099825
23.099825
23.099825
23.099825
23.099825
23.099825
23.099825
23.099825
23.099825
23.099824
23.099824
23.099824
23.099824
23.099824
23.099824
23.099824
23.099824
23.099824
23.099824
23.099824
23.099823
23.099823
23.099823
23.099823
23.099823
23.099823
23.099823
23.099823
23.099823
23.099823
23.099822
23.099822
23.099822
23.099822
23.099822
23.099822
23.099822
23.099822
23.099822
23.099822
23.099822
23.099821
23.099821
23.099821
23.099821
23.099821
23.099821
23.099821
23.099821
23.099821
23.099821
23.09982
23.09982
23.09982
23.09982
23.09982
23.09982
23.09982
23.09982
23.09982
23.09982
23.09982
23.099819
23.099819
23.099819
23.099819
23.099819
23.099819
23.099819
23.099819
23.099819
23.099819
23.099819
23.099818
23.099818
23.099818
23.099818
23.099818
23.099818
23.099818
23.099818
23.099818
23.099818
23.099818
23.099817
23.099817
23.099817
23.099817
23.099817
23.099817
23.099817
23.099817
23.099817
23.099817
23.099817
23.099817
23.099816
23.099816
23.099816
23.099816
23.099816
23.099816
23.099816
23.099816
23.099816
23.099816
23.099816
23.099815
23.099815
23.099815
23.099815
23.099815
23.099815
23.099815
23.099815
23.099815
23.099815
23.099815
23.099814
23.099814
23.099814
23.099814
23.099814
23.099814
23.099814
23.099814
23.099814
23.099814
23.099814
23.099813
23.099813
23.099813
23.099813
23.099813
23.099813
23.099813
23.099813
23.099813
23.099813
23.099813
23.099812
23.099812
23.099812
23.099812
23.099812
23.099812
23.099812
23.099812
23.099812
23.099812
23.099812
23.099811
23.099811
23.099811
23.099811
23.099811
23.099811
23.099811
23.099811
23.099811
23.099811
23.099811
23.09981
23.09981
23.09981
23.09981
23.09981
23.09981
23.09981
23.09981
23.09981
23.09981
23.09981
23.099809
23.099809
23.099809
23.099809
23.099809
23.099809
23.099809
23.099809
23.099809
23.099809
23.099809
23.099808
23.099808
23.099808
23.099808
23.099808
23.099808
23.099808
23.099808
23.099808
23.099808
23.099808
23.099808
23.099807
23.099807
23.099807
23.099807
23.099807
23.099807
23.099807
23.099807
23.099807
23.099807
23.099807
23.099807
23.099806
23.099806
23.099806
23.099806
23.099806
23.099806
23.099806
23.099806
23.099806
23.099806
23.099806
23.099806
23.099806
23.099806
23.099805
23.099805
23.099805
23.099805
23.099805
23.099805
23.099805
23.099805
23.099805
23.099805
23.099805
23.099805
23.099805
23.099805
23.099805
23.099804
23.099804
23.099804
23.099804
23.099804
23.099804
23.099804
23.099804
23.099804
23.099804
23.099804
23.099804
23.099804
23.099804
23.099804
23.099804
23.099804
23.099804
23.099803
23.099803
23.099803
23.099803
23.099803
23.099803
23.099803
23.099803
23.099803
23.099803
23.099803
23.099803
23.099803
23.099803
23.099803
23.099803
23.099803
23.099803
23.099803
23.099803
23.099803
23.099803
23.099803
23.099803
23.099802
23.099802
23.099802
23.099802
23.099802
23.099802
23.099802
23.099802
23.099802
23.099802
23.099802
23.099802
23.099802
23.099802
23.099802
23.099802
23.099802
23.099802
23.099802
23.099802
23.099802
23.099802
23.099802
23.099802
23.099802
23.099802
23.099802
23.099802
23.099802
23.099802
23.099802
23.099801
23.099801
23.099801
23.099801
23.099801
23.099801
23.099801
23.099801
23.099801
23.099801
23.099801
23.099801
23.099801
23.099801
23.099801
23.099801
23.099801
23.099801
23.099801
23.099801
23.099801
23.099801
23.099801
23.099801
23.099801
23.099801
23.099801
23.099801
23.099801
23.099801
23.0998
23.0998
23.0998
23.0998
23.0998
23.0998
23.0998
23.0998
23.0998
23.0998
23.0998
23.0998
23.0998
23.0998
23.0998
23.0998
23.0998
23.0998
23.0998
23.0998
23.0998
23.0998
23.0998
23.0998
23.099799
23.099799
23.099799
23.099799
23.099799
23.099799
23.099799
23.099799
23.099799
23.099799
23.099799
23.099799
23.099799
23.099799
23.099799
23.099799
23.099799
23.099799
23.099799
23.099798
23.099798
23.099798
23.099798
23.099798
23.099798
23.099798
23.099798
23.099798
23.099798
23.099798
23.099798
23.099798
23.099798
23.099798
23.099798
23.099798
23.099797
23.099797
23.099797
23.099797
23.099797
23.099797
23.099797
23.099797
23.099797
23.099797
23.099797
23.099797
23.099797
23.099797
23.099797
23.099796
23.099796
23.099796
23.099796
23.099796
23.099796
23.099796
23.099796
23.099796
23.099796
23.099796
23.099796
23.099796
23.099795
23.099795
23.099795
23.099795
23.099795
23.099795
23.099795
23.099795
23.099795
23.099795
23.099795
23.099795
23.099795
23.099794
23.099794
23.099794
23.099794
23.099794
23.099794
23.099794
23.099794
23.099794
23.099794
23.099794
23.099794
23.099794
23.099793
23.099793
23.099793
23.099793
23.099793
23.099793
23.099793
23.099793
23.099793
23.099793
23.099793
23.099793
23.099793
23.099792
23.099792
23.099792
23.099792
23.099792
23.099792
23.099792
23.099792
23.099792
23.099792
23.099792
23.099792
23.099792
23.099792
23.099791
23.099791
23.099791
23.099791
23.099791
23.099791
23.099791
23.099791
23.099791
23.099791
23.099791
23.099791
23.099791
23.099791
23.099791
23.09979
23.09979
23.09979
23.09979
23.09979
23.09979
23.09979
23.09979
23.09979
23.09979
23.09979
23.09979
23.09979
23.09979
23.09979
23.09979
23.09979
23.099789
23.099789
23.099789
23.099789
23.099789
23.099789
23.099789
23.099789
23.099789
23.099789
23.099789
23.099789
23.099789
23.099789
23.099789
23.099789
23.099789
23.099789
23.099789
23.099789
23.099789
23.099789
23.099788
23.099788
23.099788
23.099788
23.099788
23.099788
23.099788
23.099788
23.099788
23.099788
23.099788
23.099788
23.099788
23.099788
23.099788
23.099788
23.099788
23.099788
23.099788
23.099788
23.099788
23.099788
23.099788
23.099788
23.099788
23.099788
23.099788
23.099788
23.099788
23.099788
23.099788
23.099788
23.099788
23.099788
23.099788
23.099787
23.099787
23.099787
23.099787
23.099787
23.099787
23.099787
23.099787
23.099787
23.099787
23.099787
23.099787
23.099787
23.099787
23.099787
23.099787
23.099787
23.099787
23.099787
23.099787
23.099787
23.099787
23.099787
23.099787
23.099787
23.099787
23.099787
23.099787
23.099787
23.099787
23.099787
23.099787
23.099787
23.099787
23.099787
23.099787
23.099787
23.099787
23.099787
23.099787
23.099787
23.099787
23.099787
23.099787
23.099787
23.099787
23.099787
23.099787
23.099787
23.099787
23.099787
23.099787
23.099787
23.099787
23.099787
23.099787
23.099787
23.099787
23.099787
23.099787
23.099787
23.099787
23.099787
23.099787
23.099787
23.099787
23.099787
23.099787
23.099787
23.099787
23.099787
23.099787
23.099787
23.099787
23.099787
23.099787
23.099787
23.099787
23.099787
23.099787
23.099787
23.099787
23.099787
23.099787
23.099787
23.099787
23.099787
23.099787
23.099786
23.099786
23.099786
23.099786
23.099786
23.099786
23.099786
23.099786
23.099786
23.099786
23.099786
23.099786
23.099786
23.099786
23.099786
23.099786
23.099786
23.099786
23.099786
23.099786
23.099786
23.099786
23.099786
23.099786
23.099786
23.099786
23.099786
23.099786
23.099786
23.099786
23.099786
23.099786
23.099786
23.099786
23.099786
23.099786
23.099786
23.099786
23.099786
23.099786
23.099785
23.099785
23.099785
23.099785
23.099785
23.099785
23.099785
23.099785
23.099785
23.099785
23.099785
23.099785
23.099785
23.099785
23.099785
23.099785
23.099785
23.099785
23.099785
23.099785
23.099785
23.099785
23.099784
23.099784
23.099784
23.099784
23.099784
23.099784
23.099784
23.099784
23.099784
23.099784
23.099784
23.099784
23.099784
23.099784
23.099784
23.099783
23.099783
23.099783
23.099783
23.099783
23.099783
23.099783
23.099783
23.099783
23.099783
23.099783
23.099783
23.099782
23.099782
23.099782
23.099782
23.099782
23.099782
23.099782
23.099782
23.099782
23.099782
23.099781
23.099781
23.099781
23.099781
23.099781
23.099781
23.099781
23.099781
23.099781
23.09978
23.09978
23.09978
23.09978
23.09978
23.09978
23.09978
23.09978
23.099779
23.099779
23.099779
23.099779
23.099779
23.099779
23.099779
23.099779
23.099778
23.099778
23.099778
23.099778
23.099778
23.099778
23.099778
23.099777
23.099777
23.099777
23.099777
23.099777
23.099777
23.099777
23.099776
23.099776
23.099776
23.099776
23.099776
23.099776
23.099776
23.099775
23.099775
23.099775
23.099775
23.099775
23.099775
23.099774
23.099774
23.099774
23.099774
23.099774
23.099774
23.099774
23.099773
23.099773
23.099773
23.099773
23.099773
23.099773
23.099772
23.099772
23.099772
23.099772
23.099772
23.099772
23.099772
23.099771
23.099771
23.099771
23.099771
23.099771
23.099771
23.099771
23.099771
23.099771
23.09977
23.09977
23.09977
23.09977
23.09977
23.09977
23.09977
23.09977
23.09977
23.09977
23.09977
23.09977
23.09977
23.09977
23.09977
23.09977
23.09977
23.09977
23.09977
23.09977
23.09977
23.09977
23.09977
23.09977
23.09977
23.09977
23.09977
23.09977
23.099771
23.099771
23.099771
23.099771
23.099771
23.099772
23.099772
23.099772
23.099773
23.099773
23.099773
23.099774
23.099774
23.099775
23.099775
23.099776
23.099776
23.099777
23.099777
23.099778
23.099779
23.09978
23.09978
23.099781
23.099782
23.099783
23.099784
23.099785
23.099786
23.099787
23.099788
23.09979
23.099791
23.099792
23.099794
23.099795
23.099797
23.099799
23.0998
23.099802
23.099804
23.099806
23.099808
23.099811
23.099813
23.099815
23.099818
23.099821
23.099823
23.099826
23.099829
23.099832
23.099836
23.099839
23.099843
23.099846
23.09985
23.099854
23.099859
23.099863
23.099868
23.099873
23.099878
23.099883
23.099888
23.099894
23.0999
23.099906
23.099912
23.099919
23.099926
23.099933
23.09994
23.099948
23.099956
23.099964
23.099973
23.099982
23.099991
23.100001
23.100011
23.100022
23.100033
23.100044
23.100056
23.100068
23.10008
23.100094
23.100107
23.100121
23.100136
23.100151
23.100167
23.100183
23.1002
23.100218
23.100236
23.100255
23.100274
23.100294
23.100315
23.100337
23.100359
23.100383
23.100407
23.100432
23.100457
23.100484
23.100512
23.10054
23.10057
23.100601
23.100632
23.100665
23.100699
23.100734
23.10077
23.100808
23.100846
23.100886
23.100928
23.100971
23.101015
23.10106
23.101108
23.101156
23.101207
23.101259
23.101312
23.101368
23.101425
23.101484
23.101545
23.101608
23.101673
23.10174
23.101809
23.10188
23.101954
23.10203
23.102108
23.102189
23.102272
23.102358
23.102446
23.102537
23.102631
23.102728
23.102828
23.102931
23.103037
23.103146
23.103258
23.103374
23.103493
23.103616
23.103742
23.103872
23.104006
23.104144
23.104286
23.104432
23.104582
23.104737
23.104895
23.105059
23.105227
23.1054
23.105578
23.10576
23.105948
23.106141
23.10634
23.106544
23.106753
23.106969
23.10719
23.107417
23.107651
23.10789
23.108137
23.108389
23.108649
23.108915
23.109189
23.109469
23.109757
23.110053
23.110356
23.110667
23.110986
23.111313
23.111649
23.111993
23.112345
23.112707
23.113078
23.113458
23.113847
23.114246
23.114655
23.115074
23.115503
23.115942
23.116392
23.116853
23.117325
23.117808
23.118303
23.118809
23.119327
23.119857
23.120399
23.120954
23.121522
23.122102
23.122696
23.123304
23.123924
23.124559
23.125208
23.125872
23.12655
23.127242
23.12795
23.128673
23.129412
23.130167
23.130937
23.131724
23.132528
23.133348
23.134185
23.13504
23.135913
23.136803
23.137711
23.138638
23.139583
23.140547
23.141531
23.142533
23.143556
23.144598
23.145661
23.146744
23.147847
23.148972
23.150118
23.151285
23.152474
23.153685
23.154919
23.156174
23.157453
23.158755
23.16008
23.161428
23.162801
23.164197
23.165618
23.167063
23.168533
23.170028
23.171548
23.173093
23.174665
23.176262
23.177886
23.179536
23.181213
23.182916
23.184647
23.186404
23.18819
23.190003
23.191844
23.193713
23.19561
23.197536
23.199491
23.201474
23.203486
23.205528
23.207599
23.209699
23.211829
23.213989
23.216179
23.218399
23.220649
23.22293
23.225241
23.227582
23.229954
23.232357
23.234791
23.237256
23.239752
23.242279
23.244837
23.247427
23.250047
23.252699
23.255382
23.258097
23.260843
23.263621
23.266429
23.269269
23.27214
23.275043
23.277977
23.280942
23.283939
23.286967
23.290025
23.293114
23.296234
23.299385
23.302567
23.30578
23.309022
23.312295
23.315598
23.31893
23.322293
23.325685
23.329107
23.332558
23.336037
23.339545
23.343082
23.346646
23.35024
23.353861
23.35751
23.361185
23.364887
23.368616
23.37237
23.376152
23.379959
23.383791
23.387648
23.391529
23.395434
23.399363
23.403316
23.407292
23.41129
23.41531
23.419352
23.423415
23.427499
23.431604
23.435728
23.439871
23.444034
23.448214
23.452413
23.45663
23.460863
23.465111
23.469376
23.473656
23.477951
23.48226
23.486582
23.490917
23.495264
23.499623
23.503994
23.508375
23.512765
23.517165
23.521574
23.52599
23.530414
23.534844
23.539281
23.543723
23.54817
23.552621
23.557075
23.561532
23.565991
23.570451
23.574912
23.579373
23.583833
23.588291
23.592748
23.597201
23.601652
23.606098
23.610539
23.614974
23.619403
23.623824
23.628238
23.632643
23.63704
23.641426
23.645801
23.650165
23.654517
23.658856
23.663182
23.667494
23.67179
23.676071
23.680336
23.684584
23.688813
23.693025
23.697218
23.70139
23.705543
23.709674
23.713783
23.71787
23.721934
23.725974
23.72999
23.733981
23.737946
23.741885
23.745796
23.749681
23.753537
23.757364
23.761163
23.764931
23.768669
23.772375
23.77605
23.779693
23.783304
23.786881
23.790424
23.793933
23.797408
23.800847
23.80425
23.807617
23.810947
23.81424
23.817496
23.820714
23.823893
23.827034
23.830135
23.833197
23.836218
23.839199
23.84214
23.845039
23.847897
23.850714
23.853488
23.85622
23.85891
23.861556
23.86416
23.86672
23.869237
23.871709
23.874138
23.876523
23.878863
23.881158
23.883409
23.885615
23.887776
23.889892
23.891962
23.893987
23.895967
23.897901
23.89979
23.901633
23.90343
23.905182
23.906888
23.908548
23.910162
23.911731
23.913254
23.914732
23.916164
23.91755
23.918891
23.920187
23.921438
23.922643
23.923803
23.924919
23.925989
23.927015
23.927997
23.928934
23.929827
23.930677
23.931482
23.932244
23.932963
23.933639
23.934272
23.934862
23.93541
23.935916
23.93638
23.936803
23.937184
23.937524
23.937824
23.938083
23.938303
23.938483
23.938623
23.938724
23.938788
23.938814
23.938802
23.938752
23.938664
23.938539
23.938377
23.938179
23.937945
23.937674
23.937369
23.93703
23.936655
23.936247
23.935806
23.935331
23.934822
23.934282
23.93371
23.933106
23.932472
23.931806
23.931111
23.930385
23.929629
23.928845
23.928032
23.927191
23.926322
23.925425
23.924502
23.923552
23.922576
23.921574
23.920547
23.919495
23.918419
23.917319
23.916196
23.915049
23.913879
23.912687
23.911473
23.910237
23.908981
23.907704
23.906406
23.905089
23.903751
23.902395
23.901021
23.899628
23.898218
23.896789
23.895344
23.893882
23.892403
23.890909
23.889399
23.887874
23.886334
23.884779
23.883211
23.881629
23.880033
23.878424
23.876803
23.875169
23.873524
23.871867
23.870198
23.868519
23.866829
23.865129
23.863418
23.861698
23.859969
23.85823
23.856483
23.854728
23.852964
23.851193
23.849414
23.847628
23.845835
23.844035
23.842229
23.840417
23.838599
23.836775
23.834946
23.833113
23.831274
23.82943
23.827582
23.825731
23.823875
23.822016
23.820154
23.818288
23.81642
23.814549
23.812675
23.8108
23.808922
23.807042
23.80516
23.803277
23.801394
23.799509
23.797623
23.795736
23.793849
23.791962
23.790075
23.788188
23.7863
23.784413
23.782527
23.780642
23.778757
23.776874
23.774991
23.77311
23.771231
23.769353
23.767476
23.765602
23.76373
23.76186
23.759992
23.758127
23.756264
23.754404
23.752546
23.750692
23.748841
23.746993
23.745147
23.743306
23.741468
23.739633
23.737802
23.735975
23.734152
23.732333
23.730517
23.728706
23.726899
23.725097
23.723299
23.721505
23.719716
23.717932
23.716152
23.714377
23.712607
23.710842
23.709082
23.707327
23.705577
23.703833
23.702093
23.700359
23.698631
23.696908
23.69519
23.693478
23.691772
23.690072
23.688376
23.686687
23.685004
23.683326
23.681655
23.679989
23.67833
23.676677
23.675029
23.673388
23.671752
23.670124
23.668501
23.666885
23.665274
23.663671
23.662074
23.660483
23.658898
23.65732
23.655748
23.654183
23.652625
23.651073
23.649528
23.647989
23.646457
23.644931
23.643413
23.641901
23.640395
23.638896
23.637405
23.63592
23.634441
23.632969
23.631505
23.630047
23.628596
23.627151
23.625714
23.624283
23.62286
23.621443
23.620032
23.618629
23.617234
23.615844
23.614462
23.613086
23.611718
23.610356
23.609001
23.607653
23.606312
23.604979
23.603652
23.602331
23.601018
23.599712
23.598413
23.597121
23.595835
23.594556
23.593285
23.59202
23.590762
23.589511
23.588267
23.58703
23.585799
23.584575
23.583357
23.582145
23.580939
23.57974
23.578546
23.577358
23.576178
23.575005
23.57384
23.572684
23.571538
23.5704
23.569268
23.568137
23.567004
23.565872
23.564742
23.563614
23.562504
23.561406
23.560327
23.559275
23.558228
23.557178
23.55613
23.55508
23.554055
23.553055
23.552055
23.551049
23.550036
23.549021
23.548008
23.54701
23.546024
23.545046
23.544074
23.543105
23.542155
23.541225
23.540314
23.539489
23.538973
23.53808
23.536501
23.535412
23.534654
23.533787
23.532833
23.531931
23.531051
23.530165
23.529284
23.528415
23.527552
23.526696
23.525848
23.525006
23.52417
23.52334
23.522516
23.521697
23.520883
23.520075
23.519272
23.518473
23.51768
23.516893
23.51611
23.515333
23.514562
23.513795
23.513034
23.512278
23.511529
23.510783
23.510044
23.50931
23.508582
23.507859
23.507141
23.506428
23.505721
23.505019
23.504322
23.503631
23.502945
23.502264
23.501588
23.500918
23.500252
23.499592
23.498935
23.498282
23.497639
23.497002
23.496367
23.495737
23.495112
23.494492
23.493877
23.493268
23.492663
23.492062
23.491467
23.490877
23.490291
23.489711
23.489135
23.488564
23.487997
23.487435
23.486879
23.486326
23.485779
23.485236
23.484698
23.484164
23.483635
23.48311
23.482591
23.482075
23.481564
23.481058
23.480556
23.480059
23.479566
23.479077
23.478593
23.478113
23.477638
23.477166
23.4767
23.476237
23.475779
23.475325
23.474875
23.474429
23.473988
23.47355
23.473117
23.472688
23.472263
23.471842
23.471425
23.471013
23.470604
23.470199
23.469798
23.469401
23.469008
23.468619
23.468234
23.467852
23.467475
23.467101
23.466731
23.466365
23.466002
23.465643
23.465288
23.464937
23.464589
23.464245
23.463904
23.463567
23.463234
23.462904
23.462578
23.462255
23.461936
23.46162
23.461307
23.460998
23.460692
23.46039
23.460091
23.459795
23.459503
23.459214
23.458928
23.458645
23.458366
23.458089
23.457816
23.457546
23.457279