/*--------------------------------*- C++ -*----------------------------------*\
| =========                 |                                                 |
| \\      /  F ield         | OpenFOAM: The Open Source CFD Toolbox           |
|  \\    /   O peration     | Version:  4.x                                   |
|   \\  /    A nd           | Web:      www.OpenFOAM.org                      |
|    \\/     M anipulation  |                                                 |
\*---------------------------------------------------------------------------*/
FoamFile
{
    version     2.0;
    format      ascii;
    class       surfaceScalarField;
    location    "0.63";
    object      phi;
}
// * * * * * * * * * * * * * * * * * * * * * * * * * * * * * * * * * * * * * //

dimensions      [1 0 -1 0 0 0 0];

internalField   nonuniform List<scalar> 
17503
(
4.075110348e-09
4.070585853e-09
-8.145715082e-09
7.890848877e-09
4.183317695e-09
-7.999039523e-09
1.120111434e-08
4.405088397e-09
-7.715340109e-09
1.377540526e-08
4.733160321e-09
-7.307452005e-09
1.542274534e-08
5.159241022e-09
-6.806559552e-09
5.680078339e-09
-6.261291521e-09
1.600397541e-08
4.187850407e-09
7.882121643e-09
-7.999372789e-09
8.113786171e-09
8.105033446e-09
-7.847645289e-09
1.152924346e-08
8.545313616e-09
-7.55567596e-09
1.420085586e-08
9.201155198e-09
-7.139584341e-09
1.593498457e-08
1.006008978e-08
-6.634968072e-09
1.112187557e-08
-6.094981267e-09
1.65881658e-08
4.409622214e-09
1.118875734e-08
-7.716243546e-09
8.554086779e-09
1.151682796e-08
-7.556252193e-09
1.218167742e-08
1.216919197e-08
-7.251441681e-09
1.505473107e-08
1.315217602e-08
-6.824066572e-09
1.697658855e-08
1.445619975e-08
-6.317961391e-09
1.61058129e-08
-5.793915445e-09
1.7786579e-08
4.73766853e-09
1.376010574e-08
-7.30902589e-09
9.209909838e-09
1.418545593e-08
-7.140846239e-09
1.316469466e-08
1.50391787e-08
-6.824770726e-09
1.636168878e-08
1.634600004e-08
-6.390823534e-09
1.860429304e-08
1.810719185e-08
-5.893595129e-09
2.041143364e-08
-5.401865346e-09
1.970053883e-08
5.163682122e-09
1.5405191e-08
-6.808751947e-09
1.00687447e-08
1.59172786e-08
-6.63688084e-09
1.446865191e-08
1.6958634e-08
-6.319362486e-09
1.81229148e-08
1.858606316e-08
-5.894324528e-09
2.083989548e-08
2.082149017e-08
-5.431278336e-09
2.389297163e-08
-5.008903428e-09
2.236725988e-08
5.68439416e-09
-6.263961191e-09
1.598476696e-08
1.113033227e-08
-6.097414653e-09
1.65687491e-08
1.611807075e-08
-5.795905788e-09
1.776681228e-08
2.042707051e-08
-5.403251554e-09
1.968031152e-08
2.391146567e-08
-5.009608547e-09
2.234669982e-08
-4.727145675e-09
2.625520476e-08
2.627637401e-08
7.752566986e-09
7.744521774e-09
-2.364278182e-08
1.509083745e-08
7.935977222e-09
-2.327326664e-08
2.159163256e-08
8.311230996e-09
-2.252732605e-08
2.684020411e-08
8.862839473e-09
-2.141883761e-08
3.045129502e-08
9.574452985e-09
-1.999208285e-08
1.04358098e-08
-1.833576289e-08
3.20899738e-08
7.94403574e-09
1.507524215e-08
-2.327410893e-08
1.546842827e-08
1.545278516e-08
-2.288879257e-08
2.21445303e-08
1.619454779e-08
-2.211507827e-08
2.755270537e-08
1.729132043e-08
-2.097622218e-08
3.13034726e-08
1.871622588e-08
-1.952748431e-08
2.045493589e-08
-1.786934647e-08
3.305873036e-08
8.319287765e-09
2.156935079e-08
-2.252960724e-08
1.621022682e-08
2.212214035e-08
-2.211653174e-08
2.323650644e-08
2.321398224e-08
-2.129713235e-08
2.897014876e-08
2.484464002e-08
-2.011101344e-08
3.301471286e-08
2.698742511e-08
-1.863371609e-08
2.965163299e-08
-1.698351438e-08
3.500762202e-08
8.870845335e-09
2.681226856e-08
-2.142277157e-08
1.730695562e-08
2.752457318e-08
-2.097937601e-08
2.486722181e-08
2.894172209e-08
-2.011276712e-08
3.111659138e-08
3.108790601e-08
-1.888346168e-08
3.565439181e-08
3.394930107e-08
-1.739326706e-08
3.761623921e-08
-1.577945585e-08
3.806737536e-08
9.582320849e-09
3.041869705e-08
-1.999748958e-08
1.8731661e-08
3.127057085e-08
-1.95322059e-08
2.700987251e-08
3.298132516e-08
-1.8637171e-08
3.397805939e-08
3.562046125e-08
-1.73950658e-08
3.923564282e-08
3.920129424e-08
-1.594085839e-08
4.396695989e-08
-1.443074549e-08
4.230675861e-08
1.044342539e-08
-1.834223295e-08
3.205354769e-08
2.046997257e-08
-1.787525822e-08
3.302187688e-08
2.967366276e-08
-1.698836937e-08
3.497009771e-08
3.764473866e-08
-1.578285105e-08
3.802897681e-08
4.400131571e-08
-1.443246053e-08
4.226756104e-08
-1.310977151e-08
4.815541264e-08
4.819546623e-08
9.346005972e-09
9.336361545e-09
-4.232511676e-08
1.825017574e-08
9.56727314e-09
-4.174466828e-08
2.625156683e-08
1.001508212e-08
-4.054376458e-08
3.286072061e-08
1.066179399e-08
-3.868976254e-08
3.75868205e-08
1.147779954e-08
-3.619595542e-08
1.243819145e-08
-3.316689297e-08
3.997978339e-08
9.57692736e-09
1.823154117e-08
-4.174617417e-08
1.870130903e-08
1.868262372e-08
-4.112848978e-08
2.69019811e-08
1.955920897e-08
-3.985983999e-08
3.368206472e-08
2.083303738e-08
-3.792751247e-08
3.854717182e-08
2.245242638e-08
-3.536719454e-08
2.438147606e-08
-3.230275039e-08
4.103730204e-08
1.002471523e-08
2.622508475e-08
-4.054783315e-08
1.957791561e-08
2.687536108e-08
-3.986243558e-08
2.817231673e-08
2.814553439e-08
-3.847782016e-08
3.529873854e-08
3.001154702e-08
-3.641592851e-08
4.045831107e-08
3.24128498e-08
-3.375369873e-08
3.533655592e-08
-3.06477185e-08
4.316744938e-08
1.06713285e-08
3.282772875e-08
-3.869672238e-08
2.085163729e-08
3.364880475e-08
-3.793309817e-08
3.003836302e-08
3.526508394e-08
-3.641902733e-08
3.771094644e-08
3.767696986e-08
-3.422145927e-08
4.337277653e-08
4.082817654e-08
-3.147041746e-08
4.479696657e-08
-2.836103464e-08
4.649394354e-08
1.148710618e-08
3.754853115e-08
-3.620537766e-08
2.247068889e-08
3.850847148e-08
-3.537544002e-08
3.243941133e-08
4.041894002e-08
-3.375973912e-08
4.086219407e-08
4.333269208e-08
-3.147356601e-08
4.725159319e-08
4.721099308e-08
-2.871307947e-08
5.232755049e-08
-2.571411391e-08
5.10043719e-08
1.244712175e-08
-3.317792017e-08
3.993711022e-08
2.439912076e-08
-3.231288315e-08
4.099410462e-08
3.536246587e-08
-3.065609196e-08
4.312332724e-08
4.483055601e-08
-2.83669359e-08
4.64486819e-08
5.236811542e-08
-2.571710839e-08
5.095807256e-08
-2.298183016e-08
5.72602587e-08
5.730745114e-08
1.007598608e-08
1.006505725e-08
-6.246612436e-08
1.974293809e-08
1.03498295e-08
-6.176139294e-08
2.854777249e-08
1.089312546e-08
-6.024167304e-08
3.595793775e-08
1.165625903e-08
-5.775614883e-08
4.140060175e-08
1.258503281e-08
-5.422362132e-08
1.363350088e-08
-4.972289624e-08
4.432312726e-08
1.036075127e-08
1.972191932e-08
-6.176372726e-08
2.029148393e-08
2.02704285e-08
-6.097976373e-08
2.932065898e-08
2.131853735e-08
-5.931437333e-08
3.690482925e-08
2.279979352e-08
-5.665518078e-08
4.246994134e-08
2.461616439e-08
-5.296341471e-08
2.669559388e-08
-4.835397906e-08
4.545909222e-08
1.090398094e-08
2.851816144e-08
-6.024800674e-08
2.133956274e-08
2.92908936e-08
-5.931843028e-08
3.080404508e-08
3.077412049e-08
-5.739784156e-08
3.87357594e-08
3.28939257e-08
-5.444175282e-08
4.456132999e-08
3.552552112e-08
-5.048860725e-08
3.861435439e-08
-4.571531562e-08
4.771018423e-08
1.166693466e-08
3.592152233e-08
-5.776697716e-08
2.282059699e-08
3.686807182e-08
-5.666390308e-08
3.292381009e-08
3.869851167e-08
-5.444660714e-08
4.139662256e-08
4.135901467e-08
-5.115934643e-08
4.767796685e-08
4.471119794e-08
-4.693742999e-08
4.880316453e-08
-4.203634766e-08
5.116446928e-08
1.259534781e-08
4.135899496e-08
-5.423816932e-08
2.463641997e-08
4.242779145e-08
-5.297620859e-08
3.555495416e-08
4.4518301e-08
-5.04980404e-08
4.474875522e-08
4.763404568e-08
-4.694238962e-08
5.167353701e-08
5.16290392e-08
-4.25557069e-08
5.682124638e-08
-3.768987953e-08
5.563121541e-08
1.364326153e-08
-4.973968256e-08
4.427751673e-08
2.671492681e-08
-4.83695311e-08
4.541279152e-08
3.864280413e-08
-4.572832719e-08
4.766268009e-08
4.884004585e-08
-4.204566748e-08
5.111553698e-08
5.686560534e-08
-3.76946805e-08
5.558105181e-08
-3.324795498e-08
6.195089756e-08
6.200207333e-08
1.023060103e-08
1.021875751e-08
-8.291543019e-08
2.013536875e-08
1.059534768e-08
-8.226145463e-08
2.930792201e-08
1.130333858e-08
-8.07175209e-08
3.718772373e-08
1.227094459e-08
-7.790685928e-08
4.312941333e-08
1.340595527e-08
-7.357123335e-08
1.462653499e-08
-6.770828657e-08
4.648829009e-08
1.060714392e-08
2.011253815e-08
-8.226459609e-08
2.085224833e-08
2.082943965e-08
-8.145891047e-08
3.029791453e-08
2.217723311e-08
-7.963388462e-08
3.836759405e-08
2.40281374e-08
-7.648201494e-08
4.441594388e-08
2.621153767e-08
-7.181732326e-08
2.858835532e-08
-6.569886878e-08
4.779903505e-08
1.131499049e-08
2.927575533e-08
-8.072616471e-08
2.219989378e-08
3.026562877e-08
-7.963947215e-08
3.216424683e-08
3.213188823e-08
-7.731680778e-08
4.060378977e-08
3.471821866e-08
-7.357135395e-08
4.687506584e-08
3.779740671e-08
-6.834573098e-08
4.122735922e-08
-6.180613059e-08
5.032689161e-08
1.228230388e-08
3.714834029e-08
-7.792182213e-08
2.405039845e-08
3.83278382e-08
-7.649416612e-08
3.475037984e-08
4.05635239e-08
-7.357819714e-08
4.374614005e-08
4.370555681e-08
-6.914242497e-08
5.040955803e-08
4.748589874e-08
-6.328932887e-08
5.18771255e-08
-5.635297137e-08
5.407641861e-08
1.341679908e-08
4.308487552e-08
-7.359146563e-08
2.623299418e-08
4.437075094e-08
-7.18352859e-08
3.782884744e-08
4.682883512e-08
-6.835917702e-08
4.752625466e-08
5.036231055e-08
-6.329653422e-08
5.472530095e-08
5.467749114e-08
-5.694633533e-08
6.012147974e-08
-4.984028275e-08
5.863135575e-08
1.463664602e-08
-6.773167608e-08
4.644025215e-08
2.860857306e-08
-6.572081781e-08
4.775014191e-08
4.125744069e-08
-6.18248699e-08
5.027653731e-08
5.191647972e-08
-5.636672084e-08
5.402433852e-08
6.016893507e-08
-4.984752937e-08
5.857789671e-08
-4.300630948e-08
6.499730667e-08
6.505146249e-08
9.550636926e-09
9.539095838e-09
-1.020051372e-07
1.89084926e-08
1.003928185e-08
-1.016585677e-07
2.773632772e-08
1.097556922e-08
-1.005208973e-07
3.546927672e-08
1.223648927e-08
-9.787627519e-08
4.144182784e-08
1.369246427e-08
-9.323622011e-08
1.522542684e-08
4.500441686e-08
-8.649628046e-08
1.005071073e-08
1.888594078e-08
-1.016621226e-07
1.985920299e-08
1.983678041e-08
-1.010648634e-07
2.903880876e-08
2.160970443e-08
-9.944759309e-08
3.700840521e-08
2.400881345e-08
-9.622389849e-08
4.310732239e-08
2.679519031e-08
-9.101894335e-08
2.976456235e-08
4.669570807e-08
-8.382637379e-08
1.098674382e-08
2.77040442e-08
-1.005309747e-07
2.163179788e-08
2.900650525e-08
-9.945421744e-08
3.147517494e-08
3.144297227e-08
-9.699341453e-08
3.99069353e-08
3.476896537e-08
-9.276323938e-08
4.627784841e-08
3.866961374e-08
-8.65910441e-08
4.286840979e-08
4.992203248e-08
-7.855415079e-08
1.224724699e-08
3.542923749e-08
-9.789423124e-08
2.403028823e-08
3.696801464e-08
-9.623867618e-08
3.48007402e-08
3.986609155e-08
-9.277173718e-08
4.391629626e-08
4.387525566e-08
-8.736424526e-08
5.071051155e-08
4.85802686e-08
-7.999418149e-08
5.373477492e-08
5.448930148e-08
-7.099811868e-08
1.370256513e-08
4.139626609e-08
-9.326102258e-08
2.681560046e-08
4.30610051e-08
-9.104127877e-08
3.870035781e-08
4.623036505e-08
-8.660817466e-08
4.862082292e-08
5.066194792e-08
-8.000366907e-08
5.588904797e-08
5.58400741e-08
-7.14743527e-08
6.184067144e-08
5.957488243e-08
-6.163201184e-08
1.523467062e-08
4.495543986e-08
-8.652548912e-08
2.978348909e-08
4.664566899e-08
-8.385427028e-08
4.289746942e-08
4.987025072e-08
-7.857871154e-08
5.377399977e-08
5.443556362e-08
-7.101684983e-08
6.188890685e-08
5.951993543e-08
-6.164228605e-08
6.601338965e-08
6.606856936e-08
-5.135869288e-08
6.268465083e-09
1.544303203e-08
-5.726733768e-09
1.234828675e-08
1.607422868e-08
-5.585297557e-09
1.805573205e-08
1.738508197e-08
-5.32571457e-09
2.320950343e-08
1.95198021e-08
-4.993269625e-09
2.750327482e-08
2.276017839e-08
-4.707260383e-09
2.712868161e-08
-4.466490561e-09
3.109626265e-08
6.906843046e-09
1.385734647e-08
-5.321159177e-09
1.370036762e-08
1.447015069e-08
-5.189443802e-09
2.027325055e-08
1.580008017e-08
-4.98788362e-09
2.652813437e-08
1.804502982e-08
-4.780120565e-09
3.237441039e-08
2.160186508e-08
-4.687971846e-09
2.697157342e-08
-4.581207384e-09
3.711272638e-08
7.572077396e-09
1.130106518e-08
-5.015785857e-09
1.511010724e-08
1.186289668e-08
-4.930784459e-09
2.26355864e-08
1.310578602e-08
-4.831184033e-09
3.018320309e-08
1.526456375e-08
-4.767160132e-09
3.784354892e-08
1.887268362e-08
-4.931173336e-09
2.470159766e-08
-5.159724386e-09
4.52732307e-08
8.187496277e-09
7.979048248e-09
-4.865481933e-09
1.646103425e-08
8.418551215e-09
-4.82920204e-09
2.498434896e-08
9.406200949e-09
-4.823737693e-09
3.403298108e-08
1.115214389e-08
-4.936222699e-09
4.407603185e-08
1.422016556e-08
-5.390527509e-09
1.936498454e-08
-6.148015798e-09
5.556064019e-08
8.679320758e-09
4.119947154e-09
-4.820232378e-09
1.755897553e-08
4.363759801e-09
-4.824868125e-09
2.69548365e-08
4.919701392e-09
-4.909382143e-09
3.737145615e-08
5.908470258e-09
-5.172948188e-09
4.976684602e-08
7.70937881e-09
-5.884606025e-09
1.077613088e-08
-7.172502027e-09
6.552818578e-08
8.957760301e-09
-1.476380074e-11
-4.823053294e-09
1.818751776e-08
-1.434851974e-11
-4.851649752e-09
2.81074915e-08
-1.355680132e-11
-4.986728534e-09
3.936483669e-08
-1.245772739e-11
-5.33641411e-09
5.327054689e-08
-1.111883249e-11
-6.185219913e-09
-9.918911977e-12
-7.795552513e-09
7.185214115e-08
8.958214401e-09
-4.14893774e-09
-4.824040588e-09
1.818836875e-08
-4.39196176e-09
-4.852562207e-09
2.810868053e-08
-4.9463794e-09
-4.987490824e-09
3.936625698e-08
-5.933063755e-09
-5.336989801e-09
5.327206606e-08
-7.731380547e-09
-6.185573475e-09
-1.079579705e-08
-7.795687444e-09
7.185362511e-08
8.680633094e-09
-8.006526279e-09
-4.823045044e-09
1.756147206e-08
-8.445342511e-09
-4.827471946e-09
2.695834024e-08
-9.431666962e-09
-4.911577291e-09
3.737570371e-08
-1.117577837e-08
-5.174657805e-09
4.977147119e-08
-1.424146459e-08
-5.885704784e-09
-1.938414362e-08
-7.172986486e-09
6.553277942e-08
8.189526195e-09
-1.132627177e-08
-4.86979491e-09
1.646494695e-08
-1.188753252e-08
-4.83322652e-09
2.498985384e-08
-1.312937803e-08
-4.827211021e-09
3.403967804e-08
-1.528662798e-08
-4.938997428e-09
4.408339716e-08
-1.889273501e-08
-5.392447066e-09
-2.471967213e-08
-6.14910564e-09
5.556802064e-08
7.574655664e-09
-1.387970303e-08
-5.021236607e-09
1.511509219e-08
-1.449209588e-08
-4.935880417e-09
2.264268302e-08
-1.582123632e-08
-4.835747903e-09
3.019199467e-08
-1.806500144e-08
-4.770955782e-09
3.785347683e-08
-2.162019878e-08
-4.934015138e-09
-2.698802299e-08
-5.16170112e-09
4.528350092e-08
6.909775543e-09
-1.546202579e-08
-5.32744537e-09
1.370613476e-08
-1.609302055e-08
-5.195445176e-09
2.028156838e-08
-1.740332379e-08
-4.993351683e-09
2.653858412e-08
-1.95371688e-08
-4.784855435e-09
3.23864069e-08
-2.277624092e-08
-4.691791715e-09
-2.714300444e-08
-4.584153951e-09
3.712559358e-08
6.2716771e-09
-5.733428434e-09
-1.600027224e-08
1.235460296e-08
-5.591853871e-09
-1.658410174e-08
1.806490242e-08
-5.331850124e-09
-1.7781774e-08
2.322108831e-08
-4.998768751e-09
-1.969458113e-08
2.751690891e-08
-4.711894005e-09
-2.236017324e-08
-4.470240307e-09
-2.626667159e-08
3.111079159e-08
1.140881854e-08
3.152782247e-08
-1.660982297e-08
2.245167432e-08
3.25561552e-08
-1.616243043e-08
3.278065915e-08
3.46419296e-08
-1.532653253e-08
4.206472975e-08
3.796741086e-08
-1.421578287e-08
4.991596626e-08
4.277549859e-08
-1.306644143e-08
4.939737684e-08
-1.199134438e-08
5.619884042e-08
1.241126851e-08
2.879668046e-08
-1.500127766e-08
2.457738106e-08
2.977564806e-08
-1.45750451e-08
3.620153419e-08
3.185356932e-08
-1.38236755e-08
4.702363299e-08
3.523347227e-08
-1.286827918e-08
5.678898238e-08
4.032964171e-08
-1.200747605e-08
4.781760405e-08
-1.116459586e-08
6.495213508e-08
1.347719552e-08
2.388531919e-08
-1.358161771e-08
2.678142809e-08
2.476091098e-08
-1.322027227e-08
3.974580752e-08
2.665870694e-08
-1.260070134e-08
5.224347e-08
2.981155381e-08
-1.184290364e-08
6.413273807e-08
3.479313691e-08
-1.128394194e-08
4.247795486e-08
-1.072501636e-08
7.50376543e-08
1.444988248e-08
1.70891512e-08
-1.251919668e-08
2.883656028e-08
1.776985333e-08
-1.222481655e-08
4.315883942e-08
1.925580333e-08
-1.174310992e-08
5.74492842e-08
2.176159628e-08
-1.117669856e-08
7.184707564e-08
2.590287546e-08
-1.089804409e-08
3.247810585e-08
-1.067703882e-08
8.637594959e-08
1.521241657e-08
8.90373294e-09
-1.184722359e-08
3.048297192e-08
9.280290081e-09
-1.160585677e-08
4.59573566e-08
1.010842147e-08
-1.123638507e-08
6.184165503e-08
1.151161486e-08
-1.080726554e-08
7.864860516e-08
1.392746836e-08
-1.071614519e-08
1.781032256e-08
-1.074269107e-08
9.688658489e-08
1.564204866e-08
-3.002532864e-11
-1.153134031e-08
3.141887622e-08
-2.937256533e-11
-1.131882595e-08
4.757579075e-08
-2.811487836e-11
-1.100711176e-08
6.442069528e-08
-2.63728283e-11
-1.064333058e-08
8.277614599e-08
-2.427638816e-11
-1.058894914e-08
-2.250353322e-11
-1.068861321e-08
1.035020225e-07
1.564276345e-08
-8.962285775e-09
-1.153454237e-08
3.142025264e-08
-9.33758824e-09
-1.132183437e-08
4.757771181e-08
-1.01633238e-08
-1.100974669e-08
6.442296725e-08
-1.156316269e-08
-1.064546681e-08
8.277858397e-08
-1.397488163e-08
-1.059060936e-08
-1.785406155e-08
-1.068990293e-08
1.035043528e-07
1.521449648e-08
-1.714363657e-08
-1.185620251e-08
3.048696791e-08
-1.78232256e-08
-1.161430624e-08
4.596294222e-08
-1.930708371e-08
-1.124380007e-08
6.184844418e-08
-2.180985487e-08
-1.081348804e-08
7.865602948e-08
-2.594723867e-08
-1.072093062e-08
-3.251877356e-08
-1.074635055e-08
9.689406671e-08
1.445310962e-08
-2.393399919e-08
-1.253255153e-08
2.884276685e-08
-2.480865034e-08
-1.223747347e-08
4.316762082e-08
-2.670476752e-08
-1.175438727e-08
5.746014056e-08
-2.985508982e-08
-1.118629671e-08
7.185926469e-08
-3.483316049e-08
-1.090565073e-08
-4.251423625e-08
-1.068296685e-08
8.638853218e-08
1.348121451e-08
-2.883844333e-08
-1.359799783e-08
2.678936763e-08
-2.981678644e-08
-1.323590197e-08
3.975724329e-08
-3.189347188e-08
-1.261492618e-08
5.225779271e-08
-3.527136884e-08
-1.18552196e-08
6.414924475e-08
-4.036456874e-08
-1.129408021e-08
-4.784890448e-08
-1.073328364e-08
7.505555365e-08
1.24159464e-08
-3.156229761e-08
-1.501953167e-08
2.458665998e-08
-3.259029357e-08
-1.459265072e-08
3.621503412e-08
-3.467511401e-08
-1.384007712e-08
4.704079923e-08
-3.799904855e-08
-1.288291796e-08
5.680922607e-08
-4.280481712e-08
-1.201998695e-08
-4.94233993e-08
-1.117524828e-08
6.497481711e-08
1.141398281e-08
-1.662887036e-08
-3.208083536e-08
2.246185982e-08
-1.618111946e-08
-3.304889914e-08
3.279565561e-08
-1.534433526e-08
-3.499640616e-08
4.208406556e-08
-1.423218235e-08
-3.805406069e-08
4.993925377e-08
-1.308092215e-08
-4.229097259e-08
-1.200376138e-08
-4.817543146e-08
5.622478313e-08
1.350793073e-08
3.965269913e-08
-2.983333301e-08
2.656077765e-08
4.074902541e-08
-2.897018992e-08
3.871389188e-08
4.299479494e-08
-2.735111117e-08
4.955146739e-08
4.656734168e-08
-2.517202351e-08
5.868816764e-08
5.161606611e-08
-2.286115421e-08
5.876066574e-08
-2.056697887e-08
6.576338241e-08
1.461599601e-08
3.649284208e-08
-2.645740626e-08
2.885577801e-08
3.756531427e-08
-2.563111046e-08
4.234865559e-08
3.979752272e-08
-2.411927958e-08
5.478918414e-08
4.340517331e-08
-2.214664491e-08
6.589029575e-08
4.878029101e-08
-2.027282984e-08
5.686334504e-08
-1.840207021e-08
7.502505805e-08
1.573327985e-08
3.051075971e-08
-2.333280413e-08
3.118318413e-08
3.14698408e-08
-2.257470301e-08
4.609828419e-08
3.350299529e-08
-2.12212652e-08
6.032562947e-08
3.687189474e-08
-1.953697602e-08
7.369896433e-08
4.217310888e-08
-1.805010008e-08
5.057455187e-08
-1.646679262e-08
8.572954555e-08
1.676569527e-08
2.198581263e-08
-2.075993771e-08
3.336645444e-08
2.272543202e-08
-2.008116631e-08
4.972615919e-08
2.431968498e-08
-1.891950951e-08
6.5873676e-08
2.701779481e-08
-1.747011626e-08
8.195830304e-08
3.148745556e-08
-1.629702389e-08
3.880077741e-08
-1.486935939e-08
9.79243707e-08
1.758698532e-08
1.150905562e-08
-1.89574515e-08
3.513547583e-08
1.191888064e-08
-1.834779975e-08
5.274497882e-08
1.28145571e-08
-1.734076808e-08
7.062531109e-08
1.434453006e-08
-1.601434047e-08
8.938122671e-08
1.698997183e-08
-1.497458624e-08
2.138501464e-08
-1.344550266e-08
1.09499792e-07
1.805436213e-08
-3.890528143e-11
-1.803773641e-08
3.615802591e-08
-3.808054813e-11
-1.746553326e-08
5.453807038e-08
-3.649315687e-11
-1.653611018e-08
7.350455141e-08
-3.436626191e-11
-1.523092481e-08
9.406013442e-08
-3.174103253e-11
-1.412284219e-08
-2.956142205e-11
-1.229941098e-08
1.170854963e-07
1.805524659e-08
-1.158425965e-08
-1.804444297e-08
3.615970219e-08
-1.199252705e-08
-1.747184944e-08
5.454031985e-08
-1.288519036e-08
-1.654167992e-08
7.350721651e-08
-1.441108229e-08
-1.523567056e-08
9.406294813e-08
-1.705139912e-08
-1.412669588e-08
-2.144193382e-08
-1.23026721e-08
1.170880756e-07
1.758954543e-08
-2.205412521e-08
-1.897588947e-08
3.514036178e-08
-2.279247421e-08
-1.836518299e-08
5.275165733e-08
-2.438423954e-08
-1.735605234e-08
7.063333843e-08
-2.70787735e-08
-1.602749451e-08
8.938992398e-08
-3.154362911e-08
-1.498528964e-08
-3.885232897e-08
-1.345439759e-08
1.095083321e-07
1.676959303e-08
-3.05697818e-08
-2.078647654e-08
3.337398206e-08
-3.152798007e-08
-2.010636128e-08
4.973667718e-08
-3.355931405e-08
-1.894201111e-08
6.588654825e-08
-3.692531917e-08
-1.748961785e-08
8.197265515e-08
-4.222238718e-08
-1.631300787e-08
-5.061930764e-08
-1.488256622e-08
9.793921575e-08
1.573810282e-08
-3.654183584e-08
-2.336404233e-08
3.119266974e-08
-3.761373772e-08
-2.260471255e-08
4.611189503e-08
-3.984474686e-08
-2.124870688e-08
6.03426235e-08
-4.345033381e-08
-1.956091093e-08
7.371873729e-08
-4.882225231e-08
-1.807036115e-08
-5.690094135e-08
-1.648394405e-08
8.575103783e-08
1.462144127e-08
-3.969167966e-08
-2.649112446e-08
2.886654671e-08
-4.078766732e-08
-2.566382532e-08
4.236443124e-08
-4.303268153e-08
-2.415000474e-08
5.48093066e-08
-4.660384789e-08
-2.217428224e-08
6.591442509e-08
-5.165025066e-08
-2.029711211e-08
-5.879100038e-08
-1.842309441e-08
7.505233274e-08
1.351372659e-08
-2.986778683e-08
-3.996648346e-08
2.657230243e-08
-2.90040386e-08
-4.102331116e-08
3.873104409e-08
-2.738363484e-08
-4.315207406e-08
4.957387522e-08
-2.520240627e-08
-4.647644742e-08
5.871549357e-08
-2.288848867e-08
-5.098429413e-08
-2.059109083e-08
-5.728279632e-08
6.579460187e-08
1.475486558e-08
4.422638057e-08
-4.453704965e-08
2.895274303e-08
4.53723523e-08
-4.312760911e-08
4.20401817e-08
4.768326043e-08
-4.045911959e-08
5.352042787e-08
5.131490351e-08
-3.685163223e-08
6.297493483e-08
5.62536674e-08
-3.298828116e-08
6.339958106e-08
-2.918152349e-08
7.014079937e-08
1.588282623e-08
4.093377184e-08
-3.904760947e-08
3.126000368e-08
4.203165058e-08
-3.766756974e-08
4.563485828e-08
4.429383102e-08
-3.510469176e-08
5.865051456e-08
4.793569004e-08
-3.178308163e-08
6.995665869e-08
5.325342682e-08
-2.857873189e-08
6.139732282e-08
-2.524018865e-08
7.879703324e-08
1.698673151e-08
3.438771015e-08
-3.377345618e-08
3.355791437e-08
3.53632635e-08
-3.247748707e-08
4.933197e-08
3.74223331e-08
-3.012380653e-08
6.414838134e-08
4.087421802e-08
-2.729191229e-08
7.765577056e-08
4.619864571e-08
-2.450270236e-08
5.478477141e-08
-2.161313056e-08
8.941468535e-08
1.800354842e-08
2.487859377e-08
-2.92543606e-08
3.57203462e-08
2.563602667e-08
-2.807071509e-08
5.29678193e-08
2.726355867e-08
-2.600819722e-08
6.974761944e-08
3.00913283e-08
-2.346702516e-08
8.608744011e-08
3.470817008e-08
-2.114636286e-08
4.251064413e-08
-1.851495432e-08
1.020071574e-07
1.88251594e-08
1.305878224e-08
-2.596279391e-08
3.751074356e-08
1.348281592e-08
-2.488016124e-08
5.610837407e-08
1.441199144e-08
-2.308683006e-08
7.471888693e-08
1.606392256e-08
-2.059744673e-08
9.406996934e-08
1.890882195e-08
-1.852631292e-08
2.383190247e-08
-1.572841947e-08
1.150316191e-07
1.930306589e-08
-4.605490821e-11
-2.423596734e-08
3.857648747e-08
-4.50348623e-11
-2.321110014e-08
5.803290435e-08
-4.309393862e-11
-2.153744844e-08
7.791140631e-08
-4.050068855e-11
-1.900500833e-08
9.958949823e-08
-3.723332367e-11
-1.685488926e-08
-3.434782731e-11
-1.354774666e-08
1.24704079e-07
1.930417664e-08
-1.314667377e-08
-2.424800244e-08
3.857855737e-08
-1.356881299e-08
-2.322245605e-08
5.803571431e-08
-1.449428819e-08
-2.154765156e-08
7.791486491e-08
-1.614144118e-08
-1.90138813e-08
9.959312036e-08
-1.898017184e-08
-1.686199675e-08
-2.389739049e-08
-1.355365787e-08
1.247071531e-07
1.882837064e-08
-2.495578425e-08
-2.599514092e-08
3.751680978e-08
-2.571180308e-08
-2.491063276e-08
5.611638001e-08
-2.733652384e-08
-2.311338416e-08
7.472890634e-08
-3.016030813e-08
-2.062113973e-08
9.408093934e-08
-3.477174804e-08
-1.854571616e-08
-4.256878532e-08
-1.574401776e-08
1.150419542e-07
1.800831764e-08
-3.445148673e-08
-2.9299085e-08
3.572953508e-08
-3.54262187e-08
-2.811315843e-08
5.298029426e-08
-3.748367551e-08
-2.604561084e-08
6.976323179e-08
-4.093244972e-08
-2.350038512e-08
8.610513344e-08
-4.625289367e-08
-2.117374324e-08
-5.483430143e-08
-1.853704083e-08
1.020251293e-07
1.699246656e-08
-4.098417922e-08
-3.382381123e-08
3.35691017e-08
-4.208178308e-08
-3.252577916e-08
4.934793247e-08
-4.43432265e-08
-3.016797361e-08
6.41681663e-08
-4.798347025e-08
-2.73300969e-08
7.767915951e-08
-5.329846155e-08
-2.453578279e-08
-6.143824988e-08
-2.164085731e-08
8.94400367e-08
1.588896496e-08
-4.42642747e-08
-3.9099989e-08
3.12721494e-08
-4.541032108e-08
-3.771846397e-08
4.565267657e-08
-4.772118464e-08
-3.515254146e-08
5.867307236e-08
-5.135232581e-08
-3.182580871e-08
6.998410911e-08
-5.628922539e-08
-2.861735852e-08
-6.343176311e-08
-2.527367481e-08
7.882822721e-08
1.476098776e-08
-4.45889756e-08
-4.430406735e-08
2.896502853e-08
-4.317881984e-08
-4.543956014e-08
4.205866322e-08
-4.050871846e-08
-4.768970409e-08
5.354481525e-08
-3.689839482e-08
-5.114247244e-08
6.300493552e-08
-3.303048186e-08
-5.560732086e-08
-2.921974393e-08
-6.197384375e-08
7.017566931e-08
1.58564981e-08
4.667502967e-08
-6.062829605e-08
3.101229037e-08
4.793618856e-08
-5.846941242e-08
4.479152226e-08
5.041125822e-08
-5.437304931e-08
5.661625542e-08
5.420211053e-08
-4.885411731e-08
6.584958109e-08
5.89466144e-08
-4.259031791e-08
6.5852462e-08
-3.662180625e-08
7.243472446e-08
1.701789526e-08
4.34374719e-08
-5.282790664e-08
3.334365491e-08
4.458970758e-08
-5.064681405e-08
4.83307776e-08
4.691262737e-08
-4.659315047e-08
6.150020335e-08
5.059221278e-08
-4.134258941e-08
7.226244305e-08
5.540522234e-08
-3.579956188e-08
6.324771204e-08
-3.094133007e-08
8.05683386e-08
1.808893116e-08
3.665341657e-08
-4.50782943e-08
3.55504996e-08
3.763954134e-08
-4.298886131e-08
5.183697455e-08
3.968353052e-08
-3.918115438e-08
6.658053676e-08
4.30013738e-08
-3.444462223e-08
7.942653724e-08
4.785191012e-08
-2.979537062e-08
5.650952598e-08
-2.625839191e-08
9.080999164e-08
1.903430003e-08
2.660325889e-08
-3.823848175e-08
3.756323472e-08
2.735104012e-08
-3.631112568e-08
5.512438075e-08
2.895506381e-08
-3.284086099e-08
7.178253168e-08
3.162760729e-08
-2.875139525e-08
8.767609059e-08
3.605409464e-08
-2.524209775e-08
4.472857734e-08
-2.314614812e-08
1.040882366e-07
1.979001157e-08
1.399028716e-08
-3.313982436e-08
3.924025539e-08
1.440124253e-08
-3.138059569e-08
5.803682032e-08
1.53134802e-08
-2.824180783e-08
7.680140176e-08
1.691009571e-08
-2.464450893e-08
9.661441214e-08
1.983362196e-08
-2.211886267e-08
2.575578216e-08
-2.125046257e-08
1.211092247e-07
2.022917475e-08
-5.133655185e-11
-3.042351045e-08
4.02360883e-08
-5.003429274e-11
-2.876673257e-08
5.992189424e-08
-4.750722975e-11
-2.586227236e-08
8.040514168e-08
-4.372005026e-11
-2.253443887e-08
1.039468465e-07
-3.941943959e-11
-2.052355877e-08
-3.521811949e-11
-2.040635556e-08
1.365964439e-07
2.023066949e-08
-1.408678762e-08
-3.044321131e-08
4.023901668e-08
-1.449551539e-08
-2.878531977e-08
5.992590437e-08
-1.5403441e-08
-2.58785997e-08
8.040949139e-08
-1.699317798e-08
-2.254799945e-08
1.039507265e-07
-1.990897189e-08
-2.053366279e-08
-2.582309586e-08
-2.041432917e-08
1.365992703e-07
1.979419557e-08
-2.668443917e-08
-3.319166754e-08
3.92484126e-08
-2.743092361e-08
-3.142943532e-08
5.804799281e-08
-2.903231126e-08
-2.828408605e-08
7.681413507e-08
-3.170017947e-08
-2.468025765e-08
9.662676359e-08
-3.612034975e-08
-2.214692888e-08
-4.47879065e-08
-2.127149951e-08
1.211190425e-07
1.904018269e-08
-3.671639157e-08
-3.830730491e-08
3.75744838e-08
-3.770206757e-08
-3.637630838e-08
5.514071013e-08
-3.974499916e-08
-3.289914455e-08
7.180211247e-08
-4.306121987e-08
-2.880071005e-08
8.769647334e-08
-4.79078149e-08
-2.528061431e-08
-5.656011788e-08
-2.317499767e-08
1.041066315e-07
1.809571221e-08
-4.348381406e-08
-4.515209209e-08
3.556377946e-08
-4.463641544e-08
-4.305949155e-08
5.185620318e-08
-4.695983936e-08
-3.924554708e-08
6.660434741e-08
-5.063977137e-08
-3.449965395e-08
7.945305641e-08
-5.545113518e-08
-2.984116193e-08
-6.328982699e-08
-2.629461722e-08
9.083654596e-08
1.702464739e-08
-4.670705972e-08
-5.290138042e-08
3.335704819e-08
-4.796900253e-08
-5.071826831e-08
4.835040602e-08
-5.044532519e-08
-4.666038681e-08
6.152567386e-08
-5.423728061e-08
-4.140353813e-08
7.229257128e-08
-5.89821797e-08
-3.585318492e-08
-6.588560858e-08
-3.098628088e-08
8.060096817e-08
1.586263669e-08
-6.06985781e-08
-4.646007834e-08
3.102472321e-08
-5.853908693e-08
-4.777079557e-08
4.481039092e-08
-5.444108822e-08
-5.029859368e-08
5.664141463e-08
-4.891889256e-08
-5.40477762e-08
6.588083423e-08
-4.2649948e-08
-5.86021032e-08
-3.667477119e-08
-6.502036738e-08
7.247061791e-08
1.673480423e-08
4.555759419e-08
-7.796522416e-08
3.269257359e-08
4.71745044e-08
-7.495598902e-08
4.699480198e-08
5.028382762e-08
-6.908883126e-08
5.87580263e-08
5.475516832e-08
-6.093692444e-08
6.703177112e-08
5.962586832e-08
-5.096998811e-08
6.629980614e-08
-4.130269602e-08
7.142625604e-08
1.812092639e-08
4.278441165e-08
-6.817561643e-08
3.540552846e-08
4.424238786e-08
-6.499927564e-08
5.086483357e-08
4.709943467e-08
-5.886803299e-08
6.352691386e-08
5.132525473e-08
-5.057473843e-08
7.226604457e-08
5.594160142e-08
-4.085439e-08
6.333226851e-08
-3.260900597e-08
7.69012572e-08
1.935235599e-08
3.643743204e-08
-5.808364716e-08
3.786234603e-08
3.765868942e-08
-5.491513652e-08
5.450117261e-08
4.012576922e-08
-4.884629389e-08
6.840340007e-08
4.379539762e-08
-4.081697698e-08
7.809894378e-08
4.850693098e-08
-3.205623305e-08
5.697549445e-08
-2.599411128e-08
8.419143273e-08