/*--------------------------------*- C++ -*----------------------------------*\
  =========                 |
  \\      /  F ield         | OpenFOAM: The Open Source CFD Toolbox
   \\    /   O peration     | Website:  https://openfoam.org
    \\  /    A nd           | Version:  7
     \\/     M anipulation  |
\*---------------------------------------------------------------------------*/
FoamFile
{
    version     2.0;
    format      ascii;
    class       volScalarField;
    location    "0.00032";
    object      Uz;
}
// * * * * * * * * * * * * * * * * * * * * * * * * * * * * * * * * * * * * * //

dimensions      [0 1 -1 0 0 0 0];

internalField   nonuniform List<scalar> 
5000
(
0
0
0
0
0
-8.8754392e-17
-1.8926168e-31
2.6646694e-16
8.883815e-17
-1.7771919e-16
-1.7775199e-16
8.8893943e-17
-7.580829e-31
-7.8346386e-31
1.7785999e-16
-1.7786763e-16
1.3025877e-48
-7.83505e-31
-8.8915804e-17
1.7780382e-16
8.8885324e-17
0
0
-8.8827137e-17
7.5721431e-31
-7.3181126e-31
-8.8768208e-17
8.8749852e-17
8.8732263e-17
-8.8715386e-17
1.5504028e-30
-7.5615893e-31
-8.866767e-17
8.8652153e-17
8.8636522e-17
0
0
-8.8587377e-17
-8.8569847e-17
8.8551619e-17
-1.4845873e-30
-8.8512987e-17
8.849261e-17
-1.4961356e-30
-8.8449969e-17
8.842785e-17
-3.0402825e-30
3.0269363e-30
-3.0387019e-30
1.506398e-30
8.8312814e-17
0
0
0
0
0
0
0
0
0
0
0
0
-8.8027046e-17
-8.8006938e-17
8.798706e-17
-1.5126112e-30
-6.1124898e-49
8.7928633e-17
0
0
-8.7871643e-17
-8.7852891e-17
0
8.7815671e-17
3.0318454e-30
-8.7778758e-17
-8.7760392e-17
8.7742077e-17
1.7544761e-16
-1.7541115e-16
4.9844501e-32
2.6300761e-16
-1.7530212e-16
-9.1158811e-30
1.7522967e-16
-2.6279026e-16
8.7578685e-17
8.7560632e-17
-8.7542593e-17
8.7524566e-17
8.7506551e-17
3.0460532e-30
-1.749411e-16
-6.0523178e-30
-8.7434592e-17
-8.7416626e-17
-3.0677642e-30
6.0845982e-30
1.7472556e-16
8.734485e-17
-8.7326927e-17
1.2407357e-32
8.7291105e-17
0
-8.7255316e-17
-3.0373103e-30
8.7219559e-17
-8.7201693e-17
-8.7183834e-17
1.7433197e-16
8.7148142e-17
-2.6139092e-16
-8.7112482e-17
2.6128399e-16
-8.7076855e-17
-8.7059053e-17
-4.9477228e-32
-8.7023475e-17
2.6101709e-16
-6.0819702e-30
-1.7394033e-16
1.7390483e-16
8.693467e-17
-8.6916933e-17
8.6899205e-17
-8.6881485e-17
-1.7372754e-16
8.6846068e-17
2.9983901e-30
8.6810684e-17
1.7358601e-16
-8.6775333e-17
-8.6757669e-17
-8.6740013e-17
-3.0193774e-30
-3.0064417e-30
3.0181493e-30
1.7333894e-16
8.6651854e-17
-8.6634245e-17
-1.7323329e-16
-8.6599053e-17
-8.6581468e-17
6.0031168e-30
1.7309265e-16
-2.4592953e-32
2.4587964e-32
4.8019615e-48
8.6476124e-17
-5.9958145e-30
1.2038335e-29
8.6423556e-17
-8.6406049e-17
8.6388549e-17
2.994872e-30
-8.6353572e-17
8.6336095e-17
-1.2266614e-32
-8.6301163e-17
0
8.6266262e-17
5.9690104e-30
-1.7246278e-16
8.6213965e-17
-2.4498532e-32
-8.6179138e-17
8.6161736e-17
-8.6144341e-17
8.6126953e-17
-3.5878609e-29
-2.3881622e-29
8.6074833e-17
-1.7211495e-16
0
-5.9655913e-30
-1.7893167e-29
8.5988114e-17
8.5970791e-17
5.924141e-30
-8.5936168e-17
8.5918868e-17
5.9083564e-30
3.6614674e-32
1.1897375e-29
-1.7169947e-16
8.5832471e-17
8.5815213e-17
-5.9012299e-30
5.912234e-30
-1.783064e-29
5.9220437e-30
-8.5729028e-17
0
0
0
0
-8.5643016e-17
1.7850695e-29
8.5608659e-17
8.5591491e-17
-8.557433e-17
-8.5557175e-17
1.7108005e-16
5.9187705e-30
-1.7752754e-29
-8.5488622e-17
-8.54715e-17
8.5454385e-17
0
8.5420173e-17
5.910479e-30
-8.5385988e-17
-8.5368905e-17
1.188664e-29
8.5334757e-17
-1.7063539e-16
8.5300634e-17
8.5283582e-17
-8.5266536e-17
8.5249496e-17
0
0
0
8.5181396e-17
-8.5164385e-17
-1.7029476e-16
8.5130382e-17
-5.9146213e-30
8.5096402e-17
8.507942e-17
-1.7012489e-16
2.4171377e-32
-2.4166555e-32
8.5011547e-17
8.4994593e-17
-1.6995529e-16
1.2073642e-32
-1.769643e-29
8.4926827e-17
-4.7155578e-29
-1.1774481e-29
8.4876056e-17
-8.4859143e-17
0
-8.482533e-17
8.4808431e-17
8.4791536e-17
-8.4774646e-17
0
-8.474088e-17
8.4724004e-17
8.4707132e-17
-2.9402019e-29
-1.693468e-16
-1.6931308e-16
2.5391906e-16
1.6924567e-16
0
-1.6917829e-16
-8.4572309e-17
8.4555474e-17
8.4538643e-17
8.4521815e-17
-1.6900998e-16
-1.6897634e-16
8.4471355e-17
1.6890908e-16
2.3422679e-29
-1.6884185e-16
8.4404123e-17
-1.1704348e-29
-8.4370527e-17
1.6870747e-16
-8.4336943e-17
1.1742963e-29
8.4303372e-17
-8.428659e-17
8.4269811e-17
-1.6850607e-16
3.5145954e-29
1.6843898e-16
-1.6840545e-16
-5.826246e-30
8.4169195e-17
0
0
8.4118919e-17
-8.4102165e-17
-1.6817083e-16
8.4068664e-17
-2.3888991e-32
8.403517e-17
8.4018426e-17
-8.4001684e-17
0
-8.3968206e-17
-8.3951469e-17
0
1.67836e-16
8.3901268e-17
-1.6776908e-16
5.8042279e-30
-2.3831911e-32
8.3834354e-17
8.3817629e-17
-8.3800905e-17
8.3784182e-17
-8.376746e-17
4.7606784e-32
1.6746804e-16
-8.3717301e-17
-8.3700583e-17
-8.3683866e-17
-1.1604461e-29
8.3650434e-17
0
0
-8.3600291e-17
1.1604748e-29
-2.319298e-29
-1.1611981e-29
8.3533442e-17
-8.3516731e-17
1.1866067e-32
8.3483309e-17
0
0
0
0
0
0
0
-8.334963e-17
0
8.3316211e-17
0
-8.3282792e-17
-2.3097668e-29
8.3249372e-17
0
0
-8.3199241e-17
-1.1549067e-29
8.316582e-17
0
0
-8.3115688e-17
-8.3098977e-17
8.3082266e-17
8.3065555e-17
0
-8.3032132e-17
1.1797201e-32
8.2998711e-17
-8.2982e-17
-8.296529e-17
8.2948581e-17
8.2931871e-17
0
-8.2898455e-17
-8.2881748e-17
8.2865043e-17
8.2848338e-17
0
-8.2814934e-17
-8.2798234e-17
8.2781537e-17
8.2764842e-17
0
0
0
0
0
0
0
0
-8.2614755e-17
-8.3149033e-48
8.2581464e-17
0
0
0
-8.2514988e-17
-1.1442358e-29
8.2481817e-17
-8.2465252e-17
1.1447182e-29
-1.1714316e-32
-1.1442593e-29
8.2399154e-17
-8.2382676e-17
8.236622e-17
-4.57572e-29
-8.233338e-17
8.2316999e-17
0
0
-8.2268035e-17
-1.1419841e-29
8.2235559e-17
-8.2219378e-17
-8.2203236e-17
0
8.2171082e-17
8.2155073e-17
-8.2139112e-17
-2.2792309e-29
1.9364603e-48
-1.1397594e-29
8.2075791e-17
-8.2060099e-17
-7.5783914e-48
-1.1388895e-29
-8.2013374e-17
0
0
8.1967186e-17
1.1646067e-32
-3.4093349e-29
8.1921517e-17
0
0
-8.1876301e-17
2.2696357e-29
8.1846342e-17
0
0
0
-8.1786575e-17
1.1620443e-32
8.1756568e-17
-8.1741474e-17
8.1726294e-17
-2.2712743e-29
-1.6339114e-16
8.1679974e-17
3.4014775e-29
1.1336032e-29
-1.1333767e-29
-8.1615198e-17
0
0
8.1562888e-17
1.1321637e-29
-2.2626403e-29
6.9140977e-49
-8.1485266e-17
8.1463977e-17
8.1441767e-17
0
-8.1394194e-17
-1.1297224e-29
8.1341707e-17
0
0
-8.1251648e-17
2.3083561e-32
1.4927925e-48
-8.1144627e-17
8.1104446e-17
-1.1231574e-29
1.1248301e-29
-2.2471658e-29
-8.0916329e-17
8.0861443e-17
-2.243738e-29
2.2431561e-29
-2.2413135e-29
-8.0603751e-17
8.0528559e-17
-2.2338957e-29
1.11805e-29
0
-8.0176677e-17
8.0074487e-17
-1.1102484e-29
1.1347499e-32
-1.1069566e-29
1.1062932e-29
7.9462817e-17
-7.9318064e-17
-7.9165056e-17
7.9003452e-17
7.8832906e-17
0
-7.8463606e-17
-7.8264156e-17
0
7.7833927e-17
-1.077433e-29
1.0993467e-32
1.0694325e-29
-7.6838627e-17
7.655978e-17
1.0578255e-29
-2.1093649e-29
-7.564617e-17
-7.5314969e-17
1.4993996e-16
-1.0602853e-32
1.0296605e-29
7.3849791e-17
-7.3447242e-17
1.0139459e-29
7.2597249e-17
0
0
0
-7.071362e-17
-7.0203858e-17
6.9678441e-17
6.9137358e-17
0
-6.8008266e-17
-6.742036e-17
6.6816995e-17
6.6198289e-17
0
-6.4915471e-17
-6.4251736e-17
6.3573413e-17
1.7460736e-29
-6.2174064e-17
0
0
0
0
5.8441785e-17
-1.5994177e-29
-5.686352e-17
5.6057909e-17
7.6698001e-30
-7.5628923e-30
4.0300485e-47
5.2737753e-17
5.1886087e-17
-1.020539e-16
-6.9643512e-30
6.8362502e-30
-4.8410988e-17
0
4.6641344e-17
4.5750812e-17
-4.4857375e-17
-1.2194799e-29
4.306452e-17
0
0
-4.0370576e-17
5.4749752e-30
3.8579485e-17
0
-3.6798588e-17
5.1036313e-33
-9.7280079e-30
-4.7376197e-30
3.3288256e-17
-3.2425052e-17
4.4861958e-33
-8.5303498e-30
-2.98794e-17
2.9047345e-17
7.8373575e-30
3.8953507e-33
-3.6942371e-30
-2.581517e-17
2.5033442e-17
0
-1.3050109e-29
-3.1564836e-30
-9.1640106e-30
-3.0272792e-33
-2.059429e-17
1.9899282e-17
1.2988335e-46
-2.5754865e-30
4.96941e-30
-2.3958766e-30
3.3261583e-17
-1.6019516e-17
-1.542264e-17
-2.0604181e-30
1.9815699e-30
2.7437881e-17
-1.3180083e-17
-1.2655726e-17
2.4197915e-47
0
2.2820075e-47
-1.070218e-17
1.024932e-17
2.0793507e-47
-1.3017318e-30
-1.2752789e-33
-8.5760745e-18
1.6382951e-17
2.1714532e-30
-7.4613825e-18
9.8689944e-31
-9.4064665e-31
6.4607088e-18
-6.1513999e-18
-5.6195404e-47
-2.3198312e-30
1.4704282e-30
-1.3956434e-30
-1.325997e-30
1.1453522e-47
0
4.0762452e-18
0
0
-3.4630943e-18
-9.0981664e-31
3.0983182e-18
0
0
-5.223261e-18
-2.0515828e-30
4.6486901e-18
-2.1910656e-18
2.9336229e-34
-2.6989933e-31
-1.8296353e-18
0
0
0
-1.4283227e-18
-3.719473e-31
1.2580937e-18
0
0
-1.0360256e-18
1.37858e-34
9.0788617e-19
0
0
-7.4193218e-19
-1.9222111e-31
-1.7971535e-31
1.6759491e-31
5.6285302e-19
-5.246328e-19
1.3565014e-31
-1.2631209e-31
1.1749785e-31
3.9402202e-19
0
0
-3.162245e-19
-2.633823e-47
2.7241804e-19
0
0
-2.1701541e-19
-1.1919883e-47
1.8603513e-19
0
0
-1.471168e-19
-8.3153828e-48
1.2550264e-19
0
0
-9.8529514e-20
1.2904471e-35
8.3649944e-20
-7.7020046e-20
1.9692542e-32
-1.8114493e-32
1.6646473e-32
5.5092188e-20
0
0
0
0
0
-3.2860262e-20
8.3537002e-33
2.7557501e-20
0
0
0
0
0
0
0
-1.3381004e-20
6.7721549e-33
1.1118923e-20
0
0
0
0
0
0
0
-5.2061408e-21
1.3115057e-33
4.2873274e-21
0
0
-3.1933806e-21
8.0350684e-34
2.6182067e-21
0
0
0
-1.7507808e-21
-4.3937326e-34
1.427952e-21
0
0
0
0
0
0
0
-6.211207e-22
7.9391065e-38
5.0227702e-22
0
0
0
0
0
0
0
-2.1121409e-22
-2.6884514e-38
1.6937979e-22
0
0
0
-1.0839272e-22
5.3771793e-35
8.6497663e-23
0
-6.8913111e-23
-1.7078691e-35
5.4814747e-23
0
0
-3.8769135e-23
-3.4514871e-23
3.0714968e-23
2.7322105e-23
0
0
0
0
1.5128327e-23
-1.907898e-39
-2.3820414e-23
-1.0561361e-23
1.872314e-23
1.6589852e-23
-7.3467868e-24
-6.5045875e-24
0
0
0
0
-3.5186127e-24
-8.6347865e-37
2.7446081e-24
0
0
0
0
0
0
0
0
0
0
0
0
0
0
-4.0612823e-25
1.9805745e-37
3.1275319e-25
0
0
2.1076515e-25
-5.1251833e-38
2.2974839e-41
-1.4181049e-25
-1.2422984e-25
-6.031063e-38
2.637801e-38
8.3039443e-26
0
0
0
0
0
-3.6731907e-26
1.7834393e-38
2.8017579e-26
0
0
0
0
0
0
0
-9.4236342e-27
4.3871503e-39
6.4344169e-27
0
0
0
0
0
0
0
-1.7732645e-27
1.3923141e-39
1.4692763e-27
0
0
0
0
0
0
0
0
-4.559823e-28
4.3199321e-44
4.559823e-28
0
0
0
0
-1.013294e-28
1.013294e-28
1.013294e-28
1.013294e-28
-2.8137158e-41
1.519941e-28
0
0
0
0
-2.026588e-28
7.0306895e-41
5.06647e-28
-2.026588e-28
1.519941e-28
-1.519941e-28
0
0
0
-1.519941e-28
-3.9467541e-54
5.06647e-29
1.013294e-28
1.013294e-28
-1.1649641e-43
1.519941e-28
0
0
-1.519941e-28
1.2671101e-40
-4.053176e-28
-3.546529e-28
-1.013294e-28
8.4411474e-41
-3.546529e-28
0
0
0
3.039882e-28
-2.8198309e-41
3.546529e-28
6.079764e-28
5.06647e-28
7.0306895e-41
-5.06647e-29
0
0
0
-4.053176e-28
9.8429653e-41
3.039882e-28
0
0
0
0
0
0
0
-5.06647e-29
-4.2184137e-41
-3.039882e-28
-9.8480053e-41
3.546529e-28
0
0
-1.519941e-28
3.5999434e-44
-1.1254863e-40
8.4368274e-41
1.519941e-28
1.013294e-28
0
5.3455294e-44
0
0
1.013294e-28
-1.2657401e-40
-4.2184137e-41
7.1998869e-45
1.013294e-28
-1.519941e-28
-3.039882e-28
3.039882e-28
5.6216717e-41
2.533235e-28
-3.039882e-28
0
-1.519941e-28
-7.0378894e-41
1.013294e-28
0
1.519941e-28
-1.013294e-28
5.6259916e-41
-2.533235e-28
5.06647e-29
0
-2.533235e-28
0
-5.06647e-29
0
1.4067081e-41
1.519941e-28
2.8108358e-41
1.013294e-28
5.06647e-29
0
-1.013294e-28
-4.2205737e-41
1.519941e-28
0
-3.546529e-28
2.533235e-28
-1.0079842e-43
-1.519941e-28
-5.06647e-29
0
1.013294e-28
-1.2190248e-41
5.06647e-29
7.4271687e-56
-5.06647e-29
1.013294e-28
1.519941e-28
-2.026588e-28
0
0
0
0
0
0
-2.533235e-28
-1.4636499e-56
-5.06647e-28
1.519941e-28
-5.06647e-29
1.519941e-28
0
0
-2.8255452e-41
-5.06647e-29
-1.013294e-28
-1.013294e-28
0
1.013294e-28
7.0378894e-41
-3.039882e-28
0
0
2.026588e-28
-4.2764235e-43
-2.026588e-28
-3.039882e-28
0
2.533235e-28
-9.8480053e-41
-2.026588e-28
1.1796295e-44
-1.5787234e-53
1.4399774e-44
2.533235e-28
-3.039882e-28
-2.026588e-28
0
0
5.06647e-29
-2.8122758e-41
5.06647e-29
0
-2.533235e-28
-1.519941e-28
1.013294e-28
-1.013294e-28
0
0
0
0
0
0
5.06647e-29
-4.2184137e-41
-1.013294e-28
0
0
0
0
0
0
-5.06647e-29
-2.7244866e-69
1.013294e-28
1.3922199e-41
-1.4054179e-41
-1.013294e-28
0
0
0
0
1.519941e-28
4.2184137e-41
-5.06647e-29
-1.519941e-28
-2.026588e-28
-5.06647e-29
-3.1295523e-53
-2.1095669e-40
-1.2653081e-40
-5.6303115e-41
1.9696011e-40
-2.8122758e-41
1.013294e-28
0
1.519941e-28
-2.1092069e-40
3.5999434e-44
1.013294e-28
-2.8229277e-41
3.546529e-28
-5.06647e-28
1.4061379e-41
1.6867895e-40
2.8129958e-41
2.8108358e-41
-4.2162538e-41
2.8122758e-41
-1.013294e-28
1.519941e-28
2.533235e-28
-5.06647e-29
4.2162538e-41
-3.9371861e-40
-4.2184137e-41
1.4068579e-41
2.8108358e-41
2.8122758e-41
-2.026588e-28
0
1.519941e-28
-2.8122758e-41
-1.9515332e-56
2.026588e-28
0
5.06647e-29
1.519941e-28
2.026588e-28
-5.06647e-29
0
0
0
0
-5.8981473e-45
-5.6245516e-41
1.6877975e-40
-3.546529e-28
-3.039882e-28
-2.026588e-28
0
0
0
0
-4.053176e-28
-3.5999434e-44
2.533235e-28
0
0
0
0
0
0
0
-1.519941e-28
1.3612159e-41
1.013294e-28
2.026588e-28
0
0
0
0
0
0
1.519941e-28
2.026588e-28
-5.06647e-29
1.013294e-28
0
0
0
0
0
0
5.06647e-29
1.519941e-28
5.06647e-29
1.519941e-28
0
0
0
0
0
0
-1.519941e-28
-5.6259916e-41
-5.06647e-29
0
0
0
0
0
0
1.013294e-28
-4.2205737e-41
-2.533235e-28
0
0
0
0
2.026588e-28
3.5999434e-44
-3.039882e-28
2.533235e-28
2.4394166e-56
4.559823e-28
-3.039882e-28
8.4411474e-41
-5.06647e-29
5.06647e-29
-1.6877975e-40
-2.8129958e-40
-2.3418399e-55
-2.8122758e-41
2.8108358e-41
-1.013294e-28
1.013294e-28
5.06647e-29
-1.013294e-28
1.4054179e-40
6.079764e-28
0
-3.039882e-28
9.8480053e-41
7.0378894e-41
8.4353875e-41
-1.2655241e-40
-8.4325075e-41
2.1092069e-40
-2.8115558e-40
9.8530452e-41
1.519941e-28
0
-1.519941e-28
-5.0399208e-44
-2.5306162e-40
-1.6873655e-40
2.8799547e-44
1.6873655e-40
-7.0342895e-41
-1.013294e-28
0
-3.039882e-28
5.6245516e-41
-1.4399774e-44
-1.4146712e-41
0
-5.06647e-29
1.519941e-28
1.519941e-28
-1.519941e-28
0
0
-3.546529e-28
3.375163e-40
-1.9675851e-40
1.1251983e-40
-2.3761709e-56
-2.533235e-28
-3.546529e-28
1.519941e-28
0
0
0
0
-2.026588e-28
-2.8137158e-41
5.2694997e-68
5.06647e-29
5.06647e-29
-1.013294e-28
0
0
0
0
-4.053176e-28
-1.519941e-28
1.7105694e-43
1.519941e-28
0
0
0
0
0
0
2.026588e-28
-1.519941e-28
4.053176e-28
3.039882e-28
0
0
0
0
0
0
1.519941e-28
-8.4382674e-41
3.039882e-28
-2.533235e-28
-3.039882e-28
-1.013294e-28
0
-2.026588e-28
3.9381941e-40
6.748886e-40
-1.013294e-28
-6.079764e-28
1.013294e-28
3.039882e-28
1.013294e-28
-5.6982416e-41
2.533235e-28
-2.8799547e-44
-5.06647e-29
-1.013294e-28
5.06647e-29
1.013294e-28
-2.533235e-28
2.026588e-28
5.0399208e-44
-4.053176e-28
0
0
0
-1.6212704e-27
8.106352e-28
1.2159528e-27
-4.559823e-28
1.519941e-28
-2.533235e-28
4.053176e-28
-1.1709199e-55
-4.053176e-28
3.546529e-28
3.039882e-28
1.519941e-28
-1.519941e-28
-1.519941e-28
2.9491246e-67
7.599705e-28
-9.119646e-28
-4.559823e-28
-3.546529e-28
-1.013294e-27
1.3172822e-27
6.586411e-28
5.06647e-28
-2.533235e-28
1.013294e-28
-6.079764e-28
5.06647e-29
-1.519941e-28
4.053176e-28
3.546529e-28
1.1735049e-59
4.559823e-28
-1.519941e-28
1.6870775e-40
-1.6876535e-40
-3.039882e-28
1.013294e-28
3.546529e-28
8.106352e-28
-3.039882e-28
-6.079764e-28
4.053176e-28
-3.039882e-28
3.039882e-28
5.06647e-29
1.9243906e-43
5.06647e-29
0
3.039882e-28
1.013294e-28
8.5528471e-44
-4.559823e-28
4.053176e-28
8.106352e-28
2.8122758e-41
2.026588e-28
3.546529e-28
0
6.079764e-28
2.2495327e-40
-3.039882e-28
-5.06647e-29
4.4996413e-40
-1.013294e-28
1.519941e-28
-7.093058e-28
0
0
0
-5.06647e-29
-5.6259916e-41
-7.093058e-28
4.053176e-28
7.093058e-28
-7.599705e-28
1.6873655e-40
-4.053176e-28
3.039882e-28
0
0
0
-2.026588e-28
3.039882e-28
8.106352e-28
-7.599705e-28
-6.2448912e-55
-7.093058e-28
0
0
1.519941e-28
2.8129958e-41
2.026588e-28
-5.06647e-29
-5.06647e-28
7.599705e-28
8.4353875e-41
5.06647e-28
-1.519941e-28
-2.026588e-28
5.06647e-28
5.06647e-29
-8.4361074e-40
-2.533235e-28
-2.026588e-28
4.559823e-28
2.8799547e-44
2.026588e-28
-5.6245516e-41
2.026588e-28
3.546529e-28
-5.6245516e-41
9.0910027e-41
4.3199321e-44
6.079764e-28
-1.013294e-28
-4.6836798e-55
-7.093058e-28
3.039882e-28
-1.519941e-28
5.06647e-28
2.533235e-28
2.2501086e-40
2.026588e-28
2.026588e-28
2.026588e-28
1.519941e-28
1.519941e-28
0
-3.039882e-28
-1.1249103e-40
2.8122758e-41
-2.8115558e-41
-2.026588e-28
5.0620965e-40
-1.013294e-28
-3.374731e-40
-1.6707487e-40
3.039882e-28
1.519941e-28
-5.06647e-29
-1.519941e-28
2.80178e-43
-3.039882e-28
1.013294e-28
6.079764e-28
0
0
5.06647e-29
-5.06647e-29
0
-3.039882e-28
-2.026588e-28
-1.1250126e-40
3.374731e-40
-1.6863983e-40
1.1249103e-40
-1.186729e-55
-6.4146353e-44
-1.519941e-28
3.039882e-28
1.519941e-28
-5.06647e-29
-4.559823e-28
5.06647e-29
-4.053176e-28
-5.06647e-29
-1.013294e-28
5.06647e-29
0
2.533235e-28
0
-3.039882e-28
1.519941e-28
1.0124193e-39
-6.586411e-28
6.749462e-40
1.519941e-28
-2.026588e-28
-2.026588e-28
1.013294e-28
2.533235e-28
-2.533235e-28
1.519941e-28
-5.06647e-29
-2.026588e-28
5.0629604e-40
4.053176e-28
4.053176e-28
5.06647e-29
-2.026588e-28
-5.6245516e-41
-1.4399774e-44
2.026588e-28
-5.6245516e-40
-2.533235e-28
7.599705e-28
-2.8122758e-40
2.2419221e-40
0
0
2.533235e-28
0
0
5.06647e-29
1.013294e-28
-1.013294e-28
1.1246223e-40
1.519941e-28
-5.06647e-29
2.026588e-28
-8.106352e-28
1.7279728e-43
1.6875095e-40
-1.013294e-28
-5.06647e-28
1.0639587e-27
-3.9381941e-40
-2.026588e-28
0
0
-1.013294e-28
-5.6245516e-40
-5.0608005e-40
-7.1998869e-44
-3.039882e-28
-3.0967941e-44
-1.6876535e-40
-1.1981212e-43
2.026588e-28
-1.519941e-28
-3.4211388e-43
5.6231116e-41
-2.8091943e-52
-5.06647e-29
-5.06647e-28
9.119646e-28
-3.039882e-28
-3.039882e-28
1.519941e-28
1.013294e-28
-5.06647e-28
2.8122758e-40
3.039882e-28
5.0399208e-44
7.093058e-28
-7.093058e-28
5.0612325e-40
5.06647e-28
-2.026588e-28
0
4.053176e-28
3.0927114e-40
-6.079764e-28
-4.1695129e-43
1.013294e-28
1.519941e-28
1.519941e-28
-5.06647e-29
-3.63496e-43
1.519941e-28
-1.519941e-28
1.1249103e-40
-1.1246223e-40
1.519941e-28
-2.8129958e-40
2.533235e-28
-1.6873655e-40
9.119646e-28
-6.079764e-28
1.1709199e-55
5.573117e-28
6.1862148e-40
-1.6877975e-40
-1.0470012e-43
5.06647e-29
1.519941e-28
0
0
1.519941e-28
1.519941e-28
4.053176e-28
-1.519941e-28
-8.106352e-28
1.3172822e-27
-5.06647e-28
-6.079764e-28
-1.013294e-28
-1.013294e-28
-5.06647e-29
-1.519941e-28
-2.026588e-28
-2.026588e-28
-1.519941e-28
-9.119646e-28
5.06647e-29
2.1076559e-54
-9.2789262e-40
-6.079764e-28
-4.2764235e-44
-1.013294e-28
-2.803094e-41
-2.026588e-28
-4.053176e-28
-2.533235e-28
8.189289e-55
-1.519941e-28
1.519941e-28
-2.026588e-28
-3.039882e-28
-3.1570549e-53
-6.079764e-28
-1.013294e-28
-2.026588e-28
-5.06647e-28
-1.1679447e-55
-2.026588e-28
-5.8052627e-41
-2.5314802e-40
-7.093058e-28
5.573117e-28
9.119646e-28
6.079764e-28
0
-5.06647e-28
-1.2159528e-27
-1.013294e-28
-1.013294e-28
0
0
0
0
1.013294e-28
5.6245516e-41
3.039882e-28
-2.533235e-28
-7.599705e-28
5.06647e-29
8.4382674e-41
2.026588e-28
1.013294e-28
-2.533235e-28
2.026588e-28
-3.039882e-28
6.7500379e-40
1.013294e-28
5.06647e-28
-7.599705e-28
-2.8799547e-44
-1.013294e-28
-2.1599661e-44
5.06647e-29
2.026588e-28
-7.3119171e-40
-1.9759233e-27
1.4399774e-43
1.519941e-27
2.026588e-28
1.1243343e-40
-2.026588e-28
-2.533235e-28
3.039882e-28
-1.3172822e-27
-6.586411e-28
2.6995544e-39
9.119646e-28
2.026588e-27
-3.7998525e-27
1.2377182e-39
9.119646e-28
1.3172822e-27
1.8745939e-27
1.0400093e-39
-1.1808534e-39
-5.06647e-27
-1.6588179e-39
7.093058e-27
-8.4103402e-27
2.6324399e-38
1.778331e-26
-1.3172822e-26
8.1014279e-39
1.6719351e-26
-1.0386263e-26
-1.2058199e-26
-2.7865585e-26
1.6010045e-26
5.5325852e-26
0
0
0
-9.9556135e-26
-1.1521153e-25
1.3314683e-25
1.5260208e-25
-1.1713679e-25
1.9281297e-41
-7.8428955e-26
3.0107738e-37
3.1234787e-25
-3.6037801e-25
6.9337243e-37
3.1979558e-25
1.0211571e-37
-1.1758322e-37
-4.8749574e-25
2.807331e-25
-3.2308879e-25
1.2378938e-36
1.2817662e-24
-1.4719109e-24
-5.6349279e-25
1.4362855e-36
-1.4839691e-24
1.7031445e-24
9.7696741e-25
1.1199939e-24
3.8504665e-24
-1.6325824e-36
-1.6846013e-24
-5.7859594e-24
1.4699991e-35
7.5746259e-24
0
-3.3006532e-24
-7.5429605e-24
4.3079688e-24
-4.9196437e-24
1.8704615e-35
1.2817156e-23
-2.1928645e-23
1.8503193e-35
1.0552335e-35
1.2016742e-35
1.368639e-35
-1.4036047e-23
4.7922676e-23
5.4520587e-23
-2.06676e-23
-4.6989989e-23
0
3.032946e-23
-3.8223045e-35
8.6793244e-35
-4.9239012e-35
-5.030574e-23
5.703462e-23
6.4638277e-23
-2.1968194e-22
5.3483349e-50
1.5634329e-34
-1.0621976e-22
1.3331198e-34
-2.7168834e-22
3.0706517e-22
3.4691113e-22
1.9588584e-22
-2.4545539e-34
-2.4952603e-22
0
0
0
-8.0589795e-22
4.5377995e-22
1.0216313e-21
-1.7243585e-21
6.4650376e-22
2.1806179e-21
-2.4506904e-21
3.0563356e-33
2.0610022e-21
-3.4700925e-21
-2.5956191e-21
0
3.2634751e-21
6.0892563e-33
2.0481545e-21
4.5864323e-21
-2.5665163e-21
0
-6.4212582e-21
-1.0199676e-36
-4.4512227e-33
4.4778721e-21
1.4996201e-20
-1.6733339e-20
1.0365046e-32
2.0807615e-20
-2.3187799e-20
4.3018513e-32
1.9172321e-20
-1.0668733e-20
1.1868346e-20
-2.6394059e-20
-1.4667979e-20
7.2362622e-32
1.809591e-20
4.0172174e-20
2.2285177e-20
2.4713944e-20
-5.4790175e-20
-3.0353403e-20
0
3.7212315e-20
-2.2860919e-32
8.8076124e-49
-5.0340951e-20
1.5809508e-35
-6.1434849e-20
1.5452569e-47
2.2450531e-19
-2.4761064e-19
-2.7296656e-19
2.0051883e-19
2.2084539e-19
0
-2.6751047e-19
1.4710546e-19
4.85134e-19
-5.330481e-19
3.2500499e-31
4.2841138e-19
-2.3502327e-19
0
2.8251478e-19
3.0952113e-19
-3.3894392e-19
6.1777003e-31
-8.1169993e-19
-2.5225772e-34
1.4550235e-18
0
-1.7353752e-18
-1.2625239e-18
2.0656243e-18
1.5012838e-18
-2.4537952e-18
-8.9080401e-19
3.8787109e-18
1.0549991e-18
-2.2944864e-18
-2.4938302e-18
1.5037582e-30
1.4707227e-18
1.596033e-18
1.7311235e-18
-1.876673e-18
2.2573831e-30
-4.4041282e-18
7.9380342e-30
7.7353737e-18
0
0
-6.5082422e-18
7.8006527e-30
3.7901807e-18
-1.2261545e-17
4.4050845e-18
7.9004111e-30
1.7014317e-29
1.6491376e-17
-5.9118557e-18
3.5262726e-30
-7.5782655e-30
-7.3292802e-18
7.8649461e-18
-1.198699e-33
5.0187511e-30
-1.0751813e-29
-1.0371085e-17
0
1.1869519e-17
-2.5374726e-17
-1.355391e-17
2.8942909e-17
0
-1.6469021e-17
1.7553938e-17
3.7399273e-17
-5.9726116e-17
7.0563702e-29
7.5027053e-29
-2.3942771e-17
7.6296555e-17
-3.8367338e-33
-2.86449e-17
-3.0373911e-17
3.2188538e-17
3.4091686e-17
-3.6086271e-17
0
4.0361421e-17
-8.5295607e-17
7.501008e-29
4.7532605e-17
1.1133298e-28
1.1733323e-28
1.582584e-32
1.1725808e-16
-1.8508618e-16
-1.9465141e-16
0
1.4327292e-16
2.2561585e-16
1.1213118e-32
-8.273852e-17
-8.6706791e-17
9.0811838e-17
9.5055226e-17
-9.9438361e-17
0
-2.1725726e-16
-2.2687538e-16
3.5517099e-16
1.2348702e-16
-1.2872802e-16
3.8117317e-32
1.3964293e-16
2.9063251e-16
1.5113272e-16
-2.6163771e-28
-6.5276527e-16
5.642824e-28
5.2742643e-16
-1.8232296e-16
-1.8897132e-16
-1.9575152e-16
2.0266095e-16
2.0969675e-16
2.168558e-16
6.3702926e-32
-2.3152998e-16
2.3903766e-16
-7.3996109e-16
-5.0874756e-16
7.8658011e-16
-2.701077e-16
-5.5622359e-16
5.7240095e-16
-2.9436835e-16
3.0260984e-16
6.2183841e-16
-9.5787147e-16
3.277176e-16
-1.1198714e-27
-1.0341424e-15
7.0654125e-16
3.6185707e-16
3.7046669e-16
7.581852e-16
-3.8772782e-16
3.3573942e-71
-8.0999559e-16
-4.136182e-16
4.687275e-28
4.3079353e-16
8.7866759e-16
-8.9566527e-16
4.5628267e-16
1.3940295e-15
-1.4190202e-15
-4.8126602e-16
-4.1281065e-44
-4.9754224e-16
1.5166337e-15
5.1344668e-16
-5.2124138e-16
-1.0578431e-15
5.3648005e-16
-5.4390992e-16
1.8357613e-27
1.1167121e-15
-1.6960762e-15
-6.3556036e-28
2.5709521e-27
-1.2996114e-27
1.1834909e-15
-1.1958081e-15
6.0387496e-16
2.4386086e-15
-6.1522968e-16
-1.2412036e-15
0
-1.2614145e-15
1.410847e-27
3.6375515e-31
7.1514612e-28
6.4821299e-16
6.5199619e-16
-6.5553252e-16
-6.5881743e-16
1.3236931e-15
-1.3292313e-15
7.406054e-28
1.3387157e-15
-1.3426467e-15
-2.2414422e-27
7.4871463e-28
6.7555538e-16
1.3528015e-15
-6.7695867e-16
6.7722587e-16
-3.7589399e-28
-6.7685318e-16
-1.3524163e-15
6.7526391e-16
1.3480378e-15
-6.724722e-16
6.706228e-16
-1.113345e-27
6.6601364e-16
1.4730014e-27
-1.3203799e-15
-1.3136469e-15
-1.4500168e-27
2.1622685e-27
-2.148051e-27
6.4035112e-16
6.3549018e-16
6.3033683e-16
-6.2489411e-16
0
0
6.0686618e-16
-3.3321457e-28
-8.4337813e-32
-6.5097338e-28
-5.7903324e-16
0
5.6359162e-16
1.1110263e-15
-5.4720639e-16
-1.0773592e-15
-1.0598827e-15
-1.0420015e-15
1.5356021e-15
1.6737241e-27
-1.4791866e-15
9.6682306e-16
9.4722037e-16
0
4.536018e-16
-8.8683754e-16
-4.3313302e-16
8.4551458e-16
4.1230457e-16
-4.4604576e-28
-1.1736631e-15
3.8061711e-16
1.1099696e-15
-1.078059e-15
-3.487202e-16
1.0143156e-15
-3.6355215e-28
-3.1698286e-16
-6.1300496e-16
-3.2862477e-28
5.715385e-16
-5.5108405e-16
2.6542435e-16
7.6628443e-16
0
-2.3584619e-16
-4.5256446e-16
1.2044835e-28
-2.0765895e-16
-3.9723649e-16
3.7953899e-16
3.6224097e-16
0
1.6444937e-16
1.7367152e-28
1.6504901e-28
1.5663775e-28
-4.0131007e-16
-2.5335818e-16
0
2.2641965e-16
2.3717318e-28
1.0069729e-16
2.8439945e-16
-8.914023e-17
4.64573e-29
-1.1159403e-32
-7.3568879e-17
-1.3767636e-16
6.4331348e-17
1.2008835e-16
-5.5971956e-17
0
-9.69038e-17
4.499302e-17
1.2518137e-16
-3.8648009e-17
-3.5749393e-17
-6.6049583e-17
3.0467609e-17
8.421364e-17
-2.5828862e-17
2.6344846e-29
4.3559053e-17
-1.9959146e-17
-1.826615e-17
-3.3388035e-17
-4.5709173e-17
2.7773911e-17
2.5279308e-17
-2.2976997e-17
-1.1573383e-29
1.890346e-17
-1.7110271e-17
-8.584571e-30
1.39593e-17
0
-1.1324599e-17
-1.0178345e-17
0
1.2280433e-17
3.6633581e-18
9.3042214e-34
2.9210673e-18
2.6026069e-18
2.5697108e-30
-4.1131629e-18
-3.6476493e-18
5.3780156e-30
2.8545374e-18
-2.5184959e-18
-3.6932728e-30
1.9491699e-18
0
0
0
0
-9.8514851e-19
-4.7289395e-31
7.3354476e-19
3.1456276e-19
-5.370261e-19
7.5968995e-31
3.8525415e-19
-3.2357299e-19
-1.5373502e-31
1.2264813e-19
-2.1481262e-19
3.4433863e-31
2.4739985e-19
-2.8205736e-19
-2.529216e-19
2.4027779e-19
2.9688524e-19
0
0
0
0
1.7476616e-19
-1.6269142e-19
-1.3827213e-19
1.5389353e-31
9.3239786e-74
1.5885122e-19
2.7092328e-19
1.1972416e-19
-2.6328541e-19
-4.4073515e-19
1.3617916e-19
2.1496331e-19
-3.0297224e-19
-2.3303126e-19
3.5380727e-19
1.8873309e-19
8.1158257e-20
1.065089e-31
-2.1556419e-19
0
7.1000274e-20
-8.6290791e-20
2.3719934e-31
2.7274449e-35
2.4376887e-31
8.641747e-20
1.3141483e-19
-4.7028881e-35
-3.0072956e-19
-2.055865e-19
2.4420323e-31
1.7878108e-19
0
0
0
2.7790594e-20
5.3552989e-20
-9.4994572e-20
-1.0025929e-19
6.6188552e-20
-8.5010075e-20
-1.5270155e-19
0
1.5001504e-19
7.0915414e-32
5.68713e-20
1.7571758e-19
-6.5652829e-20
1.2627115e-31
-1.5353587e-19
5.2070635e-31
1.8635703e-19
5.6647887e-32
1.3380328e-35
-9.0540254e-20
1.0174973e-19
-2.0526472e-19
-8.2240944e-20
1.104497e-19
-1.0175456e-19
-1.9406692e-35
8.1313797e-32
5.3560509e-20
1.1832407e-19
-7.5237034e-20
-2.3128254e-49
-3.6915353e-20
6.9533397e-32
8.991261e-20
-4.5167419e-20
-9.7079137e-20
6.1458228e-32
1.7157258e-19
-1.5217988e-35
-5.7020118e-20
6.7477955e-20
-1.3890041e-19
-5.8384253e-20
9.9114439e-20
-9.9058825e-20
-5.4722591e-32
2.4765852e-31
-8.6189796e-32
7.5118371e-20
-7.1755427e-20
3.405265e-20
6.6870329e-20
-3.3722243e-20
3.191284e-20
-6.6479394e-20
6.5550878e-32
1.3157949e-19
0
0
-1.8893576e-19
-6.9875784e-20
1.4499569e-19
-1.313172e-19
-2.8912022e-35
1.7367867e-31
5.4277803e-32
1.1761123e-19
-1.108801e-19
-8.8730607e-20
3.8591591e-20
1.0787029e-19
3.0764475e-20
-1.5798005e-20
0
0
-5.1275718e-21
6.5900669e-33
5.8185382e-20
7.1532478e-36
-5.8201701e-20
-2.9872245e-20
2.928441e-32
6.7262999e-20
4.8997092e-32
-4.563941e-20
0
-1.7604171e-20
3.3756554e-20
1.4234018e-20
-1.7819034e-32
-3.4907286e-21
1.4131716e-21
-5.1194619e-21
0
0
0
0
7.0797388e-21
-7.0505333e-33
-5.2430163e-20
1.8036953e-20
4.5867915e-20
-3.456935e-20
-9.5433658e-21
2.0224332e-20
9.8097409e-21
1.1863768e-32
-9.1273064e-21
-1.1333137e-37
7.6069331e-34
5.8385336e-22
-6.512219e-21
-7.9486593e-21
-8.8912492e-33
6.9332341e-21
8.5715629e-21
1.1254942e-20
1.4827131e-20
-3.8094075e-32
-2.984965e-20
0
0
-1.4594525e-20
-2.5352135e-32
-2.4853877e-36
2.3229249e-36
1.3906021e-20
2.9324061e-20
3.2412546e-20
-2.889692e-20
-1.2846994e-32
-1.1427136e-20
-3.9288123e-20
0
0
1.4532159e-20
1.4026006e-20
0
-9.4075536e-21
6.0256437e-33
1.2770914e-20
-1.2850098e-20
2.3388626e-20
-3.9567748e-32
-3.9341156e-20
1.4013662e-20
1.4136712e-20
2.7808859e-20
-1.4694772e-20
-4.8901011e-20
1.6727169e-20
-8.7775026e-33
3.1897949e-20
1.7704682e-20
-3.7097504e-20
3.4611524e-20
-1.9982557e-48
-3.7356177e-20
0
0
3.7031106e-20
-2.0115897e-32
-5.6377991e-32
-1.2128741e-48
-5.3080579e-20
-2.0571343e-32
1.8228503e-20
3.2879737e-20
3.2577478e-20
-3.5314011e-20
-4.0371089e-32
-1.8036972e-20
-5.8084141e-32
1.62884e-20
-2.8331158e-20
0
-1.4807272e-20
1.7587325e-32
1.5728083e-20
2.6208025e-20
1.2502667e-32
-2.390745e-20
0
0
-1.4224081e-20
7.5461771e-33
3.6693877e-20
1.1519069e-32
-2.0400256e-20
0
1.1684751e-20
-1.1278467e-20
-1.0437665e-20
-9.6506401e-21
-9.6399128e-21
1.9808846e-20
2.8572674e-20
-8.6981214e-21
-1.6344461e-20
2.5563328e-20
-9.6397355e-50
-1.8768097e-20
0
0
0
0
1.6904045e-20
1.82553e-20
-9.3887971e-21
-2.8542709e-20
-1.0522195e-32
8.9775513e-21
-1.6685792e-20
-1.700251e-20
9.3921963e-21
4.1025672e-20
2.1298833e-20
-3.174745e-20
-2.0085299e-20
2.8011015e-20
2.1001822e-32
-2.0712954e-20
0
0
0
2.0715602e-20
1.135519e-32
-2.3411857e-32
1.0963516e-20
-3.3596969e-20
1.1224051e-20
1.1001309e-20
-3.1894397e-20
-2.0802632e-20
1.0701555e-20
2.2457834e-20
2.2818416e-20
-3.6701833e-32
1.1449745e-32
-2.8860073e-36
-2.1317894e-20
0
-1.117478e-20
-1.0703681e-20
1.0505971e-20
1.0786795e-20
-1.1131204e-20
-1.1007748e-20
2.1045694e-20
9.9455401e-21
-9.9554236e-21
1.0464906e-20
-1.0667319e-20
-2.102774e-20
0
0
2.9410166e-20
9.4419387e-21
-1.8537798e-20
-9.3145677e-21
-9.2317911e-21
1.78629e-20
-9.4983627e-33
-1.6526418e-20
0
7.4997778e-21
2.1841463e-20
1.6009935e-32
-3.8708236e-32
1.262015e-20
-1.6680148e-20
-5.4051964e-21
-1.5969966e-36
5.5922452e-21
-8.5129233e-33
-7.1706854e-33
1.0805147e-20
-1.0129982e-20
1.7125343e-32
-5.5309167e-33
-5.71033e-21
2.2602357e-21
-1.872427e-21
3.4958381e-21
1.5650429e-21
-2.0651187e-21
9.3409456e-22
-1.4160517e-37
-2.0833123e-33
-1.1570023e-37
6.8110806e-34
-1.0039283e-21
2.493207e-21
6.9317745e-33
-3.3586395e-21
2.2223778e-21
2.5174333e-21
-3.4099067e-21
6.7070903e-33
5.5345985e-21
-1.6675806e-33
-4.0661522e-21
9.0129284e-37
4.1964877e-21
-4.7325543e-21
-7.1354469e-33
5.7733871e-33
-1.6996325e-33
3.4981824e-21