/*--------------------------------*- C++ -*----------------------------------*\
  =========                 |
  \\      /  F ield         | OpenFOAM: The Open Source CFD Toolbox
   \\    /   O peration     | Website:  https://openfoam.org
    \\  /    A nd           | Version:  7
     \\/     M anipulation  |
\*---------------------------------------------------------------------------*/
FoamFile
{
    version     2.0;
    format      ascii;
    class       volScalarField;
    location    "0.0013";
    object      mag(U);
}
// * * * * * * * * * * * * * * * * * * * * * * * * * * * * * * * * * * * * * //

dimensions      [0 1 -1 0 0 0 0];

internalField   nonuniform List<scalar> 
5000
(
0.002677906
0.0031075946
0.0032138955
0.0033494208
0.0034915156
0.0036405923
0.0037968943
0.0039606757
0.0041322034
0.0043117569
0.0044996279
0.0046961202
0.0049015495
0.0051162435
0.0053405424
0.0055747984
0.0058193766
0.0060746547
0.0063410237
0.0066188882
0.0069086665
0.0072107908
0.0075257082
0.0078538802
0.0081957839
0.0085519116
0.0089227716
0.0093088886
0.0097108038
0.010129076
0.01056428
0.01101701
0.011487877
0.011977513
0.012486567
0.013015706
0.013565621
0.01413702
0.014730633
0.01534721
0.015987523
0.016652367
0.017342558
0.018058935
0.018802362
0.019573722
0.020373928
0.021203913
0.022064637
0.022957085
0.023882266
0.024841219
0.025835005
0.026864716
0.027931468
0.029036408
0.030180709
0.031365573
0.032592232
0.033861946
0.035176007
0.036535734
0.037942479
0.039397624
0.040902583
0.0424588
0.044067753
0.045730951
0.047449935
0.04922628
0.051061595
0.052957521
0.054915732
0.056937937
0.059025881
0.061181341
0.063406129
0.065702093
0.068071114
0.070515111
0.073036036
0.075635878
0.078316661
0.081080443
0.083929322
0.086865427
0.089890925
0.09300802
0.09621895
0.099525989
0.10293145
0.10643767
0.11004704
0.11376197
0.11758491
0.12151836
0.12556482
0.12972687
0.13400708
0.13840809
0.14293254
0.14758314
0.15236261
0.15727369
0.16231919
0.16750192
0.17282474
0.17829052
0.18390219
0.18966267
0.19557495
0.20164202
0.20786691
0.21425268
0.2208024
0.22751918
0.23440616
0.24146648
0.24870332
0.25611989
0.26371941
0.27150512
0.27948027
0.28764816
0.29601207
0.30457533
0.31334126
0.32231321
0.33149453
0.3408886
0.3504988
0.36032852
0.37038116
0.38066012
0.39116884
0.40191071
0.41288918
0.42410766
0.43556958
0.44727838
0.45923748
0.47145031
0.48392028
0.49665083
0.50964535
0.52290725
0.53643993
0.55024676
0.56433113
0.57869639
0.59334588
0.60828294
0.62351087
0.63903297
0.65485251
0.67097275
0.68739691
0.7041282
0.72116979
0.73852485
0.7561965
0.77418783
0.7925019
0.81114177
0.83011041
0.8494108
0.86904587
0.88901852
0.90933159
0.92998791
0.95099024
0.97234132
0.99404385
1.0161005
1.0385138
1.0612863
1.0844206
1.1079192
1.1317843
1.1560184
1.1806239
1.2056028
1.2309576
1.2566902
1.2828029
1.3092976
1.3361763
1.363441
1.3910935
1.4191357
1.4475692
1.4763959
1.5056172
1.5352349
1.5652504
1.5956651
1.6264804
1.6576978
1.6893183
1.7213433
1.7537739
1.7866111
1.8198559
1.8535094
1.8875723
1.9220455
1.9569297
1.9922256
2.0279339
2.0640551
2.1005896
2.137538
2.1749005
2.2126775
2.2508692
2.2894758
2.3284973
2.3679338
2.4077853
2.4480517
2.4887328
2.5298284
2.5713383
2.6132621
2.6555993
2.6983496
2.7415123
2.785087
2.829073
2.8734694
2.9182757
2.963491
3.0091143
3.0551447
3.1015813
3.1484229
3.1956685
3.243317
3.2913669
3.3398172
3.3886664
3.4379132
3.4875561
3.5375937
3.5880244
3.6388465
3.6900586
3.7416589
3.7936455
3.8460169
3.8987711
3.9519062
4.0054203
4.0593115
4.1135777
4.1682169
4.223227
4.2786058
4.3343512
4.3904609
4.4469327
4.5037642
4.5609532
4.6184971
4.6763937
4.7346405
4.793235
4.8521746
4.9114568
4.971079
5.0310386
5.091333
5.1519593
5.212915
5.2741973
5.3358033
5.3977304
5.4599755
5.522536
5.5854088
5.6485911
5.71208
5.7758724
5.8399654
5.9043559
5.9690409
6.0340173
6.0992821
6.1648321
6.2306642
6.2967753
6.3631622
6.4298216
6.4967504
6.5639453
6.6314031
6.6991206
6.7670943
6.8353211
6.9037975
6.9725203
7.0414861
7.1106916
7.1801332
7.2498078
7.3197117
7.3898416
7.460194
7.5307655
7.6015526
7.6725519
7.7437597
7.8151726
7.8867871
7.9585996
8.0306066
8.1028045
8.1751898
8.2477588
8.3205079
8.3934336
8.4665322
8.5398001
8.6132336
8.6868292
8.760583
8.8344915
8.908551
8.9827578
9.0571081
9.1315983
9.2062246
9.2809833
9.3558706
9.4308829
9.5060163
9.5812671
9.6566314
9.7321056
9.8076857
9.8833681
9.9591487
10.035024
10.11099
10.187043
10.263178
10.339393
10.415683
10.492045
10.568474
10.644966
10.721519
10.798126
10.874786
10.951494
11.028245
11.105037
11.181864
11.258723
11.335611
11.412522
11.489453
11.566401
11.64336
11.720327
11.797298
11.874269
11.951235
12.028193
12.105138
12.182067
12.258976
12.335859
12.412713
12.489535
12.566319
12.643061
12.719758
12.796406
12.872999
12.949534
13.026007
13.102413
13.178748
13.255008
13.331189
13.407286
13.483296
13.559213
13.635033
13.710753
13.786368
13.861873
13.937265
14.012538
14.087689
14.162713
14.237606
14.312364
14.386981
14.461454
14.535778
14.609949
14.683963
14.757815
14.8315
14.905014
14.978353
15.051512
15.124487
15.197273
15.269866
15.342261
15.414454
15.486441
15.558216
15.629776
15.701116
15.772232
15.843118
15.913771
15.984186
16.054359
16.124284
16.193959
16.263377
16.332535
16.401428
16.470052
16.538402
16.606474
16.674263
16.741766
16.808976
16.875891
16.942506
17.008816
17.074818
17.140505
17.205876
17.270924
17.335646
17.400037
17.464094
17.527812
17.591186
17.654213
17.716888
17.779208
17.841168
17.902764
17.963992
18.024849
18.085329
18.14543
18.205147
18.264477
18.323415
18.381958
18.440103
18.497845
18.555181
18.612107
18.66862
18.724717
18.780393
18.835646
18.890472
18.944869
18.998832
19.052358
19.105446
19.158091
19.210291
19.262043
19.313344
19.364192
19.414583
19.464516
19.513987
19.562995
19.611537
19.659611
19.707215
19.754346
19.801003
19.847184
19.892887
19.938111
19.982853
20.027113
20.070889
20.114179
20.156983
20.199299
20.241127
20.282465
20.323313
20.363669
20.403535
20.442908
20.481789
20.520178
20.558074
20.595477
20.632388
20.668806
20.704732
20.740167
20.77511
20.809564
20.843527
20.877002
20.909989
20.94249
20.974506
21.006037
21.037086
21.067655
21.097744
21.127355
21.156492
21.185155
21.213346
21.241069
21.268325
21.295117
21.321447
21.347319
21.372734
21.397697
21.422209
21.446274
21.469895
21.493076
21.515819
21.538128
21.560008
21.58146
21.60249
21.623101
21.643297
21.663081
21.682459
21.701433
21.720009
21.73819
21.755981
21.773386
21.79041
21.807056
21.823331
21.839238
21.854782
21.869967
21.884799
21.899282
21.913421
21.927221
21.940686
21.953823
21.966635
21.979127
21.991305
22.003174
22.014738
22.026003
22.036973
22.047654
22.05805
22.068168
22.07801
22.087584
22.096893
22.105943
22.114738
22.123284
22.131586
22.139648
22.147475
22.155073
22.162445
22.169598
22.176535
22.183261
22.189781
22.196099
22.202221
22.208151
22.213893
22.219451
22.224831
22.230036
22.235071
22.23994
22.244647
22.249197
22.253593
22.257839
22.26194
22.2659
22.269721
22.273409
22.276966
22.280397
22.283704
22.286892
22.289964
22.292923
22.295773
22.298517
22.301159
22.3037
22.306145
22.308496
22.310757
22.312929
22.315017
22.317023
22.318949
22.320798
22.322573
22.324276
22.32591
22.327476
22.328978
22.330418
22.331797
22.333118
22.334383
22.335595
22.336754
22.337863
22.338923
22.339938
22.340907
22.341833
22.342719
22.343564
22.344371
22.345141
22.345876
22.346578
22.347246
22.347884
22.348491
22.34907
22.349621
22.350146
22.350645
22.351121
22.351573
22.352003
22.352412
22.3528
22.353169
22.35352
22.353852
22.354168
22.354468
22.354752
22.355021
22.355277
22.355519
22.355748
22.355965
22.35617
22.356364
22.356548
22.356722
22.356886
22.357041
22.357188
22.357326
22.357457
22.35758
22.357696
22.357806
22.35791
22.358007
22.358099
22.358185
22.358267
22.358343
22.358415
22.358483
22.358547
22.358607
22.358663
22.358716
22.358766
22.358813
22.358856
22.358897
22.358935
22.358971
22.359004
22.359035
22.359063
22.359089
22.359113
22.359135
22.359154
22.359171
22.359185
22.359197
22.359209
22.359221
22.359227
22.359233
22.359249
22.359266
22.359271
22.359278
22.3593
22.359321
22.35933
22.359345
22.359375
22.359399
22.359414
22.359428
22.359451
22.359479
22.359501
22.359517
22.359533
22.359558
22.359582
22.359603
22.359623
22.359648
22.35967
22.359692
22.359713
22.359731
22.359752
22.359773
22.359793
22.359811
22.359831
22.359851
22.359871
22.35989
22.359909
22.35993
22.359949
22.359968
22.359988
22.360003
22.360018
22.360032
22.360045
22.360058
22.360071
22.360081
22.360091
22.3601
22.360108
22.360117
22.36012
22.360123
22.360135
22.360153
22.36016
22.36016
22.360167
22.360185
22.3602
22.36021
22.360217
22.36023
22.360244
22.36026
22.360273
22.360281
22.360292
22.36031
22.360324
22.360337
22.360353
22.360368
22.360382
22.360395
22.360408
22.36042
22.360432
22.360445
22.360459
22.360473
22.360479
22.360482
22.360494
22.36051
22.360517
22.360518
22.360524
22.360539
22.360553
22.360561
22.360568
22.36058
22.360592
22.360604
22.360616
22.360628
22.360639
22.36065
22.360663
22.360673
22.360679
22.360685
22.360698
22.360711
22.360716
22.360717
22.360727
22.360741
22.36075
22.360752
22.360757
22.360769
22.360782
22.360788
22.360793
22.360804
22.360816
22.360824
22.36083
22.36084
22.360852
22.360861
22.360868
22.360877
22.360888
22.360898
22.360905
22.360912
22.360924
22.360933
22.360939
22.360945
22.360956
22.360967
22.360973
22.360978
22.360988
22.361
22.361009
22.361017
22.361026
22.361036
22.361045
22.361054
22.361062
22.361071
22.36108
22.361089
22.361099
22.361105
22.361106
22.361109
22.361117
22.361123
22.36113
22.361134
22.361134
22.361138
22.361146
22.361155
22.361163
22.361173
22.361183
22.361193
22.361203
22.361213
22.361223
22.361232
22.36124
22.361247
22.361255
22.361262
22.36127
22.361277
22.361284
22.361291
22.361297
22.361302
22.361308
22.361313
22.36132
22.361326
22.361333
22.361341
22.361349
22.361358
22.361368
22.361372
22.361375
22.361378
22.361381
22.361384
22.361387
22.361389
22.361391
22.361394
22.361396
22.361399
22.361401
22.361404
22.361408
22.361412
22.361417
22.361422
22.361427
22.361433
22.361439
22.361447
22.361451
22.36145
22.361449
22.361452
22.36145
22.361447
22.361448
22.361446
22.361444
22.361444
22.361444
22.361444
22.361446
22.361445
22.361445
22.361445
22.361447
22.361449
22.361452
22.361456
22.361462
22.361464
22.361464
22.361465
22.361464
22.361464
22.361465
22.361467
22.361467
22.361469
22.361472
22.361475
22.361479
22.361483
22.361488
22.361493
22.361499
22.361504
22.361505
22.361506
22.361508
22.361509
22.361512
22.361514
22.361512
22.361512
22.361516
22.361516
22.36151
22.361506
22.36151
22.361509
22.361504
22.361497
22.361498
22.361499
22.361497
22.361492
22.361491
22.361491
22.361489
22.361483
22.361478
22.361477
22.361477
22.361476
22.361474
22.361471
22.361467
22.361462
22.361458
22.361456
22.361454
22.361453
22.361452
22.361452
22.361452
22.36145
22.361447
22.361444
22.361443
22.361443
22.361443
22.361443
22.361443
22.361444
22.361445
22.361445
22.361444
22.361442
22.361443
22.361445
22.361445
22.361444
22.361444
22.361445
22.361445
22.361444
22.361444
22.361444
22.361443
22.361439
22.361437
22.361439
22.361439
22.361437
22.361432
22.361427
22.361427
22.361427
22.361427
22.361428
22.361428
22.361427
22.361425
22.361421
22.361417
22.361416
22.361415
22.361413
22.36141
22.361407
22.361405
22.361402
22.361399
22.361394
22.361391
22.361389
22.361386
22.361382
22.361377
22.361374
22.361372
22.361369
22.361364
22.361359
22.361356
22.361354
22.361351
22.361347
22.361343
22.361338
22.361334
22.361332
22.36133
22.361326
22.361323
22.361318
22.361316
22.361314
22.361311
22.361308
22.361305
22.361303
22.361301
22.361298
22.361295
22.361293
22.361291
22.361289
22.361287
22.361286
22.361285
22.361283
22.36128
22.361278
22.361277
22.361276
22.361275
22.361273
22.36127
22.361269
22.361268
22.361268
22.361266
22.361264
22.361261
22.36126
22.36126
22.361259
22.361258
22.361255
22.361254
22.361254
22.361253
22.361251
22.361248
22.361247
22.361247
22.361246
22.361244
22.361241
22.361241
22.36124
22.361239
22.361236
22.361234
22.361234
22.361233
22.361231
22.361228
22.361226
22.361223
22.361223
22.361222
22.361221
22.361219
22.361217
22.361215
22.361213
22.361211
22.36121
22.361208
22.361207
22.361205
22.361202
22.361201
22.3612
22.361198
22.361196
22.361194
22.361193
22.361191
22.36119
22.361188
22.361186
22.361185
22.361184
22.361183
22.361181
22.361179
22.361177
22.361177
22.361176
22.361174
22.361172
22.36117
22.361169
22.361168
22.361168
22.361166
22.361165
22.361163
22.36116
22.361159
22.361158
22.361157
22.361155
22.361153
22.361151
22.36115
22.361149
22.361148
22.361145
22.361143
22.361141
22.361139
22.361137
22.361135
22.361133
22.361131
22.361129
22.361126
22.361124
22.361121
22.361119
22.361116
22.361114
22.361111
22.361108
22.361106
22.361104
22.361101
22.361097
22.361094
22.361091
22.361089
22.361086
22.361084
22.361081
22.361078
22.361075
22.361072
22.36107
22.361067
22.361064
22.361061
22.361059
22.361056
22.361054
22.361051
22.361048
22.361046
22.361044
22.361041
22.361038
22.361035
22.361033
22.361031
22.361029
22.361027
22.361025
22.361022
22.36102
22.361019
22.361017
22.361015
22.361012
22.361011
22.361009
22.361007
22.361006
22.361004
22.361002
22.361
22.360999
22.360998
22.360996
22.360994
22.360993
22.360992
22.360991
22.360989
22.360988
22.360986
22.360985
22.360984
22.360983
22.360982
22.360981
22.36098
22.360979
22.360979
22.360978
22.360977
22.360976
22.360975
22.360975
22.360974
22.360974
22.360973
22.360972
22.360971
22.360971
22.360971
22.36097
22.36097
22.360969
22.360969
22.360969
22.360968
22.360968
22.360968
22.360967
22.360967
22.360967
22.360967
22.360967
22.360966
22.360966
22.360965
22.360965
22.360964
22.360964
22.360964
22.360964
22.360964
22.360963
22.360963
22.360962
22.360961
22.360961
22.360961
22.36096
22.36096
22.360959
22.360959
22.360958
22.360957
22.360956
22.360956
22.360955
22.360954
22.360953
22.360952
22.360951
22.36095
22.360949
22.360948
22.360947
22.360946
22.360944
22.360943
22.360942
22.36094
22.360939
22.360938
22.360936
22.360934
22.360932
22.360931
22.360929
22.360928
22.360926
22.360924
22.360922
22.36092
22.360919
22.360917
22.360915
22.360913
22.360911
22.360909
22.360907
22.360905
22.360903
22.360901
22.360899
22.360898
22.360896
22.360893
22.360891
22.360889
22.360887
22.360886
22.360884
22.360882
22.36088
22.360878
22.360877
22.360875
22.360873
22.360871
22.360869
22.360868
22.360866
22.360865
22.360864
22.360862
22.36086
22.360859
22.360858
22.360856
22.360855
22.360854
22.360853
22.360852
22.36085
22.360849
22.360847
22.360847
22.360846
22.360845
22.360844
22.360843
22.360841
22.36084
22.36084
22.360839
22.360838
22.360837
22.360836
22.360835
22.360834
22.360833
22.360833
22.360832
22.360831
22.360829
22.360828
22.360827
22.360826
22.360826
22.360825
22.360824
22.360822
22.360821
22.36082
22.360819
22.360818
22.360817
22.360816
22.360814
22.360813
22.360812
22.360811
22.36081
22.360808
22.360807
22.360805
22.360804
22.360803
22.360802
22.3608
22.360799
22.360797
22.360796
22.360795
22.360794
22.360792
22.360791
22.360789
22.360788
22.360787
22.360785
22.360784
22.360783
22.360781
22.36078
22.360779
22.360777
22.360776
22.360775
22.360773
22.360772
22.360771
22.36077
22.360769
22.360768
22.360767
22.360766
22.360764
22.360763
22.360762
22.360761
22.36076
22.36076
22.360758
22.360757
22.360756
22.360756
22.360755
22.360754
22.360753
22.360752
22.360751
22.360751
22.36075
22.36075
22.360749
22.360748
22.360747
22.360747
22.360746
22.360746
22.360745
22.360744
22.360743
22.360743
22.360743
22.360742
22.360742
22.360741
22.36074
22.360739
22.360739
22.360739
22.360738
22.360738
22.360737
22.360736
22.360736
22.360735
22.360735
22.360735
22.360734
22.360733
22.360733
22.360732
22.360732
22.360731
22.360731
22.36073
22.360729
22.360728
22.360728
22.360728
22.360727
22.360727
22.360726
22.360725
22.360724
22.360724
22.360723
22.360722
22.360722
22.360721
22.36072
22.360719
22.360718
22.360718
22.360717
22.360716
22.360715
22.360714
22.360713
22.360713
22.360712
22.360711
22.36071
22.360709
22.360708
22.360707
22.360706
22.360706
22.360705
22.360704
22.360703
22.360702
22.360701
22.3607
22.360699
22.360698
22.360697
22.360696
22.360695
22.360694
22.360693
22.360692
22.360691
22.36069
22.360689
22.360688
22.360686
22.360686
22.360685
22.360684
22.360683
22.360682
22.36068
22.360679
22.360679
22.360678
22.360677
22.360676
22.360675
22.360673
22.360672
22.360671
22.360671
22.36067
22.360669
22.360668
22.360667
22.360666
22.360665
22.360664
22.360663
22.360662
22.360661
22.36066
22.360659
22.360658
22.360657
22.360656
22.360655
22.360654
22.360653
22.360653
22.360652
22.360651
22.36065
22.360649
22.360648
22.360647
22.360646
22.360645
22.360644
22.360643
22.360642
22.360641
22.36064
22.36064
22.360639
22.360638
22.360637
22.360636
22.360635
22.360634
22.360633
22.360632
22.360631
22.36063
22.360629
22.360628
22.360627
22.360626
22.360625
22.360624
22.360623
22.360622
22.360621
22.36062
22.36062
22.360618
22.360617
22.360616
22.360615
22.360614
22.360614
22.360613
22.360612
22.360611
22.360609
22.360608
22.360607
22.360607
22.360606
22.360605
22.360604
22.360603
22.360602
22.360601
22.3606
22.360599
22.360598
22.360597
22.360596
22.360595
22.360595
22.360594
22.360593
22.360592
22.360591
22.36059
22.360589
22.360589
22.360588
22.360587
22.360586
22.360585
22.360585
22.360584
22.360583
22.360582
22.360581
22.360581
22.36058
22.360579
22.360579
22.360578
22.360577
22.360576
22.360575
22.360575
22.360574
22.360574
22.360573
22.360572
22.360571
22.360571
22.36057
22.360569
22.360568
22.360568
22.360567
22.360566
22.360566
22.360565
22.360564
22.360563
22.360563
22.360562
22.360562
22.360561
22.36056
22.360559
22.360558
22.360558
22.360557
22.360557
22.360556
22.360555
22.360554
22.360553
22.360553
22.360552
22.360551
22.36055
22.36055
22.360549
22.360548
22.360547
22.360546
22.360546
22.360545
22.360544
22.360543
22.360542
22.360541
22.36054
22.360539
22.360538
22.360537
22.360536
22.360536
22.360535
22.360534
22.360533
22.360532
22.360531
22.36053
22.360529
22.360528
22.360527
22.360526
22.360525
22.360524
22.360524
22.360523
22.360521
22.36052
22.360519
22.360518
22.360517
22.360516
22.360515
22.360514
22.360513
22.360512
22.360511
22.36051
22.360509
22.360509
22.360508
22.360507
22.360505
22.360504
22.360503
22.360502
22.360502
22.360501
22.3605
22.360499
22.360498
22.360497
22.360496
22.360495
22.360494
22.360493
22.360492
22.360491
22.36049
22.360489
22.360488
22.360488
22.360487
22.360486
22.360485
22.360484
22.360483
22.360483
22.360482
22.360481
22.36048
22.360479
22.360479
22.360478
22.360477
22.360476
22.360475
22.360474
22.360474
22.360473
22.360472
22.360472
22.360471
22.36047
22.360469
22.360468
22.360468
22.360467
22.360466
22.360465
22.360465
22.360464
22.360463
22.360463
22.360462
22.360461
22.36046
22.36046
22.360459
22.360459
22.360458
22.360458
22.360457
22.360456
22.360455
22.360454
22.360454
22.360453
22.360453
22.360452
22.360452
22.360451
22.36045
22.36045
22.360449
22.360449
22.360448
22.360448
22.360447
22.360446
22.360446
22.360445
22.360444
22.360444
22.360444
22.360443
22.360442
22.360442
22.360441
22.36044
22.36044
22.36044
22.360439
22.360439
22.360438
22.360437
22.360437
22.360436
22.360435
22.360435
22.360434
22.360434
22.360433
22.360433
22.360432
22.360431
22.360431
22.36043
22.36043
22.360429
22.360428
22.360428
22.360427
22.360427
22.360426
22.360426
22.360425
22.360424
22.360424
22.360423
22.360423
22.360422
22.360421
22.360421
22.36042
22.360419
22.360419
22.360418
22.360418
22.360417
22.360416
22.360416
22.360415
22.360415
22.360414
22.360413
22.360413
22.360412
22.360411
22.360411
22.360411
22.36041
22.36041
22.360409
22.360408
22.360407
22.360407
22.360407
22.360406
22.360406
22.360405
22.360405
22.360404
22.360404
22.360403
22.360403
22.360402
22.360402
22.360402
22.360401
22.360401
22.360401
22.3604
22.3604
22.360399
22.360399
22.360399
22.360398
22.360398
22.360398
22.360397
22.360397
22.360397
22.360396
22.360396
22.360396
22.360395
22.360395
22.360395
22.360394
22.360394
22.360394
22.360393
22.360393
22.360393
22.360392
22.360392
22.360392
22.360392
22.360391
22.360391
22.360391
22.36039
22.36039
22.36039
22.360389
22.360389
22.360389
22.360388
22.360388
22.360387
22.360387
22.360387
22.360386
22.360386
22.360386
22.360385
22.360385
22.360384
22.360384
22.360384
22.360383
22.360382
22.360382
22.360382
22.360381
22.360381
22.36038
22.36038
22.360379
22.360379
22.360378
22.360378
22.360377
22.360377
22.360376
22.360375
22.360375
22.360374
22.360374
22.360373
22.360373
22.360372
22.360371
22.360371
22.36037
22.36037
22.360369
22.360368
22.360368
22.360367
22.360366
22.360366
22.360365
22.360364
22.360364
22.360363
22.360362
22.360361
22.360361
22.36036
22.360359
22.360359
22.360358
22.360357
22.360356
22.360356
22.360355
22.360354
22.360353
22.360352
22.360352
22.360351
22.36035
22.360349
22.360349
22.360348
22.360347
22.360346
22.360345
22.360345
22.360344
22.360343
22.360342
22.360341
22.360341
22.36034
22.360339
22.360338
22.360337
22.360336
22.360335
22.360335
22.360334
22.360333
22.360332
22.360331
22.36033
22.36033
22.360329
22.360328
22.360327
22.360326
22.360325
22.360324
22.360324
22.360323
22.360322
22.360321
22.36032
22.360319
22.360318
22.360318
22.360317
22.360316
22.360315
22.360315
22.360314
22.360313
22.360312
22.360311
22.36031
22.36031
22.360309
22.360308
22.360307
22.360306
22.360306
22.360305
22.360304
22.360303
22.360302
22.360301
22.360301
22.3603
22.360299
22.360299
22.360298
22.360297
22.360296
22.360295
22.360295
22.360294
22.360293
22.360293
22.360292
22.360291
22.36029
22.36029
22.360289
22.360288
22.360288
22.360287
22.360286
22.360286
22.360285
22.360284
22.360283
22.360283
22.360282
22.360282
22.360281
22.360281
22.36028
22.360279
22.360278
22.360278
22.360278
22.360277
22.360277
22.360276
22.360275
22.360274
22.360274
22.360273
22.360273
22.360273
22.360272
22.360272
22.360271
22.36027
22.36027
22.360269
22.360269
22.360268
22.360268
22.360267
22.360267
22.360266
22.360266
22.360265
22.360265
22.360265
22.360264
22.360264
22.360263
22.360262
22.360262
22.360262
22.360261
22.360261
22.36026
22.36026
22.360259
22.360259
22.360258
22.360258
22.360258
22.360257
22.360257
22.360256
22.360256
22.360255
22.360255
22.360254
22.360254
22.360253
22.360253
22.360253
22.360252
22.360252
22.360251
22.360251
22.36025
22.36025
22.360249
22.360249
22.360248
22.360248
22.360247
22.360247
22.360246
22.360246
22.360245
22.360245
22.360244
22.360244
22.360243
22.360243
22.360242
22.360242
22.360241
22.360241
22.36024
22.36024
22.360239
22.360238
22.360238
22.360237
22.360237
22.360236
22.360236
22.360235
22.360235
22.360234
22.360233
22.360233
22.360232
22.360232
22.360231
22.360231
22.36023
22.360229
22.360229
22.360228
22.360228
22.360227
22.360226
22.360226
22.360225
22.360225
22.360224
22.360223
22.360223
22.360222
22.360222
22.360221
22.360221
22.36022
22.360219
22.360219
22.360218
22.360218
22.360217
22.360217
22.360216
22.360215
22.360215
22.360214
22.360214
22.360213
22.360212
22.360212
22.360211
22.360211
22.36021
22.36021
22.360209
22.360209
22.360208
22.360207
22.360207
22.360206
22.360206
22.360205
22.360205
22.360204
22.360204
22.360203
22.360202
22.360202
22.360202
22.360201
22.360201
22.3602
22.3602
22.360199
22.360199
22.360198
22.360197
22.360197
22.360197
22.360196
22.360196
22.360195
22.360195
22.360194
22.360194
22.360193
22.360193
22.360192
22.360192
22.360191
22.360191
22.36019
22.36019
22.36019
22.360189
22.360189
22.360188
22.360188
22.360187
22.360187
22.360186
22.360186
22.360185
22.360185
22.360184
22.360184
22.360183
22.360183
22.360183
22.360182
22.360182
22.360181
22.360181
22.36018
22.36018
22.360179
22.360179
22.360178
22.360178
22.360177
22.360177
22.360176
22.360176
22.360175
22.360175
22.360174
22.360174
22.360173
22.360173
22.360172
22.360172
22.360171
22.360171
22.36017
22.36017
22.360169
22.360169
22.360168
22.360168
22.360167
22.360167
22.360166
22.360165
22.360165
22.360164
22.360164
22.360163
22.360162
22.360162
22.360161
22.360161
22.36016
22.36016
22.360159
22.360158
22.360158
22.360157
22.360157
22.360156
22.360155
22.360155
22.360154
22.360153
22.360153
22.360152
22.360152
22.360151
22.36015
22.36015
22.360149
22.360148
22.360148
22.360147
22.360146
22.360146
22.360145
22.360145
22.360144
22.360143
22.360143
22.360142
22.360141
22.360141
22.36014
22.36014
22.360139
22.360138
22.360138
22.360137
22.360136
22.360136
22.360135
22.360135
22.360134
22.360133
22.360133
22.360132
22.360132
22.360131
22.36013
22.36013
22.360129
22.360129
22.360128
22.360128
22.360127
22.360126
22.360126
22.360125
22.360125
22.360124
22.360124
22.360123
22.360123
22.360122
22.360121
22.360121
22.360121
22.36012
22.36012
22.360119
22.360118
22.360118
22.360117
22.360117
22.360116
22.360116
22.360116
22.360115
22.360115
22.360114
22.360114
22.360113
22.360113
22.360112
22.360112
22.360111
22.360111
22.36011
22.36011
22.360109
22.360109
22.360109
22.360108
22.360108
22.360107
22.360107
22.360106
22.360106
22.360106
22.360105
22.360105
22.360104
22.360104
22.360103
22.360103
22.360103
22.360102
22.360102
22.360101
22.360101
22.3601
22.3601
22.3601
22.360099
22.360099
22.360098
22.360098
22.360097
22.360097
22.360097
22.360096
22.360096
22.360095
22.360095
22.360094
22.360094
22.360093
22.360093
22.360093
22.360092
22.360092
22.360091
22.360091
22.36009
22.36009
22.360089
22.360089
22.360088
22.360088
22.360087
22.360087
22.360086
22.360086
22.360085
22.360085
22.360084
22.360084
22.360083
22.360083
22.360082
22.360082
22.360081
22.360081
22.36008
22.360079
22.360079
22.360078
22.360078
22.360077
22.360077
22.360076
22.360076
22.360075
22.360074
22.360074
22.360073
22.360073
22.360072
22.360072
22.360071
22.36007
22.36007
22.360069
22.360069
22.360068
22.360068
22.360067
22.360066
22.360066
22.360065
22.360065
22.360064
22.360063
22.360063
22.360062
22.360061
22.360061
22.36006
22.36006
22.360059
22.360059
22.360058
22.360057
22.360057
22.360056
22.360056
22.360055
22.360054
22.360054
22.360053
22.360052
22.360052
22.360051
22.360051
22.36005
22.36005
22.360049
22.360048
22.360048
22.360047
22.360047
22.360046
22.360045
22.360045
22.360044
22.360044
22.360043
22.360042
22.360042
22.360041
22.360041
22.36004
22.36004
22.360039
22.360039
22.360038
22.360037
22.360037
22.360036
22.360036
22.360035
22.360035
22.360034
22.360034
22.360033
22.360033
22.360032
22.360031
22.360031
22.36003
22.36003
22.360029
22.360029
22.360028
22.360028
22.360027
22.360027
22.360026
22.360025
22.360025
22.360024
22.360024
22.360023
22.360023
22.360022
22.360022
22.360021
22.360021
22.360021
22.36002
22.36002
22.360019
22.360019
22.360018
22.360018
22.360017
22.360017
22.360017
22.360016
22.360016
22.360016
22.360015
22.360014
22.360014
22.360013
22.360013
22.360012
22.360011
22.36001
22.36001
22.360009
22.360009
22.360008
22.360008
22.360008
22.360009
22.360009
22.360009
22.360009
22.360009
22.360009
22.360008
22.360006
22.360003
22.36
22.359996
22.359993
22.359991
22.359991
22.359992
22.359997
22.360005
22.360016
22.360031
22.360047
22.360068
22.360096
22.360145
22.360262
22.360553
22.361526
22.362023
22.360778
22.359559
22.35984
22.36
22.359965
22.359948
22.359957
22.359967
22.359972
22.359979
22.359987
22.359994
22.36
22.360005
22.36001
22.360013
22.360016
22.360018
22.36002
22.360021
22.360022
22.360022
22.360022
22.360022
22.360022
22.360022
22.360021
22.360021
22.36002
22.36002
22.360019
22.360019
22.360017
22.360011
22.360011
22.360017
22.36002
22.360019
22.360018
22.360018
22.360018
22.360018
22.360018
22.360018
22.360018
22.360018
22.360018
22.360018
22.360017
22.360017
22.360017
22.360016
22.360016
22.360016
22.360015
22.360015
22.360015
22.360014
22.360014
22.360013
22.360013
22.360013
22.360012
22.360012
22.360011
22.360011
22.36001
22.36001
22.36001
22.360009
22.360009
22.360008
22.360008
22.360007
22.360007
22.360006
22.360006
22.360005
22.360005
22.360004
22.360004
22.360003
22.360003
22.360002
22.360002
22.360001
22.360001
22.36
22.359999
22.359999
22.359998
22.359998
22.359997
22.359997
22.359996
22.359995
22.359995
22.359994
22.359994
22.359993
22.359993
22.359992
22.359991
22.359991
22.35999
22.35999
22.359989
22.359988
22.359988
22.359987
22.359987
22.359986
22.359985
22.359985
22.359984
22.359983
22.359983
22.359982
22.359981
22.359981
22.35998
22.359979
22.359979
22.359978
22.359977
22.359977
22.359976
22.359975
22.359975
22.359974
22.359973
22.359973
22.359972
22.359972
22.359971
22.35997
22.35997
22.359969
22.359968
22.359968
22.359967
22.359966
22.359966
22.359965
22.359965
22.359964
22.359963
22.359963
22.359962
22.359961
22.359961
22.35996
22.359959
22.359959
22.359958
22.359957
22.359957
22.359956
22.359955
22.359955
22.359954
22.359953
22.359953
22.359952
22.359952
22.359951
22.35995
22.35995
22.359949
22.359948
22.359948
22.359947
22.359947
22.359946
22.359945
22.359945
22.359944
22.359944
22.359943
22.359942
22.359942
22.359941
22.359941
22.35994
22.359939
22.359939
22.359938
22.359938
22.359937
22.359937
22.359936
22.359936
22.359935
22.359935
22.359934
22.359933
22.359933
22.359932
22.359932
22.359931
22.359931
22.35993
22.35993
22.359929
22.359929
22.359928
22.359928
22.359927
22.359927
22.359926
22.359926
22.359925
22.359925
22.359924
22.359924
22.359923
22.359923
22.359922
22.359922
22.359922
22.359921
22.359921
22.35992
22.35992
22.359919
22.359919
22.359918
22.359918
22.359917
22.359917
22.359916
22.359916
22.359915
22.359915
22.359915
22.359914
22.359914
22.359913
22.359913
22.359912
22.359912
22.359911
22.359911
22.359911
22.35991
22.35991
22.359909
22.359909
22.359908
22.359908
22.359908
22.359907
22.359907
22.359906
22.359906
22.359905
22.359905
22.359904
22.359904
22.359904
22.359903
22.359903
22.359902
22.359902
22.359902
22.359901
22.359901
22.3599
22.3599
22.359899
22.359899
22.359899
22.359898
22.359898
22.359897
22.359897
22.359896
22.359896
22.359895
22.359895
22.359895
22.359894
22.359894
22.359893
22.359893
22.359892
22.359892
22.359891
22.359891
22.35989
22.35989
22.359889
22.359889
22.359888