/*--------------------------------*- C++ -*----------------------------------*\
| =========                 |                                                 |
| \\      /  F ield         | OpenFOAM: The Open Source CFD Toolbox           |
|  \\    /   O peration     | Version:  4.x                                   |
|   \\  /    A nd           | Web:      www.OpenFOAM.org                      |
|    \\/     M anipulation  |                                                 |
\*---------------------------------------------------------------------------*/
FoamFile
{
    version     2.0;
    format      ascii;
    class       volScalarField;
    location    "0.7";
    object      T;
}
// * * * * * * * * * * * * * * * * * * * * * * * * * * * * * * * * * * * * * //

dimensions      [0 0 0 1 0 0 0];

internalField   nonuniform List<scalar> 
6279
(
300.0004679
300.0004487
300.0004148
300.0003778
300.0003392
300.0002663
300.0001967
300.0001786
300.0002294
300.0003322
300.0004401
300.0005199
300.0005365
300.0004938
300.0004485
300.0004008
300.0003576
300.0003188
300.0003136
300.0003606
300.0004572
300.0005721
300.0006709
300.0007258
300.0006045
300.0005509
300.0004991
300.000447
300.0004078
300.0003918
300.0004112
300.0004786
300.0005933
300.0007257
300.000829
300.0008853
300.0006703
300.0006272
300.0005717
300.0005191
300.000472
300.0004441
300.0004552
300.000518
300.0006294
300.0007624
300.0008739
300.0009415
300.0004794
300.000462
300.0004163
300.0003732
300.0003196
300.0002388
300.000167
300.0001521
300.000201
300.0003063
300.0004196
300.0005064
300.0005399
300.0005043
300.0004469
300.0003962
300.0003449
300.0002934
300.0002731
300.0003075
300.0003974
300.0005175
300.0006221
300.0006823
300.0005939
300.0005528
300.000491
300.0004381
300.0003901
300.0003661
300.0003719
300.00042
300.0005265
300.0006573
300.0007692
300.0008326
300.0006475
300.0006074
300.0005534
300.000496
300.0004485
300.0004245
300.0004265
300.0004743
300.000577
300.0007065
300.0008209
300.0008988
300.0004853
300.0004603
300.0004128
300.000363
300.0002982
300.000216
300.0001454
300.0001266
300.0001657
300.0002654
300.0003856
300.000481
300.0005382
300.0005025
300.0004367
300.0003888
300.0003236
300.0002645
300.0002339
300.0002541
300.0003302
300.0004496
300.0005625
300.0006331
300.0005836
300.0005429
300.000477
300.0004234
300.0003668
300.0003354
300.0003269
300.0003644
300.0004577
300.0005837
300.0006949
300.0007697
300.0006291
300.0005839
300.0005244
300.0004698
300.0004254
300.0003981
300.0003934
300.0004322
300.000521
300.0006431
300.0007539
300.0008398
300.0004816
300.0004538
300.0004061
300.0003447
300.0002737
300.000197
300.0001287
300.0001052
300.0001372
300.0002241
300.000343
300.0004433
300.0005274
300.0004907
300.0004268
300.0003705
300.0003028
300.0002409
300.0001992
300.0002098
300.0002716
300.0003803
300.0004908
300.0005717
300.0005687
300.0005208
300.0004622
300.0004056
300.0003439
300.0002997
300.00028
300.0003083
300.0003865
300.0005039
300.0006138
300.0006897
300.0006026
300.0005543
300.0004987
300.0004416
300.0003934
300.0003583
300.0003489
300.0003806
300.0004566
300.0005669
300.0006746
300.0007624
300.000467
300.0004382
300.0003855
300.0003203
300.0002492
300.0001748
300.0001104
300.0000864
300.0001113
300.0001841
300.0002967
300.0003999
300.0005141
300.0004709
300.000409
300.0003476
300.0002768
300.0002123
300.0001668
300.0001721
300.0002211
300.0003185
300.0004268
300.0005171
300.0005478
300.0004969
300.000444
300.0003815
300.0003183
300.0002666
300.000242
300.0002651
300.0003301
300.0004371
300.0005455
300.0006323
300.0005764
300.0005279
300.0004773
300.0004175
300.000366
300.0003255
300.0003132
300.0003394
300.0004058
300.0005045
300.0006134
300.0007085
300.0004164
300.0003783
300.0003253
300.000268
300.0002094
300.000151
300.000095
300.000061
300.0000695
300.0001137
300.0001961
300.0002904
300.0004582
300.0004112
300.0003558
300.0002963
300.0002274
300.0001656
300.000119
300.00011
300.0001328
300.0001962
300.0002898
300.0003753
300.0004866
300.0004413
300.0003911
300.0003265
300.0002632
300.0002046
300.0001727
300.0001811
300.0002167
300.0002954
300.0003923
300.0004779
300.0005079
300.0004644
300.0004176
300.0003576
300.0003015
300.0002553
300.0002385
300.0002514
300.0002957
300.00037
300.0004658
300.0005603
300.0004303
300.0003963
300.000338
300.0002751
300.0002077
300.0001407
300.0000865
300.0000627
300.0000788
300.0001404
300.0002386
300.0003367
300.0004804
300.0004342
300.0003798
300.0003067
300.0002314
300.0001681
300.0001229
300.0001175
300.000153
300.0002332
300.0003384
300.0004332
300.0005139
300.0004698
300.0004103
300.00034
300.0002713
300.0002113
300.0001796
300.0001905
300.0002411
300.0003333
300.0004358
300.0005223
300.0005518
300.0004915
300.0004336
300.0003685
300.0003049
300.0002537
300.0002332
300.0002542
300.0003101
300.000397
300.0004962
300.0005897
300.0004764
300.000443
300.0003806
300.0003126
300.0002275
300.0001446
300.0000901
300.0000841
300.000132
300.0002291
300.0003446
300.0004379
300.0005314
300.0004789
300.0004111
300.0003451
300.0002645
300.0001917
300.0001487
300.0001558
300.0002138
300.0003213
300.0004525
300.0005488
300.000579
300.0005207
300.0004563
300.0003874
300.0003096
300.0002411
300.0002087
300.0002302
300.0003073
300.0004234
300.0005365
300.0006202
300.000624
300.0005554
300.0004868
300.0004135
300.000337
300.0002748
300.0002504
300.0002824
300.0003621
300.0004691
300.0005696
300.0006525
300.000524
300.0004645
300.0003964
300.0003111
300.0002185
300.0001326
300.000076
300.0000767
300.0001482
300.0002831
300.0004288
300.0005413
300.0005931
300.000536
300.0004592
300.0003576
300.0002656
300.0001842
300.0001414
300.0001631
300.0002626
300.0004201
300.000541
300.0006223
300.0006426
300.0005904
300.0004969
300.0004028
300.000313
300.0002371
300.0002065
300.000242
300.0003533
300.0004832
300.0005894
300.0006545
300.0006708
300.0006139
300.0005281
300.0004378
300.0003491
300.0002778
300.0002551
300.0002996
300.0003882
300.0004939
300.0005963
300.0006574
300.0005647
300.0005132
300.0004362
300.0003359
300.0002242
300.0001251
300.0000715
300.0001018
300.0002287
300.0003934
300.000537
300.0006125
300.0006273
300.0005709
300.0004793
300.0003874
300.0002757
300.0001805
300.0001385
300.0001898
300.0003214
300.0004554
300.00057
300.0006423
300.0006543
300.0006026
300.0005345
300.0004489
300.0003449
300.0002564
300.0002227
300.0002693
300.0003681
300.000483
300.000581
300.0006438
300.000667
300.0006385
300.0005946
300.0005141
300.0004153
300.0003283
300.0002904
300.0003169
300.0003879
300.0004908
300.000584
300.0006258
300.000376
300.0003959
300.0003315
300.0002325
300.0001242
300.0000247
299.9999596
299.999982
300.0001032
300.0003065
300.000446
300.0004755
300.000483
300.0004957
300.0004328
300.0003147
300.0001886
300.000078
300.000029
300.0000759
300.0002223
300.0004159
300.0005165
300.0005236
300.0005557
300.000558
300.0005031
300.0003812
300.0002552
300.000151
300.000111
300.0001721
300.0003096
300.0004672
300.00055
300.0005604
300.0005738
300.000574
300.0005322
300.0004388
300.0003247
300.0002296
300.0001904
300.0002306
300.0003359
300.0004674
300.0005389
300.0005541
300.0005422
300.0005683
300.0005399
300.0004514
300.0003462
300.0002563
300.0002091
300.0002253
300.0003009
300.000405
300.0004802
300.0004932
299.9999421
300.0000035
300.0002068
300.0001691
300.0000578
299.999939
299.9998712
299.999918
300.0000771
300.0002117
300.0000835
300.0000378
299.9999991
300.0000626
300.000252
300.0002197
300.0001165
299.9999994
299.9999523
300.0000138
300.0001531
300.0002463
300.0000878
300.000031
300.0000059
300.0000362
300.0001669
300.0002149
300.0001423
300.000024
299.9999825
300.0000507
300.0001291
300.0001309
300.0000353
300.0000134
299.9999477
299.9999723
300.000069
300.0000842
300.000021
299.9999363
299.9998943
299.9999155
299.9999604
299.9999712
299.9999344
299.9999394
299.9999286
299.99998
300.0000603
300.0000585
300.0000124
299.9999649
299.9999301
299.9999114
299.9999318
299.99994
299.9999125
299.9999057
300.0005538
300.0006231
300.0006902
300.0007527
300.0006525
300.0007299
300.000777
300.0008082
300.0006807
300.0007509
300.0007799
300.0007919
300.0006472
300.0006985
300.0006994
300.000681
300.0005256
300.0005442
300.0005267
300.0005178
300.0002393
300.0002464
300.000243
300.0002411
300.0005565
300.0006242
300.0006765
300.0007316
300.0006459
300.0007195
300.0007642
300.0007893
300.0006766
300.0007413
300.0007777
300.0007851
300.0006489
300.0007028
300.0007102
300.0006941
300.0005312
300.0005584
300.0005486
300.0005372
300.0002368
300.000251
300.000254
300.0002508
300.000553
300.0006123
300.0006616
300.0007089
300.0006259
300.0006952
300.0007452
300.0007694
300.0006608
300.0007334
300.0007687
300.0007726
300.0006467
300.0007068
300.0007253
300.0007183
300.0005461
300.000582
300.0005835
300.0005744
300.0002452
300.0002649
300.0002657
300.0002642
300.0005371
300.0005912
300.0006422
300.0006831
300.0006067
300.0006719
300.0007198
300.0007497
300.0006511
300.0007175
300.0007531
300.0007628
300.0006404
300.0007015
300.0007253
300.0007168
300.0005513
300.0005912
300.0005977
300.0005717
300.0002464
300.0002631
300.0002674
300.0002475
300.0005138
300.0005656
300.0006112
300.000651
300.0005719
300.0006437
300.000687
300.0007232
300.0006254
300.0006998
300.000736
300.0007486
300.0006275
300.0006946
300.0007232
300.0007248
300.00057
300.0006226
300.0006372
300.0006326
300.0002733
300.0003177
300.0003363
300.0003628
300.0004506
300.0005094
300.0005545
300.0005945
300.0005176
300.0005892
300.0006368
300.000667
300.000581
300.0006506
300.0006898
300.0007023
300.0005849
300.0006504
300.0006837
300.0006807
300.0004957
300.0005428
300.0005632
300.0005054
300.0000428
300.0000325
300.0000498
299.999955
300.0007572
300.0007092
300.0006466
300.0005652
300.0004885
300.0004352
300.0004194
300.0004621
300.0005671
300.000705
300.0008241
300.0009032
300.0008107
300.0007751
300.0007134
300.0006207
300.0005168
300.0004321
300.0003821
300.0003898
300.0004825
300.0006176
300.0007307
300.0008164
300.0008022
300.0007862
300.0007453
300.0006646
300.0005482
300.0004382
300.0003676
300.0003585
300.0004307
300.0005503
300.000657
300.0007394
300.0007075
300.000741
300.0007356
300.0006822
300.0005867
300.0004764
300.000399
300.0003894
300.0004427
300.0005354
300.000624
300.0006943
300.0005527
300.0006161
300.0006567
300.0006402
300.0005802
300.0005043
300.0004548
300.0004394
300.0004591
300.0005108
300.0005592
300.000596
300.0002579
300.0002971
300.0003367
300.0003471
300.000335
300.000313
300.0002912
300.0002728
300.0002664
300.0002785
300.0002777
300.0002761
300.0007353
300.0006798
300.0006172
300.0005415
300.0004691
300.0004216
300.0004083
300.0004472
300.0005484
300.0006807
300.0007941
300.0008714
300.0007896
300.0007477
300.0006808
300.0005955
300.0005005
300.000424
300.0003789
300.0003917
300.0004803
300.0006079
300.0007164
300.0007859
300.0007868
300.0007697
300.0007257
300.0006494
300.0005386
300.0004336
300.0003698
300.0003628
300.0004304
300.000539
300.000641
300.000709
300.000716
300.0007409
300.0007283
300.000677
300.0005842
300.0004747
300.0003979
300.0003854
300.000437
300.0005267
300.0006089
300.0006657
300.000569
300.0006302
300.0006604
300.0006435
300.00058
300.0005022
300.0004525
300.0004377
300.0004533
300.0004996
300.0005478
300.0005758
300.0002676
300.0003095
300.0003453
300.0003588
300.0003457
300.0003206
300.0002952
300.000277
300.000269
300.0002759
300.0002778
300.000272
300.0007106
300.0006472
300.0005815
300.0005152
300.0004485
300.0004001
300.0003863
300.000421
300.0005106
300.0006319
300.0007429
300.0008317
300.0007639
300.0007152
300.0006513
300.0005694
300.0004788
300.0004078
300.0003705
300.0003886
300.0004724
300.0005877
300.0006962
300.000771
300.0007742
300.0007543
300.0007033
300.0006237
300.0005211
300.000425
300.0003675
300.0003673
300.0004313
300.0005352
300.0006325
300.0006957
300.0007303
300.00074
300.0007168
300.0006633
300.000572
300.0004679
300.0003917
300.0003821
300.0004329
300.0005203
300.0006026
300.0006591
300.0005985
300.0006444
300.0006681
300.0006475
300.0005809
300.0005001
300.0004487
300.0004342
300.0004506
300.0004991
300.0005487
300.0005786
300.0002834
300.0003246
300.0003623
300.0003721
300.0003556
300.0003273
300.0003012
300.0002853
300.0002773
300.0002852
300.0002861
300.0002811
300.0006739
300.0006161
300.0005498
300.0004835
300.0004192
300.0003699
300.0003546
300.0003858
300.0004658
300.0005751
300.0006886
300.0007742
300.0007382
300.0006872
300.0006203
300.0005405
300.0004544
300.0003859
300.0003568
300.0003793
300.0004568
300.0005641
300.0006715
300.0007461
300.0007577
300.0007318
300.0006781
300.0005977
300.000499
300.0004094
300.00036
300.0003667
300.0004326
300.0005334
300.0006258
300.0006853
300.0007212
300.0007252
300.000699
300.0006456
300.0005586
300.0004545
300.0003814
300.0003749
300.0004271
300.0005155
300.000592
300.0006382
300.0005916
300.0006415
300.0006503
300.0006224
300.0005558
300.0004778
300.0004267
300.0004119
300.0004297
300.0004766
300.0005259
300.0005475
300.0002677
300.000325
300.0003511
300.0003558
300.0003351
300.0003028
300.0002771
300.0002636
300.0002609
300.0002672
300.0002742
300.000256
300.0006386
300.0005857
300.0005201
300.000454
300.0003878
300.0003369
300.0003227
300.0003532
300.0004249
300.0005275
300.0006381
300.0007294
300.0007109
300.0006546
300.0005876
300.0005092
300.0004253
300.000359
300.0003351
300.0003628
300.0004341
300.0005384
300.0006414
300.0007223
300.00074
300.0007064
300.0006496
300.0005665
300.0004678
300.0003843
300.0003446
300.0003586
300.0004244
300.0005259
300.0006188
300.000684
300.0007232
300.0007132
300.0006826
300.0006236
300.0005291
300.0004286
300.0003643
300.0003633
300.0004173
300.000506
300.0005852
300.0006409
300.0006439
300.0006643
300.0006583
300.0006188
300.0005461
300.0004664
300.0004146
300.0003986
300.0004212
300.0004798
300.0005402
300.0005828
300.000377
300.0003869
300.0003937
300.0003726
300.0003417
300.000304
300.0002773
300.0002643
300.0002668
300.000294
300.000325
300.0003612
300.000582
300.000518
300.0004564
300.0003907
300.0003244
300.0002751
300.0002599
300.000285
300.0003414
300.000428
300.000527
300.0006225
300.0006496
300.0005867
300.0005232
300.0004487
300.0003711
300.000316
300.0003003
300.0003299
300.00039
300.0004827
300.0005761
300.00066
300.0006875
300.0006461
300.0005912
300.0005074
300.0004151
300.000346
300.0003166
300.0003352
300.0003981
300.0004896
300.0005783
300.0006502
300.0006749
300.0006599
300.0006268
300.0005653
300.0004801
300.0003952
300.0003421
300.0003404
300.0003869
300.0004646
300.0005444
300.000598
300.0005191
300.0005758
300.0005639
300.0005264
300.0004586
300.0003862
300.0003382
300.0003207
300.0003297
300.0003752
300.0004433
300.0004473
300.0000205
300.0001421
300.0001357
300.0001751
300.0001795
300.0001602
300.0001405
300.0001243
300.0000841
300.0000386
300.0000521
299.9999689
300.0009387
300.0009009
300.0007958
300.0006384
300.00088
300.0008777
300.0008157
300.0007064
300.0007781
300.0007966
300.0007749
300.0006992
300.0007202
300.0007236
300.0006992
300.0006491
300.0006171
300.0006232
300.0006055
300.0005628
300.0002827
300.0003004
300.0002996
300.0002783
300.0008958
300.0008565
300.0007578
300.0006175
300.0008449
300.0008442
300.0007883
300.0007005
300.0007514
300.0007783
300.0007656
300.0007031
300.0006974
300.0007101
300.0006966
300.0006587
300.0005938
300.0006044
300.0005938
300.0005651
300.0002733
300.0002875
300.000288
300.0002758
300.0008528
300.0008029
300.0007129
300.0005906
300.0008117
300.0008046
300.0007648
300.0006827
300.0007391
300.0007712
300.0007581
300.0007037
300.0006898
300.0007079
300.0007034
300.000675
300.0005952
300.0006079
300.0006026
300.0005787
300.0002819
300.0002925
300.0002959
300.000283
300.0007938
300.0007481
300.0006612
300.0005548
300.0007793
300.0007736
300.0007352
300.0006617
300.0007234
300.0007539
300.0007415
300.0006996
300.0006658
300.0006956
300.0007023
300.0006792
300.0005647
300.0005924
300.0005981
300.0005847
300.000259
300.0002852
300.0002826
300.0002775
300.0007471
300.0006954
300.0006115
300.000508
300.0007511
300.0007403
300.0007008
300.0006221
300.0007183
300.0007382
300.000727
300.0006836
300.0006703
300.0007
300.0007035
300.0006759
300.0006005
300.0006181
300.0006259
300.0006054
300.0003636
300.0003445
300.000331
300.0003021
300.0006487
300.0005839
300.000502
300.0004058
300.0007048
300.0006738
300.0006232
300.000546
300.0006937
300.0006996
300.0006847
300.0006371
300.0006428
300.0006798
300.000676
300.0006463
300.0004773
300.0005529
300.0005571
300.0005503
299.9999818
300.0000715
300.0000503
300.0000902
300.0003939
300.000299
300.0003656
300.0004094
300.0004071
300.0004071
300.0004063
300.000395
300.0003591
300.0002732
300.0002008
300.000327
300.0002197
300.0000339
300.0000576
300.0000719
300.0000599
300.0000471
300.0000363
300.0000127
299.9999628
299.9999175
299.9999207
300.0001744
300.0001713
299.9999244
299.9999301
299.9999468
299.9999358
299.9999158
299.9999086
299.9998802
299.9998322
299.9997974
299.999882
300.000208
300.0001295
299.9998248
299.9998314
299.999816
299.9997763
299.9997818
299.9998039
299.9997915
299.9997728
299.9998081
299.9999069
300.0002811
300.000103
299.9997754
299.999763
299.999732
299.9997014
299.9997078
299.9997262
299.9997394
299.9997815
299.9998472
299.9999491
300.0003137
300.0001166
299.9997835
299.9997822
299.9997754
299.9997455
299.9997167
299.9997052
299.9997307
299.9998225
299.9999067
299.9999849
300.0003244
300.0001665
299.9998489
299.9998818
299.9999087
299.9998596
299.9997647
299.9997102
299.9997509
299.9998975
299.9999737
300.000008
300.0003273
300.0002325
299.9999433
299.9999939
300.0000262
299.99995
299.9998193
299.999756
299.999827
299.9999828
300.000026
300.0000131
300.000314
300.000248
299.9999705
300.0000169
300.0000458
299.9999826
299.9998606
299.9998119
299.9998845
300.0000035
300.0000257
299.9999943
300.0002758
300.0002021
299.9999584
299.9999738
300.0000146
299.999973
299.9998763
299.9998298
299.9998665
299.9999142
299.9999284
299.9999549
300.0002091
300.0001601
299.9999747
299.9999913
300.0000034
299.9999697
299.9999119
299.9998691
299.999858
299.999881
299.9999006
299.9999399
300.0001501
300.0002999
300.0001853
300.0002525
300.0003064
300.0002955
300.0002626
300.0002289
300.0001954
300.0001821
300.0001446
300.000127
300.0002802
300.0003476
300.0004104
300.0004572
300.0004884
300.0004794
300.0004696
300.0004686
300.0004634
300.0004378
300.0003756
300.0003375
300.0003076
300.0003641
300.000076
300.0000541
300.0000608
300.0000601
300.0000491
300.0000383
300.0000139
299.999962
299.9999231
299.999972
300.0003254
300.000328
299.9999279
299.9998249
299.9998249
299.9998245
299.9998084
299.9997986
299.9997657
299.99971
299.9997002
299.9998881
300.0003343
300.000269
299.9998245
299.9997031
299.9996959
299.9996636
299.9996663
299.999682
299.9996648
299.9996494
299.999686
299.9999047
300.0003711
300.0002215
299.9997762
299.9996381
299.9996092
299.999573
299.999578
299.9995974
299.9996101
299.9996554
299.9997262
299.9999488
300.0003936
300.0002189
299.9997816
299.9996536
299.9996433
299.9996124
299.9995866
299.999578
299.9996036
299.9997007
299.9997911
299.9999849
300.0003992
300.0002666
299.9998473
299.9997569
299.9997788
299.9997341
299.9996383
299.999585
299.9996338
299.9997822
299.9998568
300.0000016
300.0004001
300.0003298
299.9999247
299.9998582
299.9998871
299.9998265
299.9996962
299.9996336
299.9997138
299.9998555
299.9998964
299.9999924
300.0003904
300.0003484
299.9999419
299.9998747
299.9999027
299.9998556
299.9997391
299.999688
299.9997596
299.9998596
299.9998779
299.9999628
300.0003693
300.0003255
299.9999442
299.9998518
299.9998761
299.999847
299.9997564
299.9997089
299.9997425
299.9997828
299.999806
299.999939
300.0003237
300.00031
300.0000072
299.9999755
299.9999815
299.9999658
299.9999144
299.999871
299.9998561
299.9998653
299.9998907
299.9999757
300.0002994
300.0002876
300.0003233
300.0003611
300.0003995
300.0003871
300.0003473
300.000314
300.0002955
300.0002944
300.0002832
300.000287
300.0002781
300.0001273
300.0003898
300.0004441
300.0004662
300.0004548
300.0004438
300.0004419
300.0004396
300.0004197
300.0003684
300.0003234
300.0001144
300.0003495
300.0001754
300.0001092
300.0000978
300.0000736
300.0000583
300.0000483
300.0000297
300.000001
299.9999859
300.0000869
300.0003145
300.0003276
299.9999898
299.9998277
299.9998004
299.9997797
299.9997571
299.9997448
299.9997161
299.9996841
299.999705
299.9999549
300.000331
300.0002647
299.9998657
299.9996764
299.999631
299.9995896
299.9995834
299.9995943
299.9995838
299.9995812
299.9996573
299.9999469
300.0003565
300.0002126
299.9997906
299.9995863
299.9995293
299.9994793
299.9994771
299.9994984
299.9995173
299.999573
299.9996746
299.9999648
300.0003732
300.0002064
299.9997914
299.9995917
299.9995523
299.9995089
299.9994785
299.9994718
299.9995046
299.9996146
299.9997341
299.9999917
300.0003774
300.0002522
299.9998569
299.9996963
299.9996883
299.9996361
299.9995332
299.9994801
299.9995414
299.9997
299.9997991
300.0000051
300.0003774
300.0003129
299.9999348
299.9997989
299.9998007
299.9997373
299.9996
299.999537
299.9996256
299.9997712
299.9998357
300.0000017
300.0003695
300.0003359
299.9999753
299.9998273
299.9998246
299.9997751
299.9996528
299.9995999
299.9996753
299.99978
299.9998283
299.9999958
300.0003553
300.0003212
299.9999951
299.9998386
299.9998313
299.9997946
299.9997003
299.9996513
299.9996861
299.9997403
299.9997944
299.9999892
300.0003187
300.0002996
300.0001008
300.0000272
300.0000193
299.9999823
299.9999268
299.9998818
299.9998697
299.9999017
299.9999429
300.0000745
300.0002912
300.0001093
300.0003129
300.0003559
300.0003848
300.0003684
300.0003295
300.0002962
300.0002814
300.0002851
300.000284
300.0002815
300.0001016
300.0001365
300.0003255
300.0003982
300.0004135
300.0003998
300.0003891
300.0003853
300.000384
300.0003717
300.0003327
300.0002728
300.00012
300.0002907
300.0002058
300.0001435
300.0001146
300.0000819
300.0000559
300.0000456
300.0000398
300.0000269
300.0000329
300.0001177
300.0002623
300.0002991
300.0000305
299.9998605
299.9998053
299.9997714
299.9997418
299.9997277
299.9997034
299.9996895
299.9997431
300.0000022
300.0003014
300.0002419
299.9998931
299.9996813
299.9996117
299.9995551
299.9995391
299.9995481
299.9995446
299.9995604
299.999662
299.9999707
300.000317
300.0001848
299.9998062
299.9995747
299.9994915
299.9994239
299.9994131
299.9994344
299.9994609
299.999536
299.9996637
299.9999748
300.0003252
300.0001766
299.99979
299.9995738
299.9995049
299.9994432
299.9994065
299.9993999
299.9994419
299.9995707
299.9997157
299.9999884
300.0003282
300.000219
299.9998558
299.9996771
299.9996404
299.9995692
299.9994612
299.9994094
299.9994804
299.999656
299.99978
300.0000019
300.0003278
300.0002726
299.999944
299.9997819
299.999757
299.9996789
299.9995357
299.999475
299.9995712
299.999731
299.9998195
300.0000076
300.0003228
300.0003
299.9999943
299.9998263
299.9997961
299.9997347
299.9996079
299.9995553
299.9996366
299.9997504
299.9998246
300.0000138
300.0003159
300.000292
300.0000325
299.9998657
299.9998324
299.9997803
299.9996812
299.9996335
299.9996734
299.9997414
299.9998208
300.0000283
300.0002903
300.0002515
300.0001285
300.0000658
300.0000389
299.9999922
299.9999254
299.9998807
299.9998847
299.9999245
299.999984
300.0001016
300.0002432
300.0001161
300.0002643
300.0003239
300.000343
300.0003225
300.0002872
300.0002555
300.0002448
300.0002539
300.0002608
300.0002348
300.0001064
300.000093
300.0002389
300.0003276
300.0003546
300.0003468
300.0003341
300.0003296
300.0003305
300.0003186
300.000277
300.0002032
300.0000785
300.00021
300.0002216
300.0001666
300.0001241
300.0000765
300.0000469
300.000036
300.0000342
300.0000383
300.0000587
300.0001474
300.0001913
300.0002418
300.0000581
299.9998919
299.999815
299.999771
299.9997339
299.9997173
299.9997
299.9996979
299.9997773
300.0000261
300.0002443
300.0002017
299.9999097
299.9996933
299.9996076
299.9995393
299.9995169
299.9995243
299.9995243
299.9995524
299.9996697
299.9999792
300.0002664
300.0001531
299.9998055
299.9995756
299.9994759
299.9993974
299.9993802
299.9994001
299.9994308
299.9995171
299.9996623
299.9999702
300.0002774
300.0001403
299.9997861
299.9995648
299.9994817
299.999409
299.9993682
299.9993617
299.9994105
299.9995493
299.999707
299.9999789
300.0002765
300.000177
299.9998519
299.9996673
299.9996141
299.9995328
299.9994233
299.9993737
299.9994495
299.9996323
299.9997694
299.9999927
300.0002767
300.0002295
299.999941
299.9997747
299.9997322
299.9996456
299.9995021
299.9994441
299.9995428
299.9997084
299.9998116
300.0000021
300.000275
300.0002541
300.000005
299.9998291
299.9997822
299.9997116
299.9995846
299.9995334
299.9996166
299.9997367
299.9998263
300.0000224
300.0002659
300.0002394
300.0000553
299.99989
299.9998364
299.9997766
299.9996747
299.9996254
299.9996704
299.9997454
299.9998448
300.0000498
300.0002369
300.0001869
300.0001558
300.0000858
300.0000464
299.9999884
299.999919
299.9998745
299.9998824
299.999936
300.0000097
300.0001292
300.0001761
300.0000774
300.0001947
300.000264
300.0002901
300.0002745
300.0002396
300.0002109
300.000204
300.0002116
300.0002113
300.0001691
300.0000671
300.000067
300.000185
300.0002623
300.0002981
300.0002993
300.0002852
300.000281
300.0002821
300.0002654
300.0002185
300.0001533
300.0000571
300.0001607
300.0002322
300.0001889
300.000136
300.0000775
300.000046
300.0000343
300.0000338
300.0000486
300.0000859
300.0001613
300.0001432
300.0001857
300.0000864
299.9999252
299.9998342
299.9997731
299.999731
299.9997131
299.9997005
299.9997134
299.9998086
300.0000539
300.00019
300.0001602
299.9999268
299.9997146
299.9996085
299.9995312
299.9995035
299.9995101
299.9995134
299.9995524
299.9996859
299.9999905
300.0002191
300.0001206
299.999809
299.9995794
299.9994666
299.9993829
299.9993619
299.9993813
299.9994157
299.9995075
299.999664
299.9999709
300.0002339
300.0001076
299.9997883
299.9995642
299.9994667
299.99939
299.9993491
299.9993435
299.9993952
299.9995367
299.9997039
299.9999785
300.0002323
300.000142
299.9998542
299.9996657
299.9995974
299.9995127
299.9994049
299.9993576
299.9994342
299.9996172
299.9997645
299.9999928
300.0002326
300.0001919
299.9999431
299.9997746
299.9997165
299.9996261
299.9994846
299.9994289
299.9995279
299.9996949
299.9998109
300.0000029
300.000232
300.0002074
300.0000158
299.9998365
299.9997746
299.9996986
299.9995719
299.9995209
299.9996054
299.9997286
299.9998333
300.000031
300.0002181
300.0001862
300.0000777
299.9999139
299.9998467
299.9997778
299.999675
299.9996251
299.9996716
299.999756
299.9998683
300.0000705
300.0001833
300.0001406
300.0001661
300.0001076
300.0000561
299.9999897
299.9999192
299.9998747
299.9998839
299.9999467
300.0000327
300.0001375
300.0001298
300.0000553
300.0001462
300.0002075
300.0002384
300.0002304
300.0001962
300.0001706
300.000166
300.000169
300.0001596
300.0001237
300.0000464
300.00005
300.0001438
300.0002128
300.0002533
300.0002572
300.0002483
300.0002442
300.0002404
300.0002224
300.0001735
300.0001194
300.000042
300.0001222
300.0002345
300.0001971
300.000145
300.0000832
300.0000475
300.0000353
300.0000379
300.0000599
300.000103
300.0001716
300.0001093
300.0001405
300.0001021
299.9999539
299.9998452
299.9997748
299.9997306
299.9997123
299.9997021
299.9997283
299.999843
300.0000732
300.000149
300.0001256
299.9999419
299.99973
299.9996113
299.9995256
299.9994955
299.9995022
299.9995084
299.9995547
299.9997016
300.000004
300.0001817
300.0000919
299.9998196
299.9995837
299.9994606
299.999374
299.9993524
299.9993713
299.9994076
299.9995019
299.9996669
299.9999766
300.0001959
300.0000833
299.9997937
299.9995652
299.9994578
299.99938
299.9993384
299.9993326
299.9993863
299.9995287
299.9997036
299.9999798
300.0001981
300.0001144
299.9998597
299.9996664
299.9995883
299.9995022
299.9993943
299.9993481
299.9994254
299.9996068
299.999764
299.9999947
300.0001982
300.0001561
299.9999518
299.9997756
299.9997082
299.9996156
299.999475
299.9994195
299.9995192
299.9996863
299.9998115
300.0000089
300.000195
300.0001682
300.0000263
299.999846
299.999773
299.999692
299.9995648
299.9995138
299.9995988
299.9997246
299.9998394
300.0000396
300.0001809
300.0001443
300.0000912
299.9999373
299.9998574
299.9997808
299.999677
299.999626
299.9996737
299.9997654
299.9998894
300.0000811
300.0001421
300.0001078
300.0001728
300.00012
300.0000679
299.9999973
299.9999216
299.9998766
299.9998912
299.9999583
300.0000469
300.0001439
300.0000973
300.0000395
300.0001121
300.0001641
300.0001971
300.0001913
300.0001626
300.0001393
300.0001329
300.0001352
300.0001197
300.0000916
300.0000325
300.0000357
300.0001129
300.0001714
300.0002133
300.0002227
300.0002151
300.0002111
300.0002076
300.0001872
300.0001395
300.0000943
300.0000295
300.0000925
300.0002315
300.0002007
300.0001505
300.0000875
300.0000484
300.0000355
300.0000413
300.0000687
300.0001136
300.0001714
300.000084
300.0001049
300.0001109
299.9999808
299.9998578
299.999778
299.9997305
299.9997125
299.999708
299.9997451
299.9998766
300.0000845
300.0001164
300.0000942
299.9999541
299.999746
299.9996143
299.9995246
299.99949
299.9994963
299.9995083
299.9995597
299.9997188
300.0000142
300.000149
300.0000686
299.9998283
299.9995909
299.9994601
299.999372
299.9993464
299.9993642
299.9994041
299.9995017
299.9996738
299.9999807
300.0001657
300.0000609
299.9998003
299.9995681
299.9994549
299.9993756
299.9993291
299.9993236
299.9993806
299.9995241
299.9997041
299.9999831
300.0001685
300.0000893
299.9998644
299.9996692
299.9995835
299.9994952
299.9993852
299.999341
299.999421
299.999601
299.9997646
299.9999983
300.000169
300.0001278
299.9999567
299.9997808
299.9997041
299.9996083
299.999468
299.9994143
299.9995153
299.9996818
299.9998149
300.0000139
300.0001663
300.0001345
300.0000325
299.9998565
299.9997733
299.9996883
299.9995605
299.9995098
299.9995956
299.9997221
299.9998466
300.0000472
300.0001498
300.0001121
300.0000982
299.9999604
299.9998684
299.9997881
299.9996816
299.9996296
299.9996801
299.9997765
299.9999111
300.0000886
300.0001105
300.000084
300.0001723
300.0001264
300.0000762
300.0000038
299.9999268
299.9998811
299.9998971