/*--------------------------------*- C++ -*----------------------------------*\
  =========                 |
  \\      /  F ield         | OpenFOAM: The Open Source CFD Toolbox
   \\    /   O peration     | Website:  https://openfoam.org
    \\  /    A nd           | Version:  7
     \\/     M anipulation  |
\*---------------------------------------------------------------------------*/
FoamFile
{
    version     2.0;
    format      ascii;
    class       volScalarField;
    location    "0.0025";
    object      T;
}
// * * * * * * * * * * * * * * * * * * * * * * * * * * * * * * * * * * * * * //

dimensions      [0 0 0 1 0 0 0];

internalField   nonuniform List<scalar> 
5000
(
285.26389
285.26389
285.26389
285.26389
285.26389
285.26389
285.26389
285.26389
285.26389
285.26389
285.26389
285.26389
285.26389
285.26389
285.26389
285.26389
285.26389
285.26389
285.26389
285.26389
285.26389
285.26389
285.26389
285.26389
285.26389
285.26389
285.26389
285.26389
285.26389
285.26389
285.26389
285.26389
285.26389
285.26389
285.26389
285.26389
285.26389
285.26389
285.26389
285.26389
285.26389
285.26389
285.26389
285.26389
285.26389
285.26389
285.26389
285.26389
285.26389
285.26389
285.26389
285.26389
285.26389
285.26389
285.26389
285.26389
285.26389
285.26389
285.26389
285.26388
285.26388
285.26388
285.26388
285.26388
285.26388
285.26388
285.26388
285.26388
285.26388
285.26388
285.26388
285.26389
285.26389
285.26389
285.26389
285.26389
285.2639
285.2639
285.2639
285.2639
285.26391
285.26392
285.26393
285.26395
285.264
285.26409
285.26427
285.26458
285.26511
285.2659
285.26705
285.26863
285.27073
285.27345
285.27693
285.28132
285.28682
285.29361
285.3019
285.31183
285.32352
285.33698
285.35212
285.36875
285.3866
285.40531
285.42445
285.44361
285.46236
285.48032
285.49719
285.51272
285.52676
285.53922
285.55009
285.55944
285.56735
285.57395
285.57938
285.5838
285.58735
285.59017
285.59239
285.59413
285.59547
285.5965
285.59728
285.59787
285.59832
285.59866
285.59891
285.59909
285.59923
285.59933
285.59941
285.59946
285.5995
285.59953
285.59955
285.59957
285.59958
285.59959
285.5996
285.5996
285.59961
285.59961
285.59961
285.59961
285.59962
285.59962
285.59962
285.59962
285.59962
285.59962
285.59963
285.59963
285.59963
285.59963
285.59963
285.59963
285.59964
285.59964
285.59964
285.59964
285.59964
285.59964
285.59964
285.59965
285.59965
285.59965
285.59965
285.59965
285.59965
285.59966
285.59966
285.59966
285.59966
285.59966
285.59966
285.59966
285.59967
285.59967
285.59967
285.59967
285.59967
285.59967
285.59967
285.59968
285.59968
285.59968
285.59968
285.59968
285.59968
285.59968
285.59969
285.59969
285.59969
285.59969
285.59969
285.59969
285.59969
285.5997
285.5997
285.5997
285.5997
285.5997
285.5997
285.5997
285.5997
285.59971
285.59971
285.59971
285.59971
285.59971
285.59971
285.59971
285.59971
285.59972
285.59972
285.59972
285.59972
285.59972
285.59972
285.59972
285.59973
285.59973
285.59973
285.59973
285.59973
285.59973
285.59973
285.59973
285.59974
285.59974
285.59974
285.59974
285.59974
285.59974
285.59974
285.59974
285.59974
285.59975
285.59975
285.59975
285.59975
285.59975
285.59975
285.59975
285.59975
285.59976
285.59976
285.59976
285.59976
285.59976
285.59976
285.59976
285.59976
285.59976
285.59977
285.59977
285.59977
285.59977
285.59977
285.59977
285.59977
285.59977
285.59977
285.59977
285.59978
285.59978
285.59978
285.59978
285.59978
285.59978
285.59978
285.59978
285.59978
285.59978
285.59979
285.59979
285.59979
285.59979
285.59979
285.59979
285.59979
285.59979
285.59979
285.59979
285.59979
285.59979
285.59979
285.5998
285.5998
285.5998
285.5998
285.5998
285.5998
285.5998
285.5998
285.5998
285.5998
285.5998
285.59981
285.59981
285.59981
285.59981
285.59981
285.59981
285.59981
285.59981
285.59981
285.59981
285.59981
285.59981
285.59981
285.59981
285.59981
285.59981
285.59981
285.59982
285.59982
285.59982
285.59982
285.59982
285.59982
285.59982
285.59982
285.59982
285.59982
285.59982
285.59982
285.59982
285.59982
285.59982
285.59982
285.59982
285.59982
285.59982
285.59983
285.59983
285.59983
285.59983
285.59983
285.59983
285.59983
285.59983
285.59983
285.59983
285.59983
285.59983
285.59983
285.59983
285.59983
285.59983
285.59983
285.59983
285.59983
285.59983
285.59983
285.59983
285.59983
285.59983
285.59983
285.59983
285.59983
285.59983
285.59983
285.59983
285.59983
285.59983
285.59983
285.59983
285.59983
285.59983
285.59983
285.59983
285.59983
285.59983
285.59984
285.59984
285.59984
285.59984
285.59984
285.59984
285.59984
285.59984
285.59984
285.59984
285.59984
285.59984
285.59984
285.59984
285.59984
285.59984
285.59984
285.59984
285.59984
285.59984
285.59984
285.59984
285.59984
285.59984
285.59984
285.59984
285.59984
285.59984
285.59984
285.59984
285.59984
285.59984
285.59984
285.59984
285.59984
285.59984
285.59984
285.59984
285.59984
285.59984
285.59984
285.59984
285.59984
285.59984
285.59984
285.59984
285.59984
285.59984
285.59984
285.59984
285.59984
285.59984
285.59985
285.59985
285.59985
285.59985
285.59985
285.59985
285.59985
285.59985
285.59985
285.59985
285.59985
285.59985
285.59985
285.59985
285.59985
285.59985
285.59985
285.59985
285.59985
285.59985
285.59985
285.59985
285.59985
285.59985
285.59986
285.59986
285.59986
285.59986
285.59986
285.59986
285.59986
285.59986
285.59986
285.59986
285.59986
285.59986
285.59986
285.59986
285.59986
285.59986
285.59986
285.59987
285.59987
285.59987
285.59987
285.59987
285.59987
285.59987
285.59987
285.59987
285.59987
285.59987
285.59987
285.59987
285.59988
285.59988
285.59988
285.59988
285.59988
285.59988
285.59988
285.59988
285.59988
285.59988
285.59988
285.59988
285.59988
285.59988
285.59988
285.59988
285.59989
285.59989
285.59989
285.59989
285.59989
285.59989
285.59989
285.59989
285.5999
285.5999
285.5999
285.5999
285.5999
285.5999
285.5999
285.5999
285.5999
285.5999
285.5999
285.5999
285.5999
285.5999
285.5999
285.5999
285.59991
285.59991
285.59991
285.59991
285.59991
285.59991
285.59991
285.59991
285.59992
285.59992
285.59992
285.59992
285.59992
285.59992
285.59992
285.59992
285.59992
285.59993
285.59993
285.59993
285.59993
285.59993
285.59993
285.59993
285.59993
285.59993
285.59993
285.59993
285.59993
285.59994
285.59994
285.59994
285.59994
285.59994
285.59994
285.59994
285.59994
285.59994
285.59994
285.59995
285.59995
285.59995
285.59995
285.59995
285.59995
285.59995
285.59995
285.59995
285.59996
285.59996
285.59996
285.59996
285.59996
285.59996
285.59996
285.59996
285.59996
285.59996
285.59997
285.59997
285.59997
285.59997
285.59997
285.59997
285.59997
285.59997
285.59997
285.59997
285.59998
285.59998
285.59998
285.59998
285.59998
285.59998
285.59998
285.59998
285.59998
285.59998
285.59999
285.59999
285.59999
285.59999
285.59999
285.59999
285.59999
285.59999
285.59999
285.6
285.6
285.6
285.6
285.6
285.6
285.6
285.6
285.6
285.60001
285.60001
285.60001
285.60001
285.60001
285.60001
285.60001
285.60001
285.60001
285.60001
285.60002
285.60002
285.60002
285.60002
285.60002
285.60002
285.60002
285.60002
285.60002
285.60003
285.60003
285.60003
285.60003
285.60003
285.60003
285.60003
285.60003
285.60003
285.60003
285.60004
285.60004
285.60004
285.60004
285.60004
285.60004
285.60004
285.60004
285.60004
285.60005
285.60005
285.60005
285.60005
285.60005
285.60005
285.60005
285.60005
285.60005
285.60006
285.60006
285.60006
285.60006
285.60006
285.60006
285.60006
285.60006
285.60006
285.60007
285.60007
285.60007
285.60007
285.60007
285.60007
285.60007
285.60007
285.60007
285.60008
285.60008
285.60008
285.60008
285.60008
285.60008
285.60008
285.60008
285.60008
285.60009
285.60009
285.60009
285.60009
285.60009
285.60009
285.60009
285.60009
285.60009
285.6001
285.6001
285.6001
285.6001
285.6001
285.6001
285.6001
285.6001
285.6001
285.60011
285.60011
285.60011
285.60011
285.60011
285.60011
285.60011
285.60011
285.60011
285.60012
285.60012
285.60012
285.60012
285.60012
285.60012
285.60012
285.60012
285.60012
285.60013
285.60013
285.60013
285.60013
285.60013
285.60013
285.60013
285.60013
285.60013
285.60014
285.60014
285.60014
285.60014
285.60014
285.60014
285.60014
285.60014
285.60015
285.60015
285.60015
285.60015
285.60015
285.60015
285.60015
285.60015
285.60015
285.60016
285.60016
285.60016
285.60016
285.60016
285.60016
285.60016
285.60016
285.60016
285.60017
285.60017
285.60017
285.60017
285.60017
285.60017
285.60017
285.60017
285.60018
285.60018
285.60018
285.60018
285.60018
285.60018
285.60018
285.60018
285.60018
285.60019
285.60019
285.60019
285.60019
285.60019
285.60019
285.60019
285.60019
285.6002
285.6002
285.6002
285.6002
285.6002
285.6002
285.6002
285.6002
285.6002
285.60021
285.60021
285.60021
285.60021
285.60021
285.60021
285.60021
285.60021
285.60022
285.60022
285.60022
285.60022
285.60022
285.60022
285.60022
285.60022
285.60022
285.60023
285.60023
285.60023
285.60023
285.60023
285.60023
285.60023
285.60023
285.60024
285.60024
285.60024
285.60024
285.60024
285.60024
285.60024
285.60024
285.60025
285.60025
285.60025
285.60025
285.60025
285.60025
285.60025
285.60025
285.60025
285.60026
285.60026
285.60026
285.60026
285.60026
285.60026
285.60026
285.60026
285.60027
285.60027
285.60027
285.60027
285.60027
285.60027
285.60027
285.60027
285.60028
285.60028
285.60028
285.60028
285.60028
285.60028
285.60028
285.60028
285.60029
285.60029
285.60029
285.60029
285.60029
285.60029
285.60029
285.60029
285.6003
285.6003
285.6003
285.6003
285.6003
285.6003
285.6003
285.6003
285.60031
285.60031
285.60031
285.60031
285.60031
285.60031
285.60031
285.60031
285.60032
285.60032
285.60032
285.60032
285.60032
285.60032
285.60032
285.60032
285.60033
285.60033
285.60033
285.60033
285.60033
285.60033
285.60033
285.60034
285.60034
285.60034
285.60034
285.60034
285.60034
285.60034
285.60034
285.60035
285.60035
285.60035
285.60035
285.60035
285.60035
285.60035
285.60035
285.60036
285.60036
285.60036
285.60036
285.60036
285.60036
285.60036
285.60036
285.60037
285.60037
285.60037
285.60037
285.60037
285.60037
285.60037
285.60038
285.60038
285.60038
285.60038
285.60038
285.60038
285.60038
285.60038
285.60039
285.60039
285.60039
285.60039
285.60039
285.60039
285.60039
285.6004
285.6004
285.6004
285.6004
285.6004
285.6004
285.6004
285.60041
285.60041
285.60041
285.60041
285.60041
285.60041
285.60041
285.60041
285.60041
285.60042
285.60042
285.60042
285.60042
285.60042
285.60042
285.60042
285.60043
285.60043
285.60043
285.60043
285.60043
285.60043
285.60043
285.60044
285.60044
285.60044
285.60044
285.60044
285.60044
285.60044
285.60044
285.60045
285.60045
285.60045
285.60045
285.60045
285.60045
285.60045
285.60046
285.60046
285.60046
285.60046
285.60046
285.60046
285.60046
285.60047
285.60047
285.60047
285.60047
285.60047
285.60047
285.60047
285.60047
285.60048
285.60048
285.60048
285.60048
285.60048
285.60048
285.60048
285.60049
285.60049
285.60049
285.60049
285.60049
285.60049
285.60049
285.6005
285.6005
285.6005
285.6005
285.6005
285.6005
285.6005
285.60051
285.60051
285.60051
285.60051
285.60051
285.60051
285.60051
285.60052
285.60052
285.60052
285.60052
285.60052
285.60052
285.60052
285.60052
285.60053
285.60053
285.60053
285.60053
285.60053
285.60053
285.60053
285.60054
285.60054
285.60054
285.60054
285.60054
285.60054
285.60055
285.60055
285.60055
285.60055
285.60055
285.60055
285.60055
285.60055
285.60056
285.60056
285.60056
285.60056
285.60056
285.60056
285.60056
285.60057
285.60057
285.60057
285.60057
285.60057
285.60057
285.60057
285.60058
285.60058
285.60058
285.60058
285.60058
285.60058
285.60058
285.60059
285.60059
285.60059
285.60059
285.60059
285.60059
285.60059
285.6006
285.6006
285.6006
285.6006
285.6006
285.6006
285.6006
285.60061
285.60061
285.60061
285.60061
285.60061
285.60061
285.60061
285.60062
285.60062
285.60062
285.60062
285.60062
285.60062
285.60062
285.60063
285.60063
285.60063
285.60063
285.60063
285.60063
285.60063
285.60064
285.60064
285.60064
285.60064
285.60064
285.60064
285.60064
285.60065
285.60065
285.60065
285.60065
285.60065
285.60065
285.60065
285.60066
285.60066
285.60066
285.60066
285.60066
285.60066
285.60066
285.60067
285.60067
285.60067
285.60067
285.60067
285.60067
285.60068
285.60068
285.60068
285.60068
285.60068
285.60068
285.60068
285.60068
285.60069
285.60069
285.60069
285.60069
285.60069
285.60069
285.60069
285.6007
285.6007
285.6007
285.6007
285.6007
285.6007
285.6007
285.60071
285.60071
285.60071
285.60071
285.60071
285.60071
285.60071
285.60072
285.60072
285.60072
285.60072
285.60072
285.60072
285.60072
285.60073
285.60073
285.60073
285.60073
285.60073
285.60073
285.60073
285.60073
285.60074
285.60074
285.60074
285.60074
285.60074
285.60074
285.60074
285.60075
285.60075
285.60075
285.60075
285.60075
285.60075
285.60075
285.60075
285.60076
285.60076
285.60076
285.60076
285.60076
285.60076
285.60076
285.60076
285.60077
285.60077
285.60077
285.60077
285.60077
285.60077
285.60077
285.60077
285.60077
285.60078
285.60078
285.60078
285.60078
285.60078
285.60078
285.60078
285.60078
285.60078
285.60078
285.60079
285.60079
285.60079
285.60079
285.60079
285.60079
285.60079
285.60079
285.60079
285.60079
285.60079
285.6008
285.6008
285.6008
285.6008
285.6008
285.6008
285.6008
285.6008
285.6008
285.6008
285.6008
285.6008
285.6008
285.6008
285.6008
285.6008
285.6008
285.6008
285.6008
285.6008
285.6008
285.6008
285.6008
285.6008
285.6008
285.6008
285.6008
285.6008
285.6008
285.6008
285.6008
285.6008
285.6008
285.6008
285.60079
285.60079
285.60079
285.60079
285.60079
285.60079
285.60079
285.60079
285.60079
285.60078
285.60078
285.60078
285.60078
285.60078
285.60078
285.60077
285.60077
285.60077
285.60077
285.60077
285.60076
285.60076
285.60076
285.60076
285.60075
285.60075
285.60075
285.60074
285.60074
285.60074
285.60073
285.60073
285.60072
285.60072
285.60072
285.60071
285.60071
285.6007
285.6007
285.60069
285.60069
285.60068
285.60068
285.60067
285.60067
285.60066
285.60065
285.60065
285.60064
285.60063
285.60063
285.60062
285.60061
285.6006
285.6006
285.60059
285.60058
285.60057
285.60056
285.60055
285.60054
285.60053
285.60052
285.60051
285.6005
285.60049
285.60048
285.60047
285.60046
285.60045
285.60044
285.60042
285.60041
285.6004
285.60038
285.60037
285.60036
285.60034
285.60033
285.60031
285.6003
285.60028
285.60026
285.60025
285.60023
285.60021
285.60019
285.60018
285.60016
285.60014
285.60012
285.6001
285.60008
285.60005
285.60003
285.60001
285.59999
285.59996
285.59994
285.59992
285.59989
285.59987
285.59984
285.59981
285.59979
285.59976
285.59973
285.5997
285.59967
285.59964
285.59961
285.59958
285.59955
285.59952
285.59948
285.59945
285.59941
285.59938
285.59934
285.5993
285.59927
285.59923
285.59919
285.59915
285.59911
285.59906
285.59902
285.59898
285.59893
285.59889
285.59884
285.5988
285.59875
285.5987
285.59865
285.5986
285.59855
285.5985
285.59844
285.59839
285.59833
285.59828
285.59822
285.59816
285.5981
285.59804
285.59798
285.59791
285.59785
285.59778
285.59772
285.59765
285.59758
285.59751
285.59744
285.59737
285.5973
285.59722
285.59715
285.59707
285.59699
285.59691
285.59683
285.59675
285.59667
285.59658
285.59649
285.59641
285.59632
285.59623
285.59613
285.59604
285.59595
285.59585
285.59575
285.59565
285.59555
285.59545
285.59535
285.59524
285.59513
285.59502
285.59491
285.5948
285.59469
285.59457
285.59446
285.59434
285.59422
285.5941
285.59397
285.59385
285.59372
285.59359
285.59346
285.59333
285.59319
285.59306
285.59292
285.59278
285.59264
285.59249
285.59235
285.5922
285.59205
285.5919
285.59175
285.59159
285.59144
285.59128
285.59112
285.59095
285.59079
285.59062
285.59045
285.59028
285.59011
285.58993
285.58976
285.58958
285.5894
285.58921
285.58903
285.58884
285.58865
285.58846
285.58826
285.58806
285.58786
285.58766
285.58746
285.58725
285.58705
285.58683
285.58662
285.58641
285.58619
285.58597
285.58575
285.58552
285.5853
285.58507
285.58484
285.58461
285.58437
285.58413
285.58389
285.58365
285.5834
285.58316
285.58291
285.58266
285.5824
285.58214
285.58188
285.58162
285.58136
285.58109
285.58082
285.58055
285.58027
285.58
285.57972
285.57943
285.57915
285.57886
285.57857
285.57828
285.57799
285.57769
285.57739
285.57709
285.57679
285.57648
285.57617
285.57586
285.57555
285.57523
285.57491
285.57459
285.57427
285.57394
285.57361
285.57328
285.57295
285.57261
285.57227
285.57193
285.57159
285.57124
285.57089
285.57054
285.57019
285.56983
285.56947
285.56911
285.56875
285.56838
285.56801
285.56764
285.56727
285.56689
285.56652
285.56614
285.56575
285.56537
285.56498
285.56459
285.5642
285.5638
285.56341
285.56301
285.56261
285.5622
285.5618
285.56139
285.56098
285.56057
285.56015
285.55973
285.55931
285.55889
285.55847
285.55804
285.55761
285.55718
285.55675
285.55631
285.55588
285.55544
285.555
285.55455
285.55411
285.55366
285.55321
285.55276
285.55231
285.55185
285.55139
285.55094
285.55047
285.55001
285.54955
285.54908
285.54861
285.54814
285.54767
285.54719
285.54672
285.54624
285.54576
285.54528
285.54479
285.54431
285.54382
285.54333
285.54284
285.54235
285.54186
285.54137
285.54087
285.54037
285.53987
285.53937
285.53887
285.53837
285.53786
285.53736
285.53685
285.53634
285.53583
285.53532
285.5348
285.53429
285.53378
285.53326
285.53274
285.53222
285.5317
285.53118
285.53066
285.53014
285.52961
285.52909
285.52856
285.52803
285.5275
285.52697
285.52644
285.52591
285.52538
285.52485
285.52431
285.52378
285.52324
285.52271
285.52217
285.52164
285.5211
285.52056
285.52002
285.51948
285.51894
285.5184
285.51786
285.51732
285.51678
285.51623
285.51569
285.51515
285.5146
285.51406
285.51352
285.51297
285.51243
285.51188
285.51134
285.51079
285.51025
285.5097
285.50916
285.50861
285.50807
285.50752
285.50698
285.50643
285.50589
285.50535
285.5048
285.50426
285.50371
285.50317
285.50262
285.50208
285.50154
285.501
285.50045
285.49991
285.49937
285.49883
285.49829
285.49775
285.49721
285.49667
285.49613
285.49559
285.49505
285.49452
285.49398
285.49345
285.49291
285.49238
285.49184
285.49131
285.49078
285.49025
285.48972
285.48919
285.48866
285.48814
285.48761
285.48708
285.48656
285.48604
285.48551
285.48499
285.48447
285.48396
285.48344
285.48292
285.48241
285.48189
285.48138
285.48087
285.48036
285.47985
285.47934
285.47883
285.47833
285.47782
285.47732
285.47682
285.47632
285.47582
285.47533
285.47483
285.47434
285.47384
285.47335
285.47287
285.47238
285.47189
285.47141
285.47093
285.47044
285.46996
285.46949
285.46901
285.46854
285.46806
285.46759
285.46712
285.46666
285.46619
285.46573
285.46527
285.46481
285.46435
285.46389
285.46344
285.46298
285.46253
285.46208
285.46164
285.46119
285.46075
285.46031
285.45987
285.45943
285.459
285.45856
285.45813
285.4577
285.45728
285.45685
285.45643
285.45601
285.45559
285.45518
285.45476
285.45435
285.45394
285.45353
285.45312
285.45272
285.45232
285.45192
285.45152
285.45113
285.45073
285.45034
285.44996
285.44957
285.44918
285.4488
285.44842
285.44805
285.44767
285.4473
285.44693
285.44656
285.44619
285.44583
285.44547
285.44511
285.44475
285.4444
285.44404
285.44369
285.44335
285.443
285.44266
285.44232
285.44198
285.44164
285.44131
285.44097
285.44064
285.44032
285.43999
285.43967
285.43935
285.43903
285.43871
285.4384
285.43809
285.43778
285.43747
285.43717
285.43686
285.43656
285.43626
285.43597
285.43568
285.43538
285.4351
285.43481
285.43452
285.43424
285.43396
285.43369
285.43341
285.43314
285.43287
285.4326
285.43233
285.43207
285.4318
285.43154
285.43129
285.43103
285.43078
285.43052
285.43028
285.43003
285.42978
285.42954
285.4293
285.42906
285.42883
285.42859
285.42836
285.42813
285.4279
285.42768
285.42745
285.42723
285.42701
285.4268
285.42658
285.42637
285.42616
285.42595
285.42574
285.42553
285.42533
285.42513
285.42493
285.42473
285.42454
285.42434
285.42415
285.42396
285.42377
285.42359
285.4234
285.42322
285.42304
285.42287
285.42269
285.42251
285.42234
285.42217
285.422
285.42183
285.42167
285.4215
285.42134
285.42118
285.42102
285.42086
285.42071
285.42056
285.4204
285.42025
285.42011
285.41996
285.41981
285.41967
285.41953
285.41939
285.41925
285.41911
285.41898
285.41885
285.41871
285.41858
285.41845
285.41833
285.4182
285.41807
285.41795
285.41783
285.41771
285.41759
285.41747
285.41736
285.41724
285.41713
285.41702
285.41691
285.4168
285.41669
285.41659
285.41648
285.41638
285.41628
285.41618
285.41608
285.41598
285.41588
285.41578
285.41569
285.4156
285.41551
285.41542
285.41533
285.41524
285.41515
285.41506
285.41498
285.4149
285.41481
285.41473
285.41465
285.41457
285.41449
285.41442
285.41434
285.41427
285.41419
285.41412
285.41405
285.41398
285.41391
285.41384
285.41377
285.4137
285.41364
285.41357
285.41351
285.41345
285.41338
285.41332
285.41326
285.4132
285.41314
285.41309
285.41303
285.41297
285.41292
285.41287
285.41281
285.41276
285.41271
285.41266
285.41261
285.41256
285.41251
285.41246
285.41241
285.41237
285.41232
285.41228
285.41223
285.41219
285.41215
285.41211
285.41206
285.41202
285.41198
285.41194
285.41191
285.41187
285.41183
285.41179
285.41176
285.41172
285.41169
285.41165
285.41162
285.41159
285.41156
285.41152
285.41149
285.41146
285.41143
285.4114
285.41137
285.41134
285.41131
285.41129
285.41126
285.41123
285.41121
285.41118
285.41116
285.41113
285.41111
285.41108
285.41106
285.41104
285.41102
285.41099
285.41097
285.41095
285.41093
285.41091
285.41089
285.41087
285.41085
285.41084
285.41082
285.4108
285.41078
285.41077
285.41075
285.41073
285.41072
285.4107
285.41069
285.41067
285.41066
285.41064
285.41063
285.41062
285.4106
285.41059
285.41058
285.41056
285.41055
285.41054
285.41053
285.41052
285.41051
285.4105
285.41049
285.41048
285.41047
285.41046
285.41045
285.41044
285.41043
285.41042
285.41042
285.41041
285.4104
285.41039
285.41039
285.41038
285.41037
285.41037
285.41036
285.41035
285.41035
285.41034
285.41034
285.41033
285.41033
285.41032
285.41032
285.41031
285.41031
285.41031
285.4103
285.4103
285.4103
285.41029
285.41029
285.41029
285.41028
285.41028
285.41028
285.41028
285.41028
285.41027
285.41027
285.41027
285.41027
285.41027
285.41027
285.41027
285.41027
285.41027
285.41027
285.41027
285.41027
285.41027
285.41027
285.41027
285.41027
285.41027
285.41027
285.41027
285.41027
285.41027
285.41027
285.41027
285.41027
285.41028
285.41028
285.41028
285.41028
285.41028
285.41029
285.41029
285.41029
285.41029
285.41029
285.4103
285.4103
285.4103
285.41031
285.41031
285.41031
285.41032
285.41032
285.41032
285.41033
285.41033
285.41033
285.41034
285.41034
285.41035
285.41035
285.41036
285.41036
285.41036
285.41037
285.41037
285.41037
285.41038
285.41038
285.41039
285.41039
285.4104
285.4104
285.41041
285.41041
285.41042
285.41042
285.41043
285.41043
285.41044
285.41044
285.41045
285.41045
285.41046
285.41046
285.41047
285.41048
285.41048
285.41049
285.4105
285.4105
285.41051
285.41052
285.41052
285.41053
285.41054
285.41054
285.41055
285.41055
285.41056
285.41057
285.41057
285.41058
285.41058
285.41059
285.4106
285.4106
285.41061
285.41062
285.41062
285.41063
285.41064
285.41065
285.41065
285.41066
285.41067
285.41068
285.41068
285.41069
285.4107
285.41071
285.41071
285.41072
285.41073
285.41074
285.41074
285.41075
285.41076
285.41077
285.41078
285.41078
285.41079
285.4108
285.41081
285.41082
285.41082
285.41083
285.41084
285.41085
285.41086
285.41087
285.41087
285.41088
285.41089
285.4109
285.41091
285.41092
285.41092
285.41093
285.41094
285.41095
285.41096
285.41097
285.41098
285.41098
285.41099
285.411
285.41101
285.41102
285.41103
285.41104
285.41105
285.41106
285.41107
285.41108
285.41109
285.41109
285.4111
285.41111
285.41112
285.41113
285.41114
285.41115
285.41116
285.41117
285.41118
285.41119
285.4112
285.41121
285.41122
285.41123
285.41124
285.41125
285.41126
285.41127
285.41128
285.41129
285.4113
285.41131
285.41132
285.41133
285.41134
285.41135
285.41136
285.41137
285.41138
285.41139
285.4114
285.41141
285.41142
285.41143
285.41144
285.41145
285.41146
285.41147
285.41149
285.4115
285.41151
285.41152
285.41153
285.41154
285.41155
285.41156
285.41157
285.41158
285.4116
285.41161
285.41162
285.41163
285.41164
285.41165
285.41166
285.41168
285.41169
285.4117
285.41171
285.41172
285.41173
285.41174
285.41176
285.41177
285.41178
285.41179
285.41181
285.41182
285.41183
285.41184
285.41186
285.41187
285.41188
285.41189
285.41191
285.41192
285.41193
285.41194
285.41196
285.41197
285.41198
285.41199
285.412
285.41202
285.41203
285.41204
285.41205
285.41207
285.41208
285.41209
285.4121
285.41212
285.41213
285.41214
285.41216
285.41217
285.41219
285.4122
285.41221
285.41223
285.41224
285.41226
285.41227
285.41228
285.4123
285.41231
285.41233
285.41234
285.41235
285.41237
285.41238
285.4124
285.41241
285.41243
285.41244
285.41245
285.41247
285.41248
285.4125
285.41251
285.41253
285.41254
285.41256
285.41257
285.41259
285.4126
285.41262
285.41263
285.41265
285.41266
285.41268
285.41269
285.41271
285.41273
285.41274
285.41276
285.41277
285.41279
285.41281
285.41282
285.41284
285.41285
285.41287
285.41289
285.4129
285.41292
285.41294
285.41295
285.41297
285.41298
285.413
285.41302
285.41304
285.41305
285.41307
285.41309
285.41311
285.41312
285.41314
285.41316
285.41318
285.41319
285.41321
285.41323
285.41325
285.41327
285.41328
285.4133
285.41332
285.41334
285.41336
285.41338
285.4134
285.41342
285.41344
285.41345
285.41347
285.41349
285.41351
285.41353
285.41355
285.41357
285.41359
285.41361
285.41363
285.41365
285.41367
285.41369
285.41371
285.41373
285.41375
285.41377
285.41379
285.41381
285.41383
285.41386
285.41388
285.4139
285.41392
285.41394
285.41396
285.41399
285.41401
285.41403
285.41405
285.41407
285.4141
285.41412
285.41414
285.41416
285.41419
285.41421
285.41423
285.41426
285.41428
285.41431
285.41433
285.41435
285.41438
285.4144
285.41443
285.41445
285.41448
285.4145
285.41453
285.41455
285.41458
285.4146
285.41462
285.41465
285.41467
285.4147
285.41473
285.41475
285.41478
285.4148
285.41483
285.41486
285.41489
285.41491
285.41494
285.41497
285.415
285.41503
285.41506
285.41508
285.41511
285.41514
285.41517
285.4152
285.41523
285.41526
285.41529
285.41532
285.41535
285.41538
285.41541
285.41544
285.41547
285.4155
285.41553
285.41556
285.41559
285.41563
285.41566
285.41569
285.41572
285.41576
285.41579
285.41582
285.41586
285.41589
285.41592
285.41596
285.41599
285.41603
285.41606
285.4161
285.41614
285.41617
285.41621
285.41625
285.41628
285.41632
285.41636
285.4164
285.41643
285.41647
285.41651
285.41655
285.41659
285.41663
285.41666
285.4167
285.41674
285.41678
285.41682
285.41687
285.41691
285.41695
285.41699
285.41704
285.41708
285.41712
285.41717
285.41721
285.41726
285.4173
285.41735
285.4174
285.41744
285.41749
285.41754
285.41759
285.41764
285.41768
285.41773
285.41778
285.41783
285.41788
285.41793
285.41798
285.41804
285.41809
285.41814
285.41819
285.41825
285.4183
285.41836
285.41841
285.41847
285.41852
285.41858
285.41864
285.41869
285.41875
285.41881
285.41887
285.41893
285.41899
285.41905
285.41911
285.41917
285.41924
285.4193
285.41937
285.41943
285.4195
285.41956
285.41963
285.4197
285.41977
285.41984
285.41991
285.41998
285.42005
285.42012
285.42019
285.42026
285.42034
285.42041
285.42049
285.42056
285.42064
285.42072
285.4208
285.42088
285.42096
285.42104
285.42112
285.42121
285.42129
285.42138
285.42146
285.42155
285.42163
285.42172
285.42181
285.4219
285.42199
285.42208
285.42218
285.42227
285.42236
285.42246
285.42256
285.42266
285.42276
285.42287
285.42297
285.42308
285.42319
285.4233
285.42342
285.42354
285.42366
285.42378
285.42391
285.42404
285.42418
285.42431
285.42446
285.4246
285.42475
285.4249
285.42506
285.42522
285.42539
285.42556
285.42573
285.42591
285.4261
285.42629
285.42648
285.42668
285.42688
285.42709
285.4273
285.42752
285.42774
285.42797
285.42821
285.42845
285.4287
285.42895
285.42921
285.42948
285.42975
285.43003
285.43032
285.43062
285.43092
285.43123
285.43154
285.43186
285.43218
285.43251
285.43285
285.43318
285.43352
285.43386
285.4342
285.43453
285.43486
285.43519
285.43551
285.43581
285.4361
285.43637
285.43661
285.43683
285.43701
285.43714
285.43724
285.43729
285.43731
285.43731
285.43729
285.43723
285.43706
285.43687
285.43672
285.43662
285.43657
285.43657
285.43659
285.4367
285.43703
285.43794
285.44024
285.44587
285.45947
285.49203
285.56924
285.7336
285.96903
286.27592
286.65761
287.11468
287.64486
288.24312
288.90192
289.6116
290.36085
291.13732
291.92818
292.72069
293.50274
294.26327
294.99264
295.68285
296.3277
296.92279
297.46547
297.9547
298.39088
298.77557
299.1113
299.40132
299.64936
299.85942
300.03559
300.18194
300.30237
300.40051
300.47973
300.54305
300.59315
300.63236
300.66271
300.6859
300.70338
300.71634
300.72576
300.73244
300.73702
300.74002
300.74183
300.74279
300.74316
300.7432
300.74308
300.74258
300.74156
300.74052
300.73951
300.73854
300.73762
300.73676
300.73595
300.73519
300.73448
300.73381
300.73319
300.73261
300.73207
300.73156
300.73108
300.73062
300.73019
300.72979
300.7294
300.72903
300.72868
300.72835
300.72803
300.72772
300.72743
300.72714
300.72687
300.72661
300.72635
300.72611
300.72587
300.72564
300.72542
300.7252
300.72499
300.72479
300.72459
300.7244
300.72421
300.72402
300.72384
300.72367
300.72349
300.72332
300.72315
300.72299
300.72282
300.72266
300.7225
300.72235
300.72219
300.72204
300.72189
300.72173
300.72158
300.72144
300.72129
300.72114
300.721
300.72085
300.72071
300.72057
300.72043
300.72029
300.72016
300.72002
300.71989
300.71976
300.71963
300.7195
300.71938
300.71925
300.71913
300.71901
300.71889
300.71878
300.71866
300.71855
300.71844
300.71833
300.71822
300.71812
300.71802
300.71791
300.71781
300.71772
300.71762
300.71753
300.71743
300.71734
300.71725
300.71716
300.71708
300.71699
300.71691
300.71682
300.71674
300.71666
300.71658
300.7165
300.71642
300.71634
300.71626
300.71619
300.71611
300.71604
300.71596
300.71589
300.71582
300.71575
300.71568
300.71561
300.71554
300.71547
300.7154
300.71534
300.71527
300.71521
300.71514
300.71508
300.71501
300.71495
300.71489
300.71483
300.71476
300.7147
300.71464
300.71458
300.71452
300.71446
300.71441
300.71435
300.71429
300.71423
300.71417
300.71412
300.71406
300.714
300.71395
300.71389
300.71384
300.71378
300.71373
300.71367
300.71362
300.71357
300.71351
300.71346
300.71341