/*--------------------------------*- C++ -*----------------------------------*\
  =========                 |
  \\      /  F ield         | OpenFOAM: The Open Source CFD Toolbox
   \\    /   O peration     | Website:  https://openfoam.org
    \\  /    A nd           | Version:  7
     \\/     M anipulation  |
\*---------------------------------------------------------------------------*/
FoamFile
{
    version     2.0;
    format      ascii;
    class       volVectorField;
    location    "0.00296";
    object      U;
}
// * * * * * * * * * * * * * * * * * * * * * * * * * * * * * * * * * * * * * //

dimensions      [0 1 -1 0 0 0 0];

internalField   nonuniform List<vector> 
5000
(
(0.075399926 1.8893995e-21 0)
(0.076012831 3.3927414e-21 0)
(0.074394441 0 0)
(0.076029 0 0)
(0.075182219 -1.2105619e-21 0)
(0.075371189 9.6304881e-37 -8.4710669e-22)
(0.075360673 8.5465152e-22 -1.8217993e-36)
(0.075352482 0 2.6960647e-21)
(0.075404647 0 9.1012633e-22)
(0.075400934 -9.3657519e-22 -1.8731504e-21)
(0.075382861 -1.8905799e-21 -1.8905799e-21)
(0.075382335 9.3396137e-22 9.3396137e-22)
(0.075383139 9.2625693e-22 -7.8977416e-36)
(0.075381069 -9.2856108e-22 -8.1813009e-36)
(0.075377607 0 1.8659141e-21)
(0.075375268 -9.3412926e-22 -1.8682585e-21)
(0.075373989 -1.2182132e-51 -6.0910658e-52)
(0.075372871 9.3150725e-22 -8.2072588e-36)
(0.075371765 0 -9.3030507e-22)
(0.075370677 9.291232e-22 1.8582464e-21)
(0.075369615 -9.2795152e-22 9.2795152e-22)
(0.075368564 -9.2678656e-22 0)
(0.075367517 1.8512417e-21 0)
(0.075366502 -9.2446513e-22 -9.2446513e-22)
(0.075365513 -9.233314e-22 7.872797e-36)
(0.075364538 -7.6011673e-36 -7.6011673e-36)
(0.075363576 9.2110845e-22 -9.2110845e-22)
(0.075362632 9.2001266e-22 9.2001266e-22)
(0.075361706 -1.8378611e-21 9.1893056e-22)
(0.075360797 1.5913215e-35 -9.1786309e-22)
(0.075359903 -1.6025198e-35 1.6025198e-35)
(0.075359019 9.1575867e-22 -7.8082281e-36)
(0.075358148 1.8294297e-21 -9.1471484e-22)
(0.075357294 -1.8273566e-21 9.1367828e-22)
(0.075356455 1.5822846e-35 9.1265063e-22)
(0.075355629 -7.9284848e-35 0)
(0.075354817 -3.1575095e-35 0)
(0.075354016 1.8192048e-21 -9.0960238e-22)
(0.075353223 -1.8171795e-21 -9.0858977e-22)
(0.075352443 -1.8151555e-21 9.0757774e-22)
(0.075351676 1.8131384e-21 -1.5202085e-35)
(0.075350922 -6.2285313e-35 -9.0556596e-22)
(0.075350181 -1.8091347e-21 9.0456735e-22)
(0.075349448 9.035698e-22 -1.5280194e-35)
(0.075348723 2.7077167e-21 -9.0257224e-22)
(0.07534801 -9.0157517e-22 9.0157517e-22)
(0.075347301 -9.0057471e-22 -3.0971006e-35)
(0.075346598 -6.1617214e-35 3.0808607e-35)
(0.075345912 -1.7971362e-21 -3.0901998e-35)
(0.075345238 0 1.5306296e-35)
(0.075344568 8.9657033e-22 8.9657033e-22)
(0.075343905 1.2726623e-37 0)
(0.075343252 -8.9450127e-22 0)
(0.075342666 1.7763509e-21 0)
(0.075342405 -3.0573936e-35 0)
(0.075342537 -1.730306e-21 0)
(0.075342748 8.6036207e-22 0)
(0.075342725 -2.9669012e-35 0)
(0.075342475 -8.6645569e-22 0)
(0.075342356 0 0)
(0.075342383 8.7165246e-22 0)
(0.075342398 2.9699916e-35 0)
(0.075342454 2.465482e-37 0)
(0.07534254 8.6361752e-22 -8.6361752e-22)
(0.07534287 -8.6012041e-22 -8.6012041e-22)
(0.075343924 2.9994197e-35 8.5798941e-22)
(0.07534348 8.6034619e-22 -1.4793768e-35)
(0.075340878 -8.6686191e-22 2.9633837e-52)
(0.075339437 -8.6713424e-22 8.6713424e-22)
(0.075339537 8.643041e-22 0)
(0.075339675 8.6264282e-22 0)
(0.075340108 -8.5960715e-22 -8.5960715e-22)
(0.075339059 -8.6025635e-22 -8.6025635e-22)
(0.075337628 1.7241869e-21 0)
(0.075337722 8.6376993e-22 8.6376993e-22)
(0.075337731 -8.6009576e-22 2.9701151e-35)
(0.075337853 0 -8.4998499e-22)
(0.075337779 8.4688479e-22 -8.4688479e-22)
(0.075337917 -1.2088816e-37 8.506748e-22)
(0.075338312 -8.5315546e-22 1.7063109e-21)
(0.075336989 8.5264323e-22 -1.7052865e-21)
(0.075334097 -2.4074435e-37 4.8148869e-37)
(0.075334194 2.3887695e-37 2.5214207e-21)
(0.075336543 8.3994505e-22 -1.6798901e-21)
(0.075336017 8.4586428e-22 -8.7989726e-35)
(0.075332901 2.9736237e-35 1.7081646e-21)
(0.075332544 -8.5168687e-22 -2.5550606e-21)
(0.075333516 0 8.4581692e-22)
(0.075331436 -8.5068404e-22 8.5068404e-22)
(0.075330518 -8.8132016e-35 -8.4955333e-22)
(0.075333105 -2.937895e-35 8.4039017e-22)
(0.075332932 8.4199409e-22 8.4199409e-22)
(0.075329527 8.5085722e-22 2.962395e-35)
(0.075328878 -1.6969784e-21 -1.6969784e-21)
(0.075330321 -5.8347504e-35 -5.8347504e-35)
(0.075328728 8.4912808e-22 -8.4912808e-22)
(0.075327726 0 -8.4871211e-22)
(0.075330015 0 -2.9469939e-35)
(0.075329813 -8.413407e-22 5.8585235e-35)
(0.07532652 -5.9003388e-35 1.701637e-21)
(0.075325915 1.6980069e-21 8.4900346e-22)
(0.07532723 -8.438542e-22 -8.438542e-22)
(0.075325401 -1.700692e-21 1.2084144e-37)
(0.075324755 0 8.5036867e-22)
(0.075326024 8.4580538e-22 0)
(0.0753242 8.5260301e-22 -8.5260301e-22)
(0.075323552 -8.5293988e-22 -2.9696462e-35)
(0.075324811 -8.4871051e-22 8.4871051e-22)
(0.075323021 0 -8.5586357e-22)
(0.075322197 0 -8.5676669e-22)
(0.075324656 8.4891969e-22 1.6978394e-21)
(0.075324483 8.5230223e-22 8.5230223e-22)
(0.075321322 0 -2.5908958e-21)
(0.07532067 -8.637193e-22 -8.637193e-22)
(0.075323182 2.992924e-35 2.568394e-21)
(0.075322999 8.6004925e-22 -8.6004925e-22)
(0.075319794 -8.7187857e-22 -8.7187857e-22)
(0.075319128 2.4794146e-37 -4.9588291e-37)
(0.075321612 -3.0242886e-35 -8.6510322e-22)
(0.075321406 6.6493784e-52 2.6088843e-21)
(0.075318423 1.7636026e-21 -6.1653258e-35)
(0.075316652 -3.7754234e-37 -1.7711454e-21)
(0.075316746 -8.8505744e-22 1.7701149e-21)
(0.075316858 0 8.8583191e-22)
(0.075317344 -8.8643309e-22 -8.8643309e-22)
(0.075318361 8.8714106e-22 8.8714106e-22)
(0.075318147 8.9128663e-22 -8.9128663e-22)
(0.075315798 -1.8038589e-21 -1.8038589e-21)
(0.075315199 -9.0395724e-22 9.0395724e-22)
(0.075317523 1.7947681e-21 3.0988804e-35)
(0.075317338 9.0227009e-22 9.0227009e-22)
(0.075314378 -9.1550703e-22 1.8310141e-21)
(0.075313885 -9.1678406e-22 -9.1678406e-22)
(0.075314993 -9.1423668e-22 -9.1423668e-22)
(0.07531351 0 -9.2350923e-22)
(0.075312057 9.2879916e-22 -3.2337623e-35)
(0.075312126 9.2872533e-22 -3.2203073e-35)
(0.075312228 -9.2981309e-22 3.2372925e-35)
(0.075312557 -3.2301747e-35 1.8631421e-21)
(0.075311556 9.3998823e-22 9.3998823e-22)
(0.075311465 -9.4219248e-22 -9.4219248e-22)
(0.075313451 -9.3564411e-22 -1.8712882e-21)
(0.075313195 0 -9.3994802e-22)
(0.075310429 9.5293533e-22 -9.5293533e-22)
(0.075309948 9.5401889e-22 6.6160228e-35)
(0.075311455 -9.497898e-22 1.8995796e-21)
(0.075310852 9.5621576e-22 -2.7177287e-37)
(0.075309994 -5.4486646e-37 2.7243323e-37)
(0.075310059 -9.5806129e-22 -2.4697755e-51)
(0.07530875 9.6788504e-22 9.6788504e-22)
(0.075308522 -9.6996158e-22 -6.7265838e-35)
(0.075309202 6.7305227e-35 1.3461045e-34)
(0.075307722 9.7496043e-22 9.7496043e-22)
(0.075307277 -9.770762e-22 -9.770762e-22)
(0.075309267 9.6925758e-22 9.6925758e-22)
(0.075309096 9.7292407e-22 3.3735641e-35)
(0.075306556 -9.856161e-22 -9.856161e-22)
(0.075306167 0 9.8615234e-22)
(0.075307133 0 -1.3958982e-37)
(0.075305786 -9.9078149e-22 -9.9078149e-22)
(0.07530535 -9.9249706e-22 0)
(0.075306238 9.8878227e-22 9.8878227e-22)
(0.075304924 9.9721549e-22 6.9014155e-35)
(0.075304455 -9.9920226e-22 -1.9984045e-21)
(0.075306261 -6.8723716e-35 9.9098393e-22)
(0.075306086 9.9443948e-22 -2.826367e-37)
(0.075303763 -1.0072519e-21 -1.0072519e-21)
(0.075303295 -1.0081119e-21 1.0081119e-21)
(0.075305004 0 -9.9957642e-22)
(0.075304831 1.0030948e-21 1.0030948e-21)
(0.075302664 1.0162056e-21 -4.2341453e-34)
(0.075302261 0 -2.8221968e-34)
(0.07530389 -1.0090159e-21 1.0090159e-21)
(0.07530373 -1.0126516e-21 -2.0253031e-21)
(0.075301581 0 0)
(0.07530125 1.0271918e-21 -7.1234693e-35)
(0.075302046 2.1297652e-34 -2.1297652e-34)
(0.075300854 -1.0327551e-21 1.0327551e-21)
(0.075300494 1.0351568e-21 1.0351568e-21)
(0.075301258 1.0320299e-21 7.1130232e-35)
(0.075300091 -1.041272e-21 -1.041272e-21)
(0.075299759 -7.2096183e-35 1.0438926e-21)
(0.075300507 7.1604106e-35 7.1604106e-35)
(0.075299375 4.4777228e-37 4.4777228e-37)
(0.075298389 1.0567096e-21 1.4641328e-34)
(0.075298575 -1.0626761e-21 -2.1253522e-21)
(0.075298818 -1.4883744e-34 1.0731049e-21)
(0.075298864 7.3835132e-35 1.0734887e-21)
(0.075297855 -7.3736839e-35 -7.3736839e-35)
(0.075297754 1.0696916e-21 7.3725977e-35)
(0.075299372 0 -2.2095524e-34)
(0.075299216 0 7.3720326e-35)
(0.075297143 -1.0818117e-21 -1.0818117e-21)
(0.075296857 -1.0840287e-21 0)
(0.075297635 0 0)
(0.075296487 0 0)
(0.075296177 1.0946943e-21 0)
(0.075296945 -2.1000907e-52 -1.0923548e-21)
(0.075295808 -1.1023612e-21 2.2981281e-34)
(0.075295485 0 1.1056596e-21)
(0.075296243 1.1033117e-21 1.1033117e-21)
(0.075295131 -1.1133277e-21 -1.1133277e-21)
(0.075294802 -3.0951172e-34 -1.1169206e-21)
(0.075296431 2.2198618e-21 2.2198618e-21)
(0.075296287 -1.1146509e-21 7.7141489e-35)
(0.075294231 -2.3442947e-34 -2.3442947e-34)
(0.075293937 -1.6076993e-37 -1.1313178e-21)
(0.075294711 -1.1286213e-21 -1.1286213e-21)
(0.075293615 1.1385264e-21 1.1385264e-21)
(0.075293329 -1.622446e-37 0)
(0.075294088 -1.5767177e-34 1.1391339e-21)
(0.075292993 7.95113e-35 7.95113e-35)
(0.075292661 -1.1521617e-21 -1.1521617e-21)
(0.07529426 0 -1.1447736e-21)
(0.075294123 1.1490973e-21 1.6003062e-34)
(0.075292108 8.0502284e-35 1.1632124e-21)
(0.075291828 3.2334581e-34 -2.3301013e-21)
(0.075292701 1.1620908e-21 1.1620908e-21)
(0.075291772 0 1.1716417e-21)
(0.075291162 -1.1739783e-21 -1.1739783e-21)
(0.075291654 -1.1704659e-21 1.1704659e-21)
(0.075290837 0 0)
(0.075290657 0 0)
(0.075291204 0 0)
(0.075290208 1.1880397e-21 1.1880397e-21)
(0.075289261 8.2658032e-35 -1.1943618e-21)
(0.075289339 -1.1949017e-21 -2.3898033e-21)
(0.075289431 0 1.195957e-21)
(0.075289774 0 -8.3064869e-35)
(0.075290464 1.1933609e-21 1.1933609e-21)
(0.075290341 1.1957424e-21 1.1957424e-21)
(0.075288845 -1.206135e-21 -2.41227e-21)
(0.075287786 -1.2115098e-21 3.4433178e-37)
(0.075287816 0 -3.4440574e-37)
(0.075287851 1.212581e-21 1.212581e-21)
(0.07528798 1.2132722e-21 1.2132722e-21)
(0.075288212 -1.2140993e-21 -2.4281986e-21)
(0.075288918 -1.2102539e-21 1.7198742e-37)
(0.075288813 0 -2.5240384e-34)
(0.07528731 1.2228198e-21 1.2228198e-21)
(0.075286886 -3.3980201e-34 -6.7960402e-34)
(0.075288132 -8.4199954e-35 -1.6839991e-34)
(0.075288034 1.216847e-21 1.216847e-21)
(0.075286317 -1.2296004e-21 -1.2296004e-21)
(0.075285347 -1.2344313e-21 0)
(0.075285386 0 -1.2344566e-21)
(0.075285429 1.2350341e-21 1.2350341e-21)
(0.075285589 -1.7166794e-34 1.2351797e-21)
(0.075285874 1.2354454e-21 -1.2354454e-21)
(0.075286736 1.7075883e-34 0)
(0.075286584 -2.463573e-21 -1.2317865e-21)
(0.075284691 1.2422686e-21 1.2422686e-21)
(0.075284416 -1.7232311e-34 1.2424345e-21)
(0.075285255 -4.2963685e-34 -4.2963685e-34)
(0.075284077 -8.6185212e-35 -2.4906551e-21)
(0.075283716 -1.2465218e-21 -2.4930435e-21)
(0.075285445 1.2370316e-21 3.7110947e-21)
(0.075285313 1.2394508e-21 2.4789015e-21)
(0.075283157 0 0)
(0.075282864 -1.2515059e-21 -2.5030118e-21)
(0.075283693 -1.2464346e-21 -1.2464346e-21)
(0.075282608 0 1.253905e-21)
(0.075281515 1.2588433e-21 1.2588433e-21)
(0.075281606 1.2584158e-21 1.2584158e-21)
(0.075281712 -2.517253e-21 -2.517253e-21)
(0.075282094 -1.2565612e-21 -2.5131224e-21)
(0.075282863 1.2529388e-21 1.2529388e-21)
(0.075282743 1.2538858e-21 2.5077717e-21)
(0.075281033 3.5046844e-34 3.5046844e-34)
(0.075280715 -1.2638647e-21 -2.5277293e-21)
(0.075282528 1.2541311e-21 1.2541311e-21)
(0.075282388 -8.7137362e-35 -1.7427472e-34)
(0.075280133 -1.2687487e-21 -1.2687487e-21)
(0.075279833 1.2684039e-21 2.5368079e-21)
(0.075280724 -8.7778506e-35 -1.2631622e-21)
(0.075279522 8.8502192e-35 1.7700438e-34)
(0.075279206 -3.6147056e-37 1.2718115e-21)
(0.075280065 -8.7490974e-35 -1.2667963e-21)
(0.075278858 1.2746119e-21 1.2746119e-21)
(0.07527855 0 -2.5509171e-21)
(0.075279412 0 5.3010252e-34)
(0.075278251 -1.2782751e-21 2.5565501e-21)
(0.075277475 -1.2784473e-21 -2.5568947e-21)
(0.075277965 0 -8.8093624e-35)
(0.075277485 0 1.2811183e-21)
(0.07527714 0 0)
(0.075277242 0 0)
(0.075277386 1.2855296e-21 1.2855296e-21)
(0.075277836 8.8313046e-35 -1.2813357e-21)
(0.075277003 -2.5716961e-21 -2.5716961e-21)
(0.075275048 5.5255512e-37 1.296087e-21)
(0.075274697 1.2958361e-21 -3.6829876e-37)
(0.075274883 1.2952948e-21 1.2952948e-21)
(0.075275084 -1.7983193e-34 1.2952453e-21)
(0.0752757 -1.7897747e-34 -1.2917354e-21)
(0.075275012 -1.8425156e-37 0)
(0.075274993 -1.2960327e-21 -1.2960327e-21)
(0.075275668 -1.2910195e-21 -1.2910195e-21)
(0.075274419 -1.2982412e-21 0)
(0.075273205 2.6055422e-21 2.6055422e-21)
(0.075273229 3.9054025e-21 1.3018008e-21)
(0.075273256 -1.3015936e-21 -2.6031873e-21)
(0.075273353 -2.6015766e-21 9.0023478e-35)
(0.07527352 0 -3.7104414e-37)
(0.075273993 1.3114632e-21 1.3114632e-21)
(0.075273997 1.3054857e-21 1.3054857e-21)
(0.075274059 -1.2933897e-21 -1.2933897e-21)
(0.075273839 3.6823589e-37 1.2956149e-21)
(0.075272096 -5.5818453e-37 -1.3092915e-21)
(0.075271824 3.7234273e-37 7.4468546e-37)
(0.075272719 1.3051825e-21 2.6103651e-21)
(0.075271474 1.3135023e-21 -1.3135023e-21)
(0.075271105 -1.3147833e-21 -1.3147833e-21)
(0.075272964 -2.6094603e-21 -1.3047301e-21)
(0.075272814 1.3071453e-21 -1.8129837e-34)
(0.0752705 -5.3842259e-52 1.3198351e-21)
(0.075270154 1.3192587e-21 0)
(0.075271018 3.6399396e-34 0)
(0.075269849 -2.6429154e-21 -1.3214577e-21)
(0.075269386 0 1.835267e-34)
(0.075270065 0 -3.6528373e-34)
(0.07526912 2.6478964e-21 -1.8400518e-34)
(0.075268223 -7.3817549e-34 1.3291833e-21)
(0.075268302 -2.6567357e-21 -1.3283679e-21)
(0.075268397 0 1.8874173e-37)
(0.075268736 1.3255131e-21 1.3255131e-21)
(0.075269427 1.321062e-21 0)
(0.075269232 -1.3215357e-21 0)
(0.075267525 1.8918227e-37 0)
(0.075267089 -1.8475845e-34 0)
(0.075267782 1.8824269e-37 0)
(0.075266824 1.3323669e-21 0)
(0.075266021 -1.3366816e-21 0)
(0.075266215 -1.3346986e-21 -1.3346986e-21)
(0.07526649 0 0)
(0.07526739 1.3261791e-21 1.3261791e-21)
(0.075267291 -1.8417431e-34 0)
(0.075265202 -1.3372126e-21 -1.3372126e-21)
(0.075263435 2.6782787e-21 -3.7147174e-34)
(0.075263503 -3.7208345e-34 1.3413445e-21)
(0.075263595 -1.3507558e-21 0)
(0.075263603 -3.7497609e-34 0)
(0.075263631 -2.6968525e-21 -1.3484262e-21)
(0.075263662 2.6907212e-21 -1.8678994e-34)
(0.075263752 1.3387111e-21 1.3387111e-21)
(0.075263126 -1.3423203e-21 0)
(0.07526272 -1.9114954e-37 0)
(0.075262942 -1.3431795e-21 -1.3431795e-21)
(0.075263264 0 -1.3415802e-21)
(0.075264328 0 1.3348122e-21)
(0.07526419 1.3352707e-21 1.3352707e-21)
(0.075262185 -1.8678716e-34 0)
(0.075261876 -2.6921104e-21 -1.3460552e-21)
(0.075263068 1.9005475e-37 1.9005475e-37)
(0.075262357 4.0189528e-21 1.3396509e-21)
(0.075261124 -1.3388513e-21 -1.3388513e-21)
(0.075261168 -1.3371927e-21 -1.3371927e-21)
(0.075260792 2.6957339e-21 1.3478669e-21)
(0.075260741 -1.3486315e-21 1.3486315e-21)
(0.075260948 1.3420304e-21 0)
(0.075259846 2.6988184e-21 -1.3494092e-21)
(0.075259731 -1.3500066e-21 -1.3500066e-21)
(0.075261373 -1.3383412e-21 1.3383412e-21)
(0.075261202 -1.3398696e-21 1.3398696e-21)
(0.075259083 1.3527761e-21 0)
(0.075258778 1.3235701e-51 -1.3516646e-21)
(0.075259557 -1.3448322e-21 -1.3448322e-21)
(0.075258413 1.3525568e-21 1.3525568e-21)
(0.07525811 -1.3525632e-21 1.3525632e-21)
(0.075258866 1.3459018e-21 0)
(0.075257711 3.7509041e-34 0)
(0.075257381 3.8468172e-37 0)
(0.075258122 1.346717e-21 0)
(0.075256996 -2.7087803e-21 0)
(0.075256667 1.3546436e-21 0)
(0.075258266 3.7274347e-34 0)
(0.075258089 -3.7275406e-34 0)
(0.07525608 -1.3566034e-21 -1.3566034e-21)
(0.075255173 -2.718669e-21 -4.3501215e-51)
(0.075255385 4.0687715e-21 1.3562572e-21)
(0.075255684 3.7554357e-34 0)
(0.075256679 -7.466892e-34 0)
(0.075256536 3.729681e-34 0)
(0.075254636 -2.7152335e-21 -1.3576168e-21)
(0.075254306 2.7135832e-21 -1.881842e-34)
(0.075255909 -3.7282505e-34 1.3440179e-21)
(0.075255738 -2.6904808e-21 -1.3452404e-21)
(0.075253693 0 1.8859097e-34)
(0.075253383 0 -1.9283795e-37)
(0.0752541 1.3497411e-21 -1.8739812e-34)
(0.075253047 -1.8824582e-34 1.3572359e-21)
(0.075252155 -1.3610282e-21 -1.3610282e-21)
(0.075252223 -1.3580177e-21 1.3580177e-21)
(0.075252319 1.3551223e-21 -7.5296613e-34)
(0.075252632 4.0370291e-21 -1.3456764e-21)
(0.075252198 -1.3378487e-21 1.3378487e-21)
(0.075252214 -1.3367966e-21 0)
(0.075252503 -3.8208657e-37 0)
(0.075251192 -1.358541e-21 -1.358541e-21)
(0.075250898 0 -1.8854164e-34)
(0.075251599 2.7014385e-21 1.3507193e-21)
(0.07525051 2.716885e-21 -1.3584425e-21)
(0.075250195 -1.3581585e-21 -1.3581585e-21)
(0.075250869 -2.7018069e-21 0)
(0.075249821 -1.3586802e-21 1.3586802e-21)
(0.075249513 2.7168688e-21 1.3584344e-21)
(0.075250154 2.7023509e-21 -1.3511754e-21)
(0.075249152 -2.7179875e-21 -3.771724e-34)
(0.075248789 -2.7179937e-21 2.6648362e-51)
(0.075250041 0 -1.8682223e-34)
(0.075249888 2.6933826e-21 1.3466913e-21)
(0.075248296 -1.3606321e-21 -1.3606321e-21)
(0.075247969 -2.7191582e-21 -1.1416147e-50)
(0.075248435 1.3521006e-21 -1.8772571e-34)
(0.075247728 1.3600229e-21 -1.3600229e-21)
(0.07524709 -1.9392979e-37 0)
(0.075247102 1.8926312e-34 0)
(0.075247118 1.3619984e-21 1.3619984e-21)
(0.075247161 -1.3585894e-21 1.9306716e-37)
(0.075246933 -1.362522e-21 -5.66937e-34)
(0.075246745 1.3657012e-21 1.3657012e-21)
(0.075246752 -1.8949449e-34 0)
(0.075246757 -1.9474537e-37 0)
(0.07524678 -1.9022393e-34 -1.3714979e-21)
(0.075246814 -1.3679814e-21 3.79278e-34)
(0.075246922 1.3680496e-21 1.3680496e-21)
(0.075247108 -5.7302986e-34 0)
(0.075247402 -1.9209246e-34 0)
(0.075247828 -3.8564559e-34 0)
(0.075248355 -1.3953188e-21 -1.3953188e-21)
(0.07524897 1.3999026e-21 1.9893813e-37)
(0.075249651 -1.9487182e-34 1.4035706e-21)
(0.075250382 -3.9000351e-34 -1.4066662e-21)
(0.075251151 -2.0027401e-37 1.409303e-21)
(0.07525195 -2.823256e-21 -3.9238221e-34)
(0.075252769 -1.4136838e-21 -2.8273676e-21)
(0.075253608 1.4155952e-21 1.4155952e-21)
(0.075254466 2.8349879e-21 5.9041479e-34)
(0.075255329 -1.9705645e-34 1.9705645e-34)
(0.075256206 -2.8421393e-21 -1.9730138e-34)
(0.075257054 -1.4226121e-21 -1.4226121e-21)
(0.075257815 2.8471042e-21 0)
(0.075258596 1.4242906e-21 0)
(0.075259404 -1.4252124e-21 1.4252124e-21)
(0.075260228 -1.4259699e-21 1.9798174e-34)
(0.075261105 -3.9594224e-34 -3.9594224e-34)
(0.075262028 1.4274256e-21 -4.2149928e-53)
(0.075263025 0 -1.4283907e-21)
(0.075264099 0 1.4295928e-21)
(0.075265254 1.4309585e-21 1.4309585e-21)
(0.075266496 0 0)
(0.07526782 -1.4335289e-21 -1.4335289e-21)
(0.07526926 1.4347373e-21 -1.99199e-34)
(0.075270828 2.0410628e-37 1.4362702e-21)
(0.075272509 -3.9913876e-34 0)
(0.075274275 0 0)
(0.075276055 -1.441398e-21 -1.441398e-21)
(0.0752779 1.4421375e-21 4.0988014e-37)
(0.07527988 1.4429313e-21 -4.8624199e-53)
(0.075281996 -2.8882422e-21 -1.4441211e-21)
(0.075284194 -1.4454306e-21 1.4454306e-21)
(0.075286273 1.4464301e-21 -2.0041133e-34)
(0.075288185 0 2.0089485e-34)
(0.075290088 0 -4.0162812e-34)
(0.075292055 -1.4471183e-21 -1.4471183e-21)
(0.075294086 4.0203264e-34 1.447086e-21)
(0.075296153 1.4469866e-21 -4.0179939e-34)
(0.075298202 0 4.0199446e-34)
(0.075300114 0 -4.020445e-34)
(0.075301769 -1.4474567e-21 -1.4474567e-21)
(0.075303159 6.0330109e-34 1.4479379e-21)
(0.075304508 1.4486956e-21 -4.0227394e-34)
(0.075306076 0 2.0165255e-34)
(0.075307985 0 0)
(0.075309952 0 -1.4501261e-21)
(0.075311536 0 1.4512851e-21)
(0.075312983 0 -2.0182897e-34)
(0.075314787 0 2.0691504e-37)
(0.075317205 0 -2.0228607e-34)
(0.075319725 0 2.0256105e-34)
(0.075321568 2.9177342e-21 1.4588671e-21)
(0.075322971 8.1121927e-34 -1.4614563e-21)
(0.075324395 -1.4648766e-21 -1.4648766e-21)
(0.075326146 1.4674115e-21 1.4674115e-21)
(0.075328055 -1.4683312e-21 1.4683312e-21)
(0.075329521 1.4692548e-21 0)
(0.075330663 -4.0891095e-34 -1.4710915e-21)
(0.075331771 -1.4732752e-21 -1.4732752e-21)
(0.075332923 -4.0962285e-34 0)
(0.075334017 -1.4767231e-21 1.4767231e-21)
(0.075334888 0 -2.0524928e-34)
(0.075335644 0 2.1031496e-37)
(0.075336355 1.4872172e-21 2.0627396e-34)
(0.075336699 4.1684898e-34 -1.5011842e-21)
(0.075336479 -1.5073956e-21 1.5073956e-21)
(0.075336152 0 2.0810787e-34)
(0.075335636 0 -4.1556855e-34)
(0.075335486 0 -1.5016118e-21)
(0.07533648 0 -1.5065617e-21)
(0.075337291 0 3.0212225e-21)
(0.075336739 0 -2.1447737e-37)
(0.075335925 0 2.0852781e-34)
(0.075335659 3.0147754e-21 1.5073877e-21)
(0.075337233 -1.2589905e-33 -1.5123521e-21)
(0.075339912 -3.0233991e-21 2.0988444e-34)
(0.075340496 1.5164585e-21 1.5164585e-21)
(0.075339801 2.1618037e-37 0)
(0.075339104 1.5270392e-21 0)
(0.075339701 -8.5045099e-34 0)
(0.075342005 -3.0637705e-21 -1.5318853e-21)
(0.07534327 -1.5315249e-21 -1.5315249e-21)
(0.075342633 1.0409505e-52 1.5358038e-21)
(0.075341866 4.6203972e-21 1.5401324e-21)
(0.075342664 0 0)
(0.07534496 -3.0770276e-21 -1.5385138e-21)
(0.075346017 0 -1.5424452e-21)
(0.075345278 0 1.5496322e-21)
(0.075344317 3.1128691e-21 1.5564345e-21)
(0.075344783 -4.3310638e-34 0)
(0.075346933 -4.6725851e-21 -1.5575284e-21)
(0.075348246 1.5579832e-21 -1.5579832e-21)
(0.075347526 1.5651316e-21 1.5651316e-21)
(0.075346402 -1.572206e-21 4.3657032e-34)
(0.075346665 1.5762585e-21 -1.5762585e-21)
(0.075349142 -1.5661111e-21 0)
(0.07535197 -4.3251422e-34 0)
(0.075352769 1.5708379e-21 0)
(0.075352639 -1.5763437e-21 0)
(0.07535253 0 1.5746816e-21)
(0.075352327 -1.5818802e-21 -4.3880705e-34)
(0.07535175 1.5906702e-21 -1.5906702e-21)
(0.075350675 3.2010913e-21 1.6005456e-21)
(0.075350822 -1.6056295e-21 2.2292568e-34)
(0.075353055 -1.5999831e-21 -2.223691e-34)
(0.07535487 -1.6024709e-21 -6.6338162e-52)
(0.075354427 -1.6134295e-21 1.6134295e-21)
(0.07535364 3.2399473e-21 1.6199737e-21)
(0.075353833 1.62531e-21 -3.2506201e-21)
(0.075354375 -1.6299686e-21 -2.2630493e-34)
(0.075354336 0 2.2615211e-34)
(0.075354235 1.6305833e-21 -1.6305833e-21)
(0.075353895 -1.6257801e-21 0)
(0.07535272 -1.6150184e-21 1.6150184e-21)
(0.075352719 4.8441738e-21 1.6147246e-21)
(0.075355608 4.6026015e-37 -1.6193965e-21)
(0.075359439 -3.2462578e-21 -4.5024927e-34)
(0.075360867 1.6407978e-21 1.6407978e-21)
(0.075360768 2.2913471e-34 0)
(0.075360595 1.6422893e-21 0)
(0.075360444 -4.6817791e-37 -1.6472546e-21)
(0.075359891 -3.3234313e-21 2.3047654e-34)
(0.075358848 1.6729345e-21 1.6729345e-21)
(0.075359258 0 0)
(0.075361356 -4.6352528e-34 -1.669278e-21)
(0.075362223 -2.3670087e-37 2.3670087e-37)
(0.075361922 -1.6672378e-21 -4.6295875e-34)
(0.075361901 1.6673462e-21 -2.3125748e-34)
(0.075361831 -4.632128e-34 1.6681527e-21)
(0.075361749 -2.3154959e-34 -1.6694523e-21)
(0.075361558 -2.3741466e-37 2.3741466e-37)
(0.075361245 -1.671355e-21 -4.6410202e-34)
(0.075360817 1.6740458e-21 -1.6740458e-21)
(0.07535967 -2.7685381e-52 1.6796127e-21)
(0.075358077 -4.6991484e-34 4.6991484e-34)
(0.075359035 -2.419848e-37 2.419848e-37)
(0.075362734 -3.4019624e-21 -2.3616432e-34)
(0.075364592 -2.3603017e-34 -1.7017568e-21)
(0.075364086 1.6967317e-21 1.6967317e-21)
(0.075363626 0 0)
(0.075363352 0 -9.3071944e-34)
(0.075363097 -1.694682e-21 -2.3504891e-34)
(0.075362462 -7.1363747e-34 -7.1363747e-34)
(0.075361203 1.7329631e-21 -2.4626886e-37)
(0.07536149 -1.7398422e-21 -1.7398422e-21)
(0.075363961 2.4064179e-34 1.7332304e-21)
(0.075365426 -1.3411878e-51 -1.3411878e-51)
(0.075365191 -2.4082661e-34 -2.4082661e-34)
(0.075365159 1.7349594e-21 4.8176371e-34)
(0.075365051 1.7364603e-21 -2.4109023e-34)
(0.075364929 2.4112134e-34 3.4769275e-21)
(0.075364571 -1.7410236e-21 -1.7410236e-21)
(0.075364107 0 -1.7446526e-21)
(0.075362955 0 -2.432088e-34)
(0.075360971 1.7654305e-21 2.4511246e-34)
(0.07536195 -1.7729618e-21 3.5459235e-21)
(0.075365448 1.4726948e-33 -1.7690626e-21)
(0.075365742 1.7689868e-21 -1.7689868e-21)
(0.075364926 -1.7703655e-21 2.2399091e-52)
(0.075364708 0 0)
(0.075364047 1.7699994e-21 2.0564103e-52)
(0.075362903 1.7675222e-21 -1.7675222e-21)
(0.075362326 -1.7738099e-21 1.7738099e-21)
(0.075363558 -1.7846537e-21 -3.2520304e-52)
(0.075364385 0 -2.4874355e-34)
(0.075363253 1.7912878e-21 -2.545573e-37)
(0.075361658 1.7817088e-21 -1.7817088e-21)
(0.07536151 -3.5758961e-21 3.5758961e-21)
(0.075363831 -1.8024059e-21 5.0049224e-34)
(0.075365252 1.8108682e-21 -1.8108682e-21)
(0.075364861 1.8125861e-21 2.5140196e-34)
(0.075364559 2.5145646e-34 -2.5145646e-34)
(0.075363649 1.8123795e-21 1.8123795e-21)
(0.075362033 5.0239102e-34 -1.8092438e-21)
(0.075361578 -3.633187e-21 3.4387687e-51)
(0.075363828 0 -7.6341367e-34)
(0.075366366 0 5.1193051e-34)
(0.07536616 0 -5.1200252e-34)
(0.075366097 1.8452915e-21 -5.1240073e-34)
(0.075365894 1.8469933e-21 5.8027299e-54)
(0.075365621 0 0)
(0.075365188 -1.8532565e-21 1.8532565e-21)
(0.075363944 -2.5758643e-34 0)
(0.075362265 1.8707568e-21 0)
(0.075363191 0 -1.8805594e-21)
(0.075366387 0 -5.2147323e-34)
(0.075366797 -1.8785853e-21 1.8785853e-21)
(0.075366019 -2.6096181e-34 0)
(0.075365957 2.6070239e-34 0)
(0.075365757 -1.8831111e-21 -3.7662222e-21)
(0.075365502 1.8854831e-21 -1.5696117e-33)
(0.075365042 -7.8506238e-34 3.7734873e-21)
(0.075363979 -1.8869809e-21 -1.8869809e-21)
(0.075363204 0 2.6895172e-37)
(0.075364188 -1.9015499e-21 -2.6401129e-34)
(0.075364999 -2.6512107e-34 -1.9095431e-21)
(0.075364488 1.9141948e-21 0)
(0.075363842 -1.9190826e-21 0)
(0.075361873 1.9345997e-21 0)
(0.075362376 1.9427859e-21 -1.9427859e-21)
(0.07536585 -1.9355559e-21 -5.3691524e-34)
(0.075366574 0 1.9335187e-21)
(0.075365825 1.9354152e-21 0)
(0.075365728 1.9355766e-21 0)
(0.075365407 -1.9378186e-21 -1.9378186e-21)
(0.075365015 -1.9407933e-21 2.7580331e-37)
(0.075363947 0 1.9375821e-21)
(0.075362089 -1.9325375e-21 0)
(0.07536189 1.9492126e-21 0)
(0.075363167 1.9739181e-21 -1.9739181e-21)
(0.075363083 -1.9778068e-21 -5.4863546e-34)
(0.075362931 -3.9564735e-21 -5.4959811e-34)
(0.075362312 1.1024882e-33 5.5124412e-34)
(0.075360313 5.9711199e-21 1.9903733e-21)
(0.075361007 3.5442451e-52 -1.9888978e-21)
(0.075364586 -1.9814157e-21 5.4991814e-34)
(0.075365789 -3.9603149e-21 -5.4956892e-34)
(0.075365031 1.100269e-33 5.5013451e-34)
(0.075364761 3.9651075e-21 1.9825537e-21)
(0.07536378 -1.9830811e-21 0)
(0.075362819 1.9902529e-21 0)
(0.075363846 -2.0041469e-21 -2.0041469e-21)
(0.075365603 -2.0146249e-21 6.0087049e-51)
(0.075365536 4.0294677e-21 2.0147338e-21)
(0.075365438 0 0)
(0.075365134 0 0)
(0.075364336 -4.0094985e-21 -2.0047493e-21)
(0.075363999 4.2243213e-51 8.4486426e-51)
(0.075365073 4.0307241e-21 2.0153621e-21)
(0.075365972 0 0)
(0.075365364 0 0)
(0.075364655 -4.0188699e-21 -2.009435e-21)
(0.07536391 1.1375189e-50 2.2750377e-50)
(0.075364816 4.0904635e-21 2.0452317e-21)
(0.0753666 0 0)
(0.075366409 0 0)
(0.075366137 -4.1077929e-21 -2.0538965e-21)
(0.075365143 -2.0569916e-21 2.9231608e-37)
(0.075363252 4.1293424e-21 2.0646712e-21)
(0.07536348 2.0781478e-21 -2.0781478e-21)
(0.075365237 0 5.799629e-34)
(0.075365224 -4.1779368e-21 -5.8036182e-34)
(0.075365177 1.1592593e-33 5.7962964e-34)
(0.075364972 4.168335e-21 2.0841675e-21)
(0.075364475 -2.0774484e-21 0)
(0.075365793 0 0)
(0.075366801 2.0690505e-21 0)
(0.075366317 -2.0711109e-21 0)
(0.075366047 2.9418622e-37 0)
(0.075365062 2.070256e-21 -2.070256e-21)
(0.075364534 -2.0737071e-21 5.7553251e-34)
(0.07536606 2.0805706e-21 2.0805706e-21)
(0.075367669 2.0875248e-21 0)
(0.075367526 -2.087456e-21 0)
(0.075367382 -2.0866998e-21 0)
(0.075366943 5.7958866e-34 0)
(0.075366165 2.0867203e-21 0)
(0.075365246 -2.0981185e-21 0)
(0.075365824 -5.8809572e-34 0)
(0.075367539 2.1276282e-21 -2.1276282e-21)
(0.075367522 -2.1280382e-21 1.1812229e-33)
(0.075367485 2.1264755e-21 2.1264755e-21)
(0.075367351 2.1217585e-21 0)
(0.075367093 -2.1115886e-21 0)
(0.075366576 -2.1087015e-21 0)
(0.075365856 5.8810748e-34 0)
(0.075366836 2.127553e-21 0)
(0.075368256 -2.1322786e-21 0)
(0.075368149 3.0297094e-37 0)
(0.075368015 2.1313581e-21 -2.1313581e-21)
(0.07536755 -2.1312637e-21 5.9150664e-34)
(0.075366748 2.1321284e-21 2.1321284e-21)
(0.075365051 2.1437622e-21 0)
(0.075365122 -2.1505863e-21 0)
(0.075367815 -4.2821448e-21 -2.1410724e-21)
(0.075368353 1.1877646e-33 5.9388232e-34)
(0.075367866 4.2785969e-21 2.1392985e-21)
(0.075367281 -2.1417182e-21 0)
(0.075365547 3.0644808e-37 0)
(0.075365782 4.3230471e-21 0)
(0.075367376 6.1034626e-37 -2.147465e-21)
(0.075367374 -2.1509014e-21 -5.9756819e-34)
(0.075367353 0 2.1626641e-21)
(0.075366923 2.1525236e-21 0)
(0.075366759 0 0)
(0.075368102 -2.1451398e-21 0)
(0.075368576 0 0)
(0.075368125 0 0)
(0.0753676 0 0)
(0.075365972 -2.1370964e-21 0)
(0.075365892 1.4336828e-51 -2.1521477e-21)
(0.0753674 2.1732232e-21 3.0883359e-37)
(0.075367365 0 2.1756091e-21)
(0.075367298 2.1725605e-21 0)
(0.075366949 -6.0412585e-34 0)
(0.075365973 -2.1751579e-21 0)
(0.075367285 0 0)
(0.075369781 0 0)
(0.075369721 0 0)
(0.075369621 -2.1802858e-21 0)
(0.075369259 6.0605272e-34 -2.1825572e-21)
(0.075368539 2.1805218e-21 -3.0987078e-37)
(0.075369579 0 2.1733442e-21)
(0.075370089 2.1729097e-21 0)
(0.075369707 6.0305268e-34 0)
(0.075369247 -2.173671e-21 0)
(0.075368244 0 -2.1855408e-21)
(0.075369295 2.1974304e-21 1.2200531e-33)
(0.075371418 -2.2033422e-21 2.2033422e-21)
(0.075371402 1.2249689e-33 0)
(0.075371373 2.2040469e-21 -2.2040469e-21)
(0.075371277 -2.2006883e-21 -6.1140007e-34)
(0.075370968 0 2.1920724e-21)
(0.075370639 -2.18838e-21 0)
(0.075369286 -6.0769788e-34 0)
(0.075368921 2.1882038e-21 -2.1882038e-21)
(0.075370683 0 -2.1922417e-21)
(0.075371374 2.1987477e-21 2.1987477e-21)
(0.075370952 -2.2001595e-21 2.2001595e-21)
(0.075370437 -1.216663e-33 0)
(0.075368905 2.1835284e-21 0)
(0.075368883 -1.2213583e-33 0)
(0.075370285 -3.1614001e-37 0)
(0.07537026 6.198605e-34 2.2311409e-21)
(0.075370194 -3.1667235e-37 -3.1667235e-37)
(0.075369803 -2.2283121e-21 -4.4566242e-21)
(0.075368763 0 -2.2267399e-21)
(0.075370093 2.2282661e-21 4.4565322e-21)
(0.075372857 -6.2163624e-34 4.4796479e-21)
(0.075372782 -6.2354089e-34 -2.2466866e-21)
(0.075372405 7.9738341e-52 -2.2371915e-21)
(0.075371858 -6.2055243e-34 0)
(0.075369622 0 0)
(0.075370008 -4.4872573e-21 0)
(0.075373139 -6.1892409e-34 0)
(0.07537381 2.2260459e-21 -2.2260459e-21)
(0.075373255 -2.2292912e-21 -6.1934662e-34)
(0.07537256 6.1976575e-34 2.2330843e-21)
(0.075370337 2.2468363e-21 0)
(0.075370423 2.2508875e-21 0)
(0.075373587 6.2189708e-34 0)
(0.075374974 -6.2120889e-34 0)
(0.075374628 2.2351606e-21 0)
(0.075374253 -2.2333709e-21 0)
(0.075373644 -2.24277e-21 0)
(0.075374219 0 0)
(0.075374564 -2.2449896e-21 0)