/*--------------------------------*- C++ -*----------------------------------*\
  =========                 |
  \\      /  F ield         | OpenFOAM: The Open Source CFD Toolbox
   \\    /   O peration     | Website:  https://openfoam.org
    \\  /    A nd           | Version:  7
     \\/     M anipulation  |
\*---------------------------------------------------------------------------*/
FoamFile
{
    version     2.0;
    format      ascii;
    class       volScalarField;
    location    "0.00085";
    object      Uy;
}
// * * * * * * * * * * * * * * * * * * * * * * * * * * * * * * * * * * * * * //

dimensions      [0 1 -1 0 0 0 0];

internalField   nonuniform List<scalar> 
5000
(
1.0880394e-16
1.2034079e-16
0
0
-6.3038917e-17
7.1613292e-32
6.2945129e-17
0
0
-6.2934094e-17
-1.2605201e-16
6.3147297e-17
6.3286237e-17
-6.3431827e-17
0
-6.3692605e-17
7.5502561e-47
6.3878213e-17
0
6.3986449e-17
-6.4016603e-17
-6.403637e-17
1.2809151e-16
-6.4048986e-17
-6.4046023e-17
-5.2784335e-31
6.4031819e-17
6.4022585e-17
-1.2802178e-16
1.1095803e-30
-1.1184494e-30
6.3975e-17
1.2792309e-16
-1.2789862e-16
1.1084677e-30
-5.559435e-30
-2.2160299e-30
1.2779424e-16
-1.2776668e-16
-1.2774184e-16
1.2771426e-16
-4.3912738e-30
-1.2766186e-16
6.381852e-17
1.9141421e-16
-6.3792331e-17
-6.3778556e-17
-4.3677472e-30
-1.2750479e-16
0
6.3726244e-17
9.0542841e-33
-6.3700108e-17
1.2737546e-16
-2.2259601e-30
-1.2732324e-16
6.3647885e-17
-2.1974859e-30
-6.362179e-17
0
6.3595713e-17
2.1685775e-30
1.8067582e-32
6.3557303e-17
-6.3543596e-17
2.2209705e-30
6.3517544e-17
-6.3505233e-17
-6.3491514e-17
6.3479194e-17
6.3465522e-17
-6.3453133e-17
-6.3439567e-17
1.2685412e-16
6.3413634e-17
-6.3400987e-17
0
6.3374932e-17
-9.0042483e-33
-6.3348898e-17
6.333581e-17
-1.7997446e-32
1.7993739e-32
6.3296879e-17
6.3283862e-17
2.2028765e-30
-6.3257869e-17
0
-6.3231861e-17
-6.5582755e-30
-2.2095939e-30
6.3192806e-17
6.317977e-17
-1.2633345e-16
-4.3706668e-30
6.3140585e-17
0
0
-6.3101214e-17
-4.3750898e-30
1.261496e-16
-6.3061527e-17
-1.2609639e-16
0
6.3021321e-17
6.3007757e-17
-6.2994089e-17
-6.2980305e-17
0
0
6.2938095e-17
6.2923683e-17
0
-6.2894246e-17
2.1981749e-30
6.2863887e-17
-6.2848329e-17
1.7858073e-32
-2.1959805e-30
-5.4427641e-49
1.2556688e-16
-2.6758998e-32
-6.2749463e-17
0
-6.2714656e-17
6.2697027e-17
6.2679307e-17
-1.253231e-16
-6.2643822e-17
1.2525237e-16
6.260872e-17
-6.2591501e-17
-6.2574612e-17
-6.2558138e-17
0
6.2526784e-17
6.2512074e-17
-6.2498117e-17
-2.1666348e-30
6.2472759e-17
-6.2461488e-17
-6.2451227e-17
0
6.2433893e-17
6.2426867e-17
-6.2420949e-17
6.2416128e-17
-3.5477335e-32
-6.2409697e-17
6.240801e-17
-6.2407274e-17
4.3456268e-30
6.2408295e-17
-6.240987e-17
6.2412102e-17
6.2414906e-17
-6.2418186e-17
0
0
-6.2429906e-17
-6.2434112e-17
6.2438311e-17
6.2442411e-17
-6.244633e-17
-4.3308425e-30
6.2453316e-17
-6.2456246e-17
-6.2458722e-17
0
6.2462082e-17
6.2462828e-17
0
-6.246243e-17
-6.2461272e-17
0
6.2457012e-17
1.2993345e-29
-6.2450191e-17
6.2445848e-17
6.2440907e-17
-6.2435388e-17
-4.3116653e-30
4.2934679e-30
2.6609377e-32
6.240804e-17
-6.240002e-17
-8.6535845e-30
4.29072e-30
-4.2900886e-30
6.2364072e-17
0
0
-6.2333813e-17
-6.2323235e-17
0
0
6.2290334e-17
3.0301627e-49
-6.2267622e-17
0
6.2244444e-17
-6.2232717e-17
-1.7242141e-29
1.2441809e-16
-6.2197124e-17
-1.2910919e-29
-8.8353373e-33
-6.2161133e-17
6.2149088e-17
-8.8302032e-33
-8.5989484e-30
4.2986395e-30
-6.2100855e-17
0
6.207679e-17
4.2953092e-30
1.7222013e-29
6.2040868e-17
0
-6.2017084e-17
-6.2005252e-17
0
0
0
6.1958365e-17
4.2871408e-30
-6.1935199e-17
0
0
6.1900772e-17
6.1889368e-17
-6.1877991e-17
-6.1866634e-17
0
6.1843941e-17
6.1832584e-17
-6.1821203e-17
-6.1809783e-17
0
6.1786762e-17
-1.7153723e-29
-4.2832265e-30
6.1751493e-17
-6.1739456e-17
-6.1727241e-17
0
6.1702176e-17
-8.5737091e-30
6.1676102e-17
8.5524791e-30
-1.2329764e-16
6.1634667e-17
-8.5465869e-30
-2.1387559e-29
-4.2624436e-30
-6.1574144e-17
6.155795e-17
6.1541304e-17
0
-6.1506634e-17
-6.1488605e-17
0
6.1451177e-17
6.14318e-17
-1.22824e-16
-6.1391801e-17
6.1371227e-17
6.135031e-17
1.7012436e-29
-6.1307589e-17
6.1285868e-17
-4.2485931e-30
-6.124194e-17
6.1219838e-17
-4.2526956e-30
4.259855e-30
-1.7380918e-32
-4.2220569e-30
6.1110282e-17
0
0
-6.1047558e-17
-6.1027529e-17
0
0
0
0
6.0936605e-17
4.1988102e-30
-1.2181093e-16
2.5959472e-32
6.087779e-17
6.0865319e-17
-8.4489424e-30
-8.4301798e-30
-8.6449693e-33
-6.0824886e-17
-6.0817157e-17
-6.0810368e-17
1.21609e-16
1.8239861e-16
-6.0795449e-17
-1.2158441e-16
0
6.0788109e-17
6.0787174e-17
-6.0786923e-17
1.7276787e-32
-2.591557e-32
1.727745e-32
6.0791525e-17
6.0793859e-17
-6.0796567e-17
-1.2159919e-16
6.0802887e-17
-4.0372931e-49
6.0810039e-17
1.6852211e-29
-1.2163519e-16
0
0
1.2165761e-16
-3.3783851e-29
-1.2167133e-16
0
6.0841666e-17
6.084426e-17
-6.0846543e-17
8.6470904e-33
-8.4484278e-30
8.6474844e-33
6.0852015e-17
-6.0852349e-17
-6.0852259e-17
0
6.085078e-17
-8.4483312e-30
-6.0847541e-17
1.2169052e-16
-1.6877471e-29
-6.083939e-17
-1.6892894e-29
-1.2166363e-16
1.2165481e-16
6.0822594e-17
-6.0817395e-17
-8.641879e-33
-6.0805875e-17
0
0
6.0785989e-17
-8.4298835e-30
-1.2154231e-16
8.6349856e-33
1.8226558e-16
-6.0746826e-17
-6.0738218e-17
1.2145877e-16
-6.0720336e-17
6.0711088e-17
1.2140331e-16
-6.0692043e-17
-6.068227e-17
-6.0672344e-17
6.0662277e-17
5.2813732e-49
-6.0641759e-17
6.0631327e-17
-6.0620792e-17
6.0610162e-17
1.6792813e-29
1.722033e-32
6.0577779e-17
-1.2113369e-16
6.0555847e-17
1.6812085e-29
-1.6791798e-29
-6.0522551e-17
-1.2102273e-16
1.8150044e-16
1.677937e-29
-3.3552481e-29
1.6755919e-29
-1.2090995e-16
1.2088726e-16
-1.6763661e-29
-1.2084177e-16
0
0
6.0386675e-17
-8.3739237e-30
-6.036383e-17
-6.0352399e-17
6.0340965e-17
1.8098859e-16
-6.031809e-17
-6.0306651e-17
-1.713693e-32
-6.0283774e-17
0
1.205218e-16
1.2049894e-16
-6.0238038e-17
-1.2045322e-16
-6.0215187e-17
1.2040753e-16
1.203847e-16
-1.2036188e-16
-1.2033906e-16
0
1.2029346e-16
-6.013534e-17
-1.202479e-16
6.011257e-17
6.0101192e-17
-8.5392771e-33
8.3412956e-30
6.0067094e-17
-6.0055738e-17
-6.0044389e-17
6.0033045e-17
-8.3248872e-30
-8.5279871e-33
-8.3217444e-30
-5.9987726e-17
5.9976411e-17
-2.4976673e-29
-8.3239884e-30
-1.6636321e-29
-5.9931208e-17
5.9919922e-17
-8.3177189e-30
-1.6606771e-29
-8.5103265e-33
-1.1974967e-16
-5.9863579e-17
5.9852328e-17
1.1968217e-16
-8.3067784e-30
-1.1963722e-16
-5.9807382e-17
1.1959232e-16
5.9784944e-17
-5.9773733e-17
-5.9762529e-17
-1.6583264e-29
5.9740138e-17
0
0
5.9706594e-17
0
-5.9684261e-17
5.9673103e-17
8.4784731e-33
-1.6555364e-29
0
-5.9628528e-17
5.9617399e-17
5.9606276e-17
-1.1919032e-16
-5.9584046e-17
5.957294e-17
0
0
-5.9539656e-17
1.653836e-29
5.9517495e-17
0
0
-5.9484297e-17
2.4780256e-29
5.9462193e-17
0
0
0
0
0
0
0
0
1.1872602e-16
3.2944879e-29
-5.934103e-17
5.9330049e-17
-5.9319073e-17
5.9308104e-17
-1.6482489e-29
-5.9286181e-17
-1.6459551e-29
-5.9264281e-17
0
0
5.9231473e-17
1.6444368e-29
-5.9209629e-17
0
0
0
0
0
0
0
1.1824495e-16
-4.920875e-29
-1.1820149e-16
5.9089886e-17
8.3956356e-33
5.9068186e-17
-3.2747744e-29
-1.1809302e-16
-5.9035678e-17
-3.049535e-49
1.770421e-16
0
-1.1798482e-16
0
0
1.1792004e-16
-1.6352274e-29
-1.7681535e-16
5.8927676e-17
5.8916906e-17
-5.8906141e-17
5.8895382e-17
-5.8884628e-17
-1.6331372e-29
5.8863137e-17
-5.8852399e-17
0
-5.8830941e-17
5.8820219e-17
1.1761901e-16
-5.8798793e-17
-5.8788088e-17
-5.8777388e-17
-5.8766694e-17
1.1751201e-16
5.8745322e-17
-5.8734643e-17
0
5.8713303e-17
-5.8702641e-17
-5.8691984e-17
1.76044e-16
1.6675212e-32
-1.1732009e-16
5.8649411e-17
8.1414113e-30
5.8628156e-17
-1.6660106e-32
-1.1721384e-16
5.8596314e-17
0
-1.6265143e-29
-8.3225187e-33
-5.8553931e-17
5.8543349e-17
-1.6253386e-29
-8.1169087e-30
-8.3150032e-33
-5.8501072e-17
5.8490516e-17
2.9605407e-49
-1.6235795e-29
-8.3075065e-33
-1.1689669e-16
-8.1052047e-30
5.8427291e-17
0
0
-5.8395749e-17
-2.429374e-29
5.8374747e-17
-5.8364254e-17
8.1018399e-30
1.1753693e-48
-8.0989299e-30
5.8322335e-17
5.8311868e-17
8.0862851e-30
-5.829095e-17
0
0
5.8259612e-17
-5.8249177e-17
4.8482118e-29
5.8228321e-17
-5.8217902e-17
0
5.8197078e-17
5.8186673e-17
-5.8176274e-17
-5.816588e-17
0
5.8145108e-17
5.813473e-17
-1.1624871e-16
-5.8113989e-17
5.8103626e-17
5.8093268e-17
8.0559809e-30
5.8072568e-17
1.6122725e-29
-1.1610378e-16
0
0
0
5.8010591e-17
5.8000279e-17
0
-5.797967e-17
-8.0319949e-30
5.7959082e-17
0
0
-5.7928235e-17
-8.0331023e-30
8.023449e-30
-5.7897433e-17
5.7887175e-17
-2.408223e-29
-5.7866673e-17
0
-5.784619e-17
-8.029947e-30
5.7825726e-17
-5.7815501e-17
5.780528e-17
5.7795064e-17
-5.7784853e-17
0
5.7764443e-17
5.7754245e-17
-5.7744052e-17
-5.7733862e-17
0
-5.7713498e-17
5.7703322e-17
5.769315e-17
-5.7682983e-17
-1.1534564e-16
3.2023548e-29
1.7295753e-16
2.8324249e-49
-5.7632216e-17
-1.1524415e-16
3.1962631e-29
1.1520362e-16
-5.7591686e-17
5.7581566e-17
-5.757145e-17
-5.756134e-17
1.1510247e-16
0
0
-1.150419e-16
-2.2483997e-48
1.1500158e-16
0
0
-1.149412e-16
-2.2390008e-48
1.1490101e-16
0
0
-1.1484084e-16
-5.7410407e-17
1.1480081e-16
5.7390408e-17
0
-1.1474089e-16
3.1855728e-29
1.1470105e-16
-5.7340581e-17
0
5.7320726e-17
-5.7310817e-17
8.1429507e-33
5.7291038e-17
-5.7281169e-17
5.7271315e-17
5.7261475e-17
-5.725165e-17
-5.7241842e-17
1.5892201e-29
5.7222276e-17
-5.7212519e-17
-1.5884074e-29
5.7193061e-17
-5.7183361e-17
5.7173682e-17
5.7164023e-17
-5.7154386e-17
-5.714477e-17
1.5865302e-29
5.7125609e-17
-5.7116064e-17
8.1153279e-33
5.7097048e-17
-5.7087579e-17
5.7078136e-17
5.706872e-17
-5.7059331e-17
-1.1409994e-16
3.1694313e-29
1.1406267e-16
-5.7022064e-17
8.1020092e-33
1.1400722e-16
1.6198791e-32
-5.6985278e-17
0
5.6967075e-17
0
-5.6949003e-17
0
0
0
-5.6913257e-17
-2.259051e-49
5.6895586e-17
0
5.6878052e-17
-1.5791483e-29
-5.6860653e-17
0
0
0
-5.6826259e-17
1.5777157e-29
5.6809259e-17
0
5.6792387e-17
1.5759717e-29
-5.6775638e-17
0
5.6759008e-17
-5.6750736e-17
3.1528648e-29
5.6734271e-17
-5.6726078e-17
0
-5.6709762e-17
-1.5744917e-29
5.6693535e-17
0
5.6677386e-17
-5.6669337e-17
-3.1467433e-29
5.6653282e-17
-3.1450481e-29
-8.0486407e-33
1.5732872e-29
-8.0463703e-33
-5.6613316e-17
0
5.6597355e-17
-1.5705701e-29
-1.5703483e-29
1.8843388e-49
-1.5707079e-29
0
-1.1309863e-16
-1.5700381e-29
5.6533168e-17
-5.6525057e-17
1.5685591e-29
5.6508739e-17
5.6500525e-17
1.5686778e-29
-1.5684472e-29
5.6475606e-17
-5.6467193e-17
-5.6458718e-17
0
-5.6441562e-17
1.5670285e-29
5.6424094e-17
0
0
0
-1.1277603e-16
6.2620989e-29
1.1273858e-16
0
0
0
0
0
0
0
-1.125764e-16
3.127011e-29
1.1253192e-16
5.6254482e-17
-5.6242744e-17
-5.6230731e-17
1.5618728e-29
3.1182527e-29
5.619289e-17
-5.617962e-17
5.6165993e-17
5.6151977e-17
-5.6137547e-17
-5.6122696e-17
3.1143872e-29
5.6091644e-17
5.6075397e-17
-1.5550435e-29
-5.6041333e-17
-5.6023464e-17
5.6004998e-17
5.5985906e-17
-5.5966157e-17
5.5945718e-17
0
-5.5902637e-17
-5.5879922e-17
1.5494328e-29
5.5831954e-17
-5.580662e-17
5.5780329e-17
5.5753036e-17
-5.5724696e-17
5.569526e-17
1.5456973e-29
-5.5632898e-17
-5.5599866e-17
-7.8963362e-33
1.1105964e-16
3.0810546e-29
-5.5454071e-17
-5.5413899e-17
0
5.5328628e-17
0
0
0
5.5136355e-17
5.5083309e-17
-5.5028108e-17
-5.4970663e-17
0
5.4848685e-17
-1.5220202e-29
-5.4716622e-17
0
0
5.4497857e-17
-3.0206679e-29
-5.4336982e-17
0
0
5.4070819e-17
-2.9960217e-29
-5.3875376e-17
0
5.3664315e-17
-1.4870487e-29
1.4830668e-29
-1.4804796e-29
-5.3190879e-17
0
-5.2926142e-17
2.9292865e-29
5.2641062e-17
0
5.2334325e-17
-5.217241e-17
-5.2004565e-17
1.0366122e-16
1.4356959e-29
-1.029273e-16
1.4236732e-29
5.1070028e-17
0
0
5.0426247e-17
-1.3931473e-29
-4.995917e-17
0
4.9459874e-17
-4.9197621e-17
-4.892668e-17
4.8646838e-17
0
-4.8059582e-17
4.7751731e-17
2.6329531e-29
-2.6147673e-29
4.6768627e-17
-3.8656816e-29
4.6061372e-17
-4.5691516e-17
1.2575397e-29
-2.4945793e-29
-8.9028673e-17
1.2232786e-29
4.3670966e-17
0
0
0
-8.3671236e-17
-4.1344543e-17
8.1680282e-17
4.0322202e-17
0
0
3.8685086e-17
2.7901844e-47
-3.7522245e-17
0
-7.2600898e-17
-3.5666979e-17
7.0036448e-17
3.4354012e-17
0
-6.5957108e-17
-9.1708313e-33
9.461804e-17
-8.5425367e-30
-6.007046e-17
2.9258498e-17
1.6180567e-32
-2.7655086e-17
7.4534663e-30
1.4415911e-29
2.5123524e-17
0
2.3350492e-17
-1.2458076e-29
-4.3017118e-17
2.0561629e-17
-3.2628473e-29
-1.8615675e-17
3.5233225e-17
-2.3590235e-33
-1.55663e-17
0
0
0
-1.125749e-17
1.0137161e-17
1.7999421e-17
-7.8452225e-18
-1.8531797e-30
-1.5216644e-30
-4.2806233e-18
0
1.8105813e-18
-7.8637284e-35
1.42385e-18
-2.0001722e-18
-1.8323521e-30
4.6208687e-18
5.9547565e-18
-4.0583978e-30
-1.7336186e-17
0
-1.144068e-17
-1.2848655e-17
0
1.5706548e-17
1.7155916e-17
-1.8618488e-17
0
2.1582176e-17
0
0
-2.6119323e-17
2.302972e-29
2.9201308e-17
0
0
-3.390317e-17
-3.5490041e-17
3.708608e-17
3.8690901e-17
-4.0304121e-17
-4.1925343e-17
8.7108337e-17
4.5190194e-17
-1.3011252e-29
-4.8482216e-17
2.7815812e-29
2.8737169e-29
-5.3463978e-17
5.5134549e-17
-5.6809409e-17
5.8488128e-17
5.1304268e-32
-6.1855439e-17
1.2708634e-16
6.5233045e-17
6.6924632e-17
-1.37235e-16
-1.4062244e-16
7.2005355e-17
-7.3699482e-17
7.539317e-17
-4.2810491e-29
-1.5755504e-16
8.0467331e-17
-2.2801135e-29
2.3292646e-29
8.5522253e-17
0
0
-9.0546657e-17
-9.2212764e-17
0
9.5529509e-17
9.7179351e-17
0
1.0046003e-16
-2.8348387e-29
-1.0371279e-16
1.0532777e-16
-2.9663228e-29
-1.0853304e-16
0
-1.1170301e-16
-6.2891697e-29
1.1483484e-16
-1.1638559e-16
3.2695369e-29
1.1945509e-16
1.2097319e-16
3.3992782e-29
-1.2397445e-16
0
1.2692709e-16
-1.2838441e-16
3.6899528e-32
-7.2896351e-29
-1.3267687e-16
1.3408025e-16
0
2.7368837e-16
-3.0685536e-28
-1.3954927e-16
-7.8198606e-29
-2.8438693e-16
2.8698421e-16
2.895496e-16
-2.920826e-16
-2.9458278e-16
-1.4852484e-16
0
1.5094094e-16
3.0424635e-16
-2.1783522e-32
1.5443496e-16
-1.5556412e-16
-1.5667519e-16
1.5776799e-16
-3.1768467e-16
3.1979607e-16
2.6803906e-28
-3.2390561e-16
3.2590306e-16
-9.0994119e-29
1.6489082e-16
-1.6583106e-16
-1.6675149e-16
1.6765195e-16
4.6750162e-29
3.3878471e-16
-3.4046401e-16
-3.4210221e-16
3.43699e-16
4.791057e-29
1.7338366e-16
-9.6698838e-29
-1.7483332e-16
-4.8715139e-29
1.1956843e-46
-1.7684664e-16
-3.5494891e-16
1.7808044e-16
-2.3067555e-46
1.7922643e-16
2.9945388e-28
-1.8028365e-16
3.6155737e-16
-1.0060818e-28
-3.6340208e-16
1.7970533e-47
1.8253241e-16
0
0
1.8360698e-16
-1.8391877e-16
-3.6841437e-16
0
0
0
1.8512518e-16
1.8529528e-16
0
-1.8556353e-16
1.856615e-16
3.0934433e-28
-3.7156936e-16
0
0
0
1.8573629e-16
1.8566242e-16
-1.8556371e-16
1.8544007e-16
1.0290349e-28
-3.7023544e-16
0
0
3.6889092e-16
-5.2344471e-32
-1.8387059e-16
1.8354497e-16
-1.8319379e-16
1.8281701e-16
-1.0130579e-28
-3.6397285e-16
0
0
1.8054719e-16
1.800157e-16
0
0
-1.7826549e-16
-1.7763006e-16
0
1.7628116e-16
1.7556763e-16
-1.7482796e-16
1.7406219e-16
1.7327037e-16
-1.724525e-16
-1.7160858e-16
9.482144e-29
1.6984267e-16
-1.6892072e-16
-4.661883e-29
1.6699908e-16
0
1.6497483e-16
-9.1013508e-29
-1.6284718e-16
1.6174509e-16
-8.9177856e-29
-1.5946503e-16
0
1.5708422e-16
-4.3278219e-29
-2.1970523e-32
1.5332662e-16
-1.5202501e-16
-1.5069915e-16
0
2.9595094e-16
-1.6280726e-28
-1.4515728e-16
-2.0422892e-32
-2.8449292e-16
2.815139e-16
2.7849007e-16
-2.7542192e-16
-1.3615495e-16
0
2.6595695e-16
-2.1870854e-28
-2.5944868e-16
0
2.5277066e-16
6.9245445e-29
-1.2296893e-16
-3.3664403e-29
-2.3896346e-16
2.3542264e-16
2.8954361e-28
-2.2824111e-16
2.2460223e-16
-6.1301517e-29
-2.1723382e-16
-1.0675339e-16
2.0975227e-16
1.0298558e-16
-2.0216499e-16
1.9833556e-16
2.4288156e-28
-1.9061155e-16
1.867186e-16
-2.5380929e-29
8.9439262e-17
-9.7052669e-29
-2.5646846e-16
4.635156e-29
1.6302776e-16
-7.9517389e-17
-1.550338e-16
7.5513359e-17
-4.0812571e-29
7.1499503e-17
7.7185172e-29
-6.7482445e-17
1.3094718e-16
-5.2851223e-29
6.823829e-29
-3.2986454e-29
-5.7458819e-17
0
-5.3475288e-17
-5.149232e-17
0
0
0
0
0
3.976738e-17
3.7849024e-17
0
-3.405044e-17
3.2171465e-17
5.0485184e-29
-5.6915241e-17
0
0
0
2.1226135e-17
1.9462923e-17
-1.7718815e-17
-1.5994392e-17
2.8580435e-17
2.1004005e-29
-2.1889538e-17
0
1.5373094e-17
1.0146902e-29
-4.5192616e-18
2.9708792e-18
-1.4467906e-18
-4.2226997e-20
-8.3406693e-31
5.9061176e-18
0
0
-7.1561736e-18
-8.5040297e-18
0
-1.1121108e-17
-3.5214454e-33
-1.363222e-17
1.4847982e-17
4.8111217e-17
0
3.6670903e-17
3.8889455e-17
0
-6.4751353e-17
-4.5227705e-17
4.7235441e-17
-2.4595557e-17
-2.5547575e-17
7.9421754e-17
2.7374812e-17
4.0146346e-33
2.9101157e-17
-2.9927146e-17
-3.0728741e-17
-3.1506209e-17
3.5782374e-47
-3.2990109e-17
-3.3697234e-17
3.4381531e-17
0
7.1366574e-17
7.260302e-17
0
-3.747463e-17
-7.6060591e-17
-2.1401579e-29
-3.9082122e-17
-7.9158003e-17
8.0114241e-17
8.1033875e-17
4.0958874e-17
4.1383372e-17
0
-4.2181743e-17
-1.2766951e-16
4.2915525e-17
-1.761303e-45
-1.3076477e-16
8.7805454e-17
4.4203177e-17
4.4490056e-17
8.9527539e-17
-9.0049427e-17
-4.5273284e-17
4.5509881e-17
4.5734893e-17
4.5948696e-17
-1.3845501e-16
-4.6344182e-17
1.3957975e-16
4.6699235e-17
-4.6862469e-17
-9.4033252e-17
4.7162033e-17
-4.7298997e-17
7.8964687e-29
-7.919318e-29
-1.4298696e-16
4.7768532e-17
4.7867753e-17
9.5920527e-17
4.8046275e-17
-9.6252184e-17
-1.3699241e-32
-4.8267976e-17
4.8330524e-17
1.4516317e-16
-1.4531933e-16
-4.8486835e-17
1.4558763e-16
0
-1.4580096e-16
-4.8629524e-17
1.4596365e-16
-4.8675571e-17
-9.7385558e-17
-2.7035664e-29
5.4075623e-29
4.872294e-17
0
9.7451887e-17
9.7445403e-17
-4.8716445e-17
-4.8707283e-17
-9.7389941e-17
4.8680012e-17
4.8662437e-17
-9.7283543e-17
0
9.718632e-17
9.7129391e-17
-4.8533844e-17
-9.7001615e-17
2.6901726e-29
4.8426691e-17
-9.6772755e-17
4.8343404e-17
-1.6085411e-28
-9.6500889e-17
4.8200549e-17
0
9.6186827e-17
0
-1.0653757e-28
-4.7915428e-17
-9.570342e-17
1.4335639e-16
-1.3561856e-32
-9.5291052e-17
0
9.4993183e-17
4.7418216e-17
-9.4675499e-17
5.2466907e-29
4.7169423e-17
-9.4162732e-17
4.6991156e-17
-7.8083358e-29
-9.360604e-17
4.6704971e-17
-4.6604665e-17
9.3003732e-17
1.3918863e-16
0
-1.3853115e-16
-9.2127576e-17
1.3784299e-16
9.1657205e-17
-4.5706963e-17
-9.116566e-17
4.5455853e-17
4.5325831e-17
-9.0385894e-17
4.5057438e-17
8.9838367e-17
-4.4777877e-17
6.3427965e-33
-8.8972295e-17
-8.8672124e-17
1.3254909e-16
-4.4026827e-17
-7.3061798e-29
1.3111529e-16
0
-1.3011439e-16
-8.6399737e-17
4.3025052e-17
4.284712e-17
4.2666154e-17
0
4.2294765e-17
-2.3370999e-29
-8.382069e-17
2.3148207e-29
4.151345e-17
0
4.1103707e-17
-8.1787989e-17
-1.2204348e-16
8.0930452e-17
1.2073854e-16
4.0023947e-17
-3.9798513e-17
-7.9139977e-17
3.9338436e-17
-3.9103864e-17
-3.8866265e-17
7.7251201e-17
-7.6763816e-17
-3.8135277e-17
1.1365727e-16
7.5266746e-17
-3.7378133e-17
-1.113601e-16
8.1838432e-29
-8.1253045e-29
-3.6329132e-17
-4.0032251e-29
-3.578857e-17
3.5514386e-17
3.5237643e-17
3.4958431e-17
-3.467682e-17
-3.4392845e-17
1.0231968e-16
-3.3818006e-17
-6.7054428e-17
9.9702814e-17
9.3619024e-33
-3.2642251e-17
6.4686563e-17
3.2042417e-17
0
-3.1435245e-17
-3.11291e-17
-6.164271e-17
3.0512073e-17
-1.0058421e-28
-8.96676e-17
2.9575746e-17
2.9261057e-17
2.8945228e-17
-2.862834e-17
-2.8310464e-17
8.3975055e-17
-2.7672078e-17
-5.4703463e-17
-4.5020023e-29
-2.6709185e-17
5.2774316e-17
7.8194217e-17
1.4285117e-29
-1.4109515e-29
-3.5663546e-33
-2.4772872e-17
-4.8899601e-17
-2.4126861e-17
7.1412411e-17
-2.6068277e-29
-4.6319371e-17
0
0
2.2196775e-17
-1.2143482e-29
1.1963451e-29
2.1240416e-17
-4.1846934e-17
-2.0607569e-17
-2.2522334e-29
1.997926e-17
5.9001005e-17
1.9356106e-17
0
0
0
-5.4383013e-17
-3.5649415e-17
5.2570634e-17
-1.9126426e-29
-3.3853753e-17
0
0
3.2093953e-17
-3.4987411e-29
-1.7170898e-29
3.0373167e-17
-1.4904392e-17
-2.9249239e-17
-2.8694668e-17
1.40726e-17
4.1401372e-17
1.3530912e-17
0
0
0
-3.743937e-17
-2.4448029e-17
3.5913017e-17
-2.6023918e-29
-1.1473784e-17
1.5958403e-33
-1.0988602e-17
2.1500757e-17
-1.1673471e-29
-1.0283193e-17
2.0108636e-17
0
-5.3332423e-30
-1.8772066e-17
-1.8339276e-17
2.6869339e-17
1.749272e-17
-8.539379e-18
-4.6257074e-30
8.1350948e-18
-2.3813509e-17
-1.5487467e-17
7.5527404e-18
7.3649079e-18
-7.1803142e-18
-6.9989727e-18
6.8207956e-18
6.6456984e-18
-3.5933969e-30
3.4987826e-30
6.1391873e-18
0
5.8171821e-18
-1.1321553e-17
-1.6522288e-17
1.0714297e-17
1.0419784e-17
5.0655932e-18
-5.4659444e-30
-9.5716541e-18
4.6503743e-18
-4.5177999e-18
-4.3880383e-18
8.5221993e-18
-8.2740096e-18
-4.0156862e-18
3.8970483e-18
7.5621475e-18
3.6677856e-18
-7.1143261e-18
1.9135636e-30
-3.3437332e-18
-3.2408612e-18
9.4214517e-18
-3.0425575e-18
-2.947081e-18
8.5620964e-18
-3.9269248e-34
-8.0247227e-18
-2.5887829e-18
7.514832e-18
-2.4233067e-18
-4.0786538e-46
-3.7734922e-30
-4.3824145e-18
4.2360734e-18
4.093697e-18
-1.9776316e-18
2.1208267e-30
3.6901507e-18
-1.7815903e-18
-5.1597312e-18
-1.660046e-18
1.6019534e-18
0
1.4907985e-18
2.8754088e-18
-1.969966e-34
-4.0090057e-18
-1.2879326e-18
2.4820324e-18
-1.6990089e-34
-2.3031245e-18
2.2179041e-18
-1.7782776e-30
-2.0555688e-18
2.9674593e-18
1.9035746e-18
0
0
-8.4690584e-19
-2.4427608e-18
-7.8269966e-19
2.256643e-18
-8.0239153e-31
-1.3887055e-18
1.3338197e-18
1.2808496e-18
-6.1487389e-19
-1.1804552e-18
5.6645808e-19
5.4354741e-19
-1.5644072e-18
-5.0020196e-19
-7.9900596e-31
2.5523363e-31
4.4116488e-19
-4.2304845e-19
8.1131593e-19
1.1668892e-18
0
-1.0733424e-18
-6.8660186e-19
9.8738958e-19
-8.9576815e-35
-3.0167454e-19
5.7755693e-19
-2.7642656e-19
-2.6456481e-19
-2.8106868e-31
2.4225598e-19
4.6354139e-19
-2.2171258e-19
-4.2414094e-19
-4.0565211e-19
2.1538902e-31
1.854851e-19
-1.7736817e-19
3.3922618e-19
4.8654883e-19
0
-4.4449911e-19
-2.8318808e-19
4.0593092e-19
-1.4357894e-31
-1.2354864e-19
1.1804938e-19
1.1279351e-19
-5.9791535e-32
-2.0598415e-19
5.4645531e-32
1.8831118e-19
-1.0005288e-31
-9.5791125e-32
-1.6507053e-19
-2.3668539e-19
1.5093305e-19
-8.0209503e-32
-2.3015958e-31
6.6092614e-20
6.3218013e-20
1.2100674e-19
-1.7369614e-19
-5.5376866e-20
1.0597281e-19
-1.015323e-19
-2.7659539e-35
1.3979446e-19
4.4602776e-20
-4.2715646e-20
-1.2279003e-19
1.3069487e-31
7.5323774e-20
3.6167853e-20
-6.9396674e-20
-9.9810789e-20
9.5864408e-20
3.0759784e-20
3.2854819e-32
2.8421731e-20
-5.4528518e-20
1.4572797e-32
-2.5367918e-20
2.4495271e-20
-7.8517498e-32
-6.7874761e-20
6.5490347e-20
6.3509177e-20
0
0
0
-1.8550769e-20
-5.3313832e-20
-1.721719e-20
-1.8714797e-32
-1.6526998e-20
4.842625e-20
1.5728285e-20
-1.4978109e-20
-1.4330861e-20
-1.4237268e-20
2.8329172e-20
-1.3915835e-20
1.2873485e-20
-4.0694103e-32
-2.5197458e-20
3.8219924e-20
2.3826602e-20
0
-2.1920193e-20
-1.2077186e-32
1.1298139e-20
-3.261809e-20
-1.0338039e-20
1.0688936e-20
0
0
9.9548325e-21
1.9201797e-20
-2.1993543e-32
-1.8929532e-20
-9.2911103e-21
9.2363472e-21
-8.9506997e-21
9.1615439e-21
1.429101e-48
-1.4466337e-32
2.412103e-20
0
0
-1.7252395e-20
-1.6322234e-20
-7.5767094e-21
8.4634968e-33
2.3752365e-20
-9.1192026e-33
-1.5253519e-20
0
1.4723444e-20
7.2039996e-21
-1.4942259e-20
7.4532201e-21
6.8177249e-21
-1.8818843e-20
6.2441573e-21
-2.1352663e-32
-1.3189212e-20
1.9953768e-20
1.2911152e-20
0
0
0
-1.4975166e-20
-1.0393297e-20
1.5842654e-20
1.0236427e-20
0
-7.7632871e-21
4.4401819e-33
4.2227774e-21
-8.4753736e-21
3.8934203e-21
-3.172806e-21
-2.8313667e-21
9.1509211e-21
-6.4976962e-21
-6.4180664e-21
2.9305677e-21
-2.4913976e-21
4.2083528e-21
6.0491644e-21
0
-6.1901459e-21
-3.5721041e-21
1.4399076e-21
1.2407227e-21
-1.3233544e-33
1.1646445e-21
-3.4615884e-33
-8.1439607e-22
-3.2073758e-34
-2.5908674e-50
2.8782964e-22
0
3.186803e-23
4.5322215e-22
1.5850968e-21
-2.2240101e-21
-2.5085813e-21
0
2.1178807e-21
2.5650771e-21
-3.1099212e-21
1.7901235e-21
1.9449921e-21
-6.187045e-21
4.3999719e-21
4.7882833e-21
-2.625521e-21
-5.6379145e-21
-2.949848e-21
9.1757738e-21
3.2008714e-21
5.6148811e-33
-7.0157794e-21
-2.042161e-36
1.0984554e-20
-7.5221291e-21
-1.1643599e-20
-3.9617886e-21
1.198416e-20
8.0348606e-21
-1.2219616e-20
9.2126821e-33
8.3622802e-21
4.163562e-21
-2.2965264e-33
-8.3037532e-21
4.6600495e-33
-4.2076785e-21
-4.1642187e-21
1.2321655e-20
4.1014334e-21
4.6109311e-33
-8.3782463e-21
1.3810629e-32
1.2162951e-20
-7.9835366e-21
4.4383231e-33
4.5286541e-33
9.2909651e-33
4.218045e-21
-1.2499002e-20
4.1016688e-21
6.7865138e-33
1.3648976e-32
1.2490532e-20
-4.2620482e-21
-8.7141428e-21
4.8935163e-33
-4.4226946e-21
-4.4388555e-21
8.9445673e-21
9.0282664e-21
-5.0542489e-33
-1.3773988e-20
5.1656464e-33
4.7433228e-21
-9.6227894e-21
4.8340875e-21
4.8372995e-21
-2.6968674e-33
2.7260554e-33
-4.9555825e-21
9.9321492e-21
-4.9585482e-21
1.654634e-32
1.6687263e-32
-1.5172376e-20
1.0094842e-20
-1.4166033e-36
-9.8458296e-21
4.8970187e-21
1.4723698e-20
4.9178163e-21
-1.4629874e-20
5.3189039e-33
4.7067857e-21
-9.3228746e-21
9.3070787e-21
2.3164666e-32
-4.5646314e-21
4.450394e-21
-4.3443099e-21
8.5423318e-21
-4.2315122e-21
-1.2624937e-20
0
0
7.9651043e-21
1.1061744e-36
-7.6685616e-21
3.8115823e-21
1.1397906e-20
3.7559109e-21
-1.1046977e-20
-1.0270875e-36
-3.9664942e-33
-7.1388285e-21
1.0740778e-20
1.7777699e-32
-3.5034293e-21
3.4541732e-21
3.4363647e-21
-3.8434495e-33
-3.4988242e-21
6.9936908e-21
-6.9025794e-21
1.1327047e-32
6.7479455e-21
-1.0099566e-20
-6.7418082e-21
3.3854284e-21
1.0142524e-20
3.3276653e-21
-3.242069e-21
0
3.0869917e-21
-3.0296949e-21
-8.9439155e-21
-1.6137229e-33
5.5715217e-21
-2.6345862e-21
-2.4853367e-21
4.6982674e-21
-2.2058598e-21
2.028205e-21
3.6398962e-21
-4.80436e-21
4.6443718e-33
-2.6543576e-33
-1.9349129e-21
1.3978744e-21
4.127994e-22
1.384466e-22
-1.2361168e-34
3.695194e-22
-1.3274379e-21
1.9565222e-21
3.8748705e-21
0
-1.8298349e-21
1.1566807e-33
6.7194078e-37
-7.9817892e-21
-2.9502753e-21
9.6276782e-21
-3.4419674e-21
1.2258711e-48
1.1705219e-20
-4.120626e-21
-1.2969399e-20
-4.4904919e-21
9.269425e-21
-4.7590913e-21
4.8762977e-21
-1.6645178e-32
-1.0217839e-20
1.5551449e-20
5.751711e-33
-2.2849536e-32
1.0348944e-20
-1.0496e-20
-5.8688769e-33
5.2481148e-21
-1.0324888e-20
-4.9518334e-21
0
0
9.5283148e-21
-1.0464611e-32
-2.6370433e-36
-5.0115449e-33
-4.3022412e-21
-4.0966593e-21
3.9889129e-21
3.9362091e-21
-7.7050976e-21
7.4596653e-21
-3.9742372e-33
-6.8300024e-21
6.5483548e-21
1.0597551e-32
-3.4368629e-33
2.9901083e-21
-5.8085567e-21
2.8469986e-21
-6.2144517e-33
-5.4652738e-21
0
5.2397047e-21
2.6156629e-21
-5.2633471e-21
-2.6469339e-21
2.654816e-21
-4.4403964e-33
-2.708188e-21
0
0
5.8575295e-21
5.9874139e-21
0
-6.3516049e-21
-3.2951591e-21
3.409905e-21
-3.5151698e-21
3.6160654e-21
0
-7.7297304e-21
0
0
4.1842352e-21
-4.7175702e-33
-4.3455674e-21
0
4.356695e-21
2.3293e-33
-4.4953691e-21
0
9.2262211e-21
9.762343e-21
-4.705358e-21
-5.0869536e-33
4.7586778e-21
-9.9059877e-21
-1.0103922e-20
9.5570591e-21
1.3118596e-36
1.010607e-32
1.2797328e-36
-9.4038304e-21
4.5383272e-21
-4.7360193e-33
4.2959038e-21
-4.4109258e-21
-1.2397796e-20
1.1930925e-20
3.881953e-21
-3.6135278e-21
-4.010017e-33
-3.6221408e-21
7.0784513e-21
6.7639305e-21
-6.2342836e-21
-9.6173421e-33
-2.7641894e-21
-2.6569943e-21
5.0437434e-21
-2.3365533e-21
2.3471238e-33
-1.0662695e-33
1.7704761e-21
3.2657881e-21
-2.9423752e-21
-2.5402473e-21
0
9.0440463e-22
8.7579195e-34
-1.3671527e-21
-6.2555259e-34
1.2448304e-21
4.6976597e-22
0
1.7598083e-22
3.7764228e-34
2.289692e-22
2.965284e-22
-1.136794e-21
2.6144907e-34
1.1362692e-21
-6.7394802e-22
-1.5713303e-21
8.6076679e-22
1.7506422e-21
8.6391317e-22
0
-1.7939248e-21
9.5689919e-22
3.0875335e-21
-1.0623825e-21
-1.0391909e-21
-1.9886723e-21
-9.6134315e-22
1.9024194e-21
9.6242938e-22
9.7437851e-22
-1.0626029e-33
-9.0940085e-22
-8.528665e-22
-1.6113087e-21
-7.7153431e-22
0
0
0
1.1477842e-21
1.0318322e-21
-9.0202511e-22
-4.2102615e-34
-3.4175772e-34
2.7433026e-34
4.3263206e-34
-2.6594428e-22
0
-5.0714296e-23
-1.0007054e-22
1.6797242e-22
-2.3884943e-22
-3.1693095e-22
0
0
9.9405855e-22
-1.8707025e-33
-1.4415049e-33
1.4875113e-21
-1.6316065e-21
-1.6993612e-21
0
1.8288414e-21
-1.1029428e-33
-2.1723689e-21
2.3169347e-21
1.3274259e-33
-2.4193053e-21
0
2.5564289e-21
1.3407817e-21
-2.7875521e-21
1.4199265e-21
3.1782232e-33
-2.8972191e-21
2.975858e-21
3.0852873e-21
0
0
0
-3.0640516e-21
-3.121824e-21
3.2472982e-21
0
-3.4231322e-21
0
-1.6703833e-21
3.2870992e-21
1.6340157e-21
-1.6441319e-21
3.3458711e-21
1.7058817e-21
-3.465162e-21
-1.7497023e-21
-1.9419419e-33
1.7282959e-21
-3.7880001e-33
9.6463085e-37
3.4086398e-21
0
-1.7506903e-21
-3.5403642e-21
-1.7818419e-21
0
0
0
-1.7559929e-21
3.5400146e-21
1.8009033e-21
-1.8212914e-21
-1.8174202e-21
1.800164e-21
1.7861625e-21
-3.5865228e-21
0
3.6881575e-21
3.6883443e-21
0
0
-3.6354447e-21
-2.0387455e-33
-1.8554866e-21
-1.8555563e-21
1.8354499e-21
-1.8122348e-21
1.7955513e-21
3.5686254e-21
1.7817296e-21
0
-3.5687161e-21
-1.9595359e-33
1.7304586e-21
-1.6901785e-21
-1.6661231e-21
-3.3304026e-21
3.3493219e-21
1.6594684e-21
-4.5726169e-37
1.5447196e-21
-2.9739999e-21
1.4652021e-21
-1.476025e-21
-4.2427382e-50
1.4626907e-21
-2.8135624e-21
2.6669968e-21
2.5355708e-21
0
-1.2454886e-21
-2.4998513e-21
6.8008879e-34
1.1674257e-21
1.0984075e-21
-2.0896537e-21
-2.0523987e-21
1.0305445e-21
2.0594174e-21
2.0048161e-21
-9.4299704e-22
-1.7644178e-21
8.4814871e-22
-8.4532781e-22
1.4274375e-33
8.558255e-22
-1.6581422e-21
1.565072e-21
8.2408169e-34
-4.0437775e-33
1.4681679e-21
-1.477718e-21
-3.2286416e-33
7.0352286e-22
-1.3769366e-21
6.9588501e-22
-2.035199e-37
3.2184686e-33
7.0470327e-22
-1.3235874e-21
1.4084168e-33
-3.6262548e-34
6.9943501e-22
-2.0980821e-37
-1.4989437e-21
1.4571033e-21
3.9278877e-37
-2.9726882e-33
1.3669636e-21
-1.4407778e-21
-1.6777617e-33
1.5471116e-21
-7.6811928e-22
-7.440214e-22
-7.2397116e-22
7.2447626e-22
-8.2658553e-34
-1.5419066e-21
0
0
1.4550463e-21
2.0036666e-37
-1.4257413e-21
7.3822783e-22
-8.4035235e-34
7.5061943e-22
1.5861732e-33
-1.3482942e-21
0
-6.53707e-22
1.3266618e-21
6.600798e-22
-1.4043304e-33
5.8713664e-22
-1.097387e-21
5.3430042e-22
-5.9571773e-34
-1.0767502e-21
0
0
4.3945147e-22
-2.2070929e-34
3.8148093e-22
-3.8339267e-22
-1.1532013e-21
1.1011761e-21
3.2632529e-22
-5.5467503e-22
2.4802722e-22
4.1341289e-34
2.6016231e-22
-1.4971331e-37
-8.1290232e-34
2.0269497e-22
-3.3506328e-22
-1.6338555e-22
0
-2.0618092e-22
2.1117709e-22
1.9207462e-22
1.6304237e-22
-3.4681654e-34
2.0371291e-34
-2.497601e-34
-5.1891465e-22
2.7061199e-22
4.2558033e-34
-4.8717666e-22
3.7563415e-38
3.1620814e-22
7.5191214e-22
8.4334454e-22
-8.8366033e-22
-4.884933e-34
-4.4619571e-22
-4.8564344e-22
1.1028235e-21
-1.2430798e-21
-6.7588761e-22