/*--------------------------------*- C++ -*----------------------------------*\
  =========                 |
  \\      /  F ield         | OpenFOAM: The Open Source CFD Toolbox
   \\    /   O peration     | Website:  https://openfoam.org
    \\  /    A nd           | Version:  7
     \\/     M anipulation  |
\*---------------------------------------------------------------------------*/
FoamFile
{
    version     2.0;
    format      ascii;
    class       surfaceScalarField;
    location    "0.00021";
    object      phi;
}
// * * * * * * * * * * * * * * * * * * * * * * * * * * * * * * * * * * * * * //

dimensions      [1 0 -1 0 0 0 0];

internalField   nonuniform List<scalar> 
4999
(
-0.49594716
-0.49455474
-0.49316206
-0.49176947
-0.49037822
-0.48898544
-0.48759393
-0.48620191
-0.48481025
-0.4834186
-0.48202708
-0.48063565
-0.47924431
-0.47785308
-0.47646194
-0.47507091
-0.47367997
-0.47228913
-0.47089839
-0.46950775
-0.46811721
-0.46672677
-0.46533642
-0.46394618
-0.46255603
-0.46116598
-0.45977603
-0.45838618
-0.45699642
-0.45560677
-0.45421721
-0.45282774
-0.45143838
-0.45004911
-0.44865994
-0.44727087
-0.44588189
-0.44449302
-0.44310424
-0.44171555
-0.44032697
-0.43893848
-0.43755009
-0.4361618
-0.43477361
-0.43338551
-0.43199752
-0.43060962
-0.42922181
-0.42783411
-0.4264465
-0.42505899
-0.42367158
-0.42228427
-0.42089706
-0.41950994
-0.41812292
-0.416736
-0.41534918
-0.41396245
-0.41257583
-0.4111893
-0.40980287
-0.40841654
-0.4070303
-0.40564417
-0.40425813
-0.40287219
-0.40148635
-0.4001006
-0.39871496
-0.39732941
-0.39594396
-0.39455861
-0.39317335
-0.3917882
-0.39040314
-0.38901818
-0.38763332
-0.38624856
-0.38486389
-0.38347933
-0.38209486
-0.38071049
-0.37932622
-0.37794205
-0.37655797
-0.375174
-0.37379012
-0.37240634
-0.37102266
-0.36963908
-0.3682556
-0.36687221
-0.36548893
-0.36410574
-0.36272266
-0.36133967
-0.35995678
-0.35857399
-0.3571913
-0.35580871
-0.35442622
-0.35304382
-0.35166153
-0.35027934
-0.34889724
-0.34751525
-0.34613335
-0.34475156
-0.34336986
-0.34198827
-0.34060677
-0.33922538
-0.33784408
-0.33646289
-0.33508179
-0.3337008
-0.33231991
-0.33093911
-0.32955842
-0.32817783
-0.32679734
-0.32541695
-0.32403666
-0.32265647
-0.32127638
-0.3198964
-0.31851652
-0.31713673
-0.31575705
-0.31437747
-0.31299799
-0.31161862
-0.31023934
-0.30886017
-0.3074811
-0.30610213
-0.30472327
-0.3033445
-0.30196584
-0.30058728
-0.29920883
-0.29783047
-0.29645222
-0.29507407
-0.29369603
-0.29231809
-0.29094025
-0.28956251
-0.28818488
-0.28680735
-0.28542993
-0.28405261
-0.28267539
-0.28129828
-0.27992127
-0.27854436
-0.27716756
-0.27579087
-0.27441428
-0.27303779
-0.27166141
-0.27028513
-0.26890896
-0.26753289
-0.26615693
-0.26478107
-0.26340532
-0.26202968
-0.26065414
-0.2592787
-0.25790338
-0.25652815
-0.25515304
-0.25377803
-0.25240313
-0.25102833
-0.24965364
-0.24827906
-0.24690458
-0.24553021
-0.24415595
-0.24278179
-0.24140775
-0.24003381
-0.23865997
-0.23728625
-0.23591263
-0.23453912
-0.23316572
-0.23179242
-0.23041924
-0.22904616
-0.22767319
-0.22630033
-0.22492758
-0.22355493
-0.2221824
-0.22080997
-0.21943765
-0.21806544
-0.21669334
-0.21532134
-0.21394946
-0.21257768
-0.21120602
-0.20983446
-0.20846301
-0.20709167
-0.20572044
-0.20434932
-0.2029783
-0.2016074
-0.2002366
-0.19886591
-0.19749533
-0.19612486
-0.19475449
-0.19338423
-0.19201408
-0.19064404
-0.1892741
-0.18790427
-0.18653455
-0.18516492
-0.18379541
-0.182426
-0.18105669
-0.17968748
-0.17831837
-0.17694937
-0.17558046
-0.17421165
-0.17284294
-0.17147432
-0.1701058
-0.16873737
-0.16736903
-0.16600078
-0.16463261
-0.16326453
-0.16189653
-0.16052861
-0.15916076
-0.15779299
-0.15642529
-0.15505766
-0.15369009
-0.15232259
-0.15095514
-0.14958774
-0.1482204
-0.1468531
-0.14548584
-0.14411863
-0.14275145
-0.1413843
-0.14001718
-0.13865008
-0.13728301
-0.13591595
-0.1345489
-0.13318187
-0.13181484
-0.13044783
-0.12908082
-0.12771381
-0.12634681
-0.12497982
-0.12361283
-0.12224586
-0.1208789
-0.11951197
-0.11814507
-0.1167782
-0.11541139
-0.11404464
-0.11267797
-0.1113114
-0.10994495
-0.10857865
-0.10721252
-0.1058466
-0.10448092
-0.10311553
-0.10175047
-0.10038578
-0.099021538
-0.09765779
-0.096294609
-0.094932069
-0.093570252
-0.092209248
-0.090849154
-0.089490074
-0.088132122
-0.08677542
-0.085420102
-0.084066307
-0.082714188
-0.081363907
-0.080015635
-0.078669557
-0.077325868
-0.075984772
-0.074646489
-0.073311247
-0.071979289
-0.070650867
-0.069326247
-0.068005707
-0.066689535
-0.065378034
-0.064071516
-0.062770304
-0.061474736
-0.060185156
-0.058901921
-0.057625398
-0.056355961
-0.055093997
-0.053839895
-0.052594058
-0.05135689
-0.050128804
-0.048910216
-0.047701548
-0.046503224
-0.045315668
-0.044139307
-0.042974567
-0.041821874
-0.040681649
-0.039554312
-0.038440275
-0.037339946
-0.036253726
-0.035182006
-0.034125169
-0.033083587
-0.032057618
-0.031047609
-0.030053892
-0.029076785
-0.028116588
-0.027173586
-0.026248044
-0.02534021
-0.02445031
-0.023578554
-0.022725126
-0.021890192
-0.021073895
-0.020276356
-0.019497673
-0.018737923
-0.017997157
-0.017275405
-0.016572673
-0.015888947
-0.015224186
-0.014578329
-0.013951293
-0.013342973
-0.012753243
-0.012181956
-0.011628945
-0.011094023
-0.010576987
-0.010077613
-0.0095956626
-0.0091308793
-0.0086829926
-0.0082517173
-0.0078367551
-0.0074377951
-0.0070545154
-0.0066865836
-0.006333658
-0.0059953889
-0.005671419
-0.0053613851
-0.0050649185
-0.0047816464
-0.0045111928
-0.0042531792
-0.0040072256
-0.0037729518
-0.0035499776
-0.003337924
-0.0031364141
-0.0029450733
-0.0027635307
-0.0025914194
-0.0024283768
-0.0022740459
-0.0021280754
-0.00199012
-0.0018598414
-0.0017369083
-0.0016209967
-0.0015117906
-0.0014089821
-0.0013122712
-0.0012213669
-0.0011359866
-0.0010558565
-0.0009807117
-0.0009102963
-0.00084436329
-0.00078267467
-0.00072500137
-0.00067112318
-0.00062082873
-0.00057391534
-0.0005301889
-0.00048946376
-0.00045156257
-0.00041631607
-0.00038356295
-0.00035314965
-0.00032493014
-0.00029876569
-0.00027452469
-0.00025208241
-0.00023132075
-0.00021212802
-0.00019439873
-0.0001780333
-0.00016293787
-0.00014902405
-0.00013620866
-0.00012441357
-0.00011356538
-0.00010359528
-9.4438776e-05
-8.6035507e-05
-7.832902e-05
-7.1266572e-05
-6.4798938e-05
-5.8880214e-05
-5.3467635e-05
-4.8521402e-05
-4.4004502e-05
-3.9882554e-05
-3.6123643e-05
-3.2698177e-05
-2.9578737e-05
-2.6739943e-05
-2.4158324e-05
-2.1812189e-05
-1.9681517e-05
-1.7747836e-05
-1.5994126e-05
-1.4404712e-05
-1.2965172e-05
-1.1662252e-05
-1.0483773e-05
-9.418563e-06
-8.4563748e-06
-7.5878208e-06
-6.8043072e-06
-6.0979728e-06
-5.4616331e-06
-4.8887267e-06
-4.3732663e-06
-3.909793e-06
-3.4933332e-06
-3.1193593e-06
-2.783753e-06
-2.4827708e-06
-2.2130128e-06
-1.9713937e-06
-1.7551154e-06
-1.5616423e-06
-1.3886789e-06
-1.234148e-06
-1.0961714e-06
-9.7305261e-07
-8.6325981e-07
-7.654112e-07
-6.7826113e-07
-6.006876e-07
-5.3168048e-07
-4.7033126e-07
-4.1582331e-07
-3.6742303e-07
-3.2447203e-07
-2.8637969e-07
-2.5261661e-07
-2.2270869e-07
-1.962315e-07
-1.7280542e-07
-1.5209106e-07
-1.3378535e-07
-1.1761771e-07
-1.0334675e-07
-9.0757304e-08
-7.9657738e-08
-6.9877359e-08
-6.1264352e-08
-5.3683756e-08
-4.7015646e-08
-4.1153491e-08
-3.6002881e-08
-3.1479949e-08
-2.7510481e-08
-2.4028701e-08
-2.0976415e-08
-1.8302131e-08
-1.5960346e-08
-1.3910835e-08
-1.2118143e-08
-1.055092e-08
-9.1815835e-09
-7.9858253e-09
-6.9421944e-09
-6.0317973e-09
-5.2380926e-09
-4.5465143e-09
-3.9442085e-09
-3.4199417e-09
-2.9638372e-09
-2.567262e-09
-2.2226132e-09
-1.9232616e-09
-1.6634019e-09
-1.4379324e-09
-1.2424195e-09
-1.0729124e-09
-9.2607877e-10
-7.9896267e-10
-6.8894934e-10
-5.9382899e-10
-5.1154103e-10
-4.4042991e-10
-3.7904613e-10
-3.2603253e-10
-2.80302e-10
-2.408953e-10
-2.0692426e-10
-1.7764989e-10
-1.5246115e-10
-1.3074697e-10
-1.1205259e-10
-9.6022745e-11
-8.2280849e-11
-7.0421891e-11
-6.0246919e-11
-5.1521454e-11
-4.4018122e-11
-3.7637449e-11
-3.2144953e-11
-2.742695e-11
-2.3405278e-11
-1.9937829e-11
-1.7003288e-11
-1.4473756e-11
-1.2320811e-11
-1.0494716e-11
-8.9386276e-12
-7.6170181e-12
-6.4446226e-12
-5.4924953e-12
-4.6753712e-12
-3.9648285e-12
-3.3395509e-12
-2.8066438e-12
-2.4016344e-12
-1.9966251e-12
-1.7053026e-12
-1.4708235e-12
-1.2292389e-12
-1.0373924e-12
-8.7396756e-13
-7.2475359e-13
-6.4659389e-13
-5.4001248e-13
-4.405365e-13
-3.5527137e-13
-3.126388e-13
-2.5579538e-13
-2.2026825e-13
-1.6342483e-13
-1.4921397e-13
-8.5265128e-14
-8.5265128e-14
-7.8159701e-14
-2.8421709e-14
-4.2632564e-14
-2.1316282e-14
-1.4210855e-14
-2.8421709e-14
-2.1316282e-14
-2.8421709e-14
-1.4210855e-14
-1.0009275e-42
7.1054274e-15
-3.0027824e-43
-2.1693675e-30
7.1054274e-15
7.1054274e-15
6.3108872e-30
-1.4210855e-14
-7.1054274e-15
-7.1054274e-15
-7.1054274e-15
-7.1054274e-15
9.4663309e-30
-7.1054274e-15
-2.8421709e-14
-3.5527137e-14
-1.4210855e-14
-3.5527137e-14
-4.9737992e-14
-2.8421709e-14
-2.1316282e-14
-2.1316282e-14
-2.8421709e-14
-2.8421709e-14
-5.6843419e-14
-7.1054274e-15
-4.2632564e-14
-2.8421709e-14
-5.6843419e-14
-5.6843419e-14
-2.1316282e-14
-1.4210855e-14
-4.2632564e-14
-3.5527137e-14
-7.1054274e-15
-2.1316282e-14
-2.8421709e-14
-3.5527137e-14
-5.6843419e-14
-2.8421709e-14
-3.5527137e-14
-4.2632564e-14
-3.5527137e-14
-1.4210855e-14
-7.1054274e-15
-7.1054274e-15
2.1316282e-14
1.4210855e-14
-7.1054274e-15
-7.1054274e-15
5.1947618e-30
7.1054274e-15
1.2621774e-29
7.1054274e-15
2.1316282e-14
2.1316282e-14
1.4210855e-14
2.8421709e-14
7.1054274e-15
1.4210855e-14
4.2632564e-14
1.4210855e-14
4.2632564e-14
1.4210855e-14
-7.1054274e-15
6.0800891e-30
2.1316282e-14
1.4210855e-14
1.4210855e-14
2.8421709e-14
2.1316282e-14
7.1054274e-15
-7.1054274e-15
1.4210855e-14
-7.1054274e-15
-7.1054274e-15
-1.5777218e-30
-6.3108872e-30
-1.4210855e-14
-2.1316282e-14
-1.4210855e-14
-3.5527137e-14
-3.5527137e-14
-3.5527137e-14
-2.8421709e-14
-1.4210855e-14
-2.1316282e-14
-1.4210855e-14
-2.1316282e-14
-7.1054274e-15
-1.4210855e-14
7.1054274e-15
1.4210855e-14
7.1054274e-15
7.1054274e-15
1.4210855e-14
2.8421709e-14
4.2632564e-14
2.8421709e-14
2.8421709e-14
5.6843419e-14
2.8421709e-14
2.1316282e-14
2.8421709e-14
1.4210855e-14
7.1054274e-15
1.4210855e-14
3.5527137e-14
4.2632564e-14
4.9737992e-14
3.5527137e-14
3.5527137e-14
4.9737992e-14
2.1316282e-14
7.1054274e-15
-1.5777218e-29
1.4210855e-14
2.1316282e-14
1.4210855e-14
7.1054274e-15
2.1316282e-14
1.4210855e-14
7.1054274e-15
-3.5527137e-14
-2.1316282e-14
-3.5527137e-14
-2.8421709e-14
-2.8421709e-14
-3.5527137e-14
-1.4210855e-14
-7.1054274e-15
-2.8421709e-14
-1.4210855e-14
-7.1054274e-15
7.1054274e-15
-1.4210855e-14
-7.1054274e-15
-7.1054274e-15
-1.4210855e-14
-2.8421709e-14
-2.1316282e-14
-1.4210855e-14
-2.1316282e-14
-7.1054274e-15
-1.4210855e-14
-2.1316282e-14
-1.4210855e-14
-1.4210855e-14
0
-1.4210855e-14
3.8799331e-30
7.1054274e-15
-1.4210855e-14
-7.1054274e-15
1.4210855e-14
-1.4210855e-14
-2.1316282e-14
-1.4210855e-14
4.7331654e-30
7.1054274e-15
7.1054274e-15
-7.1054274e-15
-1.4210855e-14
-2.8421709e-14
-3.5527137e-14
-1.4210855e-14
-1.4210855e-14
9.2319265e-31
-6.3108872e-30
-1.4210855e-14
-2.1316282e-14
-7.1054274e-15
-1.4210855e-14
-3.5527137e-14
-1.4210855e-14
-2.1316282e-14
-2.1316282e-14
-4.4176211e-29
-1.2621774e-29
-2.1316282e-14
7.1054274e-15
5.769954e-31
-3.5527137e-14
-7.1054274e-15
7.1054274e-15
7.1054274e-15
-7.1054274e-15
-1.4210855e-14
-1.4210855e-14
-2.8421709e-14
-3.5527137e-14
-2.8421709e-14
-1.4210855e-14
-2.1316282e-14
-4.2632564e-14
-4.2632564e-14
-4.2632564e-14
-2.8421709e-14
-2.1316282e-14
-2.8421709e-14
-2.8421709e-14
-2.8421709e-14
-7.1054274e-15
-2.1316282e-14
-2.8421709e-14
-2.1316282e-14
-2.1316282e-14
-1.4210855e-14
-2.8421709e-14
-4.2632564e-14
-7.1054274e-15
-3.5527137e-14
-2.8421709e-14
-2.8421709e-14
-1.4210855e-14
-4.9737992e-14
-4.2632564e-14
-2.8421709e-14
-2.1316282e-14
-4.2632564e-14
-4.9737992e-14
-4.9737992e-14
-6.3948846e-14
-7.1054274e-14
-7.1054274e-14
-5.6843419e-14
-4.9737992e-14
-4.2632564e-14
-5.6843419e-14
-7.1054274e-14
-7.1054274e-14
-9.2370556e-14
-9.9475983e-14
-7.8159701e-14
-7.8159701e-14
-9.2370556e-14
-1.1368684e-13
-1.1368684e-13
-7.1054274e-14
-7.8159701e-14
-7.1054274e-14
-6.3948846e-14
-3.5527137e-14
-4.2632564e-14
-4.2632564e-14
-7.1054274e-15
-7.1054274e-15
-2.1316282e-14
-1.2621774e-29
-2.1316282e-14
-2.8421709e-14
-5.6843419e-14
-4.2632564e-14
-2.8421709e-14
-3.5527137e-14
-2.1316282e-14
-2.8421709e-14
-2.8421709e-14
-2.1316282e-14
-2.8421709e-14
-4.2632564e-14
-5.6843419e-14
-5.6843419e-14
-4.2632564e-14
-4.9737992e-14
-4.2632564e-14
-3.5527137e-14
-4.9737992e-14
-4.9737992e-14
-4.9737992e-14
-4.2632564e-14
-4.2632564e-14
-4.2632564e-14
-6.3948846e-14
-4.9737992e-14
-3.5527137e-14
-7.1054274e-15
1.2621774e-29
-2.1316282e-14
-2.8421709e-14
-3.5527137e-14
-2.8421709e-14
-3.5527137e-14
-4.2632564e-14
-2.1316282e-14
-2.1316282e-14
-3.5527137e-14
-4.9737992e-14
-4.2632564e-14
-5.6843419e-14
-4.9737992e-14
-3.5527137e-14
-3.5527137e-14
-5.6843419e-14
-4.9737992e-14
-4.9737992e-14
-5.6843419e-14
-6.3948846e-14
-6.3948846e-14
-3.5527137e-14
-4.9737992e-14
-2.8421709e-14
-2.1316282e-14
-2.8421709e-14
-1.4210855e-14
-2.1316282e-14
-2.1316282e-14
-2.1316282e-14
-1.4210855e-14
-2.8421709e-14
-5.6843419e-14
-3.5527137e-14
-4.9737992e-14
-5.6843419e-14
-7.8159701e-14
-4.2632564e-14
-2.8421709e-14
-5.6843419e-14
-2.8421709e-14
-5.6843419e-14
-4.9737992e-14
-3.5527137e-14
-3.5527137e-14
-2.8421709e-14
-2.8421709e-14
-4.2632564e-14
-4.2632564e-14
-3.5527137e-14
-2.1316282e-14
-4.2632564e-14
-3.5527137e-14
-2.1316282e-14
-2.1316282e-14
-2.8421709e-14
-7.1054274e-15
-2.1316282e-14
-2.1316282e-14
-7.1054274e-15
3.1554436e-30
-7.1054274e-15
-4.2632564e-14
-1.4210855e-14
-2.1316282e-14
-7.6992824e-31
-7.1054274e-15
-7.1054274e-15
1.4210855e-14
-3.1554436e-30
7.1054274e-15
3.2726458e-31
-1.4210855e-14
-1.4210855e-14
-1.4210855e-14
7.1054274e-15
2.8421709e-14
3.5527137e-14
2.1316282e-14
7.1054274e-15
-8.6585373e-30
1.4210855e-14
0
2.8421709e-14
2.1316282e-14
0
1.4210855e-14
7.1054274e-15
2.1316282e-14
2.1316282e-14
1.4210855e-14
2.1316282e-14
2.1316282e-14
1.4210855e-14
1.4210855e-14
1.9239191e-30
2.1316282e-14
7.1054274e-15
1.4210855e-14
7.1054274e-15
7.1054274e-15
1.4210855e-14
1.4210855e-14
2.8421709e-14
4.9737992e-14
3.5527137e-14
1.4210855e-14
3.5527137e-14
2.1316282e-14
3.5527137e-14
2.8421709e-14
2.6938473e-30
-1.735494e-29
7.1054274e-15
6.7535509e-30
-7.1054274e-15
-7.1054274e-15
-7.1054274e-15
-1.5777218e-30
-7.1054274e-15
7.1054274e-15
-7.1054274e-15
-1.4210855e-14
-7.1054274e-15
1.4210855e-14
2.1316282e-14
7.1054274e-15
0
1.4210855e-14
1.4210855e-14
1.4210855e-14
1.4210855e-14
2.8421709e-14
1.4210855e-14
2.8421709e-14
-7.1054274e-15
2.8421709e-14
2.1316282e-14
2.8421709e-14
2.1316282e-14
7.1054274e-15
7.1054274e-15
3.5527137e-14
1.4210855e-14
4.9737992e-14
4.2632564e-14
4.9737992e-14
5.6843419e-14
4.9737992e-14
6.3948846e-14
4.9737992e-14
3.5527137e-14
2.1316282e-14
2.8421709e-14
2.8421709e-14
2.1316282e-14
2.1316282e-14
2.8421709e-14
4.2632564e-14
2.1316282e-14
7.1054274e-15
2.1316282e-14
1.4210855e-14
1.4210855e-14
2.8421709e-14
4.2632564e-14
2.8421709e-14
2.1316282e-14
3.5527137e-14
3.5527137e-14
1.4210855e-14
3.5527137e-14
3.5527137e-14
3.5527137e-14
1.4210855e-14
3.5527137e-14
3.5527137e-14
3.5527137e-14
2.1316282e-14
2.8421709e-14
3.5527137e-14
2.8421709e-14
2.1316282e-14
2.1316282e-14
2.1316282e-14
3.5527137e-14
4.9737992e-14
3.5527137e-14
2.1316282e-14
3.5527137e-14
2.1316282e-14
1.4210855e-14
2.8421709e-14
2.1316282e-14
1.4210855e-14
1.4210855e-14
7.1054274e-15
-1.4210855e-14
2.1316282e-14
7.1054274e-15
1.4210855e-14
2.1316282e-14
2.8421709e-14
2.1316282e-14
2.1316282e-14
9.4663309e-30
-7.1054274e-15
2.1316282e-14
2.1316282e-14
7.1054274e-15
2.8421709e-14
4.9737992e-14
3.5527137e-14
2.8421709e-14
7.1054274e-15
1.4210855e-14
3.5527137e-14
4.2632564e-14
3.5527137e-14
2.1316282e-14
1.4210855e-14
-7.8886091e-31
-7.1054274e-15
-2.1316282e-14
7.1054274e-15
1.4210855e-14
1.4210855e-14
3.5527137e-14
4.9737992e-14
2.1316282e-14
1.4210855e-14
1.4210855e-14
2.1316282e-14
7.1054274e-15
1.4210855e-14
-7.1054274e-15
8.0074198e-43
2.1316282e-14
7.1054274e-15
3.9443045e-30
-2.1316282e-14
-7.1054274e-15
3.9443045e-30
-7.1054274e-15
-2.1316282e-14
-7.1054274e-15
7.1054274e-15
-4.2632564e-14
-1.4210855e-14
-1.4210855e-14
-7.1054274e-15
-2.1316282e-14
-2.1316282e-14
-1.4210855e-14
-2.1316282e-14
-1.4210855e-14
-2.1316282e-14
-1.4210855e-14
-3.5527137e-14
-4.2632564e-14
-2.8421709e-14
-2.8421709e-14
-2.8421709e-14
-3.5527137e-14
-2.8421709e-14
-4.2632564e-14
-2.8421709e-14
-2.8421709e-14
-2.8421709e-14
-1.4210855e-14
-2.8421709e-14
-2.1316282e-14
-4.2632564e-14
-2.8421709e-14
-1.4210855e-14
-2.1316282e-14
-7.1054274e-15
-1.4210855e-14
-2.1316282e-14
-7.1054274e-15
-2.1316282e-14
7.1054274e-15
2.1316282e-14
2.3665827e-30
2.8421709e-14
-2.0510384e-29
-7.8886091e-30
-1.2621774e-29
-2.1316282e-14
-2.1316282e-14
-2.1316282e-14
-2.8421709e-14
-2.1316282e-14
-2.1316282e-14
-4.9737992e-14
-2.8421709e-14
-3.5527137e-14
-2.1316282e-14
-2.1316282e-14
-2.8421709e-14
-2.8421709e-14
-7.1054274e-15
7.1054274e-15
-1.4210855e-14
-7.1054274e-15
7.1054274e-15
1.4210855e-14
3.5527137e-14
2.8421709e-14
7.1054274e-15
-1.4210855e-14
-4.1020767e-29
2.1316282e-14
2.1316282e-14
3.5527137e-14
3.5527137e-14
2.8421709e-14
2.1316282e-14
1.4210855e-14
1.4210855e-14
4.2632564e-14
-4.8106992e-30
7.1054274e-15
2.1316282e-14
2.1316282e-14
1.4210855e-14
2.8421709e-14
1.4210855e-14
1.0009275e-42
-5.9457573e-30
1.4210855e-14
-5.4548605e-30
-7.1054274e-15
7.1054274e-15
-1.4210855e-14
7.1054274e-15
3.1554436e-30
2.1316282e-14
1.4210855e-14
2.8421709e-14
2.1316282e-14
2.1316282e-14
2.8421709e-14
3.5527137e-14
3.5527137e-14
3.5527137e-14
4.2632564e-14
2.1316282e-14
3.5527137e-14
2.8421709e-14
2.8421709e-14
4.2632564e-14
4.9737992e-14
4.2632564e-14
4.9737992e-14
4.9737992e-14
4.9737992e-14
4.9737992e-14
3.5527137e-14
4.9737992e-14
4.9737992e-14
4.2632564e-14
5.6843419e-14
2.8421709e-14
2.8421709e-14
3.5527137e-14
3.5527137e-14
5.6843419e-14
5.6843419e-14
4.9737992e-14
4.2632564e-14
5.6843419e-14
5.6843419e-14
7.8159701e-14
8.5265128e-14
6.3948846e-14
4.2632564e-14
3.5527137e-14
4.2632564e-14
2.8421709e-14
4.2632564e-14
7.1054274e-14
7.8159701e-14
5.6843419e-14
5.6843419e-14
4.9737992e-14
7.1054274e-14
6.3948846e-14
5.6843419e-14
2.8421709e-14
2.8421709e-14
7.1054274e-15
3.5527137e-14
3.5527137e-14
3.5527137e-14
3.5527137e-14
2.1316282e-14
2.8421709e-14
2.8421709e-14
2.1316282e-14
2.1316282e-14
1.4210855e-14
-1.4210855e-14
2.1693675e-30
-1.4210855e-14
7.1054274e-15
2.1316282e-14
-7.1054274e-15
2.7610132e-29
-7.1054274e-15
-1.4210855e-14
-7.1054274e-15
-1.4210855e-14
-2.1316282e-14
-1.4210855e-14
-2.1316282e-14
-1.4210855e-14
-3.5527137e-14
-2.1316282e-14
-2.1316282e-14
-1.4210855e-14
-1.4210855e-14
8.4277391e-30
-7.1054274e-15
-7.1054274e-15
-3.5527137e-14
-1.4210855e-14
-2.1316282e-14
-4.2632564e-14
-4.2632564e-14
-4.9737992e-14
-3.5527137e-14
-5.6843419e-14
-4.9737992e-14
-2.8421709e-14
-1.4210855e-14
-4.2632564e-14
-4.2632564e-14
-4.9737992e-14
-3.5527137e-14
-4.2632564e-14
-7.1054274e-15
-2.1316282e-14
-3.5527137e-14
-3.5527137e-14
-3.5527137e-14
-2.1316282e-14
-2.1316282e-14
-2.8421709e-14
-2.8421709e-14
-3.5527137e-14
-2.1316282e-14
-2.8421709e-14
-2.1316282e-14
-4.2632564e-14
-4.9737992e-14
-2.8421709e-14
-3.5527137e-14
-4.9737992e-14
-3.5527137e-14
-2.1316282e-14
-2.8421709e-14
-3.5527137e-14
-3.5527137e-14
-4.2632564e-14
-1.4210855e-14
-1.2621774e-29
-1.7778671e-29
-2.1316282e-14
-2.1316282e-14
-4.2632564e-14
-6.3948846e-14
-4.2632564e-14
-2.8421709e-14
-8.3123401e-30
1.6931209e-29
2.1316282e-14
1.0385917e-30
7.1054274e-15
3.5527137e-14
2.1316282e-14
2.1316282e-14
2.8421709e-14
2.8421709e-14
2.8421709e-14
3.5527137e-14
2.8421709e-14
-7.1054274e-15
3.5527137e-14
7.1054274e-15
7.1054274e-15
2.1316282e-14
7.1054274e-15
-7.1054274e-15
-2.1316282e-14
-2.1316282e-14
-7.1054274e-15
-7.1054274e-15
7.1054274e-15
2.8421709e-14
-8.0074198e-43
1.4210855e-14
1.4210855e-14
2.1316282e-14
7.1054274e-15
2.1316282e-14
-7.1054274e-15
2.8421709e-14
1.4210855e-14
7.1054274e-15
2.1316282e-14
4.2632564e-14
5.6843419e-14
5.6843419e-14
2.8421709e-14
2.8421709e-14
3.5527137e-14
4.9737992e-14
4.2632564e-14
4.9737992e-14
4.9737992e-14
2.8421709e-14
2.8421709e-14
4.9737992e-14
2.8421709e-14
1.4210855e-14
1.4210855e-14
7.1054274e-15
-4.15617e-30
7.1054274e-15
2.1316282e-14
7.1054274e-15
7.1054274e-15
-7.1054274e-15
7.1054274e-15
-7.1054274e-15
-2.1316282e-14
-3.5527137e-14
-3.5527137e-14
-2.1316282e-14
-2.1316282e-14
7.1054274e-15
-1.4210855e-14
7.1054274e-15
1.4210855e-14
1.4210855e-14
1.1832914e-30
-7.1054274e-15
-5.5220263e-30
-9.4663309e-30
-1.4210855e-14
-1.4210855e-14
-7.1054274e-15
-2.1316282e-14
-2.1316282e-14
-2.8421709e-14
4.0037099e-43
-1.4210855e-14
-7.1054274e-15
3.5005703e-30
1.4210855e-14
2.8421709e-14
1.4210855e-14
2.3476501e-30
1.4210855e-14
2.8421709e-14
4.7331654e-30
1.4210855e-14
1.4210855e-14
2.3079816e-31
7.1054274e-15
-7.1054274e-15
7.1054274e-15
-1.4210855e-14
-2.8421709e-14
-4.9737992e-14
-2.8421709e-14
-4.9737992e-14
-3.5527137e-14
-2.1316282e-14
-7.1054274e-15
-4.9737992e-14
-2.1316282e-14
-1.4210855e-14
-1.4210855e-14
-1.4210855e-14
-1.4210855e-14
-7.1054274e-15
7.5759947e-30
-2.1316282e-14
-1.2504572e-30
-7.1054274e-15
7.1054274e-15
2.1316282e-14
7.8886091e-31
-3.4619724e-31
-7.1054274e-15
-3.1554436e-30
-1.5777218e-30
-1.4210855e-14
-1.4210855e-14
-2.1316282e-14
-7.1054274e-15
1.4210855e-14
-7.1054274e-15
-7.1054274e-15
-7.1054274e-15
3.5527137e-14
1.4210855e-14
7.1054274e-15
-7.1054274e-15
-1.1539908e-31
-7.8886091e-31
1.4210855e-14
2.8421709e-14
2.8421709e-14
1.4210855e-14
7.1054274e-15
-7.1054274e-15
1.4210855e-14
7.1054274e-15
7.1054274e-15
-2.1693675e-30
1.4210855e-14
1.4210855e-14
7.1054274e-15
-2.1316282e-14
-2.0018549e-42
1.1539908e-31
-1.4210855e-14
-3.5527137e-14
-1.4210855e-14
-3.1554436e-30
7.1054274e-15
-2.1316282e-14
-2.118655e-31
1.4210855e-14
1.4210855e-14
-7.1054274e-15
7.1054274e-15
2.1316282e-14
7.1054274e-15
2.8421709e-14
3.5527137e-14
2.8421709e-14
2.8421709e-14
7.1054274e-15
7.1054274e-15
4.2632564e-14
4.9737992e-14
5.6843419e-14
3.5527137e-14
2.1316282e-14
2.1316282e-14
2.1316282e-14
2.8421709e-14
1.4210855e-14
5.6843419e-14
2.8421709e-14
4.2632564e-14
7.1054274e-15
7.1054274e-15
1.4210855e-14
2.8421709e-14
2.8421709e-14
4.2632564e-14
2.1316282e-14
4.2632564e-14
7.1054274e-15
2.8421709e-14
2.1316282e-14
4.2632564e-14
2.8421709e-14
1.4210855e-14
1.4210855e-14
2.1316282e-14
2.8421709e-14
1.4210855e-14
2.8421709e-14
1.4210855e-14
2.8421709e-14
2.1316282e-14
2.1316282e-14
4.9737992e-14
2.8421709e-14
2.8421709e-14
2.8421709e-14
2.8421709e-14
2.8421709e-14
3.5527137e-14
3.5527137e-14
2.8421709e-14
3.5527137e-14
4.9737992e-14
5.6843419e-14
2.1316282e-14
3.5527137e-14
2.1316282e-14
7.1054274e-15
2.1316282e-14
2.1316282e-14
1.4210855e-14
1.4210855e-14
-7.1054274e-15
-2.1316282e-14
-7.1054274e-15
7.1054274e-15
5.5220263e-30
-2.1316282e-14
-7.1054274e-15
1.4210855e-14
-7.1054274e-15
-2.8421709e-14
-3.5527137e-14
-5.6843419e-14
-2.8421709e-14
-2.8421709e-14
-4.2632564e-14
-2.1316282e-14
-7.1054274e-15
7.1054274e-15
1.4210855e-14
1.4210855e-14
1.4210855e-14
7.1054274e-15
1.4210855e-14
3.4619724e-31
1.4210855e-14
7.1054274e-15
1.4210855e-14
7.1054274e-15
4.7331654e-30
2.2701163e-30
-1.4210855e-14
-1.4210855e-14
-3.1554436e-30
7.1054274e-15
1.4210855e-14
5.5220263e-30
7.1054274e-15
2.1316282e-14
-1.4210855e-14
2.1316282e-14
-1.3805066e-29
2.1316282e-14
2.8421709e-14
1.4210855e-14
1.4210855e-14
1.4210855e-14
-2.5243549e-29
-7.1054274e-15
-8.7760776e-30
1.4210855e-14
7.1054274e-15
7.1054274e-15
2.8421709e-14
1.4210855e-14
4.2632564e-14
7.1054274e-15
1.5777218e-30
7.1054274e-15
2.1316282e-14
7.1054274e-15
0
-2.8421709e-14
-1.4210855e-14
-2.1316282e-14
9.4663309e-30
-7.1054274e-15
-1.4210855e-14
-2.1316282e-14
4.6159632e-31
-2.8421709e-14
7.1054274e-15
7.1054274e-15
3.4619724e-31
-1.4210855e-14
-7.1054274e-15
-1.4210855e-14
3.0027824e-42
7.1054274e-15
4.7331654e-30
7.1054274e-15
2.1316282e-14
7.8886091e-31
7.1054274e-15
1.4210855e-14
7.1054274e-15
-6.3108872e-30
2.8421709e-14
7.1054274e-15
0
1.4210855e-14
3.5527137e-14
4.2632564e-14
4.2632564e-14
4.2632564e-14
2.1316282e-14
7.1054274e-15
6.3108872e-30
7.1054274e-15
7.1054274e-15
1.4210855e-14
6.3108872e-30
-8.0779357e-31
3.1554436e-30
1.4199496e-29
-1.1539908e-30
-3.0027824e-42
-7.1054274e-15
-7.1054274e-15
7.1054274e-15
-7.1054274e-15
6.3108872e-30
-1.4210855e-14
-7.1054274e-15
7.1054274e-15
-7.1132715e-31
3.9443045e-30
7.1054274e-15
-1.4210855e-14
-7.1054274e-15
-1.4210855e-14
-3.5527137e-14
-2.1316282e-14
-2.1316282e-14
-2.1316282e-14
-7.1054274e-15
-7.1054274e-15
-2.1316282e-14
-7.1054274e-15
-1.0697855e-29
7.1054274e-15
-7.1054274e-15
-7.1054274e-15
-1.4210855e-14
-1.4210855e-14
7.1054274e-15
-1.4210855e-14
-7.1054274e-15
-1.4210855e-14
-2.1316282e-14
-5.2722955e-30
1.4210855e-14
-2.1316282e-14
-3.1554436e-30
-1.4210855e-14
-4.2632564e-14
-2.1316282e-14
7.1054274e-15
1.4210855e-14
2.1316282e-14
7.1054274e-15
-4.4266366e-31
2.8421709e-14
-7.1054274e-15
-2.8421709e-14
-2.8421709e-14
-1.4210855e-14
-4.2632564e-14
-3.5527137e-14
-7.1054274e-15
-1.4210855e-14
-1.4210855e-14
-7.1054274e-15
-3.9253719e-30
-7.1054274e-15
7.1054274e-15
1.4210855e-14
-7.1054274e-15
7.1054274e-15
1.4210855e-14
2.8421709e-14
2.1316282e-14
2.1316282e-14
1.4210855e-14
4.2632564e-14
4.9737992e-14
3.5527137e-14
2.1316282e-14
3.5527137e-14
3.5527137e-14
3.5527137e-14
3.5527137e-14
2.8421709e-14
3.5527137e-14
2.1316282e-14
2.1316282e-14
4.9737992e-14
4.9737992e-14
8.5265128e-14
5.6843419e-14
5.6843419e-14
3.5527137e-14
5.6843419e-14
4.9737992e-14
6.3948846e-14
4.9737992e-14
3.5527137e-14
4.9737992e-14
7.1054274e-14
3.5527137e-14
2.8421709e-14
4.2632564e-14
3.5527137e-14
1.4210855e-14
7.1054274e-15
7.1054274e-15
3.5527137e-14
3.5527137e-14
2.1316282e-14
1.2693899e-30
2.1316282e-14
4.2632564e-14
1.4210855e-14
1.4210855e-14
7.1054274e-15
2.1316282e-14
1.4210855e-14
1.8932662e-29
2.1316282e-14
1.4210855e-14
4.2632564e-14
2.8421709e-14
3.5527137e-14
3.5527137e-14
4.9737992e-14
1.4210855e-14
-7.1054274e-15
1.4210855e-14
1.4210855e-14
1.4210855e-14
1.4210855e-14
1.4210855e-14
-1.2500619e-54
1.4210855e-14
-7.1054274e-15
-7.1054274e-15
1.4210855e-14
2.8421709e-14
2.1316282e-14
3.5527137e-14
3.5527137e-14
4.2632564e-14
5.6843419e-14
5.6843419e-14
3.5527137e-14
1.4210855e-14
2.1316282e-14
3.5527137e-14
3.5527137e-14
4.2632564e-14
3.5527137e-14
7.1054274e-15
2.1316282e-14
7.1054274e-15
7.1054274e-15
2.1316282e-14
-7.1054274e-15
1.4210855e-14
3.5527137e-14
1.4210855e-14
3.5527137e-14
2.8421709e-14
3.5527137e-14
2.8421709e-14
2.1316282e-14
3.5527137e-14
3.5527137e-14
2.1316282e-14
1.4210855e-14
2.1316282e-14
2.1316282e-14
3.5527137e-14
4.2632564e-14
4.2632564e-14
2.8421709e-14
2.8421709e-14
2.8421709e-14
2.1316282e-14
2.8421709e-14
4.2632564e-14
4.9737992e-14
3.5527137e-14
2.8421709e-14
1.4210855e-14
2.8421709e-14
4.9737992e-14
2.1316282e-14
2.8421709e-14
2.1316282e-14
2.8421709e-14
1.4210855e-14
2.1316282e-14
1.4210855e-14
2.1316282e-14
2.8421709e-14
2.1316282e-14
4.2632564e-14
2.8421709e-14
5.6843419e-14
4.9737992e-14
4.9737992e-14
6.3948846e-14
4.2632564e-14
5.6843419e-14
6.3948846e-14
7.8159701e-14
1.0658141e-13
1.0658141e-13
1.3500312e-13
1.3500312e-13
1.9184654e-13
2.4868996e-13
2.8421709e-13
3.1974423e-13
4.0500936e-13
4.6895821e-13
5.8975047e-13
6.9633188e-13
8.2422957e-13
1.0018653e-12
1.1723955e-12
1.41398e-12
1.6839863e-12
2.0392577e-12
2.4016344e-12
2.8776981e-12
3.424816e-12
4.057199e-12
4.8459015e-12
5.7767124e-12
6.8638428e-12
8.1357143e-12
9.6633812e-12
1.1453949e-11
1.3578472e-11
1.6115109e-11
1.91136e-11
2.2630786e-11
2.6794567e-11
3.1690206e-11
3.7488235e-11
4.4330761e-11
5.238121e-11
6.1859851e-11
7.3043793e-11
8.6167518e-11
1.0165024e-10
1.1985435e-10
1.4124169e-10
1.6637358e-10
1.9586111e-10
2.3046454e-10
2.7110048e-10
3.1874947e-10
3.7458392e-10
4.4002491e-10
5.1664983e-10
6.0626348e-10
7.1113959e-10
8.3377927e-10
9.7709574e-10
1.1445138e-09
1.3399344e-09
1.5680186e-09
1.8340742e-09
2.1442261e-09
2.5056011e-09
2.9265053e-09
3.4164529e-09
3.9864645e-09
4.6493724e-09
5.419821e-09
6.3148988e-09
7.3542026e-09
8.5603133e-09
9.9593152e-09
1.1581207e-08
1.3460522e-08
1.5636971e-08
1.8156257e-08
2.1070818e-08
2.4440972e-08
2.8335783e-08
3.2834599e-08
3.8028311e-08
4.4020993e-08
5.0931924e-08
5.889747e-08
6.8073625e-08
7.8638635e-08
9.0796114e-08
1.0477839e-07
1.2085054e-07
1.3931479e-07
1.6051541e-07
1.8484442e-07
2.1274786e-07
2.4473299e-07
2.8137622e-07
3.2333233e-07
3.7134438e-07
4.262552e-07
4.8902027e-07
5.6072187e-07
6.4258528e-07
7.3599666e-07
8.4252314e-07
9.6393539e-07
1.1022325e-06
1.2596703e-06
1.4387921e-06
1.6424638e-06
1.8739125e-06
2.1367695e-06
2.435118e-06
2.7735465e-06
3.1572071e-06
3.5918814e-06
4.0840524e-06
4.6409844e-06
5.2708116e-06
5.9826354e-06
6.7866324e-06
7.6941729e-06
8.7179515e-06
9.8721312e-06
1.1172501e-05
1.2636651e-05
1.4284161e-05
1.6136809e-05
1.8218802e-05
2.0557025e-05
2.3181314e-05
2.6124752e-05
2.9423999e-05
3.3119642e-05
3.7256583e-05
4.1884453e-05
4.7058074e-05
5.2837947e-05
5.9290787e-05
6.6490099e-05
7.4516808e-05
8.3459925e-05
9.3417279e-05
0.0001044963
0.00011681485
0.00013050214
0.0001456997
0.00016256238
0.00018125952
0.00020197607
0.00022491392
0.00025029318
0.00027835366
0.00030935638
0.00034358513
0.00038134827
0.00042298045
0.00046884452
0.00051933357
0.000574873
0.00063592274
0.00070297953
0.00077657938
0.00085730002
0.00094576361
0.0010426393
0.0011486463
0.0012645566
0.0013911978
0.0015294566
0.0016802817
0.001844687
0.0020237551
0.0022186405
0.0024305727
0.0026608601
0.0029108932
0.003182148
0.0034761892
0.003794674
0.0041393549
0.0045120833
0.0049148124
0.0053496003
0.0058186127
0.0063241259
0.0068685286
0.0074543251
0.0080841363
0.008760702
0.0094868823
0.010265658
0.011100133
0.01199353
0.012949198
0.013970605
0.015061338
0.016225104
0.017465726
0.018787141
0.020193395
0.021688641
0.023277135
0.024963226
0.026751357
0.028646056
0.030651924
0.032773635
0.035015923
0.037383574
0.039881417
0.042514313
0.045287143
0.0482048
0.051272175
0.054494144
0.057875555
0.06142122
0.065135892
0.06902426
0.073090931
0.077340414
0.081777109
0.086405293