/*--------------------------------*- C++ -*----------------------------------*\
  =========                 |
  \\      /  F ield         | OpenFOAM: The Open Source CFD Toolbox
   \\    /   O peration     | Website:  https://openfoam.org
    \\  /    A nd           | Version:  7
     \\/     M anipulation  |
\*---------------------------------------------------------------------------*/
FoamFile
{
    version     2.0;
    format      ascii;
    class       volScalarField;
    location    "0.00021";
    object      Uy;
}
// * * * * * * * * * * * * * * * * * * * * * * * * * * * * * * * * * * * * * //

dimensions      [0 1 -1 0 0 0 0];

internalField   nonuniform List<scalar> 
5000
(
1.5891896e-16
1.6665561e-16
0
0
-8.7149996e-17
9.9154243e-32
8.7214052e-17
0
0
-8.7179733e-17
-1.7432453e-16
8.7144577e-17
8.7126497e-17
-8.7108429e-17
0
-8.7072298e-17
-8.8526221e-48
8.7036194e-17
0
8.7000126e-17
-8.6982104e-17
-8.6964088e-17
1.7389216e-16
-8.6928072e-17
-8.6910072e-17
-7.1619018e-31
8.6874084e-17
8.6856098e-17
-1.7367623e-16
1.5052219e-30
-1.5172457e-30
8.6784209e-17
1.7353251e-16
-1.734966e-16
1.5036653e-30
-7.5414167e-30
-3.0060869e-30
1.7335314e-16
-1.733173e-16
-1.7328148e-16
1.7324567e-16
-5.9567343e-30
-1.731741e-16
8.6569164e-17
2.5965386e-16
-8.6533414e-17
-8.6515548e-17
-5.9247733e-30
-1.7295967e-16
0
8.6444146e-17
1.2281917e-32
-8.6408481e-17
1.7278131e-16
-3.0194824e-30
-1.7271006e-16
8.6337222e-17
-2.9808148e-30
-8.6301627e-17
0
8.6266054e-17
2.9415881e-30
2.4508183e-32
8.6212736e-17
-8.6194974e-17
3.0126437e-30
8.6159465e-17
-8.6141719e-17
-8.6123977e-17
8.610624e-17
8.6088508e-17
-8.6070781e-17
-8.6053059e-17
1.7207068e-16
8.6017628e-17
-8.5999919e-17
0
8.5964515e-17
-1.2213778e-32
-8.5929128e-17
8.5911441e-17
-2.4412474e-32
2.440745e-32
8.5858404e-17
8.5840733e-17
2.9880668e-30
-8.5805402e-17
0
-8.5770086e-17
-8.8958922e-30
-2.9971768e-30
8.5717138e-17
8.5699495e-17
-1.7136371e-16
-5.9285518e-30
8.5646586e-17
0
0
-8.5593704e-17
-5.9346132e-30
1.7111693e-16
-8.5540846e-17
-1.7104646e-16
0
8.5488012e-17
8.5470405e-17
-8.54528e-17
-8.5435198e-17
0
0
8.5382404e-17
8.5364809e-17
0
-8.5329626e-17
2.9823981e-30
8.529445e-17
-8.5276865e-17
2.4232145e-32
-2.9799392e-30
-5.4583723e-49
1.7041308e-16
-3.6318238e-32
-8.5171383e-17
0
-8.5136233e-17
8.511866e-17
8.5101088e-17
-1.7016703e-16
-8.5065947e-17
1.7009676e-16
8.503081e-17
-8.5013243e-17
-8.4995676e-17
-8.4978111e-17
0
8.4942983e-17
8.4925419e-17
-8.4907857e-17
-2.9435273e-30
8.4872733e-17
-8.4855172e-17
-8.4837612e-17
0
8.4802492e-17
8.4784932e-17
-8.4767373e-17
8.4749814e-17
-4.816471e-32
-8.4714695e-17
8.4697136e-17
-8.4679576e-17
5.8952861e-30
8.4644457e-17
-8.4626897e-17
8.4609336e-17
8.4591775e-17
-8.4574214e-17
0
0
-8.4521525e-17
-8.4503961e-17
8.4486396e-17
8.4468831e-17
-8.4451264e-17
-5.85539e-30
8.4416129e-17
-8.439856e-17
-8.438099e-17
0
8.4345848e-17
8.4328275e-17
0
-8.4293128e-17
-8.4275553e-17
0
8.4240401e-17
1.7522298e-29
-8.4205246e-17
8.4187668e-17
8.4170089e-17
-8.415251e-17
-5.8107583e-30
5.7856365e-30
3.5853889e-32
8.4082191e-17
-8.4064611e-17
-1.165715e-29
5.7795908e-30
-5.7783817e-30
8.3994295e-17
0
0
-8.3941565e-17
-8.392399e-17
0
0
8.3871276e-17
5.5542629e-49
-8.3836144e-17
0
8.3801022e-17
-8.3783466e-17
-2.3212512e-29
1.6749673e-16
-8.3730821e-17
-1.7380601e-29
-1.1893881e-32
-8.3678221e-17
8.3660701e-17
-1.1886412e-32
-1.1574942e-29
5.7862605e-30
-8.3590706e-17
0
8.3555774e-17
5.7814256e-30
2.3180223e-29
8.3503487e-17
0
-8.3468724e-17
-8.3451378e-17
0
0
0
8.3382286e-17
5.7694372e-30
-8.3347962e-17
0
0
8.3296842e-17
8.3279919e-17
-8.3263063e-17
-8.324628e-17
0
8.3212958e-17
8.3196433e-17
-8.3180007e-17
-8.3163689e-17
0
8.3131407e-17
-2.3079509e-29
-5.7628753e-30
8.3083992e-17
-8.306849e-17
-8.3053155e-17
0
8.3023019e-17
-1.1536664e-29
8.2993651e-17
1.1509055e-29
-1.6593023e-16
8.2951175e-17
-1.1503255e-29
-2.8788817e-29
-5.737992e-30
-8.2897728e-17
8.2884956e-17
8.2872419e-17
0
-8.2848032e-17
-8.2836165e-17
0
8.2813025e-17
8.2801715e-17
-1.6558109e-16
-8.2779491e-17
8.2768514e-17
8.2757575e-17
2.2953573e-29
-8.2735614e-17
8.2724477e-17
-5.7360715e-30
-8.270154e-17
8.2689572e-17
-5.7453239e-30
5.7561678e-30
-2.349067e-32
-5.7072298e-30
8.2620424e-17
0
0
-8.2566347e-17
-8.2545148e-17
0
0
0
0
8.2404584e-17
5.6769889e-30
-1.6465351e-16
3.5078862e-32
8.2232427e-17
8.2178068e-17
-1.1401313e-29
-1.1368887e-29
-1.1650176e-32
-8.1902061e-17
-8.1815911e-17
-8.1721819e-17
1.6323842e-16
2.4452243e-16
-8.1386004e-17
-1.6250831e-16
0
8.0956697e-17
8.0789733e-17
-8.0609692e-17
2.2855565e-32
-3.4194537e-32
2.273283e-32
7.9744593e-17
7.9488516e-17
-7.9215094e-17
-1.5784725e-16
7.8613419e-17
1.6089134e-47
7.7934111e-17
2.149381e-29
-1.54344e-16
0
0
1.5172662e-16
-4.1863527e-29
-1.4974908e-16
0
7.3788846e-17
7.3208854e-17
-7.2603785e-17
1.0228046e-32
-9.9017691e-30
1.0038089e-32
6.9930376e-17
-6.9198714e-17
-6.8441952e-17
0
6.6854129e-17
-9.16674e-30
-6.5169614e-17
1.2858451e-16
-1.7584749e-29
-6.2470258e-17
-1.7084823e-29
-1.2112652e-16
1.1915979e-16
5.8577819e-17
-5.7557999e-17
-8.0321832e-33
-5.5469294e-17
0
0
5.2230471e-17
-7.0912742e-30
-1.0002974e-16
6.9482534e-33
1.4329846e-16
-4.6632717e-17
-4.5495037e-17
8.8708964e-17
-4.3212425e-17
4.2070234e-17
8.1858545e-17
-3.9790892e-17
-3.8656425e-17
-3.7527187e-17
3.6404467e-17
1.0686619e-46
-3.4183579e-17
3.3087826e-17
-3.2003411e-17
3.0931437e-17
8.2781466e-30
8.1936931e-33
2.7800488e-17
-5.3576685e-17
2.5793404e-17
6.8910371e-30
-6.618177e-30
-2.2919406e-17
-4.4001147e-17
6.3306859e-17
5.6103405e-30
-1.0745892e-29
5.1363367e-30
-3.5446828e-17
3.3867888e-17
-4.4846703e-30
-3.0845671e-17
0
0
1.3326951e-17
-1.757833e-30
-1.2043283e-17
-1.1435169e-17
1.0849277e-17
3.0856084e-17
-9.7431403e-18
-9.2222986e-18
-2.4790804e-33
-8.2433337e-18
0
1.4690705e-17
1.3851302e-17
-6.5248581e-18
-1.2284981e-17
-5.7780495e-18
1.0862052e-17
1.02018e-17
-9.5742906e-18
-8.9784589e-18
0
7.8775415e-18
-3.6851539e-18
-6.8904628e-18
3.2184714e-18
3.004347e-18
-3.9823609e-34
3.6264033e-31
2.4326163e-18
-2.2639038e-18
-2.1053059e-18
1.956348e-18
-2.5195413e-31
-2.3952579e-34
-2.1674986e-31
-1.4478463e-18
1.3403984e-18
-5.1648773e-31
-1.5915063e-31
-2.9387732e-31
-9.7740584e-19
9.0154711e-19
-1.1537183e-31
-2.1219888e-31
-1.0010398e-34
-1.2957242e-18
-5.9541635e-19
5.4682289e-19
1.0036708e-18
-6.3896973e-32
-8.4351018e-19
-3.862306e-19
7.06896e-19
3.2321972e-19
-2.9536878e-19
-2.6972844e-19
-6.8313683e-32
2.2446112e-19
0
0
1.6951285e-19
0
-1.4009253e-19
1.2722589e-19
1.6408181e-35
-2.9062475e-32
0
-8.595468e-20
7.7796656e-20
7.0365773e-20
-1.2720439e-19
-5.74505e-20
5.1859412e-20
0
0
-3.7993657e-20
9.5032e-33
3.0775963e-20
0
0
-2.2327971e-20
8.3487153e-33
1.796981e-20
0
0
0
0
0
0
0
0
1.3109415e-20
3.2425301e-33
-5.2028587e-21
4.6311162e-21
-4.1196791e-21
3.6624868e-21
-9.0451087e-34
-2.8894175e-21
-7.1199732e-34
-2.274027e-21
0
0
1.5806021e-21
3.883231e-34
-1.2365668e-21
0
0
0
0
0
0
0
9.0502951e-22
-3.3136016e-34
-6.9985896e-22
3.0745635e-22
3.8367218e-38
2.3694695e-22
-1.1524577e-34
-3.6439349e-22
-1.5963236e-22
-8.942706e-52
3.6700921e-22
0
-1.8709339e-22
0
0
1.2458977e-22
-1.5073711e-35
-1.4212467e-22
4.1280381e-23
3.5950911e-23
-3.1292849e-23
2.7223663e-23
-2.3670649e-23
-5.7061513e-36
1.7866906e-23
-1.5510542e-23
0
-1.1670968e-23
1.0115815e-23
1.7526136e-23
-7.5873934e-24
-6.5661958e-24
-5.6797662e-24
-4.9104734e-24
8.4849186e-24
3.6637671e-24
-3.1622372e-24
0
2.352514e-24
-2.0280066e-24
-1.7476282e-24
4.5155927e-24
3.6813022e-40
-2.2270175e-24
9.5705618e-25
1.1425093e-37
7.0722854e-25
-1.7250929e-40
-1.0411596e-24
4.4620401e-25
0
-9.1136254e-38
-3.9916173e-41
-2.4030267e-25
2.0564802e-25
-4.8789832e-38
-2.0828294e-38
-1.8186914e-41
-1.0913176e-25
9.3324377e-26
5.9033881e-55
-1.8823759e-38
-8.2150709e-42
-9.950547e-26
-5.8746469e-39
3.5870607e-26
0
0
-2.1633827e-26
-7.5260129e-39
1.5756722e-26
-1.3679469e-26
1.5897494e-39
2.7321465e-55
-1.1395549e-39
7.4983756e-27
6.7890698e-27
7.6595277e-40
-4.4078289e-27
0
0
2.5838997e-27
-1.9759233e-27
1.1809542e-39
1.013294e-27
-7.599705e-28
0
4.053176e-28
4.559823e-28
-5.06647e-28
-4.559823e-28
0
9.119646e-28
9.626293e-28
-1.6212704e-27
-5.06647e-28
3.039882e-28
1.013294e-28
0
-5.06647e-29
-7.0342895e-41
5.06647e-28
0
0
0
-5.06647e-29
-1.013294e-28
0
4.559823e-28
6.3179007e-41
-1.519941e-28
0
0
-3.546529e-28
-2.8108358e-41
-2.8079559e-41
2.026588e-28
-5.06647e-29
2.1081269e-41
-2.533235e-28
0
2.533235e-28
2.1102868e-41
2.026588e-28
-5.573117e-28
5.7516969e-41
-5.573117e-28
5.06647e-28
0
-2.533235e-28
-4.053176e-28
2.026588e-28
-5.06647e-29
0
-4.559823e-28
3.039882e-28
5.573117e-28
-3.039882e-28
7.093058e-28
-2.2509726e-40
-1.519941e-28
1.9515332e-56
1.519941e-28
-4.053176e-28
2.2486687e-40
6.079764e-28
-2.026588e-28
2.533235e-28
-2.533235e-28
-5.06647e-29
-2.026588e-28
0
0
5.06647e-28
1.083444e-68
-4.053176e-28
0
0
4.053176e-28
1.9515332e-55
1.2159528e-27
0
0
1.013294e-28
2.533235e-28
-8.106352e-28
-4.559823e-28
0
3.039882e-28
-1.6882295e-40
-4.053176e-28
2.533235e-28
0
-3.546529e-28
-5.06647e-29
7.1998869e-45
2.026588e-28
-3.039882e-28
1.013294e-28
-1.1796295e-44
5.06647e-29
5.06647e-29
-1.4068579e-41
1.013294e-28
-2.533235e-28
-8.4411474e-41
5.06647e-29
3.039882e-28
-2.533235e-28
2.026588e-28
-5.573117e-28
-4.559823e-28
-1.4068579e-41
-2.533235e-28
1.013294e-28
-5.0399208e-44
-3.039882e-28
-1.519941e-28
2.026588e-28
3.039882e-28
-6.586411e-28
-1.4186116e-27
1.970609e-40
1.013294e-28
2.026588e-28
-2.1599661e-44
-1.013294e-28
-7.1998869e-44
3.039882e-28
0
3.546529e-28
0
1.519941e-28
0
0
0
5.06647e-28
9.7576662e-57
1.519941e-28
0
1.519941e-28
-7.0342895e-41
-4.053176e-28
0
0
0
-2.533235e-28
4.2205737e-41
-2.026588e-28
0
-6.586411e-28
-8.4368274e-41
1.013294e-28
0
5.06647e-29
-2.533235e-28
5.6303115e-41
1.519941e-28
-1.519941e-28
0
-1.013294e-28
-4.2205737e-41
5.06647e-29
0
5.06647e-29
-2.533235e-28
2.8137158e-41
5.06647e-29
-2.8129958e-41
5.0399208e-44
-7.0378894e-41
-1.4399774e-44
-2.533235e-28
0
-3.546529e-28
7.0306895e-41
1.4061379e-41
-1.4636499e-56
-1.2661721e-40
0
-6.079764e-28
-2.8137158e-41
-5.06647e-29
2.026588e-28
-4.2184137e-41
-2.7908545e-41
5.06647e-29
1.4068579e-41
-1.1254863e-40
4.053176e-28
-5.06647e-29
-5.06647e-29
0
8.612999e-28
-1.4068579e-40
-4.559823e-28
0
0
0
-5.06647e-28
-5.6274316e-41
5.6229982e-41
0
0
0
0
0
0
0
-2.026588e-28
1.4075779e-40
5.06647e-28
5.06647e-29
2.026588e-28
5.06647e-29
2.8151558e-41
5.6216717e-41
-1.519941e-28
2.533235e-28
5.06647e-29
5.06647e-29
1.013294e-28
5.06647e-29
5.340915e-56
1.519941e-28
-4.1651207e-41
2.8108358e-41
5.06647e-29
1.519941e-28
-2.026588e-28
1.013294e-28
-4.559823e-28
1.013294e-28
0
3.546529e-28
3.039882e-28
-5.6216717e-41
1.013294e-28
-4.559823e-28
5.06647e-28
3.546529e-28
1.013294e-28
-3.546529e-28
-7.7101074e-54
-4.053176e-28
-4.053176e-28
-4.3199321e-44
9.119646e-28
1.4064979e-40
-8.5528471e-44
-1.519941e-28
0
4.559823e-28
0
0
0
4.218355e-41
-8.4899442e-41
2.533235e-28
2.026588e-28
0
-5.06647e-28
4.2227337e-41
1.519941e-28
0
0
2.026588e-28
-1.9685931e-40
-2.533235e-28
0
0
-4.559823e-28
1.4061379e-40
1.013294e-28
0
-2.8098774e-41
-8.4411474e-41
1.2655241e-40
-7.0342895e-41
-5.06647e-29
0
1.519941e-28
-5.6231116e-41
-1.519941e-28
0
-1.013294e-28
5.06647e-29
1.519941e-28
2.026588e-28
1.1266383e-40
-2.026588e-28
-1.2661721e-40
-6.586411e-28
0
0
1.519941e-28
-2.8122758e-41
-1.519941e-28
0
2.026588e-28
1.4317769e-41
-5.06647e-29
4.053176e-28
0
-1.013294e-28
1.013294e-28
-1.1249103e-40
1.9685931e-40
-8.3725636e-41
-8.4382674e-41
-1.519941e-28
-1.013294e-28
1.1249103e-40
-1.6882295e-40
5.7033661e-41
-4.2162538e-41
-2.026588e-28
0
0
0
1.013294e-27
6.079764e-28
-1.2159528e-27
-4.053176e-28
0
0
2.533235e-28
-1.4636499e-56
-4.053176e-28
0
-1.013294e-27
1.013294e-28
-2.026588e-28
-5.06647e-29
0
-5.06647e-28
-1.4399774e-44
-4.559823e-28
5.6216717e-41
4.053176e-28
1.519941e-28
1.7279728e-43
-2.8402544e-41
-8.4454673e-41
2.8108358e-41
3.039882e-28
0
1.365013e-41
-2.8129958e-41
3.039882e-28
-2.533235e-28
8.4353875e-41
-1.3559809e-41
-3.039882e-28
3.5999434e-44
-2.026588e-28
0
0
0
2.533235e-28
-1.013294e-28
-3.039882e-28
1.519941e-28
2.8137158e-41
1.4054179e-41
-1.519941e-28
0
1.013294e-28
-1.4399774e-44
6.079764e-28
-6.079764e-28
-2.5297523e-40
-5.06647e-29
-3.546529e-28
8.4454673e-41
1.013294e-28
0
-1.519941e-28
5.6130447e-41
0
-3.039882e-28
-1.013294e-28
-2.533235e-28
0
3.546529e-28
0
0
-1.013294e-28
-8.4382674e-41
-3.039882e-28
0
0
2.026588e-28
1.013294e-28
-1.013294e-28
-3.546529e-28
4.053176e-28
5.06647e-29
4.053176e-28
4.2292671e-41
5.6303115e-41
1.013294e-28
2.8108358e-41
1.6865015e-40
-1.013294e-28
-2.533235e-28
-8.3763979e-41
2.533235e-28
-4.3199321e-44
2.533235e-28
-3.039882e-28
-1.013294e-28
-2.6838171e-43
-5.06647e-28
-3.039882e-28
-2.026588e-28
2.533235e-28
5.06647e-29
-2.5323442e-40
-9.119646e-28
5.06647e-29
2.8122758e-41
2.3761709e-56
5.06647e-29
0
0
5.06647e-29
1.519941e-28
0
-2.533235e-28
9.9535237e-44
0
1.519941e-28
7.0342895e-41
5.06647e-28
-5.06647e-28
1.2648761e-40
3.546529e-28
0
-5.06647e-29
-2.8129958e-41
4.1695129e-43
-3.039882e-28
8.4281876e-41
-5.06647e-29
-1.013294e-28
-1.4061379e-41
5.06647e-29
0
-5.06647e-29
1.519941e-28
2.0274642e-58
-2.8137158e-41
3.039882e-28
-2.533235e-28
0
-1.7960979e-42
6.171724e-55
-1.013294e-28
-2.8122758e-41
2.026588e-28
2.026588e-28
2.026588e-28
5.06647e-28
3.039882e-28
-1.519941e-28
0
-1.013294e-28
1.013294e-28
-4.3199321e-44
4.053176e-28
-3.039882e-28
-2.533235e-28
3.546529e-28
-4.053176e-28
-8.4086921e-41
-2.5314802e-40
7.093058e-28
-3.039882e-28
-2.2498207e-40
5.06647e-28
-1.013294e-28
-5.06647e-29
1.013294e-28
-2.8108358e-41
3.039882e-28
-6.079764e-28
-2.026588e-28
-1.013294e-28
-1.4061379e-41
-3.039882e-28
1.1254863e-40
-1.013294e-28
1.4061379e-41
5.8545997e-56
-2.026588e-28
-2.026588e-28
-1.013294e-28
1.7563799e-55
-6.079764e-28
-3.375883e-40
-3.039882e-28
3.039882e-28
-1.5693292e-53
-1.013294e-27
-3.4151832e-56
1.519941e-28
0
0
-1.013294e-28
-2.533235e-28
-8.106352e-28
0
0
0
-4.053176e-28
-7.599705e-28
0
5.06647e-29
5.06647e-29
2.5314802e-40
-9.119646e-28
0
0
0
-2.533235e-28
-1.013294e-28
5.06647e-29
-2.026588e-28
-1.1254863e-40
-4.053176e-28
0
0
-3.039882e-28
1.0079842e-43
1.013294e-28
-5.06647e-29
1.013294e-28
-2.026588e-28
8.4411474e-41
1.1146234e-27
0
0
-8.4345717e-41
2.533235e-28
0
0
-2.026588e-28
-2.026588e-28
0
1.013294e-28
1.473472e-41
1.013294e-28
1.3618057e-41
5.06647e-29
1.188347e-56
2.7796753e-43
-2.8137158e-41
-2.533235e-28
2.533235e-28
2.8122758e-41
7.1519571e-43
0
1.519941e-28
2.8129958e-41
4.053176e-28
-7.093058e-28
1.9690971e-40
2.026588e-28
0
-5.8981473e-45
8.4411474e-41
4.3199321e-44
-3.039882e-28
2.026588e-28
-2.026588e-28
0
5.06647e-28
-5.6274316e-40
-3.546529e-28
-5.7599095e-44
-6.079764e-28
-2.026588e-28
-4.053176e-28
3.039882e-28
1.013294e-28
0
-1.013294e-28
1.6870775e-40
-2.026588e-28
0
3.039882e-28
7.8704169e-54
1.013294e-28
-5.6274316e-41
-1.1146234e-27
6.079764e-28
1.2654521e-40
-4.053176e-28
3.039882e-28
-1.4057779e-40
-8.106352e-28
-5.06647e-29
-8.106352e-28
-4.559823e-28
1.013294e-28
2.026588e-28
2.5309042e-40
-4.053176e-28
5.06647e-28
-2.8137158e-41
-2.533235e-28
1.1243343e-40
-1.2159528e-27
5.6245516e-41
-5.06647e-28
-1.013294e-28
-4.053176e-28
3.039882e-28
-2.2503966e-40
1.013294e-28
-1.6882295e-40
1.013294e-28
3.039882e-28
-8.4382674e-41
-2.2501086e-40
5.6216717e-41
2.533235e-28
0
2.533235e-28
1.013294e-28
0
0
0
0
0
3.039882e-28
4.053176e-28
0
-3.039882e-28
-1.6938414e-40
-8.4397074e-41
-3.039882e-28
0
0
0
1.013294e-28
-5.06647e-29
-1.4231135e-41
4.1439968e-41
1.013294e-28
-8.4411474e-41
4.053176e-28
0
-1.013294e-28
2.5319122e-40
-5.06647e-29
-2.533235e-28
1.013294e-28
-1.519941e-28
-5.6245516e-41
-1.013294e-28
0
0
-1.013294e-28
-1.4285695e-41
0
4.559823e-28
1.4399774e-43
2.026588e-28
1.013294e-28
3.039882e-28
0
7.093058e-28
-2.026588e-28
0
9.119646e-28
2.026588e-28
4.053176e-28
-5.06647e-29
2.533235e-28
-3.039882e-28
1.013294e-28
3.5999434e-44
4.559823e-28
-3.546529e-28
2.1382118e-44
-1.013294e-28
-1.9515332e-56
5.5731562e-41
-1.013294e-28
-2.026588e-28
0
-1.013294e-28
2.026588e-28
0
-1.013294e-28
-3.039882e-28
-5.6231116e-41
3.546529e-28
3.039882e-28
-1.130454e-40
-3.039882e-28
5.06647e-29
5.06647e-29
0
-1.013294e-28
-4.559823e-28
5.06647e-29
1.053828e-54
-1.692153e-40
3.039882e-28
1.013294e-28
5.06647e-29
-3.4211388e-43
3.039882e-28
2.533235e-28
-2.533235e-28
5.06647e-29
2.533235e-28
8.6034905e-41
-2.026588e-28
9.119646e-28
2.533235e-28
-3.039882e-28
-6.079764e-28
4.053176e-28
-2.533235e-28
-8.4353875e-41
-2.5314802e-40
-1.519941e-27
4.053176e-28
1.013294e-28
-5.7368399e-41
-1.519941e-28
2.026588e-28
-5.7599095e-44
-2.533235e-28
2.026588e-28
4.559823e-28
-9.119646e-28
-3.039882e-28
4.559823e-28
0
3.039882e-28
3.039882e-28
-1.2159528e-27
2.533235e-28
-4.053176e-28
6.255316e-53
-2.2495327e-40
2.026588e-28
0
2.026588e-28
3.039882e-28
-3.039882e-28
-1.519941e-28
-7.093058e-28
2.533235e-28
-4.053176e-28
1.3172822e-27
0
-4.053176e-28
6.4146353e-43
-2.533235e-28
-9.119646e-28
5.6245516e-41
-3.546529e-28
9.119646e-28
-6.079764e-28
1.856102e-39
4.053176e-28
-3.039882e-28
0
-3.039882e-28
0
5.6252716e-40
5.06647e-29
2.026588e-28
1.519941e-28
-1.1519819e-43
-1.013294e-28
0
5.06647e-28
5.06647e-29
3.039882e-28
6.2462302e-53
3.039882e-28
-1.013294e-27
3.546529e-28
-2.5306162e-40
1.7105694e-43
-3.546529e-28
3.039882e-28
-2.026588e-28
-4.559823e-28
0
4.559823e-28
-2.026588e-28
9.119646e-28
9.119646e-28
-4.053176e-28
-9.119646e-28
2.026588e-28
5.06647e-29
2.026588e-28
-3.039882e-28
-1.013294e-28
-2.533235e-28
4.3199321e-44
-2.026588e-28
3.039882e-28
-9.119646e-28
3.546529e-28
1.4229274e-52
7.599705e-28
0
1.519941e-28
-3.039882e-28
2.533235e-28
1.519941e-28
1.013294e-28
0
-1.519941e-28
2.8122758e-41
5.6544083e-41
1.5594935e-53
-5.2350058e-44
0
3.546529e-28
-1.3172822e-27
-2.2799115e-27
9.119646e-28
4.559823e-28
-2.026588e-28
2.026588e-28
1.013294e-28
-2.533235e-28
3.039882e-28
1.519941e-28
1.013294e-28
-1.013294e-28
2.026588e-28
-1.2159528e-27
-3.039882e-28
5.06647e-29
-1.519941e-28
6.749462e-40
-7.8743723e-40
-1.013294e-28
1.1249103e-40
-1.0691059e-43
-5.06647e-29
-5.06647e-29
-3.039882e-28
4.053176e-28
-5.06647e-29
3.039882e-28
4.053176e-28
8.106352e-28
-7.599705e-28
-1.1519819e-43
4.053176e-28
-5.06647e-28
5.06647e-29
0
5.06647e-29
0
-5.06647e-28
3.546529e-28
-1.6873655e-40
4.559823e-28
-2.026588e-28
-2.533235e-28
1.4746435e-43
-2.026588e-28
-1.013294e-28
-1.519941e-28
2.026588e-28
1.013294e-28
8.4382674e-41
1.013294e-28
4.053176e-28
3.039882e-28
-8.4346675e-41
2.5310482e-40
1.2239808e-43
5.06647e-28
-1.1248947e-40
-1.519941e-28
3.039882e-28
1.1249103e-40
1.013294e-28
0
0
-5.06647e-29
2.5310482e-40
-2.2492447e-40
-1.013294e-28
-2.026588e-28
1.013294e-28
2.8115558e-40
-1.6036588e-43
7.599705e-28
2.533235e-28
0
0
0
1.0639587e-27
2.026588e-28
1.519941e-28
-5.6259916e-41
-1.013294e-28
0
0
-2.026588e-28
3.374731e-40
1.6869335e-40
1.013294e-28
-4.559823e-28
-9.119646e-28
2.026588e-28
-1.519941e-28
7.599705e-28
3.039882e-28
0
0
0
-6.079764e-28
2.026588e-28
-4.559823e-28
-5.6245516e-40
-5.06647e-28
4.3199321e-44
-1.519941e-28
-2.026588e-28
3.9371861e-40
2.533235e-28
-3.039882e-28
0
-3.375595e-40
-6.079764e-28
6.079764e-28
-9.119646e-28
-2.026588e-28
-2.533235e-28
-2.5304002e-40
3.039882e-28
-6.079764e-28
-5.06647e-28
-2.026588e-28
-4.559823e-28
3.039882e-28
-5.06647e-29
5.06647e-28
6.079764e-28
-2.8122758e-40
8.4346675e-41
-1.519941e-28
0
-1.013294e-28
-3.039882e-28
-4.559823e-28
-1.013294e-28
-3.039882e-28
-4.053176e-28
1.6871495e-40
1.013294e-28
1.2829271e-43
-5.06647e-29
-1.519941e-28
3.039882e-28
-6.079764e-28
-2.533235e-28
2.9239029e-41
3.039882e-28
-1.013294e-28
5.06647e-28
2.8108358e-41
-2.026588e-28
-5.06647e-29
-4.559823e-28
2.026588e-28
2.533235e-28
-7.599705e-28
3.5999434e-44
1.519941e-27
7.093058e-28
-4.559823e-28
-5.06647e-29
2.1076559e-54
-1.6870775e-40
2.026588e-28
-7.093058e-28
-8.106352e-28
3.546529e-28
-1.1249103e-40
6.079764e-28
-3.546529e-28
1.6889456e-40
2.026588e-28
1.013294e-28
0
-1.519941e-28
-8.106352e-28
1.4399774e-44
-1.0639587e-27
-6.079764e-28
1.2159528e-27
-6.4798982e-44
-1.2159528e-27
1.013294e-27
-1.6876535e-40
3.039882e-28
-4.559823e-28
-1.013294e-28
0
0
2.3741377e-43
3.039882e-28
2.026588e-28
-7.599705e-28
2.8122758e-40
6.079764e-28
-3.039882e-28
-2.026588e-28
-5.06647e-29
-6.079764e-28
2.533235e-28
5.06647e-29
3.039882e-28
-1.013294e-28
-3.375307e-40
-1.4054179e-40
-3.039882e-28
4.559823e-28
-9.119646e-28
-7.599705e-28
0
1.3679469e-27
5.06647e-28
-1.519941e-28
-4.3199321e-44
-1.519941e-28
2.026588e-28
-5.06647e-29
-1.013294e-28
-2.8122758e-40
1.013294e-28
-1.9243906e-43
3.039882e-28
6.079764e-28
-4.053176e-28
3.375595e-40
-8.4367099e-41
3.039882e-28
-2.026588e-28
1.0639587e-27
0
-6.079764e-28
-1.013294e-28
-1.519941e-28
-4.7486954e-56
-2.026588e-28
1.013294e-28
2.026588e-28
-1.1243343e-40
3.039882e-28
-1.1249103e-40
-2.026588e-28
-5.6238316e-41
0
2.026588e-28
7.599705e-28
-1.013294e-28
6.3106022e-53
1.181055e-39
-2.533235e-28
-5.06647e-29
-1.013294e-28
-4.559823e-28
-3.039882e-28
-3.3693827e-40
2.026588e-28
-1.7279728e-43
9.119646e-28
-1.519941e-28
5.06647e-28
1.6719351e-27
-1.5187585e-39
-7.093058e-28
-1.013294e-28
-3.039882e-28
-9.119646e-28
9.119646e-28
1.013294e-28
1.6869335e-40
3.039882e-28
-3.039882e-28
-2.37374e-55
-2.026588e-28
4.053176e-28
-1.3501228e-39
-1.519941e-27
1.0639587e-27
9.119646e-28
0
0
0
-5.06647e-29
4.559823e-28
1.013294e-28
2.8122758e-40
2.026588e-28
-3.039882e-28
-1.013294e-28
-3.039882e-28
-3.546529e-28
-3.546529e-28
9.119646e-28
-5.06647e-29
-1.519941e-28
-3.374731e-40
-3.039882e-28
-6.079764e-28
-6.079764e-28
0
5.6403994e-41
5.6245516e-41
0
4.559823e-28
2.026588e-28
-1.013294e-28
0
0
-3.039882e-28
-1.2159528e-27
3.374731e-40
1.013294e-28
2.026588e-28
1.519941e-28
-3.546529e-28
1.013294e-28
1.053828e-54
5.9067872e-40
-1.2159528e-27
0
0
5.06647e-28
1.1223288e-40
-1.519941e-28
-5.6238316e-41
-2.5204103e-40
-3.375595e-40
2.026588e-28
0
-5.06647e-28
-2.533235e-28
6.079764e-28
-2.533235e-28
-1.013294e-28
0
4.559823e-28
-2.0248386e-39
-9.119646e-28
1.2159528e-27
7.093058e-28
0
0
0
1.0639587e-27
5.06647e-28
3.039882e-28
3.039882e-28
0
2.026588e-28
-1.6873655e-40
-5.06647e-29
-3.039882e-28
3.546529e-28
-7.093058e-28
-5.06647e-28
3.039882e-28
7.093058e-28
6.079764e-28
1.013294e-28
-3.546529e-28
5.06647e-28
-3.039882e-28
0
4.559823e-28
-1.013294e-28
-1.519941e-28
-7.093058e-28
7.3119171e-40
-2.026588e-28
8.4382674e-40
1.013294e-28
-2.5316962e-40
-5.8545997e-56
3.039882e-28
0
-2.026588e-28
7.093058e-28
4.559823e-28
3.3804571e-40
-1.3679469e-27
0
1.013294e-28
-6.079764e-28
7.093058e-28
-2.533235e-28
-4.053176e-28
1.0639587e-27
-4.053176e-28
1.6890968e-40
-1.519941e-28
-1.013294e-28
-1.013294e-28
1.2159528e-27
5.573117e-28
8.4368274e-41
-1.013294e-28
-2.3039638e-43
1.2159528e-27
-7.093058e-28
-9.119646e-28
-1.519941e-28
3.039882e-28
-3.039882e-28
1.6719351e-27
-5.6252716e-40
4.053176e-28
1.519941e-28
2.8122758e-41
1.013294e-28
2.017679e-55
-2.026588e-28
-1.519941e-28
-6.079764e-28
-3.546529e-28
-4.4996413e-40
6.079764e-28
-8.4368274e-40
-4.559823e-28
1.013294e-28
-1.6882295e-40
5.6288716e-41
4.5002173e-40
5.06647e-29
-4.559823e-28
-8.4903863e-41
-2.5306162e-40
5.0620965e-40
-2.5284471e-40
-8.4728385e-41
-3.039882e-28
5.6245516e-41
-1.013294e-28
5.06647e-29
1.453984e-42
5.06647e-28
-1.1247663e-40
6.079764e-28
-5.6231116e-41
2.026588e-28
-5.06647e-28
2.533235e-28
1.519941e-28
-1.5475492e-53
-1.1249103e-40
3.039882e-28
-7.093058e-28
3.039882e-28
-1.6876535e-40
5.0620965e-40
-4.559823e-28
1.013294e-28
4.3199321e-44
3.039882e-28
2.533235e-28
1.0639587e-27
2.533235e-28
-1.519941e-28
5.6245516e-41
2.533235e-28
-8.106352e-28
9.119646e-28
1.5188881e-39
-1.519941e-28
5.06647e-29
-2.533235e-28
3.039882e-28
-1.519941e-28
-9.119646e-28
0
0
7.093058e-28
1.4399774e-44
-5.06647e-28
5.573117e-28
2.7358938e-27
1.1146234e-27
-3.9518466e-27
-4.4639299e-43
-2.0248386e-39
-5.2691288e-27
9.4236342e-27
1.619963e-38
-3.9011819e-27
4.8131465e-27
5.6744464e-27
-7.5407583e-39
-8.0556873e-27
1.9049927e-26
-2.2495127e-26
4.4040239e-38
3.1614773e-26
-5.7757758e-26
-4.6104877e-26
2.7358938e-26
9.78842e-26
3.8606501e-26
-4.6054212e-26
0
6.5053474e-26
-7.685835e-26
-2.7222143e-25
-5.9507756e-38
2.5372882e-25
-1.502715e-25
-1.778331e-25
4.2051701e-25
-2.4840902e-25
2.9299396e-25
6.9086385e-25
-1.2226405e-24
1.6006349e-36
-1.2571357e-36
-1.3332922e-24
1.5686804e-24
9.2260418e-25
1.0854405e-24
1.4178565e-36
-1.4993205e-24
3.521298e-24
-4.1327196e-24
-7.2724617e-24
0
3.3323186e-24
-2.1670554e-36
-1.29945e-39
1.6052553e-23
6.258813e-24
-2.1955092e-23
8.5530626e-24
-8.0465033e-51
-3.4994057e-23
1.3611882e-23
4.7630847e-23
1.8509892e-23
-4.3136635e-23
2.5119507e-23
-2.924103e-23
1.1330592e-34
7.9125696e-23
-1.3795243e-22
-5.933502e-35
2.7547585e-34
-1.4396952e-22
1.6699419e-22
1.074637e-34
-1.1216607e-22
2.5980351e-22
1.5036346e-22
0
0
-4.6492837e-22
5.9618459e-34
1.7620957e-37
3.9708232e-34
4.1248985e-22
4.7543866e-22
-5.4769812e-22
-6.3059768e-22
1.4512995e-21
-1.6691456e-21
1.0649892e-33
2.2042049e-21
-2.5308758e-21
-4.8363995e-33
1.8489979e-33
-1.9091777e-21
4.3744604e-21
-2.5043646e-21
6.3630752e-33
6.5553318e-21
0
-8.5599207e-21
-4.8865546e-21
1.1151795e-20
6.3587945e-21
-7.2473922e-21
1.3749361e-32
9.3979377e-21
0
0
-2.7632175e-20
-3.1382104e-20
0
4.0404885e-20
2.2902693e-20
-2.5948102e-20
2.938055e-20
-3.3246692e-20
0
8.4987197e-20
0
0
-6.1117319e-20
7.64921e-32
7.7630109e-20
0
-9.835494e-20
-6.1392621e-32
1.2429474e-19
0
-3.1334318e-19
-3.5145223e-19
1.9696948e-19
2.4490842e-31
-2.4698403e-19
5.5259084e-19
6.1776032e-19
-6.9015492e-19
-1.0949702e-34
-9.5447231e-31
-1.3620563e-34
1.0678971e-18
-5.9450797e-19
7.3434602e-31
-7.354954e-19
8.172243e-19
2.7222132e-18
-3.0204988e-18
-1.1163734e-18
1.2369602e-18
1.5202729e-30
1.5153922e-18
-3.3510067e-18
-3.7024062e-18
4.0877084e-18
7.5092751e-30
2.4859767e-18
2.7387063e-18
-6.0298311e-18
3.3165355e-18
-4.0466844e-30
2.2238832e-30
-4.3951868e-18
-9.6409838e-18
1.0565932e-17
1.1570848e-17
0
-6.9224025e-18
-8.3965438e-30
1.6514841e-17
1.0000382e-29
-2.9458269e-17
-2.1390864e-17
0
2.5317965e-17
3.0538019e-29
1.4935644e-17
1.6203812e-17
-5.2696718e-17
1.0558425e-29
4.1184384e-17
-2.2268706e-17
-4.8124226e-17
2.5978711e-17
5.6049944e-17
3.0207534e-17
0
-7.0017716e-17
3.7641607e-17
1.2131579e-16
-4.3407082e-17
-4.6554392e-17
-9.9775805e-17
-5.3415018e-17
1.1428628e-16
6.1079658e-17
6.5231894e-17
-7.7274455e-29
-7.4212398e-17
-7.9054787e-17
-1.6828215e-16
-8.9477859e-17
0
0
0
2.2690488e-16
2.402614e-16
-2.5418508e-16
-1.4914011e-28
-1.5751152e-28
1.6616711e-28
3.5051939e-28
-3.3256058e-16
0
3.6808277e-16
1.9337238e-16
-2.0300274e-16
2.1293084e-16
2.2315428e-16
0
0
-5.1112136e-16
8.8898339e-28
6.1849095e-28
-5.8092242e-16
6.0523346e-16
6.3003789e-16
0
-6.8104647e-16
3.9245275e-28
7.3377103e-16
-7.6071444e-16
-4.3751682e-28
8.1562543e-16
0
-8.7170096e-16
-4.5004748e-16
9.28681e-16
-4.7871177e-16
-1.0952076e-27
1.0152305e-15
-1.0442187e-15
-1.0732111e-15
0
0
0
1.1884088e-15
1.2168067e-15
-1.2449591e-15
0
1.3003545e-15
0
6.7712456e-16
-1.3805252e-15
-7.0314816e-16
7.1575969e-16
-1.4561518e-15
-7.4007557e-16
1.5034756e-15
7.630419e-16
8.5933145e-28
-7.8449427e-16
1.7642595e-27
-4.5717643e-31
-1.6269742e-15
0
8.3047079e-16
1.6764101e-15
8.4541138e-16
0
0
0
8.6863801e-16
-1.7459414e-15
-8.7668658e-16
8.7977329e-16
8.8221934e-16
-8.8401411e-16
-8.8514805e-16
1.7712181e-15
0
-1.7688175e-15
-1.7654988e-15
0
0
1.7471405e-15
9.6483737e-28
8.6393399e-16
8.5806269e-16
-8.5149337e-16
8.4423093e-16
-8.3628191e-16
-1.6553086e-15
-8.1835773e-16
0
1.59561e-15
8.7299602e-28
-7.7473488e-16
7.6229812e-16
7.4928632e-16
1.4714424e-15
-1.4432527e-15
-7.0702695e-16
1.9666401e-31
-6.7642394e-16
1.3209581e-15
-6.4414697e-16
6.2746076e-16
4.0427778e-44
-5.9316517e-16
1.1512564e-15
-1.1157636e-15
-1.0799289e-15
0
5.0377438e-16
9.7116267e-16
-2.5942938e-28
-4.4919944e-16
-4.310903e-16
8.2617624e-16
7.904629e-16
-3.7755778e-16
-7.202073e-16
-6.8580828e-16
3.2599291e-16
6.1880378e-16
-2.9316107e-16
2.772986e-16
-4.359493e-28
-2.4680973e-16
4.6445635e-16
-4.3622871e-16
-2.2695078e-28
1.0622046e-27
-3.5745716e-16
3.3324405e-16
6.8846529e-28
-1.4398142e-16
2.6690337e-16
-1.2344801e-16
3.2391253e-32
-4.6627168e-28
-9.6545734e-17
1.7717784e-16
-1.8011101e-28
4.1135056e-29
-6.759308e-17
1.7480921e-32
1.1169417e-16
-1.0120107e-16
-2.6004743e-32
1.83269e-28
-7.430219e-17
6.6738263e-17
6.6400664e-29
-5.3486405e-17
2.3861757e-17
2.1243432e-17
1.8870291e-17
-1.6724755e-17
1.6419339e-29
2.6100335e-17
0
0
-1.7692112e-17
-2.1988801e-33
1.3503116e-17
-5.8793804e-18
5.6704221e-30
-4.430548e-18
-8.5136427e-30
6.624278e-18
0
2.4579734e-18
-4.2245039e-18
-1.8125904e-18
3.4496771e-30
-1.3301719e-18
2.2762957e-18
-9.7360813e-19
9.2434835e-31
1.4256389e-18
0
0
-4.5050573e-19
2.1546505e-31
-3.3541627e-19
2.9049221e-19
7.5593535e-19
-6.5650734e-19
-1.8977238e-19
3.2653732e-19
-1.4929034e-19
-2.4557203e-31
-1.4359878e-19
7.7279445e-35
4.0740845e-31
-9.3292656e-20
1.8877062e-19
1.4509701e-19
0
1.3066161e-19
-1.137518e-19
-1.4796891e-19
-1.6076049e-19
2.7735221e-31
-1.4302929e-31
2.3085448e-31
5.3618267e-19
-2.3471045e-19
-2.7455473e-31
2.4201873e-19
-1.7849207e-35
-1.757916e-19
-4.5274763e-19
-4.1924047e-19
2.8401987e-19
8.2318713e-32
7.4203114e-20
1.4570965e-19
-3.7571839e-19
2.9816158e-19
9.4046475e-20
-2.8341001e-19
-2.8457985e-19
1.8213413e-19
3.3326779e-19
1.225374e-19
-1.1249324e-19
-2.7281163e-19
2.9111821e-19
3.6042801e-19
-1.075791e-19
-1.237958e-19
-2.6504962e-19
-1.2762504e-19
2.7841621e-19
1.6179837e-19
1.8632007e-19
-3.9114349e-19
-1.6937663e-19
2.8951125e-19
-3.1461234e-19
-6.9072349e-47
-3.0285674e-35
-1.3135173e-19
1.4668912e-19
2.7693039e-31
6.7151696e-32
1.1659221e-31
1.2239417e-47
1.0350434e-19
3.4037134e-32
-2.850217e-20
-6.2750784e-20
-6.5727388e-20
6.6506148e-20
7.9077502e-32
3.7862119e-20
1.3172218e-31
-4.4353938e-20
1.0801788e-19
0
-6.4548537e-20
7.4128751e-32
-7.6411956e-20
-1.7969726e-19
1.852866e-19
1.7986182e-19
0
-1.9426885e-19
1.8690712e-31
1.5301919e-19
-1.8061811e-19
-1.071171e-31
8.5555423e-20
4.0864256e-32
1.6544623e-35
-4.5287905e-20
4.3146232e-20
4.8877942e-20
-3.8105691e-20
1.3251256e-32
1.445402e-20
-9.5048112e-32
3.3171021e-32