/*--------------------------------*- C++ -*----------------------------------*\
  =========                 |
  \\      /  F ield         | OpenFOAM: The Open Source CFD Toolbox
   \\    /   O peration     | Website:  https://openfoam.org
    \\  /    A nd           | Version:  7
     \\/     M anipulation  |
\*---------------------------------------------------------------------------*/
FoamFile
{
    version     2.0;
    format      ascii;
    class       volScalarField;
    location    "0.00095";
    object      mag(U);
}
// * * * * * * * * * * * * * * * * * * * * * * * * * * * * * * * * * * * * * //

dimensions      [0 1 -1 0 0 0 0];

internalField   nonuniform List<scalar> 
5000
(
2.2356881e-13
1.9739657e-13
2.6803106e-13
3.5481884e-13
2.0407209e-13
4.4572676e-13
3.3948205e-13
1.1312399e-13
1.8584879e-13
2.2220631e-13
1.7472793e-13
1.308412e-13
6.8257294e-14
1.0030939e-13
1.3256848e-13
2.9233248e-13
2.4808068e-13
4.8147261e-13
5.5164976e-13
6.7790111e-13
6.9788467e-13
6.9501378e-13
5.3263199e-13
5.1859277e-13
6.7707967e-13
4.1792453e-13
2.7321212e-13
2.2412664e-13
2.8361135e-13
1.4599859e-13
1.7315324e-13
7.5118017e-14
5.7477154e-14
7.5974623e-14
1.3379213e-13
5.1852517e-14
1.0933005e-13
2.2691509e-13
1.7026979e-13
9.2933418e-14
3.1597561e-14
1.0904374e-13
1.6862258e-14
6.2050092e-14
1.6890023e-13
2.9323502e-13
5.6923377e-13
3.7374508e-13
4.9379637e-13
5.9063151e-13
4.9863121e-13
5.6628753e-13
5.2005744e-13
7.5719351e-13
7.615367e-13
8.3566785e-13
7.1413229e-13
1.0204572e-12
1.0363621e-12
1.1721849e-12
8.5586315e-13
8.0080982e-13
7.0390801e-13
6.3152079e-13
3.8297146e-13
3.0363616e-13
2.0042969e-13
1.4155394e-13
1.0205202e-13
5.7933107e-14
1.16999e-13
6.731773e-17
1.0667186e-13
2.332113e-13
1.1178413e-13
2.5329176e-13
1.3843292e-13
2.6924968e-13
1.1240125e-13
1.7819968e-13
3.832427e-13
1.7941299e-13
1.6924312e-13
1.5594149e-13
2.4330829e-13
1.9854034e-13
1.9851402e-13
1.4013304e-13
1.2819322e-14
1.2621593e-13
1.8209523e-13
5.6794721e-14
5.962344e-14
2.0342988e-14
3.6233144e-14
2.9659665e-13
1.997128e-13
1.5699433e-13
1.4608288e-13
1.6701445e-13
2.9260922e-13
3.2794121e-13
3.2092446e-13
3.2272784e-13
2.4296097e-13
1.7453157e-13
1.7103308e-13
3.3509135e-13
3.4023689e-13
2.1673273e-13
1.2577705e-13
3.3901857e-13
1.614625e-13
6.1978028e-14
7.6627834e-14
2.2263766e-13
2.0316404e-13
1.2634168e-13
1.3644728e-13
4.7400421e-14
4.0604025e-14
1.0722046e-13
9.227715e-14
1.5823668e-13
1.3103747e-13
2.9025116e-13
1.432147e-13
5.9423027e-14
1.2944553e-13
3.2510552e-13
2.2822396e-13
2.3935212e-14
2.1248056e-13
2.7665077e-13
2.4097196e-13
3.1363371e-13
1.4441509e-13
2.1245392e-13
9.1939871e-14
1.0663824e-13
2.0808343e-13
1.7880116e-13
3.1039843e-13
2.7737769e-14
1.5273844e-14
1.30819e-13
1.3250438e-13
2.0734596e-13
1.6987611e-13
4.801303e-13
4.5161342e-13
5.1689701e-13
4.938144e-13
3.4999454e-13
5.8180311e-13
4.2821821e-13
4.3746409e-13
3.236546e-13
5.3144215e-13
5.2139909e-13
4.5177568e-13
4.0321761e-13
6.4431666e-13
6.9373847e-13
7.2081709e-13
6.4249461e-13
5.7981857e-13
7.2662661e-13
9.826551e-13
1.054243e-12
1.0147598e-12
1.2333794e-12
1.2890923e-12
1.3059006e-12
1.2516525e-12
1.637079e-12
1.6708813e-12
1.3515864e-12
1.5730638e-12
1.8236208e-12
1.6585858e-12
1.6588276e-12
1.74511e-12
1.52251e-12
1.6982998e-12
1.4583412e-12
1.5932471e-12
1.8215258e-12
1.7820176e-12
1.6777737e-12
1.5154725e-12
1.6588831e-12
1.5129534e-12
1.3201446e-12
1.321431e-12
1.3982906e-12
1.466604e-12
1.3363802e-12
1.4514462e-12
1.4329937e-12
1.3623357e-12
1.2555616e-12
1.0939197e-12
1.0125935e-12
7.8646515e-13
9.6448728e-13
1.008105e-12
1.109073e-12
1.2736277e-12
1.3436825e-12
1.1626178e-12
1.2744941e-12
1.0262197e-12
1.1965875e-12
1.3030726e-12
1.4100735e-12
1.2364568e-12
1.0403864e-12
1.0665724e-12
1.1442925e-12
1.0102643e-12
7.3202445e-13
9.6826835e-13
6.3268975e-13
4.9655837e-13
7.2191731e-13
7.2176738e-13
6.8503864e-13
7.4794667e-13
6.4472432e-13
4.5861727e-13
3.3142035e-13
3.6629492e-13
4.7544382e-13
4.2810261e-13
3.009088e-13
3.8028966e-13
1.9280461e-13
2.8144577e-13
4.3072871e-13
4.8935768e-13
2.5538681e-13
1.4638364e-13
4.7986017e-14
1.0027501e-13
2.4116909e-14
7.7061507e-14
3.3593436e-13
4.3937025e-13
4.6526114e-13
5.9344864e-13
7.7251223e-13
4.0256448e-13
2.1310267e-13
3.5561491e-13
3.7738536e-13
3.872183e-13
6.6729884e-13
7.0282486e-13
5.9755719e-13
5.5073453e-13
4.4287984e-13
7.0171787e-13
6.5935495e-13
7.5730576e-13
7.6422449e-13
8.9203785e-13
8.9330183e-13
8.4965752e-13
8.2682846e-13
8.8980563e-13
1.2566337e-12
1.3682671e-12
1.2173556e-12
1.4290206e-12
1.3112461e-12
1.312709e-12
1.1167825e-12
1.3222139e-12
1.5141879e-12
1.432066e-12
1.3500077e-12
1.2825099e-12
1.2165009e-12
1.3523981e-12
1.1732764e-12
1.2282776e-12
1.3804148e-12
1.2269459e-12
1.2472608e-12
1.2523382e-12
1.1751042e-12
8.7568455e-13
7.3483843e-13
5.9744333e-13
6.6516467e-13
6.3453127e-13
6.4117008e-13
3.5516976e-13
1.3814906e-13
2.7470618e-13
5.3849481e-13
4.8503581e-13
6.8930628e-13
9.9131425e-13
8.4682228e-13
7.1948895e-13
9.4011138e-13
1.0017291e-12
8.1904365e-13
9.2663127e-13
8.9584258e-13
8.0772462e-13
8.9619591e-13
8.4559363e-13
1.0203469e-12
1.3536898e-12
1.2028474e-12
1.0220376e-12
1.4730881e-12
1.2327583e-12
1.2618878e-12
1.4495385e-12
1.495971e-12
1.5572213e-12
1.6349872e-12
1.6237831e-12
1.7000786e-12
1.7533595e-12
1.4810412e-12
1.3893068e-12
1.3442938e-12
1.6803938e-12
1.7656945e-12
1.5294781e-12
1.6612273e-12
1.7820114e-12
1.6733085e-12
1.7641022e-12
1.5518648e-12
1.4726764e-12
1.3923888e-12
1.4853493e-12
1.2074718e-12
1.3137966e-12
1.1829862e-12
8.9623372e-13
1.1645569e-12
9.1714198e-13
8.5288563e-13
6.2797468e-13
4.1207874e-13
4.2801812e-13
3.8011158e-13
1.7476142e-13
1.3487869e-13
9.0787306e-14
2.706724e-13
3.0322798e-13
5.0901671e-13
7.3688297e-13
5.1515501e-13
7.7490274e-13
1.0820458e-12
1.3391535e-12
1.4802239e-12
1.6896774e-12
2.1524925e-12
1.9798433e-12
2.1494818e-12
2.4428552e-12
2.7625368e-12
3.0946967e-12
3.3550077e-12
3.9221856e-12
4.0818352e-12
4.4938791e-12
4.9744911e-12
5.45807e-12
6.077743e-12
6.5959172e-12
7.1655663e-12
7.6017806e-12
8.360499e-12
9.2298511e-12
1.044046e-11
1.1628831e-11
1.2698404e-11
1.3894122e-11
1.5073154e-11
1.7012586e-11
1.877795e-11
2.0384325e-11
2.2197145e-11
2.4491538e-11
2.704083e-11
2.9783591e-11
3.261726e-11
3.5940956e-11
3.9529257e-11
4.3510031e-11
4.7679729e-11
5.2821614e-11
5.8072094e-11
6.3488658e-11
6.969049e-11
7.6560848e-11
8.4453217e-11
9.283907e-11
1.0183269e-10
1.115134e-10
1.2266185e-10
1.3470976e-10
1.477874e-10
1.6228783e-10
1.7799921e-10
1.9551263e-10
2.1450277e-10
2.3543725e-10
2.5851627e-10
2.8328702e-10
3.1058409e-10
3.4054005e-10
3.7304374e-10
4.0879724e-10
4.4791312e-10
4.9085021e-10
5.3778014e-10
5.8852085e-10
6.4435079e-10
7.0526676e-10
7.7218131e-10
8.4513811e-10
9.2465792e-10
1.0114581e-09
1.1065427e-09
1.2103591e-09
1.3237206e-09
1.4470864e-09
1.5823684e-09
1.7298467e-09
1.8901768e-09
2.0652636e-09
2.2559009e-09
2.463441e-09
2.6906003e-09
2.9380955e-09
3.2073815e-09
3.5014376e-09
3.8210244e-09
4.1694054e-09
4.5493862e-09
4.9624108e-09
5.4120745e-09
5.901981e-09
6.4346049e-09
7.0153707e-09
7.6463871e-09
8.3326657e-09
9.079883e-09
9.8921922e-09
1.0774841e-08
1.1734408e-08
1.2778349e-08
1.3911839e-08
1.5143484e-08
1.6481534e-08
1.7935396e-08
1.9514627e-08
2.1229289e-08
2.3090144e-08
2.5110067e-08
2.7302409e-08
2.9681254e-08
3.2262942e-08
3.5062895e-08
3.8099837e-08
4.1393059e-08
4.4963401e-08
4.8834055e-08
5.3028304e-08
5.7574159e-08
6.2499924e-08
6.7835578e-08
7.3615029e-08
7.9873108e-08
8.6648697e-08
9.3983921e-08
1.0192293e-07
1.1051419e-07
1.1981105e-07
1.2986767e-07
1.4074544e-07
1.525094e-07
1.6522855e-07
1.7897866e-07
1.9384042e-07
2.0990229e-07
2.2725788e-07
2.4600586e-07
2.6625691e-07
2.881265e-07
3.1174098e-07
3.3723566e-07
3.6475248e-07
3.9444853e-07
4.2649148e-07
4.6105909e-07
4.9834554e-07
5.3855729e-07
5.8191531e-07
6.2865901e-07
6.7904155e-07
7.3333871e-07
7.9184482e-07
8.5487355e-07
9.2276312e-07
9.9587614e-07
1.0745995e-06
1.1593493e-06
1.2505711e-06
1.3487405e-06
1.4543695e-06
1.5680047e-06
1.6902305e-06
1.821673e-06
1.9630027e-06
2.1149345e-06
2.2782359e-06
2.4537279e-06
2.6422843e-06
2.8448422e-06
3.0624042e-06
3.2960377e-06
3.5468846e-06
3.8161651e-06
4.1051829e-06
4.415329e-06
4.7480867e-06
5.1050403e-06
5.4878803e-06
5.8984097e-06
6.3385507e-06
6.8103546e-06
7.3160073e-06
7.8578388e-06
8.4383325e-06
9.0601316e-06
9.7260547e-06
1.0439104e-05
1.1202476e-05
1.2019568e-05
1.2894003e-05
1.3829636e-05
1.4830562e-05
1.5901141e-05
1.7046012e-05
1.8270103e-05
1.9578655e-05
2.0977236e-05
2.2471765e-05
2.4068527e-05
2.5774202e-05
2.7595877e-05
2.9541081e-05
3.1617805e-05
3.3834527e-05
3.6200245e-05
3.87245e-05
4.1417415e-05
4.4289719e-05
4.7352788e-05
5.0618682e-05
5.4100175e-05
5.7810802e-05
6.1764898e-05
6.5977644e-05
7.0465113e-05
7.5244315e-05
8.0333253e-05
8.5750975e-05
9.1517629e-05
9.765452e-05
0.00010418418
0.00011113042
0.00011851841
0.00012637474
0.00013472751
0.00014360638
0.0001530427
0.00016306951
0.00017372175
0.00018503623
0.00019705181
0.00020980949
0.00022335248
0.00023772633
0.00025297907
0.0002691613
0.00028632634
0.00030453033
0.00032383241
0.00034429482
0.00036598309
0.00038896618
0.00041331661
0.00043911069
0.00046642864
0.00049535482
0.00052597789
0.000558391
0.00059269204
0.00062898381
0.00066737424
0.00070797669
0.00075091008
0.00079629923
0.00084427508
0.00089497496
0.00094854287
0.0010051298
0.0010648939
0.0011280009
0.0011946246
0.0012649468
0.0013391578
0.0014174571
0.0015000532
0.0015871644
0.0016790188
0.0017758554
0.0018779235
0.001985484
0.0020988096
0.0022181849
0.0023439073
0.0024762874
0.0026156493
0.0027623311
0.0029166859
0.0030790818
0.0032499025
0.0034295484
0.0036184365
0.0038170013
0.0040256957
0.0042449911
0.0044753783
0.0047173684
0.0049714929
0.0052383049
0.0055183798
0.0058123156
0.006120734
0.0064442811
0.0067836282
0.0071394723
0.0075125374
0.0079035747
0.0083133641
0.0087427146
0.0091924651
0.0096634857
0.010156678
0.010672977
0.011213351
0.011778802
0.012370369
0.012989126
0.013636186
0.0143127
0.015019856
0.015758886
0.016531061
0.017337695
0.018180146
0.019059814
0.019978148
0.02093664
0.021936831
0.022980312
0.02406872
0.025203745
0.026387128
0.027620663
0.028906195
0.030245628
0.031640917
0.033094078
0.034607179
0.036182353
0.037821787
0.039527731
0.041302497
0.043148457
0.045068047
0.047063768
0.049138185
0.051293928
0.053533694
0.055860248
0.058276423
0.060785117
0.063389303
0.066092019
0.068896375
0.071805554
0.074822808
0.077951462
0.081194913
0.084556631
0.088040158
0.091649112
0.095387182
0.099258131
0.1032658
0.10741409
0.11170699
0.11614857
0.12074295
0.12549433
0.130407
0.13548531
0.14073367
0.14615659
0.15175863
0.15754442
0.16351868
0.16968617
0.17605174
0.18262031
0.18939684
0.19638638
0.20359403
0.21102496
0.2186844
0.22657764
0.23471003
0.24308697
0.25171391
0.26059637
0.26973992
0.27915016
0.28883276
0.29879342
0.30903789
0.31957196
0.33040146
0.34153226
0.35297025
0.36472138
0.37679159
0.38918687
0.40191324
0.41497672
0.42838337
0.44213925
0.45625044
0.47072302
0.48556308
0.50077673
0.51637007
0.53234917
0.54872014
0.56548904
0.58266195
0.60024492
0.61824398
0.63666513
0.65551435
0.67479762
0.69452083
0.71468989
0.73531064
0.75638888
0.77793038
0.79994084
0.82242591
0.84539122
0.86884229
0.89278461
0.9172236
0.94216459
0.96761288
0.99357367
1.0200521
1.0470531
1.0745818
1.102643
1.1312414
1.1603818
1.1900688
1.2203068
1.2511002
1.2824535
1.3143706
1.3468558
1.379913
1.413546
1.4477586
1.4825544
1.517937
1.5539097
1.5904758
1.6276383
1.6654005
1.703765
1.7427348
1.7823123
1.8225002
1.8633007
1.9047162
1.9467486
1.9894
2.0326722
2.0765668
2.1210855
2.1662295
2.2120003
2.2583988
2.3054262
2.3530832
2.4013706
2.4502888
2.4998384
2.5500196
2.6008326
2.6522774
2.7043538
2.7570615
2.8104002
2.8643693
2.918968
2.9741957
3.0300512
3.0865335
3.1436414
3.2013735
3.2597283
3.3187041
3.3782992
3.4385117
3.4993396
3.5607807
3.6228327
3.6854932
3.7487598
3.8126297
3.8771002
3.9421685
4.0078314
4.0740858
4.1409286
4.2083564
4.2763658
4.344953
4.4141145
4.4838465
4.5541451
4.6250063
4.6964259
4.7683998
4.8409237
4.9139932
4.9876038
5.0617508
5.1364297
5.2116357
5.2873638
5.3636092
5.4403668
5.5176314
5.595398
5.6736612
5.7524156
5.8316558
5.9113764
5.9915716
6.0722358
6.1533634
6.2349484
6.316985
6.3994673
6.4823892
6.5657447
6.6495276
6.7337317
6.8183508
6.9033784
6.9888084
7.0746341
7.160849
7.2474468
7.3344206
7.4217639
7.5094699
7.5975318
7.6859429
7.7746963
7.8637851
7.9532022
8.0429407
8.1329935
8.2233536
8.3140137
8.4049667
8.4962053
8.5877223
8.6795104
8.7715621
8.8638702
8.9564271
9.0492254
9.1422576
9.235516
9.3289933
9.4226816
9.5165733
9.6106608
9.7049363
9.7993921
9.8940203
9.9888131
10.083763
10.178861
10.2741
10.369472
10.46497
10.560584
10.656306
10.75213
10.848046
10.944047
11.040124
11.136269
11.232473
11.32873
11.425029
11.521364
11.617725
11.714104
11.810493
11.906883
12.003266
12.099633
12.195976
12.292285
12.388554
12.484773
12.580933
12.677025
12.773042
12.868974
12.964812
13.060549
13.156174
13.25168
13.347058
13.442298
13.537392
13.632331
13.727106
13.821708
13.916129
14.010359
14.104389
14.198211
14.291815
14.385193
14.478336
14.571234
14.663879
14.756261
14.848372
14.940202
15.031743
15.122985
15.21392
15.304539
15.394832
15.484791
15.574406
15.663669
15.75257
15.841101
15.929253
16.017017
16.104384
16.191345
16.277891
16.364014
16.449705
16.534955
16.619755
16.704097
16.787973
16.871372
16.954289
17.036712
17.118636
17.20005
17.280947
17.361319
17.441157
17.520454
17.599201
17.677391
17.755015
17.832067
17.908539
17.984422
18.059711
18.134397
18.208473
18.281932
18.354768
18.426974
18.498542
18.569467
18.639741
18.70936
18.778316
18.846603
18.914217
18.981151
19.0474
19.112958
19.177821
19.241983
19.30544
19.368188
19.430221
19.491536
19.552128
19.611995
19.671132
19.729536
19.787205
19.844134
19.900322
19.955765
20.010463
20.064412
20.117611
20.170059
20.221754
20.272696
20.322882
20.372314
20.420991
20.468911
20.516077
20.562488
20.608145
20.65305
20.697202
20.740605
20.783258
20.825166
20.866329
20.90675
20.946433
20.985379
21.023594
21.061079
21.097838
21.133877
21.169198
21.203806
21.237707
21.270905
21.303405
21.335212
21.366333
21.396773
21.426538
21.455634
21.484067
21.511846
21.538975
21.565462
21.591315
21.61654
21.641145
21.665138
21.688527
21.711319
21.733522
21.755145
21.776196
21.796684
21.816616
21.836002
21.85485
21.873169
21.890967
21.908255
21.92504
21.941332
21.95714
21.972473
21.98734
22.00175
22.015712
22.029236
22.04233
22.055005
22.067268
22.079129
22.090597
22.101681
22.112391
22.122734
22.13272
22.142358
22.151656
22.160624
22.169269
22.1776
22.185626
22.193354
22.200794
22.207953
22.21484
22.221461
22.227826
22.23394
22.239814
22.245452
22.250864
22.256055
22.261033
22.265806
22.270379
22.274759
22.278953
22.282967
22.286808
22.290481
22.293993
22.297348
22.300554
22.303614
22.306536
22.309323
22.311981
22.314516
22.316931
22.319232
22.321422
22.323507
22.325491
22.327378
22.329171
22.330876
22.332495
22.334032
22.335491
22.336875
22.338188
22.339432
22.340611
22.341727
22.342784
22.343785
22.344731
22.345626
22.346471
22.34727
22.348024
22.348737
22.349408
22.350042
22.350639
22.351202
22.351732
22.352231
22.3527
22.353142
22.353557
22.353947
22.354313
22.354658
22.35498
22.355283
22.355567
22.355833
22.356082
22.356315
22.356533
22.356737
22.356927
22.357105
22.357271
22.357426
22.35757
22.357705
22.35783
22.357946
22.358054
22.358154
22.358247
22.358333
22.358413
22.358486
22.358554
22.358616
22.358673
22.358726
22.358774
22.358817
22.358857
22.358893
22.358926
22.358956
22.358982
22.359006
22.359028
22.359048
22.359066
22.359083
22.359098
22.359115
22.359139
22.359162
22.359175
22.359195
22.359228
22.359256
22.359274
22.359296
22.35933
22.359363
22.359385
22.359405
22.359437
22.359472
22.359498
22.359519
22.359545
22.359576
22.359602
22.359624
22.359648
22.359676
22.359703
22.359726
22.359748
22.359771
22.359795
22.359817
22.359838
22.359857
22.359877
22.359897
22.359914
22.35993
22.359945
22.35996
22.359974
22.359987
22.359998
22.360007
22.36002
22.360037
22.360047
22.360052
22.360068
22.360092
22.360104
22.360109
22.360126
22.360154
22.360168
22.360172
22.360186
22.360215
22.360238
22.36025
22.360262
22.360287
22.360312
22.360327
22.360337
22.360356
22.36038
22.360395
22.360405
22.360422
22.360444
22.360461
22.360474
22.360488
22.360506
22.360522
22.360535
22.360548
22.360566
22.360582
22.360592
22.360603
22.36062
22.360638
22.360646
22.360653
22.36067
22.360688
22.360696
22.360701
22.360715
22.360733
22.360743
22.360748
22.360761
22.36078
22.360789
22.360791
22.360796
22.360813
22.36083
22.360837
22.36084
22.36085
22.360868
22.36088
22.360884
22.36089
22.360905
22.360921
22.36093
22.360937
22.360948
22.360963
22.360976
22.360986
22.360997
22.36101
22.361024
22.361035
22.361046
22.361058
22.361069
22.36108
22.36109
22.361099
22.36111
22.361119
22.361125
22.361132
22.361142
22.361151
22.361156
22.361158
22.361166
22.361178
22.361187
22.361193
22.361203
22.361217
22.361233
22.36125
22.36127
22.361291
22.361303
22.361308
22.361313
22.361317
22.361327
22.36133
22.36132
22.361304
22.361307
22.36131
22.361313
22.361314
22.361318
22.36133
22.361334
22.361337
22.361347
22.361341
22.36132
22.36131
22.361315
22.361321
22.361319
22.361312
22.361312
22.361319
22.361325
22.361329
22.361336
22.361345
22.361356
22.36137
22.361385
22.3614
22.361409
22.361416
22.361424
22.361431
22.361439
22.361447
22.361456
22.361465
22.361474
22.361484
22.361494
22.361505
22.361511
22.361516
22.361521
22.361526
22.361532
22.361538
22.361544
22.36155
22.361551
22.361553
22.361556
22.361557
22.361558
22.361561
22.361563
22.361566
22.361571
22.361574
22.361572
22.36157
22.361573
22.361574
22.36157
22.361564
22.361566
22.361564
22.361557
22.361546
22.361543
22.361542
22.361543
22.361544
22.361544
22.361543
22.361542
22.36154
22.361536
22.361534
22.361534
22.361533
22.361533
22.361534
22.361536
22.361538
22.361541
22.361543
22.361542
22.361542
22.361543
22.361544
22.361546
22.361548
22.36155
22.36155
22.361551
22.361553
22.361553
22.361552
22.361553
22.361553
22.361551
22.361548
22.361549
22.361547
22.361542
22.361537
22.361537
22.361538
22.361537
22.361533
22.361529
22.361526
22.361525
22.361523
22.361521
22.361516
22.361509
22.361503
22.3615
22.361498
22.361495
22.361492
22.36149
22.361485
22.361479
22.361475
22.361474
22.361472
22.361468
22.361463
22.361461
22.361459
22.361456
22.361452
22.361448
22.361446
22.361444
22.361442
22.361441
22.36144
22.361437
22.361433
22.361433
22.361433
22.361431
22.361428
22.361425
22.361421
22.36142
22.361419
22.361417
22.361413
22.361411
22.36141
22.361408
22.361404
22.361401
22.3614
22.361398
22.361396
22.361391
22.361387
22.361386
22.361384
22.361381
22.361377
22.361374
22.361373
22.361372
22.361369
22.361364
22.361361
22.36136
22.361358
22.361355
22.36135
22.361346
22.361346
22.361345
22.361343
22.361339
22.361335
22.361331
22.36133
22.361329
22.361327
22.361323
22.361319
22.361316
22.361315
22.361312
22.361308
22.361303
22.3613
22.361299
22.361298
22.361295
22.361292
22.361288
22.361285
22.361283
22.36128
22.361278
22.361275
22.361272
22.361271
22.361268
22.361265
22.361262
22.36126
22.361258
22.361256
22.361253
22.361251
22.361249
22.361246
22.361244
22.361242
22.36124
22.361238
22.361235
22.361232
22.36123
22.361229
22.361228
22.361225
22.361222
22.361219
22.361218
22.361217
22.361215
22.361213
22.36121
22.361207
22.361206
22.361205
22.361204
22.361202
22.361199
22.361196
22.361195
22.361194
22.361192
22.36119
22.361187
22.361185
22.361184
22.361182
22.36118
22.361177
22.361174
22.361173
22.361171
22.361169
22.361167
22.361164
22.361161
22.361159
22.361157
22.361154
22.361151
22.361149
22.361146
22.361144
22.361141
22.361137
22.361134
22.361132
22.361129
22.361126
22.361123
22.361119
22.361117
22.361114
22.361112
22.361109
22.361105
22.361102
22.3611
22.361097
22.361094
22.361091
22.361088
22.361086
22.361084
22.361082
22.361079
22.361076
22.361073
22.361071
22.361069
22.361068
22.361067
22.361065
22.361063
22.361061
22.361059
22.361058
22.361057
22.361055
22.361054
22.361052
22.361051
22.36105
22.36105
22.361049
22.361047
22.361046
22.361045
22.361045
22.361045
22.361044
22.361043
22.361042
22.361042
22.361041
22.361041
22.361041
22.36104
22.361038
22.361038
22.361038
22.361038
22.361037
22.361036
22.361034
22.361032
22.361032
22.361032
22.361032
22.361032
22.361031
22.361029
22.361027
22.361026
22.361025
22.361024
22.361023
22.361022
22.36102
22.361018
22.361015
22.361013
22.361012
22.361011
22.36101
22.361008
22.361005
22.361003
22.361
22.360998
22.360995
22.360993
22.360991
22.360989
22.360986
22.360983
22.36098
22.360977
22.360975
22.360972
22.360969
22.360966
22.360963
22.36096
22.360957
22.360954
22.36095
22.360948
22.360945
22.360943
22.36094
22.360936
22.360932
22.360929
22.360927
22.360925
22.360922
22.360919
22.360916
22.360912
22.360909
22.360908
22.360906
22.360904
22.360901
22.360898
22.360895
22.360893
22.360891
22.360889
22.360888
22.360885
22.360883
22.360881
22.360879
22.360877
22.360876
22.360874
22.360872
22.36087
22.360869
22.360867
22.360866
22.360864
22.360862
22.360861
22.36086
22.360859
22.360857
22.360856
22.360854
22.360853
22.360852
22.360851
22.360849
22.360848
22.360846
22.360845
22.360845
22.360844
22.360842
22.36084
22.360838
22.360837
22.360837
22.360836
22.360835
22.360833
22.360831
22.36083
22.360828
22.360827
22.360827
22.360825
22.360824
22.360822
22.360819
22.360819
22.360818
22.360817
22.360816
22.360814
22.360812
22.36081
22.360809
22.360808
22.360807
22.360805
22.360803
22.360801
22.3608
22.360799
22.360798
22.360796
22.360794
22.360793
22.360791
22.36079
22.360789
22.360787
22.360785
22.360784
22.360782
22.360781
22.36078
22.360778
22.360777
22.360775
22.360774
22.360772
22.36077
22.360769
22.360768
22.360767
22.360765
22.360763
22.360761
22.36076
22.360759
22.360758
22.360756
22.360754
22.360753
22.360751
22.360749
22.360748
22.360747
22.360745
22.360743
22.360741
22.36074
22.360739
22.360738
22.360736
22.360734
22.360732
22.36073
22.360729
22.360728
22.360726
22.360725
22.360723
22.360721
22.360719
22.360718
22.360716
22.360715
22.360713
22.360712
22.36071
22.360709
22.360707
22.360705
22.360704
22.360703
22.360701
22.3607
22.360698
22.360696
22.360694
22.360693
22.360692
22.360691
22.36069
22.360688
22.360686
22.360684
22.360683
22.360683
22.360682
22.36068
22.360679
22.360677
22.360675
22.360674
22.360673
22.360672
22.360671
22.36067
22.360668
22.360667
22.360665
22.360664
22.360663
22.360662
22.36066
22.360659
22.360657
22.360656
22.360655
22.360654
22.360653
22.360651
22.36065
22.360648
22.360647
22.360646
22.360644
22.360643
22.360641
22.36064
22.360639
22.360638
22.360636
22.360634
22.360633
22.360632
22.360631
22.360629
22.360628
22.360626
22.360625
22.360624
22.360623
22.360621
22.36062
22.360618
22.360617
22.360615
22.360614
22.360613
22.360611
22.36061
22.360609
22.360608
22.360606
22.360605
22.360603
22.360602
22.360601
22.3606
22.360599
22.360598
22.360596
22.360595
22.360594
22.360593
22.360592
22.360591
22.360589
22.360588
22.360587
22.360587
22.360586
22.360585
22.360583
22.360582
22.360582
22.360581
22.36058
22.360579
22.360578
22.360577
22.360576
22.360575
22.360575
22.360574
22.360573
22.360572
22.360571
22.36057
22.360569
22.360568
22.360568
22.360567
22.360567
22.360566
22.360566
22.360565
22.360564
22.360563
22.360562
22.360562
22.360562
22.360561
22.360561
22.36056
22.360559
22.360558
22.360557
22.360557
22.360557
22.360556
22.360555
22.360555
22.360554
22.360553
22.360552
22.360552
22.360551
22.360551
22.36055
22.360549
22.360548
22.360548
22.360547
22.360546
22.360546
22.360545
22.360544
22.360544
22.360543
22.360542
22.360541
22.36054
22.36054
22.360539
22.360538
22.360537
22.360536
22.360535
22.360535
22.360534
22.360532
22.360531
22.36053
22.36053
22.360529
22.360528
22.360526
22.360525
22.360524
22.360523
22.360522
22.360521
22.360519
22.360518
22.360517
22.360516
22.360515
22.360513
22.360512
22.36051
22.360509
22.360508
22.360507
22.360505
22.360503
22.360502
22.3605
22.360499
22.360498
22.360497
22.360495
22.360493
22.360491
22.36049
22.360489
22.360487
22.360486
22.360484
22.360482
22.360481
22.360479
22.360478
22.360476
22.360475
22.360473
22.360471
22.36047
22.360468
22.360467
22.360465
22.360464
22.360462
22.36046
22.360459
22.360458
22.360456
22.360455
22.360453
22.360451
22.36045
22.360448
22.360447
22.360446
22.360444
22.360443
22.360441
22.36044
22.360438
22.360437
22.360436
22.360434
22.360433
22.360432
22.36043
22.360429
22.360428
22.360427
22.360425
22.360424
22.360423
22.360421
22.36042
22.360419
22.360418
22.360416
22.360415
22.360414
22.360413
22.360411
22.36041
22.360409
22.360408
22.360407
22.360406
22.360404
22.360403
22.360402
22.360401
22.3604
22.360399
22.360398
22.360397
22.360396
22.360394
22.360393
22.360392
22.360391
22.36039
22.36039
22.360388
22.360387
22.360386
22.360384
22.360383
22.360383
22.360382
22.360381
22.36038
22.360379
22.360378
22.360377
22.360376
22.360375
22.360374
22.360374
22.360373
22.360372
22.360371
22.36037
22.360369
22.360368
22.360367
22.360367
22.360366
22.360365
22.360364
22.360363
22.360362
22.360362
22.360361
22.36036
22.360359
22.360359
22.360358
22.360357
22.360356
22.360356
22.360355
22.360354
22.360353
22.360353
22.360352
22.360351
22.36035
22.360349
22.360349
22.360348
22.360348
22.360347
22.360346
22.360345
22.360344
22.360343
22.360343
22.360342
22.360342
22.360341
22.36034
22.360339
22.360338
22.360338
22.360337
22.360336
22.360335
22.360334
22.360333
22.360332
22.360332
22.360331
22.36033
22.360329
22.360328
22.360328
22.360327
22.360326
22.360325
22.360324
22.360323
22.360322
22.360322
22.360321
22.36032
22.360319
22.360318
22.360317
22.360316
22.360316
22.360315
22.360314
22.360313
22.360312
22.360311
22.36031
22.360309
22.360309
22.360308
22.360307
22.360306
22.360305
22.360304
22.360303
22.360303
22.360302
22.360301
22.360299
22.360299
22.360298
22.360298
22.360297
22.360296
22.360295
22.360294
22.360293
22.360293
22.360292
22.360291
22.360291
22.36029
22.360289
22.360287
22.360287
22.360287
22.360286
22.360286
22.360285
22.360284
22.360283
22.360282
22.360282
22.360281
22.360281
22.36028
22.360279
22.360279
22.360278
22.360277
22.360277
22.360276
22.360276
22.360275
22.360274
22.360274
22.360273
22.360272
22.360272
22.360271
22.360271
22.36027
22.360269
22.360269
22.360268
22.360268
22.360267
22.360267
22.360266
22.360265
22.360265
22.360264
22.360264
22.360263
22.360262
22.360262
22.360261
22.360261
22.36026
22.360259
22.360259
22.360258
22.360257
22.360257
22.360256
22.360255
22.360255
22.360254
22.360253
22.360253
22.360252
22.360251
22.36025
22.360249
22.360249
22.360248
22.360247
22.360246
22.360246
22.360245
22.360244
22.360243
22.360242
22.360241
22.36024
22.36024
22.360239
22.360238
22.360237
22.360236
22.360235
22.360234
22.360233
22.360232
22.360231
22.36023
22.360229
22.360228
22.360227
22.360226
22.360225
22.360224
22.360223
22.360222
22.360221
22.36022
22.360219
22.360218
22.360217
22.360216
22.360215
22.360214
22.360213
22.360212
22.360211
22.36021
22.360208
22.360207
22.360206
22.360205
22.360204
22.360203
22.360202
22.360201
22.3602
22.360199
22.360198
22.360197
22.360196
22.360194
22.360193
22.360192
22.360191
22.36019
22.360189
22.360188
22.360187
22.360186
22.360185
22.360184
22.360183
22.360182
22.360181
22.36018
22.360179
22.360178
22.360177
22.360176
22.360175
22.360174
22.360173
22.360172
22.360171
22.36017
22.360169
22.360168
22.360167
22.360166
22.360166
22.360165
22.360164
22.360162
22.360161
22.360161
22.36016
22.360159
22.360158
22.360157
22.360156
22.360155
22.360154
22.360153
22.360152
22.360151
22.36015
22.360149
22.360149
22.360148
22.360147
22.360146
22.360145
22.360144
22.360143
22.360142
22.360141
22.36014
22.360139
22.360138
22.360137
22.360136
22.360136
22.360135
22.360134
22.360133
22.360132
22.360131
22.36013
22.360129
22.360128
22.360127
22.360126
22.360125
22.360125
22.360124
22.360123
22.360122
22.360121
22.36012
22.360119
22.360118
22.360118
22.360117
22.360116
22.360115
22.360114
22.360113
22.360112
22.360112
22.360111
22.36011
22.360109
22.360108
22.360107
22.360106
22.360106
22.360105
22.360104
22.360103
22.360102
22.360101
22.3601
22.3601
22.360099
22.360098
22.360097
22.360096
22.360095
22.360095
22.360094
22.360093
22.360092
22.360092
22.360091
22.36009
22.360089
22.360089
22.360088
22.360087
22.360086
22.360085
22.360084
22.360084
22.360083
22.360082
22.360081
22.36008
22.360079
22.360079
22.360078
22.360077
22.360077
22.360076
22.360075
22.360074
22.360073
22.360073
22.360072
22.360071
22.360071
22.36007
22.360069
22.360068
22.360068
22.360067
22.360066
22.360066
22.360065
22.360064
22.360063
22.360063
22.360062
22.360061
22.36006
22.360059
22.360058
22.360058
22.360057
22.360056
22.360055
22.360055
22.360054
22.360053
22.360052
22.360052
22.360051
22.36005
22.36005
22.360049
22.360049
22.360048
22.360046
22.360046
22.360045
22.360044
22.360044
22.360043
22.360043
22.360042
22.360042
22.360041
22.360041
22.360041
22.360041
22.36004
22.36004
22.360038
22.360037
22.360034
22.360031
22.360028
22.360025
22.360022
22.360019
22.360018
22.360019
22.360021
22.360026
22.360033
22.360042
22.360051
22.360058
22.360062
22.360061
22.360055
22.360044
22.360038
22.360059
22.360159
22.360503
22.361536
22.363445
22.362364
22.359486
22.359568
22.359903
22.359883
22.359879
22.359913
22.359957
22.359983
22.360004
22.360021
22.360032
22.360037
22.360038
22.360038
22.360036
22.360034
22.360032
22.36003
22.360029
22.360028
22.360027
22.360027
22.360027
22.360027
22.360026
22.360026
22.360025
22.360022
22.36001
22.360012
22.360023
22.360023
22.360021
22.360021
22.36002
22.36002
22.360019
22.360018
22.360018
22.360017
22.360016
22.360015
22.360014
22.360014
22.360013
22.360012
22.360011
22.36001
22.36001
22.360009
22.360008
22.360007
22.360006
22.360006
22.360005
22.360004
22.360003
22.360002
22.360002
22.360001
22.36
22.359999
22.359998
22.359997
22.359997
22.359996
22.359995
22.359994
22.359994
22.359993
22.359992
22.359992
22.359991
22.35999
22.35999
22.359989
22.359988
22.359988
22.359987
22.359986