/*--------------------------------*- C++ -*----------------------------------*\
  =========                 |
  \\      /  F ield         | OpenFOAM: The Open Source CFD Toolbox
   \\    /   O peration     | Website:  https://openfoam.org
    \\  /    A nd           | Version:  7
     \\/     M anipulation  |
\*---------------------------------------------------------------------------*/
FoamFile
{
    version     2.0;
    format      ascii;
    class       volScalarField;
    location    "0.00095";
    object      Uy;
}
// * * * * * * * * * * * * * * * * * * * * * * * * * * * * * * * * * * * * * //

dimensions      [0 1 -1 0 0 0 0];

internalField   nonuniform List<scalar> 
5000
(
0
1.2829271e-43
0
0
5.06647e-29
-9.9596475e-57
-5.06647e-29
0
0
2.026588e-28
1.013294e-28
5.06647e-29
1.013294e-28
-1.519941e-28
0
1.013294e-28
1.3177747e-70
-1.1760165e-43
0
1.013294e-28
-5.06647e-29
-1.4856959e-43
3.039882e-28
-1.013294e-28
5.06647e-29
8.3518688e-43
5.06647e-29
2.026588e-28
-2.026588e-28
8.783862e-43
8.8558609e-43
-1.013294e-28
1.013294e-28
3.6128553e-43
-3.5135448e-42
1.3218992e-41
-1.7567724e-42
4.053176e-28
-5.06647e-28
-4.053176e-28
7.093058e-28
-2.0908471e-41
-2.026588e-28
5.06647e-29
-1.519941e-28
1.013294e-28
-1.6068678e-42
-1.0411036e-41
-3.039882e-28
0
-4.4902447e-43
-3.9501562e-59
5.06647e-29
4.7472084e-43
-5.3135165e-42
-3.039882e-28
1.013294e-28
1.7495725e-42
3.039882e-28
0
-3.039882e-28
-8.6398642e-42
-5.7599095e-44
-1.013294e-28
5.06647e-29
-1.7711722e-42
-1.013294e-28
5.06647e-29
-1.013294e-28
5.06647e-29
1.013294e-28
-1.519941e-28
-4.1695129e-43
-2.026588e-28
3.0865482e-42
-1.519941e-28
0
-1.013294e-28
2.8799547e-44
5.06647e-29
5.06647e-29
-1.5192908e-59
1.4399774e-44
5.06647e-29
-5.06647e-29
3.5279446e-42
-2.026588e-28
0
2.026588e-28
2.102367e-41
0
-1.013294e-28
-2.533235e-28
3.039882e-28
-1.0519035e-41
2.533235e-28
0
0
-5.06647e-29
-7.0270896e-42
4.053176e-28
-3.546529e-28
-4.053176e-28
0
-1.013294e-28
-5.06647e-29
-1.207611e-42
1.013294e-28
0
0
-4.559823e-28
-2.026588e-28
0
2.026588e-28
-3.5423443e-42
5.06647e-29
-1.013294e-28
1.4399774e-44
3.5423443e-42
-4.8788331e-57
-3.039882e-28
-2.1599661e-44
-1.013294e-28
0
-1.013294e-28
-1.013294e-28
-1.519941e-28
-2.1382118e-43
-1.519941e-28
6.079764e-28
2.026588e-28
-1.013294e-28
-1.519941e-28
-3.039882e-28
0
2.026588e-28
1.519941e-28
-2.533235e-28
-8.783862e-42
2.533235e-28
-2.026588e-28
-3.039882e-28
0
1.013294e-28
1.519941e-28
-1.013294e-28
-1.013294e-28
-7.8222053e-56
5.06647e-29
-1.519941e-28
1.013294e-28
-3.5279446e-42
2.1382118e-44
-1.013294e-28
2.026588e-28
1.519941e-28
-1.013294e-28
0
0
-5.06647e-29
-1.519941e-28
1.519941e-28
5.06647e-29
2.026588e-28
1.7567724e-41
-2.533235e-28
1.013294e-28
-1.519941e-28
0
2.533235e-28
2.533235e-28
0
-3.9556918e-43
6.4146353e-44
0
-3.9904953e-42
-2.1081269e-41
-1.7694442e-44
5.06647e-29
5.06647e-29
-1.013294e-28
-6.99829e-42
6.9694905e-42
4.3199321e-44
1.013294e-28
-5.06647e-29
1.4054179e-41
-2.0908471e-41
1.3938981e-41
-5.06647e-29
0
0
-1.013294e-28
-3.039882e-28
0
0
5.06647e-29
1.4636499e-56
2.533235e-28
0
-1.013294e-28
5.06647e-29
-2.8079559e-41
3.039882e-28
-1.013294e-28
1.0519035e-41
-7.1998869e-45
-1.013294e-28
1.519941e-28
-2.8799547e-44
7.0126898e-42
-7.0126898e-42
-2.533235e-28
0
3.546529e-28
2.1038069e-41
1.2655241e-40
4.559823e-28
0
-2.533235e-28
-1.519941e-28
0
0
0
3.546529e-28
1.7531725e-41
-1.013294e-28
0
0
1.519941e-28
2.026588e-28
-2.026588e-28
-2.026588e-28
0
3.039882e-28
3.039882e-28
-2.533235e-28
-1.519941e-28
0
-1.519941e-28
4.2205737e-41
4.2269757e-55
5.06647e-29
1.013294e-28
2.533235e-28
0
-2.026588e-28
-1.0675024e-54
1.7431597e-41
-7.0270896e-42
0
2.7796753e-43
2.1081269e-41
8.7946618e-41
1.0519035e-41
5.06647e-29
5.06647e-29
1.013294e-28
0
5.06647e-29
4.053176e-28
0
-2.533235e-28
-3.039882e-28
3.039882e-28
-1.013294e-28
1.013294e-28
2.026588e-28
1.4054179e-41
3.039882e-28
-2.533235e-28
7.0270896e-42
2.533235e-28
-2.026588e-28
0
-1.4111778e-41
1.0079842e-43
-3.499145e-42
1.519941e-28
0
0
2.026588e-28
2.533235e-28
0
0
0
0
-5.06647e-29
3.2923598e-55
1.013294e-28
2.1599661e-44
5.06647e-29
-5.06647e-29
1.4068579e-41
1.049673e-54
-7.1998869e-45
-6.4146353e-44
3.2073177e-43
5.06647e-29
-1.013294e-28
-1.519941e-28
5.06647e-29
3.039882e-28
0
-1.013294e-28
-2.533235e-28
3.546529e-28
-4.3199321e-44
8.6398642e-44
-8.6398642e-44
-5.06647e-29
1.013294e-28
-1.013294e-28
3.039882e-28
-3.039882e-28
-1.9515332e-56
5.06647e-29
-2.8079559e-41
-8.5970565e-43
0
0
-3.3111031e-41
1.5913225e-53
-2.8875162e-41
0
1.519941e-28
1.013294e-28
-1.013294e-28
1.4094227e-74
1.4068579e-41
-2.8799547e-44
-2.533235e-28
1.013294e-28
-7.7041283e-42
0
2.533235e-28
-2.8137158e-41
-3.546529e-28
4.053176e-28
1.4054179e-41
1.519941e-28
-3.8339863e-54
1.013294e-28
-5.06647e-28
-1.519941e-28
2.533235e-28
2.8799547e-44
1.519941e-28
0
0
-4.559823e-28
5.6216717e-41
5.06647e-28
-3.5999434e-44
-6.079764e-28
-5.06647e-29
-1.013294e-28
-1.013294e-28
2.533235e-28
-3.546529e-28
-7.093058e-28
1.519941e-28
2.533235e-28
5.573117e-28
-5.06647e-28
-9.7576662e-57
6.079764e-28
-8.106352e-28
8.612999e-28
-7.599705e-28
-1.8251713e-40
-1.7279728e-43
-6.586411e-28
1.7225998e-27
-1.013294e-27
-3.2357732e-40
3.373003e-40
1.4692763e-27
3.546529e-27
-5.6237817e-27
-5.4811299e-40
1.2086594e-39
-7.3006853e-40
5.573117e-27
-5.7757758e-27
9.5568418e-40
7.9036932e-27
0
0
-5.1677994e-27
8.1514239e-40
6.1304287e-27
6.7384051e-27
-7.4983756e-27
-2.3711079e-26
8.6636637e-27
9.6769577e-27
3.0239525e-42
1.1551552e-26
0
-2.7257608e-26
-3.0094832e-26
1.6719351e-26
3.7390548e-26
2.0620533e-26
-4.4787595e-26
-4.8739441e-26
5.3603252e-26
5.9379028e-26
0
-7.1538556e-26
3.9315807e-26
8.6231319e-26
-4.732083e-26
-5.1677994e-26
8.0134741e-42
-8.5888674e-39
-6.7840033e-26
7.4021126e-26
8.096219e-26
-8.8815219e-26
1.3463904e-38
1.5062163e-41
1.6085008e-38
1.2691507e-25
-1.3887194e-25
6.3308605e-38
2.3065435e-38
5.0395983e-38
1.9840296e-25
-2.1669292e-25
3.2871235e-38
7.1695782e-38
4.0168169e-41
6.1780535e-25
3.3737624e-25
-3.6818037e-25
-8.0344081e-25
6.0846604e-38
9.5624554e-25
5.2184641e-25
-1.1390438e-24
-6.2125055e-25
6.7733637e-25
7.38286e-25
2.2333688e-37
-8.7720861e-25
0
0
-1.1342813e-24
0
1.3459077e-24
-1.4652738e-24
-2.2665964e-40
4.818694e-37
0
2.0560242e-24
-2.2369985e-24
-2.4332735e-24
5.2923332e-24
2.8772483e-24
-3.1282412e-24
0
0
4.0158868e-24
-1.2122342e-36
-4.7400373e-24
0
0
6.0700363e-24
-2.7455544e-36
-7.152133e-24
0
0
0
0
0
0
0
0
-2.968009e-23
-8.9257135e-36
1.742126e-23
-1.8870726e-23
2.0437177e-23
-2.2129986e-23
6.6597843e-36
2.5934956e-23
7.7941194e-36
3.0372778e-23
0
0
-3.8444374e-23
-1.1543635e-35
4.4945972e-23
0
0
0
0
0
0
0
-1.6678373e-22
7.4939476e-35
1.9431746e-22
-1.0484492e-22
-1.6075267e-38
-1.2202568e-22
7.2978833e-35
2.8384554e-22
1.5301636e-22
-5.9541279e-52
-5.3333985e-22
0
4.1281162e-22
0
0
-5.1575003e-22
7.7016776e-35
8.9661441e-22
-3.2166739e-22
-3.4614062e-22
3.7240981e-22
-4.0060148e-22
4.3085094e-22
1.2851822e-34
-4.9810949e-22
5.3543544e-22
0
6.1835755e-22
-6.643389e-22
-1.4272228e-21
7.6640107e-22
8.229486e-22
8.8350974e-22
9.4835691e-22
-2.0355607e-21
-1.0920891e-21
1.1716117e-21
0
-1.3477198e-21
1.4450726e-21
1.549177e-21
-4.981439e-21
-5.0575181e-37
3.813221e-21
-2.0424793e-21
-3.0373084e-34
-2.3426708e-21
7.1288481e-37
5.3700414e-21
-2.8737338e-21
0
9.1358752e-34
5.0013279e-37
3.7639599e-21
-4.0248051e-21
1.1948389e-33
6.3793173e-34
6.9852779e-37
5.2522138e-21
-5.6110073e-21
1.8982072e-50
1.7772179e-33
9.7111924e-37
1.4590089e-20
1.0799225e-33
-8.3087593e-21
0
0
1.0085319e-20
4.4747556e-33
-1.1465286e-20
1.2221095e-20
-1.8082911e-33
1.6931907e-49
2.0526253e-33
-1.5746809e-20
-1.6769035e-20
-2.4763462e-33
1.9006068e-20
0
0
-2.2900764e-20
2.435962e-20
-2.1566405e-32
-2.7546278e-20
2.9284282e-20
0
-3.3077168e-20
-3.5143918e-20
3.7332627e-20
3.9650015e-20
0
-4.4699409e-20
-4.7446611e-20
1.0070583e-19
5.3426891e-20
-5.6677539e-20
-6.0114291e-20
-8.8415837e-33
-6.7586167e-20
-1.9893706e-32
1.5185507e-19
0
0
0
-9.5601113e-20
-1.0121989e-19
0
1.1340059e-19
1.662595e-32
-1.2694694e-19
0
0
1.5013719e-19
2.2012773e-32
-2.324126e-32
1.7724685e-19
-1.8725597e-19
8.2299546e-32
2.0887664e-19
0
2.3280727e-19
3.4114107e-32
-2.5927146e-19
2.7352866e-19
-2.8851175e-19
-3.042542e-19
3.2079085e-19
0
-3.5639301e-19
-3.755353e-19
3.9562542e-19
4.1670559e-19
0
4.6201309e-19
-4.8633314e-19
-5.1182876e-19
5.3855075e-19
1.1331035e-18
-3.3093156e-31
-1.8798332e-18
1.5846682e-48
6.9246704e-19
1.4554434e-18
-4.2420113e-31
-1.6064177e-18
8.4357793e-19
-8.8579223e-19
9.299259e-19
9.7605551e-19
-2.0485202e-18
0
0
2.3643065e-18
-2.2563182e-47
-2.5987141e-18
0
0
2.9899009e-18
-2.7869559e-47
-3.2794304e-18
0
0
3.7611673e-18
1.9676601e-18
-4.116663e-18
-2.1527236e-18
0
4.7063781e-18
-1.3659253e-30
-5.1402568e-18
2.6851255e-18
0
-2.9289038e-18
3.0579871e-18
-4.5362093e-34
-3.3313228e-18
3.4758982e-18
-3.6259663e-18
-3.7816973e-18
3.9432649e-18
4.1108461e-18
-1.1897541e-30
-4.4647752e-18
4.6514946e-18
1.3453519e-30
-5.045397e-18
5.2529717e-18
-5.4678953e-18
-5.6903719e-18
5.9206086e-18
6.1588156e-18
-1.7785983e-30
-6.659997e-18
6.9234068e-18
-1.0225645e-33
-7.4769748e-18
7.767585e-18
-8.0677184e-18
-8.3776071e-18
8.6974859e-18
1.8055183e-17
-5.2053672e-30
-1.943888e-17
1.0081666e-17
-1.485757e-33
-2.1679886e-17
-3.1936013e-33
1.1644962e-17
0
-1.2498712e-17
0
1.3403192e-17
0
0
0
1.537237e-17
-2.5715833e-47
-1.6441073e-17
0
-1.7568505e-17
5.0412429e-30
1.8756628e-17
0
0
0
2.1322649e-17
-6.1103674e-30
-2.2704293e-17
0
-2.4154107e-17
-6.9121173e-30
2.5673822e-17
0
-2.7265102e-17
2.8088076e-17
-1.607453e-29
-2.9789639e-17
3.0668589e-17
0
3.2483681e-17
9.2801092e-30
-3.4376091e-17
0
-3.6346992e-17
3.736221e-17
2.1324407e-29
-3.9452775e-17
2.2502065e-29
5.9151557e-33
-1.1874254e-29
6.2353276e-33
4.5034495e-17
0
-4.7410872e-17
1.3496687e-29
1.3840802e-29
6.1094584e-47
1.4553727e-29
0
1.100732e-16
1.5655602e-29
-5.7744015e-17
5.9128619e-17
-1.6800413e-29
-6.1959312e-17
-6.3405245e-17
-1.801351e-29
1.8426244e-29
-6.7864221e-17
6.9390546e-17
7.0936646e-17
0
7.4087553e-17
-2.1018168e-29
-7.7315591e-17
0
0
0
1.6799352e-16
-9.5202793e-29
-1.748926e-16
0
0
0
0
0
0
0
2.0384201e-16
-5.7676686e-29
-2.1139309e-16
-1.0760599e-16
1.0952939e-16
1.1146639e-16
-3.1509649e-29
-6.4011664e-29
-1.1735507e-16
1.1934254e-16
-1.2134162e-16
-1.2335189e-16
1.2537294e-16
1.2740433e-16
-7.1852157e-29
-1.3149639e-16
-1.3355618e-16
3.7621692e-29
1.3770104e-16
1.397852e-16
-1.4187657e-16
-1.4397468e-16
1.4607906e-16
-1.4818926e-16
0
1.5242517e-16
1.5454993e-16
-4.3462001e-29
-1.5881071e-16
1.6094576e-16
-1.6308327e-16
-1.6522278e-16
1.6736378e-16
-1.6950581e-16
-4.7663343e-29
1.7379103e-16
1.7593326e-16
2.5305923e-32
-3.6042916e-16
-1.0124553e-28
1.8448854e-16
1.8662159e-16
0
-1.9087747e-16
0
0
0
-1.9933553e-16
-2.014362e-16
2.0353045e-16
2.0561782e-16
0
-2.0977023e-16
5.88523e-29
2.1388998e-16
0
0
-2.2000105e-16
1.2323694e-28
2.2402463e-16
0
0
-2.2997639e-16
1.2874237e-28
2.3388404e-16
0
-2.3774007e-16
6.6545435e-29
-6.703698e-29
6.75932e-29
2.4528595e-16
0
2.4897035e-16
-1.3917146e-28
-2.5259223e-16
0
-2.561491e-16
2.5790239e-16
2.5963854e-16
-5.227145e-16
-7.3120804e-29
5.2948246e-16
-7.3975632e-29
-2.6805215e-16
0
0
-2.7287694e-16
7.6169314e-29
2.7599616e-16
0
-2.790353e-16
2.8052427e-16
2.8199254e-16
-2.834399e-16
0
2.8627102e-16
-2.8765438e-16
-1.6042585e-28
1.6116948e-28
-2.9167328e-16
2.4397134e-28
-2.9424132e-16
2.9549142e-16
-8.2350708e-29
1.6545454e-28
5.9820798e-16
-8.3291359e-29
-3.0139589e-16
0
0
0
6.1138889e-16
3.0670877e-16
-6.1539736e-16
-3.0866403e-16
0
0
-3.1141135e-16
3.6980272e-47
3.1311763e-16
0
6.2944498e-16
3.1548658e-16
-6.3244988e-16
-3.1693746e-16
0
6.3656899e-16
9.064217e-32
-9.5858031e-16
8.8796736e-29
6.4132677e-16
-3.2119179e-16
-1.8286156e-31
3.2216829e-16
-8.9629934e-29
-1.7921826e-28
-3.2343064e-16
0
-3.2413609e-16
1.8013923e-28
6.4946346e-16
-3.2498812e-16
5.4146762e-28
3.2541758e-16
-6.511809e-16
4.6289771e-32
3.2585204e-16
0
0
0
3.2603591e-16
-3.2600943e-16
-6.5190623e-16
3.2586785e-16
9.0455321e-29
9.0323046e-29
3.2543853e-16
0
-3.2500699e-16
4.614938e-32
6.4891696e-16
-3.2414018e-16
-1.7963737e-28
3.2341515e-16
3.2300828e-16
-1.792352e-28
-6.4421106e-16
0
-3.210837e-16
-3.2052799e-16
0
3.1932674e-16
3.186811e-16
-3.180054e-16
0
3.1656365e-16
0
0
-3.1417473e-16
2.6091745e-28
3.1243098e-16
0
0
-3.0958842e-16
-3.0858038e-16
3.075421e-16
3.0647358e-16
-3.0537487e-16
-3.0424598e-16
6.0617389e-16
3.0189781e-16
-8.3535202e-29
-2.9942946e-16
1.6541137e-28
1.6468517e-28
-2.9550267e-16
2.9413424e-16
-2.9273622e-16
2.9130872e-16
2.4714254e-31
-2.8836569e-16
5.7370087e-16
2.853062e-16
2.8373314e-16
-5.6426284e-16
-5.6100242e-16
2.7884269e-16
-2.7715607e-16
2.7544154e-16
-1.5200171e-28
-5.4385933e-16
2.7013279e-16
-7.4465928e-29
7.402807e-29
2.645815e-16
0
0
-2.5879527e-16
-2.5681578e-16
0
2.5278275e-16
2.5072994e-16
0
2.4655371e-16
-6.7873656e-29
-2.4228609e-16
2.4011911e-16
-6.6000975e-29
-2.3572111e-16
0
-2.3124102e-16
-1.271291e-28
2.2668295e-16
-2.2437604e-16
6.1564561e-29
2.1970931e-16
2.1735067e-16
5.9664004e-29
-2.125859e-16
0
2.0776208e-16
-2.0532967e-16
5.7663241e-32
-1.1130932e-28
-1.9795867e-16
1.9547945e-16
0
3.809841e-16
-4.1738467e-28
-1.8547106e-16
-1.015511e-28
-3.6084536e-16
3.5578036e-16
3.5070644e-16
-3.4562522e-16
-3.4053834e-16
-1.6772372e-16
0
1.6263017e-16
3.201675e-16
-2.2387594e-32
1.5499584e-16
-1.5245606e-16
-1.4992021e-16
1.4738913e-16
-2.8972739e-16
2.8468949e-16
2.328938e-28
-2.7465947e-16
2.6967074e-16
-7.3464798e-29
1.2987713e-16
-1.2741492e-16
-1.2496509e-16
1.2252845e-16
3.3316859e-29
2.3539595e-16
-2.3061144e-16
-2.2585964e-16
2.2114209e-16
3.0037973e-29
1.0590782e-16
-5.7538002e-29
-1.0132187e-16
-2.7492808e-29
-4.3110658e-46
-9.4599899e-17
-1.8480743e-16
9.0230803e-17
9.2904762e-46
8.5957137e-17
1.3968953e-28
-8.1783376e-17
1.5947052e-16
-4.3136971e-29
-1.5143791e-16
-9.4294197e-47
7.1812136e-17
0
0
6.6164003e-17
-6.43392e-17
-1.2508768e-16
0
0
0
5.5661537e-17
5.4016688e-17
0
-5.0818824e-17
4.9265982e-17
7.9518106e-29
-9.2505423e-17
0
0
0
4.0595611e-17
3.9257978e-17
-3.7950794e-17
3.6673921e-17
1.9674853e-29
-6.8420859e-17
0
0
6.1475553e-17
-8.423805e-33
-2.8568235e-17
2.7526297e-17
-2.6512506e-17
2.5526535e-17
-1.3644111e-29
-4.7273337e-17
0
0
2.1001545e-17
2.0174863e-17
0
0
-1.7844126e-17
-1.7115551e-17
0
1.5728255e-17
1.5068627e-17
-1.4431071e-17
1.3815119e-17
1.3220306e-17
-1.2646163e-17
-1.209222e-17
6.4188554e-30
1.1043041e-17
-1.0546866e-17
-2.79453e-30
9.608976e-18
0
8.7405861e-18
-4.6256843e-30
-7.9379839e-18
7.5602112e-18
-3.9961927e-30
-6.8494618e-18
0
6.1954975e-18
-1.6351823e-30
-7.9507767e-34
5.3134896e-18
-5.0441979e-18
-4.7865837e-18
0
8.6096288e-18
-4.5316199e-30
-3.86511e-18
-5.2013223e-34
-6.9290402e-18
6.5560107e-18
6.200445e-18
-5.8616722e-18
-2.7695274e-18
0
4.9397603e-18
-3.8808796e-30
-4.3977146e-18
0
3.9083384e-18
1.0224305e-30
-1.7336604e-18
-4.5312752e-31
-3.0705989e-18
2.8876488e-18
3.389841e-30
-2.5503146e-18
2.3950683e-18
-6.2380764e-31
-2.1093791e-18
-9.8907933e-19
1.8541917e-18
8.6856611e-19
-1.6266287e-18
1.5223585e-18
1.7783744e-30
-1.3312695e-18
1.2438494e-18
-1.6125763e-31
5.4192505e-19
-5.6075196e-31
-1.4128427e-18
2.4342166e-31
8.160479e-19
-3.7930156e-19
-7.0452916e-19
3.2681948e-19
-1.6816055e-31
2.8033722e-19
2.878268e-31
-2.3918794e-19
4.4085928e-19
-1.6887783e-31
2.0676548e-31
-9.4689389e-32
-1.5609512e-19
0
-1.297029e-19
-1.1783221e-19
0
0
0
0
0
6.4315553e-20
5.9397666e-20
0
-5.2800631e-20
5.2626501e-20
9.7933566e-32
-1.2621459e-19
0
0
0
7.7946848e-20
7.4590772e-20
-8.123205e-20
-8.9963249e-20
1.7596338e-19
1.353396e-31
-1.6687058e-19
0
1.8361026e-19
1.4258142e-31
-8.3645337e-20
8.7550444e-20
-8.8259848e-20
8.3543922e-20
4.4476994e-32
-1.6247097e-19
0
0
7.4871436e-20
7.3457714e-20
0
7.1892584e-20
1.9586147e-35
6.6754532e-20
-6.5931237e-20
-1.9240475e-19
0
-1.1427583e-19
-1.0837487e-19
0
1.4289268e-19
8.7604119e-20
-7.9428905e-20
3.5458427e-20
3.1798846e-20
-9.6065504e-20
-3.4702218e-20
-4.464123e-36
-2.8169993e-20
3.7038276e-20
4.5549689e-20
3.7068409e-20
-3.1717463e-49
4.69972e-20
6.0385673e-20
-5.0939889e-20
0
-9.0211795e-20
-1.1020058e-19
0
4.6157382e-20
1.0142577e-19
3.3065656e-32
5.8329992e-20
9.9609845e-20
-9.8112809e-20
-1.1059162e-19
-5.5934185e-20
-4.8949446e-20
0
4.949285e-20
1.529634e-19
-4.6073961e-20
-3.4754768e-48
1.3062942e-19
-9.1000546e-20
-4.2528363e-20
-3.8924459e-20
-8.0458759e-20
8.5575681e-20
4.0841399e-20
-3.7048417e-20
-3.9027522e-20
-4.4259126e-20
1.3099883e-19
3.7857802e-20
-1.1461867e-19
-4.4170308e-20
4.4170743e-20
7.3191299e-20
-3.4885852e-20
4.1607956e-20
-7.2739205e-32
5.8476692e-32
9.5654079e-20
-4.1985698e-20
-4.9291203e-20
-8.1816628e-20
-2.8889875e-20
5.8067282e-20
1.0598129e-35
3.9131828e-20
-3.0482688e-20
-7.8163967e-20
9.400629e-20
3.5756966e-20
-9.4807569e-20
0
7.1239698e-20
2.8977354e-20
-9.0848951e-20
2.4891854e-20
4.3439132e-20
1.3367337e-32
-2.9131505e-32
-2.4708281e-20
0
-4.2956927e-20
-4.5864981e-20
2.3073041e-20
2.1527137e-20
4.2050136e-20
-2.197418e-20
-2.2076279e-20
4.1785904e-20
0
-4.461935e-20
-4.6283069e-20
2.1191815e-20
4.1600738e-20
-1.4119921e-32
-2.9471835e-20
5.4281843e-20
-2.185526e-20
7.0475477e-32
4.9822434e-20
-2.7278252e-20
0
-4.473196e-20
0
5.3547031e-32
2.4242393e-20
4.717398e-20
-6.7893244e-20
5.9809204e-36
3.961753e-20
0
-4.1761988e-20
-2.16601e-20
4.5163705e-20
-2.5089802e-32
-2.3529469e-20
5.4188991e-20
-3.0200588e-20
5.4579017e-32
6.6176599e-20
-3.0530746e-20
2.8256143e-20
-5.7738758e-20
-9.8035025e-20
0
1.1264309e-19
6.963966e-20
-9.7984672e-20
-6.7302221e-20
3.7914135e-20
8.0869154e-20
-3.5928636e-20
-3.1284272e-20
5.6795726e-20
-2.6738159e-20
-4.6646661e-20
2.0177076e-20
-2.6149522e-36
2.7461001e-20
1.6387252e-20
-1.1862171e-20
6.7487428e-22
-3.7485357e-33
1.401086e-20
0
-2.0405716e-20
-1.4785652e-20
7.379534e-21
7.2415073e-21
7.1366149e-21
0
6.2261032e-21
-3.0912315e-33
-1.0128721e-20
2.7828084e-33
4.9534166e-21
0
3.0756463e-21
-3.6521051e-21
-1.4407825e-21
-1.0822747e-21
-2.6726573e-21
-6.7102343e-22
1.7826698e-21
9.7235565e-21
-6.6239823e-21
6.5961861e-21
6.769661e-21
-1.4947014e-20
1.5808279e-20
8.1812093e-21
-2.6104513e-20
-1.7648563e-20
9.4560288e-21
3.0844605e-20
-2.4310048e-32
2.4795402e-32
1.1391679e-20
1.4081949e-32
1.3246313e-20
-1.25459e-20
-1.0804004e-20
-9.384619e-21
9.0341337e-21
9.6811533e-21
-3.012703e-20
1.0251341e-20
1.8935728e-20
-2.4397449e-20
-1.945456e-36
4.9798579e-21
-6.039225e-21
-1.8446633e-21
0
8.3782441e-22
-4.2743131e-22
-3.004598e-21
3.11885e-21
-1.6756074e-32
-1.985176e-20
6.7653948e-21
7.0495755e-21
7.2460164e-21
-6.7386077e-21
-7.5493451e-21
2.7622286e-20
-1.0414803e-20
-2.1230516e-20
-1.5507211e-32
-8.9121306e-21
1.9769709e-20
2.7189776e-20
4.2880433e-33
-4.0568002e-33
-1.0563514e-36
-8.1011586e-21
-1.4963714e-20
-6.1581833e-21
1.833054e-20
-7.1061884e-33
-1.0330209e-20
0
0
3.487936e-21
-2.2446984e-33
2.3499788e-33
3.8321717e-21
-6.4936809e-21
-2.801976e-21
-3.0921097e-33
3.1143998e-21
9.9854324e-21
3.1092435e-21
0
0
0
-9.8227215e-21
-7.2215085e-21
1.2541823e-20
-5.3145703e-33
-9.9959261e-21
0
0
1.2818672e-20
-1.5888999e-32
-8.4136515e-33
1.5481206e-20
-8.1864891e-21
-1.8108087e-20
-1.9183663e-20
9.650699e-21
2.9517038e-20
1.0124852e-20
0
0
0
-3.1645197e-20
-2.0442236e-20
2.8375971e-20
-2.1420702e-32
-1.0374802e-20
1.5142443e-36
-1.0463789e-20
1.9790416e-20
-1.029405e-32
-9.104781e-21
1.8825661e-20
0
-4.8548219e-33
-1.6829892e-20
-1.7306329e-20
2.5844481e-20
1.5977703e-20
-7.7130823e-21
-4.4252279e-33
8.2846157e-21
-2.4564633e-20
-1.5561153e-20
7.5161981e-21
7.5816319e-21
-7.8881768e-21
-7.8501636e-21
7.3105983e-21
7.2320398e-21
-4.2539196e-33
4.4429634e-33
7.9065459e-21
0
7.2105029e-21
-1.5019907e-20
-2.3551185e-20
1.5212204e-20
1.3206227e-20
6.3424219e-21
-7.7237782e-33
-1.4864599e-20
7.4785435e-21
-7.0960302e-21
-6.4569322e-21
1.2344316e-20
-1.2847509e-20
-6.6866814e-21
6.6755558e-21
1.2941134e-20
6.1774823e-21
-1.2285831e-20
3.5057985e-33
-6.4073067e-21
-6.1574061e-21
1.6897838e-20
-5.5868577e-21
-6.0308325e-21
1.9165049e-20
-9.2257417e-37
-1.9347361e-20
-6.3977958e-21
1.9265921e-20
-6.5015582e-21
9.4300866e-51
-1.110653e-32
-1.3278919e-20
1.3406202e-20
1.3765774e-20
-7.0328409e-21
7.8580529e-33
1.4122328e-20
-7.1006973e-21
-2.1657839e-20
-7.3042115e-21
7.3091024e-21
0
7.3474903e-21
1.4762551e-20
-1.0350917e-36
-2.1775063e-20
-7.3386461e-21
1.4906166e-20
-1.0530578e-36
-1.4189503e-20
1.4001193e-20
-1.2112497e-32
-1.516658e-20
2.2761257e-20
1.4682902e-20
0
0
-7.5049865e-21
-2.3014241e-20
-7.5702696e-21
2.1797177e-20
-7.7969816e-33
-1.4210153e-20
1.4784106e-20
1.5108288e-20
-7.461951e-21
-1.4429519e-20
6.9709383e-21
6.920144e-21
-2.1073907e-20
-7.0556421e-21
-1.154013e-32
3.6919304e-33
6.4541961e-21
-6.4036509e-21
1.2770749e-20
1.8582107e-20
0
-1.6784448e-20
-1.0901426e-20
1.6184091e-20
-1.5020318e-36
-5.0505692e-21
9.5057029e-21
-4.5186426e-21
-4.3499876e-21
-4.6625943e-33
3.9933643e-21
7.517548e-21
-3.6148674e-21
-7.0693789e-21
-6.840582e-21
3.5661508e-33
2.9958984e-21
-2.9041436e-21
5.8336867e-21
8.753157e-21
0
-8.1562679e-21
-5.306812e-21
8.1377212e-21
-3.1464421e-33
-2.9124731e-21
2.905599e-21
2.906408e-21
-1.6765961e-33
-6.4565453e-21
1.9117312e-33
7.1921346e-21
-4.0969918e-33
-4.2255891e-33
-7.9873725e-21
-1.2782918e-20
9.1798968e-21
-5.4157825e-33
-1.6738512e-32
5.1300005e-21
5.2669378e-21
1.1035375e-20
-1.7755251e-20
-6.3182498e-21
1.3221846e-20
-1.3597296e-20
-3.96628e-36
2.1354186e-20
7.3081056e-21
-7.5796949e-21
-2.3672822e-20
2.70615e-32
1.6049631e-20
8.031296e-21
-1.6771155e-20
-2.615309e-20
2.6926134e-20
9.1106982e-21
9.4121139e-33
8.3193705e-21
-1.8037586e-20
5.2502578e-33
-9.6078495e-21
9.61326e-21
-3.0104684e-32
-2.61718e-20
2.7294363e-20
2.7945318e-20
0
0
0
-8.2483065e-21
-2.5819189e-20
-8.8960866e-21
-1.0001415e-32
-8.7766031e-21
2.3194548e-20
7.5018133e-21
-7.484365e-21
-7.2030892e-21
-7.5171712e-21
1.5120744e-20
-7.4563059e-21
7.2335749e-21
-2.3054156e-32
-1.3200328e-20
1.8717738e-20
1.1897309e-20
0
-1.1341821e-20
-6.0587092e-33
5.1033342e-21
-1.4073817e-20
-4.2348959e-21
4.0100055e-21
0
0
3.6769519e-21
6.8165799e-21
-6.968715e-33
-5.7637827e-21
-2.6119845e-21
2.346314e-21
-2.1531582e-21
2.0290736e-21
7.8614153e-49
-2.8910705e-33
4.5343244e-21
0
0
-2.251103e-21
-2.0979965e-21
-9.287435e-22
9.0748325e-34
2.2864119e-21
-8.1083329e-34
-1.3307184e-21
0
1.0512238e-21
6.0474925e-22
-1.4669984e-21
8.3136312e-22
8.4016511e-22
-2.2883646e-21
7.1954536e-22
-2.70948e-33
-2.0351351e-21
3.7287847e-21
2.8432955e-21
0
0
0
-5.0318311e-21
-3.8523831e-21
6.6369832e-21
4.8960309e-21
0
-5.3385431e-21
3.0579056e-33
2.8948219e-21
-6.1996355e-21
3.3575755e-21
-3.5824186e-21
-3.7346545e-21
1.151455e-20
-7.8703284e-21
-8.1568491e-21
4.2842484e-21
-4.4803864e-21
9.1896812e-21
1.3992626e-20
0
-1.443752e-20
-9.9884832e-21
5.1622907e-21
5.2298855e-21
-5.7960443e-33
5.2211385e-21
-1.7657524e-32
-5.426041e-21
-3.0555067e-33
-6.1270763e-51
5.4439467e-21
0
5.5181834e-21
-1.1245526e-20
-1.6762245e-20
1.6387144e-20
1.5833871e-20
0
-1.0794786e-20
-1.0983324e-20
1.0939592e-20
-5.3349566e-21
-5.056139e-21
1.4672368e-20
-9.9587823e-21
-1.0266259e-20
5.1783148e-21
1.0244336e-20
4.9989611e-21
-1.4433378e-20
-4.6842329e-21
-7.8312199e-33
9.5835105e-21
2.7241101e-36
-1.4078512e-20
9.1068016e-21
1.3050823e-20
4.2746096e-21
-1.3127757e-20
-8.9521019e-21
1.3460447e-20
-9.7391562e-33
-8.5194807e-21
-4.1461645e-21
2.2750925e-33
8.3059091e-21
-4.6531672e-33
4.1705532e-21
4.1058242e-21
-1.2050306e-20
-3.9718981e-21
-4.4381771e-33
8.0555085e-21
-1.3347795e-32
-1.1859636e-20
7.7749801e-21
-4.2855713e-33
-4.3017803e-33
-8.6332528e-33
-3.8637699e-21
1.1429191e-20
-3.7753039e-21
-6.2630351e-33
-1.2487398e-32
-1.1153637e-20
3.6644555e-21
7.2674848e-21
-4.0159466e-33
3.5869258e-21
3.5172272e-21
-6.8220799e-21
-6.7235729e-21
3.7675582e-33
1.0274663e-20
-3.7683384e-33
-3.294336e-21
6.3341188e-21
-3.0960653e-21
-3.1049996e-21
1.7451209e-33
-1.7429643e-33
3.0532368e-21
-5.8848056e-21
2.8616074e-21
-9.4493978e-33
-9.5413538e-33
8.5620146e-21
-5.5412967e-21
7.5572915e-37
5.1223663e-21
-2.538781e-21
-7.7531115e-21
-2.6206631e-21
7.7976443e-21
-2.7946916e-33
-2.4338618e-21
4.7665372e-21
-4.7518396e-21
-1.2037742e-32
2.4394248e-21
-2.4345234e-21
2.3878924e-21
-4.6779312e-21
2.3163725e-21
6.9634692e-21
0
0
-4.7700164e-21
-6.8031702e-37
4.8217757e-21
-2.4217374e-21
-7.1839087e-21
-2.3563641e-21
7.0764848e-21
6.8794412e-37
2.7958878e-33
5.1405223e-21
-7.6549572e-21
-1.2488656e-32
2.454993e-21
-2.4828514e-21
-2.5836398e-21
2.9911444e-33
2.7362962e-21
-5.4021842e-21
5.2750543e-21
-8.5930897e-33
-5.1951727e-21
8.0851626e-21
5.5901036e-21
-2.8516218e-21
-8.524946e-21
-2.7860494e-21
2.7415057e-21
0
-2.714507e-21
2.7628226e-21
8.4484626e-21
1.5710144e-33
-5.5716933e-21
2.7279516e-21
2.6830337e-21
-5.3454071e-21
2.7082017e-21
-2.7217281e-21
-5.3694842e-21
7.8592924e-21
-8.4989623e-33
5.6086109e-33
5.0938194e-21
-5.1196077e-21
-2.5294618e-21
-2.4743719e-21
-2.689173e-33
2.3943911e-21
-4.7772838e-21
4.7488802e-21
6.9855295e-21
0
-2.2373128e-21
1.245009e-33
6.3696727e-37
-6.6042306e-21
-2.1400236e-21
6.2565237e-21
-2.08136e-21
1.3703261e-49
6.4319117e-21
-2.116819e-21
-6.1646473e-21
-1.9982918e-21
3.9916295e-21
-2.0431504e-21
2.0921755e-21
-7.0147252e-33
-4.16546e-21
6.1706225e-21
2.2891452e-33
-9.3074444e-33
4.2716466e-21
-4.3105473e-21
-2.3968721e-33
2.1650598e-21
-4.3956986e-21
-2.2530128e-21
0
0
4.6124496e-21
-5.1715927e-33
-1.3591595e-36
-2.7439735e-33
-2.5293303e-21
-2.5437552e-21
2.5435441e-21
2.571377e-21
-5.2836897e-21
5.4686761e-21
-3.1114923e-33
-5.6500372e-21
5.6639312e-21
9.5082973e-33
-3.2334889e-33
2.998746e-21
-6.1451548e-21
3.1143756e-21
-6.9608809e-33
-6.3330856e-21
0
6.5820492e-21
3.3346422e-21
-6.7147514e-21
-3.3650479e-21
3.3873318e-21
-5.7371275e-33
-3.5207096e-21
0
0
7.2783669e-21
7.3286397e-21
0
-7.4241666e-21
-3.7039678e-21
3.7055498e-21
-3.6926142e-21
3.6839381e-21
0
-7.565802e-21
0
0
3.8487814e-21
-4.0094812e-33
-3.4591459e-21
0
3.7819921e-21
2.160378e-33
-3.9426802e-21
0
7.7764001e-21
7.5674425e-21
-3.6567644e-21
-4.0511486e-33
3.7595548e-21
-7.6927999e-21
-7.7579537e-21
7.6834167e-21
1.0736031e-36
8.1823715e-33
1.0281113e-36
-7.2817582e-21
3.6824005e-21
-4.0818607e-33
3.6316685e-21
-3.5577251e-21
-1.0490997e-20
1.0435215e-20
3.4718521e-21
-3.4268786e-21
-3.70244e-33
-3.2442622e-21
6.3917575e-21
6.3691105e-21
-6.3324806e-21
-1.0362494e-32
-3.0238462e-21
-2.9434208e-21
5.760136e-21
-2.8317078e-21
3.0670662e-33
-1.4772716e-33
2.571039e-21
5.0423472e-21
-4.9486319e-21
-4.8056662e-21
0
2.1864929e-21
2.3312829e-33
-4.1090066e-21
-2.2277603e-33
5.7871782e-21
3.6458423e-21
0
-3.2561282e-21
-3.4967754e-33
-1.5170633e-21
-1.430542e-21
3.9784893e-21
-6.8219917e-34
-2.3278399e-21
1.121254e-21
2.1206234e-21
-9.5956712e-22
-1.6928929e-21
-7.6235672e-22
0
1.4218052e-21
-6.7465525e-22
-1.7763082e-21
4.7030012e-22
3.6786957e-22
6.6251097e-22
3.3764371e-22
-6.794685e-22
-3.099337e-22
-2.4196193e-22
1.6840522e-34
8.3178445e-23
6.2691109e-23
1.4467793e-22
8.0414784e-23
0
0
0
8.6636436e-23
8.0470082e-23
-4.7436861e-23
-1.6284734e-35
-3.120121e-35
6.3955087e-35
1.5371526e-34
-9.1444515e-23
0
-5.7064223e-23
-3.359953e-23
8.1691743e-24
1.1109731e-23
-8.725045e-24
0
0
3.2399524e-22
-5.9779044e-34
-3.9370653e-34
3.4709375e-22
-3.7861683e-22
-4.5926819e-22
0
6.7000621e-22
-4.1214978e-34
-7.7611459e-22
7.975809e-22
4.6986147e-34
-9.2927348e-22
0
1.0967727e-21
5.6336565e-22
-1.1523795e-21
6.0612471e-22
1.4488818e-33
-1.406871e-21
1.4784505e-21
1.5018778e-21
0
0
0
-1.7031496e-21
-1.7559859e-21
1.7978378e-21
0
-1.9164876e-21
0
-1.000957e-21
2.0007232e-21
1.0058177e-21
-1.0351982e-21
2.166529e-21
1.1328321e-21
-2.3213968e-21
-1.154569e-21
-1.2652e-33
1.1431592e-21
-2.5851383e-33
6.780905e-37
2.4417378e-21
0
-1.2878019e-21
-2.6579477e-21
-1.346976e-21
0
0
0
-1.3380362e-21
2.8370996e-21
1.4912686e-21
-1.5228764e-21
-1.4977715e-21
1.4391221e-21
1.3908059e-21
-2.8178749e-21
0
3.1700762e-21
3.2900406e-21
0
0
-3.3770986e-21
-1.8783462e-33
-1.6974881e-21
-1.7074004e-21
1.723033e-21
-1.7527549e-21
1.8000584e-21
3.7013844e-21
1.879444e-21
0
-3.7241669e-21
-2.0625306e-33
1.8749734e-21
-1.9202834e-21
-1.9664593e-21
-3.9751378e-21
3.9528776e-21
1.957537e-21
-5.5407247e-37
1.9659859e-21
-4.0201772e-21
2.0429341e-21
-2.0376146e-21
-3.2654809e-50
1.9999967e-21
-3.9960581e-21
4.0451671e-21
4.0891808e-21
0
-2.0026913e-21
-3.9504024e-21
1.0902484e-33
1.9831253e-21
1.9953537e-21
-3.9320924e-21
-3.8399034e-21
1.8759941e-21
3.7184653e-21
3.7668906e-21
-1.8927249e-21
-3.7322127e-21
1.8102361e-21
-1.7409603e-21
2.8386262e-33
1.7172031e-21
-3.4905599e-21
3.483676e-21
1.8856509e-33
-9.0781876e-33
3.1395282e-21
-3.0744508e-21
-6.8629009e-33
1.5642794e-21
-3.1134673e-21
1.5171394e-21
-4.1521351e-37
6.2469541e-33
1.3794592e-21
-2.763637e-21
3.0924504e-33
-7.6801737e-34
1.3429547e-21
-3.6803694e-37
-2.5212457e-21
2.4974171e-21
7.1494252e-37
-5.5821533e-33
2.4657527e-21
-2.3878448e-21
-2.5736155e-33
2.2997126e-21
-1.1633992e-21
-1.1756892e-21
-1.1673722e-21
1.135314e-21
-1.2238636e-33
-2.1873795e-21
0
0
2.2894092e-21
3.1780025e-37
-2.1707786e-21
1.0722629e-21
-1.2066252e-33
1.123958e-21
2.5503097e-33
-2.2874887e-21
0
-1.0887306e-21
2.1921309e-21
1.1357515e-21
-2.6306827e-33
1.2044984e-21
-2.3722297e-21
1.1510371e-21
-1.2496657e-33
-2.2943747e-21
0
0
1.2955555e-21
-7.1030746e-34
1.2361889e-21
-1.1951743e-21
-3.6222615e-21
3.8225334e-21
1.3467515e-21
-2.798022e-21
1.4121438e-21
2.2970012e-33
1.3389266e-21
-7.4551273e-37
-4.4334627e-33
1.3983345e-21
-2.926356e-21
-1.5068686e-21
0
-1.4890672e-21
1.4622403e-21
1.4451785e-21
1.4591201e-21
-3.3558629e-33
1.7374415e-33
-1.7725789e-33
-3.1985384e-21
1.5817208e-21
2.6068199e-33
-3.1174817e-21
2.2363676e-37
1.6132481e-21
3.2846809e-21
3.2971625e-21
-3.2772958e-21
-1.8011133e-33
-1.6164748e-21
-1.6343904e-21
3.3225996e-21
-3.3487513e-21
-1.6602305e-21
4.900019e-21
3.2286917e-21
-1.6195898e-21
-3.3002287e-21
-1.6653402e-21
1.6528764e-21
3.2531801e-21
-3.1864458e-21
-4.7330565e-21
1.5913777e-21
1.6083836e-21
3.2147059e-21
1.5810005e-21
-3.0873257e-21
-1.5157148e-21
-1.5079324e-21
3.0318766e-21
1.5148208e-21
-2.9722541e-21
2.8896299e-21
1.1228566e-50