/*--------------------------------*- C++ -*----------------------------------*\
  =========                 |
  \\      /  F ield         | OpenFOAM: The Open Source CFD Toolbox
   \\    /   O peration     | Website:  https://openfoam.org
    \\  /    A nd           | Version:  7
     \\/     M anipulation  |
\*---------------------------------------------------------------------------*/
FoamFile
{
    version     2.0;
    format      ascii;
    class       surfaceScalarField;
    location    "0.00209";
    object      phi;
}
// * * * * * * * * * * * * * * * * * * * * * * * * * * * * * * * * * * * * * //

dimensions      [1 0 -1 0 0 0 0];

internalField   nonuniform List<scalar> 
4999
(
-2.5535453
-2.5526086
-2.551672
-2.5507354
-2.5497988
-2.5488621
-2.5479255
-2.5469889
-2.5460523
-2.5451157
-2.5441791
-2.5432425
-2.5423059
-2.5413694
-2.5404328
-2.5394963
-2.5385598
-2.5376233
-2.5366869
-2.5357507
-2.5348146
-2.5338787
-2.532943
-2.5320074
-2.5310718
-2.5301362
-2.5292002
-2.528264
-2.5273273
-2.5263902
-2.5254528
-2.524515
-2.523577
-2.5226389
-2.5217007
-2.5207624
-2.519824
-2.5188857
-2.5179473
-2.517009
-2.5160706
-2.5151322
-2.5141938
-2.5132555
-2.5123171
-2.5113787
-2.5104403
-2.5095019
-2.5085635
-2.5076252
-2.5066868
-2.5057484
-2.50481
-2.5038716
-2.5029332
-2.5019948
-2.5010564
-2.500118
-2.4991796
-2.4982412
-2.4973028
-2.4963643
-2.4954259
-2.4944875
-2.4935491
-2.4926107
-2.4916723
-2.4907338
-2.4897954
-2.488857
-2.4879186
-2.4869801
-2.4860417
-2.4851033
-2.4841648
-2.4832264
-2.4822879
-2.4813495
-2.480411
-2.4794726
-2.4785341
-2.4775957
-2.4766572
-2.4757188
-2.4747803
-2.4738418
-2.4729034
-2.4719649
-2.4710264
-2.470088
-2.4691495
-2.468211
-2.4672725
-2.466334
-2.4653955
-2.4644571
-2.4635185
-2.4625801
-2.4616416
-2.460703
-2.4597646
-2.458826
-2.4578875
-2.4569491
-2.4560105
-2.4550721
-2.4541335
-2.4531949
-2.4522565
-2.4513178
-2.4503795
-2.4494408
-2.4485023
-2.4475639
-2.4466251
-2.4456869
-2.444748
-2.4438097
-2.4428711
-2.4419323
-2.4409944
-2.4400549
-2.4391175
-2.4381776
-2.4372405
-2.4363004
-2.4353632
-2.4344234
-2.4334859
-2.4325465
-2.4316086
-2.4306695
-2.4297313
-2.4287924
-2.427854
-2.4269153
-2.4259768
-2.4250382
-2.4240996
-2.423161
-2.4222224
-2.4212838
-2.4203452
-2.4194066
-2.418468
-2.4175294
-2.4165908
-2.4156522
-2.4147136
-2.413775
-2.4128365
-2.4118979
-2.4109593
-2.4100208
-2.4090823
-2.4081437
-2.4072052
-2.4062668
-2.4053283
-2.4043899
-2.4034514
-2.402513
-2.4015746
-2.4006362
-2.3996978
-2.3987594
-2.397821
-2.3968825
-2.395944
-2.3950055
-2.3940669
-2.3931282
-2.3921894
-2.3912506
-2.3903117
-2.3893727
-2.3884335
-2.3874943
-2.3865549
-2.3856155
-2.3846759
-2.3837363
-2.3827966
-2.3818568
-2.3809168
-2.3799769
-2.3790368
-2.3780967
-2.3771566
-2.3762164
-2.3752761
-2.3743359
-2.3733955
-2.3724552
-2.3715149
-2.3705745
-2.3696341
-2.3686937
-2.3677533
-2.3668128
-2.3658724
-2.364932
-2.3639915
-2.3630511
-2.3621106
-2.3611701
-2.3602297
-2.3592892
-2.3583487
-2.3574082
-2.3564677
-2.3555272
-2.3545867
-2.3536462
-2.3527057
-2.3517652
-2.3508247
-2.3498842
-2.3489437
-2.3480031
-2.3470626
-2.3461221
-2.3451815
-2.344241
-2.3433004
-2.3423599
-2.3414193
-2.3404788
-2.3395382
-2.3385976
-2.3376571
-2.3367165
-2.3357759
-2.3348353
-2.3338947
-2.3329541
-2.3320135
-2.3310729
-2.3301323
-2.3291917
-2.3282511
-2.3273104
-2.3263698
-2.3254292
-2.3244885
-2.3235479
-2.3226073
-2.3216666
-2.320726
-2.3197853
-2.3188446
-2.317904
-2.3169633
-2.3160226
-2.3150819
-2.3141412
-2.3132006
-2.3122599
-2.3113192
-2.3103785
-2.3094378
-2.308497
-2.3075563
-2.3066156
-2.3056749
-2.3047342
-2.3037934
-2.3028527
-2.301912
-2.3009712
-2.3000305
-2.2990897
-2.2981489
-2.2972082
-2.2962674
-2.2953266
-2.2943859
-2.2934451
-2.2925043
-2.2915635
-2.2906227
-2.2896819
-2.2887411
-2.2878003
-2.2868595
-2.2859187
-2.2849779
-2.2840371
-2.2830963
-2.2821555
-2.2812146
-2.2802738
-2.279333
-2.2783922
-2.2774513
-2.2765105
-2.2755697
-2.2746289
-2.2736881
-2.2727473
-2.2718065
-2.2708658
-2.269925
-2.2689842
-2.2680435
-2.2671027
-2.266162
-2.2652213
-2.2642805
-2.2633398
-2.2623991
-2.2614584
-2.2605176
-2.2595769
-2.2586361
-2.2576953
-2.2567545
-2.2558137
-2.2548728
-2.2539319
-2.2529909
-2.2520499
-2.2511089
-2.2501677
-2.2492265
-2.2482853
-2.2473439
-2.2464025
-2.245461
-2.2445195
-2.2435778
-2.2426361
-2.2416943
-2.2407525
-2.2398106
-2.2388685
-2.2379265
-2.2369843
-2.2360421
-2.2350999
-2.2341576
-2.2332152
-2.2322728
-2.2313303
-2.2303878
-2.2294453
-2.2285027
-2.2275601
-2.2266175
-2.2256748
-2.2247322
-2.2237894
-2.2228467
-2.221904
-2.2209612
-2.2200184
-2.2190757
-2.2181329
-2.2171901
-2.2162472
-2.2153044
-2.2143616
-2.2134187
-2.2124759
-2.211533
-2.2105901
-2.2096472
-2.2087044
-2.2077615
-2.2068186
-2.2058757
-2.2049327
-2.2039898
-2.2030469
-2.202104
-2.201161
-2.2002181
-2.1992751
-2.1983322
-2.1973892
-2.1964463
-2.1955033
-2.1945603
-2.1936173
-2.1926743
-2.1917313
-2.1907883
-2.1898453
-2.1889023
-2.1879593
-2.1870162
-2.1860732
-2.1851302
-2.1841871
-2.1832441
-2.182301
-2.1813579
-2.1804149
-2.1794718
-2.1785287
-2.1775856
-2.1766425
-2.1756994
-2.1747563
-2.1738132
-2.1728701
-2.1719269
-2.1709838
-2.1700407
-2.1690975
-2.1681544
-2.1672112
-2.166268
-2.1653249
-2.1643817
-2.1634385
-2.1624953
-2.1615521
-2.1606089
-2.1596657
-2.1587225
-2.1577793
-2.1568361
-2.1558929
-2.1549497
-2.1540064
-2.1530632
-2.1521199
-2.1511767
-2.1502335
-2.1492902
-2.1483469
-2.1474037
-2.1464604
-2.1455172
-2.1445739
-2.1436306
-2.1426874
-2.1417441
-2.1408008
-2.1398576
-2.1389143
-2.137971
-2.1370277
-2.1360844
-2.1351412
-2.1341979
-2.1332546
-2.1323113
-2.131368
-2.1304246
-2.1294813
-2.128538
-2.1275946
-2.1266512
-2.1257078
-2.1247644
-2.123821
-2.1228775
-2.1219341
-2.1209905
-2.120047
-2.1191034
-2.1181597
-2.1172161
-2.1162724
-2.1153286
-2.1143848
-2.1134409
-2.112497
-2.111553
-2.110609
-2.1096649
-2.1087208
-2.1077766
-2.1068323
-2.105888
-2.1049436
-2.1039992
-2.1030547
-2.1021101
-2.1011655
-2.1002208
-2.0992761
-2.0983314
-2.0973865
-2.0964417
-2.0954968
-2.0945518
-2.0936068
-2.0926618
-2.0917167
-2.0907716
-2.0898264
-2.0888812
-2.087936
-2.0869908
-2.0860455
-2.0851002
-2.0841549
-2.0832096
-2.0822642
-2.0813188
-2.0803734
-2.079428
-2.0784825
-2.0775371
-2.0765916
-2.0756461
-2.0747006
-2.0737551
-2.0728096
-2.071864
-2.0709185
-2.0699729
-2.0690273
-2.0680817
-2.0671361
-2.0661905
-2.0652449
-2.0642993
-2.0633536
-2.062408
-2.0614623
-2.0605166
-2.0595709
-2.0586252
-2.0576795
-2.0567338
-2.0557881
-2.0548423
-2.0538966
-2.0529508
-2.052005
-2.0510593
-2.0501135
-2.0491677
-2.0482218
-2.047276
-2.0463302
-2.0453843
-2.0444385
-2.0434926
-2.0425467
-2.0416008
-2.0406549
-2.039709
-2.0387631
-2.0378171
-2.0368712
-2.0359252
-2.0349792
-2.0340333
-2.0330873
-2.0321412
-2.0311952
-2.0302492
-2.0293031
-2.0283571
-2.027411
-2.0264649
-2.0255188
-2.0245727
-2.0236266
-2.0226804
-2.0217343
-2.0207881
-2.019842
-2.0188958
-2.0179496
-2.0170033
-2.0160571
-2.0151109
-2.0141646
-2.0132184
-2.0122721
-2.0113258
-2.0103795
-2.0094331
-2.0084868
-2.0075405
-2.0065941
-2.0056477
-2.0047013
-2.0037549
-2.0028085
-2.0018621
-2.0009157
-1.9999692
-1.9990228
-1.9980763
-1.9971298
-1.9961833
-1.9952368
-1.9942903
-1.9933438
-1.9923972
-1.9914507
-1.9905041
-1.9895575
-1.9886109
-1.9876643
-1.9867177
-1.9857711
-1.9848245
-1.9838778
-1.9829311
-1.9819845
-1.9810378
-1.980091
-1.9791443
-1.9781975
-1.9772508
-1.976304
-1.9753571
-1.9744103
-1.9734634
-1.9725165
-1.9715696
-1.9706226
-1.9696756
-1.9687286
-1.9677815
-1.9668344
-1.9658873
-1.9649401
-1.9639929
-1.9630456
-1.9620983
-1.961151
-1.9602036
-1.9592561
-1.9583086
-1.9573611
-1.9564135
-1.9554659
-1.9545182
-1.9535705
-1.9526227
-1.9516749
-1.950727
-1.9497791
-1.9488312
-1.9478832
-1.9469352
-1.9459871
-1.945039
-1.9440909
-1.9431428
-1.9421946
-1.9412465
-1.9402983
-1.9393501
-1.9384018
-1.9374536
-1.9365054
-1.9355571
-1.9346089
-1.9336607
-1.9327125
-1.9317643
-1.9308161
-1.929868
-1.9289198
-1.9279717
-1.9270237
-1.9260757
-1.9251277
-1.9241798
-1.9232319
-1.9222841
-1.9213363
-1.9203887
-1.919441
-1.9184935
-1.917546
-1.9165987
-1.9156514
-1.9147042
-1.9137571
-1.9128101
-1.9118632
-1.9109164
-1.9099698
-1.9090232
-1.9080768
-1.9071305
-1.9061844
-1.9052384
-1.9042925
-1.9033468
-1.9024012
-1.9014558
-1.9005106
-1.8995656
-1.8986207
-1.897676
-1.8967315
-1.8957872
-1.8948431
-1.8938992
-1.8929555
-1.892012
-1.8910688
-1.8901258
-1.889183
-1.8882404
-1.8872981
-1.8863561
-1.8854143
-1.8844728
-1.8835315
-1.8825905
-1.8816498
-1.8807094
-1.8797693
-1.8788295
-1.87789
-1.8769507
-1.8760119
-1.8750733
-1.8741351
-1.8731972
-1.8722596
-1.8713224
-1.8703855
-1.869449
-1.8685129
-1.8675771
-1.8666417
-1.8657067
-1.864772
-1.8638378
-1.862904
-1.8619705
-1.8610375
-1.8601049
-1.8591727
-1.8582409
-1.8573095
-1.8563786
-1.8554481
-1.8545181
-1.8535885
-1.8526593
-1.8517307
-1.8508024
-1.8498747
-1.8489474
-1.8480206
-1.8470943
-1.8461685
-1.8452431
-1.8443183
-1.8433939
-1.8424701
-1.8415467
-1.8406239
-1.8397016
-1.8387797
-1.8378585
-1.8369377
-1.8360175
-1.8350978
-1.8341786
-1.83326
-1.832342
-1.8314244
-1.8305075
-1.8295911
-1.8286752
-1.8277599
-1.8268451
-1.825931
-1.8250174
-1.8241043
-1.8231918
-1.8222799
-1.8213686
-1.8204579
-1.8195477
-1.8186381
-1.8177291
-1.8168206
-1.8159128
-1.8150055
-1.8140988
-1.8131927
-1.8122872
-1.8113822
-1.8104779
-1.8095741
-1.8086709
-1.8077682
-1.8068662
-1.8059647
-1.8050638
-1.8041635
-1.8032637
-1.8023645
-1.8014659
-1.8005678
-1.7996703
-1.7987733
-1.7978769
-1.7969811
-1.7960858
-1.795191
-1.7942968
-1.7934031
-1.7925099
-1.7916173
-1.7907252
-1.7898336
-1.7889425
-1.788052
-1.7871619
-1.7862724
-1.7853833
-1.7844947
-1.7836067
-1.7827191
-1.781832
-1.7809454
-1.7800592
-1.7791735
-1.7782883
-1.7774035
-1.7765192
-1.7756353
-1.7747518
-1.7738688
-1.7729863
-1.7721041
-1.7712224
-1.7703411
-1.7694602
-1.7685797
-1.7676996
-1.7668199
-1.7659406
-1.7650617
-1.7641831
-1.763305
-1.7624272
-1.7615498
-1.7606727
-1.759796
-1.7589196
-1.7580436
-1.7571679
-1.7562926
-1.7554176
-1.7545429
-1.7536685
-1.7527945
-1.7519207
-1.7510473
-1.7501741
-1.7493012
-1.7484287
-1.7475564
-1.7466844
-1.7458126
-1.7449411
-1.7440699
-1.7431989
-1.7423282
-1.7414577
-1.7405875
-1.7397175
-1.7388477
-1.7379782
-1.7371088
-1.7362397
-1.7353708
-1.734502
-1.7336335
-1.7327651
-1.731897
-1.731029
-1.7301612
-1.7292935
-1.728426
-1.7275587
-1.7266915
-1.7258245
-1.7249576
-1.7240908
-1.7232241
-1.7223576
-1.7214912
-1.7206249
-1.7197587
-1.7188926
-1.7180266
-1.7171607
-1.7162949
-1.7154291
-1.7145635
-1.7136978
-1.7128323
-1.7119668
-1.7111014
-1.710236
-1.7093706
-1.7085053
-1.7076401
-1.7067748
-1.7059096
-1.7050444
-1.7041792
-1.703314
-1.7024488
-1.7015836
-1.7007184
-1.6998532
-1.698988
-1.6981227
-1.6972574
-1.6963921
-1.6955268
-1.6946614
-1.693796
-1.6929305
-1.6920649
-1.6911993
-1.6903337
-1.6894679
-1.6886021
-1.6877362
-1.6868702
-1.6860041
-1.6851379
-1.6842716
-1.6834052
-1.6825386
-1.6816719
-1.6808051
-1.6799382
-1.679071
-1.6782038
-1.6773364
-1.6764687
-1.675601
-1.674733
-1.6738648
-1.6729964
-1.6721278
-1.671259
-1.67039
-1.6695207
-1.6686511
-1.6677813
-1.6669113
-1.6660409
-1.6651703
-1.6642993
-1.6634281
-1.6625565
-1.6616846
-1.6608123
-1.6599397
-1.6590668
-1.6581934
-1.6573197
-1.6564456
-1.6555711
-1.6546962
-1.6538208
-1.652945
-1.6520688
-1.6511921
-1.6503149
-1.6494372
-1.6485591
-1.6476805
-1.6468013
-1.6459216
-1.6450414
-1.6441607
-1.6432794
-1.6423975
-1.6415151
-1.6406321
-1.6397485
-1.6388642
-1.6379794
-1.637094
-1.6362079
-1.6353212
-1.6344338
-1.6335458
-1.6326571
-1.6317678
-1.6308777
-1.629987
-1.6290956
-1.6282034
-1.6273105
-1.626417
-1.6255226
-1.6246276
-1.6237318
-1.6228352
-1.6219379
-1.6210398
-1.620141
-1.6192413
-1.6183409
-1.6174397
-1.6165376
-1.6156348
-1.6147311
-1.6138267
-1.6129214
-1.6120153
-1.6111083
-1.6102005
-1.6092919
-1.6083824
-1.607472
-1.6065608
-1.6056488
-1.6047358
-1.603822
-1.6029073
-1.6019917
-1.6010753
-1.6001579
-1.5992397
-1.5983206
-1.5974006
-1.5964797
-1.5955578
-1.5946351
-1.5937114
-1.5927869
-1.5918614
-1.5909351
-1.5900078
-1.5890796
-1.5881504
-1.5872204
-1.5862894
-1.5853575
-1.5844247
-1.583491
-1.5825563
-1.5816207
-1.5806842
-1.5797468
-1.5788084
-1.5778691
-1.5769289
-1.5759878
-1.5750458
-1.5741028
-1.5731589
-1.5722141
-1.5712684
-1.5703218
-1.5693742
-1.5684258
-1.5674764
-1.5665262
-1.565575
-1.564623
-1.5636701
-1.5627163
-1.5617616
-1.560806
-1.5598495
-1.5588922
-1.557934
-1.556975
-1.5560151
-1.5550543
-1.5540928
-1.5531303
-1.5521671
-1.551203
-1.5502381
-1.5492725
-1.548306
-1.5473387
-1.5463706
-1.5454017
-1.5444321
-1.5434617
-1.5424905
-1.5415186
-1.540546
-1.5395726
-1.5385985
-1.5376236
-1.5366481
-1.5356719
-1.534695
-1.5337173
-1.5327391
-1.5317601
-1.5307805
-1.5298003
-1.5288194
-1.5278379
-1.5268558
-1.525873
-1.5248897
-1.5239057
-1.5229212
-1.5219361
-1.5209505
-1.5199643
-1.5189775
-1.5179902
-1.5170023
-1.516014
-1.5150251
-1.5140357
-1.5130458
-1.5120555
-1.5110646
-1.5100733
-1.5090815
-1.5080893
-1.5070966
-1.5061034
-1.5051099
-1.5041159
-1.5031215
-1.5021266
-1.5011314
-1.5001358
-1.4991398
-1.4981434
-1.4971466
-1.4961495
-1.495152
-1.4941541
-1.493156
-1.4921574
-1.4911586
-1.4901594
-1.4891598
-1.48816
-1.4871599
-1.4861594
-1.4851587
-1.4841577
-1.4831564
-1.4821548
-1.481153
-1.4801509
-1.4791485
-1.4781459
-1.477143
-1.4761399
-1.4751366
-1.474133
-1.4731292
-1.4721252
-1.4711209
-1.4701165
-1.4691118
-1.468107
-1.467102
-1.4660967
-1.4650913
-1.4640857
-1.4630799
-1.462074
-1.4610679
-1.4600616
-1.4590552
-1.4580486
-1.4570418
-1.4560349
-1.4550279
-1.4540207
-1.4530134
-1.4520059
-1.4509983
-1.4499906
-1.4489827
-1.4479748
-1.4469667
-1.4459584
-1.4449501
-1.4439416
-1.4429331
-1.4419244
-1.4409156
-1.4399067
-1.4388977
-1.4378885
-1.4368793
-1.43587
-1.4348606
-1.4338511
-1.4328414
-1.4318317
-1.4308219
-1.429812
-1.428802
-1.4277919
-1.4267817
-1.4257714
-1.4247611
-1.4237506
-1.4227401
-1.4217295
-1.4207188
-1.419708
-1.4186971
-1.4176861
-1.4166751
-1.415664
-1.4146528
-1.4136415
-1.4126301
-1.4116187
-1.4106072
-1.4095956
-1.4085839
-1.4075722
-1.4065604
-1.4055485
-1.4045365
-1.4035245
-1.4025124
-1.4015002
-1.400488
-1.3994757
-1.3984633
-1.3974508
-1.3964383
-1.3954257
-1.3944131
-1.3934003
-1.3923876
-1.3913747
-1.3903618
-1.3893488
-1.3883357
-1.3873226
-1.3863094
-1.3852961
-1.3842828
-1.3832693
-1.3822559
-1.3812423
-1.3802287
-1.379215
-1.3782012
-1.3771874
-1.3761735
-1.3751595
-1.3741454
-1.3731313
-1.3721171
-1.3711028
-1.3700884
-1.3690739
-1.3680594
-1.3670447
-1.36603
-1.3650152
-1.3640003
-1.3629853
-1.3619702
-1.3609551
-1.3599398
-1.3589244
-1.357909
-1.3568934
-1.3558777
-1.3548619
-1.3538461
-1.3528301
-1.3518139
-1.3507977
-1.3497814
-1.3487649
-1.3477484
-1.3467317
-1.3457148
-1.3446979
-1.3436808
-1.3426636
-1.3416462
-1.3406287
-1.3396111
-1.3385933
-1.3375754
-1.3365573
-1.3355391
-1.3345207
-1.3335021
-1.3324834
-1.3314645
-1.3304455
-1.3294262
-1.3284068
-1.3273872
-1.3263674
-1.3253474
-1.3243272
-1.3233068
-1.3222862
-1.3212653
-1.3202442
-1.3192229
-1.3182014
-1.3171796
-1.3161576
-1.3151353
-1.3141127
-1.3130898
-1.3120667
-1.3110433
-1.3100196
-1.3089956
-1.3079712
-1.3069465
-1.3059215
-1.3048962
-1.3038704
-1.3028443
-1.3018179
-1.300791
-1.2997637
-1.2987361
-1.297708
-1.2966794
-1.2956504
-1.2946209
-1.293591
-1.2925605
-1.2915296
-1.2904981
-1.2894661
-1.2884335
-1.2874004
-1.2863667
-1.2853324
-1.2842974
-1.2832619
-1.2822256
-1.2811887
-1.2801512
-1.2791129
-1.2780739
-1.2770341
-1.2759936
-1.2749524
-1.2739103
-1.2728674
-1.2718236
-1.270779
-1.2697335
-1.2686871
-1.2676398
-1.2665915
-1.2655423
-1.264492
-1.2634408
-1.2623885
-1.2613351
-1.2602807
-1.2592251
-1.2581685
-1.2571106
-1.2560516
-1.2549913
-1.2539298
-1.252867
-1.251803
-1.2507376
-1.2496708
-1.2486027
-1.2475332
-1.2464622
-1.2453898
-1.2443159
-1.2432404
-1.2421634
-1.2410848
-1.2400046
-1.2389227
-1.2378392
-1.2367539
-1.2356669
-1.2345781
-1.2334875
-1.2323951
-1.2313007
-1.2302045
-1.2291063
-1.2280061
-1.2269039
-1.2257997
-1.2246933
-1.2235849
-1.2224742
-1.2213614
-1.2202463
-1.219129
-1.2180093
-1.2168873
-1.2157629
-1.2146361
-1.2135069
-1.2123751
-1.2112408
-1.2101039
-1.2089644
-1.2078223
-1.2066774
-1.2055298
-1.2043795
-1.2032264
-1.2020704
-1.2009115
-1.1997497
-1.198585
-1.1974172
-1.1962464
-1.1950726
-1.1938956
-1.1927155
-1.1915321
-1.1903456
-1.1891558
-1.1879626
-1.1867662
-1.1855663
-1.1843631
-1.1831564
-1.1819462
-1.1807324
-1.1795152
-1.1782943
-1.1770698
-1.1758416
-1.1746097
-1.1733741
-1.1721347
-1.1708915
-1.1696445
-1.1683936
-1.1671388
-1.1658801
-1.1646174
-1.1633507
-1.16208
-1.1608052
-1.1595263
-1.1582433
-1.1569562
-1.1556649
-1.1543694
-1.1530697
-1.1517657
-1.1504575
-1.1491449
-1.147828
-1.1465068
-1.1451812
-1.1438511
-1.1425167
-1.1411778
-1.1398345
-1.1384867
-1.1371343
-1.1357775
-1.1344161
-1.1330501
-1.1316796
-1.1303045
-1.1289248
-1.1275405
-1.1261515
-1.1247579
-1.1233596
-1.1219567
-1.120549
-1.1191367
-1.1177197
-1.116298
-1.1148716
-1.1134404
-1.1120045
-1.1105639
-1.1091186
-1.1076685
-1.1062137
-1.1047541
-1.1032898
-1.1018207
-1.1003469
-1.0988683
-1.097385
-1.095897
-1.0944042
-1.0929067
-1.0914044
-1.0898975
-1.0883858
-1.0868694
-1.0853483
-1.0838226
-1.0822921
-1.080757
-1.0792172
-1.0776728
-1.0761238
-1.0745701
-1.0730118
-1.0714489
-1.0698815
-1.0683095
-1.0667329
-1.0651518
-1.0635663
-1.0619762
-1.0603816
-1.0587826
-1.0571792
-1.0555713
-1.0539591
-1.0523425
-1.0507215
-1.0490963
-1.0474667
-1.0458329
-1.0441948
-1.0425524
-1.0409059
-1.0392552
-1.0376003
-1.0359414
-1.0342783
-1.0326111
-1.0309399
-1.0292647
-1.0275855
-1.0259024
-1.0242153
-1.0225243
-1.0208295
-1.0191308
-1.0174283
-1.015722
-1.014012
-1.0122983
-1.0105808
-1.0088598
-1.0071351
-1.0054068
-1.0036749
-1.0019395
-1.0002006
-0.99845826
-0.99671248
-0.9949633
-0.99321076
-0.99145488
-0.9896957
-0.98793326
-0.98616758
-0.98439871
-0.98262667
-0.9808515
-0.97907323
-0.97729189
-0.97550753
-0.97372016
-0.97192984
-0.97013658
-0.96834043
-0.96654142
-0.96473957
-0.96293494
-0.96112754
-0.95931741
-0.9575046
-0.95568912
-0.95387102
-0.95205033
-0.95022707
-0.9484013
-0.94657303
-0.9447423
-0.94290915
-0.94107361
-0.93923571
-0.93739548
-0.93555295
-0.93370817
-0.93186115
-0.93001194
-0.92816056
-0.92630705
-0.92445143
-0.92259374
-0.92073402
-0.91887228
-0.91700857
-0.91514292
-0.91327534
-0.91140588
-0.90953457
-0.90766143
-0.90578649
-0.90390978
-0.90203134
-0.90015118
-0.89826933
-0.89638584
-0.89450072
-0.89261401
-0.89072572
-0.88883589
-0.88694455
-0.88505171
-0.88315741
-0.88126167
-0.87936452
-0.87746599
-0.87556609
-0.87366486
-0.87176232
-0.8698585
-0.86795341
-0.86604708
-0.86413952
-0.86223077
-0.86032085
-0.85840978
-0.85649758
-0.85458428
-0.8526699
-0.85075446
-0.84883798
-0.84692048
-0.84500198
-0.8430825
-0.84116207
-0.8392407
-0.83731841
-0.83539523
-0.83347116
-0.83154623
-0.82962045
-0.82769385
-0.82576644
-0.82383824
-0.82190927
-0.81997954
-0.81804908
-0.8161179
-0.814186
-0.81225342
-0.81032017
-0.80838625
-0.80645169
-0.80451651
-0.80258071
-0.80064432
-0.79870735
-0.7967698
-0.79483171
-0.79289306
-0.79095389
-0.78901421
-0.78707402
-0.78513334
-0.78319219
-0.78125058
-0.77930852
-0.77736602
-0.77542309
-0.77347975
-0.771536
-0.76959186
-0.76764734
-0.76570244
-0.76375718
-0.76181157
-0.75986562
-0.75791933
-0.75597272
-0.75402581
-0.75207858
-0.75013107
-0.74818327
-0.7462352
-0.74428687
-0.74233827
-0.74038943
-0.73844034
-0.73649101
-0.73454145
-0.73259168
-0.73064169
-0.72869149
-0.7267411
-0.72479051
-0.72283973
-0.72088878
-0.71893764
-0.71698634
-0.71503488
-0.71308326
-0.71113149
-0.70917957
-0.70722751
-0.70527531
-0.70332298
-0.70137052
-0.69941793
-0.69746523
-0.6955124
-0.69355946
-0.69160642
-0.68965327
-0.68770002
-0.68574667
-0.68379323
-0.6818397
-0.67988607
-0.67793236
-0.67597856
-0.67402467
-0.67207071
-0.67011667
-0.66816255
-0.66620836
-0.6642541
-0.66229977
-0.66034537
-0.65839091
-0.65643637
-0.65448178
-0.65252711
-0.65057239
-0.6486176
-0.64666275
-0.64470784
-0.64275287
-0.64079784
-0.63884276
-0.63688763
-0.63493243
-0.63297719
-0.63102188
-0.62906652
-0.62711111
-0.62515564
-0.62320011
-0.62124453
-0.6192889
-0.61733321
-0.61537748
-0.61342168
-0.61146584
-0.60950994
-0.60755399
-0.60559799
-0.60364193
-0.60168582
-0.59972966
-0.59777344
-0.59581718
-0.59386086
-0.59190449
-0.58994806
-0.58799158
-0.58603504
-0.58407846
-0.58212182
-0.58016512
-0.57820838
-0.57625158
-0.57429473
-0.57233782
-0.57038086
-0.56842385
-0.56646679
-0.56450967
-0.5625525
-0.56059529
-0.55863802
-0.5566807
-0.55472332
-0.5527659
-0.55080842
-0.5488509
-0.54689332
-0.5449357
-0.54297803
-0.54102031
-0.53906254
-0.53710473
-0.53514687
-0.53318896
-0.531231
-0.529273
-0.52731496
-0.52535687
-0.52339874
-0.52144056
-0.51948235
-0.51752409
-0.51556579
-0.51360745
-0.51164907
-0.50969066
-0.5077322
-0.50577371
-0.50381519
-0.50185662
-0.49989802
-0.49793939
-0.49598072
-0.49402202
-0.49206328
-0.49010452
-0.48814573
-0.4861869
-0.48422805
-0.48226916
-0.48031025
-0.47835132
-0.47639235
-0.47443336
-0.47247435
-0.47051531
-0.46855625
-0.46659716
-0.46463806
-0.46267893
-0.46071978
-0.45876061
-0.45680142
-0.45484221
-0.45288298
-0.45092374
-0.44896448
-0.4470052
-0.4450459
-0.44308659
-0.44112727
-0.43916792
-0.43720857
-0.4352492
-0.43328981
-0.43133042
-0.42937101
-0.42741159
-0.42545216
-0.42349271
-0.42153326
-0.4195738
-0.41761432
-0.41565484
-0.41369534
-0.41173584
-0.40977632
-0.4078168
-0.40585726
-0.40389772
-0.40193817
-0.3999786
-0.39801904
-0.39605946
-0.39409987
-0.39214027
-0.39018067
-0.38822105
-0.38626143
-0.3843018
-0.38234216
-0.38038251
-0.37842286
-0.3764632
-0.37450353
-0.37254385
-0.37058416
-0.36862446
-0.36666474
-0.36470502
-0.36274529
-0.36078555
-0.35882579
-0.35686603
-0.35490624
-0.35294645
-0.35098664
-0.34902682
-0.34706698
-0.34510713
-0.34314726
-0.34118738
-0.33922748
-0.33726757
-0.33530763
-0.33334768
-0.3313877
-0.32942771
-0.3274677
-0.32550766
-0.3235476
-0.32158752
-0.31962741
-0.31766728
-0.31570712
-0.31374694
-0.31178673
-0.30982649
-0.30786623
-0.30590593
-0.3039456
-0.30198525
-0.30002485
-0.29806443
-0.29610397
-0.29414348
-0.29218294
-0.29022237
-0.28826177
-0.28630112
-0.28434043
-0.28237971
-0.28041894
-0.27845812
-0.27649727
-0.27453637
-0.27257542
-0.27061443
-0.26865339
-0.26669231
-0.26473118
-0.26277
-0.26080877
-0.25884749
-0.25688617
-0.25492479
-0.25296336
-0.25100187
-0.24904033
-0.24707874
-0.24511709
-0.24315538
-0.24119362
-0.23923179
-0.23726991
-0.23530796
-0.23334596
-0.23138389
-0.22942176
-0.22745957
-0.22549732
-0.22353501
-0.22157263
-0.2196102
-0.2176477
-0.21568514
-0.21372251
-0.21175983
-0.20979708
-0.20783426
-0.20587138
-0.20390844
-0.20194543
-0.19998236
-0.19801923
-0.19605603
-0.19409278
-0.19212946
-0.19016607
-0.18820263
-0.18623913
-0.18427557
-0.18231195
-0.18034827
-0.17838453
-0.17642073
-0.17445687
-0.17249295
-0.17052898
-0.16856494
-0.16660085
-0.1646367
-0.16267249
-0.16070822
-0.1587439
-0.15677952
-0.15481509
-0.1528506
-0.15088607
-0.14892148
-0.14695685
-0.14499218
-0.14302745
-0.14106268
-0.13909787
-0.13713301
-0.1351681
-0.13320315
-0.13123815
-0.1292731
-0.12730801
-0.12534288
-0.1233777
-0.12141247
-0.11944721
-0.1174819
-0.11551656
-0.11355118
-0.11158578
-0.10962034
-0.10765487
-0.10568937
-0.10372385
-0.1017583
-0.099792723
-0.097827117
-0.095861481
-0.093895814
-0.091930115
-0.089964383
-0.087998618
-0.08603282
-0.084066989
-0.082101128
-0.080135238
-0.078169322
-0.076203382
-0.074237425
-0.072271452
-0.070305469
-0.068339478
-0.066373483
-0.064407482
-0.062441475
-0.060475456
-0.058509421
-0.056543364
-0.054577284
-0.052611176
-0.050645042
-0.048678884
-0.046712701
-0.044746497
-0.042780271
-0.040814024
-0.038847755
-0.036881465
-0.034915158
-0.032948839
-0.030982517
-0.029016203
-0.027049905
-0.025083622
-0.023117344
-0.021151055
-0.019184737
-0.017218383
-0.015251996
-0.013285586
-0.011319159
-0.0093527165
-0.0073862583
-0.0054197842
-0.0034532936
-0.0014867856
0.00047974298
0.0024462604
0.0044127949
0.0063793471
0.0083459174
0.010312506
0.012279114
0.014245749
0.016212421
0.018179133
0.02014588
0.022112643
0.024079407
0.026046162
0.028012909
0.029979655
0.031946411
0.033913187
0.035879989
0.03784682
0.039813683
0.04178058
0.043747511
0.045714478
0.047681482
0.049648523
0.051615599
0.053582706
0.055549839
0.057516994
0.059484166
0.061451353
0.063418555
0.065385774
0.067353014
0.069320279
0.071287573
0.073254901
0.075222266
0.07718967
0.079157114
0.0811246
0.083092127
0.085059694
0.087027299
0.08899494
0.090962616
0.092930325
0.094898066
0.096865839
0.098833643
0.10080148
0.10276935
0.10473725
0.10670519
0.10867317
0.11064119
0.11260925
0.11457735
0.11654549
0.11851367
0.12048189
0.12245015
0.12441845
0.12638679
0.12835516
0.13032357
0.13229201
0.13426049
0.13622901
0.13819756
0.14016614
0.14213476
0.14410342
0.14607211
0.14804084
0.15000961
0.15197841
0.15394724
0.15591611
0.15788502
0.15985395
0.16182292
0.16379191
0.16576094
0.16772999
0.16969908
0.17166819
0.17363732
0.17560648
0.17757567
0.17954488
0.18151411
0.18348337
0.18545265
0.18742196
0.18939128
0.19136063
0.19332999
0.19529937
0.19726878
0.19923819
0.20120762
0.20317707
0.20514653
0.207116
0.20908548
0.21105497
0.21302448
0.21499399
0.21696351
0.21893303
0.22090256
0.2228721
0.22484163
0.22681117
0.2287807
0.23075023
0.23271976
0.23468929
0.23665881
0.23862833
0.24059783
0.24256733
0.24453682
0.24650629
0.24847576
0.25044521
0.25241465
0.25438407
0.25635348
0.25832287
0.26029225
0.2622616
0.26423094
0.26620026
0.26816955
0.27013883
0.27210808
0.27407731
0.27604652
0.27801569
0.27998485
0.28195397
0.28392307
0.28589213
0.28786116
0.28983017
0.29179914
0.29376807
0.29573697
0.29770584
0.29967467
0.30164346
0.30361222
0.30558093
0.30754961
0.30951825
0.31148685
0.3134554
0.31542392
0.31739239
0.31936082
0.32132921
0.32329755
0.32526585
0.32723411
0.32920232
0.33117048
0.3331386
0.33510667
0.33707469
0.33904267
0.34101059
0.34297847
0.3449463
0.34691409
0.34888182
0.35084951
0.35281715
0.35478474
0.35675228
0.35871977
0.36068722
0.36265462
0.36462197
0.36658928
0.36855654
0.37052375
0.37249092
0.37445804
0.37642512
0.37839215
0.38035913
0.38232608
0.38429297
0.38625983
0.38822664
0.39019341
0.39216014
0.39412683
0.39609348
0.39806009
0.40002666
0.40199319
0.40395969
0.40592615
0.40789257
0.40985896
0.41182532
0.41379164
0.41575793
0.41772419
0.41969043
0.42165663
0.42362281
0.42558896
0.42755508
0.42952118
0.43148726
0.43345331
0.43541934
0.43738535
0.43935135
0.44131733
0.44328329
0.44524924
0.44721517
0.44918109
0.451147
0.4531129
0.45507879
0.45704467
0.45901054
0.46097641
0.46294228
0.46490814
0.466874
0.46883986
0.47080572
0.47277158
0.47473745
0.47670332
0.4786692
0.48063508
0.48260098
0.48456688
0.4865328
0.48849873
0.49046466
0.49243062
0.49439658
0.49636256
0.49832855
0.50029457
0.5022606
0.50422665
0.50619272
0.50815881
0.51012493
0.51209107
0.51405723
0.51602341
0.51798962
0.51995585
0.5219221
0.52388838
0.52585469
0.52782102
0.52978738
0.53175377
0.53372019
0.53568663
0.53765311
0.53961961
0.54158615
0.54355271
0.5455193
0.54748593
0.54945258
0.55141926
0.55338597
0.55535272
0.55731949
0.5592863
0.56125314
0.56322001
0.56518691
0.56715385
0.56912081
0.57108781
0.57305483
0.57502189
0.57698898
0.5789561
0.58092325
0.58289043
0.58485764
0.58682488
0.58879215
0.59075946
0.59272679
0.59469415
0.59666154
0.59862896
0.60059641
0.60256388
0.60453138
0.60649891
0.60846646
0.61043404
0.61240164
0.61436927
0.61633692
0.6183046
0.6202723
0.62224002
0.62420776
0.62617553
0.62814331
0.63011112
0.63207894
0.63404679
0.63601466
0.63798254
0.63995044
0.64191836
0.64388629
0.64585424
0.64782221
0.64979018
0.65175818
0.65372618
0.6556942
0.65766223
0.65963027
0.66159832
0.66356639
0.66553446
0.66750254
0.66947063
0.67143873
0.67340684
0.67537496
0.67734308
0.67931121
0.68127935
0.68324749
0.68521564
0.68718379
0.68915194
0.6911201
0.69308826
0.69505642
0.69702459
0.69899275
0.70096092
0.70292908
0.70489725
0.70686541
0.70883358
0.71080174
0.7127699
0.71473806
0.71670622
0.71867438
0.72064253
0.72261068
0.72457882
0.72654697
0.72851511
0.73048324
0.73245137
0.73441949
0.73638761
0.73835572
0.74032382
0.74229192
0.74426
0.74622808
0.74819616
0.75016422
0.75213228
0.75410033
0.75606837
0.7580364
0.76000442
0.76197243
0.76394044
0.76590843
0.7678764
0.76984438
0.77181234
0.77378029
0.77574824
0.77771617
0.77968409
0.781652
0.7836199
0.78558779
0.78755567
0.78952354
0.79149141
0.79345926
0.7954271
0.79739493
0.79936275
0.80133056
0.80329835
0.80526613
0.80723389
0.80920165
0.81116938
0.81313711
0.81510483
0.81707253
0.81904022
0.8210079
0.82297556
0.82494321
0.82691085
0.82887847
0.83084608
0.83281367
0.83478125
0.83674882
0.83871636
0.84068389
0.84265141
0.84461891
0.8465864
0.84855388
0.85052134
0.85248879
0.85445622
0.85642364
0.85839104
0.86035843
0.8623258
0.86429316
0.8662605
0.86822783
0.87019514
0.87216243
0.87412971
0.87609697
0.87806422
0.88003145
0.88199866
0.88396586
0.88593304
0.88790021
0.88986736
0.89183449
0.89380162
0.89576872
0.89773581
0.89970289
0.90166995
0.90363699
0.90560402
0.90757104
0.90953804
0.91150502
0.913472
0.91543896
0.91740591
0.91937284
0.92133977
0.92330669
0.9252736
0.9272405
0.9292074
0.93117428
0.93314116
0.93510803
0.9370749
0.93904176
0.94100861
0.94297546
0.94494231
0.94690914
0.94887598
0.95084281
0.95280963
0.95477644
0.95674326
0.95871006
0.96067684
0.96264362
0.96461038
0.96657713
0.96854386
0.97051058
0.97247728
0.97444395
0.97641061
0.97837726
0.98034388
0.98231048
0.98427706
0.98624362
0.98821015
0.99017665
0.99214313
0.99410957
0.99607599
0.99804237
1.0000087
1.001975
1.0039413
1.0059076
1.0078738
1.00984
1.0118062
1.0137723
1.0157385
1.0177045
1.0196706
1.0216366
1.0236026
1.0255686
1.0275345
1.0295004
1.0314663
1.0334322
1.035398
1.0373639
1.0393297
1.0412955
1.0432612
1.045227
1.0471928
1.0491585
1.0511243
1.05309
1.0550557
1.0570214
1.0589871
1.0609527
1.0629184
1.0648841
1.0668497
1.0688154
1.070781
1.0727466
1.0747122
1.0766778
1.0786434
1.080609
1.0825746
1.0845401
1.0865056
1.0884712
1.0904367
1.0924022
1.0943677
1.0963333