/*--------------------------------*- C++ -*----------------------------------*\
  =========                 |
  \\      /  F ield         | OpenFOAM: The Open Source CFD Toolbox
   \\    /   O peration     | Website:  https://openfoam.org
    \\  /    A nd           | Version:  7
     \\/     M anipulation  |
\*---------------------------------------------------------------------------*/
FoamFile
{
    version     2.0;
    format      ascii;
    class       volVectorField;
    location    "0.00209";
    object      U;
}
// * * * * * * * * * * * * * * * * * * * * * * * * * * * * * * * * * * * * * //

dimensions      [0 1 -1 0 0 0 0];

internalField   nonuniform List<vector> 
5000
(
(-61.776044 4.1559441e-17 0)
(-61.72554 4.2465277e-17 0)
(-61.701067 0 0)
(-61.672909 0 0)
(-61.645701 -2.2269986e-17 0)
(-61.618172 2.5330625e-32 -2.2281054e-17)
(-61.590687 2.2290803e-17 -4.7515704e-32)
(-61.563058 0 6.6891886e-17)
(-61.535435 0 2.2301888e-17)
(-61.507713 -2.2305404e-17 -4.4610807e-17)
(-61.479995 -4.4614709e-17 -4.4614709e-17)
(-61.45221 2.230859e-17 2.230859e-17)
(-61.424427 2.2308643e-17 -1.9021493e-31)
(-61.396602 -2.2308317e-17 -1.9655256e-31)
(-61.368777 0 4.4613715e-17)
(-61.340928 -2.2305205e-17 -4.461041e-17)
(-61.313076 -6.5293021e-49 -3.264651e-49)
(-61.285215 2.2299388e-17 -1.9647388e-31)
(-61.257351 0 -2.2294755e-17)
(-61.229487 2.2289037e-17 4.4578075e-17)
(-61.201625 -2.2281667e-17 2.2281667e-17)
(-61.173768 -2.2273896e-17 0)
(-61.145916 4.4532545e-17 0)
(-61.118072 -2.2260517e-17 -2.2260517e-17)
(-61.090228 -2.2256532e-17 1.897706e-31)
(-61.062389 -1.8344208e-31 -1.8344208e-31)
(-61.034543 2.2258224e-17 -2.2258224e-17)
(-61.006696 2.2262867e-17 2.2262867e-17)
(-60.978838 -4.4536595e-17 2.2268298e-17)
(-60.950975 3.8617271e-31 -2.2274171e-17)
(-60.923103 -3.8941714e-31 3.8941714e-31)
(-60.895228 2.2282082e-17 -1.8998846e-31)
(-60.867348 4.4566511e-17 -2.2283255e-17)
(-60.839469 -4.456615e-17 2.2283075e-17)
(-60.811591 3.8629368e-31 2.2281148e-17)
(-60.783716 -1.9375952e-30 0)
(-60.755845 -7.7238873e-31 0)
(-60.727978 4.4544263e-17 -2.2272131e-17)
(-60.700117 -4.4536418e-17 -2.2268209e-17)
(-60.67226 -4.4529199e-17 2.22646e-17)
(-60.644409 4.4521009e-17 -3.7328214e-31)
(-60.616563 -1.5308353e-30 -2.2256809e-17)
(-60.588722 -4.4505355e-17 2.2252677e-17)
(-60.560887 2.2248972e-17 -3.7625052e-31)
(-60.533057 6.6734523e-17 -2.2244841e-17)
(-60.505233 -2.2241139e-17 2.2241139e-17)
(-60.477413 -2.2237006e-17 -7.6473659e-31)
(-60.449599 -1.5228989e-30 7.6144946e-31)
(-60.42179 -4.44583e-17 -7.6446643e-31)
(-60.393986 0 3.7901077e-31)
(-60.366188 2.2221272e-17 2.2221272e-17)
(-60.338396 3.1573035e-33 0)
(-60.310608 -2.2213401e-17 0)
(-60.282827 4.4419385e-17 0)
(-60.25505 -7.7627765e-31 0)
(-60.227279 -4.4403735e-17 0)
(-60.199513 2.2197745e-17 0)
(-60.171753 -7.6641335e-31 0)
(-60.143998 -2.2189925e-17 0)
(-60.116248 0 0)
(-60.088503 2.2182096e-17 0)
(-60.060765 7.5641755e-31 0)
(-60.033031 6.3023072e-33 0)
(-60.005303 2.2170582e-17 -2.2170582e-17)
(-59.97758 -2.2166466e-17 -2.2166466e-17)
(-59.949863 7.7478215e-31 2.2162783e-17)
(-59.922151 2.2158671e-17 -3.8102132e-31)
(-59.894444 -2.2154989e-17 -1.0268376e-49)
(-59.866743 -2.2150874e-17 2.2150874e-17)
(-59.839047 2.214719e-17 0)
(-59.811356 2.2143072e-17 0)
(-59.783671 -2.2139389e-17 -2.2139389e-17)
(-59.755991 -2.2135277e-17 -2.2135277e-17)
(-59.728318 4.4263211e-17 0)
(-59.700648 2.212751e-17 2.212751e-17)
(-59.672985 -2.2123858e-17 7.6398941e-31)
(-59.645327 0 -2.2119782e-17)
(-59.617674 2.2116148e-17 -2.2116148e-17)
(-59.590026 -3.142316e-33 2.2112083e-17)
(-59.562383 -2.2108452e-17 4.4216904e-17)
(-59.534746 2.2104384e-17 -4.4208768e-17)
(-59.507113 -6.281409e-33 1.2562818e-32)
(-59.479486 6.2802486e-33 6.6289981e-17)
(-59.451865 2.2093005e-17 -4.418601e-17)
(-59.424248 2.2088909e-17 -2.2977647e-30)
(-59.396637 7.689331e-31 4.4170495e-17)
(-59.369031 -2.2081153e-17 -6.624346e-17)
(-59.341432 0 2.2077501e-17)
(-59.313837 -2.2073426e-17 2.2073426e-17)
(-59.286247 -2.2895042e-30 -2.2069799e-17)
(-59.258663 -7.7139003e-31 2.2065751e-17)
(-59.231084 2.2062153e-17 2.2062153e-17)
(-59.20351 2.2058127e-17 7.6798884e-31)
(-59.175942 -4.410908e-17 -4.410908e-17)
(-59.148378 -1.526047e-30 -1.526047e-30)
(-59.120819 2.2046916e-17 -2.2046916e-17)
(-59.093265 0 -2.2042868e-17)
(-59.065717 0 -7.7359526e-31)
(-59.038173 -2.2035163e-17 1.5343786e-30)
(-59.010636 -1.5278629e-30 4.4063029e-17)
(-58.983103 4.4054846e-17 2.2027423e-17)
(-58.955577 -2.2023774e-17 -2.2023774e-17)
(-58.928055 -4.4039398e-17 3.1291874e-33)
(-58.90054 0 2.2016071e-17)
(-58.873029 2.2012022e-17 0)
(-58.845525 2.2008419e-17 -2.2008419e-17)
(-58.818024 -2.2004382e-17 -7.6611763e-31)
(-58.79053 -2.200079e-17 2.200079e-17)
(-58.76304 0 -2.1996748e-17)
(-58.735557 0 -2.1993151e-17)
(-58.708077 2.198911e-17 4.397822e-17)
(-58.680604 2.1985509e-17 2.1985509e-17)
(-58.653136 0 -6.5944459e-17)
(-58.625673 -2.1977899e-17 -2.1977899e-17)
(-58.598215 7.6817893e-31 6.5921691e-17)
(-58.570762 2.1970332e-17 -2.1970332e-17)
(-58.543314 -2.1966329e-17 -2.1966329e-17)
(-58.515872 6.2421968e-33 -1.2484394e-32)
(-58.488434 -7.6764962e-31 -2.1958756e-17)
(-58.461001 -9.9998815e-50 6.5865607e-17)
(-58.433574 4.3902348e-17 -1.5347691e-30)
(-58.406152 -9.3568277e-33 -4.3895214e-17)
(-58.378734 -2.1943604e-17 4.3887207e-17)
(-58.351323 0 2.1940009e-17)
(-58.323916 -2.1936053e-17 -2.1936053e-17)
(-58.296515 2.193241e-17 2.193241e-17)
(-58.269118 2.1928504e-17 -2.1928504e-17)
(-58.241727 -4.3849609e-17 -4.3849609e-17)
(-58.214341 -2.1920942e-17 2.1920942e-17)
(-58.18696 4.3834388e-17 7.5685281e-31)
(-58.159585 2.1913372e-17 2.1913372e-17)
(-58.132215 -2.1909598e-17 4.3819196e-17)
(-58.10485 -2.190581e-17 -2.190581e-17)
(-58.07749 -2.1902027e-17 -2.1902027e-17)
(-58.050136 0 -2.1898257e-17)
(-58.022786 2.1894464e-17 -7.6229068e-31)
(-57.995442 2.1890692e-17 -7.5904848e-31)
(-57.968103 -2.1886885e-17 7.6202678e-31)
(-57.940769 -7.5878525e-31 4.3766201e-17)
(-57.913441 2.1879286e-17 2.1879286e-17)
(-57.886118 -2.18755e-17 -2.18755e-17)
(-57.8588 -2.1871693e-17 -4.3743386e-17)
(-57.831487 0 -2.1867916e-17)
(-57.80418 2.1864118e-17 -2.1864118e-17)
(-57.776877 2.1860339e-17 1.515992e-30)
(-57.74958 -2.1856525e-17 4.371305e-17)
(-57.722287 2.185271e-17 -6.2109138e-33)
(-57.695 -1.241963e-32 6.2098148e-33)
(-57.667718 -2.184496e-17 8.9534793e-49)
(-57.640441 2.1841015e-17 2.1841015e-17)
(-57.61317 -2.1837048e-17 -1.5143768e-30)
(-57.585904 1.5203029e-30 3.0406057e-30)
(-57.558644 2.182898e-17 2.182898e-17)
(-57.53139 -2.1824889e-17 -2.1824889e-17)
(-57.504141 2.1820794e-17 2.1820794e-17)
(-57.476898 2.1816659e-17 7.5648144e-31)
(-57.449661 -2.1812526e-17 -2.1812526e-17)
(-57.422428 0 2.1808355e-17)
(-57.395202 0 -3.098562e-33)
(-57.36798 -2.1800006e-17 -2.1800006e-17)
(-57.340765 -2.1795861e-17 0)
(-57.313555 2.1791745e-17 2.1791745e-17)
(-57.286351 2.1787738e-17 1.507861e-30)
(-57.259152 -2.1783841e-17 -4.3567682e-17)
(-57.231959 -1.5104299e-30 2.1780134e-17)
(-57.204772 2.1776613e-17 -6.1892856e-33)
(-57.177588 -2.1773339e-17 -2.1773339e-17)
(-57.15041 -2.1770285e-17 2.1770285e-17)
(-57.123235 0 -2.1767494e-17)
(-57.096063 2.1764916e-17 2.1764916e-17)
(-57.068895 2.1762581e-17 -9.0676463e-30)
(-57.04173 0 -6.0362536e-30)
(-57.014568 -2.175849e-17 2.175849e-17)
(-56.987409 -2.1756701e-17 -4.3513402e-17)
(-56.960252 0 0)
(-56.933099 2.1753588e-17 -1.5085889e-30)
(-56.905948 4.5254797e-30 -4.5254797e-30)
(-56.878799 -2.1750875e-17 2.1750875e-17)
(-56.851652 2.1749577e-17 2.1749577e-17)
(-56.824507 2.1748244e-17 1.4989465e-30)
(-56.797364 -2.1746855e-17 -2.1746855e-17)
(-56.770223 -1.5018379e-30 2.174536e-17)
(-56.743085 1.4955464e-30 1.4955464e-30)
(-56.715949 9.2691636e-33 9.2691636e-33)
(-56.688816 2.1740061e-17 3.0122123e-30)
(-56.661686 -2.1737983e-17 -4.3475967e-17)
(-56.63456 -3.014703e-30 2.1735744e-17)
(-56.607437 1.494832e-30 2.1733357e-17)
(-56.580317 -1.4946577e-30 -1.4946577e-30)
(-56.553201 2.1728162e-17 1.4975624e-30)
(-56.526089 0 -4.5168095e-30)
(-56.498981 0 1.5002573e-30)
(-56.471877 -2.1719453e-17 -2.1719453e-17)
(-56.444777 -2.1716331e-17 0)
(-56.417681 0 0)
(-56.39059 0 0)
(-56.363503 2.1706392e-17 0)
(-56.336422 7.9367236e-50 -2.1702955e-17)
(-56.309345 -2.1699476e-17 4.5237601e-30)
(-56.282273 0 2.1695983e-17)
(-56.255206 2.1692466e-17 2.1692466e-17)
(-56.228143 -2.1688942e-17 -2.1688942e-17)
(-56.201086 -6.0092751e-30 -2.1685392e-17)
(-56.174033 4.336366e-17 4.336366e-17)
(-56.146985 -2.1678238e-17 1.5002829e-30)
(-56.119941 -4.5001002e-30 -4.5001002e-30)
(-56.092903 -3.0796347e-33 -2.1671003e-17)
(-56.06587 -2.1667367e-17 -2.1667367e-17)
(-56.038842 2.1663716e-17 2.1663716e-17)
(-56.011819 -3.0780819e-33 0)
(-55.984801 -2.9975481e-30 2.1656437e-17)
(-55.957789 1.4985239e-30 1.4985239e-30)
(-55.930781 -2.1649217e-17 -2.1649217e-17)
(-55.903778 0 -2.1645635e-17)
(-55.87678 2.1642051e-17 3.01401e-30)
(-55.849787 1.4975309e-30 2.1638474e-17)
(-55.822799 6.0045007e-30 -4.3269757e-17)
(-55.795815 2.1631279e-17 2.1631279e-17)
(-55.768836 0 2.1627659e-17)
(-55.741862 -2.1624041e-17 -2.1624041e-17)
(-55.714893 -2.1620412e-17 2.1620412e-17)
(-55.687929 0 0)
(-55.660971 0 0)
(-55.634017 0 0)
(-55.607068 2.1605959e-17 2.1605959e-17)
(-55.580125 1.4950319e-30 -2.1602365e-17)
(-55.553186 -2.1598771e-17 -4.3197542e-17)
(-55.526252 0 2.1595194e-17)
(-55.499323 0 -1.5004247e-30)
(-55.472399 2.1588049e-17 2.1588049e-17)
(-55.445479 2.1584472e-17 2.1584472e-17)
(-55.418565 -2.1580897e-17 -4.3161795e-17)
(-55.391655 -2.1577307e-17 6.1326396e-33)
(-55.36475 0 -6.1316203e-33)
(-55.33785 2.1570126e-17 2.1570126e-17)
(-55.310955 2.1566543e-17 2.1566543e-17)
(-55.284065 -2.1562958e-17 -4.3125916e-17)
(-55.257181 -2.1559387e-17 3.0637732e-33)
(-55.2303 0 -4.4907465e-30)
(-55.203425 2.1552245e-17 2.1552245e-17)
(-55.176555 -5.9836369e-30 -1.1967274e-29)
(-55.14969 -1.4941309e-30 -2.9882618e-30)
(-55.122829 2.1541538e-17 2.1541538e-17)
(-55.095974 -2.1537986e-17 -2.1537986e-17)
(-55.069123 -2.1534432e-17 0)
(-55.042277 0 -2.1530889e-17)
(-55.015436 2.1527337e-17 2.1527337e-17)
(-54.988599 -2.9914226e-30 2.1523788e-17)
(-54.961768 2.1520224e-17 -2.1520224e-17)
(-54.934941 2.9843171e-30 0)
(-54.90812 -4.3026193e-17 -2.1513096e-17)
(-54.881303 2.1509541e-17 2.1509541e-17)
(-54.854491 -2.9828358e-30 2.1505985e-17)
(-54.827685 -7.4650286e-30 -7.4650286e-30)
(-54.800883 -1.4878712e-30 -4.2997794e-17)
(-54.774086 -2.1495359e-17 -4.2990718e-17)
(-54.747294 2.1491812e-17 6.4475435e-17)
(-54.720506 2.1488272e-17 4.2976544e-17)
(-54.693724 0 0)
(-54.666947 -2.1481196e-17 -4.2962392e-17)
(-54.640174 -2.1477665e-17 -2.1477665e-17)
(-54.613406 0 2.147415e-17)
(-54.586643 2.1470631e-17 2.1470631e-17)
(-54.559885 2.146712e-17 2.146712e-17)
(-54.533132 -4.2927194e-17 -4.2927194e-17)
(-54.506383 -2.1460079e-17 -4.2920157e-17)
(-54.479639 2.1456551e-17 2.1456551e-17)
(-54.4529 2.1453034e-17 4.2906068e-17)
(-54.426166 5.9500073e-30 5.9500073e-30)
(-54.399437 -2.1446012e-17 -4.2892024e-17)
(-54.372712 2.1442506e-17 2.1442506e-17)
(-54.345993 -1.4867732e-30 -2.9735464e-30)
(-54.319278 -2.1435502e-17 -2.1435502e-17)
(-54.292567 2.1431998e-17 4.2863996e-17)
(-54.265862 -1.4890884e-30 -2.1428482e-17)
(-54.239161 1.4918892e-30 2.9837785e-30)
(-54.212466 -6.0883454e-33 2.1421461e-17)
(-54.185775 -1.4792263e-30 -2.1417962e-17)
(-54.159089 2.1414461e-17 2.1414461e-17)
(-54.132408 0 -4.2821947e-17)
(-54.105731 0 8.9318565e-30)
(-54.079059 -2.1403984e-17 4.2807968e-17)
(-54.052392 -2.1400476e-17 -4.2800952e-17)
(-54.02573 0 -1.4808171e-30)
(-53.999073 0 2.1393449e-17)
(-53.972421 0 0)
(-53.945773 0 0)
(-53.919131 2.1382899e-17 2.1382899e-17)
(-53.892493 1.4735229e-30 -2.1379372e-17)
(-53.86586 -4.2751688e-17 -4.2751688e-17)
(-53.839232 9.111556e-33 2.1372292e-17)
(-53.812608 2.1368728e-17 -6.0733578e-33)
(-53.78599 2.1365135e-17 2.1365135e-17)
(-53.759376 -2.9658358e-30 2.136153e-17)
(-53.732768 -2.9592613e-30 -2.1357898e-17)
(-53.706164 -3.0346225e-33 0)
(-53.679566 -2.1350593e-17 -2.1350593e-17)
(-53.652973 -2.1346919e-17 -2.1346919e-17)
(-53.626384 -2.1343218e-17 0)
(-53.599801 4.2679014e-17 4.2679014e-17)
(-53.573223 6.4007312e-17 2.1335771e-17)
(-53.546649 -2.133203e-17 -4.2664061e-17)
(-53.520081 -4.265655e-17 1.476063e-30)
(-53.493518 0 -6.060795e-33)
(-53.46696 2.1320774e-17 2.1320774e-17)
(-53.440407 2.1317038e-17 2.1317038e-17)
(-53.413859 -2.1313307e-17 -2.1313307e-17)
(-53.387316 6.0565544e-33 2.1309606e-17)
(-53.360778 -9.0832645e-33 -2.130593e-17)
(-53.334246 6.0544815e-33 1.2108963e-32)
(-53.307718 2.1298756e-17 4.2597512e-17)
(-53.281195 2.1295296e-17 -2.1295296e-17)
(-53.254678 -2.129193e-17 -2.129193e-17)
(-53.228164 -4.2577369e-17 -2.1288685e-17)
(-53.201655 2.1285543e-17 -2.952261e-30)
(-53.17515 5.9844535e-50 2.1282519e-17)
(-53.148649 2.1279588e-17 0)
(-53.122152 5.8960395e-30 0)
(-53.095658 -4.2548058e-17 -2.1274029e-17)
(-53.069168 0 2.9533229e-30)
(-53.042682 0 -5.9029223e-30)
(-53.0162 4.2532961e-17 -2.9556614e-30)
(-52.989722 -1.1809285e-29 2.126419e-17)
(-52.963247 -4.2524045e-17 -2.1262022e-17)
(-52.936774 0 3.0212205e-33)
(-52.910305 2.1257973e-17 2.1257973e-17)
(-52.883839 2.1256056e-17 0)
(-52.857375 -2.1254197e-17 0)
(-52.830914 3.0201423e-33 0)
(-52.804456 -2.950428e-30 0)
(-52.778 3.0196279e-33 0)
(-52.751546 2.1246933e-17 0)
(-52.725096 -2.1245098e-17 0)
(-52.698648 -2.1243243e-17 -2.1243243e-17)
(-52.672203 0 0)
(-52.64576 2.1239386e-17 2.1239386e-17)
(-52.619321 -2.9485964e-30 0)
(-52.592884 -2.1235279e-17 -2.1235279e-17)
(-52.566451 4.2466226e-17 -5.8899781e-30)
(-52.540021 -5.8893596e-30 2.1230883e-17)
(-52.513595 -2.1228572e-17 0)
(-52.487172 -5.8940931e-30 0)
(-52.460752 -4.2447495e-17 -2.1223747e-17)
(-52.434336 4.2442465e-17 -2.946357e-30)
(-52.407923 2.1218637e-17 2.1218637e-17)
(-52.381514 -2.1215973e-17 0)
(-52.355109 -3.0145813e-33 0)
(-52.328708 -2.1210422e-17 -2.1210422e-17)
(-52.302311 0 -2.1207546e-17)
(-52.275918 0 2.1204619e-17)
(-52.249529 2.1201641e-17 2.1201641e-17)
(-52.223144 -2.9402056e-30 0)
(-52.196763 -4.2391136e-17 -2.1195568e-17)
(-52.170386 3.0116319e-33 3.0116319e-33)
(-52.144014 6.3568035e-17 2.1189345e-17)
(-52.117646 -2.118618e-17 -2.118618e-17)
(-52.091282 -2.1182982e-17 -2.1182982e-17)
(-52.064922 4.2359512e-17 2.1179756e-17)
(-52.038567 -2.1176507e-17 2.1176507e-17)
(-52.012217 2.117324e-17 0)
(-51.985871 4.2339915e-17 -2.1169957e-17)
(-51.959529 -2.1166663e-17 -2.1166663e-17)
(-51.933192 -2.1163358e-17 2.1163358e-17)
(-51.90686 -2.1160045e-17 2.1160045e-17)
(-51.880532 2.1156726e-17 0)
(-51.854209 1.5492197e-49 -2.1153403e-17)
(-51.827891 -2.1150077e-17 -2.1150077e-17)
(-51.801577 2.1146751e-17 2.1146751e-17)
(-51.775267 -2.1143423e-17 2.1143423e-17)
(-51.748962 2.1140096e-17 0)
(-51.722662 5.8572452e-30 0)
(-51.696366 6.0064857e-33 0)
(-51.670075 2.1130118e-17 0)
(-51.643788 -4.2253588e-17 0)
(-51.617505 2.112347e-17 0)
(-51.591227 5.8646436e-30 0)
(-51.564954 -5.8577172e-30 0)
(-51.538685 -2.1113481e-17 -2.1113481e-17)
(-51.512421 -4.2220289e-17 -1.2531824e-48)
(-51.486162 6.3320426e-17 2.1106809e-17)
(-51.459907 5.8540172e-30 0)
(-51.433656 -1.1706188e-29 0)
(-51.407411 5.846176e-30 0)
(-51.38117 -4.2187012e-17 -2.1093506e-17)
(-51.354933 4.2180384e-17 -2.9251662e-30)
(-51.328701 -5.8494137e-30 2.108688e-17)
(-51.302473 -4.2167137e-17 -2.1083568e-17)
(-51.27625 0 2.926784e-30)
(-51.250032 0 -2.9952142e-33)
(-51.223818 2.1073635e-17 -2.9258646e-30)
(-51.197608 -2.9224107e-30 2.1070325e-17)
(-51.171403 -2.1067014e-17 -2.1067014e-17)
(-51.145203 -2.1063702e-17 2.1063702e-17)
(-51.119007 2.1060389e-17 -1.1702088e-29)
(-51.092816 6.3171234e-17 -2.1057078e-17)
(-51.066629 -2.1053769e-17 2.1053769e-17)
(-51.040447 -2.1050464e-17 0)
(-51.01427 -5.9819634e-33 0)
(-50.988097 -2.1043865e-17 -2.1043865e-17)
(-50.961928 0 -2.9212736e-30)
(-50.935764 4.2074546e-17 2.1037273e-17)
(-50.909605 4.2067953e-17 -2.1033977e-17)
(-50.88345 -2.1030681e-17 -2.1030681e-17)
(-50.8573 -4.2054778e-17 0)
(-50.831154 -2.1024103e-17 2.1024103e-17)
(-50.805013 4.2041645e-17 2.1020822e-17)
(-50.778876 4.2035095e-17 -2.1017547e-17)
(-50.752744 -4.2028549e-17 -5.8322595e-30)
(-50.726616 -4.2021999e-17 3.0469175e-49)
(-50.700492 0 -2.9167129e-30)
(-50.674373 4.2008867e-17 2.1004433e-17)
(-50.648259 -2.1001141e-17 -2.1001141e-17)
(-50.622149 -4.199569e-17 -1.2383306e-48)
(-50.596043 2.0994549e-17 -2.9148842e-30)
(-50.569942 2.0991255e-17 -2.0991255e-17)
(-50.543846 -2.9825693e-33 0)
(-50.517755 2.9135144e-30 0)
(-50.491668 2.0981404e-17 2.0981404e-17)
(-50.465585 -2.0978128e-17 2.9811713e-33)
(-50.439507 -2.0974853e-17 -8.727507e-30)
(-50.413433 2.0971576e-17 2.0971576e-17)
(-50.387364 -2.9082591e-30 0)
(-50.361299 -2.9793061e-33 0)
(-50.335238 -2.9073454e-30 -2.0961705e-17)
(-50.309183 -2.0958402e-17 5.810796e-30)
(-50.283131 2.0955093e-17 2.0955093e-17)
(-50.257085 -8.7268396e-30 0)
(-50.231043 -2.9084866e-30 0)
(-50.205006 -5.8130765e-30 0)
(-50.178973 -2.0941841e-17 -2.0941841e-17)
(-50.152944 2.0938524e-17 2.9755432e-33)
(-50.126921 -2.906645e-30 2.0935206e-17)
(-50.100902 -5.8034444e-30 -2.0931886e-17)
(-50.074887 -2.9741279e-33 2.0928564e-17)
(-50.048877 -4.185048e-17 -5.8164701e-30)
(-50.022871 -2.0921911e-17 -4.1843823e-17)
(-49.99687 2.0918577e-17 2.0918577e-17)
(-49.970873 4.1830474e-17 8.7116177e-30)
(-49.944881 -2.9034082e-30 2.9034082e-30)
(-49.918893 -4.181709e-17 -2.9029435e-30)
(-49.89291 -2.09052e-17 -2.09052e-17)
(-49.866932 4.1803718e-17 0)
(-49.840958 2.0898527e-17 0)
(-49.814989 -2.0895207e-17 2.0895207e-17)
(-49.789024 -2.0891902e-17 2.9006328e-30)
(-49.763064 -5.7973845e-30 -5.7973845e-30)
(-49.737109 2.0885351e-17 7.6450979e-50)
(-49.711157 0 -2.088211e-17)
(-49.685211 0 2.0878897e-17)
(-49.659268 2.0875713e-17 2.0875713e-17)
(-49.63333 0 0)
(-49.607396 -2.0869438e-17 -2.0869438e-17)
(-49.581466 2.0866355e-17 -2.8970858e-30)
(-49.555541 2.9648552e-33 2.0863314e-17)
(-49.529619 -5.7895314e-30 0)
(-49.503702 0 0)
(-49.477789 -2.0854496e-17 -2.0854496e-17)
(-49.45188 2.0851671e-17 5.9264014e-33)
(-49.425975 2.0848905e-17 5.194531e-50)
(-49.400074 -4.1692394e-17 -2.0846197e-17)
(-49.374176 -2.0843547e-17 2.0843547e-17)
(-49.348282 2.0840954e-17 -2.8876358e-30)
(-49.322391 0 2.8932072e-30)
(-49.296505 0 -5.7827659e-30)
(-49.270621 -2.0833526e-17 -2.0833526e-17)
(-49.244741 5.7873603e-30 2.0831165e-17)
(-49.218865 2.0828859e-17 -5.7837597e-30)
(-49.192991 0 5.7860929e-30)
(-49.167121 0 -5.785479e-30)
(-49.141254 -2.0822224e-17 -2.0822224e-17)
(-49.11539 8.674946e-30 2.082009e-17)
(-49.089529 2.0817987e-17 -5.7807408e-30)
(-49.063671 0 2.8959981e-30)
(-49.037817 0 0)
(-49.011965 0 -2.0811805e-17)
(-48.986115 0 2.0809767e-17)
(-48.960269 0 -2.8889463e-30)
(-48.934426 0 2.9566663e-33)
(-48.908586 0 -2.8883785e-30)
(-48.882749 0 2.8910482e-30)
(-48.856915 4.1598999e-17 2.0799499e-17)
(-48.831084 1.1544137e-29 -2.07974e-17)
(-48.805256 -2.0795276e-17 -2.0795276e-17)
(-48.779431 2.0793124e-17 2.0793124e-17)
(-48.753609 -2.0790939e-17 2.0790939e-17)
(-48.72779 2.078872e-17 0)
(-48.701974 -5.7778946e-30 -2.0786461e-17)
(-48.676162 -2.0784162e-17 -2.0784162e-17)
(-48.650352 -5.7706976e-30 0)
(-48.624546 -2.0779432e-17 2.0779432e-17)
(-48.598744 0 -2.8846797e-30)
(-48.572945 0 2.9522373e-33)
(-48.547149 2.0772004e-17 2.8810341e-30)
(-48.521357 5.7672608e-30 -2.0769442e-17)
(-48.495569 -2.0766841e-17 2.0766841e-17)
(-48.469785 0 2.879952e-30)
(-48.444004 0 -5.7650628e-30)
(-48.418227 0 -2.0758818e-17)
(-48.392454 0 -2.0756079e-17)
(-48.366684 0 4.150662e-17)
(-48.340919 0 -2.9488252e-33)
(-48.315157 0 2.8776615e-30)
(-48.289399 4.1489668e-17 2.0744834e-17)
(-48.263646 -1.7267095e-29 -2.0741956e-17)
(-48.237896 -4.1478108e-17 2.8794113e-30)
(-48.21215 2.0736132e-17 2.0736132e-17)
(-48.186408 2.9463639e-33 0)
(-48.160671 2.0730239e-17 0)
(-48.134937 -1.1493429e-29 0)
(-48.109207 -4.1448587e-17 -2.0724294e-17)
(-48.083482 -2.0721301e-17 -2.0721301e-17)
(-48.057761 -6.5969799e-50 2.0718296e-17)
(-48.032043 6.2145834e-17 2.0715278e-17)
(-48.00633 0 0)
(-47.980622 -4.1418436e-17 -2.0709218e-17)
(-47.954917 0 -2.0706183e-17)
(-47.929217 0 2.070315e-17)
(-47.903521 4.1400237e-17 2.0700118e-17)
(-47.877829 -5.741287e-30 0)
(-47.852141 -6.2082168e-17 -2.0694056e-17)
(-47.826457 2.0691021e-17 -2.0691021e-17)
(-47.800777 2.0687981e-17 2.0687981e-17)
(-47.775102 -2.0684938e-17 5.7437958e-30)
(-47.74943 2.0681894e-17 -2.0681894e-17)
(-47.723763 -2.067885e-17 0)
(-47.6981 -5.7353841e-30 0)
(-47.672441 2.067277e-17 0)
(-47.646786 -2.0669733e-17 0)
(-47.621136 0 2.0666696e-17)
(-47.595489 -2.0663658e-17 -5.7320136e-30)
(-47.569847 2.0660619e-17 -2.0660619e-17)
(-47.544209 4.131516e-17 2.065758e-17)
(-47.518575 -2.0654544e-17 2.8676779e-30)
(-47.492946 -2.0651512e-17 -2.8701917e-30)
(-47.46732 -2.0648485e-17 6.7347161e-50)
(-47.441699 -2.0645462e-17 2.0645462e-17)
(-47.416082 4.1284882e-17 2.0642441e-17)
(-47.390469 2.0639419e-17 -4.1278839e-17)
(-47.36486 -2.0636396e-17 -2.8651582e-30)
(-47.339255 0 2.8618061e-30)
(-47.313654 2.0630348e-17 -2.0630348e-17)
(-47.288058 -2.0627329e-17 0)
(-47.262466 -2.0624317e-17 2.0624317e-17)
(-47.236878 6.1863942e-17 2.0621314e-17)
(-47.211294 5.8600785e-33 -2.0618318e-17)
(-47.185715 -4.1230655e-17 -5.718607e-30)
(-47.160139 2.0612339e-17 2.0612339e-17)
(-47.134568 2.8614033e-30 0)
(-47.109 2.0606361e-17 0)
(-47.083437 -5.8558301e-33 -2.0603371e-17)
(-47.057877 -4.1200761e-17 2.8572304e-30)
(-47.032322 2.0597393e-17 2.0597393e-17)
(-47.006771 0 0)
(-46.981224 -5.7178311e-30 -2.0591432e-17)
(-46.955681 -2.9257961e-33 2.9257961e-33)
(-46.930142 -2.0585491e-17 -5.7161812e-30)
(-46.904608 2.0582525e-17 -2.8547539e-30)
(-46.879077 -5.7145346e-30 2.0579561e-17)
(-46.85355 -2.8539318e-30 -2.0576598e-17)
(-46.828028 -2.9236895e-33 2.9236895e-33)
(-46.802509 -2.0570674e-17 -5.7120667e-30)
(-46.776995 2.0567713e-17 -2.0567713e-17)
(-46.751484 6.4817736e-50 2.0564753e-17)
(-46.725978 -5.7096017e-30 5.7096017e-30)
(-46.700476 -2.9215872e-33 2.9215872e-33)
(-46.674978 -4.1111786e-17 -2.8539812e-30)
(-46.649484 -2.8506515e-30 -2.0552948e-17)
(-46.623994 2.0550007e-17 2.0550007e-17)
(-46.598509 0 0)
(-46.573027 0 -1.1406479e-29)
(-46.547549 -2.0541215e-17 -2.8490242e-30)
(-46.522075 -8.5458562e-30 -8.5458562e-30)
(-46.496605 2.0535369e-17 -2.9182515e-33)
(-46.471139 -2.0532447e-17 -2.0532447e-17)
(-46.445677 2.8503198e-30 2.0529521e-17)
(-46.420219 2.5470292e-49 2.5470292e-49)
(-46.394765 -2.849506e-30 -2.849506e-30)
(-46.369315 2.0520724e-17 5.6981968e-30)
(-46.343869 2.0517787e-17 -2.8486906e-30)
(-46.318428 2.8453676e-30 4.1029702e-17)
(-46.29299 -2.0511917e-17 -2.0511917e-17)
(-46.267556 0 -2.0508984e-17)
(-46.242127 0 -2.8470615e-30)
(-46.216702 2.0503123e-17 2.8466547e-30)
(-46.19128 -2.0500193e-17 4.1000386e-17)
(-46.165863 1.7063394e-29 -2.0497262e-17)
(-46.14045 2.0494329e-17 -2.0494329e-17)
(-46.11504 -2.0491395e-17 6.4288621e-50)
(-46.089635 0 0)
(-46.064234 2.0485521e-17 6.4524465e-50)
(-46.038837 2.0482582e-17 -2.0482582e-17)
(-46.013444 -2.0479644e-17 2.0479644e-17)
(-45.988055 -2.0476707e-17 6.4548818e-50)
(-45.96267 0 -2.83967e-30)
(-45.937288 2.0470839e-17 -2.9090812e-33)
(-45.911911 2.0467908e-17 -2.0467908e-17)
(-45.886538 -4.0929954e-17 4.0929954e-17)
(-45.861169 -2.0462044e-17 5.6819026e-30)
(-45.835804 2.0459111e-17 -2.0459111e-17)
(-45.810443 2.0456178e-17 2.8372298e-30)
(-45.785086 2.8368235e-30 -2.8368235e-30)
(-45.759733 2.0450329e-17 2.0450329e-17)
(-45.734384 5.6778418e-30 -2.0447421e-17)
(-45.709039 -4.0889055e-17 -2.4974695e-49)
(-45.683698 0 -8.5172645e-30)
(-45.658361 0 5.6783499e-30)
(-45.633028 0 -5.6717514e-30)
(-45.607699 2.0433117e-17 -5.67387e-30)
(-45.582373 2.0430306e-17 5.8423794e-50)
(-45.557052 0 0)
(-45.531734 -2.0424747e-17 2.0424747e-17)
(-45.50642 -2.829588e-30 0)
(-45.48111 2.0419294e-17 0)
(-45.455804 0 -2.0416613e-17)
(-45.430502 0 -5.6685519e-30)
(-45.405203 -2.041135e-17 2.041135e-17)
(-45.379908 -2.8306542e-30 0)
(-45.354616 2.827401e-30 0)
(-45.329328 -2.040371e-17 -4.0807421e-17)
(-45.304043 2.0401235e-17 -1.6983454e-29)
(-45.278762 -8.4878129e-30 4.0797591e-17)
(-45.253484 -2.0396391e-17 -2.0396391e-17)
(-45.228209 0 2.8981644e-33)
(-45.202938 -2.0391679e-17 -2.8311818e-30)
(-45.17767 -2.8308613e-30 -2.0389371e-17)
(-45.152406 2.0387094e-17 0)
(-45.127145 -2.0384847e-17 0)
(-45.101886 2.0382627e-17 0)
(-45.076631 2.0380433e-17 -2.0380433e-17)
(-45.051379 -2.0378259e-17 -5.6528453e-30)
(-45.02613 0 2.0376102e-17)
(-45.000885 2.0373957e-17 0)
(-44.975642 2.0371821e-17 0)
(-44.950402 -2.0369691e-17 -2.0369691e-17)
(-44.925165 -2.0367563e-17 2.8944048e-33)
(-44.899932 0 2.0365434e-17)
(-44.874701 -2.0363296e-17 0)
(-44.849473 2.0361146e-17 0)
(-44.824249 2.0358978e-17 -2.0358978e-17)
(-44.799028 -2.0356789e-17 -5.6468895e-30)
(-44.773809 -4.0709151e-17 -5.6549531e-30)
(-44.748594 1.1302876e-29 5.6514381e-30)
(-44.723382 6.1050182e-17 2.0350061e-17)
(-44.698174 3.6225085e-50 -2.034775e-17)
(-44.672968 -2.0345396e-17 5.6466203e-30)
(-44.647766 -4.0685985e-17 -5.6459533e-30)
(-44.622567 1.1284761e-29 5.6423807e-30)
(-44.597372 4.0676044e-17 2.0338022e-17)
(-44.572181 -2.0335452e-17 0)
(-44.546993 2.0332824e-17 0)
(-44.521808 -2.0330137e-17 -2.0330137e-17)
(-44.496628 -2.0327388e-17 -1.4526548e-48)
(-44.471451 4.064914e-17 2.032457e-17)
(-44.446278 0 0)
(-44.421109 0 0)
(-44.395944 -4.063133e-17 -2.0315665e-17)
(-44.370783 -6.1336581e-49 -1.2267316e-48)
(-44.345627 4.0618656e-17 2.0309328e-17)
(-44.320475 0 0)
(-44.295328 0 0)
(-44.270185 -4.0598412e-17 -2.0299206e-17)
(-44.245048 -7.7475886e-49 -1.5495177e-48)
(-44.219915 4.0584081e-17 2.0292041e-17)
(-44.194787 0 0)
(-44.169664 0 0)
(-44.144546 -4.0561342e-17 -2.0280671e-17)
(-44.119433 -2.0276712e-17 2.8814941e-33)
(-44.094326 4.0545328e-17 2.0272664e-17)
(-44.069224 2.0268525e-17 -2.0268525e-17)
(-44.044128 0 5.6298709e-30)
(-44.019037 -4.0519943e-17 -5.62867e-30)
(-43.993952 1.1249131e-29 5.6245654e-30)
(-43.968873 4.0502108e-17 2.0251054e-17)
(-43.9438 -2.0246459e-17 0)
(-43.918733 0 0)
(-43.893672 2.0236986e-17 0)
(-43.868617 -2.0232105e-17 0)
(-43.843569 2.8744473e-33 0)
(-43.818528 2.0222048e-17 -2.0222048e-17)
(-43.793493 -2.0216874e-17 5.6109505e-30)
(-43.768465 2.0211604e-17 2.0211604e-17)
(-43.743445 2.0206237e-17 0)
(-43.718431 -2.0200771e-17 0)
(-43.693424 -2.0195206e-17 0)
(-43.668425 5.6062329e-30 0)
(-43.643433 2.0183767e-17 0)
(-43.618449 -2.0177892e-17 0)
(-43.593473 -5.6013392e-30 0)
(-43.568504 2.0165831e-17 -2.0165831e-17)
(-43.543544 -2.0159642e-17 1.1190133e-29)
(-43.518591 2.0153345e-17 2.0153345e-17)
(-43.493647 2.0146939e-17 0)
(-43.468711 -2.0140423e-17 0)
(-43.443784 -2.0133798e-17 0)
(-43.418865 5.5888847e-30 0)
(-43.393955 2.0120217e-17 0)
(-43.369054 -2.0113259e-17 0)
(-43.344162 2.8572612e-33 0)
(-43.319279 2.0099002e-17 -2.0099002e-17)
(-43.294406 -2.0091698e-17 5.5762095e-30)
(-43.269542 2.0084275e-17 2.0084275e-17)
(-43.244687 2.0076735e-17 0)
(-43.219843 -2.0069076e-17 0)
(-43.195008 -4.01226e-17 -2.00613e-17)
(-43.170183 1.1142563e-29 5.5712816e-30)
(-43.145369 4.0090788e-17 2.0045394e-17)
(-43.120565 -2.0037262e-17 0)
(-43.095771 2.8462934e-33 0)
(-43.070988 4.0041268e-17 0)
(-43.046216 5.6877909e-33 -2.0012135e-17)
(-43.021455 -2.0003513e-17 -5.5574202e-30)
(-42.996705 0 1.9994769e-17)
(-42.971966 1.9985903e-17 0)
(-42.947239 0 0)
(-42.922523 -1.996781e-17 0)
(-42.897819 0 0)
(-42.873127 0 0)
(-42.848447 0 0)
(-42.823779 -1.9930162e-17 0)
(-42.799123 -3.9782639e-49 -1.9920446e-17)
(-42.77448 1.9910609e-17 2.8294677e-33)
(-42.749849 0 1.9900653e-17)
(-42.725231 1.9890577e-17 0)
(-42.700626 -5.5203865e-30 0)
(-42.676034 -1.9870067e-17 0)
(-42.651455 0 0)
(-42.62689 0 0)
(-42.602338 0 0)
(-42.5778 -1.9827637e-17 0)
(-42.553275 5.5027155e-30 -1.9816744e-17)
(-42.528765 1.9805738e-17 -2.8145647e-33)
(-42.504268 0 1.9794619e-17)
(-42.479786 1.9783388e-17 0)
(-42.455318 5.487494e-30 0)
(-42.430864 -1.9760595e-17 0)
(-42.406425 0 -1.9749037e-17)
(-42.382001 1.9737374e-17 1.0958547e-29)
(-42.357591 -1.9725605e-17 1.9725605e-17)
(-42.333197 1.0953825e-29 0)
(-42.308817 1.9701753e-17 -1.9701753e-17)
(-42.284453 -1.9689671e-17 -5.470228e-30)
(-42.260104 0 1.9677489e-17)
(-42.235771 -1.9665209e-17 0)
(-42.211453 -5.4572006e-30 0)
(-42.187152 1.9640362e-17 -1.9640362e-17)
(-42.162865 0 -1.9627795e-17)
(-42.138595 1.9615133e-17 1.9615133e-17)
(-42.114341 -1.9602376e-17 1.9602376e-17)
(-42.090103 -1.0879243e-29 0)
(-42.065881 1.9576584e-17 0)
(-42.041676 -1.086204e-29 0)
(-42.017488 -2.7782845e-33 0)
(-41.993315 5.4278782e-30 1.9537237e-17)
(-41.96916 -2.7745197e-33 -2.7745197e-33)
(-41.945021 -1.951057e-17 -3.902114e-17)
(-41.9209 0 -1.9497107e-17)
(-41.896795 1.9483562e-17 3.8967123e-17)
(-41.872708 -5.4036473e-30 3.8939875e-17)
(-41.848638 -5.3998453e-30 -1.9456238e-17)
(-41.824585 5.9569148e-49 -1.9442466e-17)
(-41.80055 -5.3949413e-30 0)
(-41.776532 0 0)
(-41.752532 -3.8801414e-17 0)
(-41.728549 -5.3832837e-30 0)
(-41.704584 1.9372498e-17 -1.9372498e-17)
(-41.680637 -1.9358291e-17 -5.3781632e-30)
(-41.656708 5.3687009e-30 1.9344021e-17)
(-41.632798 1.9329693e-17 0)
(-41.608905 1.9315307e-17 0)
(-41.58503 5.3594661e-30 0)
(-41.561174 -5.3554406e-30 0)
(-41.537336 1.9271818e-17 0)
(-41.513516 -1.9257218e-17 0)
(-41.489715 -1.9242573e-17 0)
(-41.465932 0 0)
(-41.442167 -1.9213158e-17 0)
(-41.418422 5.3310116e-30 0)
(-41.394694 1.9183591e-17 0)
(-41.370986 0 0)
(-41.347296 0 0)
(-41.323625 0 0)
(-41.299973 -3.8248202e-17 -1.9124101e-17)
(-41.276339 2.1224961e-29 1.0612481e-29)
(-41.252724 3.818852e-17 1.909426e-17)
(-41.229129 0 0)
(-41.205552 0 0)
(-41.181993 0 1.9049463e-17)
(-41.158454 0 -5.2855108e-30)
(-41.134933 0 2.7028491e-33)
(-41.111431 0 -1.9004704e-17)
(-41.087948 0 -1.898982e-17)
(-41.064484 -3.7949923e-17 -1.0535242e-29)
(-41.041038 1.0535091e-29 5.2675453e-30)
(-41.017611 3.7890654e-17 1.8945327e-17)
(-40.994202 1.8930553e-17 0)
(-40.970812 -1.8915815e-17 0)
(-40.947441 -1.8901121e-17 0)
(-40.924088 5.2470829e-30 0)
(-40.900753 1.0469968e-29 0)
(-40.877437 1.8857353e-17 -1.8857353e-17)
(-40.854139 -1.884287e-17 1.0461903e-29)
(-40.830859 1.8828444e-17 1.8828444e-17)