/*--------------------------------*- C++ -*----------------------------------*\
  =========                 |
  \\      /  F ield         | OpenFOAM: The Open Source CFD Toolbox
   \\    /   O peration     | Website:  https://openfoam.org
    \\  /    A nd           | Version:  7
     \\/     M anipulation  |
\*---------------------------------------------------------------------------*/
FoamFile
{
    version     2.0;
    format      ascii;
    class       volScalarField;
    location    "0.00178";
    object      p;
}
// * * * * * * * * * * * * * * * * * * * * * * * * * * * * * * * * * * * * * //

dimensions      [1 -1 -2 0 0 0 0];

internalField   nonuniform List<scalar> 
5000
(
109813.6
109813.59
109813.58
109813.57
109813.56
109813.56
109813.55
109813.55
109813.54
109813.53
109813.52
109813.51
109813.51
109813.5
109813.5
109813.49
109813.48
109813.48
109813.47
109813.46
109813.45
109813.45
109813.44
109813.44
109813.43
109813.42
109813.42
109813.41
109813.4
109813.4
109813.39
109813.39
109813.38
109813.38
109813.37
109813.36
109813.36
109813.35
109813.35
109813.34
109813.34
109813.33
109813.33
109813.32
109813.31
109813.31
109813.31
109813.3
109813.29
109813.29
109813.28
109813.28
109813.27
109813.27
109813.27
109813.26
109813.26
109813.25
109813.25
109813.24
109813.24
109813.23
109813.23
109813.22
109813.22
109813.21
109813.21
109813.21
109813.2
109813.2
109813.19
109813.19
109813.18
109813.18
109813.18
109813.17
109813.17
109813.16
109813.16
109813.15
109813.15
109813.14
109813.14
109813.13
109813.13
109813.12
109813.12
109813.11
109813.11
109813.1
109813.1
109813.09
109813.09
109813.09
109813.08
109813.08
109813.07
109813.07
109813.06
109813.06
109813.06
109813.05
109813.05
109813.04
109813.04
109813.03
109813.03
109813.02
109813.02
109813.01
109813
109813
109812.99
109812.98
109812.97
109812.97
109812.96
109812.95
109812.94
109812.93
109812.92
109812.92
109812.9
109812.89
109812.88
109812.87
109812.86
109812.85
109812.84
109812.83
109812.81
109812.8
109812.78
109812.77
109812.76
109812.75
109812.73
109812.71
109812.69
109812.67
109812.65
109812.63
109812.61
109812.6
109812.58
109812.56
109812.53
109812.51
109812.48
109812.46
109812.44
109812.41
109812.39
109812.36
109812.33
109812.3
109812.27
109812.24
109812.21
109812.18
109812.15
109812.12
109812.08
109812.05
109812.01
109811.97
109811.93
109811.89
109811.85
109811.8
109811.76
109811.71
109811.66
109811.61
109811.56
109811.51
109811.45
109811.4
109811.34
109811.28
109811.21
109811.15
109811.08
109811.02
109810.95
109810.87
109810.8
109810.72
109810.65
109810.56
109810.48
109810.4
109810.31
109810.22
109810.13
109810.03
109809.94
109809.84
109809.73
109809.63
109809.52
109809.41
109809.3
109809.18
109809.06
109808.94
109808.82
109808.69
109808.56
109808.42
109808.29
109808.15
109808
109807.86
109807.71
109807.56
109807.4
109807.24
109807.07
109806.91
109806.74
109806.56
109806.38
109806.2
109806.01
109805.82
109805.63
109805.43
109805.23
109805.03
109804.82
109804.6
109804.38
109804.16
109803.94
109803.7
109803.47
109803.23
109802.98
109802.74
109802.48
109802.22
109801.96
109801.69
109801.42
109801.15
109800.86
109800.58
109800.29
109799.99
109799.69
109799.38
109799.07
109798.75
109798.43
109798.11
109797.77
109797.44
109797.09
109796.75
109796.39
109796.03
109795.67
109795.3
109794.93
109794.55
109794.16
109793.77
109793.37
109792.97
109792.56
109792.15
109791.73
109791.3
109790.87
109790.43
109789.99
109789.54
109789.09
109788.63
109788.16
109787.69
109787.21
109786.73
109786.24
109785.74
109785.24
109784.73
109784.22
109783.7
109783.17
109782.64
109782.1
109781.56
109781.01
109780.46
109779.89
109779.33
109778.75
109778.17
109777.59
109777
109776.4
109775.79
109775.18
109774.57
109773.95
109773.32
109772.69
109772.05
109771.4
109770.75
109770.09
109769.43
109768.76
109768.09
109767.41
109766.72
109766.03
109765.33
109764.63
109763.92
109763.2
109762.48
109761.76
109761.03
109760.29
109759.55
109758.8
109758.05
109757.29
109756.53
109755.76
109754.99
109754.21
109753.42
109752.63
109751.84
109751.04
109750.24
109749.43
109748.61
109747.79
109746.97
109746.14
109745.31
109744.48
109743.63
109742.79
109741.94
109741.08
109740.22
109739.36
109738.49
109737.62
109736.74
109735.86
109734.98
109734.09
109733.2
109732.31
109731.41
109730.5
109729.6
109728.69
109727.77
109726.86
109725.94
109725.01
109724.08
109723.15
109722.22
109721.28
109720.34
109719.39
109718.45
109717.5
109716.54
109715.59
109714.63
109713.67
109712.7
109711.74
109710.77
109709.8
109708.82
109707.85
109706.87
109705.88
109704.9
109703.92
109702.93
109701.94
109700.95
109699.95
109698.96
109697.96
109696.96
109695.96
109694.96
109693.95
109692.95
109691.94
109690.93
109689.92
109688.91
109687.9
109686.88
109685.87
109684.85
109683.84
109682.82
109681.8
109680.78
109679.76
109678.74
109677.72
109676.7
109675.68
109674.66
109673.63
109672.61
109671.59
109670.56
109669.54
109668.52
109667.49
109666.47
109665.45
109664.43
109663.4
109662.38
109661.36
109660.34
109659.32
109658.3
109657.28
109656.26
109655.25
109654.23
109653.21
109652.2
109651.19
109650.17
109649.16
109648.15
109647.14
109646.14
109645.13
109644.13
109643.12
109642.12
109641.12
109640.12
109639.13
109638.13
109637.14
109636.15
109635.16
109634.18
109633.19
109632.21
109631.23
109630.25
109629.27
109628.3
109627.33
109626.36
109625.39
109624.43
109623.47
109622.51
109621.55
109620.6
109619.65
109618.7
109617.76
109616.82
109615.88
109614.94
109614.01
109613.08
109612.15
109611.23
109610.3
109609.39
109608.47
109607.56
109606.65
109605.75
109604.85
109603.95
109603.05
109602.16
109601.27
109600.39
109599.51
109598.63
109597.76
109596.89
109596.02
109595.16
109594.3
109593.45
109592.59
109591.75
109590.9
109590.06
109589.23
109588.39
109587.56
109586.74
109585.92
109585.1
109584.29
109583.48
109582.67
109581.87
109581.07
109580.28
109579.49
109578.7
109577.92
109577.15
109576.37
109575.6
109574.84
109574.08
109573.32
109572.56
109571.82
109571.07
109570.33
109569.59
109568.86
109568.13
109567.4
109566.68
109565.97
109565.25
109564.54
109563.84
109563.14
109562.44
109561.75
109561.06
109560.38
109559.7
109559.02
109558.35
109557.68
109557.01
109556.35
109555.69
109555.04
109554.39
109553.75
109553.11
109552.47
109551.83
109551.2
109550.58
109549.96
109549.34
109548.72
109548.11
109547.5
109546.9
109546.3
109545.71
109545.11
109544.52
109543.94
109543.36
109542.78
109542.21
109541.63
109541.07
109540.5
109539.94
109539.39
109538.83
109538.28
109537.74
109537.19
109536.66
109536.12
109535.59
109535.06
109534.53
109534.01
109533.49
109532.97
109532.46
109531.95
109531.44
109530.94
109530.44
109529.94
109529.45
109528.95
109528.47
109527.98
109527.5
109527.02
109526.54
109526.07
109525.6
109525.13
109524.67
109524.21
109523.75
109523.3
109522.84
109522.39
109521.95
109521.5
109521.06
109520.62
109520.19
109519.75
109519.32
109518.9
109518.47
109518.05
109517.63
109517.22
109516.8
109516.39
109515.98
109515.58
109515.17
109514.77
109514.37
109513.98
109513.59
109513.2
109512.81
109512.42
109512.04
109511.66
109511.28
109510.91
109510.53
109510.17
109509.8
109509.43
109509.07
109508.71
109508.35
109508
109507.65
109507.3
109506.95
109506.6
109506.26
109505.92
109505.58
109505.25
109504.91
109504.58
109504.26
109503.93
109503.61
109503.29
109502.97
109502.65
109502.34
109502.03
109501.72
109501.41
109501.11
109500.81
109500.51
109500.21
109499.92
109499.63
109499.34
109499.05
109498.77
109498.48
109498.2
109497.93
109497.65
109497.38
109497.11
109496.84
109496.58
109496.31
109496.05
109495.79
109495.54
109495.28
109495.03
109494.78
109494.54
109494.29
109494.05
109493.81
109493.57
109493.34
109493.11
109492.88
109492.65
109492.42
109492.2
109491.98
109491.76
109491.54
109491.33
109491.12
109490.91
109490.7
109490.5
109490.29
109490.09
109489.89
109489.7
109489.5
109489.31
109489.12
109488.94
109488.75
109488.57
109488.39
109488.21
109488.04
109487.86
109487.69
109487.52
109487.35
109487.19
109487.03
109486.86
109486.71
109486.55
109486.39
109486.24
109486.09
109485.94
109485.8
109485.65
109485.51
109485.37
109485.23
109485.09
109484.96
109484.83
109484.7
109484.57
109484.44
109484.32
109484.19
109484.07
109483.95
109483.84
109483.72
109483.61
109483.49
109483.38
109483.28
109483.17
109483.06
109482.96
109482.86
109482.76
109482.66
109482.56
109482.47
109482.37
109482.28
109482.19
109482.1
109482.02
109481.93
109481.85
109481.76
109481.68
109481.6
109481.52
109481.45
109481.37
109481.3
109481.22
109481.15
109481.08
109481.01
109480.95
109480.88
109480.82
109480.75
109480.69
109480.63
109480.57
109480.51
109480.45
109480.4
109480.34
109480.29
109480.23
109480.18
109480.13
109480.08
109480.03
109479.99
109479.94
109479.89
109479.85
109479.8
109479.76
109479.72
109479.68
109479.64
109479.6
109479.56
109479.52
109479.49
109479.45
109479.41
109479.38
109479.35
109479.31
109479.28
109479.25
109479.22
109479.19
109479.16
109479.13
109479.11
109479.08
109479.05
109479.03
109479
109478.98
109478.95
109478.93
109478.91
109478.88
109478.86
109478.84
109478.82
109478.8
109478.78
109478.76
109478.74
109478.73
109478.71
109478.69
109478.68
109478.66
109478.64
109478.63
109478.61
109478.6
109478.58
109478.57
109478.56
109478.54
109478.53
109478.52
109478.51
109478.5
109478.49
109478.47
109478.46
109478.45
109478.44
109478.43
109478.43
109478.42
109478.41
109478.4
109478.39
109478.38
109478.38
109478.37
109478.36
109478.35
109478.35
109478.34
109478.34
109478.33
109478.32
109478.32
109478.31
109478.31
109478.3
109478.3
109478.29
109478.29
109478.28
109478.28
109478.28
109478.27
109478.27
109478.27
109478.26
109478.26
109478.26
109478.25
109478.25
109478.25
109478.24
109478.24
109478.24
109478.24
109478.24
109478.23
109478.23
109478.23
109478.23
109478.23
109478.23
109478.22
109478.22
109478.22
109478.22
109478.22
109478.22
109478.22
109478.22
109478.22
109478.21
109478.21
109478.21
109478.21
109478.21
109478.21
109478.21
109478.21
109478.21
109478.21
109478.21
109478.21
109478.21
109478.21
109478.21
109478.21
109478.21
109478.21
109478.21
109478.21
109478.21
109478.21
109478.21
109478.21
109478.21
109478.21
109478.21
109478.21
109478.21
109478.21
109478.21
109478.21
109478.21
109478.21
109478.21
109478.21
109478.21
109478.21
109478.21
109478.21
109478.21
109478.21
109478.21
109478.21
109478.21
109478.21
109478.21
109478.21
109478.21
109478.21
109478.21
109478.21
109478.21
109478.22
109478.22
109478.22
109478.22
109478.22
109478.22
109478.22
109478.22
109478.22
109478.22
109478.22
109478.22
109478.22
109478.22
109478.22
109478.22
109478.22
109478.22
109478.22
109478.22
109478.22
109478.22
109478.22
109478.22
109478.22
109478.22
109478.22
109478.22
109478.23
109478.23
109478.23
109478.23
109478.23
109478.23
109478.23
109478.23
109478.23
109478.23
109478.23
109478.23
109478.23
109478.23
109478.23
109478.23
109478.23
109478.23
109478.23
109478.23
109478.23
109478.23
109478.23
109478.23
109478.23
109478.23
109478.23
109478.23
109478.23
109478.24
109478.24
109478.24
109478.24
109478.24
109478.24
109478.24
109478.24
109478.24
109478.24
109478.24
109478.24
109478.24
109478.24
109478.24
109478.24
109478.24
109478.24
109478.24
109478.24
109478.24
109478.24
109478.24
109478.24
109478.24
109478.24
109478.24
109478.24
109478.24
109478.24
109478.24
109478.24
109478.24
109478.24
109478.24
109478.24
109478.24
109478.24
109478.24
109478.24
109478.24
109478.24
109478.24
109478.24
109478.24
109478.24
109478.24
109478.24
109478.24
109478.24
109478.24
109478.24
109478.24
109478.24
109478.24
109478.24
109478.24
109478.24
109478.24
109478.24
109478.24
109478.24
109478.24
109478.24
109478.24
109478.24
109478.24
109478.24
109478.24
109478.24
109478.24
109478.24
109478.24
109478.24
109478.24
109478.24
109478.24
109478.24
109478.24
109478.24
109478.24
109478.24
109478.24
109478.24
109478.24
109478.24
109478.24
109478.24
109478.24
109478.24
109478.24
109478.24
109478.24
109478.24
109478.24
109478.24
109478.24
109478.24
109478.24
109478.24
109478.24
109478.24
109478.24
109478.24
109478.24
109478.24
109478.24
109478.24
109478.24
109478.24
109478.24
109478.24
109478.24
109478.24
109478.24
109478.24
109478.24
109478.24
109478.24
109478.24
109478.24
109478.24
109478.24
109478.24
109478.24
109478.24
109478.24
109478.24
109478.24
109478.24
109478.24
109478.24
109478.24
109478.24
109478.24
109478.24
109478.24
109478.24
109478.24
109478.25
109478.25
109478.25
109478.25
109478.25
109478.25
109478.25
109478.25
109478.25
109478.25
109478.25
109478.25
109478.25
109478.25
109478.25
109478.25
109478.25
109478.25
109478.25
109478.25
109478.25
109478.25
109478.25
109478.25
109478.25
109478.25
109478.25
109478.25
109478.25
109478.26
109478.26
109478.26
109478.26
109478.26
109478.26
109478.26
109478.26
109478.26
109478.26
109478.26
109478.26
109478.26
109478.26
109478.26
109478.26
109478.26
109478.26
109478.26
109478.26
109478.26
109478.26
109478.26
109478.26
109478.26
109478.26
109478.26
109478.26
109478.26
109478.26
109478.26
109478.26
109478.26
109478.26
109478.26
109478.26
109478.26
109478.26
109478.26
109478.26
109478.27
109478.27
109478.27
109478.27
109478.27
109478.27
109478.27
109478.27
109478.27
109478.27
109478.27
109478.27
109478.27
109478.27
109478.27
109478.27
109478.27
109478.27
109478.27
109478.27
109478.27
109478.27
109478.27
109478.27
109478.27
109478.27
109478.27
109478.27
109478.27
109478.27
109478.27
109478.27
109478.27
109478.27
109478.27
109478.27
109478.27
109478.27
109478.27
109478.27
109478.27
109478.27
109478.27
109478.27
109478.27
109478.27
109478.27
109478.27
109478.27
109478.27
109478.27
109478.27
109478.27
109478.27
109478.27
109478.27
109478.27
109478.27
109478.27
109478.27
109478.27
109478.27
109478.27
109478.27
109478.27
109478.28
109478.28
109478.28
109478.28
109478.28
109478.28
109478.28
109478.28
109478.28
109478.28
109478.28
109478.28
109478.28
109478.28
109478.28
109478.28
109478.28
109478.28
109478.28
109478.28
109478.28
109478.28
109478.28
109478.28
109478.28
109478.28
109478.28
109478.28
109478.28
109478.28
109478.28
109478.28
109478.28
109478.28
109478.28
109478.28
109478.28
109478.28
109478.28
109478.28
109478.28
109478.28
109478.28
109478.28
109478.28
109478.28
109478.28
109478.28
109478.28
109478.28
109478.28
109478.29
109478.29
109478.29
109478.29
109478.29
109478.29
109478.29
109478.29
109478.29
109478.29
109478.29
109478.29
109478.29
109478.29
109478.29
109478.29
109478.29
109478.29
109478.29
109478.29
109478.29
109478.29
109478.29
109478.29
109478.29
109478.29
109478.29
109478.29
109478.29
109478.29
109478.29
109478.29
109478.29
109478.29
109478.29
109478.29
109478.29
109478.29
109478.29
109478.29
109478.29
109478.29
109478.29
109478.29
109478.29
109478.29
109478.29
109478.29
109478.29
109478.29
109478.29
109478.29
109478.29
109478.29
109478.29
109478.29
109478.29
109478.29
109478.29
109478.29
109478.29
109478.29
109478.29
109478.29
109478.29
109478.29
109478.29
109478.29
109478.29
109478.29
109478.29
109478.29
109478.29
109478.29
109478.29
109478.29
109478.29
109478.29
109478.29
109478.3
109478.3
109478.3
109478.3
109478.3
109478.3
109478.3
109478.3
109478.3
109478.3
109478.3
109478.3
109478.3
109478.3
109478.3
109478.3
109478.3
109478.3
109478.3
109478.3
109478.3
109478.3
109478.3
109478.3
109478.3
109478.3
109478.3
109478.3
109478.3
109478.3
109478.3
109478.3
109478.3
109478.3
109478.3
109478.3
109478.3
109478.3
109478.3
109478.3
109478.3
109478.3
109478.3
109478.3
109478.3
109478.3
109478.3
109478.3
109478.3
109478.3
109478.3
109478.3
109478.3
109478.3
109478.3
109478.3
109478.3
109478.3
109478.3
109478.3
109478.3
109478.3
109478.3
109478.3
109478.3
109478.3
109478.3
109478.3
109478.3
109478.3
109478.3
109478.3
109478.3
109478.3
109478.3
109478.3
109478.3
109478.3
109478.3
109478.3
109478.3
109478.3
109478.3
109478.3
109478.3
109478.3
109478.31
109478.31
109478.31
109478.31
109478.31
109478.31
109478.31
109478.31
109478.31
109478.31
109478.31
109478.31
109478.31
109478.31
109478.31
109478.31
109478.31
109478.31
109478.31
109478.31
109478.31
109478.31
109478.31
109478.31
109478.31
109478.31
109478.31
109478.31
109478.31
109478.31
109478.31
109478.31
109478.31
109478.31
109478.31
109478.31
109478.31
109478.31
109478.31
109478.31
109478.31
109478.32
109478.32
109478.32
109478.32
109478.32
109478.32
109478.32
109478.32
109478.32
109478.32
109478.32
109478.32
109478.32
109478.32
109478.32
109478.32
109478.32
109478.32
109478.32
109478.32
109478.32
109478.32
109478.32
109478.32
109478.32
109478.32
109478.32
109478.32
109478.32
109478.32
109478.32
109478.32
109478.32
109478.32
109478.32
109478.32
109478.32
109478.32
109478.32
109478.32
109478.32
109478.32
109478.32
109478.32
109478.32
109478.32
109478.32
109478.32
109478.32
109478.32
109478.32
109478.32
109478.32
109478.32
109478.32
109478.32
109478.32
109478.32
109478.32
109478.32
109478.32
109478.32
109478.32
109478.32
109478.32
109478.32
109478.32
109478.32
109478.32
109478.32
109478.32
109478.32
109478.32
109478.32
109478.32
109478.32
109478.32
109478.32
109478.32
109478.32
109478.32
109478.32
109478.32
109478.32
109478.32
109478.32
109478.32
109478.32
109478.32
109478.32
109478.32
109478.32
109478.32
109478.32
109478.32
109478.32
109478.32
109478.32
109478.32
109478.32
109478.32
109478.32
109478.32
109478.32
109478.32
109478.32
109478.32
109478.32
109478.32
109478.32
109478.32
109478.32
109478.32
109478.32
109478.32
109478.32
109478.32
109478.32
109478.32
109478.32
109478.32
109478.32
109478.32
109478.32
109478.32
109478.32
109478.32
109478.32
109478.32
109478.32
109478.32
109478.32
109478.32
109478.32
109478.32
109478.32
109478.32
109478.32
109478.32
109478.32
109478.32
109478.32
109478.32
109478.32
109478.32
109478.32
109478.32
109478.32
109478.33
109478.33
109478.33
109478.33
109478.33
109478.33
109478.33
109478.33
109478.33
109478.33
109478.33
109478.33
109478.33
109478.33
109478.33
109478.33
109478.33
109478.33
109478.33
109478.33
109478.33
109478.33
109478.33
109478.33
109478.33
109478.33
109478.33
109478.33
109478.33
109478.33
109478.33
109478.33
109478.33
109478.33
109478.33
109478.33
109478.33
109478.33
109478.33
109478.33
109478.33
109478.33
109478.33
109478.33
109478.33
109478.33
109478.33
109478.33
109478.33
109478.33
109478.33
109478.33
109478.33
109478.33
109478.33
109478.33
109478.33
109478.33
109478.33
109478.33
109478.33
109478.33
109478.33
109478.33
109478.33
109478.33
109478.33
109478.33
109478.33
109478.33
109478.33
109478.33
109478.33
109478.33
109478.33
109478.33
109478.33
109478.33
109478.33
109478.33
109478.33
109478.33
109478.33
109478.33
109478.33
109478.33
109478.33
109478.33
109478.33
109478.33
109478.33
109478.33
109478.33
109478.33
109478.33
109478.33
109478.33
109478.33
109478.33
109478.33
109478.33
109478.33
109478.33
109478.33
109478.33
109478.33
109478.33
109478.33
109478.33
109478.33
109478.33
109478.33
109478.33
109478.33
109478.33
109478.33
109478.33
109478.33
109478.33
109478.33
109478.33
109478.33
109478.33
109478.33
109478.34
109478.34
109478.34
109478.34
109478.34
109478.34
109478.34
109478.34
109478.34
109478.34
109478.34
109478.34
109478.34
109478.34
109478.34
109478.34
109478.34
109478.34
109478.34
109478.34
109478.34
109478.34
109478.34
109478.34
109478.34
109478.34
109478.34
109478.34
109478.34
109478.34
109478.34
109478.34
109478.34
109478.34
109478.34
109478.34
109478.34
109478.34
109478.34
109478.34
109478.34
109478.34
109478.34
109478.34
109478.34
109478.34
109478.34
109478.34
109478.34
109478.34
109478.34
109478.34
109478.34
109478.34
109478.34
109478.34
109478.34
109478.34
109478.34
109478.34
109478.34
109478.34
109478.34
109478.34
109478.34
109478.34
109478.34
109478.34
109478.34
109478.34
109478.34
109478.34
109478.34
109478.34
109478.34
109478.34
109478.34
109478.34
109478.34
109478.34
109478.34
109478.34
109478.34
109478.34
109478.34
109478.34
109478.34
109478.34
109478.34
109478.34
109478.34
109478.34
109478.34
109478.34
109478.34
109478.34
109478.34
109478.34
109478.34
109478.34
109478.34
109478.34
109478.34
109478.34
109478.34
109478.34
109478.34
109478.34
109478.34
109478.34
109478.34
109478.34
109478.34
109478.34
109478.34
109478.34
109478.34
109478.34
109478.34
109478.34
109478.34
109478.34
109478.34
109478.34
109478.34
109478.34
109478.34
109478.34
109478.35
109478.35
109478.35
109478.35
109478.35
109478.35
109478.35
109478.35
109478.35
109478.35
109478.35
109478.35
109478.35
109478.35
109478.35
109478.35
109478.35
109478.35
109478.35
109478.35
109478.35
109478.35
109478.35
109478.35
109478.35
109478.35
109478.35
109478.35
109478.35
109478.35
109478.35
109478.35
109478.35
109478.35
109478.35
109478.35
109478.35
109478.35
109478.35
109478.35
109478.35
109478.35
109478.35
109478.35
109478.35
109478.35
109478.35
109478.35
109478.35
109478.35
109478.35
109478.35
109478.35
109478.35
109478.35
109478.35
109478.35
109478.35
109478.35
109478.35
109478.35
109478.35
109478.35
109478.35
109478.35
109478.35
109478.35
109478.35
109478.35
109478.35
109478.35
109478.35
109478.35
109478.35
109478.35
109478.35
109478.35
109478.35
109478.35
109478.35
109478.35
109478.35
109478.35
109478.35
109478.35
109478.35
109478.35
109478.35
109478.35
109478.35
109478.35
109478.35
109478.35
109478.35
109478.35
109478.35
109478.35
109478.35
109478.35
109478.35
109478.35
109478.35
109478.35
109478.35
109478.35
109478.35
109478.35
109478.35
109478.35
109478.35
109478.35
109478.35
109478.35
109478.35
109478.35
109478.35
109478.35
109478.35
109478.35
109478.35
109478.35
109478.35
109478.35
109478.35
109478.35
109478.35
109478.35
109478.35
109478.35
109478.35
109478.35
109478.35
109478.35
109478.35
109478.35
109478.35
109478.35
109478.35
109478.35
109478.35
109478.35
109478.35
109478.35
109478.35
109478.35
109478.35
109478.35
109478.35
109478.35
109478.35
109478.35
109478.35
109478.35
109478.35
109478.35
109478.35
109478.35
109478.35
109478.35
109478.35
109478.35
109478.35
109478.35
109478.35
109478.35
109478.35
109478.35
109478.35
109478.35
109478.35
109478.35
109478.35
109478.35
109478.35
109478.35
109478.35
109478.35
109478.35
109478.35
109478.35
109478.35
109478.35
109478.35
109478.35
109478.35
109478.35
109478.35
109478.35
109478.35
109478.35
109478.35
109478.35
109478.35
109478.35
109478.35
109478.35
109478.35
109478.35
109478.35
109478.35
109478.35
109478.35
109478.35
109478.35
109478.35
109478.35
109478.35
109478.35
109478.35
109478.35
109478.36
109478.36
109478.36
109478.36
109478.36
109478.36
109478.36
109478.36
109478.36
109478.36
109478.36
109478.36
109478.36
109478.36
109478.36
109478.36
109478.36
109478.36
109478.36
109478.36
109478.36
109478.36
109478.36
109478.36
109478.36
109478.36
109478.36
109478.36
109478.36
109478.36
109478.36
109478.36
109478.36
109478.36
109478.36
109478.36
109478.36
109478.36
109478.36
109478.36
109478.36
109478.36
109478.36
109478.36
109478.36
109478.36
109478.36
109478.36
109478.36
109478.36
109478.36
109478.36
109478.36
109478.36
109478.36
109478.36
109478.36
109478.36
109478.36
109478.36
109478.36
109478.36
109478.36
109478.36
109478.36
109478.36
109478.36
109478.36
109478.36
109478.36
109478.36
109478.36
109478.36
109478.36
109478.36
109478.36
109478.36
109478.36
109478.36
109478.36
109478.36
109478.36
109478.36
109478.36
109478.36
109478.36
109478.36
109478.36
109478.36
109478.36
109478.36
109478.36
109478.36
109478.36
109478.36
109478.36
109478.36
109478.36
109478.36
109478.36
109478.36
109478.36
109478.36
109478.36
109478.36
109478.36
109478.36
109478.36
109478.36
109478.36
109478.36
109478.36
109478.36
109478.36
109478.36
109478.36
109478.36
109478.36
109478.36
109478.36
109478.36
109478.36
109478.36
109478.36
109478.36
109478.36
109478.36
109478.36
109478.36
109478.36
109478.36
109478.36
109478.36
109478.36
109478.36
109478.36
109478.36
109478.36
109478.36
109478.36
109478.36
109478.36
109478.36
109478.36
109478.36
109478.36
109478.36
109478.36
109478.36
109478.36
109478.36
109478.36
109478.36
109478.36
109478.36
109478.36
109478.36
109478.36
109478.36
109478.36
109478.36
109478.36
109478.36
109478.36
109478.36
109478.36
109478.36
109478.36
109478.36
109478.36
109478.36
109478.36
109478.36
109478.36
109478.36
109478.36
109478.36
109478.36
109478.36
109478.36
109478.36
109478.36
109478.36
109478.36
109478.36
109478.36
109478.36
109478.36
109478.36
109478.36
109478.36
109478.36
109478.36
109478.36
109478.36
109478.36
109478.36
109478.36
109478.36
109478.36
109478.36
109478.36
109478.36
109478.36
109478.36
109478.36
109478.36
109478.36
109478.36
109478.36
109478.36
109478.36
109478.36
109478.36
109478.36
109478.36
109478.36
109478.36
109478.36
109478.36
109478.36
109478.36
109478.36
109478.36
109478.36
109478.36
109478.36
109478.36
109478.36
109478.36
109478.36
109478.36
109478.36
109478.36
109478.36
109478.36
109478.36
109478.36
109478.37
109478.37
109478.37
109478.37
109478.37
109478.37
109478.37
109478.37
109478.37
109478.37
109478.37
109478.37
109478.37
109478.37
109478.37
109478.37
109478.37
109478.37
109478.37
109478.37
109478.37
109478.37
109478.37
109478.37
109478.37
109478.37
109478.37
109478.37
109478.37
109478.37
109478.37
109478.37
109478.37
109478.37
109478.37
109478.37
109478.37
109478.37
109478.37
109478.37
109478.37
109478.37
109478.37
109478.37
109478.37
109478.37
109478.37
109478.37
109478.37
109478.37
109478.37
109478.37
109478.37
109478.37
109478.37
109478.37
109478.37
109478.37
109478.37
109478.37
109478.37
109478.37
109478.37
109478.37
109478.37
109478.37
109478.37
109478.37
109478.37
109478.37
109478.37
109478.37
109478.37
109478.37
109478.37
109478.37
109478.37
109478.37
109478.37
109478.37
109478.37
109478.37
109478.37
109478.37
109478.37
109478.37
109478.37
109478.37
109478.37
109478.37
109478.37
109478.37
109478.37
109478.37
109478.37
109478.37
109478.37
109478.37
109478.37
109478.37
109478.37
109478.37
109478.37
109478.37
109478.37
109478.37
109478.37
109478.37
109478.37
109478.37
109478.37
109478.37
109478.37
109478.37
109478.37
109478.37
109478.37
109478.37
109478.37
109478.37
109478.37
109478.37
109478.37
109478.37
109478.37
109478.37
109478.37
109478.37
109478.37
109478.37
109478.37
109478.37
109478.37
109478.37
109478.37
109478.37
109478.37
109478.37
109478.37
109478.37
109478.37
109478.37
109478.37
109478.37
109478.37
109478.37
109478.37
109478.37
109478.37
109478.37
109478.37
109478.37
109478.37
109478.37
109478.37
109478.37
109478.37
109478.37
109478.37
109478.37
109478.37
109478.37
109478.37
109478.37
109478.37
109478.37
109478.37
109478.37
109478.37
109478.37
109478.37
109478.37
109478.37
109478.37
109478.37
109478.36
109478.36
109478.36
109478.36
109478.36
109478.36
109478.36
109478.36
109478.36
109478.36
109478.36
109478.36
109478.36
109478.36
109478.36
109478.36
109478.36
109478.36
109478.36
109478.36
109478.36
109478.36
109478.36
109478.36
109478.36
109478.36
109478.36
109478.36
109478.36
109478.36
109478.36
109478.36
109478.36
109478.36
109478.36
109478.36
109478.36
109478.36
109478.36
109478.36
109478.36
109478.36
109478.36
109478.36
109478.36
109478.36
109478.36
109478.36
109478.36
109478.36
109478.36
109478.36
109478.36
109478.36
109478.36
109478.36
109478.36
109478.36
109478.36
109478.36
109478.36
109478.36
109478.36
109478.36
109478.36
109478.36
109478.36
109478.36
109478.36
109478.36
109478.36
109478.36
109478.36
109478.36
109478.36
109478.36
109478.36
109478.36
109478.36
109478.36
109478.36
109478.36
109478.36
109478.36
109478.36
109478.36
109478.36
109478.36
109478.36
109478.37
109478.37
109478.37
109478.37
109478.37
109478.36
109478.36
109478.36
109478.35
109478.35
109478.34
109478.34
109478.34
109478.35
109478.37
109478.42
109478.32
109478.36
109478.37
109478.37
109478.37
109478.37
109478.37
109478.37
109478.37
109478.37
109478.36
109478.36
109478.36
109478.36
109478.36
109478.36
109478.36
109478.36
109478.36
109478.36
109478.36
109478.36
109478.36
109478.36
109478.36
109478.36
109478.36
109478.36
109478.36
109478.36
109478.36
109478.36
109478.36
109478.36
109478.36
109478.36
109478.36
109478.36
109478.36
109478.36
109478.36
109478.36
109478.36
109478.36
109478.36
109478.36
109478.36
109478.36
109478.36
109478.36
109478.36
109478.36
109478.36
109478.36
109478.36
109478.36
109478.36
109478.36
109478.36
109478.36
109478.36
109478.36
109478.36
109478.36
109478.36
109478.36
109478.36
109478.36
109478.36
109478.36
109478.36
109478.36
109478.36
109478.36
109478.36
109478.36
109478.36
109478.36
109478.36
109478.36
109478.36
109478.36
109478.36
109478.36
109478.36
109478.36
109478.37
109478.37
109478.37
109478.37
109478.37
109478.37
109478.37
109478.37
109478.37
109478.37
109478.37
109478.37
109478.37
109478.37
109478.37
109478.37
109478.37
109478.37
109478.37
109478.37
109478.37
109478.37
109478.37
109478.37
109478.37
109478.37
109478.37
109478.37
109478.37
109478.37
109478.37
109478.37
109478.37
109478.37
109478.37
109478.37
109478.37
109478.37
109478.37
109478.37
109478.37
109478.37
109478.37
109478.37
109478.37
109478.37
109478.37
109478.37
109478.37
109478.37
109478.37
109478.37
109478.37
109478.37
109478.37
109478.37
109478.37
109478.37
109478.37
109478.37
109478.37
109478.37
109478.37
109478.37
109478.37
109478.37
109478.37
109478.37
109478.37
109478.37
109478.37
109478.37
109478.37
109478.37
109478.37
109478.37
109478.37
109478.37
109478.37
109478.37
109478.37
109478.37
109478.37
109478.37
109478.37
109478.37
109478.37
109478.37
109478.37
109478.37
109478.37
109478.37
109478.37
109478.37
109478.37
109478.37
109478.37
109478.37
109478.37
109478.37
109478.37
109478.37
109478.37
109478.37
109478.37
109478.37
109478.37
109478.37
109478.37
109478.37
109478.37
109478.37
109478.37
109478.37
109478.37
109478.37
109478.37
109478.37
109478.37
109478.37
109478.37
109478.37
109478.37
109478.37
109478.37
109478.37
109478.37
109478.37
109478.37
109478.37
109478.37
109478.37
109478.37
109478.37
109478.37
109478.37
109478.37
109478.37
109478.37
109478.37
109478.37
109478.37
109478.37
109478.37
109478.37
109478.37
109478.37
109478.37
109478.37
109478.37
109478.37
109478.37
109478.37
109478.37
109478.37
109478.37
109478.37
109478.37
109478.37
109478.37
109478.37
109478.37
109478.37
109478.37
109478.36
109478.36
109478.36
109478.36
109478.36
109478.36
109478.36
109478.36
109478.36
109478.36