/*--------------------------------*- C++ -*----------------------------------*\
  =========                 |
  \\      /  F ield         | OpenFOAM: The Open Source CFD Toolbox
   \\    /   O peration     | Website:  https://openfoam.org
    \\  /    A nd           | Version:  7
     \\/     M anipulation  |
\*---------------------------------------------------------------------------*/
FoamFile
{
    version     2.0;
    format      ascii;
    class       volScalarField;
    location    "0.00297";
    object      p;
}
// * * * * * * * * * * * * * * * * * * * * * * * * * * * * * * * * * * * * * //

dimensions      [1 -1 -2 0 0 0 0];

internalField   nonuniform List<scalar> 
5000
(
66188.281
66191.962
66195.859
66199.763
66203.665
66207.559
66211.448
66215.333
66219.213
66223.09
66226.964
66230.835
66234.704
66238.569
66242.432
66246.292
66250.148
66254.002
66257.853
66261.701
66265.546
66269.388
66273.227
66277.062
66280.895
66284.725
66288.551
66292.375
66296.196
66300.013
66303.828
66307.64
66311.449
66315.256
66319.059
66322.86
66326.658
66330.454
66334.247
66338.038
66341.826
66345.611
66349.394
66353.176
66356.954
66360.731
66364.505
66368.278
66372.048
66375.816
66379.583
66383.347
66387.11
66390.871
66394.63
66398.387
66402.143
66405.897
66409.65
66413.401
66417.151
66420.899
66424.647
66428.392
66432.137
66435.88
66439.622
66443.364
66447.104
66450.843
66454.581
66458.318
66462.054
66465.789
66469.524
66473.258
66476.991
66480.723
66484.455
66488.186
66491.917
66495.647
66499.376
66503.105
66506.834
66510.562
66514.289
66518.017
66521.744
66525.471
66529.197
66532.924
66536.65
66540.376
66544.101
66547.827
66551.553
66555.278
66559.003
66562.729
66566.454
66570.179
66573.904
66577.629
66581.354
66585.079
66588.804
66592.529
66596.254
66599.979
66603.704
66607.429
66611.154
66614.879
66618.605
66622.33
66626.055
66629.78
66633.505
66637.231
66640.956
66644.681
66648.407
66652.132
66655.857
66659.583
66663.308
66667.033
66670.758
66674.483
66678.208
66681.933
66685.658
66689.382
66693.107
66696.831
66700.555
66704.279
66708.003
66711.727
66715.45
66719.173
66722.895
66726.618
66730.339
66734.061
66737.782
66741.503
66745.223
66748.943
66752.662
66756.381
66760.099
66763.817
66767.534
66771.25
66774.966
66778.681
66782.395
66786.109
66789.821
66793.533
66797.244
66800.954
66804.664
66808.372
66812.079
66815.786
66819.491
66823.196
66826.899
66830.601
66834.302
66838.002
66841.701
66845.398
66849.094
66852.789
66856.483
66860.175
66863.866
66867.556
66871.244
66874.931
66878.616
66882.3
66885.982
66889.663
66893.342
66897.02
66900.696
66904.371
66908.044
66911.715
66915.385
66919.053
66922.719
66926.383
66930.046
66933.707
66937.366
66941.024
66944.679
66948.333
66951.985
66955.635
66959.283
66962.929
66966.574
66970.216
66973.857
66977.495
66981.132
66984.767
66988.399
66992.03
66995.659
66999.285
67002.91
67006.533
67010.153
67013.772
67017.388
67021.002
67024.615
67028.225
67031.833
67035.439
67039.043
67042.645
67046.244
67049.842
67053.437
67057.03
67060.621
67064.21
67067.797
67071.382
67074.964
67078.545
67082.123
67085.699
67089.272
67092.844
67096.413
67099.98
67103.545
67107.108
67110.668
67114.227
67117.783
67121.337
67124.888
67128.438
67131.985
67135.53
67139.073
67142.614
67146.152
67149.688
67153.222
67156.754
67160.283
67163.81
67167.335
67170.858
67174.378
67177.897
67181.412
67184.926
67188.438
67191.947
67195.454
67198.959
67202.461
67205.962
67209.46
67212.956
67216.449
67219.941
67223.43
67226.917
67230.401
67233.884
67237.364
67240.841
67244.317
67247.79
67251.262
67254.73
67258.197
67261.661
67265.123
67268.583
67272.041
67275.496
67278.949
67282.4
67285.849
67289.295
67292.739
67296.181
67299.621
67303.058
67306.494
67309.927
67313.357
67316.786
67320.212
67323.636
67327.057
67330.477
67333.894
67337.309
67340.722
67344.132
67347.54
67350.946
67354.35
67357.751
67361.151
67364.548
67367.942
67371.335
67374.725
67378.113
67381.499
67384.883
67388.264
67391.643
67395.02
67398.394
67401.767
67405.137
67408.505
67411.87
67415.234
67418.595
67421.954
67425.31
67428.665
67432.017
67435.367
67438.715
67442.06
67445.403
67448.744
67452.083
67455.42
67458.754
67462.086
67465.416
67468.744
67472.069
67475.392
67478.713
67482.032
67485.349
67488.663
67491.975
67495.285
67498.592
67501.898
67505.201
67508.502
67511.8
67515.097
67518.391
67521.683
67524.973
67528.261
67531.546
67534.829
67538.11
67541.389
67544.665
67547.94
67551.212
67554.481
67557.749
67561.014
67564.278
67567.539
67570.798
67574.054
67577.308
67580.561
67583.811
67587.058
67590.304
67593.547
67596.788
67600.027
67603.264
67606.498
67609.73
67612.96
67616.188
67619.414
67622.637
67625.859
67629.078
67632.295
67635.509
67638.722
67641.932
67645.14
67648.346
67651.549
67654.751
67657.95
67661.147
67664.342
67667.535
67670.725
67673.913
67677.099
67680.283
67683.465
67686.644
67689.822
67692.997
67696.17
67699.341
67702.509
67705.675
67708.839
67712.002
67715.161
67718.319
67721.474
67724.628
67727.779
67730.927
67734.074
67737.219
67740.361
67743.501
67746.639
67749.775
67752.908
67756.04
67759.169
67762.296
67765.421
67768.544
67771.664
67774.783
67777.899
67781.013
67784.125
67787.234
67790.342
67793.447
67796.55
67799.651
67802.75
67805.847
67808.941
67812.034
67815.124
67818.212
67821.298
67824.381
67827.463
67830.542
67833.619
67836.694
67839.767
67842.838
67845.906
67848.973
67852.037
67855.099
67858.159
67861.216
67864.272
67867.325
67870.376
67873.425
67876.472
67879.517
67882.56
67885.6
67888.638
67891.675
67894.709
67897.74
67900.77
67903.798
67906.823
67909.846
67912.867
67915.886
67918.903
67921.917
67924.93
67927.94
67930.948
67933.954
67936.958
67939.96
67942.96
67945.957
67948.952
67951.946
67954.937
67957.925
67960.912
67963.897
67966.879
67969.859
67972.838
67975.813
67978.787
67981.759
67984.728
67987.696
67990.661
67993.624
67996.585
67999.543
68002.5
68005.454
68008.406
68011.356
68014.304
68017.249
68020.193
68023.134
68026.073
68029.01
68031.945
68034.878
68037.809
68040.737
68043.664
68046.589
68049.512
68052.432
68055.351
68058.268
68061.183
68064.097
68067.008
68069.918
68072.826
68075.732
68078.637
68081.539
68084.441
68087.34
68090.238
68093.134
68096.028
68098.921
68101.813
68104.702
68107.59
68110.476
68113.361
68116.244
68119.125
68122.004
68124.882
68127.758
68130.632
68133.504
68136.375
68139.244
68142.111
68144.976
68147.839
68150.7
68153.559
68156.417
68159.272
68162.126
68164.977
68167.827
68170.675
68173.52
68176.364
68179.205
68182.045
68184.883
68187.718
68190.552
68193.383
68196.213
68199.04
68201.865
68204.689
68207.51
68210.329
68213.147
68215.962
68218.775
68221.586
68224.395
68227.202
68230.008
68232.811
68235.612
68238.411
68241.208
68244.003
68246.795
68249.586
68252.375
68255.162
68257.947
68260.73
68263.511
68266.289
68269.066
68271.841
68274.614
68277.385
68280.153
68282.92
68285.685
68288.448
68291.208
68293.967
68296.724
68299.479
68302.232
68304.982
68307.731
68310.478
68313.223
68315.966
68318.706
68321.445
68324.182
68326.917
68329.65
68332.381
68335.11
68337.837
68340.562
68343.285
68346.006
68348.725
68351.442
68354.157
68356.87
68359.581
68362.29
68364.998
68367.703
68370.406
68373.107
68375.807
68378.504
68381.2
68383.893
68386.584
68389.274
68391.961
68394.647
68397.331
68400.012
68402.692
68405.37
68408.045
68410.719
68413.391
68416.061
68418.729
68421.395
68424.059
68426.721
68429.381
68432.039
68434.696
68437.35
68440.003
68442.654
68445.302
68447.949
68450.594
68453.238
68455.879
68458.519
68461.157
68463.793
68466.427
68469.06
68471.691
68474.32
68476.947
68479.573
68482.197
68484.819
68487.44
68490.059
68492.677
68495.293
68497.907
68500.52
68503.131
68505.74
68508.348
68510.954
68513.559
68516.162
68518.764
68521.364
68523.962
68526.559
68529.154
68531.748
68534.34
68536.93
68539.519
68542.106
68544.691
68547.275
68549.857
68552.437
68555.016
68557.592
68560.167
68562.741
68565.312
68567.882
68570.45
68573.017
68575.581
68578.144
68580.705
68583.264
68585.821
68588.376
68590.93
68593.481
68596.031
68598.579
68601.125
68603.669
68606.211
68608.752
68611.29
68613.827
68616.362
68618.895
68621.426
68623.955
68626.482
68629.008
68631.531
68634.053
68636.572
68639.09
68641.606
68644.12
68646.632
68649.142
68651.65
68654.157
68656.661
68659.164
68661.664
68664.163
68666.66
68669.155
68671.648
68674.139
68676.629
68679.116
68681.602
68684.085
68686.567
68689.047
68691.524
68694
68696.475
68698.947
68701.417
68703.885
68706.352
68708.816
68711.279
68713.74
68716.199
68718.655
68721.111
68723.564
68726.015
68728.464
68730.912
68733.357
68735.801
68738.242
68740.682
68743.12
68745.556
68747.99
68750.422
68752.853
68755.281
68757.707
68760.132
68762.554
68764.975
68767.394
68769.811
68772.226
68774.639
68777.05
68779.459
68781.867
68784.272
68786.675
68789.077
68791.477
68793.874
68796.27
68798.664
68801.056
68803.446
68805.834
68808.22
68810.604
68812.987
68815.367
68817.745
68820.122
68822.497
68824.87
68827.241
68829.61
68831.977
68834.342
68836.704
68839.065
68841.424
68843.781
68846.136
68848.49
68850.842
68853.192
68855.541
68857.887
68860.231
68862.573
68864.914
68867.252
68869.588
68871.923
68874.255
68876.586
68878.916
68881.244
68883.57
68885.895
68888.217
68890.539
68892.858
68895.176
68897.492
68899.806
68902.118
68904.428
68906.737
68909.043
68911.348
68913.652
68915.953
68918.254
68920.552
68922.85
68925.146
68927.44
68929.733
68932.024
68934.314
68936.602
68938.888
68941.173
68943.457
68945.738
68948.018
68950.296
68952.573
68954.847
68957.12
68959.391
68961.66
68963.928
68966.193
68968.457
68970.719
68972.979
68975.237
68977.493
68979.747
68982
68984.251
68986.499
68988.746
68990.991
68993.235
68995.476
68997.715
68999.953
69002.188
69004.422
69006.653
69008.883
69011.111
69013.337
69015.561
69017.784
69020.004
69022.223
69024.44
69026.655
69028.868
69031.079
69033.289
69035.496
69037.702
69039.905
69042.106
69044.305
69046.502
69048.698
69050.891
69053.083
69055.272
69057.46
69059.646
69061.83
69064.011
69066.19
69068.368
69070.543
69072.717
69074.889
69077.059
69079.227
69081.394
69083.558
69085.72
69087.88
69090.038
69092.194
69094.349
69096.501
69098.652
69100.801
69102.948
69105.092
69107.235
69109.376
69111.515
69113.653
69115.788
69117.922
69120.054
69122.183
69124.311
69126.436
69128.558
69130.679
69132.798
69134.915
69137.03
69139.143
69141.255
69143.365
69145.473
69147.578
69149.682
69151.784
69153.883
69155.981
69158.077
69160.171
69162.263
69164.353
69166.441
69168.527
69170.611
69172.693
69174.773
69176.851
69178.927
69181.002
69183.075
69185.145
69187.214
69189.281
69191.345
69193.407
69195.468
69197.527
69199.584
69201.639
69203.692
69205.744
69207.793
69209.84
69211.886
69213.929
69215.97
69218.01
69220.048
69222.083
69224.118
69226.15
69228.181
69230.21
69232.237
69234.262
69236.286
69238.307
69240.327
69242.345
69244.362
69246.376
69248.389
69250.4
69252.409
69254.416
69256.422
69258.426
69260.428
69262.429
69264.428
69266.425
69268.421
69270.415
69272.407
69274.397
69276.385
69278.371
69280.356
69282.339
69284.321
69286.301
69288.279
69290.256
69292.232
69294.205
69296.177
69298.146
69300.114
69302.08
69304.044
69306.006
69307.966
69309.925
69311.882
69313.837
69315.791
69317.744
69319.694
69321.642
69323.588
69325.532
69327.474
69329.414
69331.352
69333.289
69335.224
69337.157
69339.088
69341.018
69342.945
69344.87
69346.794
69348.715
69350.635
69352.553
69354.469
69356.384
69358.298
69360.209
69362.119
69364.026
69365.93
69367.833
69369.733
69371.631
69373.528
69375.423
69377.316
69379.207
69381.096
69382.983
69384.868
69386.751
69388.632
69390.511
69392.388
69394.264
69396.138
69398.01
69399.881
69401.749
69403.616
69405.481
69407.344
69409.205
69411.063
69412.919
69414.773
69416.625
69418.474
69420.322
69422.169
69424.013
69425.856
69427.697
69429.536
69431.374
69433.209
69435.043
69436.874
69438.703
69440.53
69442.355
69444.178
69445.999
69447.819
69449.636
69451.452
69453.266
69455.079
69456.889
69458.698
69460.505
69462.309
69464.112
69465.913
69467.712
69469.509
69471.303
69473.096
69474.887
69476.675
69478.462
69480.247
69482.029
69483.81
69485.588
69487.365
69489.14
69490.913
69492.684
69494.453
69496.221
69497.986
69499.749
69501.51
69503.269
69505.027
69506.783
69508.537
69510.289
69512.039
69513.788
69515.535
69517.279
69519.022
69520.763
69522.502
69524.238
69525.973
69527.707
69529.438
69531.168
69532.897
69534.623
69536.348
69538.071
69539.792
69541.511
69543.228
69544.943
69546.656
69548.367
69550.076
69551.784
69553.49
69555.195
69556.898
69558.6
69560.301
69561.999
69563.696
69565.39
69567.083
69568.774
69570.463
69572.15
69573.836
69575.519
69577.201
69578.882
69580.561
69582.239
69583.916
69585.59
69587.263
69588.933
69590.601
69592.267
69593.932
69595.595
69597.256
69598.916
69600.575
69602.232
69603.887
69605.541
69607.193
69608.843
69610.491
69612.137
69613.781
69615.423
69617.063
69618.702
69620.339
69621.975
69623.609
69625.242
69626.872
69628.501
69630.128
69631.752
69633.375
69634.996
69636.616
69638.233
69639.848
69641.462
69643.073
69644.683
69646.292
69647.898
69649.503
69651.106
69652.707
69654.306
69655.903
69657.499
69659.092
69660.684
69662.273
69663.861
69665.446
69667.03
69668.612
69670.193
69671.771
69673.348
69674.923
69676.496
69678.067
69679.636
69681.203
69682.768
69684.332
69685.893
69687.453
69689.011
69690.567
69692.122
69693.674
69695.225
69696.773
69698.32
69699.865
69701.408
69702.949
69704.488
69706.025
69707.561
69709.094
69710.626
69712.156
69713.684
69715.21
69716.734
69718.257
69719.777
69721.296
69722.813
69724.328
69725.842
69727.353
69728.863
69730.371
69731.877
69733.381
69734.883
69736.384
69737.882
69739.379
69740.873
69742.366
69743.857
69745.347
69746.834
69748.32
69749.804
69751.286
69752.767
69754.245
69755.722
69757.197
69758.67
69760.142
69761.611
69763.079
69764.545
69766.009
69767.471
69768.931
69770.39
69771.847
69773.302
69774.756
69776.207
69777.657
69779.105
69780.552
69781.997
69783.44
69784.881
69786.32
69787.758
69789.194
69790.628
69792.061
69793.492
69794.921
69796.349
69797.775
69799.199
69800.621
69802.042
69803.461
69804.879
69806.294
69807.709
69809.121
69810.532
69811.942
69813.35
69814.756
69816.161
69817.564
69818.965
69820.365
69821.763
69823.16
69824.556
69825.949
69827.342
69828.732
69830.121
69831.509
69832.895
69834.28
69835.663
69837.045
69838.425
69839.804
69841.181
69842.557
69843.932
69845.304
69846.676
69848.046
69849.414
69850.781
69852.146
69853.51
69854.872
69856.233
69857.592
69858.95
69860.306
69861.661
69863.015
69864.366
69865.717
69867.066
69868.413
69869.759
69871.104
69872.447
69873.788
69875.128
69876.466
69877.803
69879.138
69880.472
69881.804
69883.135
69884.464
69885.792
69887.118
69888.442
69889.765
69891.087
69892.407
69893.725
69895.042
69896.357
69897.67
69898.982
69900.292
69901.601
69902.908
69904.213
69905.517
69906.819
69908.12
69909.419
69910.717
69912.012
69913.307
69914.599
69915.89
69917.179
69918.467
69919.753
69921.037
69922.319
69923.6
69924.879
69926.157
69927.432
69928.706
69929.979
69931.249
69932.518
69933.785
69935.051
69936.314
69937.576
69938.837
69940.095
69941.352
69942.607
69943.861
69945.113
69946.363
69947.611
69948.857
69950.102
69951.345
69952.586
69953.826
69955.064
69956.3
69957.534
69958.767
69959.997
69961.226
69962.453
69963.678
69964.901
69966.123
69967.343
69968.561
69969.778
69970.992
69972.205
69973.416
69974.626
69975.833
69977.039
69978.243
69979.445
69980.644
69981.842
69983.038
69984.233
69985.425
69986.616
69987.805
69988.992
69990.178
69991.361
69992.543
69993.723
69994.901
69996.077
69997.251
69998.423
69999.594
70000.762
70001.929
70003.094
70004.257
70005.418
70006.577
70007.735
70008.89
70010.044
70011.197
70012.347
70013.496
70014.642
70015.787
70016.93
70018.071
70019.21
70020.347
70021.483
70022.616
70023.748
70024.878
70026.006
70027.133
70028.258
70029.38
70030.502
70031.621
70032.739
70033.855
70034.969
70036.081
70037.192
70038.301
70039.408
70040.513
70041.616
70042.718
70043.818
70044.917
70046.013
70047.108
70048.201
70049.293
70050.383
70051.471
70052.558
70053.643
70054.726
70055.807
70056.887
70057.965
70059.042
70060.117
70061.19
70062.262
70063.332
70064.4
70065.467
70066.532
70067.595
70068.657
70069.717
70070.776
70071.833
70072.888
70073.942
70074.994
70076.045
70077.093
70078.141
70079.186
70080.23
70081.273
70082.314
70083.353
70084.39
70085.426
70086.461
70087.494
70088.525
70089.554
70090.582
70091.609
70092.633
70093.656
70094.678
70095.698
70096.716
70097.733
70098.748
70099.762
70100.773
70101.783
70102.792
70103.799
70104.805
70105.808
70106.811
70107.811
70108.81
70109.807
70110.803
70111.797
70112.789
70113.78
70114.77
70115.757
70116.743
70117.728
70118.711
70119.692
70120.671
70121.649
70122.626
70123.6
70124.573
70125.545
70126.514
70127.482
70128.449
70129.413
70130.376
70131.338
70132.298
70133.256
70134.213
70135.168
70136.122
70137.074
70138.024
70138.973
70139.92
70140.865
70141.809
70142.751
70143.691
70144.63
70145.567
70146.503
70147.437
70148.369
70149.3
70150.229
70151.157
70152.083
70153.007
70153.93
70154.851
70155.77
70156.688
70157.604
70158.519
70159.432
70160.343
70161.253
70162.161
70163.067
70163.971
70164.875
70165.776
70166.676
70167.574
70168.47
70169.365
70170.258
70171.15
70172.04
70172.928
70173.815
70174.7
70175.583
70176.465
70177.345
70178.223
70179.1
70179.975
70180.848
70181.72
70182.59
70183.459
70184.325
70185.19
70186.054
70186.916
70187.776
70188.635
70189.492
70190.347
70191.201
70192.052
70192.903
70193.751
70194.599
70195.444
70196.288
70197.13
70197.971
70198.809
70199.647
70200.482
70201.316
70202.149
70202.979
70203.809
70204.636
70205.462
70206.286
70207.109
70207.93
70208.749
70209.567
70210.383
70211.198
70212.011
70212.822
70213.632
70214.44
70215.246
70216.051
70216.855
70217.656
70218.456
70219.255
70220.052
70220.847
70221.641
70222.433
70223.223
70224.012
70224.8
70225.585
70226.369
70227.152
70227.933
70228.712
70229.49
70230.266
70231.04
70231.813
70232.584
70233.354
70234.122
70234.888
70235.653
70236.417
70237.178
70237.938
70238.696
70239.453
70240.208
70240.962
70241.714
70242.464
70243.213
70243.96
70244.705
70245.449
70246.19
70246.931
70247.67
70248.407
70249.143
70249.877
70250.609
70251.34
70252.069
70252.796
70253.522
70254.247
70254.969
70255.69
70256.41
70257.127
70257.843
70258.557
70259.27
70259.982
70260.691
70261.399
70262.106
70262.81
70263.513
70264.215
70264.914
70265.613
70266.31
70267.005
70267.698
70268.39
70269.08
70269.768
70270.455
70271.14
70271.824
70272.507
70273.187
70273.866
70274.543
70275.219
70275.893
70276.565
70277.237
70277.906
70278.574
70279.24
70279.904
70280.567
70281.229
70281.889
70282.547
70283.204
70283.859
70284.513
70285.164
70285.815
70286.463
70287.111
70287.757
70288.401
70289.044
70289.685
70290.324
70290.962
70291.598
70292.233
70292.866
70293.498
70294.128
70294.757
70295.384
70296.009
70296.633
70297.255
70297.876
70298.496
70299.114
70299.73
70300.344
70300.957
70301.569
70302.179
70302.787
70303.394
70304
70304.604
70305.206
70305.806
70306.405
70307.003
70307.599
70308.193
70308.786
70309.378
70309.967
70310.555
70311.142
70311.727
70312.31
70312.892
70313.473
70314.051
70314.629
70315.204
70315.778
70316.35
70316.921
70317.491
70318.059
70318.625
70319.189
70319.752
70320.313
70320.873
70321.432
70321.988
70322.543
70323.097
70323.649
70324.199
70324.747
70325.294
70325.84
70326.384
70326.926
70327.467
70328.006
70328.543
70329.079
70329.613
70330.146
70330.677
70331.206
70331.734
70332.26
70332.785
70333.308
70333.829
70334.349
70334.867
70335.383
70335.898
70336.411
70336.922
70337.432
70337.94
70338.447
70338.952
70339.455
70339.957
70340.456
70340.954
70341.451
70341.946
70342.439
70342.93
70343.42
70343.908
70344.394
70344.878
70345.361
70345.842
70346.322
70346.799
70347.275
70347.749
70348.221
70348.692
70349.16
70349.627
70350.092
70350.555
70351.017
70351.476
70351.934
70352.39
70352.843
70353.295
70353.746
70354.194
70354.64
70355.085
70355.527
70355.967
70356.406
70356.842
70357.277
70357.709
70358.14
70358.568
70358.994
70359.419
70359.841
70360.261
70360.679
70361.094
70361.508
70361.92
70362.329
70362.736
70363.141
70363.544
70363.944
70364.343
70364.738
70365.132
70365.523
70365.912
70366.299
70366.683
70367.065
70367.445
70367.822
70368.197
70368.569
70368.939
70369.306
70369.671
70370.033
70370.393
70370.75
70371.105
70371.457
70371.806
70372.153
70372.497
70372.839
70373.178
70373.514
70373.847
70374.178
70374.506
70374.831
70375.153
70375.473
70375.789
70376.103
70376.414
70376.722
70377.027
70377.329
70377.628
70377.925
70378.218
70378.508
70378.795
70379.079
70379.361
70379.639
70379.913
70380.185
70380.453
70380.719
70380.981
70381.24
70381.496
70381.748
70381.998
70382.243
70382.486
70382.725
70382.961
70383.194
70383.423
70383.648
70383.871
70384.09
70384.305
70384.517
70384.725
70384.93
70385.131
70385.329
70385.523
70385.713
70385.9
70386.083
70386.262
70386.438
70386.61
70386.779
70386.943
70387.104
70387.261
70387.414
70387.563
70387.709
70387.851
70387.988
70388.122
70388.252
70388.378
70388.5
70388.619
70388.733
70388.843
70388.949
70389.051
70389.149
70389.243
70389.333
70389.419
70389.5
70389.578
70389.651
70389.721
70389.786
70389.847
70389.903
70389.956
70390.004
70390.048
70390.088
70390.124
70390.155
70390.182
70390.205
70390.223
70390.237
70390.247
70390.253
70390.254
70390.251
70390.243
70390.232
70390.216
70390.195
70390.17
70390.141
70390.108
70390.07
70390.027
70389.981
70389.93
70389.874
70389.814
70389.75
70389.682
70389.609
70389.532
70389.45
70389.364
70389.274
70389.179
70389.08
70388.976
70388.869
70388.757
70388.64
70388.519
70388.394
70388.265
70388.131
70387.993
70387.851
70387.705
70387.554
70387.399
70387.24
70387.077
70386.909
70386.737
70386.561
70386.381
70386.197
70386.009
70385.816
70385.62
70385.419
70385.215
70385.006
70384.793
70384.577
70384.356
70384.131
70383.903
70383.671
70383.434
70383.194
70382.95
70382.702
70382.45
70382.195
70381.935
70381.672
70381.406
70381.135
70380.861
70380.583
70380.302
70380.017
70379.728
70379.436
70379.14
70378.841
70378.538
70378.232
70377.922
70377.609
70377.293
70376.973
70376.649
70376.323
70375.993
70375.66
70375.323
70374.984
70374.641
70374.295
70373.946
70373.594
70373.238
70372.88
70372.519
70372.154
70371.787
70371.416
70371.043
70370.667
70370.288
70369.905
70369.521
70369.133
70368.742
70368.349
70367.953
70367.554
70367.153
70366.749
70366.342
70365.933
70365.521
70365.107
70364.69
70364.27
70363.848
70363.424
70362.997
70362.568
70362.136
70361.702
70361.265
70360.827
70360.386
70359.942
70359.497
70359.049
70358.599
70358.147
70357.693
70357.236
70356.778
70356.317
70355.855
70355.39
70354.924
70354.455
70353.985
70353.512
70353.038
70352.562
70352.084
70351.604
70351.122
70350.639
70350.154
70349.667
70349.178
70348.688
70348.196
70347.702
70347.207
70346.71
70346.212
70345.712
70345.21
70344.707
70344.203
70343.697
70343.19
70342.681
70342.171
70341.66
70341.147
70340.633
70340.118
70339.602
70339.084
70338.565
70338.045
70337.524
70337.002
70336.478
70335.954
70335.428
70334.902
70334.374
70333.846
70333.317
70332.786
70332.255
70331.723
70331.191
70330.657
70330.123
70329.588
70329.052
70328.516
70327.979
70327.441
70326.903
70326.364
70325.825
70325.285
70324.745
70324.204
70323.663
70323.122
70322.58
70322.038
70321.496
70320.953
70320.41
70319.867
70319.324
70318.781
70318.238
70317.694
70317.151
70316.608
70316.065
70315.522
70314.979
70314.436
70313.893
70313.351
70312.809
70312.267
70311.726
70311.185
70310.644
70310.104
70309.565
70309.026
70308.487
70307.949
70307.412
70306.876
70306.34
70305.805
70305.271
70304.737
70304.205
70303.673
70303.142
70302.612
70302.084
70301.556
70301.029
70300.504
70299.98
70299.457
70298.935
70298.414
70297.895
70297.377
70296.86
70296.345
70295.832
70295.319
70294.809
70294.3
70293.792
70293.286
70292.782
70292.279
70291.779
70291.279
70290.782
70290.287
70289.793
70289.301
70288.812
70288.324
70287.838
70287.354
70286.872
70286.392
70285.915
70285.439
70284.966
70284.494
70284.025
70283.558
70283.094
70282.632
70282.172
70281.714
70281.259
70280.806
70280.355
70279.907
70279.461
70279.018
70278.577
70278.139
70277.703
70277.27
70276.84
70276.411
70275.986
70275.563
70275.143
70274.725
70274.31
70273.898
70273.488
70273.081
70272.677
70272.276
70271.877
70271.481
70271.088
70270.697
70270.309
70269.924
70269.542
70269.163
70268.786
70268.412
70268.041
70267.673
70267.307
70266.945
70266.585
70266.228
70265.874
70265.522
70265.174
70264.828
70264.485
70264.145
70263.808
70263.474
70263.142
70262.813
70262.487
70262.164
70261.843
70261.526
70261.211
70260.899
70260.589
70260.282
70259.979
70259.677
70259.379
70259.083
70258.79
70258.499
70258.212
70257.927
70257.644
70257.364
70257.087
70256.812
70256.54
70256.27
70256.003
70255.739
70255.477
70255.217
70254.96
70254.705
70254.453
70254.203
70253.956
70253.71
70253.468
70253.227
70252.989
70252.753
70252.519
70252.288
70252.058
70251.831
70251.606
70251.383
70251.162
70250.943
70250.727
70250.512
70250.299
70250.088
70249.879
70249.672
70249.466
70249.263
70249.061
70248.861
70248.663
70248.467
70248.272
70248.078
70247.887
70247.697
70247.508
70247.321
70247.136
70246.952
70246.769
70246.588
70246.408
70246.23
70246.052
70245.876
70245.701
70245.528
70245.355
70245.184
70245.014
70244.844
70244.676
70244.509
70244.343
70244.178
70244.013
70243.85
70243.687
70243.525
70243.364
70243.204
70243.044
70242.885
70242.727
70242.569
70242.412
70242.256
70242.1
70241.945
70241.79
70241.635
70241.481
70241.327
70241.174
70241.021
70240.869
70240.716
70240.564
70240.412
70240.26
70240.109
70239.957
70239.806
70239.655
70239.503
70239.352
70239.201
70239.05
70238.898
70238.747
70238.596
70238.444
70238.292
70238.14
70237.988
70237.836
70237.683
70237.531
70237.377
70237.224
70237.07
70236.916
70236.761
70236.606
70236.451
70236.295
70236.139
70235.982
70235.824
70235.666
70235.508
70235.349
70235.189
70235.029
70234.868
70234.707
70234.544
70234.381
70234.218
70234.053
70233.888
70233.723
70233.556
70233.389
70233.221
70233.052
70232.882
70232.711
70232.54
70232.368
70232.194
70232.02
70231.845
70231.67
70231.493
70231.315
70231.136
70230.956
70230.775
70230.592
70230.409
70230.224
70230.038
70229.851
70229.663
70229.473
70229.283
70229.092
70228.9
70228.707
70228.514
70228.32
70228.125
70227.929
70227.731
70227.532
70227.332
70227.13
70226.927
70226.722
70226.516
70226.308
70226.1
70225.891
70225.681
70225.471
70225.259
70225.046
70224.832
70224.616
70224.399
70224.18
70223.959
70223.737
70223.514
70223.291
70223.066
70222.841
70222.615
70222.387
70222.157
70221.925
70221.692
70221.458
70221.222
70220.986
70220.748
70220.51
70220.27
70220.029
70219.786
70219.542
70219.296
70219.048
70218.799
70218.55
70218.299
70218.047
70217.794
70217.539
70217.282
70217.024
70216.764
70216.503
70216.241
70215.978
70215.713
70215.447
70215.179
70214.91
70214.639
70214.366
70214.093
70213.819
70213.543
70213.265
70212.986
70212.706
70212.424
70212.141
70211.857
70211.571
70211.284
70210.995
70210.704
70210.412
70210.118
70209.823
70209.525
70209.226
70208.925
70208.622
70208.317
70208.01
70207.701
70207.39
70207.076
70206.761
70206.443
70206.124
70205.802
70205.477
70205.151
70204.822
70204.491
70204.158
70203.822
70203.484
70203.143
70202.8
70202.454
70202.106
70201.755
70201.401
70201.044
70200.684
70200.322
70199.956
70199.588
70199.216
70198.841
70198.463
70198.082
70197.697
70197.308
70196.917
70196.521
70196.121
70195.718
70195.311
70194.9
70194.484
70194.064
70193.64
70193.211
70192.778
70192.339
70191.896
70191.448
70190.994
70190.535
70190.071
70189.6
70189.124
70188.642
70188.154
70187.659
70187.158
70186.65
70186.136
70185.614
70185.084
70184.548
70184.003
70183.451
70182.89
70182.321
70181.743
70181.156
70180.561
70179.956
70179.341
70178.717
70178.082
70177.437
70176.781
70176.114
70175.436
70174.747
70174.045
70173.332
70172.606
70171.867
70171.115
70170.35
70169.571
70168.778
70167.971
70167.149
70166.312
70165.46
70164.592
70163.708
70162.807
70161.89
70160.956
70160.004
70159.035
70158.048
70157.042
70156.017
70154.973
70153.909
70152.826
70151.723
70150.599
70149.454
70148.288
70147.1
70145.89
70144.658
70143.404
70142.127
70140.826
70139.503
70138.155
70136.784
70135.388
70133.967
70132.522
70131.051
70129.555
70128.033
70126.486
70124.913
70123.313
70121.687
70120.035
70118.356
70116.649
70114.916
70113.155
70111.367
70109.551
70107.709
70105.839
70103.942
70102.017
70100.065
70098.084
70096.076
70094.041
70091.977
70089.887
70087.769
70085.625
70083.455
70081.258
70079.034
70076.784
70074.506
70072.202
70069.872
70067.517
70065.136
70062.732
70060.305
70057.854
70055.381
70052.883
70050.361
70047.815
70045.246
70042.655
70040.043
70037.413
70034.765
70032.1
70029.417
70026.716
70023.995
70021.254
70018.493
70015.714
70012.92
70010.115
70007.3
70004.478
70001.647
69998.805
69995.95
69993.077
69990.188
69987.284
69984.37
69981.454
69978.541
69975.634
69972.73
69969.827
69966.915
69963.989
69961.045
69958.086
69955.121
69952.163
69949.222
69946.306
69943.418
69940.549
69937.682
69934.792
69931.866
69928.916
69925.977
69923.065
69920.184
69917.416
69914.649
69911.859
69908.998
69906.155
69903.366
69900.605
69897.879
69895.194
69892.538
69889.9
69887.275
69884.661
69882.061
69879.479
69876.921
69874.39
69871.887
69869.411
69866.961
69864.533
69862.125
69859.736
69857.366
69855.015
69852.686
69850.379
69848.096
69845.836
69843.599
69841.384
69839.191
69837.019
69834.867
69832.736
69830.626
69828.537
69826.47
69824.424
69822.4
69820.398
69818.417
69816.457
69814.518
69812.598
69810.699
69808.82
69806.961
69805.122
69803.304
69801.505
69799.726
69797.966
69796.224
69794.502
69792.798
69791.112
69789.444
69787.793
69786.16
69784.544
69782.945
69781.363
69779.797
69778.247
69776.713
69775.194
69773.69
69772.201
69770.726
69769.265
69767.819
69766.385
69764.965
69763.558
69762.164
69760.782
69759.412
69758.053
69756.706
69755.37
69754.045
69752.73
69751.426
69750.131
69748.846
69747.571
69746.304
69745.046
69743.797
69742.556
69741.323
69740.098
69738.88
69737.669
69736.466