/*--------------------------------*- C++ -*----------------------------------*\
| =========                 |                                                 |
| \\      /  F ield         | OpenFOAM: The Open Source CFD Toolbox           |
|  \\    /   O peration     | Version:  4.x                                   |
|   \\  /    A nd           | Web:      www.OpenFOAM.org                      |
|    \\/     M anipulation  |                                                 |
\*---------------------------------------------------------------------------*/
FoamFile
{
    version     2.0;
    format      ascii;
    class       volVectorField;
    location    "0.72";
    object      U;
}
// * * * * * * * * * * * * * * * * * * * * * * * * * * * * * * * * * * * * * //

dimensions      [0 1 -1 0 0 0 0];

internalField   nonuniform List<vector> 
6273
(
(-0.0003815829755 0.0003781074942 0.0003776998115)
(-0.0003723307545 0.001112164057 0.0003867761878)
(-0.000354179473 0.001775802638 0.0004046247326)
(-0.0003286963322 0.002326202636 0.0004307489586)
(-0.0002990175796 0.002721774429 0.0004642824116)
(-0.0002701148185 0.002933521429 0.0005048629279)
(-0.000372356466 0.0003871843039 0.001110972353)
(-0.0003626689886 0.001139102639 0.001137908662)
(-0.0003438350358 0.00181976628 0.001191022743)
(-0.0003177143953 0.002385798779 0.001269153991)
(-0.0002879046013 0.002795693515 0.001370085042)
(-0.0002595342003 0.003018399646 0.001493054969)
(-0.0003542492975 0.0004050325932 0.001773919908)
(-0.0003438795789 0.001192217615 0.001817876876)
(-0.0003240819196 0.001907009015 0.001905112286)
(-0.0002972471601 0.002505185626 0.002034872454)
(-0.0002678249221 0.002945547239 0.002204824592)
(-0.0002414070686 0.00319442755 0.002415839232)
(-0.0003288183617 0.0004311538946 0.002323757265)
(-0.0003178122904 0.001270342976 0.002383339515)
(-0.0002973016098 0.002036768303 0.002502706425)
(-0.0002702935207 0.002685491008 0.002682997507)
(-0.0002422995709 0.003176645042 0.002922887539)
(-0.0002191608428 0.003473397579 0.003229584725)
(-0.0002991877915 0.000464680103 0.002718906996)
(-0.0002880528358 0.001371256067 0.002792802793)
(-0.0002679328881 0.00220670191 0.002942619425)
(-0.0002423555835 0.002925375742 0.003173680338)
(-0.0002185974183 0.003491678981 0.003488695032)
(-0.0002027492935 0.003859887287 0.003916362803)
(-0.0002703203647 0.0005052476902 0.00293035217)
(-0.0002597212874 0.001494192528 0.003015199803)
(-0.0002415584432 0.002417675524 0.003191171498)
(-0.0002192649586 0.003232041046 0.003470071624)
(-0.0002027988357 0.003919339941 0.003856507859)
(-0.0001984957464 0.004406282806 0.004402815445)
(-0.003224485326 0.0007141659019 0.0007134344955)
(-0.003165585901 0.002109010439 0.0007288965626)
(-0.003048189166 0.003392014197 0.0007591614272)
(-0.00287470404 0.004489141619 0.0008031247629)
(-0.002653928927 0.005323326005 0.0008591071847)
(-0.002402125995 0.005829402771 0.0009260832263)
(-0.003165715488 0.0007296281536 0.002106861771)
(-0.003104401187 0.002154796729 0.002152644311)
(-0.002983007953 0.00346631564 0.002242412992)
(-0.002805501008 0.004589143434 0.002373352521)
(-0.002582499633 0.005446180084 0.00254095367)
(-0.002332362224 0.005969626136 0.002742391528)
(-0.003048543646 0.0007598925708 0.003388587259)
(-0.002983234753 0.002244566269 0.003462876657)
(-0.002855539239 0.003612731093 0.003609279478)
(-0.002672204245 0.004787751176 0.003824910064)
(-0.002447168642 0.005692502869 0.004104285007)
(-0.002201992288 0.00625593549 0.004445389038)
(-0.002875322549 0.0008038500706 0.004484627915)
(-0.002805997998 0.002375493695 0.004584603959)
(-0.00267248153 0.003828358686 0.004783174731)
(-0.002484978846 0.005084297 0.005079695165)
(-0.002261595633 0.006067212713 0.005469638077)
(-0.002027268864 0.006702873349 0.0059577251)
(-0.002654788571 0.0008598179033 0.005317931077)
(-0.002583250218 0.002543059335 0.005440740772)
(-0.002447717914 0.004107697079 0.005686993114)
(-0.002261880865 0.005474227993 0.006061632682)
(-0.002048621931 0.006570603152 0.006564984177)
(-0.001836363603 0.007315951266 0.007226053549)
(-0.002403162668 0.0009267690668 0.005823302617)
(-0.002333306228 0.002744431887 0.005963463457)
(-0.002202764008 0.004448718489 0.006249662175)
(-0.002027805351 0.005962244756 0.006696467125)
(-0.001836634142 0.007231647969 0.007309428617)
(-0.001662222787 0.008147102848 0.008140489178)
(-0.007108507314 0.0008546950175 0.0008538203584)
(-0.006996821737 0.002530072105 0.0008731705815)
(-0.00676839515 0.004090776135 0.0009105341845)
(-0.006417110449 0.005455062102 0.0009635817367)
(-0.005947035661 0.006530178428 0.00102918935)
(-0.005378998627 0.007224575222 0.001104710694)
(-0.006997075824 0.0008740449788 0.00252750261)
(-0.006879022543 0.002586978812 0.002584407346)
(-0.006639725361 0.004181651638 0.00269440188)
(-0.006276580182 0.005574590872 0.002851225217)
(-0.005797658494 0.00667272016 0.003046207753)
(-0.005227211154 0.007383904482 0.003272468249)
(-0.006769089095 0.0009114052268 0.004086681312)
(-0.006640169362 0.00269696888 0.004177544752)
(-0.006382854192 0.004358117784 0.004354001133)
(-0.006000860977 0.005808500334 0.00460816259)
(-0.005509571854 0.006954797447 0.00492829909)
(-0.004938799875 0.007703804139 0.00530746741)
(-0.006418313047 0.0009644423293 0.005449679101)
(-0.006277546655 0.002853768512 0.005569176942)
(-0.00600139951 0.004612265058 0.005803043499)
(-0.00560148516 0.006150427106 0.006144946768)
(-0.005102362088 0.007376229118 0.006582414097)
(-0.004539805385 0.008195287801 0.007115470025)
(-0.005948685383 0.001030028108 0.006523759442)
(-0.005799100312 0.003048694911 0.006666244713)
(-0.005510627085 0.004932340239 0.006948231926)
(-0.005102909574 0.006587865513 0.007369578266)
(-0.004611471375 0.007928168225 0.007921476623)
(-0.004077341667 0.00885243065 0.008630731235)
(-0.005380944009 0.001105513994 0.007217328665)
(-0.005228989145 0.003274859961 0.007376574975)
(-0.00494025811 0.005311385546 0.007696331103)
(-0.00454082086 0.007120811766 0.008187648562)
(-0.004077851412 0.008637374883 0.008844650782)
(-0.003595043488 0.009740944287 0.009733091915)
(-0.01136859351 0.0009045732162 0.0009036081728)
(-0.0112215245 0.002684396857 0.0009288460404)
(-0.01090791076 0.004363193465 0.0009766961072)
(-0.01040024971 0.005859090215 0.001042629831)
(-0.009684586162 0.007069911362 0.001120927179)
(-0.008777074118 0.007887482382 0.001206634758)
(-0.01122192762 0.000929808557 0.002681560576)
(-0.01106067102 0.002757960788 0.002755128065)
(-0.01072212889 0.004478409372 0.002894704293)
(-0.01018592193 0.006006380957 0.003087748753)
(-0.009446122284 0.007239259744 0.003318058815)
(-0.00852547713 0.008069170431 0.003572392595)
(-0.01090901755 0.0009776502221 0.004358676399)
(-0.01072284001 0.002897520941 0.004473885529)
(-0.01034182005 0.004697821037 0.004693298965)
(-0.009758393355 0.006288763484 0.004999664396)
(-0.008981241026 0.007567461883 0.005369731409)
(-0.008044390029 0.008426126886 0.005787710216)
(-0.01040217056 0.001043566458 0.005853174469)
(-0.01018747147 0.003090523355 0.006000434083)
(-0.009759259811 0.005004151214 0.006282776844)
(-0.009126284362 0.006688700335 0.006682703072)
(-0.008315534531 0.008043041949 0.007172468913)
(-0.007374770026 0.008959633373 0.007742804493)
(-0.009687207777 0.001121832581 0.007062910684)
(-0.009448423508 0.003320750735 0.007232193805)
(-0.008982933971 0.005374123348 0.007560293241)
(-0.008316417277 0.007178409068 0.008035782888)
(-0.00749738453 0.008638853211 0.008631562702)
(-0.006586629538 0.009636053362 0.009370102931)
(-0.008780126356 0.001207492628 0.007879667054)
(-0.008528284245 0.003574955495 0.00806125515)
(-0.008046710682 0.005791932937 0.00841803958)
(-0.007376399688 0.007748586841 0.008951354823)
(-0.006587453222 0.009377310755 0.009627622244)
(-0.005751747022 0.01054722312 0.0105387381)
(-0.01574144399 0.000889294007 0.0008883089746)
(-0.01559314963 0.002646808025 0.0009227806314)
(-0.01525064919 0.004327186408 0.0009873501196)
(-0.01464550573 0.005851781649 0.001074319951)
(-0.01372752816 0.00711276241 0.001174323328)
(-0.01249339289 0.007992290499 0.001278810269)
(-0.01559369913 0.0009237594475 0.002643897562)
(-0.01541781819 0.002746779979 0.002743883133)
(-0.01502517778 0.004481906997 0.002930991272)
(-0.0143606212 0.006045891732 0.003183662675)
(-0.01338789737 0.007330248098 0.003475009212)
(-0.01211501884 0.008217714063 0.003781562539)
(-0.01525217805 0.0009883142032 0.004322511246)
(-0.01502616879 0.002933853933 0.004477237275)
(-0.01454607379 0.004771834694 0.00476718893)
(-0.01377977799 0.00641130697 0.005161519275)
(-0.01271569458 0.007742893718 0.005620301314)
(-0.01138045597 0.008649006721 0.006112013514)
(-0.01464819482 0.001075258531 0.005845614929)
(-0.01436280819 0.00318646096 0.00603970191)
(-0.01378101614 0.005166100636 0.006405093341)
(-0.01289969434 0.006913611249 0.00690741163)
(-0.01173651828 0.0083203975 0.007496223252)
(-0.0103444708 0.009268912671 0.008144508853)
(-0.01373123389 0.001175221318 0.007105445962)
(-0.01339117969 0.003477700045 0.007322864389)
(-0.0127181452 0.005624754198 0.007735407358)
(-0.01173782112 0.007502333095 0.008312829202)
(-0.01050238281 0.009009191771 0.009001609275)
(-0.009097609718 0.01000726182 0.009814598411)
(-0.01249773165 0.001279653873 0.007984160462)
(-0.01211905451 0.003784103133 0.008209471301)
(-0.01138385543 0.006116264896 0.008640573988)
(-0.01034691515 0.00815041918 0.009260275727)
(-0.009098868327 0.009822057629 0.009998465529)
(-0.007797235425 0.01098335998 0.01097458265)
(-0.01988403185 0.0008006086527 0.0007997330555)
(-0.01978409788 0.002392044912 0.0008452926416)
(-0.01949842716 0.003935306473 0.0009304047333)
(-0.01889734287 0.005354537229 0.00104407801)
(-0.01788215187 0.006541540398 0.001173855939)
(-0.01642288025 0.007384645128 0.001308134815)
(-0.01978472639 0.0008461580843 0.002389424343)
(-0.01963780554 0.002524136582 0.002521541751)
(-0.01926453703 0.004139497253 0.002767826467)
(-0.01855869843 0.005610003137 0.003097622959)
(-0.01744350423 0.006827853251 0.003475473761)
(-0.01590768314 0.007682828206 0.003869888017)
(-0.01950022214 0.0009312482667 0.003931008032)
(-0.0192657174 0.002770367306 0.004135219761)
(-0.01873895646 0.004519946952 0.004515718634)
(-0.01785184347 0.006089131491 0.005028994061)
(-0.01656686376 0.00737031067 0.00562289506)
(-0.01490699365 0.008251733112 0.006250712786)
(-0.01890058775 0.001044888871 0.005348746412)
(-0.01856137143 0.003100077921 0.005604198522)
(-0.01785338909 0.00503312804 0.006083319582)
(-0.01675702149 0.006742788233 0.006737013568)
(-0.01528490361 0.008120187116 0.007496704749)
(-0.01350585192 0.009046859263 0.008307571479)
(-0.01788673249 0.001174619675 0.006534548395)
(-0.01744761634 0.003477801432 0.006820787978)
(-0.0165700041 0.005626870675 0.007363135121)
(-0.01528662016 0.007502360107 0.008112929847)
(-0.0136612597 0.00899442839 0.008987173675)
(-0.01181738973 0.009947505882 0.009958467234)
(-0.01642836792 0.001308842482 0.007376801284)
(-0.01591286305 0.003872058213 0.007674846348)
(-0.01491146364 0.006254472028 0.008243523678)
(-0.01350915908 0.008313007944 0.009038417844)
(-0.01181913701 0.009965576267 0.009938914057)
(-0.009994856502 0.01103865402 0.01103012302)
(-0.0002454438123 0.0005503914149 0.002926683817)
(-0.0002374577208 0.001632758289 0.003024451464)
(-0.000224213434 0.002661705992 0.003224909941)
(-0.0002076508315 0.003595601174 0.003546025353)
(-0.0002043511225 0.004458115565 0.004016521146)
(-0.0001759226991 0.004947053264 0.004667167429)
(-0.0002329230191 0.0005978896662 0.002731576369)
(-0.0002275679884 0.00178332751 0.002828199874)
(-0.0002217082427 0.002935774412 0.003037039418)
(-0.0002193227231 0.004027036799 0.003387088157)
(-0.0002372592552 0.0050737851 0.003936189112)
(-0.0002366659592 0.005959315939 0.004724285893)
(-0.0002326185576 0.0006487072181 0.002337854625)
(-0.0002316853749 0.001941514465 0.002431236698)
(-0.0002370091667 0.003223332967 0.002637624187)
(-0.0002567798792 0.004492029472 0.00299430916)
(-0.0003112237144 0.005775421863 0.003581624569)
(-0.0003633168383 0.007007265542 0.004517084846)
(-0.0002427774848 0.0006949998006 0.001788500924)
(-0.0002477393581 0.002088781759 0.00186884472)
(-0.0002663743508 0.003501303454 0.002049399263)
(-0.000312061274 0.004965484578 0.002370709087)
(-0.0004091352524 0.006535410952 0.002929843125)
(-0.0005536049678 0.008304378334 0.003876508572)
(-0.0002577808848 0.0007314600115 0.001120183462)
(-0.0002683031161 0.002206406395 0.001175593441)
(-0.0002992986485 0.003729031047 0.001302059178)
(-0.0003679946216 0.005368681182 0.001529423734)
(-0.0005057173571 0.007200552712 0.001944425404)
(-0.0007433997058 0.009502077664 0.002666532039)
(-0.0002686604957 0.000751969779 0.0003795387896)
(-0.0002824845824 0.002273068541 0.0003995265412)
(-0.0003207731121 0.003860128464 0.0004455599424)
(-0.0004032200687 0.005607364894 0.0005284030837)
(-0.0005647027365 0.007598515368 0.0006839042555)
(-0.0008619087577 0.01025437255 0.0009567657328)
(-0.0002686992934 0.0007520137925 -0.0003851445992)
(-0.0002825166445 0.002273198751 -0.0004049746719)
(-0.0003207926501 0.003860327971 -0.0004507053759)
(-0.0004032256525 0.005607624428 -0.0005331275543)
(-0.0005646907043 0.007598804524 -0.0006881084894)
(-0.0008618747702 0.01025468227 -0.0009605048707)
(-0.0002578960431 0.0007315886327 -0.001125593023)
(-0.0002684010878 0.002206783492 -0.001180856763)
(-0.0002993620115 0.00372961841 -0.001307044068)
(-0.0003680215051 0.005369452189 -0.00153402548)
(-0.0005056953668 0.007201417021 -0.001948540816)
(-0.000743321572 0.009503044563 -0.002670204564)
(-0.0002429685486 0.0006951987691 -0.001793541185)
(-0.0002479071471 0.002089364845 -0.001873763395)
(-0.0002664960585 0.00350222577 -0.002054091103)
(-0.0003121277169 0.004966694711 -0.002375073833)
(-0.0004091300248 0.006536774593 -0.002933788347)
(-0.0005535285709 0.008305952046 -0.003880048285)
(-0.0002328731114 0.0006489570949 -0.002342393466)
(-0.0002319172645 0.001942250172 -0.00243568401)
(-0.0002371942297 0.003224510556 -0.002641894583)
(-0.0002569049718 0.004493597153 -0.00299831794)
(-0.0003112683971 0.005777213425 -0.003585285357)
(-0.0003632849068 0.007009436798 -0.00452036994)
(-0.0002332409449 0.0005981688817 -0.002735507161)
(-0.0002278656025 0.001784166995 -0.00283206803)
(-0.0002219635646 0.002937137053 -0.003040782092)
(-0.0002195194428 0.004028875671 -0.003390638976)
(-0.0002373722774 0.00507591726 -0.003939459396)
(-0.0002367051833 0.005961954418 -0.004727231043)
(-0.000245807867 0.0005507033562 -0.002929914672)
(-0.0002378054558 0.001633678953 -0.003027658553)
(-0.0002245221994 0.002663197849 -0.003228035283)
(-0.0002079099819 0.003597636012 -0.003549006774)
(-0.0002045369341 0.004460488151 -0.004019302845)
(-0.0001760253481 0.004949970768 -0.004669598916)
(-0.002143821648 0.001001664317 0.005928359569)
(-0.002081871553 0.002970713387 0.006087757755)
(-0.001965786275 0.004839666077 0.006408422164)
(-0.001811747141 0.006538743899 0.00691183744)
(-0.001653947209 0.008062707834 0.00762615168)
(-0.001524438508 0.009123434974 0.008609644527)
(-0.001928397545 0.001075629398 0.00564339384)
(-0.001869192923 0.003205236822 0.005799435538)
(-0.001768942657 0.005263700255 0.006125230577)
(-0.001648709372 0.007183035428 0.006656185091)
(-0.001552042892 0.008973343553 0.007446163169)
(-0.001464557679 0.01046164169 0.008589265993)
(-0.00174408076 0.001156267312 0.004929438314)
(-0.00169949534 0.003452708081 0.005074398095)
(-0.001630077905 0.005699287286 0.005389961439)
(-0.001556591824 0.00785552734 0.005912903081)
(-0.001532082061 0.009936516259 0.006728531909)
(-0.001528440164 0.01183209748 0.007985107808)
(-0.001623740513 0.001229268467 0.003834141556)
(-0.001595328547 0.003679215836 0.003958768415)
(-0.001558488842 0.00611017447 0.004230913144)
(-0.001535714845 0.008512971302 0.004689870937)
(-0.001590442039 0.01090355309 0.005443643733)
(-0.001706045934 0.01335470226 0.006661852076)
(-0.001562547352 0.001285899898 0.002433074212)
(-0.001547341772 0.003858004274 0.002518473293)
(-0.001537476558 0.006440222743 0.002706538498)
(-0.001557132069 0.00906133872 0.003027764492)
(-0.001678884255 0.01171673235 0.003580330055)
(-0.001910613804 0.01472173916 0.004499336186)
(-0.001540394177 0.001317665288 0.0008304430114)
(-0.001532627679 0.003959149891 0.0008611701169)
(-0.001537359347 0.006627544796 0.0009290930466)
(-0.001581039191 0.009382983788 0.001045632713)
(-0.001737399095 0.01219272787 0.001252069135)
(-0.002036140241 0.0155700724 0.001599037342)
(-0.001540799124 0.001317736053 -0.0008421258071)
(-0.001533003196 0.003959356369 -0.000872601994)
(-0.001537683345 0.006627874555 -0.0009400414092)
(-0.001581287208 0.009383404503 -0.001055909554)
(-0.001737561072 0.01219319874 -0.001261527076)
(-0.002036227508 0.01557057479 -0.001607807376)
(-0.0015637086 0.001286104846 -0.002444174727)
(-0.001548422723 0.003858604191 -0.002529343762)
(-0.001538411567 0.006441176154 -0.002716966848)
(-0.001557870757 0.009062576159 -0.003037564329)
(-0.001679386557 0.01171813178 -0.003589332631)
(-0.001910900693 0.01472329995 -0.004507610554)
(-0.001625537737 0.001229583464 -0.003844203864)
(-0.001597015082 0.003680145014 -0.003968639415)
(-0.001559964262 0.006111649692 -0.004240413347)
(-0.001536923608 0.008514924638 -0.004698831928)
(-0.001591320903 0.01090578386 -0.005451877929)
(-0.001706615593 0.01335731533 -0.006669326296)
(-0.001746382827 0.001156656365 -0.004938238029)
(-0.001701673459 0.003453869659 -0.005083044121)
(-0.001632024741 0.005701177213 -0.005398294076)
(-0.001558236445 0.007858071437 -0.005920792962)
(-0.001533370114 0.009939489742 -0.006735794054)
(-0.001529401281 0.01183577944 -0.007991630896)
(-0.001931023645 0.001076084746 -0.005650636452)
(-0.001871705163 0.003206609236 -0.005806592008)
(-0.001771267055 0.005265912622 -0.006132232443)
(-0.001650748561 0.007186047469 -0.00666285571)
(-0.001553734275 0.008976926203 -0.00745232753)
(-0.001465920367 0.0104661596 -0.008594761188)
(-0.002146593914 0.001002167102 -0.005934208942)
(-0.002084594829 0.00297219443 -0.006093547168)
(-0.001968358552 0.004842104378 -0.006414041736)
(-0.001814083921 0.006542103231 -0.006917201261)
(-0.001655971291 0.008066767646 -0.007631143213)
(-0.001526104772 0.009128516487 -0.008613989178)
(-0.004761481092 0.001187319615 0.00744760507)
(-0.004613077926 0.003522307544 0.007616463627)
(-0.004337518737 0.005736404092 0.007960708344)
(-0.003965524275 0.007734613357 0.008502836036)
(-0.003565278842 0.009519409237 0.009251074228)
(-0.003163435382 0.01077221324 0.01029592995)
(-0.004142874454 0.001270944027 0.007156867203)
(-0.004005508294 0.003779073038 0.007326013677)
(-0.003756088105 0.006187285796 0.007677139119)
(-0.003427380583 0.008406795144 0.008241826167)
(-0.003107572524 0.0104819216 0.0090643757)
(-0.002778191351 0.01211121999 0.01028742754)
(-0.003579951101 0.001354287758 0.006320631891)
(-0.003459403689 0.004035884522 0.006479875147)
(-0.003244466856 0.006642962229 0.006816495791)
(-0.002967717989 0.009108768049 0.007370096879)
(-0.002718399189 0.01150106647 0.008224419588)
(-0.002447197495 0.01354569864 0.009582746911)
(-0.003129818197 0.001430331468 0.004967409098)
(-0.003026019802 0.004272805186 0.005102170866)
(-0.002845012622 0.007073575727 0.005392196654)
(-0.002613257944 0.009799894607 0.005881473303)
(-0.002422695143 0.01252870891 0.006681749515)
(-0.002183731194 0.01515414344 0.008019072767)
(-0.002823871599 0.001490366598 0.003176368905)
(-0.00273300138 0.004462016897 0.00326891568)
(-0.00257871728 0.007425497486 0.003471399793)
(-0.002376719018 0.01038997994 0.003820156083)
(-0.00221114233 0.01340461596 0.004417011645)
(-0.001965011117 0.01665038589 0.005448749375)
(-0.00267134076 0.001524463071 0.001088815275)
(-0.002587104013 0.004570545734 0.001122267273)
(-0.002445650548 0.007629433832 0.001196244388)
(-0.002254981724 0.01074688939 0.0013247896)
(-0.002081055666 0.01392727308 0.001550554115)
(-0.001802539251 0.01762453112 0.001946336906)
(-0.002672412643 0.001524548708 -0.001103992968)
(-0.002588120525 0.004570795674 -0.001137138123)
(-0.002446560508 0.007629823324 -0.001210525583)
(-0.002255748375 0.01074736807 -0.001338276076)
(-0.00208168985 0.01392781103 -0.001563022912)
(-0.001803075291 0.01762510469 -0.001957955494)
(-0.002826874449 0.001490613559 -0.003190516218)
(-0.002735849263 0.004462740482 -0.00328279243)
(-0.002581261189 0.007426621957 -0.003484746243)
(-0.002378886476 0.0103914075 -0.003832744977)
(-0.002212932645 0.01340624318 -0.004428640476)
(-0.001966516375 0.01665221466 -0.00545949296)
(-0.003134273797 0.001430707357 -0.00497982374)
(-0.00303026729 0.004273914111 -0.005114381)
(-0.002848852777 0.007075322706 -0.005403993792)
(-0.002616619707 0.009802196547 -0.005892643191)
(-0.002425455969 0.01253132685 -0.006692046334)
(-0.002186064138 0.01515721788 -0.008028474916)
(-0.003585377632 0.001354751586 -0.006331016956)
(-0.003464614766 0.00403726364 -0.006490125273)
(-0.003249263767 0.006645187582 -0.006826464564)
(-0.002971951069 0.009111756871 -0.007379596545)
(-0.002722014596 0.01150454782 -0.00823322584)
(-0.002450285522 0.01354998403 -0.009590669878)
(-0.004148855493 0.001271463206 -0.007165163293)
(-0.004011305344 0.0037806235 -0.007334232584)
(-0.003761529056 0.006189824147 -0.007685189784)
(-0.003432307271 0.008410276129 -0.008249571466)
(-0.003111897446 0.01048607568 -0.009071607197)
(-0.002781981851 0.01211648094 -0.01029386848)
(-0.004767639842 0.001187868535 -0.007453892941)
(-0.004619118851 0.003523950379 -0.007622714528)
(-0.004343311737 0.005739124296 -0.007966863137)
(-0.003970917962 0.007738416798 -0.008508794767)
(-0.003570115253 0.009524078327 -0.009256694298)
(-0.00316769583 0.01077809413 -0.01030082801)
(-0.007735417351 0.001295559786 0.008201025577)
(-0.007484713711 0.003838686083 0.008385620421)
(-0.00701528942 0.006237161518 0.008754302883)
(-0.006380026613 0.008367382023 0.009322665533)
(-0.005689925847 0.01026394922 0.01006302431)
(-0.004986485586 0.01149003798 0.01111605842)
(-0.006640070947 0.001382187549 0.007946622831)
(-0.006404058601 0.004101361355 0.008125938013)
(-0.005972544539 0.006691726338 0.008491849072)
(-0.00540609213 0.009025203872 0.009070394318)
(-0.004847697924 0.01120911616 0.009877022595)
(-0.00427671352 0.01274529441 0.01109460667)
(-0.00559678849 0.001464666817 0.00707550742)
(-0.005385847658 0.004355114816 0.007241016459)
(-0.00500980258 0.007141192493 0.007586683256)
(-0.004534830372 0.00971320279 0.008150520729)
(-0.004098159174 0.01222027625 0.008998216827)
(-0.003623389742 0.0141241923 0.01035225851)
(-0.004714954702 0.001539252394 0.005600309966)
(-0.004532338865 0.004587804507 0.005739879146)
(-0.004217004507 0.007567717785 0.006037149042)
(-0.003822581329 0.01039900896 0.006542917846)
(-0.00348549716 0.01324983707 0.007352238458)
(-0.003067615704 0.0157342576 0.008725562664)
(-0.004082358447 0.001598762392 0.003601066773)
(-0.00392308884 0.004775614859 0.003697727415)
(-0.003658245202 0.00792727269 0.003907768449)
(-0.003306795255 0.01100247396 0.004276866435)
(-0.003023591162 0.01416391435 0.004907384061)
(-0.002573539211 0.01737597666 0.006035056181)
(-0.003754575184 0.001633305024 0.001238216014)
(-0.003608276453 0.004886332153 0.001273500688)
(-0.003368671434 0.008144125089 0.001351413411)
(-0.003028043064 0.01138608437 0.001489738241)
(-0.002740538841 0.01475370055 0.001739673645)
(-0.00220149533 0.0185809963 0.002193010951)
(-0.003756605812 0.001633406533 -0.001255698658)
(-0.003610194797 0.004886628702 -0.001290627836)
(-0.00337038127 0.008144577491 -0.001367842453)
(-0.00302952532 0.01138668415 -0.001505236446)
(-0.002741769685 0.01475438035 -0.00175397392)
(-0.002202547641 0.01858166914 -0.002206188832)
(-0.004087953252 0.001599057019 -0.003616928119)
(-0.003928382386 0.004776483453 -0.003713292023)
(-0.003662941831 0.007928580431 -0.003922741991)
(-0.003310893742 0.01100419528 -0.004291033256)
(-0.003026977195 0.01416593338 -0.004920439722)
(-0.002576417811 0.01737810917 -0.006046969825)
(-0.00472299474 0.00153969309 -0.00561359951)
(-0.004539992867 0.004589107324 -0.00575297643)
(-0.004223879192 0.007569723034 -0.006049859057)
(-0.003828547626 0.01040164158 -0.006554971548)
(-0.003490499286 0.01325296391 -0.007363443487)
(-0.00307179227 0.01573777182 -0.008735661812)
(-0.005606195141 0.00146519562 -0.00708601337)
(-0.005394877991 0.004356680349 -0.007251439465)
(-0.005018099079 0.007143708122 -0.007596924148)
(-0.004542094449 0.009716548802 -0.008160376914)
(-0.004104377582 0.01222420899 -0.009007443973)
(-0.003628723067 0.01412902184 -0.01036065306)
(-0.006650083149 0.001382750419 -0.007954505668)
(-0.006413778386 0.004103041694 -0.008133821364)
(-0.005981679748 0.00669447793 -0.008499697359)
(-0.005414353619 0.009028966803 -0.009078100458)
(-0.0048550039 0.01121365373 -0.009884330588)
(-0.004283070658 0.01275100555 -0.01110120725)
(-0.007745423629 0.001296116271 -0.008206546039)
(-0.00749455808 0.003840361612 -0.008391186539)
(-0.007024781161 0.006239962456 -0.008759924898)
(-0.006388931231 0.008371343806 -0.009328275433)
(-0.005697996945 0.01026886885 -0.01006846137)
(-0.004993639806 0.0114962359 -0.01112088597)
(-0.01100249824 0.00138062703 0.008368649694)
(-0.01060624852 0.004081704593 0.008587663471)
(-0.009850463001 0.006604979339 0.009011417274)
(-0.008818801621 0.008797176985 0.009639595594)
(-0.007686135752 0.01073506149 0.01039700044)
(-0.006564197075 0.01177646779 0.01145690361)
(-0.009355935475 0.001472595334 0.008166155542)
(-0.008964033661 0.004356021629 0.008367789077)
(-0.008230086547 0.007068676197 0.008766212213)
(-0.007263984217 0.009440064036 0.009375588139)
(-0.006328854152 0.0116431391 0.01013593745)
(-0.005308336579 0.01292197075 0.01130682361)
(-0.007715571065 0.001553219349 0.007319261869)
(-0.007345639842 0.004601278934 0.007494981829)
(-0.006668073275 0.007499840344 0.007851375939)
(-0.005843269347 0.01007995988 0.008414016302)
(-0.005006267221 0.01258308856 0.009180496748)
(-0.004134700426 0.01423074772 0.01049272326)
(-0.006266737813 0.001621030317 0.00582539956)
(-0.005928231259 0.004811751106 0.005967172702)
(-0.00532506743 0.007886704122 0.006262192304)
(-0.004591869737 0.01068791958 0.006737874205)
(-0.003884080636 0.01357242496 0.007495362171)
(-0.003125264898 0.01586495087 0.008931071397)
(-0.005187369362 0.001673852091 0.003760591068)
(-0.004878313981 0.004979532362 0.00385605226)
(-0.004356565526 0.008218038066 0.004060714529)
(-0.003622057496 0.01124362804 0.004410624298)
(-0.003006223672 0.01456341516 0.00504725626)
(-0.002246139925 0.01779866336 0.006357029014)
(-0.004612998147 0.001703881044 0.001295627549)
(-0.004319584048 0.005077420052 0.001329693169)
(-0.003825028224 0.008417766809 0.001404284645)
(-0.003081708538 0.01163256842 0.001540055736)
(-0.002468731532 0.01528537984 0.001804814833)
(-0.001595672837 0.01946336991 0.002368235246)
(-0.004616500521 0.001704010578 -0.001313876841)
(-0.004322908904 0.005077802741 -0.001347538194)
(-0.003828083725 0.008418391586 -0.001421276564)
(-0.003084383661 0.01163333287 -0.001555762342)
(-0.00247086223 0.01528619396 -0.001819047885)
(-0.001597503228 0.01946394975 -0.002380951173)
(-0.005196802244 0.001674211008 -0.003776614111)
(-0.004887235438 0.004980593959 -0.003871802556)
(-0.004364415969 0.008219718932 -0.004075917455)
(-0.003629264338 0.01124581872 -0.004424775496)
(-0.003012083199 0.01456580106 -0.005060102371)
(-0.002250968233 0.01780065021 -0.006368459165)
(-0.006279762167 0.001621542623 -0.005838011671)
(-0.005940622747 0.004813267753 -0.005979666017)
(-0.005335969348 0.007889085695 -0.006274432193)
(-0.004601895846 0.01069118306 -0.006749575665)
(-0.003892397063 0.0135760939 -0.007506201996)
(-0.003132036894 0.01586852049 -0.008940845745)
(-0.007730091568 0.001553812237 -0.007328442114)
(-0.007359607562 0.004603039116 -0.00750419021)
(-0.006680926785 0.007502684868 -0.007860615578)
(-0.005854410762 0.01008377174 -0.008423289605)
(-0.00501620202 0.01258763396 -0.009189309963)
(-0.004143069602 0.01423556982 -0.01050070794)
(-0.009370687518 0.001473184006 -0.008172402231)
(-0.008978409371 0.004357783403 -0.008374170537)
(-0.008243680954 0.007071575245 -0.00877281475)
(-0.007276336543 0.009444058978 -0.009382401172)
(-0.00634003225 0.01164804618 -0.0101427371)
(-0.005318220449 0.0129275553 -0.01131311462)
(-0.01101664872 0.001381155041 -0.008372479225)
(-0.01062025284 0.004083303894 -0.008591660728)
(-0.009864119008 0.006607680866 -0.009015702226)
(-0.008831791528 0.008801003732 -0.00964418166)
(-0.007697841928 0.01073994778 -0.01040178643)
(-0.006575151295 0.01178236458 -0.01146143321)
(-0.01457529722 0.001437880689 0.007774751201)
(-0.01401799072 0.004250809155 0.008066738964)
(-0.01295751113 0.006861105848 0.008625579695)
(-0.01152997841 0.009072785004 0.009415967856)
(-0.009843529206 0.01094345254 0.01029132495)
(-0.008238566731 0.01164765983 0.01135404721)
(-0.01245629959 0.001553878316 0.007643033925)
(-0.0118961641 0.004592582581 0.007912400398)
(-0.01085000486 0.007415579909 0.008433617943)
(-0.009494863712 0.009781090569 0.009187589558)
(-0.00795157512 0.01181023152 0.009971796265)
(-0.006775244379 0.01242595011 0.01113159325)
(-0.01027286968 0.001652832547 0.006913810982)
(-0.009745036005 0.004888008426 0.007146656353)
(-0.008775116807 0.007913495229 0.007607071703)
(-0.007538691208 0.0104298781 0.008294991346)
(-0.00633847871 0.01272106951 0.009052129231)
(-0.00564178421 0.01332103811 0.01031569605)
(-0.008284506889 0.001733185139 0.005557208668)
(-0.007810300342 0.005133991171 0.005742049095)
(-0.006944168676 0.008349819975 0.006123879751)
(-0.005939014179 0.01101350788 0.006669272114)
(-0.005158456885 0.01369039094 0.007467194667)
(-0.005022069762 0.0145110459 0.008939713697)
(-0.006767638248 0.001794543918 0.003618982125)
(-0.006347705306 0.005332772885 0.003742373146)
(-0.005570578063 0.008706121928 0.004007985055)
(-0.004816819763 0.01160341343 0.004431256734)
(-0.004414725986 0.01478551227 0.005156936601)
(-0.004836774887 0.01643819976 0.006695102694)
(-0.005947764792 0.001830673227 0.001253821971)
(-0.005561434811 0.005455669798 0.001297864847)