/*--------------------------------*- C++ -*----------------------------------*\
| =========                 |                                                 |
| \\      /  F ield         | OpenFOAM: The Open Source CFD Toolbox           |
|  \\    /   O peration     | Version:  4.x                                   |
|   \\  /    A nd           | Web:      www.OpenFOAM.org                      |
|    \\/     M anipulation  |                                                 |
\*---------------------------------------------------------------------------*/
FoamFile
{
    version     2.0;
    format      ascii;
    class       surfaceScalarField;
    location    "0.94";
    object      phi;
}
// * * * * * * * * * * * * * * * * * * * * * * * * * * * * * * * * * * * * * //

dimensions      [1 0 -1 0 0 0 0];

internalField   nonuniform List<scalar> 
18092
(
3.591821732e-10
2.802164653e-08
1.459708076e-07
-1.66141777e-15
2.802407424e-08
1.459462192e-07
-3.591855743e-10
2.802407427e-08
1.459462192e-07
-7.405306858e-10
2.802164698e-08
1.459708077e-07
-1.172838517e-09
2.801728049e-08
1.460261369e-07
-1.70121702e-09
2.801144257e-08
1.461280457e-07
-2.401801337e-09
2.800732584e-08
1.463043686e-07
2.800158316e-08
1.466169358e-07
-3.409210607e-09
3.563501954e-10
2.236097893e-08
1.796519705e-07
-2.098393803e-15
2.23676901e-08
1.796238443e-07
-3.563546808e-10
2.236769017e-08
1.796238445e-07
-7.365504094e-10
2.2360979e-08
1.796519717e-07
-1.172101587e-09
2.234809402e-08
1.797158458e-07
-1.715348159e-09
2.23307809e-08
1.798350165e-07
-2.454593236e-09
2.231268071e-08
1.800449989e-07
2.229856429e-08
1.804278773e-07
-3.568343348e-09
3.898181481e-10
1.3650008e-08
1.827382226e-07
-1.963136502e-15
1.365503836e-08
1.827135794e-07
-3.898223747e-10
1.365503851e-08
1.827135796e-07
-8.059673369e-10
1.365000828e-08
1.827382234e-07
-1.281585436e-09
1.364114663e-08
1.827936731e-07
-1.868805575e-09
1.363198082e-08
1.82897128e-07
-2.65502313e-09
1.362803915e-08
1.830819674e-07
1.363826508e-08
1.834252443e-07
-3.80886032e-09
4.071634565e-10
8.41435345e-09
1.792792217e-07
-1.613467227e-15
8.415417621e-09
1.792578933e-07
-4.071670457e-10
8.415417807e-09
1.792578935e-07
-8.396276763e-10
8.414353903e-09
1.792792225e-07
-1.329669014e-09
8.413618435e-09
1.79328677e-07
-1.928154729e-09
8.416860704e-09
1.794247134e-07
-2.720282676e-09
8.429621215e-09
1.79601654e-07
8.46077751e-09
1.799355717e-07
-3.867259115e-09
4.142647617e-10
5.411590002e-09
1.770518897e-07
-1.258847514e-15
5.410961053e-09
1.770298308e-07
-4.142676038e-10
5.410961258e-09
1.77029831e-07
-8.522865958e-10
5.411590231e-09
1.770518907e-07
-1.344798217e-09
5.414165712e-09
1.771030724e-07
-1.940916429e-09
5.421846431e-09
1.772022407e-07
-2.723451655e-09
5.439194518e-09
1.773840708e-07
5.472973612e-09
1.777247952e-07
-3.849334591e-09
4.144144424e-10
1.757617752e-07
3.697331076e-09
-1.05291779e-15
1.757405204e-07
3.695963527e-09
-4.144167373e-10
1.757405205e-07
3.695963552e-09
-8.508265959e-10
1.757617761e-07
3.697331163e-09
-1.338356408e-09
1.758116075e-07
3.70119528e-09
-1.92483178e-09
1.759095209e-07
3.709908258e-09
-2.692084332e-09
1.760909747e-07
3.726580287e-09
1.764339082e-07
3.755389847e-09
-3.797301245e-09
8.886717177e-10
2.826183379e-08
1.186339367e-07
-1.145563054e-15
2.82719517e-08
1.185629378e-07
-8.886738739e-10
2.827195176e-08
1.185629379e-07
-1.813639371e-09
2.8261834e-08
1.186339369e-07
-2.817081454e-09
2.824031788e-08
1.187892589e-07
-3.953483038e-09
2.82037686e-08
1.190606765e-07
-5.302545949e-09
2.815093438e-08
1.19502495e-07
2.806939444e-08
1.202275666e-07
-6.982573216e-09
1.325461602e-09
3.076214353e-08
1.785331607e-07
-8.495731065e-16
3.077192309e-08
1.784493332e-07
-1.325463162e-09
3.077192307e-08
1.784493334e-07
-2.706964855e-09
3.076214371e-08
1.785331615e-07
-4.210601843e-09
3.07413922e-08
1.787184063e-07
-5.922923047e-09
3.070555937e-08
1.790455449e-07
-7.961790666e-09
3.064835557e-08
1.795864433e-07
3.05599276e-08
1.804907048e-07
-1.051515319e-08
1.216035325e-09
2.435429999e-08
1.904124869e-07
-1.618202555e-15
2.436000882e-08
1.90341529e-07
-1.21603858e-09
2.436000903e-08
1.903415291e-07
-2.482460883e-09
2.435430053e-08
1.904124872e-07
-3.862247762e-09
2.434347683e-08
1.905713737e-07
-5.445066999e-09
2.43263082e-08
1.908591969e-07
-7.35969633e-09
2.429595494e-08
1.913489959e-07
2.424287792e-08
1.921924721e-07
-9.80987583e-09
1.206540385e-09
1.77675732e-08
1.871199727e-07
-1.651708071e-15
1.776869043e-08
1.870557523e-07
-1.206543858e-09
1.776869074e-08
1.870557523e-07
-2.460569567e-09
1.776757398e-08
1.87119973e-07
-3.821022125e-09
1.776655192e-08
1.872660527e-07
-5.373690081e-09
1.7766399e-08
1.875372889e-07
-7.248892983e-09
1.776356044e-08
1.880092499e-07
1.775216968e-08
1.888353365e-07
-9.657951079e-09
1.207159493e-09
1.289570711e-08
1.831795085e-07
-1.840028774e-15
1.289397913e-08
1.831117018e-07
-1.207163217e-09
1.289397933e-08
1.831117019e-07
-2.462917153e-09
1.289570776e-08
1.831795088e-07
-3.826553383e-09
1.290045925e-08
1.833327994e-07
-5.38282949e-09
1.290987571e-08
1.836150383e-07
-7.260123656e-09
1.292301327e-08
1.841019103e-07
1.293631085e-08
1.849505208e-07
-9.669992215e-09
1.209825784e-09
1.803153091e-07
9.59990302e-09
-1.83624497e-15
1.802470821e-07
9.59724321e-09
-1.209829596e-09
1.802470822e-07
9.597243382e-09
-2.467560686e-09
1.803153094e-07
9.599903557e-09
-3.831753099e-09
1.804701254e-07
9.606131575e-09
-5.386470982e-09
1.807565275e-07
9.617585035e-09
-7.260774383e-09
1.812536791e-07
9.634610246e-09
1.821259587e-07
9.654905759e-09
-9.671421798e-09
1.183861925e-09
2.50485267e-08
9.480511597e-08
-2.271619231e-16
2.506410429e-08
9.468269477e-08
-1.183862405e-09
2.506410445e-08
9.468269492e-08
-2.403569815e-09
2.504852717e-08
9.480511636e-08
-3.70017833e-09
2.501671277e-08
9.506915363e-08
-5.125180006e-09
2.496722283e-08
9.551845433e-08
-6.755754442e-09
2.490567611e-08
9.622739218e-08
2.482543167e-08
9.733217493e-08
-8.685795593e-09
1.711926126e-09
3.305774814e-08
1.723003908e-07
4.123404011e-16
3.309352706e-08
1.721318363e-07
-1.71192502e-09
3.309352703e-08
1.721318363e-07
-3.488375924e-09
3.305774843e-08
1.72300391e-07
-5.404403747e-09
3.298612401e-08
1.726650225e-07
-7.551522766e-09
3.288666725e-08
1.73273219e-07
-1.006143991e-08
3.27880639e-08
1.742139723e-07
3.270411442e-08
1.756880914e-07
-1.313750984e-08
1.821329124e-09
3.023459663e-08
1.951470458e-07
8.473790226e-18
3.027515694e-08
1.949812289e-07
-1.821329106e-09
3.027515711e-08
1.949812288e-07
-3.732736002e-09
3.023459726e-08
1.951470455e-07
-5.828258869e-09
3.015658521e-08
1.954964354e-07
-8.201189051e-09
3.005694025e-08
1.960618541e-07
-1.097299516e-08
2.997539583e-08
1.9693347e-07
2.993021256e-08
1.983619456e-07
-1.436856691e-08
1.868399265e-09
2.427259465e-08
1.950268267e-07
-1.195088666e-16
2.429018981e-08
1.949091194e-07
-1.86839986e-09
2.429019014e-08
1.949091192e-07
-3.813252111e-09
2.427259553e-08
1.950268269e-07
-5.920030156e-09
2.424019762e-08
1.952892181e-07
-8.289914417e-09
2.420162555e-08
1.957624875e-07
-1.106327933e-08
2.417532606e-08
1.965826839e-07
2.417222427e-08
1.979922718e-07
-1.446222712e-08
1.901674266e-09
1.862512103e-08
1.907954639e-07
-2.978344467e-16
1.863083957e-08
1.906727265e-07
-1.901675068e-09
1.86308398e-08
1.906727266e-07
-3.870157146e-09
1.862512169e-08
1.907954641e-07
-5.98347581e-09
1.861623588e-08
1.910700788e-07
-8.341612126e-09
1.861002902e-08
1.915647699e-07
-1.108939946e-08
1.861560287e-08
1.924094194e-07
1.863778264e-08
1.938419563e-07
-1.444639494e-08
1.923560807e-09
1.865739646e-07
1.435077204e-08
-2.345178698e-16
1.864505495e-07
1.435093274e-08
-1.923561425e-09
1.864505495e-07
1.435093297e-08
-3.907868583e-09
1.865739645e-07
1.435077257e-08
-6.025623347e-09
1.868517585e-07
1.435235608e-08
-8.374293256e-09
1.87355711e-07
1.435951375e-08
-1.110193085e-08
1.8822056e-07
1.437635763e-08
1.896891786e-07
1.440266388e-08
-1.443003413e-08
2.652566662e-09
1.842512687e-08
7.805388829e-08
1.31056312e-09
1.840452749e-08
7.774259213e-08
1.416622137e-15
1.83937104e-08
7.759954592e-08
-1.310560328e-09
1.839371042e-08
7.759954602e-08
-2.652564091e-09
1.840452728e-08
7.774259223e-08
-4.062426848e-09
1.842512691e-08
7.805388864e-08
-5.58061874e-09
1.844801778e-08
7.858862734e-08
-7.251149677e-09
1.84633351e-08
7.943458675e-08
1.847807548e-08
8.071160787e-08
-9.10865952e-09
4.285332844e-09
2.970399751e-08
1.636993102e-07
2.111918341e-09
2.962482007e-08
1.632535151e-07
3.93640333e-15
2.958847801e-08
1.630489843e-07
-2.111910453e-09
2.958847777e-08
1.63048984e-07
-4.285325165e-09
2.962481906e-08
1.632535143e-07
-6.598482089e-09
2.970399659e-08
1.636993096e-07
-9.160520153e-09
2.980852021e-08
1.64474754e-07
-1.208445214e-08
2.985995134e-08
1.65741287e-07
2.985005654e-08
1.677291623e-07
-1.549750524e-08
5.012004466e-09
3.096361092e-08
1.96842032e-07
2.492095467e-09
3.09149181e-08
1.963768598e-07
5.064975124e-15
3.089917424e-08
1.961626247e-07
-2.492085769e-09
3.08991741e-08
1.961626243e-07
-5.011996168e-09
3.091491728e-08
1.963768584e-07
-7.617204947e-09
3.096361022e-08
1.968420309e-07
-1.044597646e-08
3.105253624e-08
1.976466093e-07
-1.370796587e-08
3.11143954e-08
1.989410145e-07
3.112557327e-08
2.009781709e-07
-1.759970892e-08
5.10576796e-09
2.740771484e-08
2.015581677e-07
2.521931445e-09
2.741693879e-08
2.011086449e-07
3.848375734e-15
2.742706137e-08
2.009031603e-07
-2.52192396e-09
2.742706137e-08
2.009031599e-07
-5.10576181e-09
2.741693846e-08
2.011086434e-07
-7.818814369e-09
2.740771426e-08
2.015581662e-07
-1.075415753e-08
2.74157101e-08
2.023346557e-07
-1.407623845e-08
2.743680665e-08
2.035823521e-07
2.746754288e-08
2.055713324e-07
-1.799727052e-08
5.120686139e-09
2.248575699e-08
1.987244147e-07
2.527649324e-09
2.249040186e-08
1.983150383e-07
3.520903586e-15
2.249614055e-08
1.981312925e-07
-2.527642171e-09
2.249614041e-08
1.981312924e-07
-5.120679617e-09
2.249040128e-08
1.983150376e-07
-7.853057779e-09
2.248575606e-08
1.987244137e-07
-1.081877615e-08
2.24929474e-08
1.99453249e-07
-1.415669673e-08
2.25151284e-08
2.006690156e-07
2.255186614e-08
2.026578668e-07
-1.80569335e-08
5.169725871e-09
1.941238193e-07
1.795597188e-08
2.555412258e-09
1.937215005e-07
1.795717937e-08
3.835567915e-15
1.93542242e-07
1.795985523e-08
-2.55540446e-09
1.93542242e-07
1.795985504e-08
-5.169718861e-09
1.937215002e-07
1.795717847e-08
-7.911995566e-09
1.941238188e-07
1.795597045e-08
-1.087376756e-08
1.94847463e-07
1.79629647e-08
-1.4188844e-08
1.960688302e-07
1.798193121e-08
1.980853397e-07
1.801096621e-08
-1.8044109e-08
2.760863472e-09
1.286197143e-08
6.659968576e-08
1.37552188e-09
1.28622739e-08
6.626565973e-08
2.356770801e-15
1.286381254e-08
6.611125239e-08
-1.375517231e-09
1.286381236e-08
6.611125245e-08
-2.760859168e-09
1.286227354e-08
6.626565966e-08
-4.168628188e-09
1.286197082e-08
6.65996857e-08
-5.615743753e-09
1.287062716e-08
6.716511427e-08
-7.122183618e-09
1.290387137e-08
6.803715324e-08
1.297968514e-08
6.929581689e-08
-8.686080073e-09
4.953420835e-09
2.519312643e-08
1.539706139e-07
2.453454651e-09
2.521908715e-08
1.533966692e-07
6.32969799e-15
2.523318315e-08
1.531330622e-07
-2.45344208e-09
2.52331827e-08
1.531330619e-07
-4.953408721e-09
2.521908614e-08
1.53396668e-07
-7.555865852e-09
2.519312484e-08
1.539706121e-07
-1.033301258e-08
2.516583865e-08
1.549566877e-07
-1.337299315e-08
2.517034041e-08
1.565147963e-07
2.524947766e-08
1.588363216e-07
-1.67499477e-08
5.713201412e-09
2.966960367e-08
1.953931664e-07
2.82503727e-09
2.967906393e-08
1.948050485e-07
7.595010276e-15
2.968421172e-08
1.94536626e-07
-2.825022186e-09
2.968421119e-08
1.945366256e-07
-5.71318726e-09
2.967906265e-08
1.948050469e-07
-8.740797449e-09
2.96696019e-08
1.953931634e-07
-1.200058234e-08
2.965588496e-08
1.964163465e-07
-1.559855392e-08
2.965657845e-08
1.980527457e-07
2.971884011e-08
2.005270434e-07
-1.961679147e-08
6.037430967e-09
2.833080154e-08
2.060537052e-07
2.993542147e-09
2.83445687e-08
2.054870289e-07
8.527538929e-15
2.83548051e-08
2.052260996e-07
-2.993525342e-09
2.835480454e-08
2.052260995e-07
-6.037415434e-09
2.834456725e-08
2.054870278e-07
-9.194151759e-09
2.833079954e-08
2.060537033e-07
-1.255500738e-08
2.832319974e-08
2.070281942e-07
-1.623673492e-08
2.833288043e-08
2.085877744e-07
2.838557697e-08
2.109986559e-07
-2.033079897e-08
6.132614779e-09
2.471104515e-08
2.055449055e-07
3.041076645e-09
2.472791126e-08
2.050232323e-07
8.457195139e-15
2.474014158e-08
2.047870218e-07
-3.041059977e-09
2.474014106e-08
2.047870221e-07
-6.132599305e-09
2.472790976e-08
2.050232324e-07
-9.333336248e-09
2.471104297e-08
2.055449048e-07
-1.272160401e-08
2.470139288e-08
2.064633204e-07
-1.639980561e-08
2.470904617e-08
2.079710474e-07
2.474520254e-08
2.103557474e-07
-2.045731646e-08
6.223731998e-09
2.016052046e-07
2.045550312e-08
3.090781783e-09
2.011108357e-07
2.047152382e-08
8.081519536e-15
2.008905309e-07
2.048262359e-08
-3.090765574e-09
2.008905312e-07
2.048262326e-08
-6.22371681e-09
2.011108364e-07
2.047152257e-08
-9.4495631e-09
2.016052049e-07
2.045550057e-08
-1.28377982e-08
2.024931554e-07
2.044393212e-08
-1.648316624e-08
2.039792825e-07
2.044395762e-08
2.063649152e-07
2.045692378e-08
-2.047446768e-08
2.786317252e-09
9.043052385e-09
5.891921439e-08
1.399594652e-09
9.058930491e-09
5.859345093e-08
2.611311132e-15
9.069632507e-09
5.844121059e-08
-1.399589648e-09
9.069632226e-09
5.844121082e-08
-2.786312745e-09
9.058929737e-09
5.85934515e-08
-4.148894953e-09
9.043051359e-09
5.89192151e-08
-5.480684499e-09
9.038259141e-09
5.945864295e-08
-6.779655193e-09
9.075162769e-09
6.026095905e-08
9.182745327e-09
6.135368798e-08
-8.020274035e-09
5.427589821e-09
2.082289834e-08
1.44954204e-07
2.704402776e-09
2.088716485e-08
1.442916215e-07
7.310247137e-15
2.09225074e-08
1.439845817e-07
-2.704388107e-09
2.092250715e-08
1.439845816e-07
-5.427575897e-09
2.088716413e-08
1.442916207e-07
-8.191012402e-09
2.082289678e-08
1.449542019e-07
-1.102521283e-08
2.076117529e-08
1.460679698e-07
-1.397609497e-08
2.077822849e-08
1.477626096e-07
2.094126453e-08
1.501430435e-07
-1.704133968e-08
6.389695117e-09
2.732599495e-08
1.922115281e-07
3.170029992e-09
2.737918484e-08
1.915326935e-07
8.418963563e-15
2.740672336e-08
1.912224308e-07
-3.170013126e-09
2.74067232e-08
1.912224304e-07
-6.38967913e-09
2.737918447e-08
1.915326919e-07
-9.711138579e-09
2.732599368e-08
1.922115245e-07
-1.318432769e-08
2.726559897e-08
1.933851093e-07
-1.685871668e-08
2.726325554e-08
1.95242104e-07
2.739242813e-08
1.979493305e-07
-2.07321715e-08
6.804157297e-09
2.8046222e-08
2.088338154e-07
3.386786843e-09
2.80908475e-08
2.081927357e-07
7.367934079e-15
2.811751166e-08
2.079020889e-07
-3.386771834e-09
2.811751162e-08
2.079020886e-07
-6.8041426e-09
2.809084723e-08
2.081927342e-07
-1.030448222e-08
2.804622144e-08
2.088338129e-07
-1.395903339e-08
2.800058665e-08
2.099477546e-07
-1.783239663e-08
2.799281887e-08
2.117315703e-07
2.807577381e-08
2.144046968e-07
-2.192178756e-08
7.008932694e-09
2.588602291e-08
2.112820241e-07
3.492462771e-09
2.593545053e-08
2.106950967e-07
6.384988146e-15
2.596525078e-08
2.104317365e-07
-3.492449691e-09
2.596525102e-08
2.104317368e-07
-7.008919777e-09
2.593545094e-08
2.106950969e-07
-1.058584281e-08
2.588602335e-08
2.112820238e-07
-1.427568479e-08
2.583364738e-08
2.123200987e-07
-1.813590692e-08
2.580500823e-08
2.140190766e-07
2.583038468e-08
2.166230893e-07
-2.215786349e-08
7.14388278e-09
2.087696529e-07
2.233687391e-08
3.565189044e-09
2.08234275e-07
2.239070227e-08
5.263771831e-15
2.079986932e-07
2.242226981e-08
-3.565178161e-09
2.079986937e-07
2.242227037e-08
-7.143871892e-09
2.082342761e-07
2.239070383e-08
-1.075917459e-08
2.087696539e-07
2.233687579e-08
-1.445011094e-08
2.09742224e-07
2.22755134e-08
-1.826371879e-08
2.113743087e-07
2.222358746e-08
2.139235985e-07
2.219334686e-08
-2.218536715e-08
4.108416362e-09
6.586281779e-09
5.410330275e-08
2.790876044e-09
6.585954298e-09
5.365079939e-08
1.411612028e-09
6.597207533e-09
5.337550534e-08
2.113698968e-15
6.606210278e-09
5.324660757e-08
-1.411608085e-09
6.606209915e-09
5.324660815e-08
-2.790872627e-09
6.597206686e-09
5.337550691e-08
-4.108413613e-09
6.585953264e-09
5.36508011e-08
-5.339357765e-09
6.586280992e-09
5.410330485e-08
-6.46163037e-09
6.624130312e-09
5.475910001e-08
6.727285873e-09
5.559891898e-08
-7.434149073e-09
8.590318745e-09
1.72660286e-08
1.382080524e-07
5.745537444e-09
1.729535309e-08
1.370895871e-07
2.879343754e-09
1.734015902e-08
1.364148625e-07
9.261766502e-15
1.737051133e-08
1.360996129e-07
-2.879325348e-09
1.737051079e-08
1.36099613e-07
-5.745520013e-09
1.734015816e-08
1.364148622e-07
-8.590303744e-09
1.729535219e-08
1.370895856e-07
-1.141013188e-08
1.726602778e-08
1.382080501e-07
-1.419761042e-08
1.731394119e-08
1.398602754e-07
1.750554978e-08
1.420519011e-07
-1.688473439e-08
1.048516356e-08
2.488701168e-08
1.893569727e-07
6.953313187e-09
2.495408185e-08
1.880846513e-07
3.465257268e-09
2.502592501e-08
1.873349832e-07
9.589141766e-15
2.506985387e-08
1.869883348e-07
-3.465238187e-09
2.506985368e-08
1.869883341e-07
-6.953294642e-09
2.502592493e-08
1.873349806e-07
-1.048514752e-08
2.495408253e-08
1.880846461e-07
-1.407799039e-08
2.48870132e-08
1.893569653e-07
-1.773449857e-08
2.489921511e-08
1.913133363e-07
2.507147655e-08
1.940303016e-07
-2.138139892e-08
1.126327044e-08
2.7394214e-08
2.113102498e-07
7.450368896e-09
2.748733411e-08
2.101134671e-07
3.702152543e-09
2.758735057e-08
2.093795261e-07
5.503196746e-15
2.764289506e-08
2.090311937e-07
-3.702141417e-09
2.764289573e-08
2.090311927e-07
-7.450357596e-09
2.758735282e-08
2.093795219e-07
-1.126326056e-08
2.74873379e-08
2.101134599e-07
-1.513295347e-08
2.739421894e-08
2.113102406e-07
-1.90701597e-08
2.736896868e-08
2.131990213e-07
2.747631286e-08
2.159160782e-07
-2.298637949e-08
1.168581086e-08
2.650888323e-08
2.171287377e-07
7.778900381e-09
2.662288403e-08
2.160533874e-07
3.885035812e-09
2.67283192e-08
2.154479925e-07
6.482780396e-16
2.678761786e-08
2.151720482e-07
-3.88503415e-09
2.678761938e-08
2.151720475e-07
-7.778897505e-09
2.672832376e-08
2.154479894e-07
-1.168580776e-08
2.662289112e-08
2.160533809e-07
-1.5609112e-08
2.65088925e-08
2.171287293e-07
-1.954560757e-08
2.643093325e-08
2.188936071e-07
2.643567386e-08
2.215202162e-07
-2.340209668e-08
1.193474886e-08
2.163927202e-07
2.379200191e-08
7.97569667e-09
2.15426581e-07
2.392501054e-08
3.99457535e-09
2.149092966e-07
2.403441866e-08
-2.179416077e-15
2.146858249e-07
2.409506352e-08
-3.994579066e-09
2.146858241e-07
2.409506599e-08
-7.975698272e-09
2.149092935e-07
2.403442613e-08
-1.193474905e-08
2.15426575e-07
2.392502183e-08
-1.586836076e-08
2.163927131e-07
2.379201618e-08
-1.975741584e-08
2.180288668e-07
2.366543085e-08
2.205391312e-07
2.357582639e-08
-2.351310122e-08
6.292830174e-09
5.259506948e-09
5.108257403e-08
5.31303362e-09
5.181764594e-09
5.055712874e-08
4.152923091e-09
5.168037992e-09
5.00953725e-08
2.850768303e-09
5.184075751e-09
4.976887431e-08
1.450280712e-09
5.203096078e-09
4.957289253e-08
-1.262610415e-15
5.213436479e-09
4.948344804e-08
-1.450283639e-09
5.213436268e-09
4.948344916e-08
-2.850772223e-09
5.203096107e-09
4.957289526e-08
-4.152926366e-09
5.184074977e-09
4.976887799e-08
-5.313035361e-09
5.168036856e-09
5.009537621e-08
-6.292830791e-09
5.181763833e-09
5.055713149e-08
5.259506857e-09
5.108257462e-08
-7.035993844e-09
1.431825623e-08
1.511333161e-08
1.344360459e-07
1.173293816e-08
1.495512424e-08
1.326722375e-07
8.956528905e-09
1.494054866e-08
1.312119507e-07
6.046073978e-09
1.499550505e-08
1.301886107e-07
3.045675801e-09
1.505035831e-08
1.295679945e-07
8.776216074e-15
1.507873712e-08
1.29279974e-07
-3.045658878e-09
1.507873644e-08
1.292799753e-07
-6.046058519e-09
1.5050357e-08
1.295679974e-07
-8.956515937e-09
1.499550269e-08
1.30188614e-07
-1.173292795e-08
1.494054594e-08
1.312119533e-07
-1.431824838e-08
1.495512251e-08
1.326722377e-07
1.511333142e-08
1.344360408e-07
-1.655621277e-08
1.843188132e-08
2.325040433e-08
1.891492747e-07
1.487914882e-08
2.313500564e-08
1.866861978e-07
1.121714035e-08
2.318535465e-08
1.847741777e-07
7.505467465e-09
2.330493251e-08
1.834868982e-07
3.76251325e-09
2.339911018e-08
1.827291847e-07
1.604894367e-14
2.344508745e-08
1.823844794e-07
-3.762481946e-09
2.34450867e-08
1.823844796e-07
-7.505438366e-09
2.33991085e-08
1.827291841e-07
-1.121711585e-08
2.330493031e-08
1.834868957e-07
-1.487912988e-08
2.31853533e-08
1.847741727e-07
-1.843186697e-08
2.313500611e-08
1.866861905e-07
2.325040686e-08
1.89149263e-07
-2.168790368e-08
2.019702122e-08
2.698547987e-08
2.157983357e-07
1.627085875e-08
2.699201041e-08
2.132681927e-07
1.226498559e-08
2.712840269e-08
2.113730794e-07
8.255694173e-09
2.730392131e-08
2.101237731e-07
4.175692084e-09
2.747345491e-08
2.093851852e-07
1.406954332e-14
2.759423504e-08
2.090577247e-07
-4.175665918e-09
2.759423535e-08
2.090577244e-07
-8.255670958e-09
2.747345488e-08
2.093851812e-07
-1.226496518e-08
2.730392156e-08
2.101237641e-07
-1.627084189e-08
2.712840528e-08
2.11373067e-07
-2.019700748e-08
2.699201591e-08
2.132681788e-07
2.698548621e-08
2.157983205e-07
-2.381432801e-08
2.09194505e-08
2.250176976e-07
1.695413857e-08
2.226205429e-07
1.282902769e-08
2.745670661e-08
2.209255518e-07
8.611290821e-09
2.770034544e-08
2.198747048e-07
4.32411731e-09
2.791001351e-08
2.192986105e-07
5.971802565e-15
2.803827659e-08
2.190521205e-07
-4.324105346e-09
2.803827735e-08
2.19052119e-07
-8.611279003e-09
2.791001552e-08
2.192986049e-07
-1.282901666e-08
2.770034953e-08
2.198746932e-07
-1.695412902e-08
2.74567141e-08
2.209255359e-07
-2.091944274e-08
2.723041419e-08
2.226205254e-07
2.708397076e-08
2.250176788e-07
-2.451538762e-08
1.324079286e-08
2.224115135e-07
2.558089596e-08
8.927420198e-09
2.215648801e-07
2.587542454e-08
4.494246294e-09
2.21140749e-07
2.611173905e-08
1.013922618e-15
2.209723372e-07
2.624601292e-08
-4.494243762e-09
2.209723353e-07
2.624601414e-08
-8.927416498e-09
2.211407424e-07
2.611174281e-08
-1.32407878e-08
2.215648681e-07
2.587543168e-08
-1.738376084e-08
2.224114975e-07
2.558090723e-08
-2.129497204e-08
2.238832312e-07
2.528726548e-08
2.260815754e-07
2.501569694e-08
-2.476913837e-08
6.315906025e-09
4.475478778e-09
4.715907565e-08
5.449609652e-09
4.441445261e-09
4.698197462e-08
4.32854629e-09
4.468213895e-09
4.674821382e-08
3.005329641e-09
4.517639525e-09
4.657444306e-08
1.539337667e-09
4.566107759e-09
4.647276917e-08
-8.585753706e-15
4.593672519e-09
4.642911393e-08
-1.539355787e-09
4.593672801e-09
4.64291153e-08
-3.005348752e-09
4.566108505e-09
4.647277298e-08
-4.328563064e-09
4.517640258e-09
4.657444831e-08
-5.449621326e-09
4.468214124e-09
4.674821968e-08
-6.315913562e-09
4.44144503e-09
4.698197967e-08
4.475478658e-09
4.715907851e-08
-6.867895335e-09
1.449631569e-08
1.366034694e-08
1.27020826e-07
1.213374215e-08
1.358245479e-08
1.258937933e-07
9.41184142e-09
1.364791176e-08
1.247541428e-07
6.425942896e-09
1.37764628e-08
1.239156743e-07
3.258718523e-09
1.390436708e-08
1.233969475e-07
-3.89207905e-15
1.397613317e-08
1.231562227e-07
-3.258727382e-09
1.397613329e-08
1.231562256e-07
-6.425953644e-09
1.390436676e-08
1.23396956e-07
-9.411851594e-09
1.377646091e-08
1.239156873e-07
-1.213374898e-08
1.364790805e-08
1.247541574e-07
-1.449631882e-08
1.358245039e-08
1.258938049e-07
1.366034335e-08
1.270208282e-07
-1.626596868e-08
1.910635134e-08
2.221639504e-08
1.83340869e-07
1.572001854e-08
2.220117188e-08
1.814538118e-07
1.2029025e-08
2.236628853e-08
1.79746791e-07
8.138916209e-09
2.261379732e-08
1.785396671e-07
4.105760218e-09
2.286110885e-08
1.778055923e-07
1.601022691e-14
2.299898958e-08
1.774673599e-07
-4.105729995e-09
2.299898929e-08
1.774673623e-07
-8.138890411e-09
2.286110747e-08
1.778055987e-07
-1.2029004e-08
2.261379241e-08
1.785396764e-07
-1.572000179e-08
2.236628004e-08
1.797468004e-07
-1.910633774e-08
2.220116244e-08
1.814538179e-07
2.221638761e-08
1.833408645e-07
-2.185397998e-08
2.135556056e-08
2.699437128e-08
2.141893295e-07
1.751963113e-08
2.717996326e-08
2.121253328e-07
1.337469454e-08
2.749374776e-08
2.103905585e-07
9.032599048e-09
2.784907735e-08
2.092305893e-07
4.546335293e-09
2.815336498e-08
2.085791927e-07
1.964256161e-14
2.83251165e-08
2.082779127e-07
-4.546295788e-09
2.832511484e-08
2.082779132e-07
-9.032561705e-09
2.815336002e-08
2.085791944e-07
-1.337466222e-08
2.784906961e-08
2.092305896e-07
-1.751960511e-08
2.749373793e-08
2.103905566e-07
-2.13555404e-08
2.717995456e-08
2.12125328e-07
2.699436412e-08
2.141893168e-07
-2.452450749e-08
2.245790318e-08
2.271093124e-07
1.846876841e-08
2.252650838e-07
1.412341446e-08
2.896854189e-08
2.237961164e-07
9.551719878e-09
2.940107164e-08
2.228944105e-07
4.818972605e-09
2.975302287e-08
2.224317046e-07
2.511421757e-14
2.995306916e-08
2.222431192e-07
-4.818924013e-09
2.995306737e-08
2.222431186e-07
-9.55167626e-09
2.975301774e-08
2.224317026e-07
-1.412337829e-08
2.940106433e-08
2.228944058e-07
-1.846874016e-08
2.896853379e-08
2.237961088e-07
-2.245788569e-08
2.852456157e-08
2.252650721e-07
2.813872093e-08
2.271092947e-07
-2.569385042e-08
1.479566626e-08
2.279413041e-07
2.786866406e-08
1.004570891e-08
2.273563095e-07
2.835960669e-08
5.078117875e-09
2.271258984e-07
2.873547048e-08
2.521998312e-14
2.270618955e-07
2.894160822e-08
-5.078069403e-09
2.270618951e-07
2.89416063e-08
-1.004566592e-08
2.271258965e-07
2.873546508e-08
-1.479563016e-08
2.273563054e-07
2.835959851e-08
-1.922553817e-08
2.279412948e-07
2.78686533e-08
-2.319778243e-08
2.290587845e-07
2.732126254e-08
2.305575236e-07
2.676306227e-08
-2.629806177e-08
6.561475005e-09
4.107832278e-09
4.343761014e-08
5.782577057e-09
4.160275467e-09
4.360058919e-08
4.66341145e-09
4.252695505e-09
4.361467278e-08
3.271934537e-09
4.353941877e-09
4.361196732e-08
1.686792877e-09
4.438920034e-09
4.361898163e-08
-1.718364081e-14
4.488378913e-09
4.362753529e-08
-1.686828224e-09
4.488379401e-09
4.362753618e-08
-3.271970317e-09
4.43892123e-09
4.361898435e-08
-4.663442808e-09
4.353943952e-09
4.361197111e-08
-5.782599775e-09
4.252697908e-09
4.361467723e-08
-6.561490329e-09
4.160277594e-09
4.360059351e-08
4.107833137e-09
4.343761366e-08
-6.947857644e-09
1.484338735e-08
1.291411491e-08
1.195450403e-07
1.272759918e-08
1.303528609e-08
1.191345471e-07
1.004005961e-08
1.326378577e-08
1.184305655e-07
6.935876436e-09
1.351942044e-08
1.178543533e-07
3.543250848e-09
1.374049269e-08
1.174879752e-07
-3.192147484e-14
1.387131393e-08
1.17316544e-07
-3.54331512e-09
1.387131447e-08
1.17316548e-07
-6.935939649e-09
1.374049386e-08
1.174879877e-07
-1.004011544e-08
1.351942181e-08
1.178543739e-07
-1.272764112e-08
1.326378731e-08
1.18430591e-07
-1.484341479e-08
1.303528716e-08
1.191345706e-07
1.291411571e-08
1.195450532e-07
-1.617392027e-08
1.990821057e-08
2.185671001e-08
1.766106705e-07
1.673233205e-08
2.214261699e-08
1.755223417e-07
1.299977874e-08
2.255995636e-08
1.741831506e-07
8.88408481e-09
2.300038015e-08
1.731743771e-07
4.511396989e-09
2.336672696e-08
1.725520225e-07
-6.225598328e-15
2.359018211e-08
1.722598718e-07
-4.51141099e-09
2.35901817e-08
1.722598783e-07
-8.884100977e-09
2.336672372e-08
1.725520425e-07
-1.299979384e-08
2.30003741e-08
1.73174409e-07
-1.673234241e-08
2.255994744e-08
1.741831886e-07
-1.990821472e-08
2.214260639e-08
1.75522375e-07
2.185670087e-08
1.766106854e-07
-2.212061636e-08
2.271833967e-08
2.771684917e-08
2.110459903e-07
1.896789215e-08
2.827802556e-08
2.097403619e-07
1.465683363e-08
2.894380059e-08
2.083177603e-07
9.963271271e-09
2.958809638e-08
2.073364225e-07
5.035446731e-09
3.007599137e-08
2.067977408e-07
2.061811904e-14
3.034507598e-08
2.065584336e-07
-5.035406468e-09
3.034507229e-08
2.065584394e-07
-9.963235081e-09
3.007598041e-08
2.067977592e-07
-1.465680418e-08
2.95880803e-08
2.073364512e-07
-1.896786865e-08
2.894378056e-08
2.083177924e-07
-2.271831963e-08
2.82780063e-08
2.097403871e-07
2.771682982e-08
2.110459965e-07
-2.543511977e-08
2.442821094e-08
2.276574692e-07
2.046249357e-08
2.266527007e-07
1.586743008e-08
3.176413552e-08
2.255708415e-07
1.083760387e-08
3.26036499e-08
2.249086814e-07
5.500040017e-09
3.324252286e-08
2.246027359e-07
4.069545826e-14
3.358799726e-08
2.245001961e-07
-5.49996205e-09
3.35879908e-08
2.245002018e-07
-1.083753549e-08
3.324250494e-08
2.246027522e-07
-1.58673749e-08
3.260362398e-08
2.249087058e-07
-2.046244963e-08
3.176410597e-08
2.25570869e-07
-2.442818128e-08
3.085610556e-08
2.266527186e-07
2.999198086e-08
2.276574735e-07
-2.725149701e-08
1.692187063e-08
2.328715728e-07
3.158598705e-08
1.161287374e-08
2.326893528e-07
3.257960894e-08
5.910690808e-09
2.327436004e-07
3.332700817e-08
4.86939436e-14
2.328333613e-07
3.372717694e-08
-5.910597866e-09
2.328333661e-07
3.372716858e-08
-1.161279258e-08
2.327436147e-07
3.332698474e-08
-1.692180362e-08
2.326893752e-07
3.257957415e-08
-2.167392719e-08
2.328715965e-07
3.158594314e-08
-2.565098787e-08
2.334116343e-07
3.048033484e-08
2.339097446e-07
2.938949011e-08
-2.840070015e-08
7.056884479e-09
4.003512058e-09
3.967019597e-08
6.336660256e-09
4.171395439e-09
4.014941046e-08
5.181235444e-09
4.355357101e-09
4.041473023e-08
3.668230106e-09
4.529752429e-09
4.059521102e-08
1.900804358e-09
4.662742527e-09
4.072365747e-08
-2.078298788e-14
4.735521295e-09
4.079283009e-08
-1.900846803e-09
4.735521445e-09
4.079282927e-08
-3.668272837e-09
4.66274408e-09
4.072365523e-08
-5.181272391e-09
4.529755206e-09
4.059520811e-08
-6.336686802e-09
4.35536121e-09
4.041472719e-08
-7.05690153e-09
4.171399603e-09
4.01494078e-08
4.003513795e-09
3.967019356e-08
-7.292995934e-09
1.546351061e-08
1.273268465e-08
1.117323478e-07
1.357619094e-08
1.31430113e-08
1.120502201e-07
1.089341593e-08
1.361166924e-08
1.118569956e-07
7.611881811e-09
1.405802972e-08
1.116075781e-07
3.914421618e-09
1.440573034e-08
1.114424148e-07
-6.212000795e-14
1.459908745e-08
1.11367426e-07
-3.914544702e-09
1.459908845e-08
1.113674275e-07
-7.611998367e-09
1.440573451e-08
1.114424206e-07
-1.089351689e-08
1.405803775e-08
1.116075896e-07
-1.357626811e-08
1.361168073e-08
1.118570119e-07
-1.546356336e-08
1.314302434e-08
1.120502363e-07
1.273269708e-08
1.117323559e-07
-1.638005253e-08
2.086558658e-08
2.219253883e-08
1.688344349e-07
1.796970994e-08
2.290769526e-08
1.686534911e-07
1.418709018e-08
2.371138345e-08
1.678660072e-07
9.798532027e-09
2.44599803e-08
1.67160935e-07
5.003410797e-09
2.504021569e-08