/*--------------------------------*- C++ -*----------------------------------*\
  =========                 |
  \\      /  F ield         | OpenFOAM: The Open Source CFD Toolbox
   \\    /   O peration     | Website:  https://openfoam.org
    \\  /    A nd           | Version:  7
     \\/     M anipulation  |
\*---------------------------------------------------------------------------*/
FoamFile
{
    version     2.0;
    format      ascii;
    class       volScalarField;
    location    "0.0035";
    object      Uy;
}
// * * * * * * * * * * * * * * * * * * * * * * * * * * * * * * * * * * * * * //

dimensions      [0 1 -1 0 0 0 0];

internalField   nonuniform List<scalar> 
5000
(
7.2849011e-22
9.9045909e-22
0
0
-4.7916245e-22
5.2022806e-37
4.1566194e-22
0
0
-4.7285929e-22
-9.6242346e-22
4.833272e-22
4.8357325e-22
-4.8361867e-22
0
-4.8206704e-22
-1.2774402e-51
4.7879667e-22
0
4.7389645e-22
-4.7135434e-22
-4.6940811e-22
9.3642829e-22
-4.659884e-22
-4.6369925e-22
-3.8312997e-36
4.6881705e-22
4.7311736e-22
-9.5267609e-22
8.2936398e-36
-8.3804656e-36
4.795349e-22
9.5793284e-22
-9.562069e-22
8.265271e-36
-4.1293576e-35
-1.6382637e-35
9.4092891e-22
-9.3640509e-22
-9.3268188e-22
9.346889e-22
-3.2375165e-35
-9.4866997e-22
4.7719539e-22
1.4381874e-21
-4.7998606e-22
-4.7877942e-22
-3.2635306e-35
-9.4678932e-22
0
4.6849846e-22
6.6299558e-38
-4.6795562e-22
9.4370704e-22
-1.6643626e-35
-9.583249e-22
4.8073248e-22
-1.6568763e-35
-4.7629305e-22
0
4.6887426e-22
1.5882715e-35
1.3246152e-37
4.7078276e-22
-4.7634163e-22
1.6789834e-35
4.8127694e-22
-4.7924995e-22
-4.758315e-22
4.732951e-22
4.7061498e-22
-4.6943419e-22
-4.7244661e-22
9.5414171e-22
4.8072364e-22
-4.8133255e-22
0
4.7752557e-22
-6.7639674e-38
-4.7485598e-22
4.7524939e-22
-1.356624e-37
1.3634132e-37
4.812073e-22
4.8107128e-22
1.6707376e-35
-4.7892127e-22
0
-4.7769091e-22
-4.9610798e-35
-1.6764034e-35
4.8087846e-22
4.8144776e-22
-9.6233949e-22
-3.3266977e-35
4.8035631e-22
0
0
-4.8056238e-22
-3.3363779e-35
9.6273911e-22
-4.8125872e-22
-9.6213154e-22
0
4.8082775e-22
4.8091447e-22
-4.8106716e-22
-4.811398e-22
0
0
4.8078216e-22
4.8074022e-22
0
-4.8090109e-22
1.680668e-35
4.805587e-22
-4.8032214e-22
1.3645683e-37
-1.6782688e-35
-1.3596436e-54
9.6055353e-22
-2.0468886e-37
-4.7988064e-22
0
-4.7935146e-22
4.7925653e-22
4.7931361e-22
-9.5852216e-22
-4.7892346e-22
9.5696458e-22
4.7813055e-22
-4.7786e-22
-4.7765024e-22
-4.7742521e-22
0
4.7669595e-22
4.7631642e-22
-4.7595428e-22
-1.6496344e-35
4.7570197e-22
-4.7561066e-22
-4.7528266e-22
0
4.7438653e-22
4.740063e-22
-4.736522e-22
4.7333637e-22
-2.6889293e-37
-4.7274825e-22
4.7243966e-22
-4.7209975e-22
3.284513e-35
4.7117736e-22
-4.7062014e-22
4.7010876e-22
4.6963391e-22
-4.6919068e-22
0
0
-4.6810307e-22
-4.6762155e-22
4.6713649e-22
4.6669058e-22
-4.6627001e-22
-3.2305765e-35
4.6539237e-22
-4.6491524e-22
-4.6441745e-22
0
4.6333451e-22
4.6272833e-22
0
-4.6141497e-22
-4.6076183e-22
0
4.5966665e-22
9.5554659e-35
-4.5910529e-22
4.590554e-22
4.5915188e-22
-4.58089e-22
-3.1641943e-35
3.1607056e-35
1.9581185e-37
4.5827915e-22
-4.565717e-22
-6.296698e-35
3.0991615e-35
-3.0716806e-35
4.4241565e-22
0
0
-4.3643625e-22
-4.3938963e-22
0
0
4.7220748e-22
-8.1911731e-52
-5.0641119e-22
0
5.136793e-22
-4.6623549e-22
-1.1215825e-34
8.6732358e-22
-3.9676977e-26
-2.0267901e-35
-9.1360657e-38
-4.6559105e-22
3.6653774e-22
-5.9955155e-38
-6.5136494e-35
3.3023972e-35
-4.6606705e-22
0
4.5340485e-22
3.0809879e-35
1.2210257e-34
4.3779364e-22
0
-4.3380454e-22
-4.3256201e-22
0
0
0
4.3618517e-22
3.0186544e-35
-4.3552907e-22
0
0
4.3648499e-22
4.3716181e-22
-4.3605845e-22
-4.3445272e-22
0
4.3070237e-22
4.3142052e-22
-4.3405368e-22
-4.3552087e-22
0
4.3297238e-22
-1.1963695e-34
-2.9773262e-35
4.2988617e-22
-4.324379e-22
-4.3474201e-22
0
4.3325928e-22
-5.9988203e-35
4.300024e-22
5.951395e-35
-8.611277e-22
4.3336757e-22
-6.0321096e-35
-1.5074517e-34
-2.9948066e-35
-4.3130921e-22
4.3022639e-22
4.3038934e-22
0
-4.3418953e-22
-4.3513749e-22
0
4.3392574e-22
4.3340727e-22
-8.665196e-22
-4.3371809e-22
4.3448387e-22
4.3475943e-22
1.204451e-34
-4.3361331e-22
4.339194e-22
-3.0208639e-35
-4.3676607e-22
4.3640059e-22
-3.023751e-35
3.0174634e-35
-1.2274463e-37
-2.985536e-35
4.350907e-22
0
0
-4.3858255e-22
-4.3683355e-22
0
0
0
0
4.4048828e-22
3.0443612e-35
-8.8268056e-22
1.8771499e-37
4.3963833e-22
4.3887714e-22
-6.0875722e-35
-6.0916671e-35
-6.2822312e-38
-4.4388603e-22
-4.4394894e-22
-4.4285795e-22
8.833385e-22
1.3216818e-21
-4.4047244e-22
-8.8498577e-22
0
4.4687475e-22
4.4613833e-22
-4.4495182e-22
1.2615632e-37
-1.8896891e-37
1.262926e-37
4.4680875e-22
4.4864737e-22
-4.4859121e-22
-8.9569912e-22
4.4716337e-22
-5.5350266e-53
4.4769312e-22
1.2445177e-34
-9.0023692e-22
0
0
8.9847003e-22
-2.4962821e-34
-9.0145466e-22
0
4.5212544e-22
4.5170877e-22
-4.512217e-22
6.409256e-38
-6.2762014e-35
6.4388553e-38
4.5326383e-22
-4.5296376e-22
-4.521678e-22
0
4.5252011e-22
-6.3029924e-35
-4.5489986e-22
9.0923166e-22
-1.2580992e-34
-4.5257951e-22
-1.2569338e-34
-9.0916219e-22
9.118308e-22
4.5545756e-22
-4.5441105e-22
-6.4324468e-38
-4.5144045e-22
0
0
4.5783417e-22
-6.3330688e-35
-9.0898144e-22
6.420455e-38
1.3498767e-21
-4.5111104e-22
-4.5479331e-22
9.1675334e-22
-4.5908458e-22
4.5692826e-22
9.0938045e-22
-4.5261862e-22
-4.5127311e-22
-4.5251378e-22
4.5554724e-22
4.3012971e-54
-4.5925271e-22
4.574554e-22
-4.5553076e-22
4.5373663e-22
1.2535342e-34
1.2870869e-37
4.5527472e-22
-9.1584935e-22
4.5854034e-22
1.2684819e-34
-1.2620378e-34
-4.5306767e-22
-9.0359296e-22
1.3593945e-21
1.2657745e-34
-2.5411759e-34
1.2667745e-34
-9.1044729e-22
9.0606908e-22
-1.2520836e-34
-9.0342578e-22
0
0
4.5734359e-22
-6.3230929e-35
-4.5429748e-22
-4.5269622e-22
4.5176186e-22
1.3595038e-21
-4.5561265e-22
-4.5670643e-22
-1.2948522e-37
-4.5405436e-22
0
9.0296083e-22
9.0501594e-22
-4.5500269e-22
-9.1275274e-22
-4.5523035e-22
9.0693484e-22
9.0353306e-22
-9.0118154e-22
-9.0287437e-22
0
9.1087504e-22
-4.5476189e-22
-9.0672316e-22
4.5165321e-22
4.5046001e-22
-6.4094266e-38
6.2932539e-35
4.5470089e-22
-4.5429231e-22
-4.5317132e-22
4.5163204e-22
-6.2492437e-35
-6.4110344e-38
-6.2865306e-35
-4.5459021e-22
4.5393166e-22
-1.8854617e-34
-6.2642296e-35
-1.2494099e-34
-4.5101008e-22
4.5330874e-22
-6.313979e-35
-1.2583802e-34
-6.4278309e-38
-9.0157272e-22
-4.4975968e-22
4.5075705e-22
9.065059e-22
-6.3142408e-35
-9.0771681e-22
-4.5226339e-22
9.0140966e-22
4.4966534e-22
-4.5067544e-22
-4.5324912e-22
-1.2623618e-34
4.539216e-22
0
0
4.4963219e-22
0
-4.5323359e-22
4.5471774e-22
6.4495126e-38
-1.2553894e-34
0
-4.4938282e-22
4.5022662e-22
4.5284987e-22
-9.090556e-22
-4.5412351e-22
4.5274429e-22
0
0
-4.4994673e-22
1.2562499e-34
4.5402326e-22
0
0
-4.5138914e-22
1.8750694e-34
4.4989372e-22
0
0
0
0
0
0
0
0
9.049632e-22
2.5170416e-34
-4.529648e-22
4.5205136e-22
-4.5139018e-22
4.510534e-22
-1.2542294e-34
-4.5149182e-22
-1.2535119e-34
-4.5083622e-22
0
0
4.5084393e-22
1.250126e-34
-4.4927308e-22
0
0
0
0
0
0
0
8.8936018e-22
-3.6888902e-34
-8.8682202e-22
4.4545591e-22
6.347733e-38
4.4588633e-22
-2.462235e-34
-8.8371615e-22
-4.4004204e-22
5.6364664e-53
1.3239368e-21
0
-8.8584116e-22
0
0
8.7488779e-22
-1.209653e-34
-1.3096102e-21
4.3800767e-22
4.385027e-22
-4.3715906e-22
4.353543e-22
-4.3371422e-22
-1.1994812e-34
4.3219671e-22
-4.3267637e-22
0
-4.3168302e-22
4.3025917e-22
8.578294e-22
-4.2782108e-22
-4.2755453e-22
-4.2740659e-22
-4.26389e-22
8.4992543e-22
4.2350487e-22
-4.2222648e-22
0
4.2155258e-22
-4.2058421e-22
-4.1902944e-22
1.2513826e-21
1.1806501e-37
-8.2895449e-22
4.1469217e-22
5.7565826e-35
4.1333498e-22
-1.1697133e-37
-8.1946526e-22
4.0822712e-22
0
-1.1304579e-34
-5.7728353e-38
-4.0490019e-22
4.0319192e-22
-1.1154207e-34
-5.5606736e-35
-5.6861274e-38
-3.9885285e-22
3.9720641e-22
5.3875775e-53
-1.091822e-34
-5.5747747e-38
-7.8499232e-22
-5.4397072e-35
3.9020936e-22
0
0
-3.8330198e-22
-1.5932291e-34
3.8352257e-22
-3.8323387e-22
5.2909895e-35
4.069852e-52
-5.2208666e-35
3.7398919e-22
3.7371716e-22
5.1933382e-35
-3.7412507e-22
0
0
3.6693158e-22
-3.6489045e-22
3.0350043e-34
3.6538064e-22
-3.6518556e-22
0
3.6042573e-22
3.57911e-22
-3.558266e-22
-3.5537995e-22
0
3.5633631e-22
3.5455423e-22
-7.0425148e-22
-3.4967956e-22
3.4757505e-22
3.466619e-22
4.8143815e-35
3.4757502e-22
9.6309239e-35
-6.9003532e-22
0
0
0
3.3961999e-22
3.3935802e-22
0
-3.3776757e-22
-4.6640107e-35
3.354015e-22
0
0
-3.3146292e-22
-4.5816398e-35
4.5726839e-35
-3.3005297e-22
3.2966527e-22
-1.3670342e-34
-3.2724039e-22
0
-3.2511509e-22
-4.5087846e-35
3.2446805e-22
-3.2367162e-22
3.2240982e-22
3.2114903e-22
-3.2044407e-22
0
3.2113405e-22
3.2047198e-22
-3.1940816e-22
-3.1815222e-22
0
-3.1739501e-22
3.1773101e-22
3.1720605e-22
-3.1630418e-22
-6.3019792e-22
1.7453901e-34
9.4493055e-22
1.4260074e-53
-3.1586769e-22
-6.3027032e-22
1.7419756e-34
6.2623181e-22
-3.1322553e-22
3.1431016e-22
-3.1535065e-22
-3.1588882e-22
6.320824e-22
0
0
-6.3280655e-22
7.9229025e-53
6.3413798e-22
0
0
-6.3542944e-22
8.7364096e-53
6.3634349e-22
0
0
-6.3793012e-22
-3.1926753e-22
6.394313e-22
3.2035081e-22
0
-6.4380084e-22
1.7898324e-34
6.445051e-22
-3.2203087e-22
0
3.2159139e-22
-3.2154792e-22
4.5656755e-38
3.2139868e-22
-3.2272068e-22
3.2485545e-22
3.2709465e-22
-3.2908556e-22
-3.3067133e-22
9.213091e-35
3.3229499e-22
-3.323203e-22
-9.227199e-35
3.3242577e-22
-3.3283017e-22
3.3310592e-22
3.3346027e-22
-3.3466306e-22
-3.3655968e-22
9.4022139e-35
3.4041081e-22
-3.4163763e-22
4.8647639e-38
3.4282979e-22
-3.4330452e-22
3.4398538e-22
3.4470297e-22
-3.4554551e-22
-6.9359927e-22
1.9347197e-34
6.9897427e-22
-3.5068926e-22
5.0006859e-38
7.062356e-22
1.0071013e-37
-3.555551e-22
0
3.5797497e-22
0
-3.6039307e-22
0
0
0
-3.6519421e-22
5.6267873e-53
3.6756571e-22
0
3.6990777e-22
-1.0303747e-34
-3.7221265e-22
0
0
0
-3.7667204e-22
1.0489353e-34
3.7881064e-22
0
3.808861e-22
1.0599264e-34
-3.8290948e-22
0
3.8489367e-22
-3.8586795e-22
2.149387e-34
3.8777231e-22
-3.8870229e-22
0
-3.9051817e-22
-1.0868952e-34
3.9232613e-22
0
3.9412926e-22
-3.9502471e-22
-2.1987566e-34
3.967979e-22
-2.2079363e-34
-5.6634666e-38
1.1095637e-34
-5.6873679e-38
-4.0103157e-22
0
4.0261935e-22
-1.1195513e-34
-1.1216298e-34
-3.4500126e-53
-1.1262039e-34
0
-8.1387013e-22
-1.1317781e-34
4.0820977e-22
-4.0881453e-22
1.1362339e-34
4.0995781e-22
4.1049506e-22
1.1412915e-34
-1.1426535e-34
4.1196634e-22
-4.1240923e-22
-4.1282771e-22
0
-4.1358982e-22
1.1494113e-34
4.1425164e-22
0
0
0
-8.3053029e-22
4.6145104e-34
8.3122457e-22
0
0
0
0
0
0
0
-8.3175599e-22
2.3102609e-34
8.3130475e-22
4.154933e-22
-4.1530331e-22
-4.1508093e-22
1.1524804e-34
2.2998414e-34
4.1422599e-22
-4.138936e-22
4.1356008e-22
4.1322332e-22
-4.1287253e-22
-4.1250333e-22
2.287562e-34
4.1171387e-22
4.1129334e-22
-1.1396939e-34
-4.103977e-22
-4.0992179e-22
4.0942645e-22
4.0891173e-22
-4.0837687e-22
4.0782172e-22
0
-4.0664924e-22
-4.0603159e-22
1.1245432e-34
4.0473312e-22
-4.0405221e-22
4.0334959e-22
4.0262582e-22
-4.0188084e-22
4.0111437e-22
1.1116296e-34
-3.995206e-22
-3.9869454e-22
-5.653785e-38
7.9397506e-22
2.1992713e-34
-3.9521661e-22
-3.9431055e-22
0
3.9246191e-22
0
0
0
3.8863809e-22
3.8765712e-22
-3.8666648e-22
-3.8566646e-22
0
3.8363823e-22
-1.0629771e-34
-3.8157384e-22
0
0
3.7841124e-22
-2.0945268e-34
-3.7626194e-22
0
0
3.7298199e-22
-2.0641884e-34
-3.7076155e-22
0
3.6851742e-22
-1.0201605e-34
1.0164876e-34
-1.0138434e-34
-3.6396799e-22
0
-3.6166885e-22
2.0006168e-34
3.5935725e-22
0
3.5703657e-22
-3.5587375e-22
-3.5470958e-22
7.0708943e-22
9.7948917e-35
-7.0242886e-22
9.7201872e-35
3.4888625e-22
0
0
3.4540719e-22
-9.5543287e-35
-3.4310243e-22
0
3.4081539e-22
-3.3967966e-22
-3.3855004e-22
3.3742711e-22
0
-3.3520311e-22
3.3410295e-22
1.8484653e-34
-1.8424548e-34
3.3085447e-22
-2.7463454e-34
3.2873486e-22
-3.2768966e-22
9.0659092e-35
-1.8084177e-34
-6.492291e-22
8.9768095e-35
3.2261607e-22
0
0
0
-6.3749047e-22
-3.1780458e-22
6.3375021e-22
3.1595691e-22
0
0
3.1327259e-22
4.1654946e-53
-3.1154356e-22
0
-6.1973646e-22
-3.0905118e-22
6.1649818e-22
3.0746222e-22
0
-6.1187151e-22
-8.674206e-38
9.1342253e-22
-8.4264097e-35
-6.0615808e-22
3.0240627e-22
1.71525e-37
-3.0110997e-22
8.348182e-35
1.6637063e-34
2.9928804e-22
0
2.9815226e-22
-1.6523724e-34
-5.9415712e-22
2.9656438e-22
-4.9293173e-34
-2.9558044e-22
5.9022017e-22
-4.1872857e-38
-2.9421224e-22
0
0
0
-2.9258204e-22
2.9220771e-22
5.8369278e-22
-2.9149786e-22
-8.0849809e-35
-8.0677279e-35
-2.9052661e-22
0
2.8993956e-22
-4.1163655e-38
-5.7879753e-22
2.8914529e-22
1.6028091e-34
-2.8867079e-22
-2.8844937e-22
1.6015826e-34
5.7607561e-22
0
2.876658e-22
2.874941e-22
0
-2.8717806e-22
-2.8703335e-22
2.8689755e-22
0
-2.8665082e-22
0
0
2.8634084e-22
-2.3837876e-34
-2.8617195e-22
0
0
2.859731e-22
2.8592069e-22
-2.8587502e-22
-2.85836e-22
2.8580389e-22
2.8577825e-22
-5.7151709e-22
-2.8574489e-22
7.9384133e-35
2.8573534e-22
-1.5852586e-34
-1.585311e-34
2.8576357e-22
-2.8578327e-22
2.8580767e-22
-2.8583693e-22
-2.4374827e-37
2.8590952e-22
-5.7190477e-22
-2.8599966e-22
-2.8605073e-22
5.7220968e-22
5.7232366e-22
-2.8622141e-22
2.8628282e-22
-2.863461e-22
1.5906135e-34
5.7295499e-22
-2.8654477e-22
7.9545926e-35
-7.9646393e-35
-2.8674964e-22
0
0
2.8695209e-22
2.8701727e-22
0
-2.8714284e-22
-2.8720258e-22
0
-2.8731413e-22
7.9795432e-35
2.8741124e-22
-2.8745356e-22
7.9748856e-35
2.8752346e-22
0
2.8757005e-22
1.5967141e-34
-2.8758889e-22
2.8758646e-22
-7.9731379e-35
-2.8755456e-22
-2.8752288e-22
-7.9786703e-35
2.8742577e-22
0
-2.8727696e-22
2.8718094e-22
-8.158993e-38
1.5935526e-34
2.8679387e-22
-2.8662827e-22
0
-5.7246698e-22
6.3501121e-34
2.8574608e-22
1.5845427e-34
5.7030889e-22
-5.6963094e-22
-5.6888995e-22
5.6808257e-22
5.6720458e-22
2.8312589e-22
0
-2.82053e-22
-5.6290361e-22
3.9904684e-38
-2.8010757e-22
2.7935875e-22
2.7855493e-22
-2.7769368e-22
5.5354243e-22
-5.5156818e-22
-4.5756532e-34
5.472074e-22
-5.4480554e-22
1.5049359e-34
-2.6975856e-22
2.6830707e-22
2.6676371e-22
-2.6512358e-22
-7.3060967e-35
-5.2306501e-22
5.1914208e-22
5.1498393e-22
-5.1057856e-22
-7.0205073e-35
-2.5048794e-22
1.3766089e-34
2.4511607e-22
6.7219155e-35
6.0982375e-52
2.3586056e-22
4.6484859e-22
-2.2879803e-22
-1.7019491e-51
-2.2093782e-22
-3.6095047e-34
2.1219833e-22
-4.1494112e-22
1.1239585e-34
3.944714e-22
2.7343416e-52
-1.8587057e-22
0
0
-1.6644735e-22
1.5928393e-22
3.0351891e-22
0
0
0
-1.182952e-22
-1.1167905e-22
0
1.0413111e-22
-9.9451004e-23
-1.58138e-34
1.920019e-22
0
0
0
-1.0251936e-22
-1.0308632e-22
1.0489953e-22
-1.0267298e-22
-5.5545633e-35
1.9310563e-22
0
0
-1.9190001e-22
2.6648867e-38
9.7039095e-23
-9.5927692e-23
9.7060536e-23
-9.2209016e-23
4.493409e-35
1.5236396e-22
0
0
-7.0982077e-23
-6.9931157e-23
0
0
5.7936341e-23
5.584164e-23
0
-3.8277194e-23
-2.8610879e-23
2.5186449e-23
-1.9887515e-23
-6.0370105e-24
-1.2142664e-23
-2.7124944e-23
1.9432907e-35
4.0301186e-23
-5.8759778e-23
-2.5181321e-35
1.1895245e-22
0
1.5685777e-22
-9.8382979e-35
-2.040467e-22
2.3105023e-22
-1.4249304e-34
-2.8441034e-22
0
3.3426589e-22
-1.0083692e-34
-5.6582119e-38
4.2928217e-22
-4.6005778e-22
-5.0018901e-22
0
1.1366121e-21
-6.6866436e-34
-6.4897778e-22
-9.92836e-38
-1.4773923e-21
1.5551205e-21
1.6538518e-21
-1.7677794e-21
-9.359485e-22
0
2.0528593e-21
-1.8056981e-33
-2.3085878e-21
0
2.5663408e-21
7.4386419e-34
-1.4063449e-21
-4.1235609e-34
-3.1326978e-21
3.2953971e-21
4.308292e-33
-3.5931583e-21
3.7507297e-21
-1.0928108e-33
-4.1468768e-21
-2.174755e-21
4.5348444e-21
2.363202e-21
-4.9429305e-21
5.1692821e-21
6.7325081e-33
-5.622287e-21
5.877751e-21
-8.5318413e-34
3.2039749e-21
-3.7029147e-33
-1.0440847e-20
2.0143776e-33
7.5506658e-21
-3.9255871e-21
-8.1809564e-21
4.2667824e-21
-2.4678589e-33
4.624648e-21
5.3465077e-33
-5.0121081e-21
1.0426321e-20
-4.5103219e-33
6.2513642e-33
-3.250639e-33
-6.0933483e-21
0
-6.5701228e-21
-6.8332574e-21
0
0
0
0
0
8.5834907e-21
8.9179272e-21
0
-9.5978006e-21
9.9583199e-21
1.7216837e-32
-2.1448107e-20
0
0
0
1.2414918e-20
1.2872417e-20
-1.3343521e-20
-1.382712e-20
2.8657009e-20
2.4747647e-32
-3.0802698e-20
0
3.3088021e-20
2.8542867e-32
-1.7747087e-20
1.8386548e-20
-1.9049014e-20
1.9726594e-20
1.1333924e-32
-4.2271288e-20
0
0
2.3473652e-20
2.4295096e-20
0
2.6007811e-20
7.648508e-36
2.7846624e-20
-2.8813585e-20
-8.9429256e-20
0
-6.3777928e-20
-6.5953704e-20
0
1.0578731e-19
7.2925976e-20
-7.5404287e-20
3.8976949e-20
4.0284627e-20
-1.2488495e-19
-4.3017437e-20
-6.3180362e-36
-4.5950708e-20
4.7481804e-20
4.9047176e-20
5.0653735e-20
-8.1838815e-50
5.4038878e-20
5.5821335e-20
-5.7653265e-20
0
-1.2291012e-19
-1.2687509e-19
0
6.7601672e-20
1.3956566e-19
3.9967926e-32
7.4319342e-20
1.5335571e-19
-1.5821785e-19
-1.6323884e-19
-8.4207318e-20
-8.6865781e-20
0
9.2392554e-20
2.8582821e-19
-9.8247225e-20
1.6079287e-47
3.133271e-19
-2.1533173e-19
-1.1098075e-19
-1.1439104e-19
-2.357908e-19
2.429844e-19
1.2518548e-19
-1.2898355e-19
-1.3289182e-19
-1.3690903e-19
4.2309404e-19
1.4525882e-19
-4.4879074e-19
-1.5405295e-19
1.5863257e-19
3.2667746e-19
-1.6817187e-19
1.731306e-19
-2.9671679e-31
3.054993e-31
5.6632703e-19
-1.9426919e-19
-1.9990997e-19
-4.1139341e-19
-2.1162914e-19
4.3542231e-19
6.3650001e-35
2.3034529e-19
-2.3690344e-19
-7.3087747e-19
7.5155267e-19
2.5758405e-19
-7.9448531e-19
0
8.39569e-19
2.8764637e-19
-8.868846e-19
3.0380702e-19
6.2437066e-19
1.7804838e-31
-3.6579835e-31
-3.3853486e-19
0
-7.1435067e-19
-7.3367216e-19
3.7672197e-19
3.8683185e-19
7.9434281e-19
-4.077519e-19
-4.1858349e-19
8.5934043e-19
0
-9.0521518e-19
-9.2892554e-19
4.7658441e-19
9.7795986e-19
-2.784567e-31
-5.1461438e-19
1.0557232e-18
-5.4140025e-19
1.8491826e-30
1.1387355e-18
-5.8380758e-19
0
-1.2272686e-18
0
1.4317372e-30
6.608103e-19
1.3544026e-18
-2.0818096e-18
2.0208479e-34
1.4569283e-18
0
-1.5288586e-18
-7.8296368e-19
1.6037481e-18
-9.1173547e-31
-8.4084384e-19
1.7218282e-18
-8.8138296e-19
1.5022066e-30
1.8470808e-18
-9.4523856e-19
9.6735562e-19
-1.9797947e-18
-3.0386127e-18
0
3.1804198e-18
2.1688894e-18
-3.3276054e-18
-2.2688351e-18
1.1600995e-18
2.3725076e-18
-1.2128843e-18
-1.2399943e-18
2.5351803e-18
-1.2956809e-18
-2.6485499e-18
1.3533764e-18
-1.965341e-34
2.8262091e-18
2.8874778e-18
-4.4246973e-18
1.506595e-18
2.5629437e-30
-4.7148362e-18
0
4.9164203e-18
3.346466e-18
-1.7082226e-18
-1.7437815e-18
-1.7799131e-18
0
-1.8539055e-18
1.0500797e-30
3.8604779e-18
-1.0928301e-30
-2.0089561e-18
0
-2.090083e-18
4.2631207e-18
6.5209609e-18
-4.4327348e-18
-6.7791154e-18
-2.3036701e-18
2.3482651e-18
4.7869856e-18
-2.4393563e-18
2.4858595e-18
2.5330071e-18
-5.1616059e-18
5.2584978e-18
2.6783454e-18
-8.1842801e-18
-5.556991e-18
2.8295562e-18
8.6438379e-18
-6.5136308e-30
6.6314194e-30
3.0404314e-18
3.4357109e-30
3.1498588e-18
-3.2055753e-18
-3.2619609e-18
-3.319016e-18
3.3767414e-18
3.4351382e-18
-1.0482618e-17
3.5539431e-18
7.2286958e-18
-1.102626e-17
-1.0621649e-33
3.7995695e-18
-7.7252921e-18
-3.9263872e-18
0
4.0558489e-18
4.1215648e-18
8.3758723e-18
-4.2549621e-18
1.4396362e-29
1.3172896e-17
-4.4599317e-18
-4.5295349e-18
-4.599772e-18
4.6706414e-18
4.7421398e-18
-1.4442784e-17
4.8869984e-18
9.9206892e-18
8.3846797e-30
5.1088461e-18
-1.0367986e-17
-1.5779188e-17
-2.9611532e-30
3.0045917e-30
7.8023179e-34
5.5684058e-18
1.1293938e-17
5.7260774e-18
-1.7417172e-17
6.5342432e-30
1.1933188e-17
0
0
-6.2116768e-18
3.4938379e-30
-3.5390785e-30
-6.4610745e-18
1.309024e-17
6.6296012e-18
7.4522142e-30
-6.7998243e-18
-2.065663e-17
-6.9716524e-18
0
0
0
2.1959207e-17
1.4815199e-17
-2.2487321e-17
8.4218216e-30
1.5346005e-17
0
0
-1.5881613e-17
1.783023e-29
9.0126511e-30
-1.6421208e-17
8.3009117e-18
1.6782755e-17
1.6963965e-17
-8.5727101e-18
-2.599063e-17
-8.7544665e-18
0
0
0
2.7356196e-17
1.8419694e-17
-2.7902826e-17
2.0853094e-29
9.4830039e-18
-1.3605381e-33
9.6647761e-18
-1.9511009e-17
1.0930668e-29
9.9365458e-18
-2.005364e-17
0
5.666987e-30
2.0592835e-17
2.0771615e-17
-3.1424778e-17
-2.1127508e-17
1.065227e-17
5.960242e-30
-1.0828284e-17
3.2747213e-17
2.2005589e-17
-1.1089435e-17
-1.1175639e-17
1.1261386e-17
1.1346655e-17
-1.1431424e-17
-1.1515671e-17
6.4385343e-30
-6.4830223e-30
-1.1765067e-17
0
-1.1928338e-17
2.4018029e-17
3.6267069e-17
-2.4336682e-17
-2.4493894e-17
-1.232482e-17
1.3766277e-29
2.4956581e-17
-1.2553848e-17
1.2628593e-17
1.2702503e-17
-2.5551116e-17
2.5695477e-17
1.2919025e-17
-1.2989398e-17
-2.6117674e-17
-1.3127321e-17
2.6389661e-17
-7.3572872e-30
1.3326858e-17
1.3391341e-17
-4.0364328e-17
1.3517143e-17
1.3578422e-17
-4.0915787e-17
1.946553e-33
4.12667e-17
1.3812331e-17
-4.1603771e-17
1.3922327e-17
-2.7135384e-46
2.3354997e-29
2.8156474e-17
-2.8255444e-17
-2.8351876e-17
1.422287e-17
-1.5840209e-29
-2.8625659e-17
1.435583e-17
4.3192474e-17
1.4437798e-17
-1.4476736e-17
0
-1.4550458e-17
-2.9170447e-17
2.0774249e-33
4.395153e-17
1.4681006e-17
-2.9420109e-17
2.0943452e-33
2.9527531e-17
-2.9576822e-17
2.4668858e-29
2.9666499e-17
-4.456028e-17
-2.9744195e-17
0
0
1.4918992e-17
4.4794691e-17
1.4942598e-17
-4.4856278e-17
1.660792e-29
2.993288e-17
-2.9942568e-17
-2.9949144e-17
1.4976287e-17
2.9952702e-17
-1.4974718e-17
-1.4971463e-17
4.489993e-17
1.4960258e-17
2.4903253e-29
-8.2901403e-30
-1.493172e-17
1.4919084e-17
-2.9809777e-17
-4.4667411e-17
0
4.4558939e-17
2.9665164e-17
-4.4431935e-17
4.2027673e-33
1.4762171e-17
-2.9471293e-17
1.4707604e-17
1.4678052e-17
1.6260393e-29
-1.4614448e-17
-2.9160825e-17
1.4544899e-17
2.9015833e-17
2.893895e-17
-1.6023133e-29
-1.4388256e-17
1.43455e-17
-2.8602658e-17
-4.2767259e-17
0
4.2481304e-17
2.8221439e-17
-4.2178955e-17
1.5554152e-29
1.3953514e-17
-1.3898472e-17
-1.3842132e-17
7.6475338e-30
2.7451255e-17
-7.5853881e-30
-2.7208262e-17
1.5031256e-29
1.4960461e-29
2.6825625e-17
4.0040064e-17
-2.6558836e-17
1.4669996e-29
4.3763505e-29
-1.3070922e-17
-1.2999258e-17
-2.5853084e-17
3.8558383e-17
1.2778035e-17
-2.5404568e-17
2.5251126e-17
7.1326513e-33
-3.7407881e-17
-1.2389787e-17
1.2309392e-17
3.6684397e-17
-4.0455267e-29
-2.4126209e-17
-1.1979381e-17
2.378976e-17
3.5428871e-17
-3.5170903e-17
-1.1636935e-17
-1.2818471e-29
-1.1461498e-17
2.274561e-17
-6.2631963e-30
1.1193586e-17
-1.1103106e-17
3.6681499e-29
3.276157e-17
-3.2485399e-17
-3.2207788e-17
0
0
0
1.0361448e-17
3.0800589e-17
1.0171939e-17
1.1186666e-29
9.9811618e-18
-2.9656062e-17
-9.7892984e-18
9.693019e-18
9.5965388e-18
9.4998803e-18
-1.8806131e-17
9.3061158e-18
-9.2090541e-18
3.034679e-29
1.8029368e-17
-2.6752262e-17
-1.7640268e-17
0
1.7251152e-17
9.4677617e-30
-8.4311805e-18
2.500229e-17
8.2371163e-18
-8.1402597e-18
0
0
-7.8506318e-18
-1.5508938e-17
1.7004262e-29
1.5125661e-17
7.467392e-18
-7.3722323e-18
7.2773695e-18
-7.1828218e-18
-4.8926348e-46
1.1649827e-29
-2.0703728e-17
0
0
1.3246218e-17
1.3062481e-17
6.439819e-18
-7.0472973e-30
-1.8775136e-17
6.8496024e-30
1.2157811e-17
0
-1.1803025e-17
-5.8136286e-18
1.1452608e-17
-5.6395513e-18
-5.5533826e-18
1.6403431e-17
-5.3828451e-18
1.7646415e-29
1.0429561e-17
-1.5395106e-17
-1.0098547e-17
0
0
0
1.4178733e-17
9.2944039e-18
-1.3706587e-17
-8.9824657e-18
0
8.6762657e-18
-4.732218e-30
-4.1879565e-18
8.2279605e-18
-4.0407527e-18
3.9682787e-18
3.8965625e-18
-1.1476827e-17
7.5108454e-18
7.3720155e-18
-3.6173676e-18
3.5495055e-18
-6.9648481e-18
-1.0248378e-17
0
9.8576659e-18
6.4439053e-18
-3.1588069e-18
-3.0964526e-18
3.36919e-30
-2.9741222e-18
9.7070938e-30
2.8549641e-18
1.5527083e-30
1.1018248e-47
-2.6821668e-18
0
-2.5709205e-18
5.0329574e-18
7.3884641e-18
-7.2298379e-18
-7.0735505e-18
0
4.5119789e-18
4.4124385e-18
-4.3144352e-18
2.1089806e-18
2.0615042e-18
-6.0443529e-18
3.9376349e-18
3.8471993e-18
-1.8791268e-18
-3.6707886e-18
-1.7923972e-18
5.2503905e-18
1.7085876e-18
2.7772073e-30
-3.2553079e-18
-9.0281692e-34
4.6486612e-18
-3.023105e-18
-4.4227269e-18
-1.4376169e-18
4.2050097e-18
2.7327901e-18
-3.9953583e-18
2.8819598e-30
2.5290778e-18
1.2318871e-18
-6.6602135e-31
-2.3369871e-18
1.2630627e-30
-1.107602e-18
-1.0780765e-18
3.1474633e-18
1.0208284e-18
1.1024825e-30
-1.9318736e-18
3.1284877e-30
2.740035e-18
-1.7757853e-18
9.5854315e-31
9.3172893e-31
1.809375e-30
7.9152925e-19
-2.3062892e-18
7.4651164e-19
1.2066968e-30
2.3430501e-30
2.048308e-18
-6.6250097e-19
-1.2854193e-18
6.9205539e-31
-6.0452822e-19
-5.8612296e-19
1.1363297e-18
1.101293e-18
-5.9225708e-31
-1.5506954e-18
5.5565978e-31
4.8481961e-19
-9.3877675e-19
4.5435311e-19
4.3970664e-19
-2.3603161e-31
2.2844238e-31
-3.9802871e-19
7.6973237e-19
-3.7205715e-19
1.1978177e-30
1.1572376e-30
-1.0070431e-18
6.4843499e-19
-8.8981088e-35
-6.0449057e-19
2.9172344e-19
8.445057e-19
2.7157433e-19
-7.8580308e-19
2.8039793e-31
2.434938e-19
-4.693626e-19
4.5226523e-19
1.0884545e-30
-2.0980299e-19
2.0201034e-19
-1.9445858e-19
3.7428434e-19
-1.8005572e-19
-5.1958089e-19
0
0
3.0779844e-19
4.2030438e-35
-2.8412453e-19
1.3643697e-19
3.9300155e-19
1.2574798e-19
-3.6202359e-19
-3.2905407e-35
-1.2327902e-31
-2.1296869e-19
3.0625078e-19
4.8880584e-31
-9.3749398e-20
8.9807231e-20
8.6009517e-20
-9.1470605e-32
-7.8832615e-20
1.5089278e-19
-1.4437982e-19
2.2999914e-31
1.3210106e-19
-1.894794e-19
-1.2076789e-19
5.7720177e-20
1.6549732e-19
5.2717589e-20
-5.0372193e-20
0
4.5974679e-20
-4.391644e-20
-1.2584621e-19
-2.2241542e-32
7.6551047e-20
-3.6563906e-20
-3.4931021e-20
6.6748583e-20
-3.1891551e-20
3.048148e-20
5.8287416e-20
-8.3624721e-20
8.8820787e-32
-5.6678976e-32
-4.8882807e-20
4.6834063e-20
2.2447998e-20
2.15351e-20
2.2971936e-32
-1.9870612e-20
3.8228128e-20
-3.6808225e-20
-5.3215542e-20
0
1.6536924e-20
-8.8811404e-33
-4.406377e-36
4.5137049e-20
1.4623939e-20
-4.2709896e-20
1.388293e-20
1.5835618e-48
-3.9819768e-20
1.3014708e-20
3.8354634e-20
1.2582186e-20
-2.4810701e-20
1.2253587e-20
-1.2126147e-20
4.0040619e-32
2.388402e-20
-3.5646921e-20
-1.3157035e-32
5.2520635e-32
-2.3653006e-20
2.3691225e-20
1.3187381e-32
-1.1928212e-20
2.3984043e-20
1.2077718e-20
0
0
-2.4840858e-20
2.7874224e-32
7.2199446e-36
1.4277578e-32
1.3034159e-20
1.3218546e-20
-1.3411528e-20
-1.3612185e-20
2.764121e-20
-2.8077759e-20
1.5837981e-32
2.9003398e-20
-2.9485705e-20
-4.9920154e-32
1.6919681e-32
-1.5500075e-20
3.1534172e-20
-1.6040172e-20
3.6228285e-32
3.3191391e-20
0
-3.4329217e-20
-1.745735e-20
3.5510219e-20
1.8056134e-20
-1.8358889e-20
3.1083639e-32
1.8969748e-20
0
0
-3.9819215e-20
-4.0454786e-20
0
4.1732875e-20
2.1188379e-20
-2.1512257e-20
2.18377e-20
-2.2164208e-20
0
4.5639803e-20
0
0
-2.381152e-20
2.6803065e-32
2.4475951e-20
0
-2.5141178e-20
-1.4140134e-32
2.5807709e-20
0
-5.2952081e-20
-5.3621702e-20
2.7145909e-20
3.050407e-32
-2.781548e-20
5.6299e-20
5.6966337e-20
-5.7633937e-20
-8.2853075e-36
-6.5476949e-32
-8.4757643e-36
6.0312076e-20
-3.0489574e-20
3.421721e-32
-3.1154234e-20
3.1486809e-20
9.5460661e-20
-9.6462321e-20
-3.248756e-20
3.2819737e-20
3.679732e-32
3.3480272e-20
-6.7620357e-20
-6.8281661e-20
6.894452e-20
1.1589777e-31
3.5132135e-20
3.5463085e-20
-7.1583338e-20
3.6119185e-20
-4.0457029e-32
2.0423668e-32
-3.7103949e-20
-7.4864342e-20
7.5519351e-20
7.6173106e-20
0
-3.873877e-20
-4.3367284e-32
7.8779201e-20
4.4089333e-32
-1.2011913e-19
-8.0729254e-20
0
8.2027131e-20
9.1769645e-32
4.1660712e-20
4.1983903e-20
-1.2692081e-19
2.3656686e-32
8.5904386e-20
-4.3274104e-20
-8.7190831e-20
4.3916384e-20
8.8474601e-20
4.4558277e-20
0
-9.0399938e-20
4.5520241e-20
1.3751982e-19
-4.6159089e-20
-4.6477818e-20
-9.3592601e-20
-4.7114666e-20
9.4865902e-20
4.7751085e-20
4.8068916e-20
-5.3716151e-32
-4.8703189e-20
-4.9019606e-20
-9.8671331e-20
-4.9651487e-20
0
0
0
1.0182322e-19
1.0245064e-19
-1.0307712e-19
-5.7563028e-32
-5.7910214e-32
5.8242273e-32
1.1722259e-31
-1.0620132e-19
0
1.0744391e-19
5.4031621e-20
-5.4340795e-20
5.4649584e-20
5.4958007e-20
0
0
-1.1176069e-19
1.871267e-31
1.2542926e-31
-1.1359322e-19
1.1420118e-19
1.1480791e-19
0
-1.1601779e-19
6.4716729e-32
1.172217e-19
-1.1782097e-19
-6.5748163e-32
1.1901499e-19
0
-1.2020441e-19
-6.0398422e-20
1.2138697e-19
-6.0987207e-20
-1.360943e-31
1.231422e-19
-1.2372365e-19
-1.2430397e-19
0
0
0
1.2660749e-19
1.2717718e-19
-1.2774434e-19
0
1.2887131e-19
0
6.4994299e-20
-1.3054373e-19
-6.5548307e-20
6.5823617e-20
-1.3219549e-19
-6.6370606e-20
1.3328419e-19
6.6912123e-20
7.4590265e-32
-6.744761e-20
1.503435e-31
-3.8640379e-35
-1.3647831e-19
0
6.8759047e-20
1.3803336e-19
6.927278e-20
0
0
0
7.0281379e-20
-1.4105877e-19
-7.0775641e-20
7.1020098e-20
7.1262737e-20
-7.1503548e-20
-7.1742498e-20
1.4395903e-19
0
-1.4489478e-19
-1.4535632e-19
0
0
1.4671756e-19
8.1687227e-32
7.3803364e-20
7.4022631e-20
-7.4239658e-20
7.4454356e-20
-7.4666739e-20
-1.497538e-19
-7.5084943e-20
0
1.509897e-19
8.4013172e-32
-7.5895867e-20
7.6092579e-20
7.6286589e-20
1.5295588e-19
-1.5333362e-19
-7.685344e-20
2.1895514e-35
-7.7220449e-20
1.5480123e-19
-7.7578204e-20
7.7752981e-20
-3.9330123e-49
-7.8094067e-20
1.5652148e-19
-1.5685014e-19
-1.5717413e-19
0
7.8903159e-20
1.5811342e-19
-4.3965947e-32
-7.9354369e-20
-7.9498826e-20
1.5928143e-19
1.5956036e-19
-7.9917187e-20
-1.6010306e-19
-1.6036589e-19
8.031125e-20
1.6087283e-19
-8.0558542e-20
8.0677792e-20
-1.3451789e-31
-8.0907888e-20
1.6203705e-19
-1.6225192e-19
-9.0154584e-32
4.5147015e-31
-1.6285599e-19
1.6304435e-19
3.624132e-31
-8.1701876e-20
1.6357511e-19
-8.1870328e-20
2.3291588e-35
-3.6424681e-31
-8.2099261e-20
1.6433754e-19
-1.8258659e-31
4.5669887e-32
-8.2357572e-20
2.3423437e-35
1.6493341e-19
-1.6503185e-19
-4.6930821e-35
3.668111e-31
-1.6528565e-19
1.6535766e-19
1.8364552e-31
-1.6548384e-19
8.2768732e-20
8.2792064e-20
8.28117e-20
-8.2827549e-20
9.1964616e-32
1.6569626e-19
0
0
-1.6570198e-19
-2.3545925e-35
1.6567087e-19
-8.2822817e-20
9.1904814e-32
-8.2787855e-20
-1.8376389e-31
1.6547756e-19
0
8.2674077e-20
-1.652717e-19
-8.2593967e-20
1.8330658e-31
-8.2500086e-20
1.6489656e-19
-8.2393218e-20
9.1380768e-32
1.6454608e-19
0
0
-8.2066387e-20
4.5510615e-32
-8.1909303e-20
8.1824644e-20
2.4520835e-19
-2.4493227e-19
-8.1548975e-20
1.6290206e-19
-8.135027e-20
-1.352824e-31
-8.113938e-20
4.6059393e-35
2.6950241e-31
-8.0794606e-20
1.6134271e-19
8.0544111e-20
0
8.0279083e-20
-8.0142127e-20
-8.0002578e-20
-7.9860396e-20
1.7699214e-31
-8.8308587e-32
8.8139489e-32
1.5851574e-19
-7.9097097e-20
-1.3142911e-31
1.5752804e-19
-1.1168687e-35
-7.8418614e-20
-1.5648431e-19
-1.5612654e-19
1.5576337e-19
8.6299575e-32
7.7508456e-20
7.7315734e-20
-1.5423709e-19
1.5383426e-19
7.6712178e-20
-2.2951381e-19
-1.5259028e-19
7.6084041e-20
1.5174206e-19