/*--------------------------------*- C++ -*----------------------------------*\
  =========                 |
  \\      /  F ield         | OpenFOAM: The Open Source CFD Toolbox
   \\    /   O peration     | Website:  https://openfoam.org
    \\  /    A nd           | Version:  7
     \\/     M anipulation  |
\*---------------------------------------------------------------------------*/
FoamFile
{
    version     2.0;
    format      ascii;
    class       volScalarField;
    location    "0.00305";
    object      p;
}
// * * * * * * * * * * * * * * * * * * * * * * * * * * * * * * * * * * * * * //

dimensions      [1 -1 -2 0 0 0 0];

internalField   nonuniform List<scalar> 
5000
(
99789.062
99789.062
99789.062
99789.062
99789.062
99789.062
99789.062
99789.062
99789.063
99789.063
99789.063
99789.063
99789.063
99789.063
99789.063
99789.063
99789.063
99789.063
99789.063
99789.063
99789.064
99789.064
99789.064
99789.064
99789.064
99789.064
99789.064
99789.064
99789.064
99789.064
99789.064
99789.064
99789.064
99789.064
99789.065
99789.065
99789.065
99789.065
99789.065
99789.065
99789.065
99789.065
99789.065
99789.065
99789.065
99789.065
99789.065
99789.065
99789.065
99789.066
99789.066
99789.066
99789.066
99789.066
99789.066
99789.066
99789.066
99789.066
99789.066
99789.066
99789.066
99789.066
99789.066
99789.066
99789.067
99789.067
99789.067
99789.067
99789.067
99789.067
99789.067
99789.067
99789.067
99789.067
99789.067
99789.067
99789.067
99789.067
99789.067
99789.068
99789.068
99789.068
99789.068
99789.068
99789.068
99789.068
99789.068
99789.068
99789.068
99789.068
99789.068
99789.068
99789.068
99789.068
99789.068
99789.069
99789.069
99789.069
99789.069
99789.069
99789.069
99789.069
99789.069
99789.069
99789.069
99789.069
99789.069
99789.069
99789.069
99789.069
99789.07
99789.07
99789.07
99789.07
99789.07
99789.07
99789.07
99789.07
99789.07
99789.07
99789.07
99789.07
99789.07
99789.07
99789.07
99789.07
99789.071
99789.071
99789.071
99789.071
99789.071
99789.071
99789.071
99789.071
99789.071
99789.071
99789.071
99789.071
99789.071
99789.071
99789.071
99789.072
99789.072
99789.072
99789.072
99789.072
99789.072
99789.072
99789.072
99789.072
99789.072
99789.072
99789.072
99789.072
99789.072
99789.072
99789.072
99789.073
99789.073
99789.073
99789.073
99789.073
99789.073
99789.073
99789.073
99789.073
99789.073
99789.073
99789.073
99789.073
99789.073
99789.073
99789.074
99789.074
99789.074
99789.074
99789.074
99789.074
99789.074
99789.074
99789.074
99789.074
99789.074
99789.074
99789.074
99789.074
99789.074
99789.075
99789.075
99789.075
99789.075
99789.075
99789.075
99789.075
99789.075
99789.075
99789.075
99789.075
99789.075
99789.075
99789.075
99789.075
99789.076
99789.076
99789.076
99789.076
99789.076
99789.076
99789.076
99789.076
99789.076
99789.076
99789.076
99789.076
99789.076
99789.076
99789.076
99789.077
99789.077
99789.077
99789.077
99789.077
99789.077
99789.077
99789.077
99789.077
99789.077
99789.077
99789.077
99789.077
99789.077
99789.077
99789.078
99789.078
99789.078
99789.078
99789.078
99789.078
99789.078
99789.078
99789.078
99789.078
99789.078
99789.078
99789.078
99789.078
99789.078
99789.079
99789.079
99789.079
99789.079
99789.079
99789.079
99789.079
99789.079
99789.079
99789.079
99789.079
99789.079
99789.079
99789.079
99789.079
99789.08
99789.08
99789.08
99789.08
99789.08
99789.08
99789.08
99789.08
99789.08
99789.08
99789.08
99789.08
99789.08
99789.08
99789.081
99789.081
99789.081
99789.081
99789.081
99789.081
99789.081
99789.081
99789.081
99789.081
99789.081
99789.081
99789.081
99789.082
99789.082
99789.082
99789.082
99789.082
99789.082
99789.082
99789.082
99789.082
99789.082
99789.082
99789.082
99789.082
99789.083
99789.083
99789.083
99789.083
99789.083
99789.083
99789.083
99789.083
99789.083
99789.083
99789.083
99789.083
99789.083
99789.084
99789.084
99789.084
99789.084
99789.084
99789.084
99789.084
99789.084
99789.084
99789.084
99789.084
99789.084
99789.084
99789.085
99789.085
99789.085
99789.085
99789.085
99789.085
99789.085
99789.085
99789.085
99789.085
99789.085
99789.085
99789.086
99789.086
99789.086
99789.086
99789.086
99789.086
99789.086
99789.086
99789.086
99789.086
99789.086
99789.087
99789.087
99789.087
99789.087
99789.087
99789.087
99789.087
99789.087
99789.087
99789.087
99789.087
99789.087
99789.088
99789.088
99789.088
99789.088
99789.088
99789.088
99789.088
99789.088
99789.088
99789.088
99789.088
99789.089
99789.089
99789.089
99789.089
99789.089
99789.089
99789.089
99789.089
99789.089
99789.089
99789.089
99789.09
99789.09
99789.09
99789.09
99789.09
99789.09
99789.09
99789.09
99789.09
99789.09
99789.09
99789.091
99789.091
99789.091
99789.091
99789.091
99789.091
99789.091
99789.091
99789.091
99789.091
99789.092
99789.092
99789.092
99789.092
99789.092
99789.092
99789.092
99789.092
99789.092
99789.092
99789.092
99789.093
99789.093
99789.093
99789.093
99789.093
99789.093
99789.093
99789.093
99789.093
99789.093
99789.094
99789.094
99789.094
99789.094
99789.094
99789.094
99789.094
99789.094
99789.094
99789.095
99789.095
99789.095
99789.095
99789.095
99789.095
99789.095
99789.095
99789.095
99789.095
99789.096
99789.096
99789.096
99789.096
99789.096
99789.096
99789.096
99789.096
99789.096
99789.097
99789.097
99789.097
99789.097
99789.097
99789.097
99789.097
99789.097
99789.097
99789.098
99789.098
99789.098
99789.098
99789.098
99789.098
99789.098
99789.098
99789.098
99789.099
99789.099
99789.099
99789.099
99789.099
99789.099
99789.099
99789.099
99789.099
99789.1
99789.1
99789.1
99789.1
99789.1
99789.1
99789.1
99789.1
99789.101
99789.101
99789.101
99789.101
99789.101
99789.101
99789.101
99789.101
99789.101
99789.102
99789.102
99789.102
99789.102
99789.102
99789.102
99789.102
99789.102
99789.103
99789.103
99789.103
99789.103
99789.103
99789.103
99789.103
99789.103
99789.104
99789.104
99789.104
99789.104
99789.104
99789.104
99789.104
99789.104
99789.105
99789.105
99789.105
99789.105
99789.105
99789.105
99789.105
99789.105
99789.106
99789.106
99789.106
99789.106
99789.106
99789.106
99789.106
99789.106
99789.107
99789.107
99789.107
99789.107
99789.107
99789.107
99789.107
99789.108
99789.108
99789.108
99789.108
99789.108
99789.108
99789.108
99789.108
99789.109
99789.109
99789.109
99789.109
99789.109
99789.109
99789.109
99789.109
99789.11
99789.11
99789.11
99789.11
99789.11
99789.11
99789.11
99789.11
99789.111
99789.111
99789.111
99789.111
99789.111
99789.111
99789.111
99789.111
99789.112
99789.112
99789.112
99789.112
99789.112
99789.112
99789.112
99789.113
99789.113
99789.113
99789.113
99789.113
99789.113
99789.113
99789.113
99789.114
99789.114
99789.114
99789.114
99789.114
99789.114
99789.114
99789.114
99789.115
99789.115
99789.115
99789.115
99789.115
99789.115
99789.115
99789.115
99789.116
99789.116
99789.116
99789.116
99789.116
99789.116
99789.116
99789.117
99789.117
99789.117
99789.117
99789.117
99789.117
99789.117
99789.117
99789.118
99789.118
99789.118
99789.118
99789.118
99789.118
99789.118
99789.118
99789.119
99789.119
99789.119
99789.119
99789.119
99789.119
99789.119
99789.12
99789.12
99789.12
99789.12
99789.12
99789.12
99789.12
99789.12
99789.121
99789.121
99789.121
99789.121
99789.121
99789.121
99789.121
99789.122
99789.122
99789.122
99789.122
99789.122
99789.122
99789.122
99789.122
99789.123
99789.123
99789.123
99789.123
99789.123
99789.123
99789.123
99789.124
99789.124
99789.124
99789.124
99789.124
99789.124
99789.124
99789.125
99789.125
99789.125
99789.125
99789.125
99789.125
99789.125
99789.125
99789.126
99789.126
99789.126
99789.126
99789.126
99789.126
99789.126
99789.127
99789.127
99789.127
99789.127
99789.127
99789.127
99789.127
99789.128
99789.128
99789.128
99789.128
99789.128
99789.128
99789.128
99789.129
99789.129
99789.129
99789.129
99789.129
99789.129
99789.129
99789.13
99789.13
99789.13
99789.13
99789.13
99789.13
99789.131
99789.131
99789.131
99789.131
99789.131
99789.131
99789.131
99789.132
99789.132
99789.132
99789.132
99789.132
99789.132
99789.132
99789.133
99789.133
99789.133
99789.133
99789.133
99789.133
99789.134
99789.134
99789.134
99789.134
99789.134
99789.134
99789.134
99789.135
99789.135
99789.135
99789.135
99789.135
99789.135
99789.136
99789.136
99789.136
99789.136
99789.136
99789.136
99789.137
99789.137
99789.137
99789.137
99789.137
99789.137
99789.137
99789.138
99789.138
99789.138
99789.138
99789.138
99789.138
99789.139
99789.139
99789.139
99789.139
99789.139
99789.139
99789.14
99789.14
99789.14
99789.14
99789.14
99789.14
99789.141
99789.141
99789.141
99789.141
99789.141
99789.141
99789.142
99789.142
99789.142
99789.142
99789.142
99789.142
99789.143
99789.143
99789.143
99789.143
99789.143
99789.143
99789.144
99789.144
99789.144
99789.144
99789.144
99789.144
99789.145
99789.145
99789.145
99789.145
99789.145
99789.145
99789.146
99789.146
99789.146
99789.146
99789.146
99789.146
99789.147
99789.147
99789.147
99789.147
99789.147
99789.148
99789.148
99789.148
99789.148
99789.148
99789.148
99789.149
99789.149
99789.149
99789.149
99789.149
99789.149
99789.15
99789.15
99789.15
99789.15
99789.15
99789.151
99789.151
99789.151
99789.151
99789.151
99789.151
99789.152
99789.152
99789.152
99789.152
99789.152
99789.153
99789.153
99789.153
99789.153
99789.153
99789.154
99789.154
99789.154
99789.154
99789.154
99789.154
99789.155
99789.155
99789.155
99789.155
99789.155
99789.156
99789.156
99789.156
99789.156
99789.156
99789.157
99789.157
99789.157
99789.157
99789.157
99789.158
99789.158
99789.158
99789.158
99789.158
99789.158
99789.159
99789.159
99789.159
99789.159
99789.159
99789.16
99789.16
99789.16
99789.16
99789.16
99789.161
99789.161
99789.161
99789.161
99789.161
99789.162
99789.162
99789.162
99789.162
99789.162
99789.163
99789.163
99789.163
99789.163
99789.163
99789.164
99789.164
99789.164
99789.164
99789.164
99789.165
99789.165
99789.165
99789.165
99789.165
99789.166
99789.166
99789.166
99789.166
99789.166
99789.167
99789.167
99789.167
99789.167
99789.167
99789.168
99789.168
99789.168
99789.168
99789.168
99789.169
99789.169
99789.169
99789.169
99789.17
99789.17
99789.17
99789.17
99789.17
99789.171
99789.171
99789.171
99789.171
99789.171
99789.172
99789.172
99789.172
99789.172
99789.172
99789.173
99789.173
99789.173
99789.173
99789.174
99789.174
99789.174
99789.174
99789.174
99789.175
99789.175
99789.175
99789.175
99789.175
99789.176
99789.176
99789.176
99789.176
99789.177
99789.177
99789.177
99789.177
99789.177
99789.178
99789.178
99789.178
99789.178
99789.178
99789.179
99789.179
99789.179
99789.179
99789.18
99789.18
99789.18
99789.18
99789.18
99789.181
99789.181
99789.181
99789.181
99789.182
99789.182
99789.182
99789.182
99789.182
99789.183
99789.183
99789.183
99789.183
99789.184
99789.184
99789.184
99789.184
99789.185
99789.185
99789.185
99789.185
99789.185
99789.186
99789.186
99789.186
99789.186
99789.187
99789.187
99789.187
99789.187
99789.187
99789.188
99789.188
99789.188
99789.188
99789.189
99789.189
99789.189
99789.189
99789.19
99789.19
99789.19
99789.19
99789.19
99789.191
99789.191
99789.191
99789.191
99789.192
99789.192
99789.192
99789.192
99789.193
99789.193
99789.193
99789.193
99789.194
99789.194
99789.194
99789.194
99789.195
99789.195
99789.195
99789.195
99789.195
99789.196
99789.196
99789.196
99789.196
99789.197
99789.197
99789.197
99789.197
99789.198
99789.198
99789.198
99789.198
99789.199
99789.199
99789.199
99789.199
99789.2
99789.2
99789.2
99789.2
99789.201
99789.201
99789.201
99789.201
99789.202
99789.202
99789.202
99789.202
99789.203
99789.203
99789.203
99789.203
99789.204
99789.204
99789.204
99789.204
99789.205
99789.205
99789.205
99789.205
99789.206
99789.206
99789.206
99789.206
99789.207
99789.207
99789.207
99789.207
99789.208
99789.208
99789.208
99789.209
99789.209
99789.209
99789.209
99789.21
99789.21
99789.21
99789.21
99789.211
99789.211
99789.211
99789.211
99789.212
99789.212
99789.212
99789.212
99789.213
99789.213
99789.213
99789.214
99789.214
99789.214
99789.214
99789.215
99789.215
99789.215
99789.215
99789.216
99789.216
99789.216
99789.216
99789.217
99789.217
99789.217
99789.218
99789.218
99789.218
99789.218
99789.219
99789.219
99789.219
99789.219
99789.22
99789.22
99789.22
99789.221
99789.221
99789.221
99789.221
99789.222
99789.222
99789.222
99789.223
99789.223
99789.223
99789.223
99789.224
99789.224
99789.224
99789.225
99789.225
99789.225
99789.225
99789.226
99789.226
99789.226
99789.226
99789.227
99789.227
99789.227
99789.228
99789.228
99789.228
99789.228
99789.229
99789.229
99789.229
99789.23
99789.23
99789.23
99789.231
99789.231
99789.231
99789.231
99789.232
99789.232
99789.232
99789.233
99789.233
99789.233
99789.233
99789.234
99789.234
99789.234
99789.235
99789.235
99789.235
99789.235
99789.236
99789.236
99789.236
99789.237
99789.237
99789.237
99789.238
99789.238
99789.238
99789.238
99789.239
99789.239
99789.239
99789.24
99789.24
99789.24
99789.241
99789.241
99789.241
99789.241
99789.242
99789.242
99789.242
99789.243
99789.243
99789.243
99789.244
99789.244
99789.244
99789.244
99789.245
99789.245
99789.245
99789.246
99789.246
99789.246
99789.247
99789.247
99789.247
99789.247
99789.248
99789.248
99789.248
99789.249
99789.249
99789.249
99789.25
99789.25
99789.25
99789.251
99789.251
99789.251
99789.252
99789.252
99789.252
99789.252
99789.253
99789.253
99789.253
99789.254
99789.254
99789.254
99789.255
99789.255
99789.255
99789.256
99789.256
99789.256
99789.257
99789.257
99789.257
99789.258
99789.258
99789.258
99789.259
99789.259
99789.259
99789.26
99789.26
99789.26
99789.26
99789.261
99789.261
99789.261
99789.262
99789.262
99789.262
99789.263
99789.263
99789.263
99789.264
99789.264
99789.264
99789.265
99789.265
99789.265
99789.266
99789.266
99789.266
99789.267
99789.267
99789.267
99789.268
99789.268
99789.268
99789.269
99789.269
99789.269
99789.27
99789.27
99789.27
99789.271
99789.271
99789.272
99789.272
99789.272
99789.273
99789.273
99789.273
99789.274
99789.274
99789.274
99789.275
99789.275
99789.275
99789.276
99789.276
99789.276
99789.277
99789.277
99789.277
99789.278
99789.278
99789.279
99789.279
99789.279
99789.28
99789.28
99789.28
99789.281
99789.281
99789.281
99789.282
99789.282
99789.282
99789.283
99789.283
99789.284
99789.284
99789.284
99789.285
99789.285
99789.285
99789.286
99789.286
99789.286
99789.287
99789.287
99789.287
99789.288
99789.288
99789.289
99789.289
99789.289
99789.29
99789.29
99789.29
99789.291
99789.291
99789.292
99789.292
99789.292
99789.293
99789.293
99789.293
99789.294
99789.294
99789.294
99789.295
99789.295
99789.296
99789.296
99789.296
99789.297
99789.297
99789.297
99789.298
99789.298
99789.299
99789.299
99789.299
99789.3
99789.3
99789.301
99789.301
99789.301
99789.302
99789.302
99789.302
99789.303
99789.303
99789.304
99789.304
99789.304
99789.305
99789.305
99789.306
99789.306
99789.306
99789.307
99789.307
99789.307
99789.308
99789.308
99789.309
99789.309
99789.309
99789.31
99789.31
99789.311
99789.311
99789.311
99789.312
99789.312
99789.313
99789.313
99789.313
99789.314
99789.314
99789.315
99789.315
99789.315
99789.316
99789.316
99789.317
99789.317
99789.317
99789.318
99789.318
99789.319
99789.319
99789.319
99789.32
99789.32
99789.321
99789.321
99789.321
99789.322
99789.322
99789.323
99789.323
99789.324
99789.324
99789.324
99789.325
99789.325
99789.326
99789.326
99789.326
99789.327
99789.327
99789.328
99789.328
99789.328
99789.329
99789.329
99789.33
99789.33
99789.331
99789.331
99789.331
99789.332
99789.332
99789.333
99789.333
99789.334
99789.334
99789.334
99789.335
99789.335
99789.336
99789.336
99789.337
99789.337
99789.337
99789.338
99789.338
99789.339
99789.339
99789.34
99789.34
99789.34
99789.341
99789.341
99789.342
99789.342
99789.343
99789.343
99789.343
99789.344
99789.344
99789.345
99789.345
99789.346
99789.346
99789.347
99789.347
99789.347
99789.348
99789.348
99789.349
99789.349
99789.35
99789.35
99789.351
99789.351
99789.351
99789.352
99789.352
99789.353
99789.353
99789.354
99789.354
99789.355
99789.355
99789.355
99789.356
99789.356
99789.357
99789.357
99789.358
99789.358
99789.359
99789.359
99789.359
99789.36
99789.36
99789.361
99789.361
99789.362
99789.362
99789.363
99789.363
99789.364
99789.364
99789.364
99789.365
99789.365
99789.366
99789.366
99789.367
99789.367
99789.368
99789.368
99789.369
99789.369
99789.369
99789.37
99789.37
99789.371
99789.371
99789.372
99789.372
99789.373
99789.373
99789.374
99789.374
99789.375
99789.375
99789.375
99789.376
99789.376
99789.377
99789.377
99789.378
99789.378
99789.379
99789.379
99789.38
99789.38
99789.381
99789.381
99789.382
99789.382
99789.382
99789.383
99789.383
99789.384
99789.384
99789.385
99789.385
99789.386
99789.386
99789.387
99789.387
99789.388
99789.388
99789.389
99789.389
99789.39
99789.39
99789.39
99789.391
99789.391
99789.392
99789.392
99789.393
99789.393
99789.394
99789.394
99789.395
99789.395
99789.396
99789.396
99789.397
99789.397
99789.398
99789.398
99789.399
99789.399
99789.4
99789.4
99789.4
99789.401
99789.401
99789.402
99789.402
99789.403
99789.403
99789.404
99789.404
99789.405
99789.405
99789.406
99789.406
99789.407
99789.407
99789.408
99789.408
99789.409
99789.409
99789.41
99789.41
99789.411
99789.411
99789.412
99789.412
99789.413
99789.413
99789.414
99789.414
99789.415
99789.415
99789.416
99789.416
99789.417
99789.417
99789.418
99789.418
99789.419
99789.419
99789.42
99789.42
99789.421
99789.422
99789.422
99789.423
99789.423
99789.424
99789.424
99789.425
99789.425
99789.426
99789.426
99789.427
99789.427
99789.428
99789.429
99789.429
99789.43
99789.43
99789.431
99789.431
99789.432
99789.432
99789.433
99789.434
99789.434
99789.435
99789.435
99789.436
99789.436
99789.437
99789.438
99789.438
99789.439
99789.439
99789.44
99789.441
99789.441
99789.442
99789.442
99789.443
99789.444
99789.444
99789.445
99789.446
99789.446
99789.447
99789.447
99789.448
99789.449
99789.449
99789.45
99789.451
99789.451
99789.452
99789.453
99789.453
99789.454
99789.455
99789.456
99789.456
99789.457
99789.458
99789.458
99789.459
99789.46
99789.46
99789.461
99789.462
99789.463
99789.463
99789.464
99789.465
99789.466
99789.466
99789.467
99789.468
99789.469
99789.47
99789.47
99789.471
99789.472
99789.473
99789.474
99789.475
99789.475
99789.476
99789.477
99789.478
99789.479
99789.48
99789.481
99789.482
99789.482
99789.483
99789.484
99789.485
99789.486
99789.487
99789.488
99789.489
99789.49
99789.491
99789.492
99789.493
99789.494
99789.495
99789.496
99789.497
99789.498
99789.499
99789.5
99789.501
99789.502
99789.503
99789.505
99789.506
99789.507
99789.508
99789.509
99789.51
99789.512
99789.513
99789.514
99789.515
99789.516
99789.518
99789.519
99789.52
99789.521
99789.523
99789.524
99789.525
99789.527
99789.528
99789.529
99789.531
99789.532
99789.534
99789.535
99789.537
99789.538
99789.54
99789.541
99789.543
99789.544
99789.546
99789.547
99789.549
99789.551
99789.552
99789.554
99789.555
99789.557
99789.559
99789.561
99789.562
99789.564
99789.566
99789.568
99789.57
99789.572
99789.573
99789.575
99789.577
99789.579
99789.581
99789.583
99789.585
99789.588
99789.59
99789.592
99789.594
99789.596
99789.598
99789.601
99789.603
99789.605
99789.608
99789.61
99789.613
99789.615
99789.618
99789.62
99789.623
99789.626
99789.628
99789.631
99789.634
99789.637
99789.64
99789.643
99789.646
99789.649
99789.652
99789.655
99789.658
99789.662
99789.665
99789.669
99789.672
99789.676
99789.679
99789.683
99789.687
99789.691
99789.695
99789.699
99789.703
99789.707
99789.711
99789.716
99789.72
99789.725
99789.73
99789.734
99789.739
99789.745
99789.75
99789.755
99789.761
99789.766
99789.772
99789.778
99789.784
99789.79
99789.796
99789.803
99789.81
99789.816
99789.824
99789.831
99789.838
99789.846
99789.854
99789.862
99789.871
99789.879
99789.888
99789.897
99789.907
99789.916
99789.927
99789.937
99789.948
99789.959
99789.97
99789.982
99789.994
99790.006
99790.019
99790.032
99790.046
99790.06
99790.075
99790.09
99790.106
99790.122
99790.139
99790.156
99790.174
99790.192
99790.212
99790.231
99790.252
99790.273
99790.295
99790.318
99790.342
99790.366
99790.391
99790.418
99790.445
99790.473
99790.502
99790.532
99790.564
99790.596
99790.63
99790.665
99790.701
99790.738
99790.777
99790.818
99790.859
99790.903
99790.948
99790.995
99791.043
99791.093
99791.145
99791.2
99791.256
99791.314
99791.375
99791.437
99791.503
99791.57
99791.64
99791.713
99791.789
99791.867
99791.949
99792.034
99792.121
99792.213
99792.307
99792.406
99792.508
99792.614
99792.724
99792.838
99792.957
99793.08
99793.208
99793.341
99793.479
99793.622
99793.77
99793.925
99794.085
99794.251
99794.424
99794.604
99794.79
99794.984
99795.184
99795.393
99795.61
99795.834
99796.068
99796.31
99796.562
99796.823
99797.095
99797.376
99797.669
99797.972
99798.288
99798.615
99798.955
99799.307
99799.673
99800.053
99800.448
99800.857
99801.283
99801.724
99802.182
99802.657
99803.15
99803.662
99804.194
99804.745
99805.318
99805.912
99806.528
99807.168
99807.831
99808.52
99809.235
99809.976
99810.745
99811.543
99812.371
99813.23
99814.121
99815.046
99816.005
99816.999
99818.031
99819.101
99820.211
99821.362
99822.556
99823.795
99825.079
99826.411
99827.794
99829.229
99830.715
99832.257
99833.855
99835.512
99837.23
99839.011
99840.858
99842.771
99844.755
99846.811
99848.942
99851.15
99853.438
99855.81
99858.267
99860.813
99863.451
99866.184
99869.016
99871.949
99874.987
99878.134
99881.393
99884.769
99888.264
99891.885
99895.633
99899.515
99903.533
99907.694
99912
99916.459
99921.073
99925.849
99930.792
99935.907
99941.2
99946.676
99952.342
99958.203
99964.266
99970.538
99977.024
99983.731
99990.667
99997.838
100005.25
100012.92
100020.84
100029.03
100037.49
100046.24
100055.27
100064.61
100074.25
100084.21
100094.49
100105.12
100116.08
100127.41
100139.09
100151.16
100163.61
100176.45
100189.71
100203.38
100217.48
100232.02
100247.02
100262.48
100278.41
100294.84
100311.76
100329.2
100347.16
100365.66
100384.72
100404.33
100424.52
100445.31
100466.69
100488.69
100511.32
100534.6
100558.53
100583.12
100608.41
100634.38
100661.07
100688.48
100716.62
100745.52
100775.17
100805.6
100836.81
100868.82
100901.64
100935.28
100969.76
101005.07
101041.25
101078.28
101116.19
101154.99
101194.67
101235.26
101276.75
101319.16
101362.49
101406.74
101451.93
101498.05
101545.11
101593.11
101642.06
101691.95
101742.79
101794.56
101847.28
101900.94
101955.53
102011.05
102067.5
102124.85
102183.12
102242.29
102302.34
102363.26
102425.05
102487.69
102551.16
102615.45
102680.54
102746.41
102813.04
102880.4
102948.49
103017.27
103086.72
103156.82
103227.53
103298.84
103370.71
103443.11
103516.02
103589.4
103663.22
103737.45
103812.06
103887.01
103962.27
104037.8
104113.58
104189.56
104265.7
104341.98
104418.36
104494.8
104571.26
104647.71
104724.11
104800.43
104876.64
104952.69
105028.55
105104.18
105179.56
105254.65
105329.42
105403.84
105477.86
105551.47
105624.63
105697.32
105769.5
105841.15
105912.25
105982.76
106052.66
106121.93
106190.55
106258.5
106325.75
106392.28
106458.09
106523.15
106587.45
106650.97
106713.69
106775.62
106836.73
106897.01
106956.46
107015.07
107072.82
107129.73
107185.77
107240.95
107295.26
107348.7
107401.27
107452.97
107503.8
107553.77
107602.86
107651.09
107698.46
107744.97
107790.64
107835.45
107879.43
107922.58
107964.9
108006.4
108047.1
108086.99
108126.1
108164.42
108201.97
108238.76
108274.81
108310.11
108344.68
108378.54
108411.69
108444.15
108475.93
108507.04
108537.49
108567.3
108596.48
108625.04
108652.99
108680.34
108707.12
108733.32
108758.97
108784.07
108808.65
108832.7
108856.25
108879.3
108901.87
108923.97
108945.61
108966.8
108987.56
109007.9
109027.82
109047.35
109066.48
109085.24
109103.63
109121.66
109139.34
109156.69
109173.72
109190.43
109206.83
109222.94
109238.76
109254.3
109269.57
109284.59
109299.35
109313.88
109328.17
109342.23
109356.08
109369.71
109383.15
109396.39
109409.45
109422.33
109435.03
109447.57
109459.95
109472.17
109484.25
109496.2
109508
109519.69
109531.24
109542.69
109554.02
109565.25
109576.38
109587.41
109598.35
109609.21
109619.99
109630.69
109641.32
109651.89
109662.39
109672.83
109683.21
109693.55
109703.84
109714.08
109724.28
109734.45
109744.58
109754.69
109764.76
109774.81
109784.84
109794.85
109804.85
109814.83
109824.8
109834.77
109844.73
109854.68
109864.63
109874.59
109884.55
109894.52
109904.49
109914.47
109924.46
109934.47
109944.49
109954.53
109964.59
109974.67
109984.76
109994.88
110005.03
110015.2
110025.4
110035.62
110045.88
110056.17
110066.48
110076.84
110087.22
110097.64
110108.1
110118.59
110129.12
110139.69
110150.3
110160.95
110171.64
110182.37
110193.14
110203.96
110214.82
110225.73
110236.68
110247.68
110258.72
110269.81
110280.95
110292.13
110303.36
110314.64
110325.97
110337.35
110348.78
110360.25
110371.78
110383.36
110394.99
110406.67
110418.4
110430.18
110442.01
110453.9
110465.84
110477.83
110489.87
110501.96
110514.11
110526.31
110538.56
110550.86
110563.22
110575.63
110588.09
110600.61
110613.18
110625.8
110638.47
110651.2
110663.98
110676.81
110689.7
110702.64
110715.63
110728.67
110741.77
110754.91
110768.11
110781.37
110794.67
110808.03
110821.44
110834.9
110848.41
110861.97
110875.59
110889.25
110902.97
110916.74
110930.56
110944.43
110958.34
110972.31
110986.33
111000.4
111014.52
111028.69
111042.91
111057.17
111071.49
111085.85
111100.26
111114.72
111129.23
111143.78
111158.39
111173.04
111187.73
111202.48
111217.27
111232.1
111246.99
111261.92
111276.89
111291.91
111306.97
111322.08
111337.24
111352.43
111367.67
111382.96
111398.29
111413.66
111429.08
111444.53
111460.03
111475.58
111491.16
111506.79
111522.46
111538.16
111553.91
111569.7
111585.53
111601.41
111617.32
111633.26
111649.25
111665.28
111681.35
111697.45
111713.6
111729.78
111746
111762.25
111778.55
111794.88
111811.24
111827.64
111844.08
111860.56
111877.07
111893.61
111910.19
111926.8
111943.45
111960.14
111976.85
111993.6
112010.39
112027.2
112044.05
112060.93
112077.84
112094.79
112111.77
112128.77
112145.81
112162.88
112179.98
112197.11
112214.28
112231.47
112248.69
112265.93
112283.21
112300.52
112317.85
112335.22
112352.61
112370.03
112387.47
112404.95
112422.45
112439.97
112457.53
112475.11
112492.71
112510.34
112528
112545.68
112563.38
112581.11
112598.87
112616.64
112634.45
112652.27
112670.12
112687.99
112705.88
112723.8
112741.74
112759.7
112777.68
112795.68
112813.71
112831.75
112849.82
112867.91
112886.01
112904.14
112922.28
112940.45
112958.63
112976.84
112995.06
113013.3
113031.56
113049.83
113068.13
113086.44
113104.77
113123.11
113141.48
113159.85
113178.25
113196.66
113215.09
113233.53
113251.98
113270.46
113288.94
113307.44
113325.96
113344.49
113363.03
113381.59
113400.16
113418.74
113437.33
113455.94
113474.56
113493.19
113511.84
113530.49
113549.16
113567.84
113586.53
113605.23
113623.94
113642.66
113661.39
113680.13
113698.88
113717.64
113736.41
113755.19
113773.97
113792.77
113811.57
113830.38
113849.2
113868.02
113886.86
113905.7
113924.54
113943.4
113962.26
113981.12
114000
114018.87
114037.76
114056.65
114075.54
114094.44
114113.34
114132.25
114151.16
114170.08
114188.99
114207.92
114226.84
114245.77
114264.7
114283.64
114302.57
114321.51
114340.45
114359.4
114378.34
114397.29
114416.24
114435.18
114454.13
114473.08
114492.02
114510.97
114529.92
114548.87
114567.81
114586.76
114605.7
114624.64
114643.59
114662.53
114681.47
114700.4
114719.33
114738.26
114757.19
114776.11
114795.03
114813.95
114832.86
114851.77
114870.67
114889.57
114908.47
114927.36
114946.24
114965.12
114984
115002.86
115021.72
115040.58
115059.43
115078.27
115097.11
115115.93
115134.75
115153.56
115172.37
115191.17
115209.95
115228.73
115247.5
115266.27
115285.02
115303.76
115322.49
115341.22
115359.93
115378.63
115397.32
115416
115434.67
115453.33
115471.98
115490.61
115509.23
115527.84
115546.44
115565.03
115583.6
115602.16
115620.71
115639.24
115657.75
115676.26
115694.75
115713.22
115731.68
115750.13
115768.56
115786.97
115805.37
115823.75
115842.11
115860.46
115878.79
115897.11
115915.4
115933.68
115951.95
115970.19
115988.42
116006.62
116024.81
116042.98
116061.13
116079.27
116097.38
116115.47
116133.54
116151.59
116169.62
116187.63
116205.62
116223.58
116241.53
116259.45
116277.35
116295.23
116313.08
116330.92
116348.73
116366.51
116384.28
116402.01
116419.73
116437.42
116455.08
116472.72
116490.34
116507.93
116525.49
116543.03
116560.54
116578.02
116595.48
116612.91
116630.31
116647.69
116665.04
116682.36
116699.65
116716.92
116734.15
116751.36
116768.53
116785.68
116802.8
116819.89
116836.95
116853.98
116870.97
116887.94
116904.85
116921.71
116938.52
116955.27
116971.95
116988.56
117005.1
117021.56
117037.93
117054.23
117070.44
117086.57
117102.62
117118.6
117134.5
117150.33
117166.09
117181.79
117197.43
117213
117228.52
117243.99
117259.41
117274.78
117290.1
117305.38
117320.62
117335.81
117350.97
117366.08
117381.16
117396.19
117411.19
117426.15
117441.07
117455.95
117470.79
117485.59
117500.36
117515.08
117529.77
117544.41
117559.02
117573.59
117588.11
117602.6
117617.05
117631.45
117645.82
117660.14
117674.42
117688.67
117702.86
117717.02
117731.14
117745.21
117759.24
117773.23
117787.17
117801.07
117814.93
117828.74
117842.51
117856.24
117869.92
117883.56
117897.15
117910.7
117924.2
117937.65
117951.06
117964.43
117977.75
117991.02
118004.25
118017.43
118030.56
118043.65
118056.68
118069.68
118082.62
118095.52
118108.36
118121.16
118133.91
118146.62
118159.27
118171.88
118184.43
118196.94
118209.4
118221.8
118234.16
118246.47
118258.73
118270.94
118283.09
118295.2
118307.25
118319.26
118331.21
118343.11
118354.96
118366.76
118378.51
118390.2
118401.84
118413.43
118424.97
118436.46
118447.89
118459.27
118470.59
118481.87
118493.09
118504.25
118515.37
118526.43
118537.43
118548.38
118559.28
118570.12
118580.91
118591.65
118602.33
118612.95
118623.52
118634.04
118644.5
118654.9
118665.26
118675.55
118685.79
118695.98
118706.1
118716.18
118726.2
118736.16
118746.06
118755.91
118765.71
118775.45
118785.13
118794.75
118804.32
118813.84
118823.29
118832.7
118842.04
118851.33
118860.56
118869.73
118878.85
118887.91
118896.92
118905.87
118914.76
118923.59
118932.37
118941.09
118949.76
118958.37
118966.92
118975.41
118983.85
118992.23
119000.56
119008.82
119017.04
119025.19
119033.29
119041.33
119049.32
119057.24