/*--------------------------------*- C++ -*----------------------------------*\
  =========                 |
  \\      /  F ield         | OpenFOAM: The Open Source CFD Toolbox
   \\    /   O peration     | Website:  https://openfoam.org
    \\  /    A nd           | Version:  7
     \\/     M anipulation  |
\*---------------------------------------------------------------------------*/
FoamFile
{
    version     2.0;
    format      ascii;
    class       volScalarField;
    location    "0.00235";
    object      mag(U);
}
// * * * * * * * * * * * * * * * * * * * * * * * * * * * * * * * * * * * * * //

dimensions      [0 1 -1 0 0 0 0];

internalField   nonuniform List<scalar> 
5000
(
23.17338
23.173379
23.173377
23.173376
23.173375
23.173374
23.173374
23.173374
23.173373
23.173373
23.173372
23.173371
23.17337
23.17337
23.173369
23.173368
23.173368
23.173367
23.173367
23.173366
23.173365
23.173364
23.173364
23.173363
23.173362
23.173362
23.173361
23.173361
23.17336
23.173359
23.173358
23.173358
23.173357
23.173356
23.173356
23.173355
23.173355
23.173354
23.173353
23.173352
23.173352
23.173351
23.17335
23.17335
23.173349
23.173349
23.173348
23.173347
23.173347
23.173346
23.173345
23.173345
23.173344
23.173344
23.173343
23.173342
23.173342
23.173341
23.17334
23.17334
23.173339
23.173339
23.173338
23.173337
23.173337
23.173336
23.173335
23.173335
23.173334
23.173333
23.173333
23.173332
23.173331
23.173331
23.17333
23.17333
23.173329
23.173328
23.173328
23.173327
23.173327
23.173326
23.173325
23.173325
23.173324
23.173323
23.173323
23.173322
23.173322
23.173321
23.173321
23.17332
23.173319
23.173319
23.173318
23.173317
23.173317
23.173316
23.173316
23.173315
23.173314
23.173314
23.173313
23.173313
23.173312
23.173311
23.173311
23.17331
23.173309
23.173309
23.173309
23.173308
23.173307
23.173307
23.173306
23.173305
23.173305
23.173304
23.173304
23.173303
23.173303
23.173302
23.173301
23.173301
23.1733
23.1733
23.173299
23.173299
23.173298
23.173297
23.173297
23.173296
23.173296
23.173295
23.173295
23.173294
23.173293
23.173293
23.173292
23.173292
23.173291
23.173291
23.17329
23.173289
23.173289
23.173288
23.173288
23.173287
23.173287
23.173286
23.173285
23.173285
23.173285
23.173284
23.173283
23.173283
23.173282
23.173281
23.173281
23.173281
23.17328
23.17328
23.173279
23.173278
23.173278
23.173277
23.173276
23.173276
23.173276
23.173275
23.173275
23.173274
23.173273
23.173273
23.173272
23.173272
23.173271
23.173271
23.17327
23.173269
23.173269
23.173268
23.173268
23.173267
23.173267
23.173266
23.173266
23.173265
23.173265
23.173264
23.173264
23.173263
23.173262
23.173262
23.173261
23.173261
23.17326
23.17326
23.173259
23.173259
23.173258
23.173258
23.173257
23.173257
23.173256
23.173255
23.173255
23.173255
23.173254
23.173253
23.173253
23.173252
23.173252
23.173251
23.173251
23.17325
23.17325
23.173249
23.173249
23.173248
23.173248
23.173247
23.173247
23.173246
23.173246
23.173245
23.173245
23.173244
23.173244
23.173243
23.173242
23.173242
23.173242
23.173241
23.173241
23.17324
23.173239
23.173239
23.173239
23.173238
23.173238
23.173237
23.173236
23.173236
23.173235
23.173235
23.173235
23.173234
23.173233
23.173233
23.173232
23.173232
23.173232
23.173231
23.17323
23.17323
23.173229
23.173229
23.173229
23.173228
23.173228
23.173227
23.173227
23.173226
23.173226
23.173225
23.173225
23.173224
23.173224
23.173223
23.173223
23.173222
23.173222
23.173221
23.173221
23.17322
23.17322
23.173219
23.173219
23.173218
23.173218
23.173217
23.173217
23.173216
23.173216
23.173215
23.173215
23.173214
23.173214
23.173213
23.173213
23.173212
23.173212
23.173212
23.173211
23.173211
23.17321
23.17321
23.173209
23.173209
23.173208
23.173208
23.173207
23.173207
23.173206
23.173206
23.173206
23.173205
23.173205
23.173204
23.173204
23.173203
23.173203
23.173202
23.173202
23.173201
23.173201
23.1732
23.1732
23.173199
23.173199
23.173198
23.173198
23.173198
23.173197
23.173197
23.173196
23.173196
23.173195
23.173195
23.173194
23.173194
23.173194
23.173193
23.173192
23.173192
23.173192
23.173191
23.173191
23.17319
23.17319
23.173189
23.173189
23.173189
23.173188
23.173188
23.173187
23.173187
23.173186
23.173186
23.173186
23.173185
23.173185
23.173184
23.173183
23.173183
23.173183
23.173182
23.173182
23.173181
23.173181
23.17318
23.17318
23.17318
23.173179
23.173179
23.173178
23.173178
23.173177
23.173177
23.173177
23.173176
23.173176
23.173175
23.173175
23.173174
23.173174
23.173174
23.173173
23.173173
23.173173
23.173172
23.173171
23.173171
23.173171
23.17317
23.17317
23.17317
23.173169
23.173169
23.173168
23.173168
23.173167
23.173167
23.173167
23.173166
23.173166
23.173165
23.173165
23.173164
23.173164
23.173164
23.173163
23.173163
23.173162
23.173162
23.173162
23.173161
23.173161
23.17316
23.17316
23.173159
23.173159
23.173159
23.173158
23.173158
23.173157
23.173157
23.173157
23.173156
23.173156
23.173155
23.173155
23.173155
23.173154
23.173154
23.173153
23.173153
23.173152
23.173152
23.173152
23.173151
23.173151
23.173151
23.17315
23.17315
23.173149
23.173149
23.173149
23.173148
23.173148
23.173147
23.173147
23.173147
23.173146
23.173146
23.173145
23.173145
23.173145
23.173144
23.173144
23.173143
23.173143
23.173143
23.173142
23.173142
23.173142
23.173141
23.173141
23.17314
23.17314
23.17314
23.173139
23.173139
23.173138
23.173138
23.173137
23.173137
23.173137
23.173137
23.173136
23.173136
23.173135
23.173135
23.173135
23.173134
23.173134
23.173134
23.173133
23.173133
23.173132
23.173132
23.173132
23.173131
23.173131
23.17313
23.17313
23.17313
23.173129
23.173129
23.173129
23.173128
23.173128
23.173127
23.173127
23.173127
23.173127
23.173126
23.173126
23.173125
23.173125
23.173125
23.173124
23.173124
23.173123
23.173123
23.173123
23.173122
23.173122
23.173122
23.173121
23.173121
23.17312
23.17312
23.17312
23.17312
23.173119
23.173119
23.173118
23.173118
23.173118
23.173117
23.173117
23.173117
23.173116
23.173116
23.173115
23.173115
23.173115
23.173115
23.173114
23.173114
23.173113
23.173113
23.173113
23.173113
23.173112
23.173112
23.173111
23.173111
23.173111
23.17311
23.17311
23.17311
23.173109
23.173109
23.173109
23.173108
23.173108
23.173108
23.173107
23.173107
23.173106
23.173106
23.173106
23.173106
23.173105
23.173105
23.173104
23.173104
23.173104
23.173104
23.173103
23.173103
23.173103
23.173102
23.173102
23.173101
23.173101
23.173101
23.173101
23.173101
23.1731
23.1731
23.173099
23.173099
23.173099
23.173099
23.173098
23.173098
23.173098
23.173097
23.173097
23.173096
23.173096
23.173096
23.173096
23.173095
23.173095
23.173095
23.173095
23.173094
23.173094
23.173093
23.173093
23.173093
23.173093
23.173093
23.173092
23.173092
23.173092
23.173091
23.173091
23.173091
23.17309
23.17309
23.17309
23.17309
23.173089
23.173089
23.173089
23.173088
23.173088
23.173087
23.173087
23.173087
23.173087
23.173087
23.173086
23.173086
23.173086
23.173085
23.173085
23.173085
23.173085
23.173085
23.173084
23.173084
23.173084
23.173083
23.173083
23.173083
23.173083
23.173083
23.173082
23.173082
23.173082
23.173081
23.173081
23.173081
23.17308
23.17308
23.17308
23.173079
23.173079
23.173079
23.173079
23.173079
23.173079
23.173078
23.173078
23.173077
23.173077
23.173077
23.173077
23.173077
23.173076
23.173076
23.173076
23.173075
23.173075
23.173075
23.173075
23.173075
23.173074
23.173074
23.173074
23.173074
23.173073
23.173073
23.173073
23.173073
23.173072
23.173072
23.173072
23.173071
23.173071
23.173071
23.173071
23.173071
23.17307
23.17307
23.17307
23.17307
23.173069
23.173069
23.173069
23.173069
23.173068
23.173068
23.173068
23.173068
23.173067
23.173067
23.173067
23.173067
23.173066
23.173066
23.173066
23.173066
23.173065
23.173065
23.173065
23.173065
23.173064
23.173064
23.173064
23.173063
23.173063
23.173063
23.173063
23.173063
23.173062
23.173062
23.173062
23.173062
23.173061
23.173061
23.173061
23.173061
23.17306
23.17306
23.17306
23.17306
23.173059
23.173059
23.173059
23.173058
23.173058
23.173058
23.173058
23.173058
23.173057
23.173057
23.173057
23.173056
23.173056
23.173056
23.173056
23.173055
23.173055
23.173055
23.173055
23.173054
23.173054
23.173054
23.173054
23.173053
23.173053
23.173053
23.173052
23.173052
23.173052
23.173052
23.173051
23.173051
23.173051
23.17305
23.17305
23.17305
23.173049
23.173049
23.173049
23.173049
23.173048
23.173048
23.173048
23.173047
23.173047
23.173047
23.173047
23.173046
23.173046
23.173046
23.173045
23.173045
23.173045
23.173045
23.173044
23.173044
23.173044
23.173043
23.173043
23.173043
23.173042
23.173042
23.173042
23.173041
23.173041
23.173041
23.17304
23.17304
23.17304
23.173039
23.173039
23.173039
23.173038
23.173038
23.173038
23.173037
23.173037
23.173037
23.173036
23.173036
23.173036
23.173035
23.173035
23.173035
23.173034
23.173034
23.173034
23.173033
23.173033
23.173033
23.173032
23.173032
23.173031
23.173031
23.173031
23.17303
23.17303
23.173029
23.173029
23.173029
23.173028
23.173028
23.173028
23.173027
23.173027
23.173026
23.173026
23.173025
23.173025
23.173025
23.173024
23.173024
23.173023
23.173023
23.173023
23.173022
23.173022
23.173021
23.173021
23.17302
23.17302
23.173019
23.173019
23.173019
23.173018
23.173018
23.173017
23.173017
23.173016
23.173016
23.173015
23.173015
23.173014
23.173014
23.173014
23.173013
23.173013
23.173012
23.173012
23.173011
23.173011
23.17301
23.17301
23.173009
23.173009
23.173008
23.173008
23.173007
23.173007
23.173006
23.173006
23.173005
23.173005
23.173004
23.173004
23.173003
23.173003
23.173002
23.173001
23.173001
23.173
23.173
23.172999
23.172999
23.172998
23.172998
23.172997
23.172996
23.172996
23.172995
23.172995
23.172994
23.172994
23.172993
23.172992
23.172992
23.172991
23.172991
23.17299
23.17299
23.172989
23.172988
23.172988
23.172987
23.172986
23.172986
23.172985
23.172985
23.172984
23.172983
23.172983
23.172982
23.172981
23.172981
23.17298
23.172979
23.172979
23.172978
23.172977
23.172977
23.172976
23.172975
23.172975
23.172974
23.172973
23.172972
23.172972
23.172971
23.17297
23.172969
23.172969
23.172968
23.172967
23.172966
23.172966
23.172965
23.172964
23.172963
23.172963
23.172962
23.172961
23.17296
23.172959
23.172958
23.172957
23.172957
23.172956
23.172955
23.172954
23.172953
23.172952
23.172951
23.17295
23.172949
23.172948
23.172947
23.172946
23.172945
23.172944
23.172943
23.172942
23.172941
23.17294
23.172939
23.172938
23.172936
23.172935
23.172934
23.172933
23.172932
23.17293
23.172929
23.172928
23.172926
23.172925
23.172924
23.172922
23.172921
23.172919
23.172918
23.172916
23.172915
23.172913
23.172911
23.17291
23.172908
23.172906
23.172904
23.172903
23.172901
23.172899
23.172897
23.172895
23.172893
23.172891
23.172889
23.172886
23.172884
23.172882
23.172879
23.172877
23.172874
23.172872
23.172869
23.172867
23.172864
23.172861
23.172858
23.172855
23.172852
23.172849
23.172846
23.172842
23.172839
23.172835
23.172832
23.172828
23.172824
23.17282
23.172816
23.172812
23.172808
23.172803
23.172799
23.172794
23.172789
23.172785
23.172779
23.172774
23.172769
23.172763
23.172758
23.172752
23.172746
23.17274
23.172734
23.172727
23.17272
23.172714
23.172707
23.172699
23.172692
23.172684
23.172676
23.172668
23.17266
23.172651
23.172642
23.172633
23.172624
23.172614
23.172604
23.172594
23.172583
23.172573
23.172562
23.17255
23.172538
23.172526
23.172514
23.172501
23.172488
23.172474
23.172461
23.172446
23.172432
23.172417
23.172401
23.172385
23.172369
23.172352
23.172334
23.172317
23.172298
23.172279
23.17226
23.17224
23.17222
23.172199
23.172177
23.172155
23.172132
23.172109
23.172085
23.17206
23.172034
23.172008
23.171981
23.171954
23.171926
23.171897
23.171867
23.171836
23.171805
23.171772
23.171739
23.171705
23.17167
23.171634
23.171597
23.171559
23.171521
23.171481
23.17144
23.171398
23.171355
23.171311
23.171265
23.171219
23.171171
23.171122
23.171072
23.171021
23.170968
23.170914
23.170858
23.170801
23.170743
23.170683
23.170622
23.170559
23.170495
23.170429
23.170361
23.170292
23.170221
23.170148
23.170073
23.169997
23.169919
23.169839
23.169757
23.169673
23.169587
23.169499
23.169409
23.169317
23.169223
23.169126
23.169027
23.168926
23.168823
23.168717
23.168609
23.168499
23.168385
23.16827
23.168151
23.16803
23.167907
23.16778
23.167651
23.167519
23.167384
23.167246
23.167105
23.166961
23.166814
23.166664
23.166511
23.166354
23.166194
23.166031
23.165864
23.165694
23.16552
23.165343
23.165162
23.164977
23.164789
23.164597
23.164401
23.164201
23.163997
23.163789
23.163577
23.163361
23.163141
23.162916
23.162687
23.162454
23.162216
23.161974
23.161727
23.161475
23.161219
23.160958
23.160692
23.160422
23.160146
23.159865
23.15958
23.159289
23.158993
23.158692
23.158385
23.158073
23.157756
23.157433
23.157104
23.15677
23.156431
23.156085
23.155734
23.155376
23.155013
23.154644
23.154269
23.153887
23.1535
23.153106
23.152705
23.152299
23.151885
23.151466
23.151039
23.150607
23.150167
23.14972
23.149267
23.148807
23.14834
23.147866
23.147384
23.146896
23.1464
23.145897
23.145387
23.144869
23.144344
23.143812
23.143272
23.142724
23.142168
23.141605
23.141034
23.140455
23.139868
23.139273
23.13867
23.138059
23.13744
23.136812
23.136177
23.135533
23.134881
23.13422
23.133551
23.132873
23.132187
23.131492
23.130788
23.130076
23.129354
23.128624
23.127886
23.127138
23.126381
23.125616
23.124841
23.124057
23.123264
23.122462
23.12165
23.12083
23.12
23.11916
23.118312
23.117454
23.116586
23.115709
23.114823
23.113927
23.113021
23.112106
23.111181
23.110246
23.109302
23.108348
23.107384
23.10641
23.105427
23.104433
23.10343
23.102417
23.101394
23.100361
23.099319
23.098266
23.097203
23.09613
23.095048
23.093955
23.092852
23.091739
23.090616
23.089483
23.08834
23.087187
23.086024
23.084851
23.083667
23.082474
23.08127
23.080056
23.078832
23.077598
23.076354
23.0751
23.073836
23.072562
23.071278
23.069983
23.068679
23.067364
23.06604
23.064705
23.063361
23.062006
23.060642
23.059268
23.057883
23.056489
23.055085
23.053671
23.052247
23.050814
23.04937
23.047917
23.046454
23.044982
23.0435
23.042008
23.040506
23.038996
23.037475
23.035945
23.034406
23.032857
23.031299
23.029731
23.028155
23.026568
23.024973
23.023369
23.021755
23.020133
23.018502
23.016861
23.015212
23.013554
23.011887
23.010211
23.008527
23.006834
23.005132
23.003422
23.001704
22.999977
22.998242
22.996499
22.994747
22.992987
22.99122
22.989444
22.98766
22.985869
22.984069
22.982263
22.980448
22.978626
22.976796
22.974959
22.973114
22.971263
22.969404
22.967538
22.965665
22.963785
22.961898
22.960004
22.958104
22.956197
22.954283
22.952363
22.950436
22.948504
22.946565
22.94462
22.942669
22.940711
22.938749
22.93678
22.934805
22.932825
22.93084
22.928849
22.926853
22.924851
22.922845
22.920833
22.918816
22.916795
22.914768
22.912738
22.910702
22.908662
22.906618
22.904569
22.902516
22.900459
22.898398
22.896333
22.894265
22.892192
22.890116
22.888037
22.885954
22.883867
22.881778
22.879685
22.87759
22.875491
22.87339
22.871286
22.869179
22.86707
22.864958
22.862844
22.860728
22.85861
22.85649
22.854367
22.852243
22.850118
22.84799
22.845861
22.843731
22.8416
22.839467
22.837333
22.835198
22.833062
22.830925
22.828788
22.82665
22.824511
22.822373
22.820233
22.818094
22.815954
22.813814
22.811675
22.809535
22.807396
22.805258
22.803119
22.800982
22.798845
22.796708
22.794573
22.792438
22.790305
22.788172
22.786041
22.783912
22.781783
22.779656
22.777531
22.775407
22.773286
22.771166
22.769048
22.766932
22.764818
22.762706
22.760597
22.75849
22.756386
22.754284
22.752185
22.750089
22.747996
22.745905
22.743817
22.741733
22.739652
22.737574
22.735499
22.733428
22.73136
22.729296
22.727235
22.725179
22.723126
22.721077
22.719031
22.71699
22.714953
22.712921
22.710892
22.708868
22.706848
22.704833
22.702822
22.700816
22.698815
22.696818
22.694826
22.692839
22.690857
22.68888
22.686908
22.684941
22.68298
22.681023
22.679072
22.677126
22.675186
22.673251
22.671322
22.669399
22.667481
22.665569
22.663662
22.661762
22.659867
22.657978
22.656095
22.654219
22.652348
22.650483
22.648625
22.646773
22.644927
22.643087
22.641254
22.639427
22.637606
22.635792
22.633985
22.632184
22.630389
22.628602
22.62682
22.625046
22.623278
22.621517
22.619763
22.618015
22.616275
22.614541
22.612814
22.611094
22.609381
22.607675
22.605976
22.604284
22.602599
22.600921
22.59925
22.597587
22.59593
22.594281
22.592638
22.591003
22.589375
22.587755
22.586141
22.584535
22.582936
22.581344
22.579759
22.578182
22.576612
22.57505
22.573494
22.571946
22.570405
22.568872
22.567345
22.565827
22.564315
22.562811
22.561314
22.559824
22.558342
22.556867
22.5554
22.553939
22.552486
22.55104
22.549602
22.548171
22.546747
22.545331
22.543921
22.542519
22.541125
22.539737
22.538357
22.536984
22.535618
22.53426
22.532908
22.531564
22.530227
22.528897
22.527574
22.526258
22.52495
22.523648
22.522354
22.521067
22.519787
22.518513
22.517247
22.515988
22.514736
22.51349
22.512252
22.51102
22.509796
22.508578
22.507367
22.506163
22.504966
22.503776
22.502592
22.501415
22.500245
22.499081
22.497924
22.496774
22.495631
22.494494
22.493364
22.49224
22.491123
22.490012
22.488908
22.48781
22.486719
22.485634
22.484555
22.483483
22.482417
22.481358
22.480304
22.479258
22.478217
22.477182
22.476154
22.475132
22.474116
22.473106
22.472103
22.471105
22.470114
22.469128
22.468148
22.467175
22.466207
22.465246
22.46429
22.46334
22.462396
22.461458
22.460525
22.459599
22.458678
22.457763
22.456854
22.45595
22.455052
22.45416
22.453273
22.452392
22.451516
22.450647
22.449782
22.448923
22.44807
22.447222
22.44638
22.445543
22.444711
22.443885
22.443065
22.442249
22.441439
22.440634
22.439835
22.439041
22.438252
22.437468
22.43669
22.435917
22.435149
22.434386
22.433629
22.432876
22.432129
22.431387
22.430649
22.429917
22.42919
22.428468
22.427751
22.427039
22.426332
22.42563
22.424933
22.424241
22.423554
22.422872
22.422195
22.421522
22.420854
22.420192
22.419534
22.418881
22.418232
22.417589
22.41695
22.416316
22.415687
22.415063
22.414443
22.413828
22.413218
22.412612
22.412011
22.411415
22.410823
22.410236
22.409654
22.409076
22.408503
22.407934
22.40737
22.40681
22.406255
22.405705
22.405159
22.404617
22.40408
22.403548
22.40302
22.402496
22.401977
22.401462
22.400951
22.400445
22.399944
22.399446
22.398953
22.398464
22.39798
22.3975
22.397024
22.396552
22.396085
22.395622
22.395163
22.394708
22.394258
22.393811
22.393369
22.392931
22.392497
22.392067
22.391641
22.39122
22.390802
22.390388
22.389979
22.389573
22.389172
22.388774
22.388381
22.387991
22.387605
22.387223
22.386845
22.386471
22.386101
22.385734
22.385372
22.385013
22.384658
22.384306
22.383959
22.383615
22.383275
22.382938
22.382605
22.382276
22.38195
22.381628
22.38131
22.380995
22.380684
22.380376
22.380071
22.379771
22.379473
22.379179
22.378889
22.378601
22.378318
22.378037
22.37776
22.377486
22.377216
22.376948
22.376684
22.376423
22.376166
22.375911
22.37566
22.375411
22.375166
22.374924
22.374685
22.374449
22.374216
22.373986
22.373759
22.373535
22.373314
22.373096
22.37288
22.372668
22.372458
22.372251
22.372047
22.371845
22.371647
22.371451
22.371257
22.371066
22.370878
22.370693
22.37051
22.37033
22.370152
22.369977
22.369804
22.369634
22.369466
22.369301
22.369138
22.368977
22.368819
22.368662
22.368509
22.368357
22.368208
22.368061
22.367917
22.367774
22.367634
22.367495
22.367359
22.367225
22.367093
22.366963
22.366835
22.366709
22.366585
22.366463
22.366343
22.366225
22.366109
22.365994
22.365882
22.365771
22.365662
22.365555
22.36545
22.365346
22.365244
22.365144
22.365045
22.364948
22.364853
22.364759
22.364667
22.364577
22.364488
22.3644
22.364314
22.36423
22.364146
22.364065
22.363985
22.363906
22.363829
22.363753
22.363678
22.363605
22.363533
22.363462
22.363393
22.363324
22.363257
22.363192
22.363127
22.363064
22.363002
22.362941
22.362881
22.362822
22.362764
22.362708
22.362652
22.362598
22.362545
22.362492
22.362441
22.36239
22.362341
22.362292
22.362245
22.362198
22.362153
22.362108
22.362064
22.362021
22.361979
22.361937
22.361897
22.361857
22.361818
22.36178
22.361743
22.361706
22.36167
22.361635
22.361601
22.361567
22.361534
22.361501
22.36147
22.361439
22.361409
22.361379
22.36135
22.361321
22.361293
22.361266
22.36124
22.361213
22.361188
22.361163
22.361138
22.361114
22.361091
22.361068
22.361046
22.361024
22.361002
22.360982
22.360961
22.360941
22.360921
22.360902
22.360884
22.360865
22.360847
22.36083
22.360813
22.360796
22.36078
22.360764
22.360748
22.360733
22.360718
22.360704
22.360689
22.360676
22.360662
22.360649
22.360636
22.360623
22.360611
22.360599
22.360587
22.360576
22.360565
22.360554
22.360543
22.360533
22.360523
22.360513
22.360503
22.360494
22.360484
22.360475
22.360467
22.360458
22.36045
22.360442
22.360434
22.360426
22.360418
22.360411
22.360404
22.360397
22.36039
22.360383
22.360377
22.360371
22.360364
22.360358
22.360352
22.360347
22.360341
22.360336
22.36033
22.360325
22.36032
22.360315
22.360311
22.360306
22.360301
22.360297
22.360293
22.360289
22.360284
22.36028
22.360277
22.360273
22.360269
22.360266
22.360262
22.360259
22.360255
22.360252
22.360249
22.360246
22.360243
22.36024
22.360237
22.360234
22.360232
22.360229
22.360227
22.360224
22.360222
22.360219
22.360217
22.360215
22.360213
22.36021
22.360208
22.360206
22.360204
22.360202
22.360201
22.360199
22.360197
22.360195
22.360194
22.360192
22.36019
22.360189
22.360187
22.360186
22.360184
22.360183
22.360182
22.36018
22.360179
22.360178
22.360176
22.360175
22.360174
22.360173
22.360172
22.360171
22.36017
22.360169
22.360168
22.360167
22.360166
22.360165
22.360164
22.360163
22.360162
22.360161
22.36016
22.360159
22.360159
22.360158
22.360157
22.360156
22.360156
22.360155
22.360154
22.360153
22.360153
22.360152
22.360151
22.360151
22.36015
22.36015
22.360149
22.360148
22.360148
22.360147
22.360147
22.360146
22.360146
22.360145
22.360144
22.360144
22.360144
22.360143
22.360143
22.360142
22.360142
22.360141
22.360141
22.36014
22.36014
22.360139
22.360139
22.360139
22.360138
22.360138
22.360137
22.360137
22.360137
22.360136
22.360136
22.360135
22.360135
22.360135
22.360134
22.360134
22.360134
22.360133
22.360133
22.360133
22.360132
22.360132
22.360131
22.360131
22.360131
22.360131
22.36013
22.36013
22.36013
22.360129
22.360129
22.360129
22.360128
22.360128
22.360128
22.360128
22.360127
22.360127
22.360127
22.360126
22.360126
22.360126
22.360125
22.360125
22.360125
22.360125
22.360124
22.360124
22.360124
22.360124
22.360123
22.360123
22.360123
22.360122
22.360122
22.360122
22.360122
22.360121
22.360121
22.360121
22.360121
22.36012
22.36012
22.36012
22.36012
22.360119
22.360119
22.360119
22.360119
22.360118
22.360118
22.360118
22.360118
22.360117
22.360117
22.360117
22.360117
22.360116
22.360116
22.360116
22.360116
22.360115
22.360115
22.360115
22.360115
22.360115
22.360114
22.360114
22.360114
22.360114
22.360113
22.360113
22.360113
22.360113
22.360112
22.360112
22.360112
22.360112
22.360111
22.360111
22.360111
22.360111
22.360111
22.36011
22.36011
22.36011
22.36011
22.360109
22.360109
22.360109
22.360109
22.360108
22.360108
22.360108
22.360108
22.360108
22.360107
22.360107
22.360107
22.360107
22.360106
22.360106
22.360106
22.360106
22.360106
22.360105
22.360105
22.360105
22.360105
22.360105
22.360104
22.360104
22.360104
22.360104
22.360103
22.360103
22.360103
22.360103
22.360103
22.360102
22.360102
22.360102
22.360102
22.360101
22.360101
22.360101
22.360101
22.360101
22.3601
22.3601
22.3601
22.3601
22.3601
22.360099
22.360099
22.360099
22.360099
22.360098
22.360098
22.360098
22.360098
22.360098
22.360097
22.360097
22.360097
22.360097
22.360097
22.360096
22.360096
22.360096
22.360096
22.360096
22.360095
22.360095
22.360095
22.360095
22.360095
22.360094
22.360094
22.360094
22.360094
22.360094
22.360093
22.360093
22.360093
22.360093
22.360093
22.360092
22.360092
22.360092
22.360092
22.360092
22.360091
22.360091
22.360091
22.360091
22.36009
22.36009
22.36009
22.36009
22.36009
22.360089
22.360089
22.360089
22.360089
22.360089
22.360088
22.360088
22.360088
22.360088
22.360087
22.360087
22.360087
22.360087
22.360087
22.360086
22.360086
22.360086
22.360086
22.360085
22.360085
22.360085
22.360085
22.360085
22.360084
22.360084
22.360084
22.360084
22.360083
22.360083
22.360083
22.360083
22.360082
22.360082
22.360082
22.360082
22.360081
22.360081
22.360081
22.360081
22.36008
22.36008
22.36008
22.36008
22.360079
22.360079
22.360079
22.360079
22.360078
22.360078
22.360078
22.360078
22.360077
22.360077
22.360077
22.360077
22.360076
22.360076
22.360076
22.360076
22.360075
22.360075
22.360075
22.360075
22.360074
22.360074
22.360074
22.360074
22.360073
22.360073
22.360073
22.360073
22.360072
22.360072
22.360072
22.360071
22.360071
22.360071
22.360071
22.36007
22.36007
22.36007
22.36007
22.360069
22.360069
22.360069
22.360069
22.360068
22.360068
22.360068
22.360068
22.360067
22.360067
22.360067
22.360067
22.360066
22.360066
22.360066
22.360066
22.360065
22.360065
22.360065
22.360065
22.360064
22.360064
22.360064
22.360064
22.360063
22.360063
22.360063
22.360063
22.360063
22.360062
22.360062
22.360062
22.360062
22.360061
22.360061
22.360061
22.360061
22.36006
22.36006
22.36006
22.36006
22.360059
22.360059
22.360059
22.360059
22.360058
22.360058
22.360058
22.360058
22.360058
22.360057
22.360057
22.360057
22.360057
22.360056
22.360056
22.360056
22.360056
22.360056
22.360055
22.360055
22.360055
22.360055
22.360054
22.360054
22.360054
22.360054
22.360053
22.360053
22.360053
22.360053
22.360053
22.360052
22.360052
22.360052
22.360052
22.360051
22.360051
22.360051
22.360051
22.360051
22.36005
22.36005
22.36005
22.36005
22.360049
22.360049
22.360049
22.360049
22.360049
22.360048
22.360048
22.360048
22.360048
22.360047
22.360047
22.360047
22.360047
22.360047
22.360046
22.360046
22.360046
22.360046
22.360045
22.360045
22.360045
22.360045
22.360045
22.360044
22.360044
22.360044
22.360044
22.360043
22.360043
22.360043
22.360043
22.360043
22.360042
22.360042
22.360042
22.360042
22.360041
22.360041
22.360041
22.360041
22.360041
22.36004
22.36004
22.36004
22.36004
22.360039
22.360039
22.360039
22.360039
22.360039
22.360038
22.360038
22.360038
22.360038
22.360037
22.360037
22.360037
22.360037
22.360037
22.360036
22.360036
22.360036
22.360036
22.360035
22.360035
22.360035
22.360035
22.360034
22.360034
22.360034
22.360034
22.360034
22.360033
22.360033
22.360033
22.360033
22.360032
22.360032
22.360032
22.360032
22.360032
22.360031
22.360031
22.360031
22.360031
22.360031
22.36003
22.36003
22.36003
22.36003
22.360029
22.360029
22.360029
22.360029
22.360029
22.360028
22.360028
22.360028
22.360028
22.360028
22.360027
22.360027
22.360027
22.360027
22.360027
22.360026
22.360026
22.360026
22.360026
22.360025
22.360025
22.360025
22.360025
22.360025
22.360024
22.360024
22.360024
22.360024
22.360024
22.360023
22.360023
22.360023
22.360023
22.360023
22.360022
22.360022
22.360022
22.360022
22.360022
22.360021
22.360021
22.360021
22.360021
22.360021
22.36002
22.36002
22.36002
22.36002
22.36002
22.360019
22.360019
22.360019
22.360019
22.360019
22.360018
22.360018
22.360018
22.360018
22.360018
22.360017
22.360017
22.360017
22.360017
22.360017
22.360016
22.360016
22.360016
22.360016
22.360016
22.360015
22.360015
22.360015
22.360015
22.360015
22.360014
22.360014
22.360014
22.360014
22.360014
22.360014
22.360013
22.360013
22.360013
22.360013
22.360013
22.360012
22.360012
22.360012
22.360012
22.360011
22.360011
22.360011
22.360011
22.360011
22.36001
22.36001
22.36001
22.36001
22.36001
22.360009
22.360009
22.360009
22.360009
22.360008
22.360008
22.360008
22.360008
22.360008
22.360007
22.360007
22.360007
22.360007
22.360007
22.360006
22.360006
22.360006
22.360006
22.360006
22.360005
22.360005
22.360005
22.360005
22.360004
22.360004
22.360004
22.360004
22.360003
22.360003
22.360003
22.360002
22.360002
22.360002
22.360002
22.360002
22.360001
22.360001
22.360001
22.360001
22.360001
22.360001
22.36
22.36
22.359999
22.359999
22.359998
22.359996
22.359996
22.359996
22.359996
22.359996
22.359997
22.359999
22.360001
22.360005
22.36001
22.360016
22.360025
22.360041
22.360079
22.360159
22.360424
22.360541
22.360206
22.359893
22.359961
22.36
22.359988
22.359977
22.359974
22.35997
22.359966
22.359963
22.359963
22.359963
22.359966
22.359969
22.359974
22.359979
22.359985
22.35999
22.359995
22.359999
22.360003
22.360006
22.360008
22.36001
22.360012
22.360013
22.360013
22.360014
22.360014
22.360014
22.360014
22.360014
22.360014
22.360014
22.360014
22.360014
22.360013
22.360013
22.360013
22.360013
22.360013
22.360012
22.360012
22.360012
22.360011
22.360005
22.360003
22.360009
22.360012
22.360011
22.360011
22.360011
22.360011
22.360011
22.360011
22.36001
22.36001
22.36001
22.36001
22.36001
22.36001
22.36001
22.36001
22.36001
22.36001
22.36001
22.36001
22.36001
22.36001
22.360009
22.360009
22.360009
22.360009
22.360009
22.360009
22.360009
22.360009
22.360009
22.360009
22.360009
22.360009
22.360009
22.360009
22.360008
22.360008
22.360008
22.360008
22.360008
22.360008
22.360008
22.360007
22.360007
22.360007
22.360007
22.360007
22.360007
22.360006
22.360006
22.360006
22.360006
22.360006
22.360005
22.360005
22.360005
22.360005
22.360005
22.360004
22.360004
22.360004
22.360004
22.360004
22.360003
22.360003
22.360003
22.360003
22.360002
22.360002
22.360002
22.360002
22.360002
22.360001
22.360001
22.360001
22.360001
22.36
22.36
22.36
22.36
22.36
22.359999
22.359999
22.359999
22.359999
22.359998
22.359998
22.359998
22.359998
22.359997
22.359997
22.359997
22.359997
22.359997
22.359996
22.359996
22.359996
22.359996
22.359995
22.359995
22.359995
22.359995
22.359994
22.359994
22.359994
22.359994
22.359994
22.359993
22.359993
22.359993
22.359993
22.359993
22.359992
22.359992
22.359992
22.359992
22.359991
22.359991
22.359991
22.359991
22.359991
22.359991
22.35999
22.35999
22.35999
22.35999
22.35999
22.359989
22.359989
22.359989
22.359989
22.359989
22.359989
22.359988
22.359988
22.359988
22.359988
22.359988
22.359988
22.359988
22.359988
22.359988
22.359988
22.359987
22.359987
22.359987
22.359987
22.359987
22.359987
22.359987
22.359987
22.359987
22.359987
22.359987
22.359986
22.359986
22.359986
22.359986
22.359986
22.359986
22.359986
22.359986
22.359986
22.359985
22.359985
22.359985
22.359985