/*--------------------------------*- C++ -*----------------------------------*\
  =========                 |
  \\      /  F ield         | OpenFOAM: The Open Source CFD Toolbox
   \\    /   O peration     | Website:  https://openfoam.org
    \\  /    A nd           | Version:  7
     \\/     M anipulation  |
\*---------------------------------------------------------------------------*/
FoamFile
{
    version     2.0;
    format      ascii;
    class       volScalarField;
    location    "0.00235";
    object      p;
}
// * * * * * * * * * * * * * * * * * * * * * * * * * * * * * * * * * * * * * //

dimensions      [1 -1 -2 0 0 0 0];

internalField   nonuniform List<scalar> 
5000
(
109846.07
109846.07
109846.07
109846.07
109846.07
109846.07
109846.07
109846.07
109846.07
109846.07
109846.07
109846.07
109846.08
109846.08
109846.08
109846.08
109846.08
109846.08
109846.08
109846.08
109846.08
109846.08
109846.08
109846.08
109846.08
109846.08
109846.08
109846.08
109846.08
109846.08
109846.08
109846.08
109846.08
109846.08
109846.08
109846.08
109846.08
109846.08
109846.08
109846.08
109846.08
109846.08
109846.09
109846.09
109846.09
109846.09
109846.09
109846.09
109846.09
109846.09
109846.09
109846.09
109846.09
109846.09
109846.09
109846.09
109846.09
109846.09
109846.09
109846.09
109846.09
109846.09
109846.09
109846.09
109846.09
109846.09
109846.09
109846.09
109846.09
109846.09
109846.09
109846.09
109846.09
109846.1
109846.1
109846.1
109846.1
109846.1
109846.1
109846.1
109846.1
109846.1
109846.1
109846.1
109846.1
109846.1
109846.1
109846.1
109846.1
109846.1
109846.1
109846.1
109846.1
109846.1
109846.1
109846.1
109846.1
109846.1
109846.1
109846.1
109846.1
109846.1
109846.1
109846.1
109846.11
109846.11
109846.11
109846.11
109846.11
109846.11
109846.11
109846.11
109846.11
109846.11
109846.11
109846.11
109846.11
109846.11
109846.11
109846.11
109846.11
109846.11
109846.11
109846.11
109846.11
109846.11
109846.11
109846.11
109846.11
109846.11
109846.11
109846.11
109846.11
109846.11
109846.11
109846.11
109846.11
109846.12
109846.12
109846.12
109846.12
109846.12
109846.12
109846.12
109846.12
109846.12
109846.12
109846.12
109846.12
109846.12
109846.12
109846.12
109846.12
109846.12
109846.12
109846.12
109846.12
109846.12
109846.12
109846.12
109846.12
109846.12
109846.12
109846.12
109846.12
109846.12
109846.12
109846.12
109846.12
109846.12
109846.12
109846.13
109846.13
109846.13
109846.13
109846.13
109846.13
109846.13
109846.13
109846.13
109846.13
109846.13
109846.13
109846.13
109846.13
109846.13
109846.13
109846.13
109846.13
109846.13
109846.13
109846.13
109846.13
109846.13
109846.13
109846.13
109846.13
109846.13
109846.13
109846.13
109846.13
109846.13
109846.13
109846.13
109846.13
109846.13
109846.14
109846.14
109846.14
109846.14
109846.14
109846.14
109846.14
109846.14
109846.14
109846.14
109846.14
109846.14
109846.14
109846.14
109846.14
109846.14
109846.14
109846.14
109846.14
109846.14
109846.14
109846.14
109846.14
109846.14
109846.14
109846.14
109846.14
109846.14
109846.14
109846.14
109846.14
109846.14
109846.14
109846.14
109846.14
109846.14
109846.15
109846.15
109846.15
109846.15
109846.15
109846.15
109846.15
109846.15
109846.15
109846.15
109846.15
109846.15
109846.15
109846.15
109846.15
109846.15
109846.15
109846.15
109846.15
109846.15
109846.15
109846.15
109846.15
109846.15
109846.15
109846.15
109846.15
109846.15
109846.15
109846.15
109846.15
109846.15
109846.15
109846.15
109846.15
109846.15
109846.15
109846.15
109846.16
109846.16
109846.16
109846.16
109846.16
109846.16
109846.16
109846.16
109846.16
109846.16
109846.16
109846.16
109846.16
109846.16
109846.16
109846.16
109846.16
109846.16
109846.16
109846.16
109846.16
109846.16
109846.16
109846.16
109846.16
109846.16
109846.16
109846.16
109846.16
109846.16
109846.16
109846.16
109846.16
109846.16
109846.16
109846.16
109846.16
109846.16
109846.16
109846.17
109846.17
109846.17
109846.17
109846.17
109846.17
109846.17
109846.17
109846.17
109846.17
109846.17
109846.17
109846.17
109846.17
109846.17
109846.17
109846.17
109846.17
109846.17
109846.17
109846.17
109846.17
109846.17
109846.17
109846.17
109846.17
109846.17
109846.17
109846.17
109846.17
109846.17
109846.17
109846.17
109846.17
109846.17
109846.17
109846.17
109846.17
109846.17
109846.17
109846.17
109846.18
109846.18
109846.18
109846.18
109846.18
109846.18
109846.18
109846.18
109846.18
109846.18
109846.18
109846.18
109846.18
109846.18
109846.18
109846.18
109846.18
109846.18
109846.18
109846.18
109846.18
109846.18
109846.18
109846.18
109846.18
109846.18
109846.18
109846.18
109846.18
109846.18
109846.18
109846.18
109846.18
109846.18
109846.18
109846.18
109846.18
109846.18
109846.18
109846.18
109846.18
109846.18
109846.18
109846.19
109846.19
109846.19
109846.19
109846.19
109846.19
109846.19
109846.19
109846.19
109846.19
109846.19
109846.19
109846.19
109846.19
109846.19
109846.19
109846.19
109846.19
109846.19
109846.19
109846.19
109846.19
109846.19
109846.19
109846.19
109846.19
109846.19
109846.19
109846.19
109846.19
109846.19
109846.19
109846.19
109846.19
109846.19
109846.19
109846.19
109846.19
109846.19
109846.19
109846.19
109846.19
109846.2
109846.2
109846.2
109846.2
109846.2
109846.2
109846.2
109846.2
109846.2
109846.2
109846.2
109846.2
109846.2
109846.2
109846.2
109846.2
109846.2
109846.2
109846.2
109846.2
109846.2
109846.2
109846.2
109846.2
109846.2
109846.2
109846.2
109846.2
109846.2
109846.2
109846.2
109846.2
109846.2
109846.2
109846.2
109846.2
109846.2
109846.2
109846.2
109846.2
109846.2
109846.2
109846.2
109846.21
109846.21
109846.21
109846.21
109846.21
109846.21
109846.21
109846.21
109846.21
109846.21
109846.21
109846.21
109846.21
109846.21
109846.21
109846.21
109846.21
109846.21
109846.21
109846.21
109846.21
109846.21
109846.21
109846.21
109846.21
109846.21
109846.21
109846.21
109846.21
109846.21
109846.21
109846.21
109846.21
109846.21
109846.21
109846.21
109846.21
109846.21
109846.21
109846.21
109846.21
109846.21
109846.21
109846.22
109846.22
109846.22
109846.22
109846.22
109846.22
109846.22
109846.22
109846.22
109846.22
109846.22
109846.22
109846.22
109846.22
109846.22
109846.22
109846.22
109846.22
109846.22
109846.22
109846.22
109846.22
109846.22
109846.22
109846.22
109846.22
109846.22
109846.22
109846.22
109846.22
109846.22
109846.22
109846.22
109846.22
109846.22
109846.22
109846.22
109846.22
109846.22
109846.22
109846.22
109846.22
109846.22
109846.22
109846.23
109846.23
109846.23
109846.23
109846.23
109846.23
109846.23
109846.23
109846.23
109846.23
109846.23
109846.23
109846.23
109846.23
109846.23
109846.23
109846.23
109846.23
109846.23
109846.23
109846.23
109846.23
109846.23
109846.23
109846.23
109846.23
109846.23
109846.23
109846.23
109846.23
109846.23
109846.23
109846.23
109846.23
109846.23
109846.23
109846.23
109846.23
109846.23
109846.23
109846.23
109846.23
109846.23
109846.23
109846.23
109846.24
109846.24
109846.24
109846.24
109846.24
109846.24
109846.24
109846.24
109846.24
109846.24
109846.24
109846.24
109846.24
109846.24
109846.24
109846.24
109846.24
109846.24
109846.24
109846.24
109846.24
109846.24
109846.24
109846.24
109846.24
109846.24
109846.24
109846.24
109846.24
109846.24
109846.24
109846.24
109846.24
109846.24
109846.24
109846.24
109846.24
109846.24
109846.24
109846.24
109846.24
109846.24
109846.24
109846.24
109846.24
109846.24
109846.24
109846.24
109846.25
109846.25
109846.25
109846.25
109846.25
109846.25
109846.25
109846.25
109846.25
109846.25
109846.25
109846.25
109846.25
109846.25
109846.25
109846.25
109846.25
109846.25
109846.25
109846.25
109846.25
109846.25
109846.25
109846.25
109846.25
109846.25
109846.25
109846.25
109846.25
109846.25
109846.25
109846.25
109846.25
109846.25
109846.25
109846.25
109846.25
109846.25
109846.25
109846.25
109846.25
109846.25
109846.25
109846.25
109846.25
109846.25
109846.25
109846.25
109846.25
109846.26
109846.26
109846.26
109846.26
109846.26
109846.26
109846.26
109846.26
109846.26
109846.26
109846.26
109846.26
109846.26
109846.26
109846.26
109846.26
109846.26
109846.26
109846.26
109846.26
109846.26
109846.26
109846.26
109846.26
109846.26
109846.26
109846.26
109846.26
109846.26
109846.26
109846.26
109846.26
109846.26
109846.26
109846.26
109846.26
109846.26
109846.26
109846.26
109846.26
109846.26
109846.26
109846.26
109846.26
109846.26
109846.26
109846.26
109846.26
109846.26
109846.26
109846.26
109846.26
109846.26
109846.26
109846.26
109846.26
109846.27
109846.27
109846.27
109846.27
109846.27
109846.27
109846.27
109846.27
109846.27
109846.27
109846.27
109846.27
109846.27
109846.27
109846.27
109846.27
109846.27
109846.27
109846.27
109846.27
109846.27
109846.27
109846.27
109846.27
109846.27
109846.27
109846.27
109846.27
109846.27
109846.27
109846.27
109846.27
109846.27
109846.27
109846.27
109846.27
109846.27
109846.27
109846.27
109846.27
109846.27
109846.27
109846.27
109846.27
109846.27
109846.27
109846.27
109846.27
109846.27
109846.27
109846.27
109846.27
109846.27
109846.27
109846.27
109846.27
109846.27
109846.27
109846.27
109846.27
109846.27
109846.27
109846.27
109846.27
109846.27
109846.27
109846.27
109846.27
109846.27
109846.27
109846.27
109846.27
109846.27
109846.27
109846.27
109846.27
109846.27
109846.27
109846.27
109846.27
109846.27
109846.27
109846.28
109846.28
109846.28
109846.28
109846.28
109846.28
109846.28
109846.28
109846.28
109846.28
109846.28
109846.28
109846.28
109846.28
109846.28
109846.28
109846.28
109846.28
109846.28
109846.28
109846.28
109846.28
109846.28
109846.28
109846.28
109846.28
109846.28
109846.28
109846.28
109846.28
109846.28
109846.28
109846.28
109846.28
109846.28
109846.28
109846.28
109846.28
109846.28
109846.28
109846.28
109846.28
109846.28
109846.28
109846.28
109846.28
109846.28
109846.28
109846.28
109846.28
109846.28
109846.28
109846.28
109846.28
109846.28
109846.28
109846.28
109846.28
109846.28
109846.28
109846.28
109846.28
109846.28
109846.28
109846.28
109846.28
109846.28
109846.28
109846.28
109846.28
109846.28
109846.28
109846.28
109846.28
109846.28
109846.28
109846.28
109846.28
109846.28
109846.28
109846.28
109846.28
109846.28
109846.28
109846.28
109846.28
109846.28
109846.28
109846.28
109846.28
109846.27
109846.27
109846.27
109846.27
109846.27
109846.27
109846.27
109846.27
109846.27
109846.27
109846.27
109846.27
109846.27
109846.27
109846.27
109846.27
109846.27
109846.27
109846.27
109846.27
109846.27
109846.27
109846.27
109846.27
109846.27
109846.27
109846.27
109846.27
109846.27
109846.27
109846.27
109846.27
109846.27
109846.27
109846.27
109846.27
109846.27
109846.27
109846.27
109846.27
109846.26
109846.26
109846.26
109846.26
109846.26
109846.26
109846.26
109846.26
109846.26
109846.26
109846.26
109846.26
109846.26
109846.26
109846.26
109846.26
109846.26
109846.25
109846.25
109846.25
109846.25
109846.25
109846.25
109846.25
109846.25
109846.25
109846.25
109846.24
109846.24
109846.24
109846.24
109846.24
109846.24
109846.24
109846.24
109846.23
109846.23
109846.23
109846.23
109846.23
109846.23
109846.23
109846.22
109846.22
109846.22
109846.22
109846.22
109846.21
109846.21
109846.21
109846.21
109846.2
109846.2
109846.2
109846.2
109846.19
109846.19
109846.19
109846.19
109846.18
109846.18
109846.18
109846.17
109846.17
109846.17
109846.16
109846.16
109846.15
109846.15
109846.15
109846.14
109846.14
109846.13
109846.13
109846.12
109846.12
109846.11
109846.11
109846.1
109846.1
109846.09
109846.09
109846.08
109846.07
109846.07
109846.06
109846.05
109846.05
109846.04
109846.03
109846.02
109846.02
109846.01
109846
109845.99
109845.98
109845.97
109845.96
109845.96
109845.95
109845.94
109845.92
109845.91
109845.9
109845.89
109845.88
109845.87
109845.86
109845.84
109845.83
109845.82
109845.8
109845.79
109845.78
109845.76
109845.75
109845.73
109845.71
109845.7
109845.68
109845.66
109845.64
109845.63
109845.61
109845.59
109845.57
109845.55
109845.53
109845.51
109845.48
109845.46
109845.44
109845.41
109845.39
109845.37
109845.34
109845.31
109845.29
109845.26
109845.23
109845.2
109845.17
109845.14
109845.11
109845.08
109845.05
109845.01
109844.98
109844.94
109844.91
109844.87
109844.83
109844.79
109844.75
109844.71
109844.67
109844.63
109844.58
109844.54
109844.49
109844.45
109844.4
109844.35
109844.3
109844.25
109844.2
109844.14
109844.09
109844.03
109843.98
109843.92
109843.86
109843.8
109843.74
109843.67
109843.61
109843.54
109843.47
109843.4
109843.33
109843.26
109843.19
109843.11
109843.03
109842.95
109842.87
109842.79
109842.71
109842.62
109842.54
109842.45
109842.36
109842.26
109842.17
109842.07
109841.98
109841.88
109841.78
109841.67
109841.57
109841.46
109841.35
109841.24
109841.12
109841.01
109840.89
109840.77
109840.65
109840.52
109840.39
109840.26
109840.13
109840
109839.86
109839.72
109839.58
109839.44
109839.29
109839.14
109838.99
109838.84
109838.68
109838.52
109838.36
109838.19
109838.03
109837.86
109837.68
109837.51
109837.33
109837.15
109836.96
109836.78
109836.59
109836.39
109836.2
109836
109835.8
109835.59
109835.38
109835.17
109834.96
109834.74
109834.52
109834.29
109834.06
109833.83
109833.6
109833.36
109833.12
109832.87
109832.62
109832.37
109832.12
109831.86
109831.6
109831.33
109831.06
109830.79
109830.51
109830.23
109829.94
109829.66
109829.36
109829.07
109828.77
109828.47
109828.16
109827.85
109827.53
109827.21
109826.89
109826.56
109826.23
109825.9
109825.56
109825.22
109824.87
109824.52
109824.16
109823.8
109823.44
109823.07
109822.7
109822.32
109821.94
109821.56
109821.17
109820.77
109820.38
109819.97
109819.57
109819.16
109818.74
109818.32
109817.9
109817.47
109817.04
109816.6
109816.16
109815.71
109815.26
109814.81
109814.35
109813.89
109813.42
109812.95
109812.47
109811.99
109811.5
109811.01
109810.51
109810.01
109809.51
109809
109808.49
109807.97
109807.45
109806.92
109806.39
109805.85
109805.31
109804.76
109804.21
109803.66
109803.1
109802.53
109801.97
109801.39
109800.82
109800.23
109799.65
109799.05
109798.46
109797.86
109797.25
109796.64
109796.03
109795.41
109794.79
109794.16
109793.53
109792.89
109792.25
109791.61
109790.96
109790.3
109789.64
109788.98
109788.31
109787.64
109786.96
109786.28
109785.6
109784.91
109784.22
109783.52
109782.82
109782.11
109781.4
109780.68
109779.97
109779.24
109778.52
109777.78
109777.05
109776.31
109775.57
109774.82
109774.07
109773.31
109772.55
109771.79
109771.02
109770.25
109769.47
109768.7
109767.91
109767.13
109766.34
109765.54
109764.75
109763.94
109763.14
109762.33
109761.52
109760.7
109759.89
109759.06
109758.24
109757.41
109756.58
109755.74
109754.9
109754.06
109753.21
109752.36
109751.51
109750.66
109749.8
109748.94
109748.07
109747.21
109746.34
109745.46
109744.59
109743.71
109742.83
109741.94
109741.06
109740.17
109739.27
109738.38
109737.48
109736.58
109735.68
109734.78
109733.87
109732.96
109732.05
109731.14
109730.22
109729.3
109728.38
109727.46
109726.54
109725.61
109724.68
109723.75
109722.82
109721.89
109720.95
109720.01
109719.07
109718.13
109717.19
109716.25
109715.3
109714.36
109713.41
109712.46
109711.51
109710.56
109709.6
109708.65
109707.69
109706.74
109705.78
109704.82
109703.86
109702.9
109701.94
109700.98
109700.02
109699.05
109698.09
109697.12
109696.16
109695.19
109694.22
109693.26
109692.29
109691.32
109690.35
109689.39
109688.42
109687.45
109686.48
109685.51
109684.54
109683.57
109682.6
109681.64
109680.67
109679.7
109678.73
109677.76
109676.79
109675.83
109674.86
109673.89
109672.93
109671.96
109671
109670.03
109669.07
109668.11
109667.14
109666.18
109665.22
109664.26
109663.3
109662.34
109661.39
109660.43
109659.48
109658.52
109657.57
109656.62
109655.67
109654.72
109653.77
109652.82
109651.88
109650.94
109649.99
109649.05
109648.11
109647.18
109646.24
109645.31
109644.37
109643.44
109642.51
109641.58
109640.66
109639.73
109638.81
109637.89
109636.97
109636.06
109635.14
109634.23
109633.32
109632.41
109631.51
109630.6
109629.7
109628.8
109627.91
109627.01
109626.12
109625.23
109624.34
109623.45
109622.57
109621.69
109620.81
109619.94
109619.06
109618.19
109617.33
109616.46
109615.6
109614.74
109613.88
109613.02
109612.17
109611.32
109610.48
109609.63
109608.79
109607.95
109607.12
109606.29
109605.46
109604.63
109603.81
109602.98
109602.17
109601.35
109600.54
109599.73
109598.93
109598.12
109597.32
109596.53
109595.73
109594.94
109594.15
109593.37
109592.59
109591.81
109591.03
109590.26
109589.49
109588.73
109587.97
109587.21
109586.45
109585.7
109584.95
109584.2
109583.46
109582.72
109581.98
109581.25
109580.52
109579.79
109579.07
109578.35
109577.63
109576.92
109576.21
109575.5
109574.8
109574.1
109573.4
109572.71
109572.02
109571.33
109570.65
109569.97
109569.29
109568.61
109567.94
109567.28
109566.61
109565.95
109565.3
109564.64
109563.99
109563.34
109562.7
109562.06
109561.42
109560.79
109560.16
109559.53
109558.9
109558.28
109557.67
109557.05
109556.44
109555.83
109555.23
109554.63
109554.03
109553.43
109552.84
109552.25
109551.67
109551.08
109550.51
109549.93
109549.36
109548.79
109548.22
109547.66
109547.1
109546.54
109545.99
109545.44
109544.89
109544.34
109543.8
109543.26
109542.73
109542.2
109541.67
109541.14
109540.62
109540.1
109539.58
109539.07
109538.56
109538.05
109537.54
109537.04
109536.54
109536.04
109535.55
109535.06
109534.57
109534.09
109533.61
109533.13
109532.65
109532.18
109531.71
109531.24
109530.77
109530.31
109529.85
109529.4
109528.94
109528.49
109528.04
109527.6
109527.15
109526.71
109526.28
109525.84
109525.41
109524.98
109524.55
109524.13
109523.71
109523.29
109522.87
109522.46
109522.05
109521.64
109521.23
109520.83
109520.43
109520.03
109519.63
109519.24
109518.85
109518.46
109518.08
109517.69
109517.31
109516.93
109516.56
109516.18
109515.81
109515.44
109515.08
109514.71
109514.35
109513.99
109513.64
109513.28
109512.93
109512.58
109512.24
109511.89
109511.55
109511.21
109510.87
109510.53
109510.2
109509.87
109509.54
109509.22
109508.89
109508.57
109508.25
109507.93
109507.62
109507.3
109506.99
109506.69
109506.38
109506.08
109505.77
109505.47
109505.18
109504.88
109504.59
109504.3
109504.01
109503.72
109503.44
109503.16
109502.88
109502.6
109502.32
109502.05
109501.78
109501.51
109501.24
109500.98
109500.71
109500.45
109500.19
109499.93
109499.68
109499.43
109499.18
109498.93
109498.68
109498.44
109498.19
109497.95
109497.71
109497.48
109497.24
109497.01
109496.78
109496.55
109496.32
109496.1
109495.88
109495.66
109495.44
109495.22
109495.01
109494.79
109494.58
109494.37
109494.16
109493.96
109493.76
109493.55
109493.35
109493.16
109492.96
109492.77
109492.57
109492.38
109492.19
109492.01
109491.82
109491.64
109491.46
109491.28
109491.1
109490.92
109490.75
109490.58
109490.41
109490.24
109490.07
109489.91
109489.74
109489.58
109489.42
109489.26
109489.1
109488.95
109488.79
109488.64
109488.49
109488.34
109488.2
109488.05
109487.91
109487.76
109487.62
109487.49
109487.35
109487.21
109487.08
109486.95
109486.81
109486.68
109486.56
109486.43
109486.3
109486.18
109486.06
109485.94
109485.82
109485.7
109485.58
109485.47
109485.36
109485.24
109485.13
109485.02
109484.92
109484.81
109484.7
109484.6
109484.5
109484.4
109484.3
109484.2
109484.1
109484.01
109483.91
109483.82
109483.73
109483.63
109483.54
109483.46
109483.37
109483.28
109483.2
109483.11
109483.03
109482.95
109482.87
109482.79
109482.71
109482.64
109482.56
109482.49
109482.41
109482.34
109482.27
109482.2
109482.13
109482.06
109481.99
109481.93
109481.86
109481.8
109481.73
109481.67
109481.61
109481.55
109481.49
109481.43
109481.37
109481.32
109481.26
109481.21
109481.15
109481.1
109481.05
109481
109480.95
109480.9
109480.85
109480.8
109480.75
109480.7
109480.66
109480.61
109480.57
109480.52
109480.48
109480.44
109480.4
109480.36
109480.32
109480.28
109480.24
109480.2
109480.16
109480.13
109480.09
109480.06
109480.02
109479.99
109479.95
109479.92
109479.89
109479.86
109479.82
109479.79
109479.76
109479.73
109479.7
109479.68
109479.65
109479.62
109479.59
109479.57
109479.54
109479.52
109479.49
109479.47
109479.44
109479.42
109479.4
109479.37
109479.35
109479.33
109479.31
109479.29
109479.27
109479.25
109479.23
109479.21
109479.19
109479.17
109479.15
109479.13
109479.12
109479.1
109479.08
109479.07
109479.05
109479.04
109479.02
109479
109478.99
109478.98
109478.96
109478.95
109478.93
109478.92
109478.91
109478.89
109478.88
109478.87
109478.86
109478.85
109478.84
109478.82
109478.81
109478.8
109478.79
109478.78
109478.77
109478.76
109478.75
109478.74
109478.73
109478.73
109478.72
109478.71
109478.7
109478.69
109478.68
109478.68
109478.67
109478.66
109478.65
109478.65
109478.64
109478.63
109478.63
109478.62
109478.61
109478.61
109478.6
109478.6
109478.59
109478.58
109478.58
109478.57
109478.57
109478.56
109478.56
109478.55
109478.55
109478.54
109478.54
109478.54
109478.53
109478.53
109478.52
109478.52
109478.52
109478.51
109478.51
109478.51
109478.5
109478.5
109478.5
109478.49
109478.49
109478.49
109478.48
109478.48
109478.48
109478.47
109478.47
109478.47
109478.47
109478.46
109478.46
109478.46
109478.46
109478.46
109478.45
109478.45
109478.45
109478.45
109478.44
109478.44
109478.44
109478.44
109478.44
109478.44
109478.43
109478.43
109478.43
109478.43
109478.43
109478.43
109478.43
109478.42
109478.42
109478.42
109478.42
109478.42
109478.42
109478.42
109478.42
109478.42
109478.41
109478.41
109478.41
109478.41
109478.41
109478.41
109478.41
109478.41
109478.41
109478.41
109478.41
109478.4
109478.4
109478.4
109478.4
109478.4
109478.4
109478.4
109478.4
109478.4
109478.4
109478.4
109478.4
109478.4
109478.4
109478.4
109478.4
109478.4
109478.39
109478.39
109478.39
109478.39
109478.39
109478.39
109478.39
109478.39
109478.39
109478.39
109478.39
109478.39
109478.39
109478.39
109478.39
109478.39
109478.39
109478.39
109478.39
109478.39
109478.39
109478.39
109478.39
109478.39
109478.39
109478.39
109478.39
109478.39
109478.39
109478.39
109478.39
109478.39
109478.39
109478.39
109478.39
109478.39
109478.39
109478.39
109478.39
109478.39
109478.39
109478.38
109478.38
109478.38
109478.38
109478.38
109478.38
109478.38
109478.38
109478.38
109478.38
109478.38
109478.38
109478.38
109478.38
109478.38
109478.38
109478.38
109478.38
109478.38
109478.38
109478.38
109478.38
109478.38
109478.38
109478.38
109478.38
109478.38
109478.38
109478.38
109478.38
109478.38
109478.38
109478.38
109478.38
109478.38
109478.38
109478.38
109478.38
109478.38
109478.38
109478.38
109478.38
109478.38
109478.38
109478.38
109478.38
109478.38
109478.38
109478.38
109478.38
109478.38
109478.38
109478.38
109478.38
109478.38
109478.38
109478.38
109478.38
109478.38
109478.38
109478.38
109478.38
109478.38
109478.38
109478.38
109478.38
109478.38
109478.38
109478.38
109478.38
109478.38
109478.38
109478.38
109478.38
109478.38
109478.38
109478.38
109478.38
109478.38
109478.38
109478.38
109478.38
109478.38
109478.38
109478.38
109478.38
109478.38
109478.38
109478.38
109478.38
109478.38
109478.38
109478.38
109478.38
109478.38
109478.38
109478.38
109478.38
109478.38
109478.38
109478.38
109478.38
109478.38
109478.38
109478.38
109478.38
109478.38
109478.38
109478.38
109478.38
109478.38
109478.38
109478.38
109478.38
109478.38
109478.38
109478.38
109478.38
109478.38
109478.38
109478.38
109478.38
109478.39
109478.39
109478.39
109478.39
109478.39
109478.39
109478.39
109478.39
109478.39
109478.39
109478.39
109478.39
109478.39
109478.39
109478.39
109478.39
109478.39
109478.39
109478.39
109478.39
109478.39
109478.39
109478.39
109478.39
109478.39
109478.39
109478.39
109478.39
109478.39
109478.39
109478.39
109478.39
109478.39
109478.39
109478.39
109478.39
109478.39
109478.39
109478.39
109478.39
109478.39
109478.39
109478.39
109478.39
109478.39
109478.39
109478.39
109478.39
109478.39
109478.39
109478.39
109478.39
109478.39
109478.39
109478.39
109478.39
109478.39
109478.39
109478.39
109478.39
109478.39
109478.39
109478.39
109478.39
109478.39
109478.39
109478.39
109478.39
109478.39
109478.39
109478.39
109478.39
109478.39
109478.39
109478.39
109478.39
109478.39
109478.39
109478.39
109478.39
109478.39
109478.39
109478.39
109478.39
109478.39
109478.39
109478.39
109478.39
109478.39
109478.39
109478.39
109478.39
109478.39
109478.39
109478.39
109478.39
109478.39
109478.39
109478.39
109478.39
109478.39
109478.39
109478.39
109478.39
109478.39
109478.39
109478.39
109478.39
109478.39
109478.39
109478.39
109478.39
109478.39
109478.39
109478.39
109478.39
109478.39
109478.39
109478.39
109478.39
109478.39
109478.39
109478.39
109478.39
109478.39
109478.39
109478.39
109478.39
109478.39
109478.39
109478.39
109478.39
109478.39
109478.39
109478.39
109478.39
109478.39
109478.39
109478.39
109478.39
109478.39
109478.39
109478.39
109478.39
109478.39
109478.39
109478.39
109478.39
109478.39
109478.39
109478.39
109478.39
109478.39
109478.39
109478.39
109478.39
109478.39
109478.39
109478.39
109478.39
109478.39
109478.39
109478.39
109478.39
109478.39
109478.39
109478.39
109478.39
109478.39
109478.39
109478.39
109478.39
109478.39
109478.39
109478.39
109478.39
109478.39
109478.39
109478.39
109478.39
109478.39
109478.39
109478.39
109478.39
109478.39
109478.39
109478.39
109478.39
109478.39
109478.39
109478.39
109478.39
109478.39
109478.39
109478.39
109478.39
109478.39
109478.39
109478.39
109478.39
109478.39
109478.39
109478.39
109478.39
109478.39
109478.39
109478.39
109478.39
109478.39
109478.39
109478.39
109478.39
109478.39
109478.39
109478.39
109478.39
109478.39
109478.39
109478.39
109478.39
109478.39
109478.39
109478.39
109478.39
109478.39
109478.39
109478.39
109478.39
109478.39
109478.39
109478.39
109478.39
109478.39
109478.39
109478.39
109478.39
109478.39
109478.39
109478.39
109478.39
109478.39
109478.39
109478.39
109478.39
109478.39
109478.39
109478.39
109478.39
109478.39
109478.39
109478.39
109478.39
109478.39
109478.39
109478.39
109478.39
109478.39
109478.39
109478.39
109478.39
109478.39
109478.39
109478.39
109478.39
109478.39
109478.39
109478.39
109478.39
109478.39
109478.39
109478.39
109478.39
109478.39
109478.39
109478.39
109478.39
109478.39
109478.39
109478.39
109478.39
109478.39
109478.39
109478.39
109478.39
109478.39
109478.39
109478.39
109478.39
109478.39
109478.39
109478.39
109478.39
109478.39
109478.39
109478.39
109478.39
109478.39
109478.39
109478.39
109478.39
109478.39
109478.39
109478.39
109478.39
109478.39
109478.39
109478.39
109478.39
109478.39
109478.39
109478.39
109478.39
109478.39
109478.39
109478.39
109478.39
109478.39
109478.39
109478.39
109478.39
109478.39
109478.39
109478.39
109478.39
109478.39
109478.39
109478.39
109478.39
109478.39
109478.39
109478.39
109478.39
109478.39
109478.39
109478.39
109478.39
109478.39
109478.39
109478.39
109478.39
109478.39
109478.39
109478.39
109478.39
109478.39
109478.39
109478.39
109478.39
109478.39
109478.39
109478.39
109478.39
109478.39
109478.39
109478.39
109478.39
109478.39
109478.39
109478.39
109478.39
109478.39
109478.39
109478.39
109478.39
109478.39
109478.39
109478.39
109478.39
109478.39
109478.39
109478.39
109478.39
109478.39
109478.39
109478.39
109478.39
109478.39
109478.39
109478.39
109478.39
109478.39
109478.39
109478.39
109478.39
109478.39
109478.39
109478.39
109478.39
109478.39
109478.39
109478.39
109478.39
109478.39
109478.39
109478.39
109478.39
109478.39
109478.39
109478.39
109478.39
109478.39
109478.39
109478.39
109478.39
109478.39
109478.39
109478.39
109478.39
109478.39
109478.39
109478.39
109478.39
109478.39
109478.39
109478.39
109478.39
109478.39
109478.39
109478.39
109478.39
109478.39
109478.39
109478.39
109478.39
109478.39
109478.39
109478.39
109478.39
109478.39
109478.39
109478.39
109478.39
109478.39
109478.39
109478.39
109478.39
109478.39
109478.39
109478.39
109478.39
109478.39
109478.39
109478.39
109478.39
109478.39
109478.39
109478.39
109478.39
109478.39
109478.39
109478.39
109478.39
109478.39
109478.39
109478.39
109478.39
109478.39
109478.39
109478.39
109478.39
109478.39
109478.39
109478.39
109478.39
109478.39
109478.39
109478.39
109478.39
109478.39
109478.39
109478.39
109478.39
109478.39
109478.39
109478.39
109478.39
109478.39
109478.39
109478.39
109478.39
109478.39
109478.39
109478.39
109478.39
109478.39
109478.39
109478.39
109478.39
109478.39
109478.39
109478.39
109478.39
109478.39
109478.39
109478.39
109478.39
109478.39
109478.39
109478.39
109478.39
109478.38
109478.38
109478.38
109478.39
109478.39
109478.4
109478.41
109478.37
109478.39
109478.39
109478.39
109478.39
109478.39
109478.39
109478.39
109478.39
109478.39
109478.39
109478.39
109478.39
109478.39
109478.39
109478.39
109478.39
109478.39
109478.39
109478.39
109478.39
109478.39
109478.39
109478.39
109478.39
109478.39
109478.39
109478.39
109478.39
109478.39
109478.39
109478.39
109478.39
109478.39
109478.39
109478.39
109478.39
109478.39
109478.39
109478.39
109478.39
109478.39
109478.39
109478.39
109478.39
109478.39
109478.39
109478.39
109478.39
109478.39
109478.39
109478.39
109478.39
109478.39
109478.39
109478.39
109478.39
109478.39
109478.39
109478.39
109478.39
109478.39
109478.39
109478.39
109478.39
109478.39
109478.39
109478.39
109478.39
109478.39
109478.39
109478.39
109478.39
109478.39
109478.39
109478.39
109478.39
109478.39
109478.39
109478.39
109478.39
109478.39
109478.39
109478.39
109478.39
109478.39
109478.39
109478.39
109478.39
109478.39
109478.39
109478.39
109478.39
109478.39
109478.39
109478.39
109478.39
109478.39
109478.39
109478.39
109478.39
109478.39
109478.39
109478.39
109478.39
109478.39
109478.39
109478.39
109478.39
109478.39
109478.39
109478.39
109478.39
109478.39
109478.39
109478.39
109478.39
109478.39
109478.39
109478.39
109478.39
109478.39
109478.39
109478.39
109478.39
109478.39
109478.39
109478.39
109478.39
109478.39
109478.39
109478.39
109478.39
109478.39
109478.39
109478.39
109478.39
109478.39
109478.39
109478.39
109478.39
109478.39
109478.39
109478.39
109478.39
109478.39
109478.39
109478.39
109478.39
109478.39
109478.39
109478.39
109478.39
109478.39
109478.39
109478.39
109478.39
109478.39
109478.39
109478.39
109478.39
109478.39
109478.39
109478.39
109478.39
109478.39
109478.39
109478.39
109478.39
109478.39
109478.39
109478.39
109478.39
109478.39
109478.39
109478.39
109478.39
109478.39
109478.39
109478.39
109478.39
109478.39
109478.39
109478.39
109478.39
109478.39
109478.39
109478.39
109478.39
109478.39
109478.39
109478.39
109478.39
109478.39
109478.39
109478.39
109478.39
109478.39
109478.39
109478.39
109478.39