/*--------------------------------*- C++ -*----------------------------------*\
  =========                 |
  \\      /  F ield         | OpenFOAM: The Open Source CFD Toolbox
   \\    /   O peration     | Website:  https://openfoam.org
    \\  /    A nd           | Version:  7
     \\/     M anipulation  |
\*---------------------------------------------------------------------------*/
FoamFile
{
    version     2.0;
    format      ascii;
    class       volScalarField;
    location    "0.00321";
    object      Uz;
}
// * * * * * * * * * * * * * * * * * * * * * * * * * * * * * * * * * * * * * //

dimensions      [0 1 -1 0 0 0 0];

internalField   nonuniform List<scalar> 
5000
(
0
0
0
0
0
-8.3991046e-18
-1.789095e-32
2.5162773e-17
8.3828889e-18
-1.6757484e-17
-1.675045e-17
8.3720292e-18
-7.1359971e-32
-7.3714103e-32
1.6727518e-17
-1.6722025e-17
-1.0114959e-48
-7.3616927e-32
-8.3524197e-18
1.6698482e-17
8.3460063e-18
0
0
-8.3353105e-18
7.1039111e-32
-6.8638682e-32
-8.323686e-18
8.3195968e-18
8.3155351e-18
-8.31133e-18
1.4520379e-31
-7.0794437e-32
-8.2986023e-18
8.2942207e-18
8.289893e-18
0
0
-8.2765803e-18
-8.2721605e-18
8.2676395e-18
-1.3856389e-31
-8.2586483e-18
8.2541817e-18
-1.3950867e-31
-8.2451423e-18
8.2405719e-18
-2.8324112e-31
2.8191394e-31
-2.8292916e-31
1.4021733e-31
8.2179336e-18
0
0
0
0
0
0
0
0
0
0
0
0
-8.1589099e-18
-8.1544265e-18
8.1498616e-18
-1.4006095e-31
-1.9573176e-49
8.1363481e-18
0
0
-8.1227699e-18
-8.118304e-18
0
8.1092982e-18
2.7987662e-31
-8.1003083e-18
-8.0957787e-18
8.0913361e-18
1.6173629e-17
-1.6164758e-17
4.5917334e-33
2.4220291e-17
-1.6137835e-17
-8.3889592e-31
1.6119955e-17
-2.4166651e-17
8.0510448e-18
8.0466241e-18
-8.0421227e-18
8.0377044e-18
8.0332063e-18
2.7953509e-31
-1.6048578e-17
-5.5503001e-31
-8.0153649e-18
-8.0109404e-18
-2.8103285e-31
5.5720796e-31
1.5995091e-17
7.9931315e-18
-7.9886846e-18
1.1346398e-33
7.9798051e-18
0
-7.9709872e-18
-2.7737204e-31
7.9620344e-18
-7.9576101e-18
-7.9533037e-18
1.5897894e-17
7.9444733e-18
-2.3820348e-17
-7.9356901e-18
2.3794009e-17
-7.9269079e-18
-7.9225553e-18
-4.5009388e-33
-7.9137839e-18
2.372811e-17
-5.5269841e-31
-1.5801225e-17
1.5792522e-17
7.8918619e-18
-7.8875104e-18
7.8831191e-18
-7.8787669e-18
-1.5748769e-17
7.8700319e-18
2.7161991e-31
7.8613074e-18
1.5713894e-17
-7.8525976e-18
-7.8482512e-18
-7.8439036e-18
-2.7294722e-31
-2.7168244e-31
2.7264552e-31
1.5653117e-17
7.8222523e-18
-7.8178995e-18
-1.5627197e-17
-7.8092428e-18
-7.8049583e-18
5.4096377e-31
1.5592639e-17
-2.2146173e-33
2.2134031e-33
1.6865811e-48
7.779077e-18
-5.3916969e-31
1.0821649e-30
7.7661314e-18
-7.7618745e-18
7.7575446e-18
2.6884146e-31
-7.7489697e-18
7.7447248e-18
-1.099978e-33
-7.7361686e-18
0
7.727625e-18
5.3450675e-31
-1.5438186e-17
7.7147934e-18
-2.1914761e-33
-7.7062754e-18
7.7020561e-18
-7.6977634e-18
7.6935465e-18
-3.2038228e-30
-2.1317988e-30
7.6807536e-18
-1.5353084e-17
0
-5.317714e-31
-1.594424e-30
7.65957e-18
7.6552977e-18
5.2733423e-31
-7.6468373e-18
7.6426488e-18
5.2537257e-31
3.2546585e-33
1.0571747e-30
-1.5251556e-17
7.6215304e-18
7.6173587e-18
-5.2363425e-31
5.24429e-31
-1.5810567e-30
5.2493041e-31
-7.5963247e-18
0
0
0
0
-7.5754453e-18
1.5784001e-30
7.5671022e-18
7.5628995e-18
-7.558772e-18
-7.5545759e-18
1.510091e-17
5.2225334e-31
-1.5659058e-30
-7.5379682e-18
-7.533861e-18
7.5296863e-18
0
7.5214212e-18
5.2025087e-31
-7.5131733e-18
-7.5090912e-18
1.0451861e-30
7.5008688e-18
-1.4993458e-17
7.4926641e-18
7.4885335e-18
-7.4844783e-18
7.4803576e-18
0
0
0
7.4640722e-18
-7.4600519e-18
-1.4911937e-17
7.4519628e-18
-5.1756221e-31
7.4439027e-18
7.4398488e-18
-1.4871744e-17
2.1122542e-33
-2.1111285e-33
7.4238516e-18
7.4199085e-18
-1.4831811e-17
1.0533057e-33
-1.5433159e-30
7.4040872e-18
-4.1097315e-30
-1.0258416e-30
7.3922764e-18
-7.3884026e-18
0
-7.3806143e-18
7.3767008e-18
7.372866e-18
-7.3689734e-18
0
-7.3612886e-18
7.3574965e-18
7.3536473e-18
-2.5516655e-30
-1.4692101e-17
-1.4684607e-17
2.2015501e-17
1.4669555e-17
0
-1.4654605e-17
-7.3235519e-18
7.3198828e-18
7.3161612e-18
7.3125222e-18
-1.4617664e-17
-1.4610449e-17
7.3015664e-18
1.4595983e-17
2.0234272e-30
-1.4581649e-17
7.2872323e-18
-1.0102376e-30
-7.2801676e-18
1.4553392e-17
-7.2731774e-18
1.0124312e-30
7.266269e-18
-7.2628808e-18
7.2594492e-18
-1.4512214e-17
3.0260586e-30
1.4498858e-17
-1.4492186e-17
-5.0125477e-31
7.239561e-18
0
0
7.2299818e-18
-7.2267959e-18
-1.4447404e-17
7.2205699e-18
-2.0513458e-33
7.2144563e-18
7.2114764e-18
-7.2084617e-18
0
-7.2025918e-18
-7.1997374e-18
0
1.4388122e-17
7.1912394e-18
-1.4377032e-17
4.9730399e-31
-2.0415613e-33
7.1804183e-18
7.1778309e-18
-7.1752138e-18
7.1726969e-18
-7.1701515e-18
4.0743701e-33
1.4330472e-17
-7.1628668e-18
-7.1604741e-18
-7.1581832e-18
-9.9250373e-31
7.1536445e-18
0
0
-7.1470681e-18
9.9201175e-31
-1.9824266e-30
-9.9245928e-31
7.1388971e-18
-7.1369868e-18
1.0139519e-33
7.1332201e-18
0
0
0
0
0
0
0
-7.1197726e-18
0
7.1168247e-18
0
-7.1140463e-18
-1.9730307e-30
7.1114378e-18
0
0
-7.1078093e-18
-9.8669809e-31
7.1056186e-18
0
0
-7.1026673e-18
-7.1017205e-18
7.1008762e-18
7.1000072e-18
0
-7.0984478e-18
1.0086519e-33
7.0970396e-18
-7.0964227e-18
-7.0957787e-18
7.0952334e-18
7.0946594e-18
0
-7.0936748e-18
-7.0932622e-18
7.0928172e-18
7.0924653e-18
0
-7.0917849e-18
-7.0914548e-18
7.0912146e-18
7.090937e-18
0
0
0
0
0
0
0
0
-7.0897037e-18
2.3225503e-49
7.0895867e-18
0
0
0
-7.0894415e-18
-9.8328297e-31
7.0893908e-18
-7.0893343e-18
9.8428422e-31
-1.007447e-33
-9.842753e-31
7.089203e-18
-7.0891868e-18
7.0890988e-18
-3.9389989e-30
-7.0889553e-18
7.0888974e-18
0
0
-7.0885124e-18
-9.8415295e-31
7.0881937e-18
-7.0880372e-18
-7.0877965e-18
0
7.08731e-18
7.0870614e-18
-7.0867234e-18
-1.966751e-30
3.6453136e-51
-9.8377413e-31
7.0852097e-18
-7.0847849e-18
-1.1436417e-49
-9.835111e-31
-7.0831794e-18
0
0
7.0813075e-18
1.0062086e-33
-2.9458787e-30
7.0790166e-18
0
0
-7.0764055e-18
1.9616823e-30
7.0744175e-18
0
0
0
-7.0698673e-18
1.0045049e-33
7.0672946e-18
-7.0659008e-18
7.0645184e-18
-1.9632679e-30
-1.412307e-17
7.0599329e-18
2.939941e-30
9.7974314e-31
-9.7950714e-31
-7.0531158e-18
0
0
7.0474665e-18
9.781883e-31
-1.9548133e-30
8.5891765e-50
-7.039131e-18
7.036879e-18
7.0346336e-18
0
-7.0299135e-18
-9.7568992e-31
7.0249693e-18
0
0
-7.017082e-18
1.9936058e-33
1.1848567e-49
-7.0087483e-18
7.005825e-18
-9.7029418e-31
9.7186417e-31
-1.941896e-30
-6.9937345e-18
6.9906142e-18
-1.9402572e-30
1.940356e-30
-1.9394318e-30
-6.9775263e-18
6.9741089e-18
-1.9356271e-30
9.6930717e-31
0
-6.9601259e-18
6.9565519e-18
-9.6533734e-31
9.8754246e-34
-9.6430619e-31
9.6477252e-31
6.9378534e-18
-6.9340266e-18
-6.9301033e-18
6.9262075e-18
6.9222168e-18
0
-6.9141954e-18
-6.9101727e-18
0
6.9019448e-18
-9.5768512e-31
9.7964038e-34
9.5553729e-31
-6.8850919e-18
6.88079e-18
9.5376029e-31
-1.9082545e-30
-6.8677774e-18
-6.8634119e-18
1.3718147e-17
-9.7409552e-34
9.5010008e-31
6.8456859e-18
-6.8412462e-18
9.4919961e-31
6.8320771e-18
0
0
0
-6.8137696e-18
-6.809107e-18
6.8044682e-18
6.7997719e-18
0
-6.7904067e-18
-6.7857154e-18
6.7809785e-18
6.7762506e-18
0
-6.7667371e-18
-6.7619594e-18
6.7571773e-18
1.8750013e-30
-6.747572e-18
0
0
0
0
6.7233843e-18
-1.8636886e-30
-6.7136448e-18
6.70876e-18
9.3076629e-31
-9.3103814e-31
2.2676426e-49
6.6891676e-18
6.6842592e-18
-1.3358677e-17
-9.2667691e-31
9.2504468e-31
-6.6645649e-18
0
6.6546929e-18
6.6497471e-18
-6.6448054e-18
-1.8418677e-30
6.6349031e-18
0
0
-6.6200203e-18
9.1749482e-31
6.610086e-18
0
-6.6001429e-18
9.3723013e-34
-1.8299658e-30
-9.1335644e-31
6.5802428e-18
-6.575267e-18
9.3369435e-34
-1.8230568e-30
-6.5603356e-18
6.5553573e-18
1.81891e-30
9.3015718e-34
-9.0807225e-31
-6.5354384e-18
6.530458e-18
0
-3.6202958e-30
-9.0368767e-31
-2.7089899e-30
-9.2449303e-34
-6.5005587e-18
6.4955735e-18
9.229759e-49
-9.0046195e-31
1.7995407e-30
-8.9907851e-31
1.2941326e-17
-6.465682e-18
-6.460705e-18
-8.9631336e-31
8.9562267e-31
1.289155e-17
-6.4408026e-18
-6.4358283e-18
2.3033766e-49
0
2.3025337e-49
-6.4159486e-18
6.4109831e-18
2.2950761e-49
-8.8781285e-31
-9.0893876e-34
-6.391127e-18
1.2772328e-17
1.7719337e-30
-6.3762445e-18
8.8368451e-31
-8.8299679e-31
6.3613753e-18
-6.3564196e-18
-9.1858797e-49
-2.6443535e-30
1.7618282e-30
-1.7586521e-30
-1.7581793e-30
2.2877357e-49
0
6.316837e-18
0
0
-6.3020157e-18
-1.7485727e-30
6.2921405e-18
0
0
-1.2554677e-17
-5.2216046e-30
1.253496e-17
-6.262555e-18
8.8926253e-34
-8.6812614e-31
-6.2477835e-18
0
0
0
-6.2281061e-18
-1.7262874e-30
6.2182733e-18
0
0
-6.2035362e-18
8.8087767e-34
6.1937198e-18
0
0
-6.1790097e-18
-1.7126733e-30
-1.7139445e-30
1.7117088e-30
6.1594235e-18
-6.1545317e-18
1.7067582e-30
-1.705401e-30
1.7031708e-30
6.1349677e-18
0
0
-6.1203023e-18
-5.677926e-48
6.1105318e-18
0
0
-6.0958886e-18
-3.6183129e-48
6.0861346e-18
0
0
-6.0715169e-18
-3.622227e-48
6.0617826e-18
0
0
-6.047196e-18
8.5866744e-34
6.0374783e-18
-6.0326202e-18
1.6746474e-30
-1.6732984e-30
1.6710955e-30
6.0132069e-18
0
0
0
0
0
-5.9841217e-18
1.6594774e-30
5.9744363e-18
0
0
0
0
0
0
0
-5.9357485e-18
3.2921115e-30
5.9260913e-18
0
0
0
0
0
0
0
-5.8875178e-18
1.6326733e-30
5.8778873e-18
0
0
-5.8634562e-18
1.6276627e-30
5.8538422e-18
0
0
0
-5.8346249e-18
-1.619655e-30
5.8250282e-18
0
0
0
0
0
0
0
-5.7866973e-18
8.2165945e-34
5.7771323e-18
0
0
0
0
0
0
0
-5.7389112e-18
-8.1487065e-34
5.729373e-18
0
0
0
-5.7103003e-18
3.1678189e-30
5.7007829e-18
0
-5.6912738e-18
-1.5798411e-30
5.681762e-18
0
0
-5.6674999e-18
-5.6627533e-18
5.6580107e-18
5.6532706e-18
0
0
0
0
5.6295557e-18
-7.9933397e-34
-1.1240148e-17
-5.6153403e-18
1.1221224e-17
1.1211774e-17
-5.6011629e-18
-5.5964377e-18
0
0
0
0
-5.57279e-18
-1.5469342e-30
5.563363e-18
0
0
0
0
0
0
0
0
0
0
0
0
0
0
-5.4927871e-18
3.0478531e-30
5.4833429e-18
0
0
5.469254e-18
-1.5174086e-30
7.7590419e-34
-5.4552873e-18
-5.450623e-18
-3.0236845e-30
1.5116965e-30
5.4365181e-18
0
0
0
0
0
-5.4084636e-18
3.0003154e-30
5.3992243e-18
0
0
0
0
0
0
0
-5.3615762e-18
2.973542e-30
5.35245e-18
0
0
0
0
0
0
0
-5.3146854e-18
4.4219338e-30
5.3054008e-18
0
0
0
0
0
0
0
0
-5.2637855e-18
7.4735163e-34
5.2543368e-18
0
0
0
0
-5.232596e-18
5.2283392e-18
5.2240335e-18
-1.0439333e-17
-1.448169e-30
5.2107769e-18
0
0
0
0
-5.1887779e-18
1.4389262e-30
1.0361082e-17
-5.1765794e-18
-5.1727207e-18
5.1689444e-18
0
0
0
-5.1539456e-18
-1.4286012e-30
5.1460508e-18
5.1419776e-18
-5.1378535e-18
-5.1337136e-18
5.1295903e-18
0
0
-5.1175172e-18
-5.1136292e-18
5.1098148e-18
5.1060643e-18
5.1023634e-18
2.8316184e-30
-5.0950819e-18
0
0
0
-5.0804546e-18
-5.0766967e-18
5.0728868e-18
5.069029e-18
5.0651297e-18
1.4046732e-30
-5.0572178e-18
0
0
0
-5.0408386e-18
1.3978454e-30
5.032283e-18
0
0
0
0
0
0
0
-4.997507e-18
1.3857927e-30
9.9775853e-18
1.3840685e-30
-4.9799999e-18
0
0
-4.9669357e-18
7.0523253e-34
-1.3768284e-30
1.3749196e-30
4.9496014e-18
4.9451763e-18
-1.3719473e-30
-4.9363714e-18
0
0
-4.9239711e-18
4.0971973e-30
1.3644096e-30
-6.9805498e-34
4.908023e-18
-4.9037967e-18
-4.8994643e-18
9.7901467e-18
-2.7133122e-30
-4.8863574e-18
4.8821191e-18
0
-4.8738587e-18
-1.3529206e-30
4.8655357e-18
0
-4.8568136e-18
4.8523455e-18
-5.3832743e-30
-4.8435181e-18
4.8392618e-18
0
-4.8310399e-18
0
4.8228509e-18
0
-4.8144202e-18
4.8101634e-18
-2.6662973e-30
-4.8017923e-18
4.7977174e-18
0
-4.7896528e-18
-1.3288549e-30
4.7813841e-18
0
-4.772862e-18
4.7686366e-18
-1.3541611e-33
-4.7605888e-18
4.7568049e-18
0
-4.7493881e-18
-4.7455681e-18
4.7416035e-18
4.7374738e-18
-4.7331914e-18
4.7288022e-18
4.7243743e-18
-4.7199803e-18
0
0
0
0
0
0
-4.691198e-18
-1.939741e-49
9.3659197e-18
-4.6788919e-18
-4.6748867e-18
4.6709338e-18
0
0
-4.6590278e-18
-4.6549424e-18
4.6508011e-18
4.6466409e-18
0
-4.6384409e-18
-1.2875553e-30
4.6305507e-18
0
0
-4.6189258e-18
-4.6149618e-18
4.610933e-18
4.6068613e-18
0
-4.5987506e-18
1.2758825e-30
4.5909308e-18
-4.5871585e-18
-2.545464e-30
-6.5082188e-34
-4.5760267e-18
4.5722365e-18
4.5683675e-18
0
0
-4.5564807e-18
1.2635048e-30
4.5486815e-18
0
-4.541188e-18
-4.53754e-18
4.5339294e-18
4.5303347e-18
0
0
0
0
0
0
-4.505517e-18
1.2494608e-30
4.4982824e-18
0
0
0
0
0
0
-4.4723686e-18
-1.5961338e-49
4.465511e-18
4.4619951e-18
1.2367246e-30
-4.4545195e-18
0
0
0
0
-4.4344407e-18
-1.2296704e-30
4.4269562e-18
-4.4233769e-18
-4.41986e-18
4.4163367e-18
-2.4494048e-30
-3.6716132e-30
-3.6670667e-30
1.2226564e-30
-2.4416482e-30
1.2189724e-30
4.3877141e-18
0
-4.3794165e-18
3.6431392e-30
-6.21271e-34
-4.3680881e-18
4.3642632e-18
4.3602441e-18
-4.3559995e-18
1.2077226e-30
-3.6181368e-30
-2.4109972e-30
-2.4066663e-30
1.2021396e-30
-2.4032218e-30
-4.3255479e-18
4.3215776e-18
4.3174617e-18
-4.313095e-18
1.1951506e-30
-4.7777061e-30
-1.1930815e-30
1.1923874e-30
1.1899437e-30
1.1894292e-30
-4.281899e-18
0
4.2746267e-18
-1.1853082e-30
-7.9559503e-49
4.2623622e-18
0
-4.2531502e-18
4.2484356e-18
4.2437597e-18
-4.2391831e-18
0
0
0
0
-4.2173335e-18
1.1692045e-30
-2.3363983e-30
4.2032804e-18
4.1984757e-18
-4.193758e-18
0
0
0
0
-4.1733266e-18
-5.9253253e-34
4.1657005e-18
0
0
0
0
0
0
0
-4.1288495e-18
-4.124132e-18
4.1195613e-18
4.1151727e-18
0
0
0
0
0
0
-4.0864106e-18
-4.0818853e-18
4.0772563e-18
4.072584e-18
0
0
0
0
0
0
-4.0425324e-18
-4.0385208e-18
4.0344662e-18
4.0303667e-18
0
0
0
0
0
0
-4.0008371e-18
2.2188581e-30
3.9918625e-18
0
0
0
0
0
0
-3.9610772e-18
1.098738e-30
3.9526406e-18
0
0
0
0
-3.9311212e-18
-5.5803171e-34
3.9226253e-18
-3.918641e-18
-1.7701269e-49
3.911087e-18
-3.9073109e-18
2.167804e-30
3.8994161e-18
-3.8953344e-18
-2.1604732e-30
-2.1581834e-30
-3.119609e-48
-2.1530525e-30
-1.0748285e-30
3.8706095e-18
-3.8666222e-18
-3.8628311e-18
7.7185561e-18
-2.1392318e-30
-7.7052229e-18
0
3.8454694e-18
-1.0667037e-30
-1.0660813e-30
-3.1908353e-30
-3.1878144e-30
-2.1218302e-30
3.1811181e-30
-2.1181512e-30
1.0594494e-30
3.8099841e-18
0
-3.803507e-18
-5.4007591e-34
-3.1612381e-30
-3.1591551e-30
5.3871528e-34
2.1021775e-30
-1.0505304e-30
-3.7791377e-18
0
3.7711445e-18
-2.09126e-30
-5.3492551e-34
3.7611302e-18
0
-3.755198e-18
3.752118e-18
3.748853e-18
-3.7453587e-18
0
0
-3.7335476e-18
4.1407895e-30
-2.0668908e-30
2.0664627e-30
-1.0331168e-30
3.7156727e-18
3.7128422e-18
-3.7099136e-18
0
0
0
0
-3.6918611e-18
-1.0240708e-30
-4.0899019e-30
3.6803035e-18
3.6766034e-18
-3.6730068e-18
0
0
0
0
-3.6559208e-18
-3.6523287e-18
3.6486034e-18
3.6447677e-18
0
0
0
0
0
0
-3.6177279e-18
-3.6139664e-18
3.6102452e-18
3.6065587e-18
0
0
0
0
0
0
-3.5799368e-18
2.9778274e-30
7.1436468e-18
-3.5678407e-18
-1.0691814e-17
-3.5601038e-18
0
7.1050216e-18
-3.9405897e-30
-1.1804843e-29
-3.5408916e-18
-7.0738448e-18
7.0658466e-18
-3.5289161e-18
-3.5249232e-18
3.5209617e-18
-3.5170399e-18
4.992496e-34
3.5093025e-18
3.5054619e-18
-3.5016164e-18
-3.497748e-18
3.4938421e-18
-3.4898912e-18
-4.9537565e-34
3.4818667e-18
0
0
0
6.9313489e-18
-3.4616448e-18
-6.9152364e-18
3.4535893e-18
-3.4495545e-18
-3.4455119e-18
6.8829163e-18
1.548486e-48
-3.4333129e-18
3.4292386e-18
6.8503786e-18
3.421184e-18
-1.0251683e-17
3.4133109e-18
1.994283e-47
-1.0216556e-17
6.8031848e-18
3.3976142e-18
3.3935722e-18
6.7789318e-18
-6.7706145e-18
-3.3811171e-18
-3.3769203e-18
3.3727395e-18
3.3685918e-18
-1.0093457e-17
3.3604231e-18
3.3563984e-18
-3.352403e-18
-3.3484253e-18
-4.7527549e-34
1.0021433e-17
-3.3364886e-18
5.5483931e-30
-5.5435788e-30
-9.9732184e-18
3.3203438e-18
3.3162695e-18
6.6243717e-18
-3.3080944e-18
-6.6079931e-18
6.5997897e-18
-3.295794e-18
3.2917017e-18
3.2876262e-18
-9.8507259e-18
3.2795523e-18
3.275556e-18
-6.5431602e-18
-3.2676163e-18
3.263656e-18
9.7790832e-18
-3.2557306e-18
-1.3007072e-17
1.8027826e-30
6.487736e-18
3.2399376e-18
0
6.4642211e-18
7.1666797e-30
-9.6729046e-18
3.220398e-18
-7.1415995e-30
3.2125991e-18
3.2087103e-18
-6.4096688e-18
0
0
0
-3.1895676e-18
1.7688235e-30
6.3641698e-18
-3.1783639e-18
-6.349302e-18
9.5128371e-18
-1.0548388e-29
-6.3271369e-18
3.159903e-18
0
0
0
6.2907989e-18
-3.1417877e-18
-6.2763378e-18
9.4036339e-18
-8.8986245e-34
-6.2546503e-18
0
0
-3.1167287e-18
1.7285424e-30
6.2196671e-18
-3.1064114e-18
-6.2059634e-18
9.2986023e-18
-5.1547763e-30
-6.1851601e-18
3.0890778e-18
-3.0855609e-18
6.1640563e-18
3.0784781e-18
-1.0239985e-29
-3.0713364e-18
-6.1355215e-18
9.1925851e-18
-1.7397749e-33
-3.0571075e-18
1.6949685e-30
-3.0500544e-18
-3.0465318e-18
1.689104e-30
9.1185139e-18
-8.6288371e-34
-9.0974978e-18
6.057969e-18
8.09996e-48
-6.0437789e-18
3.018314e-18
-3.0147342e-18
6.0223221e-18
3.0075982e-18
-6.6707364e-30
-3.0004756e-18
-5.9937858e-18
-2.9932885e-18
-2.9896696e-18
8.9581533e-18
0
-2.9788624e-18
-1.6515117e-30
1.6495263e-30
-1.6471087e-30
2.9644951e-18
-3.2869927e-30
2.9571905e-18
-9.8366059e-30
-8.8496391e-18
5.8924657e-18
8.8277388e-18
2.9389099e-18
-8.8056771e-18
-5.8630844e-18
8.7836378e-18
-2.9242484e-18
-8.7619372e-18
0
0
2.9098514e-18
2.906226e-18
0
-2.898955e-18
-2.8953097e-18
5.7832828e-18
-6.41209e-30
-8.6525398e-18
3.1976733e-30
2.8765968e-18
2.872821e-18
2.8690827e-18
-2.8653814e-18
-2.8616984e-18
2.8580037e-18
8.5628005e-18
-2.850471e-18
-1.1386496e-17
2.8427614e-18
5.6778706e-18
2.8351913e-18
0
-2.8279753e-18
0
-2.8208411e-18
2.8171615e-18
-6.2465289e-30
2.8094627e-18
-9.34358e-30
-8.4046265e-18
2.7976803e-18
2.7939611e-18
-2.7903936e-18
-2.7869213e-18
2.783429e-18
8.3394647e-18
-2.7760672e-18
-1.1088706e-17
4.6104573e-30
2.7641779e-18
5.5204009e-18
2.7563047e-18
-5.5049894e-18
-1.5257597e-30
-3.9008824e-34
2.741257e-18
-6.0780935e-30
-2.7337609e-18
8.1901381e-18
-3.0266853e-30
-5.4454206e-18
0
0
-2.7113738e-18
1.5027977e-30
5.4065431e-18
-2.6991228e-18
-5.3899966e-18
-2.6909623e-18
2.9822748e-30
8.04984e-18
2.6796065e-18
-2.6759646e-18
5.3445662e-18
-1.5168809e-33
-8.8753789e-30
-2.6607859e-18
-5.3137025e-18
7.958732e-18
-2.9415237e-30
-5.2901185e-18
0
0
5.2664014e-18
-5.8376178e-30
-2.9136239e-30
-7.4500145e-34
-7.8520536e-18
-5.2270849e-18
4.346654e-30
7.8182691e-18
2.6023812e-18
-2.5986539e-18
5.1897756e-18
2.875759e-30
-8.6159806e-30
-2.5833902e-18
-5.1590227e-18
7.726831e-18
-2.5716863e-18
-2.5677455e-18
2.5638031e-18
-2.5598797e-18
5.1119926e-18
-2.8332985e-30
-2.5484172e-18
-3.616276e-34
-5.0821514e-18
5.0748605e-18
-4.2185962e-30
-5.0602091e-18
2.5264091e-18
0
-2.5189646e-18
-1.3957823e-30
7.5344279e-18
-2.5077331e-18
-5.007999e-18
-2.5002735e-18
-2.4965485e-18
2.492822e-18
2.4891014e-18
2.4853997e-18
-2.4817263e-18
1.3755253e-30
-1.3731705e-30
2.4708966e-18
-2.7398143e-30
2.4637583e-18
-8.1934759e-30
-7.3696828e-18
4.9059032e-18
1.3793622e-48
-2.4457258e-18
-2.7107419e-30
1.3538568e-30
7.3042253e-18
-2.4310662e-18
-7.2822561e-18
0
0
2.4166914e-18
2.4131314e-18
4.8190831e-18
-2.4059258e-18
-4.8046025e-18
4.7973711e-18
-2.3950863e-18
-7.1744997e-18
2.3879135e-18
2.3843093e-18
2.3806754e-18
2.3770115e-18
-4.746652e-18
-2.369633e-18
2.3659473e-18
7.086843e-18
-2.3586395e-18
-1.8636703e-47
-3.9149725e-30
-4.6956072e-18
4.688331e-18
4.6809693e-18
-2.3367632e-18
-4.6660446e-18
4.6585913e-18
2.3256142e-18
-6.9659808e-18
-6.9552679e-18
2.3148528e-18
4.6224583e-18
2.3075326e-18
-1.2787707e-30
-4.5999867e-18
-2.2962319e-18
2.2925319e-18
4.5778264e-18
-3.2476962e-34
-4.5636625e-18
4.5565191e-18
-3.7884032e-30
-4.5418054e-18
2.2671294e-18
4.5266533e-18
4.5190648e-18
0
-2.2521109e-18
-6.7455532e-18
-2.2449826e-18
2.2414586e-18
0
0
0
0
-2.2232352e-18
1.2320365e-30
6.6478804e-18
-2.2123517e-18
-6.6261798e-18
-2.2050571e-18
3.6663401e-30
4.3950993e-18
2.1937504e-18
-2.1899776e-18
4.3725512e-18
2.182666e-18
-7.2581428e-30
-2.1756532e-18
-4.3443222e-18
6.5058935e-18
-6.1534917e-34
-2.1614888e-18
3.0665759e-34
-2.154339e-18
-2.1507652e-18
2.383689e-30
6.4306439e-18
-6.0819067e-34
-6.4085415e-18
-4.2649502e-18
1.1810422e-30
4.2503879e-18
2.1216568e-18
-2.1181729e-18
4.2294179e-18
2.11123e-18
-7.0190634e-30
-2.1041792e-18
-4.2012581e-18
6.2912491e-18
-2.3247526e-30
-2.0900233e-18
-2.0864932e-18
-2.0829444e-18
-1.1536159e-30
1.1519114e-30
4.1442912e-18
1.1479006e-30
-4.1299051e-18
4.1228004e-18
-1.0281046e-29
-6.1630213e-18
4.1016007e-18
-2.2733281e-30
-4.0873115e-18
2.0400638e-18
2.0364839e-18
4.0658641e-18
-2.0294072e-18
-6.0776818e-18
0
0
0
6.0350231e-18
6.0242444e-18
-6.0135192e-18
-6.0028859e-18
3.9948864e-18
-5.6670948e-34
1.9904073e-18
-6.6182686e-30
-5.9498367e-18
5.9390537e-18
-9.8736318e-30
-3.9450672e-18
-1.0926701e-30
1.0912872e-30
3.9240252e-18
-1.9584936e-18
1.9549431e-18
-6.500044e-30
-5.8433357e-18
5.8326319e-18
1.940682e-18
-4.301163e-30
3.8674629e-18
-3.860516e-18
-1.9267523e-18
-1.9232095e-18
-5.7589332e-18
2.1271457e-30
1.9125595e-18
5.7272472e-18
-1.2693368e-29
-5.7066991e-18
0
1.8953014e-18
3.7835482e-18
-1.8882346e-18
1.884718e-18
-6.2654273e-30
-3.7556959e-18
5.6234514e-18
-4.1539035e-30
-2.0744831e-30
-2.0695639e-30
-2.0656681e-30
1.8572052e-18
-5.5612506e-18
-5.55109e-18
1.8470396e-18
3.687473e-18
0
-1.8369782e-18
2.0349501e-30
-4.0631937e-30
2.0277579e-30
1.8231726e-18
-1.8198733e-18
-1.8166261e-18
5.4400639e-18
1.7560736e-47
-3.0088688e-30
1.8030919e-18
-1.9968316e-30
3.59244e-18
-3.5858336e-18
-3.5793967e-18
-1.7864874e-18
1.9793712e-30
1.7798125e-18
0
0
0
3.5321414e-18
-1.7628496e-18
-3.5193609e-18
5.2693626e-18
-1.7531096e-18
-5.2489536e-18
5.2383911e-18
-5.8037548e-30
-3.4784649e-18
5.2079461e-18
3.465681e-18
0
-3.4527748e-18
-5.7376876e-30
-1.7193837e-18
-3.4316304e-18
1.712344e-18
0
3.411818e-18
4.8396517e-34
1.886774e-30
-1.6961417e-18
-5.0777049e-18
5.0668199e-18
-2.8080017e-30
-5.0460989e-18
5.0366154e-18
-8.3731377e-30
-3.3452028e-18
1.6692303e-18
-1.6656923e-18
3.3241175e-18
1.6584453e-18
-7.3490675e-30
-1.6517069e-18
-3.2972524e-18
-1.6455508e-18
-1.6423002e-18
3.277627e-18
1.6351443e-18
0
-1.6278711e-18
9.0198923e-31
5.6826496e-49
1.618488e-18
-4.5908796e-34
1.6118099e-18
8.5202464e-48
-4.8134988e-18
4.802842e-18
4.7928408e-18
-3.1889602e-18
-3.1827978e-18
0
3.1696254e-18
-1.5812736e-18
-4.7329732e-18
4.7222758e-18
-2.6160107e-30
-3.1350265e-18
1.5644448e-18
0
-1.5579574e-18
-1.5544508e-18
1.5508538e-18
-2.5766087e-30
3.0878282e-18
8.7580684e-34
-4.6129744e-18
0
4.5935293e-18
3.0554282e-18
-4.5725302e-18
-3.0413161e-18
4.5517139e-18
1.5139585e-18
-6.0432406e-18
-1.5077197e-18
3.0091342e-18
3.0025184e-18
-1.662774e-30
-1.4942249e-18
-1.4906766e-18
-1.4872605e-18
1.4840438e-18
-1.6440895e-30
2.955664e-18
-4.9109517e-30
-4.4134436e-18
0
0
2.9219766e-18
-3.2372455e-30
-1.4546762e-18
4.3541922e-18
-1.4479853e-18
-2.4050209e-30
-4.7993458e-30
-4.3130776e-18
1.4344732e-18
-7.9430084e-31
1.5855261e-30
1.4249906e-18
-1.4216668e-18
2.0154497e-34
-7.8531079e-31
1.5666081e-30
1.4080211e-18
0
-1.4017669e-18
2.79728e-18
1.3953733e-18
-2.7839232e-18
0
1.3850064e-18
-1.3816883e-18
-2.757094e-18
4.1264056e-18
-4.5710875e-30
-4.5591289e-30
1.3654597e-18
-4.0860013e-18
1.9307746e-34
1.3555109e-18
1.3524751e-18
-1.3493863e-18
-1.346159e-18
1.342808e-18
0
-1.3359909e-18
2.6653542e-18
-2.2142729e-30
-1.3263937e-18
-2.9385873e-30
-2.9309408e-30
-3.7431693e-34
-2.6273282e-18
3.9307298e-18
3.9205246e-18
0
-2.6009331e-18
-3.892438e-18
-1.8394868e-34
1.2912032e-18
1.2878437e-18
-1.2844464e-18
-1.2811411e-18
1.2780203e-18
0
2.5442272e-18
2.5380157e-18
-3.7972349e-18
-1.2624067e-18
1.2590942e-18
-3.5694754e-34
-1.2528496e-18
-2.4997754e-18
-1.2469094e-18
2.0716694e-30
4.9628914e-18
-4.1213804e-30
-3.7025518e-18
1.2309043e-18
1.2277282e-18
1.2247109e-18
-1.2217977e-18
-1.2188362e-18
-1.2157313e-18
-3.4461216e-34
1.2092158e-18
-1.2060013e-18
3.6087656e-18
2.3999302e-18
-3.5910949e-18
1.1940181e-18
2.381805e-18
-2.3754251e-18
1.1844954e-18
-1.1813141e-18
-2.3564388e-18
3.5256926e-18
-1.1723043e-18
3.8950949e-30
3.4987764e-18
-2.3261155e-18
-1.1597832e-18
-1.1565167e-18
-2.3066624e-18
1.1502606e-18
5.1375057e-75
2.2885533e-18
1.1412215e-18
-1.2634548e-30
-1.1348806e-18
-2.2632283e-18
2.2567299e-18
-1.1252148e-18
-3.3666226e-18
3.3578118e-18
1.116254e-18
-1.6773556e-47
1.1098125e-18
-3.3194598e-18
-1.1031957e-18
1.0999828e-18
2.1936704e-18
-1.093707e-18
1.0905713e-18
-3.6216754e-30
-2.1686397e-18
3.2435293e-18
1.1973336e-30
-4.7729996e-30
2.378525e-30
-2.136142e-18
2.1295732e-18
-1.0615806e-18
-4.2338123e-18
1.0553523e-18
2.104426e-18
0
2.091508e-18
-2.314553e-30
-5.906671e-34
-1.1498564e-30
-1.0324321e-18
-1.029146e-18
1.025933e-18
1.022773e-18
-2.0391879e-18
2.0326972e-18
-1.1246367e-30
-2.0194617e-18
2.0128894e-18
3.3411728e-30
-1.1101784e-30
-9.9680009e-19
-1.9870369e-18
9.9018604e-19
-9.8682363e-19
5.4589815e-31
9.801475e-19
1.9537818e-18
-9.7367355e-19
-1.9408725e-18
9.6714768e-19
-9.6382349e-19
1.5997288e-30
-9.5722143e-19
-2.1186841e-30
1.9015213e-18
1.8949779e-18
2.096059e-30
-3.1335762e-30
3.1224355e-30
-9.341806e-19
-9.309913e-19
-9.2783301e-19
9.2460024e-19
0
0
-9.1439889e-19
5.0569051e-31
1.2900415e-34
1.004307e-30
9.0153091e-19
0
-8.9496607e-19
-1.7831462e-18
8.8818015e-19
1.769687e-18
1.7631932e-18
1.7568497e-18
-2.6257867e-18
-2.9043079e-30
2.6062674e-18
-1.7308294e-18
-1.7241187e-18
0
-8.5543611e-19
1.7043713e-18
8.4896015e-19
-1.6915131e-18
-8.4255682e-19
9.3176257e-31
2.5079998e-18
-8.3265979e-19
-2.4880517e-18
2.478372e-18
8.229603e-19
-2.4593242e-18
9.0635349e-31
8.1324803e-19
1.6199506e-18
8.9536212e-31
-1.6070043e-18
1.6005518e-18
-7.9703827e-19
-2.3813832e-18
0
7.8734208e-19
1.5682693e-18
-4.3369138e-31
7.7769041e-19
1.5489186e-18
-1.5424907e-18
-1.5361395e-18
0
-7.6180132e-19
-8.4219238e-31
-8.3873452e-31
-8.3505026e-31
2.2469589e-18
1.4916119e-18
0
-1.4790559e-18
-1.6348239e-30
-7.3325369e-19
-2.1902775e-18
7.2693762e-19
-4.0166441e-31
1.0241771e-34
7.1760065e-19
1.4289677e-18
-7.1135725e-19
-1.4164709e-18
7.0512152e-19
0
1.3978395e-18
-6.9583602e-19
-2.0782945e-18
6.8970409e-19
6.8664662e-19
1.3671615e-18
-6.8050263e-19
-2.032268e-18
6.7435454e-19
-7.4515328e-31
-1.3365328e-18
6.6524059e-19
6.6221861e-19
1.3183713e-18
1.9684039e-18
-1.3061592e-18
-1.300089e-18
1.2940855e-18
7.148128e-31
-1.2820726e-18
1.2759983e-18
7.0491257e-31
-1.2639223e-18
0
1.25195e-18
1.2459341e-18
0
-1.8508225e-18
-6.1394532e-19
-1.7364282e-34
-6.0794759e-19
-6.0494281e-19
-6.680764e-31
1.1978844e-18
1.1918919e-18
-1.9747978e-30
-1.1798922e-18
1.1738678e-18
1.9447453e-30
-1.1618519e-18
0
0
0
0
1.1317286e-18
6.2500181e-31
-1.1196378e-18
-5.5679443e-19
1.1075287e-18
-1.8344875e-30
-1.0953803e-18
1.0893066e-18
6.0142268e-31
-5.3856075e-19
1.0710252e-18
-1.7736374e-30
-1.0588044e-18
1.0526815e-18
1.0465481e-18
-1.0403958e-18
-1.034239e-18
0
0
0
0
-5.0174217e-19
4.986408e-19
4.9553395e-19
-5.4666312e-31
9.0717926e-75
-4.8618249e-19
-9.6611054e-19
-4.7992306e-19
9.5357181e-19
1.4209314e-18
-4.704968e-19
-9.3468992e-19
1.3925652e-18
9.2205433e-19
-1.373584e-18
-9.0938153e-19
-4.515153e-19
-4.9771966e-31
8.9029773e-19
0
-4.387617e-19
4.3556087e-19
-9.5996087e-31
-1.2197067e-34
-1.4184287e-30
-4.2271501e-19
-4.1949335e-19
1.1831036e-34
8.2607534e-19
8.1960719e-19
-1.3539325e-30
-8.0664608e-19
0
0
0
-3.9031431e-19
-3.8705267e-19
3.8378737e-19
3.805185e-19
-3.7724618e-19
7.4794109e-19
1.1120752e-18
0
-7.2824977e-19
-4.0048132e-31
-3.5754613e-19
-1.0627575e-18
3.5095619e-19
-5.7892876e-31
6.8871232e-19
-2.2719157e-30
-6.7549408e-19
-1.8563921e-31
-4.7056335e-35
3.2781787e-19
-3.245045e-19
6.4237903e-19
3.1787306e-19
-6.2911056e-19
6.2247264e-19
8.7515089e-35
-3.382338e-31
-3.0127375e-19
-8.9385411e-19
5.8925683e-19
3.2001978e-49
2.8798117e-19
-4.7409987e-31
-5.6266561e-19
2.7800834e-19
5.4936748e-19
-3.0117267e-31
-8.0410341e-19
7.5235128e-35
2.6138607e-19
-2.5806258e-19
5.0947958e-19
2.5141783e-19
-4.9619374e-19
4.8955418e-19
2.6798713e-31
-1.3219347e-30
5.2145224e-31
-4.6302475e-19
4.564003e-19
-2.2488951e-19
-4.4316101e-19
2.1827318e-19
-2.1496761e-19
4.2332756e-19
-3.4702905e-31
-6.1518421e-19
0
0
5.8551091e-19
1.9187671e-19
-3.7716982e-19
3.705898e-19
1.0345871e-34
-7.9362371e-31
-1.9475849e-31
-3.4429995e-19
3.377345e-19
3.3117198e-19
-1.6230606e-19
-4.7708189e-19
-1.5574945e-19
1.5247224e-19
0
0
-1.4264349e-19
7.7359768e-32
4.0827695e-19
3.7748709e-35
-2.590798e-19
-1.2626236e-19
1.3649558e-31
3.5911062e-19
2.5849197e-31
-2.2627665e-19
0
-1.065636e-19
2.0654277e-19
9.9975378e-20
-2.1467593e-31
-9.3370683e-20
-1.8012253e-19
8.6746418e-20
0
0
0
0
-7.0067033e-20
3.7026896e-32
1.900058e-19
-5.9954109e-20
-1.696849e-19
1.5947074e-19
4.9739043e-20
-9.2614378e-20
-4.2860567e-20
-6.5601548e-32
1.0775831e-19
-1.8430325e-35
-9.628406e-32
-2.5372445e-20
-4.3632205e-20
-1.8237575e-20
-1.6243663e-32
1.100913e-20
7.3570181e-21
3.6793339e-21
-2.2696474e-24
8.2663453e-33
1.5063259e-20
0
0
1.9070932e-20
3.8277573e-32
3.8291766e-36
-4.3975809e-36
-3.4989446e-20
-7.8159947e-20
-8.6437805e-20
9.4817036e-20
5.7369999e-32
5.5949154e-20
1.8091433e-19
0
0
-7.3741097e-20
-7.8351619e-20
0
8.7787047e-20
-5.1409863e-32
-9.7527532e-20
1.0251956e-19
-2.1519392e-19
3.7555249e-31
3.5406419e-19
-1.2337539e-19
-1.2882857e-19
-2.6876896e-19
1.4004678e-19
4.37458e-19
-1.5170618e-19
8.7564275e-32
-3.2767896e-19
-1.7009435e-19
3.5296076e-19
-3.6600394e-19
1.0373594e-47
3.9294087e-19
0
0
-4.3561987e-19
2.4980155e-31
7.7563829e-31
1.2126847e-47
7.4579304e-19
2.8506512e-31
-2.6508975e-19
-5.4726123e-19
-5.6475178e-19
5.8266308e-19
6.6720947e-31
3.0989861e-19
1.0643387e-30
-3.2938342e-19
6.7897365e-19
0
3.6044982e-19
-4.1211975e-31
-3.8246759e-19
-7.8778029e-19
-4.5016072e-31
8.3520079e-19
0
0
4.5544341e-19
-2.6016185e-31
-1.4468421e-18
-5.5086398e-31
1.0209596e-18
0
-5.4010634e-19
5.5547542e-19
5.7122607e-19
5.8736674e-19
6.0390595e-19
-1.2417046e-18
-1.9146429e-18
6.5600046e-19
1.3484384e-18
-2.0786367e-18
7.4471357e-48
1.4631106e-18
0
0
0
0
-1.6731094e-18
-1.7180891e-18
8.8204982e-19
2.7167351e-18
1.0325678e-30
-9.5423588e-19
1.9587592e-18
2.0101521e-18
-1.0313322e-18
-4.2326183e-18
-2.1710996e-18
3.3405724e-18
2.2841671e-18
-3.5137012e-18
-2.6661991e-30
2.4626541e-18
0
0
0
-2.7176281e-18
-1.5455861e-30
3.1671537e-30
-1.4609322e-18
4.488672e-18
-1.5321447e-18
-1.5686953e-18
4.817629e-18
3.2873754e-18
-1.6821286e-18
-3.4423953e-18
-3.521786e-18
5.9998815e-30
-2.0455925e-30
5.3538252e-34
3.8517616e-18
0
2.0120432e-18
2.056023e-18
-2.1005927e-18
-2.1457447e-18
2.191471e-18
2.2377626e-18
-4.5692199e-18
-2.3320029e-18
2.3799303e-18
-2.4283805e-18
2.4773408e-18
5.0535958e-18
0
0
-8.0340204e-18
-2.7293045e-18
5.562045e-18
2.8331438e-18
2.885651e-18
-5.8770532e-18
3.3230012e-30
6.0906265e-18
0
-3.1533617e-18
-9.6234251e-18
-7.2428192e-30
1.8416038e-29
-6.744999e-18