-1.25 	300 	0.03046879370221236 	101337.4344943582
-1.247497497497497 	300.0067317563182 	0.03170068418681603 	101338.091619174
-1.244994994994995 	300.0114082661806 	0.03378781749015693 	101338.7409600296
-1.242492492492492 	300.0121716105821 	0.03532885730613188 	101339.3926243672
-1.23998998998999 	300.0127230123102 	0.03682662168788059 	101340.0412490564
-1.237487487487487 	300.0132683272676 	0.03843393418720779 	101340.6869790839
-1.234984984984985 	300.0138120055634 	0.04001300376530179 	101341.3298176441
-1.232482482482482 	300.0143531234773 	0.04157888885305222 	101341.9696092578
-1.22997997997998 	300.0148915531631 	0.04314076225356892 	101342.6062238275
-1.227477477477477 	300.015427194466 	0.04469363505689003 	101343.2395439978
-1.224974974974975 	300.0159599640231 	0.04623536949359794 	101343.8694758964
-1.222472472472472 	300.0164898099684 	0.04776911222178048 	101344.4959462412
-1.21996996996997 	300.017016663586 	0.04929616720650037 	101345.1188799161
-1.217467467467467 	300.0175404273635 	0.05081574019165962 	101345.7381732674
-1.214964964964965 	300.0180609911031 	0.05232238023067851 	101346.3536846277
-1.212462462462462 	300.0185782219554 	0.053817956390709 	101346.9652506221
-1.20995995995996 	300.0190919816573 	0.05530519120336708 	101347.5727155798
-1.207457457457457 	300.0196021597867 	0.05678455401998632 	101348.1759506
-1.204954954954955 	300.0201086741993 	0.05825518877429994 	101348.7748545924
-1.202452452452452 	300.0206114574507 	0.05971148905668688 	101349.3693497259
-1.19994994994995 	300.021110456088 	0.06115504176910773 	101349.9593750701
-1.197447447447447 	300.0216056178441 	0.06258837790129514 	101350.5448679847
-1.194944944944945 	300.0220968681754 	0.06401239090521028 	101351.1257380229
-1.192442442442442 	300.0225840986088 	0.06542547420634695 	101351.7018529303
-1.18993993993994 	300.0230671685895 	0.06682312395406848 	101352.2730489691
-1.187437437437437 	300.0235459385566 	0.0682083820229084 	101352.8391639486
-1.184934934934935 	300.024020304362 	0.06958244288656143 	101353.4000723822
-1.182432432432432 	300.0244901961274 	0.07094445367792933 	101353.9556921903
-1.17992992992993 	300.0249555592398 	0.07229389720450941 	101354.5059614346
-1.177427427427427 	300.0254163395933 	0.07362849476836283 	101355.0508172977
-1.174924924924925 	300.0258724796986 	0.07494911222558645 	101355.5901868503
-1.172422422422422 	300.0263239057184 	0.07625625135564799 	101356.123979998
-1.16991991991992 	300.0267705190861 	0.07755001214051394 	101356.6520841402
-1.167417417417417 	300.0272122053336 	0.07882983562204102 	101357.1743682119
-1.164914914914915 	300.0276488525319 	0.08009449162146415 	101357.6907005753
-1.162412412412412 	300.0280803726156 	0.0813443556466583 	101358.2009723439
-1.15990990990991 	300.028506701733 	0.08257927604962628 	101358.7051020357
-1.157407407407407 	300.0289277788187 	0.08379933572286706 	101359.2030166456
-1.154904904904904 	300.0293435355299 	0.08500392727175998 	101359.6946395968
-1.152402402402403 	300.0297538971693 	0.0861925514685271 	101360.1798885313
-1.1498998998999 	300.0301587848375 	0.08736532633827997 	101360.658672517
-1.147397397397397 	300.0305581170751 	0.08852185210839605 	101361.1308930175
-1.144894894894895 	300.0309518144045 	0.08966241662136919 	101361.596451
-1.142392392392392 	300.031339807773 	0.09078624247450728 	101362.0552594422
-1.13988988988989 	300.0317220389056 	0.09189356552609752 	101362.5072485503
-1.137387387387387 	300.0320984515157 	0.09298423823601547 	101362.9523531815
-1.134884884884885 	300.0324689760507 	0.09405775822786031 	101363.3904942227
-1.132382382382382 	300.0328335318619 	0.09511412724714349 	101363.8215786462
-1.12987987987988 	300.033192038607 	0.09615163213295558 	101364.2455119482
-1.127377377377377 	300.0335444209057 	0.09717235059082817 	101364.6622069809
-1.124874874874875 	300.0338906168439 	0.09817597212199275 	101365.0715901295
-1.122372372372372 	300.0342305735997 	0.09916000443121201 	101365.4735986036
-1.11986986986987 	300.034564241928 	0.100126249139235 	101365.8681738924
-1.117367367367367 	300.0348915685984 	0.1010738991417 	101366.2552510898
-1.114864864864865 	300.0352124833105 	0.1020047201457796 	101366.6347482695
-1.112362362362362 	300.0355269096682 	0.1029170027885121 	101367.0065740538
-1.10985985985986 	300.0358347765317 	0.1038069978890443 	101367.3706442018
-1.107357357357357 	300.0361360300381 	0.1046787697365621 	101367.7268950845
-1.104854854854855 	300.0364306345099 	0.1055318284503435 	101368.0752829548
-1.102352352352353 	300.036718553579 	0.1063670821336087 	101368.4157663805
-1.09984984984985 	300.0369997409737 	0.1071831139997744 	101368.7482896141
-1.097347347347347 	300.0372741318206 	0.1079762181580201 	101369.0727758879
-1.094844844844845 	300.0375416522893 	0.1087502922944056 	101369.3891386437
-1.092342342342342 	300.0378022377441 	0.1095051346294127 	101369.6973002492
-1.08983983983984 	300.0380558364462 	0.1102408153341057 	101369.997200511
-1.087337337337337 	300.038302415439 	0.1109566729066744 	101370.2888003767
-1.084834834834835 	300.0385419544721 	0.111649660260057 	101370.5720754318
-1.082332332332332 	300.0387744349943 	0.1123218983429639 	101370.847003176
-1.07982982982983 	300.0389998320724 	0.1129742841583145 	101371.1135541081
-1.077327327327327 	300.0392181021619 	0.1136066236976019 	101371.3716777844
-1.074824824824825 	300.0394291812522 	0.1142196719343158 	101371.6212982254
-1.072322322322323 	300.0396329918089 	0.1148105163587926 	101371.862323351
-1.06981981981982 	300.0398294543125 	0.1153779188342801 	101372.0946584008
-1.067317317317317 	300.0400185114689 	0.1159247333419983 	101372.3182359937
-1.064814814814815 	300.040200148607 	0.1164513548569115 	101372.5330394883
-1.062312312312312 	300.0403743854869 	0.1169578486813026 	101372.7390921078
-1.05980980980981 	300.0405412498809 	0.117442073435314 	101372.936426237
-1.057307307307307 	300.0407007414075 	0.1179023190404639 	101373.1250406824
-1.054804804804805 	300.0408528099088 	0.1183415963365186 	101373.3048767109
-1.052302302302302 	300.04099738012 	0.118760637620389 	101373.4758457493
-1.0497997997998 	300.0411343832671 	0.1191585530140678 	101373.6378662535
-1.047297297297297 	300.0412637683698 	0.1195341073321769 	101373.7908776707
-1.044794794794795 	300.0413855061418 	0.1198861907623801 	101373.9348445637
-1.042292292292292 	300.0414995830199 	0.1202160811005759 	101374.0697520121
-1.03978978978979 	300.0416060059126 	0.1205246211991075 	101374.1956086773
-1.037287287287287 	300.0417048070843 	0.1208110228804982 	101374.3124512872
-1.034784784784785 	300.0417960074147 	0.1210750756111187 	101374.4203047104
-1.032282282282283 	300.0418795816876 	0.1213165805501181 	101374.5191395646
-1.02977977977978 	300.0419554759317 	0.1215358296308666 	101374.6088927057
-1.027277277277277 	300.0420236408936 	0.1217335708573704 	101374.6895051208
-1.024774774774775 	300.0420840462506 	0.1219089330767657 	101374.7609394188
-1.022272272272272 	300.0421366787807 	0.1220621879296082 	101374.8231818466
-1.01976976976977 	300.0421815224664 	0.1221925527414336 	101374.8762143831
-1.017267267267267 	300.0422185581156 	0.1222995962794177 	101374.9200129425
-1.014764764764765 	300.0422478066486 	0.1223844593354682 	101374.9546001512
-1.012262262262262 	300.0422693204303 	0.1224461044264427 	101374.9800386446
-1.00975975975976 	300.0422831228987 	0.1224866223662038 	101374.9963610845
-1.007257257257257 	300.0422892088282 	0.1225045061510569 	101375.0035595053
-1.004754754754755 	300.0422875477525 	0.1224985604042255 	101375.0015935524
-1.002252252252252 	300.0422780767768 	0.1224710795371409 	101374.990388179
-0.9997497497497498 	300.0422607603556 	0.1224201662278099 	101374.9699037112
-0.9972472472472473 	300.0422356207626 	0.1223490341085633 	101374.9401737293
-0.9947447447447449 	300.0422026839165 	0.1222553481648744 	101374.9012268594
-0.9922422422422421 	300.0421619668026 	0.1221359051008489 	101374.8530745573
-0.9897397397397399 	300.0421135177871 	0.1219950490500597 	101374.79576959
-0.9872372372372376 	300.0420573703404 	0.1218317968728384 	101374.7293565613
-0.9847347347347346 	300.0419935091051 	0.1216479491305432 	101374.65383019
-0.9822322322322323 	300.0419219409814 	0.1214414033559552 	101374.5692008766
-0.9797297297297296 	300.0418426776079 	0.1212096450304779 	101374.4754719457
-0.9772272272272275 	300.0417556796093 	0.1209570719678696 	101374.3725838495
-0.9747247247247248 	300.0416609337436 	0.1206829691927274 	101374.2605192788
-0.9722222222222224 	300.0415585009935 	0.1203873216576759 	101374.139364218
-0.9697197197197196 	300.0414484229634 	0.1200694833195016 	101374.0091818024
-0.9672172172172175 	300.0413307034988 	0.1197281365498022 	101373.8699787836
-0.9647147147147147 	300.04120541 	0.1193647505281566 	101373.7218221565
-0.9622122122122124 	300.0410726306145 	0.1189794893081212 	101373.5647991993
-0.9597097097097099 	300.0409323400254 	0.1185727878336975 	101373.3988738159
-0.9572072072072073 	300.0407844769512 	0.118144554247944 	101373.2239826893
-0.9547047047047047 	300.0406290721582 	0.1176941407438467 	101373.0401800757
-0.9522022022022023 	300.0404661478304 	0.1172219424434077 	101372.8475064078
-0.9496996996996998 	300.0402956697615 	0.1167282874158817 	101372.6459199497
-0.9471971971971973 	300.0401177174031 	0.1162134682168756 	101372.4355001838
-0.9446946946946947 	300.0399324711351 	0.1156781001757485 	101372.2164418068
-0.9421921921921923 	300.0397399757243 	0.1151208150041202 	101371.9887857915
-0.93968968968969 	300.0395401597667 	0.1145407056994267 	101371.7524520259
-0.9371871871871872 	300.0393330721221 	0.1139398023686737 	101371.5075147222
-0.9346846846846848 	300.0391188192446 	0.1133188528403744 	101371.2541163058
-0.9321821821821823 	300.0388973394004 	0.1126786585535029 	101370.9921940118
-0.9296796796796799 	300.0386685357279 	0.1120170512598747 	101370.7216342723
-0.9271771771771771 	300.0384325420026 	0.1113322981719947 	101370.4425874371
-0.9246746746746748 	300.0381895679479 	0.1106277627996747 	101370.1552890569
-0.9221721721721724 	300.0379396014121 	0.1099039017195155 	101369.8597107496
-0.9196696696696698 	300.0376825589024 	0.1091603713400872 	101369.5557429004
-0.9171671671671672 	300.0374185833303 	0.1083964233707694 	101369.2435515941
-0.9146646646646649 	300.0371478824686 	0.107610934247871 	101368.9233864757
-0.9121621621621623 	300.0368704010471 	0.1068059276856949 	101368.5951899868
-0.9096596596596597 	300.0365859798998 	0.1059820831122051 	101368.2587816784
-0.9071571571571573 	300.0362947189637 	0.1051385988814909 	101367.9142858779
-0.9046546546546547 	300.0359968853546 	0.1042764073697022 	101367.5620222725
-0.9021521521521524 	300.0356925276029 	0.1033945238328608 	101367.2020506033
-0.8996496496496498 	300.0353814885726 	0.1024926812601268 	101366.8341868127
-0.8971471471471473 	300.0350637761832 	0.1015723443233675 	101366.4584403975
-0.894644644644645 	300.0347396474083 	0.1006330336256872 	101366.0751151568
-0.892142142142142 	300.0344092660531 	0.0996772941699049 	101365.6844053894
-0.8896396396396397 	300.0340725421282 	0.0987024406224858 	101365.286200237
-0.8871371371371374 	300.033729381773 	0.09770722627287098 	101364.8803881124
-0.8846346346346349 	300.033379932257 	0.09669494075993036 	101364.4671415859
-0.8821321321321324 	300.0330244340796 	0.09566427665222038 	101364.0467440673
-0.8796296296296297 	300.0326629700054 	0.09461864158268997 	101363.6192964786
-0.8771271271271271 	300.0322954736384 	0.09355491485281836 	101363.1847201557
-0.8746246246246248 	300.0319219157996 	0.09247110033601298 	101362.7429790177
-0.8721221221221224 	300.0315423864474 	0.09137141704795397 	101362.2941780135
-0.8696196196196196 	300.0311570378901 	0.09025458747535624 	101361.8384942667
-0.8671171171171175 	300.0307660274852 	0.08912315164083023 	101361.3761150244
-0.8646146146146148 	300.0303694863173 	0.08797510864757949 	101360.9071967912
-0.8621121121121121 	300.0299674168094 	0.08680879632633827 	101360.4317443069
-0.8596096096096097 	300.0295596686445 	0.0856272918360609 	101359.9495808348
-0.857107107107107 	300.029146165963 	0.08442946893661167 	101359.4606170894
-0.8546046046046049 	300.0287271819107 	0.08321651161607238 	101358.9651748059
-0.8521021021021022 	300.028303217438 	0.08198874759990335 	101358.4638432186
-0.8495995995995997 	300.0278744933511 	0.08074602330010563 	101357.9568821883
-0.8470970970970974 	300.0274406526295 	0.07948866814033685 	101357.4438690928
-0.8445945945945946 	300.0270011715385 	0.078215218234876 	101356.9241868117
-0.8420920920920922 	300.0265561146757 	0.07692651917932417 	101356.3979154976
-0.8395895895895897 	300.0261063022368 	0.07562412823301035 	101355.866026515
-0.8370870870870872 	300.025652553666 	0.07430956173298697 	101355.3294880888
-0.8345845845845846 	300.0251947801389 	0.07298290477366486 	101354.7881936743
-0.8320820820820823 	300.0247319902137 	0.07164173799749855 	101354.2409697436
-0.8295795795795798 	300.024263361417 	0.07028458290404561 	101353.6868423816
-0.8270770770770772 	300.0237893030255 	0.06891224023846988 	101353.126294765
-0.8245745745745746 	300.0233113017632 	0.06752797598462947 	101352.5610851887
-0.8220720720720721 	300.0228306122766 	0.06613491536661122 	101351.9926975362
-0.8195695695695699 	300.0223470678466 	0.06473316502722877 	101351.4209357573
-0.817067067067067 	300.0218591758496 	0.06331941553594395 	101350.8440353386
-0.8145645645645651 	300.0213654657462 	0.06189006782940271 	101350.2602584451
-0.8120620620620621 	300.0208659224492 	0.0604440851148156 	101349.669588862
-0.8095595595595597 	300.0203621213181 	0.05898470063316007 	101349.0738906909
-0.8070570570570572 	300.0198560256188 	0.05751837146773723 	101348.4754850336
-0.8045545545545546 	300.0193485404452 	0.056047847208148 	101347.875440053
-0.8020520520520523 	300.0188388462758 	0.05457199149322327 	101347.2727848113
-0.7995495495495494 	300.0183250496886 	0.05308392451987808 	101346.665278952
-0.7970470470470474 	300.0178056719121 	0.05157778640642081 	101346.0511729354
-0.7945445445445446 	300.0172807371036 	0.0500568566185413 	101345.4304983287
-0.7920420420420423 	300.0167517853138 	0.04852579119766395 	101344.805078533
-0.7895395395395397 	300.0162209131593 	0.04698973727801594 	101344.1773924511
-0.7870370370370371 	300.0156894578203 	0.04545138592870863 	101343.5490201774
-0.7845345345345348 	300.0151572688784 	0.04390836311653493 	101342.9197826951
-0.7820320320320323 	300.0146229631889 	0.04235871841106736 	101342.2880442729
-0.7795295295295296 	300.0140848122444 	0.0407991368729639 	101341.6517615011
-0.7770270270270272 	300.0135417897329 	0.03922565099164511 	101341.0097215697
-0.7745245245245247 	300.0129940986643 	0.03764059128043405 	101340.3621652407
-0.7720220220220222 	300.0124429533387 	0.03604461150456999 	101339.7105285641
-0.7695195195195199 	300.0118899410591 	0.0344415493010253 	101339.0566888722
-0.767017017017017 	300.0113363090442 	0.03283810381322144 	101338.4021202059
-0.7645145145145147 	300.0107825517209 	0.03123392567717824 	101337.7474061955
-0.7620120120120122 	300.010228370355 	0.02963060391402843 	101337.0921940961
-0.7595095095095097 	300.0096729528665 	0.02802212498687519 	101336.4355222773
-0.7570070070070072 	300.0091153670102 	0.02640538057882532 	101335.776289732
-0.7545045045045048 	300.0085549790369 	0.0247816126126997 	101335.1137469964
-0.7520020020020022 	300.007991615627 	0.02314802440989407 	101334.447689228
-0.7494994994994997 	300.0074255399298 	0.02150905859836664 	101333.7784280631
-0.7469969969969972 	300.006857298229 	0.0198633792861076 	101333.1066093865
-0.7444944944944945 	300.0062875441222 	0.01821165495622173 	101332.4330073606
-0.7419919919919924 	300.0057168331926 	0.01655866351282493 	101331.7582779108
-0.7394894894894897 	300.0051455755585 	0.01490406571671912 	101331.0829053168
-0.7369869869869872 	300.0045740413811 	0.01324928940775551 	101330.4072083939
-0.7344844844844846 	300.0040023368866 	0.01159333903566572 	101329.7313126502
-0.7319819819819822 	300.0034304096701 	0.009935780174709537 	101329.055157198
-0.7294794794794797 	300.0028581830591 	0.008277590651172477 	101328.3786515957
-0.7269769769769773 	300.0022855837706 	0.006618224198680237 	101327.7017087636
-0.7244744744744747 	300.0017125698777 	0.004958343398999262 	101327.0242792354
-0.721971971971972 	300.0011391266448 	0.003297326635016494 	101326.3463447517
-0.7194694694694695 	300.0005653053865 	0.001635146323214253 	101325.6679659925
-0.7169669669669674 	299.9999912051573 	0.0006913637979610568 	101324.9892604418
-0.7144644644644647 	299.9994169492622 	0.001691000889878515 	101324.3103741723
-0.711961961961962 	299.9988426830479 	0.003354208198965598 	101323.6314804898
-0.7094594594594597 	299.9982685574354 	0.005017343104869448 	101322.9527577339
-0.7069569569569573 	299.9976947089291 	0.006680080501396043 	101322.274365517
-0.7044544544544545 	299.9971212500764 	0.00834193575619833 	101321.5964351536
-0.7019519519519523 	299.9965482720311 	0.01000233886788051 	101320.9190749578
-0.6994494494494495 	299.9959758618674 	0.01166048148423923 	101320.2423896894
-0.6969469469469471 	299.9954041213069 	0.01331632256696685 	101319.5665008102
-0.6944444444444446 	299.9948331709481 	0.01496983924930333 	101318.8915516317
-0.6919419419419421 	299.9942631429682 	0.01662118690575597 	101318.2176960598
-0.6894394394394396 	299.99369416663 	0.01826962205819756 	101317.5450862131
-0.6869369369369374 	299.9931263663781 	0.01991440812865374 	101316.87386873
-0.6844344344344344 	299.9925598588519 	0.02155506845616117 	101316.2041808753
-0.6819319319319321 	299.9919947456681 	0.02319190729163684 	101315.5361436507
-0.6794294294294296 	299.9914311165239 	0.02482557819119575 	101314.8698646077
-0.6769269269269272 	299.990869058223 	0.02645449366525708 	101314.2054479546
-0.6744244244244245 	299.9903086613701 	0.02807794350875767 	101313.5430010137
-0.6719219219219222 	299.9897500256291 	0.0296946726099849 	101312.8826406294
-0.6694194194194195 	299.9891932630496 	0.03130631681224404 	101312.2244946425
-0.6669169169169172 	299.9886384831603 	0.03291490516784722 	101311.5686923154
-0.6644144144144146 	299.988085792342 	0.03451699543254932 	101310.9153622647
-0.661911911911912 	299.9875353021914 	0.03611177696215113 	101310.2646351788
-0.6594094094094097 	299.9869871165939 	0.03769955737172302 	101309.616635941
-0.656906906906907 	299.98644133069 	0.0392793071232083 	101308.9714793579
-0.6544044044044046 	299.9858980408794 	0.04085366723899916 	101308.3292771103
-0.6519019019019021 	299.9853573422853 	0.04242145226742818 	101307.6901427743
-0.6493993993993996 	299.9848193364634 	0.04398003086539016 	101307.0541958691
-0.6468968968968971 	299.9842841320652 	0.04553069540366637 	101306.421561491
-0.6443943943943946 	299.9837518297568 	0.04707050890623166 	101305.7923593468
-0.6418918918918921 	299.9832225259088 	0.04860350317935427 	101305.1667021735
-0.6393893893893897 	299.9826963186966 	0.0501299991786666 	101304.5447056258
-0.6368868868868871 	299.9821733088514 	0.05164537481664438 	101303.9264893243
-0.6343843843843846 	299.9816535964213 	0.05315144883180044 	101303.3121727101
-0.6318818818818821 	299.9811372810123 	0.05464526931294687 	101302.7018737633
-0.6293793793793795 	299.9806244542798 	0.05613051404403899 	101302.0957019338
-0.6268768768768773 	299.9801151970121 	0.05760689307274206 	101301.4937560064
-0.6243743743743745 	299.979609460716 	0.05907159887868717 	101300.8961307878
-0.6218718718718721 	299.9791075771585 	0.06052657687972 	101300.3029269573
-0.6193693693693696 	299.9786096614326 	0.06196891037509619 	101299.714266813
-0.6168668668668671 	299.9781156288784 	0.06340013988927577 	101299.1302945007
-0.6143643643643645 	299.9776256456528 	0.06482026220213255 	101298.5511492833
-0.6118618618618621 	299.9771398357275 	0.06622784240336696 	101297.9769369679
-0.6093593593593596 	299.976658255028 	0.06762325738922617 	101297.4077236404
-0.6068568568568571 	299.9761809498128 	0.06900553368601031 	101296.8435637848
-0.6043543543543546 	299.9757079917662 	0.07037545739727946 	101296.2845415184
-0.6018518518518521 	299.9752394837057 	0.07173283371461042 	101295.7307794642
-0.5993493493493496 	299.9747755374096 	0.07307694725319817 	101295.1824123332
-0.5968468468468471 	299.974316259285 	0.07440771588224625 	101294.6395680973
-0.5943443443443446 	299.9738617580336 	0.07572423438157458 	101294.1023743369
-0.591841841841842 	299.9734121439604 	0.07702681730526134 	101293.5709610734
-0.5893393393393397 	299.9729675073575 	0.07831517937693842 	101293.0454350827
-0.5868368368368371 	299.9725278951124 	0.07958905855757213 	101292.5258503042
-0.5843343343343346 	299.9720933195872 	0.08084828737659147 	101292.0122206164
-0.5818318318318321 	299.971663809134 	0.08209225130899689 	101291.5045782583
-0.5793293293293297 	299.9712394484326 	0.08332125529773175 	101291.0030224537
-0.5768268268268271 	299.970820370058 	0.08453511982119938 	101290.507710268
-0.5743243243243245 	299.9704067100253 	0.08573382455848742 	101290.0188029107
-0.5718218218218221 	299.969998570595 	0.08691672663158813 	101289.5364210941
-0.5693193193193196 	299.9695960219545 	0.08808295858945911 	101289.0606480556
-0.5668168168168171 	299.9691991306887 	0.08923248254767652 	101288.5915631805
-0.5643143143143147 	299.9688079685407 	0.09036524055341215 	101288.1292511395
-0.5618118118118121 	299.9684225870086 	0.09148185655750318 	101287.6737722019
-0.5593093093093094 	299.9680430018849 	0.09258173096185514 	101287.225147493
-0.5568068068068072 	299.9676692317139 	0.09366427318535574 	101286.7833977062
-0.5543043043043046 	299.9673013439596 	0.09472922226129846 	101286.3486016956
-0.551801801801802 	299.9669394636944 	0.0957768586881397 	101285.9209074087
-0.5492992992992995 	299.966583730408 	0.09680826324086912 	101285.5004787601
-0.5467967967967969 	299.9662342461978 	0.09782172608594436 	101285.0874372227
-0.5442942942942947 	299.9658910715614 	0.09881630782619427 	101284.6818540105
-0.5417917917917919 	299.9655542471049 	0.09979088910996099 	101284.2837772289
-0.5392892892892895 	299.9652238064207 	0.1007467049653847 	101283.8932461794
-0.536786786786787 	299.9648997723003 	0.1016866819857772 	101283.5102872461
-0.5342842842842846 	299.9645821597544 	0.1026076744074175 	101283.1349196163
-0.531781781781782 	299.9642710078028 	0.1035085212122768 	101282.7671878833
-0.5292792792792794 	299.9639664004235 	0.1043905205363047 	101282.4071916733
-0.526776776776777 	299.9636684498103 	0.1052510789304562 	101282.0550637983
-0.5242742742742745 	299.9633772517903 	0.1060948789314851 	101281.7109165946
-0.521771771771772 	299.9630928697533 	0.1069215297464967 	101281.3748268416
-0.5192692692692695 	299.9628153590951 	0.1077261172452709 	101281.0468587209
-0.516766766766767 	299.9625447629129 	0.1085108140000196 	101280.7270624869
-0.5142642642642645 	299.9622810951795 	0.1092725422746082 	101280.4154557086
-0.511761761761762 	299.9620243572701 	0.1100159032427041 	101280.1120387473
-0.5092592592592596 	299.9617745738456 	0.1107410018265973 	101279.8168426234
-0.506756756756757 	299.9615318068175 	0.1114437168215192 	101279.5299389174
-0.5042542542542544 	299.9612961237463 	0.1121264468706894 	101279.2514070467
-0.5017517517517521 	299.9610675938175 	0.1127874943916527 	101278.9813297848
-0.4992492492492494 	299.9608462974583 	0.1134288116294683 	101278.7198014734
-0.496746746746747 	299.9606322866003 	0.1140497978429436 	101278.4668849111
-0.4942442442442445 	299.9604255706406 	0.1146491314202199 	101278.2225899298
-0.4917417417417421 	299.9602261511538 	0.1152275806599311 	101277.9869177325
-0.4892392392392395 	299.9600340393486 	0.1157837195880087 	101277.7598821374
-0.486736736736737 	299.9598492545857 	0.116318778636519 	101277.5415060337
-0.4842342342342345 	299.9596718458656 	0.1168325889580714 	101277.3318483532
-0.481731731731732 	299.9595018817107 	0.1173246719461848 	101277.1309883903
-0.4792292292292296 	299.959339414233 	0.1177954078438852 	101276.9389880129
-0.4767267267267268 	299.9591844938843 	0.1182440553385698 	101276.7559070926
-0.4742242242242246 	299.9590371583395 	0.1186712545359975 	101276.5817896219
-0.471721721721722 	299.9588973999818 	0.1190766015070244 	101276.4166286952
-0.4692192192192195 	299.9587652074586 	0.1194598018510175 	101276.2604091495
-0.4667167167167169 	299.9586405862475 	0.1198209174043446 	101276.1131369666
-0.4642142142142145 	299.9585235540677 	0.1201594341838742 	101275.9748323189
-0.461711711711712 	299.9584141557093 	0.1204759518339717 	101275.8455494992
-0.4592092092092094 	299.9583124397399 	0.1207703165943793 	101275.72534713
-0.456706706706707 	299.9582184287456 	0.121042673300824 	101275.6142513133
-0.4542042042042045 	299.9581321447116 	0.1212928864173108 	101275.512287357
-0.451701701701702 	299.9580536138465 	0.1215204025769787 	101275.4194841726
-0.4491991991991995 	299.9579828536551 	0.1217255199665886 	101275.3358635522
-0.4466966966966969 	299.9579198751016 	0.1219079864158389 	101275.2614402339
-0.4441941941941945 	299.9578646575958 	0.1220682609166387 	101275.1961902137
-0.441691691691692 	299.9578171699967 	0.1222060595385947 	101275.140076545
-0.4391891891891895 	299.957777417718 	0.1223209204497317 	101275.0931029324
-0.436686686686687 	299.9577454345848 	0.1224131283287106 	101275.0553085991
-0.4341841841841846 	299.9577212575894 	0.122482566958252 	101275.0267388345
-0.431681681681682 	299.9577048945176 	0.1225302139746049 	101275.0074043683
-0.4291791791791794 	299.957696323803 	0.1225554935625858 	101274.9972824899
-0.426676676676677 	299.957695543772 	0.1225577914359028 	101274.9963687113
-0.4241741741741744 	299.9577025893655 	0.1225369468293309 	101275.0047002
-0.421671671671672 	299.9577174890971 	0.1224930400843676 	101275.0223104258
-0.4191691691691694 	299.957740210737 	0.1224279561986956 	101275.0491633373
-0.4166666666666669 	299.9577706765771 	0.1223404038024402 	101275.0851713036
-0.4141641641641645 	299.9578088371646 	0.1222297157456699 	101275.1302767546
-0.411661661661662 	299.9578547303288 	0.1220955318114439 	101275.1845210912
-0.4091591591591594 	299.957908443634 	0.1219376216807514 	101275.2480050841
-0.406656656656657 	299.9579700046689 	0.1217605529006533 	101275.3207587567
-0.4041541541541545 	299.9580393323583 	0.1215618461500588 	101275.4026889734
-0.401651651651652 	299.9581163058231 	0.1213388808325041 	101275.4936573152
-0.3991491491491494 	299.9582008918923 	0.1210939369077873 	101275.593626735
-0.396646646646647 	299.9582931733366 	0.1208239141955936 	101275.7026953525
-0.3941441441441444 	299.9583932525098 	0.1205339129166607 	101275.8209765374
-0.3916416416416419 	299.9585010891939 	0.1202238716529219 	101275.9484213429
-0.3891391391391395 	299.9586165153202 	0.1198895129157215 	101276.0848290603
-0.3866366366366368 	299.9587393942127 	0.1195337065347683 	101276.2300441084
-0.3841341341341344 	299.9588697797295 	0.1191545143636424 	101276.3841365776
-0.381631631631632 	299.9590078598267 	0.1187544442521023 	101276.5473297887
-0.3791291291291294 	299.9591537282886 	0.1183324176190702 	101276.7197305508
-0.3766266266266269 	299.9593072172727 	0.1178877585688195 	101276.901133159
-0.3741241241241244 	299.9594680147528 	0.1174227575163821 	101277.0911647173
-0.371621621621622 	299.9596359613207 	0.1169355490148873 	101277.2896396427
-0.3691191191191194 	299.9598112122557 	0.1164277028832783 	101277.4967470932
-0.366616616616617 	299.9599940633705 	0.1158981807958734 	101277.712845057
-0.3641141141141143 	299.9601846220399 	0.1153462760692245 	101277.9380615523
-0.3616116116116119 	299.9603826363931 	0.1147731783530882 	101278.1720936572
-0.3591091091091095 	299.9605877135701 	0.1141788466958497 	101278.4144693464
-0.356606606606607 	299.9607996951738 	0.1135647488463955 	101278.6649945601
-0.3541041041041044 	299.9610187885945 	0.1129300988880962 	101278.9239155745
-0.3516016016016019 	299.9612453076292 	0.112273904101104 	101279.1916098925
-0.3490990990990994 	299.9614793130343 	0.1115961853427187 	101279.4681593656
-0.346596596596597 	299.9617204768705 	0.1108971283600768 	101279.7531819073
-0.3440940940940944 	299.9619683405681 	0.1101787527539796 	101280.0461326457
-0.3415915915915919 	299.9622227053691 	0.1094415370497664 	101280.3467689627
-0.3390890890890895 	299.9624838178015 	0.1086851181224015 	101280.6553714678
-0.3365865865865869 	299.9627521499759 	0.1079081970787062 	101280.9724933652
-0.3340840840840844 	299.9630279703813 	0.1071093066958571 	101281.2984554398
-0.3315815815815819 	299.9633110356069 	0.1062894280080362 	101281.6329780113
-0.3290790790790794 	299.9636007071257 	0.1054500172339872 	101281.9753182297
-0.3265765765765769 	299.9638964178408 	0.1045932497500281 	101282.3248114944
-0.3240740740740744 	299.9641980564987 	0.1037193960833121 	101282.6813248494
-0.3215715715715718 	299.9645060371799 	0.1028267397790001 	101283.0453393923
-0.3190690690690695 	299.964820982978 	0.1019140289646211 	101283.4175792611
-0.3165665665665668 	299.9651432111181 	0.1009803101002215 	101283.7984104534
-0.3140640640640644 	299.9654724167922 	0.1000273373904752 	101284.1874718885
-0.311561561561562 	299.9658078028608 	0.09905665742023229 	101284.5838304722
-0.3090590590590593 	299.9661486502224 	0.09806911558041849 	101284.9866474605
-0.3065565565565568 	299.9664949173491 	0.09706525377519341 	101285.3958849461
-0.3040540540540545 	299.9668471971995 	0.09604356718061761 	101285.8122488839
-0.3015515515515518 	299.9672060972485 	0.09500364090521742 	101286.236452684
-0.2990490490490494 	299.9675718470736 	0.09394407302665919 	101286.6687592634
-0.2965465465465469 	299.967944186255 	0.09286526333176574 	101287.1088476591
-0.2940440440440444 	299.9683222917735 	0.09176972674251008 	101287.5557365372
-0.2915415415415418 	299.9687053312846 	0.09065902449721806 	101288.0084396975
-0.2890390390390395 	299.9690931414528 	0.089536512157387 	101288.4667668084
-0.2865365365365368 	299.9694861614828 	0.08839929130856877 	101288.9312475923