-1.25 	300 	0.116569116872146 	101277.4471741852
-1.247497497497497 	299.9564171241454 	0.1167556854699213 	101277.2372495142
-1.244994994994995 	299.9593349494677 	0.1174706823173171 	101277.0415203703
-1.242492492492492 	299.9592684708988 	0.118074844833237 	101276.8537887777
-1.23998998998999 	299.9591157556969 	0.118413591530028 	101276.674944078
-1.237487487487487 	299.9589718398908 	0.118868353636024 	101276.5050637218
-1.234984984984985 	299.9588355979446 	0.119256729654266 	101276.3440716521
-1.232482482482482 	299.9587068583065 	0.1196292103564441 	101276.191946837
-1.22997997997998 	299.9585856509762 	0.1199769240557712 	101276.0487223411
-1.227477477477477 	299.9584720425615 	0.1203041413645876 	101275.9144785534
-1.224974974974975 	299.9583661137852 	0.1206129510868762 	101275.7893140377
-1.222472472472472 	299.9582679537392 	0.1208989717230083 	101275.6733246664
-1.21996996996997 	299.9581775729984 	0.1211598825918063 	101275.5665274274
-1.217467467467467 	299.9580949364787 	0.1213965664433543 	101275.468889424
-1.214964964964965 	299.9580200316786 	0.1216153284821757 	101275.3803890262
-1.212462462462462 	299.9579528285724 	0.121813324292662 	101275.3009858228
-1.20995995995996 	299.9578933086007 	0.1219867267737473 	101275.2306621033
-1.207457457457457 	299.9578414989348 	0.1221344879782276 	101275.16945143
-1.204954954954955 	299.9577974439767 	0.1222577925275549 	101275.1174034853
-1.202452452452452 	299.957761190115 	0.1223632519102712 	101275.074575035
-1.19994994994995 	299.9577327798071 	0.1224483774112205 	101275.0410180241
-1.197447447447447 	299.9577122061355 	0.1225095325441357 	101275.016724521
-1.194944944944945 	299.9576994454547 	0.1225451656890807 	101275.0016645663
-1.192442442442442 	299.9576944703992 	0.1225572046809821 	101274.9958023239
-1.18993993993994 	299.9576972565245 	0.1225508415146215 	101274.9991106036
-1.187437437437437 	299.9577078286246 	0.1225220146918475 	101275.0116196633
-1.184934934934935 	299.9577262149014 	0.1224688952282839 	101275.0333618507
-1.182432432432432 	299.9577524182168 	0.1223922614886002 	101275.0643417735
-1.17992992992993 	299.9577863986418 	0.1222924685456233 	101275.1045147306
-1.177427427427427 	299.9578281246709 	0.1221718040308818 	101275.1538451409
-1.174924924924925 	299.9578776046692 	0.1220292251481032 	101275.2123371341
-1.172422422422422 	299.9579348592117 	0.1218638945792505 	101275.280012604
-1.16991991991992 	299.9579998992336 	0.1216753604567133 	101275.3568888058
-1.167417417417417 	299.95807268097 	0.1214639040799578 	101275.4429182305
-1.164914914914915 	299.9581531858041 	0.121230537265767 	101275.5380797994
-1.162412412412412 	299.9582414251743 	0.1209749713715729 	101275.6423819636
-1.15990990990991 	299.9583373877944 	0.1206972784376057 	101275.7558056679
-1.157407407407407 	299.9584410340934 	0.1203970094575787 	101275.8783033896
-1.154904904904904 	299.9585522812112 	0.1200745482691592 	101276.0097816865
-1.152402402402403 	299.958671102684 	0.1197301244087298 	101276.1502153996
-1.1498998998999 	299.9587975380158 	0.1193636125633639 	101276.2996535042
-1.147397397397397 	299.9589316054352 	0.1189754046831044 	101276.4581156314
-1.144894894894895 	299.959073282918 	0.1185649136297037 	101276.6255704836
-1.142392392392392 	299.9592224973836 	0.1181327632561689 	101276.801926531
-1.13988988988989 	299.9593792109089 	0.1176784171410755 	101276.9871382048
-1.137387387387387 	299.9595434523632 	0.1172020608176594 	101277.1812410136
-1.134884884884885 	299.9597151908586 	0.1167042912234904 	101277.384201739
-1.132382382382382 	299.9598943550662 	0.1161849431542181 	101277.5959386731
-1.12987987987988 	299.9600808712063 	0.1156457447142583 	101277.8163656656
-1.127377377377377 	299.9602746855379 	0.1150841069897462 	101278.0454204264
-1.124874874874875 	299.9604758303655 	0.1145003993700698 	101278.2831409968
-1.122372372372372 	299.9606843013826 	0.1138974449998111 	101278.5295226735
-1.11986986986987 	299.9608999915108 	0.1132729894239818 	101278.7844382866
-1.117367367367367 	299.9611228519263 	0.1126276738618291 	101279.0478285563
-1.114864864864865 	299.9613528749306 	0.1119593255784295 	101279.3196847827
-1.112362362362362 	299.9615900300882 	0.111270258197252 	101279.5999706104
-1.10985985985986 	299.9618343223388 	0.1105648527502508 	101279.8886928647
-1.107357357357357 	299.9620856830844 	0.1098381011266188 	101280.1857696328
-1.104854854854855 	299.9623439684206 	0.1090903742528921 	101280.4910295781
-1.102352352352353 	299.9626091656389 	0.1083204504808338 	101280.804458819
-1.09984984984985 	299.962881287567 	0.1075301767469185 	101281.1260720745
-1.097347347347347 	299.9631602147396 	0.1067241400651707 	101281.4557291073
-1.094844844844845 	299.9634459030503 	0.1058975666477559 	101281.7933776779
-1.092342342342342 	299.9637383335423 	0.1050502920192171 	101282.1389944202
-1.08983983983984 	299.9640373504376 	0.1041823424867756 	101282.4923959005
-1.087337337337337 	299.9643429504445 	0.103294795555403 	101282.8535784592
-1.084834834834835 	299.9646552889076 	0.1023912166151397 	101283.2227261614
-1.082332332332332 	299.9649742295536 	0.1014692648659223 	101283.5996770281
-1.07982982982983 	299.9652995027314 	0.1005277499404092 	101283.9841124704
-1.077327327327327 	299.965631148389 	0.09956636666103225 	101284.3760805351
-1.074824824824825 	299.9659691925625 	0.0985845172601667 	101284.7756113634
-1.072322322322323 	299.9663134200039 	0.09758638756405197 	101285.1824511638
-1.06981981981982 	299.9666638321038 	0.09657331751453058 	101285.5966015886
-1.067317317317317 	299.9670205058521 	0.09554138302403888 	101286.0181532035
-1.064814814814815 	299.9673831134679 	0.09449045159074816 	101286.44671882
-1.062312312312312 	299.9677514915924 	0.09342104998302302 	101286.8821057278
-1.05980980980981 	299.9681260342639 	0.09233532667751018 	101287.3247798995
-1.057307307307307 	299.9685067224925 	0.09123504425929353 	101287.7747184487
-1.054804804804805 	299.9688929574332 	0.09011732860509644 	101288.2312135978
-1.052302302302302 	299.9692847527147 	0.08898157877663922 	101288.6942818081
-1.0497997997998 	299.9696825431984 	0.08782807965248604 	101289.1644373393
-1.047297297297297 	299.9700860335778 	0.08665837655189525 	101289.6413307094
-1.044794794794795 	299.9704946228978 	0.08547516800143044 	101290.1242512029
-1.042292292292292 	299.9709083879366 	0.08427696577749086 	101290.6132911005
-1.03978978978979 	299.9713277813426 	0.0830618580382442 	101291.1089853389
-1.037287287287287 	299.9717527234849 	0.08183105383329511 	101291.6112384299
-1.034784784784785 	299.9721825812243 	0.0805858844247197 	101292.1193025363
-1.032282282282283 	299.9726172838097 	0.07932677216848973 	101292.6330949926
-1.02977977977978 	299.9730574274762 	0.07805234478731521 	101293.1533212347
-1.027277277277277 	299.9735029544612 	0.07676168288739166 	101293.6799115014
-1.024774774774775 	299.9739531040153 	0.07545712162975141 	101294.2119653765
-1.022272272272272 	299.9744075720306 	0.07413908790965316 	101294.7491256801
-1.01976976976977 	299.9748666411352 	0.07280803243182619 	101295.2917277359
-1.017267267267267 	299.9753306211968 	0.07146406952553772 	101295.8401363943
-1.014764764764765 	299.9757993398232 	0.07010643256962781 	101296.3941452698
-1.012262262262262 	299.9762724371888 	0.06873718080407053 	101296.9533301893
-1.00975975975976 	299.9767496335649 	0.06735430451451919 	101297.517365215
-1.007257257257257 	299.9772309315026 	0.06595956097229255 	101298.0862524705
-1.004754754754755 	299.9777165049406 	0.06455379226984703 	101298.6601938381
-1.002252252252252 	299.9782066475012 	0.06313349322402657 	101299.2395336869
-0.9997497497497498 	299.9787012349162 	0.06170127670242862 	101299.8241282352
-0.9972472472472473 	299.979199500031 	0.06025559368715497 	101300.4130776039
-0.9947447447447449 	299.9797005575687 	0.05880144483462665 	101301.0053341478
-0.9922422422422421 	299.9802045859298 	0.05734253346487518 	101301.6011015856
-0.9897397397397399 	299.9807127964977 	0.05587082651129211 	101302.2018065985
-0.9872372372372376 	299.9812262503012 	0.05438483720602742 	101302.8087076413
-0.9847347347347346 	299.9817442525757 	0.05288410834857647 	101303.4209949057
-0.9822322322322323 	299.9822646747343 	0.0513762854744752 	101304.0361553345
-0.9797297297297296 	299.9827859562545 	0.04986815584453253 	101304.6523358423
-0.9772272272272275 	299.9833088892205 	0.04835258711713339 	101305.2704600933
-0.9747247247247248 	299.9838359708168 	0.04682417326391394 	101305.8934781053
-0.9722222222222224 	299.9843689180952 	0.04527901331100342 	101306.5234316863
-0.9697197197197196 	299.9849069201334 	0.0437203260357327 	101307.159375097
-0.9672172172172175 	299.985447132335 	0.04215698042493819 	101307.7979484748
-0.9647147147147147 	299.9859870254353 	0.04059377803564254 	101308.4361505422
-0.9622122122122124 	299.9865264699148 	0.03903099797793113 	101309.0738128123
-0.9597097097097099 	299.9870675587419 	0.03746253797801902 	101309.7134033797
-0.9572072072072073 	299.987612950746 	0.03588143601845373 	101310.3580733564
-0.9547047047047047 	299.9881640368253 	0.03428515947424077 	101311.0094836763
-0.9522022022022023 	299.9887199296733 	0.03267585842588895 	101311.6665988023
-0.9496996996996998 	299.9892781902338 	0.03105958150678673 	101312.3265344748
-0.9471971971971973 	299.9898364245483 	0.0294425807186826 	101312.9864467603
-0.9446946946946947 	299.9903933946572 	0.02782775779673749 	101313.6448544415
-0.9421921921921923 	299.9909494052228 	0.02621580386856679 	101314.3021067961
-0.93968968968969 	299.9915061200471 	0.02460351155219098 	101314.9601748821
-0.9371871871871872 	299.9920654771251 	0.02298364832772686 	101315.6213651901
-0.9346846846846848 	299.992628594588 	0.02135252832209546 	101316.2870152664
-0.9321821821821823 	299.9931953436216 	0.01970923700141331 	101316.9569828256
-0.9296796796796799 	299.9937648387221 	0.01805838483608997 	101317.630222351
-0.9271771771771771 	299.9943359994793 	0.01640555343653653 	101318.3054490172
-0.9246746746746748 	299.9949079303788 	0.01475021789407729 	101318.9815918049
-0.9221721721721724 	299.9954798139881 	0.01309374045755575 	101319.6576704158
-0.9196696696696698 	299.9960511934781 	0.01143732308418352 	101320.3331339151
-0.9171671671671672 	299.9966220338451 	0.009782313177522308 	101321.007937996
-0.9146646646646649 	299.9971926961579 	0.008130130056016536 	101321.6825135436
-0.9121621621621623 	299.9977635780402 	0.006477509130208489 	101322.3573382397
-0.9096596596596597 	299.9983350200295 	0.004822426422510073 	101323.0328219173
-0.9071571571571573 	299.9989069988877 	0.00316532273686242 	101323.7089433664
-0.9046546546546547 	299.9994795386662 	0.001505698790864438 	101324.3857347664
-0.9021521521521524 	300.000052605171 	0.0008077279622930821 	101325.0631579445
-0.8996496496496498 	300.000625933536 	0.0018136984291728 	101325.7409017651
-0.8971471471471473 	300.00119922675 	0.003473998686692887 	101326.4186148456
-0.894644644644645 	300.0017722754695 	0.005133977067142099 	101327.0960497419
-0.892142142142142 	300.0023449950368 	0.006795237244291033 	101327.7731069773
-0.8896396396396397 	300.0029173494304 	0.008454160538316912 	101328.449739611
-0.8871371371371374 	300.0034892267367 	0.01010828906058279 	101329.1258145324
-0.8846346346346349 	300.0040604491355 	0.01176219419794214 	101329.8011197467
-0.8821321321321324 	300.0046308735853 	0.01341449556623337 	101330.4754851731
-0.8796296296296297 	300.0052004255634 	0.01506679779031641 	101331.1488254153
-0.8771271271271271 	300.0057690399894 	0.01671511364469471 	101331.821063723
-0.8746246246246248 	300.0063366090274 	0.01835652563525252 	101332.4920709613
-0.8721221221221224 	300.0069029991728 	0.01999638945538983 	101333.1616875649
-0.8696196196196196 	300.007468097303 	0.02163334855574937 	101333.8297769082
-0.8671171171171175 	300.0080318211434 	0.02326827771884993 	101334.4962424225
-0.8646146146146148 	300.008594090591 	0.0248979989476226 	101335.1609907605
-0.8621121121121121 	300.0091547885157 	0.02652014645940926 	101335.8238856982
-0.8596096096096097 	300.0097137697717 	0.0281387083560371 	101336.484756428
-0.857107107107107 	300.0102709098849 	0.02975265063392946 	101337.1434561267
-0.8546046046046049 	300.0108261364713 	0.03136181316342184 	101337.7998976806
-0.8521021021021022 	300.0113793942617 	0.03296483623668349 	101338.4540123285
-0.8495995995995997 	300.0119305875278 	0.03456070996655918 	101339.1056859499
-0.8470970970970974 	300.0124795957887 	0.03615078371386385 	101339.7547758775
-0.8445945945945946 	300.0130263182223 	0.03773452523675061 	101340.4011647181
-0.8420920920920922 	300.0135706598409 	0.03931193536086856 	101341.0447431233
-0.8395895895895897 	300.0141124990094 	0.04088195853000542 	101341.6853685519
-0.8370870870870872 	300.0146516993615 	0.04244367601525159 	101342.3228794275
-0.8345845845845846 	300.0151881411616 	0.04399736106185742 	101342.9571333737
-0.8320820820820823 	300.0157217487766 	0.04554285117063902 	101343.5880399398
-0.8295795795795798 	300.0162524830051 	0.04708038098467567 	101344.2155504949
-0.8270770770770772 	300.0167802775463 	0.04860950540804853 	101344.839584891
-0.8245745745745746 	300.0173050227274 	0.05012951553577405 	101345.4600135652
-0.8220720720720721 	300.0178266207543 	0.05164006339669459 	101346.0767216881
-0.8195695695695699 	300.0183449785379 	0.05314129487515729 	101346.689601239
-0.817067067067067 	300.0188599648625 	0.05463331506056775 	101347.2984976265
-0.8145645645645651 	300.0193714329554 	0.0561158899632177 	101347.9032375046
-0.8120620620620621 	300.0198792616059 	0.057587556176826 	101348.5036781908
-0.8095595595595597 	300.0203833724025 	0.05904701726669267 	101349.0997274166
-0.8070570570570572 	300.0208837250374 	0.06049546919727422 	101349.6913374858
-0.8045545545545546 	300.0213802670571 	0.06193339735423281 	101350.2784455321
-0.8020520520520523 	300.0218729118127 	0.0633619351166534 	101350.8609482274
-0.7995495495495494 	300.022361580746 	0.06477853212540788 	101351.4387508489
-0.7970470470470474 	300.0228461962618 	0.06618047543160811 	101352.011759317
-0.7945445445445446 	300.0233266396169 	0.0675710458268302 	101352.5798353215
-0.7920420420420423 	300.0238027700731 	0.06895069692005566 	101353.1428139073
-0.7895395395395397 	300.024274458656 	0.07031876590979041 	101353.700542832
-0.7870370370370371 	300.0247416155825 	0.07167377979843738 	101354.2529158851
-0.7845345345345348 	300.0252041904857 	0.07301283665299513 	101354.7998728698
-0.7820320320320323 	300.0256621271338 	0.07433759681056373 	101355.3413476836
-0.7795295295295296 	300.0261153573269 	0.07564977141533438 	101355.8772594922
-0.7770270270270272 	300.0265638255596 	0.07694823949675417 	101356.4075424491
-0.7745245245245247 	300.0270074751901 	0.0782348254691439 	101356.9321296748
-0.7720220220220222 	300.0274462200039 	0.07950604244500548 	101357.4509184459
-0.7695195195195199 	300.0278799305096 	0.0807605498839129 	101357.9637562651
-0.767017017017017 	300.0283084624983 	0.08200225563255872 	101358.470472698
-0.7645145145145147 	300.0287317170021 	0.08322914890321527 	101358.9709501869
-0.7620120120120122 	300.0291496487872 	0.08444301866568753 	101359.4651362893
-0.7595095095095097 	300.0295622202348 	0.08563911995869639 	101359.9529846337
-0.7570070070070072 	300.0299693706448 	0.08681531892506716 	101360.434424389
-0.7545045045045048 	300.0303710385725 	0.08797736003210629 	101360.909383116
-0.7520020020020022 	300.0307671720741 	0.08912380686774601 	101361.3777985261
-0.7494994994994997 	300.0311576994218 	0.09025627643527222 	101361.8395862173
-0.7469969969969972 	300.0315425071923 	0.09137150458667327 	101362.2946113422
-0.7444944944944945 	300.0319214640259 	0.09246786600141182 	101362.7427197423
-0.7419919919919924 	300.0322944896204 	0.09354915359553108 	101363.183816163
-0.7394894894894897 	300.0326615701574 	0.09461357196571843 	101363.6178836105
-0.7369869869869872 	300.0330226890406 	0.0956609188586407 	101364.0449022164
-0.7344844844844846 	300.0333777765307 	0.09668956999340515 	101364.4647890315
-0.7319819819819822 	300.0337267338707 	0.09769903828083527 	101364.8774282244
-0.7294794794794797 	300.0340694847949 	0.09869094111634226 	101365.2827298184
-0.7269769769769773 	300.0344059821613 	0.09966492016057778 	101365.6806376774
-0.7244744744744747 	300.0347361584352 	0.1006215047325714 	101366.0710722148
-0.721971971971972 	300.0350599107423 	0.1015598142946395 	101366.4539105965
-0.7194694694694695 	300.0353771784343 	0.1024793022731392 	101366.8290810553
-0.7169669669669674 	300.0356879910736 	0.1033800774041223 	101367.1966184874
-0.7144644644644647 	300.0359923622935 	0.1042615449029633 	101367.5565393827
-0.711961961961962 	300.0362901776273 	0.105124031467049 	101367.9087098023
-0.7094594594594597 	300.036581248442 	0.1059671021804127 	101368.252906737
-0.7069569569569573 	300.0368654722388 	0.1067905237038453 	101368.5890075783
-0.7044544544544545 	300.0371429005187 	0.1075940951267369 	101368.9170711758
-0.7019519519519523 	300.0374135988114 	0.1083776881519543 	101369.2371752804
-0.6994494494494495 	300.0376774843598 	0.1091418269798071 	101369.5492234985
-0.6969469469469471 	300.0379343897794 	0.1098863936745248 	101369.8530190862
-0.6944444444444446 	300.0381842535556 	0.1106108896209041 	101370.1484901508
-0.6919419419419421 	300.0384271415291 	0.1113143946793698 	101370.4357124918
-0.6894394394394396 	300.0386630808486 	0.1119971106754175 	101370.7147178038
-0.6869369369369374 	300.038891942515 	0.1126596649811969 	101370.9853529337
-0.6844344344344344 	300.0391135496554 	0.1133023908111397 	101371.2474080762
-0.6819319319319321 	300.0393278797218 	0.1139242335165666 	101371.500856797
-0.6794294294294296 	300.0395350433371 	0.1145235822809488 	101371.7458308359
-0.6769269269269272 	300.0397350496295 	0.1151017719191593 	101371.9823431745
-0.6744244244244245 	300.0399277527693 	0.1156596161686868 	101372.21022186
-0.6719219219219222 	300.0401130274076 	0.1161983045187658 	101372.4293180278
-0.6694194194194195 	300.040290888005 	0.1167152701685375 	101372.639644584
-0.6669169169169172 	300.0404614008523 	0.1172074474669458 	101372.8412785359
-0.6644144144144146 	300.0406245385278 	0.1176783528018035 	101373.0341905509
-0.661911911911912 	300.0407801872477 	0.1181290089867685 	101373.2182452623
-0.6594094094094097 	300.0409282866549 	0.1185586952611644 	101373.3933727522
-0.656906906906907 	300.0410688516729 	0.1189678274495295 	101373.5595930563
-0.6544044044044046 	300.0412018919209 	0.1193527739650145 	101373.7169149794
-0.6519019019019021 	300.0413273920387 	0.119714194760265 	101373.8653220009
-0.6493993993993996 	300.0414452955378 	0.1200552706805921 	101374.0047471287
-0.6468968968968971 	300.0415555123276 	0.1203744951206993 	101374.1350810635
-0.6443943943943946 	300.041658063306 	0.120674545428443 	101374.2563493713
-0.6418918918918921 	300.0417530324498 	0.1209501515798927 	101374.3686486627
-0.6393893893893897 	300.0418403645046 	0.12120005854341 	101374.4719135732
-0.6368868868868871 	300.041919967888 	0.1214301892681079 	101374.5660370506
-0.6343843843843846 	300.0419918500465 	0.1216383740207501 	101374.6510280482
-0.6318818818818821 	300.04205601159 	0.1218267864868393 	101374.7268888496
-0.6293793793793795 	300.0421124442273 	0.1219907274018051 	101374.7936094114
-0.6268768768768773 	300.0421611270711 	0.1221289738156453 	101374.8511690705
-0.6243743743743745 	300.0422019317133 	0.1222469190707679 	101374.8994839358
-0.6218718718718721 	300.0422349928789 	0.1223428486525068 	101374.9385734534
-0.6193693693693696 	300.0422603963911 	0.1224171759292208 	101374.9685561606
-0.6168668668668671 	300.0422780613052 	0.1224682361363916 	101374.989424473
-0.6143643643643645 	300.0422879508021 	0.1224959633050923 	101375.0011129484
-0.6118618618618621 	300.0422900641963 	0.1225020390443469 	101375.0036038193
-0.6093593593593596 	300.0422843894611 	0.1224856913544512 	101374.9968824157
-0.6068568568568571 	300.0422709319207 	0.1224472387013293 	101374.9809555384
-0.6043543543543546 	300.0422496556415 	0.122385539833383 	101374.95577896
-0.6018518518518521 	300.0422205025556 	0.1223006715143718 	101374.9212851803
-0.5993493493493496 	300.0421835374865 	0.1221934645884876 	101374.8775536231
-0.5968468468468471 	300.0421388684331 	0.1220637880231073 	101374.8247139847
-0.5943443443443446 	300.0420865336191 	0.1219122892571916 	101374.7628110381
-0.591841841841842 	300.0420265070014 	0.1217383413366702 	101374.6918141298
-0.5893393393393397 	300.0419587438568 	0.1215419636093056 	101374.6116705045
-0.5868368368368371 	300.0418832583482 	0.1213232944784099 	101374.5223954329
-0.5843343343343346 	300.0418000887811 	0.1210822389645689 	101374.4240333403
-0.5818318318318321 	300.0417092043506 	0.1208191843697258 	101374.3165466443
-0.5793293293293297 	300.041610523256 	0.1205335551804583 	101374.1998376902
-0.5768268268268271 	300.0415040567138 	0.1202252837349998 	101374.0739203876
-0.5743243243243245 	300.0413899425618 	0.1198942900984507 	101373.9389583062
-0.5718218218218221 	300.0412683111808 	0.1195412475887324 	101373.7951056041
-0.5693193193193196 	300.0411392118173 	0.1191670205606393 	101373.6424207133
-0.5668168168168171 	300.0410025758715 	0.1187713703325987 	101373.4808233574
-0.5643143143143147 	300.0408583269993 	0.1183540047633046 	101373.3102232417
-0.5618118118118121 	300.0407065154063 	0.1179141141563413 	101373.1306793449
-0.5593093093093094 	300.0405472345921 	0.1174525093825958 	101372.9423048055
-0.5568068068068072 	300.0403805065096 	0.1169699768175373 	101372.7451243318
-0.5543043043043046 	300.0402062748906 	0.1164663823611479 	101372.5390706586
-0.551801801801802 	300.0400245030231 	0.1159406606862567 	101372.3241004955
-0.5492992992992995 	300.0398352593055 	0.1153913252547004 	101372.1002939566
-0.5467967967967969 	300.0396387732566 	0.1148206729072171 	101371.8679234562
-0.5442942942942947 	300.0394351985771 	0.1142303221878486 	101371.6271707087
-0.5417917917917919 	300.0392244880803 	0.1136213681366922 	101371.3779801719
-0.5392892892892895 	300.039006457438 	0.1129915120114338 	101371.1201333475
-0.536786786786787 	300.038781001451 	0.1123369789570554 	101370.8535048788
-0.5342842842842846 	300.0385482112678 	0.1116617497924822 	101370.5782045415
-0.531781781781782 	300.0383084154761 	0.1109680623530637 	101370.2946202787
-0.5292792792792794 	300.0380618327936 	0.1102545394377107 	101370.0030104647
-0.526776776776777 	300.0378083557477 	0.1095231951572277 	101369.7032487305
-0.5242742742742745 	300.0375476986844 	0.1087674999104518 	101369.3949955994
-0.521771771771772 	300.0372797850428 	0.1079875962616605 	101369.0781623902
-0.5192692692692695 	300.0370049326914 	0.1071906770527429 	101368.753125593
-0.516766766766767 	300.0367236394938 	0.1063754100718847 	101368.4204724548
-0.5142642642642645 	300.0364360082037 	0.1055449587245525 	101368.0803259454
-0.511761761761762 	300.0361416158804 	0.1046928066390466 	101367.7321835715
-0.5092592592592596 	300.0358400436377 	0.1038172218741126 	101367.3755517931
-0.506756756756757 	300.0355313687255 	0.1029239315861808 	101367.0105222554
-0.5042542542542544 	300.0352161719574 	0.1020114241575382 	101366.6377810336
-0.5017517517517521 	300.0348950411255 	0.1010817713257621 	101366.2580242145
-0.4992492492492494 	300.0345680091084 	0.100133269922093 	101365.8712897419
-0.496746746746747 	300.0342345813257 	0.0991655784495335 	101365.4769936644
-0.4942442442442445 	300.0338943456989 	0.09817970396525881 	101365.0746482992
-0.4917417417417421 	300.0335473161956 	0.09717441612757226 	101364.6642696057
-0.4892392392392395 	300.0331938833045 	0.09615152932612113 	101364.2463205499
-0.486736736736737 	300.0328346218191 	0.09511151544981993 	101363.8214805906
-0.4842342342342345 	300.0324698701876 	0.09405550153479736 	101363.3901507265
-0.481731731731732 	300.0320996102199 	0.09298353464285471 	101362.9523078274
-0.4792292292292296 	300.0317234972694 	0.09189325998462325 	101362.5075442813
-0.4767267267267268 	300.0313408798395 	0.09078406987394569 	101362.0550906132
-0.4742242242242246 	300.0309514584265 	0.08965582407266053 	101361.5945927342
-0.471721721721722 	300.0305559230273 	0.08851068254449268 	101361.1268686401
-0.4692192192192195 	300.0301554158958 	0.08735103935252797 	101360.6532676572
-0.4667167167167169 	300.0297505382987 	0.08617775191865404 	101360.1744996376
-0.4642142142142145 	300.0293409555672 	0.08499055882417887 	101359.690168017
-0.461711711711712 	300.0289256056526 	0.08378719914301697 	101359.1990180733
-0.4592092092092094 	300.0285037580118 	0.08256618442306431 	101358.7001876329
-0.456706706706707 	300.0280757795436 	0.08132676053368681 	101358.1941105538
-0.4542042042042045 	300.0276424163748 	0.08007088028092241 	101357.6816688751
-0.451701701701702 	300.027204332391 	0.07880200155924796 	101357.163645664
-0.4491991991991995 	300.0267621651014 	0.07752112436200219 	101356.6407952162
-0.4466966966966969 	300.0263158512516 	0.07622827061676041 	101356.1130445005
-0.4441941941941945 	300.0258647772728 	0.07492150840417905 	101355.5796682948
-0.441691691691692 	300.0254085434331 	0.07359908532055803 	101355.0401935633
-0.4391891891891895 	300.0249466696358 	0.07226085781699496 	101354.4940507643
-0.436686686686687 	300.0244791060113 	0.07090738350418338 	101353.9411803783
-0.4341841841841846 	300.0240067758118 	0.0695403605850302 	101353.3826760889
-0.431681681681682 	300.0235307118297 	0.06816107826058086 	101352.8197613509
-0.4291791791791794 	300.0230514328974 	0.06677188700183138 	101352.2530505497
-0.426676676676677 	300.0225688572849 	0.0653733400688512 	101351.6824442671
-0.4241741741741744 	300.0220821521696 	0.06396421269026918 	101351.106954895
-0.421671671671672 	300.0215908739864 	0.06254222711245601 	101350.5260571762
-0.4191691691691694 	300.0210947433594 	0.06110398828567459 	101349.9394231561
-0.4166666666666669 	300.0205938268059 	0.05965163524823734 	101349.3471359844
-0.4141641641641645 	300.0200884455753 	0.05818802417551532 	101348.7495770449
-0.411661661661662 	300.0195794219381 	0.05671536944489955 	101348.147715181
-0.4091591591591594 	300.0190673621406 	0.05523503850086258 	101347.5422643596
-0.406656656656657 	300.0185527888049 	0.0537427351706371 	101346.9338390297
-0.4041541541541545 	300.0180356987121 	0.05224178053771966 	101346.3224383793
-0.401651651651652 	300.017515659796 	0.05073504529766255 	101345.7075565094
-0.3991491491491494 	300.0169920228483 	0.04921852175483792 	101345.0884275984
-0.396646646646647 	300.0164647302727 	0.04769401375689297 	101344.4649837919
-0.3941441441441444 	300.0159336447587 	0.04615529942268018 	101343.8370555014
-0.3916416416416419 	300.0153990139488 	0.04460347003103245 	101343.2049333417
-0.3891391391391395 	300.0148610317171 	0.04304513513168724 	101342.568846205
-0.3866366366366368 	300.0143201119428 	0.04147846846922922 	101341.9292888888
-0.3841341341341344 	300.0137767182363 	0.03990619587659112 	101341.2868159329
-0.381631631631632 	300.0132312976726 	0.03832583928301755 	101340.6419566746
-0.3791291291291294 	300.0126839288081 	0.03673862523439127 	101339.9947998311
-0.3766266266266269 	300.0121345742544 	0.03514747068946995 	101339.3452940861
-0.3741241241241244 	300.0115832853831 	0.03355056260968686 	101338.6934959874
-0.371621621621622 	300.0110301797724 	0.03194887704346082 	101338.0395472843
-0.3691191191191194 	300.0104751172154 	0.0303407610706871 	101337.3832881538
-0.366616616616617 	300.0099182442195 	0.0287267771563322 	101336.7248998187
-0.3641141141141143 	300.0093595207378 	0.02710817325758436 	101336.0643363647
-0.3616116116116119 	300.0087988372207 	0.02548384860960322 	101335.4014627145
-0.3591091091091095 	300.0082361244606 	0.02385404465104113 	101334.736189213
-0.356606606606607 	300.0076714847037 	0.02221821959147629 	101334.0686300628
-0.3541041041041044 	300.0071049069766 	0.02057684668304962 	101333.3987730477
-0.3516016016016019 	300.0065363456681 	0.01892972026670775 	101332.7265714652
-0.3490990990990994 	300.0059657226762 	0.01727669532509716 	101332.05194334
-0.346596596596597 	300.0053933929658 	0.01561925411929098 	101331.3753138769
-0.3440940940940944 	300.0048198511196 	0.01395772393423391 	101330.6972647136
-0.3415915915915919 	300.0042453433836 	0.01229347107935891 	101330.0180784798
-0.3390890890890895 	300.0036701921883 	0.01062721465386001 	101329.3381255182
-0.3365865865865869 	300.0030948144466 	0.00895982699071494 	101328.6578941354
-0.3340840840840844 	300.002519465164 	0.007293204420088984 	101327.9776896002
-0.3315815815815819 	300.0019443946029 	0.005627734129980748 	101327.2978164099
-0.3290790790790794 	300.0013700094628 	0.003964008113710627 	101326.6187668627
-0.3265765765765769 	300.0007962476065 	0.002301921049472209 	101325.9404730285
-0.3240740740740744 	300.0002232395031 	0.0006415228401327126 	101325.26308638
-0.3215715715715718 	299.999650526546 	0.001127320043078455 	101324.5860553943
-0.3190690690690695 	299.9990775829902 	0.002677528194112963 	101323.9087467515
-0.3165665665665668 	299.9985044068124 	0.004337854910279423 	101323.231150189
-0.3140640640640644 	299.9979311662395 	0.005998936783737399 	101322.5534644728
-0.311561561561562 	299.9973580176562 	0.007660418342932528 	101321.8758831936
-0.3090590590590593 	299.9967850680986 	0.009320355860144531 	101321.1985440052
-0.3065565565565568 	299.9962124325347 	0.01097914133291139 	101320.521593355
-0.3040540540540545 	299.995640261724 	0.01263539741758891 	101319.8452141666
-0.3015515515515518 	299.9950687114983 	0.01429040714572342 	101319.1695861124
-0.2990490490490494 	299.9944979357236 	0.01594407473199039 	101318.4948822978
-0.2965465465465469 	299.9939280966915 	0.01759425546418632 	101317.8212819047
-0.2940440440440444 	299.9933593670748 	0.01924176677210001 	101317.1489802911
-0.2915415415415418 	299.9927919222 	0.02088443632733913 	101316.4781822952
-0.2890390390390395 	299.992225875485 	0.02252508883195067 	101315.8090248408