-1.25 	300 	1 	101354.3892626143
-1.247497497497497 	299.1412051963273 	44.40013854746123 	101325.8539368929
-1.244994994994995 	299.0410306134795 	43.47973772716095 	101323.7024766012
-1.242492492492492 	299.0938019821656 	42.60122868677801 	101327.7054825545
-1.23998998998999 	299.140216674176 	41.68151361722028 	101329.3575039539
-1.237487487487487 	299.1761467332996 	40.80716625838464 	101328.4496044103
-1.234984984984985 	299.2150396114648 	39.8833999296169 	101332.0815203296
-1.232482482482482 	299.2474922652792 	39.01499511494633 	101327.3224862556
-1.22997997997998 	299.283606990637 	38.0906633981445 	101332.0810509861
-1.227477477477477 	299.3129846262715 	37.22880571761191 	101323.7207742074
-1.224974974974975 	299.3461200298173 	36.30819359711986 	101329.0564987659
-1.222472472472472 	299.3711342509686 	35.45937894891781 	101316.1209809056
-1.21996996996997 	299.4023879446515 	34.54819507506835 	101323.2158861196
-1.217467467467467 	299.4230088629206 	33.71310760027181 	101305.8018601285
-1.214964964964965 	299.4518493824402 	32.80897746865542 	101313.6901475329
-1.212462462462462 	299.4705414605489 	31.98747611965694 	101294.7388454479
-1.20995995995996 	299.4974927540571 	31.09111868984956 	101303.986380203
-1.207457457457457 	299.5134712990614 	30.28873469766891 	101282.7462104294
-1.204954954954955 	299.5391024320588 	29.40757482282938 	101293.9823736403
-1.202452452452452 	299.5508860110547 	28.62643192011092 	101268.9879353806
-1.19994994994995 	299.5747374484738 	27.76073821128372 	101281.362582001
-1.197447447447447 	299.5846678668875 	27.00064897550754 	101255.4653775044
-1.194944944944945 	299.6069872093721 	26.14623663030876 	101268.7873273917
-1.192442442442442 	299.6169253810199 	25.40915487459993 	101244.3198893616
-1.18993993993994 	299.6375699440248 	24.56687883514746 	101258.2310132851
-1.187437437437437 	299.6485885501036 	23.85557240816292 	101236.5663461832
-1.184934934934935 	299.6672334435348 	23.02699461090619 	101250.4906124955
-1.182432432432432 	299.6798514835388 	22.34670783839165 	101232.4308161434
-1.17992992992993 	299.6963110728741 	21.53574290490204 	101246.0161347188
-1.177427427427427 	299.7100605121764 	20.89154445581993 	101231.2250080649
-1.174924924924925 	299.7243992570443 	20.10170955829588 	101244.205405956
-1.172422422422422 	299.7392295880508 	19.49747018566686 	101232.5615557054
-1.16991991991992 	299.7518177003396 	18.73173713695391 	101245.2479746634
-1.167417417417417 	299.7670936751977 	18.17080860340345 	101236.1608767533
-1.164914914914915 	299.7784107613494 	17.4314788339201 	101248.7991337167
-1.162412412412412 	299.7935973922291 	16.91582905215684 	101241.7930467583
-1.15990990990991 	299.8036799250862 	16.20284713990044 	101254.2757853931
-1.157407407407407 	299.8186857696513 	15.73372502706144 	101248.930280195
-1.154904904904904 	299.8277270813459 	15.04674200516568 	101261.3157337908
-1.152402402402403 	299.842079071936 	14.62348129694012 	101256.9675777621
-1.1498998998999 	299.8501174092652 	13.96134253258966 	101269.2250993443
-1.147397397397397 	299.864045194062 	13.58215923179033 	101265.7706551955
-1.144894894894895 	299.8712088911273 	12.94241305626774 	101277.9145183026
-1.142392392392392 	299.8846279821021 	12.60584014469013 	101275.2817100723
-1.13988988988989 	299.8909383355987 	11.98663645893646 	101287.0303674344
-1.137387387387387 	299.9032534459451 	11.69019826031526 	101284.4614262712
-1.134884884884885 	299.9082715235366 	11.09167810891543 	101295.1421521711
-1.132382382382382 	299.9186276803396 	10.83097021317534 	101291.5355135101
-1.12987987987988 	299.9220536817083 	10.2536307407814 	101300.6346025637
-1.127377377377377 	299.9303643483657 	10.02465055084209 	101295.8507706754
-1.124874874874875 	299.9326618667369 	9.466059189864097 	101303.7053569814
-1.122372372372372 	299.939881099169 	9.268024594417856 	101298.8923716907
-1.11986986986987 	299.9418331089449 	8.724082381184015 	101306.2411166936
-1.117367367367367 	299.9485107650569 	8.557149588242446 	101302.0401818675
-1.114864864864865 	299.9499752703338 	8.027542018436431 	101308.6167874377
-1.112362362362362 	299.9550009602987 	7.887834337688665 	101303.640865878
-1.10985985985986 	299.95467294217 	7.377670521624474 	101307.8979012498
-1.107357357357357 	299.9562842295335 	7.257217322987032 	101299.9265357927
-1.104854854854855 	299.9531076253935 	6.772131094914432 	101300.6411476163
-1.102352352352353 	299.9507804286046 	6.663837430623041 	101288.9246143882
-1.09984984984985 	299.9450867743638 	6.205588188312657 	101286.4914276217
-1.097347347347347 	299.9398743489727 	6.106322830604812 	101272.1833791892
-1.094844844844845 	299.9329145034116 	5.673249023219302 	101268.0849323884
-1.092342342342342 	299.9264212755635 	5.582958454875984 	101252.9638443682
-1.08983983983984 	299.9192746247622 	5.172482192840632 	101248.5463431835
-1.087337337337337 	299.9126606680677 	5.092164492223542 	101233.8637334175
-1.084834834834835 	299.9059397053549 	4.702278521484896 	101229.8155630335
-1.082332332332332 	299.899705442345 	4.632903359305193 	101216.192608272
-1.07982982982983 	299.8937359898604 	4.26198267134295 	101212.838207448
-1.077327327327327 	299.8882387727996 	4.204567776041192 	101200.692864567
-1.074824824824825 	299.8832677272155 	3.850757223247676 	101198.2617758762
-1.072322322322323 	299.878793468154 	3.806639291846006 	101187.9224012601
-1.06981981981982 	299.8749711295048 	3.467707968064029 	101186.5502433388
-1.067317317317317 	299.8717021250706 	3.438547580987461 	101178.2457629232
-1.064814814814815 	299.8691646407085 	3.111893657577666 	101178.040586856
-1.062312312312312 	299.867244047932 	3.099541891483761 	101171.9468658945
-1.05980980980981 	299.8660558879798 	2.782419018646694 	101172.9742311986
-1.057307307307307 	299.8655010952706 	2.788557820283427 	101169.0586560262
-1.054804804804805 	299.8655195352469 	2.478557931726543 	101171.1751033651
-1.052302302302302 	299.8661045983422 	2.504216519253742 	101169.0991365725
-1.0497997997998 	299.8670351582955 	2.199476547664004 	101172.0065787504
-1.047297297297297 	299.8684818286824 	2.244994167143709 	101171.360395842
-1.044794794794795 	299.8701173288323 	1.943825532373344 	101174.8379948753
-1.042292292292292 	299.8722320010706 	2.009424646415736 	101175.3657645414
-1.03978978978979 	299.874464870971 	1.709844006042324 	101179.3341189951
-1.037287287287287 	299.8772041933198 	1.795919047358336 	101180.8800541547
-1.034784784784785 	299.8798940319924 	1.495971459035359 	101185.2459038378
-1.032282282282283 	299.8830961679615 	1.602422858927059 	101187.5321021785
-1.02977977977978 	299.8859170448372 	1.301130247877912 	101191.9837019753
-1.027277277277277 	299.8891542227901 	1.426597910896621 	101194.4658195041
-1.024774774774775 	299.8916750897715 	1.124344402366177 	101198.4508235675
-1.022272272272272 	299.8943880229609 	1.266334370548583 	101200.4716241203
-1.01976976976977 	299.8961863574099 	0.9643991326669293 	101203.4783980206
-1.017267267267267 	299.8979909089135 	1.120000613085799 	101204.6103444324
-1.014764764764765 	299.8989076115445 	0.8199243154422786 	101206.4321116102
-1.012262262262262 	299.8996881681418 	0.986417910967423 	101206.5654625242
-1.00975975975976 	299.8997456563039 	0.6896975538560645 	101207.2001798252
-1.007257257257257 	299.8995097615983 	0.8646557425012092 	101206.3204680475
-1.004754754754755 	299.8986868552876 	0.5729542216493548 	101205.7556614053
-1.002252252252252 	299.8974003880096 	0.7538361153021258 	101203.8052379361
-0.9997497497497498 	299.8956265744346 	0.5037138219031911 	101201.9911490976
-0.9972472472472473 	299.8932547588523 	0.6761215120174608 	101198.9092785366
-0.9947447447447449 	299.8904919758545 	0.5016283203211981 	101195.8368688831
-0.9922422422422421 	299.8871338671239 	0.6438893552732774 	101191.6582153167
-0.9897397397397399 	299.8834715582665 	0.4928210123921172 	101187.4810013775
-0.9872372372372376 	299.8793629762488 	0.6083407365170733 	101182.463206603
-0.9847347347347346 	299.8751376521144 	0.4790033302024368 	101177.5737847974
-0.9822322322322323 	299.8706419123236 	0.5712518050613995 	101172.156184748
-0.9797297297297296 	299.8662096774494 	0.4623524858212458 	101167.0125135191
-0.9772272272272275 	299.8616853434582 	0.5344484886602098 	101161.5825707462
-0.9747247247247248 	299.8573463700586 	0.4449437087116667 	101156.5264705182
-0.9722222222222224 	299.8530656408557 	0.4995357366845439 	101151.3834186643
-0.9697197197197196 	299.8490827815568 	0.4284812108891469 	101146.7335994172
-0.9672172172172175 	299.8453037047477 	0.4680435051758812 	101142.2237348614
-0.9647147147147147 	299.8419731499486 	0.4144905409059209 	101138.3404188884
-0.9622122122122124 	299.83901245449 	0.4417235079324518 	101134.803562009
-0.9597097097097099 	299.8365905731383 	0.4043378112527458 	101131.9566910521
-0.9572072072072073 	299.8345870513945 	0.4220502522930694 	101129.5773220188
-0.9547047047047047 	299.8331151421686 	0.398505772144274 	101127.84863034
-0.9522022022022023 	299.8320629417381 	0.4093406504817557 	101126.6047407617
-0.9496996996996998 	299.83146107529 	0.3963908866348148 	101125.8909051584
-0.9471971971971973 	299.8312120136381 	0.4029193726003914 	101125.6030434888
-0.9446946946946947 	299.8313244042382 	0.397308175502198 	101125.7331061083
-0.9421921921921923 	299.8317731105755 	0.4018496607987861 	101126.2598438445
-0.93968968968969 	299.8325751651398 	0.4014211114867697 	101127.2070816655
-0.9371871871871872 	299.8337627259173 	0.4055505752826211 	101128.6098316608
-0.9346846846846848 	299.8353742835736 	0.4094989644209079 	101130.5141291919
-0.9321821821821823 	299.8374437358879 	0.4145860767409263 	101132.9566140545
-0.9296796796796799 	299.8399909480532 	0.4221037823793794 	101135.9587839541
-0.9271771771771771 	299.8430095143213 	0.4298357958386571 	101139.5237070193
-0.9246746746746748 	299.8464740601874 	0.4395975316944241 	101143.6209243071
-0.9221721721721724 	299.8503400386182 	0.4502884719448054 	101148.1856309962
-0.9196696696696698 	299.8545162291534 	0.4617339809459354 	101153.1127039613
-0.9171671671671672 	299.858883213424 	0.4737707564575218 	101158.266303595
-0.9146646646646649 	299.8633089589163 	0.486183832653784 	101163.4955562064
-0.9121621621621623 	299.8676768232294 	0.4983403360313907 	101168.6524015179
-0.9096596596596597 	299.8718680520583 	0.5099485680754734 	101173.6051253258
-0.9071571571571573 	299.8757972986804 	0.5208184005215987 	101178.2445662007
-0.9046546546546547 	299.8793896998416 	0.5307028164032959 	101182.4840802007
-0.9021521521521524 	299.8825833533832 	0.5394410737304447 	101186.2561909039
-0.8996496496496498 	299.8853357653513 	0.5469098654299567 	101189.5073876426
-0.8971471471471473 	299.8876074516329 	0.5529861948322277 	101192.1905722771
-0.894644644644645 	299.8893551201278 	0.5575506368317305 	101194.2561684334
-0.892142142142142 	299.8905319536797 	0.5604378256842089 	101195.645869908
-0.8896396396396397 	299.89107955792 	0.5614974658667102 	101196.2936131662
-0.8871371371371374 	299.890946116306 	0.5606044693414334 	101196.1353899331
-0.8846346346346349 	299.8900920018327 	0.5576349008343066 	101195.1250034116
-0.8821321321321324 	299.888507768298 	0.5525554380089294 	101193.2521544643
-0.8796296296296297 	299.8862200473762 	0.5454610277833151 	101190.5529809258
-0.8771271271271271 	299.8833043573705 	0.5365778690184672 	101187.1119795639
-0.8746246246246248 	299.8798711737097 	0.5261751322980357 	101183.0562773858
-0.8721221221221224 	299.8760537223715 	0.5146635330731373 	101178.5421756042
-0.8696196196196196 	299.871982163639 	0.5024718526900388 	101173.7361807498
-0.8671171171171175 	299.8677953993788 	0.4898807375245733 	101168.7949510085
-0.8646146146146148 	299.8636048740656 	0.477289128576779 	101163.849785412
-0.8621121121121121 	299.8595003807623 	0.4648614716208115 	101158.9991176236
-0.8596096096096097 	299.8555314444174 	0.4528476978387408 	101154.3095096878
-0.857107107107107 	299.8517286671927 	0.441449244503753 	101149.8221844155
-0.8546046046046049 	299.8481204834264 	0.4305100332435353 	101145.5613340533
-0.8521021021021022 	299.8447128173482 	0.420148876499151 	101141.5418296187
-0.8495995995995997 	299.8415258114593 	0.4104442474839814 	101137.7764002056
-0.8470970970970974 	299.8385683333452 	0.4013913812103919 	101134.2821904977
-0.8445945945945946 	299.8358598949368 	0.3930715198892625 	101131.0869754263
-0.8420920920920922 	299.8334445167181 	0.3855964948307137 	101128.2337393741
-0.8395895895895897 	299.8313664977675 	0.379120653679301 	101125.7811349057
-0.8370870870870872 	299.8296866860032 	0.3737901151743562 	101123.7991034601
-0.8345845845845846 	299.8284685099618 	0.3697841797512923 	101122.3613307298
-0.8320820820820823 	299.8277687681481 	0.3672947750291996 	101121.5372215217
-0.8295795795795798 	299.827641462448 	0.3664461210599435 	101121.3845637925
-0.8270770770770772 	299.8281185257949 	0.367356748962189 	101121.9440676404
-0.8245745745745746 	299.829210974336 	0.3700293673789826 	101123.2354399325
-0.8220720720720721 	299.8309199865835 	0.3744787602289474 	101125.2563832577
-0.8195695695695699 	299.8332308296746 	0.3806873399742874 	101127.984306999
-0.817067067067067 	299.8361068179688 	0.3885302474533241 	101131.3776550103
-0.8145645645645651 	299.8394977581042 	0.3978710284886974 	101135.3762440086
-0.8120620620620621 	299.8433264287272 	0.4084583383283418 	101139.9004179878
-0.8095595595595597 	299.8475176102992 	0.4200671379069029 	101144.8506899642
-0.8070570570570572 	299.8519706516624 	0.4324705578529222 	101150.1111113449
-0.8045545545545546 	299.8565860546644 	0.4452672518507763 	101155.556237248
-0.8020520520520523 	299.8612476835163 	0.4582513400294384 	101161.0599014319
-0.7995495495495494 	299.865856545982 	0.4711548684151393 	101166.5038679986
-0.7970470470470474 	299.8703289621699 	0.4835963523875141 	101171.7838289929
-0.7945445445445446 	299.8745824601147 	0.495428878405488 	101176.8114775896
-0.7920420420420423 	299.8785655312558 	0.5064690063670949 	101181.5132134683
-0.7895395395395397 	299.8822200403429 	0.5165617490875908 	101185.8267569674
-0.7870370370370371 	299.8854954733335 	0.5255500241229436 	101189.6971468548
-0.7845345345345348 	299.8883561177107 	0.5333412037528953 	101193.0722097849
-0.7820320320320323 	299.8907452043262 	0.5397728282472072 	101195.8981141369
-0.7795295295295296 	299.8926226421104 	0.544697084680721 	101198.1160934909
-0.7770270270270272 	299.8939313229093 	0.5479972285771382 	101199.6612026565
-0.7745245245245247 	299.8946101487918 	0.5494692264607004 	101200.4641545233
-0.7720220220220222 	299.8946075299433 	0.54895491946992 	101200.4586142563
-0.7695195195195199 	299.8938773073566 	0.5463527318531269 	101199.5946481311
-0.767017017017017 	299.8924057806156 	0.5416150397009999 	101197.8572297895
-0.7645145145145147 	299.8902199835246 	0.5348295668274623 	101195.279673139
-0.7620120120120122 	299.8873987761649 	0.5262403224447166 	101191.9478609673
-0.7595095095095097 	299.8840540661833 	0.5161253375451418 	101187.9940508222
-0.7570070070070072 	299.8803189342837 	0.504870805852276 	101183.5798778202
-0.7545045045045048 	299.8763310644917 	0.4928896227595629 	101178.8734572202
-0.7520020020020022 	299.8722269163201 	0.4805502555422647 	101174.0287737027
-0.7494994994994997 	299.8681127121908 	0.4682037030960321 	101169.1723340745
-0.7469969969969972 	299.8640732379224 	0.4559982768708057 	101164.397815573
-0.7444944944944945 	299.8601522520328 	0.4441604874560482 	101159.7682591337
-0.7419919919919924 	299.8563879884832 	0.4328359100608523 	101155.3230439236
-0.7394894894894897 	299.8527996546932 	0.4219629155255308 	101151.0858411036
-0.7369869869869872 	299.8493961344691 	0.4116422125643832 	101147.0718098704
-0.7344844844844846 	299.8461988428011 	0.4019057629524108 	101143.2938503941
-0.7319819819819822 	299.8432137987526 	0.3927888435313325 	101139.7677841565
-0.7294794794794797 	299.8404600809924 	0.3843531546367743 	101136.5181790617
-0.7269769769769773 	299.8379793406468 	0.3766974021878881 	101133.5844364778
-0.7244744744744747 	299.8358047628878 	0.3699608526479065 	101131.0238436256
-0.721971971971972 	299.8340141216573 	0.3643145464834341 	101128.9092145219
-0.7194694694694695 	299.8326700355124 	0.3599814474278316 	101127.3211656734
-0.7169669669669674 	299.8318353991385 	0.3570946300918577 	101126.3366092996
-0.7144644644644647 	299.8315669428055 	0.3558599046004824 	101126.0176556885
-0.711961961961962 	299.8318970874101 	0.3563661280249254 	101126.4071167333
-0.7094594594594597 	299.8328485089693 	0.3586307992916782 	101127.5300405895
-0.7069569569569573 	299.8344250738909 	0.3627515017421432 	101129.3942738369
-0.7044544544544545 	299.836620407396 	0.3686469292874266 	101131.9875914909
-0.7019519519519523 	299.8394092148943 	0.3762240805287321 	101135.2745602143
-0.6994494494494495 	299.8427335248908 	0.3853606342444844 	101139.1977460045
-0.6969469469469471 	299.8465279690596 	0.3958629249272552 	101143.6806541593
-0.6944444444444446 	299.8507174513487 	0.407499975824918 	101148.6295463971
-0.6919419419419421 	299.8552079340653 	0.4200054278639492 	101153.9323831209
-0.6894394394394396 	299.8598868986841 	0.4330222267570476 	101159.4541467406
-0.6869369369369374 	299.8646144665662 	0.4461942620405862 	101165.036988853
-0.6844344344344344 	299.8692577657338 	0.4591616354233958 	101170.5189978425
-0.6819319319319321 	299.8737030585281 	0.4715662487691989 	101175.7692208042
-0.6794294294294296 	299.8778859522006 	0.4832135089186389 	101180.7133007287
-0.6769269269269272 	299.881794439443 	0.4940607042794344 	101185.3264673446
-0.6744244244244245 	299.8854124355152 	0.5040771335912303 	101189.5984464904
-0.6719219219219222 	299.8887132194118 	0.5131430287165211 	101193.496501846
-0.6694194194194195 	299.8916387270983 	0.5211201876155909 	101196.949264868
-0.6669169169169172 	299.8940976736756 	0.5277619553703788 	101199.8599405787
-0.6644144144144146 	299.896031492284 	0.532873606567357 	101202.1427375453
-0.661911911911912 	299.8973970966699 	0.5363721930595525 	101203.7544598945
-0.6594094094094097 	299.8981844608937 	0.5381759396213865 	101204.6857030013
-0.656906906906907 	299.8983797196043 	0.5382475867568517 	101204.9140457582
-0.6544044044044046 	299.8979188344798 	0.536415433813673 	101204.3691589307
-0.6519019019019021 	299.8967213549105 	0.5324552693305276 	101202.9554230199
-0.6493993993993996 	299.8947404328817 	0.5262865872354897 	101200.6188367596
-0.6468968968968971 	299.8920183568749 	0.5179799210616729 	101197.4048591697
-0.6443943943943946 	299.888697371849 	0.5079597584517896 	101193.4767721531
-0.6418918918918921 	299.8849822429493 	0.49681779131882 	101189.0883662148
-0.6393893893893897 	299.8811073382046 	0.4851881798714925 	101184.5147643089
-0.6368868868868871 	299.8772480050364 	0.4735633197072885 	101179.9592619609
-0.6343843843843846 	299.8734595424358 	0.4621090970062815 	101175.4847802711
-0.6318818818818821 	299.8696869464005 	0.4506693100251172 	101171.0280352301
-0.6293793793793795 	299.8658528851145 	0.4390791346240088 	101166.5000677326
-0.6268768768768773 	299.8619547326013 	0.4273782873796311 	101161.8959893857
-0.6243743743743745 	299.8580821480198 	0.4157553322311935 	101157.3232485764
-0.6218718718718721 	299.8543652224124 	0.4045677866871053 	101152.9387693716
-0.6193693693693696 	299.8509221635514 	0.3941490052345595 	101148.8710677373
-0.6168668668668671 	299.8478099272882 	0.3846871416932789 	101145.1952368415
-0.6143643643643645 	299.8450633447377 	0.3762612971254238 	101141.9501371886
-0.6118618618618621 	299.8426854023205 	0.3689032808211725 	101139.1436261068
-0.6093593593593596 	299.840640655021 	0.3624962489262074 	101136.7334023453
-0.6068568568568571 	299.8388645487045 	0.3568676245956691 	101134.6347793288
-0.6043543543543546 	299.8373085266477 	0.3519254780934335 	101132.7966584824
-0.6018518518518521 	299.8360389094826 	0.3478593924110842 	101131.2996787664
-0.5993493493493496 	299.8352563967441 	0.3452175777256227 	101130.3734595698
-0.5968468468468471 	299.8351860136801 	0.3446029117924502 	101130.2894760842
-0.5943443443443446 	299.8359638251446 	0.3463931337841796 	101131.2090169463
-0.591841841841842 	299.8375766499404 	0.3505884697819217 	101133.1157813268
-0.5893393393393397 	299.8399228162154 	0.3568900742853355 	101135.8852165108
-0.5868368368368371 	299.8429088207304 	0.3650559621520786 	101139.4058624567
-0.5843343343343346 	299.8464788327623 	0.3749197138863539 	101143.6204453776
-0.5818318318318321 	299.8505707976441 	0.3862833248407284 	101148.4544040888
-0.5793293293293297 	299.8550350822114 	0.3986605360372199 	101153.7276436446
-0.5768268268268271 	299.8596424946284 	0.4114747062737056 	101159.1670593037
-0.5743243243243245 	299.8641826274374 	0.424151012358264 	101164.5276915248
-0.5718218218218221 	299.8685708869913 	0.4364007427855553 	101169.7086861517
-0.5693193193193196 	299.8728396200518 	0.4483560995626632 	101174.7489908971
-0.5668168168168171 	299.8770349383092 	0.4600481934279315 	101179.7043222005
-0.5643143143143147 	299.8811112679606 	0.4713573122387598 	101184.5227838681
-0.5618118118118121 	299.8849362335114 	0.481926777996493 	101189.0376989667
-0.5593093093093094 	299.8883619043417 	0.4913837891951934 	101193.0820103051
-0.5568068068068072 	299.8913524855897 	0.4996148873723208 	101196.6108602859
-0.5543043043043046 	299.8939712289147 	0.5067892315744553 	101199.7087274615
-0.551801801801802 	299.8963042093466 	0.5130805016488873 	101202.4658142887
-0.5492992992992995 	299.8983123792015 	0.5183758562700367 	101204.8354045537
-0.5467967967967969 	299.8998139440667 	0.5221924072301931 	101206.6088961239
-0.5442942942942947 	299.9006029615526 	0.5239921877876703 	101207.5431027146
-0.5417917917917919 	299.9006037755893 	0.523584933070385 	101207.5413767388
-0.5392892892892895 	299.8999259275608 	0.5212488353116218 	101206.7395857963
-0.536786786786787 	299.8988118377395 	0.5176555288399716 	101205.4259052066
-0.5342842842842846 	299.8974736036944 	0.5133477554842755 	101203.8480849394
-0.531781781781782 	299.8959502012873 	0.5084137991048556 	101202.046711851
-0.5292792792792794 	299.8940685917048 	0.5023923206374437 	101199.8211312875
-0.526776776776777 	299.8915470595884 	0.4945545813210989 	101196.8425786764
-0.5242742742742745 	299.8881648159352 	0.4842945775806418 	101192.8504703824
-0.521771771771772 	299.8839138757037 	0.4716034636391082 	101187.8308670294
-0.5192692692692695 	299.8790480310603 	0.4572481793229046 	101182.084801462
-0.516766766766767 	299.8740200747081 	0.4423873303562012 	101176.1454088687
-0.5142642642642645 	299.8693112824983 	0.4284017798932807 	101170.5838072461
-0.511761761761762 	299.8652624901072 	0.4162736643050476 	101165.8011559076
-0.5092592592592596 	299.8619544046264 	0.4061863068962335 	101161.8974288866
-0.506756756756757 	299.8592183517922 	0.3976937753436234 	101158.6700285621
-0.5042542542542544 	299.8567407675299 	0.3899505054737582 	101155.7415601751
-0.5017517517517521 	299.8542095356102 	0.382103538196663 	101152.7506918893
-0.4992492492492494 	299.8514693246655 	0.3737239271500152 	101149.5116042705
-0.496746746746747 	299.8485517346588 	0.3649132585927845 	101146.0744627495
-0.4942442442442445 	299.8456735767018 	0.356219246780667 	101142.6750603196
-0.4917417417417421 	299.8430868666234 	0.3483511507037916 	101139.6180901151
-0.4892392392392395 	299.8410092373967 	0.3419377755187675 	101137.1664824526
-0.486736736736737 	299.8395887320975 	0.3374089491727935 	101135.4904909381
-0.4842342342342345 	299.8389073285207 	0.3349982612194813 	101134.6838707571
-0.481731731731732 	299.8390136386656 	0.3348744269260674 	101134.8082868496
-0.4792292292292296 	299.8399473881184 	0.3371475221564103 	101135.913170949
-0.4767267267267268 	299.8417180767985 	0.3418167115480413 	101138.0053743405
-0.4742242242242246 	299.8442560087785 	0.3486574345728227 	101140.9993556606
-0.471721721721722 	299.8473931913625 	0.3572156070319481 	101144.7005930782
-0.4692192192192195 	299.8509108345786 	0.3668963327023952 	101148.8542239751
-0.4667167167167169 	299.8546212055855 	0.3771663440489422 	101153.2376510816
-0.4642142142142145 	299.8584291682141 	0.3877518437268518 	101157.7337966598
-0.461711711711712 	299.8623229242704 	0.398619966633834 	101162.3340700226
-0.4592092092092094 	299.8663408754722 	0.4097907498333748 	101167.0755333998
-0.456706706706707 	299.8704818022465 	0.4213215420409507 	101171.9653332985
-0.4542042042042045 	299.8747014956843 	0.4330931895516373 	101176.9461716401
-0.451701701701702 	299.8789044656509 	0.4448059592829612 	101181.9149569888
-0.4491991991991995 	299.8830085784713 	0.4562250231612696 	101186.7634233813
-0.4466966966966969 	299.8869374478153 	0.4671363067615221 	101191.4007182853
-0.4441941941941945 	299.890616526734 	0.4773236509037784 	101195.743899191
-0.441691691691692 	299.8939638271356 	0.4865345448555617 	101199.6949300414
-0.4391891891891895 	299.8968694993254 	0.4944941327732155 	101203.1355759628
-0.436686686686687 	299.8992599279575 	0.5009536755259265 	101205.9556827803
-0.4341841841841846 	299.901077564727 	0.505778153433749 	101208.1002402012
-0.431681681681682 	299.902343875504 	0.5090456909681594 	101209.5991476046
-0.4291791791791794 	299.9031498188447 	0.5109693556997129 	101210.5503839622
-0.426676676676677 	299.9035810848146 	0.5117818812271567 	101211.0582346672
-0.4241741741741744 	299.9036678021956 	0.5115721408595477 	101211.160428435
-0.421671671671672 	299.9033492344262 	0.5101631380667325 	101210.7865973698
-0.4191691691691694 	299.9024897115795 	0.5071713141269193 	101209.7721177378
-0.4166666666666669 	299.9009250202571 	0.5021463842582461 	101207.9222235316
-0.4141641641641645 	299.898537234435 	0.4947727650800023 	101205.0989878311
-0.411661661661662 	299.8953207020003 	0.4850802970530841 	101201.3010184303
-0.4091591591591594 	299.8914266597983 	0.4734539637419091 	101196.7033898575
-0.406656656656657 	299.8871351359087 	0.4606845373112699 	101191.6346901824
-0.4041541541541545 	299.8827764495467 	0.4477529341281429 	101186.4889395606
-0.401651651651652 	299.878641688998 	0.435365897640975 	101181.6029420262
-0.3991491491491494 	299.8748749186814 	0.4239961468067084 	101177.1535165574
-0.396646646646647 	299.8714641462645 	0.4136406098240362 	101173.1237959861
-0.3941441441441444 	299.8682671418567 	0.4038954426045339 	101169.3555385113
-0.3916416416416419 	299.8651382648977 	0.3943505089787975 	101165.659207388
-0.3891391391391395 	299.8619733108319 	0.384736350541995 	101161.9191008813
-0.3866366366366368 	299.8587734344227 	0.3750626682132294 	101158.1389888722
-0.3841341341341344 	299.8556216865629 	0.3655282225077898 	101154.4166164267
-0.381631631631632 	299.8526223500236 	0.356450415418331 	101150.8819132263
-0.3791291291291294 	299.849889236949 	0.3481175414889504 	101147.6506410015
-0.3766266266266269 	299.8474946496423 	0.3407706220411282 	101144.8221386236
-0.3741241241241244 	299.8455322381865 	0.3347036979587464 	101142.507884052
-0.371621621621622 	299.8441303911732 	0.3302501471202653 	101140.8512452704
-0.3691191191191194 	299.8434177406938 	0.3277829609921361 	101140.0086611448
-0.366616616616617 	299.8434922104109 	0.32758094204233 	101140.0970861904
-0.3641141141141143 	299.8443756171324 	0.3296857828051132 	101141.1423157942
-0.3616116116116119 	299.8460032758489 	0.3339208646700447 	101143.0632084451
-0.3591091091091095 	299.8482434511473 	0.339928497540811 	101145.7073864223
-0.356606606606607 	299.8509612623674 	0.3473196502576935 	101148.9132922519
-0.3541041041041044 	299.8540463146774 	0.3558083166677968 	101152.5574446547
-0.3516016016016019 	299.8574384272733 	0.3651949394677683 	101156.5626186109
-0.3490990990990994 	299.8610866364589 	0.375298266821189 	101160.8741431945
-0.346596596596597 	299.8649491613757 	0.3860443296563773 	101165.4336483097
-0.3440940940940944 	299.8689639304316 	0.3972281256845138 	101170.1731870788
-0.3415915915915919 	299.8730763976522 	0.4086759400573796 	101175.0279543901
-0.3390890890890895 	299.8772411929972 	0.4203149734984418 	101179.9464771402
-0.3365865865865869 	299.8814131492969 	0.4319689691139835 	101184.8809536607
-0.3340840840840844 	299.8855495634073 	0.4434736988197888 	101189.7619802573
-0.3315815815815819 	299.8895444026647 	0.454568480444378 	101194.4784772501
-0.3290790790790794 	299.8932739082557 	0.4649005560800942 	101198.8825916368
-0.3265765765765769 	299.8966081829562 	0.4740907907076979 	101202.8222555297
-0.3240740740740744 	299.8994542204373 	0.4819046249948145 	101206.1865143921
-0.3215715715715718 	299.9017875196796 	0.4882417391371007 	101208.9403008047
-0.3190690690690695 	299.9036408179141 	0.4932090031913547 	101211.1296528863
-0.3165665665665668 	299.9050973662007 	0.4970363707566844 	101212.8513436872
-0.3140640640640644 	299.9062369446083 	0.4999025852682932 	101214.1960371845
-0.311561561561562 	299.9070758819736 	0.5018835508796349 	101215.1870665311
-0.3090590590590593 	299.9075455235729 	0.5027561163842698 	101215.7420418267
-0.3065565565565568 	299.907490366834 	0.5020975960171892 	101215.6790910006
-0.3040540540540545 	299.906726022226 	0.4994015387013114 	101214.7736888024
-0.3015515515515518 	299.9050988982773 	0.4942344224845965 	101212.8530017941
-0.2990490490490494 	299.9025903356361 	0.4865807298937377 	101209.8869124399
-0.2965465465465469 	299.8993226457051 	0.4767858430714795 	101206.0289465775
-0.2940440440440444 	299.8955586348005 	0.4655574692656707 	101201.5812079178
-0.2915415415415418 	299.8915842953675 	0.4536937510823823 	101196.8935235691
-0.2890390390390395 	299.8876548292549 	0.4419288218577077 	101192.2484882835
-0.2865365365365368 	299.8838831076484 	0.4305861156301781 	101187.792702091
-0.2840340340340343 	299.8802848807631 	0.4196788231977482 	101183.5406849149
-0.2815315315315318 	299.876803324895 	0.4091815875912079 	101179.4329083878
-0.2790290290290295 	299.8733878333169 	0.3988525842243523 	101175.4027495823