/*--------------------------------*- C++ -*----------------------------------*\
  =========                 |
  \\      /  F ield         | OpenFOAM: The Open Source CFD Toolbox
   \\    /   O peration     | Website:  https://openfoam.org
    \\  /    A nd           | Version:  7
     \\/     M anipulation  |
\*---------------------------------------------------------------------------*/
FoamFile
{
    version     2.0;
    format      ascii;
    class       volScalarField;
    location    "0.00346";
    object      T;
}
// * * * * * * * * * * * * * * * * * * * * * * * * * * * * * * * * * * * * * //

dimensions      [0 0 0 1 0 0 0];

internalField   nonuniform List<scalar> 
5000
(
237.49626
237.50101
237.50613
237.5086
237.51361
237.5161
237.52107
237.52355
237.52851
237.53099
237.53594
237.53842
237.54337
237.54585
237.55079
237.55326
237.55821
237.56068
237.56562
237.56809
237.57302
237.57549
237.58042
237.58288
237.58781
237.59027
237.59519
237.59765
237.60257
237.60502
237.60993
237.61239
237.6173
237.61975
237.62465
237.6271
237.632
237.63444
237.63933
237.64178
237.64666
237.64911
237.65399
237.65642
237.6613
237.66374
237.6686
237.67104
237.6759
237.67833
237.68319
237.68562
237.69047
237.6929
237.69775
237.70017
237.70501
237.70743
237.71227
237.71469
237.71952
237.72193
237.72676
237.72917
237.73399
237.7364
237.74121
237.74362
237.74843
237.75083
237.75564
237.75804
237.76284
237.76523
237.77003
237.77242
237.77721
237.7796
237.78438
237.78677
237.79155
237.79394
237.79871
237.80109
237.80586
237.80824
237.813
237.81538
237.82014
237.82251
237.82726
237.82964
237.83438
237.83675
237.84149
237.84386
237.84859
237.85096
237.85568
237.85805
237.86277
237.86513
237.86985
237.8722
237.87691
237.87927
237.88397
237.88633
237.89103
237.89338
237.89807
237.90042
237.90511
237.90745
237.91214
237.91448
237.91916
237.92149
237.92617
237.9285
237.93317
237.9355
237.94017
237.9425
237.94715
237.94948
237.95413
237.95646
237.96111
237.96343
237.96807
237.97039
237.97502
237.97734
237.98197
237.98428
237.98891
237.99122
237.99584
237.99815
238.00276
238.00507
238.00968
238.01198
238.01658
238.01889
238.02348
238.02578
238.03037
238.03267
238.03726
238.03955
238.04413
238.04642
238.051
238.05329
238.05786
238.06014
238.06471
238.06699
238.07155
238.07383
238.07838
238.08066
238.08521
238.08748
238.09203
238.0943
238.09884
238.10111
238.10564
238.10791
238.11244
238.1147
238.11922
238.12148
238.126
238.12826
238.13277
238.13503
238.13954
238.14179
238.14629
238.14854
238.15304
238.15528
238.15978
238.16202
238.16651
238.16875
238.17323
238.17547
238.17994
238.18218
238.18665
238.18889
238.19335
238.19558
238.20004
238.20227
238.20673
238.20895
238.2134
238.21562
238.22007
238.22229
238.22673
238.22895
238.23338
238.2356
238.24002
238.24224
238.24666
238.24887
238.25329
238.2555
238.2599
238.26214
238.26648
238.26878
238.27304
238.27544
238.27958
238.28209
238.28611
238.28874
238.29262
238.29539
238.29911
238.30205
238.30559
238.3087
238.31205
238.31536
238.31849
238.32202
238.32492
238.32866
238.33135
238.3353
238.33778
238.3419
238.34423
238.34848
238.3507
238.35501
238.35719
238.36152
238.36368
238.36801
238.37017
238.37449
238.37665
238.38097
238.38312
238.38744
238.38959
238.39389
238.39605
238.40035
238.4025
238.40679
238.40894
238.41323
238.41537
238.41966
238.4218
238.42608
238.42822
238.43249
238.43463
238.4389
238.44103
238.44529
238.44743
238.45168
238.45381
238.45807
238.46019
238.46444
238.46656
238.47081
238.47293
238.47717
238.47929
238.48352
238.48563
238.48986
238.49198
238.4962
238.49831
238.50253
238.50464
238.50885
238.51095
238.51516
238.51726
238.52147
238.52357
238.52776
238.52986
238.53405
238.53615
238.54034
238.54243
238.54661
238.5487
238.55288
238.55496
238.55914
238.56122
238.56539
238.56747
238.57163
238.57371
238.57787
238.57995
238.5841
238.58617
238.59032
238.59239
238.59653
238.5986
238.60274
238.6048
238.60893
238.611
238.61512
238.61719
238.62131
238.62337
238.62748
238.62954
238.63365
238.63571
238.63981
238.64186
238.64596
238.64801
238.65211
238.65415
238.65825
238.66029
238.66437
238.66642
238.6705
238.67254
238.67661
238.67865
238.68272
238.68475
238.68882
238.69085
238.69491
238.69694
238.70099
238.70302
238.70707
238.7091
238.71314
238.71516
238.7192
238.72122
238.72526
238.72727
238.7313
238.73332
238.73734
238.73936
238.74338
238.74539
238.7494
238.75141
238.75542
238.75742
238.76143
238.76343
238.76743
238.76943
238.77342
238.77542
238.77941
238.78141
238.78539
238.78738
238.79136
238.79335
238.79733
238.79932
238.80329
238.80527
238.80924
238.81122
238.81518
238.81716
238.82112
238.82309
238.82704
238.82902
238.83296
238.83494
238.83888
238.84085
238.84478
238.84675
238.85068
238.85265
238.85658
238.85854
238.86246
238.86442
238.86834
238.87029
238.87421
238.87616
238.88007
238.88202
238.88592
238.88788
238.89177
238.89372
238.89761
238.89956
238.90345
238.90539
238.90927
238.91122
238.91509
238.91703
238.92091
238.92284
238.92671
238.92865
238.93251
238.93444
238.9383
238.94023
238.94409
238.94601
238.94986
238.95179
238.95563
238.95755
238.9614
238.96332
238.96715
238.96907
238.9729
238.97482
238.97864
238.98056
238.98438
238.98629
238.99011
238.99201
238.99583
238.99773
239.00154
239.00344
239.00725
239.00915
239.01295
239.01485
239.01864
239.02054
239.02433
239.02622
239.03001
239.0319
239.03568
239.03757
239.04135
239.04323
239.047
239.04889
239.05266
239.05454
239.0583
239.06018
239.06394
239.06582
239.06957
239.07145
239.0752
239.07707
239.08082
239.08269
239.08643
239.0883
239.09203
239.0939
239.09763
239.0995
239.10322
239.10509
239.10881
239.11067
239.11439
239.11624
239.11996
239.12181
239.12552
239.12738
239.13108
239.13293
239.13663
239.13848
239.14218
239.14402
239.14771
239.14956
239.15325
239.15509
239.15877
239.16061
239.16429
239.16613
239.1698
239.17164
239.17531
239.17714
239.1808
239.18264
239.1863
239.18813
239.19178
239.19361
239.19726
239.19909
239.20273
239.20456
239.2082
239.21002
239.21366
239.21548
239.21911
239.22093
239.22456
239.22637
239.23
239.23181
239.23543
239.23724
239.24086
239.24267
239.24628
239.24808
239.25169
239.2535
239.2571
239.2589
239.2625
239.2643
239.2679
239.2697
239.27329
239.27508
239.27867
239.28046
239.28405
239.28584
239.28942
239.29121
239.29478
239.29657
239.30014
239.30192
239.30549
239.30727
239.31084
239.31262
239.31618
239.31795
239.32151
239.32329
239.32684
239.32861
239.33216
239.33393
239.33747
239.33924
239.34278
239.34455
239.34809
239.34985
239.35338
239.35515
239.35868
239.36044
239.36396
239.36574
239.3692
239.37108
239.37441
239.37642
239.37961
239.38177
239.3848
239.3871
239.38999
239.39242
239.39519
239.39772
239.4004
239.403
239.40561
239.40827
239.41083
239.41352
239.41605
239.41877
239.42127
239.424
239.42649
239.42923
239.43171
239.43445
239.43692
239.43967
239.44213
239.44488
239.44734
239.45008
239.45255
239.45528
239.45775
239.46047
239.46295
239.46566
239.46816
239.47084
239.47335
239.47601
239.47855
239.48118
239.48374
239.48635
239.48893
239.49152
239.49411
239.49669
239.49929
239.50185
239.50446
239.50701
239.50963
239.51217
239.5148
239.51733
239.51996
239.52249
239.52512
239.52764
239.53027
239.5328
239.53543
239.53795
239.54058
239.5431
239.54573
239.54825
239.55088
239.55339
239.55602
239.55854
239.56117
239.56368
239.56631
239.56882
239.57145
239.57396
239.57659
239.5791
239.58173
239.58424
239.58687
239.58938
239.592
239.59451
239.59714
239.59965
239.60227
239.60478
239.6074
239.60991
239.61254
239.61505
239.61767
239.62018
239.6228
239.62531
239.62793
239.63044
239.63306
239.63557
239.63819
239.6407
239.64332
239.64582
239.64844
239.65095
239.65357
239.65608
239.6587
239.6612
239.66382
239.66633
239.66895
239.67145
239.67407
239.67658
239.6792
239.6817
239.68432
239.68682
239.68944
239.69194
239.69456
239.69706
239.69968
239.70218
239.7048
239.7073
239.70992
239.71242
239.71504
239.71753
239.72015
239.72265
239.72527
239.72776
239.73038
239.73287
239.73549
239.73798
239.7406
239.74309
239.74571
239.7482
239.75081
239.7533
239.75591
239.7584
239.76102
239.7635
239.76611
239.7686
239.77121
239.77369
239.7763
239.77878
239.78139
239.78387
239.78648
239.78896
239.79156
239.79404
239.79664
239.79912
239.80171
239.8042
239.80678
239.80928
239.81185
239.81435
239.81691
239.81942
239.82197
239.82448
239.82703
239.82954
239.83208
239.83459
239.83712
239.83964
239.84217
239.84468
239.84721
239.84972
239.85224
239.85475
239.85727
239.85978
239.86229
239.8648
239.86731
239.86982
239.87232
239.87483
239.87733
239.87983
239.88233
239.88483
239.88733
239.88983
239.89232
239.89481
239.8973
239.89979
239.90228
239.90477
239.90725
239.90974
239.91222
239.9147
239.91718
239.91965
239.92213
239.9246
239.92707
239.92954
239.93201
239.93448
239.93694
239.93941
239.94187
239.94433
239.94678
239.94924
239.95169
239.95415
239.9566
239.95905
239.96149
239.96394
239.96638
239.96882
239.97126
239.9737
239.97614
239.97857
239.981
239.98343
239.98586
239.98828
239.99071
239.99313
239.99555
239.99797
240.00039
240.0028
240.00522
240.00763
240.01004
240.01244
240.01485
240.01725
240.01965
240.02205
240.02445
240.02684
240.02923
240.03163
240.03401
240.0364
240.03879
240.04117
240.04355
240.04593
240.04831
240.05068
240.05306
240.05543
240.0578
240.06016
240.06253
240.06489
240.06725
240.06961
240.07197
240.07432
240.07668
240.07903
240.08138
240.08372
240.08607
240.08841
240.09075
240.09309
240.09543
240.09777
240.1001
240.10243
240.10476
240.10709
240.10941
240.11174
240.11406
240.11638
240.11869
240.12101
240.12332
240.12563
240.12794
240.13025
240.13255
240.13486
240.13716
240.13945
240.14175
240.14405
240.14634
240.14863
240.15092
240.1532
240.15549
240.15777
240.16005
240.16233
240.1646
240.16688
240.16915
240.17142
240.17369
240.17596
240.17822
240.18048
240.18274
240.185
240.18726
240.18951
240.19177
240.19402
240.19627
240.19851
240.20076
240.203
240.20524
240.20748
240.20972
240.21196
240.21419
240.21642
240.21865
240.22088
240.2231
240.22532
240.22755
240.22977
240.23198
240.2342
240.23641
240.23862
240.24083
240.24304
240.24525
240.24745
240.24965
240.25185
240.25405
240.25625
240.25844
240.26064
240.26283
240.26502
240.26721
240.26939
240.27157
240.27376
240.27594
240.27811
240.28029
240.28246
240.28464
240.28681
240.28897
240.29114
240.2933
240.29547
240.29763
240.29979
240.30194
240.3041
240.30625
240.3084
240.31055
240.3127
240.31485
240.31699
240.31913
240.32127
240.32341
240.32555
240.32768
240.32982
240.33195
240.33408
240.3362
240.33833
240.34045
240.34257
240.34469
240.34681
240.34893
240.35104
240.35315
240.35527
240.35737
240.35948
240.36159
240.36369
240.36579
240.36789
240.36999
240.37208
240.37418
240.37627
240.37836
240.38045
240.38253
240.38462
240.3867
240.38878
240.39086
240.39294
240.39501
240.39709
240.39916
240.40123
240.4033
240.40536
240.40743
240.40949
240.41155
240.41361
240.41567
240.41772
240.41977
240.42182
240.42387
240.42592
240.42797
240.43001
240.43205
240.43409
240.43613
240.43816
240.4402
240.44223
240.44426
240.44629
240.44832
240.45034
240.45236
240.45438
240.4564
240.45842
240.46044
240.46245
240.46446
240.46647
240.46848
240.47048
240.47249
240.47449
240.47649
240.47849
240.48048
240.48248
240.48447
240.48646
240.48845
240.49044
240.49242
240.4944
240.49638
240.49836
240.50034
240.50231
240.50429
240.50626
240.50823
240.51019
240.51216
240.51412
240.51609
240.51804
240.52
240.52196
240.52391
240.52587
240.52782
240.52976
240.53171
240.53366
240.5356
240.53754
240.53948
240.54141
240.54335
240.54528
240.54721
240.54914
240.55106
240.55299
240.55491
240.55683
240.55875
240.56067
240.56258
240.5645
240.56641
240.56832
240.57023
240.57213
240.57404
240.57594
240.57784
240.57974
240.58163
240.58353
240.58542
240.58731
240.5892
240.59108
240.59297
240.59485
240.59673
240.59861
240.60049
240.60236
240.60423
240.6061
240.60797
240.60984
240.61171
240.61357
240.61543
240.61729
240.61915
240.621
240.62286
240.62471
240.62656
240.62841
240.63026
240.6321
240.63395
240.63579
240.63763
240.63946
240.6413
240.64313
240.64496
240.64679
240.64862
240.65045
240.65227
240.65409
240.65591
240.65773
240.65955
240.66136
240.66317
240.66498
240.66679
240.6686
240.6704
240.67221
240.67401
240.67581
240.67761
240.6794
240.6812
240.68299
240.68478
240.68657
240.68836
240.69014
240.69193
240.69371
240.69549
240.69727
240.69905
240.70082
240.7026
240.70437
240.70614
240.70791
240.70967
240.71144
240.7132
240.71496
240.71672
240.71848
240.72024
240.72199
240.72375
240.7255
240.72725
240.729
240.73075
240.7325
240.73424
240.73598
240.73772
240.73946
240.7412
240.74294
240.74467
240.74641
240.74814
240.74987
240.7516
240.75333
240.75505
240.75678
240.7585
240.76022
240.76194
240.76366
240.76537
240.76709
240.7688
240.77051
240.77222
240.77393
240.77564
240.77734
240.77905
240.78075
240.78245
240.78415
240.78584
240.78754
240.78923
240.79092
240.79261
240.7943
240.79599
240.79768
240.79936
240.80104
240.80272
240.8044
240.80608
240.80775
240.80942
240.81109
240.81276
240.81443
240.8161
240.81776
240.81943
240.82109
240.82275
240.8244
240.82606
240.82771
240.82937
240.83102
240.83266
240.83431
240.83596
240.8376
240.83924
240.84088
240.84252
240.84415
240.84579
240.84742
240.84905
240.85068
240.85231
240.85393
240.85556
240.85718
240.8588
240.86041
240.86203
240.86365
240.86526
240.86687
240.86848
240.87009
240.87169
240.87329
240.8749
240.8765
240.87809
240.87969
240.88128
240.88288
240.88447
240.88606
240.88764
240.88923
240.89081
240.89239
240.89397
240.89555
240.89713
240.8987
240.90027
240.90184
240.90341
240.90498
240.90654
240.90811
240.90967
240.91123
240.91278
240.91434
240.91589
240.91745
240.919
240.92054
240.92209
240.92364
240.92518
240.92672
240.92826
240.9298
240.93133
240.93287
240.9344
240.93593
240.93746
240.93899
240.94051
240.94203
240.94355
240.94508
240.94659
240.94811
240.94962
240.95114
240.95264
240.95415
240.95566
240.95717
240.95867
240.96017
240.96167
240.96317
240.96467
240.96616
240.96766
240.96915
240.97064
240.97212
240.97362
240.9751
240.97659
240.97806
240.97955
240.98102
240.9825
240.98398
240.98545
240.98692
240.98839
240.98986
240.99133
240.9928
240.99426
240.99573
240.99718
240.99865
241.0001
241.00156
241.00302
241.00447
241.00592
241.00738
241.00882
241.01027
241.01172
241.01316
241.01461
241.01605
241.01749
241.01893
241.02037
241.0218
241.02324
241.02467
241.02611
241.02753
241.02896
241.03039
241.03182
241.03324
241.03466
241.03609
241.0375
241.03892
241.04034
241.04176
241.04317
241.04458
241.04599
241.0474
241.04881
241.05022
241.05162
241.05303
241.05443
241.05583
241.05723
241.05862
241.06002
241.06141
241.06281
241.0642
241.06559
241.06698
241.06836
241.06975
241.07113
241.07251
241.0739
241.07527
241.07665
241.07803
241.0794
241.08078
241.08215
241.08352
241.08489
241.08625
241.08762
241.08898
241.09034
241.09171
241.09306
241.09442
241.09578
241.09713
241.09848
241.09984
241.10119
241.10253
241.10388
241.10522
241.10657
241.10791
241.10925
241.11059
241.11193
241.11326
241.11459
241.11593
241.11726
241.11859
241.11992
241.12124
241.12257
241.12389
241.12521
241.12653
241.12785
241.12917
241.13048
241.13179
241.13311
241.13442
241.13573
241.13703
241.13834
241.13964
241.14095
241.14225
241.14355
241.14485
241.14614
241.14744
241.14873
241.15002
241.15131
241.1526
241.15389
241.15517
241.15646
241.15774
241.15902
241.1603
241.16157
241.16285
241.16412
241.1654
241.16667
241.16793
241.1692
241.17047
241.17173
241.173
241.17426
241.17552
241.17678
241.17803
241.17929
241.18054
241.1818
241.18305
241.1843
241.18554
241.18679
241.18803
241.18927
241.19052
241.19175
241.19299
241.19422
241.19546
241.19669
241.19792
241.19915
241.20038
241.20161
241.20283
241.20405
241.20528
241.20649
241.20771
241.20893
241.21015
241.21135
241.21257
241.21378
241.21499
241.21619
241.2174
241.2186
241.21981
241.22101
241.22221
241.2234
241.22461
241.2258
241.227
241.22818
241.22938
241.23056
241.23176
241.23294
241.23413
241.23531
241.23649
241.23767
241.23885
241.24003
241.2412
241.24238
241.24355
241.24472
241.24589
241.24706
241.24822
241.24939
241.25055
241.25171
241.25287
241.25403
241.25519
241.25635
241.2575
241.25866
241.25981
241.26096
241.26211
241.26326
241.26441
241.26556
241.2667
241.26784
241.26898
241.27012
241.27126
241.2724
241.27353
241.27466
241.2758
241.27693
241.27806
241.27918
241.28031
241.28144
241.28256
241.28368
241.2848
241.28592
241.28704
241.28816
241.28927
241.29038
241.29149
241.2926
241.29371
241.29482
241.29592
241.29703
241.29813
241.29923
241.30033
241.30143
241.30252
241.30362
241.30471
241.3058
241.30689
241.30798
241.30907
241.31015
241.31124
241.31232
241.3134
241.31448
241.31556
241.31663
241.31771
241.31878
241.31985
241.32092
241.32199
241.32305
241.32412
241.32518
241.32625
241.32731
241.32837
241.32942
241.33048
241.33153
241.33258
241.33364
241.33469
241.33573
241.33678
241.33782
241.33887
241.33991
241.34095
241.34199
241.34303
241.34406
241.3451
241.34613
241.34716
241.34819
241.34922
241.35024
241.35127
241.35229
241.35331
241.35433
241.35535
241.35637
241.35738
241.3584
241.35941
241.36042
241.36143
241.36244
241.36344
241.36445
241.36545
241.36645
241.36745
241.36845
241.36945
241.37044
241.37144
241.37243
241.37342
241.37441
241.37539
241.37638
241.37736
241.37834
241.37933
241.3803
241.38128
241.38226
241.38323
241.38421
241.38518
241.38615
241.38712
241.38809
241.38905
241.39002
241.39098
241.39194
241.3929
241.39386
241.39481
241.39577
241.39672
241.39768
241.39863
241.39957
241.40052
241.40147
241.40241
241.40336
241.4043
241.40524
241.40617
241.40711
241.40805
241.40898
241.40991
241.41084
241.41177
241.4127
241.41363
241.41455
241.41548
241.4164
241.41732
241.41824
241.41916
241.42007
241.42099
241.4219
241.42282
241.42373
241.42464
241.42554
241.42645
241.42736
241.42826
241.42916
241.43006
241.43096
241.43186
241.43276
241.43365
241.43454
241.43544
241.43633
241.43722
241.4381
241.43899
241.43988
241.44076
241.44164
241.44252
241.4434
241.44428
241.44516
241.44603
241.44691
241.44778
241.44865
241.44952
241.45039
241.45126
241.45212
241.45299
241.45385
241.45471
241.45557
241.45642
241.45728
241.45814
241.45899
241.45984
241.46069
241.46154
241.46239
241.46323
241.46408
241.46492
241.46577
241.46661
241.46744
241.46828
241.46912
241.46995
241.47078
241.47162
241.47245
241.47328
241.4741
241.47493
241.47575
241.47658
241.4774
241.47822
241.47903
241.47985
241.48066
241.48148
241.48229
241.4831
241.4839
241.48471
241.48551
241.48632
241.48712
241.48792
241.48872
241.48952
241.49031
241.49111
241.4919
241.49269
241.49348
241.49427
241.49505
241.49584
241.49662
241.4974
241.49818
241.49896
241.49974
241.50052
241.50129
241.50206
241.50283
241.5036
241.50437
241.50513
241.5059
241.50666
241.50742
241.50818
241.50894
241.50969
241.51045
241.5112
241.51195
241.5127
241.51345
241.5142
241.51495
241.51569
241.51643
241.51718
241.51791
241.51865
241.51939
241.52012
241.52086
241.52159
241.52232
241.52305
241.52377
241.5245
241.52522
241.52594
241.52666
241.52738
241.5281
241.52881
241.52953
241.53024
241.53095
241.53166
241.53237
241.53307
241.53378
241.53448
241.53518
241.53588
241.53658
241.53728
241.53797
241.53866
241.53935
241.54004
241.54073
241.54142
241.5421
241.54279
241.54347
241.54415
241.54483
241.5455
241.54618
241.54685
241.54752
241.5482
241.54886
241.54953
241.5502
241.55086
241.55152
241.55218
241.55284
241.5535
241.55416
241.55481
241.55546
241.55612
241.55677
241.55741
241.55806
241.5587
241.55935
241.55998
241.56062
241.56126
241.5619
241.56253
241.56316
241.56379
241.56442
241.56505
241.56567
241.56629
241.56691
241.56753
241.56815
241.56876
241.56937
241.56998
241.57059
241.5712
241.57181
241.57241
241.57301
241.57361
241.57421
241.5748
241.57539
241.57598
241.57657
241.57716
241.57774
241.57832
241.5789
241.57947
241.58004
241.58061
241.58118
241.58175
241.58231
241.58287
241.58343
241.58398
241.58454
241.58508
241.58563
241.58617
241.58671
241.58725
241.58778
241.58831
241.58884
241.58936
241.58988
241.59039
241.59091
241.59142
241.59192
241.59242
241.59292
241.59341
241.5939
241.59439
241.59487
241.59534
241.59581
241.59628
241.59674
241.5972
241.59765
241.5981
241.59854
241.59897
241.59941
241.59983
241.60025
241.60066
241.60107
241.60148
241.60187
241.60226
241.60264
241.60302
241.60339
241.60375
241.60411
241.60446
241.6048
241.60513
241.60546
241.60578
241.60609
241.60639
241.60668
241.60697
241.60724
241.60751
241.60777
241.60802
241.60826
241.60849
241.60871
241.60892
241.60912
241.60931
241.60949
241.60966
241.60982
241.60996
241.6101
241.61022
241.61033
241.61044
241.61052
241.6106
241.61066
241.61072
241.61075
241.61078
241.61079
241.61079
241.61077
241.61074
241.6107
241.61064
241.61057
241.61048
241.61038
241.61026
241.61013
241.60998
241.60981
241.60963
241.60943
241.60922
241.60899
241.60875
241.60849
241.60821
241.60791
241.6076
241.60727
241.60692
241.60655
241.60617
241.60576
241.60534
241.6049
241.60445
241.60397
241.60348
241.60297
241.60243
241.60189
241.60132
241.60073
241.60012
241.5995
241.59886
241.59819
241.59751
241.59681
241.59609
241.59534
241.59458
241.5938
241.593
241.59219
241.59135
241.59049
241.58962
241.58872
241.58781
241.58687
241.58592
241.58495
241.58396
241.58296
241.58193
241.58089
241.57982
241.57875
241.57765
241.57654
241.5754
241.57426
241.57309
241.57191
241.57071
241.56949
241.56826
241.56701
241.56575
241.56447
241.56318
241.56187
241.56055
241.55921
241.55786
241.5565
241.55512
241.55373
241.55233
241.55091
241.54949
241.54805
241.5466
241.54514
241.54367
241.54219
241.5407
241.5392
241.5377
241.53618
241.53466
241.53313
241.53159
241.53005
241.5285
241.52694
241.52538
241.52381
241.52224
241.52067
241.51909
241.51751
241.51592
241.51434
241.51275
241.51116
241.50957
241.50798
241.50639
241.5048
241.50321
241.50162
241.50003
241.49845
241.49686
241.49528
241.49371
241.49214
241.49057
241.489
241.48744
241.48589
241.48434
241.4828
241.48127
241.47974
241.47822
241.4767
241.4752
241.4737
241.47221
241.47074
241.46927
241.46781
241.46636
241.46492
241.46349
241.46207
241.46066
241.45926
241.45788
241.45651
241.45514
241.4538
241.45246
241.45114
241.44982
241.44853
241.44724
241.44597
241.44471
241.44346
241.44223
241.44102
241.43981
241.43862
241.43745
241.43629
241.43514
241.43401
241.43289
241.43179
241.4307
241.42963
241.42857
241.42752
241.42649
241.42548
241.42447
241.42349
241.42252
241.42156
241.42062
241.41969
241.41877
241.41787
241.41699
241.41611
241.41526
241.41441
241.41358
241.41276
241.41196
241.41117
241.41039
241.40963
241.40887
241.40814
241.40741
241.4067
241.406
241.40531
241.40463
241.40397
241.40332
241.40268
241.40205
241.40143
241.40082
241.40022
241.39964
241.39906
241.3985
241.39794
241.3974
241.39686
241.39634
241.39582
241.39531
241.39481
241.39432
241.39384
241.39337
241.3929
241.39244
241.39199
241.39155
241.39111
241.39069
241.39027
241.38985
241.38945
241.38905
241.38865
241.38827
241.38789
241.38751
241.38714
241.38678
241.38642
241.38607
241.38572
241.38538
241.38504
241.38471
241.38438
241.38405
241.38373
241.38342
241.3831
241.38279
241.38248
241.38218
241.38188
241.38158
241.38129
241.381
241.38071
241.38042
241.38014
241.37986
241.37958
241.37931
241.37903
241.37876
241.37849
241.37822
241.37796
241.37769
241.37743
241.37717
241.37691
241.37665
241.3764
241.37614
241.37588
241.37563
241.37538
241.37512
241.37487
241.37462
241.37437
241.37412
241.37387
241.37362
241.37337
241.37312
241.37287
241.37262
241.37237
241.37212
241.37187
241.37162
241.37137
241.37112
241.37087
241.37062
241.37038
241.37012
241.36987
241.36962
241.36937
241.36912
241.36887
241.36861
241.36836
241.36811
241.36785
241.3676
241.36734
241.36708
241.36682
241.36656
241.3663
241.36604
241.36578
241.36552
241.36525
241.36499
241.36472
241.36445
241.36419
241.36392
241.36365
241.36338
241.3631
241.36283
241.36255
241.36228
241.362
241.36172
241.36144
241.36116
241.36087
241.36059
241.36031
241.36002
241.35973
241.35944
241.35915
241.35886
241.35856
241.35827
241.35797
241.35767
241.35737
241.35707
241.35677
241.35647
241.35616
241.35585
241.35554
241.35523
241.35492
241.35461
241.3543
241.35398
241.35366
241.35334
241.35302
241.3527
241.35237
241.35205
241.35172
241.35139
241.35106
241.35072
241.35039
241.35005
241.34972
241.34938
241.34904
241.3487
241.34836
241.34801
241.34767
241.34732
241.34697
241.34662
241.34627
241.34591
241.34556
241.3452
241.34484
241.34448
241.34412
241.34375
241.34338
241.34302
241.34265
241.34227
241.3419
241.34153
241.34115
241.34077
241.34039
241.34001
241.33963
241.33925
241.33886
241.33847
241.33808
241.33769
241.3373
241.33691
241.33651
241.33611
241.33571
241.33531
241.33491
241.33451
241.3341
241.3337
241.33329
241.33288
241.33247
241.33206
241.33164
241.33123
241.33081
241.33039
241.32997
241.32955
241.32913
241.3287
241.32827
241.32784
241.32741
241.32698
241.32655
241.32611
241.32568
241.32524
241.3248
241.32436
241.32392
241.32348
241.32303
241.32258
241.32214
241.32169
241.32123
241.32078
241.32033
241.31987
241.31941
241.31896
241.31849
241.31803
241.31757
241.31711
241.31664
241.31617
241.31571
241.31524
241.31476
241.31429
241.31382
241.31334
241.31286
241.31238
241.3119
241.31142
241.31094
241.31045
241.30997
241.30948
241.30899
241.30849
241.30801
241.30751
241.30702
241.30652
241.30602
241.30552
241.30502
241.30452
241.30401
241.30352
241.303
241.3025
241.30199
241.30148
241.30097
241.30045
241.29994
241.29942
241.2989
241.29838
241.29786
241.29734
241.29681
241.29629
241.29576
241.29523
241.2947
241.29417
241.29363
241.2931
241.29256
241.29203
241.29149
241.29094
241.2904
241.28986
241.28931
241.28877
241.28822
241.28767
241.28712
241.28657
241.28601
241.28546
241.2849
241.28434
241.28379
241.28322
241.28266
241.2821
241.28153
241.28096
241.28039
241.27982
241.27924
241.27867
241.27809
241.27751
241.27693
241.27635
241.27577
241.27519
241.2746
241.27401
241.27342
241.27283
241.27224
241.27165
241.27105
241.27045
241.26986
241.26926
241.26865
241.26805
241.26745
241.26684
241.26623
241.26562
241.26501
241.2644
241.26378
241.26317
241.26255
241.26193
241.2613
241.26068
241.26006
241.25943
241.2588
241.25817
241.25754
241.25691
241.25627
241.25563
241.255
241.25436
241.25371
241.25307
241.25243
241.25178
241.25113
241.25048
241.24983
241.24918
241.24852
241.24786
241.24721
241.24655
241.24589
241.24523
241.24456
241.2439
241.24324
241.24257
241.2419
241.24123
241.24056
241.23989
241.23921
241.23853
241.23785
241.23717
241.23649
241.23581
241.23512
241.23443
241.23374
241.23305
241.23236
241.23167
241.23097
241.23027
241.22958
241.22887
241.22817
241.22747
241.22676
241.22606
241.22535
241.22464
241.22393
241.22322
241.22251
241.22179
241.22107
241.22035
241.21963
241.21891
241.21819
241.21746
241.21674
241.21601
241.21528
241.21455
241.21382
241.21309
241.21235
241.21162
241.21088
241.21014
241.2094
241.20866
241.20792
241.20718
241.20643
241.20569
241.20494
241.20419
241.20344
241.20269
241.20193
241.20118
241.20042
241.19966
241.1989
241.19814
241.19738
241.19662
241.19585
241.19509
241.19432
241.19355
241.19278
241.19201
241.19124
241.19046
241.18969
241.18891
241.18813
241.18735
241.18657
241.18579
241.185
241.18422
241.18343
241.18264
241.18185
241.18105
241.18026
241.17946
241.17866
241.17786
241.17706
241.17626
241.17545
241.17465
241.17384
241.17303
241.17222
241.17141
241.1706
241.16978
241.16896
241.16815
241.16733
241.16651
241.16569
241.16486
241.16404
241.16321
241.16238
241.16155
241.16072
241.15988
241.15905
241.15821
241.15738
241.15654
241.1557
241.15485
241.15401
241.15316
241.15232
241.15146
241.15061
241.14976
241.1489
241.14805
241.14719
241.14633
241.14546
241.1446
241.14374
241.14287
241.142
241.14113
241.14026
241.13939
241.13852
241.13764
241.13676
241.13589
241.13501
241.13412
241.13324
241.13235
241.13147
241.13058
241.12968
241.12879
241.1279
241.127
241.1261
241.1252
241.1243
241.1234
241.12249
241.12159
241.12068
241.11977
241.11886
241.11794
241.11703
241.11611
241.11519
241.11427
241.11335
241.11242
241.1115
241.11057
241.10964
241.10871
241.10778
241.10684
241.1059
241.10496
241.10403
241.10308
241.10214
241.10119
241.10024
241.09929
241.09834
241.09739
241.09644
241.09548
241.09452
241.09356
241.09259
241.09163
241.09066
241.08969
241.08872
241.08774
241.08677
241.08579
241.08481
241.08383
241.08284
241.08185
241.08086
241.07987
241.07888
241.07789
241.07689
241.0759
241.0749
241.07389
241.07289
241.07188
241.07087
241.06987
241.06886
241.06785
241.06683
241.06581
241.06479
241.06377
241.06275
241.06172
241.0607
241.05967
241.05864
241.05761
241.05656
241.05552
241.05448
241.05343
241.05239
241.05134
241.05029
241.04924
241.04817
241.04712
241.04606
241.04499
241.04394
241.04286
241.0418
241.04072
241.03963
241.03855
241.03746
241.03638
241.0353
241.03421
241.03311
241.03203
241.03092
241.0298
241.02869
241.02757
241.02644
241.02532
241.0242
241.02306
241.02193
241.02079
241.01963
241.01846
241.01731
241.01614
241.01496
241.0138
241.01263
241.01144
241.01024
241.00905
241.00783
241.00659
241.00536
241.00414
241.0029
241.00166
241.00044
240.99921
240.99795
240.99668
240.99542
240.99415
240.99285
240.99154
240.99025
240.98896
240.98766
240.98635
240.98504
240.98373
240.98242
240.98107
240.97971
240.97836
240.97704
240.9757
240.97434
240.973
240.97171
240.97043
240.96912
240.96778
240.96646
240.96517
240.96389
240.96256
240.9612
240.95986
240.95859
240.95734
240.95607
240.95477
240.95346
240.95222
240.95104
240.94984
240.94857
240.94724
240.94592
240.94465
240.94342
240.94217
240.94086
240.93949
240.93812
240.93682
240.9356
240.93442
240.93321
240.93193
240.93059
240.92923
240.92791
240.92663
240.92537
240.92408
240.92271
240.92123
240.91966
240.91804
240.91642
240.91485
240.91335
240.91191
240.91048
240.90903
240.90755
240.90604
240.90453
240.90306
240.90162
240.90019
240.89875
240.89734
240.89605
240.89499
240.89425
240.89384
240.89368
240.89363
240.89373
240.89427
240.89608
240.90151
240.91725
240.96223
241.09039
241.4137
241.84075
242.30522
242.80192
243.3247
243.86723
244.42329
244.987
245.55278
246.11545
246.67021
247.21279
247.73939
248.24681
248.73236
249.19395
249.62998