/*--------------------------------*- C++ -*----------------------------------*\
| =========                 |                                                 |
| \\      /  F ield         | OpenFOAM: The Open Source CFD Toolbox           |
|  \\    /   O peration     | Version:  4.x                                   |
|   \\  /    A nd           | Web:      www.OpenFOAM.org                      |
|    \\/     M anipulation  |                                                 |
\*---------------------------------------------------------------------------*/
FoamFile
{
    version     2.0;
    format      ascii;
    class       surfaceScalarField;
    location    "0.14";
    object      phi;
}
// * * * * * * * * * * * * * * * * * * * * * * * * * * * * * * * * * * * * * //

dimensions      [1 0 -1 0 0 0 0];

internalField   nonuniform List<scalar> 
17861
(
2.247313611e-08
2.247314581e-08
1.28664846e-07
1.779051595e-08
2.696563729e-08
1.513281002e-07
1.16381165e-08
2.748136232e-08
1.522821489e-07
7.813084312e-09
2.758999728e-08
1.49846142e-07
5.413964829e-09
2.750944531e-08
1.485007742e-07
2.747014504e-08
1.476601641e-07
3.894745053e-09
2.696562538e-08
1.779053408e-08
1.513281014e-07
2.195998212e-08
2.196000146e-08
1.836223906e-07
1.435514898e-08
2.222968808e-08
1.864676049e-07
9.819108735e-09
2.215886531e-08
1.835782643e-07
7.045898219e-09
2.205949914e-08
1.818342367e-07
2.205011371e-08
1.807845504e-07
5.292445521e-09
2.748134378e-08
1.163814907e-08
1.522821542e-07
2.222964821e-08
1.435518736e-08
1.864676176e-07
1.429877351e-08
1.429884035e-08
1.894728264e-07
9.554838618e-09
1.415430739e-08
1.863595827e-07
6.601853711e-09
1.410211687e-08
1.845214407e-07
1.409412773e-08
1.834051133e-07
4.763796256e-09
2.758997443e-08
7.81313026e-09
1.498461593e-07
2.215881908e-08
9.819162091e-09
1.835782943e-07
1.415423426e-08
9.554923966e-09
1.863596061e-07
9.372620152e-09
9.372715168e-09
1.831742984e-07
6.438235828e-09
9.33466539e-09
1.813129155e-07
9.305056604e-09
1.802016251e-07
4.636754495e-09
2.750942963e-08
5.414012181e-09
1.485008038e-07
2.205946362e-08
7.045948094e-09
1.81834293e-07
1.410205178e-08
6.601938402e-09
1.84521498e-07
9.334572654e-09
6.438334949e-09
1.813129511e-07
6.430180703e-09
6.430284933e-09
1.794198537e-07
6.413265222e-09
1.782889377e-07
4.644110642e-09
2.74701347e-08
1.476601984e-07
3.894791991e-09
2.205008909e-08
1.807846167e-07
5.292484245e-09
1.409407442e-08
1.834051814e-07
4.763870145e-09
9.304969892e-09
1.802016851e-07
4.636842223e-09
6.413155663e-09
1.782889741e-07
4.644202987e-09
1.771564232e-07
4.640591751e-09
4.640482684e-09
1.690736717e-08
1.690736699e-08
9.485010724e-08
1.714886606e-08
2.217452092e-08
1.289120492e-07
1.390596203e-08
2.285948538e-08
1.32665507e-07
1.107807605e-08
2.299460642e-08
1.296793139e-07
8.795143977e-09
2.309670803e-08
1.27686841e-07
2.316613231e-08
1.262885461e-07
7.000444119e-09
2.217454546e-08
1.714883868e-08
1.289120568e-07
2.324081683e-08
2.324073325e-08
1.814898493e-07
1.902876198e-08
2.446040802e-08
1.890786032e-07
1.500285642e-08
2.464881957e-08
1.859497577e-07
1.174184116e-08
2.482451664e-08
1.833671515e-07
2.484041521e-08
1.815910853e-07
9.260686598e-09
2.285951006e-08
1.390591748e-08
1.326655359e-07
2.446047284e-08
1.902865011e-08
1.890786702e-07
2.030367977e-08
2.030362286e-08
1.977862428e-07
1.600860648e-08
2.053965392e-08
1.947636169e-07
1.265289847e-08
2.065195697e-08
1.920493965e-07
2.066613717e-08
1.901792203e-07
1.005272424e-08
2.299461512e-08
1.107805044e-08
1.296793873e-07
2.464884883e-08
1.500277313e-08
1.859498925e-07
2.053968035e-08
1.600858749e-08
1.947636961e-07
1.624587292e-08
1.624588124e-08
1.91761677e-07
1.284706788e-08
1.633621953e-08
1.890271624e-07
1.636400624e-08
1.871527273e-07
1.019778696e-08
2.309672368e-08
8.795140677e-09
1.27686952e-07
2.482454336e-08
1.174178899e-08
1.833673704e-07
2.065197726e-08
1.265290322e-08
1.92049572e-07
1.633620871e-08
1.284710449e-08
1.890272615e-07
1.290929841e-08
1.290935197e-08
1.862733508e-07
1.293217987e-08
1.843892969e-07
1.024049431e-08
2.31661518e-08
1.262886702e-07
7.000452986e-09
2.484044519e-08
1.815913216e-07
9.260648433e-09
2.06661585e-08
1.901794205e-07
1.005273802e-08
1.636399124e-08
1.87152879e-07
1.019782617e-08
1.293209436e-08
1.843893879e-07
1.024054181e-08
1.825056084e-07
1.025745067e-08
1.025735899e-08
1.190011025e-08
1.190006412e-08
7.104986559e-08
1.390084601e-08
1.717234872e-08
1.097389022e-07
1.261815056e-08
1.744939052e-08
1.164986965e-07
1.08846811e-08
1.72235352e-08
1.141890889e-07
9.248235479e-09
1.703101758e-08
1.122921002e-07
1.70425879e-08
1.107656455e-07
7.728360493e-09
1.717242608e-08
1.390073884e-08
1.097389046e-07
2.045763949e-08
2.045745249e-08
1.749194155e-07
1.868394342e-08
2.118637025e-08
1.871151721e-07
1.603932267e-08
2.103468555e-08
1.84782994e-07
1.335777073e-08
2.0823544e-08
1.822558823e-07
2.075588643e-08
1.802472205e-07
1.098804727e-08
1.744949104e-08
1.261799891e-08
1.16498718e-07
2.11866103e-08
1.868367648e-08
1.871152344e-07
1.96389145e-08
1.96385534e-08
2.008815602e-07
1.714316052e-08
1.95902992e-08
1.987035344e-07
1.445659008e-08
1.944280494e-08
1.961164567e-07
1.936124058e-08
1.940325572e-07
1.199764359e-08
1.722365559e-08
1.088450888e-08
1.141891358e-07
2.103494048e-08
1.603903152e-08
1.847831298e-07
1.959065446e-08
1.714275733e-08
1.987036056e-07
1.718890805e-08
1.718850888e-08
1.965649811e-07
1.45738711e-08
1.710552139e-08
1.939792711e-07
1.705935303e-08
1.918811298e-07
1.214717116e-08
1.703116391e-08
9.248049619e-09
1.122921692e-07
2.082383821e-08
1.335746655e-08
1.822560934e-07
1.94431977e-08
1.445616746e-08
1.961166173e-07
1.710595967e-08
1.45734412e-08
1.93979333e-07
1.454498294e-08
1.454451045e-08
1.913951382e-07
1.452954457e-08
1.893071498e-07
1.215674779e-08
1.704272745e-08
1.107657101e-07
7.728174537e-09
2.075616666e-08
1.802474082e-07
1.09877448e-08
1.936160323e-08
1.94032697e-07
1.199721137e-08
1.705973988e-08
1.918811923e-07
1.214672562e-08
1.452993247e-08
1.893072199e-07
1.215625386e-08
1.872308036e-07
1.21668278e-08
1.216724689e-08
6.035588368e-09
6.035541854e-09
5.897867148e-08
8.356601268e-09
9.806226706e-09
9.76115973e-08
9.145523508e-09
1.010731749e-08
1.056023617e-07
8.798921289e-09
9.86754851e-09
1.046680206e-07
8.078666654e-09
9.637162971e-09
1.033750727e-07
9.559231228e-09
1.021781087e-07
7.106852264e-09
9.806356223e-09
8.356462948e-09
9.761157112e-08
1.360571132e-08
1.360537208e-08
1.673207898e-07
1.444743916e-08
1.423705628e-08
1.821435584e-07
1.372608656e-08
1.397538289e-08
1.813963266e-07
1.240176152e-08
1.369304756e-08
1.795241617e-07
1.359238916e-08
1.778043595e-07
1.081133327e-08
1.010748775e-08
9.145306502e-09
1.056023161e-07
1.423747503e-08
1.444693419e-08
1.821435668e-07
1.530134226e-08
1.530073579e-08
1.987538647e-07
1.466394797e-08
1.516789291e-08
1.981482951e-07
1.329374756e-08
1.497263743e-08
1.962069875e-07
1.489841612e-08
1.944014128e-07
1.16187988e-08
9.867743547e-09
8.798664337e-09
1.046679568e-07
1.397584023e-08
1.372549054e-08
1.813963357e-07
1.516853576e-08
1.466322886e-08
1.981482956e-07
1.465072127e-08
1.464998331e-08
1.976005732e-07
1.337185246e-08
1.455510425e-08
1.956756069e-07
1.452166403e-08
1.938919553e-07
1.173773907e-08
9.637377337e-09
8.07840059e-09
1.033749843e-07
1.369353162e-08
1.240113078e-08
1.795241584e-07
1.497332338e-08
1.329294672e-08
1.96206978e-07
1.455592143e-08
1.337102261e-08
1.956755613e-07
1.335656708e-08
1.335562922e-08
1.937938892e-07
1.336543303e-08
1.920503444e-07
1.176951262e-08
9.559442142e-09
1.021779916e-07
7.106596738e-09
1.359286547e-08
1.778042814e-07
1.081070176e-08
1.489906915e-08
1.944013178e-07
1.161798329e-08
1.45224143e-08
1.938918294e-07
1.173689992e-08
1.33662708e-08
1.920503295e-07
1.176857276e-08
1.903478305e-07
1.180686835e-08
1.180773169e-08
3.325214123e-09
3.325250991e-09
5.232813891e-08
5.159586363e-09
5.362651757e-09
9.041449898e-08
6.354783176e-09
5.543353894e-09
9.886371058e-08
6.690115335e-09
5.402781151e-09
9.892979736e-08
6.596988592e-09
5.268849971e-09
9.819926251e-08
5.222315166e-09
9.742979599e-08
6.122940683e-09
5.362655382e-09
5.159624258e-09
9.041446865e-08
8.589707223e-09
8.589628026e-09
1.608666273e-07
1.039041541e-08
9.061483107e-09
1.768245754e-07
1.081460138e-08
8.926479475e-09
1.77448312e-07
1.049449792e-08
8.779957044e-09
1.763330917e-07
8.730505872e-09
1.751483379e-07
9.642350027e-09
5.543386355e-09
6.354822352e-09
9.886364761e-08
9.061617598e-09
1.039027448e-08
1.768245656e-07
1.110131897e-08
1.110110052e-08
1.946744268e-07
1.162833842e-08
1.106062893e-08
1.95487063e-07
1.130702886e-08
1.097574267e-08
1.943325108e-07
1.095758455e-08
1.930872568e-07
1.039415898e-08
5.402835314e-09
6.690159244e-09
9.892970376e-08
8.926638877e-09
1.081442998e-08
1.774482631e-07
1.106086389e-08
1.16280679e-08
1.954870246e-07
1.167300976e-08
1.167274106e-08
1.963762253e-07
1.141133775e-08
1.164905931e-08
1.952639294e-07
1.166861408e-08
1.940602989e-07
1.05319653e-08
5.268922749e-09
6.597061857e-09
9.81990965e-08
8.780132868e-09
1.049437089e-08
1.763329184e-07
1.097598583e-08
1.130675974e-08
1.943323542e-07
1.164934257e-08
1.141105546e-08
1.952637899e-07
1.144556647e-08
1.144526488e-08
1.942014103e-07
1.150833085e-08
1.930496386e-07
1.060651935e-08
5.222391098e-09
9.742957031e-08
6.123032234e-09
8.73069865e-09
1.751480634e-07
9.64222093e-09
1.095780642e-08
1.930870097e-07
1.039390895e-08
1.166880187e-08
1.940600546e-07
1.053176974e-08
1.150843933e-08
1.930495743e-07
1.060635031e-08
1.919561678e-07
1.070421548e-08
1.070420533e-08
1.927380997e-09
1.927443745e-09
4.847324134e-08
3.42303433e-09
3.088987211e-09
8.582976704e-08
4.677118958e-09
3.196995491e-09
9.441252163e-08
5.319342576e-09
3.135362489e-09
9.515212233e-08
5.568597458e-09
3.078420576e-09
9.487153806e-08
3.077477634e-09
9.450284165e-08
5.418063077e-09
3.088894994e-09
3.423167246e-09
8.582976312e-08
5.700737365e-09
5.700917577e-09
1.556426966e-07
7.708064556e-09
6.064090194e-09
1.719500338e-07
8.679999601e-09
6.033676353e-09
1.735779779e-07
8.953275521e-09
5.996801376e-09
1.731414305e-07
6.019113655e-09
1.725377895e-07
8.622254851e-09
3.196896461e-09
4.677322423e-09
9.441250469e-08
6.063905767e-09
7.708313384e-09
1.719500494e-07
8.305226849e-09
8.305464346e-09
1.901916297e-07
9.392857426e-09
8.353597698e-09
1.920794475e-07
9.696026653e-09
8.373759703e-09
1.916523823e-07
8.434521354e-09
1.910340352e-07
9.333887985e-09
3.135277218e-09
5.319593247e-09
9.515207987e-08
6.033507123e-09
8.680301437e-09
1.735779436e-07
8.353372599e-09
9.393123993e-09
1.920794116e-07
9.509673028e-09
9.509955228e-09
1.940634592e-07
9.86000035e-09
9.585938151e-09
1.937013668e-07
9.684556833e-09
1.931481148e-07
9.522148388e-09
3.078352136e-09
5.568877586e-09
9.487139634e-08
5.996632474e-09
8.953633249e-09
1.731412262e-07
8.373523997e-09
9.696323229e-09
1.91652184e-07
9.585656651e-09
9.860323389e-09
1.937011841e-07
9.980370281e-09
9.980672533e-09
1.934119028e-07
1.012436649e-08
1.929087814e-07
9.681413e-09
3.077403095e-09
9.450263337e-08
5.418351154e-09
6.018972602e-09
1.725374783e-07
8.622615199e-09
8.434294603e-09
1.910337542e-07
9.334237723e-09
9.684202975e-09
1.931478461e-07
9.522588837e-09
1.012390916e-08
1.929087077e-07
9.681815823e-09
1.92480381e-07
9.862291449e-09
9.861795948e-09
1.295063405e-09
1.295096695e-09
4.588300855e-08
2.616794354e-09
2.051207519e-09
8.245672942e-08
3.838378904e-09
2.141845909e-09
9.104900793e-08
4.627961413e-09
2.133001649e-09
9.222946993e-08
5.064203996e-09
2.132563867e-09
9.230269217e-08
2.171941766e-09
9.228300458e-08
5.112076403e-09
2.051138933e-09
2.616897437e-09
8.245672815e-08
4.299943829e-09
4.30014393e-09
1.511448284e-07
6.281816313e-09
4.614193128e-09
1.674957318e-07
7.515013168e-09
4.666702185e-09
1.698110224e-07
8.126747963e-09
4.72167655e-09
1.699405824e-07
4.82409324e-09
1.698794034e-07
8.133037293e-09
2.141725003e-09
3.838564854e-09
9.104902724e-08
4.613929666e-09
6.2821321e-09
1.674957559e-07
6.810826979e-09
6.81118117e-09
1.857976582e-07
8.172658805e-09
6.944634684e-09
1.884396284e-07
8.842617883e-09
7.070757228e-09
1.886333258e-07
7.240731043e-09
1.886117526e-07
8.848314303e-09
2.132903154e-09
4.628210671e-09
9.222944685e-08
4.666459573e-09
7.515409969e-09
1.698109914e-07
6.944301029e-09
8.173063716e-09
1.884396046e-07
8.37685186e-09
8.377266857e-09
1.911981872e-07
9.101116046e-09
8.572297962e-09
1.914754994e-07
8.815432585e-09
1.915348873e-07
9.139640534e-09
2.132459877e-09
5.064465832e-09
9.230259051e-08
4.721415914e-09
8.127170277e-09
1.699404143e-07
7.070405027e-09
8.843013139e-09
1.886331852e-07
8.571884615e-09
9.101525889e-09
1.914753741e-07
9.355722693e-09
9.356083668e-09
1.918442348e-07
9.642481618e-09
1.919923822e-07
9.44506321e-09
2.171810864e-09
9.228291021e-08
5.11231027e-09
4.823827563e-09
1.698792032e-07
8.133404509e-09
7.240377531e-09
1.886115197e-07
8.848702738e-09
8.814976918e-09
1.915346608e-07
9.140099829e-09
9.64201466e-09
1.919923157e-07
9.445430373e-09
1.922995475e-07
9.732887861e-09
9.732457028e-09
1.052134588e-09
1.052136451e-09
4.377866091e-08
2.348515381e-09
1.651962576e-09
7.950831048e-08
3.581098112e-09
1.757129261e-09
8.805923043e-08
4.482634643e-09
1.79723583e-09
8.953063715e-08
5.042425881e-09
1.847083171e-09
8.989577169e-08
1.924261984e-09
9.018150831e-08
1.651927107e-09
2.348558667e-09
7.950830545e-08
3.804869114e-09
3.805004733e-09
1.468387523e-07
5.789125409e-09
4.126139389e-09
1.631424098e-07
7.202726831e-09
4.25275529e-09
1.65941872e-07
8.03791469e-09
4.392447307e-09
1.66560055e-07
4.574004186e-09
1.669991832e-07
1.757069491e-09
3.581214333e-09
8.805922108e-08
4.125961989e-09
5.789366857e-09
1.631424057e-07
6.318166337e-09
6.318427767e-09
1.814131049e-07
7.873095833e-09
6.54031137e-09
1.845971216e-07
8.788342375e-09
6.771867982e-09
1.853386687e-07
7.053044598e-09
1.858812783e-07
1.797160829e-09
4.482804198e-09
8.953059388e-08
4.252565487e-09
7.203019592e-09
1.659418252e-07
6.540058325e-09
7.873382214e-09
1.845971114e-07
8.174628346e-09
8.174924474e-09
1.879289605e-07
9.147035102e-09
8.485991911e-09
1.887889314e-07
8.851215265e-09
1.894592253e-07
1.846997407e-09
5.042586583e-09
8.989571429e-08
4.392230049e-09
8.038192858e-09
1.665599358e-07
6.771599284e-09
8.788604282e-09
1.8533857e-07
8.485702669e-09
9.147314186e-09
1.88788846e-07
9.515132546e-09
9.515347818e-09
1.897854109e-07
9.9284833e-09
1.90627177e-07
1.924154577e-09
9.018154634e-08
5.219733888e-09
4.573789997e-09
1.669991456e-07
8.268613557e-09
7.0527798e-09
1.85881148e-07
9.040030348e-09
8.850903941e-09
1.894591437e-07
9.424750056e-09
9.928173457e-09
1.906272112e-07
9.803191488e-09
1.916593087e-07
1.02485418e-08
1.024829174e-08
1.003467981e-09
1.003449022e-09
4.177168685e-08
2.397132122e-09
1.585820961e-09
7.65287785e-08
3.728116473e-09
1.719791456e-09
8.500838891e-08
4.767129285e-09
1.801161728e-09
8.669041465e-08
5.453603472e-09
1.899717702e-09
8.730953989e-08
2.024076603e-09
8.787646156e-08
1.585775529e-09
2.397129667e-09
7.652879386e-08
3.855882055e-09
3.855944437e-09
1.422984434e-07
5.981269541e-09
4.228808102e-09
1.585079609e-07
7.607763692e-09
4.44060024e-09
1.616759198e-07
8.653971039e-09
4.681331779e-09
1.62732253e-07
4.969870205e-09
1.636484598e-07
1.719748256e-09
3.728154951e-09
8.500836394e-08
4.228705596e-09
5.981389362e-09
1.585079333e-07
6.576758678e-09
6.576904075e-09
1.76716916e-07
8.368857151e-09
6.914312489e-09
1.803313096e-07
9.520164816e-09
7.286525755e-09
1.81582207e-07
7.722677804e-09
1.826824617e-07
1.801084015e-09
4.767200751e-09
8.669037598e-08
4.440459556e-09
7.607903772e-09
1.616758627e-07
6.914171928e-09
8.368997671e-09
1.803312814e-07
8.810074068e-09
8.810228057e-09
1.841371329e-07
1.003475337e-08
9.291802204e-09
1.855589699e-07
9.846822856e-09
1.868525242e-07
1.899653115e-09
5.453654336e-09
8.730952771e-08
4.681189247e-09
8.654086246e-09
1.627321679e-07
7.286384487e-09
9.520253413e-09
1.815821122e-07
9.291660839e-09
1.003489516e-08
1.855589147e-07
1.059327678e-08
1.059331623e-08
1.871822726e-07
1.124159337e-08
1.887206016e-07
2.024033691e-09
8.787657714e-08
5.734548509e-09
4.969789233e-09
1.636485043e-07
9.058993862e-09
7.722556747e-09
1.826823931e-07
9.966289044e-09
9.846678591e-09
1.868525249e-07
1.051745166e-08
1.124151625e-08
1.887207295e-07
1.11049985e-08
1.90492154e-07
1.1825147e-08
1.182502926e-08
1.074218911e-09
1.074174801e-09
3.96232521e-08
2.663008582e-09
1.709179662e-09
7.3230744e-08
4.191274936e-09
1.882394033e-09
8.159766117e-08
5.425587053e-09
2.011412436e-09
8.344463002e-08
6.271104584e-09
2.16906611e-09
8.429490181e-08
2.359573939e-09
8.512939696e-08
1.709198575e-09
2.662972378e-09
7.323073038e-08
4.287873584e-09
4.287870186e-09
1.371410006e-07
6.719431892e-09
4.751904901e-09
1.532068324e-07
8.653177172e-09
5.070540505e-09
1.566829877e-07
9.955415142e-09
5.445225024e-09
1.581538349e-07
5.888060397e-09
1.595420193e-07
1.882361618e-09
4.191267576e-09
8.159764014e-08
4.751835799e-09
6.719449983e-09
1.532068324e-07
7.453048601e-09
7.45312133e-09
1.713144502e-07
9.596730267e-09
7.952450263e-09
1.75305695e-07
1.104167208e-08
8.529284565e-09
1.770532249e-07
9.20506471e-09
1.787204686e-07
2.011372979e-09
5.425617672e-09
8.344459693e-08
5.070471853e-09
8.653227678e-09
1.566829432e-07
7.952395098e-09
9.596797442e-09
1.753056688e-07
1.02477365e-08
1.024782462e-08
1.795464208e-07
1.180572958e-08
1.099716933e-08
1.81533128e-07
1.187463204e-08
1.834738338e-07
2.169060428e-09
6.271140678e-09
8.429489819e-08
5.445180242e-09
9.955475328e-09
1.581537779e-07
8.529241841e-09
1.10416842e-08
1.770531704e-07
1.099710719e-08
1.180579636e-08
1.815330993e-07
1.268881684e-08
1.268874915e-08
1.837990086e-07
1.373254915e-08
1.860680793e-07
2.359583631e-09
8.512948883e-08
6.658626643e-09
5.888055817e-09
1.595420668e-07
1.053346187e-08
9.205022251e-09
1.787204305e-07
1.168671951e-08
1.187454827e-08
1.834738668e-07
1.251497977e-08
1.373259421e-08
1.860682422e-07
1.348325719e-08
1.887086604e-07
1.462433747e-08
1.462427702e-08
1.220126838e-09
1.220098497e-09
3.718296773e-08
3.099382227e-09
1.959819501e-09
6.939160652e-08
4.923709555e-09
2.186350595e-09
7.758691637e-08
6.426957598e-09
2.372993074e-09
7.956829717e-08
7.481562381e-09
2.605508472e-09
8.06347163e-08
2.884765606e-09
8.172910816e-08
1.959833087e-09
3.099342964e-09
6.939159371e-08
5.020231519e-09
5.020231336e-09
1.31020154e-07
7.935268139e-09
5.619757418e-09
1.468583261e-07
1.030247006e-08
6.079402142e-09
1.506092706e-07
1.194156155e-08
6.632951449e-09
1.5248724e-07
7.287697012e-09
1.543554671e-07
2.186273346e-09
4.923713359e-09
7.758696231e-08
5.619646203e-09
7.935292961e-09
1.468583904e-07
8.881751816e-09
8.881846721e-09
1.647902273e-07
1.152732569e-08
9.601534627e-09
1.691379604e-07
1.336350374e-08
1.045644647e-08
1.713935622e-07
1.146148536e-08
1.736604367e-07
2.372951872e-09
6.427006559e-09
7.956831586e-08
6.079337904e-09
1.030254832e-08
1.506093014e-07
9.601487315e-09
1.152742595e-08
1.691379566e-07
1.246899297e-08
1.246909514e-08
1.738113853e-07
1.447460447e-08
1.358473553e-08
1.763992919e-07
1.48941898e-08
1.790521831e-07
2.605502936e-09
7.481630206e-09
8.063474323e-08
6.63290295e-09
1.194168293e-08
1.5248727e-07
1.045640056e-08
1.3363567e-08
1.713935832e-07
1.358465783e-08
1.447469591e-08
1.763992953e-07
1.579389962e-08
1.579385415e-08
1.793807268e-07
1.734276934e-08
1.825000818e-07
2.88477595e-09
8.172915685e-08
7.997177239e-09
7.287695504e-09
1.543555093e-07
1.272535988e-08
1.146144067e-08
1.736604352e-07
1.424987012e-08
1.489407605e-08
1.790522087e-07
1.546378263e-08
1.73428014e-08
1.825001616e-07
1.691332365e-08
1.861642404e-07
1.861510561e-08
1.861492241e-08
1.418261875e-09
1.418241308e-09
3.434641728e-08
3.67902674e-09
2.306298066e-09
6.482450813e-08
5.899724389e-09
2.602109e-09
7.276403631e-08
7.757100849e-09
2.863289803e-09
7.484753278e-08
9.08455254e-09
3.196629934e-09
7.611055336e-08
3.599890885e-09
7.745029864e-08
2.306298211e-09
3.678976087e-09
6.482453248e-08
6.022748965e-09
6.022732725e-09
1.235872343e-07
9.605209186e-09
6.810371783e-09
1.3906754e-07
1.255822248e-08
7.461703064e-09
1.43057751e-07
1.464536295e-08
8.264289609e-09
1.453323763e-07
9.222275887e-09
1.476835605e-07
2.602068889e-09
5.899727057e-09
7.276411054e-08
6.810316337e-09
9.605235884e-09
1.390676545e-07
1.085683757e-08
1.085690889e-08
1.566971792e-07
1.419208917e-08
1.18858177e-08
1.613785848e-07
1.655949607e-08
1.313855552e-08
1.641518852e-07
1.46277111e-08
1.67049114e-07
2.863291613e-09
7.757163686e-09
7.484757808e-08
7.461698212e-09
1.25583394e-08
1.430578565e-07
1.188580863e-08
1.419221515e-08
1.613786084e-07
1.5551966e-08
1.555206963e-08
1.664790082e-07
1.818052652e-08
1.720706244e-08
1.697022627e-07
1.917681006e-08
1.731321118e-07
3.196646954e-09
9.084654422e-09
7.611060722e-08
8.264269058e-09
1.464555361e-08
1.45332499e-07
1.313851501e-08
1.655964463e-08
1.641519636e-07
1.720693557e-08
1.818068166e-08
1.697023031e-07
2.016340967e-08
2.016351947e-08
1.734678948e-07
2.253468644e-08
1.77554739e-07
3.59992279e-09
7.745030893e-08
9.763576477e-09
9.222298022e-09
1.476835596e-07
1.569515076e-08
1.462771989e-08
1.670490658e-07
1.776561517e-08
1.91767172e-08
1.73132043e-07
1.955189274e-08
2.253468398e-08
1.775545814e-07
2.175125624e-08
1.824547241e-07
2.438960521e-08
2.438946053e-08
1.650283912e-09
1.650258637e-09
3.104583593e-08
4.375962908e-09
2.721861684e-09
5.937690196e-08
7.091010061e-09
3.101089145e-09
6.694780579e-08
9.39223354e-09
3.45248842e-09
6.909371917e-08
1.10634389e-08
3.911683268e-09
7.052755615e-08
4.471870719e-09
7.209124252e-08
2.721919994e-09
4.375911596e-09
5.937689969e-08
7.262191129e-09
7.262125948e-09
1.145066256e-07
1.169990697e-08
8.291824471e-09
1.29439021e-07
1.540506075e-08
9.186552654e-09
1.336184398e-07
1.806895554e-08
1.030946186e-08
1.36270593e-07
1.165969676e-08
1.390988072e-07
3.101114995e-09
7.09100964e-09
6.694786046e-08
8.291835139e-09
1.169991269e-08
1.294391675e-07
1.335444611e-08
1.335448763e-08
1.465718986e-07
1.758504711e-08
1.478313253e-08
1.515513724e-07
2.064465967e-08
1.655168175e-08
1.54849988e-07
1.866573563e-08
1.584109785e-07
3.452547993e-09
9.392266692e-09
6.909377748e-08
9.186610288e-09
1.540513157e-08
1.33618619e-07
1.478316235e-08
1.758512554e-08
1.515514328e-07
1.948943062e-08
1.948947168e-08
1.570663882e-07
2.293127625e-08
2.1841097e-08
1.609709749e-07
2.46515898e-08
1.652613847e-07
3.911731356e-09
1.106353061e-08
7.052760829e-08
1.030947619e-08
1.806911542e-08
1.36270784e-07
1.655167694e-08
2.064476168e-08
1.548501217e-07
2.184103874e-08
2.293133557e-08
1.60971068e-07
2.575915034e-08
2.575910743e-08
1.656317781e-07
2.91529002e-08
1.708581182e-07
4.471967364e-09
7.209118743e-08
1.195065923e-08
1.165975112e-08
1.39098782e-07
1.946607868e-08
1.866577199e-08
1.584108848e-07
2.227688981e-08
2.465145505e-08
1.652613499e-07
2.481635173e-08
2.915278789e-08
1.708578092e-07
2.795458781e-08
1.77304643e-07
3.172814944e-08
3.172768497e-08
1.90105828e-09
1.901050717e-09
2.724366303e-08
5.166613109e-09
3.185825787e-09
5.292541994e-08
8.472179197e-09
3.666152409e-09
5.997599264e-08
1.131260364e-08
4.132408686e-09
6.212079055e-08
1.340835386e-08
4.759876466e-09
6.367181968e-08
5.53666726e-09
6.540362603e-08
3.185858965e-09
5.16658446e-09
5.292542037e-08
8.713950958e-09
8.713934949e-09
1.034503556e-07
1.420677549e-08
1.00550543e-08
1.175572235e-07
1.885575569e-08
1.127431849e-08
1.218274273e-07
2.225761465e-08
1.284134138e-08
1.247871112e-07
1.475245395e-08
1.280276652e-07
3.666136605e-09
8.472197493e-09
5.997608443e-08
1.005500539e-08
1.420683221e-08
1.175574006e-07
1.639664667e-08
1.639674478e-08
1.338885171e-07
2.178002384e-08
1.837708479e-08
1.3906513e-07
2.575699192e-08
2.088658659e-08
1.428276335e-07
2.393598381e-08
1.470068019e-07
4.132422108e-09
1.131263956e-08
6.212090368e-08
1.12743293e-08
1.885585296e-08
1.218276797e-07
1.837708977e-08
2.178012958e-08
1.390652294e-07
2.446176427e-08
2.446183073e-08
1.448968833e-07
2.902523668e-08
2.786646162e-08
1.494275006e-07
3.201046097e-08
1.545615092e-07
4.759881305e-09
1.34084547e-08
6.367187305e-08
1.284131323e-08
2.22578198e-08
1.247873195e-07
2.088660532e-08
2.575712272e-08
1.428277463e-07
2.786636692e-08
2.902536994e-08
1.494276837e-07
3.321440468e-08
3.32144597e-08
1.549356571e-07
3.836821363e-08
1.61302554e-07
5.536738149e-09
1.455930526e-08
6.540352499e-08
1.47524958e-08
2.411311954e-08
1.280276051e-07
2.393606325e-08
2.797772682e-08
1.470066003e-07
3.201041681e-08
3.165083129e-08
1.545614749e-07
3.836835753e-08
3.641241837e-08
1.613019021e-07
4.23311911e-08
1.693789312e-07
2.742638854e-08
2.862929084e-09
1.472165804e-07
2.206270634e-08
4.028211293e-09
1.802390537e-07
1.41023895e-08
3.50653597e-09
1.828287449e-07
9.300764777e-09
3.41585525e-09
1.796336949e-07
6.416136164e-09
3.431680261e-09
1.777082303e-07
3.439875639e-09
1.76575317e-07
4.652614308e-09
2.741388816e-08
2.100876342e-09
1.469592702e-07
2.208479428e-08
3.023180288e-09
1.799452222e-07
1.411221595e-08
2.580103617e-09
1.825100981e-07
9.302309131e-09
2.516212696e-09
1.793206332e-07
6.421968134e-09
2.534761382e-09
1.773883427e-07
2.549589355e-09
1.762574181e-07
4.665915665e-09
2.741035801e-08
1.486718854e-09
1.468148984e-07
2.209784283e-08
2.170601905e-09
1.797761851e-07
1.412037175e-08
1.830861759e-09
1.823378023e-07
9.307843496e-09
1.787389325e-09
1.791524444e-07
6.431227027e-09
1.804894774e-09
1.77217574e-07
1.821200235e-09
1.760891732e-07
4.681534286e-09
2.741066187e-08
9.553900878e-10
1.467317666e-07
2.210631391e-08
1.407532443e-09
1.79678512e-07
1.412706919e-08
1.179207079e-09
1.822419979e-07
9.313870264e-09
1.152194765e-09
1.790594937e-07
6.440451164e-09
1.165653809e-09
1.771237618e-07
1.179129572e-09
1.759976176e-07
4.69602227e-09
2.741167554e-08
4.681464111e-10
1.466866678e-07
2.211159762e-08
6.931186948e-10
1.796255919e-07
1.413187271e-08
5.786043435e-10
1.8219143e-07
9.318844028e-09
5.656496202e-10
1.790106846e-07
6.447847142e-09
5.729408805e-10
1.770748303e-07
5.804897204e-10
1.75950366e-07
4.707258094e-09
2.741236203e-08
4.437217057e-15
1.466668838e-07
2.211417833e-08
7.560446699e-15
1.796023962e-07
1.413437777e-08
-1.581648881e-14
1.821695289e-07
9.321592724e-09
-3.327648883e-14
1.789895928e-07
6.451908753e-09
-3.110552709e-14
1.770537951e-07
-4.426086739e-14
1.75930213e-07
4.713375486e-09
2.74123601e-08
-4.681411551e-10
1.466668904e-07
2.211417202e-08
-6.931079814e-10
1.796023997e-07
1.41343659e-08
-5.786323385e-10
1.821695264e-07
9.321580986e-09
-5.657087496e-10
1.789895769e-07
6.451898045e-09
-5.729962861e-10
1.770537682e-07
-5.805685277e-10
1.759301782e-07
4.713369703e-09
2.741166353e-08
-9.553822308e-10
1.466866751e-07
2.211157344e-08
-1.407519585e-09
1.796255909e-07
1.413183941e-08
-1.179214272e-09
1.821914071e-07
9.318816549e-09
-1.152227125e-09
1.790106349e-07
6.44782824e-09
-1.165681643e-09
1.770747719e-07
-1.179174743e-09
1.759502877e-07
4.707253425e-09
2.741064882e-08
-1.486719235e-09
1.467317807e-07
2.210628265e-08
-2.170608744e-09
1.796785353e-07
1.412701994e-08
-1.830863242e-09
1.822419923e-07
9.313831241e-09
-1.787400506e-09
1.79059449e-07
6.4404266e-09
-1.804899536e-09
1.771237165e-07
-1.821221464e-09
1.759975691e-07
4.696008276e-09
2.741034048e-08
-2.100883446e-09
1.468149115e-07
2.209780735e-08
-3.02319986e-09
1.797761957e-07
1.41203201e-08
-2.580099531e-09
1.823377981e-07
9.307800513e-09
-2.516210273e-09
1.791524121e-07
6.431192133e-09
-2.534748609e-09
1.772175482e-07
-2.549582938e-09
1.760891449e-07
4.681510236e-09
2.74138679e-08
-2.862940544e-09
1.469592721e-07
2.208475707e-08
-4.028238745e-09
1.799452198e-07
1.411216646e-08
-3.506521714e-09
1.825100877e-07
9.302268641e-09
-3.415835069e-09
1.793206029e-07
6.421929036e-09
-3.431643345e-09
1.773883202e-07
-3.439829223e-09
1.76257383e-07
4.665886631e-09
2.742636957e-08
1.472165661e-07
-3.894789909e-09
2.206267739e-08
1.80239025e-07
-5.292494866e-09
1.410235465e-08
1.828287189e-07
-4.763840244e-09
9.300739865e-09
1.796336554e-07
-4.63679865e-09
6.416109094e-09
1.777082149e-07
-4.644147051e-09
1.765752994e-07
-4.64052845e-09
4.652595244e-09
2.318082656e-08
5.522403639e-09
1.255137063e-07
2.48200522e-08
7.256954574e-09
1.806033052e-07
2.066129556e-08
7.913187696e-09
1.891268041e-07
1.637341235e-08
8.019942891e-09
1.860991859e-07
1.294132073e-08
8.050360489e-09
1.833302112e-07
8.062549572e-09
1.814478877e-07
1.02634041e-08
2.320038347e-08
4.246097619e-09
1.250350673e-07
2.479375473e-08
5.573311265e-09
1.800352676e-07
2.065531415e-08
6.075347739e-09
1.884861285e-07
1.637809223e-08
6.154525265e-09
1.85463035e-07
1.294678585e-08
6.176449936e-09
1.826933334e-07
6.185219336e-09
1.808153189e-07
1.026606086e-08
2.320730886e-08
3.100188916e-09
1.247533615e-07
2.478154495e-08
4.069063545e-09
1.797059877e-07
2.065506353e-08
4.429905531e-09
1.881095261e-07
1.638338218e-08
4.486662614e-09
1.850918393e-07
1.295155903e-08
4.502116304e-09
1.823236126e-07
4.508189238e-09
1.804508989e-07
1.026683161e-08
2.321174167e-08
2.031795144e-09
1.245883017e-07
2.477674295e-08
2.667864023e-09
1.795145352e-07
2.065768464e-08
2.900718523e-09
1.878901071e-07
1.638900162e-08
2.937405827e-09
1.848773634e-07
1.2955889e-08
2.947284751e-09
1.821116827e-07
2.951013342e-09
1.802441609e-07
1.026657531e-08
2.321404453e-08
1.006391569e-09
1.244979305e-07
2.47752281e-08
1.321946895e-09
1.79410204e-07
2.066092056e-08
1.436102866e-09
1.877702813e-07
1.639373707e-08
1.454106397e-09
1.847611658e-07
1.295919283e-08
1.458931493e-09
1.819977742e-07
1.460641376e-09
1.801342408e-07
1.026577684e-08
2.321509166e-08
3.509138261e-14
1.244580775e-07
2.477492468e-08
5.878844016e-14
1.793643752e-07
2.066298125e-08
5.247017012e-14
1.877174975e-07
1.639640644e-08
5.664128195e-15
1.847103004e-07
1.296096503e-08
2.010717514e-14
1.819481939e-07
-3.990066869e-14
1.80086786e-07
1.026512509e-08
2.32150957e-08
-1.006333685e-09
1.244580918e-07
2.477492778e-08
-1.321846129e-09
1.793643753e-07
2.066298309e-08
-1.436014875e-09
1.877174832e-07
1.639640079e-08
-1.45410626e-09
1.847102574e-07
1.29609514e-08
-1.458910487e-09
1.81948133e-07
-1.460733511e-09
1.800867137e-07
1.026510785e-08
2.321402798e-08
-2.031738987e-09
1.244979464e-07
2.477519722e-08
-2.667786073e-09
1.79410185e-07
2.066087216e-08
-2.900653337e-09
1.877702041e-07
1.639368364e-08
-2.937424784e-09
1.847610262e-07