/*--------------------------------*- C++ -*----------------------------------*\
  =========                 |
  \\      /  F ield         | OpenFOAM: The Open Source CFD Toolbox
   \\    /   O peration     | Website:  https://openfoam.org
    \\  /    A nd           | Version:  7
     \\/     M anipulation  |
\*---------------------------------------------------------------------------*/
FoamFile
{
    version     2.0;
    format      ascii;
    class       volScalarField;
    location    "0.0021";
    object      p;
}
// * * * * * * * * * * * * * * * * * * * * * * * * * * * * * * * * * * * * * //

dimensions      [1 -1 -2 0 0 0 0];

internalField   nonuniform List<scalar> 
5000
(
76533.001
76541.976
76551.211
76560.482
76569.77
76579.063
76588.361
76597.663
76606.968
76616.276
76625.585
76634.896
76644.209
76653.522
76662.835
76672.149
76681.463
76690.777
76700.091
76709.404
76718.717
76728.03
76737.342
76746.653
76755.963
76765.273
76774.582
76783.89
76793.197
76802.503
76811.808
76821.11
76830.411
76839.71
76849.007
76858.302
76867.595
76876.888
76886.18
76895.473
76904.768
76914.064
76923.363
76932.663
76941.966
76951.27
76960.575
76969.881
76979.188
76988.494
76997.799
77007.105
77016.409
77025.713
77035.016
77044.318
77053.62
77062.921
77072.22
77081.519
77090.817
77100.115
77109.411
77118.707
77128.002
77137.296
77146.589
77155.881
77165.172
77174.463
77183.753
77193.042
77202.33
77211.617
77220.903
77230.189
77239.473
77248.757
77258.04
77267.323
77276.604
77285.885
77295.164
77304.443
77313.721
77322.999
77332.275
77341.551
77350.825
77360.099
77369.372
77378.645
77387.916
77397.187
77406.457
77415.726
77424.994
77434.261
77443.528
77452.794
77462.059
77471.323
77480.586
77489.848
77499.11
77508.371
77517.631
77526.89
77536.148
77545.406
77554.662
77563.918
77573.173
77582.427
77591.681
77600.933
77610.185
77619.436
77628.686
77637.936
77647.184
77656.432
77665.679
77674.925
77684.17
77693.415
77702.658
77711.901
77721.143
77730.385
77739.625
77748.865
77758.104
77767.342
77776.579
77785.815
77795.051
77804.286
77813.52
77822.753
77831.985
77841.217
77850.447
77859.677
77868.907
77878.135
77887.362
77896.589
77905.815
77915.04
77924.265
77933.488
77942.711
77951.933
77961.154
77970.374
77979.594
77988.812
77998.03
78007.247
78016.463
78025.679
78034.893
78044.106
78053.319
78062.531
78071.742
78080.951
78090.16
78099.368
78108.575
78117.781
78126.987
78136.191
78145.394
78154.596
78163.797
78172.998
78182.198
78191.397
78200.596
78209.794
78218.991
78228.189
78237.386
78246.583
78255.78
78264.976
78274.173
78283.37
78292.568
78301.765
78310.963
78320.16
78329.358
78338.556
78347.754
78356.952
78366.15
78375.348
78384.546
78393.743
78402.94
78412.137
78421.334
78430.53
78439.725
78448.92
78458.114
78467.308
78476.501
78485.694
78494.885
78504.076
78513.267
78522.456
78531.645
78540.833
78550.02
78559.207
78568.393
78577.578
78586.762
78595.946
78605.129
78614.311
78623.492
78632.672
78641.852
78651.031
78660.209
78669.387
78678.563
78687.739
78696.914
78706.089
78715.263
78724.435
78733.608
78742.779
78751.95
78761.119
78770.289
78779.457
78788.625
78797.791
78806.957
78816.123
78825.287
78834.451
78843.614
78852.777
78861.938
78871.099
78880.259
78889.418
78898.577
78907.735
78916.892
78926.048
78935.204
78944.359
78953.513
78962.666
78971.819
78980.97
78990.122
78999.272
79008.422
79017.57
79026.719
79035.866
79045.013
79054.158
79063.304
79072.448
79081.592
79090.735
79099.877
79109.018
79118.159
79127.299
79136.438
79145.577
79154.715
79163.852
79172.988
79182.123
79191.258
79200.392
79209.526
79218.658
79227.79
79236.921
79246.051
79255.181
79264.31
79273.438
79282.565
79291.692
79300.818
79309.943
79319.068
79328.191
79337.314
79346.436
79355.558
79364.678
79373.798
79382.917
79392.035
79401.152
79410.269
79419.384
79428.499
79437.613
79446.726
79455.838
79464.95
79474.06
79483.17
79492.279
79501.387
79510.494
79519.601
79528.707
79537.812
79546.917
79556.02
79565.124
79574.227
79583.329
79592.431
79601.533
79610.634
79619.735
79628.836
79637.936
79647.036
79656.137
79665.237
79674.337
79683.437
79692.537
79701.637
79710.736
79719.836
79728.936
79738.035
79747.135
79756.234
79765.334
79774.433
79783.531
79792.63
79801.729
79810.827
79819.924
79829.022
79838.119
79847.215
79856.311
79865.407
79874.502
79883.597
79892.691
79901.785
79910.878
79919.97
79929.062
79938.153
79947.243
79956.333
79965.422
79974.511
79983.599
79992.686
80001.772
80010.858
80019.943
80029.028
80038.112
80047.195
80056.277
80065.359
80074.44
80083.52
80092.6
80101.679
80110.757
80119.835
80128.912
80137.988
80147.063
80156.138
80165.212
80174.286
80183.358
80192.431
80201.502
80210.573
80219.642
80228.712
80237.78
80246.848
80255.915
80264.982
80274.048
80283.113
80292.177
80301.241
80310.304
80319.367
80328.428
80337.49
80346.55
80355.61
80364.669
80373.727
80382.784
80391.841
80400.898
80409.953
80419.008
80428.062
80437.116
80446.169
80455.221
80464.272
80473.323
80482.373
80491.422
80500.471
80509.519
80518.566
80527.613
80536.659
80545.704
80554.749
80563.793
80572.836
80581.878
80590.92
80599.961
80609.002
80618.041
80627.08
80636.119
80645.156
80654.193
80663.229
80672.265
80681.299
80690.333
80699.366
80708.399
80717.431
80726.462
80735.492
80744.522
80753.551
80762.58
80771.607
80780.634
80789.661
80798.687
80807.712
80816.736
80825.76
80834.784
80843.807
80852.829
80861.851
80870.873
80879.894
80888.914
80897.935
80906.955
80915.974
80924.993
80934.012
80943.031
80952.049
80961.068
80970.086
80979.103
80988.121
80997.138
81006.156
81015.173
81024.19
81033.206
81042.223
81051.239
81060.256
81069.272
81078.287
81087.303
81096.318
81105.333
81114.348
81123.363
81132.377
81141.391
81150.405
81159.418
81168.431
81177.443
81186.456
81195.467
81204.479
81213.489
81222.5
81231.51
81240.519
81249.528
81258.536
81267.544
81276.552
81285.558
81294.565
81303.57
81312.575
81321.58
81330.584
81339.587
81348.59
81357.592
81366.594
81375.595
81384.595
81393.595
81402.594
81411.593
81420.591
81429.588
81438.585
81447.581
81456.576
81465.571
81474.566
81483.559
81492.552
81501.545
81510.536
81519.528
81528.518
81537.508
81546.498
81555.487
81564.475
81573.462
81582.449
81591.436
81600.421
81609.407
81618.391
81627.375
81636.359
81645.341
81654.324
81663.305
81672.286
81681.267
81690.246
81699.226
81708.204
81717.182
81726.16
81735.136
81744.113
81753.088
81762.063
81771.038
81780.012
81788.985
81797.958
81806.93
81815.902
81824.873
81833.843
81842.813
81851.782
81860.751
81869.719
81878.687
81887.654
81896.62
81905.586
81914.551
81923.516
81932.48
81941.443
81950.406
81959.369
81968.331
81977.292
81986.252
81995.213
82004.172
82013.131
82022.089
82031.047
82040.004
82048.961
82057.917
82066.872
82075.827
82084.782
82093.735
82102.688
82111.641
82120.593
82129.544
82138.495
82147.445
82156.395
82165.344
82174.293
82183.241
82192.188
82201.135
82210.081
82219.027
82227.973
82236.917
82245.862
82254.805
82263.749
82272.692
82281.634
82290.576
82299.518
82308.459
82317.4
82326.34
82335.281
82344.22
82353.16
82362.099
82371.038
82379.976
82388.915
82397.853
82406.791
82415.728
82424.665
82433.602
82442.539
82451.476
82460.412
82469.348
82478.284
82487.219
82496.154
82505.089
82514.024
82522.958
82531.892
82540.826
82549.759
82558.692
82567.624
82576.556
82585.488
82594.419
82603.349
82612.279
82621.208
82630.137
82639.065
82647.992
82656.919
82665.845
82674.77
82683.694
82692.617
82701.539
82710.461
82719.381
82728.301
82737.219
82746.136
82755.052
82763.967
82772.881
82781.793
82790.705
82799.614
82808.523
82817.43
82826.335
82835.239
82844.141
82853.042
82861.941
82870.839
82879.734
82888.628
82897.52
82906.411
82915.299
82924.185
82933.07
82941.952
82950.832
82959.71
82968.586
82977.46
82986.331
82995.2
83004.067
83012.931
83021.792
83030.651
83039.508
83048.362
83057.213
83066.061
83074.907
83083.749
83092.589
83101.426
83110.259
83119.09
83127.917
83136.742
83145.563
83154.381
83163.195
83172.006
83180.813
83189.617
83198.418
83207.215
83216.008
83224.797
83233.583
83242.364
83251.142
83259.916
83268.686
83277.452
83286.214
83294.971
83303.725
83312.474
83321.219
83329.959
83338.695
83347.427
83356.154
83364.876
83373.594
83382.308
83391.016
83399.72
83408.419
83417.114
83425.803
83434.488
83443.167
83451.842
83460.511
83469.176
83477.835
83486.489
83495.138
83503.782
83512.421
83521.054
83529.682
83538.304
83546.921
83555.533
83564.139
83572.739
83581.334
83589.924
83598.507
83607.086
83615.658
83624.225
83632.786
83641.341
83649.891
83658.434
83666.972
83675.504
83684.03
83692.55
83701.065
83709.573
83718.075
83726.572
83735.062
83743.547
83752.025
83760.498
83768.964
83777.425
83785.88
83794.328
83802.771
83811.207
83819.638
83828.063
83836.481
83844.894
83853.301
83861.702
83870.097
83878.486
83886.869
83895.247
83903.619
83911.984
83920.344
83928.699
83937.048
83945.391
83953.728
83962.06
83970.386
83978.706
83987.022
83995.331
84003.636
84011.935
84020.228
84028.516
84036.799
84045.077
84053.35
84061.617
84069.88
84078.138
84086.39
84094.637
84102.879
84111.116
84119.35
84127.578
84135.802
84144.02
84152.234
84160.442
84168.647
84176.848
84185.044
84193.237
84201.424
84209.607
84217.785
84225.958
84234.128
84242.294
84250.457
84258.616
84266.77
84274.921
84283.067
84291.209
84299.347
84307.482
84315.613
84323.74
84331.864
84339.985
84348.103
84356.217
84364.329
84372.436
84380.54
84388.64
84396.737
84404.829
84412.919
84421.006
84429.091
84437.174
84445.254
84453.332
84461.408
84469.48
84477.55
84485.617
84493.681
84501.743
84509.801
84517.857
84525.911
84533.962
84542.011
84550.058
84558.103
84566.146
84574.186
84582.224
84590.26
84598.294
84606.327
84614.357
84622.386
84630.413
84638.439
84646.463
84654.486
84662.506
84670.525
84678.542
84686.559
84694.575
84702.59
84710.603
84718.615
84726.626
84734.635
84742.644
84750.652
84758.66
84766.666
84774.671
84782.675
84790.679
84798.683
84806.687
84814.69
84822.692
84830.693
84838.694
84846.694
84854.693
84862.693
84870.692
84878.691
84886.69
84894.688
84902.686
84910.684
84918.682
84926.681
84934.679
84942.678
84950.678
84958.678
84966.678
84974.678
84982.678
84990.679
84998.68
85006.682
85014.686
85022.69
85030.695
85038.7
85046.707
85054.714
85062.722
85070.732
85078.743
85086.756
85094.771
85102.787
85110.803
85118.821
85126.841
85134.862
85142.886
85150.912
85158.94
85166.971
85175.003
85183.038
85191.075
85199.114
85207.155
85215.198
85223.245
85231.295
85239.349
85247.406
85255.467
85263.531
85271.599
85279.669
85287.743
85295.82
85303.9
85311.985
85320.073
85328.167
85336.265
85344.367
85352.473
85360.584
85368.698
85376.817
85384.941
85393.07
85401.204
85409.344
85417.49
85425.64
85433.794
85441.953
85450.118
85458.287
85466.463
85474.645
85482.833
85491.027
85499.228
85507.434
85515.645
85523.862
85532.085
85540.314
85548.549
85556.792
85565.041
85573.298
85581.561
85589.831
85598.106
85606.388
85614.676
85622.971
85631.274
85639.584
85647.901
85656.226
85664.557
85672.895
85681.239
85689.59
85697.949
85706.315
85714.689
85723.071
85731.461
85739.859
85748.263
85756.675
85765.094
85773.52
85781.954
85790.396
85798.845
85807.302
85815.767
85824.24
85832.721
85841.21
85849.707
85858.211
85866.722
85875.241
85883.768
85892.303
85900.846
85909.398
85917.957
85926.524
85935.097
85943.679
85952.268
85960.866
85969.472
85978.086
85986.708
85995.338
86003.976
86012.62
86021.272
86029.932
86038.6
86047.275
86055.958
86064.649
86073.348
86082.055
86090.77
86099.493
86108.223
86116.961
86125.705
86134.457
86143.215
86151.98
86160.752
86169.533
86178.32
86187.115
86195.917
86204.725
86213.539
86222.361
86231.189
86240.024
86248.866
86257.714
86266.569
86275.431
86284.3
86293.176
86302.057
86310.945
86319.839
86328.738
86337.643
86346.554
86355.469
86364.391
86373.318
86382.251
86391.19
86400.134
86409.084
86418.038
86426.997
86435.961
86444.929
86453.902
86462.88
86471.864
86480.854
86489.848
86498.847
86507.85
86516.857
86525.868
86534.882
86543.899
86552.921
86561.946
86570.976
86580.01
86589.049
86598.091
86607.138
86616.187
86625.24
86634.295
86643.354
86652.416
86661.48
86670.547
86679.617
86688.69
86697.766
86706.844
86715.925
86725.008
86734.095
86743.184
86752.276
86761.37
86770.467
86779.565
86788.666
86797.769
86806.874
86815.981
86825.09
86834.201
86843.314
86852.429
86861.546
86870.664
86879.784
86888.906
86898.03
86907.155
86916.28
86925.407
86934.536
86943.666
86952.798
86961.931
86971.065
86980.2
86989.335
86998.472
87007.609
87016.749
87025.889
87035.03
87044.171
87053.314
87062.457
87071.601
87080.745
87089.89
87099.036
87108.181
87117.328
87126.475
87135.624
87144.774
87153.924
87163.075
87172.225
87181.376
87190.526
87199.677
87208.829
87217.98
87227.131
87236.282
87245.434
87254.587
87263.74
87272.895
87282.049
87291.203
87300.357
87309.511
87318.665
87327.82
87336.974
87346.128
87355.281
87364.435
87373.589
87382.745
87391.901
87401.057
87410.213
87419.368
87428.523
87437.678
87446.833
87455.988
87465.142
87474.296
87483.449
87492.603
87501.758
87510.913
87520.069
87529.224
87538.379
87547.533
87556.686
87565.839
87574.991
87584.144
87593.296
87602.447
87611.598
87620.749
87629.901
87639.053
87648.206
87657.357
87666.508
87675.656
87684.804
87693.951
87703.098
87712.246
87721.394
87730.54
87739.686
87748.831
87757.975
87767.119
87776.263
87785.406
87794.549
87803.691
87812.831
87821.97
87831.109
87840.247
87849.385
87858.522
87867.658
87876.793
87885.926
87895.058
87904.19
87913.321
87922.451
87931.58
87940.708
87949.833
87958.957
87968.079
87977.201
87986.322
87995.441
88004.559
88013.675
88022.789
88031.902
88041.013
88050.123
88059.231
88068.337
88077.441
88086.542
88095.641
88104.737
88113.833
88122.926
88132.017
88141.105
88150.191
88159.272
88168.351
88177.428
88186.502
88195.574
88204.642
88213.707
88222.769
88231.827
88240.882
88249.933
88258.981
88268.025
88277.065
88286.1
88295.132
88304.159
88313.181
88322.199
88331.213
88340.222
88349.226
88358.225
88367.219
88376.207
88385.191
88394.168
88403.14
88412.106
88421.066
88430.02
88438.968
88447.909
88456.843
88465.771
88474.691
88483.605
88492.511
88501.41
88510.301
88519.185
88528.06
88536.927
88545.786
88554.637
88563.479
88572.311
88581.135
88589.949
88598.754
88607.55
88616.335
88625.11
88633.875
88642.63
88651.373
88660.106
88668.827
88677.537
88686.236
88694.922
88703.596
88712.258
88720.907
88729.544
88738.167
88746.777
88755.374
88763.956
88772.525
88781.079
88789.618
88798.142
88806.651
88815.144
88823.622
88832.084
88840.529
88848.958
88857.37
88865.764
88874.141
88882.5
88890.842
88899.165
88907.469
88915.755
88924.022
88932.269
88940.496
88948.703
88956.89
88965.055
88973.2
88981.324
88989.426
88997.506
89005.565
89013.6
89021.613
89029.603
89037.569
89045.512
89053.431
89061.326
89069.196
89077.041
89084.861
89092.656
89100.425
89108.168
89115.884
89123.575
89131.238
89138.874
89146.483
89154.064
89161.618
89169.143
89176.639
89184.107
89191.546
89198.956
89206.336
89213.687
89221.007
89228.297
89235.557
89242.786
89249.984
89257.15
89264.285
89271.389
89278.46
89285.499
89292.506
89299.481
89306.423
89313.331
89320.207
89327.05
89333.858
89340.634
89347.375
89354.083
89360.756
89367.395
89373.999
89380.569
89387.104
89393.604
89400.068
89406.498
89412.892
89419.251
89425.574
89431.862
89438.113
89444.329
89450.509
89456.652
89462.76
89468.831
89474.866
89480.865
89486.827
89492.753
89498.642
89504.494
89510.31
89516.09
89521.833
89527.539
89533.209
89538.842
89544.439
89549.999
89555.521
89561.007
89566.457
89571.869
89577.245
89582.585
89587.889
89593.156
89598.388
89603.583
89608.742
89613.864
89618.951
89624.001
89629.016
89633.995
89638.938
89643.845
89648.717
89653.554
89658.355
89663.122
89667.853
89672.55
89677.213
89681.841
89686.435
89690.994
89695.52
89700.011
89704.468
89708.891
89713.282
89717.639
89721.963
89726.254
89730.512
89734.738
89738.931
89743.092
89747.222
89751.319
89755.386
89759.421
89763.425
89767.398
89771.34
89775.252
89779.133
89782.984
89786.806
89790.597
89794.36
89798.093
89801.797
89805.472
89809.119
89812.738
89816.329
89819.892
89823.428
89826.937
89830.418
89833.873
89837.301
89840.703
89844.078
89847.428
89850.753
89854.052
89857.326
89860.575
89863.8
89867
89870.177
89873.329
89876.458
89879.564
89882.647
89885.708
89888.746
89891.761
89894.755
89897.727
89900.677
89903.606
89906.514
89909.402
89912.269
89915.115
89917.942
89920.749
89923.537
89926.306
89929.055
89931.786
89934.499
89937.193
89939.869
89942.528
89945.169
89947.793
89950.4
89952.99
89955.564
89958.122
89960.663
89963.189
89965.699
89968.193
89970.673
89973.138
89975.588
89978.023
89980.444
89982.851
89985.245
89987.625
89989.991
89992.344
89994.684
89997.012
89999.327
90001.629
90003.919
90006.197
90008.463
90010.718
90012.962
90015.194
90017.415
90019.626
90021.825
90024.013
90026.191
90028.359
90030.518
90032.666
90034.804
90036.933
90039.053
90041.164
90043.266
90045.359
90047.442
90049.518
90051.585
90053.643
90055.694
90057.737
90059.771
90061.798
90063.817
90065.828
90067.832
90069.829
90071.819
90073.802
90075.779
90077.749
90079.712
90081.669
90083.619
90085.563
90087.501
90089.432
90091.358
90093.278
90095.193
90097.101
90099.004
90100.902
90102.794
90104.681
90106.563
90108.44
90110.311
90112.178
90114.041
90115.898
90117.751
90119.599
90121.442
90123.282
90125.117
90126.947
90128.774
90130.596
90132.414
90134.228
90136.038
90137.845
90139.647
90141.446
90143.241
90145.032
90146.82
90148.604
90150.384
90152.161
90153.935
90155.705
90157.472
90159.235
90160.995
90162.752
90164.506
90166.257
90168.004
90169.749
90171.49
90173.228
90174.963
90176.696
90178.425
90180.151
90181.875
90183.595
90185.313
90187.028
90188.74
90190.449
90192.156
90193.86
90195.561
90197.259
90198.955
90200.648
90202.338
90204.026
90205.711
90207.393
90209.073
90210.75
90212.425
90214.097
90215.766
90217.433
90219.097
90220.759
90222.418
90224.075
90225.73
90227.381
90229.031
90230.678
90232.322
90233.964
90235.603
90237.241
90238.875
90240.508
90242.138
90243.765
90245.39
90247.013
90248.633
90250.251
90251.867
90253.48
90255.091
90256.7
90258.306
90259.91
90261.512
90263.111
90264.709
90266.304
90267.897
90269.487
90271.075
90272.661
90274.244
90275.826
90277.405
90278.983
90280.558
90282.131
90283.701
90285.269
90286.835
90288.399
90289.962
90291.522
90293.08
90294.635
90296.189
90297.74
90299.289
90300.836
90302.382
90303.925
90305.466
90307.006
90308.542
90310.077
90311.61
90313.14
90314.669
90316.197
90317.722
90319.245
90320.765
90322.284
90323.8
90325.315
90326.828
90328.339
90329.848
90331.355
90332.86
90334.363
90335.863
90337.362
90338.859
90340.354
90341.848
90343.339
90344.828
90346.315
90347.799
90349.282
90350.763
90352.243
90353.72
90355.195
90356.668
90358.139
90359.608
90361.075
90362.54
90364.003
90365.465
90366.924
90368.38
90369.835
90371.287
90372.738
90374.187
90375.633
90377.078
90378.52
90379.96
90381.398
90382.833
90384.267
90385.699
90387.129
90388.557
90389.982
90391.405
90392.825
90394.243
90395.66
90397.074
90398.486
90399.896
90401.303
90402.709
90404.111
90405.512
90406.91
90408.306
90409.7
90411.092
90412.481
90413.868
90415.252
90416.634
90418.014
90419.391
90420.767
90422.14
90423.51
90424.877
90426.242
90427.605
90428.966
90430.324
90431.68
90433.034
90434.384
90435.733
90437.078
90438.422
90439.763
90441.102
90442.438
90443.771
90445.102
90446.431
90447.756
90449.08
90450.401
90451.719
90453.035
90454.349
90455.659
90456.967
90458.272
90459.575
90460.876
90462.174
90463.47
90464.762
90466.052
90467.34
90468.625
90469.908
90471.188
90472.465
90473.74
90475.012
90476.281
90477.548
90478.812
90480.074
90481.333
90482.59
90483.844
90485.095
90486.344
90487.589
90488.833
90490.074
90491.313
90492.549
90493.782
90495.012
90496.24
90497.466
90498.689
90499.909
90501.127
90502.342
90503.555
90504.765
90505.972
90507.177
90508.38
90509.58
90510.777
90511.972
90513.165
90514.354
90515.541
90516.726
90517.909
90519.089
90520.266
90521.441
90522.614
90523.784
90524.951
90526.116
90527.279
90528.439
90529.597
90530.753
90531.906
90533.056
90534.204
90535.349
90536.493
90537.634
90538.773
90539.909
90541.043
90542.174
90543.303
90544.43
90545.555
90546.677
90547.797
90548.914
90550.03
90551.143
90552.254
90553.362
90554.468
90555.572
90556.674
90557.773
90558.87
90559.965
90561.058
90562.149
90563.237
90564.323
90565.407
90566.489
90567.568
90568.646
90569.721
90570.794
90571.864
90572.933
90573.999
90575.063
90576.125
90577.184
90578.242
90579.297
90580.351
90581.402
90582.45
90583.497
90584.542
90585.584
90586.624
90587.662
90588.698
90589.731
90590.763
90591.792
90592.819
90593.844
90594.866
90595.886
90596.904
90597.92
90598.934
90599.946
90600.955
90601.963
90602.967
90603.97
90604.971
90605.969
90606.965
90607.959
90608.95
90609.939
90610.925
90611.91
90612.892
90613.872
90614.849
90615.825
90616.798
90617.768
90618.737
90619.703
90620.667
90621.629
90622.588
90623.545
90624.5
90625.452
90626.401
90627.349
90628.293
90629.236
90630.176
90631.113
90632.048
90632.981
90633.911
90634.839
90635.764
90636.687
90637.608
90638.526
90639.442
90640.355
90641.266
90642.175
90643.081
90643.984
90644.885
90645.783
90646.679
90647.572
90648.463
90649.351
90650.236
90651.119
90651.999
90652.876
90653.751
90654.623
90655.494
90656.363
90657.231
90658.095
90658.957
90659.815
90660.671
90661.524
90662.374
90663.222
90664.067
90664.91
90665.751
90666.59
90667.425
90668.258
90669.089
90669.917
90670.743
90671.568
90672.389
90673.208
90674.024
90674.836
90675.645
90676.452
90677.256
90678.058
90678.858
90679.656
90680.451
90681.243
90682.034
90682.822
90683.607
90684.391
90685.171
90685.95
90686.726
90687.499
90688.27
90689.038
90689.804
90690.568
90691.329
90692.088
90692.844
90693.598
90694.35
90695.1
90695.847
90696.592
90697.334
90698.075
90698.813
90699.549
90700.282
90701.013
90701.742
90702.469
90703.193
90703.915
90704.635
90705.352
90706.067
90706.78
90707.491
90708.2
90708.906
90709.611
90710.313
90711.013
90711.711
90712.407
90713.1
90713.792
90714.481
90715.169
90715.854
90716.537
90717.218
90717.897
90718.573
90719.248
90719.921
90720.591
90721.26
90721.926
90722.591
90723.253
90723.914
90724.572
90725.228
90725.883
90726.535
90727.185
90727.833
90728.48
90729.124
90729.766
90730.406
90731.045
90731.681
90732.315
90732.948
90733.578
90734.206
90734.833
90735.457
90736.079
90736.7
90737.318
90737.935
90738.549
90739.161
90739.772
90740.38
90740.987
90741.591
90742.194
90742.794
90743.393
90743.989
90744.584
90745.176
90745.767
90746.355
90746.941
90747.526
90748.108
90748.689
90749.267
90749.843
90750.418
90750.99
90751.56
90752.128
90752.694
90753.258
90753.82
90754.38
90754.938
90755.493
90756.047
90756.598
90757.148
90757.695
90758.24
90758.783
90759.324
90759.862
90760.399
90760.933
90761.465
90761.995
90762.523
90763.049
90763.572
90764.094
90764.613
90765.13
90765.644
90766.157
90766.667
90767.175
90767.681
90768.185
90768.686
90769.185
90769.682
90770.176
90770.669
90771.159
90771.646
90772.132
90772.615
90773.096
90773.574
90774.05
90774.524
90774.996
90775.465
90775.932
90776.397
90776.859
90777.319
90777.776
90778.231
90778.684
90779.135
90779.583
90780.028
90780.472
90780.912
90781.351
90781.787
90782.221
90782.652
90783.081
90783.507
90783.932
90784.353
90784.772
90785.189
90785.604
90786.016
90786.425
90786.833
90787.237
90787.64
90788.04
90788.437
90788.832
90789.225
90789.615
90790.003
90790.388
90790.771
90791.152
90791.53
90791.906
90792.279
90792.65
90793.019
90793.385
90793.749
90794.11
90794.469
90794.825
90795.18
90795.531
90795.881
90796.228
90796.572
90796.915
90797.255
90797.592
90797.927
90798.26
90798.591
90798.919
90799.245
90799.568
90799.89
90800.208
90800.525
90800.839
90801.151
90801.461
90801.768
90802.073
90802.376
90802.677
90802.975
90803.271
90803.565
90803.857
90804.146
90804.433
90804.718
90805.001
90805.281
90805.56
90805.836
90806.11
90806.381
90806.651
90806.919
90807.184
90807.447
90807.708
90807.967
90808.224
90808.478
90808.731
90808.981
90809.23
90809.476
90809.72
90809.962
90810.202
90810.44
90810.676
90810.909
90811.141
90811.371
90811.598
90811.824
90812.047
90812.268
90812.487
90812.705
90812.92
90813.133
90813.344
90813.553
90813.76
90813.965
90814.168
90814.369
90814.567
90814.764
90814.959
90815.151
90815.342
90815.531
90815.717
90815.901
90816.084
90816.264
90816.442
90816.619
90816.793
90816.965
90817.135
90817.303
90817.469
90817.633
90817.794
90817.954
90818.112
90818.267
90818.42
90818.572
90818.721
90818.868
90819.013
90819.156
90819.296
90819.435
90819.571
90819.706
90819.838
90819.968
90820.096
90820.221
90820.345
90820.466
90820.586
90820.702
90820.817
90820.93
90821.04
90821.148
90821.254
90821.358
90821.459
90821.559
90821.656
90821.75
90821.843
90821.933
90822.021
90822.107
90822.19
90822.271
90822.35
90822.427
90822.501
90822.573
90822.642
90822.709
90822.774
90822.836
90822.896
90822.954
90823.01
90823.063
90823.113
90823.162
90823.208
90823.251
90823.292
90823.331
90823.367
90823.401
90823.432
90823.461
90823.488
90823.512
90823.533
90823.553
90823.569
90823.584
90823.595
90823.605
90823.612
90823.616
90823.618
90823.617
90823.614
90823.609
90823.6
90823.59
90823.577
90823.561
90823.543
90823.522
90823.499
90823.473
90823.444
90823.414
90823.38
90823.344
90823.306
90823.264
90823.221
90823.175
90823.126
90823.074
90823.02
90822.964
90822.905
90822.843
90822.779
90822.712
90822.643
90822.571
90822.496
90822.419
90822.339
90822.256
90822.171
90822.084
90821.993
90821.901
90821.805
90821.707
90821.606
90821.503
90821.397
90821.288
90821.177
90821.063
90820.947
90820.828
90820.706
90820.581
90820.454
90820.325
90820.192
90820.057
90819.92
90819.78
90819.637
90819.491
90819.343
90819.192
90819.039
90818.883
90818.724
90818.563
90818.399
90818.232
90818.063
90817.891
90817.716
90817.539
90817.359
90817.177
90816.991
90816.804
90816.613
90816.42
90816.224
90816.026
90815.825
90815.621
90815.415
90815.206
90814.994
90814.78
90814.563
90814.343
90814.121
90813.896
90813.668
90813.438
90813.205
90812.97
90812.731
90812.491
90812.247
90812.001
90811.752
90811.501
90811.247
90810.99
90810.731
90810.469
90810.205
90809.938
90809.669
90809.397
90809.123
90808.846
90808.566
90808.284
90807.999
90807.712
90807.421
90807.127
90806.83
90806.53
90806.227
90805.922
90805.614
90805.304
90804.993
90804.68
90804.365
90804.048
90803.729
90803.406
90803.08
90802.75
90802.417
90802.081
90801.742
90801.402
90801.06
90800.717
90800.371
90800.022
90799.67
90799.313
90798.954
90798.592
90798.227
90797.862
90797.494
90797.124
90796.75
90796.372
90795.991
90795.608
90795.223
90794.835
90794.445
90794.052
90793.656
90793.256
90792.854
90792.45
90792.043
90791.633
90791.221
90790.806
90790.387
90789.967
90789.543
90789.117
90788.689
90788.257
90787.823
90787.386
90786.947
90786.505
90786.061
90785.614
90785.164
90784.712
90784.257
90783.799
90783.339
90782.877
90782.411
90781.944
90781.474
90781.001
90780.526
90780.048
90779.568
90779.086
90778.601
90778.113
90777.624
90777.132
90776.638
90776.142
90775.643
90775.143
90774.64
90774.135
90773.628
90773.118
90772.607
90772.092
90771.576
90771.057
90770.536
90770.014
90769.488
90768.961
90768.43
90767.897
90767.36
90766.82
90766.277
90765.73
90765.181
90764.63
90764.076
90763.52
90762.962
90762.401
90761.838
90761.271
90760.702
90760.128
90759.552
90758.972
90758.389
90757.803
90757.214
90756.624
90756.031
90755.437
90754.84
90754.24
90753.637
90753.031
90752.42
90751.805
90751.187
90750.566
90749.943
90749.319
90748.695
90748.07
90747.443
90746.814
90746.181
90745.544
90744.9
90744.251
90743.598
90742.941
90742.284
90741.628
90740.974
90740.321
90739.669
90739.015
90738.356
90737.689
90737.013
90736.328
90735.635
90734.938
90734.244
90733.554
90732.872
90732.198
90731.528
90730.857
90730.178
90729.484
90728.771
90728.042
90727.3
90726.555
90725.816
90725.089
90724.382
90723.695
90723.028
90722.366
90721.683
90720.954
90720.177
90719.379
90718.591
90717.835
90717.107
90716.463
90715.749
90714.923
90714.116
90713.362
90712.624
90711.899
90711.189
90710.479
90709.758
90709.025
90708.278
90707.523
90706.762
90706
90705.24
90704.486
90703.736
90702.991
90702.247
90701.502
90700.753
90699.999
90699.239
90698.474
90697.705
90696.933
90696.16
90695.387
90694.613
90693.84
90693.065
90692.289
90691.511
90690.73
90689.946
90689.158
90688.367
90687.574
90686.778
90685.981
90685.185
90684.385
90683.583
90682.78
90681.975
90681.168
90680.358
90679.547
90678.732
90677.916
90677.097
90676.277
90675.454
90674.63
90673.804
90672.976
90672.147
90671.315
90670.481
90669.645
90668.808
90667.968
90667.126
90666.282
90665.436
90664.589
90663.739
90662.888
90662.035
90661.18
90660.322
90659.463
90658.602
90657.739
90656.874
90656.008
90655.139
90654.268
90653.395
90652.521
90651.644
90650.766
90649.885
90649.003
90648.118
90647.232
90646.344
90645.453
90644.561
90643.667
90642.77
90641.872
90640.972
90640.069
90639.165
90638.259
90637.35
90636.44
90635.527
90634.613
90633.696
90632.777
90631.856
90630.933
90630.008
90629.081
90628.152
90627.221
90626.287
90625.352
90624.414
90623.474
90622.532
90621.588
90620.641
90619.693
90618.742
90617.789
90616.833
90615.876
90614.916
90613.954
90612.99
90612.023
90611.054
90610.083
90609.11
90608.134
90607.156
90606.176
90605.193
90604.208
90603.221
90602.231
90601.239
90600.245
90599.248
90598.249
90597.247
90596.244
90595.237
90594.229
90593.218
90592.204
90591.188
90590.17
90589.149
90588.126
90587.1
90586.072
90585.042
90584.009
90582.974
90581.936
90580.896
90579.853
90578.808
90577.761
90576.711
90575.658
90574.604
90573.546
90572.487
90571.424
90570.36
90569.293
90568.223
90567.152
90566.077
90565
90563.921
90562.84
90561.756
90560.669
90559.581
90558.489
90557.396
90556.3
90555.201
90554.101
90552.998
90551.892
90550.784
90549.674
90548.561
90547.447
90546.329
90545.21
90544.088
90542.964
90541.837
90540.708
90539.577
90538.444
90537.308
90536.17
90535.03
90533.887
90532.743
90531.596
90530.447
90529.295
90528.142
90526.986
90525.828
90524.668
90523.505
90522.341
90521.174
90520.005
90518.834
90517.661
90516.486
90515.308
90514.129
90512.948
90511.764
90510.578
90509.39
90508.201