/*--------------------------------*- C++ -*----------------------------------*\
  =========                 |
  \\      /  F ield         | OpenFOAM: The Open Source CFD Toolbox
   \\    /   O peration     | Website:  https://openfoam.org
    \\  /    A nd           | Version:  7
     \\/     M anipulation  |
\*---------------------------------------------------------------------------*/
FoamFile
{
    version     2.0;
    format      ascii;
    class       volScalarField;
    location    "0.00116";
    object      rho;
}
// * * * * * * * * * * * * * * * * * * * * * * * * * * * * * * * * * * * * * //

dimensions      [1 -3 0 0 0 0 0];

internalField   nonuniform List<scalar> 
5000
(
1.2307168
1.2307928
1.2309103
1.2310027
1.2311203
1.2312131
1.2313309
1.2314238
1.2315418
1.2316348
1.2317529
1.231846
1.2319641
1.2320572
1.2321754
1.2322683
1.2323865
1.2324793
1.2325974
1.2326901
1.2328081
1.2329006
1.2330185
1.2331109
1.2332288
1.2333212
1.2334392
1.2335316
1.2336498
1.2337423
1.2338606
1.2339533
1.2340718
1.2341645
1.2342831
1.2343758
1.2344946
1.2345873
1.2347061
1.2347987
1.2349175
1.2350102
1.235129
1.2352216
1.2353404
1.235433
1.2355517
1.2356442
1.235763
1.2358555
1.2359743
1.2360666
1.2361855
1.2362777
1.2363966
1.2364888
1.2366076
1.2366998
1.2368186
1.2369107
1.2370295
1.2371216
1.2372403
1.2373324
1.2374511
1.2375431
1.2376618
1.2377537
1.2378724
1.2379642
1.2380829
1.2381746
1.2382933
1.238385
1.2385036
1.2385952
1.2387139
1.2388054
1.238924
1.2390155
1.2391341
1.2392256
1.2393442
1.2394356
1.2395543
1.2396457
1.2397645
1.2398558
1.2399746
1.240066
1.2401849
1.2402763
1.2403952
1.2404867
1.2406055
1.2406971
1.240816
1.2409075
1.2410265
1.241118
1.241237
1.2413285
1.2414476
1.241539
1.2416581
1.2417495
1.2418686
1.2419599
1.242079
1.2421704
1.2422895
1.2423808
1.2424998
1.2425911
1.2427102
1.2428014
1.2429204
1.2430116
1.2431306
1.2432218
1.2433408
1.2434319
1.2435509
1.243642
1.2437609
1.2438519
1.2439709
1.2440618
1.2441807
1.244272
1.2443899
1.2444825
1.2445988
1.2446932
1.2448074
1.2449039
1.2450159
1.2451145
1.2452243
1.2453248
1.2454329
1.2455348
1.2456416
1.2457446
1.2458504
1.2459541
1.2460593
1.2461634
1.2462683
1.2463725
1.2464772
1.2465816
1.2466862
1.2467906
1.2468952
1.2469997
1.2471042
1.2472087
1.2473132
1.2474177
1.2475223
1.2476268
1.2477314
1.247836
1.2479405
1.2480451
1.2481497
1.2482543
1.248359
1.2484636
1.2485682
1.2486728
1.2487775
1.2488821
1.2489868
1.2490914
1.249196
1.2493007
1.2494053
1.2495099
1.2496145
1.2497191
1.2498237
1.2499283
1.2500328
1.2501374
1.2502419
1.2503464
1.2504509
1.2505554
1.2506599
1.2507643
1.2508687
1.2509731
1.2510775
1.2511819
1.2512862
1.2513905
1.2514948
1.2515991
1.2517034
1.2518076
1.2519118
1.252016
1.2521202
1.2522243
1.2523284
1.2524325
1.2525366
1.2526407
1.2527448
1.2528488
1.2529528
1.2530569
1.2531609
1.2532648
1.2533688
1.2534728
1.2535767
1.2536807
1.2537846
1.2538885
1.2539924
1.2540963
1.2542002
1.254304
1.2544079
1.2545117
1.2546155
1.2547193
1.2548231
1.2549268
1.2550305
1.2551342
1.2552379
1.2553416
1.2554452
1.2555488
1.2556523
1.2557558
1.2558593
1.2559627
1.2560661
1.2561694
1.2562727
1.256376
1.2564792
1.2565823
1.2566853
1.2567884
1.2568913
1.2569942
1.257097
1.2571997
1.2573023
1.2574049
1.2575074
1.2576098
1.2577121
1.2578143
1.2579164
1.2580184
1.2581203
1.2582222
1.2583239
1.2584254
1.2585269
1.2586283
1.2587295
1.2588306
1.2589315
1.2590323
1.259133
1.2592335
1.2593339
1.2594341
1.2595342
1.2596341
1.2597338
1.2598333
1.2599327
1.2600318
1.2601308
1.2602296
1.2603281
1.2604265
1.2605246
1.2606225
1.2607202
1.2608176
1.2609148
1.2610117
1.2611083
1.2612047
1.2613008
1.2613966
1.2614922
1.2615874
1.2616823
1.2617769
1.2618712
1.2619651
1.2620587
1.262152
1.2622448
1.2623373
1.2624295
1.2625212
1.2626125
1.2627035
1.262794
1.262884
1.2629737
1.2630628
1.2631516
1.2632398
1.2633276
1.2634148
1.2635016
1.2635878
1.2636735
1.2637587
1.2638433
1.2639273
1.2640108
1.2640936
1.2641759
1.2642575
1.2643385
1.2644189
1.2644986
1.2645776
1.2646559
1.2647336
1.2648105
1.2648866
1.264962
1.2650367
1.2651106
1.2651836
1.2652559
1.2653273
1.2653979
1.2654676
1.2655365
1.2656044
1.2656715
1.2657376
1.2658028
1.265867
1.2659302
1.2659925
1.2660537
1.2661139
1.2661731
1.2662312
1.2662882
1.2663441
1.266399
1.2664526
1.2665052
1.2665566
1.2666068
1.2666558
1.2667035
1.2667501
1.2667954
1.2668395
1.2668822
1.2669237
1.2669639
1.2670027
1.2670402
1.2670764
1.2671111
1.2671445
1.2671765
1.2672071
1.2672362
1.2672639
1.2672901
1.2673148
1.2673381
1.2673598
1.2673801
1.2673988
1.2674159
1.2674315
1.2674456
1.267458
1.2674689
1.2674782
1.2674858
1.2674918
1.2674962
1.2674989
1.2674998
1.2674992
1.2674968
1.2674928
1.267487
1.2674796
1.2674704
1.2674595
1.2674469
1.2674326
1.2674165
1.2673986
1.267379
1.2673576
1.2673344
1.2673095
1.2672827
1.2672542
1.2672239
1.2671918
1.2671578
1.2671221
1.2670846
1.2670452
1.267004
1.266961
1.2669162
1.2668695
1.2668211
1.2667707
1.2667186
1.2666646
1.2666089
1.2665512
1.2664918
1.2664305
1.2663674
1.2663025
1.2662357
1.2661672
1.2660968
1.2660246
1.2659505
1.2658747
1.2657971
1.2657177
1.2656364
1.2655534
1.2654686
1.265382
1.2652937
1.2652035
1.2651116
1.265018
1.2649226
1.2648255
1.2647266
1.264626
1.2645237
1.2644196
1.2643139
1.2642065
1.2640973
1.2639865
1.2638741
1.26376
1.2636442
1.2635268
1.2634078
1.2632872
1.2631649
1.2630411
1.2629157
1.2627887
1.2626601
1.26253
1.2623984
1.2622652
1.2621306
1.2619944
1.2618568
1.2617176
1.261577
1.261435
1.2612915
1.2611466
1.2610003
1.2608527
1.2607036
1.2605531
1.2604013
1.2602482
1.2600937
1.259938
1.2597809
1.2596225
1.2594629
1.259302
1.2591399
1.2589765
1.258812
1.2586462
1.2584793
1.2583111
1.2581419
1.2579715
1.2577999
1.2576273
1.2574536
1.2572788
1.2571029
1.256926
1.256748
1.2565691
1.2563891
1.2562081
1.2560262
1.2558433
1.2556595
1.2554747
1.2552891
1.2551025
1.2549151
1.2547268
1.2545377
1.2543477
1.254157
1.2539654
1.253773
1.2535799
1.2533861
1.2531915
1.2529962
1.2528002
1.2526035
1.2524061
1.2522081
1.2520095
1.2518102
1.2516104
1.2514099
1.2512089
1.2510074
1.2508053
1.2506027
1.2503996
1.250196
1.249992
1.2497875
1.2495825
1.2493772
1.2491715
1.2489654
1.2487589
1.2485521
1.2483449
1.2481375
1.2479297
1.2477217
1.2475134
1.2473049
1.2470962
1.2468872
1.2466781
1.2464688
1.2462594
1.2460498
1.2458401
1.2456303
1.2454204
1.2452105
1.2450005
1.2447905
1.2445805
1.2443705
1.2441605
1.2439506
1.2437407
1.243531
1.2433213
1.2431117
1.2429023
1.2426931
1.242484
1.2422751
1.2420665
1.241858
1.2416498
1.2414419
1.2412343
1.241027
1.24082
1.2406134
1.2404071
1.2402012
1.2399958
1.2397907
1.2395861
1.239382
1.2391783
1.2389751
1.2387725
1.2385704
1.2383689
1.2381679
1.2379676
1.2377678
1.2375687
1.2373703
1.2371726
1.2369755
1.2367792
1.2365836
1.2363888
1.2361948
1.2360015
1.2358091
1.2356176
1.2354268
1.235237
1.2350481
1.2348601
1.2346731
1.234487
1.2343019
1.2341178
1.2339348
1.2337527
1.2335718
1.2333919
1.2332132
1.2330356
1.2328591
1.2326838
1.2325097
1.2323368
1.2321651
1.2319947
1.2318256
1.2316577
1.2314912
1.231326
1.2311621
1.2309996
1.2308385
1.2306788
1.2305206
1.2303638
1.2302084
1.2300545
1.2299022
1.2297514
1.2296021
1.2294543
1.2293082
1.2291637
1.2290207
1.2288794
1.2287398
1.2286018
1.2284655
1.2283309
1.2281981
1.2280669
1.2279376
1.22781
1.2276841
1.2275601
1.2274379
1.2273176
1.227199
1.2270824
1.2269676
1.2268547
1.2267437
1.2266346
1.2265274
1.2264222
1.226319
1.2262177
1.2261184
1.226021
1.2259257
1.2258324
1.225741
1.2256517
1.2255645
1.2254793
1.2253961
1.225315
1.225236
1.225159
1.2250841
1.2250113
1.2249406
1.224872
1.2248054
1.224741
1.2246787
1.2246184
1.2245603
1.2245043
1.2244504
1.2243986
1.2243489
1.2243013
1.2242558
1.2242124
1.2241711
1.2241319
1.2240947
1.2240597
1.2240268
1.2239959
1.2239671
1.2239403
1.2239156
1.2238929
1.2238723
1.2238537
1.223837
1.2238224
1.2238098
1.2237992
1.2237905
1.2237838
1.223779
1.2237762
1.2237752
1.2237762
1.223779
1.2237837
1.2237903
1.2237986
1.2238088
1.2238208
1.2238345
1.22385
1.2238673
1.2238862
1.2239069
1.2239292
1.2239532
1.2239788
1.224006
1.2240348
1.2240652
1.2240971
1.2241306
1.2241655
1.2242019
1.2242398
1.2242791
1.2243198
1.224362
1.2244054
1.2244502
1.2244963
1.2245437
1.2245924
1.2246423
1.2246934
1.2247458
1.2247992
1.2248539
1.2249096
1.2249665
1.2250244
1.2250834
1.2251434
1.2252044
1.2252663
1.2253293
1.2253932
1.225458
1.2255237
1.2255902
1.2256576
1.2257258
1.2257948
1.2258647
1.2259352
1.2260065
1.2260786
1.2261513
1.2262247
1.2262988
1.2263735
1.2264488
1.2265247
1.2266012
1.2266784
1.226756
1.2268342
1.2269129
1.226992
1.2270717
1.2271519
1.2272325
1.2273135
1.227395
1.2274768
1.2275591
1.2276417
1.2277247
1.2278081
1.2278918
1.2279759
1.2280602
1.2281449
1.2282298
1.228315
1.2284005
1.2284863
1.2285723
1.2286585
1.228745
1.2288317
1.2289186
1.2290057
1.229093
1.2291805
1.2292682
1.2293561
1.2294441
1.2295322
1.2296205
1.229709
1.2297976
1.2298863
1.2299752
1.2300641
1.2301532
1.2302423
1.2303316
1.230421
1.2305105
1.2306
1.2306896
1.2307794
1.2308691
1.230959
1.2310489
1.2311389
1.2312289
1.231319
1.2314092
1.2314993
1.2315896
1.2316798
1.2317702
1.2318605
1.2319509
1.2320413
1.2321318
1.2322223
1.2323128
1.2324033
1.2324938
1.2325844
1.232675
1.2327656
1.2328562
1.2329468
1.2330375
1.2331282
1.2332188
1.2333095
1.2334002
1.2334909
1.2335815
1.2336722
1.233763
1.2338536
1.2339444
1.234035
1.2341258
1.2342165
1.2343072
1.2343979
1.2344886
1.2345793
1.2346699
1.2347607
1.2348513
1.234942
1.2350327
1.2351233
1.235214
1.2353047
1.2353953
1.235486
1.2355766
1.2356672
1.2357579
1.2358485
1.2359391
1.2360297
1.2361203
1.2362109
1.2363014
1.236392
1.2364826
1.2365731
1.2366636
1.2367541
1.2368447
1.2369352
1.2370257
1.2371162
1.2372066
1.2372971
1.2373876
1.237478
1.2375685
1.2376589
1.2377493
1.2378397
1.2379301
1.2380205
1.2381109
1.2382012
1.2382916
1.238382
1.2384723
1.2385626
1.2386529
1.2387432
1.2388335
1.2389238
1.2390141
1.2391043
1.2391946
1.2392848
1.2393751
1.2394653
1.2395555
1.2396457
1.2397359
1.2398261
1.2399162
1.2400064
1.2400965
1.2401866
1.2402768
1.2403669
1.240457
1.2405471
1.2406372
1.2407273
1.2408173
1.2409074
1.2409974
1.2410874
1.2411775
1.2412675
1.2413575
1.2414475
1.2415375
1.2416274
1.2417174
1.2418073
1.2418973
1.2419872
1.2420771
1.242167
1.2422569
1.2423468
1.2424367
1.2425266
1.2426164
1.2427062
1.2427961
1.2428859
1.2429757
1.2430655
1.2431553
1.243245
1.2433348
1.2434246
1.2435143
1.2436041
1.2436938
1.2437835
1.2438732
1.2439629
1.2440526
1.2441423
1.2442319
1.2443216
1.2444112
1.2445009
1.2445905
1.2446801
1.2447697
1.2448593
1.2449488
1.2450384
1.2451279
1.2452175
1.245307
1.2453966
1.2454861
1.2455756
1.2456651
1.2457546
1.2458441
1.2459335
1.246023
1.2461124
1.2462018
1.2462912
1.2463806
1.2464699
1.2465593
1.2466486
1.246738
1.2468272
1.2469165
1.2470058
1.2470951
1.2471843
1.2472735
1.2473627
1.2474519
1.2475411
1.2476303
1.2477196
1.2478089
1.2478983
1.2479876
1.2480769
1.2481661
1.2482554
1.2483447
1.2484339
1.2485231
1.2486123
1.2487015
1.2487907
1.2488798
1.248969
1.2490581
1.2491473
1.2492364
1.2493255
1.2494145
1.2495036
1.2495927
1.2496817
1.2497708
1.2498598
1.2499488
1.2500378
1.2501268
1.2502158
1.2503048
1.2503938
1.2504827
1.2505717
1.2506606
1.2507495
1.2508384
1.2509273
1.2510162
1.2511051
1.251194
1.2512828
1.2513717
1.2514605
1.2515494
1.2516382
1.251727
1.2518158
1.2519046
1.2519934
1.2520821
1.2521709
1.2522597
1.2523484
1.2524371
1.2525259
1.2526146
1.2527033
1.252792
1.2528806
1.2529693
1.253058
1.2531466
1.2532353
1.2533239
1.2534125
1.2535011
1.2535897
1.2536783
1.2537669
1.2538555
1.253944
1.2540326
1.2541211
1.2542096
1.2542982
1.2543867
1.2544752
1.2545637
1.2546521
1.2547406
1.2548291
1.2549175
1.255006
1.2550944
1.2551828
1.2552712
1.2553596
1.255448
1.2555364
1.2556247
1.2557131
1.2558014
1.2558898
1.2559781
1.2560664
1.2561547
1.256243
1.2563313
1.2564196
1.2565079
1.2565961
1.2566844
1.2567726
1.2568608
1.256949
1.2570372
1.2571254
1.2572136
1.2573018
1.25739
1.2574781
1.2575663
1.2576544
1.2577425
1.2578307
1.2579187
1.2580068
1.2580949
1.258183
1.2582711
1.2583591
1.2584472
1.2585352
1.2586232
1.2587112
1.2587993
1.2588872
1.2589752
1.2590632
1.2591512
1.2592391
1.2593271
1.259415
1.2595029
1.2595908
1.2596788
1.2597666
1.2598545
1.2599424
1.2600303
1.2601181
1.260206
1.2602938
1.2603817
1.2604695
1.2605573
1.2606451
1.2607328
1.2608206
1.2609084
1.2609962
1.2610839
1.2611716
1.2612594
1.2613471
1.2614348
1.2615225
1.2616102
1.2616979
1.2617856
1.2618732
1.2619609
1.2620485
1.2621361
1.2622238
1.2623114
1.262399
1.2624866
1.2625741
1.2626617
1.2627493
1.2628368
1.2629244
1.2630119
1.2630995
1.263187
1.2632745
1.263362
1.2634495
1.263537
1.2636245
1.2637119
1.2637994
1.2638868
1.2639742
1.2640617
1.2641491
1.2642365
1.2643239
1.2644113
1.2644987
1.2645861
1.2646734
1.2647608
1.2648482
1.2649355
1.2650228
1.2651102
1.2651975
1.2652848
1.2653721
1.2654594
1.2655467
1.2656339
1.2657212
1.2658084
1.2658957
1.2659829
1.2660702
1.2661574
1.2662446
1.2663318
1.266419
1.2665062
1.2665934
1.2666805
1.2667677
1.2668549
1.266942
1.2670292
1.2671163
1.2672035
1.2672905
1.2673777
1.2674648
1.2675519
1.267639
1.267726
1.2678131
1.2679002
1.2679873
1.2680743
1.2681613
1.2682484
1.2683354
1.2684224
1.2685094
1.2685965
1.2686834
1.2687704
1.2688574
1.2689444
1.2690314
1.2691183
1.2692053
1.2692922
1.2693792
1.2694661
1.2695531
1.2696399
1.2697269
1.2698137
1.2699007
1.2699875
1.2700745
1.2701613
1.2702482
1.2703351
1.2704219
1.2705088
1.2705956
1.2706824
1.2707693
1.2708561
1.2709429
1.2710297
1.2711166
1.2712033
1.2712902
1.2713769
1.2714637
1.2715504
1.2716373
1.271724
1.2718108
1.2718975
1.2719842
1.272071
1.2721577
1.2722444
1.2723311
1.2724178
1.2725046
1.2725912
1.272678
1.2727646
1.2728513
1.272938
1.2730246
1.2731113
1.273198
1.2732846
1.2733713
1.2734579
1.2735445
1.2736312
1.2737178
1.2738044
1.273891
1.2739776
1.2740642
1.2741508
1.2742373
1.2743239
1.2744105
1.2744971
1.2745837
1.2746702
1.2747567
1.2748433
1.2749298
1.2750164
1.2751029
1.2751894
1.2752759
1.2753624
1.2754489
1.2755354
1.2756219
1.2757084
1.2757949
1.2758814
1.2759679
1.2760543
1.2761408
1.2762272
1.2763137
1.2764001
1.2764866
1.276573
1.2766594
1.2767458
1.2768323
1.2769187
1.2770051
1.2770915
1.2771779
1.2772643
1.2773506
1.277437
1.2775234
1.2776098
1.2776961
1.2777825
1.2778688
1.2779552
1.2780415
1.2781278
1.2782142
1.2783005
1.2783868
1.2784731
1.2785594
1.2786457
1.278732
1.2788183
1.2789046
1.2789908
1.2790771
1.2791634
1.2792496
1.2793359
1.2794221
1.2795084
1.2795946
1.2796808
1.2797671
1.2798533
1.2799395
1.2800257
1.2801119
1.2801981
1.2802843
1.2803705
1.2804566
1.2805428
1.280629
1.2807151
1.2808013
1.2808874
1.2809736
1.2810597
1.2811458
1.2812319
1.281318
1.2814042
1.2814903
1.2815763
1.2816624
1.2817485
1.2818346
1.2819206
1.2820067
1.2820928
1.2821788
1.2822648
1.2823509
1.2824369
1.2825229
1.2826089
1.2826949
1.2827809
1.2828669
1.2829529
1.2830389
1.2831248
1.2832108
1.2832968
1.2833827
1.2834686
1.2835546
1.2836405
1.2837264
1.2838123
1.2838982
1.2839841
1.28407
1.2841559
1.2842417
1.2843276
1.2844135
1.2844993
1.2845851
1.284671
1.2847568
1.2848426
1.2849284
1.2850142
1.2851
1.2851858
1.2852716
1.2853573
1.2854431
1.2855288
1.2856146
1.2857003
1.285786
1.2858717
1.2859574
1.2860431
1.2861288
1.2862145
1.2863002
1.2863859
1.2864715
1.2865572
1.2866428
1.2867284
1.286814
1.2868997
1.2869853
1.2870709
1.2871564
1.287242
1.2873276
1.2874132
1.2874987
1.2875842
1.2876698
1.2877553
1.2878408
1.2879263
1.2880118
1.2880973
1.2881828
1.2882683
1.2883537
1.2884392
1.2885246
1.2886101
1.2886955
1.2887809
1.2888663
1.2889517
1.2890371
1.2891225
1.2892079
1.2892933
1.2893786
1.289464
1.2895493
1.2896346
1.2897199
1.2898053
1.2898906
1.2899759
1.2900611
1.2901464
1.2902317
1.2903169
1.2904022
1.2904874
1.2905727
1.2906579
1.2907431
1.2908283
1.2909135
1.2909987
1.2910839
1.291169
1.2912542
1.2913393
1.2914245
1.2915096
1.2915947
1.2916799
1.291765
1.2918501
1.2919352
1.2920202
1.2921053
1.2921904
1.2922754
1.2923605
1.2924455
1.2925305
1.2926156
1.2927006
1.2927856
1.2928705
1.2929555
1.2930405
1.2931255
1.2932104
1.2932954
1.2933803
1.2934652
1.2935502
1.2936351
1.29372
1.2938049
1.2938897
1.2939746
1.2940595
1.2941443
1.2942292
1.294314
1.2943988
1.2944837
1.2945685
1.2946533
1.294738
1.2948228
1.2949076
1.2949924
1.2950771
1.2951618
1.2952466
1.2953313
1.295416
1.2955007
1.2955854
1.2956701
1.2957548
1.2958394
1.2959241
1.2960087
1.2960934
1.296178
1.2962626
1.2963472
1.2964318
1.2965164
1.296601
1.2966856
1.2967701
1.2968547
1.2969392
1.2970237
1.2971082
1.2971927
1.2972772
1.2973617
1.2974462
1.2975307
1.2976151
1.2976996
1.297784
1.2978684
1.2979529
1.2980373
1.2981217
1.2982061
1.2982904
1.2983748
1.2984591
1.2985435
1.2986278
1.2987121
1.2987965
1.2988808
1.2989651
1.2990493
1.2991336
1.2992179
1.2993021
1.2993864
1.2994706
1.2995549
1.2996391
1.2997233
1.2998075
1.2998916
1.2999758
1.30006
1.3001442
1.3002283
1.3003124
1.3003966
1.3004807
1.3005648
1.3006489
1.3007329
1.300817
1.3009011
1.3009851
1.3010692
1.3011532
1.3012372
1.3013213
1.3014053
1.3014893
1.3015732
1.3016572
1.3017412
1.3018252
1.3019091
1.3019931
1.302077
1.3021609
1.3022448
1.3023287
1.3024126
1.3024965
1.3025803
1.3026642
1.302748
1.3028319
1.3029157
1.3029995
1.3030834
1.3031672
1.303251
1.3033347
1.3034185
1.3035023
1.303586
1.3036698
1.3037535
1.3038373
1.303921
1.3040047
1.3040884
1.3041721
1.3042557
1.3043394
1.3044231
1.3045067
1.3045904
1.304674
1.3047576
1.3048412
1.3049248
1.3050084
1.305092
1.3051755
1.3052591
1.3053427
1.3054262
1.3055098
1.3055933
1.3056768
1.3057603
1.3058438
1.3059273
1.3060108
1.3060943
1.3061777
1.3062611
1.3063446
1.306428
1.3065114
1.3065948
1.3066782
1.3067616
1.306845
1.3069284
1.3070118
1.3070951
1.3071785
1.3072618
1.3073451
1.3074284
1.3075117
1.307595
1.3076783
1.3077616
1.3078449
1.3079281
1.3080114
1.3080946
1.3081779
1.3082611
1.3083443
1.3084275
1.3085107
1.3085939
1.308677
1.3087602
1.3088434
1.3089265
1.3090097
1.3090928
1.3091759
1.309259
1.3093421
1.3094252
1.3095083
1.3095913
1.3096744
1.3097574
1.3098405
1.3099235
1.3100066
1.3100896
1.3101726
1.3102556
1.3103386
1.3104215
1.3105045
1.3105874
1.3106704
1.3107533
1.3108362
1.3109192
1.3110021
1.311085
1.3111679
1.3112508
1.3113336
1.3114165
1.3114993
1.3115822
1.311665
1.3117478
1.3118306
1.3119134
1.3119962
1.312079
1.3121618
1.3122445
1.3123273
1.31241
1.3124928
1.3125755
1.3126582
1.3127409
1.3128236
1.3129063
1.312989
1.3130716
1.3131543
1.3132369
1.3133196
1.3134022
1.3134848
1.3135674
1.31365
1.3137326
1.3138152
1.3138977
1.3139803
1.3140628
1.3141454
1.3142279
1.3143104
1.3143929
1.3144754
1.3145579
1.3146404
1.3147228
1.3148053
1.3148877
1.3149701
1.3150525
1.3151349
1.3152173
1.3152997
1.3153821
1.3154644
1.3155468
1.3156291
1.3157114
1.3157938
1.3158761
1.3159583
1.3160406
1.3161229
1.3162051
1.3162873
1.3163696
1.3164518
1.316534
1.3166161
1.3166983
1.3167804
1.3168626
1.3169447
1.3170268
1.3171089
1.317191
1.317273
1.3173551
1.3174371
1.3175191
1.3176011
1.317683
1.317765
1.3178469
1.3179288
1.3180107
1.3180926
1.3181745
1.3182563
1.3183381
1.3184199
1.3185017
1.3185834
1.3186651
1.3187468
1.3188285
1.3189102
1.3189918
1.3190734
1.319155
1.3192365
1.319318
1.3193995
1.3194809
1.3195624
1.3196438
1.3197251
1.3198064
1.3198877
1.319969
1.3200502
1.3201314
1.3202125
1.3202936
1.3203747
1.3204557
1.3205367
1.3206177
1.3206986
1.3207794
1.3208602
1.320941
1.3210217
1.3211023
1.3211829
1.3212635
1.321344
1.3214244
1.3215048
1.3215851
1.3216653
1.3217455
1.3218257
1.3219057
1.3219857
1.3220656
1.3221455
1.3222253
1.322305
1.3223846
1.3224641
1.3225436
1.322623
1.3227022
1.3227815
1.3228606
1.3229396
1.3230185
1.3230974
1.3231761
1.3232547
1.3233333
1.3234117
1.32349
1.3235682
1.3236463
1.3237242
1.3238021
1.3238798
1.3239574
1.3240349
1.3241122
1.3241894
1.3242665
1.3243434
1.3244202
1.3244968
1.3245733
1.3246496
1.3247258
1.3248018
1.3248777
1.3249534
1.3250289
1.3251042
1.3251794
1.3252544
1.3253292
1.3254038
1.3254783
1.3255525
1.3256266
1.3257004
1.325774
1.3258475
1.3259207
1.3259937
1.3260665
1.326139
1.3262114
1.3262835
1.3263553
1.326427
1.3264983
1.3265695
1.3266404
1.326711
1.3267814
1.3268515
1.3269213
1.3269909
1.3270602
1.3271292
1.3271979
1.3272664
1.3273345
1.3274024
1.3274699
1.3275372
1.3276041
1.3276707
1.3277371
1.3278031
1.3278687
1.3279341
1.3279991
1.3280638
1.3281281
1.3281921
1.3282558
1.3283191
1.328382
1.3284446
1.3285068
1.3285687
1.3286302
1.3286913
1.328752
1.3288124
1.3288723
1.3289319
1.3289911
1.3290499
1.3291083
1.3291663
1.3292239
1.3292811
1.3293379
1.3293942
1.3294502
1.3295057
1.3295608
1.3296155
1.3296697
1.3297236
1.3297769
1.3298299
1.3298824
1.3299345
1.3299861
1.3300373
1.330088
1.3301383
1.3301881
1.3302375
1.3302864
1.3303349
1.3303829
1.3304305
1.3304775
1.3305242
1.3305703
1.330616
1.3306613
1.330706
1.3307503
1.3307941
1.3308375
1.3308804
1.3309228
1.3309647
1.3310062
1.3310472
1.3310877
1.3311278
1.3311673
1.3312064
1.3312451
1.3312833
1.331321
1.3313582
1.331395
1.3314313
1.3314671
1.3315025
1.3315373
1.3315718
1.3316057
1.3316392
1.3316723
1.3317049
1.331737
1.3317687
1.3317999
1.3318306
1.331861
1.3318908
1.3319203
1.3319492
1.3319778
1.3320059
1.3320336
1.3320608
1.3320876
1.332114
1.3321399
1.3321655
1.3321906
1.3322153
1.3322395
1.3322634
1.3322869
1.3323099
1.3323326
1.3323548
1.3323767
1.3323982
1.3324192
1.3324399
1.3324603
1.3324802
1.3324998
1.332519
1.3325379
1.3325563
1.3325745
1.3325922
1.3326097
1.3326268
1.3326435
1.3326599
1.332676
1.3326917
1.3327071
1.3327222
1.332737
1.3327515
1.3327657
1.3327795
1.3327931
1.3328063
1.3328193
1.332832
1.3328444
1.3328565
1.3328684
1.3328799
1.3328913
1.3329023
1.3329131
1.3329237
1.3329339
1.332944
1.3329538
1.3329634
1.3329727
1.3329818
1.3329907
1.3329994
1.3330078
1.333016
1.3330241
1.3330319
1.3330395
1.3330469
1.3330542
1.3330612
1.333068
1.3330747
1.3330812
1.3330875
1.3330937
1.3330996
1.3331054
1.3331111
1.3331166
1.3331219
1.3331271
1.3331322
1.333137
1.3331418
1.3331464
1.3331509
1.3331552
1.3331595
1.3331636
1.3331675
1.3331714
1.3331751
1.3331788
1.3331823
1.3331857
1.333189
1.3331922
1.3331953
1.3331983
1.3332012
1.3332041
1.3332068
1.3332094
1.3332119
1.3332144
1.3332168
1.3332191
1.3332213
1.3332234
1.3332255
1.3332275
1.3332295
1.3332314
1.3332332
1.3332349
1.3332366
1.3332383
1.3332399
1.3332414
1.3332428
1.3332442
1.3332456
1.3332469
1.3332482
1.3332494
1.3332505
1.3332517
1.3332527
1.3332538
1.3332548
1.3332557
1.3332567
1.3332576
1.3332584
1.3332592
1.33326
1.3332608
1.3332615
1.3332622
1.3332629
1.3332636
1.3332642
1.3332648
1.3332653
1.3332659
1.3332664
1.3332669
1.3332674
1.3332678
1.3332682
1.3332687
1.333269
1.3332694
1.3332698
1.3332701
1.3332705
1.3332708
1.3332711
1.3332714
1.3332716
1.3332719
1.3332721
1.3332724
1.3332726
1.3332728
1.333273
1.3332732
1.3332734
1.3332735
1.3332737
1.3332738
1.333274
1.3332741
1.3332742
1.3332743
1.3332744
1.3332745
1.3332746
1.3332747
1.3332748
1.3332749
1.333275
1.333275
1.3332751
1.3332751
1.3332752
1.3332752
1.3332753
1.3332753
1.3332753
1.3332754
1.3332754
1.3332754
1.3332754
1.3332754
1.3332754
1.3332754
1.3332754
1.3332754
1.3332754
1.3332754
1.3332754
1.3332754
1.3332754
1.3332754
1.3332753
1.3332753
1.3332753
1.3332753
1.3332753
1.3332752
1.3332752
1.3332752
1.3332751
1.3332751
1.333275
1.333275
1.333275
1.3332749
1.3332749
1.3332749
1.3332748
1.3332747
1.3332747
1.3332746
1.3332746
1.3332745
1.3332745
1.3332744
1.3332744
1.3332743
1.3332743
1.3332742
1.3332742
1.3332741
1.333274
1.333274
1.3332739
1.3332738
1.3332738
1.3332737
1.3332737
1.3332736
1.3332735
1.3332735
1.3332734
1.3332733
1.3332733
1.3332732
1.3332731
1.333273
1.333273
1.3332729
1.3332728
1.3332728
1.3332727
1.3332726
1.3332725
1.3332725
1.3332724
1.3332723
1.3332722
1.3332721
1.3332721
1.333272
1.3332719
1.3332718
1.3332717
1.3332716
1.3332716
1.3332715
1.3332714
1.3332713
1.3332712
1.3332711
1.3332711
1.333271
1.3332709
1.3332708
1.3332707
1.3332706
1.3332705
1.3332704
1.3332703
1.3332702
1.3332701
1.33327
1.3332699
1.3332698
1.3332697
1.3332696
1.3332695
1.3332694
1.3332693
1.3332692
1.3332691
1.333269
1.3332689
1.3332688
1.3332687
1.3332686
1.3332685
1.3332684
1.3332682
1.3332681
1.333268
1.3332679
1.3332678
1.3332677
1.3332676
1.3332675
1.3332674
1.3332672
1.3332671
1.333267
1.3332669
1.3332668
1.3332667
1.3332666
1.3332664
1.3332663
1.3332662
1.3332661
1.3332659
1.3332658
1.3332657
1.3332655
1.3332654
1.3332653
1.3332651
1.333265
1.3332649
1.3332647
1.3332646
1.3332644
1.3332643
1.3332641
1.333264
1.3332638
1.3332637
1.3332636
1.3332634
1.3332633
1.3332632
1.333263
1.3332629
1.3332628
1.3332626
1.3332625
1.3332623
1.3332622
1.333262
1.3332618
1.3332617
1.3332615
1.3332614
1.3332612
1.3332611
1.3332609
1.3332608
1.3332606
1.3332604
1.3332603
1.3332601
1.3332599
1.3332598
1.3332596
1.3332594
1.3332592
1.3332591
1.3332589
1.3332587
1.3332585
1.3332584
1.3332582
1.333258
1.3332579
1.3332577
1.3332575
1.3332573
1.3332571
1.3332569
1.3332567
1.3332565
1.3332564
1.3332562
1.333256
1.3332558
1.3332556
1.3332554
1.3332552
1.333255
1.3332548
1.3332546
1.3332544
1.3332542
1.333254
1.3332537
1.3332535
1.3332533
1.3332531
1.3332528
1.3332526
1.3332524
1.3332522
1.3332519
1.3332517
1.3332515
1.3332512
1.333251
1.3332508
1.3332505
1.3332503
1.3332501
1.3332498
1.3332496
1.3332493
1.3332491
1.3332489
1.3332486
1.3332483
1.3332481
1.3332478
1.3332475
1.3332472
1.333247
1.3332467
1.3332464
1.3332461
1.3332458
1.3332456
1.3332453
1.333245
1.3332447
1.3332444
1.3332441
1.3332438
1.3332435
1.3332431
1.3332428
1.3332425
1.3332422
1.3332418
1.3332415
1.3332412
1.3332408
1.3332405
1.3332401
1.3332397
1.3332394
1.333239
1.3332386
1.3332382
1.3332379
1.3332375
1.3332371
1.3332367
1.3332363
1.3332359
1.3332355
1.3332351
1.3332347
1.3332343
1.3332339
1.3332334
1.333233
1.3332325
1.333232
1.3332316
1.3332311
1.3332306
1.33323
1.3332295
1.333229
1.3332285
1.333228
1.3332275
1.333227
1.3332264
1.3332259
1.3332254
1.3332248
1.3332243
1.3332238
1.3332232
1.3332227
1.3332221
1.3332216
1.333221
1.3332205
1.3332199
1.3332194
1.3332189
1.3332184
1.3332179
1.3332175
1.333217
1.3332166
1.3332163
1.3332159
1.3332156
1.3332153
1.3332151
1.3332149
1.3332147
1.3332146
1.3332146
1.3332145
1.3332145
1.3332145
1.3332145
1.3332145
1.3332146
1.3332148
1.3332151
1.3332153
1.3332155
1.3332157
1.3332158
1.3332159
1.333216
1.333216
1.333216
1.333216
1.333216
1.3332159
1.3332156
1.3332149
1.333214
1.3332131
1.333212
1.3332109
1.3332097
1.3332086
1.3332074
1.3332062
1.333205
1.3332037
1.3332024
1.3332011
1.3331997
1.3331983
1.333197
1.3331957
1.3331946
1.3331935
1.3331925
1.3331917
1.3331909
1.3331903
1.3331897
1.3331893
1.333189
1.3331889
1.3331889
1.3331889
1.3331889
1.3331889
1.3331888
1.3331883
1.3331872
1.3331845
1.3331778
1.3331606
1.333115
1.3329926
1.3326613
1.331759
1.3292884
1.3246322
1.3192931
1.3135525
1.3076447
1.3017927
1.2961908
1.2909917
1.286301
1.2821774
1.2786388
1.27567
1.2732316
1.271269
1.2697193
1.2685181
1.2676034
1.266919
1.2664156
1.2660516
1.2657929
1.2656124
1.265489
1.2654065
1.265353
1.2653195
1.2652997
1.265289
1.265284
1.2652825
1.2652825
1.2652836
1.2652876
1.2652933
1.2652982
1.2653025
1.2653063
1.2653097
1.2653127
1.2653154
1.2653178
1.26532
1.2653221
1.2653241
1.2653259
1.2653277
1.2653293
1.2653309
1.2653325
1.2653339
1.2653353
1.2653367
1.2653381
1.2653394
1.2653408
1.2653422
1.2653436
1.2653451
1.2653467
1.2653485
1.2653503
1.2653522
1.2653542
1.2653563
1.2653584
1.2653606
1.2653629
1.2653651
1.2653674
1.2653696
1.2653717
1.2653738
1.2653759
1.2653778
1.2653797
1.2653815
1.2653832
1.2653848
1.2653863
1.2653878
1.2653891
1.2653904
1.2653916
1.2653928
1.2653938
1.2653949
1.2653958
1.2653967
1.2653976
1.2653985
1.2653993
1.2654001
1.2654008
1.2654016
1.2654023
1.265403
1.2654037
1.2654043
1.265405
1.2654056
1.2654062
1.2654068
1.2654074
1.2654079
1.2654085
1.265409
1.2654095
1.26541
1.2654105
1.265411
1.2654115
1.265412
1.2654125
1.265413
1.2654134
1.2654139
1.2654143
1.2654148
1.2654152
1.2654156
1.265416
1.2654164
1.2654168
1.2654172
1.2654176
1.265418
1.2654183
1.2654187
1.265419
1.2654194
1.2654197
1.2654201
1.2654204
1.2654208
1.2654211
1.2654214
1.2654218
1.2654221
1.2654224
1.2654227
1.265423
1.2654234
1.2654236
1.2654239
1.2654242
1.2654245
1.2654248
1.2654251
1.2654253
1.2654256
1.2654259
1.2654261
1.2654264
1.2654266
1.2654269
1.2654271
1.2654274
1.2654276
1.2654279
1.2654281
1.2654283
1.2654286
1.2654288
1.265429
1.2654292
1.2654295
1.2654297
1.2654299
1.2654301
1.2654303
1.2654305
1.2654307
1.265431
1.2654312
1.2654314
1.2654316
1.2654317
1.2654319
1.2654321
1.2654323
1.2654325
1.2654327
1.2654329
1.265433
1.2654332
1.2654334
1.2654336
1.2654338
1.2654339
1.2654341
1.2654343
1.2654345
1.2654346
1.2654348
1.265435
1.2654351
1.2654353
1.2654354
1.2654356
1.2654357
1.2654359
1.265436
1.2654362
1.2654363
1.2654365
1.2654366
1.2654367
1.2654369
1.265437
1.2654371
1.2654373
1.2654374
1.2654375
1.2654376
1.2654378
1.2654379
1.265438
1.2654381
1.2654382
1.2654383
1.2654384
1.2654385
1.2654386
1.2654387
1.2654388
1.2654389
1.265439
1.265439
1.2654391
1.2654392
1.2654392
1.2654393
1.2654393
1.2654393
1.2654394
1.2654394
1.2654394
1.2654394
1.2654394
1.2654394
1.2654394
1.2654394
1.2654394
1.2654393
1.2654393
1.2654392
1.2654391
1.2654391
1.265439
1.2654388
1.2654387
1.2654386
1.2654384
1.2654383
1.2654381
1.2654379
1.2654377
1.2654375
1.2654372
1.2654369
1.2654367
1.2654363
1.265436
1.2654357
1.2654353
1.2654349
1.2654345
1.265434
1.2654335
1.265433
1.2654325
1.2654319
1.2654314
1.2654307
1.2654301
1.2654294
1.2654287
1.2654279
1.2654271
1.2654262
1.2654254
1.2654244
1.2654235
1.2654224
1.2654214
1.2654203
1.2654191
1.2654179
1.2654167
1.2654154
1.265414
1.2654126
1.2654111
1.2654095
1.2654079
1.2654062
1.2654045
1.2654026
1.2654007
1.2653988
1.2653967
1.2653946
1.2653924
1.2653901
1.2653877
1.2653852
1.2653827
1.26538
1.2653773
1.2653744
1.2653715
1.2653684
1.2653652
1.265362
1.2653586
1.2653551
1.2653515
1.2653477
1.2653438
1.2653398
1.2653357
1.2653314
1.265327
1.2653224
1.2653177
1.2653129
1.2653078
1.2653027
1.2652973
1.2652918
1.2652862
1.2652803
1.2652743
1.2652681
1.2652617
1.2652552
1.2652484
1.2652415
1.2652343