-1.25 	299.9970307992697 	0.9998063363364789 	101324.9999999999
-1.247497497497497 	299.9941648820883 	0.9873259468597662 	101318.1164016952
-1.244994994994995 	299.9885229265634 	0.9668607798550752 	101311.4502518634
-1.242492492492492 	299.9830858993096 	0.951157121893326 	101305.0096345059
-1.23998998998999 	299.9779471108033 	0.9362889856221849 	101298.9321007068
-1.237487487487487 	299.9732099191853 	0.922593048893245 	101293.3325703338
-1.234984984984985 	299.9689640629039 	0.9103222891570439 	101288.3143270925
-1.232482482482482 	299.9652880013652 	0.8996982637541115 	101283.9697088045
-1.22997997997998 	299.9622485548916 	0.8909146072931313 	101280.3777085567
-1.227477477477477 	299.9599021719174 	0.8841343250985697 	101277.6048023958
-1.224974974974975 	299.958292505871 	0.8794832880017089 	101275.70252287
-1.222472472472472 	299.9574486463616 	0.8770456731334479 	101274.7052527728
-1.21996996996997 	299.9573848175845 	0.8768642050621618 	101274.6301031258
-1.217467467467467 	299.958102974644 	0.8789419507188065 	101275.4787433999
-1.214964964964965 	299.9595900726768 	0.8832402490235473 	101277.2356033885
-1.212462462462462 	299.9618168246052 	0.8896777046083739 	101279.8669518824
-1.20995995995996 	299.9647421253318 	0.898134642141609 	101283.324081643
-1.207457457457457 	299.9683124336914 	0.9084554561583 	101287.5435880782
-1.204954954954955 	299.9724618232258 	0.9204500349689426 	101292.4476836728
-1.202452452452452 	299.9771142461666 	0.9338983103992734 	101297.946495442
-1.19994994994995 	299.9821846009912 	0.9485542802545466 	101303.9396030048
-1.197447447447447 	299.9875799810696 	0.964149373470651 	101310.3171823873
-1.194944944944945 	299.9932015334698 	0.9803979839865279 	101316.9623766649
-1.192442442442442 	299.9989467689038 	0.9970037822339561 	101323.7540936737
-1.18993993993994 	300.0047109846694 	1.013663934635147 	101330.568596138
-1.187437437437437 	300.0103884554263 	1.030073329356102 	101337.2809521399
-1.184934934934935 	300.0158752352513 	1.045931573493182 	101343.7681383506
-1.182432432432432 	300.0210714731146 	1.060949793197655 	101349.9120484659
-1.17992992992993 	300.0258826781313 	1.074854743763331 	101355.6009396125
-1.177427427427427 	300.0302209221618 	1.087392501401997 	101360.7308259564
-1.174924924924925 	300.0340066191804 	1.098333243423925 	101365.2075615851
-1.172422422422422 	300.0371703843747 	1.107476182080689 	101368.9488871533
-1.16991991991992 	300.0396542071381 	1.114653984978466 	101371.8862080289
-1.167417417417417 	300.0414128713621 	1.119736190472658 	101373.9661312071
-1.164914914914915 	300.0424147272471 	1.122630654825989 	101375.151040347
-1.162412412412412 	300.042641577028 	1.123283215389113 	101375.4189302279
-1.15990990990991 	300.0420869783224 	1.121678109734662 	101374.7628814132
-1.157407407407407 	300.0407594599004 	1.117841870422248 	101373.1935358705
-1.154904904904904 	300.0386845114876 	1.111844629268362 	101370.7401264439
-1.152402402402403 	300.0359000173251 	1.103795424415438 	101367.4473157474
-1.1498998998999 	300.0324556970074 	1.093839532246429 	101363.3743902224
-1.147397397397397 	300.0284142143308 	1.08215771806541 	101358.5954123403
-1.144894894894895 	300.0238492765399 	1.068962957731519 	101353.1976339532
-1.142392392392392 	300.0188441728423 	1.054496180829259 	101347.2796605112
-1.13988988988989 	300.0134906175621 	1.039022293926724 	101340.9498892295
-1.137387387387387 	300.0078870519333 	1.022825890945915 	101334.3247994595
-1.134884884884885 	300.0021370221393 	1.006206195386343 	101327.5268533853
-1.132382382382382 	299.9963470040025 	0.9894710144831689 	101320.6820240195
-1.12987987987988 	299.9906242457242 	0.972930003189419 	101313.9169880768
-1.127377377377377 	299.9850743742423 	0.956888580437727 	101307.3565549926
-1.124874874874875 	299.9797997131525 	0.9416430754232575 	101301.1217993
-1.122372372372372 	299.9748980616299 	0.9274757761678281 	101295.3281582781
-1.11986986986987 	299.9704601225213 	0.9146489721089737 	101290.0828751372
-1.117367367367367 	299.9665678659628 	0.9033991756049251 	101285.4825585095
-1.114864864864865 	299.9632926004858 	0.8939326969673718 	101281.6114965199
-1.112362362362362 	299.9606938466964 	0.8864219900589754 	101278.5401651128
-1.10985985985986 	299.9588184231451 	0.8810022695146742 	101276.3237797422
-1.107357357357357 	299.9576993985538 	0.8777692600387357 	101275.0014000288
-1.104854854854855 	299.9573558893928 	0.8767787798429736 	101274.5956549118
-1.102352352352353 	299.9577938683571 	0.8780472143543963 	101275.1134155821
-1.09984984984985 	299.9590054193635 	0.881549550047634 	101276.5448541486
-1.097347347347347 	299.9609662828776 	0.8872175998353856 	101278.8618207549
-1.094844844844845 	299.9636386251682 	0.8949431423933285 	101282.0199606203
-1.092342342342342 	299.9669729285072 	0.9045820357264666 	101285.9605272162
-1.08983983983984 	299.9709078370966 	0.9159570164901315 	101290.6111229238
-1.087337337337337 	299.9753716684079 	0.9288604936869702 	101295.8870096985
-1.084834834834835 	299.980283128778 	0.9430573817147314 	101301.6921774513
-1.082332332332332 	299.9855526318333 	0.9582888620300702 	101307.9208130302
-1.07982982982983 	299.9910841804829 	0.9742775761985956 	101314.4595000956
-1.077327327327327 	299.9967772678073 	0.9907331649314977 	101321.1895507765
-1.074824824824825 	300.0025288662392 	1.007357269434827 	101327.9889775609
-1.072322322322323 	300.0082345096677 	1.023848357027781 	101334.7344413363
-1.06981981981982 	300.0137905651081 	1.039906960248139 	101341.3034273943
-1.067317317317317 	300.019096142236 	1.055241189356729 	101347.5764978887
-1.064814814814815 	300.0240545812957 	1.069572071895657 	101353.4394751531
-1.062312312312312 	300.0285757233397 	1.082638580397066 	101358.7855141567
-1.05980980980981 	300.0325770152746 	1.094202405942671 	101363.517032846
-1.057307307307307 	300.0359853114037 	1.104052452207723 	101367.5475721657
-1.054804804804805 	300.0387385164819 	1.11200873404229 	101370.8034487425
-1.052302302302302 	300.0407860586905 	1.117925221541896 	101373.2248824454
-1.0497997997998 	300.0420898130709 	1.121691864232764 	101374.7667772507
-1.047297297297297 	300.0426250779812 	1.123236377089313 	101375.3995933033
-1.044794794794795 	300.0423801632468 	1.122525100211134 	101375.1095627758
-1.042292292292292 	300.0413562545524 	1.119565255297186 	101373.899029104
-1.03978978978979 	300.0395718220315 	1.114407839588647 	101371.7892372585
-1.037287287287287 	300.0370594683661 	1.107145199781337 	101368.8183007735
-1.034784784784785 	300.0338635556581 	1.097907011625466 	101365.0390957892
-1.032282282282283 	300.0300414666782 	1.086859127882609 	101360.5194962275
-1.02977977977978 	300.0256625045563 	1.074201989754848 	101355.3415604743
-1.027277277277277 	300.0208068478876 	1.060167281637995 	101349.6001598061
-1.024774774774775 	300.015564007765 	1.045013726996922 	101343.4012197223
-1.022272272272272 	300.0100311853653 	1.029022201941481 	101336.8597114002
-1.01976976976977 	300.0043114023797 	1.012490185970974 	101330.0974140954
-1.017267267267267 	299.9985112162049 	0.9957257390610388 	101323.2403883132
-1.014764764764765 	299.9927387156899 	0.9790414250161477 	101316.416449898
-1.012262262262262 	299.9871016288339 	0.9627485195276755 	101309.7528794329
-1.00975975975976 	299.9817052285634 	0.9471512139586169 	101303.3740750616
-1.007257257257257 	299.9766500946728 	0.9325403004705829 	101297.3989393303
-1.004754754754755 	299.972030017334 	0.9191867604608114 	101291.9382468315
-1.002252252252252 	299.9679299759092 	0.9073363225993124 	101287.0923783879
-0.9997497497497498 	299.9644247680924 	0.8972052554808198 	101282.9496434647
-0.9972472472472473 	299.9615777723524 	0.8889768791573003 	101279.5849342766
-0.9947447447447449 	299.9594399819616 	0.8827984102926866 	101277.0584067133
-0.9922422422422421 	299.9580488681883 	0.8787782161603181 	101275.4143102128
-0.9897397397397399 	299.9574276545353 	0.8769841591143083 	101274.6802839957
-0.9872372372372376 	299.9575858299082 	0.8774440718600253 	101274.8675502257
-0.9847347347347346 	299.9585202547913 	0.8801454917255787 	101275.9715542356
-0.9822322322322323 	299.9602114027612 	0.8850336692401544 	101277.9697329389
-0.9797297297297296 	299.9626257777377 	0.8920134009105234 	101280.8229494417
-0.9772272272272275 	299.9657182200125 	0.9009532787950016 	101284.4776660257
-0.9747247247247248 	299.9694316985386 	0.9116881107849013 	101288.8664587031
-0.9722222222222224 	299.973698215287 	0.9240213189969014 	101293.9090463185
-0.9697197197197196 	299.9784400924635 	0.9377284062338644 	101299.5137047673
-0.9672172172172175 	299.98357141963 	0.9525610197331392 	101305.5789442031
-0.9647147147147147 	299.9889996350803 	0.9682513825222747 	101311.9953440413
-0.9622122122122124 	299.9946268154865 	0.9845167296464785 	101318.6473374551
-0.9597097097097099 	300.0003516112256 	1.001063742646522 	101325.4150102893
-0.9572072072072073 	300.0060705859865 	1.017593450579166 	101332.1760638877
-0.9547047047047047 	300.0116800608341 	1.033806834093013 	101338.8081330574
-0.9522022022022023 	300.0170787933587 	1.049410671162965 	101345.1912385336
-0.9496996996996998 	300.0221691252667 	1.064122954919168 	101351.210011276
-0.9471971971971973 	300.0268589952844 	1.077677614634923 	101356.7555692121
-0.9446946946946947 	300.0310634825211 	1.089828803416798 	101361.727277245
-0.9421921921921923 	300.0347057870559 	1.100355074174962 	101366.0344611239
-0.93968968968969 	300.0377191705816 	1.109063376005928 	101369.5980526459
-0.9371871871871872 	300.0400479859422 	1.115792575814954 	101372.3520516982
-0.9346846846846848 	300.0416483479644 	1.120416438307438 	101374.2447414766
-0.9321821821821823 	300.0424896144161 	1.122845999874522 	101375.2396809514
-0.9296796796796799 	300.0425548799573 	1.123030367132035 	101375.3162929989
-0.9271771771771771 	300.0418382584476 	1.120957415505349 	101374.468977365
-0.9246746746746748 	300.0403506382601 	1.116657598010587 	101372.7102057982
-0.9221721721721724 	300.0381184325331 	1.1102048355248 	101370.0706547253
-0.9196696696696698 	300.0351806664558 	1.101712759062235 	101366.5967408392
-0.9171671671671672 	300.0315897732783 	1.091332793742724 	101362.3503800798
-0.9146646646646649 	300.0274104191951 	1.079252683431322 	101357.408474185
-0.9121621621621623 	300.0227192249642 	1.065693302710567 	101351.8614528884
-0.9096596596596597 	300.0176026823137 	1.050904716030148 	101345.8116746962
-0.9071571571571573 	300.0121557740143 	1.035161936452755 	101339.3717068208
-0.9046546546546547 	300.0064808965753 	1.018759941671706 	101332.662294687
-0.9021521521521524 	300.0006846879429 	1.002007589912236 	101325.8098829674
-0.8996496496496498 	299.9948766050551 	0.9852208508705558 	101318.9437709619
-0.8971471471471473 	299.9891661664154 	0.9687160326525011 	101312.1933206023
-0.894644644644645 	299.9836605451993 	0.9528032973851068 	101305.6853637233
-0.892142142142142 	299.9784629175382 	0.9377804777253103 	101299.5416680012
-0.8896396396396397 	299.9736699299466 	0.9239271471633664 	101293.8764978933
-0.8871371371371374 	299.9693700101915 	0.9114990971528576 	101288.7943844918
-0.8846346346346349 	299.9656419006222 	0.9007234929987658 	101284.3881397064
-0.8821321321321324 	299.9625527603 	0.8917947542175517 	101280.7371649863
-0.8796296296296297 	299.960157272261 	0.8848712060485471 	101277.9061232383
-0.8771271271271271 	299.958497012025 	0.8800727006957683 	101275.9439421398
-0.8746246246246248 	299.9575994880891 	0.8774792304441043 	101274.8832399223
-0.8721221221221224 	299.957478117772 	0.8771308754172311 	101274.7401642463
-0.8696196196196196 	299.9581341915747 	0.8790281357338611 	101275.5153710056
-0.8671171171171175 	299.9595532490937 	0.883129726711369 	101277.1920556741
-0.8646146146146148 	299.961706055765 	0.8893527592827317 	101279.7359913582
-0.8621121121121121 	299.964551116269 	0.8975774814975666 	101283.0982948508
-0.8596096096096097 	299.9680356555457 	0.9076506792813805 	101287.2164709738
-0.857107107107107 	299.9720959233791 	0.9193879349063594 	101292.0152053769
-0.8546046046046049 	299.9766582646509 	0.9325765356266478 	101297.4076445156
-0.8521021021021022 	299.9816406606312 	0.9469788394760676 	101303.2967183406
-0.8495995995995997 	299.9869535324529 	0.9623360127994263 	101309.5766590936
-0.8470970970970974 	299.9925013941829 	0.9783722453789385 	101316.1347355093
-0.8445945945945946 	299.9981846229057 	0.9947995124382296 	101322.853176395
-0.8420920920920922 	300.0039011728016 	1.011322756255919 	101329.6112946143
-0.8395895895895897 	300.0095483533954 	1.027645313665126 	101336.2877407864
-0.8370870870870872 	300.0150248665175 	1.043474268371452 	101342.7626952818
-0.8345845845845846 	300.0202323274356 	1.058525358302258 	101348.9198647406
-0.8320820820820823 	300.0250769520802 	1.072527564550185 	101354.6483536007
-0.8295795795795798 	300.0294713477444 	1.085227726373693 	101359.8445232454
-0.8270770770770772 	300.0333354119926 	1.096395081502322 	101364.4138858455
-0.8245745745745746 	300.0365985979766 	1.105825338382677 	101368.2728030926
-0.8220720720720721 	300.0392005742915 	1.113344105943241 	101371.3498718468
-0.8195695695695699 	300.0410922433431 	1.118809759555056 	101373.5870680076
-0.817067067067067 	300.0422370080345 	1.122116055987332 	101374.9408498829
-0.8145645645645651 	300.0426112120917 	1.123194184709119 	101375.3831579722
-0.8120620620620621 	300.0422039858929 	1.122013413385638 	101374.9012610909
-0.8095595595595597 	300.0410177826909 	1.118584499231635 	101373.4989462432
-0.8070570570570572 	300.0390729770883 	1.112962852049727 	101371.199462208
-0.8045545545545546 	300.0364034306212 	1.105245415747164 	101368.0425887442
-0.8020520520520523 	300.0330554688866 	1.09556758189815 	101364.083577562
-0.7995495495495494 	300.0290888983117 	1.08410233263542 	101359.3932234952
-0.7970470470470474 	300.0245760613724 	1.071058341307887 	101354.0569565751
-0.7945445445445446 	300.0196001604371 	1.056676672198378 	101348.173466131
-0.7920420420420423 	300.0142544430153 	1.041226425369153 	101341.8529384507
-0.7895395395395397 	300.0086398842644 	1.024999336974778 	101335.2148306984
-0.7870370370370371 	300.0028631046757 	1.008303483836228 	101328.3852659103
-0.7845345345345348 	299.9970341029976 	0.9914564561000501 	101321.4942202901
-0.7820320320320323 	299.9912635872832 	0.9747784909014673 	101314.6727014974
-0.7795295295295296 	299.9856610027539 	0.9585857359019584 	101308.0500067142
-0.7770270270270272 	299.9803320712642 	0.943183566342308 	101301.75100935
-0.7745245245245247 	299.9753764026905 	0.9288601571725402 	101295.893521394
-0.7720220220220222 	299.9708858139197 	0.9158806788337757 	101290.5858956632
-0.7695195195195199 	299.9669422625783 	0.904482365183126 	101285.9250441307
-0.767017017017017 	299.9636168141191 	0.894870477951963 	101281.994795149
-0.7645145145145147 	299.9609682543734 	0.8872150260962441 	101278.8645695586
-0.7620120120120122 	299.9590421893491 	0.8816481295794812 	101276.5883157372
-0.7595095095095097 	299.9578706828225 	0.8782621440304388 	101275.2037484256
-0.7570070070070072 	299.9574712428346 	0.8771088964125435 	101274.7318768552
-0.7545045045045048 	299.9578481885082 	0.8782005615454417 	101275.177683117
-0.7520020020020022 	299.9589929796656 	0.8815087185298948 	101276.5300577704
-0.7494994994994997 	299.9608801033454 	0.8869635161261049 	101278.7599809171
-0.7469969969969972 	299.9634724458924 	0.8944577330386174 	101281.8235840488
-0.7444944944944945 	299.9667216673155 	0.9038507030176114 	101285.663564786
-0.7419919919919924 	299.9705680806785 	0.9149700862899489 	101290.2095823811
-0.7394894894894897 	299.974942125671 	0.9276142247058319 	101295.3792701505
-0.7369869869869872 	299.9797649322552 	0.9415554272319251 	101301.0796187926
-0.7344844844844846 	299.9849500284907 	0.9565438588541855 	101307.2085486612
-0.7319819819819822 	299.99040500354 	0.9723117790982193 	101313.6566308313
-0.7294794794794797 	299.9960323880114 	0.9885779090427231 	101320.3088914391
-0.7269769769769773 	300.0017318166101 	1.005052090014756 	101327.0466983104
-0.7244744744744747 	300.0074016851217 	1.021440327287329 	101333.7497764949
-0.721971971971972 	300.0129405817434 	1.03745007576669 	101340.2984499107
-0.7194694694694695 	300.0182497664279 	1.05279545802901 	101346.5757732339
-0.7169669669669674 	300.0232343090267 	1.067202064019286 	101352.4694700084
-0.7144644644644647 	300.0278046026347 	1.08041126894694 	101357.8737138219
-0.711961961961962 	300.031878287332 	1.092184309425406 	101362.690790611
-0.7094594594594597 	300.0353807864344 	1.102306179538165 	101366.8326515434
-0.7069569569569573 	300.0382472107966 	1.110589308785099 	101370.2224715552
-0.7044544544544545 	300.0404234883031 	1.116877097216285 	101372.7960977925
-0.7019519519519523 	300.0418670191277 	1.121047131046581 	101374.5033476455
-0.6994494494494495 	300.0425484223203 	1.123013703942043 	101375.309146973
-0.6969469469469471 	300.042451600704 	1.12272863816083 	101375.1940168542
-0.6944444444444446 	300.041571353556 	1.120183009580093 	101374.1534010508
-0.6919419419419421 	300.0399208502297 	1.115411886732279 	101372.2020122236
-0.6894394394394396 	300.0375279672805 	1.108494158352383 	101369.3724118234
-0.6869369369369374 	300.0344335008156 	1.099548763339279 	101365.7131315985
-0.6844344344344344 	300.0306920328604 	1.088733782679313 	101361.2888275081
-0.6819319319319321 	300.0263712832436 	1.076245121358885 	101356.1797037788
-0.6794294294294296 	300.0215510693088 	1.062313494616522 	101350.4802179195
-0.6769269269269272 	300.0163219459411 	1.047200316184577 	101344.2974058523
-0.6744244244244245 	300.0107831558401 	1.031192584300747 	101337.7487879262
-0.6719219219219222 	300.0050408604139 	1.01459673569054 	101330.9598432185
-0.6694194194194195 	299.9992054176244 	0.9977316081066616 	101324.0611008029
-0.6669169169169172 	299.9933888442424 	0.9809209667366028 	101317.1850548319
-0.6644144144144146 	299.9877025130395 	0.9644861433448439 	101310.4631531532
-0.661911911911912 	299.982254125266 	0.9487390670743087 	101304.0229472633
-0.6594094094094097 	299.9771463034402 	0.9339758414718149 	101297.9854775433
-0.656906906906907 	299.9724739184146 	0.9204709897409331 	101292.4629252177
-0.6544044044044046 	299.9683226549492 	0.908472353217189 	101287.5565528379
-0.6519019019019021 	299.9647676338772 	0.898196582857298 	101283.3548701484
-0.6493993993993996 	299.961871458293 	0.8898253301871435 	101279.9320692639
-0.6468968968968971 	299.959683999105 	0.8835023242727975 	101277.3468151626
-0.6443943943943946 	299.9582410658228 	0.8793315256447949 	101275.6415272951
-0.6418918918918921 	299.957564531008 	0.8773764228364247 	101274.8420447736
-0.6393893893893897 	299.9576622462487 	0.8776610228362514 	101274.9579156352
-0.6368868868868871 	299.9585304125591 	0.8801702865592508 	101275.9836564904
-0.6343843843843846 	299.9601489799655 	0.8848481711013462 	101277.8960369906
-0.6318818818818821 	299.9624845031869 	0.8915997239283111 	101280.6560678561
-0.6293793793793795 	299.965492669777 	0.9002959533527969 	101284.2111731068
-0.6268768768768773 	299.969117986298 	0.9107760613296614 	101288.4957261598
-0.6243743743743745 	299.9732943335143 	0.9228496472718494 	101293.4319886232
-0.6218718718718721 	299.9779472102069 	0.9362997503441308 	101298.9313397319
-0.6193693693693696 	299.9829933707136 	0.9508862145362963 	101304.8956809901
-0.6168668668668671 	299.9883427948686 	0.9663494943222891 	101311.2189707312
-0.6143643643643645 	299.9939006864041 	0.982414967978788 	101317.7889389456
-0.6118618618618621 	299.9995682888164 	0.9987976197452479 	101324.4890333207
-0.6093593593593596 	300.0052453459325 	1.015207063407208 	101331.2005114212
-0.6068568568568571 	300.0108311729175 	1.031352670021548 	101337.8044849584
-0.6043543543543546 	300.0162268067269 	1.046948380083963 	101344.1839551347
-0.6018518518518521 	300.0213365778874 	1.061717151790029 	101350.2256096262
-0.5993493493493496 	300.0260690450476 	1.075395257182336 	101355.8215257997
-0.5968468468468471 	300.030339225472 	1.087736454949884 	101360.8709032296
-0.5943443443443446 	300.0340692997034 	1.09851609196835 	101365.2817897578
-0.591841841841842 	300.0371903021199 	1.107535023213703 	101368.9726225791
-0.5893393393393397 	300.0396434797203 	1.114623143114185 	101371.8737184935
-0.5868368368368371 	300.0413810068944 	1.119642578046733 	101373.928601025
-0.5843343343343346 	300.0423674002753 	1.122490591050251 	101375.0951428706
-0.5818318318318321 	300.0425803766991 	1.12310141780763 	101375.3466048915
-0.5793293293293297 	300.0420093698399 	1.121447096540373 	101374.67115737
-0.5768268268268271 	300.0406585349602 	1.117542265736411 	101373.074299983
-0.5743243243243245 	300.0385502289965 	1.111447017296747 	101370.5813011736
-0.5718218218218221 	300.0357194382403 	1.103263323553518 	101367.2337780356
-0.5693193193193196 	300.0322149947917 	1.093133260273613 	101363.0897547968
-0.5668168168168171 	300.0280997992011 	1.081238555254754 	101358.2236134902
-0.5643143143143147 	300.0234496062674 	1.067798409770949 	101352.7250992801
-0.5618118118118121 	300.0183521171724 	1.053065768604228 	101346.6977880555
-0.5593093093093094 	300.0129045960775 	1.037322180146152 	101340.25699548
-0.5568068068068072 	300.0072123537639 	1.020871394256456 	101333.5271359856
-0.5543043043043046 	300.0013857643004 	1.004032063305332 	101326.6386910009
-0.551801801801802 	299.9955374541543 	0.9871300805072378 	101319.7250338513
-0.5492992992992995 	299.989780418166 	0.9704911180572874 	101312.9193983465
-0.5467967967967969 	299.9842244915382 	0.9544335794130787 	101306.3519961652
-0.5442942942942947 	299.9789752242498 	0.9392618661070009 	101300.1472967505
-0.5417917917917919 	299.974130976598 	0.9252600648526287 	101294.4214260455
-0.5392892892892895 	299.9697807095731 	0.9126862860845018 	101289.2798501247
-0.536786786786787 	299.966003428602 	0.901767837153742 	101284.8154100778
-0.5342842842842846 	299.9628654335508 	0.892697419040537 	101281.1068044158
-0.531781781781782 	299.9604205858948 	0.8856303597753836 	101278.2174255836
-0.5292792792792794 	299.958709155521 	0.8806827500916847 	101276.1946436454
-0.526776776776777 	299.957756905542 	0.8779304318206882 	101275.0693818828
-0.5242742742742745 	299.9575761928854 	0.8774093137516217 	101274.8560536103
-0.521771771771772 	299.9581665712408 	0.8791167727791103 	101275.5538566555
-0.5192692692692695 	299.9595138967258 	0.8830101924895203 	101277.145668709
-0.516766766766767 	299.9615886859692 	0.8890072478100449 	101279.5972784039
-0.5142642642642645 	299.9643501798115 	0.8969908286033554 	101282.8609920685
-0.511761761761762 	299.9677475514887 	0.9068119830688669 	101286.8760756017
-0.5092592592592596 	299.9717186541463 	0.9182915915484035 	101291.5693827797
-0.506756756756757 	299.9761918809282 	0.931223015118495 	101296.8565316219
-0.5042542542542544 	299.9810878446772 	0.945375523988795 	101302.6432631564
-0.5017517517517521 	299.9863191661129 	0.9604981187135068 	101308.8270001959
-0.4992492492492494 	299.9917939865847 	0.976323669149186 	101315.2985866103
-0.496746746746747 	299.9974155805168 	0.9925733714017804 	101321.9440486814
-0.4942442442442445 	300.0030849650618 	1.008961340516523 	101328.6464724317
-0.4917417417417421 	300.0087027268924 	1.025199296692818 	101335.287973172
-0.4892392392392395 	300.0141695932188 	1.041001371665627 	101341.7516262482
-0.486736736736737 	300.019389471023 	1.056088674801336 	101347.9233433937
-0.4842342342342345 	300.0242695621711 	1.070193545129694 	101353.6936364023
-0.481731731731732 	300.0287226143244 	1.083063701719311 	101358.9592666515
-0.4792292292292296 	300.0326681485427 	1.094466190014066 	101363.6248561065
-0.4767267267267268 	300.0360334195836 	1.104191155256675 	101367.6045038502
-0.4742242242242246 	300.0387552148945 	1.112055575748782 	101370.8232387525
-0.471721721721722 	300.0407806059558 	1.117906796487298 	101373.2184927017
-0.4692192192192195 	300.0420683205911 	1.121625683788729 	101374.7414480529
-0.4667167167167169 	300.0425899288928 	1.123129286631446 	101375.3581780402
-0.4642142142142145 	300.0423298955893 	1.122371643730725 	101375.0500168119
-0.461711711711712 	300.0412837564288 	1.119346859297383 	101373.8134783217
-0.4592092092092094 	300.0394671233302 	1.114094624382335 	101371.6654961885
-0.456706706706707 	300.0369090265895 	1.10669907789218 	101368.6405411513
-0.4542042042042045 	300.0336527393994 	1.097285831693641 	101364.7898571394
-0.451701701701702 	300.0297558485905 	1.086022024929294 	101360.1818248811
-0.4491991991991995 	300.0252900159055 	1.073114612530127 	101354.9011865581
-0.4466966966966969 	300.0203394126532 	1.058806717031854 	101349.0475279472
-0.4441941941941945 	300.0149989434192 	1.043372667147836 	101342.7332001015
-0.441691691691692 	300.009372355215 	1.027111848586986 	101336.0808151969
-0.4391891891891895 	300.0035695237605 	1.010341615524471 	101329.2203520681
-0.436686686686687 	299.9977037736687 	0.9933895733797992 	101322.2859244191
-0.4341841841841846 	299.9918894851217 	0.9765856382240721 	101315.4125418679
-0.431681681681682 	299.9862387670747 	0.9602543703642619 	101308.7329759146
-0.4291791791791794 	299.9808598325068 	0.9447078098200735 	101302.3748168346
-0.426676676676677 	299.9758538160257 	0.9302388661760783 	101296.4577904172
-0.4241741741741744 	299.9713135181775 	0.9171154999224084 	101291.0914181812
-0.421671671671672 	299.9673212445327 	0.9055757844415641 	101286.3729438342
-0.4191691691691694 	299.9639475802929 	0.8958238261807817 	101282.3857152931
-0.4166666666666669 	299.9612502983379 	0.8880266838445979 	101279.1979244745
-0.4141641641641645 	299.9592736114519 	0.8823123840454314 	101276.8618005057
-0.411661661661662 	299.9580478899609 	0.8787688682220006 	101275.4131933364
-0.4091591591591594 	299.9575894649717 	0.877444007708247 	101274.8715302525
-0.406656656656657 	299.9579012903195 	0.8783473919629605 	101275.2405120382
-0.4041541541541545 	299.9589752211771 	0.8814500415937404 	101276.5090895183
-0.401651651651652 	299.9607856381901 	0.8866828218992828 	101278.648364545
-0.3991491491491494 	299.9632961491688 	0.8939402006959224 	101281.6152237752
-0.396646646646647 	299.966459320079 	0.903084503546024 	101285.3535614756
-0.3941441441441444 	299.9702171105405 	0.9139476074194058 	101289.7947441945
-0.3916416416416419 	299.9745016418063 	0.9263334524833697 	101294.8586892185
-0.3891391391391395 	299.97923663851 	0.9400212193231912 	101300.4552114665
-0.3866366366366368 	299.9843383453875 	0.9547689637534423 	101306.4854755634
-0.3841341341341344 	299.9897171268781 	0.9703174978294031 	101312.8435427623
-0.381631631631632 	299.9952788668811 	0.9863944530328226 	101319.4181031176
-0.3791291291291294 	300.000926119859 	1.002718723775678 	101326.094228373
-0.3766266266266269 	300.00656051946 	1.019005168270877 	101332.7552957046
-0.3741241241241244 	300.012083332277 	1.03496920684257 	101339.2849318821
-0.371621621621622 	300.0173981135301 	1.050331200998753 	101345.5687919045
-0.3691191191191194 	300.0224111403672 	1.064820538352147 	101351.4961471713
-0.366616616616617 	300.0270332505605 	1.078179655271411 	101356.9616261331
-0.3641141141141143 	300.0311815195286 	1.090168145539355 	101361.8668368164
-0.3616116116116119 	300.034779732528 	1.100566664921385 	101366.1219616355
-0.3591091091091095 	300.0377608626464 	1.109180553448553 	101369.6472896267
-0.356606606606607 	300.0400671070943 	1.115843430510317 	101372.374674343
-0.3541041041041044 	300.0416518303576 	1.120420525683189 	101374.2488687086
-0.3516016016016019 	300.0424804138185 	1.122811514515155 	101375.2287555276
-0.3490990990990994 	300.0425312499935 	1.122952415788241 	101375.2883804354
-0.346596596596597 	300.0417939275129 	1.120817407157596 	101374.4163949499
-0.3440940940940944 	300.04027458253 	1.116425364699763 	101372.620366681
-0.3415915915915919 	300.0379977224956 	1.109842180994958 	101369.927897152
-0.3390890890890895 	300.0350001770645 	1.101176731580035 	101366.3832690924
-0.3365865865865869 	300.0313343098751 	1.090580281474166 	101362.0483254592
-0.3340840840840844 	300.0270668005313 	1.078245981488828 	101357.0021416808
-0.3315815815815819 	300.0222779975407 	1.06440580049034 	101351.3397279968
-0.3290790790790794 	300.0170599802896 	1.049325662683303 	101345.1700295247
-0.3265765765765769 	300.0115144503521 	1.033299546618334 	101338.6134346771
-0.3240740740740744 	300.0057507003273 	1.016642666986678 	101331.7990403536
-0.3215715715715718 	299.9998823485615 	0.9996835552475806 	101324.8614272649
-0.3190690690690695 	299.9940249958246 	0.9827554757033418 	101317.9370146989
-0.3165665665665668 	299.9882925588478 	0.9661882052129533 	101311.1606792921
-0.3140640640640644 	299.9827955423278 	0.9503008587989902 	101304.6629277678
-0.311561561561562 	299.9776384577472 	0.935395299318706 	101298.567191967
-0.3090590590590593 	299.9729173702161 	0.9217495761626772 	101292.9871332809
-0.3065565565565568 	299.9687184143273 	0.9096121074779505 	101288.0242410759
-0.3040540540540545 	299.9651156031013 	0.8991977170128482 	101283.7661858624
-0.3015515515515518 	299.9621708127184 	0.8906851129762293 	101280.2858914242
-0.2990490490490494 	299.9599326874433 	0.8842147705196738 	101277.6407391925
-0.2965465465465469 	299.9584357966361 	0.8798871600428907 	101275.8717111345
-0.2940440440440444 	299.9577009098755 	0.8777622397712851 	101275.003141464
-0.2915415415415418 	299.9577345259623 	0.8778612540300544 	101275.0433749172
-0.2890390390390395 	299.9585328674468 	0.8801685621037297 	101275.9866731012
-0.2865365365365368 	299.9600764703103 	0.884628796570283 	101277.8103077131
-0.2840340340340343 	299.9623315630201 	0.8911476954406331 	101280.475364805
-0.2815315315315318 	299.9652547825384 	0.8995981294394564 	101283.9300130062
-0.2790290290290295 	299.9687917987921 	0.90982329163805 	101288.1102446585
-0.2765265265265269 	299.9728789055009 	0.9216386622539412 	101292.9408273519
-0.2740240240240244 	299.9774435345164 	0.9348336694495681 	101298.3357938744