/*--------------------------------*- C++ -*----------------------------------*\
  =========                 |
  \\      /  F ield         | OpenFOAM: The Open Source CFD Toolbox
   \\    /   O peration     | Website:  https://openfoam.org
    \\  /    A nd           | Version:  7
     \\/     M anipulation  |
\*---------------------------------------------------------------------------*/
FoamFile
{
    version     2.0;
    format      ascii;
    class       volScalarField;
    location    "0.0021";
    object      Ux;
}
// * * * * * * * * * * * * * * * * * * * * * * * * * * * * * * * * * * * * * //

dimensions      [0 1 -1 0 0 0 0];

internalField   nonuniform List<scalar> 
5000
(
23.173745
23.173743
23.173739
23.173737
23.173736
23.173736
23.173735
23.173734
23.173733
23.173732
23.17373
23.173729
23.173728
23.173727
23.173726
23.173725
23.173724
23.173723
23.173721
23.17372
23.173719
23.173718
23.173717
23.173716
23.173715
23.173714
23.173713
23.173712
23.173711
23.17371
23.173709
23.173708
23.173707
23.173706
23.173705
23.173704
23.173703
23.173702
23.173701
23.1737
23.1737
23.173699
23.173698
23.173697
23.173696
23.173694
23.173693
23.173693
23.173693
23.173692
23.173691
23.17369
23.173688
23.173688
23.173687
23.173687
23.173686
23.173684
23.173683
23.173682
23.173682
23.173681
23.17368
23.173679
23.173678
23.173678
23.173677
23.173676
23.173675
23.173674
23.173673
23.173673
23.173672
23.173671
23.17367
23.173669
23.173668
23.173668
23.173667
23.173666
23.173665
23.173664
23.173663
23.173663
23.173662
23.173661
23.17366
23.173659
23.173659
23.173658
23.173657
23.173656
23.173655
23.173654
23.173653
23.173652
23.173652
23.173652
23.173651
23.17365
23.17365
23.173649
23.173648
23.173647
23.173646
23.173646
23.173645
23.173644
23.173644
23.173643
23.173642
23.173641
23.173641
23.17364
23.173639
23.173639
23.173638
23.173637
23.173636
23.173635
23.173635
23.173634
23.173634
23.173633
23.173632
23.173631
23.173631
23.17363
23.173629
23.173628
23.173627
23.173627
23.173627
23.173626
23.173625
23.173624
23.173623
23.173623
23.173622
23.173622
23.173621
23.17362
23.173619
23.173618
23.173617
23.173617
23.173616
23.173616
23.173616
23.173615
23.173614
23.173613
23.173612
23.173611
23.173611
23.17361
23.17361
23.173609
23.173608
23.173607
23.173606
23.173606
23.173605
23.173605
23.173604
23.173603
23.173602
23.173601
23.173601
23.1736
23.173599
23.173599
23.173598
23.173597
23.173596
23.173595
23.173595
23.173594
23.173593
23.173592
23.173591
23.173591
23.17359
23.173589
23.173588
23.173587
23.173587
23.173586
23.173586
23.173585
23.173584
23.173582
23.173582
23.173581
23.173581
23.17358
23.173579
23.173578
23.173577
23.173576
23.173576
23.173575
23.173574
23.173573
23.173572
23.173571
23.173571
23.17357
23.173569
23.173568
23.173568
23.173567
23.173566
23.173565
23.173565
23.173564
23.173563
23.173562
23.173561
23.173561
23.17356
23.173559
23.173558
23.173557
23.173556
23.173556
23.173555
23.173554
23.173553
23.173552
23.173551
23.173551
23.173551
23.17355
23.173549
23.173548
23.173547
23.173546
23.173546
23.173545
23.173544
23.173543
23.173542
23.173542
23.173541
23.17354
23.173539
23.173538
23.173538
23.173537
23.173536
23.173536
23.173535
23.173534
23.173533
23.173533
23.173532
23.173531
23.17353
23.173529
23.173529
23.173528
23.173527
23.173527
23.173526
23.173524
23.173524
23.173524
23.173523
23.173522
23.173521
23.17352
23.17352
23.173519
23.173519
23.173518
23.173517
23.173516
23.173515
23.173515
23.173514
23.173513
23.173512
23.173511
23.17351
23.17351
23.17351
23.173509
23.173508
23.173507
23.173506
23.173505
23.173505
23.173505
23.173504
23.173503
23.173502
23.173501
23.173501
23.1735
23.173499
23.173499
23.173498
23.173497
23.173497
23.173496
23.173495
23.173494
23.173493
23.173492
23.173492
23.173491
23.173491
23.17349
23.173488
23.173488
23.173487
23.173487
23.173486
23.173485
23.173484
23.173483
23.173482
23.173482
23.173482
23.173481
23.17348
23.173479
23.173478
23.173477
23.173477
23.173476
23.173475
23.173474
23.173473
23.173473
23.173472
23.173472
23.173471
23.173469
23.173468
23.173467
23.173467
23.173467
23.173466
23.173465
23.173464
23.173463
23.173462
23.173461
23.173461
23.173461
23.17346
23.173459
23.173457
23.173456
23.173455
23.173455
23.173455
23.173454
23.173453
23.173452
23.173451
23.17345
23.173449
23.173449
23.173448
23.173448
23.173447
23.173446
23.173444
23.173443
23.173443
23.173443
23.173442
23.173441
23.17344
23.173439
23.173438
23.173438
23.173437
23.173436
23.173435
23.173434
23.173433
23.173433
23.173432
23.173431
23.17343
23.173429
23.173428
23.173428
23.173427
23.173426
23.173425
23.173424
23.173423
23.173422
23.173422
23.173421
23.17342
23.173418
23.173417
23.173417
23.173417
23.173416
23.173415
23.173413
23.173412
23.173411
23.173411
23.173411
23.17341
23.173408
23.173407
23.173405
23.173405
23.173405
23.173405
23.173404
23.173402
23.173401
23.1734
23.173399
23.173399
23.173398
23.173397
23.173396
23.173395
23.173394
23.173394
23.173393
23.173391
23.17339
23.173389
23.173389
23.173388
23.173387
23.173386
23.173384
23.173383
23.173383
23.173382
23.173382
23.173381
23.173379
23.173378
23.173376
23.173376
23.173376
23.173375
23.173374
23.173373
23.173371
23.17337
23.17337
23.173369
23.173368
23.173367
23.173366
23.173364
23.173363
23.173363
23.173362
23.173362
23.17336
23.173359
23.173357
23.173357
23.173356
23.173356
23.173354
23.173353
23.173351
23.17335
23.17335
23.173349
23.173348
23.173347
23.173345
23.173344
23.173343
23.173343
23.173342
23.173341
23.173339
23.173336
23.173336
23.173336
23.173336
23.173335
23.173334
23.173332
23.17333
23.173329
23.173329
23.173328
23.173327
23.173326
23.173324
23.173322
23.173322
23.173322
23.173321
23.173319
23.173317
23.173315
23.173313
23.173313
23.173313
23.173313
23.173311
23.173309
23.173307
23.173305
23.173305
23.173305
23.173304
23.173303
23.1733
23.173297
23.173295
23.173295
23.173296
23.173295
23.173294
23.173291
23.17329
23.17329
23.173289
23.173288
23.173285
23.173281
23.173279
23.17328
23.17328
23.173279
23.173278
23.173276
23.173273
23.173269
23.173267
23.173267
23.173268
23.173267
23.173265
23.173263
23.173259
23.173256
23.173253
23.173253
23.173253
23.173253
23.173251
23.173248
23.173245
23.173241
23.173239
23.173239
23.173238
23.173237
23.173234
23.173231
23.173226
23.173222
23.17322
23.173219
23.173218
23.173216
23.173214
23.173211
23.173208
23.173204
23.1732
23.173196
23.173194
23.173192
23.173191
23.173188
23.173185
23.173181
23.173176
23.173172
23.17317
23.173167
23.173164
23.17316
23.173156
23.173152
23.173148
23.173143
23.173138
23.173133
23.173128
23.173123
23.173119
23.173115
23.17311
23.173104
23.173098
23.173092
23.173085
23.173079
23.173073
23.173066
23.17306
23.173054
23.173047
23.173039
23.173031
23.173024
23.173016
23.173008
23.172999
23.17299
23.172981
23.172972
23.172962
23.172953
23.172943
23.172933
23.172923
23.172912
23.172901
23.172889
23.172876
23.172864
23.172851
23.172838
23.172825
23.172811
23.172797
23.172783
23.172768
23.172753
23.172737
23.17272
23.172703
23.172685
23.172667
23.172649
23.172631
23.172612
23.172593
23.172572
23.172551
23.172529
23.172507
23.172484
23.172461
23.172437
23.172412
23.172387
23.17236
23.172333
23.172306
23.172278
23.172248
23.172218
23.172188
23.172156
23.172124
23.172091
23.172056
23.172021
23.171985
23.171947
23.171909
23.17187
23.171829
23.171788
23.171745
23.171701
23.171656
23.17161
23.171563
23.171514
23.171464
23.171412
23.171359
23.171304
23.171248
23.171191
23.171132
23.171072
23.171009
23.170945
23.17088
23.170812
23.170743
23.170672
23.170599
23.170524
23.170447
23.170368
23.170287
23.170205
23.170119
23.170032
23.169942
23.16985
23.169755
23.169658
23.169559
23.169457
23.169353
23.169246
23.169136
23.169024
23.168908
23.16879
23.168669
23.168545
23.168418
23.168288
23.168154
23.168018
23.167878
23.167735
23.167589
23.167439
23.167285
23.167128
23.166967
23.166803
23.166635
23.166463
23.166287
23.166107
23.165923
23.165735
23.165543
23.165347
23.165146
23.164941
23.164732
23.164517
23.164299
23.164076
23.163848
23.163616
23.163378
23.163136
23.162888
23.162636
23.162378
23.162116
23.161848
23.161575
23.161296
23.161012
23.160722
23.160426
23.160125
23.159819
23.159506
23.159187
23.158863
23.158532
23.158195
23.157852
23.157503
23.157148
23.156786
23.156417
23.156042
23.15566
23.155272
23.154877
23.154475
23.154066
23.15365
23.153227
23.152797
23.15236
23.151915
23.151463
23.151004
23.150537
23.150063
23.149581
23.149091
23.148593
23.148088
23.147574
23.147053
23.146523
23.145986
23.14544
23.144886
23.144324
23.143753
23.143174
23.142586
23.14199
23.141385
23.140771
23.140149
23.139518
23.138878
23.138229
23.137571
23.136903
23.136227
23.135542
23.134847
23.134143
23.133429
23.132706
23.131974
23.131232
23.130481
23.12972
23.128949
23.128168
23.127378
23.126578
23.125768
23.124948
23.124118
23.123278
23.122428
23.121568
23.120698
23.119818
23.118927
23.118026
23.117114
23.116193
23.115261
23.114319
23.113366
23.112403
23.111429
23.110444
23.10945
23.108444
23.107428
23.106402
23.105364
23.104316
23.103257
23.102188
23.101108
23.100017
23.098915
23.097802
23.096679
23.095544
23.0944
23.093244
23.092077
23.090899
23.08971
23.088511
23.087301
23.08608
23.084848
23.083605
23.082351
23.081087
23.079811
23.078525
23.077228
23.07592
23.074601
23.073271
23.071931
23.070579
23.069217
23.067844
23.066461
23.065067
23.063662
23.062246
23.06082
23.059383
23.057935
23.056477
23.055009
23.05353
23.05204
23.05054
23.04903
23.047509
23.045977
23.044436
23.042884
23.041323
23.039751
23.038169
23.036576
23.034974
23.033361
23.031739
23.030107
23.028466
23.026814
23.025152
23.023481
23.021801
23.020111
23.018411
23.016702
23.014983
23.013255
23.011518
23.009772
23.008017
23.006253
23.00448
23.002698
23.000907
22.999107
22.997299
22.995482
22.993657
22.991822
22.98998
22.988129
22.986271
22.984404
22.982529
22.980646
22.978755
22.976856
22.97495
22.973036
22.971115
22.969186
22.96725
22.965306
22.963355
22.961397
22.959433
22.957461
22.955482
22.953497
22.951505
22.949507
22.947502
22.945491
22.943473
22.941449
22.93942
22.937384
22.935343
22.933296
22.931243
22.929184
22.92712
22.925051
22.922977
22.920897
22.918813
22.916723
22.914628
22.912529
22.910426
22.908317
22.906205
22.904088
22.901966
22.899841
22.897712
22.895579
22.893442
22.891301
22.889157
22.887009
22.884858
22.882704
22.880547
22.878387
22.876224
22.874057
22.871889
22.869717
22.867544
22.865367
22.863189
22.861008
22.858825
22.856641
22.854454
22.852266
22.850077
22.847885
22.845692
22.843498
22.841303
22.839107
22.83691
22.834712
22.832513
22.830314
22.828114
22.825913
22.823713
22.821512
22.81931
22.817109
22.814909
22.812708
22.810507
22.808307
22.806108
22.803909
22.801711
22.799514
22.797317
22.795122
22.792927
22.790734
22.788543
22.786353
22.784164
22.781977
22.779792
22.777608
22.775427
22.773247
22.77107
22.768895
22.766723
22.764552
22.762384
22.760219
22.758057
22.755897
22.753741
22.751587
22.749436
22.747289
22.745145
22.743004
22.740866
22.738733
22.736602
22.734476
22.732353
22.730234
22.728119
22.726009
22.723902
22.721799
22.719701
22.717607
22.715518
22.713433
22.711353
22.709277
22.707207
22.705141
22.70308
22.701024
22.698974
22.696928
22.694887
22.692852
22.690822
22.688798
22.686779
22.684766
22.682758
22.680756
22.67876
22.676769
22.674785
22.672806
22.670834
22.668867
22.666907
22.664953
22.663005
22.661063
22.659128
22.657199
22.655277
22.653361
22.651452
22.649549
22.647653
22.645764
22.643882
22.642006
22.640137
22.638275
22.63642
22.634573
22.632732
22.630898
22.629071
22.627252
22.625439
22.623634
22.621836
22.620045
22.618262
22.616486
22.614717
22.612956
22.611202
22.609456
22.607717
22.605986
22.604262
22.602546
22.600838
22.599137
22.597444
22.595758
22.59408
22.59241
22.590747
22.589092
22.587445
22.585806
22.584174
22.58255
22.580934
22.579326
22.577725
22.576133
22.574548
22.572971
22.571401
22.56984
22.568287
22.566741
22.565203
22.563673
22.56215
22.560636
22.55913
22.557631
22.55614
22.554657
22.553181
22.551714
22.550254
22.548802
22.547358
22.545921
22.544493
22.543072
22.541658
22.540253
22.538855
22.537465
22.536082
22.534707
22.53334
22.53198
22.530628
22.529284
22.527947
22.526617
22.525295
22.523981
22.522674
22.521375
22.520082
22.518798
22.51752
22.51625
22.514987
22.513732
22.512484
22.511243
22.510009
22.508782
22.507563
22.506351
22.505145
22.503947
22.502756
22.501572
22.500395
22.499224
22.498061
22.496905
22.495755
22.494612
22.493476
22.492347
22.491224
22.490108
22.488999
22.487896
22.4868
22.48571
22.484627
22.483551
22.482481
22.481417
22.480359
22.479308
22.478264
22.477225
22.476193
22.475167
22.474148
22.473134
22.472127
22.471125
22.47013
22.469141
22.468158
22.46718
22.466209
22.465243
22.464283
22.46333
22.462382
22.46144
22.460503
22.459573
22.458647
22.457728
22.456815
22.455907
22.455004
22.454107
22.453216
22.45233
22.451449
22.450574
22.449705
22.448841
22.447982
22.447129
22.446281
22.445438
22.444601
22.443769
22.442942
22.44212
22.441304
22.440492
22.439686
22.438885
22.43809
22.437299
22.436513
22.435733
22.434957
22.434187
22.433421
22.432661
22.431906
22.431155
22.43041
22.429669
22.428934
22.428203
22.427477
22.426756
22.42604
22.425329
22.424623
22.423922
22.423225
22.422533
22.421846
22.421164
22.420487
22.419814
22.419147
22.418484
22.417825
22.417172
22.416523
22.415879
22.415239
22.414604
22.413974
22.413349
22.412728
22.412112
22.411501
22.410894
22.410292
22.409695
22.409102
22.408514
22.40793
22.407351
22.406777
22.406207
22.405642
22.405081
22.404525
22.403973
22.403426
22.402884
22.402346
22.401812
22.401283
22.400759
22.400239
22.399723
22.399212
22.398706
22.398203
22.397706
22.397212
22.396724
22.396239
22.395759
22.395283
22.394812
22.394345
22.393882
22.393424
22.39297
22.39252
22.392075
22.391634
22.391197
22.390765
22.390336
22.389912
22.389492
22.389077
22.388665
22.388258
22.387855
22.387456
22.387061
22.38667
22.386284
22.385901
22.385523
22.385148
22.384778
22.384412
22.384049
22.383691
22.383336
22.382986
22.382639
22.382297
22.381958
22.381623
22.381292
22.380964
22.380641
22.380321
22.380005
22.379693
22.379385
22.37908
22.378779
22.378481
22.378187
22.377897
22.377611
22.377327
22.377048
22.376772
22.376499
22.37623
22.375965
22.375702
22.375444
22.375188
22.374936
22.374687
22.374442
22.3742
22.373961
22.373725
22.373492
22.373263
22.373037
22.372814
22.372594
22.372377
22.372163
22.371952
22.371744
22.371539
22.371337
22.371138
22.370941
22.370748
22.370557
22.37037
22.370185
22.370002
22.369823
22.369646
22.369472
22.3693
22.369131
22.368965
22.368801
22.36864
22.368481
22.368325
22.368171
22.36802
22.367871
22.367725
22.36758
22.367438
22.367299
22.367161
22.367026
22.366893
22.366763
22.366634
22.366508
22.366383
22.366261
22.366141
22.366023
22.365907
22.365793
22.36568
22.36557
22.365462
22.365355
22.365251
22.365148
22.365047
22.364948
22.36485
22.364755
22.364661
22.364569
22.364478
22.364389
22.364302
22.364216
22.364132
22.364049
22.363968
22.363889
22.363811
22.363734
22.363659
22.363585
22.363513
22.363442
22.363373
22.363304
22.363238
22.363172
22.363108
22.363044
22.362982
22.362922
22.362863
22.362804
22.362747
22.362691
22.362637
22.362583
22.36253
22.362479
22.362428
22.362379
22.36233
22.362283
22.362236
22.362191
22.362146
22.362103
22.36206
22.362018
22.361977
22.361937
22.361898
22.36186
22.361822
22.361785
22.361749
22.361714
22.36168
22.361646
22.361613
22.361581
22.36155
22.361519
22.361489
22.36146
22.361431
22.361403
22.361375
22.361348
22.361322
22.361297
22.361272
22.361247
22.361223
22.3612
22.361177
22.361155
22.361133
22.361112
22.361091
22.361071
22.361051
22.361031
22.361013
22.360994
22.360976
22.360959
22.360942
22.360925
22.360909
22.360893
22.360877
22.360862
22.360847
22.360833
22.360819
22.360805
22.360792
22.360779
22.360766
22.360754
22.360742
22.36073
22.360718
22.360707
22.360696
22.360686
22.360675
22.360665
22.360655
22.360646
22.360636
22.360627
22.360618
22.36061
22.360601
22.360593
22.360585
22.360577
22.36057
22.360562
22.360555
22.360548
22.360541
22.360535
22.360528
22.360522
22.360516
22.36051
22.360504
22.360499
22.360493
22.360488
22.360483
22.360478
22.360473
22.360468
22.360463
22.360459
22.360454
22.36045
22.360446
22.360442
22.360438
22.360434
22.36043
22.360426
22.360423
22.360419
22.360416
22.360413
22.36041
22.360407
22.360404
22.360401
22.360398
22.360395
22.360392
22.36039
22.360387
22.360385
22.360382
22.36038
22.360377
22.360375
22.360373
22.360371
22.360369
22.360367
22.360365
22.360363
22.360361
22.360359
22.360358
22.360356
22.360354
22.360352
22.360351
22.360349
22.360348
22.360346
22.360345
22.360344
22.360342
22.360341
22.360339
22.360338
22.360337
22.360336
22.360335
22.360333
22.360332
22.360331
22.36033
22.360329
22.360328
22.360327
22.360326
22.360325
22.360324
22.360323
22.360322
22.360321
22.36032
22.360319
22.360319
22.360318
22.360317
22.360316
22.360315
22.360315
22.360314
22.360313
22.360312
22.360312
22.360311
22.36031
22.36031
22.360309
22.360308
22.360308
22.360307
22.360306
22.360306
22.360305
22.360305
22.360304
22.360303
22.360303
22.360302
22.360302
22.360301
22.360301
22.3603
22.3603
22.360299
22.360299
22.360298
22.360297
22.360297
22.360296
22.360296
22.360296
22.360295
22.360295
22.360294
22.360294
22.360293
22.360293
22.360292
22.360292
22.360291
22.360291
22.360291
22.36029
22.36029
22.360289
22.360289
22.360288
22.360288
22.360288
22.360287
22.360287
22.360286
22.360286
22.360286
22.360285
22.360285
22.360284
22.360284
22.360284
22.360283
22.360283
22.360283
22.360282
22.360282
22.360282
22.360281
22.360281
22.360281
22.36028
22.36028
22.360279
22.360279
22.360279
22.360278
22.360278
22.360278
22.360277
22.360277
22.360277
22.360276
22.360276
22.360276
22.360275
22.360275
22.360275
22.360274
22.360274
22.360274
22.360274
22.360273
22.360273
22.360273
22.360272
22.360272
22.360272
22.360271
22.360271
22.360271
22.360271
22.36027
22.36027
22.36027
22.360269
22.360269
22.360269
22.360268
22.360268
22.360268
22.360268
22.360267
22.360267
22.360267
22.360266
22.360266
22.360266
22.360266
22.360265
22.360265
22.360265
22.360264
22.360264
22.360264
22.360264
22.360263
22.360263
22.360263
22.360262
22.360262
22.360262
22.360262
22.360261
22.360261
22.360261
22.36026
22.36026
22.36026
22.36026
22.360259
22.360259
22.360259
22.360259
22.360258
22.360258
22.360258
22.360257
22.360257
22.360257
22.360257
22.360256
22.360256
22.360256
22.360256
22.360255
22.360255
22.360255
22.360254
22.360254
22.360254
22.360254
22.360253
22.360253
22.360253
22.360252
22.360252
22.360252
22.360252
22.360251
22.360251
22.360251
22.36025
22.36025
22.36025
22.36025
22.360249
22.360249
22.360249
22.360248
22.360248
22.360248
22.360247
22.360247
22.360247
22.360246
22.360246
22.360246
22.360246
22.360245
22.360245
22.360245
22.360244
22.360244
22.360244
22.360244
22.360243
22.360243
22.360243
22.360242
22.360242
22.360242
22.360241
22.360241
22.360241
22.36024
22.36024
22.36024
22.360239
22.360239
22.360239
22.360239
22.360238
22.360238
22.360238
22.360237
22.360237
22.360237
22.360236
22.360236
22.360236
22.360235
22.360235
22.360235
22.360234
22.360234
22.360234
22.360233
22.360233
22.360233
22.360232
22.360232
22.360232
22.360231
22.360231
22.360231
22.36023
22.36023
22.36023
22.360229
22.360229
22.360229
22.360228
22.360228
22.360228
22.360227
22.360227
22.360227
22.360226
22.360226
22.360226
22.360225
22.360225
22.360225
22.360224
22.360224
22.360224
22.360223
22.360223
22.360223
22.360222
22.360222
22.360222
22.360221
22.360221
22.360221
22.36022
22.36022
22.36022
22.360219
22.360219
22.360219
22.360218
22.360218
22.360218
22.360217
22.360217
22.360217
22.360216
22.360216
22.360216
22.360215
22.360215
22.360215
22.360214
22.360214
22.360214
22.360213
22.360213
22.360213
22.360212
22.360212
22.360212
22.360211
22.360211
22.360211
22.36021
22.36021
22.36021
22.360209
22.360209
22.360209
22.360208
22.360208
22.360208
22.360207
22.360207
22.360207
22.360206
22.360206
22.360206
22.360205
22.360205
22.360205
22.360204
22.360204
22.360204
22.360203
22.360203
22.360203
22.360202
22.360202
22.360202
22.360201
22.360201
22.360201
22.360201
22.3602
22.3602
22.3602
22.360199
22.360199
22.360199
22.360198
22.360198
22.360198
22.360198
22.360197
22.360197
22.360197
22.360196
22.360196
22.360196
22.360195
22.360195
22.360195
22.360194
22.360194
22.360194
22.360194
22.360193
22.360193
22.360193
22.360192
22.360192
22.360192
22.360192
22.360191
22.360191
22.360191
22.360191
22.36019
22.36019
22.36019
22.360189
22.360189
22.360189
22.360189
22.360188
22.360188
22.360188
22.360187
22.360187
22.360187
22.360187
22.360186
22.360186
22.360186
22.360186
22.360185
22.360185
22.360185
22.360184
22.360184
22.360184
22.360184
22.360183
22.360183
22.360183
22.360183
22.360182
22.360182
22.360182
22.360182
22.360181
22.360181
22.360181
22.36018
22.36018
22.36018
22.36018
22.360179
22.360179
22.360179
22.360179
22.360178
22.360178
22.360178
22.360178
22.360177
22.360177
22.360177
22.360177
22.360176
22.360176
22.360176
22.360176
22.360175
22.360175
22.360175
22.360175
22.360174
22.360174
22.360174
22.360173
22.360173
22.360173
22.360173
22.360172
22.360172
22.360172
22.360172
22.360171
22.360171
22.360171
22.360171
22.36017
22.36017
22.36017
22.36017
22.360169
22.360169
22.360169
22.360169
22.360168
22.360168
22.360168
22.360167
22.360167
22.360167
22.360167
22.360166
22.360166
22.360166
22.360166
22.360165
22.360165
22.360165
22.360165
22.360164
22.360164
22.360164
22.360163
22.360163
22.360163
22.360163
22.360162
22.360162
22.360162
22.360162
22.360161
22.360161
22.360161
22.360161
22.36016
22.36016
22.36016
22.360159
22.360159
22.360159
22.360159
22.360158
22.360158
22.360158
22.360157
22.360157
22.360157
22.360157
22.360156
22.360156
22.360156
22.360156
22.360155
22.360155
22.360155
22.360155
22.360154
22.360154
22.360154
22.360153
22.360153
22.360153
22.360153
22.360152
22.360152
22.360152
22.360151
22.360151
22.360151
22.360151
22.36015
22.36015
22.36015
22.36015
22.360149
22.360149
22.360149
22.360148
22.360148
22.360148
22.360148
22.360147
22.360147
22.360147
22.360146
22.360146
22.360146
22.360146
22.360145
22.360145
22.360145
22.360144
22.360144
22.360144
22.360144
22.360143
22.360143
22.360143
22.360143
22.360142
22.360142
22.360142
22.360141
22.360141
22.360141
22.360141
22.36014
22.36014
22.36014
22.36014
22.360139
22.360139
22.360139
22.360138
22.360138
22.360138
22.360138
22.360137
22.360137
22.360137
22.360136
22.360136
22.360136
22.360136
22.360135
22.360135
22.360135
22.360135
22.360134
22.360134
22.360134
22.360133
22.360133
22.360133
22.360133
22.360132
22.360132
22.360132
22.360132
22.360131
22.360131
22.360131
22.36013
22.36013
22.36013
22.36013
22.360129
22.360129
22.360129
22.360129
22.360128
22.360128
22.360128
22.360128
22.360127
22.360127
22.360127
22.360126
22.360126
22.360126
22.360126
22.360125
22.360125
22.360125
22.360124
22.360124
22.360124
22.360124
22.360123
22.360123
22.360123
22.360123
22.360122
22.360122
22.360122
22.360122
22.360121
22.360121
22.360121
22.36012
22.36012
22.36012
22.36012
22.360119
22.360119
22.360119
22.360119
22.360118
22.360118
22.360118
22.360117
22.360117
22.360117
22.360117
22.360116
22.360116
22.360116
22.360116
22.360115
22.360115
22.360115
22.360114
22.360114
22.360114
22.360114
22.360113
22.360113
22.360113
22.360113
22.360112
22.360112
22.360112
22.360112
22.360111
22.360111
22.360111
22.36011
22.36011
22.36011
22.36011
22.360109
22.360109
22.360109
22.360109
22.360108
22.360108
22.360108
22.360107
22.360107
22.360107
22.360107
22.360106
22.360106
22.360106
22.360106
22.360105
22.360105
22.360105
22.360104
22.360104
22.360104
22.360104
22.360103
22.360103
22.360103
22.360103
22.360102
22.360102
22.360102
22.360101
22.360101
22.360101
22.360101
22.3601
22.3601
22.3601
22.3601
22.360099
22.360099
22.360099
22.360098
22.360098
22.360098
22.360098
22.360097
22.360097
22.360097
22.360097
22.360096
22.360096
22.360096
22.360095
22.360095
22.360095
22.360095
22.360094
22.360094
22.360094
22.360093
22.360093
22.360093
22.360093
22.360092
22.360092
22.360092
22.360092
22.360091
22.360091
22.360091
22.36009
22.36009
22.36009
22.36009
22.360089
22.360089
22.360089
22.360088
22.360088
22.360088
22.360088
22.360087
22.360087
22.360087
22.360087
22.360086
22.360086
22.360086
22.360085
22.360085
22.360085
22.360085
22.360084
22.360084
22.360084
22.360083
22.360083
22.360083
22.360083
22.360082
22.360082
22.360082
22.360081
22.360081
22.360081
22.360081
22.36008
22.36008
22.36008
22.360079
22.360079
22.360079
22.360079
22.360078
22.360078
22.360078
22.360078
22.360077
22.360077
22.360077
22.360077
22.360076
22.360076
22.360076
22.360075
22.360075
22.360075
22.360075
22.360074
22.360074
22.360074
22.360074
22.360073
22.360073
22.360073
22.360073
22.360072
22.360072
22.360072
22.360071
22.360071
22.360071
22.360071
22.36007
22.36007
22.36007
22.36007
22.360069
22.360069
22.360069
22.360069
22.360068
22.360068
22.360068
22.360068
22.360067
22.360067
22.360067
22.360067
22.360066
22.360066
22.360066
22.360066
22.360065
22.360065
22.360065
22.360065
22.360064
22.360064
22.360064
22.360064
22.360064
22.360063
22.360063
22.360063
22.360063
22.360062
22.360062
22.360062
22.360062
22.360061
22.360061
22.360061
22.360061
22.36006
22.36006
22.36006
22.36006
22.36006
22.360059
22.360059
22.360059
22.360059
22.360058
22.360058
22.360058
22.360058
22.360058
22.360057
22.360057
22.360057
22.360057
22.360056
22.360056
22.360056
22.360056
22.360056
22.360055
22.360055
22.360055
22.360055
22.360054
22.360054
22.360054
22.360054
22.360054
22.360053
22.360053
22.360053
22.360053
22.360052
22.360052
22.360052
22.360052
22.360052
22.360051
22.360051
22.360051
22.360051
22.36005
22.36005
22.36005
22.36005
22.360049
22.360049
22.360049
22.360049
22.360048
22.360048
22.360048
22.360048
22.360047
22.360047
22.360047
22.360047
22.360047
22.360046
22.360046
22.360046
22.360045
22.360045
22.360045
22.360045
22.360044
22.360044
22.360044
22.360044
22.360043
22.360043
22.360043
22.360043
22.360042
22.360042
22.360042
22.360042
22.360041
22.360041
22.360041
22.360041
22.36004
22.36004
22.36004
22.360039
22.360039
22.360039
22.360039
22.360038
22.360038
22.360038
22.360038
22.360037
22.360037
22.360037
22.360036
22.360036
22.360036
22.360036
22.360035
22.360035
22.360035
22.360035
22.360034
22.360034
22.360034
22.360033
22.360033
22.360033
22.360033
22.360032
22.360032
22.360032
22.360031
22.360031
22.360031
22.360031
22.36003
22.36003
22.36003
22.36003
22.360029
22.360029
22.360029
22.360028
22.360028
22.360028
22.360028
22.360027
22.360027
22.360027
22.360026
22.360026
22.360026
22.360026
22.360025
22.360025
22.360025
22.360024
22.360024
22.360024
22.360024
22.360023
22.360023
22.360023
22.360022
22.360022
22.360022
22.360021
22.360021
22.360021
22.360021
22.36002
22.36002
22.36002
22.360019
22.360019
22.360019
22.360019
22.360018
22.360018
22.360018
22.360017
22.360017
22.360017
22.360016
22.360016
22.360016
22.360016
22.360015
22.360015
22.360015
22.360014
22.360014
22.360014
22.360014
22.360013
22.360013
22.360013
22.360012
22.360012
22.360012
22.360012
22.360011
22.360011
22.360011
22.36001
22.36001
22.36001
22.36001
22.360009
22.360009
22.360009
22.360008
22.360008
22.360008
22.360008
22.360007
22.360007
22.360007
22.360006
22.360006
22.360006
22.360006
22.360005
22.360005
22.360005
22.360005
22.360004
22.360004
22.360004
22.360004
22.360003
22.360003
22.360003
22.360003
22.360003
22.360002
22.360002
22.360002
22.360002
22.360002
22.360002
22.360001
22.360001
22.36
22.359998
22.359996
22.359996
22.359997
22.359996
22.359996
22.359996
22.359998
22.360001
22.360005
22.360012
22.360021
22.360033
22.360055
22.360103
22.360206
22.360539
22.360624
22.360211
22.359876
22.359964
22.360004
22.359988
22.359974
22.359971
22.359966
22.359962
22.359961
22.359961
22.359964
22.359968
22.359974
22.35998
22.359986
22.359992
22.359998
22.360003
22.360007
22.36001
22.360013
22.360015
22.360016
22.360017
22.360018
22.360018
22.360018
22.360018
22.360018
22.360018
22.360018
22.360017
22.360017
22.360017
22.360017
22.360016
22.360016
22.360016
22.360016
22.360015
22.360015
22.360011
22.360002
22.360005
22.360015
22.360014
22.360013
22.360013
22.360013
22.360013
22.360013
22.360012
22.360012
22.360012
22.360012
22.360012
22.360011
22.360011
22.360011
22.360011
22.360011
22.36001
22.36001
22.36001
22.36001
22.360009
22.360009
22.360009
22.360009
22.360009
22.360008
22.360008
22.360008
22.360008
22.360007
22.360007
22.360007
22.360007
22.360006
22.360006
22.360006
22.360006
22.360006
22.360005
22.360005
22.360005
22.360005
22.360004
22.360004
22.360004
22.360004
22.360003
22.360003
22.360003
22.360003
22.360002
22.360002
22.360002
22.360001
22.360001
22.360001
22.360001
22.36
22.36
22.36
22.36
22.359999
22.359999
22.359999
22.359999
22.359999
22.359998
22.359998
22.359998
22.359998
22.359997
22.359997
22.359997
22.359997
22.359996
22.359996
22.359996
22.359996
22.359995
22.359995
22.359995
22.359995
22.359994
22.359994
22.359994
22.359994
22.359993
22.359993
22.359993
22.359993
22.359992
22.359992
22.359992
22.359992
22.359991
22.359991
22.359991
22.359991
22.35999
22.35999
22.35999
22.35999
22.359989
22.359989
22.359989
22.359989
22.359988
22.359988
22.359988
22.359988
22.359987
22.359987
22.359987
22.359987
22.359986
22.359986
22.359986
22.359986
22.359985
22.359985
22.359985
22.359985
22.359984
22.359984
22.359984
22.359984
22.359983
22.359983
22.359983
22.359983
22.359982
22.359982
22.359982
22.359982
22.359981
22.359981
22.359981
22.359981
22.359981
22.35998
22.35998
22.35998
22.35998
22.359979
22.359979
22.359979
22.359979
22.359978
22.359978
22.359978
22.359978
22.359977
22.359977
22.359977
22.359977
22.359976
22.359976
22.359976
22.359976
22.359975
22.359975
22.359975
22.359975
22.359974
22.359974
22.359974
22.359974
22.359973
22.359973
22.359973
22.359973
22.359972
22.359972
22.359972
22.359971
22.359971
22.359971
22.359971
22.35997
22.35997
22.35997
22.35997
22.359969
22.359969
22.359969
22.359969
22.359968
22.359968
22.359968
22.359968
22.359967
22.359967
22.359967