-1.25 	300 	0.0002547822641474264 	101325
-1.247497497497497 	299.9915634450342 	0.01323132553978104 	101318.0953903822
-1.244994994994995 	299.988771678777 	0.03427221080678958 	101311.7474657853
-1.242492492492492 	299.9832666030501 	0.04913690615616628 	101305.2022245995
-1.23998998998999 	299.9780713461179 	0.06331236859269065 	101299.078290792
-1.237487487487487 	299.9732938719601 	0.07720449450284553 	101293.4314983062
-1.234984984984985 	299.9690328240842 	0.0894986841027119 	101288.3953419179
-1.232482482482482 	299.9653293529838 	0.1002408344734279 	101284.0182552409
-1.22997997997998 	299.9622555242972 	0.1091349933760999 	101280.3853437563
-1.227477477477477 	299.9599469424676 	0.1158505116753892 	101277.6569555804
-1.224974974974975 	299.9583655148267 	0.1203652479865392 	101275.7878920225
-1.222472472472472 	299.9575032501847 	0.1228185169351389 	101274.7688213189
-1.21996996996997 	299.9574246539188 	0.1230550624085325 	101274.6759864005
-1.217467467467467 	299.9581414146362 	0.1209867749438791 	101275.5229731923
-1.214964964964965 	299.9596541929961 	0.1166219454055117 	101277.3106874284
-1.212462462462462 	299.9619550623222 	0.1099176502489675 	101280.0297812938
-1.20995995995996 	299.9649918681751 	0.1011327765401601 	101283.6187032335
-1.207457457457457 	299.9686617984489 	0.09061402213220865 	101287.9560424186
-1.204954954954955 	299.9728422712177 	0.07854760339106717 	101292.8968963629
-1.202452452452452 	299.977499492944 	0.06506434442494051 	101298.4014136903
-1.19994994994995 	299.9825876798238 	0.05032066375427563 	101304.415622406
-1.197447447447447 	299.987988262646 	0.03466482009251268 	101310.799317042
-1.194944944944945 	299.9935853166249 	0.01848365231517551 	101317.4155902751
-1.192442442442442 	299.999271159487 	0.008160834435113933 	101324.137194097
-1.18993993993994 	300.0049731738689 	0.01444893682388088 	101330.8781456929
-1.187437437437437 	300.0106000695958 	0.03066886850478667 	101337.530688802
-1.184934934934935 	300.0160600680592 	0.04646642417773446 	101343.9861739616
-1.182432432432432 	300.02126572537 	0.06152007419563418 	101350.141249123
-1.17992992992993 	300.0260925053186 	0.07547459499768003 	101355.8486649567
-1.177427427427427 	300.0304216369775 	0.08798429289800982 	101360.9677439358
-1.174924924924925 	300.0341713455049 	0.09880095049061369 	101365.4019006938
-1.172422422422422 	300.0372730691329 	0.1077915872704036 	101369.069862906
-1.16991991991992 	300.0396855475586 	0.1147977655007014 	101371.9228698429
-1.167417417417417 	300.0413983761937 	0.1197317525216939 	101373.9485847908
-1.164914914914915 	300.0423759683651 	0.1224916952742743 	101375.1047035476
-1.162412412412412 	300.0425641135552 	0.1229921863279529 	101375.3272465507
-1.15990990990991 	300.0419409224217 	0.1212094768364611 	101374.590288827
-1.157407407407407 	300.0405119335954 	0.1171021353685093 	101372.9005087973
-1.154904904904904 	300.0383073084937 	0.1107537008302409 	101370.2935197133
-1.152402402402403 	300.0353927328372 	0.1023096193781583 	101366.8468735501
-1.1498998998999 	300.0318384369563 	0.09201800630874954 	101362.6439056793
-1.147397397397397 	300.0277147753181 	0.08014107436689315 	101357.7677595405
-1.144894894894895 	300.0230979224448 	0.06679129346067508 	101352.308651793
-1.142392392392392 	300.0180625948175 	0.0522018460343601 	101346.3550001797
-1.13988988988989 	300.0126991334764 	0.03666379190006126 	101340.01351603
-1.137387387387387 	300.0071207273775 	0.0205077405307783 	101333.4182599206
-1.134884884884885 	300.0014265079402 	0.007780253014273733 	101326.6863366685
-1.132382382382382 	299.9957040999183 	0.01243020343655712 	101319.9214465756
-1.12987987987988 	299.990029560989 	0.02885864483300702 	101313.213494893
-1.127377377377377 	299.9844932197766 	0.04486653994525655 	101306.669099321
-1.124874874874875 	299.9792246878217 	0.06007914916287661 	101300.4416091312
-1.122372372372372 	299.9743638941027 	0.07410641431207007 	101294.6962473743
-1.11986986986987 	299.9699997976368 	0.08671830640628944 	101289.5382154206
-1.117367367367367 	299.9662075940689 	0.09771931079741991 	101285.056285342
-1.114864864864865 	299.9630332930926 	0.1069458986610063 	101281.304653321
-1.112362362362362 	299.9605096109544 	0.1142264305878806 	101278.3220783669
-1.10985985985986 	299.9586980804738 	0.1193822416438194 	101276.181057864
-1.107357357357357 	299.9576695305645 	0.1223473892569551 	101274.9654545631
-1.104854854854855 	299.9574416222113 	0.1229944999859515 	101274.6961247649
-1.102352352352353 	299.9580319286359 	0.1212991856123854 	101275.393656649
-1.09984984984985 	299.9594147490592 	0.1173260537882605 	101277.0277940877
-1.097347347347347 	299.9615399973472 	0.1111359695874146 	101279.5393167565
-1.094844844844845 	299.9643617446981 	0.1029724963142275 	101282.8740741605
-1.092342342342342 	299.9678351025694 	0.09299093292880266 	101286.9790610004
-1.08983983983984 	299.9718782496817 	0.08129676773972888 	101291.7575568336
-1.087337337337337 	299.9764509303307 	0.06808751323802105 	101297.1621405016
-1.084834834834835 	299.9814624496903 	0.05357052052057161 	101303.0856359339
-1.082332332332332 	299.9867970328838 	0.0381209394937817 	101309.3912627033
-1.07982982982983 	299.9923353344712 	0.02211926688409906 	101315.938052375
-1.077327327327327 	299.9979618521202 	0.007232657330967399 	101322.5893989049
-1.074824824824825 	300.0036344581496 	0.01057265896668976 	101329.295537477
-1.072322322322323 	300.0092827175713 	0.02685551496071061 	101335.9732544053
-1.06981981981982 	300.014778317795 	0.04275957076519144 	101342.4707561622
-1.067317317317317 	300.0200036462571 	0.05788482478073204 	101348.6490623907
-1.064814814814815 	300.0248595342803 	0.07193895866075901 	101354.3907940427
-1.062312312312312 	300.0292673200041 	0.08466822701076032 	101359.6028324695
-1.05980980980981 	300.0331585998039 	0.09588728713071341 	101364.2043624333
-1.057307307307307 	300.0364572536223 	0.1054350423063964 	101368.1051564719
-1.054804804804805 	300.039093684589 	0.1130608754163637 	101371.2230063241
-1.052302302302302 	300.0410140024129 	0.1185781370543883 	101373.4940678538
-1.0497997997998 	300.042161234388 	0.1218431218454566 	101374.8508097201
-1.047297297297297 	300.0425060267257 	0.122827606646934 	101375.2586243489
-1.044794794794795 	300.0420542778453 	0.1215568106507129 	101374.7243857277
-1.042292292292292 	300.0408202696208 	0.1180093054743737 	101373.2651884732
-1.03978978978979 	300.0388295006611 	0.1122617084541486 	101370.9110802966
-1.037287287287287 	300.0361214596604 	0.1043895523887028 	101367.7086724224
-1.034784784784785 	300.0327309910371 	0.09458495519220497 	101363.6994126646
-1.032282282282283 	300.0287318403764 	0.08307397898531495 	101358.9704507301
-1.02977977977978 	300.0242183315678 	0.07000788322615503 	101353.6335078461
-1.027277277277277 	300.0192722767862 	0.05567627667718263 	101347.7853222446
-1.024774774774775 	300.0139767321328 	0.04033594258519695 	101341.5240962196
-1.022272272272272 	300.0084335600291 	0.02429129813869673 	101334.9704239185
-1.01976976976977 	300.0027337203919 	0.007876854814185246 	101328.2317682549
-1.017267267267267 	299.996988256743 	0.009662133245130301 	101321.4395594228
-1.014764764764765 	299.9912841055135 	0.02524493961678288 	101314.6965081772
-1.012262262262262 	299.9857244359507 	0.04131738995949413 	101308.1244933665
-1.00975975975976 	299.9804311722556 	0.05661092139638767 	101301.8677087891
-1.007257257257257 	299.9755115184767 	0.07080857919097187 	101296.0527274826
-1.004754754754755 	299.9710364807199 	0.08373443909784431 	101290.7635173977
-1.002252252252252 	299.9670917103521 	0.09516993511196248 	101286.1012251492
-0.9997497497497498 	299.9637419741535 	0.1048767993842498 	101282.1422543997
-0.9972472472472473 	299.961059140524 	0.1126148074747697 	101278.9715665221
-0.9947447447447449 	299.9591137201176 	0.1181860458448384 	101276.6723459458
-0.9922422422422421 	299.9579494009211 	0.1215625195261805 	101275.2962377796
-0.9897397397397399 	299.9575629579205 	0.1226650187811115 	101274.8395434541
-0.9872372372372376 	299.9579730792997 	0.1214991178440336 	101275.3241886177
-0.9847347347347346 	299.9591619819975 	0.1180754301703378 	101276.7291198183
-0.9822322322322323 	299.9611078136572 	0.1124059790309655 	101279.0286417961
-0.9797297297297296 	299.963767862879 	0.1047116587552905 	101282.1722404016
-0.9772272272272275 	299.9670860936901 	0.09512957625560868 	101286.0938567579
-0.9747247247247248 	299.9709890372603 	0.08382471326132419 	101290.706671866
-0.9722222222222224 	299.9754284072991 	0.0710049870166157 	101295.9535998283
-0.9697197197197196 	299.9803202524391 	0.0568431817427459 	101301.7356232152
-0.9672172172172175 	299.9855704067313 	0.04166067315137971 	101307.9413633777
-0.9647147147147147 	299.9910617479638 	0.02580205934782349 	101314.4325517935
-0.9622122122122124 	299.9966731364134 	0.0095661070142283 	101321.0659890547
-0.9597097097097099 	300.0023271783023 	0.009277160269574695 	101327.7500811624
-0.9572072072072073 	300.0079436041066 	0.02297843708391138 	101334.3901036816
-0.9547047047047047 	300.0134237369954 	0.03886313506354092 	101340.869235968
-0.9522022022022023 	300.0186764877303 	0.05406974313495391 	101347.0798689871
-0.9496996996996998 	300.023610810461 	0.06835147035101825 	101352.9143045893
-0.9471971971971973 	300.0281429353643 	0.08142850659019145 	101358.2733104782
-0.9446946946946947 	300.0321807402241 	0.09306819215741863 	101363.0480551852
-0.9421921921921923 	300.0356306296453 	0.1030549661897271 	101367.1276730569
-0.93968968968969 	300.0384228780636 	0.1111172733404323 	101370.4297465956
-0.9371871871871872 	300.0405091512487 	0.1171072666553341 	101372.8970554622
-0.9346846846846848 	300.0418384445754 	0.1209144144778309 	101374.4691084539
-0.9321821821821823 	300.0423876602063 	0.1224984326724864 	101375.1186845471
-0.9296796796796799 	300.0421460395585 	0.1218350917471943 	101374.8329345005
-0.9271771771771771 	300.0411139783225 	0.1188745717442884 	101373.6125286929
-0.9246746746746748 	300.0393141714867 	0.1136767804804753 	101371.4842561682
-0.9221721721721724 	300.0367861897818 	0.1063275102905904 	101368.4947807892
-0.9196696696696698 	300.0335642104865 	0.09701928587858608 	101364.684734538
-0.9171671671671672 	300.0297222845718 	0.08593274155410299 	101360.1416784811
-0.9146646646646649 	300.0253318711793 	0.07320170837805649 	101354.950215841
-0.9121621621621623 	300.0204671711969 	0.05910938145962807 	101349.1981843001
-0.9096596596596597 	300.0152190212848 	0.043916353451013 	101342.9929457947
-0.9071571571571573 	300.009702413124 	0.02796917989644387 	101336.4705916014
-0.9046546546546547 	300.0040192785578 	0.01162671446712429 	101329.7516432549
-0.9021521521521524 	299.9983002986785 	0.00902435115831238 	101322.9906451194
-0.8996496496496498 	299.992608469759 	0.02140166558265228 	101316.2620926849
-0.8971471471471473 	299.9870250778728 	0.0375430949727287 	101309.6619790174
-0.894644644644645 	299.9816655100427 	0.05304635512711845 	101303.3267373574
-0.892142142142142 	299.9766405902441 	0.06755728556965006 	101297.3873020859
-0.8896396396396397 	299.9720419007665 	0.08085698950157008 	101291.9518863954
-0.8871371371371374 	299.9679705295159 	0.09265430056129439 	101287.1399251634
-0.8846346346346349 	299.9644897665614 	0.1027225633927377 	101283.0260832286
-0.8821321321321324 	299.9616702889952 	0.1108475440491366 	101279.6938706089
-0.8796296296296297 	299.9595747818682 	0.116856575478861 	101277.2172953822
-0.8771271271271271 	299.9582408905409 	0.1207136362654009 	101275.6407745399
-0.8746246246246248 	299.9576804273586 	0.1223015589529409 	101274.9784164692
-0.8721221221221224 	299.9579216470486 	0.1216376084213654 	101275.2634615198
-0.8696196196196196 	299.9589416043813 	0.1187113501095924 	101276.4687257058
-0.8671171171171175 	299.9607194674878 	0.1135490685494683 	101278.5697428212
-0.8646146146146148 	299.9632122298136 	0.1063683892811987 	101281.5156436637
-0.8621121121121121 	299.9663657531875 	0.09724653801786109 	101285.242579066
-0.8596096096096097 	299.9701229027256 	0.08635923428193444 	101289.6830315408
-0.857107107107107 	299.9744472393565 	0.07387445987093472 	101294.793949308
-0.8546046046046049 	299.9792421222277 	0.05996147100902176 	101300.461323652
-0.8521021021021022 	299.9844126138664 	0.04499603852579845 	101306.572854493
-0.8495995995995997 	299.9898389998618 	0.02931602365894536 	101312.9872038452
-0.8470970970970974 	299.9953956761251 	0.01326009266501573 	101319.555878391
-0.8445945945945946 	300.0009991892964 	0.008172261430349149 	101326.1801447724
-0.8420920920920922 	300.0065854690097 	0.01904238919400871 	101332.7844706008
-0.8395895895895897 	300.0120743268636 	0.03493752484730319 	101339.2738411177
-0.8370870870870872 	300.0173725195091 	0.05027007976912035 	101345.5381491088
-0.8345845845845846 	300.0223803018771 	0.06476503625425117 	101351.4593619157
-0.8320820820820823 	300.0270080033876 	0.07812397559081234 	101356.9313014392
-0.8295795795795798 	300.0311581982959 	0.09011805386169491 	101361.8389282534
-0.8270770770770772 	300.0347433385715 	0.1005183899427418 	101366.0784370193
-0.8245745745745746 	300.0376984937309 	0.109044253447915 	101369.5731545528
-0.8220720720720721 	300.0399647196452 	0.1155426912012511 	101372.2532508897
-0.8195695695695699 	300.041481075951 	0.1198748979440766 	101374.0464867384
-0.817067067067067 	300.0422219767652 	0.122001612122335 	101374.9227922489
-0.8145645645645651 	300.0421742504874 	0.1218998375990737 	101374.8663169992
-0.8120620620620621 	300.0413439630568 	0.1195183416144754 	101373.8845355871
-0.8095595595595597 	300.0397517290969 	0.1149131900962597 	101372.0017348163
-0.8070570570570572 	300.0374184132642 	0.1081371444248622 	101369.2424236472
-0.8045545545545546 	300.0343675179604 	0.09935218452826933 	101365.6347081833
-0.8020520520520523 	300.0306720988425 	0.08869759016545282 	101361.2648412225
-0.7995495495495494 	300.0264005068328 	0.07631575687428407 	101356.2138707463
-0.7970470470470474 	300.0216350383809 	0.06250857676703293 	101350.5791172879
-0.7945445445445446 	300.0164712216484 	0.04753442535674446 	101344.4734900242
-0.7920420420420423 	300.0110145291408 	0.03176248045120469 	101338.0219512294
-0.7895395395395397 	300.0053681716192 	0.01551473387035641 	101331.3463854096
-0.7870370370370371 	299.9996622948652 	0.007535019424747656 	101324.6008283878
-0.7845345345345348 	299.993948582914 	0.01754582207496456 	101317.8463340831
-0.7820320320320323 	299.9883159850493 	0.03381230583761922 	101311.1879454303
-0.7795295295295296 	299.9828877124327 	0.04949514570404575 	101304.7714699708
-0.7770270270270272 	299.9777752116404 	0.06424040192609207 	101298.7284245902
-0.7745245245245247 	299.9730778534746 	0.07783090533002024 	101293.1763669782
-0.7720220220220222 	299.9688926770169 	0.0899724858910886 	101288.2298636427
-0.7695195195195199 	299.9652797432209 	0.1004279705940783 	101283.959747085
-0.767017017017017 	299.9623192091626 	0.1089674483043087 	101280.4608569704
-0.7645145145145147 	299.9600783964851 	0.115416800174603 	101277.8125189566
-0.7620120120120122 	299.9585844346092 	0.1197339700263836 	101276.0468494538
-0.7595095095095097 	299.9578537443205 	0.121812320130496 	101275.1833014179
-0.7570070070070072 	299.9579091216907 	0.1216709004852438 	101275.2486900566
-0.7545045045045048 	299.9587360100203 	0.1192625476957877 	101276.2258476183
-0.7520020020020022 	299.9603325375476 	0.1146087597234411 	101278.1125080663
-0.7494994994994997 	299.9626678505053 	0.1079055451067111 	101280.8723493851
-0.7469969969969972 	299.9656770582692 	0.09919819880018112 	101284.428708909
-0.7444944944944945 	299.9693102834713 	0.08870121580064222 	101288.7226302574
-0.7419919919919924 	299.9735183919774 	0.07657270741497857 	101293.6962019309
-0.7394894894894897 	299.9782017348599 	0.06297938788582955 	101299.2316327038
-0.7369869869869872 	299.9832714084347 	0.04831930351512896 	101305.2239655299
-0.7344844844844846 	299.9886192843297 	0.03286811476382075 	101311.5454609929
-0.7319819819819822 	299.9941128478832 	0.01697621398097214 	101318.039405275
-0.7294794794794797 	299.9996742319889 	0.006261616879572753 	101324.613865275
-0.7269769769769773 	300.0052299443509 	0.01517668201765335 	101331.1819191839
-0.7244744744744747 	300.0107201557138 	0.03106813501386648 	101337.6728385527
-0.721971971971972 	300.0160560186096 	0.04650134293535713 	101343.9816337038
-0.7194694694694695 	300.0211343475037 	0.06117814039460735 	101349.9861390407
-0.7169669669669674 	300.0258596644424 	0.07481168585356736 	101355.5735015214
-0.7144644644644647 	300.030130020624 	0.08715020515179658 	101360.6231233184
-0.711961961961962 	300.0338533709251 	0.09790874969043833 	101365.0260599506
-0.7094594594594597 	300.0369587172628 	0.1068697778664081 	101368.6983753837
-0.7069569569569573 	300.0393840909343 	0.1138461212077093 	101371.5666033512
-0.7044544544544545 	300.0410772652597 	0.118731573153913 	101373.5689848162
-0.7019519519519523 	300.042014989472 	0.1214563145169881 	101374.6780237514
-0.6994494494494495 	300.0421776416126 	0.1219394501512917 	101374.870379645
-0.6969469469469471 	300.0415588699212 	0.1201640986169231 	101374.1387128683
-0.6944444444444446 	300.0401661572839 	0.1161162026067734 	101372.4918233842
-0.6919419419419421 	300.0380116882973 	0.1098652352012671 	101369.9440523363
-0.6894394394394396 	300.03512549674 	0.1015431329774002 	101366.5310590401
-0.6869369369369374 	300.0315768751113 	0.09126684115072277 	101362.3347803305
-0.6844344344344344 	300.0274307643128 	0.07925453982972978 	101357.4321526687
-0.6819319319319321 	300.0227692322259 	0.06576220327950157 	101351.920216004
-0.6794294294294296 	300.0176888689401 	0.05106286735517627 	101345.9132354081
-0.6769269269269272 	300.0122898993058 	0.03549310385060371 	101339.5298490504
-0.6744244244244245 	300.0066801920374 	0.01932701730505349 	101332.897574222
-0.6719219219219222 	300.0009859850946 	0.005194319111125723 	101326.1657425725
-0.6694194194194195 	299.9952656394495 	0.01371576656324287 	101319.403307652
-0.6669169169169172 	299.9896076728536 	0.03006316582987083 	101312.7148805629
-0.6644144144144146 	299.984131199831 	0.04590498771797176 	101306.241335038
-0.661911911911912 	299.978942358514 	0.0609079692274058 	101300.1080332241
-0.6594094094094097 	299.9741502177092 	0.07477692678639671 	101294.443892037
-0.656906906906907 	299.9698479389024 	0.08723185859563065 	101289.3589213085
-0.6544044044044046 	299.966108397598 	0.09801639301670054 	101284.9391576552
-0.6519019019019021 	299.9630136025772 	0.1069308645462889 	101281.2815415263
-0.6493993993993996 	299.9606255747969 	0.1138276611750621 	101278.4592554742
-0.6468968968968971 	299.9589648459968 	0.1186035507296986 	101276.4964994623
-0.6443943943943946 	299.9580640477324 	0.1211904306960845 	101275.4318745636
-0.6418918918918921 	299.9579401177593 	0.1215694602611526 	101275.2853892004
-0.6393893893893897 	299.9585926901277 	0.1196818396333158 	101276.0565146469
-0.6368868868868871 	299.9600212104417 	0.1155558736015151 	101277.7446581289
-0.6343843843843846 	299.9621966496924 	0.1093151524634041 	101280.3155476884
-0.6318818818818821 	299.9650462081817 	0.1010297767958816 	101283.6831916709
-0.6293793793793795 	299.9685383258116 	0.09094441086200702 	101287.810334852
-0.6268768768768773 	299.972603417624 	0.07920414634718283 	101292.6148060356
-0.6243743743743745 	299.9771536424315 	0.06598845434757727 	101297.9930901957
-0.6218718718718721 	299.9821029703554 	0.05166502228997053 	101303.8431696342
-0.6193693693693696 	299.9873632291961 	0.03647616547204897 	101310.0608134896
-0.6168668668668671 	299.992797624931 	0.02077192510949664 	101316.4846969546
-0.6143643643643645 	299.9983401236066 	0.004823147095169989 	101323.0367368876
-0.6118618618618621 	300.0038761888795 	0.01166515958077654 	101329.5815054655
-0.6093593593593596 	300.0093738299174 	0.02714813740791728 	101336.0811462406
-0.6068568568568571 	300.0147448174689 	0.04268906055250316 	101342.4313777482
-0.6043543543543546 	300.0198802769877 	0.05754717786615635 	101348.5033719295
-0.6018518518518521 	300.0246825138777 	0.07142594798857382 	101354.1816217317
-0.5993493493493496 	300.0290500940918 	0.08405774140491007 	101359.3461601257
-0.5968468468468471 	300.0328961729068 	0.09517218361115122 	101363.894204022
-0.5943443443443446 	300.0361526940208 	0.1045511103134589 	101367.7452386294
-0.591841841841842 	300.0387519248521 	0.1120160418988353 	101370.8190372929
-0.5893393393393397 	300.0406384674924 	0.1174503604804134 	101373.0500911786
-0.5868368368368371 	300.0417811739471 	0.1207509222648974 	101374.4015309946
-0.5843343343343346 	300.042149759802 	0.1218246166592113 	101374.8374629097
-0.5818318318318321 	300.0417317661478 	0.1206348663742543 	101374.3431898846
-0.5793293293293297 	300.0405307774106 	0.117153575270966 	101372.9230173487
-0.5768268268268271 	300.0385535739287 	0.1114438436885681 	101370.58489225
-0.5743243243243245 	300.0358336838607 	0.1036118087038858 	101367.3685349282
-0.5718218218218221 	300.0324364299155 	0.0937633767145164 	101363.3512361236
-0.5693193193193196 	300.0284218715552 	0.08212909580046072 	101358.6041380192
-0.5668168168168171 	300.0238728748175 	0.0689516505224482 	101353.2251962914
-0.5643143143143147 	300.0188864166983 	0.05450755170201269 	101347.3292095
-0.5618118118118121 	300.0135553154254 	0.0391274090514342 	101341.026000067
-0.5593093093093094 	300.0079888058283 	0.02306446509533766 	101334.4447332953
-0.5568068068068072 	300.0023083302662 	0.006619001347408028 	101327.7290753533
-0.5543043043043046 	299.9965803401729 	0.01123986112696128 	101320.9575047695
-0.551801801801802 	299.9908922606762 	0.02635131162470109 	101314.2334244897
-0.5492992992992995 	299.9853632904633 	0.04233341043901957 	101307.6977582097
-0.5467967967967969 	299.9801028787403 	0.05754749824072074 	101301.4798024552
-0.5442942942942947 	299.9752256490431 	0.07165937625697298 	101295.7150511851
-0.5417917917917919 	299.9708197548206 	0.08441459137959917 	101290.5075539731
-0.5392892892892895 	299.9669650890116 	0.09554801974695866 	101285.9517009745
-0.536786786786787 	299.9637382931622 	0.1048717056521908 	101282.1380618314
-0.5342842842842846 	299.9611954192809 	0.1122332816450411 	101279.1327697776
-0.531781781781782 	299.9593635222931 	0.1174790559250533 	101276.9677463691
-0.5292792792792794 	299.9582884140105 	0.1205661218275206 	101275.6970701216
-0.526776776776777 	299.9579854125333 	0.121431247481584 	101275.3389615116
-0.5242742742742745 	299.958466307776 	0.1200320107212682 	101275.9072183691
-0.521771771771772 	299.959725713272 	0.1164103989805124 	101277.3955055042
-0.5192692692692695 	299.9617362238448 	0.1106166206744198 	101279.7714691945
-0.516766766766767 	299.9644383578266 	0.1027779162984503 	101282.9648669947
-0.5142642642642645 	299.9678020839804 	0.09309363488060375 	101286.9402313082
-0.511761761761762 	299.9717403829449 	0.08171801350523059 	101291.5948261611
-0.5092592592592596 	299.976174851669 	0.06887524347856221 	101296.8360458605
-0.506756756756757 	299.9810134649938 	0.0548560126176353 	101302.555156623
-0.5042542542542544 	299.986171794946 	0.03992919517696775 	101308.6524610053
-0.5017517517517521 	299.9915330226262 	0.024412707473542 	101314.9898259193
-0.4992492492492494 	299.9970352496939 	0.008562751426288482 	101321.4942030954
-0.496746746746747 	300.0025468449643 	0.009571867743653014 	101328.0099681463
-0.4942442442442445 	300.0080477271576 	0.02334575826223195 	101334.5133575722
-0.4917417417417421 	300.0134438491482 	0.03892518728041255 	101340.8932467287
-0.4892392392392395 	300.0186263068572 	0.05389026250705685 	101347.0207177748
-0.486736736736737 	300.0234965169672 	0.0679564567630607 	101352.779297362
-0.4842342342342345 	300.0279568789515 	0.08085455592572509 	101358.0534907223
-0.481731731731732 	300.0319233974138 	0.0923300499772008 	101362.7438996749
-0.4792292292292296 	300.0353233096514 	0.1021451083773577 	101366.7644895254
-0.4767267267267268 	300.0380810516164 	0.110107404027409 	101370.0256933425
-0.4742242242242246 	300.0401426953097 	0.1160747651489003 	101372.4638201272
-0.471721721721722 	300.041472873198 	0.1199177068057313 	101374.0369611614
-0.4692192192192195 	300.0420396027081 	0.1215455051475293 	101374.7072289178
-0.4667167167167169 	300.0418268857727 	0.120916484972554 	101374.4557122328
-0.4642142142142145 	300.0408303935269 	0.1179956480765557 	101373.2773398095
-0.461711711711712 	300.0390479689362 	0.1128445455521718 	101371.1695734495
-0.4592092092092094 	300.0365135775044 	0.1055370459574691 	101368.172576365
-0.456706706706707 	300.0332808091846 	0.09617786406630693 	101364.3497508422
-0.4542042042042045 	300.0294081603124 	0.08499018867822725 	101359.7704395768
-0.451701701701702 	300.0249777692991 	0.07218261929841961 	101354.5316789087
-0.4491991991991995 	300.0200856373078 	0.05803355848942446 	101348.7471816588
-0.4466966966966969 	300.0148209954431 	0.04284615827720815 	101342.522496662
-0.4441941941941945 	300.0093001703241 	0.02687913370291277 	101335.9951676368
-0.441691691691692 	300.0036336187641 	0.01046512881944055 	101329.2959008939
-0.4391891891891895 	299.9979070483913 	0.008764911322204597 	101322.525922433
-0.436686686686687 	299.9922039951215 	0.02258660367718342 	101315.7840831009
-0.4341841841841846 	299.9866346380585 	0.03868462174614933 	101309.2006039197
-0.431681681681682 	299.9813079830679 	0.05406988690500522 	101302.9042900892
-0.4291791791791794 	299.9763399977384 	0.06841249800367268 	101297.0322028413
-0.426676676676677 	299.9718215701852 	0.08146029342742377 	101291.6916495583
-0.4241741741741744 	299.9678430380163 	0.09294793272484275 	101286.9893858995
-0.421671671671672 	299.9644798951628 	0.1026869555152002 	101283.0145666184
-0.4191691691691694 	299.9617857394188 	0.1104986219111387 	101279.8304791437
-0.4166666666666669 	299.9597949706979 	0.1162315718240486 	101277.4777041046
-0.4141641641641645 	299.958554953167 	0.1198215858691664 	101276.0121045923
-0.411661661661662 	299.9580800348418 	0.1211848963261611 	101275.4508445613
-0.4091591591591594 	299.9583888787645 	0.1202804196837037 	101275.8157641667
-0.406656656656657 	299.9594754097415 	0.1171316047849984 	101277.099760899
-0.4041541541541545 	299.9613157156347 	0.1117882371559353 	101279.2745677934
-0.401651651651652 	299.9638633617632 	0.1043919327987227 	101282.2853636481
-0.3991491491491494 	299.9670837328608 	0.0951235461919856 	101286.0912988513
-0.396646646646647 	299.9708870071615 	0.08414283894689915 	101290.5862589634
-0.3941441441441444 	299.9752019841567 	0.07167293524570587 	101295.6862177463
-0.3916416416416419 	299.9799368747422 	0.05798008286526925 	101301.2826848237
-0.3891391391391395 	299.9850066570067 	0.04332337387327174 	101307.2752470253
-0.3866366366366368 	299.9903066050923 	0.02800140185112244 	101313.5401301999
-0.3841341341341344 	299.9957610840428 	0.01226499195369749 	101319.9879721429
-0.381631631631632 	300.0012402677791 	0.006669209036160228 	101326.4653611819
-0.3791291291291294 	300.0067271776867 	0.01955479067208706 	101332.9521647016
-0.3766266266266269 	300.0121311646145 	0.03516484109992178 	101339.3412605347
-0.3741241241241244 	300.0173498125437 	0.05023244833860513 	101345.5114729337
-0.371621621621622 	300.0222849044799 	0.06448037562279109 	101351.3466868246
-0.3691191191191194 	300.0268396608401 	0.07763339419130698 	101356.7324559245
-0.366616616616617 	300.0309306967761 	0.08945109144083639 	101361.5700665903
-0.3641141141141143 	300.0344796435042 	0.09967317290897056 	101365.7668389756
-0.3616116116116119 	300.0374011434691 	0.1081153074089884 	101369.2216900629
-0.3591091091091095 	300.03964063267 	0.1146158239387988 	101371.8701073206
-0.356606606606607 	300.0411561810612 	0.1190042010518834 	101373.6624675288
-0.3541041041041044 	300.0419131889439 	0.121202633845435 	101374.557779679
-0.3516016016016019 	300.041894268918 	0.121126754275694 	101374.5354294149
-0.3490990990990994 	300.0410910286902 	0.118757979126768 	101373.5855732512
-0.346596596596597 	300.0394952650697 	0.1141520014780305 	101371.6985641644
-0.3440940940940944 	300.0371438339154 	0.1073459046434558 	101368.9179106173
-0.3415915915915919 	300.0340785470206 	0.09846049470331364 	101365.2931395609
-0.3390890890890895 	300.0303533483015 	0.08769092053802086 	101360.8881377716
-0.3365865865865869 	300.0260468247657 	0.07524688351795074 	101355.795804237
-0.3340840840840844 	300.0212526683014 	0.06140042506076658 	101350.1271192711
-0.3315815815815819 	300.0160552551823 	0.04643208407004119 	101343.9818377823
-0.3290790790790794 	300.0105808957944 	0.03059459348027998 	101337.5094095011
-0.3265765765765769 	300.0049316352325 	0.01423668079211894 	101330.83050042
-0.3240740740740744 	299.9992111428533 	0.005461289451912402 	101324.0676247916
-0.3215715715715718 	299.9935034783378 	0.01882931081113977 	101317.3202877961
-0.3190690690690695 	299.9879082423176 	0.03502060353855724 	101310.706115547
-0.3165665665665668 	299.9825315373631 	0.05056960831035082 	101304.350610736
-0.3140640640640644 	299.977483071123 	0.06513400824327313 	101298.3833291082
-0.311561561561562 	299.9728572735676 	0.07847962326825415 	101292.9158056049
-0.3090590590590593 	299.9687525809096 	0.09031104285265862 	101288.0644287635
-0.3065565565565568 	299.9652511660269 	0.1004449650063853 	101283.9261264697
-0.3040540540540545 	299.9624087638913 	0.108678572389577 	101280.5668596548
-0.3015515515515518 	299.9602683125406 	0.1148438520553298 	101278.0371709848
-0.2990490490490494 	299.9588727190514 	0.1188992136059891 	101276.387689915
-0.2965465465465469 	299.9582369382068 	0.1207388800929906 	101275.6363361408
-0.2940440440440444 	299.9583763054556 	0.1203491257385756 	101275.8009440522
-0.2915415415415418 	299.9592852298642 	0.1177250175314032 	101276.8750933789
-0.2890390390390395 	299.9609428882956 	0.1128876976917689 	101278.8340144682