/*--------------------------------*- C++ -*----------------------------------*\
  =========                 |
  \\      /  F ield         | OpenFOAM: The Open Source CFD Toolbox
   \\    /   O peration     | Website:  https://openfoam.org
    \\  /    A nd           | Version:  7
     \\/     M anipulation  |
\*---------------------------------------------------------------------------*/
FoamFile
{
    version     2.0;
    format      ascii;
    class       volScalarField;
    location    "0.00094";
    object      p;
}
// * * * * * * * * * * * * * * * * * * * * * * * * * * * * * * * * * * * * * //

dimensions      [1 -1 -2 0 0 0 0];

internalField   nonuniform List<scalar> 
5000
(
101667.72
101679.36
101691.3
101703.31
101715.36
101727.42
101739.5
101751.58
101763.68
101775.78
101787.89
101800
101812.11
101824.22
101836.34
101848.45
101860.56
101872.67
101884.78
101896.89
101909
101921.11
101933.21
101945.32
101957.42
101969.52
101981.62
101993.72
102005.82
102017.91
102030.01
102042.1
102054.19
102066.28
102078.37
102090.46
102102.54
102114.63
102126.71
102138.79
102150.87
102162.95
102175.03
102187.1
102199.18
102211.25
102223.32
102235.39
102247.46
102259.53
102271.59
102283.66
102295.72
102307.78
102319.84
102331.9
102343.96
102356.01
102368.07
102380.12
102392.17
102404.22
102416.27
102428.32
102440.36
102452.41
102464.45
102476.49
102488.53
102500.57
102512.61
102524.64
102536.68
102548.71
102560.74
102572.77
102584.8
102596.83
102608.85
102620.88
102632.9
102644.92
102656.94
102668.96
102680.98
102692.99
102705.01
102717.02
102729.03
102741.04
102753.05
102765.06
102777.06
102789.07
102801.07
102813.07
102825.07
102837.07
102849.07
102861.06
102873.06
102885.05
102897.04
102909.03
102921.02
102933.01
102944.99
102956.98
102968.96
102980.94
102992.92
103004.9
103016.87
103028.85
103040.82
103052.79
103064.76
103076.73
103088.69
103100.65
103112.61
103124.57
103136.53
103148.48
103160.43
103172.38
103184.32
103196.27
103208.21
103220.15
103232.08
103244.02
103255.95
103267.88
103279.8
103291.73
103303.65
103315.57
103327.5
103339.42
103351.34
103363.26
103375.17
103387.09
103399.01
103410.93
103422.86
103434.78
103446.7
103458.63
103470.56
103482.48
103494.41
103506.35
103518.28
103530.22
103542.16
103554.1
103566.04
103577.98
103589.93
103601.88
103613.83
103625.78
103637.73
103649.68
103661.64
103673.6
103685.55
103697.51
103709.47
103721.43
103733.39
103745.34
103757.3
103769.26
103781.22
103793.18
103805.14
103817.09
103829.05
103841.01
103852.96
103864.91
103876.87
103888.82
103900.77
103912.72
103924.67
103936.62
103948.56
103960.51
103972.45
103984.4
103996.34
104008.28
104020.22
104032.16
104044.09
104056.03
104067.96
104079.89
104091.82
104103.75
104115.68
104127.61
104139.53
104151.46
104163.38
104175.3
104187.22
104199.14
104211.06
104222.97
104234.89
104246.8
104258.71
104270.62
104282.53
104294.44
104306.34
104318.25
104330.15
104342.05
104353.95
104365.85
104377.75
104389.64
104401.54
104413.43
104425.32
104437.21
104449.1
104460.99
104472.87
104484.76
104496.64
104508.52
104520.4
104532.28
104544.15
104556.03
104567.9
104579.77
104591.64
104603.51
104615.37
104627.24
104639.1
104650.96
104662.82
104674.68
104686.53
104698.38
104710.24
104722.09
104733.93
104745.78
104757.63
104769.47
104781.31
104793.15
104804.99
104816.82
104828.66
104840.49
104852.32
104864.15
104875.98
104887.81
104899.64
104911.46
104923.29
104935.11
104946.93
104958.75
104970.57
104982.39
104994.21
105006.03
105017.85
105029.67
105041.48
105053.3
105065.12
105076.93
105088.75
105100.57
105112.39
105124.2
105136.02
105147.84
105159.66
105171.48
105183.3
105195.12
105206.94
105218.77
105230.59
105242.41
105254.24
105266.06
105277.89
105289.71
105301.54
105313.37
105325.2
105337.03
105348.85
105360.68
105372.51
105384.35
105396.18
105408.01
105419.84
105431.67
105443.5
105455.34
105467.17
105479
105490.83
105502.66
105514.5
105526.33
105538.16
105549.99
105561.82
105573.65
105585.48
105597.31
105609.14
105620.96
105632.79
105644.62
105656.44
105668.27
105680.09
105691.91
105703.73
105715.55
105727.37
105739.19
105751.01
105762.83
105774.64
105786.46
105798.27
105810.08
105821.89
105833.7
105845.51
105857.32
105869.13
105880.93
105892.74
105904.54
105916.34
105928.14
105939.94
105951.74
105963.54
105975.33
105987.13
105998.92
106010.71
106022.5
106034.29
106046.08
106057.87
106069.65
106081.44
106093.22
106105
106116.78
106128.56
106140.34
106152.12
106163.89
106175.66
106187.44
106199.21
106210.97
106222.74
106234.51
106246.27
106258.03
106269.79
106281.55
106293.31
106305.06
106316.82
106328.57
106340.32
106352.06
106363.81
106375.55
106387.29
106399.03
106410.77
106422.5
106434.23
106445.96
106457.69
106469.42
106481.14
106492.86
106504.57
106516.29
106528
106539.71
106551.42
106563.13
106574.83
106586.53
106598.23
106609.92
106621.61
106633.31
106644.99
106656.68
106668.37
106680.05
106691.73
106703.41
106715.08
106726.76
106738.43
106750.1
106761.77
106773.44
106785.11
106796.78
106808.44
106820.1
106831.77
106843.43
106855.09
106866.75
106878.41
106890.07
106901.73
106913.39
106925.05
106936.71
106948.37
106960.03
106971.69
106983.35
106995.01
107006.68
107018.34
107030
107041.66
107053.33
107064.99
107076.66
107088.32
107099.99
107111.66
107123.33
107135
107146.67
107158.34
107170.01
107181.69
107193.36
107205.04
107216.71
107228.39
107240.07
107251.75
107263.42
107275.1
107286.78
107298.47
107310.15
107321.83
107333.51
107345.19
107356.88
107368.56
107380.25
107391.93
107403.61
107415.3
107426.98
107438.67
107450.35
107462.04
107473.72
107485.41
107497.09
107508.77
107520.46
107532.14
107543.82
107555.5
107567.19
107578.87
107590.55
107602.23
107613.91
107625.59
107637.26
107648.94
107660.62
107672.29
107683.97
107695.64
107707.31
107718.98
107730.65
107742.32
107753.99
107765.66
107777.33
107788.99
107800.66
107812.32
107823.98
107835.65
107847.31
107858.96
107870.62
107882.28
107893.94
107905.59
107917.24
107928.89
107940.55
107952.2
107963.84
107975.49
107987.14
107998.78
108010.43
108022.07
108033.71
108045.35
108056.99
108068.63
108080.26
108091.9
108103.53
108115.16
108126.8
108138.43
108150.05
108161.68
108173.31
108184.93
108196.56
108208.18
108219.8
108231.42
108243.04
108254.66
108266.27
108277.89
108289.5
108301.12
108312.73
108324.34
108335.95
108347.55
108359.16
108370.76
108382.37
108393.97
108405.57
108417.17
108428.77
108440.37
108451.96
108463.56
108475.15
108486.74
108498.34
108509.92
108521.51
108533.1
108544.69
108556.27
108567.85
108579.44
108591.02
108602.6
108614.17
108625.75
108637.32
108648.9
108660.47
108672.04
108683.61
108695.18
108706.75
108718.31
108729.88
108741.44
108753
108764.56
108776.12
108787.68
108799.23
108810.79
108822.34
108833.89
108845.44
108856.99
108868.53
108880.08
108891.62
108903.16
108914.7
108926.24
108937.78
108949.31
108960.84
108972.38
108983.91
108995.43
109006.96
109018.48
109030
109041.52
109053.04
109064.55
109076.07
109087.58
109099.09
109110.59
109122.1
109133.6
109145.1
109156.59
109168.08
109179.57
109191.06
109202.55
109214.03
109225.51
109236.98
109248.45
109259.92
109271.39
109282.85
109294.3
109305.76
109317.21
109328.65
109340.09
109351.53
109362.96
109374.39
109385.81
109397.22
109408.63
109420.04
109431.44
109442.83
109454.22
109465.6
109476.97
109488.34
109499.69
109511.05
109522.39
109533.72
109545.05
109556.37
109567.68
109578.98
109590.27
109601.54
109612.81
109624.07
109635.31
109646.55
109657.77
109668.98
109680.17
109691.35
109702.52
109713.67
109724.8
109735.92
109747.03
109758.11
109769.18
109780.23
109791.26
109802.26
109813.25
109824.22
109835.16
109846.08
109856.98
109867.85
109878.69
109889.51
109900.3
109911.07
109921.8
109932.5
109943.17
109953.81
109964.41
109974.98
109985.51
109996
110006.46
110016.87
110027.25
110037.58
110047.87
110058.11
110068.3
110078.45
110088.55
110098.59
110108.58
110118.52
110128.4
110138.22
110147.99
110157.69
110167.33
110176.9
110186.41
110195.84
110205.21
110214.5
110223.72
110232.87
110241.93
110250.91
110259.81
110268.63
110277.35
110285.99
110294.53
110302.98
110311.34
110319.59
110327.74
110335.79
110343.73
110351.57
110359.29
110366.9
110374.39
110381.76
110389.01
110396.14
110403.13
110410
110416.74
110423.34
110429.8
110436.12
110442.3
110448.33
110454.21
110459.94
110465.51
110470.93
110476.19
110481.28
110486.2
110490.96
110495.54
110499.95
110504.18
110508.23
110512.1
110515.78
110519.27
110522.56
110525.67
110528.57
110531.27
110533.77
110536.06
110538.15
110540.02
110541.68
110543.12
110544.34
110545.33
110546.1
110546.65
110546.96
110547.03
110546.88
110546.48
110545.84
110544.97
110543.84
110542.47
110540.85
110538.98
110536.85
110534.47
110531.83
110528.93
110525.77
110522.34
110518.65
110514.69
110510.46
110505.96
110501.19
110496.15
110490.83
110485.23
110479.35
110473.2
110466.76
110460.04
110453.04
110445.75
110438.18
110430.33
110422.18
110413.75
110405.03
110396.02
110386.72
110377.14
110367.26
110357.09
110346.63
110335.87
110324.83
110313.5
110301.87
110289.95
110277.74
110265.24
110252.45
110239.36
110225.99
110212.32
110198.37
110184.13
110169.6
110154.78
110139.68
110124.29
110108.61
110092.65
110076.41
110059.88
110043.08
110025.99
110008.63
109990.99
109973.07
109954.88
109936.42
109917.68
109898.68
109879.4
109859.86
109840.06
109819.99
109799.67
109779.08
109758.23
109737.13
109715.78
109694.18
109672.32
109650.22
109627.88
109605.29
109582.47
109559.4
109536.1
109512.57
109488.8
109464.81
109440.59
109416.15
109391.49
109366.61
109341.51
109316.21
109290.69
109264.96
109239.03
109212.9
109186.57
109160.05
109133.33
109106.42
109079.32
109052.04
109024.58
108996.94
108969.12
108941.13
108912.97
108884.65
108856.16
108827.52
108798.71
108769.75
108740.64
108711.39
108681.99
108652.45
108622.77
108592.95
108563.01
108532.94
108502.74
108472.42
108441.98
108411.43
108380.77
108350
108319.13
108288.15
108257.08
108225.91
108194.65
108163.31
108131.88
108100.37
108068.78
108037.12
108005.39
107973.6
107941.74
107909.82
107877.85
107845.82
107813.74
107781.62
107749.46
107717.26
107685.03
107652.77
107620.47
107588.16
107555.83
107523.48
107491.11
107458.74
107426.37
107393.99
107361.61
107329.25
107296.89
107264.54
107232.21
107199.91
107167.63
107135.37
107103.15
107070.97
107038.82
107006.72
106974.67
106942.66
106910.72
106878.83
106847
106815.25
106783.56
106751.94
106720.41
106688.95
106657.59
106626.31
106595.13
106564.04
106533.05
106502.18
106471.41
106440.75
106410.21
106379.79
106349.49
106319.33
106289.3
106259.4
106229.65
106200.04
106170.57
106141.26
106112.11
106083.11
106054.28
106025.62
105997.13
105968.81
105940.68
105912.72
105884.96
105857.38
105830
105802.81
105775.83
105749.06
105722.49
105696.13
105670
105644.08
105618.39
105592.92
105567.69
105542.69
105517.93
105493.41
105469.14
105445.12
105421.34
105397.83
105374.57
105351.57
105328.84
105306.38
105284.19
105262.27
105240.63
105219.27
105198.2
105177.41
105156.91
105136.7
105116.78
105097.17
105077.85
105058.83
105040.12
105021.72
105003.62
104985.83
104968.36
104951.2
104934.36
104917.84
104901.64
104885.76
104870.21
104854.98
104840.07
104825.5
104811.25
104797.33
104783.75
104770.49
104757.57
104744.98
104732.73
104720.81
104709.22
104697.96
104687.05
104676.46
104666.21
104656.3
104646.71
104637.47
104628.55
104619.96
104611.71
104603.79
104596.19
104588.92
104581.98
104575.37
104569.07
104563.1
104557.45
104552.12
104547.1
104542.4
104538
104533.92
104530.14
104526.67
104523.5
104520.63
104518.06
104515.78
104513.79
104512.09
104510.67
104509.53
104508.67
104508.08
104507.76
104507.72
104507.93
104508.4
104509.13
104510.11
104511.34
104512.81
104514.52
104516.47
104518.66
104521.07
104523.71
104526.56
104529.64
104532.92
104536.41
104540.11
104544.01
104548.1
104552.38
104556.85
104561.51
104566.34
104571.35
104576.52
104581.87
104587.37
104593.04
104598.85
104604.82
104610.94
104617.19
104623.59
104630.12
104636.78
104643.57
104650.48
104657.51
104664.65
104671.91
104679.28
104686.75
104694.33
104702
104709.77
104717.63
104725.58
104733.62
104741.74
104749.94
104758.22
104766.57
104774.99
104783.49
104792.05
104800.67
104809.35
104818.1
104826.9
104835.75
104844.66
104853.62
104862.62
104871.67
104880.77
104889.9
104899.08
104908.3
104917.55
104926.83
104936.15
104945.51
104954.89
104964.3
104973.74
104983.21
104992.7
105002.21
105011.75
105021.3
105030.88
105040.48
105050.09
105059.73
105069.37
105079.04
105088.72
105098.41
105108.11
105117.83
105127.56
105137.3
105147.05
105156.81
105166.58
105176.35
105186.14
105195.93
105205.73
105215.53
105225.34
105235.16
105244.98
105254.81
105264.64
105274.47
105284.31
105294.15
105304
105313.85
105323.7
105333.55
105343.41
105353.26
105363.12
105372.98
105382.85
105392.71
105402.58
105412.44
105422.31
105432.17
105442.04
105451.91
105461.78
105471.65
105481.52
105491.39
105501.25
105511.12
105520.99
105530.86
105540.73
105550.6
105560.46
105570.33
105580.2
105590.06
105599.93
105609.79
105619.66
105629.52
105639.38
105649.25
105659.11
105668.97
105678.83
105688.69
105698.55
105708.4
105718.26
105728.12
105737.97
105747.83
105757.68
105767.53
105777.38
105787.24
105797.09
105806.94
105816.78
105826.63
105836.48
105846.32
105856.17
105866.01
105875.86
105885.7
105895.54
105905.38
105915.22
105925.06
105934.9
105944.74
105954.57
105964.41
105974.24
105984.08
105993.91
106003.74
106013.57
106023.4
106033.23
106043.06
106052.89
106062.72
106072.54
106082.37
106092.19
106102.01
106111.84
106121.66
106131.48
106141.3
106151.12
106160.94
106170.75
106180.57
106190.39
106200.2
106210.01
106219.83
106229.64
106239.45
106249.26
106259.07
106268.88
106278.68
106288.49
106298.3
106308.1
106317.91
106327.71
106337.51
106347.31
106357.11
106366.91
106376.71
106386.51
106396.3
106406.1
106415.89
106425.69
106435.48
106445.27
106455.06
106464.86
106474.64
106484.43
106494.22
106504.01
106513.79
106523.58
106533.36
106543.15
106552.93
106562.71
106572.49
106582.27
106592.05
106601.82
106611.6
106621.38
106631.15
106640.93
106650.7
106660.47
106670.24
106680.01
106689.78
106699.55
106709.32
106719.09
106728.85
106738.62
106748.38
106758.15
106767.91
106777.67
106787.43
106797.19
106806.95
106816.71
106826.47
106836.22
106845.98
106855.73
106865.48
106875.24
106884.99
106894.74
106904.49
106914.24
106923.99
106933.74
106943.48
106953.23
106962.97
106972.72
106982.46
106992.2
107001.94
107011.68
107021.42
107031.16
107040.9
107050.63
107060.37
107070.1
107079.84
107089.57
107099.3
107109.03
107118.76
107128.49
107138.22
107147.95
107157.68
107167.4
107177.13
107186.85
107196.57
107206.29
107216.02
107225.74
107235.45
107245.17
107254.89
107264.61
107274.32
107284.04
107293.75
107303.46
107313.17
107322.88
107332.59
107342.3
107352.01
107361.72
107371.42
107381.13
107390.83
107400.53
107410.24
107419.94
107429.64
107439.34
107449.03
107458.73
107468.42
107478.12
107487.81
107497.5
107507.2
107516.89
107526.57
107536.26
107545.95
107555.63
107565.32
107575
107584.68
107594.36
107604.04
107613.72
107623.39
107633.07
107642.74
107652.41
107662.09
107671.75
107681.42
107691.09
107700.75
107710.42
107720.08
107729.74
107739.39
107749.05
107758.71
107768.36
107778.01
107787.66
107797.3
107806.95
107816.59
107826.23
107835.87
107845.5
107855.14
107864.77
107874.4
107884.02
107893.65
107903.27
107912.88
107922.5
107932.11
107941.72
107951.32
107960.92
107970.52
107980.12
107989.71
107999.3
108008.88
108018.46
108028.04
108037.61
108047.18
108056.74
108066.3
108075.85
108085.4
108094.94
108104.48
108114.01
108123.54
108133.06
108142.57
108152.08
108161.58
108171.08
108180.57
108190.05
108199.53
108208.99
108218.45
108227.9
108237.35
108246.78
108256.21
108265.63
108275.04
108284.44
108293.83
108303.2
108312.57
108321.93
108331.28
108340.62
108349.94
108359.26
108368.56
108377.85
108387.12
108396.39
108405.64
108414.87
108424.09
108433.3
108442.49
108451.67
108460.83
108469.97
108479.1
108488.21
108497.31
108506.38
108515.44
108524.48
108533.5
108542.5
108551.48
108560.44
108569.37
108578.29
108587.19
108596.06
108604.91
108613.73
108622.54
108631.31
108640.07
108648.79
108657.49
108666.17
108674.82
108683.44
108692.03
108700.59
108709.12
108717.63
108726.1
108734.55
108742.96
108751.34
108759.68
108768
108776.28
108784.52
108792.73
108800.91
108809.05
108817.15
108825.22
108833.24
108841.23
108849.19
108857.1
108864.97
108872.8
108880.59
108888.34
108896.04
108903.71
108911.33
108918.91
108926.44
108933.92
108941.37
108948.76
108956.11
108963.41
108970.67
108977.87
108985.03
108992.14
108999.2
109006.21
109013.17
109020.08
109026.93
109033.74
109040.49
109047.19
109053.84
109060.43
109066.97
109073.45
109079.88
109086.26
109092.57
109098.84
109105.04
109111.2
109117.29
109123.33
109129.31
109135.23
109141.09
109146.9
109152.64
109158.33
109163.96
109169.53
109175.05
109180.5
109185.89
109191.22
109196.5
109201.71
109206.87
109211.96
109216.99
109221.97
109226.88
109231.73
109236.53
109241.26
109245.93
109250.54
109255.09
109259.59
109264.02
109268.39
109272.7
109276.96
109281.15
109285.28
109289.36
109293.37
109297.33
109301.23
109305.07
109308.85
109312.57
109316.24
109319.84
109323.4
109326.89
109330.33
109333.71
109337.04
109340.31
109343.52
109346.68
109349.79
109352.84
109355.84
109358.79
109361.68
109364.52
109367.31
109370.05
109372.74
109375.37
109377.96
109380.5
109382.99
109385.42
109387.82
109390.16
109392.46
109394.71
109396.91
109399.07
109401.19
109403.26
109405.28
109407.26
109409.2
109411.1
109412.96
109414.78
109416.55
109418.29
109419.98
109421.64
109423.26
109424.84
109426.39
109427.9
109429.37
109430.81
109432.21
109433.58
109434.91
109436.21
109437.48
109438.72
109439.93
109441.1
109442.25
109443.37
109444.45
109445.51
109446.54
109447.55
109448.52
109449.47
109450.4
109451.3
109452.17
109453.02
109453.85
109454.65
109455.43
109456.19
109456.92
109457.64
109458.33
109459.01
109459.66
109460.3
109460.91
109461.51
109462.09
109462.65
109463.19
109463.72
109464.23
109464.73
109465.21
109465.67
109466.12
109466.56
109466.98
109467.39
109467.78
109468.16
109468.53
109468.89
109469.23
109469.57
109469.89
109470.2
109470.5
109470.79
109471.07
109471.34
109471.6
109471.86
109472.1
109472.33
109472.56
109472.78
109472.99
109473.19
109473.39
109473.57
109473.76
109473.93
109474.1
109474.26
109474.42
109474.57
109474.71
109474.85
109474.98
109475.11
109475.24
109475.36
109475.47
109475.58
109475.68
109475.79
109475.88
109475.98
109476.07
109476.15
109476.24
109476.31
109476.39
109476.46
109476.53
109476.6
109476.67
109476.73
109476.79
109476.84
109476.9
109476.95
109477
109477.05
109477.09
109477.14
109477.18
109477.22
109477.26
109477.29
109477.33
109477.36
109477.4
109477.43
109477.46
109477.48
109477.51
109477.54
109477.56
109477.59
109477.61
109477.63
109477.65
109477.67
109477.69
109477.71
109477.72
109477.74
109477.76
109477.77
109477.79
109477.8
109477.81
109477.83
109477.84
109477.85
109477.86
109477.87
109477.88
109477.89
109477.9
109477.91
109477.92
109477.92
109477.93
109477.94
109477.95
109477.95
109477.96
109477.96
109477.97
109477.98
109477.98
109477.99
109477.99
109478
109478
109478.01
109478.01
109478.01
109478.02
109478.02
109478.02
109478.03
109478.03
109478.03
109478.04
109478.04
109478.04
109478.05
109478.05
109478.05
109478.05
109478.06
109478.06
109478.06
109478.06
109478.06
109478.07
109478.07
109478.07
109478.07
109478.07
109478.08
109478.08
109478.08
109478.08
109478.08
109478.08
109478.08
109478.09
109478.09
109478.09
109478.09
109478.09
109478.09
109478.09
109478.09
109478.1
109478.1
109478.1
109478.1
109478.1
109478.1
109478.1
109478.1
109478.1
109478.1
109478.11
109478.11
109478.11
109478.11
109478.11
109478.11
109478.11
109478.11
109478.11
109478.11
109478.11
109478.11
109478.11
109478.11
109478.11
109478.12
109478.12
109478.12
109478.12
109478.12
109478.12
109478.12
109478.12
109478.12
109478.12
109478.12
109478.12
109478.12
109478.12
109478.12
109478.12
109478.12
109478.12
109478.12
109478.12
109478.12
109478.12
109478.12
109478.12
109478.12
109478.12
109478.12
109478.12
109478.11
109478.11
109478.11
109478.11
109478.11
109478.11
109478.11
109478.11
109478.11
109478.11
109478.11
109478.11
109478.11
109478.11
109478.11
109478.11
109478.1
109478.1
109478.1
109478.1
109478.1
109478.1
109478.1
109478.1
109478.1
109478.1
109478.1
109478.09
109478.09
109478.09
109478.09
109478.09
109478.09
109478.09
109478.09
109478.09
109478.08
109478.08
109478.08
109478.08
109478.08
109478.08
109478.08
109478.08
109478.08
109478.07
109478.07
109478.07
109478.07
109478.07
109478.07
109478.07
109478.07
109478.07
109478.06
109478.06
109478.06
109478.06
109478.06
109478.06
109478.06
109478.06
109478.05
109478.05
109478.05
109478.05
109478.05
109478.05
109478.05
109478.05
109478.04
109478.04
109478.04
109478.04
109478.04
109478.04
109478.04
109478.04
109478.03
109478.03
109478.03
109478.03
109478.03
109478.03
109478.03
109478.03
109478.02
109478.02
109478.02
109478.02
109478.02
109478.02
109478.02
109478.02
109478.01
109478.01
109478.01
109478.01
109478.01
109478.01
109478.01
109478.01
109478
109478
109478
109478
109478
109478
109478
109478
109478
109478
109477.99
109477.99
109477.99
109477.99
109477.99
109477.99
109477.99
109477.99
109477.99
109477.99
109477.99
109477.98
109477.98
109477.98
109477.98
109477.98
109477.98
109477.98
109477.98
109477.98
109477.98
109477.98
109477.98
109477.98
109477.98
109477.98
109477.98
109477.98
109477.98
109477.97
109477.97
109477.97
109477.97
109477.97
109477.97
109477.97
109477.97
109477.97
109477.97
109477.97
109477.97
109477.97
109477.97
109477.97
109477.98
109477.98
109477.98
109477.98
109477.98
109477.98
109477.98
109477.98
109477.98
109477.98
109477.98
109477.98
109477.98
109477.98
109477.98
109477.98
109477.98
109477.98
109477.98
109477.98
109477.98
109477.98
109477.98
109477.98
109477.98
109477.99
109477.99
109477.99
109477.99
109477.99
109477.99
109477.99
109477.99
109477.99
109477.99
109477.99
109477.99
109477.99
109477.99
109477.99
109477.99
109477.99
109477.99
109477.99
109477.99
109477.99
109478
109478
109478
109478
109478
109478
109478
109478
109478
109478
109478
109478
109478
109478
109478
109478
109478
109478
109478.01
109478.01
109478.01
109478.01
109478.01
109478.01
109478.01
109478.01
109478.01
109478.01
109478.01
109478.01
109478.01
109478.01
109478.01
109478.01
109478.02
109478.02
109478.02
109478.02
109478.02
109478.02
109478.02
109478.02
109478.02
109478.02
109478.02
109478.02
109478.02
109478.02
109478.02
109478.02
109478.02
109478.02
109478.02
109478.02
109478.02
109478.03
109478.03
109478.03
109478.03
109478.03
109478.03
109478.03
109478.03
109478.03
109478.03
109478.03
109478.03
109478.03
109478.03
109478.03
109478.03
109478.03
109478.03
109478.03
109478.03
109478.03
109478.03
109478.03
109478.03
109478.03
109478.03
109478.03
109478.03
109478.03
109478.03
109478.03
109478.03
109478.02
109478.02
109478.02
109478.02
109478.02
109478.02
109478.02
109478.02
109478.02
109478.02
109478.02
109478.02
109478.02
109478.02
109478.02
109478.02
109478.02
109478.02
109478.02
109478.02
109478.02
109478.02
109478.02
109478.02
109478.02
109478.02
109478.02
109478.02
109478.02
109478.02
109478.02
109478.02
109478.02
109478.02
109478.02
109478.02
109478.02
109478.02
109478.02
109478.02
109478.02
109478.02
109478.02
109478.02
109478.02
109478.02
109478.02
109478.02
109478.02
109478.02
109478.02
109478.02
109478.02
109478.02
109478.02
109478.02
109478.02
109478.02
109478.02
109478.02
109478.02
109478.02
109478.02
109478.02
109478.02
109478.02
109478.02
109478.02
109478.02
109478.02
109478.02
109478.02
109478.02
109478.02
109478.02
109478.02
109478.02
109478.03
109478.03
109478.03
109478.03
109478.03
109478.03
109478.03
109478.03
109478.03
109478.03
109478.03
109478.03
109478.03
109478.03
109478.03
109478.03
109478.03
109478.03
109478.03
109478.03
109478.03
109478.03
109478.03
109478.03
109478.03
109478.03
109478.03
109478.03
109478.03
109478.03
109478.03
109478.03
109478.03
109478.03
109478.03
109478.03
109478.03
109478.03
109478.03
109478.03
109478.03
109478.03
109478.03
109478.03
109478.03
109478.03
109478.03
109478.03
109478.03
109478.03
109478.03
109478.03
109478.03
109478.03
109478.03
109478.04
109478.04
109478.04
109478.04
109478.04
109478.04
109478.04
109478.04
109478.04
109478.04
109478.04
109478.04
109478.04
109478.04
109478.04
109478.04
109478.04
109478.04
109478.04
109478.04
109478.04
109478.04
109478.04
109478.04
109478.04
109478.04
109478.04
109478.04
109478.04
109478.04
109478.04
109478.04
109478.04
109478.04
109478.04
109478.04
109478.04
109478.04
109478.04
109478.04
109478.04
109478.04
109478.04
109478.04
109478.04
109478.04
109478.04
109478.04
109478.04
109478.04
109478.04
109478.04
109478.04
109478.04
109478.04
109478.04
109478.04
109478.04
109478.04
109478.04
109478.04
109478.04
109478.04
109478.04
109478.04
109478.04
109478.04
109478.04
109478.04
109478.04
109478.04
109478.04
109478.04
109478.04
109478.04
109478.04
109478.04
109478.04
109478.04
109478.04
109478.04
109478.04
109478.04
109478.04
109478.04
109478.04
109478.04
109478.04
109478.04
109478.04
109478.04
109478.04
109478.04
109478.04
109478.04
109478.04
109478.04
109478.04
109478.04
109478.04
109478.04
109478.04
109478.04
109478.04
109478.04
109478.04
109478.04
109478.04
109478.04
109478.04
109478.04
109478.04
109478.04
109478.04
109478.04
109478.04
109478.04
109478.04
109478.04
109478.04
109478.04
109478.04
109478.04
109478.04
109478.04
109478.04
109478.04
109478.04
109478.04
109478.04
109478.04
109478.04
109478.04
109478.04
109478.04
109478.04
109478.04
109478.04
109478.04
109478.04
109478.04
109478.04
109478.04
109478.04
109478.04
109478.04
109478.04
109478.04
109478.04
109478.04
109478.04
109478.04
109478.04
109478.04
109478.04
109478.04
109478.04
109478.04
109478.04
109478.04
109478.04
109478.04
109478.04
109478.04
109478.04
109478.04
109478.04
109478.04
109478.04
109478.04
109478.04
109478.04
109478.04
109478.04
109478.04
109478.04
109478.04
109478.04
109478.04
109478.04
109478.04
109478.04
109478.04
109478.04
109478.04
109478.04
109478.04
109478.04
109478.04
109478.04
109478.04
109478.04
109478.04
109478.04
109478.04
109478.04
109478.04
109478.04
109478.04
109478.04
109478.04
109478.04
109478.04
109478.04
109478.04
109478.05
109478.05
109478.05
109478.05
109478.05
109478.05
109478.05
109478.04
109478.04
109478.03
109478.03
109478.02
109478.02
109478.03
109478.03
109478.05
109478.06
109478.08
109478.09
109478.1
109478.1
109478.09
109478.07
109478.04
109478.02
109478.02
109477.95
109478.04
109478.09
109478.06
109478.04
109478.03
109478.02
109478.02
109478.02
109478.02
109478.03
109478.04
109478.05
109478.05
109478.05
109478.06
109478.06
109478.06
109478.05
109478.05
109478.05
109478.05
109478.05
109478.05
109478.05
109478.05
109478.05
109478.05
109478.05
109478.05
109478.05
109478.05
109478.05
109478.05
109478.05
109478.05
109478.05
109478.05
109478.05
109478.05
109478.05
109478.05
109478.05
109478.05
109478.05
109478.05
109478.05
109478.05
109478.05
109478.05
109478.05
109478.05
109478.05
109478.05
109478.05
109478.05
109478.05
109478.05
109478.05
109478.05
109478.05
109478.05
109478.05
109478.05
109478.05
109478.05
109478.05
109478.05
109478.05
109478.05
109478.05
109478.05
109478.05
109478.05
109478.05
109478.05
109478.05
109478.05
109478.05
109478.05
109478.05
109478.05
109478.05
109478.05
109478.05
109478.05
109478.05
109478.05
109478.05
109478.05
109478.05
109478.05
109478.05
109478.05
109478.05
109478.05
109478.05
109478.05
109478.05
109478.05
109478.05
109478.05
109478.05
109478.05
109478.05
109478.05
109478.05
109478.05
109478.05
109478.05
109478.05
109478.05
109478.05
109478.05
109478.05
109478.05
109478.05
109478.05
109478.05
109478.05
109478.05
109478.05
109478.05
109478.05
109478.05
109478.05
109478.05
109478.05
109478.05
109478.05
109478.05
109478.05
109478.05
109478.05
109478.05
109478.05
109478.05
109478.05
109478.05
109478.05
109478.05
109478.05
109478.05
109478.05
109478.05
109478.05
109478.05
109478.05
109478.05
109478.05
109478.05
109478.05
109478.04
109478.04
109478.04
109478.04
109478.04
109478.04
109478.04
109478.04
109478.04
109478.04
109478.04
109478.04
109478.04
109478.04
109478.04
109478.04
109478.04
109478.04
109478.04
109478.04
109478.04
109478.04
109478.04
109478.04
109478.04
109478.04
109478.04
109478.04
109478.04
109478.04
109478.04
109478.04
109478.04
109478.04
109478.04
109478.04
109478.04
109478.04
109478.04
109478.04
109478.04
109478.04
109478.04
109478.04
109478.04
109478.04
109478.04
109478.04
109478.04
109478.04
109478.04
109478.04
109478.04
109478.04
109478.04
109478.04
109478.04
109478.04
109478.04
109478.04
109478.04
109478.04
109478.04
109478.04
109478.04
109478.04
109478.04
109478.04
109478.04
109478.04
109478.04
109478.04
109478.04
109478.04
109478.04
109478.04
109478.04
109478.04
109478.04
109478.04
109478.04
109478.04
109478.04
109478.04
109478.04
109478.04
109478.04
109478.04
109478.04
109478.04
109478.04
109478.04
109478.04
109478.04
109478.04
109478.04
109478.04
109478.04
109478.04
109478.04
109478.04
109478.04
109478.04
109478.04
109478.04
109478.04
109478.04
109478.04
109478.04
109478.04
109478.04
109478.04
109478.04
109478.04
109478.04
109478.04
109478.04
109478.04
109478.04
109478.04
109478.04
109478.04
109478.04
109478.04
109478.04
109478.04
109478.04
109478.04
109478.04
109478.04
109478.04
109478.04
109478.04
109478.04
109478.04
109478.03
109478.03
109478.03
109478.03
109478.03
109478.03
109478.03
109478.03
109478.03
109478.03
109478.03
109478.03
109478.03
109478.03
109478.03
109478.03
109478.03
109478.03
109478.03
109478.03
109478.03
109478.03
109478.03
109478.03
109478.03
109478.03
109478.03
109478.03
109478.03
109478.03
109478.03
109478.03
109478.03
109478.03
109478.03
109478.03
109478.03
109478.03
109478.03
109478.03
109478.03
109478.03
109478.03
109478.03
109478.03
109478.03
109478.03
109478.03
109478.03
109478.03
109478.03
109478.03
109478.03
109478.03
109478.03
109478.03
109478.03
109478.03
109478.03
109478.03
109478.03
109478.03
109478.03
109478.03
109478.03
109478.03
109478.03
109478.03
109478.03
109478.03
109478.03
109478.03
109478.03
109478.03
109478.03
109478.03
109478.03
109478.03