/*--------------------------------*- C++ -*----------------------------------*\
  =========                 |
  \\      /  F ield         | OpenFOAM: The Open Source CFD Toolbox
   \\    /   O peration     | Website:  https://openfoam.org
    \\  /    A nd           | Version:  7
     \\/     M anipulation  |
\*---------------------------------------------------------------------------*/
FoamFile
{
    version     2.0;
    format      ascii;
    class       surfaceScalarField;
    location    "0.00094";
    object      phi;
}
// * * * * * * * * * * * * * * * * * * * * * * * * * * * * * * * * * * * * * //

dimensions      [1 0 -1 0 0 0 0];

internalField   nonuniform List<scalar> 
4999
(
-2.0323727
-2.0310994
-2.0298263
-2.0285531
-2.02728
-2.026007
-2.024734
-2.023461
-2.0221881
-2.0209153
-2.0196424
-2.0183697
-2.0170969
-2.0158242
-2.0145516
-2.013279
-2.0120065
-2.010734
-2.0094616
-2.0081892
-2.0069168
-2.0056445
-2.0043723
-2.0031001
-2.0018279
-2.0005558
-1.9992837
-1.9980117
-1.9967398
-1.9954678
-1.994196
-1.9929241
-1.9916524
-1.9903806
-1.9891089
-1.9878373
-1.9865657
-1.9852942
-1.9840227
-1.9827513
-1.9814799
-1.9802085
-1.9789372
-1.977666
-1.9763948
-1.9751236
-1.9738525
-1.9725815
-1.9713104
-1.9700395
-1.9687686
-1.9674977
-1.9662269
-1.9649561
-1.9636854
-1.9624147
-1.9611441
-1.9598735
-1.958603
-1.9573325
-1.9560621
-1.9547917
-1.9535214
-1.9522511
-1.9509809
-1.9497107
-1.9484405
-1.9471704
-1.9459004
-1.9446304
-1.9433604
-1.9420906
-1.9408207
-1.9395509
-1.9382812
-1.9370115
-1.9357418
-1.9344722
-1.9332026
-1.9319332
-1.9306637
-1.9293943
-1.928125
-1.9268555
-1.9255867
-1.9243169
-1.9230485
-1.9217785
-1.9205104
-1.9192404
-1.9179724
-1.9167026
-1.9154346
-1.9141651
-1.9128969
-1.9116277
-1.9103595
-1.9090906
-1.9078222
-1.9065536
-1.9052852
-1.9040168
-1.9027485
-1.9014801
-1.9002119
-1.8989437
-1.8976756
-1.8964075
-1.8951395
-1.8938716
-1.8926037
-1.8913359
-1.8900682
-1.8888006
-1.8875331
-1.8862657
-1.8849983
-1.8837311
-1.8824641
-1.8811971
-1.8799303
-1.8786637
-1.8773972
-1.8761308
-1.8748647
-1.8735987
-1.8723329
-1.8710672
-1.8698017
-1.8685364
-1.8672712
-1.8660061
-1.8647412
-1.8634764
-1.8622118
-1.8609471
-1.8596826
-1.858418
-1.8571535
-1.855889
-1.8546244
-1.8533597
-1.852095
-1.8508301
-1.849565
-1.8482998
-1.8470344
-1.8457687
-1.8445029
-1.8432367
-1.8419703
-1.8407036
-1.8394365
-1.8381692
-1.8369016
-1.8356336
-1.8343654
-1.8330968
-1.8318279
-1.8305587
-1.8292893
-1.8280195
-1.8267495
-1.8254793
-1.8242088
-1.822938
-1.8216671
-1.8203959
-1.8191246
-1.8178531
-1.8165815
-1.8153097
-1.8140378
-1.8127659
-1.8114938
-1.8102216
-1.8089494
-1.8076771
-1.8064048
-1.8051324
-1.80386
-1.8025876
-1.8013152
-1.8000427
-1.7987703
-1.7974979
-1.7962255
-1.7949531
-1.7936807
-1.7924084
-1.7911361
-1.7898638
-1.7885916
-1.7873194
-1.7860472
-1.7847751
-1.7835031
-1.782231
-1.780959
-1.7796871
-1.7784152
-1.7771434
-1.7758716
-1.7745998
-1.7733281
-1.7720565
-1.7707849
-1.7695133
-1.7682418
-1.7669704
-1.765699
-1.7644277
-1.7631564
-1.7618851
-1.760614
-1.7593428
-1.7580718
-1.7568007
-1.7555298
-1.7542588
-1.752988
-1.7517172
-1.7504464
-1.7491758
-1.7479051
-1.7466346
-1.745364
-1.7440936
-1.7428232
-1.7415529
-1.7402826
-1.7390124
-1.7377422
-1.7364722
-1.7352022
-1.7339322
-1.7326623
-1.7313926
-1.7301228
-1.7288532
-1.7275836
-1.7263141
-1.7250447
-1.7237754
-1.7225061
-1.721237
-1.7199679
-1.7186989
-1.71743
-1.7161612
-1.7148925
-1.7136239
-1.7123554
-1.711087
-1.7098186
-1.7085504
-1.7072822
-1.7060142
-1.7047462
-1.7034784
-1.7022106
-1.7009429
-1.6996753
-1.6984077
-1.6971402
-1.6958728
-1.6946055
-1.6933382
-1.692071
-1.6908038
-1.6895366
-1.6882695
-1.6870024
-1.6857353
-1.6844682
-1.6832011
-1.681934
-1.6806669
-1.6793998
-1.6781325
-1.6768653
-1.675598
-1.6743306
-1.6730631
-1.6717956
-1.6705279
-1.6692601
-1.6679923
-1.6667242
-1.6654561
-1.6641879
-1.6629194
-1.6616509
-1.6603822
-1.6591133
-1.6578443
-1.6565751
-1.6553057
-1.6540362
-1.6527665
-1.6514967
-1.6502266
-1.6489564
-1.6476861
-1.6464156
-1.6451449
-1.643874
-1.642603
-1.6413319
-1.6400606
-1.6387892
-1.6375176
-1.6362459
-1.634974
-1.6337021
-1.63243
-1.6311579
-1.6298856
-1.6286132
-1.6273408
-1.6260682
-1.6247956
-1.623523
-1.6222502
-1.6209774
-1.6197045
-1.6184316
-1.6171587
-1.6158857
-1.6146127
-1.6133397
-1.6120667
-1.6107936
-1.6095205
-1.6082474
-1.6069743
-1.6057013
-1.6044282
-1.6031551
-1.601882
-1.600609
-1.599336
-1.598063
-1.59679
-1.595517
-1.594244
-1.5929711
-1.5916982
-1.5904254
-1.5891525
-1.5878797
-1.586607
-1.5853342
-1.5840615
-1.5827889
-1.5815162
-1.5802437
-1.5789711
-1.5776986
-1.5764261
-1.5751537
-1.5738813
-1.5726089
-1.5713366
-1.5700643
-1.5687921
-1.5675199
-1.5662478
-1.5649757
-1.5637036
-1.5624316
-1.5611597
-1.5598878
-1.558616
-1.5573442
-1.5560725
-1.5548008
-1.5535292
-1.5522577
-1.5509862
-1.5497148
-1.5484435
-1.5471723
-1.5459012
-1.5446301
-1.5433592
-1.5420883
-1.5408175
-1.5395469
-1.5382763
-1.5370059
-1.5357356
-1.5344654
-1.5331954
-1.5319255
-1.5306557
-1.5293861
-1.5281166
-1.5268472
-1.5255781
-1.5243091
-1.5230402
-1.5217715
-1.520503
-1.5192346
-1.5179665
-1.5166985
-1.5154306
-1.514163
-1.5128955
-1.5116282
-1.5103611
-1.5090941
-1.5078273
-1.5065607
-1.5052942
-1.5040279
-1.5027618
-1.5014958
-1.50023
-1.4989642
-1.4976987
-1.4964332
-1.4951678
-1.4939026
-1.4926374
-1.4913724
-1.4901074
-1.4888425
-1.4875776
-1.4863128
-1.485048
-1.4837833
-1.4825185
-1.4812538
-1.479989
-1.4787243
-1.4774595
-1.4761946
-1.4749297
-1.4736648
-1.4723997
-1.4711346
-1.4698694
-1.4686041
-1.4673386
-1.4660731
-1.4648074
-1.4635416
-1.4622756
-1.4610095
-1.4597432
-1.4584768
-1.4572102
-1.4559434
-1.4546764
-1.4534093
-1.452142
-1.4508745
-1.4496068
-1.4483389
-1.4470709
-1.4458026
-1.4445342
-1.4432656
-1.4419968
-1.4407278
-1.4394586
-1.4381893
-1.4369197
-1.43565
-1.4343802
-1.4331102
-1.43184
-1.4305697
-1.4292992
-1.4280286
-1.4267578
-1.4254869
-1.4242159
-1.4229447
-1.4216735
-1.4204021
-1.4191306
-1.417859
-1.4165874
-1.4153156
-1.4140437
-1.4127718
-1.4114998
-1.4102278
-1.4089557
-1.4076835
-1.4064113
-1.405139
-1.4038667
-1.4025943
-1.4013219
-1.4000495
-1.3987771
-1.3975047
-1.3962322
-1.3949597
-1.3936872
-1.3924147
-1.3911423
-1.3898698
-1.3885973
-1.3873248
-1.3860524
-1.3847799
-1.3835075
-1.3822351
-1.3809627
-1.3796903
-1.378418
-1.3771456
-1.3758734
-1.3746011
-1.3733289
-1.3720567
-1.3707845
-1.3695124
-1.3682403
-1.3669682
-1.3656962
-1.3644242
-1.3631523
-1.3618804
-1.3606085
-1.3593367
-1.3580649
-1.3567932
-1.3555215
-1.3542499
-1.3529783
-1.3517067
-1.3504352
-1.3491638
-1.3478924
-1.346621
-1.3453497
-1.3440784
-1.3428072
-1.341536
-1.3402648
-1.3389937
-1.3377227
-1.3364517
-1.3351807
-1.3339098
-1.332639
-1.3313682
-1.3300974
-1.3288267
-1.327556
-1.3262854
-1.3250148
-1.3237443
-1.3224738
-1.3212034
-1.319933
-1.3186626
-1.3173923
-1.3161221
-1.3148519
-1.3135817
-1.3123116
-1.3110415
-1.3097715
-1.3085015
-1.3072315
-1.3059616
-1.3046918
-1.303422
-1.3021522
-1.3008824
-1.2996128
-1.2983431
-1.2970735
-1.2958039
-1.2945344
-1.2932649
-1.2919955
-1.290726
-1.2894567
-1.2881873
-1.286918
-1.2856487
-1.2843795
-1.2831103
-1.2818411
-1.280572
-1.2793029
-1.2780338
-1.2767647
-1.2754957
-1.2742267
-1.2729577
-1.2716887
-1.2704198
-1.2691508
-1.2678819
-1.266613
-1.2653441
-1.2640753
-1.2628064
-1.2615375
-1.2602687
-1.2589998
-1.2577309
-1.2564621
-1.2551932
-1.2539243
-1.2526554
-1.2513865
-1.2501175
-1.2488486
-1.2475795
-1.2463105
-1.2450414
-1.2437723
-1.2425031
-1.2412339
-1.2399646
-1.2386952
-1.2374258
-1.2361562
-1.2348866
-1.2336169
-1.2323471
-1.2310772
-1.2298072
-1.228537
-1.2272667
-1.2259962
-1.2247256
-1.2234548
-1.2221838
-1.2209127
-1.2196413
-1.2183697
-1.2170979
-1.2158259
-1.2145536
-1.213281
-1.2120081
-1.2107349
-1.2094614
-1.2081875
-1.2069133
-1.2056386
-1.2043636
-1.2030882
-1.2018123
-1.2005359
-1.199259
-1.1979816
-1.1967037
-1.1954251
-1.194146
-1.1928662
-1.1915857
-1.1903045
-1.1890226
-1.1877399
-1.1864564
-1.185172
-1.1838868
-1.1826006
-1.1813134
-1.1800252
-1.1787359
-1.1774455
-1.1761539
-1.1748611
-1.1735671
-1.1722717
-1.1709748
-1.1696766
-1.1683768
-1.1670754
-1.1657724
-1.1644677
-1.1631611
-1.1618527
-1.1605424
-1.15923
-1.1579155
-1.1565988
-1.1552799
-1.1539585
-1.1526347
-1.1513084
-1.1499793
-1.1486476
-1.1473129
-1.1459752
-1.1446345
-1.1432906
-1.1419433
-1.1405926
-1.1392383
-1.1378803
-1.1365184
-1.1351526
-1.1337827
-1.1324085
-1.1310299
-1.1296467
-1.1282588
-1.126866
-1.1254682
-1.1240651
-1.1226567
-1.1212427
-1.119823
-1.1183974
-1.1169656
-1.1155275
-1.1140829
-1.1126316
-1.1111734
-1.1097081
-1.1082354
-1.1067551
-1.1052671
-1.103771
-1.1022667
-1.100754
-1.0992324
-1.097702
-1.0961622
-1.0946131
-1.0930541
-1.0914852
-1.089906
-1.0883163
-1.0867157
-1.0851041
-1.0834811
-1.0818464
-1.0801998
-1.0785409
-1.0768695
-1.0751852
-1.0734878
-1.0717769
-1.0700522
-1.0683135
-1.0665603
-1.0647924
-1.0630094
-1.0612111
-1.059397
-1.0575669
-1.0557204
-1.0538572
-1.0519769
-1.0500792
-1.0481638
-1.0462303
-1.0442784
-1.0423077
-1.0403178
-1.0383085
-1.0362794
-1.0342301
-1.0321602
-1.0300695
-1.0279576
-1.025824
-1.0236686
-1.0214909
-1.0192905
-1.0170672
-1.0148206
-1.0125503
-1.010256
-1.0079374
-1.005594
-1.0032257
-1.000832
-0.99841266
-0.99596729
-0.99349558
-0.99099721
-0.98847187
-0.98591925
-0.98333903
-0.98073077
-0.97809421
-0.97542903
-0.97273511
-0.97001208
-0.96725968
-0.96447766
-0.96166571
-0.95882359
-0.95595104
-0.95304778
-0.9501136
-0.94714823
-0.94415145
-0.94112302
-0.93806273
-0.93497037
-0.93184571
-0.92868857
-0.92549875
-0.92227607
-0.91902034
-0.9157314
-0.9124091
-0.90905326
-0.90566375
-0.90224043
-0.89878317
-0.89529185
-0.89176635
-0.88820657
-0.88461241
-0.88098378
-0.87732061
-0.87362283
-0.86989036
-0.86612316
-0.86232118
-0.85848438
-0.85461274
-0.85070623
-0.84676486
-0.8427886
-0.83877747
-0.83473148
-0.83065066
-0.82653504
-0.82238465
-0.81819955
-0.81397979
-0.80972543
-0.80543656
-0.80111325
-0.79675558
-0.79236367
-0.78793761
-0.78347751
-0.77898351
-0.77445571
-0.76989428
-0.76529933
-0.76067104
-0.75600956
-0.75131504
-0.74658768
-0.74182763
-0.73703511
-0.73221029
-0.72735338
-0.72246459
-0.71754412
-0.71259221
-0.70760907
-0.70259495
-0.69755007
-0.69247469
-0.68736905
-0.68223342
-0.67706805
-0.6718732
-0.66664917
-0.66139621
-0.65611462
-0.65080469
-0.6454667
-0.64010096
-0.63470776
-0.62928743
-0.62384026
-0.61836657
-0.61286669
-0.60734094
-0.60178965
-0.59621315
-0.59061178
-0.58498587
-0.57933577
-0.57366183
-0.5679644
-0.56224383
-0.55650049
-0.55073472
-0.5449469
-0.53913739
-0.53330655
-0.52745477
-0.52158241
-0.51568985
-0.50977748
-0.50384567
-0.49789481
-0.49192528
-0.48593748
-0.47993179
-0.47390861
-0.46786833
-0.46181135
-0.45573808
-0.4496489
-0.44354422
-0.43742445
-0.43128999
-0.42514125
-0.41897864
-0.41280256
-0.40661343
-0.40041167
-0.39419768
-0.38797189
-0.3817347
-0.37548654
-0.36922783
-0.36295898
-0.35668042
-0.35039257
-0.34409585
-0.33779069
-0.33147751
-0.32515674
-0.31882881
-0.31249414
-0.30615317
-0.29980632
-0.29345402
-0.28709671
-0.28073481
-0.27436876
-0.267999
-0.26162596
-0.25525006
-0.24887176
-0.24249147
-0.23610965
-0.22972673
-0.22334315
-0.21695934
-0.21057575
-0.20419281
-0.19781096
-0.19143066
-0.18505233
-0.17867642
-0.17230338
-0.16593364
-0.15956765
-0.15320585
-0.14684869
-0.14049661
-0.13415006
-0.12780947
-0.1214753
-0.115148
-0.108828
-0.10251576
-0.096211714
-0.089916321
-0.083630025
-0.077353275
-0.071086519
-0.064830206
-0.058584786
-0.05235071
-0.046128425
-0.039918383
-0.033721034
-0.027536826
-0.02136621
-0.015209634
-0.0090675463
-0.0029403942
0.0031713787
0.0092673542
0.015347059
0.021410008
0.027455765
0.033483893
0.03949395
0.045485493
0.051458079
0.057411266
0.06334461
0.069257671
0.075150009
0.081021184
0.086870758
0.092698295
0.09850336
0.10428552
0.11004434
0.11577939
0.12149025
0.12717649
0.13283767
0.1384734
0.14408323
0.14966676
0.15522358
0.16075327
0.16625542
0.17172963
0.1771755
0.18259262
0.18798062
0.19333909
0.19866764
0.20396591
0.20923351
0.21447006
0.2196752
0.22484856
0.22998979
0.23509854
0.24017445
0.24521718
0.25022641
0.2552018
0.26014303
0.26504978
0.26992175
0.27475862
0.27956011
0.28432594
0.28905581
0.29374946
0.29840663
0.30302706
0.30761051
0.31215673
0.31666551
0.32113661
0.32556985
0.32996501
0.3343219
0.33864036
0.34292021
0.3471613
0.35136348
0.35552662
0.35965059
0.36373528
0.3677806
0.37178644
0.37575274
0.37967943
0.38356645
0.38741377
0.39122136
0.39498919
0.39871728
0.40240562
0.40605424
0.40966319
0.41323249
0.41676223
0.42025246
0.42370329
0.42711482
0.43048716
0.43382043
0.43711478
0.44037038
0.44358737
0.44676595
0.44990631
0.45300865
0.45607321
0.45910019
0.46208987
0.46504248
0.4679583
0.47083761
0.47368071
0.47648789
0.47925947
0.48199579
0.48469716
0.48736396
0.48999652
0.49259523
0.49516045
0.49769257
0.500192
0.50265912
0.50509437
0.50749815
0.50987103
0.51221335
0.51452563
0.51680812
0.51906137
0.52128581
0.52348191
0.52565012
0.52779094
0.52990481
0.53199224
0.5340537
0.53608967
0.53810064
0.54008709
0.54204952
0.54398842
0.54590427
0.54779756
0.54966879
0.55151844
0.553347
0.55515495
0.55694278
0.55871097
0.56046
0.56219034
0.56390247
0.56559684
0.56727394
0.56893421
0.57057812
0.57220611
0.57381862
0.57541611
0.57699899
0.5785677
0.58012266
0.58166429
0.58319299
0.58470917
0.58621322
0.58770552
0.58918647
0.59065644
0.59211578
0.59356487
0.59500405
0.59643366
0.59785405
0.59926554
0.60066845
0.6020631
0.60344978
0.60482881
0.60620047
0.60756503
0.60892279
0.610274
0.61161892
0.6129578
0.6142909
0.61561844
0.61694066
0.61825778
0.61957002
0.62087757
0.62218066
0.62347947
0.62477418
0.62606499
0.62735207
0.62863557
0.62991569
0.63119255
0.63246633
0.63373716
0.63500517
0.63627052
0.63753332
0.6387937
0.64005178
0.64130767
0.64256149
0.64381333
0.64506329
0.64631148
0.64755798
0.64880288
0.65004627
0.65128822
0.65252881
0.65376812
0.6550062
0.65624313
0.65747897
0.65871379
0.65994763
0.66118055
0.6624126
0.66364384
0.66487429
0.66610403
0.66733307
0.66856146
0.66978925
0.67101646
0.67224312
0.67346928
0.67469495
0.67592018
0.67714497
0.67836936
0.67959338
0.68081704
0.68204037
0.68326338
0.68448609
0.68570854
0.68693071
0.68815264
0.68937434
0.69059581
0.69181708
0.69303816
0.69425904
0.69547976
0.69670031
0.69792071
0.69914096
0.70036107
0.70158105
0.70280091
0.70402064
0.70524026
0.70645977
0.70767917
0.70889849
0.7101177
0.71133681
0.71255585
0.71377479
0.71499365
0.71621243
0.71743113
0.71864976
0.71986831
0.72108679
0.7223052
0.72352354
0.7247418
0.72596
0.72717813
0.7283962
0.7296142
0.73083212
0.73205
0.7332678
0.73448554
0.73570321
0.73692082
0.73813837
0.73935585
0.74057328
0.74179063
0.74300793
0.74422516
0.74544233
0.74665943
0.74787647
0.74909345
0.75031037
0.75152723
0.75274401
0.75396075
0.75517741
0.75639402
0.75761056
0.75882704
0.76004346
0.76125981
0.7624761
0.76369233
0.7649085
0.76612461
0.76734065
0.76855664
0.76977256
0.77098842
0.77220421
0.77341995
0.77463562
0.77585123
0.77706678
0.77828228
0.7794977
0.78071307
0.78192838
0.78314362
0.7843588
0.78557393
0.78678899
0.78800399
0.78921893
0.79043381
0.79164863
0.79286339
0.79407809
0.79529273
0.79650731
0.79772183
0.79893629
0.80015069
0.80136503
0.80257931
0.80379353
0.80500769
0.8062218
0.80743584
0.80864983
0.80986374
0.81107761
0.81229142
0.81350516
0.81471886
0.81593247
0.81714605
0.81835956
0.819573
0.8207864
0.82199973
0.823213
0.82442622
0.82563936
0.82685245
0.82806549
0.82927846
0.83049137
0.83170423
0.83291701
0.83412974
0.83534242
0.83655502
0.83776757
0.83898006
0.84019247
0.84140484
0.84261715
0.84382938
0.84504156
0.84625368
0.84746573
0.84867772
0.84988965
0.85110152
0.85231332
0.85352506
0.85473675
0.85594836
0.85715992
0.85837141
0.85958284
0.8607942
0.86200551
0.86321675
0.86442793
0.86563904
0.8668501
0.86806109
0.86927201
0.87048287
0.87169368
0.87290442
0.87411509
0.8753257
0.87653625
0.87774674
0.87895717
0.88016753
0.88137782
0.88258806
0.88379824
0.88500834
0.88621839
0.88742837
0.88863829
0.88984815
0.89105794
0.89226767
0.89347734
0.89468694
0.89589648
0.89710595
0.89831537
0.89952471
0.90073399
0.90194321
0.90315236
0.90436145
0.90557047
0.90677943
0.90798832
0.90919714
0.9104059
0.9116146
0.91282322
0.91403178
0.91524027
0.91644869
0.91765705
0.91886533
0.92007355
0.9212817
0.92248977
0.92369778
0.92490572
0.92611358
0.92732137
0.92852909
0.92973673
0.9309443
0.9321518
0.93335921
0.93456655
0.93577382
0.936981
0.93818811
0.93939513
0.94060207
0.94180892
0.9430157
0.94422238
0.94542898
0.94663549
0.9478419
0.94904823
0.95025446
0.95146059
0.95266662
0.95387255
0.95507838
0.95628411
0.95748972
0.95869523
0.95990062
0.96110589
0.96231105
0.96351608
0.96472098
0.96592576
0.9671304
0.9683349
0.96953927
0.97074348
0.97194755
0.97315146
0.97435521
0.9755588
0.97676222
0.97796546
0.97916852
0.98037139
0.98157407
0.98277654
0.98397881
0.98518087
0.9863827
0.9875843
0.98878566
0.98998678
0.99118764
0.99238824
0.99358856
0.9947886
0.99598835
0.99718779
0.99838692
0.99958572
1.0007842
1.0019823
1.00318
1.0043774
1.0055744
1.006771
1.0079671
1.0091628
1.0103581
1.0115529
1.0127473
1.0139411
1.0151344
1.0163272
1.0175194
1.018711
1.0199021
1.0210925
1.0222823
1.0234715
1.0246599
1.0258477
1.0270347
1.028221
1.0294065
1.0305912
1.0317751
1.0329581
1.0341402
1.0353215
1.0365017
1.037681
1.0388593
1.0400366
1.0412128
1.0423878
1.0435618
1.0447346
1.0459061
1.0470765
1.0482455
1.0494132
1.0505796
1.0517445
1.052908
1.0540701
1.0552306
1.0563895
1.0575468
1.0587025
1.0598565
1.0610087
1.0621591
1.0633077
1.0644544
1.0655991
1.0667419
1.0678826
1.0690211
1.0701576
1.0712918
1.0724238
1.0735534
1.0746807
1.0758055
1.0769279
1.0780477
1.0791649
1.0802794
1.0813912
1.0825002
1.0836063
1.0847096
1.0858098
1.086907
1.0880011
1.089092
1.0901797
1.0912641
1.0923451
1.0934226
1.0944966
1.0955671
1.0966339
1.097697
1.0987563
1.0998117
1.1008632
1.1019107
1.1029541
1.1039934
1.1050285
1.1060593
1.1070857
1.1081078
1.1091253
1.1101382
1.1111465
1.1121501
1.1131488
1.1141428
1.1151317
1.1161157
1.1170947
1.1180684
1.119037
1.1200002
1.1209582
1.1219106
1.1228576
1.1237991
1.1247349
1.1256649
1.1265893
1.1275078
1.1284204
1.129327
1.1302276
1.1311222
1.1320106
1.1328927
1.1337686
1.1346382
1.1355014
1.1363581
1.1372083
1.138052
1.138889
1.1397194
1.1405431
1.14136
1.1421701
1.1429733
1.1437696
1.144559
1.1453413
1.1461167
1.1468849
1.147646
1.1484
1.1491468
1.1498863
1.1506186
1.1513435
1.1520612
1.1527715
1.1534744
1.15417
1.1548581
1.1555388
1.156212
1.1568777
1.157536
1.1581867
1.1588299
1.1594656
1.1600938
1.1607144
1.1613275
1.161933
1.1625309
1.1631213
1.1637042
1.1642795
1.1648473
1.1654075
1.1659603
1.1665055
1.1670433
1.1675735
1.1680964
1.1686118
1.1691198
1.1696204
1.1701136
1.1705994
1.171078
1.1715493
1.1720133
1.1724702
1.1729198
1.1733623
1.1737977
1.174226
1.1746473
1.1750616
1.175469
1.1758695
1.1762631
1.17665
1.17703
1.1774034
1.1777702
1.1781303
1.1784839
1.1788311
1.1791718
1.1795061
1.1798342
1.180156
1.1804716
1.1807811
1.1810845
1.181382
1.1816735
1.1819591
1.1822389
1.182513
1.1827814
1.1830442
1.1833015
1.1835533
1.1837997
1.1840408
1.1842767
1.1845074
1.1847329
1.1849534
1.185169
1.1853796
1.1855854
1.1857865
1.1859829
1.1861746
1.1863619
1.1865446
1.186723
1.1868971
1.1870669
1.1872325
1.187394
1.1875515
1.187705
1.1878546
1.1880004
1.1881424
1.1882807
1.1884155
1.1885466
1.1886744
1.1887986
1.1889196
1.1890373
1.1891517
1.189263
1.1893712
1.1894764
1.1895787
1.189678
1.1897746
1.1898683
1.1899594
1.1900478
1.1901337
1.190217
1.1902978
1.1903762
1.1904523
1.1905261
1.1905976
1.1906669
1.1907342
1.1907993
1.1908624
1.1909235
1.1909827
1.19104
1.1910955
1.1911492
1.1912011
1.1912514
1.1913
1.191347
1.1913925
1.1914364
1.1914789
1.1915199
1.1915596
1.1915979
1.1916348
1.1916706
1.191705
1.1917383
1.1917704
1.1918014
1.1918312
1.19186
1.1918878
1.1919146
1.1919404
1.1919652
1.1919892
1.1920123
1.1920345
1.1920559
1.1920764
1.1920963
1.1921153
1.1921337
1.1921513
1.1921683
1.1921846
1.1922003
1.1922153
1.1922298
1.1922437
1.1922571
1.1922699
1.1922822
1.192294
1.1923054
1.1923163
1.1923267
1.1923367
1.1923463
1.1923555
1.1923644
1.1923728
1.1923809
1.1923887
1.1923962
1.1924033
1.1924101
1.1924166
1.1924229
1.1924289
1.1924346
1.1924401
1.1924453
1.1924503
1.1924551
1.1924597
1.192464
1.1924682
1.1924722
1.192476
1.1924796
1.1924831
1.1924864
1.1924896
1.1924926
1.1924955
1.1924983
1.1925009
1.1925034
1.1925057
1.192508
1.1925102
1.1925122
1.1925142
1.1925161
1.1925178
1.1925195
1.1925211
1.1925227
1.1925241
1.1925255
1.1925268
1.1925281
1.1925293
1.1925304
1.1925315
1.1925325
1.1925335
1.1925344
1.1925353
1.1925361
1.1925369
1.1925377
1.1925384
1.1925391
1.1925397
1.1925403
1.1925409
1.1925414
1.1925419
1.1925424
1.1925429
1.1925434
1.1925438
1.1925442
1.1925446
1.1925449
1.1925452
1.1925456
1.1925458
1.1925461
1.1925464
1.1925466
1.1925469
1.1925471
1.1925473
1.1925475
1.1925477
1.1925479
1.192548
1.1925482
1.1925484
1.1925485
1.1925486
1.1925488
1.1925489
1.192549
1.1925491
1.1925492
1.1925493
1.1925493
1.1925494
1.1925495
1.1925496
1.1925496
1.1925497
1.1925498
1.1925498
1.1925498
1.1925499
1.1925499
1.1925499
1.19255
1.19255
1.19255
1.19255
1.19255
1.1925501
1.1925501
1.1925501
1.19255
1.19255
1.19255
1.19255
1.19255
1.19255
1.19255
1.1925499
1.1925499
1.1925499
1.1925498
1.1925498
1.1925497
1.1925497
1.1925497
1.1925496
1.1925495
1.1925495
1.1925494
1.1925493
1.1925492
1.1925492
1.1925491
1.192549
1.1925489
1.1925488
1.1925487
1.1925486
1.1925485
1.1925484
1.1925483
1.1925482
1.1925481
1.1925479
1.1925478
1.1925477
1.1925476
1.1925474
1.1925473
1.1925471
1.192547
1.1925468
1.1925466
1.1925465
1.1925463
1.1925461
1.192546
1.1925458
1.1925456
1.1925454
1.1925452
1.192545
1.1925448
1.1925446
1.1925444
1.1925442
1.192544
1.1925438
1.1925436
1.1925434
1.1925431
1.1925429
1.1925427
1.1925425
1.1925422
1.192542
1.1925417
1.1925415
1.1925413
1.192541
1.1925408
1.1925405
1.1925403
1.19254
1.1925398
1.1925395
1.1925392
1.192539
1.1925387
1.1925384
1.1925382
1.1925379
1.1925376
1.1925374
1.1925371
1.1925368
1.1925365
1.1925363
1.192536
1.1925357
1.1925354
1.1925352
1.1925349
1.1925346
1.1925343
1.1925341
1.1925338
1.1925335
1.1925332
1.1925329
1.1925327
1.1925324
1.1925321
1.1925318
1.1925315
1.1925312
1.1925309
1.1925306
1.1925304
1.1925301
1.1925298
1.1925295
1.1925292
1.1925289
1.1925287
1.1925284
1.1925281
1.1925278
1.1925275
1.1925272
1.1925269
1.1925267
1.1925264
1.1925261
1.1925258
1.1925255
1.1925252
1.1925249
1.1925247
1.1925244
1.1925241
1.1925238
1.1925236
1.1925233
1.192523
1.1925227
1.1925225
1.1925222
1.1925219
1.1925216
1.1925214
1.1925211
1.1925208
1.1925206
1.1925203
1.1925201
1.1925198
1.1925195
1.1925193
1.192519
1.1925187
1.1925185
1.1925182
1.192518
1.1925177
1.1925175
1.1925172
1.192517
1.1925167
1.1925165
1.1925163
1.192516
1.1925158
1.1925155
1.1925153
1.1925151
1.1925149
1.1925146
1.1925144
1.1925142
1.192514
1.1925138
1.1925136
1.1925134
1.1925131
1.1925129
1.1925128
1.1925126
1.1925124
1.1925122
1.192512
1.1925118
1.1925117
1.1925115
1.1925113
1.1925112
1.192511
1.1925109
1.1925107
1.1925106
1.1925104
1.1925103
1.1925102
1.1925101
1.1925099
1.1925098
1.1925097
1.1925096
1.1925095
1.1925094
1.1925093
1.1925092
1.1925091
1.1925091
1.192509
1.1925089
1.1925088
1.1925088
1.1925087
1.1925086
1.1925086
1.1925085
1.1925084
1.1925084
1.1925083
1.1925082
1.1925082
1.1925081
1.1925081
1.192508
1.192508
1.1925079
1.1925079
1.1925078
1.1925078
1.1925077
1.1925077
1.1925076
1.1925076
1.1925075
1.1925075
1.1925074
1.1925074
1.1925073
1.1925073
1.1925072
1.1925071
1.1925071
1.192507
1.192507
1.1925069
1.1925068
1.1925068
1.1925067
1.1925067
1.1925066
1.1925066
1.1925066
1.1925065
1.1925065
1.1925064
1.1925064
1.1925063
1.1925063
1.1925062
1.1925062
1.1925061
1.1925061
1.192506
1.1925059
1.1925059
1.1925059
1.1925058
1.1925058
1.1925057
1.1925057
1.1925057
1.1925056
1.1925056
1.1925055
1.1925055
1.1925055
1.1925054
1.1925054
1.1925053
1.1925053
1.1925053
1.1925052
1.1925052
1.1925051
1.1925051
1.192505
1.192505
1.1925049
1.1925049
1.1925048
1.1925048
1.1925047
1.1925047
1.1925046
1.1925046
1.1925045
1.1925045
1.1925044
1.1925043
1.1925042
1.1925042
1.1925041
1.192504
1.1925039
1.1925039
1.1925038
1.1925037
1.1925036
1.1925035
1.1925034
1.1925033
1.1925032
1.1925031
1.192503
1.1925029
1.1925027
1.1925026
1.1925025
1.1925024
1.1925023
1.1925021
1.192502
1.1925019
1.1925017
1.1925016
1.1925015
1.1925013
1.1925012
1.192501
1.1925009
1.1925007
1.1925005
1.1925004
1.1925002
1.1925001
1.1924999
1.1924998
1.1924996
1.1924995
1.1924993
1.1924992
1.192499
1.1924989
1.1924987
1.1924985
1.1924984
1.1924982
1.1924981
1.1924979
1.1924977
1.1924976
1.1924974
1.1924973
1.1924971
1.192497
1.1924968
1.1924967
1.1924965
1.1924964
1.1924962
1.192496
1.1924959
1.1924957
1.1924956
1.1924954
1.1924953
1.1924952
1.192495
1.1924949
1.1924948
1.1924946
1.1924945
1.1924943
1.1924942
1.192494
1.1924939
1.1924938
1.1924937
1.1924935
1.1924934
1.1924933
1.1924931
1.192493
1.1924929
1.1924927
1.1924926
1.1924925
1.1924923
1.1924922
1.1924921
1.192492
1.1924919
1.1924918
1.1924916
1.1924915
1.1924914
1.1924913
1.1924911
1.192491
1.1924909
1.1924908
1.1924907
1.1924905
1.1924904
1.1924903
1.1924902
1.1924901
1.19249
1.1924898
1.1924897
1.1924896
1.1924895
1.1924894
1.1924893
1.1924891
1.192489
1.1924889
1.1924888
1.1924886
1.1924885
1.1924884
1.1924883
1.1924881
1.192488
1.1924879
1.1924878
1.1924876
1.1924875
1.1924874
1.1924873
1.1924872
1.192487
1.1924869
1.1924868
1.1924867
1.1924865
1.1924864
1.1924863
1.1924861
1.192486
1.1924858
1.1924857
1.1924856
1.1924854
1.1924853
1.1924852
1.1924851
1.1924849
1.1924848
1.1924847
1.1924845
1.1924844
1.1924842
1.1924841
1.192484
1.1924838
1.1924837
1.1924835
1.1924834
1.1924832
1.1924831
1.1924829
1.1924828
1.1924826
1.1924824
1.1924823
1.1924821
1.1924819
1.1924818
1.1924816
1.1924814
1.1924813
1.1924811
1.1924809
1.1924807
1.1924806
1.1924804
1.1924803
1.1924801
1.1924799
1.1924798
1.1924796
1.1924795
1.1924793
1.1924791
1.1924789
1.1924787
1.1924786
1.1924784
1.1924782
1.192478
1.1924778
1.1924777
1.1924775
1.1924773
1.1924771
1.1924769
1.1924767
1.1924765
1.1924763
1.1924761
1.1924759
1.1924758
1.1924756
1.1924754
1.1924752
1.192475
1.1924748
1.1924746
1.1924744
1.1924742
1.192474
1.1924738
1.1924736
1.1924734
1.1924732
1.192473
1.1924727
1.1924725
1.1924723
1.1924721
1.1924719
1.1924717
1.1924715
1.1924712
1.192471
1.1924708
1.1924706
1.1924703
1.1924701
1.1924699
1.1924696
1.1924694
1.1924691
1.1924689
1.1924686
1.1924684
1.1924681
1.1924679
1.1924676
1.1924674
1.1924671
1.1924669
1.1924666
1.1924664
1.1924661
1.1924658
1.1924656
1.1924653
1.1924651
1.1924648
1.1924645
1.1924643
1.192464
1.1924637
1.1924635
1.1924632
1.1924629
1.1924626
1.1924623
1.192462
1.1924617
1.1924614
1.1924611
1.1924608
1.1924605
1.1924602
1.19246
1.1924597
1.1924594
1.192459
1.1924587
1.1924584
1.1924581
1.1924577
1.1924574
1.1924571
1.1924567
1.1924564
1.1924561
1.1924557
1.1924554
1.192455
1.1924546
1.1924543
1.1924539
1.1924535
1.1924532
1.1924528
1.1924524
1.192452
1.1924517
1.1924513
1.1924509
1.1924505
1.1924501
1.1924497
1.1924493
1.1924488
1.1924484
1.192448
1.1924475
1.1924471
1.1924466
1.1924461
1.1924456
1.1924451
1.1924446
1.1924441
1.1924436
1.1924431
1.1924426
1.1924421
1.1924416
1.1924411
1.1924406
1.1924401
1.1924395
1.192439
1.1924385
1.1924379
1.1924374
1.1924369
1.1924363
1.1924358
1.1924352
1.1924347
1.1924342
1.1924337
1.1924332
1.1924327
1.1924323
1.1924319
1.1924315
1.1924311
1.1924308
1.1924305
1.1924302
1.19243
1.1924298
1.1924296
1.1924295
1.1924294
1.1924293
1.1924293
1.1924292
1.1924292
1.1924292
1.1924294
1.1924295
1.1924297
1.1924298
1.19243
1.1924301
1.1924301
1.1924301
1.1924301
1.1924301
1.19243
1.1924299
1.1924297
1.1924294
1.1924286
1.1924278
1.1924269
1.1924258
1.1924248
1.1924238
1.1924227
1.1924217
1.1924206
1.1924196
1.1924184
1.1924172
1.1924159
1.1924146
1.1924131
1.1924116
1.1924101
1.1924087
1.1924076
1.1924067
1.1924061
1.1924057
1.1924056
1.1924058
1.192406
1.1924063
1.1924064
1.1924064
1.192406
1.1924052
1.1924039
1.1924022
1.1924
1.1923974
1.1923941
1.1923882
1.192375
1.1923408
1.1922494
1.1920049
1.1913542
1.189633
1.1856616
1.1808191
1.1754754
1.1698973
1.1643387
1.1590191
1.154108
1.1497188
1.1459102
1.1426945
1.1400473
1.1379196
1.1362475
1.1349615
1.1339925
1.1332768
1.1327584
1.1323901
1.1321334
1.1319582
1.1318412
1.131765
1.131717
1.1316881
1.1316719
1.1316638
1.1316606
1.1316599
1.1316602
1.1316633
1.1316695
1.1316749
1.1316797
1.1316839
1.1316876
1.1316908
1.1316936
1.1316961
1.1316984
1.1317004
1.1317023
1.131704
1.1317057
1.1317072
1.1317087
1.1317102
1.1317116
1.1317129
1.1317142
1.1317154
1.1317166
1.1317177
1.1317189
1.13172
1.1317212
1.1317225
1.1317238
1.1317251
1.1317266
1.1317282
1.1317298
1.1317316
1.1317334
1.1317353
1.1317373
1.1317393
1.1317413
1.1317432
1.1317452
1.1317471
1.1317489
1.1317507
1.1317524
1.1317541
1.1317556
1.1317571
1.1317585
1.1317598
1.131761
1.1317622
1.1317633
1.1317643
1.1317653
1.1317662
1.1317671
1.1317679
1.1317686
1.1317694
1.1317701
1.1317707
1.1317714
1.131772
1.1317726
1.1317732
1.1317738
1.1317743
1.1317749
1.1317754
1.1317759
1.1317764
1.1317769
1.1317774
1.1317778
1.1317783
1.1317787
1.1317791
1.1317795
1.1317799
1.1317803
1.1317807
1.1317811
1.1317815
1.1317819
1.1317822
1.1317826
1.131783
1.1317833
1.1317837
1.131784
1.1317843
1.1317846
1.131785
1.1317853
1.1317856
1.1317859
1.1317861
1.1317864
1.1317867
1.131787
1.1317872
1.1317875
1.1317878
1.131788
1.1317883
1.1317886
1.1317888
1.1317891
1.1317894
1.1317896
1.1317899
1.1317901
1.1317903
1.1317906
1.1317908
1.131791
1.1317912
1.1317915
1.1317917
1.1317919
1.1317921
1.1317923
1.1317925
1.1317927
1.1317929
1.1317931
1.1317933
1.1317935
1.1317937
1.1317939
1.131794
1.1317942
1.1317944
1.1317946
1.1317948
1.1317949
1.1317951
1.1317953
1.1317955
1.1317956
1.1317958
1.131796
1.1317961
1.1317963
1.1317964
1.1317966
1.1317967
1.1317969
1.131797
1.1317972
1.1317973
1.1317974
1.1317976
1.1317977
1.1317978
1.131798
1.1317981
1.1317982
1.1317983
1.1317985
1.1317986
1.1317987
1.1317988
1.131799
1.1317991
1.1317992