/*--------------------------------*- C++ -*----------------------------------*\
  =========                 |
  \\      /  F ield         | OpenFOAM: The Open Source CFD Toolbox
   \\    /   O peration     | Website:  https://openfoam.org
    \\  /    A nd           | Version:  7
     \\/     M anipulation  |
\*---------------------------------------------------------------------------*/
FoamFile
{
    version     2.0;
    format      ascii;
    class       volScalarField;
    location    "0.00217";
    object      T;
}
// * * * * * * * * * * * * * * * * * * * * * * * * * * * * * * * * * * * * * //

dimensions      [0 0 0 1 0 0 0];

internalField   nonuniform List<scalar> 
5000
(
277.93638
277.93639
277.93631
277.93625
277.9362
277.93617
277.93614
277.93612
277.9361
277.93609
277.93609
277.93609
277.93608
277.93608
277.93608
277.93608
277.93608
277.93608
277.93608
277.93608
277.93608
277.93609
277.93609
277.93609
277.93609
277.93609
277.93609
277.93609
277.93609
277.93609
277.93609
277.93609
277.9361
277.9361
277.9361
277.9361
277.9361
277.9361
277.9361
277.9361
277.9361
277.93611
277.93611
277.93611
277.93611
277.93611
277.93611
277.93611
277.93611
277.93611
277.93612
277.93612
277.93612
277.93612
277.93612
277.93612
277.93612
277.93612
277.93613
277.93613
277.93613
277.93613
277.93613
277.93613
277.93613
277.93614
277.93614
277.93614
277.93614
277.93614
277.93614
277.93614
277.93614
277.93615
277.93615
277.93615
277.93615
277.93615
277.93615
277.93615
277.93616
277.93616
277.93616
277.93616
277.93616
277.93616
277.93616
277.93617
277.93617
277.93617
277.93617
277.93617
277.93617
277.93617
277.93618
277.93618
277.93618
277.93618
277.93618
277.93618
277.93618
277.93619
277.93619
277.93619
277.93619
277.93619
277.93619
277.93619
277.9362
277.9362
277.9362
277.9362
277.9362
277.9362
277.9362
277.93621
277.93621
277.93621
277.93621
277.93621
277.93621
277.93621
277.93622
277.93622
277.93622
277.93622
277.93622
277.93622
277.93622
277.93623
277.93623
277.93623
277.93623
277.93623
277.93623
277.93623
277.93624
277.93624
277.93624
277.93624
277.93624
277.93624
277.93624
277.93624
277.93625
277.93625
277.93625
277.93625
277.93625
277.93625
277.93625
277.93625
277.93626
277.93626
277.93626
277.93626
277.93626
277.93626
277.93626
277.93626
277.93627
277.93627
277.93627
277.93627
277.93627
277.93627
277.93627
277.93627
277.93628
277.93628
277.93628
277.93628
277.93628
277.93628
277.93628
277.93628
277.93628
277.93629
277.93629
277.93629
277.93629
277.93629
277.93629
277.93629
277.93629
277.9363
277.9363
277.9363
277.9363
277.9363
277.9363
277.9363
277.9363
277.9363
277.93631
277.93631
277.93631
277.93631
277.93631
277.93631
277.93631
277.93631
277.93631
277.93631
277.93632
277.93632
277.93632
277.93632
277.93632
277.93632
277.93632
277.93632
277.93632
277.93633
277.93633
277.93633
277.93633
277.93633
277.93633
277.93633
277.93633
277.93633
277.93633
277.93634
277.93634
277.93634
277.93634
277.93634
277.93634
277.93634
277.93634
277.93634
277.93634
277.93634
277.93635
277.93635
277.93635
277.93635
277.93635
277.93635
277.93635
277.93635
277.93635
277.93635
277.93636
277.93636
277.93636
277.93636
277.93636
277.93636
277.93636
277.93636
277.93636
277.93636
277.93637
277.93637
277.93637
277.93637
277.93637
277.93637
277.93637
277.93637
277.93637
277.93637
277.93637
277.93638
277.93638
277.93638
277.93638
277.93638
277.93638
277.93638
277.93638
277.93638
277.93638
277.93639
277.93639
277.93639
277.93639
277.93639
277.93639
277.93639
277.93639
277.93639
277.9364
277.9364
277.9364
277.9364
277.9364
277.9364
277.9364
277.9364
277.9364
277.9364
277.93641
277.93641
277.93641
277.93641
277.93641
277.93641
277.93641
277.93641
277.93642
277.93642
277.93642
277.93642
277.93642
277.93642
277.93642
277.93642
277.93642
277.93643
277.93643
277.93643
277.93643
277.93643
277.93643
277.93643
277.93643
277.93644
277.93644
277.93644
277.93644
277.93644
277.93644
277.93644
277.93644
277.93645
277.93645
277.93645
277.93645
277.93645
277.93645
277.93645
277.93646
277.93646
277.93646
277.93646
277.93646
277.93646
277.93646
277.93647
277.93647
277.93647
277.93647
277.93647
277.93647
277.93647
277.93648
277.93648
277.93648
277.93648
277.93648
277.93648
277.93649
277.93649
277.93649
277.93649
277.93649
277.93649
277.9365
277.9365
277.9365
277.9365
277.9365
277.9365
277.93651
277.93651
277.93651
277.93651
277.93651
277.93651
277.93652
277.93652
277.93652
277.93652
277.93652
277.93653
277.93653
277.93653
277.93653
277.93653
277.93654
277.93654
277.93654
277.93654
277.93654
277.93655
277.93655
277.93655
277.93655
277.93655
277.93656
277.93656
277.93656
277.93656
277.93657
277.93657
277.93657
277.93657
277.93658
277.93658
277.93658
277.93658
277.93658
277.93659
277.93659
277.93659
277.93659
277.9366
277.9366
277.9366
277.9366
277.93661
277.93661
277.93661
277.93661
277.93662
277.93662
277.93662
277.93663
277.93663
277.93663
277.93663
277.93664
277.93664
277.93664
277.93665
277.93665
277.93665
277.93665
277.93666
277.93666
277.93666
277.93667
277.93667
277.93667
277.93668
277.93668
277.93668
277.93669
277.93669
277.93669
277.9367
277.9367
277.9367
277.93671
277.93671
277.93671
277.93672
277.93672
277.93672
277.93673
277.93673
277.93673
277.93674
277.93674
277.93674
277.93675
277.93675
277.93676
277.93676
277.93676
277.93677
277.93677
277.93677
277.93678
277.93678
277.93679
277.93679
277.93679
277.9368
277.9368
277.93681
277.93681
277.93681
277.93682
277.93682
277.93683
277.93683
277.93684
277.93684
277.93684
277.93685
277.93685
277.93686
277.93686
277.93687
277.93687
277.93688
277.93688
277.93688
277.93689
277.93689
277.9369
277.9369
277.93691
277.93691
277.93692
277.93692
277.93693
277.93693
277.93694
277.93694
277.93695
277.93695
277.93696
277.93696
277.93697
277.93697
277.93698
277.93698
277.93699
277.93699
277.937
277.937
277.93701
277.93701
277.93702
277.93702
277.93703
277.93704
277.93704
277.93705
277.93705
277.93706
277.93706
277.93707
277.93708
277.93708
277.93709
277.93709
277.9371
277.9371
277.93711
277.93712
277.93712
277.93713
277.93713
277.93714
277.93715
277.93715
277.93716
277.93717
277.93717
277.93718
277.93719
277.93719
277.9372
277.93721
277.93721
277.93722
277.93723
277.93723
277.93724
277.93725
277.93725
277.93726
277.93727
277.93728
277.93728
277.93729
277.9373
277.9373
277.93731
277.93732
277.93733
277.93733
277.93734
277.93735
277.93736
277.93737
277.93737
277.93738
277.93739
277.9374
277.9374
277.93741
277.93742
277.93743
277.93744
277.93745
277.93745
277.93746
277.93747
277.93748
277.93749
277.9375
277.93751
277.93752
277.93753
277.93753
277.93754
277.93755
277.93756
277.93757
277.93758
277.93759
277.9376
277.93761
277.93762
277.93763
277.93764
277.93765
277.93766
277.93767
277.93768
277.93769
277.9377
277.93771
277.93772
277.93773
277.93774
277.93776
277.93777
277.93778
277.93779
277.9378
277.93781
277.93783
277.93784
277.93785
277.93786
277.93788
277.93789
277.9379
277.93791
277.93793
277.93794
277.93796
277.93797
277.93798
277.938
277.93801
277.93803
277.93804
277.93806
277.93808
277.93809
277.93811
277.93813
277.93815
277.93816
277.93818
277.9382
277.93822
277.93824
277.93826
277.93828
277.9383
277.93832
277.93834
277.93836
277.93838
277.9384
277.93843
277.93845
277.93848
277.9385
277.93853
277.93855
277.93858
277.93861
277.93864
277.93867
277.9387
277.93873
277.93876
277.93879
277.93882
277.93886
277.9389
277.93893
277.93897
277.93901
277.93905
277.93909
277.93913
277.93918
277.93922
277.93927
277.93932
277.93937
277.93942
277.93947
277.93952
277.93958
277.93964
277.9397
277.93976
277.93982
277.93989
277.93996
277.94003
277.9401
277.94017
277.94025
277.94033
277.94041
277.94049
277.94058
277.94067
277.94076
277.94086
277.94096
277.94106
277.94117
277.94128
277.94139
277.9415
277.94162
277.94175
277.94188
277.94201
277.94214
277.94229
277.94243
277.94258
277.94274
277.9429
277.94306
277.94323
277.94341
277.94359
277.94377
277.94397
277.94416
277.94437
277.94458
277.9448
277.94502
277.94525
277.94549
277.94574
277.94599
277.94626
277.94653
277.94681
277.94709
277.94739
277.94769
277.94801
277.94833
277.94866
277.94901
277.94936
277.94972
277.9501
277.95048
277.95088
277.95128
277.9517
277.95214
277.95258
277.95304
277.95351
277.95399
277.95449
277.955
277.95552
277.95606
277.95662
277.95719
277.95777
277.95838
277.95899
277.95963
277.96028
277.96095
277.96164
277.96235
277.96307
277.96381
277.96458
277.96536
277.96616
277.96699
277.96783
277.9687
277.96959
277.9705
277.97143
277.97239
277.97337
277.97438
277.97541
277.97647
277.97755
277.97865
277.97979
277.98095
277.98214
277.98335
277.9846
277.98587
277.98718
277.98851
277.98988
277.99127
277.9927
277.99416
277.99565
277.99718
277.99874
278.00033
278.00196
278.00362
278.00532
278.00706
278.00883
278.01064
278.01249
278.01438
278.01631
278.01827
278.02028
278.02233
278.02442
278.02655
278.02872
278.03094
278.0332
278.0355
278.03785
278.04025
278.04269
278.04518
278.04771
278.0503
278.05293
278.05561
278.05834
278.06112
278.06395
278.06683
278.06976
278.07275
278.07578
278.07887
278.08201
278.08521
278.08846
278.09177
278.09514
278.09856
278.10203
278.10557
278.10916
278.11281
278.11652
278.12029
278.12412
278.12801
278.13196
278.13597
278.14005
278.14418
278.14838
278.15264
278.15697
278.16136
278.16581
278.17033
278.17492
278.17957
278.18428
278.18907
278.19392
278.19883
278.20382
278.20887
278.214
278.21919
278.22445
278.22978
278.23518
278.24065
278.24619
278.2518
278.25748
278.26324
278.26906
278.27496
278.28093
278.28697
278.29309
278.29927
278.30553
278.31187
278.31827
278.32475
278.33131
278.33794
278.34464
278.35142
278.35828
278.3652
278.37221
278.37929
278.38644
278.39367
278.40097
278.40835
278.41581
278.42334
278.43095
278.43863
278.44639
278.45422
278.46213
278.47012
278.47818
278.48632
278.49453
278.50282
278.51119
278.51963
278.52815
278.53674
278.54541
278.55416
278.56298
278.57187
278.58084
278.58989
278.59901
278.60821
278.61748
278.62682
278.63625
278.64574
278.65531
278.66496
278.67468
278.68447
278.69433
278.70427
278.71429
278.72437
278.73453
278.74476
278.75507
278.76544
278.77589
278.78641
278.797
278.80766
278.81839
278.8292
278.84007
278.85101
278.86203
278.87311
278.88427
278.89549
278.90678
278.91814
278.92957
278.94106
278.95263
278.96425
278.97595
278.98771
278.99954
279.01144
279.0234
279.03542
279.04751
279.05966
279.07188
279.08416
279.09651
279.10891
279.12138
279.13392
279.14651
279.15917
279.17188
279.18466
279.19749
279.21039
279.22335
279.23636
279.24943
279.26256
279.27575
279.289
279.3023
279.31566
279.32907
279.34255
279.35607
279.36965
279.38329
279.39698
279.41072
279.42452
279.43837
279.45227
279.46622
279.48022
279.49428
279.50838
279.52254
279.53674
279.551
279.5653
279.57965
279.59405
279.6085
279.62299
279.63753
279.65212
279.66675
279.68143
279.69615
279.71091
279.72572
279.74058
279.75548
279.77042
279.7854
279.80042
279.81549
279.83059
279.84574
279.86092
279.87615
279.89141
279.90672
279.92206
279.93744
279.95286
279.96831
279.9838
279.99932
280.01489
280.03048
280.04611
280.06178
280.07748
280.09321
280.10898
280.12478
280.14061
280.15647
280.17237
280.18829
280.20425
280.22023
280.23625
280.25229
280.26837
280.28447
280.3006
280.31675
280.33294
280.34915
280.36539
280.38165
280.39794
280.41425
280.43059
280.44695
280.46334
280.47975
280.49618
280.51264
280.52911
280.54561
280.56213
280.57867
280.59524
280.61182
280.62842
280.64504
280.66168
280.67834
280.69501
280.71171
280.72842
280.74515
280.76189
280.77866
280.79543
280.81223
280.82903
280.84586
280.86269
280.87955
280.89641
280.91329
280.93018
280.94708
280.96399
280.98092
280.99785
281.0148
281.03176
281.04873
281.0657
281.08269
281.09969
281.11669
281.1337
281.15073
281.16775
281.18479
281.20183
281.21888
281.23593
281.25299
281.27006
281.28713
281.3042
281.32128
281.33836
281.35545
281.37253
281.38962
281.40672
281.42381
281.44091
281.45801
281.47511
281.49221
281.50931
281.52641
281.5435
281.5606
281.5777
281.59479
281.61189
281.62898
281.64606
281.66315
281.68023
281.69731
281.71438
281.73145
281.74851
281.76557
281.78262
281.79967
281.81671
281.83375
281.85077
281.86779
281.88481
281.90181
281.91881
281.9358
281.95277
281.96974
281.9867
282.00365
282.02059
282.03751
282.05443
282.07133
282.08823
282.10511
282.12198
282.13883
282.15568
282.1725
282.18932
282.20612
282.22291
282.23968
282.25643
282.27317
282.2899
282.3066
282.32329
282.33997
282.35662
282.37326
282.38988
282.40648
282.42307
282.43963
282.45618
282.4727
282.48921
282.50569
282.52215
282.5386
282.55502
282.57141
282.58779
282.60414
282.62047
282.63678
282.65306
282.66932
282.68556
282.70177
282.71796
282.73412
282.75025
282.76636
282.78244
282.7985
282.81453
282.83053
282.8465
282.86245
282.87836
282.89425
282.91011
282.92594
282.94174
282.95751
282.97325
282.98895
283.00463
283.02027
283.03589
283.05147
283.06702
283.08253
283.09801
283.11346
283.12888
283.14426
283.1596
283.17491
283.19019
283.20542
283.22063
283.23579
283.25092
283.26602
283.28107
283.29609
283.31107
283.32601
283.34091
283.35577
283.3706
283.38538
283.40012
283.41483
283.42949
283.44411
283.45869
283.47323
283.48773
283.50218
283.51659
283.53096
283.54528
283.55956
283.5738
283.58799
283.60214
283.61624
283.6303
283.64431
283.65828
283.6722
283.68607
283.69989
283.71367
283.7274
283.74108
283.75472
283.7683
283.78184
283.79532
283.80876
283.82215
283.83549
283.84878
283.86201
283.8752
283.88833
283.90142
283.91445
283.92743
283.94035
283.95322
283.96604
283.97881
283.99153
284.00418
284.01679
284.02934
284.04184
284.05428
284.06666
284.07899
284.09127
284.10349
284.11565
284.12775
284.1398
284.1518
284.16373
284.17561
284.18743
284.19919
284.21089
284.22253
284.23412
284.24564
284.25711
284.26852
284.27987
284.29116
284.30238
284.31355
284.32466
284.33571
284.34669
284.35762
284.36848
284.37928
284.39002
284.4007
284.41132
284.42187
284.43236
284.44279
284.45316
284.46346
284.4737
284.48388
284.49399
284.50405
284.51403
284.52396
284.53382
284.54362
284.55335
284.56302
284.57262
284.58216
284.59164
284.60105
284.61039
284.61968
284.62889
284.63804
284.64713
284.65615
284.66511
284.674
284.68283
284.69159
284.70029
284.70892
284.71748
284.72599
284.73442
284.74279
284.7511
284.75934
284.76751
284.77562
284.78366
284.79164
284.79956
284.8074
284.81519
284.8229
284.83056
284.83814
284.84567
284.85312
284.86052
284.86785
284.87511
284.88231
284.88944
284.89651
284.90352
284.91046
284.91734
284.92415
284.9309
284.93759
284.94421
284.95077
284.95727
284.9637
284.97007
284.97638
284.98262
284.9888
284.99492
285.00098
285.00698
285.01291
285.01878
285.02459
285.03034
285.03603
285.04166
285.04723
285.05274
285.05819
285.06357
285.0689
285.07417
285.07939
285.08454
285.08963
285.09467
285.09965
285.10457
285.10943
285.11424
285.11898
285.12368
285.12831
285.1329
285.13742
285.14189
285.14631
285.15067
285.15497
285.15923
285.16343
285.16757
285.17167
285.17571
285.17969
285.18363
285.18752
285.19135
285.19513
285.19887
285.20255
285.20618
285.20976
285.2133
285.21678
285.22022
285.22361
285.22695
285.23025
285.23349
285.2367
285.23985
285.24296
285.24603
285.24905
285.25202
285.25496
285.25784
285.26069
285.26349
285.26625
285.26897
285.27165
285.27428
285.27688
285.27943
285.28194
285.28442
285.28685
285.28925
285.29161
285.29393
285.29621
285.29845
285.30066
285.30284
285.30497
285.30707
285.30914
285.31117
285.31317
285.31513
285.31706
285.31896
285.32082
285.32265
285.32445
285.32622
285.32795
285.32966
285.33134
285.33298
285.3346
285.33618
285.33774
285.33927
285.34077
285.34224
285.34369
285.34511
285.3465
285.34787
285.34921
285.35052
285.35181
285.35308
285.35432
285.35554
285.35673
285.3579
285.35905
285.36017
285.36127
285.36235
285.36341
285.36445
285.36546
285.36646
285.36743
285.36839
285.36932
285.37024
285.37114
285.37202
285.37288
285.37372
285.37454
285.37535
285.37614
285.37691
285.37767
285.37841
285.37913
285.37984
285.38053
285.38121
285.38187
285.38252
285.38315
285.38377
285.38438
285.38497
285.38555
285.38612
285.38667
285.38721
285.38774
285.38825
285.38876
285.38925
285.38973
285.3902
285.39065
285.3911
285.39154
285.39196
285.39238
285.39278
285.39318
285.39357
285.39395
285.39431
285.39467
285.39502
285.39537
285.3957
285.39602
285.39634
285.39665
285.39695
285.39725
285.39753
285.39781
285.39808
285.39835
285.39861
285.39886
285.3991
285.39934
285.39958
285.3998
285.40002
285.40024
285.40045
285.40065
285.40085
285.40105
285.40123
285.40142
285.40159
285.40177
285.40194
285.4021
285.40226
285.40242
285.40257
285.40271
285.40286
285.403
285.40313
285.40326
285.40339
285.40352
285.40364
285.40375
285.40387
285.40398
285.40409
285.4042
285.4043
285.4044
285.40449
285.40459
285.40468
285.40477
285.40485
285.40494
285.40502
285.40509
285.40517
285.40524
285.40532
285.40539
285.40545
285.40552
285.40558
285.40565
285.40571
285.40577
285.40582
285.40588
285.40593
285.40598
285.40603
285.40608
285.40613
285.40617
285.40622
285.40626
285.4063
285.40634
285.40638
285.40642
285.40646
285.4065
285.40653
285.40656
285.4066
285.40663
285.40666
285.40669
285.40672
285.40675
285.40677
285.4068
285.40683
285.40685
285.40688
285.4069
285.40692
285.40694
285.40697
285.40699
285.40701
285.40703
285.40704
285.40706
285.40708
285.4071
285.40711
285.40713
285.40715
285.40716
285.40718
285.40719
285.40721
285.40722
285.40724
285.40725
285.40726
285.40727
285.40728
285.4073
285.40731
285.40732
285.40733
285.40734
285.40735
285.40736
285.40737
285.40738
285.40739
285.40739
285.4074
285.40741
285.40742
285.40743
285.40743
285.40744
285.40745
285.40745
285.40746
285.40747
285.40747
285.40748
285.40749
285.40749
285.4075
285.40751
285.40751
285.40752
285.40753
285.40753
285.40754
285.40754
285.40755
285.40755
285.40756
285.40756
285.40757
285.40757
285.40758
285.40758
285.40759
285.40759
285.40759
285.4076
285.4076
285.40761
285.40761
285.40762
285.40762
285.40762
285.40763
285.40763
285.40763
285.40764
285.40764
285.40765
285.40765
285.40765
285.40766
285.40766
285.40766
285.40767
285.40767
285.40767
285.40768
285.40768
285.40768
285.40769
285.40769
285.40769
285.4077
285.4077
285.40771
285.40771
285.40771
285.40772
285.40772
285.40772
285.40773
285.40773
285.40773
285.40773
285.40774
285.40774
285.40774
285.40775
285.40775
285.40775
285.40776
285.40776
285.40776
285.40777
285.40777
285.40777
285.40778
285.40778
285.40778
285.40779
285.40779
285.40779
285.4078
285.4078
285.4078
285.40781
285.40781
285.40781
285.40781
285.40782
285.40782
285.40782
285.40783
285.40783
285.40783
285.40783
285.40784
285.40784
285.40784
285.40785
285.40785
285.40785
285.40786
285.40786
285.40786
285.40787
285.40787
285.40787
285.40788
285.40788
285.40788
285.40789
285.40789
285.40789
285.4079
285.4079
285.4079
285.40791
285.40791
285.40791
285.40792
285.40792
285.40792
285.40793
285.40793
285.40793
285.40794
285.40794
285.40794
285.40794
285.40795
285.40795
285.40795
285.40796
285.40796
285.40796
285.40797
285.40797
285.40797
285.40798
285.40798
285.40798
285.40799
285.40799
285.40799
285.408
285.408
285.408
285.40801
285.40801
285.40801
285.40802
285.40802
285.40803
285.40803
285.40803
285.40804
285.40804
285.40804
285.40805
285.40805
285.40805
285.40806
285.40806
285.40806
285.40807
285.40807
285.40807
285.40808
285.40808
285.40808
285.40809
285.40809
285.40809
285.4081
285.4081
285.4081
285.40811
285.40811
285.40811
285.40812
285.40812
285.40812
285.40813
285.40813
285.40813
285.40814
285.40814
285.40814
285.40815
285.40815
285.40815
285.40816
285.40816
285.40817
285.40817
285.40817
285.40818
285.40818
285.40819
285.40819
285.40819
285.4082
285.4082
285.4082
285.40821
285.40821
285.40822
285.40822
285.40822
285.40823
285.40823
285.40823
285.40824
285.40824
285.40824
285.40825
285.40825
285.40826
285.40826
285.40826
285.40827
285.40827
285.40827
285.40828
285.40828
285.40829
285.40829
285.40829
285.4083
285.4083
285.40831
285.40831
285.40831
285.40832
285.40832
285.40832
285.40833
285.40833
285.40834
285.40834
285.40834
285.40835
285.40835
285.40836
285.40836
285.40836
285.40837
285.40837
285.40838
285.40838
285.40838
285.40839
285.40839
285.4084
285.4084
285.4084
285.40841
285.40841
285.40842
285.40842
285.40843
285.40843
285.40843
285.40844
285.40844
285.40845
285.40845
285.40846
285.40846
285.40846
285.40847
285.40847
285.40848
285.40848
285.40848
285.40849
285.40849
285.4085
285.4085
285.40851
285.40851
285.40851
285.40852
285.40852
285.40853
285.40853
285.40853
285.40854
285.40854
285.40855
285.40855
285.40856
285.40856
285.40857
285.40857
285.40858
285.40858
285.40859
285.40859
285.40859
285.4086
285.4086
285.40861
285.40861
285.40862
285.40862
285.40862
285.40863
285.40863
285.40864
285.40864
285.40865
285.40865
285.40866
285.40866
285.40866
285.40867
285.40867
285.40868
285.40868
285.40869
285.40869
285.4087
285.4087
285.40871
285.40871
285.40872
285.40872
285.40873
285.40873
285.40874
285.40874
285.40875
285.40875
285.40876
285.40876
285.40876
285.40877
285.40877
285.40878
285.40878
285.40879
285.40879
285.4088
285.4088
285.40881
285.40881
285.40882
285.40882
285.40883
285.40883
285.40884
285.40884
285.40885
285.40885
285.40886
285.40886
285.40887
285.40887
285.40888
285.40888
285.40889
285.40889
285.4089
285.4089
285.40891
285.40891
285.40892
285.40892
285.40893
285.40894
285.40894
285.40895
285.40895
285.40896
285.40896
285.40897
285.40897
285.40898
285.40898
285.40899
285.40899
285.409
285.409
285.40901
285.40901
285.40902
285.40902
285.40903
285.40903
285.40904
285.40905
285.40905
285.40906
285.40906
285.40907
285.40907
285.40908
285.40909
285.40909
285.4091
285.4091
285.40911
285.40911
285.40912
285.40913
285.40913
285.40914
285.40914
285.40915
285.40915
285.40916
285.40916
285.40917
285.40917
285.40918
285.40919
285.40919
285.4092
285.4092
285.40921
285.40922
285.40922
285.40923
285.40923
285.40924
285.40925
285.40925
285.40926
285.40926
285.40927
285.40928
285.40928
285.40929
285.4093
285.4093
285.40931
285.40931
285.40932
285.40932
285.40933
285.40934
285.40934
285.40935
285.40936
285.40936
285.40937
285.40937
285.40938
285.40939
285.40939
285.4094
285.40941
285.40941
285.40942
285.40942
285.40943
285.40944
285.40944
285.40945
285.40946
285.40946
285.40947
285.40947
285.40948
285.40949
285.40949
285.4095
285.40951
285.40951
285.40952
285.40953
285.40954
285.40954
285.40955
285.40956
285.40956
285.40957
285.40958
285.40958
285.40959
285.4096
285.4096
285.40961
285.40962
285.40963
285.40963
285.40964
285.40964
285.40965
285.40966
285.40967
285.40967
285.40968
285.40969
285.40969
285.4097
285.40971
285.40971
285.40972
285.40973
285.40974
285.40974
285.40975
285.40976
285.40977
285.40978
285.40978
285.40979
285.4098
285.40981
285.40981
285.40982
285.40983
285.40983
285.40984
285.40985
285.40986
285.40986
285.40987
285.40988
285.40989
285.40989
285.4099
285.40991
285.40992
285.40993
285.40993
285.40994
285.40995
285.40996
285.40996
285.40997
285.40998
285.40999
285.41
285.41001
285.41001
285.41002
285.41003
285.41004
285.41005
285.41006
285.41006
285.41007
285.41008
285.41009
285.41009
285.4101
285.41011
285.41012
285.41013
285.41014
285.41014
285.41015
285.41016
285.41017
285.41018
285.41019
285.4102
285.4102
285.41021
285.41022
285.41023
285.41024
285.41025
285.41026
285.41027
285.41028
285.41029
285.4103
285.4103
285.41031
285.41032
285.41033
285.41034
285.41035
285.41036
285.41037
285.41038
285.41038
285.41039
285.4104
285.41041
285.41042
285.41043
285.41044
285.41045
285.41046
285.41047
285.41048
285.41049
285.4105
285.41051
285.41052
285.41053
285.41054
285.41055
285.41056
285.41057
285.41058
285.41059
285.4106
285.41061
285.41062
285.41063
285.41064
285.41065
285.41066
285.41067
285.41068
285.41069
285.4107
285.41071
285.41072
285.41073
285.41074
285.41076
285.41077
285.41078
285.41079
285.4108
285.41081
285.41082
285.41083
285.41084
285.41085
285.41086
285.41087
285.41088
285.41089
285.4109
285.41092
285.41093
285.41094
285.41095
285.41096
285.41097
285.41099
285.411
285.41101
285.41102
285.41103
285.41104
285.41105
285.41107
285.41108
285.41109
285.4111
285.41111
285.41113
285.41114
285.41115
285.41116
285.41118
285.41119
285.4112
285.41121
285.41122
285.41124
285.41125
285.41126
285.41127
285.41129
285.4113
285.41131
285.41132
285.41134
285.41135
285.41136
285.41138
285.41139
285.4114
285.41142
285.41143
285.41144
285.41146
285.41147
285.41148
285.4115
285.41151
285.41152
285.41154
285.41155
285.41156
285.41158
285.41159
285.41161
285.41162
285.41163
285.41165
285.41166
285.41168
285.41169
285.4117
285.41172
285.41173
285.41175
285.41176
285.41178
285.41179
285.41181
285.41182
285.41184
285.41185
285.41187
285.41188
285.4119
285.41192
285.41193
285.41195
285.41196
285.41198
285.412
285.41201
285.41203
285.41204
285.41206
285.41207
285.41209
285.41211
285.41212
285.41214
285.41215
285.41217
285.41219
285.4122
285.41222
285.41224
285.41226
285.41227
285.41229
285.41231
285.41233
285.41234
285.41236
285.41238
285.4124
285.41241
285.41243
285.41245
285.41247
285.41248
285.4125
285.41252
285.41254
285.41256
285.41258
285.41259
285.41261
285.41263
285.41265
285.41267
285.41269
285.41271
285.41273
285.41275
285.41277
285.41279
285.41281
285.41283
285.41285
285.41287
285.41289
285.41291
285.41293
285.41295
285.41298
285.413
285.41302
285.41304
285.41306
285.41308
285.4131
285.41312
285.41315
285.41317
285.41319
285.41321
285.41323
285.41325
285.41328
285.4133
285.41332
285.41335
285.41337
285.41339
285.41342
285.41344
285.41346
285.41349
285.41351
285.41353
285.41356
285.41358
285.41361
285.41363
285.41366
285.41368
285.41371
285.41373
285.41376
285.41379
285.41382
285.41384
285.41387
285.4139
285.41392
285.41395
285.41398
285.414
285.41403
285.41406
285.41408
285.41411
285.41414
285.41417
285.4142
285.41422
285.41425
285.41428
285.41431
285.41434
285.41437
285.41441
285.41444
285.41447
285.4145
285.41453
285.41456
285.4146
285.41463
285.41466
285.41469
285.41472
285.41475
285.41479
285.41482
285.41485
285.41488
285.41491
285.41494
285.41498
285.41501
285.41505
285.41508
285.41511
285.41515
285.41519
285.41522
285.41526
285.4153
285.41534
285.41537
285.41541
285.41545
285.41549
285.41553
285.41557
285.41561
285.41565
285.4157
285.41574
285.41578
285.41582
285.41586
285.41591
285.41595
285.41599
285.41604
285.41608
285.41612
285.41617
285.41621
285.41626
285.4163
285.41635
285.4164
285.41644
285.41649
285.41654
285.41659
285.41664
285.41669
285.41674
285.41679
285.41684
285.41689
285.41694
285.417
285.41705
285.4171
285.41716
285.41721
285.41727
285.41732
285.41738
285.41744
285.41749
285.41755
285.41761
285.41767
285.41773
285.4178
285.41786
285.41792
285.41799
285.41805
285.41812
285.41818
285.41825
285.41832
285.41839
285.41846
285.41853
285.4186
285.41867
285.41875
285.41882
285.4189
285.41897
285.41905
285.41913
285.41921
285.41929
285.41937
285.41946
285.41954
285.41963
285.41971
285.4198
285.41989
285.41997
285.42006
285.42016
285.42025
285.42035
285.42044
285.42054
285.42064
285.42075
285.42085
285.42096
285.42106
285.42117
285.42128
285.42139
285.4215
285.42161
285.42172
285.42183
285.42194
285.42206
285.42217
285.42229
285.4224
285.42252
285.42264
285.42275
285.42287
285.42298
285.42309
285.42321
285.42331
285.42342
285.42352
285.42362
285.42371
285.4238
285.42388
285.42395
285.42402
285.42408
285.42413
285.42418
285.42422
285.42425
285.42427
285.42428
285.42429
285.4243
285.4243
285.4243
285.42429
285.42427
285.42425
285.42423
285.42421
285.4242
285.42418
285.42418
285.42417
285.42417
285.42418
285.42418
285.42421
285.42427
285.42436
285.42448
285.42462
285.42477
285.42495
285.42514
285.42534
285.42557
285.4258
285.42605
285.4263
285.42656
285.42683
285.42709
285.42735
285.42761
285.42786
285.4281
285.42833
285.42855
285.42874
285.42893
285.42908
285.42921
285.42932
285.42939
285.42944
285.42948
285.42951
285.42956
285.42967
285.42992
285.43047
285.43179
285.43501
285.4429
285.46234
285.51055
285.62875
285.90801
286.33199
286.86218
287.49387
288.21676
289.01642
289.87543
290.77449
291.69363
292.61333
293.51549
294.3842
295.20625
295.97146
296.67272
297.3059
297.86955
298.36452
298.79352
299.1607
299.47117
299.7306
299.94492
300.12001
300.26148
300.37457
300.46401
300.53399
300.58816
300.62964
300.66104
300.68453
300.70187
300.7145
300.72355
300.72991
300.73427
300.73716
300.739
300.74008
300.74064
300.74086
300.74089
300.74083
300.74058
300.74006
300.73954
300.73904
300.73856
300.73811
300.73769
300.73728
300.73689
300.73651
300.73614
300.73577
300.73541
300.73505
300.73467
300.73429
300.7339
300.7335
300.73308
300.73265
300.73221
300.73175
300.73128
300.7308
300.73032
300.72982
300.72933
300.72884
300.72834
300.72786
300.72738
300.72691
300.72646
300.72602
300.72559
300.72518
300.72479
300.72441
300.72405
300.72371
300.72338
300.72307
300.72277
300.72249
300.72222
300.72197
300.72172
300.72149
300.72127
300.72106
300.72086
300.72066
300.72047
300.72029
300.72012
300.71995
300.71978
300.71962
300.71947
300.71932
300.71917
300.71903
300.71889
300.71875
300.71862
300.71849
300.71836
300.71824
300.71811
300.71799
300.71788
300.71776
300.71765
300.71753
300.71742
300.71731
300.71721
300.7171
300.717
300.71689
300.71679
300.71669
300.7166
300.7165
300.71641
300.71631
300.71622
300.71613
300.71604
300.71595
300.71587
300.71578
300.7157
300.71561
300.71553
300.71545
300.71537
300.71529
300.71522
300.71514
300.71506
300.71499
300.71492
300.71484
300.71477
300.7147
300.71463
300.71456
300.71449
300.71442
300.71436
300.71429
300.71423
300.71416
300.7141
300.71404
300.71397
300.71391
300.71385
300.71379
300.71373
300.71367
300.71361
300.71356
300.7135
300.71344
300.71339
300.71333
300.71328
300.71322
300.71317
300.71311
300.71306
300.71301
300.71296
300.71291
300.71286
300.71281
300.71276
300.71271
300.71266
300.71261
300.71256
300.71251
300.71247
300.71242
300.71238
300.71233
300.71228
300.71224
300.7122
300.71215
300.71211
300.71207
300.71202
300.71198
300.71194
300.7119
300.71186
300.71182
300.71178
300.71174
300.7117
300.71166
300.71162
300.71158
300.71154
300.7115
300.71146
300.71142
300.71139
300.71135
300.71131
300.71128
300.71124
300.71121
300.71117
300.71114
300.7111
300.71107
300.71103
300.711
300.71096
300.71093
300.71089
300.71086