/*--------------------------------*- C++ -*----------------------------------*\
  =========                 |
  \\      /  F ield         | OpenFOAM: The Open Source CFD Toolbox
   \\    /   O peration     | Website:  https://openfoam.org
    \\  /    A nd           | Version:  7
     \\/     M anipulation  |
\*---------------------------------------------------------------------------*/
FoamFile
{
    version     2.0;
    format      ascii;
    class       volScalarField;
    location    "0.00261";
    object      rho;
}
// * * * * * * * * * * * * * * * * * * * * * * * * * * * * * * * * * * * * * //

dimensions      [1 -3 0 0 0 0 0];

internalField   nonuniform List<scalar> 
5000
(
1.2479591
1.2479591
1.2479593
1.2479596
1.2479599
1.2479601
1.2479602
1.2479603
1.2479604
1.2479604
1.2479604
1.2479605
1.2479605
1.2479605
1.2479605
1.2479605
1.2479605
1.2479605
1.2479605
1.2479605
1.2479605
1.2479605
1.2479605
1.2479605
1.2479605
1.2479605
1.2479605
1.2479605
1.2479605
1.2479605
1.2479605
1.2479605
1.2479605
1.2479605
1.2479605
1.2479605
1.2479605
1.2479605
1.2479605
1.2479605
1.2479605
1.2479605
1.2479605
1.2479605
1.2479605
1.2479605
1.2479605
1.2479605
1.2479605
1.2479605
1.2479605
1.2479605
1.2479605
1.2479605
1.2479605
1.2479605
1.2479605
1.2479605
1.2479605
1.2479605
1.2479605
1.2479605
1.2479605
1.2479605
1.2479605
1.2479605
1.2479605
1.2479605
1.2479605
1.2479605
1.2479605
1.2479605
1.2479605
1.2479605
1.2479605
1.2479605
1.2479605
1.2479605
1.2479605
1.2479605
1.2479605
1.2479605
1.2479605
1.2479605
1.2479605
1.2479605
1.2479605
1.2479605
1.2479605
1.2479605
1.2479605
1.2479605
1.2479605
1.2479605
1.2479605
1.2479605
1.2479605
1.2479605
1.2479605
1.2479604
1.2479604
1.2479604
1.2479604
1.2479604
1.2479604
1.2479604
1.2479604
1.2479604
1.2479604
1.2479604
1.2479604
1.2479604
1.2479604
1.2479604
1.2479604
1.2479604
1.2479604
1.2479604
1.2479604
1.2479604
1.2479604
1.2479604
1.2479604
1.2479604
1.2479604
1.2479604
1.2479604
1.2479604
1.2479604
1.2479604
1.2479604
1.2479604
1.2479604
1.2479604
1.2479604
1.2479604
1.2479604
1.2479604
1.2479604
1.2479604
1.2479604
1.2479604
1.2479604
1.2479604
1.2479604
1.2479604
1.2479604
1.2479604
1.2479604
1.2479604
1.2479604
1.2479604
1.2479604
1.2479604
1.2479604
1.2479604
1.2479604
1.2479604
1.2479604
1.2479604
1.2479604
1.2479604
1.2479604
1.2479604
1.2479604
1.2479604
1.2479604
1.2479604
1.2479604
1.2479604
1.2479604
1.2479604
1.2479604
1.2479604
1.2479604
1.2479604
1.2479604
1.2479604
1.2479604
1.2479604
1.2479604
1.2479604
1.2479604
1.2479604
1.2479604
1.2479604
1.2479604
1.2479604
1.2479604
1.2479604
1.2479604
1.2479604
1.2479604
1.2479604
1.2479604
1.2479604
1.2479604
1.2479604
1.2479604
1.2479604
1.2479604
1.2479604
1.2479604
1.2479604
1.2479604
1.2479604
1.2479604
1.2479604
1.2479604
1.2479604
1.2479604
1.2479604
1.2479604
1.2479604
1.2479604
1.2479604
1.2479604
1.2479604
1.2479604
1.2479604
1.2479604
1.2479604
1.2479604
1.2479604
1.2479604
1.2479604
1.2479604
1.2479604
1.2479604
1.2479604
1.2479604
1.2479604
1.2479604
1.2479604
1.2479604
1.2479604
1.2479604
1.2479604
1.2479604
1.2479604
1.2479604
1.2479604
1.2479604
1.2479604
1.2479604
1.2479604
1.2479604
1.2479604
1.2479604
1.2479604
1.2479604
1.2479604
1.2479604
1.2479604
1.2479604
1.2479604
1.2479605
1.2479605
1.2479605
1.2479605
1.2479605
1.2479605
1.2479605
1.2479605
1.2479605
1.2479605
1.2479605
1.2479605
1.2479605
1.2479605
1.2479605
1.2479605
1.2479605
1.2479605
1.2479605
1.2479605
1.2479605
1.2479605
1.2479605
1.2479605
1.2479605
1.2479605
1.2479605
1.2479605
1.2479605
1.2479605
1.2479605
1.2479605
1.2479605
1.2479605
1.2479605
1.2479605
1.2479605
1.2479605
1.2479605
1.2479605
1.2479605
1.2479605
1.2479605
1.2479605
1.2479605
1.2479605
1.2479605
1.2479605
1.2479605
1.2479605
1.2479605
1.2479605
1.2479605
1.2479605
1.2479605
1.2479605
1.2479605
1.2479606
1.2479606
1.2479606
1.2479606
1.2479606
1.2479606
1.2479606
1.2479606
1.2479606
1.2479606
1.2479606
1.2479606
1.2479606
1.2479606
1.2479606
1.2479606
1.2479606
1.2479606
1.2479606
1.2479606
1.2479606
1.2479606
1.2479606
1.2479606
1.2479606
1.2479606
1.2479606
1.2479606
1.2479606
1.2479606
1.2479606
1.2479606
1.2479606
1.2479606
1.2479606
1.2479606
1.2479606
1.2479606
1.2479606
1.2479606
1.2479606
1.2479606
1.2479606
1.2479606
1.2479606
1.2479606
1.2479606
1.2479606
1.2479606
1.2479606
1.2479606
1.2479606
1.2479606
1.2479606
1.2479606
1.2479607
1.2479607
1.2479607
1.2479607
1.2479607
1.2479607
1.2479607
1.2479607
1.2479607
1.2479607
1.2479607
1.2479607
1.2479607
1.2479607
1.2479607
1.2479607
1.2479607
1.2479607
1.2479607
1.2479607
1.2479607
1.2479607
1.2479607
1.2479607
1.2479607
1.2479607
1.2479607
1.2479607
1.2479607
1.2479607
1.2479607
1.2479607
1.2479607
1.2479607
1.2479607
1.2479607
1.2479607
1.2479607
1.2479607
1.2479607
1.2479607
1.2479607
1.2479607
1.2479607
1.2479607
1.2479607
1.2479607
1.2479607
1.2479607
1.2479607
1.2479607
1.2479607
1.2479607
1.2479607
1.2479607
1.2479607
1.2479608
1.2479608
1.2479608
1.2479608
1.2479608
1.2479608
1.2479608
1.2479608
1.2479608
1.2479608
1.2479608
1.2479608
1.2479608
1.2479608
1.2479608
1.2479608
1.2479608
1.2479608
1.2479608
1.2479608
1.2479608
1.2479608
1.2479608
1.2479608
1.2479608
1.2479608
1.2479608
1.2479608
1.2479608
1.2479608
1.2479608
1.2479608
1.2479608
1.2479608
1.2479608
1.2479608
1.2479608
1.2479608
1.2479608
1.2479608
1.2479608
1.2479608
1.2479608
1.2479608
1.2479608
1.2479608
1.2479608
1.2479608
1.2479608
1.2479608
1.2479608
1.2479608
1.2479608
1.2479608
1.2479608
1.2479608
1.2479608
1.2479608
1.2479608
1.2479608
1.2479608
1.2479608
1.2479608
1.2479608
1.2479609
1.2479609
1.2479609
1.2479609
1.2479609
1.2479609
1.2479609
1.2479609
1.2479609
1.2479609
1.2479609
1.2479609
1.2479609
1.2479609
1.2479609
1.2479609
1.2479609
1.2479609
1.2479609
1.2479609
1.2479609
1.2479609
1.2479609
1.2479609
1.2479609
1.2479609
1.2479609
1.2479609
1.2479609
1.2479609
1.2479609
1.2479609
1.2479609
1.2479609
1.2479609
1.2479609
1.2479609
1.2479609
1.2479609
1.2479609
1.2479609
1.2479609
1.2479609
1.2479609
1.2479609
1.2479609
1.2479609
1.2479609
1.2479609
1.2479609
1.2479609
1.2479609
1.2479609
1.2479609
1.2479609
1.2479609
1.2479609
1.2479609
1.2479609
1.2479609
1.2479609
1.2479609
1.2479609
1.247961
1.247961
1.247961
1.247961
1.247961
1.247961
1.247961
1.247961
1.247961
1.247961
1.247961
1.247961
1.247961
1.247961
1.247961
1.247961
1.247961
1.247961
1.247961
1.247961
1.247961
1.247961
1.247961
1.247961
1.247961
1.247961
1.247961
1.247961
1.247961
1.247961
1.247961
1.247961
1.247961
1.247961
1.247961
1.247961
1.247961
1.247961
1.247961
1.247961
1.247961
1.247961
1.247961
1.247961
1.247961
1.247961
1.247961
1.247961
1.247961
1.247961
1.247961
1.247961
1.247961
1.247961
1.247961
1.2479611
1.2479611
1.2479611
1.2479611
1.2479611
1.2479611
1.2479611
1.2479611
1.2479611
1.2479611
1.2479611
1.2479611
1.2479611
1.2479611
1.2479611
1.2479611
1.2479611
1.2479611
1.2479611
1.2479611
1.2479611
1.2479611
1.2479611
1.2479611
1.2479611
1.2479611
1.2479611
1.2479611
1.2479611
1.2479611
1.2479611
1.2479611
1.2479611
1.2479611
1.2479611
1.2479611
1.2479611
1.2479611
1.2479611
1.2479611
1.2479611
1.2479611
1.2479611
1.2479611
1.2479611
1.2479611
1.2479611
1.2479612
1.2479612
1.2479612
1.2479612
1.2479612
1.2479612
1.2479612
1.2479612
1.2479612
1.2479612
1.2479612
1.2479612
1.2479612
1.2479612
1.2479612
1.2479612
1.2479612
1.2479612
1.2479612
1.2479612
1.2479612
1.2479612
1.2479612
1.2479612
1.2479612
1.2479612
1.2479612
1.2479612
1.2479612
1.2479612
1.2479612
1.2479612
1.2479612
1.2479612
1.2479612
1.2479612
1.2479612
1.2479612
1.2479612
1.2479612
1.2479612
1.2479612
1.2479612
1.2479612
1.2479612
1.2479613
1.2479613
1.2479613
1.2479613
1.2479613
1.2479613
1.2479613
1.2479613
1.2479613
1.2479613
1.2479613
1.2479613
1.2479613
1.2479613
1.2479613
1.2479613
1.2479613
1.2479613
1.2479613
1.2479613
1.2479613
1.2479613
1.2479613
1.2479613
1.2479613
1.2479613
1.2479613
1.2479613
1.2479613
1.2479613
1.2479613
1.2479613
1.2479613
1.2479613
1.2479613
1.2479613
1.2479613
1.2479613
1.2479613
1.2479613
1.2479613
1.2479613
1.2479613
1.2479613
1.2479613
1.2479614
1.2479614
1.2479614
1.2479614
1.2479614
1.2479614
1.2479614
1.2479614
1.2479614
1.2479614
1.2479614
1.2479614
1.2479614
1.2479614
1.2479614
1.2479614
1.2479614
1.2479614
1.2479614
1.2479614
1.2479614
1.2479614
1.2479614
1.2479614
1.2479614
1.2479614
1.2479614
1.2479614
1.2479614
1.2479614
1.2479614
1.2479614
1.2479614
1.2479614
1.2479614
1.2479614
1.2479614
1.2479614
1.2479614
1.2479615
1.2479615
1.2479615
1.2479615
1.2479615
1.2479615
1.2479615
1.2479615
1.2479615
1.2479615
1.2479615
1.2479615
1.2479615
1.2479615
1.2479615
1.2479615
1.2479615
1.2479615
1.2479615
1.2479615
1.2479615
1.2479615
1.2479615
1.2479615
1.2479615
1.2479615
1.2479615
1.2479615
1.2479615
1.2479615
1.2479615
1.2479615
1.2479615
1.2479615
1.2479615
1.2479615
1.2479615
1.2479616
1.2479616
1.2479616
1.2479616
1.2479616
1.2479616
1.2479616
1.2479616
1.2479616
1.2479616
1.2479616
1.2479616
1.2479616
1.2479616
1.2479616
1.2479616
1.2479616
1.2479616
1.2479616
1.2479616
1.2479616
1.2479616
1.2479616
1.2479616
1.2479616
1.2479616
1.2479616
1.2479616
1.2479616
1.2479616
1.2479616
1.2479616
1.2479616
1.2479616
1.2479616
1.2479616
1.2479617
1.2479617
1.2479617
1.2479617
1.2479617
1.2479617
1.2479617
1.2479617
1.2479617
1.2479617
1.2479617
1.2479617
1.2479617
1.2479617
1.2479617
1.2479617
1.2479617
1.2479617
1.2479617
1.2479617
1.2479617
1.2479617
1.2479617
1.2479617
1.2479617
1.2479617
1.2479617
1.2479617
1.2479617
1.2479617
1.2479617
1.2479617
1.2479617
1.2479618
1.2479618
1.2479618
1.2479618
1.2479618
1.2479618
1.2479618
1.2479618
1.2479618
1.2479618
1.2479618
1.2479618
1.2479618
1.2479618
1.2479618
1.2479618
1.2479618
1.2479618
1.2479618
1.2479618
1.2479618
1.2479618
1.2479618
1.2479618
1.2479619
1.2479619
1.2479619
1.2479619
1.2479619
1.2479619
1.2479619
1.2479619
1.2479619
1.2479619
1.2479619
1.2479619
1.2479619
1.2479619
1.2479619
1.2479619
1.2479619
1.2479619
1.2479619
1.2479619
1.2479619
1.2479619
1.2479619
1.2479619
1.2479619
1.2479619
1.2479619
1.2479619
1.247962
1.247962
1.247962
1.247962
1.247962
1.247962
1.247962
1.247962
1.247962
1.247962
1.247962
1.247962
1.247962
1.247962
1.247962
1.247962
1.247962
1.247962
1.247962
1.247962
1.247962
1.2479621
1.2479621
1.2479621
1.2479621
1.2479621
1.2479621
1.2479621
1.2479621
1.2479621
1.2479621
1.2479621
1.2479621
1.2479621
1.2479621
1.2479621
1.2479621
1.2479621
1.2479621
1.2479621
1.2479622
1.2479622
1.2479622
1.2479622
1.2479622
1.2479622
1.2479622
1.2479622
1.2479622
1.2479622
1.2479622
1.2479622
1.2479622
1.2479622
1.2479622
1.2479622
1.2479622
1.2479623
1.2479623
1.2479623
1.2479623
1.2479623
1.2479623
1.2479623
1.2479623
1.2479623
1.2479623
1.2479623
1.2479623
1.2479623
1.2479623
1.2479623
1.2479623
1.2479624
1.2479624
1.2479624
1.2479624
1.2479624
1.2479624
1.2479624
1.2479624
1.2479624
1.2479624
1.2479624
1.2479624
1.2479624
1.2479624
1.2479624
1.2479625
1.2479625
1.2479625
1.2479625
1.2479625
1.2479625
1.2479625
1.2479625
1.2479625
1.2479625
1.2479625
1.2479626
1.2479626
1.2479626
1.2479626
1.2479626
1.2479626
1.2479626
1.2479626
1.2479626
1.2479626
1.2479626
1.2479626
1.2479627
1.2479627
1.2479627
1.2479627
1.2479627
1.2479627
1.2479627
1.2479627
1.2479627
1.2479628
1.2479628
1.2479628
1.2479628
1.2479628
1.2479628
1.2479628
1.2479628
1.2479628
1.2479628
1.2479629
1.2479629
1.2479629
1.2479629
1.2479629
1.2479629
1.2479629
1.2479629
1.2479629
1.247963
1.247963
1.247963
1.247963
1.247963
1.247963
1.247963
1.2479631
1.2479631
1.2479631
1.2479631
1.2479631
1.2479631
1.2479631
1.2479631
1.2479632
1.2479632
1.2479632
1.2479632
1.2479632
1.2479632
1.2479633
1.2479633
1.2479633
1.2479633
1.2479633
1.2479633
1.2479634
1.2479634
1.2479634
1.2479634
1.2479634
1.2479634
1.2479634
1.2479635
1.2479635
1.2479635
1.2479635
1.2479635
1.2479636
1.2479636
1.2479636
1.2479636
1.2479636
1.2479636
1.2479637
1.2479637
1.2479637
1.2479637
1.2479637
1.2479638
1.2479638
1.2479638
1.2479638
1.2479638
1.2479639
1.2479639
1.2479639
1.2479639
1.2479639
1.247964
1.247964
1.247964
1.247964
1.2479641
1.2479641
1.2479641
1.2479641
1.2479642
1.2479642
1.2479642
1.2479642
1.2479642
1.2479643
1.2479643
1.2479643
1.2479643
1.2479644
1.2479644
1.2479644
1.2479644
1.2479645
1.2479645
1.2479645
1.2479646
1.2479646
1.2479646
1.2479646
1.2479647
1.2479647
1.2479647
1.2479647
1.2479648
1.2479648
1.2479648
1.2479649
1.2479649
1.2479649
1.247965
1.247965
1.247965
1.247965
1.2479651
1.2479651
1.2479651
1.2479652
1.2479652
1.2479652
1.2479653
1.2479653
1.2479653
1.2479654
1.2479654
1.2479654
1.2479655
1.2479655
1.2479655
1.2479656
1.2479656
1.2479657
1.2479657
1.2479657
1.2479658
1.2479658
1.2479658
1.2479659
1.2479659
1.2479659
1.247966
1.247966
1.2479661
1.2479661
1.2479661
1.2479662
1.2479662
1.2479663
1.2479663
1.2479663
1.2479664
1.2479664
1.2479665
1.2479665
1.2479666
1.2479666
1.2479666
1.2479667
1.2479667
1.2479668
1.2479668
1.2479669
1.2479669
1.247967
1.247967
1.247967
1.2479671
1.2479671
1.2479672
1.2479672
1.2479673
1.2479673
1.2479674
1.2479674
1.2479675
1.2479675
1.2479676
1.2479676
1.2479677
1.2479677
1.2479678
1.2479679
1.2479679
1.247968
1.247968
1.2479681
1.2479681
1.2479682
1.2479682
1.2479683
1.2479683
1.2479684
1.2479685
1.2479685
1.2479686
1.2479686
1.2479687
1.2479687
1.2479688
1.2479689
1.2479689
1.247969
1.247969
1.2479691
1.2479692
1.2479692
1.2479693
1.2479694
1.2479694
1.2479695
1.2479696
1.2479696
1.2479697
1.2479698
1.2479698
1.2479699
1.24797
1.2479701
1.2479701
1.2479702
1.2479703
1.2479703
1.2479704
1.2479705
1.2479706
1.2479706
1.2479707
1.2479708
1.2479709
1.247971
1.247971
1.2479711
1.2479712
1.2479713
1.2479714
1.2479715
1.2479715
1.2479716
1.2479717
1.2479718
1.2479719
1.247972
1.2479721
1.2479722
1.2479723
1.2479724
1.2479725
1.2479726
1.2479727
1.2479728
1.2479729
1.247973
1.2479731
1.2479732
1.2479733
1.2479734
1.2479735
1.2479736
1.2479737
1.2479739
1.247974
1.2479741
1.2479742
1.2479743
1.2479745
1.2479746
1.2479747
1.2479749
1.247975
1.2479752
1.2479753
1.2479754
1.2479756
1.2479757
1.2479759
1.2479761
1.2479762
1.2479764
1.2479765
1.2479767
1.2479769
1.2479771
1.2479772
1.2479774
1.2479776
1.2479778
1.247978
1.2479782
1.2479784
1.2479786
1.2479788
1.2479791
1.2479793
1.2479795
1.2479798
1.24798
1.2479802
1.2479805
1.2479808
1.247981
1.2479813
1.2479816
1.2479819
1.2479822
1.2479825
1.2479828
1.2479831
1.2479835
1.2479838
1.2479841
1.2479845
1.2479849
1.2479853
1.2479856
1.247986
1.2479865
1.2479869
1.2479873
1.2479878
1.2479882
1.2479887
1.2479892
1.2479897
1.2479902
1.2479907
1.2479913
1.2479918
1.2479924
1.247993
1.2479936
1.2479943
1.2479949
1.2479956
1.2479963
1.247997
1.2479977
1.2479985
1.2479992
1.248
1.2480008
1.2480017
1.2480026
1.2480035
1.2480044
1.2480053
1.2480063
1.2480073
1.2480083
1.2480094
1.2480105
1.2480116
1.2480128
1.248014
1.2480152
1.2480165
1.2480178
1.2480191
1.2480205
1.2480219
1.2480234
1.2480249
1.2480265
1.2480281
1.2480297
1.2480314
1.2480331
1.2480349
1.2480367
1.2480386
1.2480406
1.2480426
1.2480446
1.2480467
1.2480489
1.2480512
1.2480535
1.2480558
1.2480582
1.2480607
1.2480633
1.2480659
1.2480686
1.2480714
1.2480743
1.2480772
1.2480802
1.2480833
1.2480865
1.2480898
1.2480931
1.2480966
1.2481001
1.2481038
1.2481075
1.2481113
1.2481152
1.2481193
1.2481234
1.2481277
1.248132
1.2481365
1.2481411
1.2481458
1.2481506
1.2481555
1.2481606
1.2481658
1.2481711
1.2481765
1.2481821
1.2481878
1.2481937
1.2481997
1.2482059
1.2482122
1.2482187
1.2482253
1.2482321
1.248239
1.2482461
1.2482534
1.2482608
1.2482684
1.2482762
1.2482842
1.2482924
1.2483007
1.2483093
1.248318
1.2483269
1.2483361
1.2483454
1.2483549
1.2483647
1.2483747
1.2483849
1.2483953
1.2484059
1.2484168
1.2484279
1.2484393
1.2484509
1.2484627
1.2484748
1.2484872
1.2484998
1.2485126
1.2485258
1.2485392
1.2485528
1.2485668
1.248581
1.2485955
1.2486104
1.2486255
1.2486409
1.2486566
1.2486726
1.2486889
1.2487056
1.2487225
1.2487398
1.2487575
1.2487754
1.2487937
1.2488123
1.2488313
1.2488506
1.2488703
1.2488904
1.2489108
1.2489316
1.2489527
1.2489742
1.2489961
1.2490184
1.2490411
1.2490642
1.2490877
1.2491116
1.2491358
1.2491605
1.2491857
1.2492112
1.2492372
1.2492636
1.2492904
1.2493176
1.2493453
1.2493735
1.2494021
1.2494312
1.2494607
1.2494907
1.2495211
1.249552
1.2495834
1.2496153
1.2496477
1.2496805
1.2497139
1.2497477
1.2497821
1.2498169
1.2498523
1.2498881
1.2499245
1.2499614
1.2499988
1.2500368
1.2500753
1.2501143
1.2501539
1.250194
1.2502346
1.2502758
1.2503176
1.2503599
1.2504027
1.2504462
1.2504902
1.2505347
1.2505799
1.2506256
1.2506719
1.2507187
1.2507662
1.2508142
1.2508629
1.2509121
1.2509619
1.2510123
1.2510634
1.251115
1.2511672
1.2512201
1.2512735
1.2513276
1.2513823
1.2514376
1.2514935
1.2515501
1.2516072
1.2516651
1.2517235
1.2517825
1.2518422
1.2519026
1.2519635
1.2520251
1.2520874
1.2521503
1.2522138
1.252278
1.2523428
1.2524082
1.2524744
1.2525411
1.2526085
1.2526766
1.2527453
1.2528147
1.2528847
1.2529553
1.2530267
1.2530986
1.2531713
1.2532446
1.2533185
1.2533931
1.2534684
1.2535443
1.2536209
1.2536982
1.2537761
1.2538546
1.2539339
1.2540137
1.2540943
1.2541755
1.2542573
1.2543399
1.254423
1.2545069
1.2545913
1.2546765
1.2547623
1.2548487
1.2549358
1.2550236
1.255112
1.2552011
1.2552908
1.2553811
1.2554722
1.2555638
1.2556561
1.2557491
1.2558427
1.2559369
1.2560318
1.2561273
1.2562234
1.2563202
1.2564177
1.2565157
1.2566144
1.2567138
1.2568137
1.2569143
1.2570155
1.2571173
1.2572198
1.2573229
1.2574265
1.2575309
1.2576358
1.2577413
1.2578474
1.2579542
1.2580616
1.2581695
1.2582781
1.2583872
1.258497
1.2586073
1.2587183
1.2588298
1.2589419
1.2590546
1.2591679
1.2592818
1.2593962
1.2595112
1.2596268
1.259743
1.2598597
1.259977
1.2600948
1.2602132
1.2603322
1.2604517
1.2605718
1.2606924
1.2608135
1.2609352
1.2610575
1.2611802
1.2613035
1.2614274
1.2615517
1.2616766
1.261802
1.2619279
1.2620544
1.2621813
1.2623088
1.2624368
1.2625652
1.2626942
1.2628237
1.2629536
1.2630841
1.263215
1.2633465
1.2634784
1.2636108
1.2637436
1.263877
1.2640108
1.264145
1.2642797
1.2644149
1.2645506
1.2646867
1.2648232
1.2649602
1.2650976
1.2652355
1.2653738
1.2655126
1.2656518
1.2657914
1.2659314
1.2660719
1.2662127
1.266354
1.2664957
1.2666378
1.2667803
1.2669232
1.2670665
1.2672102
1.2673543
1.2674988
1.2676437
1.2677889
1.2679345
1.2680805
1.2682269
1.2683737
1.2685208
1.2686682
1.2688161
1.2689643
1.2691128
1.2692617
1.269411
1.2695605
1.2697105
1.2698607
1.2700113
1.2701622
1.2703135
1.2704651
1.270617
1.2707692
1.2709217
1.2710746
1.2712277
1.2713812
1.2715349
1.271689
1.2718433
1.271998
1.2721529
1.2723082
1.2724637
1.2726195
1.2727755
1.2729319
1.2730885
1.2732454
1.2734025
1.2735599
1.2737176
1.2738755
1.2740337
1.2741921
1.2743508
1.2745097
1.2746689
1.2748283
1.2749879
1.2751478
1.2753079
1.2754682
1.2756288
1.2757895
1.2759505
1.2761117
1.2762731
1.2764347
1.2765966
1.2767586
1.2769208
1.2770833
1.2772459
1.2774087
1.2775717
1.2777349
1.2778983
1.2780618
1.2782255
1.2783894
1.2785535
1.2787177
1.2788821
1.2790467
1.2792114
1.2793763
1.2795413
1.2797065
1.2798719
1.2800374
1.280203
1.2803688
1.2805347
1.2807007
1.2808669
1.2810332
1.2811996
1.2813662
1.2815328
1.2816996
1.2818665
1.2820336
1.2822007
1.2823679
1.2825353
1.2827027
1.2828703
1.2830379
1.2832057
1.2833735
1.2835414
1.2837094
1.2838775
1.2840457
1.284214
1.2843823
1.2845507
1.2847192
1.2848877
1.2850563
1.285225
1.2853937
1.2855625
1.2857313
1.2859002
1.2860691
1.2862381
1.2864072
1.2865762
1.2867454
1.2869145
1.2870837
1.2872529
1.2874222
1.2875914
1.2877607
1.28793
1.2880994
1.2882687
1.2884381
1.2886075
1.2887768
1.2889462
1.2891156
1.289285
1.2894544
1.2896238
1.2897932
1.2899626
1.2901319
1.2903013
1.2904706
1.2906399
1.2908092
1.2909785
1.2911477
1.2913169
1.2914861
1.2916553
1.2918244
1.2919934
1.2921624
1.2923314
1.2925004
1.2926692
1.2928381
1.2930068
1.2931756
1.2933442
1.2935128
1.2936813
1.2938498
1.2940182
1.2941865
1.2943548
1.2945229
1.294691
1.294859
1.2950269
1.2951948
1.2953625
1.2955302
1.2956977
1.2958652
1.2960325
1.2961998
1.2963669
1.296534
1.2967009
1.2968677
1.2970344
1.297201
1.2973674
1.2975338
1.2977
1.2978661
1.298032
1.2981978
1.2983635
1.2985291
1.2986945
1.2988597
1.2990249
1.2991898
1.2993546
1.2995193
1.2996838
1.2998482
1.3000123
1.3001764
1.3003402
1.3005039
1.3006674
1.3008307
1.3009939
1.3011569
1.3013197
1.3014823
1.3016447
1.301807
1.301969
1.3021308
1.3022925
1.3024539
1.3026152
1.3027762
1.3029371
1.3030977
1.3032581
1.3034183
1.3035783
1.303738
1.3038975
1.3040568
1.3042159
1.3043748
1.3045334
1.3046917
1.3048499
1.3050078
1.3051654
1.3053228
1.3054799
1.3056368
1.3057934
1.3059498
1.3061059
1.3062618
1.3064174
1.3065727
1.3067277
1.3068825
1.307037
1.3071912
1.3073451
1.3074988
1.3076521
1.3078052
1.307958
1.3081105
1.3082626
1.3084145
1.3085661
1.3087174
1.3088683
1.309019
1.3091693
1.3093193
1.309469
1.3096184
1.3097674
1.3099162
1.3100646
1.3102126
1.3103604
1.3105077
1.3106548
1.3108015
1.3109478
1.3110938
1.3112395
1.3113848
1.3115297
1.3116743
1.3118185
1.3119624
1.3121059
1.312249
1.3123917
1.3125341
1.3126761
1.3128177
1.3129589
1.3130998
1.3132402
1.3133803
1.3135199
1.3136592
1.3137981
1.3139366
1.3140746
1.3142123
1.3143495
1.3144864
1.3146228
1.3147588
1.3148944
1.3150295
1.3151643
1.3152986
1.3154325
1.3155659
1.3156989
1.3158315
1.3159637
1.3160953
1.3162266
1.3163574
1.3164878
1.3166177
1.3167471
1.3168761
1.3170046
1.3171327
1.3172603
1.3173875
1.3175141
1.3176403
1.3177661
1.3178913
1.3180161
1.3181404
1.3182642
1.3183876
1.3185104
1.3186328
1.3187546
1.318876
1.3189969
1.3191172
1.3192371
1.3193565
1.3194754
1.3195937
1.3197116
1.3198289
1.3199458
1.3200621
1.3201779
1.3202932
1.320408
1.3205222
1.3206359
1.3207491
1.3208618
1.3209739
1.3210856
1.3211966
1.3213072
1.3214172
1.3215267
1.3216356
1.321744
1.3218518
1.3219591
1.3220659
1.3221721
1.3222778
1.3223829
1.3224874
1.3225914
1.3226949
1.3227978
1.3229001
1.3230019
1.3231031
1.3232037
1.3233038
1.3234034
1.3235023
1.3236007
1.3236986
1.3237958
1.3238925
1.3239886
1.3240842
1.3241792
1.3242736
1.3243674
1.3244607
1.3245533
1.3246454
1.324737
1.3248279
1.3249183
1.3250081
1.3250973
1.3251859
1.325274
1.3253615
1.3254483
1.3255347
1.3256204
1.3257055
1.3257901
1.3258741
1.3259575
1.3260403
1.3261225
1.3262042
1.3262852
1.3263657
1.3264456
1.3265249
1.3266036
1.3266818
1.3267593
1.3268363
1.3269127
1.3269885
1.3270637
1.3271384
1.3272124
1.3272859
1.3273588
1.3274312
1.3275029
1.3275741
1.3276447
1.3277147
1.3277841
1.327853
1.3279213
1.327989
1.3280561
1.3281227
1.3281887
1.3282542
1.328319
1.3283833
1.3284471
1.3285102
1.3285728
1.3286349
1.3286964
1.3287573
1.3288176
1.3288774
1.3289367
1.3289954
1.3290535
1.3291111
1.3291682
1.3292247
1.3292807
1.3293361
1.3293909
1.3294453
1.3294991
1.3295523
1.329605
1.3296572
1.3297089
1.32976
1.3298106
1.3298607
1.3299103
1.3299593
1.3300079
1.3300559
1.3301034
1.3301504
1.3301968
1.3302428
1.3302883
1.3303333
1.3303778
1.3304217
1.3304652
1.3305082
1.3305508
1.3305928
1.3306343
1.3306754
1.330716
1.3307561
1.3307958
1.3308349
1.3308736
1.3309119
1.3309497
1.330987
1.3310239
1.3310603
1.3310963
1.3311318
1.3311669
1.3312016
1.3312358
1.3312696
1.3313029
1.3313358
1.3313684
1.3314004
1.3314321
1.3314634
1.3314942
1.3315246
1.3315547
1.3315843
1.3316135
1.3316423
1.3316708
1.3316988
1.3317265
1.3317538
1.3317807
1.3318072
1.3318334
1.3318592
1.3318846
1.3319097
1.3319344
1.3319587
1.3319827
1.3320063
1.3320296
1.3320526
1.3320752
1.3320975
1.3321194
1.332141
1.3321623
1.3321833
1.332204
1.3322243
1.3322443
1.332264
1.3322834
1.3323025
1.3323213
1.3323398
1.3323581
1.332376
1.3323936
1.332411
1.332428
1.3324448
1.3324614
1.3324776
1.3324936
1.3325093
1.3325248
1.33254
1.3325549
1.3325696
1.332584
1.3325982
1.3326122
1.3326259
1.3326394
1.3326526
1.3326656
1.3326784
1.332691
1.3327033
1.3327154
1.3327273
1.332739
1.3327505
1.3327618
1.3327728
1.3327837
1.3327944
1.3328049
1.3328151
1.3328252
1.3328351
1.3328448
1.3328544
1.3328637
1.3328729
1.3328819
1.3328907
1.3328994
1.3329079
1.3329162
1.3329244
1.3329324
1.3329403
1.332948
1.3329555
1.3329629
1.3329702
1.3329773
1.3329842
1.332991
1.3329977
1.3330043
1.3330107
1.333017
1.3330231
1.3330291
1.333035
1.3330408
1.3330465
1.333052
1.3330574
1.3330627
1.3330679
1.333073
1.333078
1.3330828
1.3330876
1.3330923
1.3330968
1.3331013
1.3331056
1.3331099
1.3331141
1.3331181
1.3331221
1.333126
1.3331298
1.3331336
1.3331372
1.3331408
1.3331442
1.3331476
1.3331509
1.3331542
1.3331573
1.3331604
1.3331635
1.3331664
1.3331693
1.3331721
1.3331748
1.3331775
1.3331801
1.3331827
1.3331852
1.3331876
1.33319
1.3331923
1.3331945
1.3331967
1.3331989
1.333201
1.333203
1.333205
1.3332069
1.3332088
1.3332107
1.3332125
1.3332142
1.3332159
1.3332176
1.3332192
1.3332208
1.3332223
1.3332238
1.3332253
1.3332267
1.333228
1.3332294
1.3332307
1.333232
1.3332332
1.3332344
1.3332356
1.3332367
1.3332378
1.3332389
1.3332399
1.3332409
1.3332419
1.3332429
1.3332438
1.3332447
1.3332456
1.3332465
1.3332473
1.3332481
1.3332489
1.3332496
1.3332504
1.3332511
1.3332518
1.3332524
1.3332531
1.3332537
1.3332543
1.3332549
1.3332555
1.333256
1.3332566
1.3332571
1.3332576
1.3332581
1.3332585
1.333259
1.3332594
1.3332599
1.3332603
1.3332607
1.333261
1.3332614
1.3332618
1.3332621
1.3332624
1.3332628
1.3332631
1.3332634
1.3332637
1.3332639
1.3332642
1.3332644
1.3332647
1.3332649
1.3332651
1.3332653
1.3332655
1.3332657
1.3332659
1.3332661
1.3332663
1.3332664
1.3332666
1.3332667
1.3332669
1.333267
1.3332671
1.3332672
1.3332674
1.3332675
1.3332676
1.3332677
1.3332677
1.3332678
1.3332679
1.333268
1.333268
1.3332681
1.3332681
1.3332682
1.3332682
1.3332683
1.3332683
1.3332683
1.3332684
1.3332684
1.3332684
1.3332684
1.3332684
1.3332684
1.3332684
1.3332684
1.3332684
1.3332684
1.3332684
1.3332684
1.3332683
1.3332683
1.3332683
1.3332683
1.3332682
1.3332682
1.3332682
1.3332681
1.3332681
1.333268
1.333268
1.3332679
1.3332679
1.3332678
1.3332678
1.3332677
1.3332677
1.3332676
1.3332675
1.3332675
1.3332674
1.3332673
1.3332672
1.3332672
1.3332671
1.333267
1.3332669
1.3332668
1.3332667
1.3332667
1.3332666
1.3332665
1.3332664
1.3332663
1.3332662
1.3332661
1.333266
1.3332659
1.3332658
1.3332657
1.3332655
1.3332654
1.3332653
1.3332652
1.3332651
1.333265
1.3332649
1.3332648
1.3332647
1.3332645
1.3332644
1.3332643
1.3332642
1.333264
1.3332639
1.3332638
1.3332636
1.3332635
1.3332634
1.3332632
1.3332631
1.3332629
1.3332628
1.3332627
1.3332625
1.3332624
1.3332623
1.3332621
1.333262
1.3332618
1.3332617
1.3332615
1.3332614
1.3332613
1.3332611
1.3332609
1.3332608
1.3332606
1.3332605
1.3332603
1.3332601
1.33326
1.3332598
1.3332596
1.3332595
1.3332593
1.3332591
1.3332589
1.3332588
1.3332586
1.3332584
1.3332582
1.333258
1.3332578
1.3332576
1.3332575
1.3332573
1.3332571
1.3332569
1.3332567
1.3332565
1.3332563
1.3332561
1.3332559
1.3332557
1.3332555
1.3332553
1.3332551
1.3332549
1.3332546
1.3332544
1.3332542
1.333254
1.3332538
1.3332536
1.3332533
1.3332531
1.3332529
1.3332527
1.3332524
1.3332522
1.333252
1.3332517
1.3332515
1.3332513
1.333251
1.3332508
1.3332505
1.3332503
1.33325
1.3332498
1.3332495
1.3332493
1.333249
1.3332487
1.3332485
1.3332482
1.3332479
1.3332477
1.3332474
1.3332471
1.3332468
1.3332465
1.3332463
1.333246
1.3332457
1.3332454
1.3332451
1.3332448
1.3332445
1.3332442
1.3332439
1.3332436
1.3332433
1.333243
1.3332427
1.3332424
1.3332421
1.3332417
1.3332414
1.3332411
1.3332408
1.3332405
1.3332402
1.3332398
1.3332395
1.3332392
1.3332389
1.3332385
1.3332382
1.3332379
1.3332375
1.3332372
1.3332369
1.3332365
1.3332362
1.3332359
1.3332355
1.3332352
1.3332349
1.3332346
1.3332343
1.333234
1.3332337
1.3332334
1.3332331
1.3332329
1.3332326
1.3332324
1.3332321
1.3332319
1.3332318
1.3332316
1.3332314
1.3332313
1.3332313
1.3332312
1.3332312
1.3332312
1.3332313
1.3332315
1.3332316
1.3332319
1.3332322
1.3332325
1.3332329
1.3332334
1.333234
1.3332346
1.3332352
1.333236
1.3332367
1.3332376
1.3332384
1.3332394
1.3332404
1.3332414
1.3332426
1.3332437
1.3332449
1.3332461
1.3332474
1.3332487
1.33325
1.3332514
1.3332528
1.3332541
1.3332554
1.3332566
1.3332578
1.333259
1.3332602
1.3332614
1.3332625
1.3332637
1.333265
1.3332662
1.3332675
1.3332689
1.3332704
1.3332719
1.3332736
1.3332754
1.3332773
1.3332794
1.3332816
1.3332841
1.3332868
1.3332897
1.3332928
1.3332963
1.3333
1.333304
1.3333084
1.333313
1.3333179
1.3333229
1.333328
1.3333328
1.3333365
1.3333369
1.333329
1.3333013
1.3332243
1.3330248
1.3325263
1.3313964
1.3297801
1.3277551
1.3253318
1.3225402
1.3194253
1.3160441
1.3124627
1.3087516
1.3049826
1.3012245
1.2975409
1.2939875
1.290611
1.2874477
1.2845239
1.281856
1.2794516
1.2773102
1.2754248
1.2737833
1.2723697
1.2711653
1.27015
1.2693033
1.2686047
1.2680346
1.2675748
1.2672085
1.2669205
1.2666978
1.2665287
1.2664032
1.2663131
1.2662514
1.2662123
1.2661911
1.2661839
1.2661879
1.2662007
1.2662203
1.2662453
1.2662748
1.2663077
1.2663435
1.2663816
1.266422
1.2664645
1.2665092
1.2665558
1.2666042
1.2666544
1.2667064
1.2667601
1.2668157
1.2668732
1.2669327
1.2669943
1.267058
1.267124
1.2671923
1.2672631
1.2673363
1.2674121
1.2674906
1.2675719
1.2676559
1.2677429
1.267833
1.2679261
1.2680223
1.2681219
1.2682248
1.2683312
1.2684411
1.2685547
1.268672
1.2687932
1.2689184
1.2690476
1.2691811
1.2693188
1.2694611
1.2696078
1.2697593
1.2699156
1.2700769
1.2702433
1.270415
1.270592
1.2707746
1.2709628
1.2711569
1.2713569
1.2715631
1.2717756
1.2719945
1.2722199
1.2724521
1.2726912
1.2729374
1.2731907
1.2734513
1.2737194
1.2739952
1.2742787
1.2745702
1.2748697
1.2751774
1.2754935
1.275818
1.2761511
1.2764929
1.2768436
1.2772032
1.2775718
1.2779496
1.2783367
1.2787331
1.2791388
1.2795541
1.2799789
1.2804133
1.2808573
1.281311
1.2817744
1.2822475
1.2827303
1.2832227
1.2837248
1.2842365
1.2847578
1.2852886
1.2858287
1.2863782
1.2869369
1.2875047
1.2880814
1.288667
1.2892611
1.2898636
1.2904744
1.2910933
1.2917199
1.292354
1.2929954
1.2936438
1.294299
1.2949606
1.2956282
1.2963017
1.2969806
1.2976646
1.2983533
1.2990463
1.2997434
1.300444
1.3011479
1.3018545
1.3025636
1.3032746
1.3039871
1.3047009
1.3054153
1.3061301
1.3068447
1.3075588
1.3082719
1.3089837
1.3096937
1.3104015
1.3111067
1.311809
1.3125079
1.3132031
1.3138941