/*--------------------------------*- C++ -*----------------------------------*\
| =========                 |                                                 |
| \\      /  F ield         | OpenFOAM: The Open Source CFD Toolbox           |
|  \\    /   O peration     | Version:  4.x                                   |
|   \\  /    A nd           | Web:      www.OpenFOAM.org                      |
|    \\/     M anipulation  |                                                 |
\*---------------------------------------------------------------------------*/
FoamFile
{
    version     2.0;
    format      ascii;
    class       volVectorField;
    location    "0.7";
    object      U;
}
// * * * * * * * * * * * * * * * * * * * * * * * * * * * * * * * * * * * * * //

dimensions      [0 1 -1 0 0 0 0];

internalField   nonuniform List<vector> 
25344
(
(0.0269318006 0.003063689937 0.003063689679)
(0.03063254986 0.004143735707 0.00366295091)
(0.03068171032 0.002103389266 0.003710910809)
(0.03036242187 0.001618884028 0.003754792233)
(0.03020885922 0.0009319477013 0.003759706251)
(0.03012832911 0.0006857398516 0.003765961279)
(0.03063254991 0.003662951148 0.004143734918)
(0.03536456251 0.005041617063 0.005041616316)
(0.03534141228 0.002583558228 0.005115879396)
(0.03499322069 0.001857517869 0.005111746272)
(0.03486703748 0.001023438883 0.00510202352)
(0.03482790017 0.0007261865532 0.005100043075)
(0.03068171035 0.003710910996 0.0021033881)
(0.0353414123 0.00511588007 0.002583557023)
(0.03532377608 0.00260480978 0.002604808398)
(0.03502755721 0.001897691411 0.002589929372)
(0.03492760131 0.001064723494 0.002568218723)
(0.03489589877 0.0007701201403 0.002562048427)
(0.03036242206 0.003754792279 0.001618882752)
(0.03499322096 0.005111746775 0.001857516735)
(0.03502755751 0.002589930783 0.00189768999)
(0.03476943486 0.001887563946 0.001887562481)
(0.03468418133 0.001067657836 0.001867180616)
(0.03465634619 0.0007784799375 0.001850214375)
(0.03020885958 0.003759706122 0.0009319470563)
(0.03486703806 0.00510202394 0.001023438472)
(0.03492760193 0.00256822028 0.001064722825)
(0.03468418163 0.001867182182 0.001067657226)
(0.0346080486 0.001054821882 0.001054821208)
(0.03458389182 0.0007732994236 0.00104086442)
(0.03012832964 0.003765961155 0.0006857404886)
(0.03482790104 0.005100043621 0.0007261877036)
(0.03489589968 0.002562050261 0.0007701211393)
(0.03465634686 0.001850216113 0.0007784810641)
(0.03458389218 0.001040865169 0.0007733004907)
(0.03456249959 0.0007624917709 0.0007624928725)
(0.02264114834 0.002099921974 0.00209992181)
(0.0282578374 0.004016214846 0.003021851178)
(0.02880045666 0.002823713571 0.003082186107)
(0.0281542415 0.002432331064 0.003111354617)
(0.02773600645 0.001672551478 0.003104796778)
(0.02743501844 0.001335112655 0.003122204869)
(0.02825783757 0.003021851335 0.004016213769)
(0.03707612638 0.005631689545 0.005631687756)
(0.03849137722 0.004193537737 0.005876643978)
(0.03775905183 0.003610654799 0.005922345948)
(0.03711771006 0.002534326647 0.005928708688)
(0.03666454572 0.002003178185 0.005952616033)
(0.02880045709 0.003082186063 0.002823711883)
(0.03849137741 0.005876645627 0.004193534584)
(0.03985257987 0.004227387641 0.004227385214)
(0.03897757712 0.003550594688 0.004262622263)
(0.03830334959 0.00240331555 0.004286162728)
(0.03787488596 0.001884846908 0.004317398323)
(0.02815424244 0.003111354496 0.002432329164)
(0.03775905273 0.005922347409 0.003610651112)
(0.03897757772 0.00426262441 0.003550592313)
(0.03801749333 0.003534842868 0.003534840933)
(0.03731895922 0.002371179239 0.003546518916)
(0.03689387088 0.00185703626 0.003560584398)
(0.02773600799 0.00310479656 0.001672550191)
(0.03711771167 0.005928709998 0.00253432329)
(0.03830335104 0.004286164803 0.002403314117)
(0.03731896018 0.003546520728 0.00237117851)
(0.0366059955 0.002376621395 0.002376621005)
(0.03617509665 0.00185983006 0.002383236386)
(0.02743502072 0.003122204751 0.001335112651)
(0.03666454814 0.005952617436 0.00200317596)
(0.03787488816 0.00431740048 0.001884847064)
(0.03689387257 0.00356058636 0.00185703722)
(0.03617509741 0.002383236792 0.001859831353)
(0.03574218006 0.001860820975 0.001860822474)
(0.01377943362 0.001335850988 0.001335850871)
(0.02132736308 0.003442661543 0.002137771604)
(0.02299070657 0.00286254351 0.002237695207)
(0.02246072997 0.002661966657 0.002242852568)
(0.02188749021 0.001996181032 0.002217841749)
(0.02139799867 0.001629435444 0.002225346958)
(0.02132736315 0.002137771707 0.003442660536)
(0.03479680528 0.005422489849 0.005422487938)
(0.03765910537 0.00463330733 0.005759757149)
(0.03723967053 0.004194972773 0.005801160853)
(0.03656124308 0.003103978996 0.005812138055)
(0.03596981292 0.002476618118 0.005828105945)
(0.0229907071 0.002237695228 0.002862541907)
(0.03765910567 0.005759758992 0.004633303843)
(0.04117249078 0.005134440841 0.005134438254)
(0.04076010679 0.004664465873 0.00517586801)
(0.03997233554 0.003425576549 0.005139482922)
(0.03933526277 0.002711649924 0.00513330649)
(0.02246073119 0.002242852557 0.002661964854)
(0.03723967154 0.005801162404 0.004194968697)
(0.04076010762 0.005175869998 0.004664463435)
(0.04035504372 0.004680789824 0.004680787956)
(0.03952296902 0.003443616537 0.004652898773)
(0.03886339145 0.002726630652 0.004642202391)
(0.02188749229 0.002217841717 0.001996179832)
(0.03656124494 0.005812139436 0.003103974969)
(0.03997233729 0.0051394849 0.003425574439)
(0.03952297006 0.004652900286 0.003443615459)
(0.03866132642 0.003424399345 0.003424399093)
(0.03797577863 0.002718513083 0.003412491015)
(0.02139800161 0.002225347104 0.001629435227)
(0.03596981569 0.005828107448 0.002476614499)
(0.03933526554 0.005133308652 0.002711648671)
(0.03886339351 0.004642203881 0.002726630844)
(0.03797577974 0.003412491168 0.002718514406)
(0.03726942423 0.002711374814 0.002711376253)
(0.009898769007 0.0006708776933 0.0006708776614)
(0.0166629731 0.002254270386 0.001213363561)
(0.01886963654 0.00241706858 0.001317185332)
(0.01876323753 0.00242508042 0.001317833978)
(0.01832070588 0.002004426763 0.001287786736)
(0.01781014496 0.00167415936 0.001269240828)
(0.01666297294 0.001213363608 0.002254269788)
(0.03112283501 0.004264310076 0.004264308543)
(0.0359487453 0.004571811904 0.004832734206)
(0.03616816217 0.004386537873 0.004903721671)
(0.03552394289 0.003562377529 0.004852252386)
(0.03473779962 0.002870661905 0.004811111724)
(0.01886963644 0.001317185376 0.002417067435)
(0.03594874541 0.004832736061 0.004571808729)
(0.04127468225 0.005081893981 0.005081890187)
(0.04186258194 0.004961582134 0.005183075615)
(0.04123792903 0.004051030896 0.005228725348)
(0.04038564605 0.003258555182 0.005192485834)
(0.0187632377 0.001317834074 0.002425079192)
(0.03616816235 0.004903723585 0.004386533618)
(0.041862582 0.005183079108 0.004961577548)
(0.04227752926 0.005063753408 0.005063750437)
(0.04159055734 0.004108083408 0.005056548829)
(0.04072558223 0.003319451241 0.005023859429)
(0.01832070672 0.001287786842 0.002004425882)
(0.03552394348 0.004852254224 0.003562372889)
(0.04123793006 0.005228727822 0.004051027493)
(0.04159055805 0.005056551159 0.004108081008)
(0.04086337764 0.004111708952 0.004111707126)
(0.03998174134 0.003321181902 0.004093123292)
(0.01781014628 0.00126924103 0.001674159278)
(0.03473780064 0.004811113526 0.002870657748)
(0.04038564753 0.005192488139 0.003258552173)
(0.0407255836 0.005023861942 0.003319449522)
(0.03998174202 0.004093125114 0.003321181029)
(0.03908142288 0.00330909855 0.003309097753)
(0.006960286197 0.0003767790922 0.0003767791069)
(0.01299906168 0.001535449556 0.0006734142602)
(0.01544155478 0.001903286039 0.000731131836)
(0.0157713276 0.002016767949 0.0007202889207)
(0.01553221998 0.00180061267 0.0006820677)
(0.01510368145 0.001564385712 0.000661440212)
(0.01299906132 0.0006734138314 0.001535449097)
(0.02718591645 0.003160283009 0.003160281736)
(0.03314508527 0.004045001472 0.003773895164)
(0.03423905711 0.004149655056 0.003837804072)
(0.03389740482 0.003651436834 0.003754622881)
(0.03312892764 0.003054804631 0.00367725569)
(0.01544155383 0.0007311318485 0.001903285075)
(0.03314508417 0.003773896896 0.004044998336)
(0.04050708048 0.004816810374 0.004816805825)
(0.04178854697 0.004877727637 0.004902653323)
(0.04150381138 0.004300254402 0.004798603088)
(0.04072311606 0.003575366435 0.004789080563)
(0.01577132619 0.0007202889764 0.002016766833)
(0.03423905519 0.003837806009 0.004149651002)
(0.041788546 0.004902657864 0.004877721811)
(0.04337654715 0.005072286649 0.005072282771)
(0.04305297927 0.004456472264 0.005035311835)
(0.0421916824 0.00369331724 0.004991927549)
(0.01553221852 0.0006820673771 0.001800611928)
(0.03389740273 0.003754624791 0.003651432493)
(0.04150380974 0.004798606414 0.004300249242)
(0.04305297886 0.005035315066 0.004456468187)
(0.04269252571 0.004444791794 0.004444788417)
(0.0418024136 0.003704725041 0.004416565046)
(0.01510368024 0.0006614404345 0.001564385562)
(0.03312892557 0.003677257363 0.003054800802)
(0.04072311439 0.004789082763 0.003575362187)
(0.04219168128 0.004991930203 0.003693313243)
(0.04180241286 0.004416567671 0.003704721721)
(0.04089183998 0.003694274546 0.003694272333)
(0.005134800141 0.0002127437487 0.0002127436723)
(0.01028826803 0.001039620165 0.0003851585185)
(0.01276803652 0.001468360234 0.0004190681881)
(0.01346319946 0.001643759909 0.0004075294521)
(0.01345689967 0.001558852914 0.0003751140451)
(0.01318324463 0.001413140365 0.0003549491154)
(0.01028826774 0.0003851586206 0.001039619305)
(0.02333211136 0.002289024459 0.002289022648)
(0.02990322099 0.003406442173 0.002848126527)
(0.03187346365 0.003757169356 0.002945202343)
(0.03194748284 0.003492774284 0.002872605124)
(0.03138040004 0.003065963714 0.002783832346)
(0.0127680351 0.0004190683135 0.00146835857)
(0.02990321919 0.00284812858 0.003406438619)
(0.03856710335 0.004289894054 0.004289889231)
(0.04106560317 0.004678125845 0.004474388362)
(0.04113087183 0.004322998248 0.004395613695)
(0.04046713612 0.003744465778 0.004287826821)
(0.01346319713 0.0004075296706 0.001643758016)
(0.03187346019 0.002945204476 0.003757164785)
(0.04106560131 0.004474393245 0.004678119407)
(0.04360114394 0.004833488811 0.004833483777)
(0.04381742523 0.004541929531 0.004870056096)
(0.04315785535 0.003957266179 0.004816884878)
(0.01345689688 0.0003751143819 0.00155885134)
(0.03194747827 0.002872607297 0.003492770133)
(0.04113086864 0.004395617834 0.004322993046)
(0.04381742399 0.00487005836 0.004541926717)
(0.04394613695 0.004545835023 0.004545833422)
(0.04325863694 0.00398193418 0.004515182905)
(0.01318324173 0.0003549495549 0.001413139078)
(0.03138039504 0.002783834007 0.003065959821)
(0.04046713228 0.004287829281 0.003744461562)
(0.04315785289 0.004816886276 0.003957263773)
(0.04325863564 0.004515183231 0.003981933044)
(0.04255946601 0.003976424896 0.003976425426)
(0.003902800744 0.000127210367 0.0001272102944)
(0.008318047168 0.0007238268182 0.0002279218824)
(0.01073869314 0.001132064408 0.0002470406946)
(0.01168571162 0.001338207836 0.0002371097319)
(0.01189307024 0.00134063753 0.0002139846087)
(0.01177425376 0.001266398151 0.0001970932141)
(0.008318046847 0.0002279221319 0.000723825533)
(0.01996385626 0.001642733353 0.001642730393)
(0.02668275115 0.002773945747 0.002116538169)
(0.02934147363 0.003290696166 0.002238327749)
(0.02989571947 0.003238318366 0.002190813321)
(0.02960167516 0.002970898728 0.00211662272)
(0.01073869181 0.0002470409871 0.0011320617)
(0.0266827488 0.002116541375 0.002773940043)
(0.0359192976 0.003656544329 0.00365653823)
(0.03946804703 0.004322654588 0.003922086078)
(0.04014817388 0.004214567826 0.003885552383)
(0.03974393137 0.003818602631 0.00378201346)
(0.01168570928 0.0002371101086 0.001338204585)
(0.02934146876 0.002238330651 0.00329068909)
(0.03946804369 0.00392209121 0.00432264742)
(0.04325253829 0.004635804402 0.004635798393)
(0.04392439959 0.004504335959 0.004590284847)
(0.04358042278 0.004109235312 0.004567812389)
(0.01189306754 0.0002139850936 0.001340634299)
(0.02989571348 0.002190815744 0.003238311078)
(0.04014816919 0.003885555707 0.004214561484)
(0.04392439724 0.00459028661 0.004504331822)
(0.04471528529 0.004567600019 0.004567602694)
(0.04431583882 0.004176814997 0.004543286596)
(0.01177425153 0.0001970935512 0.001266394764)
(0.02960166941 0.002116624534 0.002970891888)
(0.03974392642 0.003782014987 0.003818598073)
(0.04358042056 0.004567809811 0.004109235151)
(0.04431583808 0.004543281854 0.004176819389)
(0.04391676155 0.00418381584 0.004183822478)
(0.00305254775 8.258322058e-05 8.258327364e-05)
(0.006864570282 0.0005233493278 0.0001470067147)
(0.009175714974 0.0008839449565 0.0001616242451)
(0.01027721513 0.001097869406 0.0001549362891)
(0.01065880948 0.001160903584 0.000138343325)
(0.0106798668 0.001143238153 0.0001254839512)
(0.006864569851 0.0001470073507 0.0005233484661)
(0.0171859971 0.001197538628 0.001197535382)
(0.0237619678 0.002220586502 0.001595553672)
(0.02688032188 0.002808898706 0.00172857591)
(0.0278807654 0.002926352138 0.001706941688)
(0.02787153674 0.002799443261 0.001647770189)
(0.009175713786 0.0001616246214 0.0008839423535)
(0.02376196548 0.001595558032 0.002220578851)
(0.03313362899 0.003062222271 0.003062213184)
(0.03746403086 0.003881848288 0.00338629073)
(0.03875339973 0.003996234347 0.003398788501)
(0.03867432994 0.003771633799 0.003321314618)
(0.01027721324 0.0001549367782 0.001097865896)
(0.02688031684 0.001728580153 0.002808887857)
(0.03746402704 0.003386298623 0.003881836771)
(0.0422904194 0.004324078901 0.004324070361)
(0.04361367404 0.004427096675 0.004363432551)
(0.04350211985 0.004177017735 0.004294605076)
(0.01065880746 0.00013834415 0.001160899806)
(0.0278807592 0.001706945519 0.002926339961)
(0.03875339362 0.003398794823 0.003996222668)
(0.04361367079 0.004363437474 0.004427088837)
(0.04496570378 0.004494266474 0.004494260979)
(0.04494985735 0.004302076985 0.004527044933)
(0.01067986571 0.00012548412 0.001143232653)
(0.02787153133 0.001647773574 0.002799430041)
(0.03867432382 0.00332131958 0.003771622021)
(0.0435021143 0.00429460592 0.004177010295)
(0.04494985688 0.004527041716 0.004302076826)
(0.0448964299 0.004343728792 0.00434373373)
(0.002430320948 5.884098963e-05 5.884123262e-05)
(0.005759947497 0.0003979019972 0.0001031142365)
(0.0079427813 0.0007124136413 0.0001173366373)
(0.009123157408 0.0009279091975 0.0001148704609)
(0.009634079708 0.001034211749 0.0001045675165)
(0.00977987177 0.001064131286 9.750463635e-05)
(0.005759946966 0.0001031141583 0.0003979024826)
(0.0149436998 0.000897361784 0.0008973602413)
(0.02122717203 0.001774164393 0.001224263345)
(0.02459524631 0.002369791314 0.001358720397)
(0.02595160851 0.0026104534 0.001365915326)
(0.02623215876 0.002604332396 0.001330951465)
(0.007942780109 0.0001173367347 0.000712413191)
(0.0212271696 0.001224267187 0.001774158209)
(0.03041804755 0.002526556111 0.002526545367)
(0.03524919186 0.003400655905 0.002879252881)
(0.03708491667 0.003705032806 0.002952192872)
(0.03737152416 0.003626783107 0.00291210769)
(0.009123155364 0.0001148708099 0.0009279076931)
(0.02459524059 0.001358725265 0.002369780327)
(0.03524918725 0.002879264497 0.003400639443)
(0.04076693103 0.003912848821 0.003912833192)
(0.04280073176 0.004261657143 0.004060444413)
(0.04306862418 0.004152164222 0.004040330254)
(0.009634076882 0.0001045678673 0.001034209858)
(0.02595160026 0.001365920329 0.002610438994)
(0.03708490833 0.002952204117 0.003705012945)
(0.04280072773 0.004060458061 0.004261639787)
(0.04480453506 0.004432511071 0.004432495577)
(0.04508817696 0.004360241211 0.004463289697)
(0.009779868406 9.750433878e-05 0.001064127336)
(0.02623214909 0.001330955771 0.002604315374)
(0.0373715144 0.002912118392 0.003626761431)
(0.04306861943 0.004040343434 0.004152145155)
(0.0450881744 0.004463306104 0.004360221415)
(0.04550808524 0.004449327669 0.004449314047)
(0.001948984166 4.521919986e-05 4.521954007e-05)
(0.004887697728 0.0003219315233 7.585091138e-05)
(0.006941275443 0.0006082047018 8.860118816e-05)
(0.008147973066 0.0008321133489 9.029305972e-05)
(0.008744547447 0.0009759522354 8.702432586e-05)
(0.00898863561 0.001048125868 8.664030063e-05)
(0.004887697177 7.585045568e-05 0.0003219333349)
(0.01313021717 0.0006981851594 0.0006981867139)
(0.01907314941 0.001448674191 0.0009584098817)
(0.0225333347 0.002029836787 0.001089438423)
(0.02413839711 0.002355159738 0.001126837494)
(0.02467136224 0.002459475152 0.001131886007)
(0.006941273875 8.860095836e-05 0.0006082071372)
(0.01907314668 0.0009584109574 0.001448673378)
(0.027918622 0.002081444127 0.00208143662)
(0.03300336182 0.00294891417 0.002436157716)
(0.03525671987 0.003388898036 0.002567598052)
(0.03590264704 0.003463655694 0.002598510759)
(0.008147969925 9.029305956e-05 0.0008321153471)
(0.02253332749 0.001089441642 0.00202983124)
(0.03300335582 0.002436169436 0.002948898439)
(0.03895295622 0.003491919791 0.003491899413)
(0.04152709597 0.004017532755 0.003728675178)
(0.0422111809 0.004080270445 0.003807127009)
(0.008744542157 8.702430577e-05 0.0009759535876)
(0.024138385 0.001126841763 0.002355149343)
(0.03525670769 0.002567611891 0.003388875298)
(0.04152708988 0.003728697112 0.00401750616)
(0.04425647556 0.004335353441 0.004335327114)
(0.0449160586 0.004405466651 0.00445343843)
(0.00898862763 8.663955566e-05 0.001048125608)
(0.02467134572 0.00113189006 0.002459461062)
(0.03590263082 0.002598525687 0.003463628853)
(0.04221117175 0.00380715125 0.004080239643)
(0.04491605503 0.004453466114 0.004405435743)
(0.04572437292 0.00461220649 0.004612175942)
(0.001551417586 3.59236921e-05 3.592390691e-05)
(0.004158989993 0.0002787499939 5.660455737e-05)
(0.00608742367 0.0005604170431 6.576231542e-05)
(0.00728725505 0.0008074982625 7.012005903e-05)
(0.007933018528 0.0009922817905 7.38715023e-05)
(0.008247211347 0.00110519901 8.097015538e-05)
(0.00415898955 5.660402305e-05 0.0002787521637)
(0.01160788111 0.0005733641356 0.0005733680733)
(0.01721273919 0.001247135694 0.0007761261953)
(0.02066560823 0.001827274716 0.0009017997878)
(0.02242262261 0.002222232367 0.0009719802814)
(0.02314906508 0.002420918168 0.001024906222)
(0.006087421778 6.576192136e-05 0.0005604211241)
(0.01721273645 0.0007761238349 0.001247140951)
(0.02565261807 0.001759270561 0.001759270396)
(0.0308118862 0.002605597466 0.002097327061)
(0.03334861577 0.003142453928 0.002285254152)
(0.03429773772 0.00335952022 0.002403963093)
(0.007287250953 7.011986788e-05 0.0008075027485)
(0.0206656004 0.0009017995601 0.001827277509)
(0.03081187948 0.002097332989 0.002605589836)
(0.0369716221 0.003141134448 0.003141118161)
(0.03995206061 0.003793222658 0.003454869858)
(0.04102814032 0.004030270482 0.003655529917)
(0.007933011545 7.387130567e-05 0.0009922854401)
(0.02242260827 0.0009719818309 0.002222230955)
(0.03334860106 0.002285264361 0.003142438694)
(0.03995205261 0.003454891526 0.003793197238)
(0.04316396528 0.004211404745 0.004211374385)
(0.0443732218 0.004482991488 0.004475396808)
(0.008247199896 8.096972979e-05 0.001105202436)
(0.023149044 0.001024908882 0.002420913234)
(0.034297716 0.002403976053 0.00335949968)
(0.04102812604 0.003655555553 0.004030238418)
(0.04437321675 0.004475430697 0.004482954371)
(0.04560088488 0.004811928033 0.004811890067)
(0.001199717534 2.913342075e-05 2.913340325e-05)
(0.003504984391 0.0002577645174 4.187985792e-05)
(0.005308491543 0.0005555186004 4.592424586e-05)
(0.006480164283 0.0008425015238 5.098564943e-05)
(0.007147249319 0.001077486403 6.075316827e-05)
(0.007505788281 0.001234555254 7.563424978e-05)
(0.003504984198 4.187949175e-05 0.0002577661299)
(0.01023682075 0.0005041258104 0.0005041302158)
(0.01551406994 0.001157714552 0.0006631892902)
(0.01890363907 0.001770452909 0.0007845143557)
(0.02074029995 0.0022410439 0.0008890589141)
(0.02160263035 0.002526470195 0.0009958617206)
(0.005308490291 4.592389023e-05 0.0005555225281)
(0.01551406785 0.0006631847853 0.001157722951)
(0.02353584025 0.00157380629 0.001573813008)
(0.02866126483 0.00242355446 0.001891717706)
(0.03137066808 0.003045350766 0.002137388557)
(0.03255576228 0.003384122785 0.002355191393)
(0.006480161194 5.098526265e-05 0.0008425067599)
(0.01890363252 0.0007845110057 0.00177046231)
(0.02866125891 0.001891715347 0.002423558614)
(0.03487833428 0.002934514802 0.002934510899)
(0.03814072812 0.003686802856 0.003325547583)
(0.03954722939 0.004074647277 0.003657447819)
(0.007147243494 6.07528284e-05 0.001077490813)
(0.02074028702 0.0008890573843 0.002241051889)
(0.03137065375 0.002137390912 0.003045350503)
(0.03814071895 0.003325558465 0.003686791448)
(0.04172719339 0.004196753079 0.004196733306)
(0.04333026069 0.004653773505 0.004636338164)
(0.007505779112 7.563462482e-05 0.001234561422)
(0.02160261035 0.0009958629252 0.0025264767)
(0.03255573871 0.002355197647 0.003384118293)
(0.03954721063 0.003657463708 0.004074629206)
(0.04333025151 0.004636363958 0.004653745295)
(0.04512332692 0.005143798059 0.005143763497)
(0.000870699468 2.36731947e-05 2.367300778e-05)
(0.002876363227 0.000249509201 2.958192368e-05)
(0.004545620916 0.0005778303446 2.785435025e-05)
(0.005671551203 0.0009194669775 3.152278751e-05)
(0.006338107498 0.001216975043 4.570276531e-05)
(0.006718893609 0.001426802182 6.814794037e-05)
(0.00287636336 2.958182725e-05 0.0002495100567)
(0.008899514002 0.0004722176699 0.000472221147)
(0.01384041331 0.001154717438 0.0006028518085)
(0.01713061951 0.001840295854 0.0007230219285)
(0.01899618425 0.002408644804 0.0008626963106)
(0.01994514323 0.002787545857 0.001028065929)
(0.004545620845 2.785408591e-05 0.000577833452)
(0.01384041259 0.0006028470902 0.001154725921)
(0.02143165436 0.001513094543 0.001513104703)
(0.02646219555 0.002415114651 0.001822114088)
(0.02926626477 0.003137788075 0.002132122667)
(0.03062405326 0.003592319646 0.002464800504)
(0.005671550322 3.152246942e-05 0.0009194720359)
(0.01713061621 0.0007230172485 0.001840308226)
(0.02646219176 0.001822105324 0.002415127951)
(0.03264522207 0.002911386392 0.002911395851)
(0.03609520824 0.003774699099 0.003390760546)
(0.03777177445 0.004300369785 0.003884251233)
(0.006338105356 4.570260425e-05 0.001216980409)
(0.01899617603 0.0008626929872 0.002408659012)
(0.02926625327 0.002132117028 0.003137801882)
(0.03609519916 0.003390756357 0.003774706019)
(0.03996764716 0.004395623597 0.004395622761)
(0.04193460472 0.005010137834 0.005041133183)
(0.006718890822 6.814879569e-05 0.001426809736)
(0.01994512922 0.001028065478 0.00278756089)
(0.03062403137 0.002464798088 0.00359233126)
(0.03777175286 0.003884250837 0.004300371792)
(0.04193459163 0.005041139336 0.005010129947)
(0.04418419802 0.005758041405 0.005758027587)
(0.0005533584052 1.841507375e-05 1.841486977e-05)
(0.002244863881 0.0002441951017 1.787245505e-05)
(0.00375914184 0.0006095208532 9.896276421e-06)
(0.00481857821 0.001017204339 1.017048164e-05)
(0.00546455535 0.001391708554 2.673521569e-05)
(0.005847854298 0.001668625654 5.595470459e-05)
(0.002244864299 1.787289536e-05 0.0002441958296)
(0.007514551572 0.0004571958638 0.0004571985557)
(0.01207643465 0.001201797188 0.0005707408906)
(0.015227151 0.001999105524 0.0006916888782)
(0.01707962891 0.002699246891 0.0008650779843)
(0.01807247879 0.003196048934 0.001091332858)
(0.003759142699 9.896260502e-06 0.0006095236337)
(0.01207643485 0.0005707368595 0.001201804695)
(0.019189003 0.001539261986 0.001539272615)
(0.0240752474 0.002552995734 0.001856319994)
(0.02691670372 0.003417719527 0.002239003687)
(0.02839159172 0.004009561149 0.002700448351)
(0.004818579032 1.017051268e-05 0.001017209404)
(0.01522714997 0.0006916844062 0.001999117759)
(0.02407524515 0.001856308642 0.002553012053)
(0.03016168141 0.003062492308 0.00306250911)
(0.03373064421 0.004080765422 0.003649095288)
(0.03562233657 0.004764490844 0.004334736282)
(0.005464555898 2.673582624e-05 0.001391715596)
(0.01707962485 0.0008650741806 0.002699263356)
(0.02691669549 0.002238993347 0.003417740057)
(0.03373063647 0.003649080553 0.004080784673)
(0.03781858113 0.004842341127 0.004842356615)
(0.0401080848 0.005650074273 0.005731650268)
(0.005847855566 5.595540053e-05 0.001668634457)
(0.01807247041 0.001091330464 0.003196067703)
(0.02839157382 0.002700439533 0.004009582745)
(0.03562231581 0.004334723762 0.004764509362)
(0.04010806988 0.0057316388 0.005650088013)
(0.04282182413 0.006683007283 0.006683014534)
(0.03008897738 0.003763740424 0.0004600197364)
(0.03481675088 0.005099548072 0.0004733510977)
(0.03488202659 0.002560723813 0.0005093195459)
(0.03464209802 0.001840021496 0.0005199882676)
(0.03457095145 0.001031161854 0.0005190607304)
(0.03455110054 0.0007541112123 0.0005122995871)
(0.03006980995 0.003763859082 0.0003338175057)
(0.03481629306 0.005101509504 0.0003384887746)
(0.03487782197 0.002562986406 0.000367509998)
(0.03463735205 0.001834870625 0.0003778583861)
(0.03456650913 0.001025671794 0.0003794019695)
(0.03454752641 0.0007485397074 0.000375610652)
(0.03006018858 0.003763047717 0.0002336220426)
(0.03481801158 0.005103781284 0.0002342108613)
(0.03487564493 0.00256639496 0.0002556715732)
(0.03463488079 0.001832966179 0.0002645385103)
(0.03456385282 0.00102311312 0.000266974773)
(0.03454529814 0.0007453936584 0.0002652240324)
(0.03005534357 0.003762839566 0.0001564158242)
(0.03481990419 0.00510592347 0.0001559333267)
(0.03487465532 0.002569695094 0.0001704909919)
(0.03463412209 0.001832580145 0.0001772074691)
(0.03456282055 0.001022108252 0.0001795630633)
(0.03454448527 0.0007437575068 0.0001789644398)
(0.03005298627 0.003762705844 8.997429365e-05)
(0.03482128636 0.005107470192 8.936871782e-05)
(0.03487412585 0.002572184602 9.773640701e-05)
(0.03463391976 0.001832790317 0.0001019531173)
(0.03456238162 0.001021849533 0.0001036157439)
(0.03454415005 0.0007430244662 0.0001035308695)
(0.03005200667 0.003762676636 2.943687534e-05)
(0.03482197723 0.005108274401 2.920199696e-05)
(0.03487389118 0.002573483683 3.192235321e-05)
(0.03463389765 0.001833008635 3.335621575e-05)
(0.03456222701 0.001021823406 3.394872568e-05)
(0.03454403655 0.00074275501 3.396402534e-05)
(0.03005200643 0.003762676551 -2.942830077e-05)
(0.03482197731 0.005108274227 -2.919304006e-05)
(0.03487389135 0.002573483399 -3.191449226e-05)
(0.03463389762 0.001833008037 -3.334959139e-05)
(0.034562227 0.001021822737 -3.394344399e-05)
(0.03454403654 0.0007427541914 -3.396016275e-05)
(0.03005298625 0.003762705765 -8.996623259e-05)
(0.03482128605 0.005107469599 -8.936011011e-05)
(0.03487412572 0.002572183239 -9.772895701e-05)
(0.03463391963 0.001832788528 -0.0001019470177)
(0.03456238133 0.00102184752 -0.0001036110088)
(0.03454414995 0.0007430220995 -0.0001035275544)
(0.0300553433 0.00376283952 -0.0001564086297)
(0.0348199037 0.005105922495 -0.0001559256655)
(0.03487465492 0.002569692746 -0.0001704843468)
(0.03463412177 0.001832577063 -0.0001772020044)
(0.03456282019 0.001022104961 -0.0001795589475)
(0.03454448504 0.0007437538805 -0.0001789614865)
(0.03006018795 0.003763047618 -0.0002336159056)
(0.0348180108 0.00510377999 -0.0002342042707)
(0.0348756441 0.002566391927 -0.0002556659208)
(0.03463488006 0.001832962149 -0.0002645335274)
(0.03456385225 0.001023108764 -0.0002669707859)
(0.0345452978 0.000745389476 -0.0002652206429)
(0.030069809 0.003763858999 -0.0003338120936)
(0.03481629185 0.005101508019 -0.00033848291)
(0.03487782082 0.002562983048 -0.0003675046834)
(0.03463735105 0.001834866041 -0.0003778534471)
(0.03456650844 0.00102566695 -0.0003793973613)
(0.03454752599 0.0007485354414 -0.0003756062472)
(0.03008897625 0.003763740304 -0.0004600147605)
(0.03481674945 0.005099546587 -0.0004733456232)
(0.0348820253 0.002560720388 -0.0005093142249)
(0.03464209695 0.001840016982 -0.0005199830357)
(0.03457095072 0.001031157096 -0.0005190553852)
(0.03455110012 0.0007541072065 -0.0005122940185)
(0.02727009089 0.003128265061 0.0009906758612)
(0.03641721958 0.00596990676 0.001491555358)
(0.03765505369 0.004332271547 0.001382089939)
(0.03668134166 0.003567066396 0.001360505511)
(0.03596094468 0.002383982308 0.001362522596)
(0.03552858923 0.001858020659 0.001362477936)
(0.02716947113 0.003137404482 0.0007567096501)
(0.03627147305 0.005986621637 0.001133371954)
(0.03753095542 0.004344555286 0.00104555257)
(0.03656339018 0.003571228295 0.001031434794)
(0.03584244858 0.002382837758 0.001033644385)
(0.03541120343 0.001854335904 0.001034065014)
(0.02711114867 0.003142079325 0.0005532865989)
(0.03618862105 0.005998558062 0.0008269364252)
(0.03746346722 0.004351370992 0.0007597552172)
(0.03649963764 0.003573215682 0.0007511455077)
(0.03577820708 0.002380942422 0.0007527074813)
(0.03534786667 0.001851120677 0.0007534705041)
(0.02707668496 0.003145377767 0.0003791304667)
(0.03614060151 0.006006818309 0.0005655178918)
(0.03742559225 0.004355003981 0.0005193269267)
(0.03646412581 0.00357447089 0.0005145772163)
(0.03574238811 0.002379360514 0.0005153869299)
(0.03531279416 0.001848941696 0.0005161971861)
(0.02705766906 0.003147215156 0.0002213493218)
(0.03611439898 0.006011797146 0.0003298140635)
(0.03740536796 0.004357040211 0.0003029621286)
(0.03644550389 0.003575574342 0.0003006097772)
(0.03572357308 0.002378489351 0.0003009143723)
(0.03529450771 0.001847766175 0.0003015161178)
(0.02704914933 0.003148071662 7.283589179e-05)
(0.03610276524 0.006014140421 0.0001084753115)
(0.03739640817 0.004358010915 9.969702661e-05)
(0.03643739256 0.003576247483 9.898440217e-05)
(0.03571538865 0.002378137602 9.904544843e-05)
(0.03528660595 0.001847273897 9.926124515e-05)
(0.02704914918 0.003148072102 -7.282857912e-05)
(0.03610276495 0.006014139802 -0.0001084709388)
(0.03739640805 0.004358010473 -9.969201431e-05)
(0.03643739238 0.003576246816 -9.898023402e-05)
(0.03571538838 0.002378136789 -9.904265774e-05)
(0.03528660579 0.001847273041 -9.92601044e-05)
(0.02705766839 0.003147215326 -0.0002213426373)
(0.03611439816 0.006011796382 -0.000329810307)
(0.03740536701 0.004357038563 -0.0003029577698)
(0.03644550298 0.00357557217 -0.0003006062231)
(0.03572357224 0.002378487042 -0.0003009121854)
(0.03529450727 0.001847763754 -0.0003015153382)
(0.02707668335 0.003145377822 -0.0003791248633)
(0.03614059972 0.006006816935 -0.0005655150459)
(0.03742559011 0.00435500114 -0.0005193234257)