/*--------------------------------*- C++ -*----------------------------------*\
  =========                 |
  \\      /  F ield         | OpenFOAM: The Open Source CFD Toolbox
   \\    /   O peration     | Website:  https://openfoam.org
    \\  /    A nd           | Version:  7
     \\/     M anipulation  |
\*---------------------------------------------------------------------------*/
FoamFile
{
    version     2.0;
    format      ascii;
    class       volScalarField;
    location    "0.00166";
    object      mag(U);
}
// * * * * * * * * * * * * * * * * * * * * * * * * * * * * * * * * * * * * * //

dimensions      [0 1 -1 0 0 0 0];

internalField   nonuniform List<scalar> 
5000
(
45.759183
45.713312
45.690582
45.663486
45.6373
45.610337
45.583491
45.556489
45.529512
45.502532
45.475554
45.448577
45.421597
45.394612
45.367616
45.340617
45.313608
45.286598
45.259587
45.232579
45.205578
45.178584
45.151597
45.124616
45.09764
45.070664
45.043687
45.016705
44.989716
44.962719
44.935714
44.908701
44.881682
44.854661
44.827638
44.800618
44.7736
44.746586
44.719577
44.692572
44.665572
44.638577
44.611587
44.584604
44.557626
44.530653
44.503686
44.476723
44.449765
44.422812
44.395866
44.368926
44.341992
44.315064
44.288141
44.261224
44.234314
44.20741
44.180512
44.153621
44.126736
44.099858
44.072986
44.046121
44.019263
43.992412
43.965568
43.938731
43.911901
43.885079
43.858264
43.831457
43.804658
43.777867
43.751084
43.724309
43.697542
43.670785
43.644036
43.617296
43.590565
43.563843
43.53713
43.510427
43.483735
43.457052
43.43038
43.403718
43.377067
43.350427
43.323797
43.297178
43.270571
43.243976
43.217393
43.190822
43.164262
43.137715
43.11118
43.084657
43.058146
43.031648
43.005164
42.978693
42.952237
42.925795
42.899367
42.872954
42.846556
42.820173
42.793806
42.767455
42.741119
42.714798
42.688494
42.662205
42.635933
42.609677
42.583439
42.557217
42.531013
42.504827
42.478658
42.452507
42.426374
42.400259
42.374163
42.348084
42.322025
42.295984
42.269962
42.243959
42.217977
42.192013
42.16607
42.140147
42.114243
42.08836
42.062496
42.036653
42.01083
41.985028
41.959247
41.933487
41.907748
41.88203
41.856333
41.830658
41.805003
41.77937
41.753758
41.728168
41.702599
41.677053
41.651528
41.626025
41.600545
41.575086
41.54965
41.524236
41.498845
41.473476
41.448131
41.422809
41.39751
41.372235
41.346983
41.321754
41.296549
41.271368
41.246212
41.22108
41.195974
41.170892
41.145834
41.120801
41.095793
41.070808
41.045848
41.020912
40.996
40.971113
40.94625
40.921411
40.896597
40.871806
40.847038
40.822294
40.797572
40.772872
40.748194
40.723538
40.698903
40.67429
40.6497
40.625131
40.600584
40.576058
40.551552
40.527067
40.502601
40.478155
40.453729
40.429323
40.404936
40.380569
40.356222
40.331895
40.307587
40.283298
40.259026
40.234773
40.210538
40.186321
40.162122
40.137941
40.113779
40.089633
40.065505
40.041394
40.017301
39.993224
39.969163
39.945119
39.92109
39.897077
39.87308
39.849099
39.825134
39.801186
39.777252
39.753334
39.72943
39.70554
39.681666
39.657805
39.633958
39.610125
39.586304
39.562497
39.538705
39.514926
39.491161
39.467409
39.443669
39.41994
39.396224
39.37252
39.348829
39.32515
39.301483
39.277825
39.254178
39.230543
39.206919
39.183306
39.159705
39.136113
39.112531
39.088958
39.065395
39.041842
39.018299
38.994766
38.971241
38.947725
38.924216
38.900715
38.877223
38.85374
38.830265
38.806797
38.783336
38.759882
38.736435
38.712995
38.689562
38.666136
38.642716
38.619302
38.595893
38.572489
38.549092
38.525699
38.502312
38.47893
38.455553
38.432179
38.40881
38.385444
38.362082
38.338725
38.315371
38.292021
38.268674
38.24533
38.221988
38.198648
38.175311
38.151978
38.128648
38.10532
38.081994
38.05867
38.035347
38.012027
37.988709
37.965394
37.942081
37.91877
37.895461
37.872153
37.848847
37.825542
37.80224
37.778939
37.755639
37.732342
37.709045
37.685749
37.662453
37.639157
37.615861
37.592565
37.569269
37.545972
37.522674
37.499375
37.476075
37.452772
37.429466
37.406158
37.382846
37.35953
37.33621
37.312884
37.289553
37.266216
37.242873
37.219523
37.196167
37.172803
37.149433
37.126054
37.102668
37.079272
37.055866
37.03245
37.009023
36.985586
36.962138
36.938679
36.915208
36.891726
36.868231
36.844723
36.821202
36.797666
36.774118
36.750555
36.726978
36.703387
36.679781
36.656159
36.632522
36.608869
36.585199
36.561513
36.53781
36.514091
36.490354
36.4666
36.442828
36.419037
36.395228
36.3714
36.347552
36.323686
36.2998
36.275895
36.251969
36.228024
36.204058
36.180072
36.156065
36.132037
36.107987
36.083917
36.059825
36.035711
36.011576
35.987419
35.963239
35.939038
35.914813
35.890566
35.866297
35.842005
35.81769
35.793353
35.768992
35.744608
35.720201
35.695771
35.671317
35.646839
35.622338
35.597813
35.573264
35.548691
35.524094
35.499473
35.474828
35.450159
35.425465
35.400748
35.376005
35.351239
35.326448
35.301632
35.276792
35.251928
35.227039
35.202126
35.177188
35.152226
35.127238
35.102227
35.077191
35.05213
35.027045
35.001935
34.976801
34.951643
34.926461
34.901255
34.876025
34.850772
34.825494
34.800192
34.774866
34.749516
34.724144
34.698748
34.673329
34.647888
34.622424
34.596938
34.571429
34.545898
34.520345
34.494771
34.469176
34.443559
34.417921
34.392263
34.366584
34.340886
34.315168
34.28943
34.263674
34.237899
34.212106
34.186294
34.160466
34.13462
34.108757
34.082877
34.056982
34.03107
34.005143
33.979201
33.953244
33.927274
33.901289
33.875291
33.849279
33.823255
33.797218
33.771169
33.745108
33.719036
33.692953
33.666858
33.640754
33.614639
33.588514
33.56238
33.536236
33.510084
33.483922
33.457752
33.431573
33.405387
33.379192
33.352991
33.326782
33.300565
33.274342
33.248112
33.221876
33.195633
33.169384
33.143129
33.116869
33.090602
33.064331
33.038054
33.011771
32.985485
32.959193
32.932897
32.906597
32.880292
32.853984
32.827673
32.801357
32.775039
32.748718
32.722394
32.696067
32.669738
32.643406
32.617073
32.590738
32.564401
32.538063
32.511724
32.485384
32.459043
32.432701
32.40636
32.380018
32.353677
32.327336
32.300995
32.274655
32.248316
32.221978
32.195641
32.169305
32.142971
32.116638
32.090306
32.063977
32.037649
32.011323
31.984999
31.958677
31.932357
31.906039
31.879723
31.85341
31.827098
31.800789
31.774481
31.748176
31.721874
31.695573
31.669274
31.642978
31.616684
31.590393
31.564103
31.537816
31.511531
31.485248
31.458966
31.432687
31.40641
31.380136
31.353864
31.327593
31.301325
31.275059
31.248795
31.222533
31.196272
31.170015
31.143759
31.117506
31.091255
31.065007
31.038761
31.012518
30.986277
30.960039
30.933804
30.907572
30.881342
30.855115
30.828891
30.80267
30.776452
30.750237
30.724024
30.697816
30.67161
30.645407
30.619208
30.593013
30.56682
30.540631
30.514446
30.488264
30.462085
30.43591
30.409738
30.38357
30.357406
30.331245
30.305087
30.278933
30.252782
30.226635
30.200491
30.17435
30.148212
30.122078
30.095947
30.069819
30.043694
30.017572
29.991454
29.965338
29.939225
29.913115
29.887007
29.860903
29.834801
29.808702
29.782606
29.756512
29.730421
29.704333
29.678247
29.652164
29.626083
29.600005
29.573929
29.547856
29.521786
29.495718
29.469653
29.443591
29.417531
29.391474
29.36542
29.339369
29.313321
29.287275
29.261233
29.235193
29.209157
29.183124
29.157094
29.131067
29.105044
29.079024
29.053008
29.026995
29.000985
28.97498
28.948978
28.92298
28.896986
28.870995
28.845009
28.819027
28.793048
28.767074
28.741103
28.715137
28.689174
28.663216
28.637261
28.61131
28.585364
28.559421
28.533483
28.507549
28.481619
28.455693
28.42977
28.403852
28.377937
28.352027
28.32612
28.300217
28.274317
28.248421
28.222528
28.196639
28.170754
28.144872
28.118993
28.093117
28.067244
28.041374
28.015507
27.989643
27.963783
27.937925
27.912069
27.886216
27.860366
27.834519
27.808674
27.782832
27.756992
27.731155
27.70532
27.679488
27.653658
27.62783
27.602005
27.576183
27.550363
27.524545
27.49873
27.472918
27.447108
27.4213
27.395496
27.369694
27.343894
27.318097
27.292303
27.266512
27.240724
27.214938
27.189156
27.163376
27.1376
27.111826
27.086056
27.060289
27.034525
27.008764
26.983006
26.957251
26.9315
26.905752
26.880007
26.854266
26.828528
26.802793
26.777061
26.751333
26.725608
26.699886
26.674167
26.648452
26.622739
26.59703
26.571324
26.545622
26.519922
26.494225
26.468532
26.442841
26.417153
26.391469
26.365787
26.340108
26.314432
26.288758
26.263088
26.23742
26.211754
26.186091
26.160431
26.134774
26.109119
26.083467
26.057817
26.03217
26.006525
25.980883
25.955243
25.929605
25.903971
25.878338
25.852708
25.827081
25.801456
25.775834
25.750215
25.724598
25.698984
25.673372
25.647762
25.622156
25.596552
25.570951
25.545353
25.519757
25.494164
25.468574
25.442986
25.417402
25.39182
25.366242
25.340666
25.315093
25.289523
25.263956
25.238392
25.212831
25.187273
25.161717
25.136165
25.110616
25.08507
25.059526
25.033986
25.008448
24.982914
24.957382
24.931853
24.906327
24.880804
24.855284
24.829766
24.804251
24.778739
24.75323
24.727724
24.70222
24.676718
24.651219
24.625723
24.60023
24.574739
24.549251
24.523765
24.498282
24.472801
24.447322
24.421846
24.396373
24.370902
24.345433
24.319967
24.294503
24.269042
24.243583
24.218127
24.192673
24.167221
24.141772
24.116325
24.090882
24.065441
24.040003
24.014566
23.989131
23.963699
23.938272
23.912849
23.887429
23.862009
23.836588
23.811169
23.785756
23.760353
23.734958
23.709564
23.684157
23.658744
23.63334
23.607951
23.582581
23.557222
23.531863
23.506465
23.481056
23.455654
23.430274
23.404927
23.379609
23.354304
23.328978
23.303594
23.278212
23.25283
23.227453
23.202081
23.17671
23.151337
23.125971
23.100621
23.075293
23.049988
23.024699
22.999417
22.974136
22.94884
22.923534
22.898216
22.872904
22.847604
22.822322
22.797059
22.771805
22.746549
22.721271
22.695997
22.670729
22.64547
22.62022
22.594972
22.569721
22.544465
22.519211
22.493959
22.468714
22.443479
22.418251
22.393025
22.36778
22.342518
22.317264
22.292025
22.266805
22.241598
22.216393
22.191159
22.165918
22.140683
22.115457
22.090238
22.065024
22.039812
22.014604
21.989405
21.964219
21.939043
21.913872
21.888688
21.86349
21.8383
21.813124
21.787965
21.762815
21.737647
21.712436
21.687237
21.662061
21.636917
21.611792
21.586663
21.561456
21.536255
21.511075
21.485936
21.460832
21.435741
21.410599
21.385405
21.360226
21.335066
21.309933
21.284819
21.259708
21.234567
21.209425
21.184292
21.159173
21.134066
21.108962
21.083835
21.05871
21.033599
21.008511
20.983442
20.958377
20.933272
20.908148
20.883036
20.857945
20.832876
20.80782
20.782766
20.75769
20.732608
20.707515
20.682401
20.65729
20.63219
20.607112
20.582059
20.557022
20.531991
20.506953
20.481905
20.456856
20.431794
20.406728
20.381662
20.356599
20.331544
20.306499
20.281467
20.256445
20.231429
20.206409
20.181359
20.156312
20.131271
20.106246
20.081236
20.056236
20.03124
20.006249
19.981262
19.956269
19.931239
19.906195
19.881161
19.856152
19.831176
19.806226
19.781286
19.756335
19.731345
19.706347
19.68133
19.656323
19.631333
19.606365
19.581419
19.556486
19.531562
19.506642
19.481719
19.456766
19.431795
19.406833
19.38189
19.356971
19.33207
19.307176
19.282276
19.257372
19.23247
19.207546
19.182602
19.157665
19.132749
19.107869
19.083023
19.058195
19.033363
19.008474
18.983576
18.958675
18.933783
18.908905
18.884045
18.859201
18.834367
18.80954
18.784716
18.759893
18.735065
18.710236
18.68541
18.66059
18.635775
18.610964
18.586152
18.561338
18.536532
18.511738
18.486958
18.462184
18.437389
18.412572
18.387768
18.362987
18.338236
18.313503
18.28877
18.263982
18.23917
18.214361
18.189558
18.164773
18.140008
18.115261
18.09053
18.065808
18.041091
18.016369
17.991636
17.966909
17.942189
17.917478
17.892769
17.868036
17.843288
17.818553
17.79384
17.769152
17.744478
17.719796
17.695057
17.670307
17.645558
17.620819
17.596097
17.571395
17.546708
17.522034
17.497367
17.472704
17.448034
17.423354
17.398678
17.374011
17.349354
17.324699
17.300016
17.275317
17.250634
17.225978
17.201351
17.176738
17.152098
17.127391
17.102694
17.078005
17.053332
17.028673
17.00402
16.979375
16.954749
16.930147
16.905566
16.880991
16.856369
16.831685
16.807001
16.782319
16.757657
16.733022
16.708417
16.683834
16.659265
16.634702
16.61014
16.585575
16.561008
16.536438
16.511869
16.4873
16.462731
16.438165
16.413601
16.38904
16.364483
16.339928
16.315375
16.290823
16.266275
16.241737
16.217209
16.192689
16.168171
16.14364
16.119103
16.09457
16.070046
16.04553
16.021022
15.996519
15.972018
15.947521
15.923028
15.89854
15.874055
15.849575
15.825097
15.800622
15.776151
15.751685
15.727225
15.702769
15.678314
15.653859
15.629409
15.604972
15.580548
15.556129
15.531691
15.507235
15.482796
15.458384
15.433999
15.409627
15.385229
15.360777
15.336333
15.311899
15.287489
15.26311
15.238754
15.214405
15.190043
15.16568
15.14133
15.116997
15.092676
15.068349
15.043974
15.019593
14.995216
14.970854
14.946517
14.922204
14.897904
14.873601
14.849278
14.824969
14.800678
14.776409
14.752147
14.727852
14.703513
14.679181
14.654858
14.630561
14.606292
14.582045
14.557803
14.533532
14.509265
14.485019
14.460799
14.436594
14.412373
14.388073
14.36378
14.339494
14.315233
14.291004
14.266802
14.242611
14.2184
14.194174
14.169967
14.145786
14.121623
14.097456
14.073211
14.048955
14.024709
14.000485
13.97629
13.952119
13.927962
13.903805
13.879627
13.855457
13.831297
13.807149
13.783009
13.758852
13.734651
13.710439
13.686233
13.662053
13.637916
13.613817
13.589732
13.565598
13.541387
13.51719
13.493015
13.468888
13.444802
13.420732
13.396613
13.372434
13.348269
13.32412
13.299998
13.275903
13.251821
13.227741
13.203631
13.179498
13.155363
13.131241
13.10715
13.083088
13.059038
13.034948
13.010796
12.986656
12.962535
12.93845
12.914398
12.890362
12.866311
12.842206
12.818107
12.794013
12.769937
12.745883
12.721845
12.697815
12.673772
12.649691
12.625605
12.601528
12.577483
12.553474
12.529484
12.50547
12.481372
12.457289
12.433223
12.40919
12.385188
12.361203
12.337221
12.31321
12.289182
12.265151
12.241127
12.217127
12.193156
12.169203
12.14524
12.121194
12.097159
12.073151
12.049186
12.025249
12.00131
11.977309
11.953323
11.929358
11.905412
11.881468
11.857508
11.833557
11.809619
11.785687
11.761749
11.737809
11.713882
11.689968
11.666061
11.64214
11.618209
11.594292
11.570393
11.546503
11.52261
11.498697
11.474797
11.450914
11.427045
11.403177
11.379279
11.355391
11.331525
11.307681
11.283843
11.259954
11.236069
11.21222
11.188409
11.16461
11.140732
11.116833
11.092985
11.06919
11.04542
11.021589
10.997706
10.973872
10.950084
10.926321
10.902535
10.878701
10.854897
10.831117
10.807352
10.783586
10.759799
10.73602
10.712247
10.688483
10.664726
10.640972
10.617206
10.593439
10.569681
10.545931
10.522188
10.498451
10.474718
10.450986
10.427253
10.403525
10.3798
10.356077
10.332356
10.30864
10.284926
10.261213
10.237503
10.2138
10.1901
10.166396
10.142695
10.119003
10.095317
10.071623
10.04793
10.02425
10.000579
9.9768922
9.9532005
9.9295335
9.905883
9.8822129
9.8585062
9.8348374
9.8111961
9.7875514
9.7638513
9.7401861
9.7165556
9.6929341
9.669255
9.6455936
9.6219629
9.5983476
9.5747108
9.5510729
9.5274527
9.5038398
9.4802137
9.4565894
9.4329746
9.4093627
9.3857433
9.3621286
9.3385198
9.314912
9.2913018
9.2676965
9.2440952
9.2204942
9.1968939
9.173298
9.1497049
9.1261115
9.1025205
9.0789346
9.055351
9.0317655
9.0081833
8.9846077
8.9610347
8.9374567
8.9138831
8.8903185
8.8667575
8.843186
8.8196203
8.7960679
8.7725209
8.7489532
8.7253934
8.7018558
8.6783288
8.6547615
8.6311963
8.6076698
8.584167
8.5606296
8.5370408
8.513496
8.4899878
8.466498
8.4430071
8.4194982
8.3959946
8.3724918
8.3489841
8.3254742
8.3019764
8.2784882
8.2549781
8.2314387
8.2079331
8.1844606
8.1610047
8.1375497
8.1140844
8.0906208
8.0671558
8.0436939
8.0202351
7.9967772
7.9733175
7.9498637
7.9264243
7.9029954
7.8795449
7.8560575
7.8326019
7.8091758
7.7857641
7.7623547
7.7389477
7.7155427
7.6921383
7.6687356
7.6453351
7.6219367
7.5985417
7.5751516
7.5517654
7.5283793
7.5049949
7.4816219
7.4582613
7.4348954
7.4114836
7.3880972
7.3647459
7.3414162
7.3180888
7.2947522
7.2714192
7.2480863
7.2247564
7.2014303
7.1781077
7.1547878
7.1314711
7.1081604
7.0848557
7.0615516
7.0382451
7.0149466
6.9916549
6.968364
6.9450774
6.9218021
6.8985346
6.8752691
6.852005
6.8287443
6.8054866
6.7822322
6.7589815
6.7357347
6.7124909
6.6892501
6.6660154
6.6427887
6.6195653
6.5963256
6.573091
6.5498748
6.5266724
6.5034731
6.4802717
6.457074
6.4338788
6.4106866
6.3874978
6.3643125
6.3411308
6.3179527
6.2947779
6.2716065
6.2484384
6.2252738
6.2021125
6.1789541
6.1557983
6.1326455
6.1094963
6.0863504
6.0632072
6.0400666
6.0169286
5.9937931
5.9706602
5.94753
5.9244025
5.901278
5.8781568
5.8550374
5.8319192
5.8088048
5.7856968
5.7625916
5.7394837
5.7163805
5.6932832
5.6701852
5.6470835
5.6239874
5.6008939
5.5778035
5.5547168
5.5316321
5.5085506
5.4854732
5.4623975
5.4393264
5.416264
5.3931985
5.3701186
5.3470772
5.324076
5.301061
5.2779567
5.2548954
5.2318426
5.2087848
5.1857374
5.1626932
5.1396478
5.1166082
5.0935713
5.070535
5.047504
5.0244761
5.0014439
4.9784224
4.955411
4.9323705
4.9093514
4.886387
4.8634227
4.8403389
4.8173044
4.7942855
4.7712631
4.7482522
4.7252469
4.7022375
4.6792352
4.6562392
4.6332382
4.6102401
4.5872561
4.5642773
4.5412782
4.5182809
4.4952985
4.4723403
4.4493843
4.4263776
4.4033969
4.3804295
4.3574483
4.3344682
4.3115014
4.2885581
4.2656191
4.2426322
4.2196707
4.1967238
4.1737608
4.1507996
4.12785
4.104923
4.0820025
4.0590372
4.0360965
4.0131716
3.9902276
3.967287
3.9443571
3.9214485
3.8985479
3.8756051
3.8526865
3.8297856
3.8068619
3.7839428
3.7610341
3.7381455
3.7152665
3.6923473
3.6694517
3.6465764
3.6236746
3.6007783
3.5778926
3.5550252
3.5321689
3.5092746
3.4864037
3.4635564
3.4406776
3.4178041
3.3949422
3.3720975
3.3492657
3.3263976
3.3035519
3.2807329
3.2578777
3.2350285
3.2121926
3.189372
3.1665654
3.143724
3.1209042
3.0981151
3.0752849
3.0524601
3.029651
3.0068547
2.9840732
2.9612588
2.9384656
2.9157081
2.8929042
2.8701032
2.8473213
2.8245502
2.8017956
2.7790101
2.7562442
2.7335186
2.7107403
2.6879626
2.6652093
2.6424641
2.6197357
2.5969774
2.5742383
2.551546
2.5287957
2.5060411
2.4833169
2.4605979
2.4378969
2.4151687
2.3924579
2.3698
2.3470763
2.3243426
2.3016474
2.2789546
2.2562801
2.2335794
2.210895
2.1882727
2.1655777
2.1428648
2.1202
2.0975339
2.0748869
2.0522165
2.0295607
2.0069762
1.9843089
1.9616138
1.9389778
1.9163377
1.893717
1.8710749
1.8484455
1.8258998
1.80326
1.7805816
1.7579771
1.7353658
1.7127741
1.6901626
1.6675612
1.6450583
1.6224469
1.5997814
1.5772066
1.5546212
1.5320544
1.50947
1.4868946
1.464438
1.441856
1.4192008
1.3966581
1.3741021
1.351565
1.329013
1.3064668
1.2840633
1.2615095
1.2388566
1.2163436
1.1938144
1.1713035
1.1487823
1.1262616
1.1038916
1.0813729
1.0587474
1.0362705
1.0137747
0.99129526
0.96880883
0.946316
0.92397755
0.90149084
0.87888899
0.85644082
0.83397148
0.81151727
0.78906089
0.7665945
0.74428767
0.72183579
0.69926739
0.67684734
0.65441465
0.63200032
0.60957692
0.58728489
0.56486044
0.54232811
0.51992418
0.49749741
0.47509529
0.45268582
0.43029648
0.40789417
0.38562487
0.36322605
0.34070684
0.31832523
0.29592158
0.2735393
0.25114436
0.22880912
0.2064132
0.18398222
0.16159079
0.13917013
0.11677555
0.094370471
0.072000114
0.049594669
0.027202722
0.004841383
0.017516976
0.039815698
0.062113706
0.084410386
0.10670638
0.12900206
0.15129783
0.17359381
0.19588999
0.21818615
0.24048213
0.26277772
0.28507275
0.30736697
0.32966011
0.35195177
0.37424181
0.39653002
0.41881623
0.44110026
0.46338193
0.48566108
0.50793755
0.53021132
0.55248217
0.57475
0.59701461
0.61927594
0.641534
0.66378883
0.68604026
0.70828813
0.73053236
0.75277301
0.77501016
0.79724387
0.81947403
0.84170038
0.86392289
0.8861417
0.90835695
0.93056871
0.95277695
0.97498145
0.99718216
1.0193791
1.0415724
1.0637623
1.0859487
1.1081315
1.1303106
1.1524861
1.174658
1.1968264
1.2189914
1.241153
1.2633109
1.2854653
1.3076161
1.3297636
1.3519078
1.3740487
1.396186
1.4183198
1.44045
1.4625768
1.4847004
1.5068208
1.5289379
1.5510516
1.5731618
1.5952686
1.6173719
1.639472
1.661569
1.6836626
1.705753
1.7278401
1.7499237
1.772004
1.7940811
1.816155
1.8382256
1.8602929
1.8823568
1.9044175
1.9264749
1.9485292
1.9705802
1.992628
2.0146724
2.0367136
2.0587516
2.0807865
2.102818
2.1248462
2.1468711
2.1688929
2.1909116
2.2129271
2.2349394
2.2569483
2.278954
2.3009565
2.3229559
2.3449521
2.366945
2.3889345
2.4109209
2.4329041
2.4548842
2.4768612
2.4988349
2.5208054
2.5427727
2.564737
2.586698
2.6086558
2.6306103
2.6525616
2.6745099
2.6964551
2.7183973
2.7403361
2.7622716
2.7842039
2.8061332
2.8280595
2.8499828
2.871903
2.8938201
2.9157339
2.9376445
2.959552
2.9814565
3.0033581
3.0252567
3.0471522
3.0690447
3.0909341
3.1128205
3.1347039
3.1565844
3.1784619
3.2003365
3.2222082
3.2440771
3.265943
3.287806
3.3096663
3.3315237
3.3533784
3.3752303
3.3970795
3.418926
3.4407698
3.4626109
3.4844495
3.5062856
3.5281191
3.5499501
3.5717786
3.5936046
3.6154285
3.63725
3.6590693
3.6808862
3.702701
3.7245136
3.7463242
3.7681328
3.7899394
3.8117442
3.8335472
3.8553484
3.877148
3.898946
3.9207423
3.9425373
3.9643309
3.9861233
4.0079145
4.0297046
4.0514936
4.0732817
4.0950691
4.1168559
4.1386421
4.1604277
4.1822129
4.2039979
4.2257829
4.2475679
4.2693532
4.2911388
4.3129246
4.3347111
4.3564982
4.3782864
4.4000757
4.4218663
4.4436583
4.4654518
4.4872469
4.5090441
4.5308435
4.5526453
4.5744497
4.5962568
4.6180669
4.6398802
4.6616971
4.6835177
4.7053422
4.7271708
4.7490038
4.7708414
4.7926842
4.8145324
4.8363862
4.858246
4.8801118
4.9019839
4.9238628
4.9457489
4.9676425
4.989544
5.0114538
5.0333721
5.0552992
5.0772355
5.0991815
5.1211376
5.1431042
5.1650818
5.1870708
5.2090716
5.2310845
5.2531101
5.2751487
5.297201
5.3192675
5.3413487
5.363445
5.3855568
5.4076848
5.4298294
5.4519913
5.4741711
5.4963694
5.5185867
5.5408235
5.5630804
5.585358
5.6076571
5.6299782
5.6523221
5.6746894
5.6970808
5.7194968
5.7419382
5.7644057
5.7869001
5.809422
5.8319722
5.8545515
5.8771606
5.8998003
5.9224713
5.9451745
5.9679105
5.9906804
6.0134848
6.0363247
6.0592009
6.0821141
6.1050653
6.1280553
6.151085
6.1741554
6.1972673
6.2204216
6.2436193
6.2668612
6.2901483
6.3134814
6.3368617
6.36029
6.3837673
6.4072946
6.4308728
6.454503
6.478186
6.501923
6.5257149
6.5495625
6.5734671
6.5974295
6.6214509
6.6455324
6.6696748
6.6938793
6.7181467
6.7424779
6.7668743
6.7913367
6.8158663
6.8404642
6.8651312
6.8898683
6.9146767
6.9395573
6.9645111
6.9895392
7.0146427
7.0398224
7.0650795
7.0904149
7.1158296
7.1413245
7.1669007
7.1925592
7.2183008
7.2441267
7.2700377
7.2960348
7.3221189
7.3482909
7.3745517
7.4009023
7.4273436
7.4538763
7.4805015
7.5072199
7.5340323
7.5609396
7.5879427
7.6150423
7.6422393
7.6695343
7.6969282
7.7244215
7.7520151
7.7797097
7.8075061
7.8354048
7.8634065
7.8915117
7.9197211
7.9480353
7.9764551
8.0049808
8.033613
8.0623522
8.0911988
8.1201534
8.1492163
8.1783882
8.2076694
8.2370603
8.2665612
8.2961723
8.3258941
8.3557269
8.3856709
8.4157266
8.445894
8.4761733
8.5065647
8.5370683
8.5676844
8.5984131
8.6292545
8.6602086
8.6912755
8.7224551
8.7537475
8.7851526
8.8166705
8.8483012
8.8800444
8.9119001
8.9438681
8.9759483
9.0081404
9.0404443
9.0728599
9.1053869
9.1380248
9.1707736
9.2036328
9.2366022
9.2696814
9.30287
9.3361677
9.369574
9.4030885
9.4367108
9.4704404
9.5042768
9.5382196
9.5722681
9.6064218
9.6406801
9.6750427
9.7095088
9.7440779
9.7787492
9.8135222
9.8483961
9.8833704
9.9184444
9.9536174
9.9888887
10.024257
10.059723
10.095285
10.130941
10.166693
10.202538
10.238476
10.274506
10.310628
10.34684
10.383141
10.419532
10.45601
10.492576
10.529227
10.565964
10.602786
10.639691
10.676679
10.713749
10.750899
10.78813
10.825439
10.862827
10.900291
10.937833
10.975449
11.01314
11.050905
11.088742
11.12665
11.164629
11.202678
11.240796
11.278982
11.317235
11.355553
11.393937
11.432384
11.470895
11.509468
11.548103
11.586797
11.625552
11.664364
11.703235
11.742162
11.781144
11.820182
11.859274
11.898418
11.937615
11.976863
12.016162
12.05551
12.094906
12.134351
12.173842
12.213379
12.252962
12.292589
12.332259
12.371973
12.411728
12.451524
12.49136
12.531236
12.571151
12.611104
12.651093
12.691119
12.731181
12.771278
12.811408
12.851572
12.891769
12.931998
12.972258
13.012549
13.052869
13.093219
13.133597
13.174003
13.214436
13.254896
13.295382
13.335893
13.376429
13.416989
13.457573
13.498179
13.538808
13.579459
13.62013
13.660823
13.701536
13.742268
13.783019
13.823789
13.864577
13.905383
13.946206
13.987045
14.027901
14.068772
14.109658
14.15056
14.191476
14.232405
14.273349
14.314305
14.355274
14.396256
14.437249
14.478254
14.519271
14.560298
14.601336
14.642384
14.683442
14.724509
14.765586
14.806671
14.847765
14.888868
14.929978
14.971097
15.012222
15.053355
15.094495
15.135642
15.176795
15.217954
15.259119
15.30029
15.341467
15.382649
15.423835
15.465027
15.506223
15.547424
15.58863
15.629839
15.671052
15.712269
15.75349
15.794714
15.835941
15.877172
15.918405
15.959641
16.00088
16.042122
16.083366
16.124612
16.165861
16.207111
16.248364
16.289617
16.330872
16.37213
16.41339
16.45465
16.495913
16.537176
16.578441
16.619706
16.660973
16.702241
16.743509
16.784779
16.826049
16.86732
16.908591
16.949863
16.991135
17.032408
17.073681
17.114955
17.156228
17.197502
17.238777
17.280051
17.321325
17.3626
17.403874
17.445149
17.486423
17.527698
17.568972
17.610246
17.65152
17.692794
17.734068
17.775341
17.816615
17.857888
17.899161
17.940433
17.981705
18.022977
18.064248
18.10552
18.14679
18.188061
18.229331
18.2706
18.31187
18.353139
18.394407
18.435675
18.476942
18.51821
18.559476
18.600742
18.642008
18.683273
18.724538
18.765802
18.807066
18.848329
18.889592
18.930855
18.972116
19.013378
19.054639
19.095899
19.137159
19.178419
19.219678
19.260936
19.302194
19.343452
19.384709
19.425966
19.467222
19.508478
19.549734
19.590989
19.632243
19.673498
19.714752
19.756005
19.797259
19.838511
19.879764
19.921016
19.962268
20.003519
20.044771
20.086021
20.127272
20.168522
20.209772
20.251022
20.292272
20.333521
20.37477
20.416018
20.457267
20.498515
20.539763
20.581011
20.622258
20.663506
20.704753
20.746
20.787247
20.828493
20.86974
20.910986
20.952232
20.993478
21.034724
21.075969
21.117215
21.158459
21.199704
21.240948
21.282192
21.323434
21.364675
21.405916
21.44715
21.488384
21.529608
21.570826
21.612033
21.653231
21.69442
21.735612
21.776816
21.818048
21.85932
21.900638
21.941996
21.983384
22.024746
22.066091
22.107334
22.148447
22.189568
22.230742
22.271995
22.313307
22.354646
22.395949
22.437144
22.47834
22.51956
22.560814
22.602087
22.643365
22.684604
22.725839
22.76708
22.80833
22.849586
22.89084
22.932088
22.973336
23.014587
23.055838
23.09709
23.138341
23.179592
23.220844
23.262095
23.303347
23.3446
23.385853
23.427106
23.468361
23.509616
23.550871
23.592126
23.633382
23.674637
23.715891
23.757146
23.7984
23.839655
23.880911
23.922168
23.963426
24.004686
24.045946
24.087207
24.128468
24.169729
24.210988
24.252246
24.293503
24.334759
24.376016
24.417274
24.458535
24.499798
24.541064
24.582332
24.623602
24.66487
24.706136
24.747397
24.788654
24.829905
24.871152
24.912393
24.95363
24.994864
25.036092
25.077315
25.118531
25.159739
25.200936
25.242123
25.283295
25.324451
25.365583
25.406687
25.447751
25.488784
25.529777
25.570772
25.611794
25.652855
25.693953
25.735066
25.776172
25.817247
25.858253
25.899217
25.940176
25.981154
26.022159
26.063208
26.104296
26.145403
26.186531
26.227669
26.268802
26.309913
26.350988
26.392022
26.433022
26.474077
26.515473
26.558071
26.603692
26.642858
26.679365
26.720852
26.764022
26.805573
26.847349
26.889474
26.931434
26.973222
27.014983
27.056674
27.0983
27.139877
27.181418
27.222925
27.264406
27.305865
27.347299
27.388704
27.43008
27.47143
27.512754
27.554054
27.595338
27.636615
27.677888
27.71916
27.760434
27.801712
27.842993
27.884274
27.925555
27.966834
28.008097
28.049347
28.09062
28.131905
28.173161
28.214416
28.255674
28.296931
28.338188
28.379445
28.420702
28.461959
28.503213
28.544466
28.585716
28.626963
28.668207
28.70945
28.750689
28.791927
28.833163
28.874396
28.915628
28.956857
28.998084
29.039308
29.080529
29.121747
29.162961
29.204172
29.245379
29.286582
29.327782
29.368978
29.41017
29.451358
29.492542
29.533722
29.574898
29.616068
29.657234
29.698395
29.73955
29.780701
29.821845
29.862984
29.904117
29.945244
29.986365
30.027479
30.068587
30.109688
30.150782
30.191869
30.232948
30.27402
30.315083
30.356139
30.397186
30.438224
30.479254
30.520274
30.561285
30.602286
30.643277
30.684258
30.725229
30.766189
30.807138
30.848075
30.889001
30.929915
30.970817
31.011706
31.052582
31.093444
31.134293
31.175128
31.215949
31.256756
31.297547
31.338323
31.379084
31.419828
31.460555
31.501266
31.541959
31.582635
31.623293
31.663932
31.704552
31.745153
31.785734
31.826295
31.866836
31.907355
31.947853
31.988328
32.028782
32.069212
32.109618
32.150001
32.190359
32.230693
32.271001
32.311283
32.351538
32.391767
32.431968
32.472141
32.512286
32.552401
32.592487
32.632542
32.672566
32.71256
32.752521
32.79245
32.832346
32.872208
32.912036
32.951829
32.991586
33.031308
33.070993
33.11064
33.15025
33.189821
33.229353
33.268846
33.308298
33.347708
33.387077
33.426404
33.465688
33.504928
33.544124
33.583275
33.62238
33.661439
33.700451
33.739415
33.778331
33.817199
33.856016
33.894783
33.933499
33.972164
34.010776
34.049335
34.087841
34.126292
34.164688
34.203028
34.241311
34.279538
34.317707
34.355817
34.393868
34.431859
34.46979
34.507659
34.545467
34.583211
34.620893
34.658511
34.696064
34.733552
34.770974
34.808329
34.845617
34.882838
34.919989
34.957072
34.994084
35.031027
35.067898
35.104697
35.141424
35.178079
35.214659
35.251166
35.287597
35.323954
35.360234
35.396438
35.432565
35.468614
35.504586
35.540478
35.576291
35.612024
35.647677
35.683249
35.71874
35.754149
35.789476
35.824719
35.85988
35.894957
35.929949
35.964857
35.99968
36.034417
36.069069
36.103634
36.138113
36.172505
36.206809
36.241025
36.275154
36.309194
36.343145
36.377007
36.41078
36.444464
36.478057
36.511561
36.544974
36.578297
36.611529
36.64467
36.67772
36.710678
36.743546
36.776321
36.809005
36.841598
36.874098
36.906506
36.938822
36.971046
37.003178
37.035218
37.067166
37.099021
37.130785