/*--------------------------------*- C++ -*----------------------------------*\
  =========                 |
  \\      /  F ield         | OpenFOAM: The Open Source CFD Toolbox
   \\    /   O peration     | Website:  https://openfoam.org
    \\  /    A nd           | Version:  7
     \\/     M anipulation  |
\*---------------------------------------------------------------------------*/
FoamFile
{
    version     2.0;
    format      ascii;
    class       volScalarField;
    location    "0.00234";
    object      p;
}
// * * * * * * * * * * * * * * * * * * * * * * * * * * * * * * * * * * * * * //

dimensions      [1 -1 -2 0 0 0 0];

internalField   nonuniform List<scalar> 
5000
(
73699.589
73708.393
73717.489
73726.624
73735.774
73744.929
73754.086
73763.247
73772.41
73781.575
73790.742
73799.91
73809.08
73818.251
73827.422
73836.594
73845.766
73854.938
73864.11
73873.282
73882.454
73891.625
73900.796
73909.966
73919.136
73928.305
73937.473
73946.641
73955.807
73964.974
73974.139
73983.303
73992.467
74001.63
74010.792
74019.953
74029.113
74038.273
74047.431
74056.589
74065.746
74074.902
74084.057
74093.212
74102.366
74111.518
74120.67
74129.821
74138.971
74148.12
74157.267
74166.413
74175.556
74184.698
74193.837
74202.975
74212.11
74221.245
74230.378
74239.511
74248.643
74257.776
74266.911
74276.046
74285.183
74294.321
74303.461
74312.603
74321.745
74330.889
74340.032
74349.176
74358.32
74367.463
74376.606
74385.748
74394.89
74404.031
74413.171
74422.31
74431.449
74440.586
74449.723
74458.859
74467.994
74477.128
74486.262
74495.394
74504.526
74513.657
74522.787
74531.916
74541.044
74550.172
74559.298
74568.424
74577.549
74586.673
74595.797
74604.919
74614.041
74623.162
74632.282
74641.401
74650.519
74659.636
74668.753
74677.869
74686.984
74696.098
74705.211
74714.323
74723.435
74732.546
74741.655
74750.765
74759.873
74768.98
74778.087
74787.193
74796.298
74805.402
74814.505
74823.608
74832.709
74841.81
74850.91
74860.009
74869.108
74878.205
74887.302
74896.398
74905.493
74914.587
74923.681
74932.773
74941.865
74950.956
74960.046
74969.136
74978.224
74987.312
74996.399
75005.485
75014.57
75023.655
75032.738
75041.821
75050.903
75059.984
75069.064
75078.144
75087.223
75096.301
75105.378
75114.454
75123.53
75132.605
75141.678
75150.752
75159.824
75168.895
75177.966
75187.036
75196.105
75205.173
75214.24
75223.307
75232.373
75241.438
75250.502
75259.565
75268.628
75277.69
75286.751
75295.811
75304.87
75313.928
75322.986
75332.043
75341.099
75350.154
75359.208
75368.261
75377.314
75386.365
75395.416
75404.465
75413.514
75422.562
75431.609
75440.655
75449.699
75458.744
75467.787
75476.829
75485.871
75494.911
75503.952
75512.991
75522.03
75531.069
75540.108
75549.146
75558.184
75567.222
75576.26
75585.298
75594.336
75603.374
75612.412
75621.45
75630.489
75639.527
75648.566
75657.604
75666.643
75675.681
75684.719
75693.757
75702.795
75711.832
75720.869
75729.906
75738.942
75747.977
75757.012
75766.046
75775.08
75784.112
75793.145
75802.176
75811.207
75820.237
75829.266
75838.295
75847.323
75856.35
75865.376
75874.402
75883.427
75892.451
75901.474
75910.497
75919.518
75928.539
75937.559
75946.579
75955.598
75964.615
75973.633
75982.649
75991.665
76000.679
76009.694
76018.707
76027.719
76036.731
76045.742
76054.752
76063.762
76072.771
76081.779
76090.786
76099.792
76108.798
76117.803
76126.807
76135.811
76144.813
76153.815
76162.816
76171.817
76180.817
76189.815
76198.814
76207.811
76216.808
76225.804
76234.799
76243.793
76252.787
76261.78
76270.772
76279.763
76288.754
76297.744
76306.733
76315.721
76324.709
76333.696
76342.682
76351.667
76360.652
76369.636
76378.619
76387.601
76396.583
76405.564
76414.544
76423.523
76432.502
76441.48
76450.457
76459.433
76468.409
76477.384
76486.358
76495.332
76504.304
76513.276
76522.247
76531.218
76540.187
76549.156
76558.124
76567.092
76576.059
76585.024
76593.99
76602.954
76611.917
76620.88
76629.842
76638.803
76647.764
76656.724
76665.682
76674.641
76683.598
76692.554
76701.51
76710.465
76719.419
76728.372
76737.325
76746.277
76755.228
76764.178
76773.127
76782.076
76791.025
76799.972
76808.919
76817.866
76826.812
76835.757
76844.702
76853.647
76862.591
76871.535
76880.479
76889.423
76898.366
76907.309
76916.253
76925.195
76934.138
76943.081
76952.023
76960.966
76969.908
76978.85
76987.792
76996.734
77005.676
77014.618
77023.559
77032.5
77041.44
77050.381
77059.321
77068.261
77077.2
77086.139
77095.077
77104.015
77112.952
77121.889
77130.825
77139.761
77148.696
77157.631
77166.564
77175.498
77184.43
77193.362
77202.293
77211.224
77220.154
77229.083
77238.012
77246.94
77255.867
77264.793
77273.719
77282.644
77291.569
77300.492
77309.415
77318.338
77327.259
77336.18
77345.1
77354.02
77362.939
77371.857
77380.774
77389.691
77398.607
77407.522
77416.437
77425.351
77434.264
77443.177
77452.089
77461
77469.91
77478.82
77487.729
77496.637
77505.545
77514.452
77523.358
77532.264
77541.169
77550.073
77558.976
77567.879
77576.781
77585.683
77594.583
77603.483
77612.383
77621.281
77630.179
77639.076
77647.973
77656.869
77665.764
77674.659
77683.552
77692.446
77701.338
77710.23
77719.121
77728.011
77736.901
77745.79
77754.678
77763.566
77772.453
77781.339
77790.225
77799.11
77807.994
77816.877
77825.76
77834.642
77843.524
77852.404
77861.284
77870.164
77879.042
77887.92
77896.798
77905.674
77914.55
77923.425
77932.3
77941.173
77950.046
77958.919
77967.79
77976.661
77985.531
77994.401
78003.269
78012.137
78021.005
78029.871
78038.737
78047.602
78056.467
78065.331
78074.194
78083.056
78091.918
78100.779
78109.64
78118.5
78127.359
78136.218
78145.076
78153.934
78162.791
78171.648
78180.504
78189.36
78198.216
78207.071
78215.925
78224.78
78233.634
78242.488
78251.341
78260.194
78269.047
78277.9
78286.753
78295.605
78304.457
78313.309
78322.161
78331.012
78339.864
78348.715
78357.566
78366.417
78375.267
78384.117
78392.967
78401.817
78410.666
78419.515
78428.364
78437.213
78446.061
78454.908
78463.756
78472.603
78481.449
78490.295
78499.141
78507.986
78516.83
78525.674
78534.518
78543.361
78552.203
78561.045
78569.886
78578.727
78587.567
78596.407
78605.246
78614.084
78622.922
78631.759
78640.595
78649.431
78658.266
78667.101
78675.935
78684.768
78693.601
78702.433
78711.264
78720.095
78728.925
78737.755
78746.584
78755.412
78764.24
78773.067
78781.893
78790.719
78799.544
78808.368
78817.192
78826.015
78834.837
78843.659
78852.48
78861.301
78870.121
78878.94
78887.759
78896.577
78905.394
78914.211
78923.027
78931.842
78940.657
78949.471
78958.285
78967.098
78975.91
78984.722
78993.532
79002.343
79011.153
79019.962
79028.77
79037.578
79046.385
79055.192
79063.997
79072.803
79081.607
79090.411
79099.215
79108.017
79116.82
79125.621
79134.422
79143.222
79152.022
79160.821
79169.619
79178.417
79187.214
79196.01
79204.806
79213.601
79222.395
79231.189
79239.982
79248.775
79257.567
79266.358
79275.148
79283.938
79292.728
79301.516
79310.304
79319.091
79327.878
79336.664
79345.449
79354.234
79363.018
79371.801
79380.584
79389.366
79398.148
79406.928
79415.708
79424.488
79433.267
79442.045
79450.823
79459.6
79468.376
79477.152
79485.927
79494.702
79503.476
79512.249
79521.023
79529.795
79538.567
79547.339
79556.11
79564.881
79573.652
79582.422
79591.191
79599.961
79608.73
79617.498
79626.267
79635.035
79643.802
79652.57
79661.337
79670.104
79678.871
79687.638
79696.404
79705.17
79713.936
79722.702
79731.467
79740.233
79748.998
79757.763
79766.527
79775.292
79784.056
79792.82
79801.583
79810.347
79819.11
79827.872
79836.635
79845.397
79854.158
79862.92
79871.681
79880.441
79889.201
79897.961
79906.72
79915.479
79924.238
79932.996
79941.753
79950.51
79959.267
79968.023
79976.778
79985.533
79994.287
80003.041
80011.795
80020.548
80029.3
80038.051
80046.803
80055.553
80064.303
80073.053
80081.801
80090.55
80099.297
80108.044
80116.791
80125.537
80134.282
80143.027
80151.771
80160.515
80169.258
80178
80186.742
80195.483
80204.223
80212.963
80221.703
80230.442
80239.18
80247.917
80256.654
80265.391
80274.126
80282.862
80291.596
80300.33
80309.063
80317.796
80326.528
80335.26
80343.991
80352.721
80361.451
80370.18
80378.909
80387.636
80396.364
80405.09
80413.817
80422.542
80431.267
80439.991
80448.715
80457.438
80466.16
80474.882
80483.603
80492.324
80501.044
80509.763
80518.482
80527.2
80535.917
80544.634
80553.35
80562.066
80570.781
80579.495
80588.209
80596.922
80605.634
80614.346
80623.057
80631.767
80640.477
80649.186
80657.894
80666.602
80675.309
80684.016
80692.722
80701.427
80710.132
80718.836
80727.539
80736.241
80744.943
80753.645
80762.346
80771.046
80779.745
80788.444
80797.142
80805.84
80814.537
80823.233
80831.929
80840.625
80849.319
80858.013
80866.707
80875.4
80884.092
80892.784
80901.475
80910.166
80918.856
80927.546
80936.235
80944.923
80953.611
80962.298
80970.985
80979.671
80988.357
80997.042
81005.726
81014.409
81023.092
81031.774
81040.456
81049.137
81057.817
81066.497
81075.175
81083.853
81092.53
81101.206
81109.881
81118.556
81127.23
81135.902
81144.574
81153.244
81161.913
81170.581
81179.248
81187.914
81196.579
81205.242
81213.904
81222.565
81231.224
81239.882
81248.538
81257.193
81265.845
81274.497
81283.146
81291.794
81300.441
81309.086
81317.728
81326.369
81335.008
81343.644
81352.278
81360.909
81369.538
81378.165
81386.79
81395.413
81404.034
81412.653
81421.269
81429.881
81438.491
81447.098
81455.701
81464.301
81472.897
81481.491
81490.081
81498.669
81507.254
81515.836
81524.414
81532.989
81541.561
81550.129
81558.692
81567.252
81575.807
81584.359
81592.906
81601.448
81609.986
81618.519
81627.048
81635.571
81644.089
81652.602
81661.11
81669.613
81678.11
81686.601
81695.087
81703.567
81712.041
81720.509
81728.971
81737.426
81745.875
81754.317
81762.752
81771.181
81779.603
81788.017
81796.425
81804.824
81813.216
81821.6
81829.976
81838.344
81846.704
81855.055
81863.398
81871.732
81880.058
81888.374
81896.681
81904.978
81913.265
81921.543
81929.811
81938.068
81946.315
81954.551
81962.776
81970.989
81979.191
81987.381
81995.56
82003.727
82011.882
82020.025
82028.155
82036.273
82044.377
82052.468
82060.546
82068.61
82076.661
82084.698
82092.72
82100.728
82108.721
82116.699
82124.661
82132.609
82140.54
82148.457
82156.357
82164.241
82172.109
82179.96
82187.793
82195.609
82203.408
82211.188
82218.951
82226.696
82234.423
82242.131
82249.821
82257.491
82265.142
82272.773
82280.383
82287.973
82295.542
82303.091
82310.62
82318.128
82325.616
82333.082
82340.527
82347.949
82355.349
82362.727
82370.082
82377.414
82384.723
82392.01
82399.273
82406.512
82413.727
82420.917
82428.082
82435.223
82442.339
82449.43
82456.497
82463.538
82470.554
82477.544
82484.508
82491.444
82498.353
82505.235
82512.09
82518.919
82525.721
82532.495
82539.242
82545.961
82552.651
82559.311
82565.943
82572.546
82579.121
82585.667
82592.184
82598.671
82605.129
82611.557
82617.955
82624.322
82630.659
82636.966
82643.242
82649.488
82655.704
82661.888
82668.041
82674.163
82680.253
82686.311
82692.337
82698.332
82704.294
82710.225
82716.124
82721.991
82727.827
82733.63
82739.401
82745.139
82750.843
82756.515
82762.154
82767.761
82773.335
82778.876
82784.385
82789.861
82795.303
82800.712
82806.088
82811.431
82816.742
82822.019
82827.263
82832.474
82837.651
82842.795
82847.905
82852.982
82858.026
82863.037
82868.015
82872.959
82877.871
82882.749
82887.595
82892.408
82897.189
82901.935
82906.649
82911.328
82915.975
82920.588
82925.17
82929.719
82934.237
82938.722
82943.175
82947.596
82951.985
82956.341
82960.664
82964.956
82969.215
82973.443
82977.639
82981.803
82985.937
82990.038
82994.109
82998.147
83002.155
83006.131
83010.076
83013.991
83017.874
83021.728
83025.551
83029.345
83033.109
83036.844
83040.55
83044.226
83047.872
83051.488
83055.075
83058.632
83062.16
83065.66
83069.132
83072.576
83075.993
83079.38
83082.74
83086.071
83089.374
83092.648
83095.896
83099.117
83102.311
83105.48
83108.623
83111.741
83114.832
83117.897
83120.936
83123.949
83126.935
83129.896
83132.832
83135.744
83138.631
83141.493
83144.332
83147.147
83149.939
83152.706
83155.451
83158.172
83160.87
83163.545
83166.197
83168.826
83171.433
83174.017
83176.578
83179.119
83181.637
83184.135
83186.612
83189.067
83191.502
83193.916
83196.31
83198.685
83201.04
83203.375
83205.69
83207.985
83210.262
83212.52
83214.76
83216.981
83219.185
83221.37
83223.538
83225.687
83227.819
83229.934
83232.033
83234.115
83236.18
83238.228
83240.261
83242.277
83244.278
83246.263
83248.232
83250.186
83252.125
83254.049
83255.959
83257.855
83259.737
83261.605
83263.458
83265.297
83267.123
83268.935
83270.734
83272.521
83274.294
83276.055
83277.804
83279.541
83281.266
83282.981
83284.683
83286.373
83288.051
83289.717
83291.373
83293.017
83294.65
83296.273
83297.885
83299.487
83301.079
83302.662
83304.235
83305.8
83307.354
83308.899
83310.434
83311.959
83313.475
83314.983
83316.482
83317.972
83319.454
83320.928
83322.394
83323.853
83325.305
83326.749
83328.185
83329.613
83331.033
83332.445
83333.849
83335.248
83336.64
83338.025
83339.404
83340.776
83342.142
83343.503
83344.858
83346.207
83347.55
83348.886
83350.216
83351.538
83352.856
83354.168
83355.476
83356.781
83358.08
83359.374
83360.663
83361.946
83363.224
83364.499
83365.769
83367.034
83368.295
83369.552
83370.803
83372.051
83373.295
83374.535
83375.773
83377.006
83378.236
83379.461
83380.683
83381.901
83383.117
83384.33
83385.54
83386.746
83387.949
83389.148
83390.344
83391.538
83392.729
83393.919
83395.106
83396.29
83397.471
83398.649
83399.825
83400.999
83402.171
83403.342
83404.509
83405.675
83406.838
83407.999
83409.158
83410.317
83411.475
83412.631
83413.785
83414.937
83416.087
83417.236
83418.384
83419.532
83420.678
83421.823
83422.968
83424.111
83425.253
83426.394
83427.535
83428.676
83429.815
83430.955
83432.094
83433.232
83434.371
83435.509
83436.648
83437.786
83438.925
83440.065
83441.204
83442.344
83443.483
83444.624
83445.765
83446.906
83448.048
83449.191
83450.335
83451.48
83452.627
83453.774
83454.923
83456.073
83457.224
83458.377
83459.532
83460.688
83461.845
83463.005
83464.167
83465.33
83466.496
83467.664
83468.834
83470.006
83471.18
83472.357
83473.536
83474.718
83475.903
83477.09
83478.28
83479.473
83480.669
83481.868
83483.07
83484.275
83485.483
83486.695
83487.91
83489.128
83490.35
83491.576
83492.805
83494.037
83495.273
83496.513
83497.757
83499.005
83500.256
83501.512
83502.771
83504.035
83505.303
83506.575
83507.851
83509.132
83510.417
83511.706
83512.999
83514.297
83515.6
83516.907
83518.218
83519.534
83520.854
83522.179
83523.509
83524.843
83526.182
83527.526
83528.874
83530.227
83531.586
83532.949
83534.317
83535.69
83537.068
83538.451
83539.838
83541.231
83542.629
83544.031
83545.439
83546.852
83548.269
83549.692
83551.12
83552.553
83553.991
83555.434
83556.882
83558.335
83559.793
83561.257
83562.725
83564.198
83565.677
83567.16
83568.649
83570.143
83571.641
83573.145
83574.653
83576.167
83577.686
83579.209
83580.737
83582.271
83583.809
83585.352
83586.9
83588.453
83590.011
83591.573
83593.14
83594.712
83596.288
83597.869
83599.454
83601.044
83602.638
83604.237
83605.84
83607.448
83609.059
83610.676
83612.296
83613.921
83615.549
83617.182
83618.819
83620.46
83622.105
83623.753
83625.406
83627.062
83628.722
83630.385
83632.053
83633.724
83635.398
83637.076
83638.757
83640.441
83642.128
83643.819
83645.513
83647.21
83648.91
83650.612
83652.318
83654.026
83655.737
83657.451
83659.167
83660.885
83662.606
83664.33
83666.056
83667.784
83669.515
83671.248
83672.983
83674.72
83676.458
83678.198
83679.939
83681.682
83683.428
83685.175
83686.923
83688.673
83690.425
83692.178
83693.932
83695.687
83697.444
83699.202
83700.961
83702.72
83704.481
83706.242
83708.004
83709.767
83711.53
83713.294
83715.059
83716.825
83718.591
83720.358
83722.125
83723.892
83725.66
83727.427
83729.195
83730.963
83732.732
83734.5
83736.268
83738.036
83739.804
83741.571
83743.338
83745.105
83746.872
83748.639
83750.405
83752.171
83753.937
83755.702
83757.466
83759.23
83760.993
83762.756
83764.518
83766.279
83768.039
83769.798
83771.557
83773.314
83775.071
83776.827
83778.582
83780.336
83782.088
83783.84
83785.591
83787.341
83789.089
83790.836
83792.583
83794.327
83796.071
83797.813
83799.554
83801.294
83803.032
83804.769
83806.505
83808.239
83809.971
83811.703
83813.433
83815.161
83816.888
83818.613
83820.337
83822.06
83823.781
83825.5
83827.217
83828.933
83830.648
83832.36
83834.071
83835.781
83837.489
83839.195
83840.899
83842.602
83844.303
83846.002
83847.7
83849.396
83851.09
83852.783
83854.473
83856.162
83857.849
83859.535
83861.218
83862.9
83864.58
83866.258
83867.935
83869.609
83871.282
83872.953
83874.622
83876.289
83877.954
83879.618
83881.28
83882.94
83884.598
83886.254
83887.908
83889.56
83891.21
83892.858
83894.505
83896.15
83897.793
83899.434
83901.073
83902.71
83904.345
83905.978
83907.608
83909.237
83910.864
83912.489
83914.112
83915.734
83917.353
83918.97
83920.586
83922.199
83923.811
83925.42
83927.028
83928.634
83930.238
83931.84
83933.439
83935.037
83936.633
83938.226
83939.818
83941.408
83942.995
83944.581
83946.166
83947.748
83949.328
83950.906
83952.482
83954.056
83955.629
83957.199
83958.768
83960.334
83961.898
83963.461
83965.021
83966.579
83968.135
83969.69
83971.242
83972.793
83974.341
83975.888
83977.432
83978.975
83980.515
83982.054
83983.59
83985.125
83986.657
83988.188
83989.716
83991.243
83992.767
83994.29
83995.81
83997.329
83998.845
84000.36
84001.872
84003.382
84004.89
84006.397
84007.901
84009.403
84010.904
84012.402
84013.898
84015.392
84016.884
84018.374
84019.862
84021.348
84022.831
84024.313
84025.793
84027.271
84028.746
84030.22
84031.691
84033.161
84034.629
84036.094
84037.557
84039.019
84040.478
84041.935
84043.391
84044.844
84046.295
84047.745
84049.192
84050.637
84052.08
84053.522
84054.961
84056.398
84057.833
84059.267
84060.698
84062.128
84063.555
84064.98
84066.404
84067.825
84069.245
84070.663
84072.078
84073.492
84074.904
84076.314
84077.722
84079.128
84080.532
84081.935
84083.335
84084.734
84086.131
84087.525
84088.918
84090.309
84091.698
84093.086
84094.471
84095.855
84097.237
84098.617
84099.995
84101.371
84102.745
84104.118
84105.489
84106.858
84108.225
84109.59
84110.953
84112.315
84113.675
84115.033
84116.389
84117.744
84119.096
84120.447
84121.796
84123.143
84124.488
84125.832
84127.173
84128.514
84129.852
84131.188
84132.523
84133.855
84135.186
84136.515
84137.843
84139.169
84140.493
84141.815
84143.135
84144.453
84145.769
84147.084
84148.398
84149.71
84151.019
84152.327
84153.633
84154.937
84156.239
84157.54
84158.839
84160.137
84161.433
84162.726
84164.018
84165.308
84166.596
84167.883
84169.168
84170.452
84171.733
84173.013
84174.291
84175.567
84176.841
84178.114
84179.385
84180.655
84181.923
84183.189
84184.453
84185.715
84186.976
84188.235
84189.492
84190.748
84192.003
84193.255
84194.505
84195.754
84197.001
84198.246
84199.49
84200.732
84201.973
84203.211
84204.448
84205.683
84206.916
84208.147
84209.377
84210.606
84211.833
84213.058
84214.281
84215.502
84216.722
84217.94
84219.156
84220.371
84221.584
84222.795
84224.005
84225.213
84226.419
84227.623
84228.826
84230.027
84231.226
84232.424
84233.62
84234.814
84236.006
84237.197
84238.386
84239.573
84240.759
84241.943
84243.125
84244.305
84245.484
84246.661
84247.836
84249.01
84250.182
84251.352
84252.52
84253.687
84254.852
84256.015
84257.177
84258.337
84259.496
84260.652
84261.807
84262.959
84264.11
84265.26
84266.408
84267.555
84268.699
84269.841
84270.982
84272.121
84273.258
84274.394
84275.528
84276.661
84277.791
84278.92
84280.046
84281.171
84282.295
84283.417
84284.537
84285.655
84286.772
84287.886
84288.999
84290.11
84291.219
84292.327
84293.433
84294.537
84295.639
84296.739
84297.837
84298.933
84300.028
84301.122
84302.213
84303.303
84304.39
84305.476
84306.559
84307.642
84308.722
84309.8
84310.877
84311.952
84313.025
84314.096
84315.165
84316.232
84317.298
84318.362
84319.424
84320.484
84321.541
84322.597
84323.651
84324.704
84325.754
84326.803
84327.85
84328.895
84329.938
84330.979
84332.018
84333.055
84334.09
84335.124
84336.156
84337.186
84338.213
84339.239
84340.263
84341.285
84342.305
84343.324
84344.341
84345.355
84346.368
84347.379
84348.388
84349.395
84350.4
84351.403
84352.405
84353.405
84354.402
84355.398
84356.393
84357.385
84358.375
84359.363
84360.35
84361.334
84362.317
84363.298
84364.277
84365.254
84366.23
84367.203
84368.175
84369.145
84370.113
84371.079
84372.043
84373.005
84373.966
84374.924
84375.881
84376.836
84377.789
84378.741
84379.69
84380.638
84381.584
84382.527
84383.469
84384.41
84385.348
84386.285
84387.219
84388.152
84389.083
84390.012
84390.939
84391.865
84392.788
84393.71
84394.63
84395.547
84396.464
84397.378
84398.291
84399.201
84400.11
84401.017
84401.922
84402.825
84403.727
84404.626
84405.524
84406.42
84407.314
84408.206
84409.096
84409.984
84410.87
84411.755
84412.638
84413.519
84414.398
84415.275
84416.15
84417.024
84417.896
84418.765
84419.633
84420.499
84421.364
84422.226
84423.086
84423.945
84424.801
84425.656
84426.508
84427.359
84428.208
84429.055
84429.9
84430.743
84431.585
84432.424
84433.262
84434.098
84434.933
84435.765
84436.596
84437.424
84438.251
84439.075
84439.898
84440.719
84441.538
84442.355
84443.169
84443.982
84444.793
84445.602
84446.409
84447.214
84448.017
84448.818
84449.618
84450.415
84451.211
84452.004
84452.796
84453.586
84454.373
84455.159
84455.943
84456.724
84457.504
84458.282
84459.057
84459.83
84460.602
84461.371
84462.138
84462.903
84463.666
84464.427
84465.186
84465.942
84466.697
84467.45
84468.201
84468.951
84469.698
84470.443
84471.186
84471.926
84472.664
84473.4
84474.135
84474.867
84475.597
84476.325
84477.051
84477.775
84478.497
84479.217
84479.934
84480.649
84481.361
84482.071
84482.778
84483.484
84484.187
84484.888
84485.587
84486.284
84486.979
84487.672
84488.362
84489.051
84489.737
84490.421
84491.103
84491.782
84492.46
84493.135
84493.808
84494.478
84495.147
84495.813
84496.476
84497.138
84497.797
84498.454
84499.109
84499.762
84500.413
84501.061
84501.708
84502.352
84502.994
84503.634
84504.272
84504.908
84505.541
84506.172
84506.801
84507.428
84508.052
84508.674
84509.294
84509.912
84510.528
84511.141
84511.753
84512.362
84512.969
84513.574
84514.178
84514.778
84515.377
84515.974
84516.569
84517.161
84517.752
84518.34
84518.927
84519.511
84520.093
84520.673
84521.251
84521.826
84522.4
84522.972
84523.541
84524.109
84524.674
84525.238
84525.799
84526.359
84526.916
84527.472
84528.025
84528.576
84529.125
84529.672
84530.218
84530.761
84531.301
84531.84
84532.377
84532.912
84533.445
84533.976
84534.505
84535.031
84535.556
84536.079
84536.599
84537.118
84537.635
84538.149
84538.662
84539.172
84539.681
84540.187
84540.691
84541.194
84541.694
84542.192
84542.688
84543.182
84543.674
84544.164
84544.652
84545.137
84545.621
84546.102
84546.582
84547.059
84547.535
84548.008
84548.479
84548.948
84549.415
84549.879
84550.342
84550.802
84551.261
84551.717
84552.171
84552.622
84553.072
84553.52
84553.965
84554.408
84554.849
84555.288
84555.725
84556.159
84556.591
84557.021
84557.449
84557.875
84558.298
84558.719
84559.138
84559.555
84559.969
84560.381
84560.791
84561.199
84561.604
84562.008
84562.408
84562.807
84563.203
84563.597
84563.989
84564.379
84564.766
84565.151
84565.533
84565.913
84566.291
84566.667
84567.04
84567.411
84567.779
84568.145
84568.509
84568.871
84569.23
84569.587
84569.942
84570.294
84570.643
84570.991
84571.336
84571.679
84572.019
84572.357
84572.693
84573.026
84573.357
84573.686
84574.012
84574.336
84574.657
84574.977
84575.293
84575.608
84575.92
84576.229
84576.537
84576.842
84577.144
84577.444
84577.742
84578.037
84578.331
84578.621
84578.91
84579.196
84579.479
84579.761
84580.039
84580.316
84580.59
84580.862
84581.132
84581.399
84581.664
84581.926
84582.186
84582.444
84582.7
84582.953
84583.204
84583.452
84583.698
84583.942
84584.184
84584.423
84584.66
84584.895
84585.128
84585.358
84585.586
84585.812
84586.035
84586.256
84586.475
84586.692
84586.907
84587.119
84587.329
84587.537
84587.743
84587.946
84588.147
84588.347
84588.544
84588.738
84588.931
84589.122
84589.31
84589.496
84589.68
84589.862
84590.042
84590.22
84590.396
84590.569
84590.741
84590.91
84591.078
84591.243
84591.406
84591.567
84591.727
84591.884
84592.039
84592.192
84592.343
84592.492
84592.639
84592.784
84592.927
84593.068
84593.207
84593.345
84593.48
84593.613
84593.745
84593.874
84594.002
84594.127
84594.251
84594.373
84594.493
84594.611
84594.727
84594.841
84594.953
84595.064
84595.173
84595.279
84595.384
84595.487
84595.589
84595.688
84595.786
84595.882
84595.976
84596.068
84596.158
84596.247
84596.333
84596.418
84596.501
84596.583
84596.662
84596.74
84596.816
84596.891
84596.963
84597.034
84597.103
84597.17
84597.235
84597.299
84597.361
84597.421
84597.479
84597.536
84597.591
84597.644
84597.695
84597.745
84597.792
84597.838
84597.883
84597.925
84597.966
84598.005
84598.042
84598.078
84598.112
84598.144
84598.174
84598.202
84598.229
84598.254
84598.277
84598.298
84598.318
84598.335
84598.351
84598.365
84598.378
84598.388
84598.397
84598.404
84598.409
84598.412
84598.414
84598.413
84598.411
84598.407
84598.401
84598.393
84598.383
84598.372
84598.358
84598.343
84598.326
84598.306
84598.285
84598.262
84598.238
84598.211
84598.182
84598.151
84598.119
84598.084
84598.048
84598.009
84597.969
84597.926
84597.881
84597.835
84597.786
84597.736
84597.683
84597.629
84597.572
84597.513
84597.453
84597.39
84597.325
84597.258
84597.189
84597.118
84597.044
84596.969
84596.891
84596.812
84596.73
84596.646
84596.56
84596.471
84596.381
84596.288
84596.193
84596.096
84595.997
84595.895
84595.792
84595.686
84595.577
84595.467
84595.354
84595.24
84595.122
84595.003
84594.881
84594.757
84594.631
84594.503
84594.372
84594.239
84594.104
84593.966
84593.827
84593.684
84593.54
84593.393
84593.244
84593.093
84592.94
84592.784
84592.626
84592.466
84592.303
84592.138
84591.971
84591.801
84591.63
84591.456
84591.279
84591.101
84590.92
84590.737
84590.552
84590.364
84590.174
84589.982
84589.788
84589.591
84589.392
84589.191
84588.988
84588.782
84588.575
84588.365
84588.152
84587.938
84587.721
84587.503
84587.281
84587.058
84586.833
84586.605
84586.376
84586.144
84585.91
84585.674
84585.435
84585.195
84584.953
84584.708
84584.462
84584.213
84583.962
84583.709
84583.454
84583.196
84582.935
84582.673
84582.408
84582.14
84581.871
84581.599
84581.325
84581.05
84580.773
84580.495
84580.215
84579.934
84579.651
84579.366
84579.078
84578.788
84578.494
84578.199
84577.9
84577.6
84577.299
84576.996
84576.693
84576.387
84576.08
84575.771
84575.458
84575.143
84574.825
84574.506
84574.185
84573.863
84573.54
84573.215
84572.888
84572.558
84572.226
84571.891
84571.554
84571.216
84570.877
84570.537
84570.194
84569.849
84569.501
84569.152
84568.8
84568.447
84568.093
84567.737
84567.378
84567.018
84566.655
84566.29
84565.924
84565.556
84565.186
84564.814
84564.44
84564.064
84563.687
84563.307
84562.926
84562.542
84562.157
84561.77
84561.38
84560.989
84560.596
84560.202
84559.805
84559.406
84559.006
84558.604
84558.2
84557.794
84557.387
84556.978
84556.567
84556.154
84555.74
84555.324
84554.906
84554.487
84554.066
84553.643
84553.219
84552.792
84552.364
84551.934
84551.502
84551.068
84550.632
84550.194
84549.753
84549.31
84548.865
84548.417
84547.967
84547.515
84547.06
84546.604
84546.144
84545.683
84545.22
84544.754
84544.286
84543.816
84543.343
84542.868
84542.391
84541.911
84541.429
84540.944
84540.457
84539.968
84539.476
84538.982
84538.485
84537.986
84537.486
84536.982
84536.477
84535.97
84535.459
84534.947
84534.432
84533.914
84533.394
84532.872
84532.347
84531.821
84531.292
84530.762
84530.229
84529.694
84529.157
84528.616
84528.073
84527.527
84526.979
84526.429
84525.876
84525.322
84524.767
84524.21
84523.65
84523.088
84522.523
84521.955
84521.384
84520.809
84520.232
84519.653
84519.073
84518.492
84517.911
84517.328
84516.743
84516.154
84515.562
84514.965
84514.364
84513.76
84513.153
84512.546
84511.939
84511.333
84510.728
84510.122
84509.513
84508.9
84508.28
84507.653
84507.02
84506.383
84505.745
84505.111
84504.48
84503.855
84503.232
84502.608
84501.979
84501.34
84500.689
84500.027
84499.355
84498.682
84498.013
84497.354
84496.707
84496.073
84495.444
84494.812
84494.166
84493.497
84492.803
84492.091
84491.374
84490.661
84489.96
84489.276
84488.621
84488.011
84487.441
84486.842
84486.187
84485.1
84484.486
84483.856
84483.181
84482.541
84481.889
84481.204
84480.503
84479.795
84479.084
84478.375
84477.673
84476.981
84476.299
84475.623
84474.95
84474.274
84473.593
84472.905
84472.21
84471.511
84470.809
84470.107
84469.407
84468.708
84468.011
84467.315
84466.618
84465.919
84465.217
84464.512
84463.803
84463.091
84462.378
84461.663
84460.948
84460.232
84459.515
84458.798
84458.079
84457.359
84456.636
84455.911
84455.183
84454.454
84453.724
84452.992
84452.258
84451.522
84450.786
84450.048
84449.309
84448.568
84447.825
84447.08
84446.334
84445.586
84444.836
84444.084
84443.33
84442.575
84441.819
84441.061
84440.301
84439.539
84438.776
84438.011
84437.244
84436.475
84435.704
84434.932
84434.158
84433.382
84432.604
84431.824
84431.043
84430.26
84429.475
84428.688
84427.899
84427.108
84426.315
84425.52
84424.724
84423.925
84423.125
84422.322
84421.518
84420.712
84419.904
84419.093
84418.281
84417.467
84416.651
84415.832
84415.012
84414.19
84413.365
84412.539
84411.71
84410.88
84410.047
84409.213
84408.376
84407.537
84406.696
84405.853
84405.008
84404.161
84403.311
84402.46
84401.606
84400.75
84399.892
84399.032
84398.17
84397.305
84396.438
84395.57
84394.698
84393.825
84392.949
84392.072
84391.192
84390.309
84389.425
84388.538
84387.649
84386.758
84385.865
84384.969
84384.071
84383.171
84382.269
84381.364
84380.457
84379.548
84378.637
84377.723
84376.807
84375.889
84374.968
84374.046
84373.121
84372.193
84371.264
84370.332
84369.398
84368.462
84367.523
84366.582
84365.639
84364.694
84363.746
84362.797
84361.844
84360.89
84359.934
84358.975
84358.014
84357.051
84356.085
84355.117
84354.147
84353.175
84352.201
84351.224
84350.246
84349.265
84348.281
84347.296
84346.308
84345.319
84344.327
84343.333
84342.336
84341.338
84340.337
84339.335
84338.33
84337.323
84336.314
84335.303
84334.289
84333.274
84332.256