/*--------------------------------*- C++ -*----------------------------------*\
  =========                 |
  \\      /  F ield         | OpenFOAM: The Open Source CFD Toolbox
   \\    /   O peration     | Website:  https://openfoam.org
    \\  /    A nd           | Version:  7
     \\/     M anipulation  |
\*---------------------------------------------------------------------------*/
FoamFile
{
    version     2.0;
    format      ascii;
    class       volVectorField;
    location    "0.00234";
    object      U;
}
// * * * * * * * * * * * * * * * * * * * * * * * * * * * * * * * * * * * * * //

dimensions      [0 1 -1 0 0 0 0];

internalField   nonuniform List<vector> 
5000
(
(-70.796446 3.921258e-17 0)
(-70.743982 3.9958017e-17 0)
(-70.718843 0 0)
(-70.690025 0 0)
(-70.662174 -2.1049403e-17 0)
(-70.634071 2.3938223e-32 -2.1056284e-17)
(-70.606012 2.1062932e-17 -4.4898339e-32)
(-70.577857 0 6.320171e-17)
(-70.549704 0 2.1070557e-17)
(-70.521475 -2.1073533e-17 -4.2147066e-17)
(-70.493247 -4.2150781e-17 -4.2150781e-17)
(-70.464961 2.1076916e-17 2.1076916e-17)
(-70.436676 2.1077383e-17 -1.7971658e-31)
(-70.40835 -2.1077608e-17 -1.8570911e-31)
(-70.380025 0 4.2153791e-17)
(-70.351672 -2.1076046e-17 -4.2152091e-17)
(-70.323321 2.1367926e-49 1.0683963e-49)
(-70.294953 2.1072682e-17 -1.8566571e-31)
(-70.266586 0 -2.1070328e-17)
(-70.238211 2.1068102e-17 4.2136204e-17)
(-70.209835 -2.1065245e-17 2.1065245e-17)
(-70.181459 -2.1062528e-17 0)
(-70.153081 4.2118579e-17 0)
(-70.124705 -2.1056306e-17 -2.1056306e-17)
(-70.09633 -2.1052799e-17 1.7950696e-31)
(-70.067958 -1.7349694e-31 -1.7349694e-31)
(-70.039588 2.1045899e-17 -2.1045899e-17)
(-70.011221 2.104253e-17 2.104253e-17)
(-69.982858 -4.2077403e-17 2.1038702e-17)
(-69.9545 3.6469264e-31 -2.1035215e-17)
(-69.926146 -3.6761331e-31 3.6761331e-31)
(-69.897796 2.1027726e-17 -1.7929318e-31)
(-69.869452 4.2047482e-17 -2.1023741e-17)
(-69.841113 -4.2040266e-17 2.1020133e-17)
(-69.812779 3.6436153e-31 2.1016117e-17)
(-69.784451 -1.8274655e-30 0)
(-69.756127 -7.2845792e-31 0)
(-69.72781 4.2009706e-17 -2.1004853e-17)
(-69.699498 -4.2001709e-17 -2.1000855e-17)
(-69.671191 -4.1994555e-17 2.0997278e-17)
(-69.64289 4.1986677e-17 -3.5203327e-31)
(-69.614594 -1.443692e-30 -2.0989833e-17)
(-69.586304 -4.1971925e-17 2.0985963e-17)
(-69.558019 2.0982495e-17 -3.5483323e-31)
(-69.529739 6.2935775e-17 -2.0978592e-17)
(-69.501465 -2.0974981e-17 2.0974981e-17)
(-69.473196 -2.0970785e-17 -7.2119093e-31)
(-69.444934 -1.4361423e-30 7.1807115e-31)
(-69.416677 -4.1923733e-17 -7.2088422e-31)
(-69.388428 0 3.5738012e-31)
(-69.360186 2.0951259e-17 2.0951259e-17)
(-69.331953 2.9765324e-33 0)
(-69.303728 -2.0938968e-17 0)
(-69.275513 4.1865332e-17 0)
(-69.247306 -7.3154631e-31 0)
(-69.219109 -4.1840216e-17 0)
(-69.19092 2.0914416e-17 0)
(-69.162738 -7.2207198e-31 0)
(-69.134563 -2.0906354e-17 0)
(-69.106392 0 0)
(-69.078224 2.0902796e-17 0)
(-69.050059 7.1291353e-31 0)
(-69.021891 5.9410872e-33 0)
(-68.993726 2.0904987e-17 -2.0904987e-17)
(-68.965556 -2.0906561e-17 -2.0906561e-17)
(-68.937386 7.3093558e-31 2.0908544e-17)
(-68.909213 2.0909869e-17 -3.5954801e-31)
(-68.881041 -2.0910985e-17 1.1102857e-49)
(-68.852867 -2.0910963e-17 2.0910963e-17)
(-68.824694 2.0910568e-17 0)
(-68.796523 2.0909073e-17 0)
(-68.768355 -2.0907386e-17 -2.0907386e-17)
(-68.740189 -2.0904802e-17 -2.0904802e-17)
(-68.712028 4.1804453e-17 0)
(-68.683871 2.0898948e-17 2.0898948e-17)
(-68.655719 -2.0895846e-17 7.2158325e-31)
(-68.627571 0 -2.0892182e-17)
(-68.599429 2.0888806e-17 -2.0888806e-17)
(-68.571292 -2.9679296e-33 2.0884948e-17)
(-68.54316 -2.088144e-17 4.176288e-17)
(-68.515034 2.0877496e-17 -4.1754992e-17)
(-68.486914 -5.9327295e-33 1.1865459e-32)
(-68.458799 5.9316014e-33 6.2609901e-17)
(-68.43069 2.0866402e-17 -4.1732804e-17)
(-68.402586 2.0862442e-17 -2.1701833e-30)
(-68.374489 7.2623563e-31 4.1717787e-17)
(-68.346396 -2.0854953e-17 -6.2564858e-17)
(-68.31831 0 2.0851423e-17)
(-68.290228 -2.0847494e-17 2.0847494e-17)
(-68.262152 -2.1623376e-30 -2.084397e-17)
(-68.234081 -7.2854078e-31 2.0840041e-17)
(-68.206016 2.0836512e-17 2.0836512e-17)
(-68.177956 2.0832576e-17 7.2531933e-31)
(-68.149902 -4.165808e-17 -4.165808e-17)
(-68.121852 -1.4412396e-30 -1.4412396e-30)
(-68.093809 2.0821558e-17 -2.0821558e-17)
(-68.065771 0 -2.0817612e-17)
(-68.037739 0 -7.3059076e-31)
(-68.009712 -2.0810123e-17 1.4490752e-30)
(-67.981692 -1.442915e-30 4.1613163e-17)
(-67.953676 4.1605269e-17 2.0802635e-17)
(-67.925666 -2.0799095e-17 -2.0799095e-17)
(-67.897662 -4.1590304e-17 2.9551688e-33)
(-67.869664 0 2.0791619e-17)
(-67.84167 2.0787685e-17 0)
(-67.813683 2.0784162e-17 -2.0784162e-17)
(-67.785701 -2.0780238e-17 -7.234971e-31)
(-67.757725 -2.0776725e-17 2.0776725e-17)
(-67.729754 0 -2.077281e-17)
(-67.701789 0 -2.0769307e-17)
(-67.673829 2.0765402e-17 4.1530804e-17)
(-67.645875 2.0761909e-17 2.0761909e-17)
(-67.617926 0 -6.227404e-17)
(-67.589982 -2.075453e-17 -2.075453e-17)
(-67.562044 7.254156e-31 6.2251933e-17)
(-67.534111 2.0747169e-17 -2.0747169e-17)
(-67.506184 -2.0743288e-17 -2.0743288e-17)
(-67.478262 5.8946102e-33 -1.178922e-32)
(-67.450345 -7.2490135e-31 -2.0735934e-17)
(-67.422434 -9.6866492e-50 6.2197377e-17)
(-67.394528 4.1457148e-17 -1.4492881e-30)
(-67.366628 -8.8356402e-33 -4.1450193e-17)
(-67.338733 -2.0721212e-17 4.1442424e-17)
(-67.310843 0 2.0717739e-17)
(-67.282959 -2.071386e-17 -2.071386e-17)
(-67.25508 2.0710396e-17 2.0710396e-17)
(-67.227207 2.0706526e-17 -2.0706526e-17)
(-67.199339 -4.1406135e-17 -4.1406135e-17)
(-67.171476 -2.0699198e-17 2.0699198e-17)
(-67.143619 4.1391471e-17 7.1467295e-31)
(-67.115768 2.0691859e-17 2.0691859e-17)
(-67.087922 -2.0688388e-17 4.1376775e-17)
(-67.060081 -2.0684504e-17 -2.0684504e-17)
(-67.032246 -2.0681032e-17 -2.0681032e-17)
(-67.004416 0 -2.0677154e-17)
(-66.976592 2.0673697e-17 -7.1978772e-31)
(-66.948773 2.066984e-17 -7.1671608e-31)
(-66.92096 -2.0666406e-17 7.1953388e-31)
(-66.893152 -7.1646396e-31 4.1325139e-17)
(-66.865349 2.0659148e-17 2.0659148e-17)
(-66.837552 -2.0655314e-17 -2.0655314e-17)
(-66.80976 -2.0651886e-17 -4.1303772e-17)
(-66.781973 0 -2.064804e-17)
(-66.754191 2.06446e-17 -2.06446e-17)
(-66.726415 2.0640745e-17 1.4314144e-30)
(-66.698645 -2.0637305e-17 4.1274611e-17)
(-66.67088 2.063346e-17 -5.864382e-33)
(-66.64312 -1.1726819e-32 5.8634094e-33)
(-66.615366 -2.0626213e-17 7.3603964e-49)
(-66.587617 2.062281e-17 2.062281e-17)
(-66.559873 -2.0618998e-17 -1.4299063e-30)
(-66.532134 1.4355299e-30 2.8710597e-30)
(-66.504401 2.061178e-17 2.061178e-17)
(-66.476673 -2.0608367e-17 -2.0608367e-17)
(-66.44895 2.060453e-17 2.060453e-17)
(-66.421233 2.0601101e-17 7.1433259e-31)
(-66.393521 -2.0597255e-17 -2.0597255e-17)
(-66.365815 0 2.0593826e-17)
(-66.338113 0 -2.9260135e-33)
(-66.310418 -2.0586578e-17 -2.0586578e-17)
(-66.282728 -2.0582763e-17 0)
(-66.255043 2.0579374e-17 2.0579374e-17)
(-66.227364 2.0575575e-17 1.423971e-30)
(-66.199689 -2.0572194e-17 -4.1144389e-17)
(-66.17202 -1.426397e-30 2.0568395e-17)
(-66.144356 2.0565006e-17 -5.8449263e-33)
(-66.116697 -2.0561195e-17 -2.0561195e-17)
(-66.089044 -2.0557794e-17 2.0557794e-17)
(-66.061396 0 -2.0553974e-17)
(-66.033754 2.0550571e-17 2.0550571e-17)
(-66.006116 2.0546751e-17 -8.5610556e-30)
(-65.978484 0 -5.6986414e-30)
(-65.950857 -2.0539536e-17 2.0539536e-17)
(-65.923236 -2.0536136e-17 -4.1072272e-17)
(-65.89562 0 0)
(-65.868009 2.0528894e-17 -1.4236577e-30)
(-65.840404 4.2701723e-30 -4.2701723e-30)
(-65.812804 -2.0521596e-17 2.0521596e-17)
(-65.785209 2.0517709e-17 2.0517709e-17)
(-65.75762 2.0514224e-17 1.4138946e-30)
(-65.730036 -2.0510298e-17 -2.0510298e-17)
(-65.702459 -1.4162957e-30 2.0506779e-17)
(-65.674886 1.4101947e-30 1.4101947e-30)
(-65.647319 8.7393589e-33 8.7393589e-33)
(-65.619758 2.0495254e-17 2.8397371e-30)
(-65.592202 -2.0491642e-17 -4.0983285e-17)
(-65.564652 -2.8415867e-30 2.0487591e-17)
(-65.537108 1.4088954e-30 2.0483926e-17)
(-65.509569 -1.4086138e-30 -1.4086138e-30)
(-65.482036 2.0476144e-17 1.41127e-30)
(-65.454508 0 -4.2562362e-30)
(-65.426987 0 1.4136449e-30)
(-65.399471 -2.0464363e-17 -2.0464363e-17)
(-65.371961 -2.0460842e-17 0)
(-65.344455 0 0)
(-65.316956 0 0)
(-65.289461 2.0450018e-17 0)
(-65.261972 7.621746e-50 -2.0446967e-17)
(-65.234487 -2.0443671e-17 4.2619583e-30)
(-65.207007 0 2.0440932e-17)
(-65.17953 2.0438026e-17 2.0438026e-17)
(-65.152058 -2.0435619e-17 -2.0435619e-17)
(-65.12459 -5.662257e-30 -2.0433124e-17)
(-65.097125 4.0862088e-17 4.0862088e-17)
(-65.069664 -2.042894e-17 1.4138228e-30)
(-65.042206 -4.2410964e-30 -4.2410964e-30)
(-65.014751 -2.9026192e-33 -2.0425366e-17)
(-64.987299 -2.0423786e-17 -2.0423786e-17)
(-64.959849 2.0422217e-17 2.0422217e-17)
(-64.932402 -2.9019615e-33 0)
(-64.904957 -2.8263038e-30 2.0419246e-17)
(-64.877515 1.4130481e-30 1.4130481e-30)
(-64.850075 -2.0416194e-17 -2.0416194e-17)
(-64.822637 0 -2.0414562e-17)
(-64.795202 2.0412847e-17 2.8428233e-30)
(-64.767771 1.4125816e-30 2.0411005e-17)
(-64.740342 5.6642892e-30 -4.0818117e-17)
(-64.712916 2.0406962e-17 2.0406962e-17)
(-64.685494 0 2.0404754e-17)
(-64.658075 -2.0402393e-17 -2.0402393e-17)
(-64.63066 -2.0399924e-17 2.0399924e-17)
(-64.603249 0 0)
(-64.575842 0 0)
(-64.548439 0 0)
(-64.52104 2.0388874e-17 2.0388874e-17)
(-64.493646 1.4108415e-30 -2.0385862e-17)
(-64.466256 -2.0382792e-17 -4.0765584e-17)
(-64.438871 0 2.0379633e-17)
(-64.411491 0 -1.4159803e-30)
(-64.384115 2.037316e-17 2.037316e-17)
(-64.356744 2.0369863e-17 2.0369863e-17)
(-64.329378 -2.0366512e-17 -4.0733024e-17)
(-64.302018 -2.0363152e-17 5.787556e-33)
(-64.274662 0 -5.7865894e-33)
(-64.247311 2.0356354e-17 2.0356354e-17)
(-64.219965 2.0352924e-17 2.0352924e-17)
(-64.192625 -2.0349504e-17 -4.0699009e-17)
(-64.165289 -2.0346059e-17 2.8913489e-33)
(-64.137959 0 -4.2380026e-30)
(-64.110634 2.0339175e-17 2.0339175e-17)
(-64.083313 -5.6468304e-30 -1.1293661e-29)
(-64.055998 -1.4100231e-30 -2.8200462e-30)
(-64.028688 2.0328851e-17 2.0328851e-17)
(-64.001383 -2.0325395e-17 -2.0325395e-17)
(-63.974083 -2.0321957e-17 0)
(-63.946788 0 -2.0318497e-17)
(-63.919498 2.0315055e-17 2.0315055e-17)
(-63.892214 -2.8229489e-30 2.0311592e-17)
(-63.864934 2.030815e-17 -2.030815e-17)
(-63.83766 2.8162187e-30 0)
(-63.810391 -4.0602501e-17 -2.0301251e-17)
(-63.783127 2.0297797e-17 2.0297797e-17)
(-63.755868 -2.8147863e-30 2.0294362e-17)
(-63.728614 -7.0444212e-30 -7.0444212e-30)
(-63.701365 -1.404033e-30 -4.0574964e-17)
(-63.674121 -2.0284041e-17 -4.0568081e-17)
(-63.646883 2.0280609e-17 6.0841827e-17)
(-63.619649 2.0277175e-17 4.0554349e-17)
(-63.592421 0 0)
(-63.565198 -2.0270324e-17 -4.0540648e-17)
(-63.537979 -2.0266904e-17 -2.0266904e-17)
(-63.510766 0 2.0263487e-17)
(-63.483558 2.0260071e-17 2.0260071e-17)
(-63.456355 2.0256658e-17 2.0256658e-17)
(-63.429157 -4.0506484e-17 -4.0506484e-17)
(-63.401964 -2.0249832e-17 -4.0499663e-17)
(-63.374776 2.0246417e-17 2.0246417e-17)
(-63.347592 2.0243011e-17 4.0486022e-17)
(-63.320414 5.614382e-30 5.614382e-30)
(-63.293241 -2.02362e-17 -4.04724e-17)
(-63.266073 2.0232794e-17 2.0232794e-17)
(-63.23891 -1.4028878e-30 -2.8057757e-30)
(-63.211752 -2.0225992e-17 -2.0225992e-17)
(-63.184599 2.0222596e-17 4.0445192e-17)
(-63.157451 -1.4050535e-30 -2.0219193e-17)
(-63.130308 1.4076905e-30 2.8153809e-30)
(-63.10317 -5.7447087e-33 2.0212397e-17)
(-63.076038 -1.3957299e-30 -2.0209005e-17)
(-63.04891 2.0205606e-17 2.0205606e-17)
(-63.021787 0 -4.040443e-17)
(-62.994669 0 8.4275668e-30)
(-62.967556 -2.019543e-17 4.039086e-17)
(-62.940448 -2.0192037e-17 -4.0384073e-17)
(-62.913345 0 -1.3971934e-30)
(-62.886248 0 2.0185268e-17)
(-62.859155 0 0)
(-62.832067 0 0)
(-62.804984 2.0175133e-17 2.0175133e-17)
(-62.777906 1.3902902e-30 -2.0171747e-17)
(-62.750833 -4.0336731e-17 -4.0336731e-17)
(-62.723765 8.5968455e-33 2.0164974e-17)
(-62.696703 2.0161591e-17 -5.7302689e-33)
(-62.669645 2.0158205e-17 2.0158205e-17)
(-62.642592 -2.7982981e-30 2.0154834e-17)
(-62.615545 -2.7921029e-30 -2.0151464e-17)
(-62.588502 -2.8632188e-33 0)
(-62.561464 -2.0144756e-17 -2.0144756e-17)
(-62.534431 -2.0141411e-17 -2.0141411e-17)
(-62.507403 -2.0138055e-17 0)
(-62.48038 4.0269401e-17 4.0269401e-17)
(-62.453361 6.0393986e-17 2.0131329e-17)
(-62.426348 -2.0127957e-17 -4.0255914e-17)
(-62.39934 -4.0249144e-17 1.3927585e-30)
(-62.372337 0 -5.7187875e-33)
(-62.345339 2.0117814e-17 2.0117814e-17)
(-62.318346 2.0114448e-17 2.0114448e-17)
(-62.291358 -2.0111084e-17 -2.0111084e-17)
(-62.264375 5.7149625e-33 2.0107737e-17)
(-62.237396 -8.5710157e-33 -2.0104387e-17)
(-62.210423 5.7130614e-33 1.1426123e-32)
(-62.183455 2.00977e-17 4.0195399e-17)
(-62.156491 2.0094355e-17 -2.0094355e-17)
(-62.129532 -2.0090997e-17 -2.0090997e-17)
(-62.102579 -4.0175278e-17 -2.0087639e-17)
(-62.07563 2.0084266e-17 -2.7856463e-30)
(-62.048686 8.19978e-50 2.0080892e-17)
(-62.021747 2.0077503e-17 0)
(-61.994813 5.5627712e-30 0)
(-61.967884 -4.0141421e-17 -2.0070711e-17)
(-61.94096 0 2.7861462e-30)
(-61.914042 0 -5.568493e-30)
(-61.887128 4.0120969e-17 -2.7880494e-30)
(-61.860219 -1.1138895e-29 2.0057063e-17)
(-61.833316 -4.0107294e-17 -2.0053647e-17)
(-61.806417 0 2.8493075e-33)
(-61.779524 2.0046794e-17 2.0046794e-17)
(-61.752635 2.0043354e-17 0)
(-61.725752 -2.0039915e-17 0)
(-61.698873 2.8473524e-33 0)
(-61.672 -2.781384e-30 0)
(-61.645131 2.8463698e-33 0)
(-61.618268 2.0026095e-17 0)
(-61.591409 -2.0022643e-17 0)
(-61.564556 -2.0019212e-17 -2.0019212e-17)
(-61.537708 0 0)
(-61.510865 2.0012412e-17 2.0012412e-17)
(-61.484027 -2.7780584e-30 0)
(-61.457194 -2.000575e-17 -2.000575e-17)
(-61.430366 4.0004968e-17 -5.5486067e-30)
(-61.403542 -5.5477183e-30 1.9999281e-17)
(-61.376724 -1.9996134e-17 0)
(-61.34991 -5.5516762e-30 0)
(-61.3231 -3.9980129e-17 -1.9990065e-17)
(-61.296296 3.9974312e-17 -2.7750177e-30)
(-61.269495 1.9984328e-17 1.9984328e-17)
(-61.242699 -1.9981599e-17 0)
(-61.215907 -2.8391804e-33 0)
(-61.189118 -1.9976414e-17 -1.9976414e-17)
(-61.162334 0 -1.9973956e-17)
(-61.135553 0 1.9971593e-17)
(-61.108776 1.9969307e-17 1.9969307e-17)
(-61.082002 -2.7693965e-30 0)
(-61.055231 -3.9929935e-17 -1.9964968e-17)
(-61.028464 2.8368987e-33 2.8368987e-33)
(-61.0017 5.988263e-17 1.9960877e-17)
(-60.974939 -1.9958904e-17 -1.9958904e-17)
(-60.948181 -1.9956955e-17 -1.9956955e-17)
(-60.921426 3.9910068e-17 1.9955034e-17)
(-60.894674 -1.9953115e-17 1.9953115e-17)
(-60.867925 1.9951204e-17 0)
(-60.841179 3.9898549e-17 -1.9949275e-17)
(-60.814437 -1.9947334e-17 -1.9947334e-17)
(-60.787697 -1.9945359e-17 1.9945359e-17)
(-60.76096 -1.9943356e-17 1.9943356e-17)
(-60.734227 1.9941305e-17 0)
(-60.707497 4.4949797e-50 -1.9939213e-17)
(-60.68077 -1.993706e-17 -1.993706e-17)
(-60.654046 1.9934858e-17 1.9934858e-17)
(-60.627326 -1.9932587e-17 1.9932587e-17)
(-60.600609 1.9930259e-17 0)
(-60.573896 5.5222417e-30 0)
(-60.547186 5.6631383e-33 0)
(-60.520481 1.9922861e-17 0)
(-60.493779 -3.9840537e-17 0)
(-60.467081 1.9917606e-17 0)
(-60.440387 5.5299697e-30 0)
(-60.413697 -5.5235399e-30 0)
(-60.387011 -1.9909304e-17 -1.9909304e-17)
(-60.36033 -3.9812869e-17 -9.5065851e-49)
(-60.333653 5.9710598e-17 1.9903533e-17)
(-60.30698 5.5203403e-30 0)
(-60.280312 -1.103903e-29 0)
(-60.253648 5.5130245e-30 0)
(-60.226989 -3.9783119e-17 -1.989156e-17)
(-60.200334 3.977698e-17 -2.7584927e-30)
(-60.173684 -5.51613e-30 1.9885407e-17)
(-60.147038 -3.9764593e-17 -1.9882296e-17)
(-60.120397 0 2.7600261e-30)
(-60.093761 0 -2.824555e-33)
(-60.067129 1.9872896e-17 -2.7591539e-30)
(-60.040502 -2.7558913e-30 1.9869734e-17)
(-60.013879 -1.9866572e-17 -1.9866572e-17)
(-59.987261 -1.9863391e-17 1.9863391e-17)
(-59.960648 1.9860212e-17 -1.1035216e-29)
(-59.93404 5.9571055e-17 -1.9857018e-17)
(-59.907437 -1.985383e-17 1.985383e-17)
(-59.880838 -1.9850632e-17 0)
(-59.854244 -5.6409826e-33 0)
(-59.827655 -1.9844249e-17 -1.9844249e-17)
(-59.80107 0 -2.7547347e-30)
(-59.77449 3.9675758e-17 1.9837879e-17)
(-59.747915 3.9669407e-17 -1.9834703e-17)
(-59.721345 -1.9831519e-17 -1.9831519e-17)
(-59.694779 -3.9656689e-17 0)
(-59.668218 -1.9825159e-17 1.9825159e-17)
(-59.641661 3.9643961e-17 1.982198e-17)
(-59.615109 3.963758e-17 -1.981879e-17)
(-59.588562 -3.9631216e-17 -5.499584e-30)
(-59.56202 -3.9624831e-17 2.9955457e-49)
(-59.535482 0 -2.7503149e-30)
(-59.508949 3.9612087e-17 1.9806043e-17)
(-59.482421 -1.9802866e-17 -1.9802866e-17)
(-59.455897 -3.9599367e-17 -1.1929797e-48)
(-59.429379 1.9796513e-17 -2.7485488e-30)
(-59.402865 1.9793338e-17 -1.9793338e-17)
(-59.376355 -2.8123527e-33 0)
(-59.349851 2.7472285e-30 0)
(-59.32335 1.9783839e-17 1.9783839e-17)
(-59.296855 -1.978067e-17 2.8110022e-33)
(-59.270364 -1.9777503e-17 -8.2292971e-30)
(-59.243878 1.9774333e-17 1.9774333e-17)
(-59.217397 -2.7422199e-30 0)
(-59.19092 -2.8092009e-33 0)
(-59.164448 -2.7413407e-30 -1.9764826e-17)
(-59.137981 -1.9761659e-17 5.4789944e-30)
(-59.111519 1.9758496e-17 1.9758496e-17)
(-59.085061 -8.2284954e-30 0)
(-59.058608 -2.7423939e-30 0)
(-59.03216 -5.4811064e-30 0)
(-59.005716 -1.9745885e-17 -1.9745885e-17)
(-58.979277 1.9742741e-17 2.8056123e-33)
(-58.952842 -2.7406469e-30 1.9739599e-17)
(-58.926412 -5.4720068e-30 -1.9736455e-17)
(-58.899987 -2.8042722e-33 1.9733311e-17)
(-58.873566 -3.9460331e-17 -5.4842821e-30)
(-58.84715 -1.9727019e-17 -3.9454039e-17)
(-58.820739 1.9723873e-17 1.9723873e-17)
(-58.794332 3.9441456e-17 8.2140806e-30)
(-58.76793 -2.7375905e-30 2.7375905e-30)
(-58.741532 -3.942889e-17 -2.7371546e-30)
(-58.71514 -1.9711308e-17 -1.9711308e-17)
(-58.688751 3.9416346e-17 0)
(-58.662368 1.970504e-17 0)
(-58.635989 -1.9701909e-17 1.9701909e-17)
(-58.609614 -1.9698778e-17 2.7349793e-30)
(-58.583245 -5.4662905e-30 -5.4662905e-30)
(-58.55688 1.9692518e-17 7.3286027e-50)
(-58.530519 0 -1.9689389e-17)
(-58.504163 0 1.968626e-17)
(-58.477812 1.9683132e-17 1.9683132e-17)
(-58.451465 0 0)
(-58.425123 -1.9676878e-17 -1.9676878e-17)
(-58.398785 1.9673751e-17 -2.7315046e-30)
(-58.372452 2.7953638e-33 1.9670624e-17)
(-58.346124 -5.4584775e-30 0)
(-58.3198 0 0)
(-58.293481 -1.9661238e-17 -1.9661238e-17)
(-58.267167 1.9658106e-17 5.5871698e-33)
(-58.240857 1.9654973e-17 7.3829937e-50)
(-58.214552 -3.9303675e-17 -1.9651837e-17)
(-58.188251 -1.96487e-17 1.96487e-17)
(-58.161955 1.9645561e-17 -2.7220071e-30)
(-58.135664 0 2.7271547e-30)
(-58.109377 0 -5.450646e-30)
(-58.083095 -1.9636135e-17 -1.9636135e-17)
(-58.056818 5.4544805e-30 1.963299e-17)
(-58.030545 1.9629842e-17 -5.4508164e-30)
(-58.004277 0 5.4527306e-30)
(-57.978014 0 -5.4518542e-30)
(-57.951755 -1.9620378e-17 -1.9620378e-17)
(-57.925501 8.1737535e-30 1.9617216e-17)
(-57.899251 1.961405e-17 -5.4464313e-30)
(-57.873006 0 2.7283494e-30)
(-57.846766 0 0)
(-57.820531 0 -1.9604534e-17)
(-57.7943 0 1.960136e-17)
(-57.768074 0 -2.7210134e-30)
(-57.741852 0 2.7846197e-33)
(-57.715636 0 -2.7201344e-30)
(-57.689424 0 2.7224802e-30)
(-57.663216 3.9171119e-17 1.9585559e-17)
(-57.637013 1.0869736e-29 -1.9582429e-17)
(-57.610815 -1.9579313e-17 -1.9579313e-17)
(-57.584621 1.9576213e-17 1.9576213e-17)
(-57.558432 -1.957313e-17 1.957313e-17)
(-57.532248 1.9570069e-17 0)
(-57.506067 -5.4389366e-30 -1.9567031e-17)
(-57.479892 -1.9564022e-17 -1.9564022e-17)
(-57.45372 -5.4317129e-30 0)
(-57.427554 -1.9558104e-17 1.9558104e-17)
(-57.401391 0 -2.7150455e-30)
(-57.375233 0 2.7785555e-33)
(-57.349079 1.9549534e-17 2.7114802e-30)
(-57.322929 5.4277491e-30 -1.954677e-17)
(-57.296784 -1.9544055e-17 1.9544055e-17)
(-57.270642 0 2.7103509e-30)
(-57.244505 0 -5.4255314e-30)
(-57.218371 0 -1.953623e-17)
(-57.192241 0 -1.9533733e-17)
(-57.166115 0 3.9062585e-17)
(-57.139993 0 -2.7752246e-33)
(-57.113874 0 2.7082955e-30)
(-57.087758 3.9048576e-17 1.9524288e-17)
(-57.061646 -1.6251556e-29 -1.9522049e-17)
(-57.035538 -3.9039702e-17 2.7101371e-30)
(-57.009432 1.9517692e-17 1.9517692e-17)
(-56.98333 2.773329e-33 0)
(-56.957232 1.9513475e-17 0)
(-56.931136 -1.0819224e-29 0)
(-56.905044 -3.901873e-17 -1.9509365e-17)
(-56.878955 -1.9507337e-17 -1.9507337e-17)
(-56.852869 -2.1103086e-50 1.9505322e-17)
(-56.826786 5.8509937e-17 1.9503312e-17)
(-56.800706 0 0)
(-56.77463 -3.8998588e-17 -1.9499294e-17)
(-56.748556 0 -1.9497276e-17)
(-56.722486 0 1.9495246e-17)
(-56.696418 3.8986399e-17 1.94932e-17)
(-56.670354 -5.4067596e-30 0)
(-56.644293 -5.846711e-17 -1.9489037e-17)
(-56.618235 1.9486911e-17 -1.9486911e-17)
(-56.592181 1.9484752e-17 1.9484752e-17)
(-56.566129 -1.9482557e-17 5.4099185e-30)
(-56.540082 1.9480325e-17 -1.9480325e-17)
(-56.514037 -1.9478055e-17 0)
(-56.487996 -5.4024921e-30 0)
(-56.461959 1.9473401e-17 0)
(-56.435925 -1.9471016e-17 0)
(-56.409895 0 1.9468593e-17)
(-56.383868 -1.9466129e-17 -5.3998241e-30)
(-56.357845 1.9463625e-17 -1.9463625e-17)
(-56.331826 3.8922164e-17 1.9461082e-17)
(-56.305811 -1.9458501e-17 2.7016192e-30)
(-56.279799 -1.9455883e-17 -2.7040206e-30)
(-56.253792 -1.9453231e-17 5.3017987e-50)
(-56.227788 -1.9450548e-17 1.9450548e-17)
(-56.201789 3.8895674e-17 1.9447837e-17)
(-56.175794 1.9445101e-17 -3.8890201e-17)
(-56.149803 -1.9442341e-17 -2.6993756e-30)
(-56.123816 0 2.6962268e-30)
(-56.097833 1.9436756e-17 -1.9436756e-17)
(-56.071854 -1.9433935e-17 0)
(-56.04588 -1.9431096e-17 1.9431096e-17)
(-56.019909 5.828472e-17 1.942824e-17)
(-55.993943 5.521022e-33 -1.9425369e-17)
(-55.967982 -3.884497e-17 -5.3877174e-30)
(-55.942024 1.9419589e-17 1.9419589e-17)
(-55.916071 2.6958133e-30 0)
(-55.890122 1.9413769e-17 0)
(-55.864177 -5.5168947e-33 -1.9410848e-17)
(-55.838237 -3.8815841e-17 2.6918386e-30)
(-55.812301 1.9404989e-17 1.9404989e-17)
(-55.786369 0 0)
(-55.760442 -5.3867476e-30 -1.9399113e-17)
(-55.734519 -2.7563614e-33 2.7563614e-33)
(-55.708601 -1.9393221e-17 -5.3851117e-30)
(-55.682686 1.9390269e-17 -2.6893905e-30)
(-55.656776 -5.3834712e-30 1.9387314e-17)
(-55.630871 -2.6885701e-30 -1.9384355e-17)
(-55.60497 -2.7542616e-33 2.7542616e-33)
(-55.579073 -1.9378431e-17 -5.3810045e-30)
(-55.55318 1.9375468e-17 -1.9375468e-17)
(-55.527293 6.7959399e-50 1.9372507e-17)
(-55.501409 -5.3785383e-30 5.3785383e-30)
(-55.47553 -2.7521586e-33 2.7521586e-33)
(-55.449655 -3.8727286e-17 -2.6884492e-30)
(-55.423785 -2.6852886e-30 -1.9360695e-17)
(-55.397919 1.935775e-17 1.935775e-17)
(-55.372057 0 0)
(-55.346199 0 -1.0744504e-29)
(-55.320346 -1.9348917e-17 -2.683655e-30)
(-55.294497 -8.049739e-30 -8.049739e-30)
(-55.268652 1.9343022e-17 -2.7488088e-33)
(-55.242812 -1.9340073e-17 -1.9340073e-17)
(-55.216976 2.6847672e-30 1.9337123e-17)
(-55.191145 2.7060399e-49 2.7060399e-49)
(-55.165318 -2.6839487e-30 -2.6839487e-30)
(-55.139495 1.9328283e-17 5.3670797e-30)
(-55.113676 1.9325339e-17 -2.6831311e-30)
(-55.087862 2.6799766e-30 3.8644792e-17)
(-55.062053 -1.9319453e-17 -1.9319453e-17)
(-55.036247 0 -1.931651e-17)
(-55.010446 0 -2.6814966e-30)
(-54.98465 1.9310625e-17 2.6810882e-30)
(-54.958858 -1.9307687e-17 3.8615374e-17)
(-54.93307 1.6070663e-29 -1.9304752e-17)
(-54.907286 1.9301821e-17 -1.9301821e-17)
(-54.881507 -1.9298893e-17 6.6934812e-50)
(-54.855732 0 0)
(-54.829962 1.9293046e-17 6.6738523e-50)
(-54.804196 1.9290125e-17 -1.9290125e-17)
(-54.778433 -1.9287204e-17 1.9287204e-17)
(-54.752676 -1.9284282e-17 6.6769018e-50)
(-54.726922 0 -2.674285e-30)
(-54.701173 1.9278438e-17 -2.7396309e-33)
(-54.675428 1.9275516e-17 -1.9275516e-17)
(-54.649688 -3.854519e-17 3.854519e-17)
(-54.623951 -1.9269675e-17 5.3508052e-30)
(-54.598219 1.9266756e-17 -1.9266756e-17)
(-54.572492 1.9263839e-17 2.6718548e-30)
(-54.546768 2.6714504e-30 -2.6714504e-30)
(-54.521049 1.9258008e-17 1.9258008e-17)
(-54.495335 5.3467563e-30 -1.9255093e-17)
(-54.469624 -3.8504357e-17 -2.6698061e-49)
(-54.443918 0 -8.0204414e-30)
(-54.418216 0 5.3470626e-30)
(-54.392518 0 -5.3407829e-30)
(-54.366825 1.9240513e-17 -5.3427075e-30)
(-54.341136 1.9237596e-17 6.7001933e-50)
(-54.315451 0 0)
(-54.289771 -1.923176e-17 1.923176e-17)
(-54.264095 -2.664268e-30 0)
(-54.238423 1.922592e-17 0)
(-54.212755 0 -1.9222999e-17)
(-54.187092 0 -5.3370327e-30)
(-54.161433 -1.9217151e-17 1.9217151e-17)
(-54.135778 -2.6649734e-30 0)
(-54.110128 2.6618369e-30 0)
(-54.084482 -1.9208361e-17 -3.8416723e-17)
(-54.05884 1.9205424e-17 -1.5987975e-29)
(-54.033202 -7.990035e-30 3.8404968e-17)
(-54.007569 -1.919954e-17 -1.919954e-17)
(-53.98194 0 2.7280002e-33)
(-53.956316 -1.9193648e-17 -2.664847e-30)
(-53.930696 -2.6644376e-30 -1.9190699e-17)
(-53.90508 1.9187749e-17 0)
(-53.879468 -1.9184797e-17 0)
(-53.853861 1.9181843e-17 0)
(-53.828258 1.9178888e-17 -1.9178888e-17)
(-53.80266 -1.9175932e-17 -5.3193247e-30)
(-53.777066 0 1.9172977e-17)
(-53.751476 1.9170025e-17 0)
(-53.72589 1.9167076e-17 0)
(-53.700309 -1.9164133e-17 -1.9164133e-17)
(-53.674732 -1.9161197e-17 2.7229699e-33)
(-53.649159 0 1.915827e-17)
(-53.623591 -1.9155354e-17 0)
(-53.598027 1.915245e-17 0)
(-53.572467 1.9149559e-17 -1.9149559e-17)
(-53.546912 -1.9146682e-17 -5.3112109e-30)
(-53.52136 -3.8287646e-17 -5.3185793e-30)
(-53.495813 1.063014e-29 5.3150702e-30)
(-53.47027 5.7414497e-17 1.9138166e-17)
(-53.444731 6.1325266e-50 -1.9135374e-17)
(-53.419197 -1.913261e-17 5.3100262e-30)
(-53.393666 -3.8259757e-17 -5.3092681e-30)
(-53.368139 1.0611602e-29 5.3058012e-30)
(-53.342617 3.8249037e-17 1.9124519e-17)
(-53.317098 -1.9121892e-17 0)
(-53.291583 1.9119303e-17 0)
(-53.266072 -1.9116749e-17 -1.9116749e-17)
(-53.240564 -1.9114233e-17 -1.1981934e-48)
(-53.215061 3.8223509e-17 1.9111755e-17)
(-53.18956 0 0)
(-53.164064 0 0)
(-53.138571 -3.8209101e-17 -1.910455e-17)
(-53.113082 -3.100118e-49 -6.2002361e-49)
(-53.087596 3.8199885e-17 1.9099942e-17)
(-53.062114 0 0)
(-53.036635 0 0)
(-53.011159 -3.8186624e-17 -1.9093312e-17)
(-52.985687 -2.4122181e-49 -4.8244363e-49)
(-52.960217 3.817813e-17 1.9089065e-17)
(-52.934752 0 0)
(-52.909289 0 0)
(-52.883829 -3.8165816e-17 -1.9082908e-17)
(-52.858372 -1.90809e-17 2.711559e-33)
(-52.832919 3.8157819e-17 1.907891e-17)
(-52.807468 1.9076932e-17 -1.9076932e-17)
(-52.78202 0 5.2994484e-30)
(-52.756576 -3.8145999e-17 -5.2989029e-30)
(-52.731134 1.0591295e-29 5.2956477e-30)
(-52.705695 3.8138148e-17 1.9069074e-17)
(-52.680259 -1.9067105e-17 0)
(-52.654826 0 0)
(-52.629396 1.9063138e-17 0)
(-52.60397 -1.9061136e-17 0)
(-52.578546 2.7084637e-33 0)
(-52.553125 1.9057084e-17 -1.9057084e-17)
(-52.527708 -1.905503e-17 5.2884948e-30)
(-52.502293 1.9052953e-17 1.9052953e-17)
(-52.476882 1.9050853e-17 0)
(-52.451474 -1.9048726e-17 0)
(-52.426069 -1.9046571e-17 0)
(-52.400667 5.2882479e-30 0)
(-52.375268 1.9042178e-17 0)
(-52.349873 -1.903994e-17 0)
(-52.324482 -5.286383e-30 0)
(-52.299093 1.9035378e-17 -1.9035378e-17)
(-52.273709 -1.9033055e-17 1.0564792e-29)
(-52.248327 1.9030704e-17 1.9030704e-17)
(-52.222949 1.9028325e-17 0)
(-52.197575 -1.9025918e-17 0)
(-52.172204 -1.9023484e-17 0)
(-52.146837 5.2817602e-30 0)
(-52.121474 1.9018542e-17 0)
(-52.096114 -1.9016034e-17 0)
(-52.070758 2.7019816e-33 0)
(-52.045405 1.9010954e-17 -1.9010954e-17)
(-52.020057 -1.9008384e-17 5.2755487e-30)
(-51.994712 1.9005794e-17 1.9005794e-17)
(-51.969371 1.9003188e-17 0)
(-51.944034 -1.9000564e-17 0)
(-51.9187 -3.799585e-17 -1.8997925e-17)
(-51.893371 1.0554617e-29 5.2773083e-30)
(-51.868045 3.7985209e-17 1.8992605e-17)
(-51.842724 -1.8989925e-17 0)
(-51.817406 2.6982483e-33 0)
(-51.792092 3.7969067e-17 0)
(-51.766782 5.3949589e-33 -1.8981824e-17)
(-51.741476 -1.8979107e-17 -5.2728175e-30)
(-51.716174 0 1.8976383e-17)
(-51.690876 1.8973653e-17 0)
(-51.665582 0 0)
(-51.640292 -1.8968175e-17 0)
(-51.615006 0 0)
(-51.589724 0 0)
(-51.564446 0 0)
(-51.539172 -1.8957173e-17 0)
(-51.513902 -6.1768881e-50 -1.8954415e-17)
(-51.488636 1.8951654e-17 2.693192e-33)
(-51.463374 0 1.894889e-17)
(-51.438116 1.8946125e-17 0)
(-51.412862 -5.2601937e-30 0)
(-51.387612 -1.8940592e-17 0)
(-51.362366 0 0)
(-51.337124 0 0)
(-51.311886 0 0)
(-51.286652 -1.892952e-17 0)
(-51.261422 5.2555821e-30 -1.8926751e-17)
(-51.236196 1.8923981e-17 -2.6892594e-33)
(-51.210974 0 1.892121e-17)
(-51.185756 1.891844e-17 0)
(-51.160542 5.2498172e-30 0)
(-51.135333 -1.8912901e-17 0)
(-51.110127 0 -1.8910131e-17)
(-51.084925 1.8907361e-17 1.0497709e-29)
(-51.059727 -1.8904589e-17 1.8904589e-17)
(-51.034533 1.0502689e-29 0)
(-51.009343 1.8899045e-17 -1.8899045e-17)
(-50.984157 -1.8896274e-17 -5.2498045e-30)
(-50.958975 0 1.8893504e-17)
(-50.933797 -1.8890736e-17 0)
(-50.908623 -5.2448128e-30 0)
(-50.883453 1.8885199e-17 -1.8885199e-17)
(-50.858287 0 -1.888243e-17)
(-50.833124 1.8879658e-17 1.8879658e-17)
(-50.807966 -1.8876885e-17 1.8876885e-17)
(-50.782812 -1.0481929e-29 0)
(-50.757662 1.8871333e-17 0)
(-50.732515 -1.0476163e-29 0)
(-50.707373 -2.6809878e-33 0)
(-50.682235 5.2405585e-30 1.8862993e-17)
(-50.6571 -2.6801971e-33 -2.6801971e-33)
(-50.63197 -1.8857427e-17 -3.7714854e-17)
(-50.606843 0 -1.8854642e-17)
(-50.58172 1.8851856e-17 3.7703711e-17)
(-50.556602 -5.2313322e-30 3.7698134e-17)
(-50.531487 -5.2305574e-30 -1.8846275e-17)
(-50.506376 6.4536827e-50 -1.8843479e-17)
(-50.481269 -5.2316816e-30 0)
(-50.456167 0 0)
(-50.431068 -3.7670133e-17 0)
(-50.405973 -5.2293429e-30 0)
(-50.380882 1.8829444e-17 -1.8829444e-17)
(-50.355794 -1.882663e-17 -5.2304558e-30)
(-50.330711 5.2243231e-30 1.8823812e-17)
(-50.305632 1.8820992e-17 0)
(-50.280557 1.8818169e-17 0)
(-50.255485 5.2246468e-30 0)
(-50.230417 -5.2238617e-30 0)
(-50.205354 1.8809686e-17 0)
(-50.180294 -1.880685e-17 0)
(-50.155238 -1.8804009e-17 0)
(-50.130185 0 0)
(-50.105137 -1.8798319e-17 0)
(-50.080092 5.2191293e-30 0)
(-50.055052 1.8792631e-17 0)
(-50.030015 0 0)
(-50.004982 0 0)
(-49.979952 0 0)
(-49.954927 -3.7562443e-17 -1.8781222e-17)
(-49.929905 2.0857521e-29 1.0428761e-29)
(-49.904887 3.7551072e-17 1.8775536e-17)
(-49.879873 0 0)
(-49.854862 0 0)
(-49.829855 0 1.876706e-17)
(-49.804852 0 -5.2104512e-30)
(-49.779852 0 2.6661532e-33)
(-49.754855 0 -1.8758566e-17)
(-49.729863 0 -1.8755776e-17)
(-49.704873 -3.7506027e-17 -1.0412012e-29)
(-49.679887 1.0418477e-29 5.2092385e-30)
(-49.654904 3.7494983e-17 1.8747491e-17)
(-49.629924 1.87447e-17 0)
(-49.604948 -1.87419e-17 0)
(-49.579975 -1.8739125e-17 0)
(-49.555006 5.2053887e-30 0)
(-49.53004 1.0393322e-29 0)
(-49.505076 1.873109e-17 -1.873109e-17)
(-49.480115 -1.8728422e-17 1.0398359e-29)
(-49.455156 1.8725702e-17 1.8725702e-17)
(-49.430201 1.8722942e-17 0)