/*--------------------------------*- C++ -*----------------------------------*\
  =========                 |
  \\      /  F ield         | OpenFOAM: The Open Source CFD Toolbox
   \\    /   O peration     | Website:  https://openfoam.org
    \\  /    A nd           | Version:  7
     \\/     M anipulation  |
\*---------------------------------------------------------------------------*/
FoamFile
{
    version     2.0;
    format      ascii;
    class       volScalarField;
    location    "0.00234";
    object      Uy;
}
// * * * * * * * * * * * * * * * * * * * * * * * * * * * * * * * * * * * * * //

dimensions      [0 1 -1 0 0 0 0];

internalField   nonuniform List<scalar> 
5000
(
3.921258e-17
3.9958017e-17
0
0
-2.1049403e-17
2.3938223e-32
2.1062932e-17
0
0
-2.1073533e-17
-4.2150781e-17
2.1076916e-17
2.1077383e-17
-2.1077608e-17
0
-2.1076046e-17
2.1367926e-49
2.1072682e-17
0
2.1068102e-17
-2.1065245e-17
-2.1062528e-17
4.2118579e-17
-2.1056306e-17
-2.1052799e-17
-1.7349694e-31
2.1045899e-17
2.104253e-17
-4.2077403e-17
3.6469264e-31
-3.6761331e-31
2.1027726e-17
4.2047482e-17
-4.2040266e-17
3.6436153e-31
-1.8274655e-30
-7.2845792e-31
4.2009706e-17
-4.2001709e-17
-4.1994555e-17
4.1986677e-17
-1.443692e-30
-4.1971925e-17
2.0982495e-17
6.2935775e-17
-2.0974981e-17
-2.0970785e-17
-1.4361423e-30
-4.1923733e-17
0
2.0951259e-17
2.9765324e-33
-2.0938968e-17
4.1865332e-17
-7.3154631e-31
-4.1840216e-17
2.0914416e-17
-7.2207198e-31
-2.0906354e-17
0
2.0902796e-17
7.1291353e-31
5.9410872e-33
2.0904987e-17
-2.0906561e-17
7.3093558e-31
2.0909869e-17
-2.0910985e-17
-2.0910963e-17
2.0910568e-17
2.0909073e-17
-2.0907386e-17
-2.0904802e-17
4.1804453e-17
2.0898948e-17
-2.0895846e-17
0
2.0888806e-17
-2.9679296e-33
-2.088144e-17
2.0877496e-17
-5.9327295e-33
5.9316014e-33
2.0866402e-17
2.0862442e-17
7.2623563e-31
-2.0854953e-17
0
-2.0847494e-17
-2.1623376e-30
-7.2854078e-31
2.0836512e-17
2.0832576e-17
-4.165808e-17
-1.4412396e-30
2.0821558e-17
0
0
-2.0810123e-17
-1.442915e-30
4.1605269e-17
-2.0799095e-17
-4.1590304e-17
0
2.0787685e-17
2.0784162e-17
-2.0780238e-17
-2.0776725e-17
0
0
2.0765402e-17
2.0761909e-17
0
-2.075453e-17
7.254156e-31
2.0747169e-17
-2.0743288e-17
5.8946102e-33
-7.2490135e-31
-9.6866492e-50
4.1457148e-17
-8.8356402e-33
-2.0721212e-17
0
-2.071386e-17
2.0710396e-17
2.0706526e-17
-4.1406135e-17
-2.0699198e-17
4.1391471e-17
2.0691859e-17
-2.0688388e-17
-2.0684504e-17
-2.0681032e-17
0
2.0673697e-17
2.066984e-17
-2.0666406e-17
-7.1646396e-31
2.0659148e-17
-2.0655314e-17
-2.0651886e-17
0
2.06446e-17
2.0640745e-17
-2.0637305e-17
2.063346e-17
-1.1726819e-32
-2.0626213e-17
2.062281e-17
-2.0618998e-17
1.4355299e-30
2.061178e-17
-2.0608367e-17
2.060453e-17
2.0601101e-17
-2.0597255e-17
0
0
-2.0586578e-17
-2.0582763e-17
2.0579374e-17
2.0575575e-17
-2.0572194e-17
-1.426397e-30
2.0565006e-17
-2.0561195e-17
-2.0557794e-17
0
2.0550571e-17
2.0546751e-17
0
-2.0539536e-17
-2.0536136e-17
0
2.0528894e-17
4.2701723e-30
-2.0521596e-17
2.0517709e-17
2.0514224e-17
-2.0510298e-17
-1.4162957e-30
1.4101947e-30
8.7393589e-33
2.0495254e-17
-2.0491642e-17
-2.8415867e-30
1.4088954e-30
-1.4086138e-30
2.0476144e-17
0
0
-2.0464363e-17
-2.0460842e-17
0
0
2.0450018e-17
7.621746e-50
-2.0443671e-17
0
2.0438026e-17
-2.0435619e-17
-5.662257e-30
4.0862088e-17
-2.042894e-17
-4.2410964e-30
-2.9026192e-33
-2.0423786e-17
2.0422217e-17
-2.9019615e-33
-2.8263038e-30
1.4130481e-30
-2.0416194e-17
0
2.0412847e-17
1.4125816e-30
5.6642892e-30
2.0406962e-17
0
-2.0402393e-17
-2.0399924e-17
0
0
0
2.0388874e-17
1.4108415e-30
-2.0382792e-17
0
0
2.037316e-17
2.0369863e-17
-2.0366512e-17
-2.0363152e-17
0
2.0356354e-17
2.0352924e-17
-2.0349504e-17
-2.0346059e-17
0
2.0339175e-17
-5.6468304e-30
-1.4100231e-30
2.0328851e-17
-2.0325395e-17
-2.0321957e-17
0
2.0315055e-17
-2.8229489e-30
2.030815e-17
2.8162187e-30
-4.0602501e-17
2.0297797e-17
-2.8147863e-30
-7.0444212e-30
-1.404033e-30
-2.0284041e-17
2.0280609e-17
2.0277175e-17
0
-2.0270324e-17
-2.0266904e-17
0
2.0260071e-17
2.0256658e-17
-4.0506484e-17
-2.0249832e-17
2.0246417e-17
2.0243011e-17
5.614382e-30
-2.02362e-17
2.0232794e-17
-1.4028878e-30
-2.0225992e-17
2.0222596e-17
-1.4050535e-30
1.4076905e-30
-5.7447087e-33
-1.3957299e-30
2.0205606e-17
0
0
-2.019543e-17
-2.0192037e-17
0
0
0
0
2.0175133e-17
1.3902902e-30
-4.0336731e-17
8.5968455e-33
2.0161591e-17
2.0158205e-17
-2.7982981e-30
-2.7921029e-30
-2.8632188e-33
-2.0144756e-17
-2.0141411e-17
-2.0138055e-17
4.0269401e-17
6.0393986e-17
-2.0127957e-17
-4.0249144e-17
0
2.0117814e-17
2.0114448e-17
-2.0111084e-17
5.7149625e-33
-8.5710157e-33
5.7130614e-33
2.00977e-17
2.0094355e-17
-2.0090997e-17
-4.0175278e-17
2.0084266e-17
8.19978e-50
2.0077503e-17
5.5627712e-30
-4.0141421e-17
0
0
4.0120969e-17
-1.1138895e-29
-4.0107294e-17
0
2.0046794e-17
2.0043354e-17
-2.0039915e-17
2.8473524e-33
-2.781384e-30
2.8463698e-33
2.0026095e-17
-2.0022643e-17
-2.0019212e-17
0
2.0012412e-17
-2.7780584e-30
-2.000575e-17
4.0004968e-17
-5.5477183e-30
-1.9996134e-17
-5.5516762e-30
-3.9980129e-17
3.9974312e-17
1.9984328e-17
-1.9981599e-17
-2.8391804e-33
-1.9976414e-17
0
0
1.9969307e-17
-2.7693965e-30
-3.9929935e-17
2.8368987e-33
5.988263e-17
-1.9958904e-17
-1.9956955e-17
3.9910068e-17
-1.9953115e-17
1.9951204e-17
3.9898549e-17
-1.9947334e-17
-1.9945359e-17
-1.9943356e-17
1.9941305e-17
4.4949797e-50
-1.993706e-17
1.9934858e-17
-1.9932587e-17
1.9930259e-17
5.5222417e-30
5.6631383e-33
1.9922861e-17
-3.9840537e-17
1.9917606e-17
5.5299697e-30
-5.5235399e-30
-1.9909304e-17
-3.9812869e-17
5.9710598e-17
5.5203403e-30
-1.103903e-29
5.5130245e-30
-3.9783119e-17
3.977698e-17
-5.51613e-30
-3.9764593e-17
0
0
1.9872896e-17
-2.7558913e-30
-1.9866572e-17
-1.9863391e-17
1.9860212e-17
5.9571055e-17
-1.985383e-17
-1.9850632e-17
-5.6409826e-33
-1.9844249e-17
0
3.9675758e-17
3.9669407e-17
-1.9831519e-17
-3.9656689e-17
-1.9825159e-17
3.9643961e-17
3.963758e-17
-3.9631216e-17
-3.9624831e-17
0
3.9612087e-17
-1.9802866e-17
-3.9599367e-17
1.9796513e-17
1.9793338e-17
-2.8123527e-33
2.7472285e-30
1.9783839e-17
-1.978067e-17
-1.9777503e-17
1.9774333e-17
-2.7422199e-30
-2.8092009e-33
-2.7413407e-30
-1.9761659e-17
1.9758496e-17
-8.2284954e-30
-2.7423939e-30
-5.4811064e-30
-1.9745885e-17
1.9742741e-17
-2.7406469e-30
-5.4720068e-30
-2.8042722e-33
-3.9460331e-17
-1.9727019e-17
1.9723873e-17
3.9441456e-17
-2.7375905e-30
-3.942889e-17
-1.9711308e-17
3.9416346e-17
1.970504e-17
-1.9701909e-17
-1.9698778e-17
-5.4662905e-30
1.9692518e-17
0
0
1.9683132e-17
0
-1.9676878e-17
1.9673751e-17
2.7953638e-33
-5.4584775e-30
0
-1.9661238e-17
1.9658106e-17
1.9654973e-17
-3.9303675e-17
-1.96487e-17
1.9645561e-17
0
0
-1.9636135e-17
5.4544805e-30
1.9629842e-17
0
0
-1.9620378e-17
8.1737535e-30
1.961405e-17
0
0
0
0
0
0
0
0
3.9171119e-17
1.0869736e-29
-1.9579313e-17
1.9576213e-17
-1.957313e-17
1.9570069e-17
-5.4389366e-30
-1.9564022e-17
-5.4317129e-30
-1.9558104e-17
0
0
1.9549534e-17
5.4277491e-30
-1.9544055e-17
0
0
0
0
0
0
0
3.9048576e-17
-1.6251556e-29
-3.9039702e-17
1.9517692e-17
2.773329e-33
1.9513475e-17
-1.0819224e-29
-3.901873e-17
-1.9507337e-17
-2.1103086e-50
5.8509937e-17
0
-3.8998588e-17
0
0
3.8986399e-17
-5.4067596e-30
-5.846711e-17
1.9486911e-17
1.9484752e-17
-1.9482557e-17
1.9480325e-17
-1.9478055e-17
-5.4024921e-30
1.9473401e-17
-1.9471016e-17
0
-1.9466129e-17
1.9463625e-17
3.8922164e-17
-1.9458501e-17
-1.9455883e-17
-1.9453231e-17
-1.9450548e-17
3.8895674e-17
1.9445101e-17
-1.9442341e-17
0
1.9436756e-17
-1.9433935e-17
-1.9431096e-17
5.828472e-17
5.521022e-33
-3.884497e-17
1.9419589e-17
2.6958133e-30
1.9413769e-17
-5.5168947e-33
-3.8815841e-17
1.9404989e-17
0
-5.3867476e-30
-2.7563614e-33
-1.9393221e-17
1.9390269e-17
-5.3834712e-30
-2.6885701e-30
-2.7542616e-33
-1.9378431e-17
1.9375468e-17
6.7959399e-50
-5.3785383e-30
-2.7521586e-33
-3.8727286e-17
-2.6852886e-30
1.935775e-17
0
0
-1.9348917e-17
-8.049739e-30
1.9343022e-17
-1.9340073e-17
2.6847672e-30
2.7060399e-49
-2.6839487e-30
1.9328283e-17
1.9325339e-17
2.6799766e-30
-1.9319453e-17
0
0
1.9310625e-17
-1.9307687e-17
1.6070663e-29
1.9301821e-17
-1.9298893e-17
0
1.9293046e-17
1.9290125e-17
-1.9287204e-17
-1.9284282e-17
0
1.9278438e-17
1.9275516e-17
-3.854519e-17
-1.9269675e-17
1.9266756e-17
1.9263839e-17
2.6714504e-30
1.9258008e-17
5.3467563e-30
-3.8504357e-17
0
0
0
1.9240513e-17
1.9237596e-17
0
-1.923176e-17
-2.664268e-30
1.922592e-17
0
0
-1.9217151e-17
-2.6649734e-30
2.6618369e-30
-1.9208361e-17
1.9205424e-17
-7.990035e-30
-1.919954e-17
0
-1.9193648e-17
-2.6644376e-30
1.9187749e-17
-1.9184797e-17
1.9181843e-17
1.9178888e-17
-1.9175932e-17
0
1.9170025e-17
1.9167076e-17
-1.9164133e-17
-1.9161197e-17
0
-1.9155354e-17
1.915245e-17
1.9149559e-17
-1.9146682e-17
-3.8287646e-17
1.063014e-29
5.7414497e-17
6.1325266e-50
-1.913261e-17
-3.8259757e-17
1.0611602e-29
3.8249037e-17
-1.9121892e-17
1.9119303e-17
-1.9116749e-17
-1.9114233e-17
3.8223509e-17
0
0
-3.8209101e-17
-3.100118e-49
3.8199885e-17
0
0
-3.8186624e-17
-2.4122181e-49
3.817813e-17
0
0
-3.8165816e-17
-1.90809e-17
3.8157819e-17
1.9076932e-17
0
-3.8145999e-17
1.0591295e-29
3.8138148e-17
-1.9067105e-17
0
1.9063138e-17
-1.9061136e-17
2.7084637e-33
1.9057084e-17
-1.905503e-17
1.9052953e-17
1.9050853e-17
-1.9048726e-17
-1.9046571e-17
5.2882479e-30
1.9042178e-17
-1.903994e-17
-5.286383e-30
1.9035378e-17
-1.9033055e-17
1.9030704e-17
1.9028325e-17
-1.9025918e-17
-1.9023484e-17
5.2817602e-30
1.9018542e-17
-1.9016034e-17
2.7019816e-33
1.9010954e-17
-1.9008384e-17
1.9005794e-17
1.9003188e-17
-1.9000564e-17
-3.799585e-17
1.0554617e-29
3.7985209e-17
-1.8989925e-17
2.6982483e-33
3.7969067e-17
5.3949589e-33
-1.8979107e-17
0
1.8973653e-17
0
-1.8968175e-17
0
0
0
-1.8957173e-17
-6.1768881e-50
1.8951654e-17
0
1.8946125e-17
-5.2601937e-30
-1.8940592e-17
0
0
0
-1.892952e-17
5.2555821e-30
1.8923981e-17
0
1.891844e-17
5.2498172e-30
-1.8912901e-17
0
1.8907361e-17
-1.8904589e-17
1.0502689e-29
1.8899045e-17
-1.8896274e-17
0
-1.8890736e-17
-5.2448128e-30
1.8885199e-17
0
1.8879658e-17
-1.8876885e-17
-1.0481929e-29
1.8871333e-17
-1.0476163e-29
-2.6809878e-33
5.2405585e-30
-2.6801971e-33
-1.8857427e-17
0
1.8851856e-17
-5.2313322e-30
-5.2305574e-30
6.4536827e-50
-5.2316816e-30
0
-3.7670133e-17
-5.2293429e-30
1.8829444e-17
-1.882663e-17
5.2243231e-30
1.8820992e-17
1.8818169e-17
5.2246468e-30
-5.2238617e-30
1.8809686e-17
-1.880685e-17
-1.8804009e-17
0
-1.8798319e-17
5.2191293e-30
1.8792631e-17
0
0
0
-3.7562443e-17
2.0857521e-29
3.7551072e-17
0
0
0
0
0
0
0
-3.7506027e-17
1.0418477e-29
3.7494983e-17
1.87447e-17
-1.87419e-17
-1.8739125e-17
5.2053887e-30
1.0393322e-29
1.873109e-17
-1.8728422e-17
1.8725702e-17
1.8722942e-17
-1.872019e-17
-1.8717503e-17
1.0388194e-29
1.8712364e-17
1.8709809e-17
-5.1892921e-30
-1.870443e-17
-1.8701635e-17
1.8698873e-17
1.8696219e-17
-1.8693681e-17
1.8691186e-17
0
-1.868589e-17
-1.8682994e-17
5.1817605e-30
1.8677094e-17
-1.8674294e-17
1.8671602e-17
1.8668967e-17
-1.866626e-17
1.8663317e-17
5.1815433e-30
-1.8656779e-17
-1.8653451e-17
-2.6503572e-33
3.7294222e-17
1.0351518e-29
-1.8641011e-17
-1.8637794e-17
0
1.8630444e-17
0
0
0
1.8615e-17
1.8611227e-17
-1.8607446e-17
-1.8603566e-17
0
1.8595079e-17
-5.1648484e-30
-1.8585735e-17
0
0
1.857127e-17
-1.0305758e-29
-1.8561485e-17
0
0
1.8546911e-17
-1.0292055e-29
-1.853597e-17
0
1.8523212e-17
-5.1417093e-30
5.1373024e-30
-5.1382126e-30
-1.8498174e-17
0
-1.8486795e-17
1.0255649e-29
1.8474518e-17
0
1.8460146e-17
-1.8452181e-17
-1.844392e-17
3.6871124e-17
5.122108e-30
-3.6837782e-17
5.112271e-30
1.8402669e-17
0
0
1.8379794e-17
-5.0988903e-30
-1.8363434e-17
0
1.8345054e-17
-1.8335303e-17
-1.8325317e-17
1.8315197e-17
0
-1.8294519e-17
1.8283726e-17
1.0142668e-29
-1.0136307e-29
1.8249399e-17
-1.5187389e-29
1.8225481e-17
-1.8213333e-17
5.0514631e-30
-1.0101088e-29
-3.6350895e-17
5.0381393e-30
1.8148842e-17
0
0
0
-3.6184713e-17
-1.8077452e-17
3.6124463e-17
1.8046813e-17
0
0
1.7999747e-17
7.3218354e-49
-1.796668e-17
0
-3.5863722e-17
-1.7913784e-17
3.5790737e-17
1.787678e-17
0
-3.5678364e-17
-5.0647437e-33
5.3401133e-17
-4.9321795e-30
-3.5519361e-17
1.7738544e-17
1.0070941e-32
-1.7695178e-17
4.9099935e-30
9.7924977e-30
1.762785e-17
0
1.7580268e-17
-9.7471585e-30
-3.5060454e-17
1.7504523e-17
-2.9101074e-29
-1.7452838e-17
3.4853422e-17
-2.472713e-33
-1.7373117e-17
0
0
0
-1.7258997e-17
1.7229533e-17
3.4399637e-17
-1.7169692e-17
-4.7591669e-30
-4.7456223e-30
-1.7075831e-17
0
1.7010003e-17
-2.4124966e-33
-3.3885389e-17
1.6908801e-17
9.3619086e-30
-1.6840004e-17
-1.6804727e-17
9.3174508e-30
3.3464038e-17
0
1.6656608e-17
1.6618068e-17
0
-1.6540065e-17
-1.6500894e-17
1.6461509e-17
0
-1.6380892e-17
0
0
1.625385e-17
-1.3498784e-29
-1.6165166e-17
0
0
1.603206e-17
1.5987673e-17
-1.5942725e-17
-1.5896974e-17
1.58503e-17
1.5802627e-17
-3.1508244e-17
-1.5705261e-17
4.3496963e-30
1.5607513e-17
-8.6316246e-30
-8.6040168e-30
1.5458095e-17
-1.5406832e-17
1.5354672e-17
-1.5301702e-17
-1.3001454e-32
1.5194787e-17
-3.0282972e-17
-1.5088297e-17
-1.5034885e-17
2.996171e-17
2.985208e-17
-1.4870399e-17
1.4813748e-17
-1.475599e-17
8.1624188e-30
2.9278138e-17
-1.4581079e-17
4.0307958e-30
-4.018864e-30
-1.4407311e-17
0
0
1.4227132e-17
1.4164938e-17
0
-1.4040405e-17
-1.3978709e-17
0
-1.3855273e-17
3.8300233e-30
1.3729783e-17
-1.366566e-17
3.7727872e-30
1.3535505e-17
0
1.3405538e-17
7.407012e-30
-1.3275729e-17
1.3210268e-17
-3.6442753e-30
-1.3077465e-17
-1.3010198e-17
-3.5920512e-30
1.2874654e-17
0
-1.2738226e-17
1.2670025e-17
-3.5817146e-33
6.9609848e-30
1.2466272e-17
-1.2398223e-17
0
-2.4521437e-17
2.7066905e-29
1.2119996e-17
6.6883862e-30
2.3958834e-17
-2.3819406e-17
-2.3680627e-17
2.3542081e-17
2.3402767e-17
1.1631006e-17
0
-1.1489062e-17
-2.2836612e-17
1.6126223e-33
-1.1277561e-17
1.1207442e-17
1.1137122e-17
-1.1066315e-17
2.1990128e-17
-2.1847209e-17
-1.8074463e-29
2.1562002e-17
-2.1420241e-17
5.9057561e-30
-1.0569133e-17
1.0498768e-17
1.0428382e-17
-1.0358019e-17
-2.8538392e-30
-2.0436623e-17
2.0297059e-17
2.0155998e-17
-2.0013435e-17
-2.7574075e-30
-9.864167e-18
5.4391426e-30
9.7247215e-18
2.6800442e-30
1.2991852e-47
9.5206018e-18
1.8904181e-17
-9.3832862e-18
-2.9627899e-47
-9.2457533e-18
-1.5287128e-29
9.1086082e-18
-1.8080649e-17
4.9802906e-30
1.7809397e-17
3.1994946e-48
-8.7710143e-18
0
0
-8.5709257e-18
8.5044059e-18
1.6875832e-17
0
0
0
-8.1760066e-18
-8.112023e-18
0
7.9856998e-18
-7.9235614e-18
-1.309358e-29
1.5598218e-17
0
0
0
-7.5463431e-18
-7.484723e-18
7.4242864e-18
-7.3646536e-18
-4.0570873e-30
1.4491976e-17
0
0
-1.4131943e-17
1.9911811e-33
6.9463728e-18
-6.8878555e-18
6.8305809e-18
-6.7746049e-18
3.731799e-30
1.3330121e-17
0
0
-6.5002976e-18
-6.4446617e-18
0
0
6.2792908e-18
6.2256294e-18
0
-6.1208396e-18
-6.0694742e-18
6.0185893e-18
-5.9680679e-18
-5.9179045e-18
5.8680134e-18
5.81833e-18
-3.203811e-30
-5.7197551e-18
5.6709112e-18
1.5603911e-30
-5.5737535e-18
0
-5.4774296e-18
3.014909e-30
5.3838371e-18
-5.3384473e-18
2.9390771e-30
5.2488695e-18
0
-5.1600788e-18
1.4207113e-30
7.2098731e-34
-5.0315093e-18
4.9898693e-18
4.9480368e-18
0
-9.7289948e-18
5.3576713e-30
4.7836976e-18
6.7428562e-34
9.4133905e-18
-9.3369774e-18
-9.2599763e-18
9.183077e-18
4.5535852e-18
0
-8.9600596e-18
7.3997746e-30
8.8184297e-18
0
-8.6776828e-18
-2.3903692e-30
4.2702362e-18
1.1765006e-30
8.4073438e-18
-8.3407131e-18
-1.0333887e-29
8.2104478e-18
-8.1481366e-18
2.2440091e-30
8.0279371e-18
3.9842723e-18
-7.9083827e-18
-3.9238065e-18
7.7873047e-18
-7.7284207e-18
-9.5806445e-30
7.6163978e-18
-7.5616212e-18
1.042257e-30
-3.7265755e-18
4.1061214e-30
1.1026375e-17
-2.0265248e-30
-7.2532263e-18
3.6019949e-18
7.1532718e-18
-3.5510396e-18
1.9576655e-30
-3.5016873e-18
-3.8634627e-30
3.4555354e-18
-6.865393e-18
2.8396753e-30
-3.7617443e-30
1.8680627e-30
3.3469383e-18
0
3.3077309e-18
3.2875878e-18
0
0
0
0
0
-3.1690601e-18
-3.1507876e-18
0
3.1152977e-18
-3.0988159e-18
-5.1357383e-30
6.1356635e-18
0
0
0
-3.0009005e-18
-2.9840909e-18
2.9685474e-18
2.9544492e-18
-5.8819352e-18
-4.8766086e-30
5.8252207e-18
0
-5.7709106e-18
-4.7863141e-30
2.8618647e-18
-2.8501585e-18
2.8371123e-18
-2.8228836e-18
-1.5588312e-30
5.5886872e-18
0
0
-2.761513e-18
-2.7528023e-18
0
-2.7324117e-18
-7.7333612e-34
-2.7096473e-18
2.6990977e-18
8.0685999e-18
0
5.3434809e-18
5.3240571e-18
0
-7.9262181e-18
-5.2657612e-18
5.2493715e-18
-2.6175294e-18
-2.6106488e-18
7.8089952e-18
2.5945702e-18
3.6749701e-34
2.5779022e-18
-2.5704669e-18
-2.5639631e-18
-2.5582455e-18
-3.0875574e-49
-2.5452847e-18
-2.5376642e-18
2.5301428e-18
0
5.0348121e-18
5.025317e-18
0
-2.5033199e-18
-4.9947852e-18
-1.3823744e-30
-2.4848503e-18
-4.9585902e-18
4.9495926e-18
4.9423229e-18
2.4673359e-18
2.4625423e-18
0
-2.4520132e-18
-7.3426829e-18
2.44417e-18
9.6596939e-48
-7.31895e-18
4.8730952e-18
2.4325572e-18
2.4283779e-18
4.8491548e-18
-4.842982e-18
-2.4192347e-18
2.4175662e-18
2.4157884e-18
2.4135147e-18
-7.2331177e-18
-2.4087098e-18
7.2198225e-18
2.4047914e-18
-2.4033606e-18
-4.8042777e-18
2.4009412e-18
-2.3998606e-18
3.9940754e-30
-3.994154e-30
-7.193007e-18
2.3975188e-18
2.3976352e-18
4.7958354e-18
2.3983022e-18
-4.7973559e-18
-6.8184691e-34
-2.3994695e-18
2.4000317e-18
7.2024757e-18
-7.2053908e-18
-2.4028831e-18
7.2125976e-18
0
-7.2232931e-18
-2.410067e-18
7.2374217e-18
-2.4148393e-18
-4.834377e-18
-1.3431404e-30
2.6892055e-30
2.4259449e-18
0
4.865273e-18
4.8719174e-18
-2.4395097e-18
-2.4434191e-18
-4.8953035e-18
2.4520124e-18
2.4563672e-18
-4.9214345e-18
0
4.9398495e-18
4.9498009e-18
-2.4801171e-18
-4.971087e-18
1.3827371e-30
2.4967036e-18
-5.0049509e-18
2.508377e-18
-8.3740833e-30
-5.0411988e-18
2.5269926e-18
0
5.0805081e-18
0
-5.6714153e-30
-2.5610569e-18
-5.1364657e-18
7.726615e-18
-7.341352e-34
-5.1812218e-18
0
5.2120658e-18
2.6138761e-18
-5.2437034e-18
2.9200744e-30
2.6383203e-18
-5.2935963e-18
2.6554094e-18
-4.4355733e-30
-5.3456716e-18
2.6816221e-18
-2.6904641e-18
5.3987869e-18
8.125322e-18
0
-8.1806704e-18
-5.4724673e-18
8.2368042e-18
5.5099503e-18
-2.7643556e-18
-5.5475613e-18
2.7832927e-18
2.7929214e-18
-5.605365e-18
2.8125663e-18
5.645111e-18
-2.8326254e-18
4.0397985e-34
-5.7058646e-18
-5.7262997e-18
8.6202468e-18
-2.8837203e-18
-4.8200531e-30
8.7130329e-18
0
-8.7749477e-18
-5.8707335e-18
2.9458254e-18
2.9563611e-18
2.9669472e-18
0
2.9880765e-18
-1.6644511e-30
-6.0182683e-18
1.6757381e-30
3.0303401e-18
0
3.0517316e-18
-6.1248323e-18
-9.2191623e-18
6.1672884e-18
9.2826006e-18
3.1047452e-18
-3.1152979e-18
-6.2517209e-18
3.1364236e-18
-3.1469741e-18
-3.1574997e-18
6.335983e-18
-6.3568864e-18
-3.1888545e-18
9.5977006e-18
6.4191896e-18
-3.2199444e-18
-9.6907999e-18
7.1949681e-30
-7.2175888e-30
-3.2608283e-18
-3.6311553e-30
-3.2808256e-18
3.2906938e-18
3.3004416e-18
3.3100634e-18
-3.3195919e-18
-3.3290859e-18
1.0015733e-17
-3.3480301e-18
-6.7147133e-18
1.0099529e-17
9.5939187e-34
-3.3846387e-18
6.7875621e-18
3.402875e-18
0
-3.4203303e-18
-3.4287082e-18
-6.8743018e-18
3.4457639e-18
-1.1504536e-29
-1.0387962e-17
3.470596e-18
3.4781855e-18
3.4857078e-18
-3.4934987e-18
-3.5014499e-18
1.0527585e-17
-3.5165834e-18
-7.0471871e-18
-5.879712e-30
-3.5369139e-18
7.087546e-18
1.0652145e-17
1.9741644e-30
-1.9782889e-30
-5.073648e-34
-3.5762643e-18
-7.1642192e-18
-3.5878865e-18
1.0780762e-17
-3.9955933e-30
-7.2089728e-18
0
0
3.6198428e-18
-2.0121394e-30
2.0144787e-30
3.6351647e-18
-7.2798239e-18
-3.6442174e-18
-4.0488467e-30
3.651457e-18
1.0963925e-17
3.6578721e-18
0
0
0
-1.1018676e-17
-7.3522488e-18
1.1037107e-17
-4.0884087e-30
-7.3692335e-18
0
0
7.3844993e-18
-8.2025822e-30
-4.1024095e-30
7.3963073e-18
-3.6998814e-18
-7.4028227e-18
-7.4054276e-18
3.7038721e-18
1.111544e-17
3.7067739e-18
0
0
0
-1.1136094e-17
-7.4250248e-18
1.1138495e-17
-8.2442317e-30
-3.7134569e-18
5.2776853e-34
-3.7141109e-18
7.4283911e-18
-4.1231909e-30
-3.7137604e-18
7.4265758e-18
0
-2.061014e-30
-7.4230786e-18
-7.4222217e-18
1.1132062e-17
7.4203258e-18
-3.7094719e-18
-2.0580247e-30
3.7075565e-18
-1.1119087e-17
-7.4100577e-18
3.7035933e-18
3.7020734e-18
-3.7004896e-18
-3.6988663e-18
3.697205e-18
3.6954697e-18
-2.0502398e-30
2.0486231e-30
3.6896031e-18
0
3.6856276e-18
-7.3674464e-18
-1.1045092e-17
7.3590107e-18
7.3543422e-18
3.6747231e-18
-4.0761845e-30
-7.3393346e-18
3.6671377e-18
-3.6645841e-18
-3.6619509e-18
7.3184545e-18
-7.3128422e-18
-3.6535424e-18
3.6506087e-18
7.2952752e-18
3.6446595e-18
-7.2834113e-18
2.0187588e-30
-3.6358174e-18
-3.6328223e-18
1.0889266e-17
-3.6266117e-18
-3.6234003e-18
1.0860389e-17
-5.139802e-34
-1.0840393e-17
-3.6100873e-18
1.0820065e-17
-3.6032704e-18
-1.7649766e-47
-5.9877617e-30
-7.185783e-18
7.1787722e-18
7.1717386e-18
-3.5823465e-18
3.9730159e-30
7.1504421e-18
-3.571595e-18
-1.0703827e-17
-3.5642973e-18
3.5606765e-18
0
3.5533169e-18
7.0990781e-18
-5.038821e-34
-1.0626081e-17
-3.538348e-18
7.0692237e-18
-5.0175029e-34
-7.0536464e-18
7.0458478e-18
-5.8612058e-30
-7.0310339e-18
1.0535411e-17
7.0157547e-18
0
0
-3.4954975e-18
-1.0474912e-17
-3.4879942e-18
1.045297e-17
-3.8637552e-30
-6.9523633e-18
6.9437553e-18
6.9353147e-18
-3.4636519e-18
-6.9197022e-18
3.4560637e-18
3.4521319e-18
-1.0344315e-17
-3.4440643e-18
-5.7293858e-30
1.9062064e-30
3.4316152e-18
-3.4271501e-18
6.8452149e-18
1.0254583e-17
0
-1.0230869e-17
-6.8131572e-18
1.0207918e-17
-9.6588896e-34
-3.3940544e-18
6.7794258e-18
-3.3855389e-18
-3.3815708e-18
-3.749743e-30
3.3737137e-18
6.7392525e-18
-3.3654482e-18
-6.7223877e-18
-6.7137527e-18
3.7227406e-30
3.3480965e-18
-3.3437092e-18
6.6788259e-18
1.0005834e-17
0
-9.9823726e-18
-6.647038e-18
9.9583178e-18
-3.6813591e-30
-3.3109766e-18
3.3067382e-18
3.3025834e-18
-1.8299951e-30
-6.5889819e-18
1.8264046e-30
6.5722311e-18
-3.6427794e-30
-3.6378876e-30
-6.5459634e-18
-9.8061896e-18
6.5292443e-18
-3.6206992e-30
-1.084496e-29
3.2524367e-18
3.2481783e-18
6.487691e-18
-9.7185251e-18
-3.2352329e-18
6.4621244e-18
-6.4539627e-18
-1.8320095e-33
9.6562465e-18
3.2144862e-18
-3.2101417e-18
-9.6173164e-18
1.0663174e-29
6.3943892e-18
3.1930294e-18
-6.3777889e-18
-9.5541295e-18
9.5413125e-18
3.1760876e-18
3.5201637e-30
3.1673162e-18
-6.3259816e-18
1.7533407e-30
-3.1545429e-18
3.150339e-18
-1.0479645e-29
-9.425183e-18
9.4119693e-18
9.3987079e-18
0
0
0
-3.1157515e-18
-9.3345109e-18
-3.1071799e-18
-3.4445664e-30
-3.0983618e-18
9.2818538e-18
3.0896047e-18
-3.0853432e-18
-3.0811394e-18
-3.0769264e-18
6.1453054e-18
-3.0683102e-18
3.0639212e-18
-1.0189621e-29
-6.1103579e-18
9.1527351e-18
6.093457e-18
0
-6.0768113e-18
-3.3683678e-30
3.0298256e-18
-9.076408e-18
-3.0211406e-18
3.0168995e-18
0
0
3.0046516e-18
6.0009984e-18
-6.652619e-30
-5.9839649e-18
-2.9877088e-18
2.9835116e-18
-2.9794388e-18
2.9754743e-18
2.0420978e-47
-4.9424304e-30
8.8901763e-18
0
0
-5.9016386e-18
-5.8936072e-18
-2.9429313e-18
3.2624473e-30
8.8056869e-18
-3.2549283e-30
-5.8541919e-18
0
5.8376379e-18
2.914846e-18
-5.8220906e-18
2.9073401e-18
2.9035789e-18
-8.6990215e-18
2.8956302e-18
-9.630037e-30
-5.7748172e-18
8.650343e-18
5.7593873e-18
0
0
0
-8.5939784e-18
-5.7211189e-18
8.5693768e-18
5.704984e-18
0
-5.6904511e-18
3.1547125e-30
2.8379771e-18
-5.6680764e-18
2.8299455e-18
-2.8258285e-18
-2.8218433e-18
8.4543387e-18
-5.629265e-18
-5.6223936e-18
2.8075701e-18
-2.8036825e-18
5.5991871e-18
8.3863325e-18
0
-8.363026e-18
-5.5684539e-18
2.7808891e-18
2.7773741e-18
-3.0790697e-30
2.7694775e-18
-9.2111989e-30
-2.7611742e-18
-1.5309492e-30
-6.0959005e-49
2.7507906e-18
0
2.7436381e-18
-5.4790768e-18
-8.2058473e-18
8.1934164e-18
8.1820389e-18
0
-5.4417842e-18
-5.435224e-18
5.4278431e-18
-2.70986e-18
-2.7056098e-18
8.1043221e-18
-5.3952188e-18
-5.3884908e-18
2.6911839e-18
5.3759975e-18
2.6844088e-18
-8.0413263e-18
-2.6762822e-18
-4.4497712e-30
5.3366391e-18
1.514793e-33
-7.9851631e-18
5.3173423e-18
7.9659887e-18
2.6514699e-18
-7.941624e-18
-5.2858352e-18
7.9170948e-18
-5.8530813e-30
-5.2659857e-18
-2.6298512e-18
1.4577143e-30
5.2442152e-18
-2.9064047e-30
2.6141597e-18
2.6106046e-18
-7.821798e-18
-2.6040034e-18
-2.8871876e-30
5.1944731e-18
-8.6373243e-30
-7.7681077e-18
5.1705496e-18
-2.8672741e-30
-2.8643143e-30
-5.7183843e-30
-2.5720867e-18
7.705769e-18
-2.5647243e-18
-4.2634025e-30
-8.5150337e-30
-7.6589418e-18
2.5495069e-18
5.0923216e-18
-2.8228703e-30
2.5393094e-18
2.535741e-18
-5.0641078e-18
-5.0565416e-18
2.8021957e-30
7.5624547e-18
-2.7940035e-30
-2.5141844e-18
5.0215771e-18
-2.507052e-18
-2.5030564e-18
1.3864534e-30
-1.3850998e-30
2.4920609e-18
-4.9779996e-18
2.4856848e-18
-8.2674416e-30
-8.2526801e-30
7.4216993e-18
-4.9401365e-18
7.0104567e-34
4.9266773e-18
-2.4600361e-18
-7.3695928e-18
-2.4528653e-18
7.347355e-18
-2.714724e-30
-2.4416459e-18
4.8759974e-18
-4.8689307e-18
-1.214698e-29
2.4277163e-18
-2.4241386e-18
2.4202795e-18
-4.8325752e-18
2.4124064e-18
7.2265744e-18
0
0
-4.7978908e-18
-6.8068998e-34
4.7816005e-18
-2.3867741e-18
-7.1493886e-18
-2.3798612e-18
7.1299675e-18
6.7449646e-34
2.6303951e-30
4.7309983e-18
-7.0848344e-18
-1.1779669e-29
2.354179e-18
-2.3505891e-18
-2.3470446e-18
2.6030146e-30
2.3399527e-18
-4.6723328e-18
4.6643766e-18
-7.753856e-30
-4.6486314e-18
6.9623989e-18
4.6349709e-18
-2.313987e-18
-6.9303003e-18
-2.3059058e-18
2.3016465e-18
0
-2.2940469e-18
2.2907459e-18
6.8618464e-18
1.2674962e-30
-4.5588057e-18
2.2752862e-18
2.2712793e-18
-4.5349038e-18
2.2637465e-18
-2.2600454e-18
-4.5126559e-18
6.7577934e-18
-7.4893861e-30
4.9846341e-30
4.4811958e-18
-4.473022e-18
-2.2326524e-18
-2.2290612e-18
-2.4725249e-30
2.2216039e-18
-4.434803e-18
4.4261595e-18
6.6266073e-18
0
-2.2012643e-18
1.2198397e-30
6.2350525e-34
-6.5693605e-18
-2.1857752e-18
6.5451695e-18
-2.1776131e-18
-2.1105832e-47
6.5086407e-18
-2.165837e-18
-6.4865906e-18
-2.1583008e-18
4.3082514e-18
-2.1498718e-18
2.1457118e-18
-7.132881e-30
-4.2756306e-18
6.4018945e-18
2.3660734e-30
-9.4441921e-30
4.2452513e-18
-4.2370198e-18
-2.3471701e-30
2.1101006e-18
-4.2122222e-18
-2.1023119e-18
0
0
4.1813797e-18
-4.6333299e-30
-1.1840581e-33
-2.308239e-30
-2.0752155e-18
-2.0710601e-18
2.0668936e-18
2.0628574e-18
-4.1180468e-18
4.1106062e-18
-2.2775126e-30
-4.0953551e-18
4.0875714e-18
6.7937202e-30
-2.2602171e-30
2.0320065e-18
-4.0560907e-18
2.0241034e-18
-4.4855051e-30
-4.0328065e-18
0
4.0173765e-18
2.0047186e-18
-4.0014564e-18
-1.9967894e-18
1.9929835e-18
-3.3132148e-30
-1.9855944e-18
0
0
3.9474695e-18
3.9396765e-18
0
-3.9242331e-18
-1.9582384e-18
1.9543788e-18
-1.9504809e-18
1.9465053e-18
0
-3.8774023e-18
0
0
1.9272141e-18
-2.1350144e-30
-1.919224e-18
0
1.9117284e-18
1.0591289e-30
-1.9043881e-18
0
3.792829e-18
3.7845529e-18
-1.888266e-18
-2.091756e-30
1.880724e-18
-3.7538968e-18
-3.7461434e-18
3.7381611e-18
5.3006079e-34
4.132249e-30
5.2776017e-34
-3.7061522e-18
1.8493254e-18
-2.0487942e-30
1.8416875e-18
-1.8378948e-18
-5.5020248e-18
5.4900632e-18
1.8260747e-18
-1.8222505e-18
-2.0184801e-30
-1.8145158e-18
3.621213e-18
3.6135312e-18
-3.6056335e-18
-5.9898448e-30
-1.7944746e-18
-1.7904941e-18
3.5733054e-18
-1.7826851e-18
1.974229e-30
-9.8549062e-31
1.7705977e-18
3.5334744e-18
-3.5256703e-18
-3.5179453e-18
0
1.751412e-18
1.9401172e-30
-3.4877038e-18
-1.9317453e-30
5.2084787e-18
3.4642635e-18
0
-3.4480078e-18
-3.8182741e-30
-1.7158401e-18
-1.7117258e-18
5.1227024e-18
-9.452735e-31
-3.3985042e-18
1.6951244e-18
3.3820265e-18
-1.6869192e-18
-3.3656832e-18
-1.6787782e-18
0
3.3413657e-18
-1.6667314e-18
-4.9884882e-18
1.658878e-18
1.6548868e-18
3.3017444e-18
1.64676e-18
-3.2850728e-18
-1.6382574e-18
-1.6339541e-18
1.8091382e-30
1.6253124e-18
1.6210374e-18
3.233539e-18
1.6124641e-18
0
0
0
-3.1897751e-18
-3.1807576e-18
3.1717438e-18
1.7556442e-30
1.7510034e-30
-1.7463407e-30
-3.4864067e-30
3.1332691e-18
0
-3.1158665e-18
-1.5526929e-18
1.5476794e-18
-1.5431225e-18
-1.5386891e-18
0
0
3.053108e-18
-5.0678558e-30
-3.3683961e-30
3.0260958e-18
-3.0185587e-18
-3.0101237e-18
0
2.9890475e-18
-1.6526194e-30
-2.967753e-18
2.9582415e-18
1.6374795e-30
-2.9404856e-18
0
2.9228797e-18
1.4569665e-18
-2.9049113e-18
1.4479283e-18
3.2056174e-30
-2.8777925e-18
2.8688024e-18
2.8598048e-18
0
0
0
-2.8228031e-18
-2.8132434e-18
2.8036371e-18
0
-2.7845154e-18
0
-1.3828726e-18
2.7565105e-18
1.373682e-18
-1.3691469e-18
2.7292888e-18
1.3601693e-18
-2.7114294e-18
-1.3512707e-18
-1.4953706e-30
1.342359e-18
-2.9704575e-30
7.5790333e-34
2.6574489e-18
0
-1.3194059e-18
-2.6294139e-18
-1.3100059e-18
0
0
0
-1.2915033e-18
2.573989e-18
1.2825315e-18
-1.2781073e-18
-1.2737132e-18
1.2693398e-18
1.2649781e-18
-2.5212398e-18
0
2.503777e-18
2.4950146e-18
0
0
-2.4685961e-18
-1.3653563e-30
-1.2254676e-18
-1.2210592e-18
1.2166623e-18
-1.2122813e-18
1.2079197e-18
2.4071584e-18
1.1992599e-18
0
-2.3813534e-18
-1.3167542e-30
1.1821447e-18
-1.1778875e-18
-1.1736306e-18
-2.3387406e-18
2.3302081e-18
1.1608303e-18
-3.2871095e-34
1.1522607e-18
-2.2959358e-18
1.1436731e-18
-1.1393796e-18
-9.8938223e-48
1.1308083e-18
-2.2530712e-18
2.2445464e-18
2.2360425e-18
0
-1.1095445e-18
-2.2106317e-18
6.1118875e-31
1.0968648e-18
1.0926365e-18
-2.176806e-18
-2.1683241e-18
1.0799125e-18
2.1513074e-18
2.1427718e-18
-1.0671097e-18
-2.1256521e-18
1.0585361e-18
-1.054241e-18
1.7480946e-30
1.0456405e-18
-2.0826741e-18
2.0740637e-18
1.1461875e-30
-5.7087702e-30
2.0481973e-18
-2.0395555e-18
-4.5092148e-30
1.0111139e-18
-2.0135372e-18
1.0024127e-18
-2.8366147e-34
4.4124769e-30
9.8927275e-19
-1.9697373e-18
2.1769049e-30
-5.4163109e-31
9.7159285e-19
-2.7487993e-34
-1.9253862e-18
1.9164585e-18
5.4214792e-34
-4.2153614e-30
1.8895726e-18
-1.8805756e-18
-2.0777144e-30
1.8625195e-18
-9.2672863e-19
-9.2218576e-19
-9.1763123e-19
9.1306508e-19
-1.008559e-30
-1.8077951e-18
0
0
1.7801153e-18
2.5165231e-34
-1.7615571e-18
8.761251e-19
-9.6720779e-31
8.6678937e-19
1.9141378e-30
-1.7148252e-18
0
-8.4799438e-19
1.6865389e-18
8.3853345e-19
-1.8514944e-30
8.2902558e-19
-1.648507e-18
8.1946984e-19
-9.0418195e-31
-1.6197416e-18
0
0
7.954019e-19
-4.3882236e-31
7.8571671e-19
-7.8086476e-19
-2.328022e-18
2.313434e-18
7.6627693e-19
-1.5228085e-18
7.5652694e-19
1.2515538e-30
7.4675911e-19
-4.217034e-34
-2.4546654e-30
7.3207251e-19
-1.4543345e-18
-7.2225756e-19
0
-7.1242641e-19
7.0750518e-19
7.0258036e-19
6.9765218e-19
-1.5380514e-30
7.6335338e-31
-7.5787594e-31
-1.3558316e-18
6.7297776e-19
1.1123413e-30
-1.3261959e-18
9.3529686e-35
6.5321494e-19
1.2965464e-18
1.2866635e-18
-1.2767812e-18
-7.035857e-31
-6.2850983e-19
-6.2357088e-19
1.237267e-18
-1.2273965e-18
-6.0876544e-19