/*--------------------------------*- C++ -*----------------------------------*\
  =========                 |
  \\      /  F ield         | OpenFOAM: The Open Source CFD Toolbox
   \\    /   O peration     | Website:  https://openfoam.org
    \\  /    A nd           | Version:  7
     \\/     M anipulation  |
\*---------------------------------------------------------------------------*/
FoamFile
{
    version     2.0;
    format      ascii;
    class       volScalarField;
    location    "0.00144";
    object      T;
}
// * * * * * * * * * * * * * * * * * * * * * * * * * * * * * * * * * * * * * //

dimensions      [0 0 0 1 0 0 0];

internalField   nonuniform List<scalar> 
5000
(
291.87464
291.86556
291.84831
291.83238
291.81647
291.80035
291.78405
291.76756
291.75091
291.7341
291.71715
291.70007
291.68287
291.66555
291.64811
291.63056
291.6129
291.59514
291.57726
291.55928
291.5412
291.52301
291.50472
291.48632
291.46783
291.44923
291.43053
291.41173
291.39283
291.37383
291.35473
291.33554
291.31625
291.29687
291.27739
291.25781
291.23815
291.21839
291.19854
291.17859
291.15856
291.13844
291.11823
291.09793
291.07755
291.05708
291.03652
291.01588
290.99516
290.97435
290.95347
290.9325
290.91145
290.89032
290.86912
290.84783
290.82647
290.80504
290.78353
290.76195
290.74029
290.71856
290.69676
290.67489
290.65296
290.63095
290.60888
290.58674
290.56453
290.54226
290.51993
290.49753
290.47508
290.45256
290.42998
290.40735
290.38465
290.3619
290.3391
290.31624
290.29332
290.27035
290.24733
290.22426
290.20114
290.17797
290.15475
290.13149
290.10818
290.08482
290.06142
290.03798
290.0145
289.99097
289.9674
289.9438
289.92016
289.89648
289.87276
289.84901
289.82522
289.8014
289.77755
289.75367
289.72976
289.70582
289.68185
289.65786
289.63383
289.60979
289.58572
289.56162
289.53751
289.51337
289.48922
289.46504
289.44085
289.41664
289.39241
289.36817
289.34392
289.31965
289.29537
289.27109
289.24679
289.22248
289.19817
289.17385
289.14952
289.12519
289.10086
289.07652
289.05219
289.02785
289.00351
288.97918
288.95485
288.93052
288.9062
288.88189
288.85758
288.83328
288.80899
288.78471
288.76044
288.73619
288.71195
288.68772
288.66351
288.63932
288.61515
288.59099
288.56686
288.54274
288.51865
288.49459
288.47054
288.44653
288.42254
288.39858
288.37465
288.35075
288.32688
288.30304
288.27924
288.25547
288.23174
288.20804
288.18438
288.16077
288.13719
288.11366
288.09017
288.06672
288.04332
288.01996
287.99665
287.97339
287.95018
287.92702
287.90392
287.88086
287.85786
287.83492
287.81203
287.78921
287.76644
287.74373
287.72108
287.6985
287.67598
287.65352
287.63114
287.60881
287.58656
287.56438
287.54227
287.52023
287.49826
287.47637
287.45456
287.43282
287.41116
287.38958
287.36808
287.34666
287.32532
287.30407
287.28291
287.26183
287.24083
287.21993
287.19912
287.1784
287.15777
287.13723
287.11679
287.09644
287.07619
287.05604
287.03599
287.01604
286.99619
286.97644
286.9568
286.93726
286.91783
286.8985
286.87928
286.86017
286.84117
286.82229
286.80351
286.78485
286.7663
286.74787
286.72956
286.71136
286.69328
286.67532
286.65748
286.63976
286.62217
286.60469
286.58734
286.57012
286.55302
286.53605
286.51921
286.5025
286.48591
286.46946
286.45313
286.43694
286.42088
286.40495
286.38916
286.3735
286.35798
286.34259
286.32734
286.31223
286.29726
286.28242
286.26772
286.25316
286.23875
286.22447
286.21033
286.19634
286.18248
286.16877
286.1552
286.14178
286.12849
286.11536
286.10236
286.08951
286.0768
286.06424
286.05182
286.03955
286.02742
286.01543
286.00359
285.9919
285.98035
285.96894
285.95768
285.94657
285.9356
285.92477
285.91409
285.90355
285.89315
285.8829
285.87279
285.86282
285.853
285.84331
285.83377
285.82437
285.81511
285.80599
285.79701
285.78817
285.77946
285.7709
285.76247
285.75417
285.74602
285.73799
285.7301
285.72235
285.71472
285.70723
285.69987
285.69263
285.68553
285.67855
285.6717
285.66498
285.65838
285.6519
285.64555
285.63932
285.63321
285.62722
285.62134
285.61559
285.60995
285.60442
285.59901
285.5937
285.58851
285.58343
285.57846
285.5736
285.56884
285.56418
285.55963
285.55518
285.55083
285.54658
285.54243
285.53837
285.53441
285.53054
285.52677
285.52308
285.51949
285.51598
285.51256
285.50922
285.50597
285.5028
285.49971
285.49671
285.49378
285.49092
285.48815
285.48544
285.48281
285.48025
285.47776
285.47534
285.47299
285.4707
285.46848
285.46632
285.46423
285.46219
285.46021
285.4583
285.45643
285.45463
285.45288
285.45118
285.44953
285.44794
285.44639
285.44489
285.44344
285.44204
285.44068
285.43936
285.43809
285.43686
285.43567
285.43452
285.43341
285.43233
285.43129
285.43029
285.42932
285.42838
285.42748
285.42661
285.42577
285.42496
285.42418
285.42343
285.4227
285.422
285.42133
285.42068
285.42006
285.41946
285.41888
285.41832
285.41779
285.41727
285.41678
285.41631
285.41585
285.41541
285.41499
285.41459
285.4142
285.41383
285.41347
285.41313
285.4128
285.41249
285.41219
285.4119
285.41162
285.41136
285.4111
285.41086
285.41063
285.41041
285.4102
285.41
285.4098
285.40962
285.40944
285.40927
285.40911
285.40896
285.40881
285.40867
285.40854
285.40841
285.40829
285.40818
285.40807
285.40796
285.40787
285.40777
285.40768
285.4076
285.40752
285.40744
285.40737
285.4073
285.40723
285.40717
285.40711
285.40705
285.407
285.40695
285.4069
285.40686
285.40681
285.40677
285.40674
285.4067
285.40667
285.40663
285.4066
285.40657
285.40655
285.40652
285.4065
285.40647
285.40645
285.40643
285.40641
285.4064
285.40638
285.40636
285.40635
285.40633
285.40632
285.40631
285.4063
285.40629
285.40628
285.40627
285.40626
285.40625
285.40624
285.40623
285.40622
285.40622
285.40621
285.40621
285.4062
285.40619
285.40619
285.40619
285.40618
285.40618
285.40618
285.40618
285.40617
285.40617
285.40617
285.40617
285.40617
285.40616
285.40616
285.40616
285.40616
285.40615
285.40615
285.40615
285.40614
285.40614
285.40613
285.40613
285.40612
285.40612
285.40611
285.40611
285.40611
285.4061
285.40609
285.40609
285.40608
285.40608
285.40607
285.40606
285.40606
285.40605
285.40605
285.40605
285.40604
285.40604
285.40603
285.40603
285.40602
285.40601
285.406
285.406
285.406
285.40599
285.40599
285.40598
285.40598
285.40598
285.40597
285.40597
285.40597
285.40596
285.40596
285.40596
285.40596
285.40596
285.40596
285.40596
285.40596
285.40595
285.40595
285.40595
285.40595
285.40595
285.40594
285.40594
285.40594
285.40594
285.40593
285.40593
285.40593
285.40593
285.40592
285.40592
285.40592
285.40591
285.40591
285.40591
285.40591
285.4059
285.4059
285.40589
285.40589
285.40589
285.40588
285.40588
285.40588
285.40588
285.40587
285.40587
285.40587
285.40586
285.40586
285.40586
285.40586
285.40586
285.40585
285.40585
285.40585
285.40585
285.40584
285.40584
285.40584
285.40584
285.40584
285.40583
285.40583
285.40583
285.40583
285.40583
285.40583
285.40582
285.40582
285.40582
285.40582
285.40582
285.40582
285.40582
285.40581
285.40581
285.40581
285.40581
285.40581
285.40581
285.4058
285.4058
285.4058
285.4058
285.4058
285.4058
285.4058
285.4058
285.40579
285.40579
285.40579
285.40579
285.40579
285.40579
285.40579
285.40578
285.40578
285.40578
285.40578
285.40578
285.40578
285.40578
285.40578
285.40577
285.40577
285.40577
285.40577
285.40577
285.40577
285.40577
285.40577
285.40576
285.40576
285.40576
285.40576
285.40576
285.40576
285.40576
285.40576
285.40576
285.40575
285.40575
285.40575
285.40575
285.40575
285.40575
285.40575
285.40575
285.40575
285.40575
285.40575
285.40575
285.40575
285.40575
285.40575
285.40575
285.40574
285.40574
285.40574
285.40574
285.40574
285.40574
285.40574
285.40574
285.40574
285.40573
285.40573
285.40573
285.40573
285.40573
285.40573
285.40573
285.40573
285.40573
285.40573
285.40574
285.40574
285.40574
285.40574
285.40574
285.40574
285.40574
285.40574
285.40574
285.40574
285.40574
285.40574
285.40574
285.40574
285.40574
285.40574
285.40574
285.40574
285.40574
285.40574
285.40574
285.40574
285.40573
285.40574
285.40574
285.40574
285.40574
285.40574
285.40574
285.40574
285.40574
285.40574
285.40574
285.40574
285.40574
285.40574
285.40574
285.40575
285.40575
285.40575
285.40575
285.40575
285.40575
285.40575
285.40575
285.40575
285.40575
285.40575
285.40575
285.40575
285.40575
285.40576
285.40576
285.40576
285.40576
285.40576
285.40576
285.40576
285.40576
285.40576
285.40576
285.40576
285.40576
285.40576
285.40576
285.40576
285.40576
285.40576
285.40576
285.40576
285.40576
285.40577
285.40577
285.40577
285.40577
285.40577
285.40577
285.40577
285.40577
285.40577
285.40578
285.40578
285.40578
285.40578
285.40578
285.40578
285.40579
285.40579
285.40579
285.40579
285.4058
285.4058
285.4058
285.4058
285.4058
285.4058
285.4058
285.40581
285.40581
285.40581
285.40581
285.40581
285.40581
285.40581
285.40581
285.40581
285.40582
285.40582
285.40582
285.40582
285.40582
285.40582
285.40582
285.40583
285.40583
285.40583
285.40583
285.40583
285.40583
285.40583
285.40583
285.40584
285.40584
285.40584
285.40584
285.40584
285.40584
285.40584
285.40585
285.40585
285.40585
285.40585
285.40585
285.40586
285.40586
285.40586
285.40586
285.40587
285.40587
285.40587
285.40587
285.40588
285.40588
285.40588
285.40588
285.40588
285.40589
285.40589
285.40589
285.40589
285.40589
285.40589
285.40589
285.40589
285.40589
285.4059
285.4059
285.4059
285.4059
285.4059
285.40591
285.40591
285.40591
285.40591
285.40591
285.40591
285.40591
285.40591
285.40592
285.40592
285.40592
285.40592
285.40592
285.40592
285.40592
285.40592
285.40592
285.40593
285.40593
285.40593
285.40593
285.40594
285.40594
285.40594
285.40594
285.40594
285.40595
285.40595
285.40595
285.40595
285.40595
285.40595
285.40595
285.40595
285.40595
285.40595
285.40596
285.40596
285.40596
285.40596
285.40597
285.40597
285.40597
285.40597
285.40597
285.40598
285.40598
285.40598
285.40598
285.40598
285.40599
285.40599
285.40599
285.40599
285.40599
285.406
285.406
285.406
285.406
285.40601
285.40601
285.40601
285.40601
285.40601
285.40601
285.40602
285.40602
285.40602
285.40603
285.40603
285.40603
285.40603
285.40603
285.40603
285.40604
285.40604
285.40604
285.40604
285.40604
285.40605
285.40605
285.40605
285.40605
285.40605
285.40606
285.40606
285.40606
285.40606
285.40606
285.40606
285.40606
285.40607
285.40607
285.40607
285.40607
285.40608
285.40608
285.40608
285.40608
285.40608
285.40608
285.40608
285.40609
285.40609
285.40609
285.40609
285.4061
285.4061
285.4061
285.4061
285.4061
285.4061
285.4061
285.40611
285.40611
285.40611
285.40611
285.40611
285.40611
285.40612
285.40612
285.40612
285.40612
285.40612
285.40613
285.40613
285.40613
285.40613
285.40613
285.40613
285.40613
285.40613
285.40614
285.40614
285.40614
285.40614
285.40614
285.40614
285.40614
285.40615
285.40615
285.40615
285.40615
285.40615
285.40615
285.40615
285.40616
285.40616
285.40616
285.40616
285.40616
285.40617
285.40617
285.40617
285.40617
285.40617
285.40617
285.40617
285.40617
285.40617
285.40617
285.40617
285.40618
285.40618
285.40618
285.40618
285.40618
285.40618
285.40619
285.40619
285.40619
285.40619
285.40619
285.40619
285.40619
285.40619
285.40619
285.4062
285.4062
285.4062
285.4062
285.4062
285.4062
285.40621
285.40621
285.40621
285.40621
285.40621
285.40622
285.40622
285.40622
285.40622
285.40622
285.40622
285.40622
285.40623
285.40623
285.40623
285.40623
285.40624
285.40624
285.40624
285.40624
285.40624
285.40625
285.40625
285.40625
285.40625
285.40625
285.40625
285.40625
285.40626
285.40626
285.40626
285.40626
285.40627
285.40627
285.40627
285.40627
285.40627
285.40628
285.40628
285.40628
285.40628
285.40629
285.40629
285.40629
285.40629
285.40629
285.4063
285.4063
285.4063
285.4063
285.4063
285.40631
285.40631
285.40631
285.40631
285.40631
285.40631
285.40632
285.40632
285.40632
285.40632
285.40632
285.40632
285.40633
285.40633
285.40633
285.40633
285.40633
285.40634
285.40634
285.40634
285.40634
285.40634
285.40635
285.40635
285.40635
285.40635
285.40635
285.40635
285.40635
285.40636
285.40636
285.40636
285.40636
285.40637
285.40637
285.40637
285.40637
285.40637
285.40638
285.40638
285.40638
285.40638
285.40638
285.40638
285.40638
285.40639
285.40639
285.40639
285.40639
285.40639
285.40639
285.40639
285.4064
285.4064
285.4064
285.4064
285.4064
285.4064
285.40641
285.40641
285.40641
285.40641
285.40641
285.40642
285.40642
285.40642
285.40642
285.40642
285.40642
285.40643
285.40643
285.40643
285.40643
285.40643
285.40643
285.40643
285.40644
285.40644
285.40644
285.40644
285.40644
285.40645
285.40645
285.40645
285.40645
285.40645
285.40645
285.40645
285.40646
285.40646
285.40646
285.40646
285.40647
285.40647
285.40647
285.40647
285.40647
285.40647
285.40648
285.40648
285.40648
285.40648
285.40648
285.40648
285.40649
285.40649
285.40649
285.40649
285.4065
285.4065
285.4065
285.4065
285.4065
285.40651
285.40651
285.40651
285.40651
285.40651
285.40651
285.40651
285.40651
285.40652
285.40652
285.40652
285.40652
285.40653
285.40653
285.40653
285.40653
285.40653
285.40654
285.40654
285.40654
285.40654
285.40654
285.40655
285.40655
285.40655
285.40655
285.40655
285.40655
285.40656
285.40656
285.40656
285.40656
285.40656
285.40656
285.40657
285.40657
285.40657
285.40657
285.40658
285.40658
285.40658
285.40658
285.40659
285.40659
285.40659
285.40659
285.40659
285.40659
285.40659
285.40659
285.4066
285.4066
285.4066
285.4066
285.40661
285.40661
285.40661
285.40661
285.40662
285.40662
285.40662
285.40662
285.40662
285.40663
285.40663
285.40663
285.40663
285.40663
285.40663
285.40664
285.40664
285.40664
285.40664
285.40664
285.40664
285.40665
285.40665
285.40665
285.40665
285.40666
285.40666
285.40666
285.40666
285.40666
285.40667
285.40667
285.40667
285.40667
285.40667
285.40668
285.40668
285.40668
285.40668
285.40668
285.40669
285.40669
285.40669
285.40669
285.40669
285.40669
285.40669
285.4067
285.4067
285.4067
285.4067
285.4067
285.40671
285.40671
285.40671
285.40671
285.40671
285.40672
285.40672
285.40672
285.40672
285.40673
285.40673
285.40673
285.40673
285.40673
285.40673
285.40674
285.40674
285.40674
285.40674
285.40674
285.40675
285.40675
285.40675
285.40675
285.40675
285.40676
285.40676
285.40676
285.40676
285.40676
285.40677
285.40677
285.40677
285.40677
285.40678
285.40678
285.40678
285.40678
285.40678
285.40679
285.40679
285.40679
285.40679
285.4068
285.4068
285.4068
285.4068
285.4068
285.40681
285.40681
285.40681
285.40681
285.40681
285.40682
285.40682
285.40682
285.40682
285.40683
285.40683
285.40683
285.40683
285.40683
285.40684
285.40684
285.40684
285.40684
285.40685
285.40685
285.40685
285.40685
285.40685
285.40686
285.40686
285.40686
285.40686
285.40686
285.40687
285.40687
285.40687
285.40687
285.40687
285.40688
285.40688
285.40688
285.40688
285.40689
285.40689
285.40689
285.4069
285.4069
285.4069
285.4069
285.4069
285.4069
285.40691
285.40691
285.40691
285.40691
285.40692
285.40692
285.40692
285.40692
285.40692
285.40693
285.40693
285.40693
285.40693
285.40693
285.40694
285.40694
285.40694
285.40694
285.40694
285.40695
285.40695
285.40695
285.40695
285.40696
285.40696
285.40696
285.40696
285.40696
285.40697
285.40697
285.40697
285.40697
285.40697
285.40698
285.40698
285.40698
285.40698
285.40698
285.40699
285.40699
285.40699
285.40699
285.40699
285.407
285.407
285.407
285.407
285.40701
285.40701
285.40701
285.40701
285.40701
285.40701
285.40702
285.40702
285.40702
285.40702
285.40703
285.40703
285.40703
285.40703
285.40703
285.40704
285.40704
285.40704
285.40704
285.40705
285.40705
285.40705
285.40705
285.40705
285.40706
285.40706
285.40706
285.40706
285.40706
285.40707
285.40707
285.40707
285.40707
285.40708
285.40708
285.40708
285.40708
285.40709
285.40709
285.40709
285.40709
285.4071
285.4071
285.4071
285.40711
285.40711
285.40711
285.40711
285.40712
285.40712
285.40712
285.40712
285.40712
285.40713
285.40713
285.40713
285.40713
285.40713
285.40714
285.40714
285.40714
285.40715
285.40715
285.40715
285.40716
285.40716
285.40716
285.40716
285.40717
285.40717
285.40717
285.40717
285.40718
285.40718
285.40718
285.40718
285.40719
285.40719
285.40719
285.40719
285.4072
285.4072
285.4072
285.4072
285.40721
285.40721
285.40721
285.40721
285.40722
285.40722
285.40722
285.40723
285.40723
285.40723
285.40723
285.40724
285.40724
285.40724
285.40724
285.40725
285.40725
285.40725
285.40726
285.40726
285.40726
285.40726
285.40727
285.40727
285.40727
285.40727
285.40728
285.40728
285.40728
285.40728
285.40729
285.40729
285.40729
285.40729
285.4073
285.4073
285.4073
285.4073
285.40731
285.40731
285.40731
285.40731
285.40732
285.40732
285.40732
285.40732
285.40733
285.40733
285.40733
285.40734
285.40734
285.40734
285.40734
285.40734
285.40735
285.40735
285.40735
285.40735
285.40736
285.40736
285.40736
285.40737
285.40737
285.40737
285.40737
285.40738
285.40738
285.40738
285.40738
285.40738
285.40739
285.40739
285.40739
285.4074
285.4074
285.4074
285.4074
285.40741
285.40741
285.40741
285.40741
285.40742
285.40742
285.40742
285.40743
285.40743
285.40743
285.40744
285.40744
285.40744
285.40744
285.40745
285.40745
285.40745
285.40745
285.40746
285.40746
285.40746
285.40747
285.40747
285.40747
285.40748
285.40748
285.40748
285.40748
285.40748
285.40749
285.40749
285.40749
285.40749
285.4075
285.4075
285.4075
285.40751
285.40751
285.40751
285.40752
285.40752
285.40753
285.40753
285.40753
285.40753
285.40754
285.40754
285.40754
285.40754
285.40754
285.40755
285.40755
285.40755
285.40756
285.40756
285.40756
285.40757
285.40757
285.40757
285.40757
285.40758
285.40758
285.40758
285.40759
285.40759
285.40759
285.4076
285.4076
285.4076
285.40761
285.40761
285.40761
285.40762
285.40762
285.40762
285.40762
285.40763
285.40763
285.40763
285.40764
285.40764
285.40764
285.40765
285.40765
285.40765
285.40766
285.40766
285.40766
285.40766
285.40767
285.40767
285.40767
285.40768
285.40768
285.40768
285.40769
285.40769
285.40769
285.4077
285.4077
285.4077
285.40771
285.40771
285.40771
285.40772
285.40772
285.40772
285.40773
285.40773
285.40773
285.40774
285.40774
285.40774
285.40775
285.40775
285.40775
285.40776
285.40776
285.40776
285.40776
285.40777
285.40777
285.40777
285.40778
285.40778
285.40779
285.40779
285.40779
285.4078
285.4078
285.4078
285.40781
285.40781
285.40781
285.40782
285.40782
285.40782
285.40783
285.40783
285.40784
285.40784
285.40784
285.40785
285.40785
285.40785
285.40786
285.40786
285.40786
285.40787
285.40787
285.40787
285.40788
285.40788
285.40788
285.40789
285.40789
285.40789
285.4079
285.4079
285.4079
285.40791
285.40791
285.40791
285.40792
285.40792
285.40793
285.40793
285.40793
285.40794
285.40794
285.40794
285.40795
285.40795
285.40796
285.40796
285.40796
285.40797
285.40797
285.40797
285.40798
285.40798
285.40798
285.40799
285.40799
285.408
285.408
285.408
285.40801
285.40801
285.40801
285.40802
285.40802
285.40802
285.40803
285.40803
285.40803
285.40804
285.40804
285.40804
285.40805
285.40805
285.40806
285.40806
285.40807
285.40807
285.40807
285.40808
285.40808
285.40808
285.40809
285.40809
285.40809
285.4081
285.4081
285.40811
285.40811
285.40812
285.40812
285.40812
285.40813
285.40813
285.40813
285.40814
285.40814
285.40814
285.40815
285.40815
285.40815
285.40816
285.40816
285.40817
285.40817
285.40818
285.40818
285.40819
285.40819
285.4082
285.4082
285.4082
285.40821
285.40821
285.40821
285.40822
285.40822
285.40823
285.40823
285.40824
285.40824
285.40824
285.40825
285.40825
285.40825
285.40826
285.40826
285.40827
285.40827
285.40827
285.40828
285.40828
285.40829
285.40829
285.40829
285.4083
285.4083
285.40831
285.40831
285.40832
285.40832
285.40833
285.40833
285.40833
285.40834
285.40834
285.40835
285.40835
285.40836
285.40836
285.40836
285.40837
285.40837
285.40838
285.40838
285.40839
285.40839
285.40839
285.4084
285.4084
285.40841
285.40841
285.40842
285.40842
285.40843
285.40843
285.40844
285.40844
285.40844
285.40845
285.40845
285.40846
285.40846
285.40847
285.40847
285.40848
285.40848
285.40848
285.40849
285.40849
285.4085
285.4085
285.40851
285.40851
285.40852
285.40852
285.40853
285.40853
285.40853
285.40854
285.40854
285.40855
285.40855
285.40856
285.40856
285.40857
285.40857
285.40858
285.40858
285.40859
285.40859
285.4086
285.4086
285.40861
285.40861
285.40862
285.40862
285.40863
285.40863
285.40864
285.40864
285.40865
285.40865
285.40866
285.40866
285.40867
285.40867
285.40868
285.40868
285.40869
285.40869
285.4087
285.4087
285.40871
285.40871
285.40872
285.40872
285.40873
285.40873
285.40874
285.40874
285.40875
285.40875
285.40876
285.40876
285.40877
285.40877
285.40878
285.40878
285.40879
285.40879
285.4088
285.4088
285.40881
285.40881
285.40882
285.40882
285.40883
285.40884
285.40884
285.40885
285.40885
285.40886
285.40886
285.40887
285.40887
285.40888
285.40888
285.40889
285.40889
285.4089
285.4089
285.40891
285.40892
285.40892
285.40893
285.40893
285.40894
285.40894
285.40895
285.40896
285.40896
285.40897
285.40897
285.40898
285.40898
285.40899
285.409
285.409
285.40901
285.40901
285.40902
285.40902
285.40903
285.40904
285.40904
285.40905
285.40905
285.40906
285.40906
285.40907
285.40907
285.40908
285.40909
285.40909
285.4091
285.40911
285.40911
285.40912
285.40912
285.40913
285.40914
285.40914
285.40915
285.40915
285.40916
285.40916
285.40917
285.40918
285.40918
285.40919
285.4092
285.4092
285.40921
285.40921
285.40922
285.40923
285.40924
285.40924
285.40925
285.40926
285.40926
285.40927
285.40927
285.40928
285.40929
285.40929
285.4093
285.40931
285.40931
285.40932
285.40933
285.40933
285.40934
285.40935
285.40935
285.40936
285.40937
285.40937
285.40938
285.40939
285.4094
285.4094
285.40941
285.40942
285.40942
285.40943
285.40943
285.40944
285.40945
285.40945
285.40946
285.40947
285.40947
285.40948
285.40949
285.4095
285.4095
285.40951
285.40952
285.40953
285.40953
285.40954
285.40955
285.40955
285.40956
285.40957
285.40957
285.40958
285.40959
285.4096
285.4096
285.40961
285.40962
285.40963
285.40963
285.40964
285.40965
285.40966
285.40966
285.40967
285.40968
285.40969
285.40969
285.4097
285.40971
285.40972
285.40972
285.40973
285.40974
285.40975
285.40975
285.40976
285.40977
285.40978
285.40979
285.40979
285.4098
285.40981
285.40982
285.40983
285.40983
285.40984
285.40985
285.40986
285.40987
285.40987
285.40988
285.40989
285.4099
285.40991
285.40992
285.40993
285.40993
285.40994
285.40995
285.40996
285.40997
285.40998
285.40998
285.40999
285.41
285.41001
285.41002
285.41003
285.41004
285.41004
285.41005
285.41006
285.41007
285.41008
285.41009
285.4101
285.41011
285.41011
285.41012
285.41013
285.41014
285.41015
285.41016
285.41017
285.41018
285.41019
285.4102
285.41021
285.41021
285.41022
285.41023
285.41024
285.41025
285.41026
285.41027
285.41028
285.41029
285.4103
285.41031
285.41032
285.41033
285.41034
285.41035
285.41036
285.41037
285.41038
285.41038
285.41039
285.4104
285.41041
285.41042
285.41043
285.41044
285.41045
285.41047
285.41048
285.41049
285.4105
285.41051
285.41052
285.41053
285.41054
285.41055
285.41056
285.41057
285.41058
285.41059
285.4106
285.41061
285.41062
285.41063
285.41064
285.41066
285.41067
285.41068
285.41069
285.4107
285.41071
285.41072
285.41073
285.41074
285.41075
285.41076
285.41077
285.41078
285.41079
285.4108
285.41081
285.41083
285.41084
285.41085
285.41086
285.41087
285.41089
285.4109
285.41091
285.41092
285.41094
285.41095
285.41096
285.41097
285.41098
285.411
285.41101
285.41102
285.41103
285.41104
285.41105
285.41106
285.41108
285.41109
285.4111
285.41111
285.41113
285.41114
285.41115
285.41116
285.41118
285.41119
285.4112
285.41122
285.41123
285.41124
285.41126
285.41127
285.41128
285.4113
285.41131
285.41132
285.41133
285.41135
285.41136
285.41138
285.41139
285.4114
285.41142
285.41143
285.41144
285.41146
285.41147
285.41149
285.4115
285.41151
285.41153
285.41154
285.41156
285.41157
285.41159
285.4116
285.41161
285.41163
285.41164
285.41166
285.41167
285.41169
285.4117
285.41172
285.41173
285.41175
285.41176
285.41178
285.41179
285.41181
285.41183
285.41184
285.41186
285.41187
285.41189
285.41191
285.41192
285.41194
285.41195
285.41197
285.41198
285.412
285.41202
285.41203
285.41205
285.41207
285.41208
285.4121
285.41212
285.41214
285.41215
285.41217
285.41219
285.41221
285.41222
285.41224
285.41226
285.41228
285.4123
285.41231
285.41233
285.41235
285.41237
285.41239
285.4124
285.41242
285.41244
285.41246
285.41247
285.41249
285.41251
285.41253
285.41255
285.41257
285.41259
285.41261
285.41263
285.41265
285.41267
285.41269
285.41271
285.41273
285.41275
285.41277
285.41279
285.41281
285.41284
285.41286
285.41288
285.4129
285.41292
285.41294
285.41296
285.41299
285.41301
285.41303
285.41305
285.41307
285.4131
285.41312
285.41314
285.41316
285.41318
285.4132
285.41323
285.41325
285.41327
285.4133
285.41332
285.41334
285.41337
285.4134
285.41342
285.41345
285.41347
285.4135
285.41352
285.41355
285.41357
285.4136
285.41362
285.41365
285.41368
285.4137
285.41373
285.41375
285.41378
285.41381
285.41383
285.41386
285.41389
285.41391
285.41394
285.41397
285.414
285.41403
285.41406
285.41409
285.41411
285.41414
285.41417
285.41421
285.41424
285.41427
285.4143
285.41433
285.41436
285.4144
285.41443
285.41446
285.41448
285.41451
285.41454
285.41457
285.4146
285.41464
285.41467
285.4147
285.41473
285.41477
285.4148
285.41484
285.41487
285.41491
285.41494
285.41498
285.41501
285.41505
285.41508
285.41512
285.41516
285.4152
285.41524
285.41528
285.41531
285.41535
285.41539
285.41543
285.41547
285.41551
285.41555
285.41559
285.41563
285.41567
285.41571
285.41575
285.4158
285.41584
285.41589
285.41593
285.41597
285.41602
285.41606
285.41611
285.41615
285.4162
285.41625
285.41629
285.41634
285.41638
285.41643
285.41648
285.41653
285.41658
285.41663
285.41668
285.41673
285.41679
285.41684
285.41689
285.41695
285.417
285.41706
285.41712
285.41718
285.41723
285.41729
285.41735
285.41741
285.41747
285.41753
285.41759
285.41765
285.41771
285.41777
285.41783
285.4179
285.41796
285.41802
285.41809
285.41815
285.41822
285.41829
285.41836
285.41843
285.4185
285.41857
285.41865
285.41873
285.41881
285.41889
285.41897
285.41905
285.41913
285.41921
285.41929
285.41937
285.41946
285.41954
285.41963
285.41972
285.41981
285.4199
285.41999
285.42008
285.42018
285.42027
285.42037
285.42047
285.42057
285.42068
285.42078
285.42088
285.42099
285.4211
285.42121
285.42132
285.42143
285.42154
285.42165
285.42177
285.42188
285.422
285.42211
285.42223
285.42235
285.42246
285.42258
285.4227
285.42282
285.42293
285.42305
285.42316
285.42327
285.42337
285.42348
285.42357
285.42367
285.42375
285.42383
285.42391
285.42398
285.42404
285.42409
285.42413
285.42417
285.42419
285.42421
285.42422
285.42423
285.42423
285.42423
285.42422
285.42421
285.42417
285.42414
285.4241
285.42407
285.42404
285.42402
285.424
285.424
285.42399
285.42399
285.424
285.42401
285.42405
285.42415
285.42429
285.42445
285.42462
285.42482
285.42503
285.42525
285.42549
285.42573
285.42599
285.42626
285.42654
285.42682
285.42711
285.42739
285.42767
285.42793
285.42819
285.42842
285.42864
285.42883
285.42901
285.42917
285.42931
285.42942
285.42952
285.42958
285.42963
285.42966
285.42968
285.42972
285.42979
285.42995
285.43033
285.43125
285.43351
285.43915
285.45324
285.48846
285.57671
285.79584
286.29387
286.99122
287.83059
288.78824
289.83314
290.93085
292.04648
293.14726
294.20457
295.1953
296.10258
296.91576
297.63003
298.24553
298.76639
299.1996
299.55401
299.83936
300.06562
300.24236
300.37843
300.48168
300.55891
300.61583
300.65715
300.68667
300.70737
300.72159
300.73112
300.73729
300.7411
300.74329
300.7444
300.74481
300.74486
300.74475
300.74426
300.74339
300.74257
300.74181
300.74112
300.74049
300.7399
300.73936
300.73886
300.73838
300.73794
300.73752
300.73713
300.73675
300.73639
300.73605
300.73571
300.73537
300.73504
300.7347
300.73435
300.73399
300.73361
300.73321
300.7328
300.73237
300.73191
300.73145
300.73096
300.73047
300.72996
300.72945
300.72893
300.72842
300.72791
300.72741
300.72692
300.72644
300.72597
300.72553
300.7251
300.7247
300.72431
300.72394
300.72359
300.72326
300.72294
300.72265
300.72237
300.7221
300.72185
300.7216
300.72137
300.72115
300.72094
300.72074
300.72055
300.72036
300.72019
300.72001
300.71984
300.71968
300.71952
300.71937
300.71922
300.71907
300.71893
300.71879
300.71865
300.71852
300.71839
300.71826
300.71814
300.71801
300.71789
300.71777
300.71766
300.71754
300.71743
300.71732
300.71721
300.7171
300.717
300.71689
300.71679
300.71669
300.71659
300.71649
300.7164
300.7163
300.71621
300.71612
300.71603
300.71594
300.71585
300.71576
300.71568
300.71559
300.71551
300.71542
300.71534
300.71526
300.71518
300.7151
300.71502
300.71495
300.71487
300.7148
300.71473
300.71466
300.71459
300.71452
300.71445
300.71438
300.71431
300.71425
300.71418
300.71412
300.71405
300.71399
300.71393
300.71387
300.7138
300.71374
300.71368
300.71362
300.71356
300.7135
300.71344
300.71338
300.71333
300.71327
300.71321
300.71316
300.71311
300.71305
300.713
300.71295
300.7129
300.71284
300.71279
300.71274
300.71269
300.71264
300.71259
300.71254
300.7125
300.71245
300.7124
300.71235
300.71231
300.71226
300.71221
300.71217
300.71212
300.71208
300.71203
300.71199
300.71195
300.7119
300.71186
300.71182
300.71178
300.71174
300.7117
300.71166
300.71162
300.71158
300.71154
300.7115
300.71146
300.71142
300.71138
300.71134
300.71131
300.71127
300.71123
300.71119
300.71116
300.71112
300.71108
300.71105
300.71101
300.71098
300.71095
300.71091
300.71088
300.71084
300.71081
300.71078
300.71074
300.71071
300.71068
300.71065
300.71061
300.71058
300.71055
300.71052
300.71048
300.71045
300.71042
300.71039
300.71036
300.71033
300.7103
300.71027
300.71024
300.71021
300.71018
300.71015
300.71012
300.7101
300.71007
300.71004
300.71002
300.70999
300.70996
300.70993
300.7099
300.70988
300.70985
300.70982
300.70979
300.70977
300.70974
300.70971
300.70969
300.70966
300.70964
300.70961
300.70958
300.70956
300.70953
300.70951
300.70948
300.70946
300.70943
300.70941
300.70939
300.70936
300.70934
300.70932
300.70929
300.70927
300.70925
300.70923
300.7092
300.70918
300.70916
300.70913
300.70911
300.70909
300.70906
300.70904
300.70902
300.709
300.70897
300.70895
300.70893
300.70891
300.70889
300.70887
300.70885
300.70883
300.70881
300.70879
300.70877
300.70875
300.70873
300.70871
300.70869
300.70866
300.70864