/*--------------------------------*- C++ -*----------------------------------*\
  =========                 |
  \\      /  F ield         | OpenFOAM: The Open Source CFD Toolbox
   \\    /   O peration     | Website:  https://openfoam.org
    \\  /    A nd           | Version:  7
     \\/     M anipulation  |
\*---------------------------------------------------------------------------*/
FoamFile
{
    version     2.0;
    format      ascii;
    class       volScalarField;
    location    "0.00144";
    object      Ux;
}
// * * * * * * * * * * * * * * * * * * * * * * * * * * * * * * * * * * * * * //

dimensions      [0 1 -1 0 0 0 0];

internalField   nonuniform List<scalar> 
5000
(
3.3679219
3.5145066
3.5739153
3.6089427
3.6525898
3.6998453
3.746705
3.7935975
3.8409302
3.8886448
3.9366839
3.9850548
4.0337612
4.0827999
4.1321684
4.1818653
4.2318887
4.2822367
4.3329076
4.3838994
4.4352102
4.4868382
4.5387813
4.5910377
4.6436053
4.6964822
4.7496662
4.8031553
4.8569474
4.9110405
4.9654323
5.0201208
5.0751037
5.1303788
5.185944
5.2417969
5.2979354
5.3543572
5.4110599
5.4680412
5.5252989
5.5828305
5.6406337
5.6987061
5.7570453
5.8156489
5.8745145
5.9336396
5.9930217
6.0526583
6.1125471
6.1726854
6.2330708
6.2937006
6.3545725
6.4156837
6.4770318
6.5386141
6.6004281
6.6624711
6.7247405
6.7872338
6.8499481
6.912881
6.9760298
7.0393917
7.102964
7.1667442
7.2307295
7.2949171
7.3593043
7.4238885
7.4886669
7.5536367
7.6187951
7.6841395
7.7496669
7.8153748
7.8812601
7.9473203
8.0135523
8.0799535
8.146521
8.2132519
8.2801435
8.3471928
8.4143971
8.4817535
8.549259
8.6169108
8.6847061
8.7526419
8.8207153
8.8889235
8.9572635
9.0257324
9.0943272
9.1630451
9.2318831
9.3008382
9.3699075
9.4390881
9.5083769
9.5777709
9.6472673
9.7168629
9.7865549
9.8563401
9.9262156
9.9961784
10.066225
10.136354
10.20656
10.276842
10.347195
10.417618
10.488106
10.558658
10.629269
10.699936
10.770658
10.84143
10.912249
10.983112
11.054017
11.124959
11.195936
11.266945
11.337983
11.409046
11.48013
11.551234
11.622354
11.693486
11.764628
11.835776
11.906927
11.978077
12.049224
12.120365
12.191495
12.262612
12.333712
12.404792
12.475849
12.54688
12.617881
12.688849
12.759781
12.830672
12.901521
12.972324
13.043076
13.113776
13.184419
13.255002
13.325522
13.395975
13.466358
13.536668
13.606901
13.677054
13.747122
13.817104
13.886995
13.956792
14.026491
14.096089
14.165583
14.234969
14.304243
14.373402
14.442443
14.511362
14.580155
14.648819
14.71735
14.785745
14.854001
14.922113
14.990078
15.057893
15.125554
15.193058
15.2604
15.327578
15.394587
15.461424
15.528086
15.594569
15.660869
15.726983
15.792907
15.858637
15.92417
15.989503
16.054631
16.119551
16.18426
16.248753
16.313028
16.37708
16.440907
16.504504
16.567867
16.630994
16.69388
16.756523
16.818918
16.881062
16.942951
17.004582
17.065952
17.127056
17.187891
17.248454
17.308741
17.368749
17.428474
17.487913
17.547063
17.605919
17.664478
17.722738
17.780695
17.838344
17.895684
17.952711
18.009421
18.065811
18.121879
18.177619
18.233031
18.28811
18.342853
18.397257
18.45132
18.505037
18.558407
18.611425
18.66409
18.716398
18.768347
18.819933
18.871154
18.922007
18.972489
19.022599
19.072333
19.121688
19.170662
19.219254
19.267459
19.315277
19.362704
19.409739
19.456379
19.502622
19.548467
19.59391
19.638951
19.683587
19.727817
19.771639
19.81505
19.85805
19.900637
19.94281
19.984567
20.025906
20.066827
20.107328
20.147409
20.187068
20.226304
20.265116
20.303504
20.341467
20.379005
20.416116
20.4528
20.489057
20.524887
20.560289
20.595263
20.62981
20.663928
20.69762
20.730883
20.76372
20.79613
20.828114
20.859672
20.890805
20.921515
20.9518
20.981663
21.011105
21.040127
21.068729
21.096914
21.124682
21.152035
21.178975
21.205502
21.23162
21.257329
21.282632
21.307531
21.332027
21.356123
21.379821
21.403123
21.426032
21.44855
21.470679
21.492423
21.513783
21.534764
21.555366
21.575595
21.595451
21.614939
21.634062
21.652822
21.671223
21.689268
21.70696
21.724304
21.741301
21.757957
21.774274
21.790256
21.805907
21.82123
21.836229
21.850908
21.86527
21.879321
21.893062
21.906499
21.919635
21.932474
21.945021
21.957279
21.969252
21.980944
21.99236
22.003504
22.014379
22.02499
22.03534
22.045435
22.055278
22.064873
22.074224
22.083336
22.092212
22.100858
22.109276
22.11747
22.125446
22.133207
22.140757
22.1481
22.155241
22.162182
22.168929
22.175484
22.181852
22.188038
22.194044
22.199874
22.205533
22.211023
22.21635
22.221515
22.226524
22.231379
22.236085
22.240644
22.245061
22.249338
22.253479
22.257488
22.261367
22.26512
22.268751
22.272261
22.275655
22.278936
22.282106
22.285168
22.288126
22.290982
22.293739
22.2964
22.298967
22.301444
22.303832
22.306135
22.308355
22.310494
22.312554
22.314539
22.31645
22.31829
22.320061
22.321765
22.323404
22.32498
22.326496
22.327952
22.329352
22.330697
22.331988
22.333229
22.334419
22.335562
22.336658
22.337709
22.338718
22.339684
22.340611
22.341499
22.342349
22.343164
22.343944
22.34469
22.345404
22.346088
22.346741
22.347366
22.347963
22.348534
22.349079
22.3496
22.350097
22.350572
22.351025
22.351457
22.351869
22.352262
22.352636
22.352993
22.353333
22.353657
22.353965
22.354258
22.354538
22.354803
22.355056
22.355296
22.355524
22.35574
22.355946
22.356141
22.356327
22.356503
22.35667
22.356828
22.356978
22.35712
22.357255
22.357382
22.357503
22.357617
22.357725
22.357827
22.357924
22.358015
22.358102
22.358183
22.35826
22.358333
22.358402
22.358467
22.358528
22.358586
22.358641
22.358693
22.358742
22.358788
22.358831
22.358872
22.358911
22.358948
22.358983
22.359016
22.359047
22.359077
22.359104
22.359131
22.359156
22.359179
22.359201
22.359222
22.359241
22.359259
22.359276
22.359291
22.359305
22.359317
22.359327
22.359335
22.359342
22.359351
22.359366
22.359374
22.359376
22.359389
22.359411
22.359423
22.359425
22.359439
22.359463
22.359479
22.359485
22.3595
22.359525
22.359551
22.359565
22.359574
22.359593
22.359616
22.35963
22.359644
22.359666
22.359691
22.35971
22.359725
22.359744
22.359766
22.359786
22.359804
22.359825
22.359846
22.359867
22.359885
22.359904
22.359924
22.35994
22.359954
22.359972
22.35999
22.360005
22.360017
22.36003
22.360044
22.360058
22.36007
22.360083
22.360094
22.360104
22.360114
22.360123
22.36013
22.360135
22.360141
22.360151
22.36016
22.360163
22.360166
22.360182
22.360197
22.3602
22.360204
22.360221
22.360238
22.360244
22.360248
22.360265
22.360286
22.360295
22.360301
22.360318
22.360338
22.360351
22.360359
22.360374
22.360392
22.360406
22.360415
22.360428
22.360444
22.360459
22.36047
22.360481
22.360495
22.360508
22.360519
22.360528
22.36054
22.360553
22.360565
22.360574
22.360585
22.360597
22.360608
22.360618
22.360627
22.360639
22.36065
22.36066
22.360668
22.360677
22.360688
22.360697
22.360704
22.360712
22.360723
22.360731
22.360737
22.360744
22.360755
22.360765
22.360771
22.360778
22.360788
22.360799
22.360807
22.360813
22.360823
22.360834
22.360841
22.360846
22.360855
22.360867
22.360874
22.360878
22.360886
22.360898
22.360905
22.360906
22.360911
22.360922
22.360933
22.360938
22.360941
22.360951
22.360962
22.360969
22.360975
22.360983
22.360993
22.361002
22.361008
22.361015
22.361024
22.361031
22.361037
22.361043
22.361051
22.361057
22.36106
22.361066
22.361075
22.361081
22.361083
22.361086
22.361095
22.361103
22.361105
22.361109
22.361117
22.361124
22.361127
22.361128
22.361133
22.361141
22.361147
22.361152
22.361157
22.361166
22.361174
22.361183
22.361192
22.361201
22.361209
22.361218
22.361225
22.361231
22.36124
22.361243
22.361244
22.361244
22.361247
22.361254
22.361253
22.361243
22.361239
22.361243
22.36124
22.36124
22.361243
22.361241
22.361241
22.36125
22.361257
22.36126
22.361264
22.361271
22.36128
22.361288
22.361296
22.361304
22.361313
22.361321
22.361328
22.361335
22.361343
22.361351
22.361359
22.361368
22.361371
22.361367
22.361365
22.361368
22.36137
22.361372
22.361373
22.361373
22.361373
22.361374
22.361378
22.361381
22.361383
22.361385
22.36139
22.361395
22.361399
22.361403
22.361408
22.361413
22.361418
22.361423
22.361429
22.361435
22.36144
22.361443
22.361447
22.361449
22.361452
22.361454
22.361456
22.361459
22.36146
22.36146
22.361461
22.361463
22.361464
22.361465
22.361467
22.361471
22.361472
22.36147
22.361467
22.361467
22.361469
22.361467
22.361463
22.361462
22.361463
22.361462
22.361457
22.361453
22.361454
22.361454
22.361452
22.361449
22.361448
22.361448
22.361447
22.361448
22.361449
22.361448
22.361448
22.361448
22.361449
22.36145
22.361451
22.361452
22.361455
22.361456
22.361456
22.361456
22.361456
22.361457
22.361458
22.361461
22.361461
22.36146
22.361459
22.36146
22.361461
22.361462
22.361461
22.361459
22.361456
22.361457
22.361456
22.361454
22.361449
22.361449
22.361449
22.361449
22.361446
22.361442
22.361437
22.361434
22.361432
22.36143
22.361429
22.361427
22.361424
22.36142
22.361418
22.361416
22.361415
22.361414
22.361411
22.361408
22.361405
22.361404
22.361402
22.361399
22.361394
22.361392
22.361392
22.361391
22.361391
22.361391
22.361389
22.361386
22.361386
22.361385
22.361384
22.36138
22.361377
22.361377
22.361376
22.361374
22.361374
22.361374
22.361371
22.361366
22.361363
22.361364
22.361364
22.361364
22.361362
22.36136
22.361359
22.361357
22.361354
22.36135
22.361349
22.361348
22.361345
22.361341
22.361339
22.361338
22.361337
22.361334
22.36133
22.361327
22.361323
22.361321
22.361318
22.361315
22.361311
22.361309
22.361306
22.361303
22.361299
22.361296
22.361292
22.361289
22.361287
22.361285
22.361283
22.361279
22.361276
22.361272
22.36127
22.361269
22.361267
22.361264
22.361261
22.361258
22.361255
22.361254
22.361253
22.361251
22.361248
22.361246
22.361243
22.361242
22.361241
22.361239
22.361237
22.361235
22.361233
22.361232
22.361231
22.36123
22.361227
22.361226
22.361225
22.361225
22.361224
22.361222
22.36122
22.361218
22.361218
22.361218
22.361218
22.361217
22.361215
22.361213
22.361213
22.361213
22.361213
22.361212
22.361211
22.361209
22.36121
22.361209
22.361209
22.361208
22.361207
22.361206
22.361206
22.361206
22.361205
22.361204
22.361203
22.361202
22.361202
22.361201
22.361201
22.3612
22.361199
22.361197
22.361196
22.361196
22.361196
22.361195
22.361194
22.361193
22.361191
22.36119
22.361189
22.361188
22.361187
22.361186
22.361185
22.361183
22.361181
22.36118
22.36118
22.361179
22.361177
22.361176
22.361174
22.361172
22.36117
22.361169
22.361168
22.361167
22.361165
22.361163
22.361161
22.361159
22.361158
22.361157
22.361155
22.361153
22.361151
22.36115
22.361148
22.361146
22.361144
22.361142
22.36114
22.361139
22.361137
22.361135
22.361133
22.361131
22.361129
22.361128
22.361126
22.361124
22.361122
22.36112
22.361117
22.361115
22.361113
22.361111
22.361109
22.361107
22.361105
22.361103
22.361101
22.361098
22.361096
22.361093
22.361091
22.361088
22.361086
22.361084
22.361081
22.361078
22.361076
22.361073
22.361071
22.361068
22.361065
22.361063
22.36106
22.361057
22.361054
22.361051
22.361049
22.361047
22.361044
22.361042
22.361039
22.361036
22.361034
22.361031
22.361029
22.361027
22.361024
22.361021
22.361019
22.361017
22.361015
22.361013
22.361011
22.361009
22.361007
22.361005
22.361003
22.361001
22.361
22.360998
22.360997
22.360995
22.360994
22.360993
22.360992
22.36099
22.360989
22.360988
22.360988
22.360987
22.360986
22.360985
22.360985
22.360984
22.360984
22.360983
22.360982
22.360982
22.360982
22.360982
22.360981
22.36098
22.36098
22.36098
22.36098
22.36098
22.36098
22.360979
22.360979
22.360979
22.360979
22.360979
22.360978
22.360978
22.360978
22.360978
22.360978
22.360977
22.360977
22.360976
22.360976
22.360976
22.360975
22.360975
22.360974
22.360974
22.360973
22.360973
22.360972
22.360972
22.360971
22.36097
22.36097
22.360969
22.360969
22.360968
22.360966
22.360966
22.360965
22.360964
22.360964
22.360962
22.360962
22.360961
22.36096
22.360959
22.360958
22.360957
22.360956
22.360955
22.360954
22.360953
22.360951
22.36095
22.360949
22.360948
22.360947
22.360946
22.360945
22.360944
22.360943
22.360941
22.360939
22.360938
22.360937
22.360937
22.360935
22.360934
22.360932
22.360931
22.360929
22.360928
22.360927
22.360926
22.360924
22.360922
22.360921
22.36092
22.360918
22.360917
22.360915
22.360914
22.360912
22.360911
22.360909
22.360907
22.360906
22.360905
22.360903
22.360901
22.3609
22.360898
22.360897
22.360895
22.360894
22.360892
22.36089
22.360888
22.360887
22.360886
22.360885
22.360883
22.360881
22.360879
22.360878
22.360877
22.360875
22.360874
22.360872
22.36087
22.360869
22.360868
22.360867
22.360866
22.360864
22.360863
22.360861
22.36086
22.360859
22.360857
22.360856
22.360855
22.360854
22.360853
22.360851
22.36085
22.360849
22.360848
22.360846
22.360845
22.360845
22.360844
22.360843
22.360841
22.36084
22.360839
22.360838
22.360837
22.360836
22.360835
22.360834
22.360832
22.360831
22.36083
22.360829
22.360828
22.360827
22.360826
22.360825
22.360824
22.360823
22.360822
22.360821
22.36082
22.360819
22.360817
22.360816
22.360815
22.360814
22.360813
22.360812
22.360811
22.36081
22.360809
22.360808
22.360807
22.360806
22.360805
22.360804
22.360803
22.360802
22.360801
22.3608
22.360799
22.360798
22.360798
22.360797
22.360796
22.360795
22.360794
22.360794
22.360793
22.360792
22.360791
22.360791
22.36079
22.360789
22.360789
22.360788
22.360787
22.360787
22.360786
22.360786
22.360785
22.360784
22.360784
22.360783
22.360782
22.360782
22.360781
22.360781
22.36078
22.360779
22.360779
22.360778
22.360778
22.360777
22.360776
22.360775
22.360775
22.360774
22.360773
22.360772
22.360771
22.36077
22.36077
22.360769
22.360769
22.360768
22.360767
22.360766
22.360765
22.360764
22.360763
22.360762
22.360761
22.36076
22.360759
22.360758
22.360757
22.360756
22.360755
22.360754
22.360753
22.360752
22.360751
22.36075
22.360748
22.360747
22.360746
22.360745
22.360744
22.360743
22.360742
22.360741
22.360739
22.360738
22.360737
22.360736
22.360735
22.360734
22.360733
22.360732
22.360731
22.36073
22.360729
22.360728
22.360727
22.360726
22.360725
22.360724
22.360723
22.360722
22.360721
22.36072
22.360719
22.360719
22.360718
22.360717
22.360716
22.360715
22.360715
22.360714
22.360713
22.360713
22.360712
22.360711
22.360711
22.36071
22.360709
22.360709
22.360708
22.360707
22.360707
22.360706
22.360706
22.360705
22.360704
22.360704
22.360703
22.360703
22.360702
22.360702
22.360701
22.3607
22.3607
22.360699
22.360699
22.360698
22.360698
22.360697
22.360697
22.360696
22.360696
22.360695
22.360695
22.360694
22.360694
22.360693
22.360692
22.360692
22.360691
22.360691
22.36069
22.36069
22.360689
22.360688
22.360688
22.360687
22.360687
22.360686
22.360686
22.360685
22.360684
22.360684
22.360683
22.360683
22.360682
22.360681
22.36068
22.360679
22.360679
22.360678
22.360678
22.360677
22.360676
22.360675
22.360674
22.360674
22.360673
22.360672
22.360671
22.36067
22.360669
22.360668
22.360667
22.360667
22.360666
22.360665
22.360663
22.360662
22.360662
22.36066
22.360659
22.360658
22.360657
22.360656
22.360655
22.360654
22.360653
22.360651
22.36065
22.360649
22.360647
22.360646
22.360645
22.360644
22.360642
22.360641
22.36064
22.360638
22.360637
22.360635
22.360634
22.360632
22.360631
22.36063
22.360628
22.360627
22.360625
22.360624
22.360623
22.360621
22.36062
22.360618
22.360617
22.360615
22.360614
22.360612
22.360611
22.36061
22.360608
22.360607
22.360606
22.360604
22.360603
22.360601
22.3606
22.360599
22.360598
22.360596
22.360595
22.360594
22.360593
22.360591
22.36059
22.360589
22.360588
22.360587
22.360586
22.360585
22.360584
22.360583
22.360581
22.36058
22.360579
22.360579
22.360578
22.360577
22.360576
22.360575
22.360574
22.360574
22.360573
22.360572
22.360572
22.360571
22.36057
22.36057
22.360569
22.360569
22.360568
22.360568
22.360567
22.360567
22.360566
22.360566
22.360566
22.360565
22.360565
22.360564
22.360564
22.360564
22.360564
22.360563
22.360563
22.360563
22.360563
22.360562
22.360562
22.360562
22.360562
22.360562
22.360562
22.360561
22.360561
22.360561
22.360561
22.360561
22.360561
22.36056
22.36056
22.36056
22.36056
22.36056
22.36056
22.360559
22.360559
22.360559
22.360559
22.360558
22.360558
22.360558
22.360558
22.360558
22.360557
22.360557
22.360557
22.360556
22.360556
22.360556
22.360555
22.360555
22.360554
22.360554
22.360554
22.360553
22.360553
22.360552
22.360551
22.360551
22.36055
22.36055
22.360549
22.360549
22.360548
22.360547
22.360546
22.360546
22.360545
22.360544
22.360544
22.360543
22.360542
22.360541
22.36054
22.36054
22.360539
22.360538
22.360537
22.360536
22.360535
22.360535
22.360534
22.360533
22.360532
22.360531
22.36053
22.360529
22.360528
22.360527
22.360526
22.360525
22.360524
22.360524
22.360523
22.360522
22.360521
22.36052
22.360519
22.360518
22.360517
22.360516
22.360515
22.360515
22.360514
22.360513
22.360512
22.360511
22.36051
22.36051
22.360509
22.360508
22.360507
22.360506
22.360505
22.360505
22.360504
22.360503
22.360502
22.360501
22.360501
22.3605
22.3605
22.360499
22.360498
22.360497
22.360496
22.360496
22.360495
22.360495
22.360494
22.360494
22.360493
22.360492
22.360491
22.360491
22.36049
22.36049
22.360489
22.360489
22.360488
22.360487
22.360487
22.360486
22.360486
22.360485
22.360484
22.360484
22.360483
22.360483
22.360482
22.360481
22.360481
22.36048
22.360479
22.360479
22.360478
22.360478
22.360477
22.360476
22.360476
22.360475
22.360475
22.360474
22.360473
22.360473
22.360472
22.360472
22.360471
22.36047
22.36047
22.360469
22.360469
22.360468
22.360468
22.360467
22.360466
22.360466
22.360465
22.360465
22.360464
22.360464
22.360463
22.360462
22.360462
22.360461
22.360461
22.36046
22.36046
22.360459
22.360459
22.360458
22.360458
22.360457
22.360457
22.360456
22.360456
22.360455
22.360455
22.360454
22.360454
22.360454
22.360453
22.360452
22.360452
22.360452
22.360451
22.360451
22.360451
22.36045
22.36045
22.360449
22.360449
22.360449
22.360448
22.360448
22.360447
22.360447
22.360447
22.360447
22.360446
22.360446
22.360445
22.360445
22.360445
22.360444
22.360444
22.360444
22.360443
22.360443
22.360443
22.360442
22.360442
22.360442
22.360441
22.360441
22.360441
22.36044
22.36044
22.36044
22.360439
22.360439
22.360438
22.360438
22.360438
22.360437
22.360437
22.360437
22.360436
22.360436
22.360435
22.360435
22.360434
22.360434
22.360434
22.360433
22.360433
22.360432
22.360432
22.360431
22.360431
22.36043
22.36043
22.360429
22.360429
22.360428
22.360428
22.360427
22.360427
22.360426
22.360426
22.360425
22.360424
22.360424
22.360423
22.360423
22.360422
22.360422
22.360421
22.36042
22.36042
22.360419
22.360418
22.360418
22.360417
22.360417
22.360416
22.360415
22.360415
22.360414
22.360413
22.360413
22.360412
22.360411
22.360411
22.36041
22.360409
22.360409
22.360408
22.360407
22.360407
22.360406
22.360405
22.360404
22.360404
22.360403
22.360403
22.360402
22.360401
22.3604
22.3604
22.360399
22.360398
22.360398
22.360397
22.360397
22.360396
22.360395
22.360394
22.360394
22.360393
22.360393
22.360392
22.360391
22.360391
22.36039
22.360389
22.360388
22.360388
22.360387
22.360387
22.360386
22.360385
22.360384
22.360384
22.360383
22.360383
22.360382
22.360381
22.360381
22.36038
22.360379
22.360379
22.360378
22.360377
22.360377
22.360376
22.360376
22.360375
22.360374
22.360374
22.360373
22.360372
22.360372
22.360371
22.360371
22.36037
22.360369
22.360369
22.360368
22.360368
22.360367
22.360366
22.360366
22.360365
22.360364
22.360364
22.360363
22.360363
22.360362
22.360361
22.360361
22.36036
22.36036
22.360359
22.360358
22.360358
22.360357
22.360357
22.360356
22.360356
22.360355
22.360354
22.360354
22.360353
22.360353
22.360352
22.360352
22.360351
22.36035
22.36035
22.360349
22.360349
22.360349
22.360348
22.360348
22.360347
22.360346
22.360346
22.360345
22.360345
22.360344
22.360344
22.360343
22.360343
22.360342
22.360342
22.360341
22.360341
22.36034
22.36034
22.360339
22.360339
22.360339
22.360338
22.360337
22.360337
22.360336
22.360336
22.360336
22.360335
22.360335
22.360334
22.360333
22.360333
22.360333
22.360332
22.360332
22.360331
22.360331
22.36033
22.36033
22.360329
22.360329
22.360328
22.360328
22.360327
22.360327
22.360326
22.360326
22.360325
22.360324
22.360324
22.360323
22.360323
22.360322
22.360322
22.360321
22.360321
22.36032
22.360319
22.360319
22.360318
22.360318
22.360317
22.360317
22.360316
22.360315
22.360315
22.360314
22.360314
22.360313
22.360312
22.360312
22.360311
22.36031
22.36031
22.360309
22.360309
22.360308
22.360307
22.360307
22.360306
22.360305
22.360305
22.360304
22.360303
22.360303
22.360302
22.360301
22.360301
22.3603
22.360299
22.360299
22.360298
22.360297
22.360297
22.360296
22.360295
22.360295
22.360294
22.360293
22.360293
22.360292
22.360291
22.360291
22.36029
22.360289
22.360288
22.360288
22.360287
22.360286
22.360286
22.360285
22.360284
22.360284
22.360283
22.360282
22.360282
22.360281
22.360281
22.36028
22.360279
22.360278
22.360278
22.360277
22.360277
22.360276
22.360275
22.360275
22.360274
22.360273
22.360273
22.360272
22.360272
22.360271
22.36027
22.36027
22.360269
22.360269
22.360268
22.360267
22.360267
22.360266
22.360266
22.360265
22.360265
22.360264
22.360263
22.360263
22.360262
22.360262
22.360261
22.360261
22.36026
22.360259
22.360259
22.360258
22.360258
22.360257
22.360257
22.360256
22.360256
22.360255
22.360255
22.360254
22.360254
22.360253
22.360253
22.360252
22.360252
22.360251
22.360251
22.36025
22.36025
22.360249
22.360249
22.360248
22.360248
22.360247
22.360247
22.360246
22.360246
22.360245
22.360245
22.360244
22.360244
22.360243
22.360243
22.360242
22.360242
22.360241
22.360241
22.36024
22.36024
22.360239
22.360239
22.360238
22.360238
22.360237
22.360237
22.360236
22.360236
22.360235
22.360235
22.360235
22.360234
22.360234
22.360233
22.360233
22.360232
22.360232
22.360231
22.360231
22.36023
22.36023
22.360229
22.360229
22.360228
22.360228
22.360227
22.360227
22.360227
22.360226
22.360226
22.360225
22.360224
22.360224
22.360224
22.360223
22.360223
22.360222
22.360222
22.360221
22.360221
22.36022
22.36022
22.36022
22.360219
22.360219
22.360218
22.360218
22.360218
22.360217
22.360217
22.360216
22.360216
22.360216
22.360215
22.360215
22.360214
22.360214
22.360214
22.360213
22.360213
22.360213
22.360212
22.360212
22.360212
22.360211
22.360211
22.360211
22.36021
22.36021
22.36021
22.360209
22.360209
22.360209
22.360208
22.360208
22.360208
22.360208
22.360208
22.360207
22.360207
22.360207
22.360206
22.360206
22.360206
22.360206
22.360205
22.360205
22.360205
22.360205
22.360204
22.360204
22.360204
22.360204
22.360204
22.360203
22.360203
22.360203
22.360203
22.360202
22.360202
22.360202
22.360202
22.360201
22.360201
22.360201
22.360201
22.360201
22.3602
22.3602
22.3602
22.3602
22.360199
22.360199
22.360199
22.360199
22.360198
22.360198
22.360198
22.360197
22.360197
22.360197
22.360197
22.360196
22.360196
22.360196
22.360195
22.360195
22.360195
22.360195
22.360194
22.360194
22.360193
22.360193
22.360193
22.360192
22.360192
22.360192
22.360191
22.360191
22.360191
22.36019
22.36019
22.360189
22.360189
22.360189
22.360188
22.360188
22.360187
22.360187
22.360186
22.360186
22.360185
22.360185
22.360185
22.360184
22.360184
22.360183
22.360183
22.360182
22.360181
22.360181
22.360181
22.36018
22.36018
22.360179
22.360179
22.360178
22.360177
22.360177
22.360176
22.360176
22.360175
22.360175
22.360174
22.360174
22.360173
22.360173
22.360172
22.360171
22.360171
22.36017
22.36017
22.360169
22.360169
22.360168
22.360167
22.360167
22.360166
22.360166
22.360165
22.360165
22.360164
22.360163
22.360163
22.360162
22.360162
22.360161
22.36016
22.36016
22.360159
22.360158
22.360158
22.360157
22.360157
22.360156
22.360156
22.360155
22.360154
22.360154
22.360153
22.360152
22.360152
22.360151
22.360151
22.36015
22.36015
22.360149
22.360148
22.360148
22.360147
22.360146
22.360146
22.360145
22.360145
22.360144
22.360144
22.360143
22.360142
22.360142
22.360141
22.360141
22.36014
22.36014
22.360139
22.360138
22.360138
22.360137
22.360137
22.360136
22.360136
22.360135
22.360135
22.360134
22.360133
22.360133
22.360132
22.360132
22.360131
22.360131
22.36013
22.36013
22.360129
22.360129
22.360128
22.360128
22.360127
22.360127
22.360126
22.360126
22.360125
22.360125
22.360124
22.360124
22.360123
22.360123
22.360122
22.360122
22.360121
22.360121
22.36012
22.36012
22.360119
22.360119
22.360119
22.360118
22.360118
22.360117
22.360117
22.360116
22.360116
22.360116
22.360115
22.360115
22.360114
22.360114
22.360113
22.360113
22.360113
22.360112
22.360112
22.360111
22.360111
22.360111
22.36011
22.36011
22.360109
22.360109
22.360109
22.360108
22.360108
22.360107
22.360107
22.360107
22.360106
22.360106
22.360105
22.360105
22.360105
22.360104
22.360104
22.360104
22.360103
22.360103
22.360103
22.360102
22.360102
22.360101
22.360101
22.360101
22.3601
22.3601
22.3601
22.360099
22.360099
22.360098
22.360098
22.360098
22.360097
22.360097
22.360097
22.360096
22.360096
22.360095
22.360095
22.360095
22.360094
22.360094
22.360094
22.360093
22.360093
22.360092
22.360092
22.360092
22.360091
22.360091
22.360091
22.36009
22.36009
22.360089
22.360089
22.360089
22.360088
22.360088
22.360087
22.360087
22.360087
22.360086
22.360086
22.360086
22.360085
22.360085
22.360084
22.360084
22.360083
22.360083
22.360083
22.360082
22.360082
22.360082
22.360081
22.360081
22.36008
22.36008
22.36008
22.360079
22.360079
22.360078
22.360078
22.360078
22.360077
22.360077
22.360077
22.360076
22.360076
22.360075
22.360075
22.360075
22.360074
22.360074
22.360073
22.360073
22.360073
22.360072
22.360072
22.360072
22.360071
22.360071
22.36007
22.36007
22.36007
22.360069
22.360069
22.360069
22.360068
22.360068
22.360067
22.360067
22.360067
22.360066
22.360066
22.360066
22.360065
22.360065
22.360065
22.360064
22.360064
22.360063
22.360063
22.360063
22.360063
22.360062
22.360062
22.360061
22.360061
22.360061
22.36006
22.36006
22.36006
22.360059
22.360059
22.360059
22.360058
22.360058
22.360058
22.360057
22.360057
22.360056
22.360056
22.360056
22.360055
22.360055
22.360055
22.360054
22.360054
22.360054
22.360053
22.360053
22.360053
22.360052
22.360052
22.360051
22.360051
22.360051
22.36005
22.36005
22.36005
22.360049
22.360049
22.360048
22.360048
22.360048
22.360047
22.360047
22.360046
22.360046
22.360046
22.360045
22.360045
22.360044
22.360044
22.360044
22.360043
22.360043
22.360042
22.360042
22.360042
22.360041
22.360041
22.36004
22.36004
22.360039
22.360039
22.360038
22.360038
22.360038
22.360037
22.360037
22.360036
22.360036
22.360035
22.360035
22.360034
22.360034
22.360033
22.360033
22.360032
22.360032
22.360031
22.360031
22.36003
22.36003
22.360029
22.360029
22.360028
22.360028
22.360027
22.360027
22.360026
22.360026
22.360025
22.360024
22.360024
22.360023
22.360023
22.360022
22.360022
22.360021
22.360021
22.36002
22.36002
22.360019
22.360019
22.360018
22.360018
22.360017
22.360017
22.360016
22.360016
22.360015
22.360014
22.360013
22.360013
22.360012
22.360011
22.360011
22.36001
22.36001
22.360009
22.360009
22.360009
22.360009
22.360009
22.360008
22.360008
22.360008
22.360007
22.360006
22.360004
22.360002
22.36
22.359998
22.359996
22.359994
22.359994
22.359995
22.359999
22.360004
22.36001
22.360017
22.360024
22.360031
22.360035
22.360038
22.360043
22.360062
22.360133
22.360355
22.361079
22.362045
22.361209
22.359611
22.359756
22.35995
22.359927
22.359917
22.359932
22.359948
22.359958
22.359969
22.359979
22.359988
22.359995
22.36
22.360004
22.360007
22.360009
22.360011
22.360012
22.360013
22.360014
22.360014
22.360015
22.360015
22.360015
22.360015
22.360014
22.360014
22.360014
22.360013
22.360013
22.360013
22.360012
22.360012
22.36001
22.360003
22.360004
22.360011
22.360011
22.360011
22.360011
22.360011
22.36001
22.36001
22.36001
22.36001
22.36001
22.36001
22.36001
22.36001
22.360009
22.360009
22.360009
22.360009
22.360008
22.360008
22.360008
22.360007
22.360007
22.360007
22.360007
22.360006
22.360006
22.360006
22.360005
22.360005
22.360005
22.360004
22.360004
22.360004
22.360003
22.360003
22.360003
22.360002
22.360002
22.360001
22.360001
22.360001
22.36
22.36
22.359999
22.359999
22.359999
22.359998
22.359998
22.359997
22.359997
22.359996
22.359996
22.359995
22.359995
22.359995
22.359994
22.359994
22.359993
22.359993
22.359992
22.359992
22.359991
22.359991
22.35999
22.35999
22.359989
22.359989
22.359988
22.359988
22.359987
22.359987
22.359986
22.359985
22.359985
22.359984
22.359984
22.359983
22.359983
22.359982
22.359982
22.359981
22.359981
22.35998
22.35998
22.359979
22.359979
22.359978
22.359978
22.359977
22.359977
22.359976
22.359976
22.359975
22.359975
22.359974
22.359974
22.359973
22.359973
22.359972
22.359972
22.359971
22.359971
22.35997
22.35997
22.359969
22.359969
22.359968
22.359968
22.359967
22.359967
22.359966
22.359966
22.359965
22.359965
22.359964
22.359964
22.359963
22.359963
22.359962
22.359962
22.359961
22.359961
22.35996
22.35996
22.359959
22.359959
22.359958
22.359958
22.359957
22.359957
22.359956
22.359956
22.359956
22.359955
22.359955
22.359954
22.359954
22.359953
22.359953
22.359952
22.359952
22.359952
22.359951
22.359951
22.35995
22.35995
22.359949
22.359949
22.359949
22.359948
22.359948
22.359947
22.359947
22.359947
22.359946
22.359946
22.359945
22.359945
22.359945
22.359944
22.359944
22.359943
22.359943
22.359943
22.359942
22.359942
22.359942
22.359941
22.359941
22.35994
22.35994
22.35994
22.359939
22.359939
22.359939
22.359938
22.359938
22.359938
22.359937
22.359937
22.359937
22.359936
22.359936
22.359936
22.359935
22.359935
22.359935
22.359934
22.359934
22.359934
22.359933
22.359933
22.359933
22.359932
22.359932
22.359932
22.359931
22.359931
22.359931
22.35993
22.35993
22.35993
22.35993
22.359929
22.359929
22.359929
22.359928
22.359928
22.359928
22.359928
22.359927
22.359927
22.359927
22.359926
22.359926
22.359926
22.359925
22.359925
22.359925
22.359925
22.359924
22.359924
22.359924
22.359923
22.359923
22.359923
22.359922
22.359922
22.359922
22.359922
22.359921
22.359921
22.359921
22.35992
22.35992
22.35992
22.359919
22.359919
22.359918
22.359918
22.359918
22.359917
22.359917
22.359917
22.359916
22.359916
22.359915
22.359915
22.359915
22.359914
22.359914
22.359913
22.359913
22.359913
22.359912
22.359912
22.359911
22.359911
22.359911
22.35991
22.35991
22.359909
22.359909
22.359908
22.359908
22.359907
22.359907
22.359906
22.359906
22.359906
22.359905
22.359905
22.359904
22.359904