/*--------------------------------*- C++ -*----------------------------------*\
| =========                 |                                                 |
| \\      /  F ield         | OpenFOAM: The Open Source CFD Toolbox           |
|  \\    /   O peration     | Version:  4.x                                   |
|   \\  /    A nd           | Web:      www.OpenFOAM.org                      |
|    \\/     M anipulation  |                                                 |
\*---------------------------------------------------------------------------*/
FoamFile
{
    version     2.0;
    format      ascii;
    class       volScalarField;
    location    "0.84";
    object      T;
}
// * * * * * * * * * * * * * * * * * * * * * * * * * * * * * * * * * * * * * //

dimensions      [0 0 0 1 0 0 0];

internalField   nonuniform List<scalar> 
6279
(
300.0002737
300.0002598
300.0002549
300.0002672
300.0002845
300.0002787
300.0002429
300.0002057
300.0001921
300.000208
300.0002516
300.0003203
300.0003368
300.0003182
300.0003057
300.0003029
300.0003073
300.0003102
300.0003156
300.0003342
300.0003668
300.0004088
300.0004569
300.0005018
300.000397
300.0003807
300.0003627
300.0003492
300.000346
300.0003548
300.0003805
300.0004281
300.0004916
300.0005578
300.0006149
300.0006539
300.0004512
300.0004412
300.00042
300.0003968
300.0003837
300.0003855
300.0004107
300.000462
300.0005343
300.0006107
300.0006765
300.0007195
300.0002818
300.000275
300.0002747
300.0002844
300.0002934
300.000282
300.0002423
300.0002002
300.0001836
300.0001971
300.0002364
300.0003017
300.0003399
300.000329
300.0003188
300.0003133
300.0003126
300.0003094
300.0003078
300.0003175
300.0003441
300.0003841
300.0004308
300.0004741
300.0003968
300.0003821
300.0003649
300.0003525
300.0003489
300.0003537
300.000375
300.000415
300.0004713
300.0005351
300.0005933
300.0006338
300.0004489
300.0004391
300.0004171
300.0003976
300.0003876
300.0003884
300.0004109
300.0004587
300.0005279
300.0006035
300.0006707
300.0007141
300.0002877
300.0002854
300.000287
300.0002927
300.0002949
300.0002811
300.0002391
300.0001931
300.0001726
300.0001827
300.0002162
300.0002732
300.0003417
300.0003346
300.0003238
300.0003165
300.0003123
300.0003045
300.0002934
300.0002935
300.0003108
300.000347
300.0003921
300.0004336
300.0003942
300.0003811
300.0003639
300.0003527
300.0003475
300.0003481
300.0003612
300.000391
300.0004383
300.000496
300.0005519
300.0005917
300.0004423
300.0004324
300.0004118
300.0003961
300.000387
300.0003866
300.0004064
300.0004488
300.0005115
300.0005831
300.0006487
300.0006945
300.00029
300.0002905
300.0002928
300.0002939
300.0002933
300.0002772
300.0002344
300.0001856
300.000161
300.0001669
300.0001936
300.0002409
300.0003403
300.0003354
300.0003239
300.0003153
300.0003083
300.000294
300.0002756
300.0002669
300.0002754
300.000303
300.0003446
300.0003837
300.0003889
300.0003765
300.0003595
300.0003488
300.0003407
300.0003351
300.0003395
300.0003583
300.0003938
300.000442
300.000493
300.0005301
300.0004319
300.0004198
300.0004013
300.0003889
300.00038
300.0003776
300.0003922
300.0004256
300.0004765
300.0005385
300.0005976
300.0006456
300.0002884
300.0002904
300.0002929
300.0002919
300.0002885
300.0002707
300.0002285
300.0001788
300.0001501
300.0001512
300.0001702
300.0002087
300.0003353
300.0003315
300.000319
300.0003095
300.0002994
300.0002807
300.0002576
300.0002427
300.000245
300.0002638
300.0002992
300.0003344
300.0003785
300.0003657
300.000349
300.0003385
300.0003272
300.0003169
300.0003162
300.0003274
300.0003535
300.0003928
300.0004374
300.0004702
300.000417
300.0004045
300.0003866
300.0003742
300.0003642
300.0003596
300.0003699
300.0003962
300.0004387
300.0004926
300.0005458
300.0005913
300.0002785
300.0002779
300.000282
300.0002799
300.0002729
300.0002546
300.0002189
300.0001734
300.00014
300.0001306
300.0001364
300.000154
300.0003132
300.0003123
300.0003023
300.0002934
300.0002819
300.0002598
300.0002307
300.0002044
300.0001926
300.0001961
300.0002124
300.0002341
300.0003465
300.0003377
300.000325
300.0003152
300.0003012
300.000283
300.0002694
300.0002642
300.0002701
300.0002883
300.0003161
300.0003383
300.0003765
300.0003654
300.0003517
300.0003409
300.0003293
300.0003195
300.0003176
300.0003258
300.0003467
300.0003793
300.0004168
300.0004509
300.0002857
300.0002808
300.0002805
300.0002724
300.0002581
300.0002365
300.0002006
300.0001622
300.000141
300.0001389
300.0001519
300.0001756
300.0003252
300.0003209
300.0003113
300.0002993
300.0002875
300.0002632
300.000234
300.0002111
300.0002037
300.0002138
300.0002357
300.0002606
300.0003651
300.0003554
300.0003417
300.0003264
300.0003117
300.0002922
300.0002779
300.0002744
300.0002854
300.0003118
300.0003438
300.000372
300.0004013
300.000379
300.0003586
300.0003436
300.0003303
300.0003186
300.0003171
300.0003287
300.0003547
300.000394
300.0004361
300.0004817
300.0003117
300.0003026
300.0002916
300.0002773
300.0002595
300.0002347
300.0001967
300.0001651
300.0001592
300.0001736
300.0002029
300.0002377
300.000357
300.0003433
300.000327
300.0003023
300.0002832
300.0002611
300.0002425
300.000236
300.0002427
300.0002647
300.0002971
300.0003375
300.0004028
300.0003749
300.0003477
300.0003216
300.0003062
300.0002948
300.0002942
300.0003052
300.0003291
300.0003668
300.0004071
300.0004586
300.0004462
300.0003962
300.0003665
300.0003487
300.0003375
300.0003311
300.0003352
300.0003543
300.000394
300.0004468
300.000501
300.0005652
300.0003254
300.0002992
300.0002822
300.0002648
300.0002423
300.0002163
300.0001794
300.0001503
300.0001504
300.0001807
300.000229
300.0002954
300.0003978
300.0003411
300.0003114
300.0002765
300.0002481
300.0002287
300.0002207
300.0002283
300.0002536
300.0003016
300.0003631
300.0004438
300.0004654
300.0003826
300.0003405
300.0003084
300.0002886
300.0002808
300.0002865
300.0003115
300.0003619
300.0004312
300.0005055
300.0005732
300.0005072
300.0004432
300.0004028
300.000369
300.0003384
300.0003269
300.0003334
300.0003674
300.0004245
300.0004965
300.0005727
300.0006377
300.0004083
300.0003303
300.0002698
300.0002404
300.0002084
300.0001782
300.0001544
300.0001442
300.0001685
300.0002178
300.0003362
300.0004459
300.0004786
300.0003824
300.0003146
300.000282
300.0002475
300.0002201
300.0002138
300.0002409
300.0003078
300.0003827
300.0004861
300.0005649
300.0005321
300.000465
300.0004002
300.0003477
300.0002991
300.0002764
300.0002831
300.0003247
300.0003962
300.0004848
300.0005673
300.0006229
300.000591
300.0005657
300.0004889
300.0004237
300.0003698
300.0003373
300.0003328
300.0003653
300.0004338
300.0005219
300.0006023
300.0006488
300.0002784
300.0002442
300.0001736
300.000143
300.0001165
300.0000791
300.0000344
300.0000112
300.0000209
300.0001012
300.0002335
300.0002952
300.0003387
300.0003104
300.0002476
300.0001957
300.0001602
300.000126
300.0000964
300.0001048
300.0001554
300.0002703
300.0003681
300.0003971
300.000443
300.0004238
300.0003531
300.0002581
300.0002056
300.000179
300.0001801
300.0002198
300.0003056
300.0004353
300.0005055
300.0005192
300.0005121
300.0004858
300.0004188
300.0003321
300.0002693
300.0002322
300.0002331
300.0002802
300.0003682
300.0004798
300.0005489
300.0005679
300.0005435
300.0005234
300.0004651
300.0003752
300.0002963
300.0002404
300.0002225
300.0002563
300.0003401
300.000444
300.0005224
300.0005525
299.9998931
299.9999042
300.0000373
300.0000366
300.000019
299.9999892
299.9999451
299.9999219
299.9999591
300.0000183
299.9999487
299.9999471
299.9999301
299.9999693
300.0000857
300.0000713
300.0000584
300.0000252
300.0000094
300.0000353
300.000091
300.0001376
300.0000281
299.9999977
299.9999717
300.0000016
300.0000694
300.0000826
300.0000576
300.0000206
300.0000255
300.0000855
300.000144
300.0001375
300.0000399
300.0000223
299.9999515
299.9999593
300.000005
300.0000171
299.9999633
299.9999054
299.9998828
299.999908
299.9999668
299.999988
299.9999597
299.9999722
299.9999397
299.9999572
300.000034
300.0000149
299.999956
299.9998979
299.9998663
299.9998748
299.9999162
299.9999485
299.9999342
299.9999433
300.0003344
300.0004012
300.0004662
300.0005258
300.0004317
300.0005079
300.000581
300.0006399
300.0005222
300.0006024
300.0006654
300.0007035
300.0005554
300.0006267
300.0006734
300.0006946
300.0005074
300.0005554
300.0005724
300.0005714
300.0002293
300.0002496
300.0002389
300.0002327
300.0003365
300.0004035
300.0004662
300.0005252
300.0004297
300.0005041
300.0005708
300.0006297
300.0005197
300.0005994
300.0006572
300.0006975
300.0005541
300.0006274
300.0006712
300.0006949
300.0005089
300.000565
300.0005837
300.0005838
300.0002316
300.0002619
300.0002536
300.0002451
300.0003343
300.000399
300.0004569
300.000512
300.0004203
300.0004919
300.0005528
300.0006072
300.0005082
300.0005839
300.0006417
300.0006846
300.0005472
300.0006242
300.0006696
300.0006937
300.0005138
300.0005762
300.0005986
300.0006027
300.0002339
300.0002784
300.0002782
300.0002744
300.0003286
300.0003901
300.0004404
300.0004915
300.0004025
300.0004713
300.0005284
300.0005823
300.0004897
300.0005659
300.0006227
300.0006673
300.0005363
300.000612
300.0006554
300.0006762
300.0004942
300.0005628
300.0005912
300.0005984
300.0002151
300.0002712
300.000275
300.0002585
300.0003188
300.000374
300.0004188
300.0004682
300.0003761
300.0004439
300.0004989
300.0005511
300.0004554
300.0005348
300.0005914
300.0006326
300.000517
300.0005902
300.0006338
300.0006647
300.0004938
300.0005739
300.0006101
300.0006334
300.0002252
300.000316
300.0003377
300.0003841
300.0002927
300.0003412
300.0003791
300.0004163
300.0003275
300.0003931
300.0004393
300.000482
300.0003874
300.0004699
300.0005107
300.0005616
300.0004615
300.0005167
300.0005793
300.000635
300.0004189
300.0004812
300.0004964
300.0004926
300.0000117
300.0000252
300.0000767
299.9999694
300.0005492
300.0005332
300.0005017
300.0004587
300.0004237
300.0004103
300.000427
300.0004796
300.0005606
300.0006495
300.0007282
300.0007827
300.0006619
300.0006393
300.0005898
300.0005257
300.000464
300.0004241
300.0004272
300.000477
300.0005636
300.0006633
300.0007563
300.0008195
300.0007209
300.0007066
300.0006596
300.0005794
300.0004881
300.0004172
300.000391
300.0004263
300.0005215
300.0006391
300.0007395
300.0008076
300.0007099
300.0007117
300.0006828
300.0006095
300.0005098
300.0004159
300.0003636
300.0003813
300.0004667
300.000587
300.0006917
300.0007565
300.0005869
300.0006237
300.0006278
300.0005833
300.0004977
300.0004094
300.0003568
300.0003646
300.0004271
300.000518
300.0005933
300.0006288
300.0002436
300.0002769
300.000301
300.0003016
300.0002763
300.0002392
300.0002142
300.0002125
300.000231
300.0002593
300.0002767
300.0002778
300.0005423
300.000518
300.000485
300.0004512
300.0004239
300.0004133
300.0004291
300.0004792
300.0005594
300.0006494
300.0007275
300.0007828
300.0006445
300.0006112
300.0005633
300.0005062
300.0004548
300.0004231
300.0004269
300.0004753
300.0005618
300.0006623
300.0007514
300.0008143
300.0007119
300.0006906
300.0006408
300.0005632
300.0004817
300.0004204
300.0003979
300.000432
300.0005238
300.000638
300.000734
300.0007992
300.0007099
300.0007081
300.000677
300.0006083
300.0005123
300.0004217
300.0003722
300.0003878
300.0004695
300.0005844
300.0006838
300.0007446
300.0006046
300.0006316
300.0006227
300.0005822
300.0005029
300.0004106
300.0003568
300.0003641
300.0004255
300.000513
300.0005855
300.0006203
300.0002659
300.0002998
300.0003137
300.0003147
300.0002885
300.0002471
300.0002182
300.0002156
300.0002345
300.0002625
300.000282
300.0002822
300.0005231
300.000496
300.0004654
300.0004378
300.0004171
300.0004083
300.0004238
300.0004712
300.000547
300.0006328
300.0007076
300.0007647
300.0006165
300.0005798
300.0005332
300.0004847
300.000443
300.0004178
300.0004228
300.0004697
300.0005537
300.0006505
300.0007339
300.0007934
300.0006953
300.0006655
300.0006156
300.0005488
300.0004766
300.0004221
300.0004055
300.0004399
300.0005258
300.0006321
300.0007216
300.0007833
300.0007062
300.0006965
300.0006614
300.0005967
300.0005048
300.0004159
300.0003738
300.0003924
300.000472
300.0005832
300.0006791
300.0007395
300.000621
300.0006461
300.0006344
300.0005865
300.0005046
300.0004129
300.0003591
300.0003664
300.0004288
300.000518
300.00059
300.000627
300.0002885
300.0003125
300.0003362
300.0003383
300.0002984
300.0002518
300.0002226
300.0002212
300.0002413
300.0002712
300.0002893
300.0002943
300.0004989
300.0004697
300.000443
300.0004183
300.000401
300.0003947
300.0004096
300.0004507
300.0005157
300.0005918
300.0006595
300.000718
300.0005897
300.0005501
300.0005072
300.0004646
300.0004306
300.0004113
300.0004168
300.0004599
300.0005353
300.000622
300.0006995
300.0007554
300.0006768
300.0006399
300.0005858
300.0005207
300.0004588
300.0004138
300.0004038
300.0004409
300.0005206
300.0006155
300.0006983
300.0007536
300.0006872
300.0006843
300.0006442
300.0005728
300.0004914
300.0004123
300.0003749
300.000396
300.0004726
300.0005765
300.0006642
300.0007152
300.000606
300.0006256
300.0006181
300.000566
300.0004795
300.0003981
300.0003513
300.0003591
300.0004176
300.0005021
300.000571
300.0005978
300.0002718
300.0003129
300.0003291
300.0003238
300.0002812
300.0002369
300.0002095
300.0002071
300.0002252
300.0002538
300.000274
300.0002727
300.0004756
300.0004457
300.0004195
300.0003975
300.0003823
300.0003763
300.0003881
300.0004217
300.0004764
300.0005424
300.0006048
300.0006645
300.0005553
300.0005133
300.0004723
300.0004361
300.0004101
300.0003971
300.000404
300.0004414
300.0005074
300.0005855
300.0006568
300.0007134
300.0006344
300.0005938
300.0005458
300.0004895
300.000436
300.0004018
300.0003961
300.0004324
300.0005045
300.0005921
300.0006707
300.0007273
300.0006804
300.0006584
300.000614
300.0005464
300.0004702
300.0004024
300.0003719
300.0003959
300.0004697
300.0005694
300.0006524
300.0007078
300.0006416
300.0006399
300.0006092
300.000553
300.0004695
300.0003912
300.0003474
300.0003606
300.0004233
300.0005124
300.0005853
300.0006495
300.0003806
300.0003709
300.0003769
300.0003339
300.0002834
300.0002346
300.0002047
300.0002035
300.0002316
300.0002859
300.0003441
300.0003714
300.0004214
300.0003946
300.0003753
300.0003572
300.0003434
300.0003367
300.0003408
300.0003595
300.0003936
300.0004396
300.0004878
300.0005478
300.0004861
300.0004423
300.0004178
300.0003965
300.0003758
300.0003669
300.0003747
300.0004028
300.0004494
300.0005076
300.0005662
300.0006264
300.0005857
300.0005333
300.0004784
300.000431
300.0003979
300.0003782
300.0003743
300.0004036
300.0004614
300.0005351
300.0006071
300.0006721
300.0006221
300.0005919
300.0005554
300.0004931
300.0004292
300.000377
300.0003578
300.0003818
300.0004423
300.0005202
300.0005962
300.0006535
300.0005092
300.000544
300.0005106
300.0004619
300.0003912
300.0003268
300.0002912
300.0002975
300.0003372
300.0004119
300.0005032
300.0004935
300.000001
300.0001279
300.0001102
300.0001281
300.0001184
300.0000907
300.0000629
300.0000415
300.0000105
300.0000064
300.0000134
299.9999805
300.000802
300.0007518
300.0006202
300.0004502
300.0008431
300.00082
300.0007212
300.000571
300.0008354
300.0008249
300.000752
300.0006254
300.0007834
300.0007842
300.0007336
300.0006214
300.0006469
300.0006582
300.0006354
300.0005604
300.0002851
300.0003011
300.0002999
300.0002733
300.0007956
300.0007244
300.0005818
300.000412
300.0008362
300.0007956
300.0006878
300.0005377
300.0008258
300.0008071
300.0007337
300.0006115
300.0007734
300.0007749
300.0007224
300.0006186
300.0006411
300.0006584
300.0006351
300.0005623
300.0002869
300.0003057
300.0003005
300.000275
300.0007692
300.0006777
300.0005321
300.0003706
300.0008108
300.0007573
300.0006434
300.0004979
300.0008078
300.0007831
300.0007045
300.0005864
300.0007697
300.000767
300.0007113
300.0006096
300.0006483
300.0006615
300.0006436
300.000568
300.0002967
300.0003233
300.0003058
300.0002867
300.0007172
300.0006142
300.0004734
300.0003236
300.0007668
300.0007046
300.0005903
300.0004481
300.0007751
300.0007485
300.0006749
300.0005531
300.0007432
300.0007324
300.0006874
300.0005945
300.0006357
300.0006505
300.0006203
300.0005559
300.0002758
300.0003138
300.0003037
300.0002763
300.0006587
300.0005477
300.0004126
300.0002765
300.0007189
300.0006452
300.0005329
300.0003936
300.000746
300.0007092
300.0006265
300.0005029
300.000735
300.0007259
300.0006616
300.0005677
300.0006589
300.0006775
300.0006272
300.0005599
300.0004143
300.0003602
300.0003593
300.0002901
300.0005281
300.0004134
300.000301
300.0002015
300.0006202
300.0005343
300.0004209
300.0003052
300.0006753
300.0006403
300.0005354
300.0004226
300.0006896
300.0006529
300.0005968
300.0005104
300.0005528
300.0005665
300.0005315
300.000472
299.9999851
300.0001018
300.000081
300.0000783
300.0003534
300.0002462
300.0002816
300.0003326
300.0003388
300.000333
300.0003262
300.0003044
300.0002544
300.0001695
300.0001277
300.0002692
300.0001863
299.9999878
299.9999869
300.0000044
299.9999984
299.9999783
299.9999514
299.9998982
299.9998315
299.9998082
299.999833
300.0000896
300.0001455
299.9998712
299.9998513
299.9998885
299.9998919
299.9998802
299.999845
299.9997717
299.9996949
299.9996733
299.9997718
300.0001112
300.0000896
299.9997641
299.999757
299.9997813
299.9998063
299.9998189
299.9997931
299.9997124
299.9996597
299.9996717
299.9997836
300.0001849
300.0000636
299.9997224
299.9996965
299.9997239
299.9997674
299.9998007
299.9997873
299.9997176
299.9996767
299.9997039
299.9998166
300.000217
300.000079
299.9997361
299.9997045
299.9997396
299.999793
299.9998215
299.9997925
299.9997294
299.999705
299.9997406
299.9998431
300.0002314
300.0001257
299.9997928
299.9997725
299.9998077
299.9998463
299.9998418
299.9997858
299.999741
299.99974
299.9997853
299.9998691
300.0002345
300.0001736
299.9998521
299.9998435
299.9998644
299.9998848
299.9998579
299.9998148
299.9998097
299.999846
299.9998756
299.999908
300.0002349
300.0001933
299.9998876
299.9998944
299.9999122
299.9998997
299.9998652
299.9998552
299.9998974
299.9999494
299.9999527
299.9999519
300.0002499
300.0001887
299.9999123
299.9998954
299.9999173
299.9998937
299.9998541
299.9998485
299.999889
299.9999313
299.9999432
299.9999691
300.0002282
300.0001621
299.9999667
299.9999609
299.9999566
299.9999158
299.9998599
299.9998327
299.9998463
299.9998814
299.999912
299.9999668
300.000186
300.0002962
300.0001771
300.0002402
300.0002661
300.0002394
300.0001975
300.0001673
300.0001624
300.0001682
300.0001521
300.0001532
300.0003039
300.0003277
300.0003664
300.0003991
300.0004284
300.0004182
300.0004026
300.0003944
300.0003787
300.0003411
300.0002938
300.0002793
300.0002687
300.0003332
300.0000265
299.9999857
299.999992
299.9999905
299.9999781
299.9999537
299.9999015
299.9998353
299.9998145
299.9998906
300.000264
300.0002932
299.9998702
299.9997508
299.999766
299.999777
299.9997665
299.9997259
299.9996432
299.9995693
299.9995762
299.9997847
300.0002656
300.0002266
299.999764
299.999635
299.9996562
299.9996814
299.9996919
299.9996617
299.9995787
299.9995328
299.9995507
299.9997884
300.0002921
300.000185
299.9997265
299.9995789
299.999591
299.9996312
299.9996661
299.9996482
299.9995773
299.9995459
299.9995812
299.9998191
300.0003076
300.0001843
299.9997373
299.9995841
299.9996047
299.9996553
299.999685
299.9996546
299.9995935
299.9995799
299.9996238
299.9998474
300.0003138
300.0002305
299.9997928
299.9996491
299.9996764
299.9997111
299.9997051
299.9996522
299.999614
299.9996221
299.9996734
299.9998737
300.0003195
300.0002832
299.9998522
299.9997286
299.9997457
299.9997497
299.9997208
299.9996849
299.9996897
299.9997336
299.9997632
299.9999074
300.000334
300.0003086
299.9998816
299.9997752
299.9997821
299.9997634
299.9997284
299.9997232
299.9997673
299.9998125
299.9998196
299.999935
300.0003517
300.0003105
299.9999136
299.9998037
299.9997948
299.9997658
299.9997264
299.9997212
299.9997591
299.999798
299.999821
299.9999551
300.0003444
300.0003152
300.0000089
299.9999607
299.9999388
299.9999079
299.9998603
299.9998327
299.9998387
299.9998654
299.9999073
300.0000023
300.0003253
300.0003022
300.0003386
300.0003538
300.0003597
300.000335
300.0002893
300.0002612
300.0002679
300.0002883
300.000294
300.0003098
300.0002901
300.0001141
300.0003491
300.0003936
300.0004115
300.0003965
300.0003812
300.0003731
300.0003584
300.0003267
300.0002871
300.0002669
300.0000995
300.0003204
300.0001276
300.0000444
300.0000296
300.0000043
299.9999887
299.9999657
299.9999226
299.9998831
299.9998799
300.0000126
300.0002642
300.0002955
299.9999353
299.9997552
299.9997395
299.9997298
299.9997142
299.9996716
299.9995954
299.9995514
299.9995846
299.9998611
300.0002693
300.0002268
299.9998155
299.9996117
299.9995875
299.9995991
299.9996047
299.9995731
299.9994982
299.999467
299.9995285
299.9998363
300.0002808
300.0001795
299.9997502
299.9995271
299.9995041
299.9995302
299.999562
299.9995444
299.9994811
299.999464
299.9995318
299.9998404
300.0002907
300.0001749
299.9997492
299.9995253
299.9995076
299.9995412
299.9995705
299.9995441
299.9994925
299.9994911
299.9995673
299.9998649
300.0002966
300.0002189
299.9998058
299.9995956
299.999581
299.999597
299.9995928
299.9995478
299.9995191
299.9995398
299.9996199
299.99989
300.0003035
300.0002743
299.99988
299.9996885
299.999661
299.9996455
299.9996173
299.9995884
299.9996022
299.9996582
299.9997149
299.999922
300.0003185
300.0003071
299.9999322
299.9997354
299.9996988
299.9996709
299.9996383
299.9996365
299.9996832
299.9997369
299.9997789
299.9999697
300.0003389
300.0003201
299.999988
299.9997991
299.9997501
299.9997088
299.9996682
299.9996622
299.9997034
299.999754
299.9998104
300.0000046
300.0003369
300.0003147
300.0001156
300.0000084
299.9999691
299.9999198
299.9998714
299.9998424
299.9998536
299.9999034
299.9999604
300.0000973
300.0003112
300.0001125
300.0003175
300.000341
300.0003445
300.0003201
300.0002749
300.000248
300.0002564
300.0002801
300.0002934
300.0002975
300.0001058
300.000127
300.0002931
300.0003566
300.0003635
300.0003451
300.0003318
300.0003241
300.0003124
300.0002943
300.0002648
300.000229
300.0001051
300.0002626
300.0001566
300.0000859
300.0000505
300.0000162
299.9999877
299.9999639
299.9999346
299.9999172
299.9999358
300.0000496
300.0002232
300.0002694
299.9999829
299.9997928
299.9997448
299.9997231
299.9997004
299.999656
299.9995873
299.9995604
299.9996305
299.9999149
300.0002468
300.0002105
299.9998471
299.9996185
299.9995665
299.9995639
299.9995617
299.9995259
299.9994586
299.9994443
299.9995348
299.9998664
300.0002488
300.0001583
299.9997677
299.9995156
299.9994613
299.9994728
299.9994994
299.9994783
299.9994215
299.9994234
299.9995232
299.9998566
300.0002507
300.00015
299.9997458
299.9994983
299.9994527
299.9994727
299.9995011
299.9994734
299.9994266
299.9994445
299.999553
299.9998652
300.000257
300.000186
299.9997996
299.9995697
299.9995254
299.9995294
299.9995265
299.9994812
299.9994575
299.9994993
299.9996095
299.9998925
300.0002658
300.0002395
299.9998825
299.9996657
299.9996135
299.9995883
299.9995589
299.999528
299.9995465
299.9996206
299.9997067
299.9999394
300.0002805
300.0002807
299.9999452
299.9997314
299.9996686
299.9996347
299.9995973
299.9995913
299.9996416
299.9997088
299.9997813
299.9999916
300.0003047
300.0002933
300.0000182
299.9998166
299.9997505
299.9997019
299.999654
299.9996421
299.9996861
299.9997544
299.999837
300.0000435
300.0003056
300.0002577
300.0001255
300.0000375
299.9999898
299.9999366
299.9998711
299.9998405
299.9998646
299.9999244
299.9999988
300.0001239
300.0002588
300.0001094
300.0002572
300.0003084
300.0003112
300.0002821
300.0002369
300.0002121
300.0002224
300.0002514
300.0002696
300.0002468
300.0001137
300.0000806
300.0002173
300.0002919
300.0003084
300.0002957
300.0002812
300.0002732
300.0002651
300.0002477
300.000219
300.0001659
300.0000688
300.0001908
300.0001791
300.0001107
300.0000607
300.0000124
299.9999809
299.9999547
299.9999291
299.9999292
299.9999658
300.0000791
300.0001618
300.0002183
300.0000145
299.9998269
299.9997541
299.9997197
299.9996895
299.9996431
299.9995841
299.99957
299.999667
299.9999469
300.0002007
300.0001757
299.9998675
299.9996314
299.9995654
299.9995493
299.9995379
299.9994973
299.9994358
299.9994368
299.9995448
299.9998823
300.0002067
300.0001289
299.9997699
299.9995181
299.9994503
299.9994508
299.9994668
299.99944
299.9993877
299.9994033
299.9995239
299.9998538
300.0002081
300.0001149
299.9997437
299.9994959
299.9994355
299.9994464
299.9994662
299.9994329
299.9993904
299.9994218
299.9995498
299.999861
300.0002103
300.0001424
299.9997922
299.9995641
299.999508
299.9995032
299.9994923
299.9994423
299.9994235
299.9994799
299.9996082
299.9998893
300.0002206
300.0001901
299.9998754
299.9996627
299.9996016
299.9995677
299.9995291
299.9994935
299.9995153
299.9996001
299.9997055
299.9999383
300.0002394
300.0002257
299.999952
299.9997368
299.9996695
299.9996251
299.9995765
299.9995657
299.9996189
299.9996981
299.9997872
300.0000048
300.0002594
300.0002316
300.000037
299.9998468
299.9997601
299.9997047
299.9996464
299.9996312
299.9996809
299.9997582
299.9998631
300.0000661
300.0002506
300.000183
300.0001497
300.0000651
300.0000073
299.9999364
299.9998674
299.9998352
299.9998628
299.999936
300.000024
300.0001493
300.0001916
300.0000731
300.0001938
300.0002557
300.0002642
300.0002374
300.0001951
300.0001737
300.0001859
300.0002115
300.0002205
300.0001814
300.0000753
300.0000619
300.0001683
300.0002329
300.0002593
300.0002555
300.0002407
300.0002314
300.000223
300.0002017
300.0001689
300.000125
300.0000521
300.000148
300.0001918
300.000133
300.000071
300.0000134
299.9999796
299.9999518
299.9999293
299.9999401
299.9999955
300.0000991
300.0001215
300.0001681
300.0000452
299.9998593
299.9997685
299.9997177
299.9996813
299.9996365
299.9995858
299.99959
299.9997044
299.9999779
300.0001532
300.0001394
299.9998887
299.9996541
299.9995648
299.9995365
299.9995189
299.9994793
299.9994259
299.999438
299.9995659
299.9998971
300.0001662
300.0001025
299.9997772
299.9995276
299.9994468
299.9994351
299.9994434
299.9994166
299.9993709
299.9993961
299.999528
299.9998554
300.0001698
300.0000892
299.9997507
299.999501
299.9994302
299.99943
299.9994414
299.9994079
299.9993711
299.9994102
299.9995482
299.9998595
300.0001699
300.0001148
299.9997988
299.9995687
299.9995011
299.9994852
299.9994669
299.999418
299.9994047
299.9994694
299.999608
299.9998898
300.0001813
300.0001601
299.9998807
299.9996694
299.9995965
299.9995517
299.999507
299.9994726
299.9994988
299.9995897
299.9997065
299.9999401
300.0002027
300.0001882
299.9999755
299.9997615
299.9996732
299.9996139
299.9995584
299.9995486
299.9996069
299.9996945
299.9997997
300.0000179
300.0002157
300.0001841
300.0000741
299.9998844
299.9997824
299.9997084
299.9996433
299.9996298
299.9996825
299.9997699
299.9998886
300.0000912
300.0001987
300.0001433
300.0001726
300.0000954
300.0000193
299.9999383
299.9998687
299.9998376
299.9998661
299.9999493
300.0000502
300.0001619
300.0001471
300.0000581
300.0001482
300.0001996
300.000216
300.0001986
300.0001611
300.000142
300.0001529
300.0001715
300.0001706
300.0001382
300.000057
300.0000501
300.0001354
300.0001912
300.0002233
300.0002219
300.0002094
300.0001984
300.0001861
300.0001669
300.0001332
300.0000989
300.0000403
300.0001163
300.0002004
300.0001471
300.0000827
300.0000201
299.9999811
299.9999531
299.9999346
299.9999539
300.0000188
300.0001126
300.0000929
300.0001262
300.000062
299.9998862
299.9997769
299.9997179
299.9996804
299.9996368
299.9995905
299.9996092
299.999739
299.9999999
300.000117
300.000107
299.9999016
299.9996664
299.999564
299.9995237
299.9995067
299.9994715
299.9994238
299.9994422
299.9995829
299.99991
300.0001351
300.0000749
299.9997887
299.999532
299.9994367
299.9994183
299.9994263
299.9994038
299.999364
299.9993921
299.9995323
299.9998618
300.0001386
300.0000667
299.9997573
299.9995032
299.9994176
299.9994109
299.9994219
299.9993932
299.9993622
299.9994042
299.9995487
299.9998606
300.0001412
300.0000923
299.9998071
299.9995705
299.9994855
299.9994643
299.9994472
299.9994038
299.9993964
299.9994639
299.999609
299.9998917
300.0001526
300.0001328
299.9998938
299.9996735
299.9995837
299.9995327
299.9994906
299.9994619
299.9994926
299.9995838
299.9997088
299.9999478
300.0001711
300.0001578
299.9999945
299.9997795
299.9996726
299.9996006
299.9995458
299.9995406
299.9996028
299.9996947
299.9998123
300.0000319
300.0001819
300.0001462
300.0000926
299.999911
299.9997927
299.9997093
299.9996435
299.9996312
299.9996861
299.9997824
299.9999141
300.000108
300.0001601
300.0001133
300.0001803
300.0001084
300.0000282
299.9999434
299.999872
299.9998443
299.9998781
299.9999639
300.0000696
300.0001728
300.0001172
300.0000452
300.0001166
300.0001591
300.0001801
300.0001655
300.0001342
300.0001164
300.0001232
300.0001396
300.0001336
300.0001094
300.0000448
300.0000406
300.0001121
300.0001594
300.0001907
300.0001922
300.0001783
300.0001666
300.0001559
300.0001378
300.0001067
300.0000794
300.0000307
300.0000934
300.0002028
300.0001554
300.0000929
300.0000258
299.9999837
299.9999546
299.9999384
299.9999653
300.0000343
300.0001206
300.0000718
300.0000973
300.000074
299.999916
299.9997909
299.9997219
299.9996823
299.9996387
299.9995986
299.9996252
299.9997703
300.0000132
300.0000897
300.000081
299.9999111
299.9996796
299.9995656
299.9995218
299.9995034
299.9994684
299.999421
299.9994459
299.9995975
299.9999196
300.0001092
300.0000516
299.9997901
299.9995354
299.9994305
299.9994094
299.9994182
299.999397
299.9993578
299.9993873
299.9995378
299.9998666
300.0001156
300.0000414
299.999756
299.9995016
299.9994065
299.9993993
299.999411
299.9993848
299.9993558
299.9993977
299.9995493
299.9998636
300.0001179
300.0000654
299.9998059
299.9995685
299.9994754
299.9994532
299.9994374
299.9993976
299.9993915
299.9994585
299.9996109
299.9998961
300.0001288
300.0001048
299.9998955
299.9996754
299.9995765
299.9995246
299.9994842
299.9994583
299.9994895
299.9995803
299.9997147
299.9999556
300.0001471
300.0001255
300.0000007
299.9997876
299.9996723
299.9995971
299.9995417
299.9995373
299.9996002
299.9996961
299.9998257
300.0000441
300.000153
300.0001148
300.0000985
299.9999351
299.9998036
299.9997128
299.9996457
299.9996348
299.9996939
299.9997953
299.9999408
300.0001195
300.0001313