/*--------------------------------*- C++ -*----------------------------------*\
  =========                 |
  \\      /  F ield         | OpenFOAM: The Open Source CFD Toolbox
   \\    /   O peration     | Website:  https://openfoam.org
    \\  /    A nd           | Version:  7
     \\/     M anipulation  |
\*---------------------------------------------------------------------------*/
FoamFile
{
    version     2.0;
    format      ascii;
    class       volScalarField;
    location    "0.00199";
    object      mag(U);
}
// * * * * * * * * * * * * * * * * * * * * * * * * * * * * * * * * * * * * * //

dimensions      [0 1 -1 0 0 0 0];

internalField   nonuniform List<scalar> 
5000
(
58.105788
58.056202
58.03204
58.004151
57.977206
57.949892
57.922624
57.895189
57.867762
57.84023
57.812703
57.785111
57.75752
57.729889
57.70226
57.674604
57.646948
57.619279
57.591606
57.563932
57.536253
57.508576
57.480898
57.453223
57.425549
57.397878
57.37021
57.342546
57.314886
57.287232
57.259583
57.231942
57.204308
57.176683
57.149067
57.121459
57.093859
57.066267
57.038677
57.011092
56.983504
56.955918
56.928325
56.900732
56.873134
56.845534
56.817932
56.79033
56.762728
56.735129
56.707532
56.67994
56.652351
56.624767
56.597188
56.569614
56.542045
56.514482
56.486923
56.45937
56.431822
56.404279
56.376741
56.349209
56.321681
56.29416
56.266643
56.239133
56.211626
56.184126
56.15663
56.129141
56.101655
56.074176
56.046702
56.019233
55.991769
55.964311
55.936857
55.909409
55.881965
55.854528
55.827094
55.799666
55.772243
55.744826
55.717413
55.690007
55.662605
55.635209
55.607817
55.580432
55.553051
55.525675
55.498304
55.470938
55.443577
55.416221
55.38887
55.361524
55.334184
55.306848
55.279519
55.252195
55.224876
55.197562
55.170254
55.142951
55.115654
55.088361
55.061073
55.03379
55.006512
54.97924
54.951972
54.92471
54.897453
54.870201
54.842954
54.815711
54.788474
54.761242
54.734014
54.706792
54.679575
54.652363
54.625156
54.597954
54.570758
54.543566
54.516379
54.489198
54.462022
54.43485
54.407684
54.380523
54.353368
54.326217
54.299071
54.271931
54.244795
54.217664
54.190539
54.163419
54.136304
54.109193
54.082088
54.054988
54.027892
54.000801
53.973715
53.946634
53.919559
53.892488
53.865423
53.838362
53.811307
53.784257
53.757212
53.730171
53.703136
53.676105
53.649079
53.622059
53.595044
53.568034
53.54103
53.514032
53.48704
53.460053
53.433071
53.406094
53.379123
53.352158
53.325198
53.298244
53.271297
53.244355
53.21742
53.19049
53.163565
53.136645
53.109729
53.082817
53.055909
53.029004
53.002103
52.975205
52.94831
52.921418
52.894528
52.86764
52.840754
52.813869
52.786986
52.760106
52.733226
52.706349
52.679474
52.652602
52.625732
52.598866
52.572002
52.545141
52.518284
52.49143
52.464579
52.437732
52.410889
52.38405
52.357216
52.330386
52.303561
52.276741
52.249925
52.223114
52.196307
52.169505
52.142707
52.115913
52.089124
52.062341
52.035562
52.008788
51.982019
51.955255
51.928497
51.901742
51.874993
51.848248
51.821508
51.794773
51.768043
51.741317
51.714596
51.68788
51.661168
51.634462
51.60776
51.581064
51.554372
51.527685
51.501003
51.474325
51.447653
51.420984
51.394321
51.367663
51.341009
51.31436
51.287716
51.261077
51.234442
51.207812
51.181187
51.154567
51.127952
51.101342
51.074736
51.048136
51.021539
50.994948
50.968361
50.941779
50.915202
50.88863
50.862062
50.835499
50.80894
50.782386
50.755837
50.729293
50.702753
50.676218
50.649688
50.623163
50.596642
50.570125
50.543614
50.517107
50.490605
50.464108
50.437616
50.411128
50.384645
50.358166
50.331692
50.305223
50.278759
50.2523
50.225845
50.199395
50.17295
50.146509
50.120073
50.093642
50.067216
50.040794
50.014378
49.987966
49.961559
49.935157
49.908759
49.882366
49.855978
49.829595
49.803217
49.776843
49.750475
49.724112
49.697753
49.671399
49.64505
49.618706
49.592367
49.566033
49.539703
49.513377
49.487055
49.460738
49.434424
49.408115
49.38181
49.355509
49.329213
49.30292
49.276632
49.250346
49.224064
49.197784
49.171508
49.145234
49.118963
49.092696
49.066431
49.040169
49.01391
48.987653
48.9614
48.935149
48.908902
48.882657
48.856415
48.830176
48.803941
48.777708
48.751478
48.725252
48.699029
48.672809
48.646592
48.620379
48.59417
48.567964
48.541762
48.515564
48.489369
48.463178
48.436991
48.410809
48.38463
48.358455
48.332285
48.306119
48.279958
48.2538
48.227647
48.201499
48.175354
48.149214
48.123079
48.096947
48.07082
48.044698
48.01858
47.992466
47.966356
47.940251
47.91415
47.888054
47.861962
47.835874
47.809791
47.783712
47.757638
47.731569
47.705503
47.679442
47.653386
47.627333
47.601285
47.575241
47.549202
47.523167
47.497137
47.471111
47.445089
47.419072
47.393059
47.367051
47.341047
47.315047
47.289052
47.263061
47.237074
47.211092
47.185113
47.15914
47.13317
47.107205
47.081244
47.055287
47.029334
47.003386
46.977442
46.951502
46.925567
46.899636
46.87371
46.847788
46.82187
46.795956
46.770046
46.74414
46.718239
46.692342
46.66645
46.640561
46.614677
46.588797
46.562922
46.537051
46.511184
46.485321
46.459462
46.433608
46.407757
46.381911
46.356069
46.330231
46.304397
46.278567
46.252742
46.226921
46.201104
46.175292
46.149483
46.123679
46.097879
46.072083
46.046292
46.020504
45.994721
45.968942
45.943167
45.917396
45.89163
45.865868
45.84011
45.814357
45.788607
45.762862
45.737122
45.711385
45.685653
45.659925
45.634202
45.608482
45.582767
45.557056
45.53135
45.505647
45.479948
45.454254
45.428563
45.402876
45.377193
45.351514
45.325839
45.300168
45.2745
45.248835
45.223175
45.197517
45.171863
45.146213
45.120565
45.094921
45.069279
45.043641
45.018006
44.992374
44.966745
44.941119
44.915495
44.889875
44.864258
44.838644
44.813033
44.787425
44.76182
44.736218
44.710619
44.685023
44.65943
44.633841
44.608255
44.582673
44.557094
44.531519
44.505947
44.48038
44.454816
44.429257
44.403702
44.378151
44.352604
44.327062
44.301525
44.275992
44.250464
44.224941
44.199424
44.173911
44.148403
44.122901
44.097404
44.071913
44.046428
44.020949
43.995476
43.970009
43.944548
43.919094
43.893646
43.868204
43.84277
43.817342
43.791922
43.766508
43.741102
43.715703
43.690312
43.664928
43.639553
43.614185
43.588825
43.563473
43.53813
43.512795
43.487468
43.46215
43.436841
43.411541
43.38625
43.360969
43.335697
43.310435
43.285182
43.25994
43.234707
43.209485
43.184273
43.159071
43.133881
43.108701
43.083533
43.058375
43.033229
43.008095
42.982972
42.957861
42.932762
42.907675
42.8826
42.857538
42.832488
42.807452
42.782428
42.757417
42.73242
42.707436
42.682467
42.657511
42.632569
42.607641
42.582727
42.557828
42.532943
42.508073
42.483218
42.458378
42.433553
42.408743
42.383948
42.359169
42.334406
42.309659
42.284927
42.260212
42.235513
42.21083
42.186163
42.161514
42.136881
42.112265
42.087666
42.063084
42.03852
42.013972
41.989442
41.964929
41.940434
41.915957
41.891498
41.867057
41.842634
41.81823
41.793843
41.769475
41.745125
41.720794
41.696482
41.672188
41.647913
41.623657
41.59942
41.575203
41.551004
41.526825
41.502665
41.478525
41.454404
41.430302
41.40622
41.382158
41.358115
41.334092
41.310089
41.286105
41.262142
41.238198
41.214274
41.19037
41.166485
41.142621
41.118776
41.094951
41.071146
41.047361
41.023595
40.999849
40.976122
40.952415
40.928728
40.90506
40.881411
40.857781
40.834171
40.810579
40.787007
40.763454
40.73992
40.716404
40.692907
40.669428
40.645968
40.622526
40.599102
40.575696
40.552308
40.528937
40.505584
40.482249
40.45893
40.435629
40.412345
40.389078
40.365828
40.342594
40.319377
40.296176
40.272991
40.249823
40.22667
40.203533
40.180412
40.157307
40.134216
40.111141
40.088081
40.065037
40.042006
40.018991
39.99599
39.973004
39.950031
39.927073
39.904129
39.881198
39.858281
39.835378
39.812487
39.78961
39.766746
39.743896
39.721057
39.698232
39.675419
39.652618
39.629829
39.607053
39.584288
39.561535
39.538793
39.516063
39.493345
39.470637
39.44794
39.425255
39.402579
39.379915
39.35726
39.334616
39.311982
39.289358
39.266744
39.244139
39.221544
39.198958
39.176381
39.153813
39.131254
39.108704
39.086162
39.063629
39.041104
39.018586
38.996077
38.973576
38.951082
38.928595
38.906116
38.883644
38.861179
38.838721
38.816269
38.793824
38.771385
38.748953
38.726526
38.704106
38.681691
38.659281
38.636878
38.614479
38.592086
38.569698
38.547314
38.524936
38.502562
38.480192
38.457827
38.435466
38.413109
38.390756
38.368407
38.346061
38.323719
38.301381
38.279045
38.256713
38.234384
38.212058
38.189735
38.167414
38.145095
38.12278
38.100466
38.078155
38.055845
38.033538
38.011232
37.988928
37.966625
37.944324
37.922024
37.899725
37.877427
37.85513
37.832833
37.810537
37.78824
37.765944
37.743648
37.721352
37.699055
37.676757
37.654458
37.632158
37.609857
37.587555
37.565251
37.542944
37.520636
37.498325
37.476011
37.453694
37.431374
37.409051
37.386724
37.364393
37.342057
37.319717
37.297372
37.275022
37.252667
37.230305
37.207938
37.185564
37.163184
37.140798
37.118404
37.096002
37.073593
37.051175
37.028749
37.006315
36.983873
36.961421
36.938959
36.916486
36.894003
36.871511
36.84901
36.826498
36.803976
36.78144
36.758889
36.736325
36.713752
36.69117
36.668577
36.645974
36.623353
36.600709
36.578046
36.555376
36.532703
36.510022
36.487327
36.464611
36.441864
36.419087
36.396304
36.373524
36.350744
36.32795
36.305128
36.28228
36.259395
36.236485
36.213572
36.190659
36.167743
36.144812
36.121859
36.098882
36.07587
36.052836
36.029781
36.006703
35.983617
35.960516
35.937398
35.914269
35.891122
35.867973
35.844812
35.821629
35.798417
35.77516
35.751864
35.728531
35.705173
35.681793
35.658405
35.635013
35.611612
35.588194
35.564759
35.541305
35.517828
35.494337
35.470829
35.447299
35.423747
35.400172
35.376571
35.352955
35.329328
35.305692
35.282035
35.25835
35.234643
35.210908
35.18715
35.163377
35.139592
35.115786
35.091961
35.068115
35.04425
35.020361
34.996448
34.972509
34.94854
34.924552
34.90055
34.876544
34.852528
34.82848
34.804398
34.78029
34.756158
34.732012
34.707865
34.683698
34.659498
34.635265
34.611015
34.586753
34.562492
34.53823
34.51396
34.489651
34.465309
34.440954
34.416581
34.392205
34.367825
34.34343
34.319004
34.294556
34.27009
34.245599
34.221098
34.196581
34.172048
34.147508
34.122955
34.0984
34.07383
34.049238
34.02462
33.999985
33.975335
33.950675
33.926011
33.901343
33.876665
33.851967
33.827247
33.80251
33.777758
33.753002
33.728244
33.703486
33.678729
33.653967
33.629181
33.604372
33.57955
33.554716
33.529883
33.50505
33.48022
33.45539
33.430559
33.405718
33.380861
33.355986
33.331084
33.306166
33.281236
33.256306
33.231378
33.206456
33.181538
33.156623
33.131707
33.106783
33.081846
33.056894
33.031925
33.006949
32.981974
32.957005
32.932043
32.907087
32.882132
32.857153
32.832146
32.80713
32.782115
32.757108
32.732114
32.707134
32.682162
32.657192
32.632208
32.607202
32.582177
32.557137
32.532101
32.507074
32.482064
32.45707
32.432084
32.4071
32.382097
32.357078
32.332048
32.307001
32.281956
32.256916
32.231889
32.20688
32.181886
32.156899
32.131905
32.106875
32.081836
32.056798
32.03177
32.006759
31.981768
31.95679
31.931816
31.906828
31.881816
31.856792
31.831758
31.80673
31.781713
31.756714
31.731728
31.706752
31.681777
31.656792
31.631802
31.606811
31.581817
31.556823
31.531824
31.506824
31.481827
31.456839
31.431864
31.406903
31.381949
31.356995
31.332021
31.307043
31.282068
31.257101
31.232148
31.207207
31.182272
31.157336
31.13238
31.107409
31.082438
31.057474
31.032525
31.007596
30.982683
30.957775
30.932863
30.90793
30.882999
30.858061
30.833124
30.808185
30.783238
30.758288
30.733342
30.708406
30.683487
30.658587
30.633704
30.608829
30.583956
30.559065
30.53416
30.509254
30.484355
30.45947
30.434605
30.409753
30.384907
30.360049
30.335172
30.310296
30.285418
30.260541
30.235663
30.210776
30.185885
30.161001
30.136131
30.11128
30.086447
30.061625
30.036806
30.011978
29.987146
29.962315
29.937481
29.912647
29.887817
29.862994
29.838185
29.813391
29.788609
29.763831
29.739035
29.714205
29.689359
29.664504
29.639656
29.614825
29.590019
29.56524
29.540481
29.515731
29.490981
29.466208
29.441423
29.416618
29.391805
29.366992
29.342184
29.317385
29.292601
29.267833
29.243078
29.218333
29.193595
29.16886
29.14413
29.119404
29.094684
29.069968
29.045253
29.020534
28.995809
28.971084
28.94636
28.92164
28.896925
28.872215
28.847511
28.822813
28.798118
28.773425
28.74873
28.724032
28.699335
28.674642
28.649954
28.625273
28.600593
28.575914
28.551231
28.526551
28.50188
28.47722
28.452571
28.427926
28.40327
28.378599
28.353933
28.329278
28.30464
28.280017
28.255402
28.230777
28.206124
28.181475
28.156832
28.132203
28.10759
28.082987
28.058388
28.033782
28.009171
27.984563
27.959957
27.935351
27.910734
27.886101
27.86147
27.836847
27.812245
27.787665
27.763104
27.738551
27.713995
27.689425
27.664859
27.640297
27.615739
27.591181
27.5666
27.542003
27.51741
27.49283
27.468272
27.443736
27.419213
27.394692
27.370154
27.345617
27.321084
27.296557
27.272034
27.247498
27.222929
27.198362
27.173804
27.149268
27.124757
27.100266
27.075784
27.051296
27.026792
27.002292
26.977794
26.953299
26.9288
26.904273
26.879738
26.855208
26.830694
26.806206
26.781745
26.757301
26.732862
26.708404
26.683929
26.659455
26.634984
26.610519
26.586055
26.561571
26.537066
26.512568
26.488092
26.463653
26.43925
26.414866
26.39048
26.366026
26.341552
26.317082
26.292627
26.268197
26.24379
26.219392
26.19498
26.170528
26.14608
26.121638
26.097216
26.072818
26.048436
26.024055
25.999638
25.975206
25.950781
25.926371
25.901982
25.877611
25.853245
25.828855
25.804442
25.780035
25.75564
25.731268
25.706919
25.682581
25.658242
25.633862
25.609468
25.585076
25.560696
25.536337
25.511996
25.487662
25.463312
25.438932
25.414559
25.390197
25.365857
25.341537
25.317228
25.292912
25.268556
25.244197
25.219844
25.19551
25.171201
25.146914
25.122633
25.098323
25.073976
25.049635
25.025304
25.000991
24.976695
24.952405
24.928102
24.903784
24.879474
24.855174
24.830888
24.806614
24.782344
24.758071
24.733786
24.709504
24.685222
24.660943
24.636665
24.612389
24.588116
24.563846
24.539581
24.515318
24.491058
24.466798
24.442542
24.418288
24.394037
24.369787
24.345539
24.321294
24.297055
24.272822
24.248591
24.224358
24.200122
24.17589
24.151665
24.127446
24.10323
24.079004
24.054777
24.030557
24.006347
23.982146
23.957946
23.933733
23.90952
23.885313
23.861116
23.836924
23.812734
23.788541
23.76435
23.740163
23.715979
23.691797
23.667615
23.643435
23.619256
23.59508
23.570905
23.546732
23.522562
23.498395
23.474233
23.450076
23.425924
23.401774
23.377627
23.353482
23.329341
23.305205
23.281074
23.256947
23.232824
23.208701
23.184577
23.160454
23.136331
23.11221
23.088091
23.063976
23.039865
23.015758
22.991654
22.967553
22.943454
22.919358
22.895264
22.871173
22.847084
22.822997
22.798912
22.774828
22.750747
22.726668
22.702593
22.67852
22.654449
22.630379
22.606311
22.582244
22.558179
22.534118
22.51006
22.486006
22.461953
22.437902
22.413849
22.389797
22.365747
22.341698
22.317652
22.293608
22.269565
22.245523
22.221483
22.197444
22.173407
22.149374
22.125344
22.101318
22.077296
22.053277
22.029262
22.005249
21.981238
21.957229
21.933221
21.909214
21.885208
21.861203
21.837198
21.813194
21.789192
21.76519
21.74119
21.71719
21.693191
21.669192
21.645196
21.621201
21.597207
21.573213
21.549217
21.525223
21.501232
21.477243
21.453256
21.429267
21.405272
21.381278
21.357289
21.333305
21.309324
21.285342
21.261344
21.237345
21.21335
21.189364
21.165386
21.141411
21.117427
21.093421
21.069416
21.045412
21.021411
20.997412
20.973413
20.949412
20.925413
20.90142
20.877433
20.853451
20.829469
20.805473
20.78146
20.757442
20.733407
20.709369
20.685333
20.661303
20.63728
20.61326
20.58924
20.565207
20.54116
20.517113
20.493066
20.469021
20.444977
20.420929
20.396859
20.372771
20.348677
20.324573
20.300466
20.276354
20.252238
20.228119
20.203998
20.179875
20.155751
20.131619
20.107468
20.083297
20.059122
20.034941
20.010758
19.986572
19.962376
19.938154
19.913911
19.889655
19.865382
19.841103
19.816814
19.792519
19.768215
19.7439
19.719573
19.69523
19.67087
19.646494
19.622102
19.597694
19.573269
19.548827
19.524365
19.499883
19.47538
19.450858
19.426314
19.40175
19.377166
19.352563
19.327941
19.303299
19.278636
19.253947
19.229228
19.204485
19.179718
19.154926
19.130112
19.105271
19.080398
19.055491
19.030553
19.005584
18.980585
18.955557
18.930498
18.905409
18.880288
18.855133
18.829944
18.804718
18.779456
18.754156
18.728819
18.703442
18.678026
18.65257
18.627072
18.601533
18.57595
18.550324
18.524654
18.498939
18.473178
18.447371
18.421515
18.395611
18.369658
18.343654
18.317599
18.291493
18.265334
18.239121
18.212853
18.186529
18.160149
18.133714
18.107222
18.080673
18.054063
18.027392
18.000661
17.97387
17.947019
17.920099
17.893109
17.866051
17.838932
17.811755
17.78452
17.757207
17.72981
17.702341
17.674806
17.647204
17.619548
17.591827
17.564035
17.536161
17.508207
17.48017
17.452053
17.423862
17.39559
17.367234
17.338795
17.310277
17.281687
17.253026
17.224283
17.195439
17.166504
17.137489
17.108394
17.079232
17.05
17.020674
16.991249
16.961731
16.93212
16.902414
16.872624
16.842738
16.81276
16.782694
16.752539
16.722302
16.691974
16.661553
16.631035
16.600425
16.56972
16.538925
16.508043
16.477074
16.446009
16.414842
16.383575
16.352211
16.320749
16.289194
16.25755
16.225816
16.193988
16.162058
16.130028
16.097899
16.065672
16.033349
16.000936
15.968432
15.935834
15.903136
15.870337
15.83744
15.804445
15.771354
15.738171
15.704897
15.671531
15.638067
15.604502
15.570842
15.537085
15.503231
15.469286
15.435251
15.401126
15.366906
15.332588
15.298178
15.263671
15.22907
15.194378
15.159598
15.124731
15.089775
15.054724
15.019582
14.984347
14.949021
14.913605
14.878104
14.84252
14.806852
14.771093
14.735246
14.699313
14.663289
14.627178
14.590987
14.554717
14.518367
14.481933
14.445414
14.408814
14.372128
14.335357
14.29851
14.261588
14.224593
14.187521
14.150368
14.11314
14.075829
14.038437
14.000973
13.963441
13.925841
13.888171
13.850424
13.812609
13.774717
13.736746
13.698706
13.660605
13.622443
13.584219
13.545924
13.507564
13.469135
13.430629
13.392058
13.353433
13.314755
13.276021
13.237222
13.198362
13.159443
13.120448
13.08139
13.042286
13.003135
12.963937
12.924681
12.885367
12.846003
12.806565
12.767065
12.727526
12.687949
12.648333
12.608665
12.568941
12.529177
12.489342
12.449443
12.409513
12.369555
12.329565
12.28953
12.24944
12.209319
12.169131
12.128877
12.088597
12.0483
12.007979
11.967621
11.927206
11.886771
11.846275
11.805705
11.765114
11.724517
11.683906
11.643269
11.60257
11.561859
11.521095
11.480247
11.439381
11.398522
11.357662
11.316788
11.275843
11.234884
11.19389
11.152808
11.111709
11.07062
11.029539
10.988454
10.947298
10.906127
10.864935
10.82366
10.78236
10.741077
10.699808
10.658543
10.61721
10.575857
10.534497
10.493066
10.451594
10.410142
10.368711
10.327295
10.285843
10.244342
10.202799
10.161201
10.119626
10.078081
10.036552
9.9949777
9.9533505
9.9117254
9.8701004
9.8284153
9.7867008
9.745004
9.7033391
9.6616928
9.6200199
9.5782913
9.5365463
9.4947764
9.4529907
9.4112267
9.3694713
9.3276996
9.2859143
9.2441075
9.2023027
9.1604678
9.1186356
9.0767938
9.0349617
8.9931353
8.9512908
8.9094459
8.8675808
8.8256601
8.7837523
8.7418807
8.7000394
8.6582027
8.6162949
8.5743783
8.53244
8.4904876
8.4485662
8.4066663
8.364772
8.3228398
8.2808986
8.2389583
8.1969959
8.1550431
8.1130935
8.0711496
8.0292124
7.9872632
7.945315
7.9033612
7.8613698
7.8193641
7.7774028
7.7354832
7.6935767
7.6516087
7.6096224
7.5676238
7.5255967
7.4836105
7.4416663
7.3997398
7.3577666
7.3157681
7.2737781
7.2317751
7.1897798
7.147795
7.1058196
7.0638487
7.0218694
6.9798933
6.9379102
6.8959135
6.8538864
6.8118954
6.7699504
6.7280289
6.6860684
6.6440611
6.6020604
6.560022
6.5180168
6.4760606
6.4341338
6.3921838
6.3501703
6.3081759
6.2661718
6.2241733
6.1821883
6.1402143
6.0982456
6.0562754
6.0143003
5.9723203
5.9303375
5.8883241
5.846326
5.8043773
5.7624627
5.7205344
5.6785221
5.6365302
5.5945242
5.5525254
5.5105558
5.4686106
5.4266678
5.3846808
5.3427031
5.3007275
5.2587512
5.216757
5.1747619
5.132811
5.090901
5.0489947
5.0069879
4.9649929
4.9230078
4.8810294
4.8390472
4.7970675
4.7551119
4.7131865
4.6712692
4.629283
4.5872891
4.5453069
4.5033311
4.4613633
4.419401
4.377428
4.3354534
4.2934995
4.2515789
4.2096731
4.1677071
4.1257039
4.0837204
4.0417418
3.9997689
3.9577998
3.9158328
3.873868
3.8319026
3.7899389
3.7479768
3.7060153
3.6640425
3.6220768
3.5801304
3.5381976
3.4962516
3.4542723
3.4123019
3.3703074
3.3283269
3.2863736
3.2444393
3.2024879
3.1604914
3.1185171
3.0765503
3.0345901
2.9926266
2.9506466
2.9086891
2.8667457
2.8247705
2.7827659
2.7408191
2.6989183
2.6570099
2.6149845
2.5729961
2.5310178
2.4890308
2.447051
2.4051143
2.3632198
2.3212976
2.2792427
2.2372497
2.195278
2.1533011
2.1113391
2.0694158
2.0275053
1.9855477
1.943586
1.9015516
1.8595878
1.8176633
1.7756517
1.7336734
1.6917599
1.6498527
1.6078009
1.5658235
1.5238896
1.4819006
1.4399047
1.3979338
1.3560221
1.3141496
1.2721102
1.2300991
1.1881758
1.146296
1.1043148
1.0623384
1.0203882
0.97846191
0.93650393
0.89449229
0.85258019
0.81059537
0.76859912
0.72665205
0.68471031
0.64280553
0.60083082
0.55888866
0.5169353
0.47494607
0.43301118
0.39106756
0.34911411
0.30716551
0.26520984
0.22324124
0.1812957
0.13934231
0.097399965
0.055486966
0.013460463
0.028616212
0.070597058
0.11256593
0.15452824
0.19648661
0.23844215
0.28039563
0.32234786
0.36429954
0.40625089
0.44820147
0.49015051
0.53209731
0.57404161
0.61598366
0.65792395
0.69986302
0.74180125
0.78373888
0.82567597
0.86761256
0.90954866
0.95148429
0.99341946
1.0353541
1.0772883
1.1192217
1.1611544
1.2030861
1.2450169
1.2869467
1.3288756
1.3708036
1.412731
1.4546576
1.4965836
1.538509
1.5804339
1.6223583
1.6642824
1.7062062
1.7481295
1.7900524
1.8319748
1.8738966
1.915818
1.9577389
1.9996594
2.0415794
2.083499
2.1254182
2.167337
2.2092555
2.2511738
2.2930919
2.3350099
2.3769278
2.4188456
2.4607633
2.5026808
2.5445983
2.5865157
2.6284331
2.6703504
2.7122678
2.7541851
2.7961025
2.8380199
2.8799374
2.9218551
2.9637729
3.005691
3.0476094
3.0895281
3.131447
3.1733663
3.2152858
3.2572058
3.2991261
3.3410468
3.382968
3.4248896
3.4668117
3.5087342
3.5506572
3.5925808
3.6345049
3.6764296
3.718355
3.7602809
3.8022077
3.8441352
3.8860634
3.9279923
3.9699219
4.0118521
4.0537832
4.0957151
4.1376479
4.1795816
4.2215162
4.2634515
4.3053877
4.3473248
4.3892628
4.4312017
4.4731416
4.5150824
4.5570242
4.598967
4.6409107
4.6828553
4.7248009
4.7667475
4.808695
4.8506435
4.8925931
4.9345436
4.9764951
5.0184475
5.0604009
5.1023554
5.1443108
5.1862673
5.2282247
5.2701831
5.3121425
5.3541029
5.3960643
5.4380267
5.4799901
5.5219545
5.5639199
5.6058861
5.6478533
5.6898215
5.7317906
5.7737607
5.8157318
5.8577036
5.8996764
5.94165
5.9836245
6.0255999
6.0675762
6.1095532
6.1515311
6.1935097
6.235489
6.2774692
6.3194502
6.3614319
6.4034144
6.4453976
6.4873813
6.5293658
6.571351
6.6133368
6.6553234
6.6973106
6.7392984
6.7812867
6.8232756
6.8652651
6.9072551
6.9492458
6.991237
7.0332287
7.0752207
7.1172133
7.1592063
7.2011998
7.2431938
7.2851882
7.327183
7.3691781
7.4111735
7.4531693
7.4951654
7.537162
7.5791588
7.6211559
7.6631532
7.7051508
7.7471486
7.7891467
7.831145
7.8731435
7.9151421
7.957141
7.99914
8.0411391
8.0831385
8.1251379
8.1671374
8.209137
8.2511366
8.2931364
8.3351362
8.3771361
8.419136
8.4611358
8.5031357
8.5451355
8.5871353
8.6291351
8.6711348
8.7131344
8.755134
8.7971333
8.8391326
8.8811318
8.9231308
8.9651298
9.0071285
9.0491271
9.0911254
9.1331236
9.1751216
9.2171194
9.259117
9.3011144
9.3431115
9.3851084
9.427105
9.4691014
9.5110975
9.5530933
9.5950889
9.6370841
9.679079
9.7210736
9.7630678
9.8050618
9.8470554
9.8890486
9.9310415
9.9730339
10.015026
10.057018
10.099009
10.141
10.18299
10.22498
10.26697
10.308959
10.350947
10.392936
10.434923
10.476911
10.518897
10.560883
10.602869
10.644854
10.686839
10.728823
10.770807
10.81279
10.854772
10.896754
10.938735
10.980716
11.022696
11.064675
11.106654
11.148632
11.19061
11.232587
11.274563
11.316538
11.358513
11.400487
11.44246
11.484433
11.526405
11.568376
11.610346
11.652316
11.694285
11.736253
11.77822
11.820187
11.862152
11.904117
11.946081
11.988044
12.030007
12.071968
12.113929
12.155889
12.197848
12.239807
12.281764
12.323721
12.365677
12.407632
12.449587
12.49154
12.533493
12.575446
12.617397
12.659348
12.701298
12.743248
12.785197
12.827145
12.869093
12.91104
12.952987
12.994933
13.036879
13.078824
13.120769
13.162714
13.204658
13.246601
13.288544
13.330487
13.372429
13.414371
13.456313
13.498254
13.540194
13.582134
13.624073
13.666012
13.70795
13.749888
13.791825
13.833761
13.875696
13.917631
13.959564
14.001497
14.043429
14.08536
14.127289
14.169218
14.211145
14.253071
14.294996
14.33692
14.378843
14.420764
14.462684
14.504603
14.54652
14.588436
14.630352
14.672265
14.714177
14.756087
14.797996
14.839902
14.881806
14.92371
14.965616
15.007523
15.049432
15.091342
15.133243
15.175142
15.217041
15.258942
15.300842
15.342741
15.38464
15.42654
15.46844
15.510339
15.552238
15.594138
15.636038
15.677937
15.719834
15.761732
15.803628
15.845523
15.887416
15.92931
15.971205
16.013101
16.054997
16.096892
16.138784
16.180677
16.22257
16.264463
16.306356
16.348248
16.39014
16.432031
16.473921
16.515812
16.557702
16.599592
16.641481
16.683369
16.725257
16.767145
16.809032
16.850919
16.892805
16.934691
16.976576
17.018461
17.060345
17.102229
17.144112
17.185995
17.227877
17.269758
17.31164
17.35352
17.395401
17.43728
17.47916
17.521039
17.562917
17.604795
17.646673
17.68855
17.730427
17.772303
17.814179
17.856054
17.89793
17.939804
17.981679
18.023553
18.065426
18.1073
18.149173
18.191045
18.232918
18.274789
18.316661
18.358532
18.400403
18.442274
18.484144
18.526014
18.567884
18.609753
18.651622
18.693491
18.73536
18.777228
18.819096
18.860964
18.902832
18.944699
18.986567
19.028434
19.070301
19.112168
19.154034
19.195901
19.237767
19.279633
19.321499
19.363365
19.405231
19.447097
19.488963
19.530828
19.572694
19.614559
19.656425
19.69829
19.740155
19.78202
19.823886
19.865751
19.907616
19.949481
19.991346
20.033211
20.075075
20.11694
20.158804
20.200667
20.24253
20.284393
20.326254
20.368114
20.409971
20.451826
20.493678
20.535526
20.577369
20.619207
20.661042
20.702874
20.744707
20.786546
20.828395
20.870259
20.912142
20.954049
20.995977
21.037924
21.079881
21.121832
21.163777
21.205677
21.247534
21.289343
21.331118
21.372902
21.414713
21.456567
21.498467
21.5404
21.582351
21.624279
21.666183
21.708005
21.749799
21.791609
21.833458
21.87535
21.917274
21.959206
22.001124
22.042957
22.08478
22.12662
22.168491
22.210389
22.2523
22.294206
22.336064
22.377916
22.419778
22.461656
22.503545
22.545441
22.587324
22.629194
22.671066
22.712943
22.754827
22.796713
22.838599
22.880479
22.922359
22.964241
23.006125
23.048011
23.089897
23.131782
23.173667
23.215552
23.257439
23.299326
23.341214
23.383103
23.424992
23.466881
23.508771
23.550662
23.592552
23.634443
23.676334
23.718224
23.760115
23.802006
23.843894
23.885783
23.927666
23.969549
24.011421
24.053293
24.09515
24.137002
24.17884
24.220669
24.262483
24.30429
24.346083
24.387868
24.429644
24.471407
24.51316
24.554895
24.596616
24.638316
24.680001
24.721672
24.763345
24.805026
24.846723
24.88844
24.930175
24.971926
25.013684
25.055443
25.097196
25.138936
25.180664
25.222391
25.264127
25.305876
25.347642
25.389425
25.431221
25.473027
25.514842
25.556663
25.59849
25.640324
25.682164
25.72401
25.765862
25.807722
25.849589
25.891468
25.933358
25.97526
26.01717
26.059082
26.10099
26.142889
26.184777
26.226655
26.268527
26.3104
26.352282
26.394179
26.436095
26.478028
26.519973
26.561919
26.603855
26.645769
26.687657
26.72952
26.771366
26.81321
26.85507
26.896962
26.938896
26.980868
27.022865
27.064866
27.10685
27.148797
27.190693
27.232527
27.274304
27.316069
27.357911
27.399951
27.442335
27.485409
27.531614
27.572612
27.609872
27.651173
27.694904
27.737207
27.779534
27.822313
27.865144
27.907791
27.950418
27.992977
28.035445
28.07784
28.120176
28.162465
28.204719
28.246949
28.289158
28.331348
28.373517
28.415661
28.45778
28.499872
28.541939
28.583988
28.626022
28.668047
28.71007
28.752093
28.79412
28.83615
28.878183
28.920218
28.962253
29.004285
29.046316
29.088343
29.13037
29.172389
29.214404
29.256435
29.298485
29.340521
29.382555
29.424595
29.466638
29.508681
29.550723
29.592767
29.634811
29.676855
29.718901
29.760948
29.802997
29.845047
29.8871
29.929154
29.971209
30.013267
30.055325
30.097385
30.139446
30.181507
30.223571
30.265635
30.307701
30.349768
30.391837
30.433907
30.475979
30.518052
30.560127
30.602203
30.644281
30.68636
30.72844
30.770522
30.812605
30.854689
30.896775
30.938862
30.98095
31.02304
31.065132
31.107225
31.149319
31.191415
31.233512
31.27561
31.31771
31.359811
31.401914
31.444018
31.486123
31.52823
31.570338
31.612447
31.654558
31.69667
31.738783
31.780898
31.823015
31.865132
31.907251
31.949371
31.991493
32.033616
32.07574
32.117866
32.159993
32.202121
32.244251
32.286382
32.328514
32.370648
32.412783
32.45492
32.497057
32.539196
32.581337
32.623478
32.665621
32.707765
32.749911
32.792058
32.834206
32.876355
32.918506
32.960658
33.002811
33.044965
33.087121
33.129278
33.171436
33.213596
33.255756
33.297918
33.340081
33.382246
33.424411
33.466578
33.508746
33.550915
33.593086
33.635258
33.67743
33.719604
33.76178
33.803956
33.846133
33.888312
33.930492
33.972673
34.014855
34.057038
34.099222
34.141408
34.183594
34.225782
34.26797
34.31016
34.352351
34.394543
34.436735
34.478929
34.521124
34.56332
34.605517
34.647715
34.689913
34.732113
34.774314
34.816515
34.858718
34.900921
34.943126
34.985331
35.027537
35.069744
35.111951
35.15416
35.196369
35.238579
35.28079
35.323001
35.365213
35.407426
35.44964
35.491854
35.534069
35.576284
35.6185
35.660717
35.702934
35.745152
35.78737
35.829589
35.871808
35.914028
35.956248
35.998469
36.04069
36.082911
36.125133
36.167355
36.209577
36.2518
36.294023
36.336246
36.378469
36.420693
36.462917
36.50514
36.547364
36.589589
36.631813
36.674037
36.716261
36.758485
36.800709
36.842934
36.885158
36.927382
36.969606
37.011829
37.054053
37.096276
37.138499
37.180722
37.222945
37.265168
37.30739