/*--------------------------------*- C++ -*----------------------------------*\
  =========                 |
  \\      /  F ield         | OpenFOAM: The Open Source CFD Toolbox
   \\    /   O peration     | Website:  https://openfoam.org
    \\  /    A nd           | Version:  7
     \\/     M anipulation  |
\*---------------------------------------------------------------------------*/
FoamFile
{
    version     2.0;
    format      ascii;
    class       surfaceScalarField;
    location    "0.00199";
    object      phi;
}
// * * * * * * * * * * * * * * * * * * * * * * * * * * * * * * * * * * * * * //

dimensions      [1 0 -1 0 0 0 0];

internalField   nonuniform List<scalar> 
4999
(
-2.4292636
-2.4283093
-2.4273551
-2.4264009
-2.4254467
-2.4244925
-2.4235382
-2.422584
-2.4216298
-2.4206756
-2.4197213
-2.4187671
-2.4178129
-2.4168586
-2.4159044
-2.4149502
-2.413996
-2.4130417
-2.4120875
-2.4111333
-2.4101791
-2.409225
-2.4082708
-2.4073166
-2.4063625
-2.4054083
-2.4044542
-2.4035001
-2.402546
-2.401592
-2.400638
-2.3996841
-2.3987303
-2.3977767
-2.3968232
-2.3958698
-2.3949165
-2.3939631
-2.3930097
-2.3920562
-2.3911025
-2.3901485
-2.3891942
-2.3882395
-2.3872846
-2.3863295
-2.3853741
-2.3844186
-2.3834629
-2.3825071
-2.3815513
-2.3805954
-2.3796395
-2.3786836
-2.3777276
-2.3767717
-2.3758157
-2.3748598
-2.3739038
-2.3729478
-2.3719919
-2.3710359
-2.3700799
-2.369124
-2.368168
-2.3672121
-2.3662561
-2.3653001
-2.3643442
-2.3633882
-2.3624322
-2.3614763
-2.3605203
-2.3595643
-2.3586084
-2.3576523
-2.3566963
-2.3557405
-2.3547843
-2.3538285
-2.3528724
-2.3519164
-2.3509606
-2.3500043
-2.3490485
-2.3480925
-2.3471364
-2.3461807
-2.3452243
-2.3442686
-2.3433125
-2.3423563
-2.3414009
-2.340444
-2.3394892
-2.3385317
-2.3375773
-2.3366197
-2.3356652
-2.3347079
-2.3337529
-2.3327961
-2.3318407
-2.3308842
-2.3299285
-2.3289723
-2.3280163
-2.3270603
-2.3261043
-2.3251483
-2.3241922
-2.3232362
-2.3222801
-2.3213241
-2.3203681
-2.3194121
-2.318456
-2.3175
-2.3165439
-2.3155879
-2.3146319
-2.3136758
-2.3127198
-2.3117637
-2.3108077
-2.3098516
-2.3088956
-2.3079395
-2.3069835
-2.3060274
-2.3050713
-2.3041153
-2.3031592
-2.3022031
-2.3012471
-2.300291
-2.2993349
-2.2983789
-2.2974228
-2.2964667
-2.2955107
-2.2945546
-2.2935985
-2.2926424
-2.2916863
-2.2907303
-2.2897741
-2.2888181
-2.287862
-2.2869059
-2.2859498
-2.2849937
-2.2840376
-2.2830816
-2.2821254
-2.2811693
-2.2802132
-2.2792571
-2.278301
-2.2773449
-2.2763888
-2.2754327
-2.2744766
-2.2735205
-2.2725644
-2.2716083
-2.2706523
-2.2696962
-2.2687402
-2.2677842
-2.2668282
-2.2658723
-2.2649163
-2.2639604
-2.2630046
-2.2620488
-2.2610929
-2.2601372
-2.2591814
-2.2582256
-2.2572699
-2.2563141
-2.2553583
-2.2544025
-2.2534466
-2.2524907
-2.2515347
-2.2505786
-2.2496225
-2.2486662
-2.2477099
-2.2467534
-2.2457968
-2.2448402
-2.2438834
-2.2429265
-2.2419695
-2.2410124
-2.2400552
-2.2390979
-2.2381405
-2.2371831
-2.2362256
-2.235268
-2.2343103
-2.2333527
-2.2323949
-2.2314372
-2.2304794
-2.2295216
-2.2285637
-2.2276059
-2.226648
-2.2256901
-2.2247322
-2.2237742
-2.2228163
-2.2218584
-2.2209004
-2.2199425
-2.2189845
-2.2180266
-2.2170686
-2.2161106
-2.2151527
-2.2141947
-2.2132367
-2.2122787
-2.2113207
-2.2103627
-2.2094047
-2.2084467
-2.2074887
-2.2065307
-2.2055727
-2.2046147
-2.2036567
-2.2026987
-2.2017406
-2.2007826
-2.1998246
-2.1988666
-2.1979085
-2.1969505
-2.1959924
-2.1950344
-2.1940763
-2.1931183
-2.1921602
-2.1912022
-2.1902441
-2.189286
-2.188328
-2.1873699
-2.1864118
-2.1854537
-2.1844956
-2.1835375
-2.1825795
-2.1816214
-2.1806633
-2.1797052
-2.178747
-2.1777889
-2.1768308
-2.1758727
-2.1749146
-2.1739564
-2.1729983
-2.1720402
-2.171082
-2.1701239
-2.1691658
-2.1682076
-2.1672495
-2.1662913
-2.1653331
-2.164375
-2.1634168
-2.1624586
-2.1615005
-2.1605423
-2.1595841
-2.1586259
-2.1576677
-2.1567095
-2.1557513
-2.1547931
-2.1538349
-2.1528767
-2.1519185
-2.1509603
-2.1500021
-2.1490439
-2.1480857
-2.1471275
-2.1461693
-2.145211
-2.1442528
-2.1432946
-2.1423364
-2.1413782
-2.14042
-2.1394618
-2.1385036
-2.1375454
-2.1365872
-2.135629
-2.1346708
-2.1337127
-2.1327545
-2.1317963
-2.1308382
-2.12988
-2.1289218
-2.1279636
-2.1270055
-2.1260473
-2.1250891
-2.1241308
-2.1231726
-2.1222144
-2.1212561
-2.1202978
-2.1193394
-2.118381
-2.1174226
-2.1164641
-2.1155056
-2.114547
-2.1135884
-2.1126297
-2.1116709
-2.1107121
-2.1097532
-2.1087942
-2.1078352
-2.106876
-2.1059169
-2.1049576
-2.1039983
-2.1030389
-2.1020794
-2.1011199
-2.1001603
-2.0992007
-2.098241
-2.0972812
-2.0963214
-2.0953616
-2.0944017
-2.0934417
-2.0924817
-2.0915217
-2.0905617
-2.0896016
-2.0886415
-2.0876814
-2.0867212
-2.085761
-2.0848009
-2.0838406
-2.0828804
-2.0819202
-2.0809599
-2.0799996
-2.0790394
-2.0780791
-2.0771188
-2.0761584
-2.0751981
-2.0742378
-2.0732774
-2.0723171
-2.0713567
-2.0703964
-2.069436
-2.0684756
-2.0675152
-2.0665548
-2.0655944
-2.064634
-2.0636736
-2.0627131
-2.0617527
-2.0607923
-2.0598318
-2.0588713
-2.0579109
-2.0569504
-2.0559899
-2.0550294
-2.0540689
-2.0531084
-2.0521479
-2.0511873
-2.0502268
-2.0492662
-2.0483057
-2.0473451
-2.0463845
-2.045424
-2.0444634
-2.0435028
-2.0425421
-2.0415815
-2.0406209
-2.0396602
-2.0386996
-2.0377389
-2.0367783
-2.0358176
-2.0348569
-2.0338962
-2.0329355
-2.0319748
-2.031014
-2.0300533
-2.0290925
-2.0281318
-2.027171
-2.0262102
-2.0252494
-2.0242886
-2.0233278
-2.0223669
-2.0214061
-2.0204453
-2.0194844
-2.0185235
-2.0175626
-2.0166017
-2.0156408
-2.0146799
-2.013719
-2.012758
-2.0117971
-2.0108361
-2.0098751
-2.0089141
-2.0079531
-2.0069921
-2.0060311
-2.00507
-2.004109
-2.0031479
-2.0021868
-2.0012258
-2.0002647
-1.9993036
-1.9983425
-1.9973813
-1.9964202
-1.9954591
-1.9944979
-1.9935368
-1.9925756
-1.9916144
-1.9906532
-1.989692
-1.9887308
-1.9877696
-1.9868084
-1.9858472
-1.984886
-1.9839248
-1.9829635
-1.9820023
-1.981041
-1.9800797
-1.9791184
-1.9781571
-1.9771958
-1.9762345
-1.9752731
-1.9743118
-1.9733504
-1.972389
-1.9714275
-1.970466
-1.9695045
-1.968543
-1.9675814
-1.9666198
-1.9656582
-1.9646965
-1.9637347
-1.9627729
-1.9618111
-1.9608492
-1.9598872
-1.9589252
-1.9579632
-1.9570011
-1.9560389
-1.9550767
-1.9541144
-1.9531521
-1.9521897
-1.9512273
-1.9502648
-1.9493022
-1.9483397
-1.947377
-1.9464144
-1.9454517
-1.9444889
-1.9435261
-1.9425633
-1.9416005
-1.9406376
-1.9396748
-1.9387119
-1.937749
-1.9367861
-1.9358232
-1.9348603
-1.9338974
-1.9329345
-1.9319716
-1.9310088
-1.9300459
-1.9290831
-1.9281204
-1.9271577
-1.926195
-1.9252323
-1.9242698
-1.9233072
-1.9223448
-1.9213824
-1.92042
-1.9194578
-1.9184956
-1.9175335
-1.9165715
-1.9156096
-1.9146478
-1.913686
-1.9127244
-1.9117629
-1.9108016
-1.9098403
-1.9088792
-1.9079182
-1.9069573
-1.9059966
-1.9050361
-1.9040757
-1.9031154
-1.9021553
-1.9011954
-1.9002357
-1.8992761
-1.8983168
-1.8973576
-1.8963986
-1.8954399
-1.8944813
-1.893523
-1.8925649
-1.891607
-1.8906494
-1.889692
-1.8887348
-1.8877779
-1.8868213
-1.8858649
-1.8849088
-1.883953
-1.8829975
-1.8820422
-1.8810873
-1.8801327
-1.8791784
-1.8782244
-1.8772707
-1.8763174
-1.8753644
-1.8744117
-1.8734594
-1.8725075
-1.8715559
-1.8706047
-1.8696539
-1.8687034
-1.8677533
-1.8668037
-1.8658544
-1.8649055
-1.8639571
-1.8630091
-1.8620615
-1.8611143
-1.8601675
-1.8592212
-1.8582754
-1.85733
-1.856385
-1.8554405
-1.8544965
-1.853553
-1.8526099
-1.8516673
-1.8507252
-1.8497836
-1.8488425
-1.8479019
-1.8469618
-1.8460222
-1.8450831
-1.8441446
-1.8432066
-1.8422691
-1.8413321
-1.8403957
-1.8394598
-1.8385245
-1.8375897
-1.8366555
-1.8357218
-1.8347887
-1.8338562
-1.8329242
-1.8319928
-1.831062
-1.8301318
-1.8292022
-1.8282731
-1.8273447
-1.8264168
-1.8254895
-1.8245629
-1.8236368
-1.8227113
-1.8217865
-1.8208622
-1.8199386
-1.8190156
-1.8180932
-1.8171714
-1.8162502
-1.8153296
-1.8144097
-1.8134904
-1.8125717
-1.8116536
-1.8107361
-1.8098192
-1.808903
-1.8079874
-1.8070723
-1.8061579
-1.8052441
-1.8043309
-1.8034183
-1.8025064
-1.801595
-1.8006842
-1.799774
-1.7988643
-1.7979553
-1.7970469
-1.796139
-1.7952317
-1.794325
-1.7934188
-1.7925132
-1.7916081
-1.7907036
-1.7897997
-1.7888963
-1.7879934
-1.7870911
-1.7861893
-1.785288
-1.7843872
-1.783487
-1.7825872
-1.781688
-1.7807892
-1.779891
-1.7789932
-1.7780959
-1.7771991
-1.7763028
-1.7754069
-1.7745115
-1.7736166
-1.7727221
-1.771828
-1.7709344
-1.7700412
-1.7691485
-1.7682562
-1.7673643
-1.7664728
-1.7655817
-1.764691
-1.7638007
-1.7629108
-1.7620213
-1.7611322
-1.7602434
-1.759355
-1.758467
-1.7575794
-1.7566921
-1.7558051
-1.7549185
-1.7540322
-1.7531463
-1.7522606
-1.7513753
-1.7504903
-1.7496057
-1.7487213
-1.7478372
-1.7469534
-1.7460699
-1.7451867
-1.7443037
-1.7434211
-1.7425387
-1.7416565
-1.7407746
-1.7398929
-1.7390115
-1.7381303
-1.7372493
-1.7363686
-1.7354881
-1.7346078
-1.7337277
-1.7328478
-1.731968
-1.7310885
-1.7302092
-1.72933
-1.728451
-1.7275721
-1.7266935
-1.7258149
-1.7249365
-1.7240583
-1.7231802
-1.7223022
-1.7214243
-1.7205465
-1.7196689
-1.7187914
-1.7179139
-1.7170366
-1.7161593
-1.7152821
-1.714405
-1.713528
-1.712651
-1.7117741
-1.7108973
-1.7100204
-1.7091437
-1.7082669
-1.7073902
-1.7065136
-1.7056369
-1.7047603
-1.7038837
-1.7030071
-1.7021305
-1.7012538
-1.7003772
-1.6995006
-1.6986239
-1.6977473
-1.6968706
-1.6959938
-1.6951171
-1.6942403
-1.6933634
-1.6924865
-1.6916095
-1.6907325
-1.6898554
-1.6889782
-1.688101
-1.6872236
-1.6863462
-1.6854687
-1.6845911
-1.6837133
-1.6828355
-1.6819575
-1.6810794
-1.6802011
-1.6793228
-1.6784442
-1.6775655
-1.6766867
-1.6758076
-1.6749284
-1.674049
-1.6731693
-1.6722895
-1.6714094
-1.6705291
-1.6696486
-1.6687678
-1.6678868
-1.6670054
-1.6661238
-1.6652419
-1.6643597
-1.6634772
-1.6625944
-1.6617112
-1.6608277
-1.6599438
-1.6590595
-1.6581749
-1.6572898
-1.6564044
-1.6555185
-1.6546322
-1.6537455
-1.6528583
-1.6519706
-1.6510825
-1.6501938
-1.6493047
-1.648415
-1.6475249
-1.6466342
-1.6457429
-1.6448511
-1.6439587
-1.6430658
-1.6421722
-1.6412781
-1.6403833
-1.639488
-1.6385919
-1.6376953
-1.636798
-1.6359
-1.6350014
-1.634102
-1.633202
-1.6323013
-1.6313999
-1.6304977
-1.6295949
-1.6286912
-1.6277869
-1.6268818
-1.6259759
-1.6250693
-1.6241618
-1.6232536
-1.6223446
-1.6214348
-1.6205242
-1.6196128
-1.6187005
-1.6177875
-1.6168735
-1.6159588
-1.6150432
-1.6141267
-1.6132094
-1.6122912
-1.6113721
-1.6104522
-1.6095314
-1.6086096
-1.607687
-1.6067635
-1.6058391
-1.6049138
-1.6039876
-1.6030604
-1.6021323
-1.6012033
-1.6002734
-1.5993426
-1.5984108
-1.597478
-1.5965444
-1.5956097
-1.5946742
-1.5937377
-1.5928002
-1.5918618
-1.5909224
-1.589982
-1.5890407
-1.5880985
-1.5871552
-1.586211
-1.5852659
-1.5843197
-1.5833726
-1.5824246
-1.5814755
-1.5805255
-1.5795745
-1.5786226
-1.5776697
-1.5767158
-1.5757609
-1.5748051
-1.5738483
-1.5728906
-1.5719318
-1.5709722
-1.5700115
-1.56905
-1.5680874
-1.5671239
-1.5661595
-1.5651941
-1.5642278
-1.5632606
-1.5622924
-1.5613233
-1.5603533
-1.5593824
-1.5584105
-1.5574378
-1.5564641
-1.5554896
-1.5545141
-1.5535378
-1.5525606
-1.5515826
-1.5506037
-1.5496239
-1.5486433
-1.5476618
-1.5466795
-1.5456964
-1.5447125
-1.5437278
-1.5427423
-1.541756
-1.5407689
-1.539781
-1.5387924
-1.537803
-1.5368129
-1.5358221
-1.5348305
-1.5338383
-1.5328453
-1.5318516
-1.5308572
-1.5298622
-1.5288665
-1.5278702
-1.5268732
-1.5258755
-1.5248773
-1.5238784
-1.5228789
-1.5218789
-1.5208782
-1.519877
-1.5188751
-1.5178728
-1.5168699
-1.5158664
-1.5148624
-1.5138579
-1.5128529
-1.5118474
-1.5108414
-1.5098349
-1.5088279
-1.5078205
-1.5068125
-1.5058042
-1.5047954
-1.5037861
-1.5027765
-1.5017664
-1.5007559
-1.499745
-1.4987337
-1.497722
-1.4967099
-1.4956974
-1.4946846
-1.4936714
-1.4926579
-1.491644
-1.4906298
-1.4896152
-1.4886004
-1.4875852
-1.4865697
-1.4855539
-1.4845377
-1.4835214
-1.4825047
-1.4814877
-1.4804705
-1.479453
-1.4784352
-1.4774172
-1.4763989
-1.4753804
-1.4743617
-1.4733427
-1.4723236
-1.4713042
-1.4702845
-1.4692647
-1.4682447
-1.4672245
-1.466204
-1.4651834
-1.4641627
-1.4631417
-1.4621206
-1.4610993
-1.4600778
-1.4590562
-1.4580344
-1.4570125
-1.4559904
-1.4549682
-1.4539459
-1.4529234
-1.4519008
-1.450878
-1.4498551
-1.4488321
-1.447809
-1.4467858
-1.4457624
-1.4447389
-1.4437153
-1.4426916
-1.4416678
-1.4406439
-1.4396199
-1.4385958
-1.4375715
-1.4365472
-1.4355228
-1.4344983
-1.4334736
-1.4324489
-1.4314241
-1.4303992
-1.4293742
-1.4283491
-1.427324
-1.4262987
-1.4252733
-1.4242479
-1.4232224
-1.4221968
-1.4211711
-1.4201453
-1.4191195
-1.4180935
-1.4170675
-1.4160414
-1.4150152
-1.413989
-1.4129627
-1.4119363
-1.4109098
-1.4098832
-1.4088566
-1.4078299
-1.4068032
-1.4057763
-1.4047495
-1.4037225
-1.4026955
-1.4016684
-1.4006412
-1.399614
-1.3985867
-1.3975594
-1.396532
-1.3955045
-1.394477
-1.3934494
-1.3924217
-1.391394
-1.3903663
-1.3893385
-1.3883106
-1.3872827
-1.3862547
-1.3852266
-1.3841985
-1.3831704
-1.3821422
-1.3811139
-1.3800856
-1.3790572
-1.3780288
-1.3770003
-1.3759718
-1.3749432
-1.3739146
-1.3728859
-1.3718571
-1.3708283
-1.3697994
-1.3687705
-1.3677415
-1.3667125
-1.3656834
-1.3646542
-1.363625
-1.3625957
-1.3615664
-1.360537
-1.3595075
-1.358478
-1.3574484
-1.3564188
-1.3553891
-1.3543594
-1.3533296
-1.3522997
-1.3512698
-1.3502398
-1.3492098
-1.3481797
-1.3471495
-1.3461193
-1.345089
-1.3440587
-1.3430283
-1.3419979
-1.3409674
-1.3399369
-1.3389063
-1.3378757
-1.336845
-1.3358143
-1.3347835
-1.3337527
-1.3327218
-1.3316909
-1.3306599
-1.3296289
-1.3285979
-1.3275668
-1.3265356
-1.3255045
-1.3244733
-1.323442
-1.3224107
-1.3213794
-1.3203481
-1.3193167
-1.3182852
-1.3172538
-1.3162223
-1.3151907
-1.3141592
-1.3131276
-1.3120959
-1.3110643
-1.3100326
-1.3090008
-1.3079691
-1.3069373
-1.3059054
-1.3048735
-1.3038416
-1.3028097
-1.3017777
-1.3007457
-1.2997136
-1.2986815
-1.2976494
-1.2966172
-1.295585
-1.2945528
-1.2935205
-1.2924881
-1.2914557
-1.2904233
-1.2893908
-1.2883583
-1.2873257
-1.2862931
-1.2852605
-1.2842277
-1.283195
-1.2821621
-1.2811293
-1.2800963
-1.2790633
-1.2780303
-1.2769972
-1.275964
-1.2749308
-1.2738976
-1.2728642
-1.2718309
-1.2707974
-1.2697639
-1.2687303
-1.2676967
-1.266663
-1.2656293
-1.2645955
-1.2635616
-1.2625277
-1.2614937
-1.2604597
-1.2594256
-1.2583914
-1.2573572
-1.2563229
-1.2552886
-1.2542542
-1.2532197
-1.2521852
-1.2511506
-1.250116
-1.2490813
-1.2480466
-1.2470118
-1.2459769
-1.244942
-1.2439071
-1.2428721
-1.241837
-1.2408019
-1.2397667
-1.2387315
-1.2376962
-1.2366609
-1.2356255
-1.23459
-1.2335545
-1.232519
-1.2314834
-1.2304477
-1.229412
-1.2283762
-1.2273404
-1.2263046
-1.2252686
-1.2242326
-1.2231966
-1.2221605
-1.2211244
-1.2200882
-1.2190519
-1.2180156
-1.2169792
-1.2159428
-1.2149063
-1.2138698
-1.2128332
-1.2117965
-1.2107598
-1.209723
-1.2086861
-1.2076492
-1.2066123
-1.2055753
-1.2045382
-1.203501
-1.2024638
-1.2014265
-1.2003892
-1.1993518
-1.1983144
-1.1972768
-1.1962392
-1.1952016
-1.1941639
-1.1931261
-1.1920883
-1.1910504
-1.1900124
-1.1889744
-1.1879363
-1.1868982
-1.18586
-1.1848217
-1.1837834
-1.182745
-1.1817065
-1.180668
-1.1796294
-1.1785908
-1.1775521
-1.1765133
-1.1754745
-1.1744357
-1.1733967
-1.1723577
-1.1713187
-1.1702796
-1.1692404
-1.1682011
-1.1671619
-1.1661225
-1.1650831
-1.1640436
-1.1630041
-1.1619645
-1.1609249
-1.1598852
-1.1588454
-1.1578056
-1.1567657
-1.1557257
-1.1546857
-1.1536457
-1.1526056
-1.1515654
-1.1505251
-1.1494848
-1.1484444
-1.147404
-1.1463635
-1.145323
-1.1442824
-1.1432417
-1.142201
-1.1411601
-1.1401193
-1.1390784
-1.1380374
-1.1369963
-1.1359552
-1.134914
-1.1338728
-1.1328315
-1.1317901
-1.1307487
-1.1297072
-1.1286656
-1.127624
-1.1265823
-1.1255406
-1.1244988
-1.1234569
-1.122415
-1.121373
-1.1203309
-1.1192888
-1.1182466
-1.1172044
-1.1161621
-1.1151198
-1.1140774
-1.1130349
-1.1119924
-1.1109498
-1.1099072
-1.1088645
-1.1078218
-1.106779
-1.1057362
-1.1046933
-1.1036503
-1.1026073
-1.1015643
-1.1005212
-1.0994781
-1.0984349
-1.0973916
-1.0963483
-1.095305
-1.0942616
-1.0932182
-1.0921747
-1.0911312
-1.0900876
-1.089044
-1.0880003
-1.0869566
-1.0859129
-1.0848691
-1.0838252
-1.0827813
-1.0817374
-1.0806934
-1.0796494
-1.0786053
-1.0775612
-1.0765171
-1.0754729
-1.0744286
-1.0733843
-1.07234
-1.0712956
-1.0702511
-1.0692066
-1.0681621
-1.0671175
-1.0660728
-1.0650281
-1.0639834
-1.0629386
-1.0618937
-1.0608488
-1.0598038
-1.0587588
-1.0577137
-1.0566685
-1.0556233
-1.054578
-1.0535327
-1.0524873
-1.0514418
-1.0503963
-1.0493507
-1.048305
-1.0472593
-1.0462135
-1.0451676
-1.0441217
-1.0430757
-1.0420296
-1.0409834
-1.0399372
-1.0388908
-1.0378444
-1.036798
-1.0357514
-1.0347048
-1.033658
-1.0326112
-1.0315643
-1.0305174
-1.0294703
-1.0284231
-1.0273759
-1.0263285
-1.0252811
-1.0242336
-1.023186
-1.0221382
-1.0210904
-1.0200425
-1.0189945
-1.0179463
-1.0168981
-1.0158498
-1.0148013
-1.0137527
-1.0127041
-1.0116553
-1.0106064
-1.0095573
-1.0085081
-1.0074589
-1.0064094
-1.0053599
-1.0043102
-1.0032604
-1.0022104
-1.0011603
-1.00011
-0.9990596
-0.99800902
-0.99695828
-0.99590738
-0.99485631
-0.99380507
-0.99275365
-0.99170204
-0.99065025
-0.98959827
-0.98854609
-0.98749371
-0.98644111
-0.98538831
-0.98433528
-0.98328203
-0.98222854
-0.98117482
-0.98012085
-0.97906663
-0.97801215
-0.97695741
-0.97590239
-0.9748471
-0.97379151
-0.97273563
-0.97167945
-0.97062295
-0.96956614
-0.96850899
-0.9674515
-0.96639367
-0.96533548
-0.96427693
-0.963218
-0.96215868
-0.96109897
-0.96003884
-0.95897831
-0.95791734
-0.95685593
-0.95579408
-0.95473175
-0.95366896
-0.95260568
-0.95154189
-0.95047759
-0.94941277
-0.94834741
-0.94728149
-0.946215
-0.94514793
-0.94408027
-0.94301199
-0.94194308
-0.94087353
-0.93980332
-0.93873243
-0.93766085
-0.93658856
-0.93551554
-0.93444177
-0.93336724
-0.93229192
-0.9312158
-0.93013886
-0.92906107
-0.92798243
-0.92690289
-0.92582246
-0.92474109
-0.92365878
-0.92257549
-0.92149121
-0.92040592
-0.91931958
-0.91823217
-0.91714368
-0.91605407
-0.91496332
-0.9138714
-0.91277828
-0.91168395
-0.91058837
-0.90949151
-0.90839334
-0.90729385
-0.90619299
-0.90509074
-0.90398706
-0.90288194
-0.90177533
-0.9006672
-0.89955753
-0.89844628
-0.89733341
-0.8962189
-0.89510271
-0.8939848
-0.89286515
-0.89174371
-0.89062046
-0.88949534
-0.88836834
-0.88723942
-0.88610852
-0.88497563
-0.8838407
-0.88270369
-0.88156457
-0.88042329
-0.87927982
-0.87813412
-0.87698615
-0.87583587
-0.87468324
-0.87352822
-0.87237076
-0.87121084
-0.8700484
-0.86888341
-0.86771583
-0.86654561
-0.86537271
-0.86419709
-0.86301872
-0.86183754
-0.86065351
-0.8594666
-0.85827677
-0.85708396
-0.85588814
-0.85468927
-0.85348731
-0.85228221
-0.85107392
-0.84986242
-0.84864766
-0.84742959
-0.84620818
-0.84498338
-0.84375515
-0.84252346
-0.84128825
-0.8400495
-0.83880715
-0.83756118
-0.83631154
-0.83505819
-0.8338011
-0.83254023
-0.83127553
-0.83000697
-0.82873452
-0.82745812
-0.82617776
-0.82489339
-0.82360498
-0.82231249
-0.82101589
-0.81971515
-0.81841023
-0.8171011
-0.81578772
-0.81447007
-0.81314812
-0.81182182
-0.81049117
-0.80915612
-0.80781665
-0.80647274
-0.80512434
-0.80377145
-0.80241402
-0.80105204
-0.79968548
-0.79831431
-0.79693851
-0.79555807
-0.79417297
-0.79278318
-0.79138868
-0.78998945
-0.78858548
-0.78717675
-0.78576324
-0.78434494
-0.78292183
-0.78149391
-0.78006115
-0.77862354
-0.77718107
-0.77573373
-0.77428152
-0.77282441
-0.77136241
-0.76989551
-0.7684237
-0.76694698
-0.76546534
-0.76397877
-0.76248728
-0.76099085
-0.7594895
-0.75798322
-0.75647201
-0.75495587
-0.75343481
-0.75190883
-0.75037793
-0.74884211
-0.74730139
-0.74575576
-0.74420524
-0.74264983
-0.74108954
-0.73952438
-0.73795437
-0.7363795
-0.73479981
-0.73321529
-0.73162597
-0.73003185
-0.72843295
-0.72682928
-0.72522086
-0.72360771
-0.72198985
-0.72036728
-0.71874004
-0.71710814
-0.7154716
-0.71383044
-0.7121847
-0.71053438
-0.70887952
-0.70722012
-0.70555623
-0.70388786
-0.70221503
-0.70053778
-0.69885612
-0.69717009
-0.69547971
-0.69378501
-0.69208602
-0.69038277
-0.68867528
-0.68696359
-0.68524772
-0.68352771
-0.68180358
-0.68007538
-0.67834312
-0.67660684
-0.67486658
-0.67312235
-0.67137421
-0.66962217
-0.66786628
-0.66610656
-0.66434305
-0.66257579
-0.66080481
-0.65903014
-0.65725182
-0.65546989
-0.65368437
-0.65189531
-0.65010273
-0.64830668
-0.64650719
-0.64470429
-0.64289803
-0.64108843
-0.63927553
-0.63745938
-0.63564
-0.63381743
-0.63199171
-0.63016288
-0.62833096
-0.626496
-0.62465803
-0.62281709
-0.62097321
-0.61912644
-0.6172768
-0.61542434
-0.61356908
-0.61171107
-0.60985034
-0.60798693
-0.60612087
-0.60425219
-0.60238093
-0.60050713
-0.59863082
-0.59675204
-0.59487081
-0.59298718
-0.59110119
-0.58921286
-0.58732222
-0.58542932
-0.58353418
-0.58163684
-0.57973733
-0.57783569
-0.57593194
-0.57402613
-0.57211828
-0.57020843
-0.5682966
-0.56638282
-0.56446714
-0.56254958
-0.56063017
-0.55870894
-0.55678593
-0.55486115
-0.55293465
-0.55100646
-0.54907659
-0.54714509
-0.54521198
-0.54327728
-0.54134104
-0.53940327
-0.537464
-0.53552326
-0.53358108
-0.53163748
-0.52969249
-0.52774614
-0.52579846
-0.52384946
-0.52189918
-0.51994764
-0.51799486
-0.51604087
-0.51408569
-0.51212935
-0.51017187
-0.50821328
-0.50625359
-0.50429283
-0.50233102
-0.50036819
-0.49840436
-0.49643954
-0.49447377
-0.49250706
-0.49053943
-0.4885709
-0.4866015
-0.48463125
-0.48266015
-0.48068824
-0.47871553
-0.47674205
-0.4747678
-0.47279281
-0.4708171
-0.46884069
-0.46686358
-0.46488581
-0.46290738
-0.46092831
-0.45894862
-0.45696833
-0.45498745
-0.453006
-0.45102398
-0.44904143
-0.44705834
-0.44507474
-0.44309064
-0.44110605
-0.43912099
-0.43713547
-0.43514951
-0.43316311
-0.43117629
-0.42918906
-0.42720144
-0.42521343
-0.42322505
-0.42123632
-0.41924723
-0.4172578
-0.41526804
-0.41327797
-0.41128759
-0.40929692
-0.40730596
-0.40531472
-0.40332322
-0.40133146
-0.39933945
-0.3973472
-0.39535471
-0.39336201
-0.39136908
-0.38937595
-0.38738261
-0.38538908
-0.38339537
-0.38140148
-0.37940742
-0.37741319
-0.3754188
-0.37342425
-0.37142957
-0.36943474
-0.36743977
-0.36544468
-0.36344946
-0.36145412
-0.35945867
-0.35746312
-0.35546745
-0.35347169
-0.35147583
-0.34947989
-0.34748385
-0.34548773
-0.34349154
-0.34149526
-0.33949892
-0.33750251
-0.33550603
-0.33350949
-0.33151289
-0.32951623
-0.32751952
-0.32552277
-0.32352596
-0.32152911
-0.31953221
-0.31753527
-0.31553829
-0.31354127
-0.31154422
-0.30954712
-0.30755
-0.30555284
-0.30355565
-0.30155843
-0.29956118
-0.29756391
-0.29556661
-0.29356928
-0.29157194
-0.28957456
-0.28757716
-0.28557974
-0.2835823
-0.28158484
-0.27958735
-0.27758985
-0.27559232
-0.27359477
-0.2715972
-0.26959961
-0.26760201
-0.26560438
-0.26360673
-0.26160907
-0.25961138
-0.25761368
-0.25561595
-0.25361821
-0.25162044
-0.24962266
-0.24762485
-0.24562702
-0.24362917
-0.24163129
-0.23963339
-0.23763547
-0.23563752
-0.23363954
-0.23164154
-0.22964351
-0.22764545
-0.22564737
-0.22364926
-0.22165112
-0.21965295
-0.21765475
-0.21565652
-0.21365826
-0.21165997
-0.20966164
-0.20766328
-0.20566489
-0.20366647
-0.20166801
-0.19966951
-0.19767098
-0.19567241
-0.19367381
-0.19167517
-0.18967649
-0.18767777
-0.18567901
-0.18368022
-0.18168139
-0.17968253
-0.17768362
-0.17568468
-0.1736857
-0.17168668
-0.16968761
-0.16768851
-0.16568936
-0.16369016
-0.16169093
-0.15969165
-0.15769232
-0.15569296
-0.15369355
-0.1516941
-0.14969461
-0.14769508
-0.14569551
-0.1436959
-0.14169625
-0.13969656
-0.13769683
-0.13569707
-0.13369726
-0.13169741
-0.12969752
-0.12769759
-0.12569762
-0.1236976
-0.12169754
-0.11969744
-0.1176973
-0.11569712
-0.1136969
-0.11169665
-0.10969636
-0.10769605
-0.1056957
-0.10369533
-0.10169492
-0.099694492
-0.097694029
-0.095693536
-0.09369301
-0.091692451
-0.089691857
-0.087691228
-0.085690563
-0.083689864
-0.081689132
-0.079688368
-0.077687575
-0.075686757
-0.073685918
-0.071685061
-0.069684191
-0.06768331
-0.065682421
-0.063681524
-0.061680616
-0.059679696
-0.057678759
-0.055677801
-0.053676818
-0.05167581
-0.049674776
-0.047673715
-0.045672628
-0.043671514
-0.041670372
-0.039669201
-0.037668006
-0.035666792
-0.033665577
-0.031664382
-0.029663232
-0.027662141
-0.025661109
-0.023660108
-0.021659099
-0.019658045
-0.017656934
-0.015655782
-0.013654613
-0.011653443
-0.0096522725
-0.0076511009
-0.005649929
-0.0036487563
-0.0016475822
0.00035359565
0.00235473
0.0043558637
0.0063569957
0.0083581253
0.010359251
0.012360372
0.014361503
0.016362667
0.018363878
0.020365125
0.022366369
0.024367569
0.0263687
0.028369757
0.030370756
0.032371719
0.034372668
0.036373618
0.038374577
0.040375548
0.04237653
0.044377523
0.046378525
0.048379533
0.050380544
0.052381553
0.054382556
0.056383547
0.058384523
0.060385481
0.062386422
0.064387346
0.066388258
0.06838916
0.070390056
0.072390951
0.074391848
0.076392748
0.078393654
0.080394565
0.082395481
0.084396402
0.086397325
0.088398251
0.090399177
0.092400102
0.094401028
0.096401954
0.098402882
0.10040381
0.10240475
0.1044057
0.10640665
0.10840762
0.1104086
0.1124096
0.11441061
0.11641164
0.11841269
0.12041375
0.12241484
0.12441594
0.12641706
0.1284182
0.13041936
0.13242054
0.13442175
0.13642297
0.13842423
0.14042551
0.14242683
0.14442817
0.14642955
0.14843096
0.1504324
0.15243388
0.1544354
0.15643695
0.15843854
0.16044017
0.16244184
0.16444355
0.1664453
0.16844709
0.17044892
0.1724508
0.17445273
0.1764547
0.17845673
0.1804588
0.18246092
0.1844631
0.18646532
0.1884676
0.19046994
0.19247232
0.19447477
0.19647727
0.19847982
0.20048243
0.2024851
0.20448783
0.20649062
0.20849347
0.21049637
0.21249934
0.21450237
0.21650546
0.21850862
0.22051183
0.2225151
0.22451844
0.22652184
0.2285253
0.23052882
0.2325324
0.23453605
0.23653976
0.23854353
0.24054736
0.24255125
0.2445552
0.24655922
0.2485633
0.25056744
0.25257165
0.25457592
0.25658025
0.25858464
0.26058909
0.2625936
0.26459817
0.2666028
0.26860749
0.27061224
0.27261704
0.2746219
0.27662682
0.27863179
0.28063682
0.28264191
0.28464705
0.28665224
0.28865748
0.29066278
0.29266813
0.29467353
0.29667898
0.29868448
0.30069003
0.30269562
0.30470126
0.30670695
0.30871268
0.31071845
0.31272427
0.31473013
0.31673603
0.31874197
0.32074795
0.32275397
0.32476003
0.32676613
0.32877226
0.33077843
0.33278463
0.33479087
0.33679714
0.33880344
0.34080978
0.34281614
0.34482254
0.34682896
0.34883542
0.35084189
0.3528484
0.35485493
0.35686148
0.35886806
0.36087466
0.36288128
0.36488792
0.36689458
0.36890126
0.37090795
0.37291467
0.3749214
0.37692815
0.37893491
0.38094168
0.38294848
0.38495528
0.38696209
0.38896892
0.39097576
0.39298261
0.39498947
0.39699633
0.3990032
0.40101008
0.40301697
0.40502386
0.40703075
0.40903764
0.41104454
0.41305144
0.41505835
0.41706525
0.41907215
0.42107905
0.42308595
0.42509284
0.42709973
0.42910662
0.4311135
0.43312038
0.43512725
0.43713411
0.43914097
0.44114782
0.44315467
0.4451615
0.44716833
0.44917514
0.45118195
0.45318874
0.45519552
0.4572023
0.45920906
0.4612158
0.46322254
0.46522926
0.46723596
0.46924265
0.47124932
0.47325597
0.47526261
0.47726922
0.47927582
0.4812824
0.48328896
0.4852955
0.48730202
0.48930852
0.49131499
0.49332145
0.49532788
0.49733429
0.49934068
0.50134705
0.50335339
0.5053597
0.50736599
0.50937225
0.51137848
0.51338469
0.51539086
0.51739701
0.51940313
0.52140922
0.52341528
0.52542131
0.5274273
0.52943327
0.5314392
0.5334451
0.53545096
0.53745679
0.53946258
0.54146833
0.54347405
0.54547973
0.54748537
0.54949098
0.55149654
0.55350207
0.55550756
0.557513
0.55951841
0.56152377
0.56352909
0.56553437
0.56753961
0.5695448
0.57154995
0.57355505
0.57556011
0.57756513
0.5795701
0.58157503
0.58357992
0.58558476
0.58758956
0.58959431
0.59159902
0.59360369
0.59560832
0.5976129
0.59961745
0.60162195
0.60362642
0.60563085
0.60763524
0.6096396
0.61164392
0.61364821
0.61565247
0.61765669
0.61966088
0.62166504
0.62366917
0.62567327
0.62767735
0.62968139
0.63168541
0.6336894
0.63569337
0.6376973
0.63970121
0.64170509
0.64370894
0.64571276
0.64771655
0.6497203
0.65172402
0.65372771
0.65573135
0.65773496
0.65973852
0.66174203
0.6637455
0.66574892
0.66775228
0.66975558
0.67175883
0.67376202
0.67576514
0.6777682
0.67977119
0.68177412
0.68377698
0.68577976
0.68778247
0.68978512
0.69178769
0.69379019
0.69579261
0.69779497
0.69979725
0.70179947
0.70380162
0.7058037
0.70780572
0.70980767
0.71180956
0.71381139
0.71581316
0.71781487
0.71981654
0.72181815
0.72381972
0.72582124
0.72782272
0.72982416
0.73182556
0.73382692
0.73582825
0.73782954
0.7398308
0.74183204
0.74383324
0.74583441
0.74783556
0.74983668
0.75183777
0.75383883
0.75583986
0.75784087
0.75984185
0.7618428
0.76384373
0.76584462
0.76784549
0.76984633
0.77184714
0.77384791
0.77584866
0.77784937
0.77985005
0.78185069
0.7838513
0.78585187
0.7878524
0.7898529
0.79185336
0.79385379
0.79585417
0.79785451
0.79985482
0.80185508
0.80385531
0.8058555
0.80785565
0.80985575
0.81185582
0.81385584
0.81585582
0.81785576
0.81985565
0.8218555
0.8238553
0.82585506
0.82785478
0.82985446
0.83185409
0.83385369
0.83585324
0.83785275
0.83985222
0.84185165
0.84385104
0.84585039
0.84784969
0.84984896
0.85184818
0.85384736
0.85584651
0.85784561
0.85984467
0.86184369
0.86384268
0.86584162
0.86784053
0.8698394
0.87183824
0.87383703
0.87583579
0.87783451
0.87983319
0.88183183
0.88383044
0.88582901
0.88782754
0.88982603
0.89182449
0.8938229
0.89582129
0.89781964
0.89981795
0.90181623
0.90381447
0.90581269
0.90781087
0.90980901
0.91180713
0.91380521
0.91580326
0.91780128
0.91979926
0.92179722
0.92379514
0.92579303
0.92779089
0.92978871
0.93178651
0.93378428
0.93578201
0.93777972
0.9397774
0.94177505
0.94377267
0.94577027
0.94776783
0.94976537
0.95176288
0.95376036
0.95575781
0.95775524
0.95975264
0.96175001
0.96374736
0.96574469
0.96774198
0.96973926
0.9717365
0.97373373
0.97573092
0.97772809
0.97972523
0.98172234
0.98371942
0.98571648
0.98771351
0.98971052
0.9917075
0.99370446
0.99570139
0.99769831
0.9996952
1.0016921
1.0036889
1.0056857
1.0076825
1.0096793
1.011676
1.0136728
1.0156695
1.0176662
1.0196628
1.0216594
1.0236561
1.0256526
1.0276492
1.0296457
1.0316423
1.0336388
1.0356352
1.0376317
1.0396281
1.0416245
1.0436209
1.0456173
1.0476136
1.04961
1.0516063
1.0536026
1.0555988
1.0575951
1.0595913
1.0615875
1.0635837
1.0655799
1.0675761
1.0695722
1.0715683
1.0735644
1.0755605
1.0775566
1.0795526
1.0815486
1.0835446
1.0855406
1.0875366
1.0895325
1.0915284
1.0935243
1.0955202
1.0975161
1.0995119
1.1015078
1.1035036
1.1054994
1.1074952
1.1094909
1.1114867
1.1134824
1.1154782
1.1174739
1.1194696
1.1214654
1.123461