/*--------------------------------*- C++ -*----------------------------------*\
  =========                 |
  \\      /  F ield         | OpenFOAM: The Open Source CFD Toolbox
   \\    /   O peration     | Website:  https://openfoam.org
    \\  /    A nd           | Version:  7
     \\/     M anipulation  |
\*---------------------------------------------------------------------------*/
FoamFile
{
    version     2.0;
    format      ascii;
    class       volScalarField;
    location    "0.00023";
    object      Uz;
}
// * * * * * * * * * * * * * * * * * * * * * * * * * * * * * * * * * * * * * //

dimensions      [0 1 -1 0 0 0 0];

internalField   nonuniform List<scalar> 
5000
(
0
0
0
0
0
5.06647e-29
-2.1599661e-43
9.119646e-28
-5.06647e-29
1.013294e-28
-1.013294e-27
7.599705e-28
-3.8879389e-42
-7.4168392e-56
-3.039882e-28
4.053176e-28
7.806133e-56
2.2319649e-42
1.013294e-28
-3.039882e-28
-3.039882e-28
0
0
1.013294e-28
-3.0239525e-42
2.0879672e-42
-1.9612033e-42
-5.06647e-29
-1.013294e-28
-3.5280494e-43
7.4749109e-58
1.2959796e-42
-1.2677297e-42
3.546529e-28
2.533235e-28
0
0
2.533235e-28
1.519941e-28
-2.533235e-28
5.9471066e-42
3.039882e-28
1.013294e-28
-1.7135731e-42
-5.06647e-29
1.519941e-28
-1.2196608e-41
1.3881382e-41
-3.4847452e-42
4.3199321e-42
5.06647e-28
0
0
0
0
0
0
0
0
0
0
0
0
-1.013294e-28
5.06647e-29
1.013294e-28
-8.7118631e-43
2.4394166e-56
3.546529e-28
0
0
4.053176e-28
3.039882e-28
0
1.519941e-28
5.2487175e-42
1.5854857e-42
3.546529e-28
-3.039882e-28
-2.026588e-28
5.06647e-28
-8.6398642e-44
-1.7960979e-42
-1.013294e-28
-2.6351586e-41
1.3167555e-41
6.079764e-28
1.519941e-28
5.06647e-28
-4.559823e-28
-3.2716119e-42
-1.013294e-28
5.8067296e-56
-2.026588e-28
7.0126898e-42
3.546529e-28
5.573117e-28
1.2448604e-41
-1.2824893e-55
3.039882e-28
2.533235e-28
-2.533235e-28
4.3199321e-44
2.026588e-28
0
5.06647e-29
-2.1167667e-41
3.039882e-28
-5.06647e-29
1.519941e-28
-5.06647e-28
-3.039882e-28
1.0639587e-27
-2.1271594e-43
4.559823e-28
-1.519941e-28
-3.546529e-28
-4.0319366e-43
-5.573117e-28
6.079764e-28
-3.5423443e-42
7.093058e-28
-1.2159528e-27
-4.053176e-28
5.06647e-29
3.039882e-28
-4.559823e-28
-4.053176e-28
-1.013294e-28
-9.9575445e-56
-1.1796295e-44
-2.026588e-28
1.519941e-28
3.546529e-28
5.573117e-28
1.7639723e-41
3.5135448e-42
7.0558891e-42
2.026588e-28
-3.039882e-28
2.533235e-28
-7.093058e-28
-5.06647e-28
-2.533235e-28
7.0270896e-42
6.079764e-28
-8.6398642e-44
-2.8799547e-44
-4.8300448e-55
4.559823e-28
-2.8108358e-41
9.1726559e-41
2.026588e-28
-3.5923437e-42
-2.026588e-28
-1.5810952e-41
3.546529e-28
-3.546529e-28
-2.2000255e-60
-1.013294e-28
0
-1.013294e-28
2.4544414e-41
-1.013294e-27
2.533235e-28
-2.8799547e-44
2.533235e-28
-4.053176e-28
1.013294e-28
1.5926065e-43
4.2220137e-41
1.1243343e-40
-3.546529e-28
1.013294e-28
0
2.1081269e-41
-3.1621903e-41
5.06647e-28
5.06647e-28
2.7935561e-41
-1.013294e-28
-2.533235e-28
-2.4393217e-41
-8.6398642e-44
-7.0198897e-42
-1.013294e-28
3.039882e-28
5.06647e-28
-1.7423726e-41
-3.4919451e-42
-5.2667172e-41
2.4494015e-41
1.013294e-28
0
0
0
0
1.013294e-28
-5.281117e-41
-4.559823e-28
-2.026588e-28
5.06647e-29
-4.053176e-28
8.106352e-28
-1.0519035e-41
7.3633243e-41
4.559823e-28
7.093058e-28
-7.599705e-28
0
-1.519941e-28
-2.8050759e-41
7.093058e-28
8.612999e-28
-8.467067e-41
-1.4037591e-41
-1.2159528e-27
6.079764e-28
1.519941e-28
1.519941e-28
-1.013294e-28
0
0
0
1.013294e-28
-3.3752068e-42
-1.013294e-28
3.039882e-28
-1.4082979e-41
3.546529e-28
3.039882e-28
-5.06647e-28
1.7279728e-43
-1.5839751e-43
1.013294e-28
-6.586411e-28
1.6212704e-27
-5.0399208e-44
-1.0555034e-41
1.013294e-28
-2.8137158e-41
-5.6593721e-55
3.5270921e-42
-1.519941e-28
0
2.026588e-28
-4.053176e-28
1.013294e-28
-2.026588e-28
0
1.013294e-28
1.013294e-28
3.039882e-28
-1.2312527e-40
-5.06647e-28
-2.026588e-28
1.519941e-28
-4.1860607e-41
0
6.079764e-28
5.06647e-29
-1.013294e-28
5.06647e-29
2.533235e-28
-6.079764e-28
2.026588e-28
-2.026588e-28
1.013294e-28
-5.6216717e-41
8.106352e-28
-4.559823e-28
2.1081269e-41
-2.1091775e-41
2.026588e-28
-3.546529e-28
3.5279446e-41
5.06647e-29
5.06647e-29
-5.06647e-29
6.079764e-28
-1.9024981e-40
-6.079764e-28
-3.039882e-28
-2.1038069e-41
5.06647e-29
0
0
3.039882e-28
-4.053176e-28
-4.053176e-28
-2.026588e-28
1.4399774e-44
-2.026588e-28
-4.053176e-28
4.053176e-28
0
1.013294e-28
-1.519941e-28
0
1.9252586e-27
9.119646e-28
-1.2159528e-27
3.1557104e-41
-4.3199321e-44
-1.519941e-28
-1.013294e-28
-2.026588e-28
2.533235e-28
-2.026588e-28
-2.8799547e-44
-5.06647e-28
2.026588e-28
1.519941e-28
5.06647e-29
-2.8108358e-41
3.546529e-28
0
0
-4.559823e-28
7.7377184e-41
-4.2184137e-41
4.2248936e-41
-3.039882e-28
1.519941e-28
1.9541142e-59
-1.013294e-28
0
0
0
0
0
0
0
5.06647e-28
0
-7.599705e-28
0
5.972541e-44
-7.0270896e-41
4.053176e-28
0
0
-1.3898376e-43
2.1102868e-41
5.06647e-29
0
0
1.013294e-28
-1.013294e-28
4.053176e-28
2.533235e-28
0
-3.039882e-28
3.5999434e-44
5.06647e-28
-2.533235e-28
-2.026588e-28
0
-3.039882e-28
0
1.519941e-28
3.039882e-28
-4.053176e-28
-6.586411e-28
0
5.7731718e-43
5.06647e-29
5.06647e-29
-5.06647e-29
0
0
0
0
0
0
0
0
-3.039882e-28
-5.4642931e-55
-5.573117e-28
0
0
0
5.06647e-29
-7.0270896e-42
-1.013294e-28
-5.06647e-29
-2.1102868e-41
2.8799547e-44
2.1102868e-41
-1.013294e-28
1.013294e-28
-1.013294e-28
-1.1260623e-40
-2.026588e-28
-2.026588e-28
0
0
-2.533235e-28
-4.2205737e-41
2.533235e-28
1.013294e-28
5.06647e-29
0
2.026588e-28
3.039882e-28
-1.013294e-28
8.4368274e-41
1.9515332e-56
8.4411474e-41
-4.559823e-28
5.06647e-29
-4.8920109e-68
-2.8137158e-41
-2.026588e-28
0
0
3.039882e-28
7.9198756e-44
-1.0540634e-40
-2.026588e-28
0
0
1.519941e-28
-2.8093959e-41
-1.013294e-28
0
0
0
-2.1382118e-44
2.1599661e-44
3.546529e-28
-3.039882e-28
5.06647e-29
-5.6331915e-41
-9.119646e-28
3.039882e-28
1.7520121e-53
-7.0342895e-42
9.7171244e-55
1.013294e-28
0
0
3.039882e-28
7.0342895e-42
4.2184137e-41
1.3932648e-69
1.013294e-28
-5.06647e-29
-2.026588e-28
0
-1.013294e-28
0
2.026588e-28
0
0
-3.039882e-28
4.3199321e-44
-2.9272999e-56
-4.559823e-28
1.519941e-28
1.4039779e-41
-3.5171447e-41
1.4061379e-41
2.026588e-28
-5.06647e-28
5.6274316e-41
-2.8151558e-41
1.4075779e-41
-5.06647e-28
5.573117e-28
-7.0342895e-41
2.1146068e-41
0
2.533235e-28
-3.039882e-28
4.2205737e-41
-7.1998869e-44
4.9240026e-41
-3.5207447e-41
-1.519941e-28
2.026588e-28
4.053176e-28
-4.559823e-28
-1.519941e-28
0
-2.026588e-28
-1.519941e-28
0
-2.533235e-28
2.1102868e-41
7.1998869e-45
-1.4054179e-41
2.026588e-28
1.4158508e-41
7.0270896e-42
7.0342895e-41
3.039882e-28
1.519941e-28
-1.013294e-28
-2.1599661e-44
3.5135448e-41
1.387206e-41
2.533235e-28
2.9937916e-54
2.533235e-28
0
0
0
-2.026588e-28
-2.533235e-28
-1.2829271e-43
5.06647e-29
0
-2.026588e-28
-3.039882e-28
1.519941e-28
5.06647e-29
0
-3.039882e-28
-2.533235e-28
1.013294e-28
-3.9159636e-54
1.013294e-28
0
0
0
0
-5.06647e-29
-2.8108358e-41
5.06647e-29
-5.06647e-29
-7.0342895e-42
4.9290426e-41
-1.9515332e-56
-1.519941e-28
1.013294e-28
-2.026588e-28
-5.6274316e-41
5.6216717e-41
5.06647e-29
0
2.533235e-28
-2.533235e-28
3.039882e-28
7.6796756e-54
3.039882e-28
0
0
2.026588e-28
2.1081269e-41
1.013294e-28
0
-3.546529e-28
9.3598529e-44
-1.8289153e-40
-5.6216717e-41
-1.013294e-28
5.573117e-28
-1.079983e-43
2.67303e-40
5.573117e-28
-1.519941e-28
-4.2205737e-41
-3.5999434e-44
3.5171447e-41
5.06647e-29
-1.519941e-28
0
3.1195536e-53
2.1081269e-41
4.4073366e-53
-5.7599095e-44
2.103426e-41
2.1369742e-41
3.9030665e-56
-2.8137158e-41
8.4411474e-41
-2.8137158e-41
-4.053176e-28
3.039882e-28
1.519941e-28
2.1102868e-41
-3.5171447e-41
-1.1146234e-27
3.039882e-28
-1.013294e-28
7.0449708e-72
0
-6.5493719e-70
-2.026588e-28
-1.013294e-28
2.4394166e-56
1.0540634e-40
4.3199321e-44
-3.039882e-28
1.4186116e-27
1.4068579e-40
-1.519941e-28
4.9189627e-41
-7.7297985e-41
5.06647e-29
2.533235e-28
-3.9030665e-56
1.6888055e-40
-8.4454673e-41
4.2184137e-41
-4.2205737e-41
-1.9515332e-56
0
1.013294e-28
0
0
1.013294e-28
-4.2205737e-41
5.06647e-29
0
0
6.079764e-28
3.374155e-40
-9.119646e-28
3.546529e-28
-4.3199321e-44
4.2205737e-41
2.1187994e-41
0
0
0
-1.013294e-28
-4.2162538e-41
-5.06647e-29
0
0
-3.546529e-28
-1.4399774e-44
-5.573117e-28
0
0
-1.519941e-28
-5.6216717e-41
7.9016636e-54
-1.4068579e-40
-2.533235e-28
-2.026588e-28
7.0306895e-41
-1.1249103e-40
8.4325075e-41
-1.519941e-28
0
0
-1.6884647e-43
1.2197083e-55
-1.519941e-28
0
0
4.053176e-28
-2.3418399e-55
-1.013294e-28
0
0
1.519941e-28
1.5612266e-55
1.013294e-28
0
0
1.519941e-28
-2.1599661e-44
-2.026588e-28
1.013294e-28
4.2227337e-41
-5.6303115e-41
-4.0726754e-54
-5.06647e-29
0
0
0
0
0
1.519941e-28
-9.8429653e-41
-1.519941e-28
0
0
0
0
0
0
0
2.026588e-28
-2.8122758e-40
-4.559823e-28
0
0
0
0
0
0
0
-2.533235e-28
7.0306895e-41
-5.06647e-29
0
0
4.053176e-28
7.0378894e-41
4.053176e-28
0
0
0
-2.65066e-43
1.4075779e-41
-5.06647e-29
0
0
0
0
0
0
0
5.06647e-29
-1.4399774e-44
-1.519941e-28
0
0
0
0
0
0
0
-3.039882e-28
-2.1599661e-44
4.559823e-28
0
0
0
-3.039882e-28
8.4389874e-41
4.559823e-28
0
-5.06647e-29
-1.1260623e-40
6.586411e-28
0
0
-3.546529e-28
-2.533235e-28
2.533235e-28
5.06647e-29
0
0
0
0
2.533235e-28
1.4399774e-44
6.079764e-28
4.559823e-28
-9.119646e-28
-3.039882e-28
-8.5528471e-44
-5.06647e-29
0
0
0
0
-5.06647e-29
4.2227337e-41
-2.026588e-28
0
0
0
0
0
0
0
0
0
0
0
0
0
0
4.559823e-28
-1.9696011e-40
2.8029463e-41
0
0
-3.039882e-28
1.6882295e-40
-8.6398642e-44
5.06647e-28
1.519941e-28
4.6980835e-53
-4.2227337e-41
2.026588e-28
0
0
0
0
0
5.06647e-28
-8.4389874e-41
-9.7324765e-44
0
0
0
0
0
0
0
-2.026588e-28
1.9685931e-40
5.06647e-29
0
0
0
0
0
0
0
2.026588e-28
-3.375307e-40
-2.026588e-28
0
0
0
0
0
0
0
0
1.013294e-28
-7.1998869e-45
2.026588e-28
0
0
0
0
-5.06647e-29
-2.533235e-28
5.06647e-29
-1.3172822e-27
-1.5475437e-40
1.013294e-28
0
0
0
0
-1.519941e-28
5.6245516e-41
4.053176e-28
1.013294e-28
3.546529e-28
-3.039882e-28
0
0
0
5.06647e-29
-7.0270896e-41
5.06647e-28
4.559823e-28
-4.053176e-28
-4.053176e-28
2.533235e-28
0
0
2.026588e-28
1.519941e-28
-5.06647e-29
4.2323639e-41
-2.026588e-28
-1.6882295e-40
4.559823e-28
0
0
0
5.06647e-29
-5.06647e-29
3.546529e-28
3.039882e-28
5.06647e-29
-4.2184137e-41
-5.06647e-29
0
0
0
-1.519941e-28
-5.6245516e-41
-1.519941e-28
0
0
0
0
0
0
0
-1.519941e-28
7.7997413e-54
2.026588e-28
2.8076001e-68
1.81748e-43
0
0
1.013294e-28
1.4399774e-44
1.4068579e-41
-8.4368274e-41
-2.533235e-28
-2.533235e-28
1.2661721e-40
1.519941e-28
0
0
-1.013294e-28
-8.4382674e-41
8.901525e-57
3.5999434e-44
-3.039882e-28
1.013294e-28
2.3630853e-43
7.093058e-28
-3.373003e-40
-2.533235e-28
-3.039882e-28
0
-1.519941e-28
-5.6303115e-41
1.519941e-28
0
6.079764e-28
-8.106352e-28
5.6259916e-40
2.533235e-28
-1.013294e-28
0
-3.546529e-28
0
2.533235e-28
0
5.06647e-29
5.06647e-29
-8.4325075e-41
-1.013294e-28
5.06647e-29
0
-4.053176e-28
2.8137158e-41
-2.533235e-28
0
-2.533235e-28
-5.6256529e-41
5.7599095e-44
1.519941e-28
5.06647e-29
0
-1.519941e-28
1.519941e-28
5.06647e-29
4.559823e-28
-5.573117e-28
3.546529e-28
-5.06647e-29
2.026588e-28
0
0
0
0
0
0
-1.3985241e-41
-1.9515332e-56
-6.079764e-28
4.559823e-28
5.06647e-28
-1.519941e-28
0
0
4.053176e-28
3.039882e-28
3.039882e-28
3.039882e-28
0
-3.039882e-28
-7.9070279e-54
-2.026588e-28
0
0
3.546529e-28
-2.7308741e-41
1.013294e-28
2.533235e-28
0
-3.039882e-28
8.4411474e-41
2.026588e-28
-1.519941e-28
-8.4411474e-41
7.1998869e-45
2.026588e-28
-2.533235e-28
-1.013294e-28
0
0
-2.026588e-28
8.4368274e-41
4.053176e-28
0
-1.519941e-28
-5.06647e-29
1.81748e-43
-1.013294e-28
0
0
0
0
0
0
2.026588e-28
4.2184137e-41
2.026588e-28
0
0
0
0
0
0
5.06647e-29
-1.9515332e-56
-2.026588e-28
1.013294e-28
3.9224619e-54
-1.519941e-28
0
0
0
0
5.573117e-28
5.6245516e-41
-1.013294e-28
-1.013294e-28
1.1283047e-40
-1.013294e-28
-2.8122758e-41
1.2657401e-40
2.5306162e-40
2.8151558e-41
-2.5323442e-40
8.4368274e-41
2.026588e-28
0
-5.06647e-29
2.5310482e-40
-4.3199321e-44
-2.026588e-28
1.519941e-28
-5.06647e-29
2.533235e-28
-8.4368274e-41
1.6867895e-40
8.4389874e-41
2.8108358e-41
1.4054179e-41
8.4368274e-41
1.519941e-28
1.4078878e-41
5.06647e-29
1.519941e-28
-4.2162538e-41
1.1249103e-40
5.6245516e-41
-7.0342895e-41
-2.8108358e-41
1.4061379e-41
5.06647e-29
0
-1.013294e-28
8.4368274e-41
-1.5612266e-55
-6.079764e-28
0
5.573117e-28
-3.546529e-28
-2.533235e-28
2.533235e-28
0
0
0
0
-1.013294e-28
2.8122758e-41
-1.4064979e-40
-4.2215623e-41
-4.559823e-28
4.559823e-28
0
0
0
0
5.06647e-29
1.4399774e-44
-5.06647e-29
0
0
0
0
0
0
0
1.013294e-28
-5.06647e-28
8.612999e-28
4.053176e-28
0
0
0
0
0
0
5.06647e-29
1.519941e-28
-5.06647e-29
2.8134163e-41
0
0
0
0
0
0
-2.026588e-28
2.026588e-28
-1.013294e-28
5.06647e-29
0
0
0
0
0
0
-5.06647e-29
1.1251983e-40
1.519941e-28
0
0
0
0
0
0
-5.06647e-28
8.4411474e-41
1.013294e-28
0
0
0
0
-5.06647e-29
-2.8799547e-44
3.546529e-28
-1.013294e-28
-4.8788331e-57
-2.533235e-28
1.519941e-28
-2.8137158e-41
-5.06647e-29
1.013294e-28
1.4064979e-40
8.4389874e-41
2.3418399e-55
-8.4368274e-41
1.4054179e-41
-4.053176e-28
5.06647e-28
1.013294e-28
7.093058e-28
-1.6865015e-40
-5.5593506e-43
0
-5.06647e-29
1.4068579e-41
-1.4075779e-41
2.1088469e-40
2.9528896e-40
-2.8108358e-41
8.4368274e-41
-5.6231116e-41
9.8530452e-41
6.873433e-41
0
5.06647e-29
2.8799547e-44
1.2653081e-40
8.4368274e-41
7.1998869e-45
1.9685931e-40
-1.4068579e-41
2.533235e-28
0
-5.06647e-29
1.6873655e-40
2.1599661e-44
4.053176e-28
0
-3.039882e-28
3.546529e-28
5.06647e-29
5.06647e-29
0
0
-4.053176e-28
6.1877988e-40
-1.1243343e-40
1.4064979e-40
-2.8151558e-41
-5.06647e-29
-5.06647e-29
2.026588e-28
0
0
0
0
-3.039882e-28
-1.5475437e-40
-7.8743723e-40
5.06647e-28
1.013294e-28
5.06647e-29
0
0
0
0
3.039882e-28
1.519941e-28
2.7927717e-41
1.519941e-28
0
0
0
0
0
0
3.039882e-28
1.519941e-28
1.519941e-28
1.013294e-28
0
0
0
0
0
0
-1.519941e-28
4.2191337e-41
4.053176e-28
8.4367099e-41
-6.079764e-28
-4.053176e-28
0
1.1146234e-27
-5.0633924e-40
6.748886e-40
1.519941e-28
2.026588e-28
-9.119646e-28
7.093058e-28
5.06647e-28
-4.053176e-28
1.013294e-28
2.8799547e-44
4.1695129e-43
-1.013294e-28
4.053176e-28
3.039882e-28
-5.06647e-29
2.026588e-28
2.8799547e-44
-2.026588e-28
0
0
0
-8.106352e-28
-5.06647e-29
-1.013294e-28
-3.039882e-28
4.053176e-28
2.533235e-28
-6.079764e-28
-3.9030665e-56
1.013294e-28
-5.06647e-29
2.026588e-28
1.1248947e-40
4.559823e-28
2.026588e-28
-2.1076559e-54
-1.8239292e-27
1.013294e-27
5.573117e-28
3.546529e-28
1.013294e-28
0
2.533235e-28
5.573117e-28
-3.039882e-28
-3.4211388e-43
1.0639587e-27
-2.026588e-28
1.013294e-28
-1.013294e-28
5.06647e-29
5.0399208e-44
-7.599705e-28
2.026588e-28
1.6870775e-40
-2.5314802e-40
6.079764e-28
-1.013294e-28
2.533235e-28
1.1146234e-27
-3.546529e-28
-4.053176e-28
4.053176e-28
-2.026588e-28
2.533235e-28
-5.06647e-29
3.039882e-28
-2.026588e-28
-3.039882e-28
5.06647e-28
4.559823e-28
-6.079764e-28
-1.0639587e-27
1.519941e-28
2.026588e-28
5.6245516e-41
2.026588e-28
5.06647e-29
0
5.06647e-28
-1.249246e-52
-8.4343507e-41
-1.013294e-28
-1.2430287e-52
-1.519941e-28
-3.039882e-28
3.039882e-28
0
0
0
-5.06647e-28
2.5316962e-40
5.06647e-28
-1.519941e-28
1.013294e-28
-7.599705e-28
1.5186289e-39
4.053176e-28
1.519941e-28
0
0
0
-5.06647e-28
3.039882e-28
6.079764e-28
-6.079764e-28
7.1998869e-44
1.013294e-28
0
0
-3.546529e-28
1.1251983e-40
1.013294e-28
2.026588e-28
3.039882e-28
1.519941e-28
-1.6870775e-40
-5.06647e-28
3.039882e-28
-1.013294e-28
1.013294e-28
-3.039882e-28
2.1933879e-39
3.546529e-28
1.013294e-28
4.559823e-28
-1.4399774e-43
-1.519941e-28
2.8122758e-41
-5.06647e-29
-5.06647e-29
-2.8122758e-41
-4.559823e-28
-1.5602897e-55
-4.559823e-28
5.06647e-28
1.6392879e-54
1.013294e-28
-5.6244733e-41
5.06647e-29
-3.039882e-28
-5.06647e-28
6.7503259e-40
1.519941e-28
5.06647e-28
3.039882e-28
3.546529e-28
-4.559823e-28
0
5.06647e-29
-1.5517206e-53
1.6873655e-40
-2.5304002e-40
2.533235e-28
1.1249103e-40
-1.519941e-28
3.374731e-40
1.0639587e-27
-6.079764e-28
1.519941e-28
3.039882e-28
-9.119646e-28
-4.053176e-28
1.2159528e-27
-5.06647e-28
-9.119646e-28
0
0
5.06647e-29
-1.013294e-28
0
4.559823e-28
3.546529e-28
-5.06647e-28
-1.2558335e-52
-6.079764e-28
5.6245516e-40
5.06647e-28
2.533235e-28
5.06647e-29
3.546529e-28
5.06647e-28
-4.559823e-28
-1.0639587e-27
2.026588e-28
2.026588e-28
1.519941e-28
5.06647e-28
1.4746435e-43
0
5.06647e-29
0
-4.053176e-28
-1.519941e-28
2.2498207e-40
-1.519941e-28
1.0124193e-39
-1.519941e-28
3.546529e-28
4.559823e-28
-5.06647e-28
-4.053176e-28
-5.06647e-29
-1.3679469e-27
2.026588e-28
-2.026588e-28
8.4382674e-41
2.533235e-28
3.039882e-28
-5.06647e-29
-2.026588e-28
2.8122758e-41
-7.1998869e-45
4.053176e-28
-5.6245516e-40
-5.06647e-29
-1.519941e-28
-1.6873655e-40
-8.106352e-28
0
0
-6.586411e-28
2.2498207e-40
-2.026588e-28
2.533235e-28
-1.013294e-28
-2.026588e-28
1.6869335e-40
-3.039882e-28
-1.519941e-28
-5.06647e-29
1.013294e-27
-3.4559457e-43
-8.4375474e-40
-2.026588e-28
-4.053176e-28
1.519941e-28
-1.6877975e-40
-5.06647e-28
0
0
-3.039882e-28
5.6245516e-40
3.373867e-40
1.0079842e-43
1.519941e-28
-6.079764e-28
3.375307e-40
3.039882e-28
4.559823e-28
-4.559823e-28
1.013294e-28
-5.6231116e-41
-3.374443e-40
1.013294e-28
8.106352e-28
-6.079764e-28
-1.519941e-28
-2.026588e-28
1.2781341e-42
2.533235e-28
-9.119646e-28
3.9371861e-40
1.1237297e-40
2.1599661e-44
8.106352e-28
-5.06647e-28
2.5306162e-40
5.06647e-28
-5.573117e-28
0
6.079764e-28
1.4057779e-40
-4.559823e-28
1.013294e-28
-1.013294e-28
-1.519941e-28
-3.546529e-28
5.06647e-28
2.533235e-28
5.06647e-29
-1.013294e-28
-3.1193499e-53
2.2492447e-40
-6.586411e-28
6.1885908e-40
-5.573117e-28
1.856102e-39
4.559823e-28
-2.026588e-28
-1.1709199e-55
5.06647e-29
-2.2495327e-40
1.4064979e-40
7.599705e-28
-4.053176e-28
2.5444837e-40
0
0
-3.546529e-28
-3.546529e-28
-4.053176e-28
-5.06647e-29
3.039882e-28
-4.053176e-28
3.039882e-28
1.6719351e-27
-5.06647e-28
-4.053176e-28
-2.533235e-28
-1.013294e-28
4.053176e-28
1.519941e-28
-5.06647e-29
-6.079764e-28
1.013294e-28
-5.2691398e-55
-5.0612325e-40
-1.3172822e-27
1.2159528e-27
7.093058e-28
-2.533235e-28
-8.106352e-28
7.093058e-28
5.06647e-29
4.559823e-28
9.119646e-28
-1.519941e-28
9.119646e-28
7.093058e-28
-1.9685931e-40
-6.079764e-28
-5.573117e-28
3.546529e-28
-2.026588e-28
5.7599095e-44
5.06647e-28
-1.013294e-28
2.5314802e-40
7.093058e-28
-6.586411e-28
-7.093058e-28
4.0553764e-44
0
5.06647e-29
-1.519941e-28
-3.546529e-28
6.079764e-28
0
0
0
0
5.06647e-29
-1.6873655e-40
-3.039882e-28
5.06647e-29
-3.039882e-28
-2.026588e-28
-2.8090252e-52
-4.053176e-28
-1.013294e-28
-2.533235e-28
8.106352e-28
1.013294e-28
-1.6875095e-40
1.1250126e-40
-1.518853e-43
-1.519941e-28
5.7599095e-44
1.013294e-28
-7.1998869e-45
2.7796753e-43
-1.013294e-28
-1.2481323e-52
-3.039882e-28
-8.6398642e-44
-1.2159528e-27
-3.039882e-28
1.4054179e-40
4.053176e-28
0
-3.039882e-28
5.06647e-28
1.013294e-28
-3.374443e-40
-1.013294e-28
-1.013294e-28
-1.519941e-28
3.1531554e-53
-3.546529e-28
-5.06647e-28
-2.533235e-28
-2.8108358e-40
3.0927114e-40
8.106352e-28
1.6869335e-40
-4.053176e-28
-1.013294e-28
2.0249538e-39
9.119646e-28
-2.026588e-28
3.9381941e-40
9.119646e-28
-2.533235e-28
-5.6413579e-41
3.039882e-28
-1.519941e-28
-1.519941e-28
0
0
0
1.519941e-28
0
1.519941e-28
7.599705e-28
-5.06647e-28
5.7599095e-44
-1.013294e-28
-6.7506139e-40
2.5309945e-40
-7.599705e-28
1.2657401e-39
6.079764e-28
5.6231116e-41
5.6259916e-41
4.053176e-28
-1.519941e-28
1.013294e-28
-3.375307e-40
-6.079764e-28
1.519941e-28
-4.053176e-28
8.9992826e-40
2.026588e-28
-9.119646e-28
-3.546529e-28
-1.519941e-28
1.519941e-28
-3.374731e-40
-3.039882e-28
6.079764e-28
-1.3498924e-39
9.119646e-28
0
-2.533235e-28
-7.093058e-28
2.533235e-28
-5.06647e-29
-1.0124193e-39
-7.093058e-28
-5.0697235e-40
5.6238316e-40
-1.6882295e-40
-5.6245516e-41
3.374731e-40
1.519941e-28
-1.519941e-27
-3.039882e-28
-1.013294e-28
3.039882e-28
0
1.013294e-28
-2.8115558e-40
6.749462e-40
-5.6245516e-40
-3.039882e-28
5.06647e-29
-3.0297444e-41
-3.039882e-28
-2.1076559e-54
-3.375307e-40
-5.06647e-29
5.6216717e-41
8.106352e-28
-4.053176e-28
-3.039882e-28
-4.053176e-28
4.4990653e-40
3.039882e-28
0
0
0
-8.106352e-28
3.039882e-28
3.039882e-28
-6.079764e-28
-1.013294e-28
-1.6719351e-27
9.119646e-28
-1.8796813e-52
-2.026588e-28
4.559823e-28
4.053176e-28
0
-4.053176e-28
6.748886e-40
3.8487812e-43
-1.2159528e-27
3.039882e-28
0
-2.026588e-28
-7.1998869e-44
-3.374731e-40
1.81748e-43
-3.039882e-28
-3.039882e-28
5.0646884e-40
1.3679469e-27
-7.599705e-28
-1.0125921e-39
-5.06647e-28
8.9694371e-43
3.039882e-28
-1.1146234e-27
-2.533235e-28
-1.3498924e-39
-3.546529e-28
-1.013294e-28
-1.519941e-28
-4.559823e-28
8.106352e-28
2.533235e-28
0
3.039882e-28
-2.8129958e-41
-1.9515332e-56
5.06647e-29
4.3199321e-44
5.06647e-29
9.3673596e-55
1.519941e-28
-1.519941e-28
-7.599705e-28
1.1146234e-27
5.06647e-28
0
2.026588e-28
5.06647e-29
1.0639587e-27
-1.0639587e-27
6.7506139e-40
7.093058e-28
5.06647e-29
0
-2.533235e-28
-5.06647e-29
-2.8565493e-41
8.4368274e-41
2.026588e-28
8.6398642e-44
8.4711424e-41
0
7.599705e-28
2.026588e-28
4.559823e-28
1.013294e-28
3.039882e-28
5.6464452e-41
8.106352e-28
5.573117e-28
-9.119646e-28
-3.039882e-28
1.6873655e-40
2.026588e-28
-1.519941e-28
-2.026588e-28
5.06647e-29
1.1249103e-40
-9.119646e-28
1.5186289e-39
7.599705e-28
0
0
1.013294e-28
3.375163e-40
4.559823e-28
-2.1279174e-27
9.626293e-28
1.6870775e-39
2.0248386e-39
1.0639587e-27
-6.586411e-28
5.6231116e-40
-1.0124193e-39
-9.626293e-28
1.6212704e-27
-2.8799547e-43
1.1811558e-39
-2.8681541e-39
-3.039882e-27
0
4.053176e-27
-9.5249636e-27
-5.9784346e-27
1.347681e-26
0
-9.6769577e-27
1.1146234e-26
2.7257608e-26
-4.970207e-26
6.4637128e-38
7.626892e-38
-2.705495e-26
9.5148306e-26
-5.2703172e-42
-4.3774301e-26
-5.1728658e-26
6.0544316e-26
7.0626591e-26
-8.3698084e-26
0
1.1678213e-25
-2.7521065e-25
2.6918073e-37
1.8984063e-25
4.9513641e-37
5.8105428e-37
8.7320228e-41
7.2024937e-25
-1.2667188e-24
-1.4843744e-24
0
1.35599e-24
2.3809876e-24
1.3198113e-40
-1.0859472e-24
-1.2691507e-24
1.4825504e-24
1.7311115e-24
-2.0205082e-24
0
-5.4977279e-24
-6.4075646e-24
1.1197405e-23
4.3465246e-24
-5.0590223e-24
1.6728361e-39
6.8446996e-24
1.5911857e-23
9.2439265e-24
-1.7879845e-35
-4.9845553e-23
4.8151843e-35
5.0299863e-23
-1.943508e-23
-2.2517166e-23
-2.6075753e-23
3.018309e-23
3.4920644e-23
4.0382451e-23
1.3266137e-38
-5.3924821e-23
6.2269348e-23
-2.1561017e-22
-1.6582141e-22
2.8680238e-22
-1.1017926e-22
-2.5383704e-22
2.922578e-22
-1.6816364e-22
1.9342541e-22
4.4474335e-22
-7.6656674e-22
2.9346727e-22
-1.1221471e-33
-1.1595432e-21
8.8648035e-22
5.0803288e-22
5.820001e-22
1.33279e-21
-7.6263617e-22
4.3777549e-76
-1.9945563e-21
-1.1395353e-21
1.4447586e-33
1.4854937e-21
3.3894608e-21
-3.8648399e-21
2.2022812e-21
7.5254898e-21
-8.5673033e-21
-3.2493755e-21
-2.4626026e-48
-4.2000436e-21
1.4313641e-20
5.4171178e-21
-6.1471109e-21
-1.3943324e-20
7.9024766e-21
-8.9526332e-21
3.3759955e-32
2.2942167e-20
-3.8921531e-20
-1.6289009e-32
7.3580937e-32
-4.1529497e-32
4.2219842e-20
-4.7616414e-20
2.6836081e-20
1.2092688e-19
-3.403745e-20
-7.6600322e-20
0
-9.681934e-20
1.2073425e-31
3.4700015e-35
7.6033986e-32
7.6797063e-20
8.6060986e-20
-9.6384989e-20
-1.0788296e-19
2.4136015e-19
-2.6982771e-19
1.67339e-31
3.3661933e-19
-3.7563705e-19
-6.9759837e-31
2.5916744e-31
2.6003154e-19
5.7891491e-19
-3.2201272e-19
3.5800558e-19
-2.2079352e-31
-4.4167639e-19
-9.8023351e-19
5.4352413e-19
1.2047332e-18
-6.6715158e-19
7.3842874e-19
-1.3603784e-30
9.028868e-19
2.2151093e-30
-2.2021936e-18
-2.4295392e-18
-2.9732568e-30
4.9148476e-30
-5.4114615e-30
1.7876724e-18
1.965669e-18
2.1599313e-18
-2.3717852e-18
0
0
3.1275491e-18
-1.9010906e-30
-5.3261864e-34
-4.5501179e-30
-4.4790021e-18
0
5.3376395e-18
1.1641357e-17
-6.3429292e-18
-1.3814231e-17
-1.5032212e-17
-1.6345836e-17
2.664216e-17
3.2115036e-29
-3.1388227e-17
2.2688164e-17
2.4581305e-17
0
1.439549e-17
-3.1124326e-17
-1.6810876e-17
3.629246e-17
1.9572982e-17
-2.3419812e-29
-6.8161388e-17
2.4451443e-17
7.8882938e-17
-8.4763596e-17
-3.0337677e-17
9.7648296e-17
-3.8734437e-29
-3.7381985e-17
-8.0029174e-17
-4.7501649e-29
9.148478e-17
-9.7699361e-17
5.2127309e-17
1.6674396e-16
0
-6.3042466e-17
-1.3412284e-16
3.9586272e-29
-7.5704899e-17
-1.6068107e-16
1.7038514e-16
1.8053218e-16
0
1.0109676e-16
1.1863397e-28
1.253168e-28
1.322372e-28
-3.7683193e-16
-2.6470804e-16
0
2.9319446e-16
3.4210635e-28
1.6185999e-16
5.0962779e-16
-1.7814838e-16
1.0359325e-28
-2.7776517e-32
-2.0449595e-16
-4.2756526e-16
2.2331691e-16
4.6619033e-16
-2.4311313e-16
0
-5.2769577e-16
2.7455292e-16
8.5642242e-16
-2.9660405e-16
-3.0793451e-16
-6.3891354e-16
3.3116144e-16
1.0291156e-15
-3.550775e-16
4.0767018e-28
7.5919165e-16
-3.9205124e-16
-4.0462065e-16
-8.3458164e-16
-1.2901441e-15
8.8575629e-16
9.115332e-16
-9.373969e-16
-5.3457713e-28
9.8926169e-16
-1.0151997e-15
-5.778888e-28
1.0669253e-15
0
-1.1182297e-15
-1.1436398e-15
0
1.7907087e-15
6.0924655e-16
1.7662257e-31
6.3345232e-16
6.4528013e-16
7.2907409e-28
-1.3366005e-15
-1.3589174e-15
2.2992149e-27
1.4019776e-15
-1.422655e-15
-2.4024587e-27
1.4621426e-15
0
0
0
0
-1.5485208e-15
-8.6805193e-28
1.5775153e-15
7.9535531e-16
-1.6030033e-15
2.68875e-27
1.6247817e-15
-1.6342203e-15
-9.120358e-28
8.2504317e-16
-1.6564727e-15
2.7677526e-27
1.6660585e-15
-1.669224e-15
-1.6712844e-15
1.6722218e-15
1.6719936e-15
0
0
0
0
8.2657941e-16
-8.2293688e-16
-8.1870621e-16
9.0353973e-28
-1.912774e-71
8.0249958e-16
1.5918714e-15
7.8879874e-16
-1.56219e-15
-2.3184961e-15
7.6401862e-16
1.5093296e-15
-2.2343453e-15
-1.4687642e-15
2.1704392e-15
1.4241795e-15
7.0022862e-16
7.6368923e-28
-1.3503308e-15
0
6.4844766e-16
-6.3452314e-16
1.3771504e-27
1.721397e-31
1.9673927e-27
5.7562669e-16
5.6023645e-16
-1.5479497e-31
-1.0577126e-15
-1.025853e-15
1.6546891e-27
9.6148415e-16
0
0
0
4.1595794e-16
3.998601e-16
-3.8386401e-16
-3.68e-16
3.5229779e-16
-6.7357239e-16
-9.6447865e-16
0
5.8333341e-16
3.0763664e-28
2.6301638e-16
7.4756168e-16
-2.3571491e-16
3.7070748e-28
-4.1981614e-16
1.3163268e-27
3.714248e-16
9.672018e-29
2.3194035e-32
-1.5261865e-16
1.4246596e-16
-2.655151e-16
-1.2349362e-16
2.2934525e-16
-2.1258271e-16
-2.7951303e-32
1.0085765e-28
8.3730001e-17
2.3113438e-16
-1.4152257e-16
-5.4933872e-46
-5.9353641e-17
9.0278172e-29
9.881442e-17
-4.4947744e-17
-8.1623083e-17
4.1047097e-29
1.0034805e-16
-8.5814346e-33
-2.7200191e-17
2.4455264e-17
-4.3887171e-17
-1.9650583e-17
3.5124072e-17
-3.1327998e-17
-1.5475078e-29
6.8758012e-29
-2.4385631e-29
1.9433253e-17
-1.7160491e-17
7.5618001e-18
1.3302095e-17
-5.838603e-18
5.1154322e-18
-8.9463704e-18
6.5023462e-30
1.0202926e-17
0
0
-6.6694117e-18
-1.9221541e-18
3.3173465e-18
-2.8568855e-18
-6.9777185e-34
4.6738736e-30
9.9922493e-31
1.5349458e-18
-1.304355e-18
-1.1036976e-18
4.6456594e-19
1.1656346e-18
3.2239076e-19
-2.6456311e-19
0
0
1.5034768e-19
-6.8765953e-32
-3.2471845e-19
-3.6967572e-35
3.1964776e-19
1.4662153e-19
-1.3667886e-31
-4.4943504e-19
-4.4559328e-31
4.1158527e-19
0
1.7307504e-19
-4.2224759e-19
-2.2304749e-19
4.3025899e-31
1.7557997e-19
3.8577321e-19
-2.0870779e-19
0
0
0
0
1.9645508e-19
-9.3841059e-32
-3.9603703e-19
1.2437851e-19
4.3767998e-19
-4.827646e-19
-1.3665064e-19
1.9950475e-19
9.5132663e-20
2.0214654e-31
-4.2010271e-19
6.9030727e-35
2.9646315e-31
9.6919751e-20
2.8508829e-19
1.6510486e-19
1.4966036e-31
-1.0394331e-19
-1.1388478e-19
-1.3775517e-19
-1.3635442e-19
2.3883855e-31
1.8116706e-19
0
0
8.6760893e-20
1.3726565e-31
1.1563516e-35
-1.1433424e-35
-7.8585638e-20
-1.5570168e-19
-1.6698797e-19
1.9698894e-19
1.281424e-31
1.1975476e-19
3.275948e-19
0
0
-1.1835153e-19
-1.3509852e-19
0
1.6410204e-19
-8.6971064e-32
-1.3760949e-19
1.2428996e-19
-2.1236743e-19
2.5569787e-31
2.0552362e-19
-7.5392016e-20
-6.9251928e-20
-1.0442069e-19
4.31726e-20
1.4545974e-19
-5.3229562e-20
3.377381e-32
-1.4134246e-19
-7.4500106e-20
1.3739456e-19
-1.2484872e-19
2.8883409e-48
1.0114661e-19
0
0
-5.185101e-20
5.7690481e-32
2.4446085e-31
-2.1388342e-47
1.9772806e-19
7.4647455e-32
-8.173781e-20
-1.9326029e-19
-1.8558793e-19
1.2919839e-19
9.4067281e-32
4.4592484e-20
1.8157648e-31
-4.2488853e-20
1.6315133e-20
0
-1.6161301e-20
1.5193816e-32
2.5680962e-20
7.3806577e-20
4.4691166e-32
-8.1077839e-20
0
0
-3.5434691e-20
1.8193594e-32
8.105857e-20
2.2242394e-32
-2.1964575e-20
0
-4.4766163e-22
3.8831613e-21
4.096155e-21
7.8277521e-21
1.3073966e-20
-3.2491563e-20
-6.8831339e-20
2.8663038e-20
5.0580649e-20
-5.2209493e-20
2.7249339e-48
4.3512947e-20
0
0
0
0
-2.2154127e-20
-1.5954755e-20
3.2666091e-21
-9.6518282e-21
-1.0880885e-32
1.2760964e-20
-2.1438034e-20
-1.997432e-20
1.1377544e-20
5.3369474e-20
3.3306983e-20
-4.841643e-20
-2.8942812e-20
4.5939944e-20
3.4864106e-32
-3.4312891e-20
0
0
0
2.561446e-20
1.7985656e-32
-4.3854636e-32
1.5605174e-20
-3.6508619e-20
1.3667763e-20
1.5657925e-20
-4.7102696e-20
-3.0097792e-20
1.7799564e-20
4.3273097e-20
4.6542956e-20
-6.4118665e-32
1.9486864e-32
-5.2840181e-36
-3.495659e-20
0
-2.0401234e-20
-2.1085159e-20
1.596837e-20
1.1630107e-20
-1.2076869e-20
-1.3883005e-20
2.9131645e-20
1.2226284e-20
-6.9387034e-21
4.4692178e-21
-5.73252e-21
-1.4383981e-20
0
0
1.6581705e-20
3.3254083e-21
-2.2795238e-21
1.6455248e-22
9.9204423e-23
2.117546e-21
-3.0746229e-33
-9.2695235e-21
0
5.0492192e-21
8.028633e-21
6.9767439e-33
-3.7138743e-32
2.0354471e-20
-3.6470571e-20
-1.345175e-20
-4.1534855e-36
1.6049283e-20
-2.9746157e-32
-3.1075097e-32
5.3873551e-20
-5.5020923e-20
9.9050773e-32
-3.0491928e-32
-3.2944804e-20
1.7205117e-20
-1.8766062e-20
3.9473135e-20
1.9222987e-20
-3.4835551e-20
2.9198721e-20
-7.8045242e-36
-1.0939976e-31
-7.2931486e-36
-6.9300917e-32
1.7209026e-20
-2.3002122e-20
-4.2398502e-32
1.2538716e-20
-4.6537343e-21
-3.0646202e-21
1.6094238e-21
2.5804521e-33
9.3837071e-21
-5.1628205e-33
-1.4353727e-20
2.6746219e-36
1.03666e-20
-1.2523072e-20
-2.4126682e-32
2.5339682e-32
-8.4332715e-33
1.4473854e-20
-1.2442359e-20
-9.6260795e-21
0
9.8629528e-21
6.1926488e-21
-6.5226665e-21
7.840368e-34
-2.9842727e-33
-2.4982651e-21
-6.2936119e-21
-1.7300893e-33
2.5488805e-33
1.7723171e-21
-2.5959315e-21
4.5989588e-33
-5.6993739e-21
-2.4764807e-32
1.8702569e-20
0
3.1054747e-20
4.2145497e-20
-5.1168605e-20
-2.8399907e-20
-2.8322218e-20
-4.9987553e-20
0
-9.486294e-21
5.5441231e-21
1.642493e-20
-2.9151953e-20
1.4794837e-31
-6.4156609e-32
1.3236057e-31
-4.9671089e-20
-5.2474174e-20
-2.0810998e-20
-6.1664452e-20
2.4905969e-19
1.9019857e-19
0
0
-2.738766e-19