/*--------------------------------*- C++ -*----------------------------------*\
  =========                 |
  \\      /  F ield         | OpenFOAM: The Open Source CFD Toolbox
   \\    /   O peration     | Website:  https://openfoam.org
    \\  /    A nd           | Version:  7
     \\/     M anipulation  |
\*---------------------------------------------------------------------------*/
FoamFile
{
    version     2.0;
    format      ascii;
    class       volScalarField;
    location    "0.00127";
    object      Ux;
}
// * * * * * * * * * * * * * * * * * * * * * * * * * * * * * * * * * * * * * //

dimensions      [0 1 -1 0 0 0 0];

internalField   nonuniform List<scalar> 
5000
(
-53.767509
-53.72221
-53.698008
-53.669017
-53.641233
-53.613054
-53.584929
-53.556588
-53.528246
-53.499708
-53.471173
-53.442487
-53.413805
-53.38502
-53.356238
-53.327392
-53.298547
-53.269664
-53.240781
-53.211878
-53.182968
-53.154054
-53.125127
-53.096201
-53.067264
-53.038327
-53.00938
-52.980433
-52.951476
-52.922518
-52.89355
-52.86458
-52.835599
-52.806616
-52.77762
-52.748622
-52.719611
-52.690596
-52.661566
-52.632533
-52.603484
-52.574432
-52.545362
-52.51629
-52.487198
-52.458105
-52.428988
-52.399872
-52.370728
-52.341584
-52.312407
-52.283226
-52.254009
-52.224783
-52.195515
-52.166233
-52.136904
-52.107558
-52.078159
-52.04874
-52.019265
-51.989767
-51.960211
-51.930633
-51.900994
-51.871331
-51.841608
-51.811861
-51.782051
-51.752217
-51.722319
-51.692396
-51.662406
-51.63239
-51.602304
-51.572189
-51.542002
-51.511784
-51.48149
-51.451162
-51.420756
-51.390311
-51.359784
-51.329215
-51.298559
-51.267859
-51.237066
-51.206226
-51.175288
-51.1443
-51.113207
-51.082064
-51.050806
-51.019497
-50.988067
-50.956582
-50.924971
-50.8933
-50.861499
-50.829634
-50.797634
-50.765564
-50.733355
-50.701072
-50.668646
-50.636141
-50.603488
-50.570751
-50.537859
-50.504879
-50.471738
-50.438502
-50.405098
-50.371593
-50.337913
-50.304123
-50.270149
-50.236058
-50.201774
-50.167364
-50.132753
-50.098008
-50.063051
-50.027952
-49.992634
-49.957166
-49.921468
-49.885616
-49.849525
-49.813274
-49.776775
-49.740113
-49.703193
-49.666104
-49.628753
-49.591225
-49.553428
-49.515449
-49.477196
-49.438752
-49.400029
-49.36111
-49.321904
-49.282495
-49.242793
-49.202881
-49.162671
-49.122242
-49.081509
-49.04055
-48.999279
-48.957777
-48.915955
-48.873896
-48.831508
-48.788877
-48.745913
-48.702696
-48.65914
-48.615323
-48.571158
-48.526726
-48.48197
-48.436907
-48.39151
-48.345806
-48.299761
-48.253402
-48.206701
-48.159675
-48.112305
-48.0646
-48.016547
-47.96815
-47.9194
-47.870299
-47.820839
-47.771021
-47.720839
-47.670292
-47.619375
-47.568087
-47.516424
-47.464384
-47.411964
-47.359161
-47.305972
-47.252397
-47.198432
-47.144075
-47.089323
-47.034154
-46.978578
-46.922609
-46.866237
-46.809463
-46.752287
-46.694706
-46.63672
-46.578327
-46.519527
-46.460319
-46.400703
-46.340677
-46.280238
-46.219387
-46.158124
-46.096448
-46.034358
-45.971854
-45.908936
-45.845603
-45.781856
-45.717694
-45.65312
-45.588129
-45.522722
-45.4569
-45.390662
-45.324009
-45.256941
-45.189458
-45.12156
-45.053248
-44.984525
-44.915389
-44.845838
-44.775875
-44.705499
-44.634712
-44.563514
-44.491906
-44.419888
-44.347461
-44.274628
-44.201389
-44.127744
-44.053693
-43.979238
-43.90438
-43.82912
-43.753459
-43.677399
-43.600941
-43.524087
-43.446836
-43.369193
-43.29116
-43.212737
-43.133925
-43.054726
-42.975142
-42.895175
-42.814828
-42.734102
-42.653
-42.571523
-42.489674
-42.407458
-42.324876
-42.24193
-42.15862
-42.074951
-41.990927
-41.906548
-41.821817
-41.736735
-41.651311
-41.565544
-41.479436
-41.392991
-41.306211
-41.219097
-41.131655
-41.043889
-40.955801
-40.867392
-40.778667
-40.689628
-40.600277
-40.510617
-40.420654
-40.33039
-40.239828
-40.148971
-40.057821
-39.966381
-39.874652
-39.782642
-39.690354
-39.597789
-39.50495
-39.411842
-39.318464
-39.22482
-39.130916
-39.036756
-38.942341
-38.847675
-38.75276
-38.657598
-38.562192
-38.466549
-38.37067
-38.274558
-38.178217
-38.081649
-37.984856
-37.887841
-37.79061
-37.693166
-37.59551
-37.497648
-37.39958
-37.30131
-37.20284
-37.104175
-37.00532
-36.906277
-36.807048
-36.707638
-36.60805
-36.508285
-36.408347
-36.308242
-36.207973
-36.107542
-36.006954
-35.906213
-35.80532
-35.704279
-35.603093
-35.501768
-35.400308
-35.298717
-35.196996
-35.095149
-34.99318
-34.891092
-34.788892
-34.686582
-34.584165
-34.481642
-34.379019
-34.276305
-34.173501
-34.070609
-33.967632
-33.864573
-33.761437
-33.65823
-33.554954
-33.451611
-33.348205
-33.244741
-33.141223
-33.037657
-32.934042
-32.830382
-32.726683
-32.622948
-32.519184
-32.41539
-32.311568
-32.207724
-32.103864
-31.999993
-31.89611
-31.792219
-31.688325
-31.584431
-31.480544
-31.376666
-31.272798
-31.168945
-31.065111
-30.961301
-30.85752
-30.753768
-30.65005
-30.546369
-30.442731
-30.339141
-30.235601
-30.132114
-30.028683
-29.925313
-29.82201
-29.718778
-29.615619
-29.512537
-29.409535
-29.30662
-29.203796
-29.101067
-28.998435
-28.895904
-28.793479
-28.691167
-28.58897
-28.486893
-28.384939
-28.283111
-28.181415
-28.079857
-27.978442
-27.877171
-27.776048
-27.675079
-27.574268
-27.473622
-27.373143
-27.272837
-27.172704
-27.072752
-26.972985
-26.873409
-26.774028
-26.674844
-26.575863
-26.477089
-26.378527
-26.280183
-26.182059
-26.08416
-25.986493
-25.88906
-25.791866
-25.694916
-25.598214
-25.501765
-25.405573
-25.309643
-25.213979
-25.118586
-25.023469
-24.928632
-24.834079
-24.739816
-24.645847
-24.552175
-24.458806
-24.365745
-24.272995
-24.180562
-24.088449
-23.996661
-23.905204
-23.81408
-23.723295
-23.632853
-23.542758
-23.453015
-23.363629
-23.274603
-23.185942
-23.09765
-23.009731
-22.92219
-22.835031
-22.748257
-22.661874
-22.575885
-22.490294
-22.405106
-22.320323
-22.235951
-22.151993
-22.068454
-21.985335
-21.902643
-21.820379
-21.738549
-21.657154
-21.5762
-21.495689
-21.415625
-21.336011
-21.256851
-21.178147
-21.099904
-21.022123
-20.944809
-20.867963
-20.791589
-20.715689
-20.640268
-20.565326
-20.490866
-20.416892
-20.343405
-20.270408
-20.197902
-20.125891
-20.054376
-19.983359
-19.912841
-19.842825
-19.773313
-19.704305
-19.635804
-19.567811
-19.500326
-19.433351
-19.366887
-19.300935
-19.235495
-19.170569
-19.106156
-19.042257
-18.978872
-18.916002
-18.853648
-18.791807
-18.730481
-18.669669
-18.60937
-18.549584
-18.49031
-18.431547
-18.373295
-18.315552
-18.258316
-18.201586
-18.145361
-18.089639
-18.034418
-17.979697
-17.925472
-17.871744
-17.818518
-17.765788
-17.713544
-17.661785
-17.610508
-17.55971
-17.509388
-17.459538
-17.410159
-17.361245
-17.312794
-17.264802
-17.217264
-17.170177
-17.123537
-17.077339
-17.031581
-16.986256
-16.941361
-16.896892
-16.852843
-16.80921
-16.765988
-16.723173
-16.680758
-16.63874
-16.597113
-16.555872
-16.515012
-16.474528
-16.434413
-16.394664
-16.355275
-16.31624
-16.277553
-16.239209
-16.201202
-16.163528
-16.126179
-16.089152
-16.05244
-16.016037
-15.979938
-15.944137
-15.908628
-15.873407
-15.838466
-15.803802
-15.769408
-15.735278
-15.701407
-15.667789
-15.63442
-15.601292
-15.568403
-15.535745
-15.503314
-15.471104
-15.43911
-15.407327
-15.37575
-15.344373
-15.313191
-15.2822
-15.251395
-15.22077
-15.190321
-15.160044
-15.129934
-15.099986
-15.070195
-15.040557
-15.011069
-14.981725
-14.952522
-14.923455
-14.894521
-14.865714
-14.837032
-14.808471
-14.780026
-14.751695
-14.723473
-14.695358
-14.667345
-14.639431
-14.611613
-14.583888
-14.556253
-14.528704
-14.501238
-14.473854
-14.446547
-14.419315
-14.392156
-14.365067
-14.338045
-14.311087
-14.284192
-14.257357
-14.230579
-14.203857
-14.177188
-14.150571
-14.124003
-14.097482
-14.071006
-14.044575
-14.018184
-13.991834
-13.965523
-13.939247
-13.913008
-13.886801
-13.860628
-13.834485
-13.808372
-13.782287
-13.756229
-13.730197
-13.70419
-13.678206
-13.652244
-13.626304
-13.600385
-13.574486
-13.548605
-13.522742
-13.496896
-13.471066
-13.445252
-13.419453
-13.393668
-13.367897
-13.342138
-13.316392
-13.290658
-13.264935
-13.239223
-13.213522
-13.18783
-13.162148
-13.136475
-13.110811
-13.085155
-13.059508
-13.033868
-13.008235
-12.98261
-12.956992
-12.931381
-12.905776
-12.880178
-12.854587
-12.829001
-12.803422
-12.777848
-12.75228
-12.726718
-12.701161
-12.675609
-12.650063
-12.624522
-12.598987
-12.573456
-12.547931
-12.52241
-12.496894
-12.471384
-12.445877
-12.420376
-12.39488
-12.369389
-12.343903
-12.318421
-12.292944
-12.267471
-12.242003
-12.216541
-12.191083
-12.16563
-12.140181
-12.114737
-12.089298
-12.063863
-12.038434
-12.013009
-11.987589
-11.962174
-11.936764
-11.911358
-11.885957
-11.86056
-11.835169
-11.809783
-11.784402
-11.759025
-11.733653
-11.708286
-11.682924
-11.657567
-11.632214
-11.606867
-11.581525
-11.556187
-11.530854
-11.505526
-11.480203
-11.454886
-11.429573
-11.404265
-11.378962
-11.353663
-11.32837
-11.303082
-11.277798
-11.25252
-11.227247
-11.201978
-11.176715
-11.151456
-11.126202
-11.100953
-11.075709
-11.05047
-11.025236
-11.000006
-10.974782
-10.949562
-10.924347
-10.899137
-10.873931
-10.84873
-10.823534
-10.798343
-10.773156
-10.747974
-10.722796
-10.697622
-10.672454
-10.647289
-10.62213
-10.596974
-10.571822
-10.546675
-10.521532
-10.496393
-10.471258
-10.446127
-10.421
-10.395877
-10.370759
-10.345643
-10.320532
-10.295424
-10.270319
-10.245219
-10.220122
-10.195029
-10.169939
-10.144852
-10.119769
-10.094689
-10.069613
-10.044539
-10.019469
-9.9944007
-9.9693359
-9.9442742
-9.9192157
-9.89416
-9.8691071
-9.8440569
-9.8190096
-9.7939648
-9.7689226
-9.7438829
-9.718846
-9.6938119
-9.6687805
-9.6437515
-9.6187247
-9.5937002
-9.5686782
-9.5436588
-9.5186421
-9.4936278
-9.4686157
-9.4436059
-9.4185985
-9.3935934
-9.3685907
-9.3435904
-9.3185927
-9.2935975
-9.2686046
-9.2436139
-9.2186255
-9.1936395
-9.1686562
-9.1436755
-9.1186974
-9.0937218
-9.0687488
-9.0437781
-9.0188099
-8.9938444
-8.9688817
-8.9439217
-8.9189646
-8.8940102
-8.8690585
-8.8441096
-8.8191634
-8.7942201
-8.7692799
-8.7443429
-8.7194089
-8.6944779
-8.6695499
-8.6446249
-8.619703
-8.5947844
-8.5698692
-8.5449575
-8.5200491
-8.495144
-8.4702421
-8.4453436
-8.4204486
-8.3955572
-8.3706695
-8.3457854
-8.3209051
-8.2960282
-8.271155
-8.2462855
-8.2214198
-8.1965581
-8.1717002
-8.1468464
-8.1219964
-8.0971502
-8.072308
-8.0474696
-8.0226353
-7.9978053
-7.9729796
-7.9481578
-7.9233392
-7.8985248
-7.873716
-7.848912
-7.8241084
-7.7993015
-7.7745036
-7.749728
-7.7249705
-7.7001776
-7.6752646
-7.6503986
-7.6255965
-7.6008526
-7.5761309
-7.5513971
-7.5266625
-7.5019384
-7.4772223
-7.4524972
-7.4277573
-7.4030527
-7.3783934
-7.3537411
-7.3289326
-7.30416
-7.2794841
-7.2548664
-7.2302375
-7.2055547
-7.1808975
-7.1562372
-7.1315758
-7.106924
-7.0822668
-7.057603
-7.0329656
-7.0083547
-6.9837552
-6.9591419
-6.934506
-6.9098722
-6.8852492
-6.8606515
-6.8360725
-6.811486
-6.7868847
-6.7623045
-6.737696
-6.713075
-6.6885344
-6.6640508
-6.6394984
-6.6148382
-6.5902928
-6.5658102
-6.5412739
-6.5166498
-6.4921338
-6.4676973
-6.4432818
-6.418729
-6.3941787
-6.3696719
-6.3452077
-6.3207574
-6.2962765
-6.2717843
-6.2472794
-6.2227994
-6.198343
-6.1738981
-6.1494448
-6.1249725
-6.1005038
-6.0760444
-6.0516054
-6.0271845
-6.0027707
-5.9783422
-5.9538762
-5.9294119
-5.9049852
-5.8805948
-5.8562237
-5.8318543
-5.8073613
-5.7828144
-5.7583976
-5.7340827
-5.7097938
-5.6854191
-5.6610037
-5.636479
-5.6120593
-5.5877295
-5.5634275
-5.5390655
-5.5146989
-5.4902682
-5.46588
-5.4415305
-5.4171958
-5.3928409
-5.3684784
-5.3440791
-5.3197028
-5.2953502
-5.2710086
-5.2466749
-5.2223523
-5.1979664
-5.173472
-5.1490832
-5.1248
-5.1005462
-5.0762071
-5.0518845
-5.0275461
-5.00321
-4.9788785
-4.9545517
-4.9301853
-4.9057827
-4.8814378
-4.8571501
-4.8328801
-4.8085547
-4.7842066
-4.7598711
-4.7355796
-4.7113125
-4.6869872
-4.6626117
-4.6382908
-4.6140172
-4.589756
-4.5654588
-4.5411645
-4.5168707
-4.4925829
-4.4682884
-4.443924
-4.4195921
-4.3953293
-4.3710994
-4.3468322
-4.3225637
-4.2982866
-4.2740141
-4.2497548
-4.2254865
-4.2010802
-4.1767429
-4.1525493
-4.1284091
-4.1041529
-4.079915
-4.0556676
-4.031424
-4.0071834
-3.9829212
-3.9586299
-3.9343838
-3.9101861
-3.8860019
-3.8617838
-3.8375704
-3.8133532
-3.789144
-3.7649392
-3.740653
-3.7163823
-3.6922206
-3.668113
-3.6439361
-3.6197556
-3.5955693
-3.5713908
-3.5472238
-3.5230613
-3.4987747
-3.4745069
-3.4504067
-3.4263795
-3.4022216
-3.3780816
-3.3539329
-3.3297893
-3.3056486
-3.2815117
-3.257379
-3.2332486
-3.2091231
-3.1850072
-3.1608974
-3.1367897
-3.1126856
-3.0885849
-3.0644868
-3.040393
-3.0163034
-2.9922166
-2.968134
-2.9440555
-2.9199795
-2.8959069
-2.8718378
-2.8477699
-2.8237053
-2.7996414
-2.7754814
-2.7513372
-2.7273532
-2.7034407
-2.679415
-2.6554027
-2.6313809
-2.6073611
-2.5833442
-2.5593291
-2.5353182
-2.5113107
-2.4873063
-2.4633071
-2.4393107
-2.4153189
-2.391331
-2.3673455
-2.343365
-2.3193867
-2.2954108
-2.2714401
-2.2474395
-2.2233647
-2.1993846
-2.1755226
-2.1516563
-2.1277302
-2.1038064
-2.0798818
-2.0559576
-2.0320377
-2.0081205
-1.9842062
-1.960297
-1.9363896
-1.9124866
-1.8885882
-1.8646922
-1.8408013
-1.8169126
-1.7930266
-1.7691453
-1.7452636
-1.7213846
-1.6974655
-1.673457
-1.6496196
-1.6259072
-1.6020838
-1.5782486
-1.5543984
-1.5305534
-1.5067075
-1.48286
-1.4590055
-1.4351195
-1.4112072
-1.3873549
-1.3635802
-1.3398561
-1.3161366
-1.2923723
-1.2686037
-1.2448283
-1.2210537
-1.1972825
-1.1735132
-1.1497471
-1.125984
-1.1022238
-1.0784693
-1.0547155
-1.0309679
-1.0072247
-0.98348442
-0.95975091
-0.93601903
-0.9122961
-0.88857678
-0.86486273
-0.84115159
-0.81744128
-0.79373025
-0.77001762
-0.74630542
-0.72259319
-0.69889269
-0.67522787
-0.6515641
-0.62789592
-0.60422127
-0.58054025
-0.55687268
-0.53322628
-0.50958015
-0.4859341
-0.46228757
-0.43864971
-0.41501963
-0.39139477
-0.3677768
-0.34416485
-0.32055922
-0.29695791
-0.27335998
-0.24977057
-0.22618636
-0.2026046
-0.1790237
-0.15544892
-0.13187404
-0.10830822
-0.084754755
-0.061202106
-0.037652807
-0.014113392
0.0094552062
0.033054112
0.056644845
0.080232954
0.10381185
0.12738647
0.15096087
0.17453439
0.19810799
0.22167141
0.24522416
0.26877445
0.29232347
0.31586973
0.33940765
0.36293693
0.38646177
0.4099827
0.43349717
0.45700783
0.48051589
0.50401763
0.52751362
0.55100404
0.57448924
0.59797385
0.62145113
0.64492339
0.66839268
0.69185594
0.71531678
0.73877284
0.76222233
0.78566998
0.80911334
0.8325507
0.85598573
0.87941587
0.90284133
0.9262656
0.94968155
0.9730956
0.99650527
1.0199113
1.0433127
1.0667093
1.0901046
1.1134931
1.1368796
1.1602596
1.1836379
1.2070116
1.2303807
1.2537475
1.2771085
1.3004684
1.3238211
1.3471734
1.3705191
1.3938619
1.4171997
1.4405345
1.4638662
1.487192
1.5105168
1.5338345
1.5571518
1.5804618
1.6037705
1.627073
1.6503736
1.6736694
1.6969615
1.7202502
1.7435348
1.7668157
1.7900922
1.8133652
1.8366333
1.8598997
1.8831599
1.9064183
1.9296713
1.952922
1.9761683
1.9994102
2.0226482
2.0458823
2.0691142
2.0923395
2.1155637
2.1387819
2.1619979
2.1852093
2.2084169
2.2316221
2.2548206
2.278018
2.3012094
2.3243987
2.3475838
2.3707642
2.3939422
2.4171147
2.4402851
2.4634508
2.4866123
2.5097716
2.5329249
2.5560762
2.5792233
2.6023655
2.6255061
2.6486407
2.6717728
2.6949014
2.7180243
2.7411457
2.7642625
2.7873737
2.8104845
2.8335895
2.8566904
2.8797898
2.9028827
2.9259729
2.9490601
2.9721415
2.9952213
3.0182976
3.0413677
3.0644359
3.0875004
3.1105591
3.1336162
3.1566699
3.1797184
3.202764
3.2258054
3.2488416
3.2718767
3.2949086
3.3179334
3.3409556
3.3639766
3.3869912
3.4100019
3.4330113
3.4560153
3.4790143
3.5020123
3.5250062
3.5479938
3.5709799
3.5939636
3.6169406
3.6399141
3.6628867
3.6858542
3.7088158
3.7317764
3.7547342
3.7776856
3.8006333
3.8235803
3.8465224
3.8694584
3.8923923
3.9153252
3.9382523
3.9611736
3.9840934
4.0070119
4.0299238
4.0528309
4.0757369
4.0986407
4.1215381
4.1444309
4.1673225
4.190212
4.2130955
4.235974
4.2588506
4.2817264
4.3045966
4.3274605
4.3503227
4.3731837
4.3960407
4.4188918
4.4417387
4.4645848
4.4874287
4.5102671
4.5331002
4.5559309
4.5787601
4.6015863
4.6244073
4.6472231
4.6700374
4.6928497
4.7156581
4.7384623
4.7612615
4.7840588
4.806854
4.8296458
4.8524331
4.8752162
4.8979966
4.9207744
4.9435501
4.9663211
4.9890877
5.0118516
5.0346128
5.0573716
5.0801267
5.1028778
5.1256252
5.1483697
5.1711121
5.1938509
5.2165867
5.2393184
5.2620466
5.2847725
5.3074953
5.3302154
5.3529317
5.3756446
5.3983543
5.421061
5.4437654
5.4664662
5.489164
5.5118584
5.5345494
5.5572378
5.5799231
5.602606
5.6252851
5.6479613
5.6706344
5.6933042
5.7159716
5.7386358
5.7612973
5.7839553
5.8066103
5.8292626
5.8519116
5.8745584
5.8972017
5.9198423
5.9424797
5.9651142
5.9877459
6.0103746
6.0330007
6.0556238
6.0782439
6.1008611
6.1234754
6.146087
6.1686957
6.1913016
6.2139047
6.2365047
6.2591021
6.2816966
6.3042883
6.3268773
6.3494635
6.3720469
6.3946274
6.4172051
6.4397802
6.4623524
6.4849219
6.5074887
6.5300528
6.552614
6.5751726
6.5977284
6.6202816
6.6428321
6.66538
6.6879254
6.7104681
6.7330085
6.7555464
6.7780822
6.8006156
6.8231469
6.8456762
6.8682031
6.8907279
6.9132501
6.9357698
6.9582869
6.980801
7.0033125
7.0258213
7.0483275
7.0708311
7.093332
7.1158304
7.1383257
7.1608183
7.1833083
7.2057957
7.2282805
7.250763
7.2732425
7.2957189
7.3181927
7.3406643
7.3631339
7.3856006
7.4080637
7.4305238
7.452982
7.4754384
7.4978919
7.5203417
7.5427886
7.5652339
7.5876773
7.6101177
7.6325548
7.6549894
7.6774224
7.6998537
7.722282
7.7447071
7.7671296
7.7895502
7.8119689
7.8343848
7.8567974
7.8792067
7.9016137
7.9240189
7.946422
7.9688221
7.9912193
8.0136139
8.0360064
8.0583967
8.0807845
8.1031698
8.1255527
8.1479334
8.170312
8.1926882
8.2150615
8.237432
8.2598001
8.2821657
8.3045283
8.3268879
8.3492451
8.3716003
8.3939527
8.4163021
8.4386485
8.4609926
8.4833339
8.5056728
8.5280086
8.5503422
8.5726724
8.5950004
8.6173254
8.6396486
8.6619684
8.6842859
8.7066007
8.7289134
8.7512237
8.7735308
8.7958361
8.8181388
8.8404395
8.8627373
8.8850326
8.907326
8.9296169
8.9519054
8.9741911
8.9964742
9.0187556
9.0410337
9.0633096
9.0855831
9.1078543
9.1301234
9.1523896
9.1746533
9.1969148
9.2191735
9.24143
9.2636837
9.2859346
9.3081827
9.3304281
9.3526698
9.3749086
9.3971433
9.4193739
9.4416004
9.4638219
9.4860385
9.5082501
9.5304566
9.5526581
9.5748558
9.5970498
9.6192406
9.6414297
9.663617
9.6858026
9.7079866
9.7301683
9.7523465
9.7745204
9.7966905
9.8188566
9.8410192
9.8631804
9.8853406
9.9074971
9.9296486
9.951796
9.9739412
9.9960847
10.018225
10.040362
10.062495
10.084626
10.106753
10.128878
10.150998
10.173115
10.195228
10.217337
10.239442
10.261544
10.283642
10.305736
10.327826
10.349914
10.371999
10.39408
10.416159
10.438234
10.460305
10.482373
10.504437
10.526498
10.548556
10.570611
10.592663
10.61471
10.636754
10.658795
10.680834
10.702868
10.724899
10.746926
10.76895
10.79097
10.812987
10.835
10.857011
10.879018
10.901021
10.92302
10.945017
10.96701
10.988999
11.010985
11.032968
11.054947
11.076922
11.098894
11.120863
11.142828
11.164789
11.186747
11.208702
11.230654
11.252602
11.274546
11.296485
11.318422
11.340356
11.362287
11.384214
11.406137
11.428056
11.449972
11.471884
11.493794
11.5157
11.537602
11.5595
11.581395
11.603286
11.625174
11.647059
11.66894
11.690818
11.712691
11.734561
11.756429
11.778292
11.800152
11.822008
11.84386
11.86571
11.887556
11.909399
11.931237
11.953072
11.974904
11.996732
12.018557
12.040379
12.062196
12.084009
12.10582
12.127628
12.149432
12.171232
12.193028
12.21482
12.23661
12.258396
12.280179
12.301957
12.323732
12.345505
12.367274
12.389039
12.4108
12.432557
12.454312
12.476064
12.497812
12.519555
12.541295
12.563031
12.584764
12.606495
12.628222
12.649945
12.671664
12.693379
12.715091
12.7368
12.758506
12.780208
12.801907
12.823601
12.845292
12.86698
12.888665
12.910347
12.932024
12.953698
12.975367
12.997034
13.018698
13.040359
13.062015
13.083668
13.105317
13.126963
13.148606
13.170246
13.191882
13.213513
13.235142
13.256767
13.278389
13.300007
13.321622
13.343233
13.36484
13.386445
13.408046
13.429644
13.451238
13.472828
13.494415
13.515998
13.537578
13.559155
13.580728
13.602298
13.623864
13.645426
13.666986
13.688542
13.710094
13.731643
13.753188
13.77473
13.796269
13.817804
13.839336
13.860864
13.882389
13.90391
13.925427
13.946942
13.968453
13.98996
14.011464
14.032965
14.054462
14.075956
14.097446
14.118933
14.140416
14.161896
14.183373
14.204846
14.226315
14.247781
14.269244
14.290703
14.312159
14.333612
14.355061
14.376507
14.397949
14.419388
14.440823
14.462254
14.483682
14.505107
14.526529
14.547948
14.569363
14.590774
14.612182
14.633586
14.654987
14.676384
14.697779
14.719169
14.740557
14.761941
14.783322
14.804699
14.826072
14.847442
14.868809
14.890173
14.911533
14.932889
14.954243
14.975592
14.996939
15.018282
15.039621
15.060957
15.08229
15.103619
15.124945
15.146268
15.167587
15.188903
15.210215
15.231524
15.25283
15.274132
15.29543
15.316725
15.338017
15.359306
15.380591
15.401873
15.423151
15.444426
15.465697
15.486965
15.50823
15.529491
15.550749
15.572004
15.593255
15.614502
15.635747
15.656988
15.678225
15.69946
15.72069
15.741918
15.763142
15.784362
15.80558
15.826793
15.848003
15.86921
15.890414
15.911615
15.932812
15.954005
15.975195
15.996382
16.017565
16.038745
16.059921
16.081095
16.102265
16.123431
16.144594
16.165753
16.186909
16.208062
16.229212
16.250358
16.2715
16.29264
16.313776
16.334908
16.356037
16.377163
16.398285
16.419404
16.44052
16.461632
16.482741
16.503846
16.524948
16.546047
16.567142
16.588234
16.609322
16.630407
16.651489
16.672567
16.693642
16.714713
16.735781
16.756846
16.777907
16.798965
16.820019
16.84107
16.862117
16.883161
16.904202
16.925239
16.946273
16.967303
16.98833
17.009353
17.030373
17.05139
17.072403
17.093412
17.114418
17.135421
17.15642
17.177416
17.198408
17.219396
17.240381
17.261362
17.28234
17.303314
17.324285
17.345253
17.366216
17.387176
17.408133
17.429085
17.450034
17.470979
17.491921
17.512859
17.533794
17.554724
17.575651
17.596574
17.617493
17.638408
17.65932
17.680227
17.701131
17.722031
17.742927
17.763818
17.784706
17.80559
17.82647
17.847345
17.868216
17.889083
17.909946
17.930805
17.951659
17.972509
17.993355
18.014195
18.035032
18.055864
18.076691
18.097513
18.118331
18.139144
18.159952
18.180755
18.201553
18.222346
18.243133
18.263916
18.284693
18.305464
18.32623
18.34699
18.367745
18.388494
18.409237
18.429974
18.450704
18.471429
18.492147
18.512859
18.533564
18.554262
18.574953
18.595637
18.616314
18.636984
18.657647
18.678301
18.698948
18.719587
18.740218
18.76084
18.781454
18.802059
18.822656
18.843243
18.863821
18.884389
18.904948
18.925497
18.946035
18.966563
18.987081
19.007587
19.028083
19.048567
19.069039
19.0895
19.109947
19.130383
19.150805
19.171214
19.19161
19.211992
19.23236
19.252714
19.273052
19.293375
19.313683
19.333975
19.35425
19.374509
19.394751
19.414975
19.435181
19.455369
19.475538
19.495688
19.515818
19.535928
19.556018
19.576086
19.596133
19.616158
19.63616
19.656139
19.676094
19.696026
19.715932
19.735813
19.755668
19.775497
19.795299
19.815074
19.83482
19.854537
19.874225
19.893883
19.91351
19.933106
19.95267
19.972201
19.991698
20.011162
20.030591
20.049984
20.069341
20.088661
20.107943
20.127188
20.146392
20.165557
20.184682
20.203764
20.222805
20.241802
20.260755
20.279664
20.298528
20.317344
20.336114
20.354836
20.373508
20.392131
20.410704
20.429225
20.447693
20.466108
20.484469
20.502776
20.521026
20.539219
20.557354
20.575431
20.593448
20.611405
20.629301
20.647134
20.664903
20.682608
20.700248
20.717822
20.735329
20.752768
20.770138
20.787438
20.804667
20.821824
20.838909
20.855919
20.872855
20.889716
20.9065
20.923206
20.939834
20.956383
20.972851
20.989238
21.005543
21.021765
21.037903
21.053956
21.069923
21.085803
21.101596
21.1173
21.132915
21.14844
21.163873
21.179215
21.194463
21.209618
21.224679
21.239645
21.254514
21.269287
21.283961
21.298538
21.313015
21.327392
21.341669
21.355844
21.369917
21.383888
21.397754
21.411517
21.425176
21.438728
21.452175
21.465515
21.478748
21.491874
21.504891
21.517799
21.530598
21.543287
21.555866
21.568334
21.580691
21.592937
21.60507
21.617092
21.629
21.640796
21.652478
21.664047
21.675502
21.686842
21.698069
21.709181
21.720178
21.73106
21.741827
21.752479
21.763015
21.773437
21.783743
21.793933
21.804009
21.813969
21.823813
21.833542
21.843157
21.852656
21.86204
21.871309
21.880464
21.889504
21.89843
21.907242
21.915941
21.924526
21.932998
21.941357
21.949604
21.957739
21.965762
21.973674
21.981476
21.989167
21.996748
22.00422
22.011583
22.018838
22.025985
22.033024
22.039958
22.046785
22.053507
22.060125
22.066638
22.073048
22.079356
22.085561
22.091666
22.09767
22.103574
22.109379
22.115086
22.120696
22.12621
22.131628
22.136951
22.14218
22.147316
22.152359
22.157312
22.162174
22.166946
22.17163
22.176225
22.180735
22.185158
22.189496
22.193751
22.197922
22.202012
22.20602
22.209949
22.213798
22.217569
22.221263
22.224881
22.228424
22.231892
22.235288
22.238611
22.241864
22.245046
22.248159
22.251204
22.254181
22.257093
22.259939
22.262722
22.265441
22.268098
22.270694
22.27323
22.275706
22.278125
22.280486
22.282791
22.285041
22.287236
22.289378
22.291467
22.293505
22.295493
22.297431
22.29932
22.301161
22.302956
22.304704
22.306408
22.308067
22.309683
22.311256
22.312788
22.314279
22.31573
22.317142
22.318515
22.319852
22.321151
22.322415
22.323643
22.324838
22.325998
22.327126
22.328222
22.329287
22.330321
22.331325
22.332299
22.333246
22.334164
22.335055
22.33592
22.336759
22.337573
22.338362
22.339127
22.339868
22.340587
22.341284
22.341959
22.342613
22.343246
22.343859
22.344453
22.345028
22.345585
22.346123
22.346645
22.347149
22.347637
22.348108
22.348564
22.349005
22.349432
22.349844
22.350242
22.350626
22.350998
22.351357
22.351703
22.352038
22.352361
22.352672
22.352973
22.353263
22.353543
22.353813
22.354074
22.354325
22.354567
22.354801
22.355025
22.355242
22.355451
22.355652
22.355846
22.356032
22.356212
22.356385
22.356551
22.356711
22.356865
22.357013
22.357156
22.357293
22.357425
22.357552
22.357673
22.357791
22.357903
22.358011
22.358115
22.358215
22.358311
22.358403
22.358491
22.358576
22.358657
22.358736
22.35881
22.358882
22.358951
22.359018
22.359081
22.359142
22.3592
22.359256
22.35931
22.359361
22.359411
22.359458
22.359503
22.359546
22.359588
22.359628
22.359666
22.359702
22.359737
22.35977
22.359802
22.359833
22.359862
22.35989
22.359917
22.359942
22.359967
22.35999
22.360013
22.360034
22.360055
22.360074
22.360093
22.360111
22.360128
22.360144
22.36016
22.360175
22.360189
22.360203
22.360216
22.360228
22.36024
22.360252
22.360263
22.360273
22.360283
22.360293
22.360302
22.36031
22.360319
22.360327
22.360334
22.360342
22.360349
22.360355
22.360362
22.360368
22.360374
22.360379
22.360385
22.36039
22.360395
22.360399
22.360404
22.360408
22.360412
22.360416
22.36042
22.360424
22.360427
22.36043
22.360433
22.360436
22.360439
22.360442
22.360445
22.360447
22.36045
22.360452
22.360454
22.360456
22.360458
22.36046
22.360461
22.360463
22.360465
22.360466
22.360467
22.360469
22.36047
22.360471
22.360472
22.360473
22.360473
22.360474
22.360475
22.360475
22.360476
22.360476
22.360477
22.360477
22.360477
22.360477
22.360478
22.360478
22.360478
22.360477
22.360477
22.360477
22.360477
22.360476
22.360476
22.360476
22.360475
22.360475
22.360475
22.360474
22.360473
22.360473
22.360472
22.360471
22.36047
22.360469
22.360469
22.360468
22.360467
22.360466
22.360465
22.360465
22.360464
22.360463
22.360463
22.360462
22.360461
22.36046
22.360459
22.360458
22.360456
22.360455
22.360454
22.360453
22.360452
22.360452
22.360452
22.360452
22.360451
22.360451
22.360451
22.36045
22.36045
22.360448
22.360447
22.360445
22.360443
22.360442
22.360441
22.36044
22.36044
22.360441
22.360442
22.360444
22.360446
22.360448
22.360449
22.360449
22.360448
22.360445
22.360442
22.360439
22.360435
22.360432
22.360431
22.360432
22.360436
22.36044
22.360445
22.360452
22.360459
22.360464
22.360466
22.360465
22.36046
22.360452
22.360442
22.360431
22.360421
22.360414
22.360413
22.360419
22.36043
22.360448
22.360469
22.360491
22.36051
22.360522
22.360523
22.360513
22.360492
22.360461
22.360423
22.360387
22.360359
22.360345
22.360351
22.360377
22.360422
22.360479
22.36054
22.3606
22.360659
22.360722
22.360816
22.361015
22.361587
22.363711
22.364629
22.361795
22.359513
22.360284
22.360623
22.36056
22.360532
22.360549
22.360544
22.360524
22.360506
22.360489
22.360475
22.360468
22.36047
22.360481
22.360501
22.360525
22.360551
22.360576
22.360598
22.360616
22.360629
22.360637
22.360642
22.360645
22.360648
22.360651
22.360657
22.360667
22.36068
22.360692
22.360703
22.360725
22.360762
22.360787
22.360811
22.360837
22.360864
22.36089
22.360917
22.360946
22.360975
22.361007
22.361041
22.361078
22.361117
22.361159
22.361204
22.361252
22.361303
22.361357
22.361413
22.361473
22.361535
22.3616
22.361669
22.361741
22.361816
22.361896
22.36198
22.362068
22.362161
22.362258
22.362361
22.362469
22.362582
22.3627
22.362824
22.362954
22.363091
22.363233
22.363382
22.363538
22.3637
22.363871
22.364049
22.364234
22.364429
22.364631
22.364843
22.365063
22.365294
22.365534
22.365784
22.366045
22.366317
22.3666
22.366894
22.367201
22.36752
22.367852
22.368197
22.368556
22.368929
22.369317
22.36972
22.370139
22.370574
22.371025
22.371493
22.371979
22.372483
22.373006
22.373549
22.374111
22.374693
22.375297
22.375922
22.37657
22.377241
22.377935
22.378653
22.379397
22.380166
22.380962
22.381785
22.382635
22.383515
22.384423
22.385362
22.386332
22.387333
22.388367
22.389435
22.390536
22.391673
22.392846
22.394055
22.395303
22.396589
22.397915
22.399281
22.400689
22.402139
22.403633
22.405171
22.406754
22.408385
22.410062
22.411788
22.413563
22.415388
22.417266
22.419197
22.421181
22.423221
22.425316
22.427469
22.42968
22.43195
22.434281
22.436673
22.439129
22.441648
22.444233
22.446884
22.449603
22.45239
22.455248
22.458176
22.461177
22.464251
22.4674
22.470625
22.473927
22.477308
22.480768
22.484308
22.487931
22.491637
22.495427
22.499303
22.503265
22.507316
22.511455
22.515685
22.520006
22.52442
22.528927
22.53353
22.538228
22.543024
22.547918
22.552912
22.558006
22.563202
22.5685
22.573902
22.579408
22.585021
22.590741
22.596568
22.602504
22.60855
22.614706
22.620974