/*--------------------------------*- C++ -*----------------------------------*\
  =========                 |
  \\      /  F ield         | OpenFOAM: The Open Source CFD Toolbox
   \\    /   O peration     | Website:  https://openfoam.org
    \\  /    A nd           | Version:  7
     \\/     M anipulation  |
\*---------------------------------------------------------------------------*/
FoamFile
{
    version     2.0;
    format      ascii;
    class       volScalarField;
    location    "0.00233";
    object      p;
}
// * * * * * * * * * * * * * * * * * * * * * * * * * * * * * * * * * * * * * //

dimensions      [1 -1 -2 0 0 0 0];

internalField   nonuniform List<scalar> 
5000
(
99788.936
99788.938
99788.938
99788.938
99788.939
99788.939
99788.94
99788.94
99788.941
99788.941
99788.942
99788.942
99788.942
99788.943
99788.943
99788.944
99788.944
99788.945
99788.945
99788.946
99788.946
99788.946
99788.947
99788.947
99788.948
99788.948
99788.949
99788.949
99788.95
99788.95
99788.95
99788.951
99788.951
99788.952
99788.952
99788.953
99788.953
99788.954
99788.954
99788.954
99788.955
99788.955
99788.956
99788.956
99788.957
99788.957
99788.957
99788.958
99788.958
99788.959
99788.959
99788.96
99788.96
99788.961
99788.961
99788.961
99788.962
99788.962
99788.963
99788.963
99788.964
99788.964
99788.964
99788.965
99788.965
99788.966
99788.966
99788.967
99788.967
99788.967
99788.968
99788.968
99788.969
99788.969
99788.97
99788.97
99788.97
99788.971
99788.971
99788.972
99788.972
99788.973
99788.973
99788.973
99788.974
99788.974
99788.975
99788.975
99788.976
99788.976
99788.976
99788.977
99788.977
99788.978
99788.978
99788.979
99788.979
99788.979
99788.98
99788.98
99788.981
99788.981
99788.982
99788.982
99788.983
99788.983
99788.983
99788.984
99788.984
99788.985
99788.985
99788.986
99788.986
99788.986
99788.987
99788.987
99788.988
99788.988
99788.989
99788.989
99788.989
99788.99
99788.99
99788.991
99788.991
99788.992
99788.992
99788.992
99788.993
99788.993
99788.994
99788.994
99788.995
99788.995
99788.996
99788.996
99788.996
99788.997
99788.997
99788.998
99788.998
99788.999
99788.999
99788.999
99789
99789
99789.001
99789.001
99789.002
99789.002
99789.003
99789.003
99789.003
99789.004
99789.004
99789.005
99789.005
99789.006
99789.006
99789.007
99789.007
99789.008
99789.008
99789.008
99789.009
99789.009
99789.01
99789.01
99789.011
99789.011
99789.012
99789.012
99789.013
99789.013
99789.013
99789.014
99789.014
99789.015
99789.015
99789.016
99789.016
99789.017
99789.017
99789.018
99789.018
99789.019
99789.019
99789.019
99789.02
99789.02
99789.021
99789.021
99789.022
99789.022
99789.023
99789.023
99789.024
99789.024
99789.025
99789.025
99789.026
99789.026
99789.027
99789.027
99789.027
99789.028
99789.028
99789.029
99789.029
99789.03
99789.03
99789.031
99789.031
99789.032
99789.032
99789.033
99789.033
99789.034
99789.034
99789.035
99789.035
99789.036
99789.036
99789.037
99789.037
99789.038
99789.038
99789.039
99789.039
99789.039
99789.04
99789.04
99789.041
99789.041
99789.042
99789.042
99789.043
99789.043
99789.044
99789.044
99789.045
99789.045
99789.046
99789.046
99789.047
99789.047
99789.048
99789.048
99789.049
99789.049
99789.05
99789.05
99789.051
99789.051
99789.052
99789.052
99789.053
99789.053
99789.054
99789.054
99789.055
99789.055
99789.056
99789.057
99789.057
99789.058
99789.058
99789.059
99789.059
99789.06
99789.06
99789.061
99789.061
99789.062
99789.062
99789.063
99789.063
99789.064
99789.064
99789.065
99789.065
99789.066
99789.066
99789.067
99789.067
99789.068
99789.068
99789.069
99789.07
99789.07
99789.071
99789.071
99789.072
99789.072
99789.073
99789.073
99789.074
99789.074
99789.075
99789.075
99789.076
99789.076
99789.077
99789.078
99789.078
99789.079
99789.079
99789.08
99789.08
99789.081
99789.081
99789.082
99789.082
99789.083
99789.084
99789.084
99789.085
99789.085
99789.086
99789.086
99789.087
99789.087
99789.088
99789.089
99789.089
99789.09
99789.09
99789.091
99789.091
99789.092
99789.092
99789.093
99789.094
99789.094
99789.095
99789.095
99789.096
99789.096
99789.097
99789.098
99789.098
99789.099
99789.099
99789.1
99789.1
99789.101
99789.102
99789.102
99789.103
99789.103
99789.104
99789.104
99789.105
99789.106
99789.106
99789.107
99789.107
99789.108
99789.109
99789.109
99789.11
99789.11
99789.111
99789.112
99789.112
99789.113
99789.113
99789.114
99789.115
99789.115
99789.116
99789.116
99789.117
99789.118
99789.118
99789.119
99789.119
99789.12
99789.121
99789.121
99789.122
99789.122
99789.123
99789.124
99789.124
99789.125
99789.126
99789.126
99789.127
99789.127
99789.128
99789.129
99789.129
99789.13
99789.131
99789.131
99789.132
99789.132
99789.133
99789.134
99789.134
99789.135
99789.136
99789.136
99789.137
99789.138
99789.138
99789.139
99789.139
99789.14
99789.141
99789.141
99789.142
99789.143
99789.143
99789.144
99789.145
99789.145
99789.146
99789.147
99789.147
99789.148
99789.149
99789.149
99789.15
99789.151
99789.151
99789.152
99789.153
99789.153
99789.154
99789.155
99789.156
99789.156
99789.157
99789.158
99789.158
99789.159
99789.16
99789.16
99789.161
99789.162
99789.163
99789.163
99789.164
99789.165
99789.166
99789.166
99789.167
99789.168
99789.168
99789.169
99789.17
99789.171
99789.171
99789.172
99789.173
99789.174
99789.174
99789.175
99789.176
99789.177
99789.177
99789.178
99789.179
99789.18
99789.181
99789.181
99789.182
99789.183
99789.184
99789.184
99789.185
99789.186
99789.187
99789.188
99789.188
99789.189
99789.19
99789.191
99789.192
99789.193
99789.193
99789.194
99789.195
99789.196
99789.197
99789.197
99789.198
99789.199
99789.2
99789.201
99789.202
99789.203
99789.203
99789.204
99789.205
99789.206
99789.207
99789.208
99789.209
99789.21
99789.21
99789.211
99789.212
99789.213
99789.214
99789.215
99789.216
99789.217
99789.218
99789.219
99789.22
99789.221
99789.221
99789.222
99789.223
99789.224
99789.225
99789.226
99789.227
99789.228
99789.229
99789.23
99789.231
99789.232
99789.233
99789.234
99789.235
99789.236
99789.237
99789.238
99789.239
99789.24
99789.241
99789.242
99789.243
99789.244
99789.246
99789.247
99789.248
99789.249
99789.25
99789.251
99789.252
99789.253
99789.254
99789.255
99789.257
99789.258
99789.259
99789.26
99789.261
99789.262
99789.264
99789.265
99789.266
99789.267
99789.268
99789.27
99789.271
99789.272
99789.273
99789.274
99789.276
99789.277
99789.278
99789.28
99789.281
99789.282
99789.283
99789.285
99789.286
99789.287
99789.289
99789.29
99789.291
99789.293
99789.294
99789.296
99789.297
99789.298
99789.3
99789.301
99789.303
99789.304
99789.306
99789.307
99789.309
99789.31
99789.312
99789.313
99789.315
99789.316
99789.318
99789.319
99789.321
99789.322
99789.324
99789.326
99789.327
99789.329
99789.33
99789.332
99789.334
99789.335
99789.337
99789.339
99789.341
99789.342
99789.344
99789.346
99789.348
99789.349
99789.351
99789.353
99789.355
99789.357
99789.359
99789.36
99789.362
99789.364
99789.366
99789.368
99789.37
99789.372
99789.374
99789.376
99789.378
99789.38
99789.382
99789.384
99789.386
99789.388
99789.39
99789.393
99789.395
99789.397
99789.399
99789.401
99789.404
99789.406
99789.408
99789.41
99789.413
99789.415
99789.417
99789.42
99789.422
99789.424
99789.427
99789.429
99789.432
99789.434
99789.437
99789.439
99789.442
99789.444
99789.447
99789.449
99789.452
99789.455
99789.457
99789.46
99789.463
99789.465
99789.468
99789.471
99789.474
99789.476
99789.479
99789.482
99789.485
99789.488
99789.491
99789.494
99789.497
99789.5
99789.503
99789.506
99789.509
99789.512
99789.515
99789.518
99789.521
99789.525
99789.528
99789.531
99789.534
99789.538
99789.541
99789.544
99789.548
99789.551
99789.554
99789.558
99789.561
99789.565
99789.568
99789.572
99789.575
99789.579
99789.583
99789.586
99789.59
99789.594
99789.597
99789.601
99789.605
99789.609
99789.613
99789.617
99789.62
99789.624
99789.628
99789.632
99789.636
99789.64
99789.645
99789.649
99789.653
99789.657
99789.661
99789.665
99789.67
99789.674
99789.678
99789.683
99789.687
99789.691
99789.696
99789.7
99789.705
99789.709
99789.714
99789.719
99789.723
99789.728
99789.733
99789.737
99789.742
99789.747
99789.752
99789.757
99789.761
99789.766
99789.771
99789.776
99789.781
99789.787
99789.792
99789.797
99789.802
99789.807
99789.812
99789.818
99789.823
99789.828
99789.834
99789.839
99789.845
99789.85
99789.856
99789.861
99789.867
99789.873
99789.878
99789.884
99789.89
99789.896
99789.902
99789.907
99789.913
99789.919
99789.925
99789.931
99789.938
99789.944
99789.95
99789.956
99789.962
99789.969
99789.975
99789.981
99789.988
99789.994
99790.001
99790.008
99790.014
99790.021
99790.028
99790.034
99790.041
99790.048
99790.055
99790.062
99790.069
99790.076
99790.083
99790.09
99790.097
99790.104
99790.112
99790.119
99790.126
99790.134
99790.141
99790.149
99790.157
99790.164
99790.172
99790.18
99790.187
99790.195
99790.203
99790.211
99790.219
99790.227
99790.236
99790.244
99790.252
99790.26
99790.269
99790.277
99790.286
99790.294
99790.303
99790.312
99790.321
99790.329
99790.338
99790.347
99790.356
99790.366
99790.375
99790.384
99790.394
99790.403
99790.413
99790.422
99790.432
99790.442
99790.451
99790.461
99790.471
99790.482
99790.492
99790.502
99790.513
99790.523
99790.534
99790.544
99790.555
99790.566
99790.577
99790.588
99790.6
99790.611
99790.622
99790.634
99790.646
99790.658
99790.67
99790.682
99790.694
99790.707
99790.719
99790.732
99790.745
99790.758
99790.771
99790.784
99790.798
99790.812
99790.826
99790.84
99790.854
99790.869
99790.884
99790.899
99790.914
99790.929
99790.945
99790.961
99790.977
99790.994
99791.01
99791.027
99791.045
99791.062
99791.08
99791.099
99791.117
99791.136
99791.155
99791.175
99791.195
99791.216
99791.237
99791.258
99791.28
99791.302
99791.325
99791.348
99791.372
99791.396
99791.421
99791.447
99791.473
99791.499
99791.527
99791.555
99791.583
99791.613
99791.643
99791.674
99791.705
99791.738
99791.771
99791.805
99791.841
99791.877
99791.914
99791.952
99791.991
99792.031
99792.072
99792.115
99792.159
99792.204
99792.25
99792.297
99792.346
99792.397
99792.449
99792.502
99792.557
99792.614
99792.672
99792.732
99792.794
99792.858
99792.924
99792.992
99793.061
99793.133
99793.208
99793.284
99793.363
99793.444
99793.528
99793.614
99793.704
99793.795
99793.89
99793.988
99794.089
99794.193
99794.3
99794.41
99794.524
99794.642
99794.763
99794.888
99795.017
99795.15
99795.288
99795.429
99795.575
99795.725
99795.88
99796.04
99796.205
99796.375
99796.551
99796.731
99796.917
99797.11
99797.307
99797.511
99797.722
99797.938
99798.162
99798.392
99798.629
99798.873
99799.125
99799.384
99799.651
99799.926
99800.209
99800.501
99800.801
99801.11
99801.428
99801.756
99802.093
99802.44
99802.798
99803.165
99803.543
99803.933
99804.333
99804.745
99805.168
99805.604
99806.051
99806.512
99806.985
99807.472
99807.972
99808.486
99809.015
99809.557
99810.115
99810.688
99811.276
99811.881
99812.501
99813.139
99813.793
99814.465
99815.154
99815.862
99816.588
99817.334
99818.098
99818.882
99819.687
99820.512
99821.358
99822.226
99823.116
99824.028
99824.962
99825.92
99826.902
99827.908
99828.939
99829.994
99831.076
99832.183
99833.317
99834.478
99835.667
99836.884
99838.129
99839.404
99840.708
99842.042
99843.407
99844.804
99846.232
99847.692
99849.185
99850.712
99852.273
99853.868
99855.498
99857.164
99858.866
99860.605
99862.382
99864.196
99866.049
99867.941
99869.873
99871.845
99873.858
99875.913
99878.009
99880.149
99882.332
99884.558
99886.83
99889.146
99891.508
99893.917
99896.372
99898.875
99901.427
99904.027
99906.677
99909.376
99912.127
99914.929
99917.782
99920.689
99923.648
99926.661
99929.729
99932.852
99936.03
99939.264
99942.556
99945.904
99949.311
99952.777
99956.301
99959.886
99963.531
99967.237
99971.005
99974.835
99978.728
99982.684
99986.704
99990.789
99994.939
99999.154
100003.44
100007.78
100012.2
100016.68
100021.24
100025.86
100030.55
100035.31
100040.14
100045.04
100050.02
100055.06
100060.18
100065.37
100070.64
100075.98
100081.39
100086.88
100092.44
100098.08
100103.8
100109.59
100115.46
100121.41
100127.43
100133.54
100139.72
100145.98
100152.32
100158.74
100165.25
100171.83
100178.49
100185.23
100192.06
100198.97
100205.96
100213.03
100220.18
100227.42
100234.74
100242.15
100249.64
100257.21
100264.87
100272.61
100280.44
100288.35
100296.35
100304.43
100312.6
100320.85
100329.19
100337.62
100346.13
100354.73
100363.41
100372.19
100381.04
100389.99
100399.02
100408.14
100417.35
100426.64
100436.02
100445.49
100455.04
100464.68
100474.41
100484.23
100494.13
100504.12
100514.2
100524.36
100534.61
100544.95
100555.38
100565.89
100576.49
100587.17
100597.95
100608.81
100619.75
100630.78
100641.9
100653.11
100664.4
100675.77
100687.24
100698.78
100710.42
100722.13
100733.94
100745.82
100757.79
100769.85
100781.99
100794.22
100806.52
100818.92
100831.39
100843.95
100856.59
100869.31
100882.12
100895
100907.97
100921.02
100934.15
100947.36
100960.66
100974.03
100987.48
101001.01
101014.62
101028.31
101042.08
101055.93
101069.85
101083.86
101097.94
101112.09
101126.33
101140.63
101155.02
101169.48
101184.01
101198.62
101213.31
101228.07
101242.9
101257.8
101272.78
101287.83
101302.95
101318.15
101333.41
101348.75
101364.15
101379.63
101395.17
101410.79
101426.47
101442.22
101458.04
101473.92
101489.88
101505.9
101521.98
101538.13
101554.35
101570.63
101586.97
101603.38
101619.86
101636.39
101652.99
101669.65
101686.37
101703.16
101720
101736.9
101753.87
101770.89
101787.97
101805.11
101822.31
101839.57
101856.88
101874.25
101891.68
101909.16
101926.7
101944.29
101961.94
101979.64
101997.39
102015.2
102033.06
102050.97
102068.93
102086.95
102105.01
102123.13
102141.29
102159.51
102177.77
102196.08
102214.44
102232.85
102251.3
102269.8
102288.35
102306.94
102325.58
102344.26
102362.99
102381.76
102400.57
102419.43
102438.33
102457.27
102476.25
102495.27
102514.34
102533.44
102552.59
102571.77
102590.99
102610.25
102629.55
102648.89
102668.26
102687.67
102707.12
102726.6
102746.11
102765.67
102785.25
102804.87
102824.53
102844.21
102863.93
102883.68
102903.47
102923.28
102943.13
102963
102982.91
103002.84
103022.81
103042.8
103062.83
103082.88
103102.95
103123.06
103143.19
103163.35
103183.53
103203.74
103223.97
103244.23
103264.51
103284.82
103305.14
103325.5
103345.87
103366.27
103386.68
103407.12
103427.58
103448.06
103468.56
103489.08
103509.62
103530.18
103550.75
103571.35
103591.96
103612.58
103633.23
103653.89
103674.57
103695.26
103715.96
103736.69
103757.42
103778.17
103798.94
103819.71
103840.5
103861.3
103882.12
103902.94
103923.78
103944.62
103965.48
103986.34
104007.22
104028.11
104049
104069.9
104090.81
104111.73
104132.65
104153.58
104174.52
104195.46
104216.41
104237.37
104258.33
104279.29
104300.26
104321.23
104342.2
104363.18
104384.16
104405.14
104426.12
104447.11
104468.09
104489.08
104510.06
104531.05
104552.03
104573.02
104594
104614.98
104635.96
104656.93
104677.91
104698.87
104719.84
104740.8
104761.76
104782.71
104803.66
104824.6
104845.53
104866.46
104887.39
104908.3
104929.21
104950.11
104971
104991.88
105012.75
105033.62
105054.47
105075.31
105096.15
105116.97
105137.78
105158.58
105179.36
105200.14
105220.9
105241.64
105262.38
105283.1
105303.8
105324.49
105345.17
105365.82
105386.47
105407.09
105427.7
105448.3
105468.87
105489.43
105509.97
105530.49
105550.99
105571.47
105591.93
105612.37
105632.79
105653.19
105673.56
105693.92
105714.25
105734.56
105754.85
105775.11
105795.35
105815.57
105835.76
105855.93
105876.07
105896.18
105916.27
105936.33
105956.37
105976.37
105996.35
106016.31
106036.23
106056.12
106075.99
106095.82
106115.63
106135.4
106155.14
106174.85
106194.53
106214.18
106233.8
106253.38
106272.93
106292.44
106311.92
106331.37
106350.78
106370.16
106389.5
106408.8
106428.07
106447.3
106466.49
106485.65
106504.77
106523.84
106542.88
106561.89
106580.85
106599.77
106618.65
106637.49
106656.28
106675.04
106693.75
106712.42
106731.05
106749.64
106768.18
106786.68
106805.13
106823.54
106841.9
106860.21
106878.49
106896.71
106914.89
106933.02
106951.1
106969.13
106987.12
107005.05
107022.94
107040.78
107058.57
107076.3
107093.99
107111.63
107129.21
107146.74
107164.22
107181.65
107199.02
107216.34
107233.6
107250.82
107267.97
107285.07
107302.12
107319.11
107336.05
107352.92
107369.74
107386.51
107403.21
107419.86
107436.45
107452.98
107469.45
107485.87
107502.22
107518.51
107534.74
107550.91
107567.02
107583.07
107599.06
107614.98
107630.84
107646.64
107662.37
107678.04
107693.65
107709.19
107724.67
107740.08
107755.43
107770.71
107785.93
107801.08
107816.16
107831.18
107846.13
107861.01
107875.82
107890.57
107905.25
107919.86
107934.4
107948.87
107963.27
107977.6
107991.86
108006.05
108020.17
108034.22
108048.2
108062.11
108075.94
108089.7
108103.4
108117.01
108130.56
108144.03
108157.43
108170.76
108184.01
108197.19
108210.3
108223.33
108236.29
108249.17
108261.98
108274.71
108287.37
108299.95
108312.46
108324.89
108337.24
108349.52
108361.73
108373.85
108385.9
108397.88
108409.78
108421.6
108433.34
108445.01
108456.6
108468.11
108479.54
108490.9
108502.18
108513.38
108524.51
108535.55
108546.52
108557.41
108568.23
108578.96
108589.62
108600.2
108610.7
108621.12
108631.46
108641.73
108651.92
108662.03
108672.06
108682.01
108691.89
108701.68
108711.4
108721.05
108730.61
108740.09
108749.5
108758.83
108768.08
108777.26
108786.35
108795.37
108804.31
108813.18
108821.96
108830.67
108839.31
108847.86
108856.34
108864.74
108873.07
108881.32
108889.49
108897.59
108905.61
108913.56
108921.43
108929.23
108936.95
108944.6
108952.17
108959.66
108967.09
108974.43
108981.71
108988.91
108996.04
109003.09
109010.08
109016.99
109023.82
109030.59
109037.28
109043.91
109050.46
109056.94
109063.35
109069.69
109075.96
109082.16
109088.29
109094.35
109100.35
109106.27
109112.13
109117.92
109123.64
109129.3
109134.89
109140.41
109145.87
109151.26
109156.58
109161.85
109167.04
109172.18
109177.25
109182.25
109187.2
109192.08
109196.9
109201.66
109206.36
109210.99
109215.57
109220.09
109224.55
109228.94
109233.28
109237.57
109241.79
109245.96
109250.07
109254.12
109258.12
109262.06
109265.95
109269.78
109273.56
109277.29
109280.96
109284.58
109288.15
109291.66
109295.13
109298.54
109301.9
109305.22
109308.48
109311.69
109314.86
109317.98
109321.05
109324.07
109327.05
109329.98
109332.86
109335.7
109338.5
109341.25
109343.96
109346.62
109349.24
109351.82
109354.36
109356.85
109359.3
109361.72
109364.09
109366.42
109368.72
109370.98
109373.19
109375.37
109377.52
109379.62
109381.69
109383.72
109385.72
109387.68
109389.61
109391.51
109393.37
109395.19
109396.99
109398.75
109400.48
109402.18
109403.85
109405.48
109407.09
109408.67
109410.21
109411.73
109413.22
109414.68
109416.11
109417.52
109418.9
109420.25
109421.58
109422.88
109424.15
109425.4
109426.63
109427.83
109429.01
109430.16
109431.29
109432.4
109433.49
109434.55
109435.59
109436.61
109437.61
109438.59
109439.55
109440.49
109441.4
109442.3
109443.18
109444.05
109444.89
109445.72
109446.52
109447.31
109448.09
109448.84
109449.58
109450.31
109451.01
109451.71
109452.38
109453.04
109453.69
109454.32
109454.94
109455.55
109456.14
109456.71
109457.28
109457.83
109458.37
109458.89
109459.41
109459.91
109460.4
109460.88
109461.34
109461.8
109462.25
109462.68
109463.1
109463.52
109463.92
109464.32
109464.7
109465.08
109465.44
109465.8
109466.15
109466.49
109466.82
109467.14
109467.46
109467.77
109468.06
109468.36
109468.64
109468.92
109469.19
109469.45
109469.71
109469.96
109470.2
109470.44
109470.67
109470.9
109471.11
109471.33
109471.54
109471.74
109471.93
109472.13
109472.31
109472.49
109472.67
109472.84
109473.01
109473.17
109473.33
109473.48
109473.63
109473.78
109473.92
109474.06
109474.19
109474.32
109474.45
109474.57
109474.69
109474.81
109474.92
109475.03
109475.14
109475.24
109475.34
109475.44
109475.53
109475.63
109475.72
109475.8
109475.89
109475.97
109476.05
109476.12
109476.2
109476.27
109476.34
109476.41
109476.48
109476.54
109476.6
109476.66
109476.72
109476.78
109476.84
109476.89
109476.94
109476.99
109477.04
109477.09
109477.13
109477.18
109477.22
109477.26
109477.3
109477.34
109477.38
109477.42
109477.45
109477.49
109477.52
109477.55
109477.58
109477.61
109477.64
109477.67
109477.7
109477.72
109477.75
109477.77
109477.8
109477.82
109477.84
109477.86
109477.89
109477.91
109477.93
109477.94
109477.96
109477.98
109478
109478.01
109478.03
109478.05
109478.06
109478.07
109478.09
109478.1
109478.11
109478.13
109478.14
109478.15
109478.16
109478.17
109478.18
109478.19
109478.2
109478.21
109478.22
109478.23
109478.24
109478.25
109478.26
109478.26
109478.27
109478.28
109478.28
109478.29
109478.3
109478.3
109478.31
109478.31
109478.32
109478.32
109478.33
109478.33
109478.34
109478.34
109478.35
109478.35
109478.36
109478.36
109478.36
109478.37
109478.37
109478.37
109478.38
109478.38
109478.38
109478.39
109478.39
109478.39
109478.39
109478.4
109478.4
109478.4
109478.4
109478.41
109478.41
109478.41
109478.41
109478.41
109478.42
109478.42
109478.42
109478.42
109478.42
109478.42
109478.42
109478.43
109478.43
109478.43
109478.43
109478.43
109478.43
109478.43
109478.43
109478.43
109478.44
109478.44
109478.44
109478.44
109478.44
109478.44
109478.44
109478.44
109478.44
109478.44
109478.44
109478.44
109478.44
109478.44
109478.45
109478.45
109478.45
109478.45
109478.45
109478.45
109478.45
109478.45
109478.45
109478.45
109478.45
109478.45
109478.45
109478.45
109478.45
109478.45
109478.45
109478.45
109478.45
109478.45
109478.45
109478.45
109478.45
109478.45
109478.45
109478.45
109478.45
109478.45
109478.45
109478.45
109478.45
109478.46
109478.46
109478.46
109478.46
109478.46
109478.46
109478.46
109478.46
109478.46
109478.46
109478.46
109478.46
109478.46
109478.46
109478.46
109478.46
109478.46
109478.46
109478.46
109478.46
109478.46
109478.46
109478.46
109478.46
109478.46
109478.46
109478.46
109478.46
109478.46
109478.46
109478.46
109478.46
109478.46
109478.46
109478.46
109478.46
109478.46
109478.46
109478.46
109478.46
109478.46
109478.46
109478.46
109478.46
109478.46
109478.46
109478.46
109478.46
109478.46
109478.46
109478.46
109478.46
109478.46
109478.46
109478.46
109478.46
109478.46
109478.46
109478.46
109478.46
109478.46
109478.46
109478.46
109478.46
109478.46
109478.46
109478.46
109478.46
109478.46
109478.46
109478.46
109478.46
109478.46
109478.46
109478.46
109478.46
109478.46
109478.46
109478.46
109478.46
109478.46
109478.46
109478.46
109478.46
109478.46
109478.46
109478.46
109478.46
109478.46
109478.46
109478.46
109478.46
109478.46
109478.46
109478.46
109478.46
109478.46
109478.46
109478.46
109478.46
109478.46
109478.46
109478.46
109478.46
109478.46
109478.46
109478.46
109478.46
109478.46
109478.46
109478.46
109478.46
109478.46
109478.46
109478.46
109478.46
109478.46
109478.46
109478.46
109478.46
109478.46
109478.46
109478.46
109478.46
109478.46
109478.46
109478.46
109478.46
109478.46
109478.46
109478.46
109478.46
109478.46
109478.46
109478.46
109478.46
109478.46
109478.46
109478.46
109478.46
109478.46
109478.46
109478.46
109478.46
109478.46
109478.46
109478.46
109478.46
109478.46
109478.46
109478.46
109478.46
109478.46
109478.46
109478.46
109478.46
109478.46
109478.46
109478.46
109478.46
109478.46
109478.46
109478.46
109478.46
109478.46
109478.46
109478.46
109478.46
109478.46
109478.46
109478.46
109478.46
109478.46
109478.46
109478.46
109478.46
109478.46
109478.46
109478.46
109478.46
109478.46
109478.46
109478.46
109478.46
109478.46
109478.46
109478.46
109478.46
109478.46
109478.46
109478.46
109478.46
109478.46
109478.46
109478.46
109478.46
109478.46
109478.46
109478.46
109478.46
109478.46
109478.46
109478.46
109478.46
109478.46
109478.46
109478.46
109478.46
109478.46
109478.46
109478.46
109478.46
109478.46
109478.46
109478.46
109478.46
109478.46
109478.46
109478.46
109478.46
109478.46
109478.46
109478.46
109478.46
109478.46
109478.46
109478.46
109478.46
109478.46
109478.46
109478.46
109478.46
109478.46
109478.46
109478.46
109478.46
109478.46
109478.46
109478.46
109478.46
109478.46
109478.46
109478.46
109478.46
109478.46
109478.46
109478.46
109478.46
109478.46
109478.46
109478.46
109478.46
109478.46
109478.46
109478.46
109478.46
109478.46
109478.46
109478.46
109478.46
109478.46
109478.46
109478.46
109478.46
109478.46
109478.46
109478.46
109478.46
109478.46
109478.46
109478.46
109478.46
109478.46
109478.46
109478.46
109478.46
109478.46
109478.46
109478.46
109478.46
109478.46
109478.46
109478.46
109478.46
109478.46
109478.46
109478.46
109478.46
109478.46
109478.46
109478.46
109478.46
109478.46
109478.46
109478.46
109478.46
109478.46
109478.46
109478.46
109478.46
109478.46
109478.46
109478.46
109478.46
109478.46
109478.46
109478.46
109478.46
109478.46
109478.46
109478.46
109478.46
109478.46
109478.46
109478.46
109478.46
109478.46
109478.46
109478.46
109478.46
109478.46
109478.46
109478.46
109478.46
109478.46
109478.46
109478.46
109478.46
109478.46
109478.46
109478.46
109478.46
109478.46
109478.46
109478.46
109478.46
109478.46
109478.46
109478.46
109478.46
109478.46
109478.46
109478.46
109478.46
109478.46
109478.46
109478.46
109478.46
109478.46
109478.46
109478.46
109478.46
109478.46
109478.46
109478.46
109478.46
109478.46
109478.46
109478.46
109478.46
109478.46
109478.46
109478.46
109478.46
109478.46
109478.46
109478.46
109478.46
109478.46
109478.46
109478.46
109478.46
109478.46
109478.46
109478.46
109478.46
109478.46
109478.46
109478.46
109478.46
109478.46
109478.46
109478.46
109478.46
109478.46
109478.46
109478.46
109478.46
109478.46
109478.46
109478.46
109478.46
109478.46
109478.46
109478.46
109478.46
109478.46
109478.46
109478.46
109478.46
109478.46
109478.46
109478.46
109478.46
109478.46
109478.46
109478.46
109478.46
109478.46
109478.46
109478.46
109478.46
109478.46
109478.46
109478.46
109478.46
109478.46
109478.46
109478.46
109478.46
109478.46
109478.46
109478.46
109478.46
109478.46
109478.46
109478.46
109478.46
109478.46
109478.46
109478.46
109478.46
109478.46
109478.46
109478.46
109478.46
109478.46
109478.46
109478.46
109478.46
109478.46
109478.46
109478.46
109478.46
109478.46
109478.46
109478.46
109478.46
109478.46
109478.46
109478.46
109478.46
109478.46
109478.46
109478.46
109478.46
109478.46
109478.46
109478.46
109478.46
109478.46
109478.46
109478.46
109478.46
109478.46
109478.46
109478.46
109478.46
109478.46
109478.46
109478.46
109478.46
109478.46
109478.46
109478.46
109478.46
109478.46
109478.46
109478.46
109478.46
109478.46
109478.46
109478.46
109478.46
109478.46
109478.46
109478.46
109478.46
109478.46
109478.46
109478.46
109478.46
109478.46
109478.46
109478.46
109478.46
109478.46
109478.46
109478.46
109478.46
109478.46
109478.46
109478.46
109478.46
109478.46
109478.46
109478.46
109478.46
109478.46
109478.46
109478.46
109478.46
109478.46
109478.46
109478.46
109478.46
109478.46
109478.46
109478.46
109478.46
109478.46
109478.46
109478.46
109478.46
109478.46
109478.46
109478.46
109478.46
109478.46
109478.46
109478.46
109478.46
109478.46
109478.46
109478.46
109478.46
109478.46
109478.46
109478.46
109478.46
109478.46
109478.46
109478.46
109478.46
109478.46
109478.46
109478.46
109478.46
109478.46
109478.46
109478.46
109478.46
109478.46
109478.46
109478.46
109478.46
109478.46
109478.46
109478.46
109478.46
109478.46
109478.46
109478.46
109478.46
109478.46
109478.46
109478.46
109478.46
109478.46
109478.46
109478.46
109478.46
109478.46
109478.46
109478.46
109478.46
109478.46
109478.46
109478.46
109478.46
109478.46
109478.46
109478.46
109478.46
109478.46
109478.46
109478.46
109478.46
109478.46
109478.46
109478.46
109478.46
109478.46
109478.46
109478.46
109478.46
109478.46
109478.46
109478.46
109478.46
109478.46
109478.46
109478.46
109478.46
109478.46
109478.46
109478.46
109478.46
109478.46
109478.46
109478.46
109478.46
109478.46
109478.46
109478.46
109478.46
109478.46
109478.46
109478.46
109478.46
109478.46
109478.46
109478.46
109478.46
109478.46
109478.46
109478.46
109478.46
109478.46
109478.47
109478.47
109478.47
109478.47
109478.47
109478.47
109478.47
109478.46
109478.46
109478.46
109478.46
109478.46
109478.46
109478.46
109478.46
109478.46
109478.47
109478.47
109478.47
109478.47
109478.47
109478.47
109478.47
109478.47
109478.47
109478.46
109478.46
109478.45
109478.45
109478.45
109478.47
109478.48
109478.48
109478.47
109478.47
109478.47
109478.46
109478.46
109478.46
109478.46
109478.46
109478.46
109478.46
109478.47
109478.47
109478.47
109478.47
109478.47
109478.47
109478.47
109478.47
109478.47
109478.47
109478.47
109478.47
109478.47
109478.47
109478.47
109478.47
109478.47
109478.47
109478.47
109478.47
109478.47
109478.47
109478.47
109478.47
109478.47
109478.47
109478.47
109478.47
109478.47
109478.47
109478.47
109478.47
109478.47
109478.47
109478.47
109478.47
109478.47
109478.47
109478.47
109478.47
109478.47
109478.47
109478.47
109478.47
109478.47
109478.47
109478.47
109478.47
109478.47
109478.47
109478.47
109478.47
109478.47
109478.47
109478.47
109478.47
109478.47
109478.47
109478.47
109478.47
109478.47
109478.47
109478.47
109478.47
109478.47
109478.47
109478.47
109478.47
109478.47
109478.47
109478.47
109478.47
109478.47
109478.47
109478.47
109478.47
109478.47
109478.47
109478.47
109478.47
109478.47
109478.47
109478.47
109478.47
109478.47
109478.47
109478.47
109478.47
109478.47
109478.47
109478.47
109478.47
109478.47
109478.47
109478.47
109478.47
109478.47
109478.47
109478.47
109478.47
109478.47
109478.47
109478.47
109478.47
109478.47
109478.47
109478.47
109478.47
109478.47
109478.47
109478.47
109478.47
109478.47
109478.47
109478.47
109478.47
109478.47
109478.47
109478.47
109478.47
109478.47
109478.47
109478.47
109478.47
109478.47
109478.47
109478.47
109478.47
109478.47
109478.47
109478.47
109478.47
109478.47
109478.47
109478.47
109478.47
109478.47
109478.47
109478.47
109478.47
109478.47
109478.47
109478.47
109478.47
109478.47
109478.47
109478.47
109478.47
109478.47
109478.47
109478.47
109478.47
109478.47
109478.47
109478.47
109478.47
109478.47
109478.47
109478.47
109478.47
109478.47
109478.47
109478.47
109478.47
109478.47
109478.47
109478.47
109478.47
109478.47
109478.47
109478.47
109478.47
109478.47
109478.47
109478.47
109478.47
109478.47
109478.47
109478.47
109478.47
109478.47
109478.47
109478.47
109478.47
109478.47
109478.47
109478.47
109478.47
109478.47