/*--------------------------------*- C++ -*----------------------------------*\
  =========                 |
  \\      /  F ield         | OpenFOAM: The Open Source CFD Toolbox
   \\    /   O peration     | Website:  https://openfoam.org
    \\  /    A nd           | Version:  7
     \\/     M anipulation  |
\*---------------------------------------------------------------------------*/
FoamFile
{
    version     2.0;
    format      ascii;
    class       volVectorField;
    location    "0.00158";
    object      U;
}
// * * * * * * * * * * * * * * * * * * * * * * * * * * * * * * * * * * * * * //

dimensions      [0 1 -1 0 0 0 0];

internalField   nonuniform List<vector> 
5000
(
(0.13842857 8.5560077e-19 0)
(0.32777355 5.503868e-18 0)
(0.39252798 0 0)
(0.50033927 0 0)
(0.61111231 -7.9276583e-18 0)
(0.7145649 1.1005551e-32 -9.6805851e-18)
(0.81864909 1.1396281e-17 -2.4292634e-32)
(0.92321207 0 3.9319327e-17)
(1.0277243 0 1.4819213e-17)
(1.1321236 -1.6531466e-17 -3.3062933e-17)
(1.2364841 -3.6484488e-17 -3.6484488e-17)
(1.3407887 1.9952096e-17 1.9952096e-17)
(1.4450294 2.1661003e-17 -1.8469282e-31)
(1.5492015 -2.3368852e-17 -2.0589665e-31)
(1.6533 0 5.0151097e-17)
(1.7573201 -2.6781002e-17 -5.3562003e-17)
(1.8612567 1.3128222e-45 6.5641111e-46)
(1.9651048 3.0187806e-17 -2.6597661e-31)
(2.0688596 0 -3.1888968e-17)
(2.172516 3.3588506e-17 6.7177013e-17)
(2.2760693 -3.5286324e-17 3.5286324e-17)
(2.3795145 -3.6982321e-17 0)
(2.4828468 7.7352788e-17 0)
(2.5860614 -4.036844e-17 -4.036844e-17)
(2.6891537 -4.2058355e-17 3.586111e-31)
(2.7921187 -3.6056772e-31 -3.6056772e-31)
(2.8949519 4.5431359e-17 -4.5431359e-17)
(2.9976485 4.711423e-17 4.711423e-17)
(3.1002039 -9.7589058e-17 4.8794529e-17)
(3.2026135 8.7504779e-31 -5.0472143e-17)
(3.3048728 -9.1149492e-31 9.1149492e-31)
(3.4069771 5.3818843e-17 -4.5888706e-31)
(3.5089222 1.1097538e-16 -5.5487691e-17)
(3.6107034 -1.1430674e-16 5.7153372e-17)
(3.7123165 1.0197032e-30 5.8815763e-17)
(3.813757 -5.2595138e-30 0)
(3.9150207 -2.1543313e-30 0)
(4.0161033 1.2756381e-16 -6.3781904e-17)
(4.1170005 -1.3085967e-16 -6.5429834e-17)
(4.2177083 -1.3414762e-16 6.7073812e-17)
(4.3182224 1.374274e-16 -1.1522469e-30)
(4.4185389 -4.8386665e-30 -7.0349356e-17)
(4.5186537 -1.4396127e-16 7.1980637e-17)
(4.6185629 7.3607396e-17 -1.2447686e-30)
(4.7182625 2.2568846e-16 -7.5229486e-17)
(4.8177488 -7.6846758e-17 7.6846758e-17)
(4.9170179 -7.8459058e-17 -2.6982281e-30)
(5.0160659 -5.484242e-30 2.742121e-30)
(5.1148894 -1.6333623e-16 -2.8085883e-30)
(5.2134846 0 1.4199125e-30)
(5.3118481 8.4855384e-17 8.4855384e-17)
(5.4099763 1.2283926e-32 0)
(5.5078657 -8.8019569e-17 0)
(5.605513 1.7918517e-16 0)
(5.7029149 -3.1868118e-30 0)
(5.8000681 -1.8543924e-16 0)
(5.8969694 9.4273288e-17 0)
(5.9936157 -3.3088978e-30 0)
(6.090004 -9.7360045e-17 0)
(6.1861312 0 0)
(6.2819944 1.0041816e-16 0)
(6.3775908 3.4766354e-30 0)
(6.4729177 2.9401173e-32 0)
(6.5679721 1.0494844e-16 -1.0494844e-16)
(6.6627516 -1.0644261e-16 -1.0644261e-16)
(6.7572536 3.7730406e-30 1.0792851e-16)
(6.8514755 1.0940594e-16 -1.8812498e-30)
(6.9454148 -1.1087471e-16 7.1030022e-47)
(7.0390693 -1.1233463e-16 1.1233463e-16)
(7.1324367 1.137855e-16 0)
(7.2255146 1.1522713e-16 0)
(7.318301 -1.1665932e-16 -1.1665932e-16)
(7.4107937 -1.1808188e-16 -1.1808188e-16)
(7.5029908 2.389892e-16 0)
(7.5948904 1.2089729e-16 1.2089729e-16)
(7.6864905 -1.2228976e-16 4.222956e-30)
(7.7777894 0 -1.2367179e-16)
(7.8687853 1.250432e-16 -1.250432e-16)
(7.9594766 -1.7963057e-32 1.2640378e-16)
(8.0498619 -1.2775333e-16 2.5550667e-16)
(8.1399394 1.2909168e-16 -2.5818336e-16)
(8.2297075 -3.7067194e-32 7.4134389e-32)
(8.3191652 3.7441021e-32 3.9520164e-16)
(8.4083113 1.3303735e-16 -2.660747e-16)
(8.4971444 1.3432881e-16 -1.3973347e-29)
(8.5856633 4.7214108e-30 2.7121612e-16)
(8.6738671 -1.3687491e-16 -4.1062473e-16)
(8.7617546 0 1.3812916e-16)
(8.849325 -1.3937062e-16 1.3937062e-16)
(8.9365773 -1.4585643e-29 -1.405991e-16)
(9.0235109 -4.9576475e-30 1.418144e-16)
(9.1101248 1.4301635e-16 1.4301635e-16)
(9.1964186 1.4420476e-16 5.0207185e-30)
(9.2823915 -2.9075887e-16 -2.9075887e-16)
(9.368043 -1.0141587e-29 -1.0141587e-29)
(9.4533727 1.4768688e-16 -1.4768688e-16)
(9.5383802 0 -1.4881928e-16)
(9.6230651 0 -5.2629191e-30)
(9.7074271 -1.510406e-16 1.0517438e-29)
(9.7914661 -1.0550001e-29 3.0425833e-16)
(9.8751818 3.0640556e-16 1.5320278e-16)
(9.9585741 -1.5426128e-16 -1.5426128e-16)
(10.041643 -3.10609e-16 2.2070097e-32)
(10.124389 0 1.5633229e-16)
(10.206811 1.5734449e-16 0)
(10.28891 1.5834095e-16 -1.5834095e-16)
(10.370686 -1.5932152e-16 -5.5470328e-30)
(10.45214 -1.6028606e-16 1.6028606e-16)
(10.53327 0 -1.6123443e-16)
(10.61408 0 -1.6216652e-16)
(10.694566 1.6308218e-16 3.2616437e-16)
(10.774731 1.6398126e-16 1.6398126e-16)
(10.854576 0 -4.9459086e-16)
(10.9341 -1.6572918e-16 -1.6572918e-16)
(11.013305 5.8233449e-30 4.997335e-16)
(11.09219 1.6740946e-16 -1.6740946e-16)
(11.170757 -1.6822393e-16 -1.6822393e-16)
(11.249005 4.8038706e-32 -9.6077412e-32)
(11.326937 -5.9360251e-30 -1.6980107e-16)
(11.404552 3.7526135e-47 5.1169062e-16)
(11.481851 3.4261699e-16 -1.1977445e-29)
(11.558836 -7.3343293e-32 -3.4407169e-16)
(11.635507 -1.7274552e-16 3.4549104e-16)
(11.711864 0 1.7343745e-16)
(11.78791 -1.7411155e-16 -1.7411155e-16)
(11.863644 1.7476778e-16 1.7476778e-16)
(11.939067 1.7540607e-16 -1.7540607e-16)
(12.014181 -3.5205273e-16 -3.5205273e-16)
(12.088987 -1.7662863e-16 1.7662863e-16)
(12.163486 3.544256e-16 6.1195793e-30)
(12.237678 1.7777886e-16 1.7777886e-16)
(12.311565 -1.7832676e-16 3.5665352e-16)
(12.385148 -1.7885648e-16 -1.7885648e-16)
(12.458428 -1.7936801e-16 -1.7936801e-16)
(12.531405 0 -1.798613e-16)
(12.604082 1.8033639e-16 -6.2786988e-30)
(12.676459 1.8079329e-16 -6.2689142e-30)
(12.748537 -1.8123192e-16 6.3098783e-30)
(12.820316 -6.2986985e-30 3.6330451e-16)
(12.891801 1.8205436e-16 1.8205436e-16)
(12.962989 -1.8243828e-16 -1.8243828e-16)
(13.033883 -1.8280402e-16 -3.6560805e-16)
(13.104485 0 -1.8315158e-16)
(13.174794 1.8348099e-16 -1.8348099e-16)
(13.244812 1.8379228e-16 1.2745805e-29)
(13.31454 -1.8408549e-16 3.6817098e-16)
(13.38398 1.8436067e-16 -5.2398453e-32)
(13.453132 -1.049431e-31 5.2471549e-32)
(13.521998 -1.8485709e-16 -1.1283803e-46)
(13.590578 1.8507845e-16 1.8507845e-16)
(13.658874 -1.8528198e-16 -1.2849115e-29)
(13.726887 1.2914711e-29 2.5829421e-29)
(13.794617 1.8563582e-16 1.8563582e-16)
(13.862066 -1.8578626e-16 -1.8578626e-16)
(13.929235 1.8591916e-16 1.8591916e-16)
(13.996125 1.8603458e-16 6.4506534e-30)
(14.062737 -1.8613261e-16 -1.8613261e-16)
(14.129071 0 1.8621335e-16)
(14.195129 0 -2.6471533e-32)
(14.260912 -1.8632326e-16 -1.8632326e-16)
(14.32642 -1.8635273e-16 0)
(14.391653 1.8636527e-16 1.8636527e-16)
(14.456614 1.8636089e-16 1.2897453e-29)
(14.521303 -1.8633978e-16 -3.7267956e-16)
(14.585721 -1.2919861e-29 1.8630212e-16)
(14.649869 1.8624802e-16 -5.293487e-32)
(14.713746 -1.8617753e-16 -1.8617753e-16)
(14.777355 -1.8609078e-16 1.8609078e-16)
(14.840695 0 -1.859879e-16)
(14.903768 1.8586902e-16 1.8586902e-16)
(14.966574 1.8573425e-16 -7.7388453e-29)
(15.029113 0 -5.1480164e-29)
(15.091386 -1.8541759e-16 1.8541759e-16)
(15.153394 -1.8523596e-16 -3.7047191e-16)
(15.215137 0 0)
(15.276616 1.8482675e-16 -1.2817545e-29)
(15.33783 3.8405346e-29 -3.8405346e-29)
(15.398782 -1.8435721e-16 1.8435721e-16)
(15.45947 1.8410016e-16 1.8410016e-16)
(15.519895 1.8382844e-16 1.2669942e-29)
(15.580058 -1.8354221e-16 -1.8354221e-16)
(15.639959 -1.2655536e-29 1.8324159e-16)
(15.699598 1.2581801e-29 1.2581801e-29)
(15.758976 7.7846181e-32 7.7846181e-32)
(15.818091 1.8225516e-16 2.5252515e-29)
(15.876944 -1.8189849e-16 -3.6379697e-16)
(15.935537 -2.5177581e-29 1.8152815e-16)
(15.99387 1.2459209e-29 1.8114439e-16)
(16.05194 -1.2431899e-29 -1.2431899e-29)
(16.10975 1.8033709e-16 1.2429309e-29)
(16.167299 0 -3.7404944e-29)
(16.224587 0 1.2395578e-29)
(16.281614 -1.7902874e-16 -1.7902874e-16)
(16.33838 -1.7856728e-16 0)
(16.394884 0 0)
(16.451127 0 0)
(16.507108 1.7710901e-16 0)
(16.562828 2.3533043e-47 -1.765988e-16)
(16.618285 -1.7607678e-16 3.6707297e-29)
(16.673481 0 1.7554312e-16)
(16.728414 1.7499796e-16 1.7499796e-16)
(16.783084 -1.7444145e-16 -1.7444145e-16)
(16.837491 -4.8182446e-29 -1.7387376e-16)
(16.891634 3.4659004e-16 3.4659004e-16)
(16.945514 -1.7270541e-16 1.19524e-29)
(16.99913 -3.5732572e-29 -3.5732572e-29)
(17.052479 -2.4370806e-32 -1.714943e-16)
(17.105563 -1.7087292e-16 -1.7087292e-16)
(17.158383 1.7024122e-16 1.7024122e-16)
(17.210937 -2.4101533e-32 0)
(17.263224 -2.3384689e-29 1.6894776e-16)
(17.315244 1.1646563e-29 1.1646563e-29)
(17.366996 -1.6761502e-16 -1.6761502e-16)
(17.41848 0 -1.6693427e-16)
(17.469695 1.6624415e-16 2.315222e-29)
(17.52064 1.1456836e-29 1.655448e-16)
(17.571316 4.5748356e-29 -3.2967274e-16)
(17.621721 1.64119e-16 1.64119e-16)
(17.671854 0 1.6339285e-16)
(17.721716 -1.6265805e-16 -1.6265805e-16)
(17.771305 -1.6191476e-16 1.6191476e-16)
(17.820621 0 0)
(17.869663 0 0)
(17.918431 0 0)
(17.966923 1.5885948e-16 1.5885948e-16)
(18.015139 1.0939933e-29 -1.5807584e-16)
(18.063079 -1.5728462e-16 -3.1456925e-16)
(18.11074 0 1.5648597e-16)
(18.158123 0 -1.0818363e-29)
(18.205227 1.5486648e-16 1.5486648e-16)
(18.252053 1.5404604e-16 1.5404604e-16)
(18.298598 -1.5321874e-16 -3.0643748e-16)
(18.344862 -1.5238466e-16 4.3310324e-32)
(18.390844 0 -4.3071365e-32)
(18.436543 1.506966e-16 1.506966e-16)
(18.48196 1.4984294e-16 1.4984294e-16)
(18.527092 -1.4898304e-16 -2.9796609e-16)
(18.571939 -1.4811704e-16 2.1048698e-32)
(18.616501 0 -3.0675733e-29)
(18.660777 1.4636728e-16 1.4636728e-16)
(18.704766 -4.0397955e-29 -8.0795909e-29)
(18.748468 -1.0027497e-29 -2.0054994e-29)
(18.791881 1.4370028e-16 1.4370028e-16)
(18.835005 -1.4280053e-16 -1.4280053e-16)
(18.87784 -1.4189563e-16 0)
(18.920385 0 -1.4098572e-16)
(18.962639 1.4007092e-16 1.4007092e-16)
(19.004601 -1.9339566e-29 1.3915143e-16)
(19.04627 1.3822736e-16 -1.3822736e-16)
(19.087647 1.9043054e-29 0)
(19.12873 -2.7273146e-16 -1.3636573e-16)
(19.169519 1.3542854e-16 1.3542854e-16)
(19.210015 -1.8653115e-29 1.3448732e-16)
(19.250214 -4.6361997e-29 -4.6361997e-29)
(19.290118 -9.1763604e-30 -2.6518643e-16)
(19.329726 -1.3164057e-16 -2.6328114e-16)
(19.369037 1.306844e-16 3.9205319e-16)
(19.40805 1.2972482e-16 2.5944964e-16)
(19.446766 0 0)
(19.485184 -1.27796e-16 -2.55592e-16)
(19.523303 -1.2682702e-16 -1.2682702e-16)
(19.561123 0 1.2585517e-16)
(19.598644 1.2488059e-16 1.2488059e-16)
(19.635865 1.239034e-16 1.239034e-16)
(19.672786 -2.4584748e-16 -2.4584748e-16)
(19.709407 -1.2194175e-16 -2.4388351e-16)
(19.745727 1.2095755e-16 1.2095755e-16)
(19.781746 1.199713e-16 2.399426e-16)
(19.817464 3.3005438e-29 3.3005438e-29)
(19.852879 -1.1799318e-16 -2.3598636e-16)
(19.887993 1.1700147e-16 1.1700147e-16)
(19.922806 -8.0450501e-30 -1.60901e-29)
(19.957317 -1.1501359e-16 -1.1501359e-16)
(19.991526 1.1401772e-16 2.2803543e-16)
(20.025433 -7.8539297e-30 -1.1302069e-16)
(20.059037 7.8004934e-30 1.5600987e-29)
(20.09234 -3.1554837e-32 1.1102371e-16)
(20.12534 -7.5987833e-30 -1.1002404e-16)
(20.158038 1.0902376e-16 1.0902376e-16)
(20.190434 0 -2.1604599e-16)
(20.222528 0 4.4652813e-29)
(20.25432 -1.0602054e-16 2.1204109e-16)
(20.285811 -1.0501913e-16 -2.1003825e-16)
(20.317 0 -7.1987422e-30)
(20.347888 0 1.0301655e-16)
(20.378475 0 0)
(20.408761 0 0)
(20.438748 1.0001537e-16 1.0001537e-16)
(20.468434 6.8244625e-30 -9.9016259e-17)
(20.49782 -1.9603592e-16 -1.9603592e-16)
(20.526906 4.1362363e-32 9.7020586e-17)
(20.555695 9.6024314e-17 -2.7291752e-32)
(20.584185 9.5029316e-17 9.5029316e-17)
(20.612378 -1.3055921e-29 9.40357e-17)
(20.640273 -1.289173e-29 -9.3043574e-17)
(20.667872 -1.3081528e-32 0)
(20.695174 -9.1064339e-17 -9.1064339e-17)
(20.722182 -9.0077506e-17 -9.0077506e-17)
(20.748895 -8.9092702e-17 0)
(20.775313 1.7622011e-16 1.7622011e-16)
(20.801439 2.6138911e-16 8.7129702e-17)
(20.827272 -8.6151769e-17 -1.7230354e-16)
(20.852814 -1.7035277e-16 5.8947904e-30)
(20.878065 0 -2.3932125e-32)
(20.903026 8.3233785e-17 8.3233785e-17)
(20.927698 8.2266824e-17 8.2266824e-17)
(20.952082 -8.1302925e-17 -8.1302925e-17)
(20.976179 2.2834635e-32 8.0342229e-17)
(20.99999 -3.3843794e-32 -7.9384843e-17)
(21.023516 2.2291392e-32 4.4582785e-32)
(21.046758 7.7480425e-17 1.5496085e-16)
(21.069717 7.6533673e-17 -7.6533673e-17)
(21.092394 -7.5590727e-17 -7.5590727e-17)
(21.114791 -1.4930337e-16 -7.4651686e-17)
(21.136909 7.371666e-17 -1.0224349e-29)
(21.158748 4.4499551e-47 7.2785766e-17)
(21.18031 7.1859118e-17 0)
(21.201597 1.9657422e-29 0)
(21.222609 -1.4003798e-16 -7.0018989e-17)
(21.243348 0 9.5946413e-30)
(21.263816 0 -1.892729e-29)
(21.284013 1.3458655e-16 -9.3525646e-30)
(21.303942 -3.6872752e-29 6.63943e-17)
(21.323603 -1.3100058e-16 -6.5500291e-17)
(21.342999 0 9.1818232e-33)
(21.36213 6.3727532e-17 6.3727532e-17)
(21.380998 6.2848979e-17 0)
(21.399605 -6.197575e-17 0)
(21.417953 8.6839572e-33 0)
(21.436042 -8.3644989e-30 0)
(21.453876 8.4396605e-33 0)
(21.471455 5.8537757e-17 0)
(21.48878 -5.7692423e-17 0)
(21.505855 -5.6852905e-17 -5.6852905e-17)
(21.52268 0 0)
(21.539258 5.5191637e-17 5.5191637e-17)
(21.555589 -7.5487386e-30 0)
(21.571677 -5.3554551e-17 -5.3554551e-17)
(21.587523 1.0549051e-16 -1.4631317e-29)
(21.603128 -1.4408557e-29 5.1942216e-17)
(21.618495 -5.1145499e-17 0)
(21.633625 -1.398263e-29 0)
(21.648521 -9.9142602e-17 -4.9571301e-17)
(21.663185 9.7587892e-17 -6.774554e-30)
(21.677617 4.8023175e-17 4.8023175e-17)
(21.691822 -4.725904e-17 0)
(21.705799 -6.6082733e-33 0)
(21.719552 -4.5750885e-17 -4.5750885e-17)
(21.733082 0 -4.500699e-17)
(21.746392 0 4.4269955e-17)
(21.759483 4.3539824e-17 4.3539824e-17)
(21.772358 -5.9385802e-30 0)
(21.785018 -8.4200915e-17 -4.2100457e-17)
(21.797466 5.8820593e-33 5.8820593e-33)
(21.809704 1.2206774e-16 4.0689248e-17)
(21.821734 -3.99943e-17 -3.99943e-17)
(21.833558 -3.9306504e-17 -3.9306504e-17)
(21.845178 7.7251785e-17 3.8625892e-17)
(21.856596 -3.7952495e-17 3.7952495e-17)
(21.867815 3.7286339e-17 0)
(21.878837 7.3254893e-17 -3.6627447e-17)
(21.889663 -3.5975842e-17 -3.5975842e-17)
(21.900296 -3.5331544e-17 3.5331544e-17)
(21.910738 -3.4694559e-17 3.4694559e-17)
(21.920991 3.4064902e-17 0)
(21.931058 5.9480454e-47 -3.3442589e-17)
(21.94094 -3.2827628e-17 -3.2827628e-17)
(21.95064 3.2220019e-17 3.2220019e-17)
(21.96016 -3.1619762e-17 3.1619762e-17)
(21.969503 3.1026859e-17 0)
(21.978669 8.4356411e-30 0)
(21.987662 8.4876028e-33 0)
(21.996483 2.9292226e-17 0)
(22.005136 -5.7457362e-17 0)
(22.013621 2.8172451e-17 0)
(22.021942 7.6705021e-30 0)
(22.0301 -7.5124012e-30 0)
(22.038098 -2.65475e-17 -2.65475e-17)
(22.045937 -5.2040749e-17 -4.028471e-46)
(22.05362 7.6501429e-17 2.5500476e-17)
(22.06115 6.9315077e-30 0)
(22.068528 -1.3582561e-29 0)
(22.075756 6.6462229e-30 0)
(22.082836 -4.6985394e-17 -2.3492697e-17)
(22.089772 4.6017165e-17 -3.191243e-30)
(22.096564 -6.2501575e-30 2.2531544e-17)
(22.103215 -4.4123105e-17 -2.2061552e-17)
(22.109727 0 2.9987476e-30)
(22.116103 0 -3.0045424e-33)
(22.122343 2.0693547e-17 -2.8730932e-30)
(22.128451 -2.8088309e-30 2.0251424e-17)
(22.134428 -1.9816183e-17 -1.9816183e-17)
(22.140277 -1.9387785e-17 1.9387785e-17)
(22.145999 1.8966193e-17 -1.0538459e-29)
(22.151597 5.5654099e-17 -1.8551366e-17)
(22.157072 -1.8143265e-17 1.8143265e-17)
(22.162427 -1.7741844e-17 0)
(22.167663 -4.9303309e-33 0)
(22.172783 -1.6958868e-17 -1.6958868e-17)
(22.177788 0 -2.3015822e-30)
(22.18268 3.2404139e-17 1.6202069e-17)
(22.187462 3.1666724e-17 -1.5833362e-17)
(22.192135 -1.5471048e-17 -1.5471048e-17)
(22.196701 -3.0230147e-17 0)
(22.201162 -1.4765383e-17 1.4765383e-17)
(22.205519 2.8843842e-17 1.4421921e-17)
(22.209775 2.8169258e-17 -1.4084629e-17)
(22.213932 -2.7506899e-17 -3.8171047e-30)
(22.217991 -2.685664e-17 6.200855e-47)
(22.221954 0 -1.8200793e-30)
(22.225822 2.5591938e-17 1.2795969e-17)
(22.229598 -1.2488621e-17 -1.2488621e-17)
(22.233284 -2.437414e-17 -2.2998841e-46)
(22.23688 1.1891251e-17 -1.6509818e-30)
(22.240389 1.1601095e-17 -1.1601095e-17)
(22.243813 -1.6081761e-33 0)
(22.247152 1.5324459e-30 0)
(22.25041 1.0763902e-17 1.0763902e-17)
(22.253587 -1.0495694e-17 1.4915278e-33)
(22.256685 -1.023281e-17 -4.2578092e-30)
(22.259707 9.9751988e-18 9.9751988e-18)
(22.262652 -1.3485313e-30 0)
(22.265524 -1.3465535e-33 0)
(22.268323 -1.2806486e-30 -9.233364e-18)
(22.271051 -8.9962577e-18 2.4942464e-30)
(22.273709 8.7640951e-18 8.7640951e-18)
(22.276298 -3.5557215e-30 0)
(22.278821 -1.154333e-30 0)
(22.281278 -2.2470311e-30 0)
(22.283672 -7.8832559e-18 -7.8832559e-18)
(22.286001 7.6748134e-18 1.0906566e-33)
(22.288269 -1.0372453e-30 7.4707929e-18)
(22.290478 -2.0159592e-30 -7.2711694e-18)
(22.292628 -1.0055617e-33 7.0760111e-18)
(22.29472 -1.3770587e-17 -1.9138659e-30)
(22.296755 -6.6988407e-18 -1.3397681e-17)
(22.298735 6.5164724e-18 6.5164724e-18)
(22.300662 1.2676351e-17 2.6399779e-30)
(22.302537 -8.5581358e-31 8.5581358e-31)
(22.304359 -1.1987946e-17 -8.3220348e-31)
(22.306131 -5.827835e-18 -5.827835e-18)
(22.307854 1.1330905e-17 0)
(22.309529 5.5068073e-18 0)
(22.311158 -5.3519511e-18 5.3519511e-18)
(22.312741 -5.200835e-18 7.2208419e-31)
(22.314279 -1.4024803e-30 -1.4024803e-30)
(22.315773 4.9091976e-18 6.8543667e-48)
(22.317226 0 -4.7685658e-18)
(22.318638 0 4.6314106e-18)
(22.320009 4.4976408e-18 4.4976408e-18)
(22.321341 0 0)
(22.322634 -4.2398381e-18 -4.2398381e-18)
(22.32389 4.1157346e-18 -5.714288e-31)
(22.32511 5.6768875e-34 3.9947544e-18)
(22.326293 -1.0759542e-30 0)
(22.327443 0 0)
(22.328559 -3.6497466e-18 -3.6497466e-18)
(22.329641 3.540673e-18 1.0063198e-33)
(22.330691 3.434415e-18 5.0500724e-48)
(22.331709 -6.6616578e-18 -3.3308289e-18)
(22.332697 -3.2298835e-18 3.2298835e-18)
(22.333656 3.131634e-18 -4.3390615e-31)
(22.334586 0 4.2152895e-31)
(22.335486 0 -8.1681209e-31)
(22.336359 -2.8524297e-18 -2.8524297e-18)
(22.337206 7.6794276e-31 2.7641518e-18)
(22.338027 2.6783129e-18 -7.4371419e-31)
(22.338822 0 7.209208e-31)
(22.339593 0 -6.983769e-31)
(22.340338 -2.434727e-18 -2.434727e-18)
(22.341062 9.8240563e-31 2.3577984e-18)
(22.341763 2.2830317e-18 -6.3395249e-31)
(22.342442 0 3.0752034e-31)
(22.343099 0 0)
(22.343736 0 -2.0710579e-18)
(22.344353 0 2.004285e-18)
(22.344951 0 -2.6927442e-31)
(22.34553 0 2.6666775e-34)
(22.346089 0 -2.520403e-31)
(22.346632 0 2.4403416e-31)
(22.347157 3.3962826e-18 1.6981413e-18)
(22.347665 9.1152697e-31 -1.6421661e-18)
(22.348156 -1.5878697e-18 -1.5878697e-18)
(22.348631 1.5351219e-18 1.5351219e-18)
(22.34909 -1.4838532e-18 1.4838532e-18)
(22.349535 1.4341028e-18 0)
(22.349965 -3.8523498e-31 -1.3859152e-18)
(22.35038 -1.3392245e-18 -1.3392245e-18)
(22.350781 -3.592893e-31 0)
(22.351169 -1.2498671e-18 1.2498671e-18)
(22.351544 0 -1.6760526e-31)
(22.351907 0 1.6568251e-34)
(22.352257 1.1259044e-18 1.5616063e-31)
(22.352594 3.0186513e-31 -1.0870967e-18)
(22.35292 -1.0494205e-18 1.0494205e-18)
(22.353236 0 1.4049238e-31)
(22.35354 0 -2.7148143e-31)
(22.353833 0 -9.4353532e-19)
(22.354116 0 -9.1039649e-19)
(22.35439 0 1.7565341e-18)
(22.354655 0 -1.2039382e-34)
(22.35491 0 1.1333829e-31)
(22.355156 1.576155e-18 7.8807748e-19)
(22.355393 -6.3259383e-31 -7.5989815e-19)
(22.355623 -1.4652485e-18 1.0171759e-31)
(22.355844 7.0626571e-19 7.0626571e-19)
(22.356058 9.6745277e-35 0)
(22.356264 6.5612233e-19 0)
(22.356463 -3.5059483e-31 0)
(22.356656 -1.2184363e-18 -6.0921815e-19)
(22.356841 -5.8696011e-19 -5.8696011e-19)
(22.357019 -1.0199131e-48 5.6542902e-19)
(22.357192 1.6337893e-18 5.4459642e-19)
(22.357358 0 0)
(22.357518 -1.010115e-18 -5.0505749e-19)
(22.357672 0 -4.8630554e-19)
(22.357821 0 4.681662e-19)
(22.357964 9.0123463e-19 4.5061732e-19)
(22.358102 -1.2029766e-31 0)
(22.358235 -1.25193e-18 -4.1731001e-19)
(22.358363 4.0150957e-19 -4.0150957e-19)
(22.358487 3.8624665e-19 3.8624665e-19)
(22.358606 -3.7151837e-19 1.0316326e-31)
(22.358721 3.5730583e-19 -3.5730583e-19)
(22.358831 -3.4358283e-19 0)
(22.358938 -9.1636097e-32 0)
(22.35904 3.1758725e-19 0)
(22.359139 -3.0528031e-19 0)
(22.359234 0 2.933892e-19)
(22.359325 -2.8192251e-19 -7.8204144e-32)
(22.359413 2.7089414e-19 -2.7089414e-19)
(22.359498 5.2055164e-19 2.6027582e-19)
(22.359579 -2.5002262e-19 3.4713154e-32)
(22.359658 -2.401321e-19 -3.3374078e-32)
(22.359733 -2.3063868e-19 4.4712669e-49)
(22.359806 -2.2151408e-19 2.2151408e-19)
(22.359875 4.2536014e-19 2.1268007e-19)
(22.359942 2.041214e-19 -4.082428e-19)
(22.360006 -1.958722e-19 -2.7194906e-32)
(22.360068 0 2.606737e-32)
(22.360128 1.8031794e-19 -1.8031794e-19)
(22.360186 -1.7297327e-19 0)
(22.360242 -1.6589792e-19 1.6589792e-19)
(22.360296 4.772786e-19 1.5909287e-19)
(22.360348 4.3357895e-35 -1.5255203e-19)
(22.360398 -2.9250334e-19 -4.0569611e-32)
(22.360447 1.4017879e-19 1.4017879e-19)
(22.360494 1.865127e-32 0)
(22.360539 1.2872367e-19 0)
(22.360583 -3.5054335e-35 -1.2333648e-19)
(22.360625 -2.3634804e-19 1.6390494e-32)
(22.360666 1.1328329e-19 1.1328329e-19)
(22.360705 0 0)
(22.360741 -2.8954588e-32 -1.0427318e-19)
(22.360775 -1.4201949e-35 1.4201949e-35)
(22.360809 -9.5815008e-20 -2.6605921e-32)
(22.36084 9.1960436e-20 -1.2754723e-32)
(22.360868 -2.4486261e-32 8.8181546e-20)
(22.360895 -1.1704503e-32 -8.4388441e-20)
(22.360921 -1.1466027e-35 1.1466027e-35)
(22.360947 -7.7138446e-20 -2.1419812e-32)
(22.360971 7.373683e-20 -7.373683e-20)
(22.360996 1.5449533e-49 7.0464531e-20)
(22.361019 -1.8692899e-32 1.8692899e-32)
(22.361042 -9.1366546e-36 9.1366546e-36)
(22.361064 -1.2277355e-19 -8.5229428e-33)
(22.361086 -8.1271442e-33 -5.8595997e-20)
(22.361107 5.5918679e-20 5.5918679e-20)
(22.361127 0 0)
(22.361147 0 -2.8257316e-32)
(22.361167 -4.8561177e-20 -6.7353353e-33)
(22.361186 -1.9292098e-32 -1.9292098e-32)
(22.361204 4.4357615e-20 -6.3035962e-36)
(22.361221 -4.2631859e-20 -4.2631859e-20)
(22.361235 5.6985335e-33 4.1043874e-20)
(22.361247 3.5009319e-49 3.5009319e-49)
(22.361258 -5.2114904e-33 -5.2114904e-33)
(22.361269 3.5833222e-20 9.9501727e-33)
(22.36128 3.4219603e-20 -4.7510514e-33)
(22.361289 4.5271833e-33 6.5281189e-20)
(22.361299 -3.1106442e-20 -3.1106442e-20)
(22.361308 0 -2.9632493e-20)
(22.361317 0 -3.9180953e-33)
(22.361326 2.6876672e-20 3.7315585e-33)
(22.361334 -2.5652532e-20 5.1305063e-20)
(22.361342 2.047237e-32 -2.4592266e-20)
(22.361348 2.3592039e-20 -2.3592039e-20)
(22.361354 -2.2522238e-20 5.2480093e-50)
(22.36136 0 0)
(22.361366 2.0468488e-20 4.7048586e-50)
(22.361371 1.9500373e-20 -1.9500373e-20)
(22.361377 -1.8594029e-20 1.8594029e-20)
(22.361383 -1.780019e-20 3.5319377e-50)
(22.361388 0 -2.3786917e-33)
(22.361392 1.6592985e-20 -2.3580049e-36)
(22.361395 1.5945862e-20 -1.5945862e-20)
(22.361397 -3.0309801e-20 3.0309801e-20)
(22.3614 -1.435103e-20 3.9849956e-33)
(22.361402 1.3571353e-20 -1.3571353e-20)
(22.361405 1.2894099e-20 1.788385e-33)
(22.361408 1.6990745e-33 -1.6990745e-33)
(22.361411 1.1491986e-20 1.1491986e-20)
(22.361413 2.9779969e-33 -1.072456e-20)
(22.361416 -2.0427348e-20 -8.3026936e-50)
(22.361418 0 -4.0983666e-33)
(22.361418 0 2.4048379e-33)
(22.361416 0 -2.2460018e-33)
(22.361416 7.2893139e-21 -2.0240974e-33)
(22.361418 6.6054636e-21 1.9388767e-50)
(22.361419 0 0)
(22.361418 -6.1402651e-21 6.1402651e-21)
(22.361417 -7.6570885e-34 0)
(22.361418 4.5955345e-21 0)
(22.361418 0 -4.4373835e-21)
(22.361416 0 -1.2832432e-33)
(22.361413 -4.7358825e-21 4.7358825e-21)
(22.361411 -5.2728435e-34 0)
(22.361412 4.1109494e-34 0)
(22.361411 -3.0817521e-21 -6.1635042e-21)
(22.361408 3.544728e-21 -2.9508863e-33)
(22.361404 -1.6007906e-33 7.6943733e-21)
(22.361402 -3.6387298e-21 -3.6387298e-21)
(22.3614 0 4.5589191e-37)
(22.361396 -2.8824362e-21 -4.0019759e-34)
(22.361396 -3.1095029e-34 -2.2396296e-21)
(22.361396 1.9434024e-21 0)
(22.361395 -2.4320897e-21 0)
(22.361391 2.9860037e-21 0)
(22.361386 3.0202458e-21 -3.0202458e-21)
(22.361384 -2.2240036e-21 -6.1692945e-34)
(22.361385 0 1.8135196e-21)
(22.361384 2.281152e-21 0)
(22.361381 2.8755217e-21 0)
(22.361376 -3.2543195e-21 -3.2543195e-21)
(22.36137 -3.0760587e-21 4.3713423e-37)
(22.361366 0 2.0888318e-21)
(22.361366 -1.6882515e-21 0)
(22.361366 1.9360467e-21 0)
(22.361365 2.2848293e-21 -2.2848293e-21)
(22.361364 -2.8596926e-21 -7.9326694e-34)
(22.361361 -6.4752651e-21 -8.9948623e-34)
(22.361358 1.9035886e-33 9.5179432e-34)
(22.361355 1.0490574e-20 3.496858e-21)
(22.361352 4.0706956e-51 -3.4618601e-21)
(22.36135 -3.3692417e-21 9.3509257e-34)
(22.361348 -6.5592073e-21 -9.1021461e-34)
(22.361346 1.7813091e-33 8.9065455e-34)
(22.361344 6.2816996e-21 3.1408498e-21)
(22.361342 -3.0537745e-21 0)
(22.36134 2.9949538e-21 0)
(22.361337 -2.9905095e-21 -2.9905095e-21)
(22.361335 -2.9795149e-21 -1.2285722e-49)
(22.361332 5.7449994e-21 2.8724997e-21)
(22.36133 0 0)
(22.361327 0 0)
(22.361324 -5.3652137e-21 -2.6826068e-21)
(22.36132 -4.7732459e-50 -9.5464918e-50)
(22.361317 5.0959755e-21 2.5479877e-21)
(22.361315 0 0)
(22.361314 0 0)
(22.361311 -5.0660238e-21 -2.5330119e-21)
(22.361308 6.2384051e-50 1.247681e-49)
(22.361305 5.7643469e-21 2.8821734e-21)
(22.361302 0 0)
(22.361299 0 0)
(22.361297 -6.4037751e-21 -3.2018875e-21)
(22.361295 -3.3940278e-21 4.8232037e-37)
(22.361293 7.2471264e-21 3.6235632e-21)
(22.361291 3.9267907e-21 -3.9267907e-21)
(22.361289 0 1.1961532e-33)
(22.361286 -9.3770444e-21 -1.3025756e-33)
(22.361284 2.7828485e-33 1.3914242e-33)
(22.361282 1.0616046e-20 5.3080232e-21)
(22.36128 -5.6598122e-21 0)
(22.361279 0 0)
(22.361277 6.4718714e-21 0)
(22.361276 -6.7468245e-21 0)
(22.361275 1.0088609e-36 0)
(22.361273 7.5921216e-21 -7.5921216e-21)
(22.361272 -8.0356084e-21 2.2301866e-33)
(22.361271 8.348209e-21 8.348209e-21)
(22.361271 8.0381646e-21 0)
(22.36127 -8.19435e-21 0)
(22.361269 -9.0260614e-21 0)
(22.361268 2.6641171e-33 0)
(22.361267 9.1324281e-21 0)
(22.361267 -8.8066865e-21 0)
(22.361267 -2.5110774e-33 0)
(22.361267 9.3287192e-21 -9.3287192e-21)
(22.361267 -1.0000824e-20 5.5512174e-33)
(22.361266 9.6877022e-21 9.6877022e-21)
(22.361266 9.443137e-21 0)
(22.361267 -1.0247241e-20 0)
(22.361267 -1.0054063e-20 0)
(22.361266 2.7058902e-33 0)
(22.361266 1.0290904e-20 0)
(22.361265 -9.7088094e-21 0)
(22.361265 1.338433e-36 0)
(22.361266 9.3525691e-21 -9.3525691e-21)
(22.361266 -8.8760307e-21 2.4634357e-33)
(22.361265 9.0896661e-21 9.0896661e-21)
(22.361264 9.576868e-21 0)
(22.361263 -8.9046244e-21 0)
(22.361263 -1.6054134e-20 -8.027067e-21)
(22.361263 4.4568891e-33 2.2284445e-33)
(22.361262 1.6551441e-20 8.2757203e-21)
(22.361261 -8.5730077e-21 0)
(22.361261 1.2094677e-36 0)
(22.36126 1.5740056e-20 0)
(22.36126 2.1172583e-36 -7.4494404e-21)
(22.361258 -7.5443603e-21 -2.0959909e-33)
(22.361257 0 7.5059168e-21)
(22.361256 7.131354e-21 0)
(22.361255 0 0)
(22.361254 -6.4931771e-21 0)
(22.361252 0 0)
(22.361251 0 0)
(22.36125 0 0)
(22.361248 -5.7111145e-21 0)
(22.361246 -8.1968553e-51 -5.5846429e-21)
(22.361243 5.446325e-21 7.7396934e-37)
(22.361242 0 5.1826239e-21)
(22.361242 4.7146116e-21 0)
(22.361241 -1.263897e-33 0)
(22.361239 -4.7209889e-21 0)
(22.361237 0 0)
(22.361234 0 0)
(22.361232 0 0)
(22.361231 -4.4174686e-21 0)
(22.36123 1.1885203e-33 -4.280178e-21)
(22.361228 4.2750502e-21 -6.0752117e-37)
(22.361226 0 4.3411306e-21)
(22.361223 4.3562128e-21 0)
(22.361221 1.1818296e-33 0)
(22.36122 -4.0850366e-21 0)
(22.361219 0 -4.0567281e-21)
(22.361217 4.2000983e-21 2.3319705e-33)
(22.361214 -4.3276281e-21 4.3276281e-21)
(22.361211 2.4173178e-33 0)
(22.36121 4.2784006e-21 -4.2784006e-21)
(22.361208 -4.1613479e-21 -1.1561149e-33)
(22.361207 0 4.1446833e-21)
(22.361205 -4.233284e-21 0)
(22.361203 -1.2014462e-33 0)
(22.361201 4.3256221e-21 -4.3256221e-21)
(22.3612 0 -4.2446748e-21)
(22.361198 4.2387003e-21 4.2387003e-21)
(22.361196 -4.323635e-21 4.323635e-21)
(22.361194 -2.4085615e-33 0)
(22.361192 4.2525289e-21 0)
(22.361191 -2.3236081e-33 0)
(22.361189 -5.9388243e-37 0)
(22.361186 1.1691715e-33 4.2083441e-21)
(22.361184 -5.8743985e-37 -5.8743985e-37)
(22.361183 -3.9731675e-21 -7.9463349e-21)
(22.361181 0 -3.8708472e-21)
(22.36118 3.8718566e-21 7.7437131e-21)
(22.361177 -1.0860093e-33 7.8260223e-21)
(22.361175 -1.0733758e-33 -3.8674913e-21)
(22.361173 5.5132815e-51 -3.753783e-21)
(22.361171 -1.0114111e-33 0)
(22.361169 0 0)
(22.361168 -7.0209256e-21 0)
(22.361166 -9.4846985e-34 0)
(22.361164 3.3604697e-21 -3.3604697e-21)
(22.361162 -3.3427744e-21 -9.2869696e-34)
(22.361159 9.0922585e-34 3.276041e-21)
(22.361158 3.1627819e-21 0)
(22.361156 3.0898701e-21 0)
(22.361154 8.6608382e-34 0)
(22.361152 -8.8595139e-34 0)
(22.361149 3.1972152e-21 0)
(22.361146 -3.0916185e-21 0)
(22.361145 -2.9645116e-21 0)
(22.361144 0 0)
(22.361142 -3.0983217e-21 0)
(22.36114 9.0241323e-34 0)
(22.361137 3.3208904e-21 0)
(22.361135 0 0)
(22.361134 0 0)
(22.361132 0 0)
(22.36113 -7.0996998e-21 -3.5498499e-21)
(22.361128 4.1492061e-33 2.0746031e-33)
(22.361125 7.6758961e-21 3.8379481e-21)
(22.361124 0 0)
(22.361123 0 0)
(22.361122 0 3.9643855e-21)
(22.36112 0 -1.1675794e-33)
(22.361118 0 6.3067043e-37)
(22.361115 0 -4.5882705e-21)
(22.361114 0 -4.6470847e-21)
(22.361113 -9.2417678e-21 -2.5655983e-33)
(22.361112 2.6041056e-33 1.3020528e-33)
(22.361111 9.8505666e-21 4.9252833e-21)
(22.361109 5.172512e-21 0)
(22.361107 -5.3293864e-21 0)
(22.361106 -5.4012371e-21 0)
(22.361105 1.4928486e-33 0)
(22.361105 2.9918503e-33 0)
(22.361103 5.5567418e-21 -5.5567418e-21)
(22.361102 -5.7524962e-21 3.19389e-33)
(22.3611 5.8958907e-21 5.8958907e-21)
(22.361099 5.9482173e-21 0)
(22.361097 -5.9085066e-21 0)
(22.361097 -5.8330249e-21 0)
(22.361097 3.0486589e-33 0)
(22.361096 5.3568921e-21 0)
(22.361096 5.6305274e-21 0)
(22.361094 -1.6266848e-33 0)
(22.361093 -5.9620618e-21 -5.9620618e-21)
(22.361092 -5.9605442e-21 3.3085549e-33)
(22.361091 5.9008057e-21 5.9008057e-21)
(22.36109 5.7815769e-21 0)
(22.361089 -5.6687202e-21 0)
(22.361088 5.5939748e-21 0)
(22.361087 0 0)
(22.361086 -5.5202537e-21 0)
(22.361085 -5.3125087e-21 0)
(22.361084 1.424526e-33 0)
(22.361083 5.109739e-21 -5.109739e-21)
(22.361081 -5.1131836e-21 4.2580348e-33)
(22.361079 5.0657978e-21 5.0657978e-21)
(22.361078 4.9156532e-21 0)
(22.361078 -4.6396401e-21 0)
(22.361077 4.4373854e-21 0)
(22.361076 1.2261631e-33 0)
(22.361074 -4.4297638e-21 0)
(22.361072 -4.3684403e-21 0)