/*--------------------------------*- C++ -*----------------------------------*\
  =========                 |
  \\      /  F ield         | OpenFOAM: The Open Source CFD Toolbox
   \\    /   O peration     | Website:  https://openfoam.org
    \\  /    A nd           | Version:  7
     \\/     M anipulation  |
\*---------------------------------------------------------------------------*/
FoamFile
{
    version     2.0;
    format      ascii;
    class       volVectorField;
    location    "0.00013";
    object      U;
}
// * * * * * * * * * * * * * * * * * * * * * * * * * * * * * * * * * * * * * //

dimensions      [0 1 -1 0 0 0 0];

internalField   nonuniform List<vector> 
5000
(
(-5.4972337 1.618342e-16 0)
(-5.5038583 1.6697978e-16 0)
(-5.4756078 0 0)
(-5.4528734 0 0)
(-5.4275888 -8.586306e-17 0)
(-5.4025977 9.7634729e-32 -8.5880416e-17)
(-5.3773721 8.5867258e-17 -1.8303707e-31)
(-5.3521477 0 2.5755403e-16)
(-5.326907 0 8.583389e-17)
(-5.3016598 -8.5816201e-17 -1.716324e-16)
(-5.2764123 -1.715964e-16 -1.715964e-16)
(-5.2511652 8.578004e-17 8.578004e-17)
(-5.2259201 8.576186e-17 -7.312496e-31)
(-5.2006782 -8.5743668e-17 -7.554643e-31)
(-5.1754402 0 1.7145094e-16)
(-5.1502067 -8.5707273e-17 -1.7141455e-16)
(-5.1249782 -9.1472488e-48 -4.5736244e-48)
(-5.0997547 8.5670888e-17 -7.5482305e-31)
(-5.0745366 0 -8.5652701e-17)
(-5.0493238 8.5634519e-17 1.7126904e-16)
(-5.0241164 -8.5616338e-17 8.5616338e-17)
(-4.9989144 -8.5598159e-17 0)
(-4.9737179 1.7115996e-16 0)
(-4.9485267 -8.5561797e-17 -8.5561797e-17)
(-4.9233411 -8.5543613e-17 7.2938871e-31)
(-4.8981609 -7.0492584e-31 -7.0492584e-31)
(-4.8729862 8.5507233e-17 -8.5507233e-17)
(-4.847817 8.5489037e-17 8.5489037e-17)
(-4.8226534 -1.7094167e-16 8.5470836e-17)
(-4.7974954 1.481513e-30 -8.545263e-17)
(-4.772343 -1.4933382e-30 1.4933382e-30)
(-4.7471963 8.5416204e-17 -7.2830236e-31)
(-4.7220552 1.7079597e-16 -8.5397984e-17)
(-4.6969198 -1.7075952e-16 8.537976e-17)
(-4.67179 1.4799336e-30 8.5361532e-17)
(-4.646666 -7.4223436e-30 0)
(-4.6215476 -2.9586027e-30 0)
(-4.5964349 1.7061365e-16 -8.5306827e-17)
(-4.571328 -1.7057717e-16 -8.5288586e-17)
(-4.5462267 -1.7054068e-16 8.5270342e-17)
(-4.5211312 1.7050419e-16 -1.4295761e-30)
(-4.4960413 -5.8624298e-30 -8.5233848e-17)
(-4.4709572 -1.704312e-16 8.5215598e-17)
(-4.4458788 8.5197347e-17 -1.4407653e-30)
(-4.4208061 2.5553728e-16 -8.5179094e-17)
(-4.3957392 -8.5160841e-17 8.5160841e-17)
(-4.3706779 -8.5142586e-17 -2.9280764e-30)
(-4.3456224 -5.8307034e-30 2.9153517e-30)
(-4.3205726 -1.7021215e-16 -2.9268208e-30)
(-4.2955285 0 1.4510048e-30)
(-4.2704902 8.5069562e-17 8.5069562e-17)
(-4.2454575 1.2086518e-32 0)
(-4.2204306 -8.503305e-17 0)
(-4.1954095 1.7002959e-16 0)
(-4.170394 -2.9713687e-30 0)
(-4.1453843 -1.6995656e-16 0)
(-4.1203803 8.4960027e-17 0)
(-4.0953821 -2.9332413e-30 0)
(-4.0703896 -8.492352e-17 0)
(-4.0454028 0 0)
(-4.0204217 8.4887016e-17 0)
(-3.9954464 2.8945385e-30 0)
(-3.9704768 2.4115967e-32 0)
(-3.9455129 8.483227e-17 -8.483227e-17)
(-3.9205547 -8.4814024e-17 -8.4814024e-17)
(-3.8956023 2.9643505e-30 8.479578e-17)
(-3.8706556 8.4777538e-17 -1.4577612e-30)
(-3.8457146 -8.4759299e-17 -5.8156576e-49)
(-3.8207794 -8.4741061e-17 8.4741061e-17)
(-3.7958498 8.4722826e-17 0)
(-3.770926 8.4704594e-17 0)
(-3.7460079 -8.4686365e-17 -8.4686365e-17)
(-3.7210956 -8.4668138e-17 -8.4668138e-17)
(-3.6961889 1.6929983e-16 0)
(-3.671288 8.4631695e-17 8.4631695e-17)
(-3.6463928 -8.4613479e-17 2.9219046e-30)
(-3.6215033 0 -8.4595267e-17)
(-3.5966195 8.4577059e-17 -8.4577059e-17)
(-3.5717414 -1.2016536e-32 8.4558856e-17)
(-3.5468691 -8.4540657e-17 1.6908131e-16)
(-3.5220024 8.4522463e-17 -1.6904493e-16)
(-3.4971415 -2.4017559e-32 4.8035119e-32)
(-3.4722863 2.4012392e-32 2.5345828e-16)
(-3.4474368 8.4467915e-17 -1.6893583e-16)
(-3.422593 8.4449743e-17 -8.7847542e-30)
(-3.3977549 2.93962e-30 1.6886316e-16)
(-3.3729225 -8.4413421e-17 -2.5324026e-16)
(-3.3480958 0 8.439527e-17)
(-3.3232748 -8.4377128e-17 8.4377128e-17)
(-3.2984595 -8.7513378e-30 -8.4358993e-17)
(-3.2736499 -2.9484473e-30 8.4340867e-17)
(-3.248846 8.432275e-17 8.432275e-17)
(-3.2240477 8.4304644e-17 2.9352006e-30)
(-3.1992552 -1.685731e-16 -1.685731e-16)
(-3.1744683 -5.831956e-30 -5.831956e-30)
(-3.1496871 8.4250394e-17 -8.4250394e-17)
(-3.1249116 0 -8.4232337e-17)
(-3.1001417 0 -2.9559901e-30)
(-3.0753775 -8.4196274e-17 5.862855e-30)
(-3.050619 -5.8376766e-30 1.6835654e-16)
(-3.0258661 1.6832059e-16 8.4160293e-17)
(-3.0011188 -8.4142339e-17 -8.4142339e-17)
(-2.9763772 -1.6824883e-16 1.1954799e-32)
(-2.9516412 0 8.4106527e-17)
(-2.9269109 8.4088677e-17 0)
(-2.9021861 8.4070872e-17 -8.4070872e-17)
(-2.8774669 -8.4053119e-17 -2.9264433e-30)
(-2.8527533 -8.4035427e-17 8.4035427e-17)
(-2.8280452 0 -8.4017803e-17)
(-2.8033427 0 -8.4000259e-17)
(-2.7786456 8.3982806e-17 1.6796561e-16)
(-2.7539541 8.3965457e-17 8.3965457e-17)
(-2.7292679 0 -2.5184468e-16)
(-2.7045872 -8.3931128e-17 -8.3931128e-17)
(-2.6799119 2.9335309e-30 2.5174255e-16)
(-2.6552419 8.3897407e-17 -8.3897407e-17)
(-2.6305771 -8.3880823e-17 -8.3880823e-17)
(-2.6059175 2.3835711e-32 -4.7671422e-32)
(-2.5812631 -2.9312285e-30 -8.3848319e-17)
(-2.5566137 -4.6807049e-49 2.5149734e-16)
(-2.5319694 1.6763373e-16 -5.8602577e-30)
(-2.5073299 -3.572677e-32 -1.676032e-16)
(-2.4826952 -8.3786675e-17 1.6757335e-16)
(-2.4580652 0 8.3772126e-17)
(-2.4334398 -8.3757981e-17 -8.3757981e-17)
(-2.4088189 8.3744268e-17 8.3744268e-17)
(-2.3842022 8.3731018e-17 -8.3731018e-17)
(-2.3595898 -1.6743652e-16 -1.6743652e-16)
(-2.3349814 -8.3706021e-17 8.3706021e-17)
(-2.3103769 1.6738866e-16 2.8901642e-30)
(-2.2857761 8.3683212e-17 8.3683212e-17)
(-2.2611788 -8.367269e-17 1.6734538e-16)
(-2.2365849 -8.3662786e-17 -8.3662786e-17)
(-2.2119942 -8.3653517e-17 -8.3653517e-17)
(-2.1874064 0 -8.3644899e-17)
(-2.1628215 8.3636944e-17 -2.9119535e-30)
(-2.1382392 8.3629657e-17 -2.8998153e-30)
(-2.1136592 -8.3623044e-17 2.9114696e-30)
(-2.0890815 -2.8993799e-30 1.672342e-16)
(-2.0645058 8.3611822e-17 8.3611822e-17)
(-2.0399319 -8.3607194e-17 -8.3607194e-17)
(-2.0153596 -8.36032e-17 -1.672064e-16)
(-1.9907888 0 -8.3599813e-17)
(-1.9662193 8.3597004e-17 -8.3597004e-17)
(-1.9416508 8.3594731e-17 5.7972086e-30)
(-1.9170833 -8.359295e-17 1.671859e-16)
(-1.8925166 8.3591602e-17 -2.3758162e-32)
(-1.8679506 -4.7515769e-32 2.3757884e-32)
(-1.8433852 -8.358994e-17 -2.3496665e-48)
(-1.8188204 8.3589463e-17 8.3589463e-17)
(-1.794256 -8.3589092e-17 -5.7968175e-30)
(-1.769692 5.8205486e-30 1.1641097e-29)
(-1.7451285 8.3588198e-17 8.3588198e-17)
(-1.7205656 -8.3587399e-17 -8.3587399e-17)
(-1.6960033 8.3586147e-17 8.3586147e-17)
(-1.6714418 8.3584254e-17 2.898241e-30)
(-1.6468813 -8.3581507e-17 -8.3581507e-17)
(-1.6223221 0 8.3577663e-17)
(-1.5977646 0 -1.187636e-32)
(-1.5732092 -8.3565566e-17 -8.3565566e-17)
(-1.5486564 -8.3556664e-17 0)
(-1.5241068 8.3545363e-17 8.3545363e-17)
(-1.4995613 8.3531235e-17 5.7809347e-30)
(-1.4750207 -8.3513804e-17 -1.6702761e-16)
(-1.4504861 -5.790122e-30 8.3492544e-17)
(-1.4259587 8.3466872e-17 -2.3722712e-32)
(-1.4014398 -8.3436146e-17 -8.3436146e-17)
(-1.3769311 -8.3399663e-17 8.3399663e-17)
(-1.3524342 0 -8.3356655e-17)
(-1.3279513 8.3306284e-17 8.3306284e-17)
(-1.3034847 8.3247646e-17 -3.4686152e-29)
(-1.2790368 0 -2.3073724e-29)
(-1.2546106 -8.3101583e-17 8.3101583e-17)
(-1.2302092 -8.3011988e-17 -1.6602398e-16)
(-1.2058361 0 0)
(-1.1814953 8.2793707e-17 -5.7416584e-30)
(-1.1571909 1.7197663e-29 -1.7197663e-29)
(-1.1329276 -8.251455e-17 8.251455e-17)
(-1.1087105 8.2348623e-17 8.2348623e-17)
(-1.0845451 8.216314e-17 5.662901e-30)
(-1.0604373 -8.1956549e-17 -8.1956549e-17)
(-1.0363936 -5.6444729e-30 8.1727257e-17)
(-1.0124209 5.6038011e-30 5.6038011e-30)
(-0.98852648 3.4615117e-32 3.4615117e-32)
(-0.96471823 8.08869e-17 1.1207352e-29)
(-0.94100447 -8.0550475e-17 -1.6110095e-16)
(-0.91739403 -1.1121241e-29 8.0183174e-17)
(-0.89389618 5.4875451e-30 7.97834e-17)
(-0.87052069 -5.4577083e-30 -5.4577083e-30)
(-0.84727775 7.8880287e-17 5.4366381e-30)
(-0.82417799 0 -1.6294338e-29)
(-0.80123244 0 5.3752762e-30)
(-0.77845251 -7.7245496e-17 -7.7245496e-17)
(-0.75584996 -7.662087e-17 0)
(-0.73343685 0 0)
(-0.7112255 0 0)
(-0.68922847 7.4494288e-17 0)
(-0.6674585 3.9122348e-47 -7.3698947e-17)
(-0.64592843 -7.2859672e-17 1.5189292e-29)
(-0.6246512 0 7.1976321e-17)
(-0.60363972 7.1048952e-17 7.1048952e-17)
(-0.58290691 -7.0077823e-17 -7.0077823e-17)
(-0.56246555 -1.9138274e-29 -6.9063402e-17)
(-0.54232825 1.3601273e-16 1.3601273e-16)
(-0.52250742 -6.6907593e-17 4.6304646e-30)
(-0.50301515 -1.365483e-29 -1.365483e-29)
(-0.48386319 -9.1787136e-33 -6.4589455e-17)
(-0.46506289 -6.3372895e-17 -6.3372895e-17)
(-0.44662512 6.2120212e-17 6.2120212e-17)
(-0.42856022 -8.6449312e-33 0)
(-0.41087795 -8.237584e-30 5.9514214e-17)
(-0.39358745 4.0254311e-30 4.0254311e-30)
(-0.37669716 -5.6788649e-17 -5.6788649e-17)
(-0.36021483 0 -5.5387082e-17)
(-0.34414741 5.3963156e-17 7.5152532e-30)
(-0.3285011 3.6347189e-30 5.2519632e-17)
(-0.31328123 1.4170913e-29 -1.0211872e-16)
(-0.29849232 4.9585271e-17 4.9585271e-17)
(-0.28413799 0 4.8100342e-17)
(-0.27022101 -4.6607591e-17 -4.6607591e-17)
(-0.25674324 -4.5110056e-17 4.5110056e-17)
(-0.24370565 0 0)
(-0.23110832 0 0)
(-0.21895046 0 0)
(-0.20723041 3.913239e-17 3.913239e-17)
(-0.19594564 2.606042e-30 -3.7655832e-17)
(-0.18509282 -3.6192083e-17 -7.2384166e-17)
(-0.17466779 0 3.4743817e-17)
(-0.16466565 0 -2.3149978e-30)
(-0.15508074 3.1903859e-17 3.1903859e-17)
(-0.14590672 3.0516907e-17 3.0516907e-17)
(-0.13713659 -2.91549e-17 -5.83098e-17)
(-0.12876273 -2.7819843e-17 7.9068749e-33)
(-0.12077695 0 -7.535614e-33)
(-0.11317056 2.5237808e-17 2.5237808e-17)
(-0.10593439 2.3994031e-17 2.3994031e-17)
(-0.099058845 -2.2783599e-17 -4.5567197e-17)
(-0.092533955 -2.1607688e-17 3.0706372e-33)
(-0.086349437 0 -4.2639769e-30)
(-0.080494733 1.9363288e-17 1.9363288e-17)
(-0.074959066 -5.0805202e-30 -1.016104e-29)
(-0.06973148 -1.1974397e-30 -2.3948794e-30)
(-0.064800895 1.6275333e-17 1.6275333e-17)
(-0.06015615 -1.5321893e-17 -1.5321893e-17)
(-0.055786042 -1.4406605e-17 0)
(-0.051679376 0 -1.3529388e-17)
(-0.047824998 1.2690027e-17 1.2690027e-17)
(-0.044211834 -1.6522459e-30 1.1888187e-17)
(-0.040828926 1.1123418e-17 -1.1123418e-17)
(-0.037665462 1.4417882e-30 0)
(-0.034710806 -1.9405563e-17 -9.7027814e-18)
(-0.031954528 9.0455267e-18 9.0455267e-18)
(-0.029386422 -1.1681956e-30 8.4225878e-18)
(-0.026996535 -2.7194203e-30 -2.7194203e-30)
(-0.024775178 -5.035537e-31 -1.4552132e-17)
(-0.02271295 -6.7505469e-18 -1.3501094e-17)
(-0.020800745 6.2554883e-18 1.8766465e-17)
(-0.019029768 5.7898199e-18 1.157964e-17)
(-0.017391541 0 0)
(-0.015877912 -4.9422456e-18 -9.8844911e-18)
(-0.01448106 -4.5580945e-18 -4.5580945e-18)
(-0.013193494 0 4.1988568e-18)
(-0.012008057 3.8633978e-18 3.8633978e-18)
(-0.010917925 3.5505889e-18 3.5505889e-18)
(-0.0099166047 -6.5186244e-18 -6.5186244e-18)
(-0.0089979276 -2.9884649e-18 -5.9769298e-18)
(-0.0081560473 2.736964e-18 2.736964e-18)
(-0.0073854319 2.5037492e-18 5.0074983e-18)
(-0.0066808574 6.3462259e-31 6.3462259e-31)
(-0.0060373993 -2.0880714e-18 -4.1761427e-18)
(-0.0054504241 1.9036297e-18 1.9036297e-18)
(-0.0049155793 -1.2021791e-31 -2.4043582e-31)
(-0.0044287839 -1.5768399e-18 -1.5768399e-18)
(-0.0039862179 1.4327159e-18 2.8654317e-18)
(-0.0035843116 -9.0360347e-32 -1.3003158e-18)
(-0.0032197348 8.2086635e-32 1.6417327e-31)
(-0.0028893857 -3.0341329e-34 1.0675406e-18)
(-0.0025903803 -6.669485e-32 -9.6568577e-19)
(-0.0023200409 8.7259512e-19 8.7259512e-19)
(-0.0020758854 0 -1.575243e-18)
(-0.0018556168 0 2.9629806e-31)
(-0.0016571124 -6.3961713e-19 1.2792343e-18)
(-0.0014784137 -5.7546975e-19 -1.1509395e-18)
(-0.0013177164 0 -3.5794088e-32)
(-0.0011733606 0 4.6434566e-19)
(-0.0010438215 0 0)
(-0.00092770061 0 0)
(-0.00082371686 3.3391833e-19 3.3391833e-19)
(-0.00073069857 2.0576116e-32 -2.9853927e-19)
(-0.00064757551 -5.3326617e-19 -5.3326617e-19)
(-0.00057337153 1.0141958e-34 2.3789227e-19)
(-0.00050719747 2.1203264e-19 -6.02633e-35)
(-0.00044824451 1.8879197e-19 1.8879197e-19)
(-0.0003957779 -2.3315236e-32 1.6792875e-19)
(-0.00034913104 -2.0675428e-32 -1.4922091e-19)
(-0.0003077 -1.8824348e-35 0)
(-0.00027093825 -1.1747285e-19 -1.1747285e-19)
(-0.00023835195 -1.0407474e-19 -1.0407474e-19)
(-0.00020949534 -9.2113971e-20 0)
(-0.00018396662 1.6289596e-19 1.6289596e-19)
(-0.00016140405 2.1584068e-19 7.1946892e-20)
(-0.00014148237 -6.349258e-20 -1.2698516e-19)
(-0.00012390945 -1.1195549e-19 3.8740439e-33)
(-0.00010842327 0 -1.4013342e-35)
(-9.4789066e-05 4.3386403e-20 4.3386403e-20)
(-8.2796776e-05 3.8142046e-20 3.8142046e-20)
(-7.2258638e-05 -3.3499997e-20 -3.3499997e-20)
(-6.3007031e-05 8.3546529e-36 2.9395322e-20)
(-5.4892485e-05 -1.0986212e-35 -2.5769532e-20)
(-4.7781868e-05 6.4147852e-36 1.282957e-35)
(-4.1556738e-05 1.974952e-20 3.9499041e-20)
(-3.6111838e-05 1.7265637e-20 -1.7265637e-20)
(-3.1353734e-05 -1.5080379e-20 -1.5080379e-20)
(-2.7199579e-05 -2.6319499e-20 -1.315975e-20)
(-2.3575998e-05 1.1473367e-20 -1.5913323e-33)
(-2.0418069e-05 6.6545085e-50 9.9941094e-21)
(-1.7668416e-05 8.6978004e-21 0)
(-1.5276387e-05 2.0957709e-33 0)
(-1.3197312e-05 -1.3140589e-20 -6.5702946e-21)
(-1.1391837e-05 0 7.9179694e-34)
(-9.8253316e-06 0 -1.3726384e-33)
(-8.4673498e-06 8.5707891e-21 -5.9559339e-34)
(-7.2911547e-06 -2.0603793e-33 3.7099874e-21)
(-6.2732887e-06 -6.4181613e-21 -3.2090806e-21)
(-5.3931948e-06 0 3.9412829e-37)
(-4.6328737e-06 2.3948856e-21 2.3948856e-21)
(-3.9765821e-06 2.0662585e-21 0)
(-3.4105648e-06 -1.7812261e-21 0)
(-2.9228134e-06 2.1802695e-37 0)
(-2.5028558e-06 -1.8332177e-34 0)
(-2.1415702e-06 1.6135007e-37 0)
(-1.831016e-06 9.7553086e-22 0)
(-1.5642886e-06 -8.3748541e-22 0)
(-1.3353901e-06 -7.1838876e-22 -7.1838876e-22)
(-1.1391149e-06 0 0)
(-9.709495e-07 5.27315e-22 5.27315e-22)
(-8.269835e-07 -6.264938e-35 0)
(-7.038336e-07 -3.8582268e-22 -3.8582268e-22)
(-5.9857361e-07 6.5926336e-22 -9.1438471e-35)
(-5.0867596e-07 -7.805968e-35 2.8140172e-22)
(-4.3195928e-07 -2.4004008e-22 0)
(-3.6654129e-07 -5.6812931e-35 0)
(-3.1080188e-07 -3.4850869e-22 -1.7425434e-22)
(-2.633462e-07 2.9659136e-22 -2.0589379e-35)
(-2.2297343e-07 1.2610707e-22 1.2610707e-22)
(-1.8865347e-07 -1.0715645e-22 0)
(-1.5950084e-07 -1.292965e-38 0)
(-1.3475628e-07 -7.7194611e-23 -7.7194611e-23)
(-1.1376956e-07 0 -6.5445923e-23)
(-9.5982944e-08 0 5.5443698e-23)
(-8.0919328e-08 4.6934917e-23 4.6934917e-23)
(-6.8171654e-08 -5.5066452e-36 0)
(-5.7392326e-08 -6.711948e-23 -3.355974e-23)
(-4.8283206e-08 4.0283367e-39 4.0283367e-39)
(-4.0592041e-08 7.1779061e-23 2.3926354e-23)
(-3.4102541e-08 -2.0180257e-23 -2.0180257e-23)
(-2.8630452e-08 -1.7008596e-23 -1.7008596e-23)
(-2.4020163e-08 2.8650077e-23 1.4325039e-23)
(-2.0138163e-08 -1.2056172e-23 1.2056172e-23)
(-1.6872479e-08 1.0139425e-23 0)
(-1.4127002e-08 1.704249e-23 -8.5212452e-24)
(-1.1819925e-08 -7.1562368e-24 -7.1562368e-24)
(-9.8827942e-09 -6.0058442e-24 6.0058442e-24)
(-8.2579831e-09 -5.0370844e-24 5.0370844e-24)
(-6.895129e-09 4.2214334e-24 0)
(-5.7536401e-09 6.0321893e-53 -3.5354841e-24)
(-4.7983662e-09 -2.9589198e-24 -2.9589198e-24)
(-3.9986754e-09 2.4746666e-24 2.4746666e-24)
(-3.3305026e-09 -2.0683357e-24 2.0683357e-24)
(-2.7721762e-09 1.7273623e-24 0)
(-2.3057024e-09 3.9957212e-37 0)
(-1.9164246e-09 3.4186503e-40 0)
(-1.5918742e-09 1.0026544e-24 0)
(-1.3217205e-09 -1.6707191e-24 0)
(-1.0963691e-09 6.9511968e-25 0)
(-9.0901013e-10 1.6056469e-37 0)
(-7.5354026e-10 -1.3343038e-37 0)
(-6.2380197e-10 -3.9969382e-25 -3.9969382e-25)
(-5.1609931e-10 -6.6370757e-25 -4.7461289e-53)
(-4.2703068e-10 8.2639192e-25 2.7546397e-25)
(-3.5318547e-10 6.3370294e-38 0)
(-2.913712e-10 -1.0495661e-37 0)
(-2.4054925e-10 4.3410998e-38 0)
(-1.9861462e-10 -2.5909927e-25 -1.2954964e-25)
(-1.6401529e-10 2.1421035e-25 -1.4855267e-38)
(-1.3511811e-10 -2.4566705e-38 8.8561895e-26)
(-1.1099425e-10 -1.4621832e-25 -7.3109162e-26)
(-9.1347698e-11 0 8.3778388e-39)
(-7.5293206e-11 0 -7.0486892e-42)
(-6.1783275e-11 4.0835748e-26 -5.6696373e-39)
(-5.0529515e-11 -4.6940958e-39 3.3844019e-26)
(-4.1754319e-11 -2.7865585e-26 -2.7865585e-26)
(-3.4324328e-11 -2.3103103e-26 2.3103103e-26)
(-2.8150141e-11 1.8999262e-26 -1.0556834e-38)
(-2.3122173e-11 4.5750224e-26 -1.5250075e-26)
(-1.8844865e-11 -1.2564846e-26 1.2564846e-26)
(-1.5234644e-11 -1.0436928e-26 0)
(-1.2389853e-11 -2.4335618e-42 0)
(-1.0009025e-11 -6.9917286e-27 -6.9917286e-27)
(-8.3839288e-12 0 -8.01909e-40)
(-6.7168937e-12 9.626293e-27 4.8131465e-27)
(-5.4023295e-12 7.8023638e-27 -3.9011819e-27)
(-4.3048772e-12 -3.1918761e-27 -3.1918761e-27)
(-3.5058922e-12 -5.3704582e-27 0)
(-2.865512e-12 -1.9759233e-27 1.9759233e-27)
(-2.1589557e-12 2.9385526e-27 1.4692763e-27)
(-1.6675313e-12 2.2292468e-27 -1.1146234e-27)
(-1.233298e-12 -1.7225998e-27 -2.3904344e-40)
(-1.0075571e-12 -1.6212704e-27 3.9030665e-56)
(-4.7923484e-13 0 -7.7377184e-41)
(-3.0229251e-13 1.013294e-27 5.06647e-28)
(-1.6247364e-13 -4.559823e-28 -4.559823e-28)
(4.282573e-14 -7.093058e-28 7.806133e-56)
(2.3796729e-13 3.039882e-28 -4.2205737e-41)
(3.4748632e-13 2.026588e-28 -2.026588e-28)
(3.0594177e-13 -3.5999434e-44 0)
(2.7931573e-13 2.8137158e-41 0)
(2.9637327e-13 5.06647e-29 5.06647e-29)
(7.5293697e-14 5.06647e-29 -7.1998869e-45)
(1.9457514e-13 1.013294e-28 4.2162538e-41)
(1.6326361e-13 -1.013294e-28 -1.013294e-28)
(1.1493686e-13 -2.1081269e-41 0)
(2.2591762e-13 -2.8799547e-44 0)
(1.1002848e-13 0 0)
(1.7878782e-13 5.06647e-29 -1.4046979e-41)
(8.8410903e-14 1.519941e-28 1.519941e-28)
(7.497223e-14 -1.2661721e-40 0)
(1.7850213e-13 -1.4068579e-41 0)
(2.715368e-13 1.4061379e-41 0)
(8.7613642e-14 7.9630323e-44 7.9630323e-44)
(1.0048225e-13 2.026588e-28 2.8799547e-44)
(6.612388e-14 -1.4068579e-41 1.013294e-28)
(4.886779e-14 2.8093959e-41 1.013294e-28)
(2.2561141e-13 -8.782132e-56 5.8981473e-45)
(1.8371403e-13 -3.039882e-28 -4.2248936e-41)
(1.4032722e-13 -2.533235e-28 -5.06647e-28)
(2.20599e-13 2.026588e-28 2.026588e-28)
(2.6993782e-13 4.1401997e-41 8.6264692e-54)
(1.1821662e-13 -7.0342895e-42 7.0342895e-42)
(-2.9619496e-14 -3.039882e-28 -2.1102868e-41)
(-1.9563808e-13 -2.026588e-28 -2.026588e-28)
(-1.0086541e-13 4.053176e-28 0)
(1.1028094e-14 1.013294e-28 0)
(3.4154045e-14 -1.013294e-28 1.013294e-28)
(-5.0765747e-14 -5.06647e-29 7.0342895e-42)
(1.4140779e-14 -1.4061379e-41 -1.4061379e-41)
(1.3043343e-14 2.533235e-28 -1.4636499e-56)
(-1.175629e-13 0 -3.039882e-28)
(6.2554402e-14 0 5.06647e-29)
(1.2041293e-13 -1.013294e-28 -1.013294e-28)
(1.7454363e-13 0 0)
(2.2991933e-13 2.026588e-28 2.026588e-28)
(6.4524365e-14 -5.06647e-29 7.0342895e-42)
(7.5998048e-14 7.1998869e-45 5.06647e-29)
(4.2244418e-14 -1.4061379e-41 0)
(9.281405e-14 0 0)
(2.6979098e-13 1.519941e-28 1.519941e-28)
(4.8042245e-13 -2.533235e-28 -7.1998869e-44)
(3.3198551e-13 -2.533235e-28 4.8788331e-57)
(2.403923e-13 4.053176e-28 2.026588e-28)
(2.6477565e-13 1.013294e-28 -1.013294e-28)
(1.7643843e-13 7.0401774e-42 -9.8597678e-55)
(2.5216119e-13 0 -9.6146527e-55)
(2.0254654e-13 0 2.8122758e-41)
(1.8285259e-13 1.519941e-28 1.519941e-28)
(2.7305994e-13 -5.6303115e-41 -2.026588e-28)
(3.5023328e-13 -2.026588e-28 5.6274316e-41)
(3.5460333e-13 0 -5.6303115e-41)
(4.605322e-13 0 5.6303115e-41)
(5.5754204e-13 2.533235e-28 2.533235e-28)
(4.9428673e-13 -1.2666041e-40 -3.039882e-28)
(3.9712201e-13 -1.013294e-28 2.8137158e-41)
(1.8748462e-13 0 2.1146068e-41)
(1.0091482e-13 0 0)
(3.152086e-13 0 -4.559823e-28)
(3.9587923e-13 0 2.026588e-28)
(2.2067909e-13 0 -3.5171447e-41)
(1.9528198e-13 0 3.5999434e-44)
(1.4569378e-13 0 -1.4068579e-41)
(3.5987389e-14 0 -7.0414894e-42)
(1.2736458e-13 -3.039882e-28 -1.519941e-28)
(-1.9445347e-14 -2.8122758e-41 5.06647e-29)
(-3.4507475e-14 -5.06647e-29 -5.06647e-29)
(-2.1824442e-15 5.06647e-29 5.06647e-29)
(-3.8833576e-14 -5.06647e-29 5.06647e-29)
(-2.8882849e-14 1.519941e-28 0)
(-1.7396723e-14 -2.8165957e-41 -1.013294e-28)
(1.1957901e-13 2.533235e-28 2.533235e-28)
(-4.1795196e-14 9.8480053e-41 0)
(-1.4769249e-13 2.026588e-28 -2.026588e-28)
(-2.6829464e-13 0 2.1102868e-41)
(-4.158594e-13 0 -1.4399774e-44)
(-6.4791747e-13 -5.06647e-29 -7.0270896e-42)
(-6.2462616e-13 2.8137158e-41 -1.013294e-28)
(-6.8843044e-13 -2.026588e-28 2.026588e-28)
(-6.324049e-13 0 1.4054179e-41)
(-4.8956603e-13 0 1.4068579e-41)
(-5.9068289e-13 0 7.4737179e-42)
(-5.4867737e-13 0 -5.06647e-29)
(-7.1323202e-13 0 1.013294e-28)
(-7.1494346e-13 0 4.3482335e-60)
(-7.7786693e-13 0 -2.1081269e-41)
(-9.2715592e-13 -2.8620787e-41 -1.4310393e-41)
(-1.0036403e-12 -1.2653081e-40 -1.519941e-28)
(-8.7911138e-13 2.026588e-28 -1.4068579e-41)
(-7.1578667e-13 -1.013294e-28 -1.013294e-28)
(-7.3107756e-13 2.1599661e-44 0)
(-7.2039517e-13 1.519941e-28 0)
(-7.275454e-13 -2.8093959e-41 0)
(-8.8411449e-13 -2.026588e-28 -1.013294e-28)
(-8.5288081e-13 -1.519941e-28 -1.519941e-28)
(-1.1259883e-12 1.4636499e-56 2.533235e-28)
(-1.2450714e-12 1.0639587e-27 3.546529e-28)
(-1.0469307e-12 0 0)
(-9.1123341e-13 -3.039882e-28 -1.519941e-28)
(-7.3234553e-13 0 -1.013294e-28)
(-4.9399102e-13 0 -1.013294e-28)
(-4.8739431e-13 -3.039882e-28 -1.519941e-28)
(-3.698354e-13 2.8108358e-41 0)
(-2.398056e-13 3.039882e-28 1.013294e-28)
(-3.1001634e-13 -2.026588e-28 2.026588e-28)
(-2.5665488e-13 -2.026588e-28 -2.026588e-28)
(-2.7401073e-13 2.026588e-28 -5.6274316e-41)
(-2.6595153e-13 -1.4049387e-41 1.4061183e-41)
(-4.3924893e-13 -1.4134915e-41 0)
(-4.8027905e-13 3.9300942e-54 0)
(-3.1094628e-13 1.519941e-28 0)
(-2.9139139e-13 5.06647e-29 0)
(-3.0856398e-13 0 -1.013294e-28)
(-5.6457497e-13 -5.06647e-29 -1.4054179e-41)
(-3.2940609e-13 5.06647e-29 -5.06647e-29)
(-2.0764241e-13 -1.013294e-28 -5.06647e-29)
(-4.5987666e-13 1.013294e-28 -1.4068579e-41)
(-4.7563046e-13 5.06647e-29 7.0414894e-42)
(-8.3468496e-14 1.013294e-28 9.7576662e-57)
(-2.4829343e-13 5.06647e-29 -5.06647e-29)
(-1.9996203e-13 1.013294e-28 5.06647e-29)
(3.6721636e-14 1.013294e-28 -2.026588e-28)
(1.5639041e-13 -1.4061183e-41 -1.9713927e-54)
(2.8107385e-13 0 -2.8108358e-41)
(8.5369752e-14 -2.026588e-28 2.026588e-28)
(2.0017119e-13 5.06647e-29 0)
(2.7132382e-13 7.0423879e-42 -7.0423879e-42)
(2.2799965e-13 1.519941e-28 5.06647e-29)
(1.3369032e-13 2.8799547e-44 -1.013294e-28)
(4.6721998e-13 -1.013294e-28 -1.4054179e-41)
(2.1708222e-13 2.026588e-28 2.026588e-28)
(4.3766015e-14 2.1102868e-41 0)
(2.0034947e-13 -8.5528471e-44 0)
(2.0329668e-13 -2.8799547e-44 -1.013294e-28)
(1.853562e-13 -6.079764e-28 4.2162538e-41)
(1.2366988e-13 4.053176e-28 4.053176e-28)
(7.3893215e-14 0 0)
(6.0191963e-15 -1.4068579e-41 -5.06647e-29)
(1.5143023e-13 1.4399774e-44 -1.4399774e-44)
(5.8883231e-14 1.519941e-28 4.2205737e-41)
(4.8141614e-14 -2.026588e-28 2.8108358e-41)
(1.6816179e-13 7.0342895e-41 -2.533235e-28)
(1.7058795e-13 4.9189627e-41 3.546529e-28)
(1.8388696e-13 2.8799547e-44 -2.8799547e-44)
(9.9348704e-14 -5.06647e-29 -1.4068579e-41)
(-4.087336e-14 -5.8981473e-45 1.7694442e-44)
(1.1283698e-13 -4.8788331e-57 -5.06647e-29)
(2.1601282e-13 -1.4068579e-41 1.4068579e-41)
(1.6578513e-13 3.9043707e-56 -3.9043707e-56)
(3.1001739e-13 2.026588e-28 1.4068579e-41)
(4.4721872e-13 1.4054179e-41 1.013294e-28)
(4.8183781e-13 -2.026588e-28 -2.026588e-28)
(5.7330854e-13 0 0)
(4.2493209e-13 0 2.8129958e-41)
(5.0595081e-13 1.013294e-28 1.4054179e-41)
(5.2782118e-13 6.3243806e-41 6.3243806e-41)
(5.0358789e-13 1.1796295e-44 -9.7595252e-57)
(4.637038e-13 -1.519941e-28 -1.519941e-28)
(4.3845052e-13 2.1102868e-41 1.519941e-28)
(4.8024742e-13 -1.9515332e-56 -1.9515332e-56)
(3.6475754e-13 -1.4068579e-41 -1.4068579e-41)
(3.2442756e-13 1.013294e-28 2.8137158e-41)
(2.0590072e-13 5.06647e-29 -7.0342895e-42)
(3.9460893e-13 -2.8108358e-41 -4.053176e-28)
(5.7599687e-13 3.039882e-28 3.039882e-28)
(4.8755093e-13 0 1.519941e-28)
(3.762393e-13 0 7.0342895e-42)
(4.2646529e-13 -1.013294e-28 -1.4068579e-41)
(4.3707171e-13 1.013294e-28 -2.026588e-28)
(5.4752549e-13 -8.4353875e-41 1.013294e-28)
(7.9178261e-13 -1.519941e-28 1.519941e-28)
(8.2274317e-13 2.026588e-28 -2.2326034e-71)
(7.6984827e-13 0 0)
(6.2827382e-13 -2.533235e-28 4.8788331e-57)
(6.0665428e-13 -2.026588e-28 2.026588e-28)
(6.6432048e-13 1.519941e-28 -1.519941e-28)
(6.4825406e-13 5.06647e-29 -1.4636499e-56)
(4.4278007e-13 0 -7.0270896e-42)
(2.5773563e-13 -1.0691059e-43 1.5192908e-59)
(3.8472088e-13 -4.1695129e-43 4.1695129e-43)
(2.923497e-13 1.013294e-28 -1.013294e-28)
(2.9594582e-13 1.013294e-28 -2.8137158e-41)
(3.5008845e-13 5.06647e-29 -5.06647e-29)
(3.3978635e-13 5.06647e-29 7.0270896e-42)
(1.7703304e-13 1.4054179e-41 -1.4054179e-41)
(6.0888649e-14 2.533235e-28 2.533235e-28)
(5.578535e-14 4.2205737e-41 -1.519941e-28)
(7.3996324e-14 -2.026588e-28 -5.5171424e-69)
(-4.704369e-14 0 -4.2220137e-41)
(-4.4670121e-14 0 1.4075779e-41)
(-5.3211795e-14 0 0)
(-1.3565129e-13 -3.2073177e-43 8.9060829e-56)
(-1.8282988e-13 1.519941e-28 -1.4636499e-56)
(-3.3638436e-13 0 0)
(-4.4951241e-13 -2.533235e-28 2.533235e-28)
(-3.0277266e-13 -2.1059669e-41 0)
(-3.836699e-13 1.519941e-28 0)
(-2.1726841e-13 0 -2.026588e-28)
(-1.2405524e-13 0 -1.4068579e-41)
(-1.7364844e-13 -5.06647e-29 5.06647e-29)
(-2.026128e-13 -2.1081269e-41 0)
(-2.8152829e-13 7.0198897e-42 0)
(-2.4006284e-13 -1.013294e-28 -2.026588e-28)
(-3.9610122e-13 5.06647e-29 -4.2176937e-41)
(-3.6600792e-13 2.1081269e-41 -1.013294e-28)
(-3.6457492e-13 5.06647e-29 5.06647e-29)
(-3.1770851e-13 0 -2.1599661e-44)
(-2.1351064e-13 5.06647e-29 7.0342895e-42)
(-1.91466e-13 -7.0342895e-42 -5.06647e-29)
(-2.7253228e-13 5.06647e-29 0)
(-4.1366907e-13 -1.013294e-28 0)
(-3.9048991e-13 1.013294e-28 0)
(-3.3181586e-13 5.06647e-29 -5.06647e-29)
(-4.2635124e-13 -5.06647e-29 -1.4054179e-41)
(-1.4915431e-13 0 -5.06647e-29)
(-1.3017476e-13 -3.546529e-28 0)
(-3.4190381e-13 -5.06647e-28 0)
(-2.4726558e-13 3.039882e-28 3.039882e-28)
(-1.1086246e-13 -5.06647e-29 7.1998869e-45)
(-1.4806321e-13 0 5.06647e-29)
(-8.528993e-14 5.06647e-29 0)
(-1.5314521e-13 1.013294e-28 0)
(-2.991554e-13 2.026588e-28 -2.026588e-28)
(-2.7326595e-13 -2.533235e-28 -7.0270896e-41)
(-1.6634306e-13 -3.039882e-28 -4.2227337e-41)
(-1.4933815e-13 2.8137158e-41 1.4068579e-41)
(-1.3239841e-13 8.1107527e-44 2.5069793e-44)
(-9.0015632e-14 -4.8788331e-57 5.06647e-29)
(-7.5814355e-14 5.06647e-29 -1.4061379e-41)
(-9.5076421e-14 2.026588e-28 2.8122758e-41)
(-3.7627464e-14 7.7378548e-54 3.9869427e-54)
(-1.3026033e-14 3.039882e-28 1.519941e-28)
(6.8721041e-14 -1.013294e-28 0)
(7.5854896e-14 0 0)
(1.3622762e-13 2.533235e-28 2.533235e-28)
(-2.7323867e-14 2.533235e-28 6.0985414e-55)
(-2.2871852e-13 2.026588e-28 1.013294e-28)
(-2.4426138e-13 0 0)
(-2.7079351e-13 0 0)
(-3.9995231e-13 -1.1328281e-40 -5.6641407e-41)
(-5.2703954e-13 -1.1709199e-55 -2.3418399e-55)
(-4.5573421e-13 -1.013294e-28 -5.06647e-29)
(-4.6995486e-13 0 0)
(-7.0027283e-14 0 0)
(-1.4265214e-13 5.06647e-28 2.533235e-28)
(-2.8681024e-13 1.5612266e-55 3.1224532e-55)
(-3.7276276e-13 2.026588e-28 1.013294e-28)
(-4.4015058e-13 0 0)
(-4.3861464e-13 0 0)
(-5.4563006e-13 -3.039882e-28 -1.519941e-28)
(-6.0616742e-13 -3.546529e-28 5.0399208e-44)
(-6.5942446e-13 3.039882e-28 1.519941e-28)
(-4.8049486e-13 -1.013294e-28 1.013294e-28)
(-7.0095976e-13 0 2.8151558e-41)
(-8.0086503e-13 -4.053176e-28 -5.6303115e-41)
(-9.8307937e-13 1.1254863e-40 5.6274316e-41)
(-1.0802523e-12 3.039882e-28 1.519941e-28)
(-8.5582484e-13 -5.06647e-29 0)
(-7.8740746e-13 0 0)
(-9.924807e-13 1.013294e-28 0)
(-1.0297778e-12 -5.06647e-29 0)
(-7.9103231e-13 1.4399774e-44 0)
(-9.924486e-13 2.8485862e-41 -2.8485862e-41)
(-8.9181153e-13 1.013294e-28 -2.8122758e-41)
(-1.0436944e-12 -5.06647e-29 -5.06647e-29)
(-8.4879276e-13 4.2764235e-43 0)
(-5.6322051e-13 5.06647e-29 0)
(-9.4164007e-13 -1.519941e-28 0)
(-1.0567273e-12 7.0342895e-41 0)
(-9.2638697e-13 -5.06647e-29 0)
(-7.8622644e-13 1.519941e-28 0)
(-9.1740857e-13 3.9619267e-54 0)
(-1.0700626e-12 1.519941e-28 -1.519941e-28)
(-8.3969253e-13 5.5175627e-41 -3.0659173e-53)
(-5.4002871e-13 -3.039882e-28 -3.039882e-28)
(-5.7168078e-13 -3.546529e-28 0)
(-5.9533492e-13 2.533235e-28 0)
(-3.9844174e-13 5.06647e-29 0)
(-5.0610886e-13 -4.0239827e-54 0)
(-6.7897111e-13 -5.06647e-29 0)
(-4.8469005e-13 5.06647e-29 0)
(-4.90066e-13 -7.1998869e-45 0)
(-5.6859695e-13 1.4967482e-43 -1.4967482e-43)
(-4.7809424e-13 -5.06647e-29 1.4061379e-41)
(-5.3597618e-13 1.3997037e-41 1.3991139e-41)
(-5.5204634e-13 0 0)
(-5.0093455e-13 1.013294e-28 0)
(-5.5834922e-13 2.026588e-28 1.013294e-28)
(-6.5486872e-13 1.1260623e-40 5.6303115e-41)
(-6.8046596e-13 6.079764e-28 3.039882e-28)
(-7.7495972e-13 -2.026588e-28 0)
(-7.2945356e-13 -4.6888377e-59 0)
(-6.87482e-13 -1.013294e-28 0)
(-4.6718743e-13 -4.3199321e-44 1.519941e-28)
(-4.3953434e-13 1.519941e-28 4.2227337e-41)
(-5.0465862e-13 0 -5.06647e-29)
(-5.457306e-13 -1.013294e-28 0)
(-7.555447e-13 0 0)
(-6.3463572e-13 -2.533235e-28 0)
(-7.1772142e-13 0 0)
(-6.3511728e-13 0 0)
(-5.0097891e-13 0 0)
(-5.2836736e-13 1.4018419e-41 0)
(-4.1964458e-13 9.7576662e-57 -2.3630853e-43)
(-3.7239017e-13 -5.06647e-29 -7.1998869e-45)
(-3.2512937e-13 0 -1.519941e-28)
(-2.7517841e-13 5.06647e-29 0)
(-2.9246055e-13 -5.6274316e-41 0)
(-1.2857425e-13 -2.7439244e-41 0)
(-2.7942586e-13 0 0)
(-3.0043469e-13 0 0)
(-2.5797353e-13 0 0)
(-2.1927149e-13 2.533235e-28 0)
(-2.5585159e-13 -2.8137158e-41 1.013294e-28)
(-2.478212e-13 -5.06647e-29 7.1998869e-45)
(-1.5004347e-13 0 -5.06647e-29)
(-1.3272678e-13 -1.013294e-28 0)
(-1.9399784e-13 -2.8122758e-41 0)
(-2.6927044e-15 1.519941e-28 0)
(-1.1502813e-13 0 1.013294e-28)
(-2.7082356e-13 -6.5290632e-56 -3.6271391e-68)
(-4.2088871e-13 -5.06647e-29 5.06647e-29)
(-4.4695017e-13 2.8151558e-41 0)
(-2.5657144e-13 5.06647e-29 -5.06647e-29)
(-2.9086962e-13 -1.013294e-28 -2.8151558e-41)
(-2.692746e-13 0 5.06647e-29)
(-1.1923581e-13 5.06647e-29 0)
(8.7150663e-16 2.8137158e-41 0)
(6.490444e-14 -1.013294e-28 1.013294e-28)
(5.9724721e-14 0 1.013294e-28)
(-2.3637368e-14 2.8095086e-41 2.8095086e-41)
(6.3129385e-14 2.803094e-41 -2.8036838e-41)
(-2.518664e-14 2.8137158e-41 0)
(8.1955964e-15 1.013294e-28 0)
(1.6847697e-14 -2.8129958e-41 0)
(-1.0852466e-13 -1.4399774e-44 0)
(-1.8984078e-13 5.6303115e-41 2.026588e-28)
(-4.1659656e-14 -1.4399774e-44 -1.4399774e-44)
(-1.9070351e-13 -2.026588e-28 -4.053176e-28)