/*--------------------------------*- C++ -*----------------------------------*\
  =========                 |
  \\      /  F ield         | OpenFOAM: The Open Source CFD Toolbox
   \\    /   O peration     | Website:  https://openfoam.org
    \\  /    A nd           | Version:  7
     \\/     M anipulation  |
\*---------------------------------------------------------------------------*/
FoamFile
{
    version     2.0;
    format      ascii;
    class       volScalarField;
    location    "0.00045";
    object      Ux;
}
// * * * * * * * * * * * * * * * * * * * * * * * * * * * * * * * * * * * * * //

dimensions      [0 1 -1 0 0 0 0];

internalField   nonuniform List<scalar> 
5000
(
6.8531483e-13
5.0908651e-13
4.1205667e-13
3.6923279e-13
6.5415398e-13
4.3939412e-13
3.7821159e-13
6.274795e-13
5.4536831e-13
6.4721521e-13
6.3750844e-13
8.2350808e-13
8.7673448e-13
9.5681435e-13
8.4042951e-13
7.1185888e-13
9.5771382e-13
1.0920922e-12
1.3556928e-12
1.2036637e-12
1.3920059e-12
1.2473041e-12
1.1697997e-12
1.5988773e-12
1.4563934e-12
1.5828688e-12
1.4253595e-12
1.2419984e-12
1.5788814e-12
1.890759e-12
1.9668159e-12
2.0142221e-12
2.1134631e-12
1.9284578e-12
2.120273e-12
1.8586091e-12
1.9658064e-12
2.0392007e-12
1.6297724e-12
1.5987425e-12
1.81397e-12
1.9151379e-12
1.7462228e-12
1.9271438e-12
2.0858068e-12
1.7658244e-12
1.7801287e-12
1.9437477e-12
1.8353132e-12
1.8141534e-12
2.095273e-12
1.9914306e-12
2.0021684e-12
2.1546838e-12
2.083212e-12
2.0220024e-12
1.9083685e-12
2.0187013e-12
1.7093193e-12
1.881972e-12
1.8448694e-12
1.9560454e-12
2.2313816e-12
2.2133042e-12
2.3704748e-12
2.3332664e-12
2.2058158e-12
2.0865774e-12
2.4622825e-12
2.2230909e-12
2.1997944e-12
2.3801419e-12
2.0947517e-12
2.0360418e-12
1.7823373e-12
1.7425216e-12
1.7167328e-12
1.3754513e-12
1.6772067e-12
1.624219e-12
1.5693421e-12
1.5855613e-12
1.7030924e-12
1.8040511e-12
1.5003557e-12
1.677484e-12
1.9655758e-12
1.9908785e-12
1.6252845e-12
1.6817541e-12
1.6110355e-12
1.5920602e-12
1.3738826e-12
1.1971811e-12
1.3063088e-12
1.364006e-12
1.1078818e-12
1.1754619e-12
1.2958564e-12
1.2102784e-12
9.5366748e-13
6.3355681e-13
8.6652148e-13
8.1787538e-13
8.7575247e-13
9.3813129e-13
8.2236963e-13
9.2116015e-13
1.1093064e-12
1.0055584e-12
7.6147726e-13
1.0707214e-12
1.046508e-12
8.5978959e-13
9.7470313e-13
8.1243249e-13
7.575367e-13
8.111916e-13
9.7475983e-13
1.0777236e-12
9.7962834e-13
1.0796857e-12
8.8029764e-13
6.9417222e-13
6.2505907e-13
5.3334675e-13
5.40955e-13
6.2082187e-13
8.3610213e-13
7.1825449e-13
6.0132613e-13
8.6395499e-13
8.5576975e-13
7.3761291e-13
8.4510426e-13
7.7680254e-13
9.7071155e-13
9.1402069e-13
8.1878625e-13
1.0461751e-12
9.9503098e-13
6.7267507e-13
7.3041302e-13
9.6565026e-13
8.4636132e-13
9.7927761e-13
9.408004e-13
9.3189603e-13
8.6958749e-13
8.2709337e-13
7.0157721e-13
7.7302018e-13
7.6024871e-13
7.3739878e-13
6.0258527e-13
7.9819919e-13
7.922807e-13
7.5248943e-13
8.2978974e-13
7.2230694e-13
6.6913162e-13
5.3988774e-13
7.0186346e-13
3.5490174e-13
5.2126442e-13
3.9149437e-13
4.1783617e-13
4.1095121e-13
1.5486768e-13
2.0119952e-13
1.6921725e-13
3.394181e-13
2.2850135e-13
9.0423579e-14
-9.0834879e-14
-5.1839971e-14
-2.9452188e-13
-3.3592463e-13
-5.0816087e-13
-5.3749887e-13
-4.517854e-13
-3.0577463e-13
-4.9223649e-13
-6.1180367e-13
-6.1103393e-13
-5.4487532e-13
-5.2132187e-13
-7.0646966e-13
-5.9623165e-13
-7.4476874e-13
-6.0087947e-13
-6.865006e-13
-5.6973288e-13
-6.7399937e-13
-6.1680017e-13
-5.1015532e-13
-5.7879699e-13
-6.0469692e-13
-4.1229954e-13
-2.4789179e-13
-4.9278218e-13
-2.7110366e-13
-1.4589166e-13
-1.9932461e-13
-1.6644389e-13
-1.7669487e-13
-1.4111727e-13
-4.7220089e-14
4.4670893e-14
-3.2477215e-13
-3.0879612e-13
-2.6759334e-13
-2.1622622e-13
-4.6997223e-13
-3.9503812e-13
-3.9343748e-13
-4.0150843e-13
-1.861415e-13
-3.7480215e-13
-3.7083208e-13
-3.3780987e-13
-1.5090513e-13
-4.1817091e-13
-3.3457646e-13
-4.0414754e-13
-2.7339564e-13
-4.4510861e-13
-5.1763632e-13
-4.5304205e-13
-6.0318818e-13
-4.1083915e-13
-4.0675079e-13
-2.5772318e-13
-2.9517171e-13
-3.4022757e-13
-3.3150235e-13
-2.4241577e-13
-1.1568937e-13
-7.0046411e-14
-1.4242745e-13
-1.8671008e-14
-8.8835948e-14
3.7138881e-14
-8.4723289e-14
-1.3820483e-13
-2.1601061e-13
-6.5345623e-14
8.5584086e-14
1.0974777e-13
-6.7725958e-14
-3.0870228e-13
-3.2993941e-13
-2.4146195e-13
-2.9915441e-13
-3.1791924e-13
-2.7321124e-13
-4.016248e-13
-5.327704e-13
-7.889989e-13
-4.9074781e-13
-3.7772208e-13
-4.0704324e-13
-3.6582296e-13
-5.2101497e-13
-5.3591177e-13
-4.1863025e-13
-5.0486454e-13
-7.1130268e-13
-6.6091553e-13
-4.7175677e-13
-5.2969839e-13
-4.8799401e-13
-4.6656616e-13
-5.1247491e-13
-6.1941185e-13
-5.6177594e-13
-4.9592024e-13
-4.217627e-13
-2.7768083e-13
-4.3376324e-13
-3.2681858e-13
-4.1990212e-13
-4.7284783e-13
-6.0537944e-13
-6.1892992e-13
-3.8270089e-13
-2.4899299e-13
-2.0758206e-13
-2.6492838e-13
-7.5104482e-14
-6.3080273e-14
2.6921303e-13
2.7255168e-13
2.5420464e-13
3.0152374e-13
4.0464308e-13
1.8582407e-13
2.6655835e-13
4.2534398e-13
3.1137851e-13
5.1486472e-13
4.7092655e-13
4.1027298e-13
3.6566172e-13
3.0367827e-13
2.964793e-13
3.5493615e-13
2.8990337e-13
3.9907797e-13
2.0050312e-13
4.5556919e-13
3.905289e-13
5.3954614e-13
8.4710636e-13
6.9471312e-13
4.0965345e-13
5.2535999e-13
7.0612899e-13
6.83603e-13
8.1988481e-13
7.3407481e-13
6.3284274e-13
4.1705543e-13
6.3361205e-13
6.1128258e-13
3.8890046e-13
4.9462402e-13
6.3966905e-13
8.3138699e-13
8.5539478e-13
7.0705672e-13
6.7272373e-13
6.319047e-13
8.213119e-13
1.0413054e-12
1.1225926e-12
9.8993465e-13
9.6815966e-13
9.5009601e-13
7.7305829e-13
7.505455e-13
7.7456053e-13
7.3251544e-13
6.2253734e-13
6.9417623e-13
5.9218669e-13
6.0232968e-13
7.3254963e-13
8.7464715e-13
1.1310331e-12
9.4325488e-13
5.9261668e-13
5.0739019e-13
5.3007337e-13
5.5448447e-13
6.7947149e-13
7.9226853e-13
8.4446486e-13
6.772744e-13
6.5499578e-13
7.8619028e-13
6.572456e-13
5.5508669e-13
5.0206164e-13
7.0674059e-13
6.016854e-13
7.1720566e-13
6.1450594e-13
5.3240035e-13
5.4629846e-13
3.8941569e-13
7.7457154e-13
6.83886e-13
5.9935774e-13
4.9120372e-13
4.6630189e-13
5.3778743e-13
6.3594502e-13
6.969985e-13
5.448683e-13
6.1192213e-13
6.9801757e-13
9.2572809e-13
1.0844408e-12
9.8399553e-13
1.0458637e-12
1.1129055e-12
9.7102136e-13
1.0023676e-12
1.287391e-12
1.3192031e-12
1.1770628e-12
1.2596642e-12
1.1206335e-12
1.2552605e-12
1.3449671e-12
1.401023e-12
1.4284077e-12
1.5734976e-12
1.423404e-12
1.4442699e-12
1.5533006e-12
1.4965899e-12
1.5319129e-12
1.7789838e-12
1.781045e-12
1.6045556e-12
1.5092233e-12
1.5360896e-12
1.5538769e-12
1.2709738e-12
1.5554585e-12
1.4972017e-12
1.5088201e-12
1.5833819e-12
1.7215885e-12
1.8977495e-12
1.9612159e-12
1.8869234e-12
1.7353661e-12
1.7657947e-12
2.0247657e-12
2.0305706e-12
2.1577128e-12
1.8466856e-12
1.8258337e-12
1.9949781e-12
1.7231062e-12
2.1447905e-12
2.1966666e-12
2.0860447e-12
2.2295923e-12
2.0251482e-12
1.9650285e-12
2.1426195e-12
2.2665956e-12
2.6081596e-12
2.6534205e-12
2.3514291e-12
2.3831595e-12
2.5896528e-12
2.3582267e-12
2.5308652e-12
2.6043421e-12
2.5624717e-12
2.4484875e-12
2.438184e-12
2.4071874e-12
2.1579353e-12
2.4133294e-12
2.6286138e-12
2.5560577e-12
2.7151142e-12
2.6852753e-12
2.2538176e-12
2.3955831e-12
2.2982421e-12
2.2586846e-12
2.1760701e-12
2.0898635e-12
2.1187992e-12
2.0982677e-12
2.1396711e-12
1.726357e-12
1.5321957e-12
1.3486598e-12
1.2891526e-12
1.196428e-12
8.4289417e-13
8.0830852e-13
1.0187684e-12
1.1476585e-12
1.1478901e-12
1.5402033e-12
1.2622678e-12
1.3976858e-12
1.7618509e-12
1.6601916e-12
1.7761004e-12
1.6914491e-12
1.548851e-12
1.4551789e-12
1.5541837e-12
1.6959907e-12
1.3232722e-12
1.2622074e-12
1.5651385e-12
1.6152424e-12
1.7180747e-12
1.8317673e-12
1.8859432e-12
2.0397612e-12
2.0653226e-12
1.8254793e-12
1.6025011e-12
1.3629415e-12
1.5961134e-12
1.8269949e-12
1.6080733e-12
1.6703461e-12
1.5509636e-12
1.7840972e-12
2.1055273e-12
1.6580672e-12
1.5864964e-12
1.6277305e-12
1.6961607e-12
1.7729134e-12
1.6841257e-12
1.5921881e-12
1.4665162e-12
1.4659418e-12
1.5638427e-12
1.7896332e-12
1.7462984e-12
1.882788e-12
1.6375296e-12
1.3605414e-12
1.2664025e-12
1.1096621e-12
1.1373363e-12
1.0553392e-12
1.0884095e-12
1.0074272e-12
1.150076e-12
1.2182339e-12
9.7188037e-13
1.3089944e-12
1.354413e-12
1.0715881e-12
1.1967866e-12
1.303166e-12
1.265853e-12
1.0421711e-12
1.0736809e-12
1.1519455e-12
1.0874703e-12
9.9167754e-13
1.3435435e-12
1.2717711e-12
1.1876892e-12
1.3885521e-12
1.2576223e-12
1.2225819e-12
1.3167628e-12
1.6261705e-12
1.3957568e-12
1.2227022e-12
1.0979411e-12
8.3103574e-13
1.0018467e-12
9.5894485e-13
8.0385502e-13
7.1397411e-13
7.7999987e-13
5.2553272e-13
4.6381121e-13
5.5065939e-13
5.9531936e-13
4.9046693e-13
5.9748257e-13
6.0790378e-13
4.586816e-13
5.1013124e-13
5.8914709e-13
6.8569292e-13
4.5101444e-13
1.9040315e-13
2.7289905e-13
1.5396918e-13
1.1178497e-14
-4.1738581e-14
-1.2811341e-13
3.362161e-14
-1.0559325e-13
7.3301108e-14
4.4332484e-14
3.9012856e-14
-1.2025908e-13
-6.5232267e-14
-6.7115079e-14
-1.0598304e-13
2.71826e-15
1.1299273e-13
-6.6219318e-14
-6.1669076e-14
5.2736711e-14
-6.7189424e-15
6.2593854e-14
-6.3133025e-14
2.3089246e-14
2.266705e-13
3.8844003e-13
3.9711335e-13
2.5666281e-13
1.047525e-13
9.7136003e-14
1.5089871e-13
2.6565376e-13
8.5058523e-14
3.8975434e-14
-4.7827716e-14
5.0819847e-14
-5.6109306e-14
1.258245e-14
-1.9528074e-13
-3.7330994e-13
-3.1690063e-13
-2.5855618e-13
-2.7664949e-13
-4.4809555e-13
-5.3967028e-13
-7.6341641e-13
-8.0431134e-13
-8.4301574e-13
-6.7000003e-13
-6.5194628e-13
-7.4816729e-13
-8.3179937e-13
-5.7947688e-13
-5.9298196e-13
-6.8737459e-13
-7.1026146e-13
-7.599641e-13
-6.7898456e-13
-7.7019287e-13
-4.5601084e-13
-5.9579282e-13
-5.1811081e-13
-4.6944801e-13
-5.2778959e-13
-4.8605727e-13
-4.7383445e-13
-3.8953975e-13
-5.5885656e-13
-3.5910959e-13
-1.2999631e-13
-8.5958177e-14
-3.8526348e-13
-3.8658546e-13
-3.3065935e-13
-1.8032701e-13
-2.1281209e-13
-3.0256141e-13
2.8397077e-14
1.9494823e-13
6.2786452e-14
8.4500064e-14
5.4589285e-15
-2.4294055e-14
-7.6646051e-14
-1.4105626e-13
7.4166835e-14
2.2750274e-13
2.5586273e-13
2.3338816e-13
1.9507242e-13
4.4876652e-14
1.7106202e-13
4.1823916e-13
2.2716089e-13
5.5197253e-13
1.9193596e-13
1.8806656e-13
3.0704779e-13
2.1910526e-13
2.2045573e-13
2.8291392e-13
3.737852e-13
2.8497129e-13
3.1626199e-13
3.3267583e-13
1.5624111e-13
1.5004467e-13
4.4216759e-13
3.3335439e-13
3.7131386e-13
5.9147133e-13
5.1238702e-13
4.0407784e-13
3.912684e-13
4.0705719e-13
6.8875285e-13
5.9153437e-13
6.474266e-13
4.3360238e-13
4.5626151e-13
4.3744868e-13
3.0638678e-13
5.6519215e-13
4.9542908e-13
4.8813182e-13
5.6465096e-13
6.4415537e-13
6.684702e-13
4.5380818e-13
4.6746588e-13
6.3880357e-13
6.149325e-13
6.5518825e-13
6.2336932e-13
5.1808449e-13
4.3183051e-13
5.5001409e-13
3.9314479e-13
2.8157825e-13
3.7660182e-13
6.8090327e-13
5.5560553e-13
4.136159e-13
5.2761851e-13
3.9145789e-13
4.1814706e-13
3.4949692e-13
4.3031413e-13
2.9914896e-13
1.5774116e-13
1.757851e-13
2.8830351e-13
3.8284103e-13
3.8189039e-13
4.3125991e-13
5.1526417e-13
4.8758118e-13
4.2424469e-13
3.3814814e-13
4.1287307e-13
4.5623437e-13
4.7804322e-13
4.2011565e-13
4.718294e-13
4.4332508e-13
4.0522163e-13
5.8555126e-13
6.2314043e-13
4.0337235e-13
3.8081295e-13
1.8402592e-13
1.3794441e-13
2.7676447e-13
4.1171422e-13
2.2549505e-13
1.1272023e-13
2.2483606e-14
-1.1503398e-13
4.3530322e-14
7.5566507e-14
8.2420194e-14
-6.1391238e-14
-5.0420093e-14
-2.8671985e-14
-1.6543215e-13
-8.3319596e-14
-3.3820683e-14
1.1430114e-13
3.0548298e-13
1.5245149e-13
-5.2101554e-14
-8.0400934e-14
-7.1964147e-14
-1.6021505e-13
6.9289312e-15
1.490054e-14
-8.3715215e-14
8.2867919e-14
8.212878e-14
-3.4435869e-14
-3.0907031e-14
2.1298362e-13
7.8325717e-14
8.0618211e-14
2.8248069e-13
4.2414907e-13
4.0188958e-13
3.6512258e-13
4.6897929e-13
3.2288564e-13
2.3674078e-13
2.318482e-13
2.4335688e-13
1.4987627e-13
1.696399e-13
5.3987216e-14
-1.1551668e-14
-2.9429289e-14
-5.8404777e-14
7.4613877e-14
9.0399383e-15
9.413583e-14
2.4897906e-14
-7.6585176e-14
-5.9904667e-14
-2.2117019e-13
-1.8628613e-13
-3.374143e-13
-2.7666394e-13
-1.105137e-13
-2.0039596e-13
-3.0195444e-13
-7.4469438e-14
-4.7852833e-14
5.5202058e-14
1.4155613e-13
-5.5471399e-14
5.5715563e-14
3.036698e-14
3.9752156e-15
1.0346314e-13
2.1724119e-13
2.9504116e-13
1.9698086e-13
2.181751e-13
1.682052e-13
7.923729e-14
4.0757903e-14
8.4062955e-14
-1.13489e-13
-1.0556941e-13
-1.0021117e-13
-2.0278276e-13
-7.7527345e-14
-3.0511244e-13
-2.8265672e-13
-4.6351573e-14
5.7985555e-14
-5.0620796e-14
1.959804e-13
2.3861774e-14
-1.0570076e-13
-5.3278595e-14
-2.2279856e-13
-1.1659582e-13
-2.3262811e-13
-3.5362005e-13
-3.3581644e-13
-3.7833361e-13
-4.5066778e-13
-5.7220244e-13
-4.3063662e-13
-3.6739056e-13
-3.4857545e-13
-6.0450788e-13
-7.8650533e-13
-7.3054962e-13
-7.324819e-13
-5.6928393e-13
-7.3966074e-13
-6.6542971e-13
-6.1410213e-13
-5.7484045e-13
-4.6185904e-13
-6.3384835e-13
-4.7083865e-13
-5.2451562e-13
-7.0420345e-13
-6.8072763e-13
-7.8942928e-13
-9.4497204e-13
-7.5616522e-13
-8.1885135e-13
-9.0463237e-13
-7.8329991e-13
-5.3657286e-13
-4.287498e-13
-6.5082824e-13
-4.6634239e-13
-4.8006682e-13
-5.1856155e-13
-5.3614733e-13
-6.6020207e-13
-5.1125717e-13
-5.0549995e-13
-6.0994272e-13
-5.7949616e-13
-5.4839101e-13
-4.5324695e-13
-5.4456357e-13
-6.5263417e-13
-4.2153038e-13
-6.401521e-13
-7.3272786e-13
-8.0713915e-13
-1.0802824e-12
-8.6789558e-13
-6.6538927e-13
-8.2782639e-13
-9.1893927e-13
-9.8555298e-13
-1.0310167e-12
-7.4109916e-13
-7.3289025e-13
-7.9448611e-13
-6.5533968e-13
-8.5740136e-13
-7.1009672e-13
-6.0586915e-13
-6.6600497e-13
-5.431381e-13
-5.4866854e-13
-5.3447286e-13
-7.2373309e-13
-5.9227356e-13
-4.7099856e-13
-5.4304579e-13
-4.3698154e-13
-3.7186988e-13
-3.474432e-13
-3.5165527e-13
-2.0205808e-13
-6.8820425e-14
-3.353491e-14
-1.4317493e-13
-7.3028305e-14
1.4812591e-13
1.0020096e-13
2.9265805e-14
-2.2686386e-14
-1.2575318e-13
-2.3691974e-13
-2.9290684e-13
-3.689745e-13
-3.576796e-13
-4.003896e-13
-4.4862595e-13
-1.950068e-13
-4.3076654e-13
-6.1626682e-13
-5.4271959e-13
-3.6274314e-13
-4.8385777e-13
-4.5271101e-13
-3.4246071e-13
-3.6321519e-13
-2.7667429e-13
-2.3850581e-13
-1.49666e-14
-2.616341e-13
-2.9911953e-13
-1.6133544e-13
-1.0940899e-13
-7.1589438e-14
-1.3219787e-13
-1.9350307e-13
-4.8994901e-15
-9.7390424e-15
5.4862937e-14
-9.2429781e-14
3.0946617e-14
1.8793792e-13
7.4289705e-14
2.1597765e-13
1.818531e-13
1.305269e-13
1.5531695e-13
2.6674405e-13
1.3594108e-13
8.8032331e-14
1.606856e-14
1.058954e-13
1.5920395e-13
1.8254512e-14
-1.5050298e-15
8.1834676e-14
1.0113261e-13
1.5350657e-13
-7.0795412e-15
3.7551502e-14
2.3335724e-14
-8.818178e-14
-6.9434469e-14
-1.1468095e-13
-7.006242e-14
2.8959828e-15
2.7899654e-14
-5.2478713e-14
-2.0144226e-14
-1.0462858e-14
-2.3161025e-14
5.2282063e-14
1.1489798e-13
9.8779949e-14
-8.7407799e-14
-1.0888789e-13
-7.8796429e-14
-6.6094156e-14
-1.456898e-13
-9.8673252e-14
-1.5439943e-13
-1.676672e-13
5.9096668e-14
1.4376329e-14
6.7930208e-15
-5.3773794e-14
3.1582554e-14
-4.7181017e-13
-5.0343802e-13
-4.2189251e-13
-3.4272748e-13
-9.1815869e-14
-1.9234871e-13
-4.4926474e-13
-5.5290241e-13
-6.2440571e-13
-6.5846073e-13
-6.6642817e-13
-6.2399174e-13
-8.0136291e-13
-8.4484821e-13
-8.3711875e-13
-7.2420039e-13
-7.6690885e-13
-9.3742088e-13
-1.0967027e-12
-1.2152889e-12
-1.4844303e-12
-1.521262e-12
-1.3171156e-12
-1.3358965e-12
-1.1498893e-12
-1.2630368e-12
-1.0859195e-12
-1.1809451e-12
-1.2871424e-12
-1.0971254e-12
-1.1438173e-12
-1.0913322e-12
-9.783243e-13
-1.2593949e-12
-1.5843732e-12
-1.6061061e-12
-1.3013748e-12
-1.3091037e-12
-1.1071664e-12
-1.161097e-12
-1.2957549e-12
-9.7575467e-13
-1.0627009e-12
-1.0160908e-12
-1.1054036e-12
-1.3132244e-12
-1.2117359e-12
-1.3189636e-12
-1.3211748e-12
-9.5743535e-13
-8.4440249e-13
-9.6651373e-13
-1.0010487e-12
-9.3716547e-13
-8.5719742e-13
-9.3153689e-13
-8.3277624e-13
-7.8311974e-13
-8.5516133e-13
-9.6786348e-13
-9.3096079e-13
-7.2511543e-13
-9.0388739e-13
-8.0123836e-13
-6.815722e-13
-7.8399673e-13
-8.9183528e-13
-8.4589792e-13
-9.0200426e-13
-7.5893563e-13
-6.0098692e-13
-8.6528536e-13
-9.7035855e-13
-8.3558578e-13
-6.9326047e-13
-6.1607737e-13
-6.1026523e-13
-5.6626263e-13
-3.9382686e-13
-3.3392265e-13
-2.1597509e-13
-1.685036e-13
-7.6794589e-14
-3.0518891e-13
-2.0305849e-13
-3.7058201e-13
-4.7158665e-13
-2.8014293e-13
-3.0925801e-13
-2.5455607e-13
-2.5869311e-13
-3.119748e-13
-2.6702538e-13
-3.343141e-13
-2.8979458e-13
-1.6917524e-13
-2.2034949e-13
-1.3240704e-13
-3.4242301e-13
-4.8627827e-13
-4.4307106e-13
-3.1382186e-13
-3.3908479e-13
-3.2710497e-13
-3.1092968e-13
-3.3660547e-13
-4.6617277e-13
-3.9244061e-13
-4.1184107e-13
-3.5588826e-13
-3.5651822e-13
-3.1257948e-13
-3.9281735e-13
-1.5987586e-13
-3.8255892e-14
-2.3306294e-13
-4.2786309e-14
1.5003121e-13
1.3411366e-13
8.567281e-14
1.5244631e-13
3.0668848e-13
2.5044311e-13
1.7280119e-13
2.5465656e-13
3.0508128e-13
8.7185147e-14
4.4903994e-14
2.4141903e-13
1.9036348e-13
2.2019722e-13
3.9654246e-13
3.1883461e-13
3.637891e-13
2.6089599e-13
2.6946483e-13
4.7027073e-13
3.9813301e-13
4.2226651e-13
3.8049306e-13
3.3304653e-13
4.7862386e-13
6.6528394e-13
6.5325612e-13
6.3642408e-13
6.0409967e-13
6.4717972e-13
4.8859946e-13
5.0174344e-13
4.4180498e-13
3.0178313e-13
1.3076878e-13
6.0809581e-14
3.3757499e-13
4.7623396e-13
3.9479136e-13
3.9377913e-13
3.8437194e-13
6.6617876e-13
5.6839298e-13
5.4536005e-13
5.7916918e-13
3.2711712e-13
2.5899167e-13
4.951698e-13
5.9787767e-13
6.0051231e-13
6.4481801e-13
7.7791361e-13
6.4437144e-13
6.8805075e-13
7.0384343e-13
9.0925308e-13
6.3976693e-13
7.6231017e-13
6.0891926e-13
4.5152659e-13
7.6586928e-13
7.0853685e-13
6.3909316e-13
3.8695222e-13
3.2998788e-13
6.050992e-13
8.3330647e-13
5.3457308e-13
5.7291665e-13
1.0320172e-12
8.9188273e-13
7.7362995e-13
7.3451461e-13
6.4460827e-13
6.7480213e-13
7.4303862e-13
6.1899242e-13
4.6102608e-13
7.9555947e-13
5.881053e-13
4.8673963e-13
6.0377233e-13
6.5010901e-13
6.7507433e-13
4.8300244e-13
7.3960124e-13
9.2498903e-13
7.720101e-13
6.8767895e-13
5.2559901e-13
5.5700514e-13
2.7585396e-13
3.2171874e-13
3.4111141e-13
3.6626186e-13
4.7870742e-13
4.0906832e-13
2.9220247e-13
1.5250071e-13
1.8681581e-13
3.5468297e-13
4.1074128e-13
2.5541892e-13
2.0732237e-13
2.4046029e-13
4.15103e-13
3.5296957e-13
4.9495069e-13
4.9491057e-13
6.3693764e-13
5.2060152e-13
4.0484563e-13
4.8962407e-13
4.1339612e-13
5.3094402e-13
4.1063469e-13
4.5465679e-13
3.4943492e-13
3.4796638e-13
2.897063e-13
1.1540627e-13
1.0484459e-13
2.0667559e-13
4.14232e-14
2.0352315e-13
-2.7467061e-14
-5.433741e-15
-1.0567496e-13
-2.1732611e-13
-3.7309564e-13
-4.9618405e-13
-5.7531458e-13
-5.981114e-13
-5.831871e-13
-5.6127105e-13
-4.8504745e-13
-4.9804008e-13
-2.6238356e-13
-3.3635544e-13
-4.4269668e-13
-2.3667096e-13
-8.9276105e-14
5.9614253e-14
-2.2828049e-13
-3.7442808e-13
-3.006398e-13
-4.0382244e-13
-2.0341774e-13
-2.0725748e-13
-1.9640211e-13
-1.0068741e-13
-3.3616179e-13
-2.7740372e-13
-2.748928e-13
-3.7448091e-13
-5.2292408e-13
-4.2634644e-13
-3.5201785e-13
-2.6400488e-13
-3.1982395e-13
-4.3679758e-13
-3.1835635e-13
-4.5926052e-13
-4.4266799e-13
-2.711711e-13
-1.6114186e-13
-2.8168167e-13
-2.8438272e-13
-2.7437325e-13
-6.5815008e-14
-1.5896439e-13
3.6077992e-14
5.9203028e-14
4.4043621e-14
-5.4251471e-16
-9.9268246e-14
-1.1292965e-13
8.5287213e-14
2.8528219e-13
2.9281897e-13
4.0577988e-13
3.0740018e-13
3.7933152e-13
3.8424082e-13
4.2060237e-13
5.7119678e-13
6.5298789e-13
6.2970519e-13
6.7629347e-13
8.0506588e-13
6.6298161e-13
7.5188228e-13
9.5143225e-13
6.912173e-13
7.4547415e-13
9.4255627e-13
8.6298632e-13
1.0892584e-12
9.7564392e-13
1.2247221e-12
1.3895496e-12
1.104703e-12
1.2416018e-12
1.1530311e-12
1.4732521e-12
1.8003031e-12
1.9001558e-12
2.1296047e-12
2.133522e-12
2.2908487e-12
2.8510387e-12
2.8787163e-12
3.1172989e-12
3.4483619e-12
3.6638145e-12
4.0630813e-12
4.6627388e-12
5.2742824e-12
5.9966083e-12
6.7426732e-12
7.2328578e-12
8.1176439e-12
9.0654138e-12
9.8922944e-12
1.0914255e-11
1.2233426e-11
1.3699277e-11
1.5468689e-11
1.7323419e-11
1.9191888e-11
2.1242394e-11
2.3418887e-11
2.5973106e-11
2.9031544e-11
3.2443461e-11
3.6214865e-11
4.0322378e-11
4.4679874e-11
4.9965721e-11
5.5759445e-11
6.1898128e-11
6.9287878e-11
7.7812301e-11
8.7069936e-11
9.6880258e-11
1.0805166e-10
1.2084113e-10
1.3468993e-10
1.5025546e-10
1.681731e-10
1.8744634e-10
2.0877992e-10
2.326226e-10
2.5999942e-10
2.9043874e-10
3.2355738e-10
3.609395e-10
4.0223652e-10
4.4844332e-10
4.9991528e-10
5.5703718e-10
6.2046196e-10
6.9111228e-10
7.6945157e-10
8.5656407e-10
9.5381688e-10
1.0609506e-09
1.1805525e-09
1.3142059e-09
1.4619072e-09
1.6252926e-09
1.807243e-09
2.0096218e-09
2.2339642e-09
2.4818643e-09
2.7571801e-09
3.0635955e-09
3.4027041e-09
3.7777627e-09
4.1936673e-09
4.6547637e-09
5.1655481e-09
5.7311183e-09
6.3579358e-09
7.0513702e-09
7.8187214e-09
8.6676953e-09
9.6062721e-09
1.0645124e-08
1.1794097e-08
1.3063991e-08
1.4467324e-08
1.6018097e-08
1.7731568e-08
1.9624575e-08
2.1715368e-08
2.4023129e-08
2.6570828e-08
2.9382883e-08
3.2485256e-08
3.5908121e-08
3.9682434e-08
4.3844236e-08
4.8432118e-08
5.3489145e-08
5.9061499e-08
6.5199475e-08
7.1960667e-08
7.9405879e-08
8.7602411e-08
9.66242e-08
1.0655191e-07
1.1747469e-07
1.2948881e-07
1.4269981e-07
1.5722492e-07
1.7319112e-07
1.9073696e-07
2.1001431e-07
2.3118854e-07
2.5444203e-07
2.7997361e-07
3.0799892e-07
3.3875429e-07
3.7249776e-07
4.0951236e-07
4.5010514e-07
4.9461087e-07
5.4339646e-07
5.9686066e-07
6.5543827e-07
7.1960397e-07
7.8987389e-07
8.6681114e-07
9.510279e-07
1.043191e-06
1.1440279e-06
1.2543276e-06
1.3749487e-06
1.5068266e-06
1.6509792e-06
1.8085093e-06
1.9806173e-06
2.1686084e-06
2.3738981e-06
2.5980243e-06
2.8426569e-06
3.1096084e-06
3.4008435e-06
3.7184936e-06
4.0648717e-06
4.4424837e-06
4.8540454e-06
5.3025004e-06
5.791036e-06
6.3231033e-06
6.9024385e-06
7.5330861e-06
8.2194222e-06
8.9661784e-06
9.7784727e-06
1.0661838e-05
1.1622254e-05
1.2666179e-05
1.3800592e-05
1.5033029e-05
1.6371623e-05
1.7825154e-05
1.940309e-05
2.111565e-05
2.2973848e-05
2.4989557e-05
2.7175573e-05
2.9545685e-05
3.211474e-05
3.4898722e-05
3.7914842e-05
4.1181617e-05
4.4718967e-05
4.8548315e-05
5.2692696e-05
5.7176864e-05
6.2027419e-05
6.7272932e-05
7.2944086e-05
7.9073818e-05
8.5697476e-05
9.2852982e-05
0.00010058101
0.00010892517
0.00011793221
0.00012765221
0.00013813883
0.00014944953
0.00016164582
0.00017479352
0.00018896308
0.00020422981
0.00022067425
0.00023838248
0.0002574465
0.00027796454
0.00030004153
0.00032378946
0.00034932784
0.00037678419
0.00040629446
0.00043800361
0.00047206614
0.00050864663
0.00054792038
0.00059007403
0.0006353062
0.00068382827
0.00073586502
0.00079165546
0.00085145366
0.00091552954
0.00098416983
0.001057679
0.0011363801
0.0012206161
0.0013107507
0.0014071695
0.0015102813
0.0016205192
0.001738342
0.0018642355
0.0019987138
0.0021423209
0.0022956323
0.0024592564
0.0026338361
0.002820051
0.0030186185
0.0032302962
0.0034558837
0.0036962244
0.0039522079
0.0042247719
0.0045149045
0.0048236468
0.0051520948
0.0055014023
0.0058727833
0.0062675146
0.0066869386
0.0071324661
0.0076055792
0.0081078343
0.0086408653
0.0092063864
0.0098061957
0.010442178
0.01111631
0.011830661
0.012587398
0.01338879
0.01423721
0.015135142
0.016085179
0.017090035
0.018152542
0.019275657
0.020462468
0.021716194
0.023040192
0.024437964
0.025913153
0.027469557
0.029111127
0.030841976
0.032666379
0.034588781
0.0366138
0.038746232
0.040991056
0.043353436
0.045838731
0.048452493
0.051200475
0.054088638
0.057123146
0.060310383
0.063656947
0.067169657
0.07085556
0.074721932
0.07877628
0.083026351
0.087480129
0.092145845
0.097031972
0.10214724
0.10750061
0.11310134
0.11895889
0.12508303
0.13148374
0.13817131
0.14515626
0.15244939
0.16006175
0.16800466
0.17628972
0.18492876
0.19393389
0.20331749
0.21309219
0.22327087
0.23386667
0.24489298
0.25636345
0.26829195
0.28069261
0.29357979
0.30696807
0.32087226
0.3353074
0.35028871
0.36583165
0.38195184
0.39866513
0.41598751
0.43393516
0.45252442
0.47177178
0.49169386
0.51230743
0.53362937
0.55567664
0.57846635
0.60201563
0.62634174
0.65146194
0.67739356
0.70415397
0.73176052
0.76023059
0.78958152
0.81983064
0.85099522
0.88309246
0.9161395
0.95015337
0.985151
1.0211492
1.0581646
1.0962137
1.1353128
1.1754781
1.2167254
1.2590705
1.3025287
1.3471153
1.3928452
1.439733
1.4877929
1.537039
1.5874849
1.6391438
1.6920287
1.7461522
1.8015262
1.8581625
1.9160725
1.9752668
2.035756
2.0975498
2.1606577
2.2250886
2.290851
2.3579527
2.4264011
2.496203
2.5673647
2.639892
2.7137899
2.7890631
2.8657155
2.9437505
3.023171
3.1039791
3.1861765
3.269764
3.3547421
3.4411105
3.5288682
3.6180138
3.7085451
3.8004592
3.8937528
3.9884217
4.0844612
4.181866
4.28063
4.3807466
4.4822085
4.5850078
4.6891359
4.7945836
4.901341
5.0093978
5.1187429
5.2293644
5.3412502
5.4543871
5.5687618
5.6843599
5.8011668
5.9191671
6.0383448
6.1586833
6.2801657
6.4027741
6.5264903
6.6512956
6.7771704
6.9040949
7.0320487
7.1610107
7.2909594
7.4218728
7.5537283
7.6865028
7.8201729
7.9547144
8.0901029
8.2263133
8.3633203
8.5010978
8.6396195
8.7788586
8.918788
9.0593798
9.2006062
9.3424385
9.484848
9.6278054
9.771281
9.9152448
10.059667
10.204516
10.349761
10.495371
10.641314
10.787558
10.934071
11.08082
11.227772
11.374895
11.522155
11.669517
11.81695
11.964417
12.111886
12.259321
12.406687
12.553952
12.701078
12.84803
12.994775
13.141276
13.287497
13.433405
13.578962
13.724134
13.868885
14.013179
14.156981
14.300255
14.442965
14.585077
14.726555
14.867364
15.007468
15.146834
15.285425
15.423207
15.560148
15.696212
15.831365
15.965575
16.098807
16.23103
16.362212
16.492319
16.621321
16.749187
16.875886
17.001388
17.125665
17.248685
17.370423
17.490851
17.609939
17.727664
17.844001
17.958922
18.072406
18.184429
18.294968
18.404002
18.511513
18.617477
18.721878
18.824699
18.925922
19.025532
19.123515
19.219856
19.314544
19.407569
19.498917
19.588583
19.676557
19.762832
19.847405
19.93027
20.011423
20.090864
20.168593
20.244607
20.318912
20.391508
20.4624
20.531595
20.599098
20.664916
20.729059
20.791538
20.852362
20.911545
20.9691
21.025041
21.079385
21.132147
21.183344
21.232996
21.281122
21.327741
21.372875
21.416547
21.458777
21.499591
21.539012
21.577063
21.613772
21.649163
21.683263
21.716099
21.747698
21.778085
21.807292
21.835346
21.862272
21.888102
21.912865
21.936586
21.959297
21.981025
22.001799
22.021649
22.040602
22.058685
22.075929
22.09236
22.108005
22.122893
22.137049
22.150501
22.163274
22.175395
22.186887
22.197777
22.208088
22.217843
22.227068
22.235783
22.24401
22.251772
22.25909
22.265982
22.272471
22.278574
22.28431
22.289698
22.294754
22.299494
22.303938
22.308098
22.311988
22.315627
22.319026
22.322197
22.325156
22.327913
22.330479
22.332868
22.335089
22.33715
22.339064
22.34084
22.342484
22.344006
22.345415
22.346715
22.347917
22.349026
22.350047
22.350988
22.351854
22.352649
22.35338
22.35405
22.354664
22.355227
22.355741
22.356211
22.35664
22.357031
22.357387
22.357711
22.358005
22.358271
22.358514
22.358732
22.358929
22.359108
22.359269
22.359412
22.359542
22.359658
22.359761
22.359853
22.359936
22.360007
22.360072
22.360128
22.360177
22.36022
22.360258
22.360289
22.360316
22.36034
22.36036
22.360376
22.360395
22.360426
22.360458
22.360468
22.360481
22.360523
22.360572
22.360601
22.360629
22.360674
22.360712
22.360736
22.360762
22.360787
22.36082
22.360861
22.360888
22.360903
22.360936
22.360977
22.361001
22.361006
22.361015
22.361053
22.36109
22.361105
22.361118
22.361149
22.361183
22.361204
22.361216
22.361239
22.361275
22.361308
22.361338
22.361379
22.361423
22.361447
22.361459
22.361468
22.361471
22.361479
22.361484
22.361492
22.361508
22.361524
22.361529
22.361529
22.361532
22.361542
22.36156
22.361591
22.36162
22.361638
22.361655
22.36168
22.361701
22.361722
22.361744
22.361763
22.361783
22.361796
22.36181
22.36182
22.36182
22.361828
22.361847
22.361852
22.361844
22.361844
22.361853
22.361857
22.361858
22.361856
22.361854
22.361863
22.361866
22.361864
22.361872
22.361888
22.361901
22.361913
22.361927
22.361943
22.361963
22.36198
22.361998
22.362023
22.362035
22.362031
22.362024
22.362031
22.362039
22.362054
22.36205
22.362024
22.362011
22.362026
22.36202
22.361993
22.361971
22.361975
22.361985
22.361986
22.361979
22.361974
22.361971
22.361971
22.361978
22.361985
22.361986
22.361985
22.361983
22.361985
22.36199
22.361997
22.362003
22.362011
22.362019
22.362028
22.36204
22.362048
22.362048
22.362043
22.362044
22.362051
22.36205
22.362044
22.362035
22.362042
22.362042
22.362035
22.362024
22.362027
22.362025
22.362015
22.362004
22.362
22.361996
22.361995
22.361996
22.361991
22.361979
22.361959
22.361951
22.361954
22.36195
22.361938
22.361922
22.36192
22.361918
22.361909
22.361892
22.361886
22.361886
22.361882
22.361874
22.361863
22.361849
22.361843
22.361842
22.361838
22.361828
22.361814
22.361806
22.361804
22.3618
22.361791
22.361782
22.361778
22.361773
22.361764
22.361753
22.361752
22.361749
22.361742
22.36173
22.361721
22.361718
22.361714
22.361707
22.361702
22.361698
22.361691
22.361681
22.361677
22.361673
22.361667
22.361657
22.361652
22.36165
22.361646
22.361638
22.361627
22.361619
22.361618
22.361616
22.361611
22.361602
22.361594
22.36159
22.361586
22.361579
22.36157
22.361567
22.361565
22.36156
22.361552
22.361543
22.361534
22.361531
22.361529
22.361526
22.361521
22.361512
22.361507
22.361504
22.3615
22.361493
22.361483
22.361477
22.361476
22.361473
22.361467
22.361459
22.361449
22.361447
22.361444
22.361439
22.361431
22.361424
22.361421
22.361417
22.361411
22.361404
22.3614
22.361395
22.361388
22.361379
22.361374
22.361372
22.361368
22.361362
22.361354
22.361346
22.361343
22.361339
22.361334
22.361327
22.361321
22.361316
22.361311
22.361305
22.361299
22.361295
22.36129
22.361284
22.361277
22.361273
22.361269
22.361264
22.361258
22.361252
22.361248
22.361243
22.361236
22.361229
22.361227
22.361225
22.36122
22.361214
22.361206
22.361198
22.361196
22.361195
22.361191
22.361186
22.361179
22.361171
22.361168
22.361167
22.361164
22.361158
22.361151
22.361143
22.361138
22.361138
22.361137
22.361133
22.361128
22.361122
22.361116
22.36111
22.361107
22.361104
22.3611
22.361095
22.36109
22.361088
22.361085
22.361081
22.361075
22.361068
22.361064
22.361062
22.36106
22.361056
22.361051
22.361044
22.361039