-1.25 	287.5655056417544 	0.0006151346529586228 	101325.0056548668
-1.247497497497497 	300.1835969410304 	0.0005069199321020718 	101324.9910441891
-1.244994994994995 	300.0006598259664 	0.0002798611854896388 	101325.0045464942
-1.242492492492492 	299.9999944644784 	9.356631635964722e-05 	101324.9918914943
-1.23998998998999 	300.000002677281 	0.0001203151002837618 	101325.0031713979
-1.237487487487487 	299.9999935390367 	0.0002869806737873041 	101324.9923577451
-1.234984984984985 	300.0000017698853 	0.0004311766932892759 	101325.0020953492
-1.232482482482482 	299.9999944711806 	0.0005544101548148111 	101324.9934584496
-1.22997997997998 	300.0000016794152 	0.0006607044081526983 	101325.001988561
-1.227477477477477 	299.9999950045596 	0.0007470986334114145 	101324.9940906169
-1.224974974974975 	300.0000005130501 	0.0008195841075454083 	101325.0006116749
-1.222472472472472 	299.9999949293461 	0.0008759559761537859 	101324.9940074484
-1.21996996996997 	299.9999998436614 	0.0009211875289001048 	101324.9998229892
-1.217467467467467 	299.9999952430906 	0.0009513979019579237 	101324.9943741885
-1.214964964964965 	299.9999997605007 	0.000972489560516596 	101324.9997184228
-1.212462462462462 	299.9999954702698 	0.0009869997407963285 	101324.9946390172
-1.20995995995996 	299.9999988499939 	0.0009892013941024643 	101324.9986452077
-1.207457457457457 	299.9999958172418 	0.0009802150246373017 	101324.9950534981
-1.204954954954955 	299.9999989571625 	0.0009685402193427379 	101324.9987749014
-1.202452452452452 	299.9999959790341 	0.0009515509620328993 	101324.9952416985
-1.19994994994995 	299.9999990047388 	0.0009299340174166268 	101324.9988264733
-1.197447447447447 	299.9999963921297 	0.0009035600470570088 	101324.9957266589
-1.194944944944945 	299.9999986578541 	0.0008755295434269191 	101324.9984170046
-1.192442442442442 	299.9999959062446 	0.0008418339090016331 	101324.9951570738
-1.18993993993994 	299.9999977764608 	0.000810252523574374 	101324.9973821556
-1.187437437437437 	299.9999953663307 	0.0007733825037861776 	101324.9945222133
-1.184934934934935 	299.9999975423891 	0.0007380076040338277 	101324.9971030584
-1.182432432432432 	299.9999958938469 	0.0007011586859766443 	101324.9951396624
-1.17992992992993 	299.9999982101948 	0.0006638017391138796 	101324.9978869066
-1.177427427427427 	299.9999966235696 	0.0006266648669089244 	101324.9960004299
-1.174924924924925 	299.9999982779124 	0.0005911733361605837 	101324.9979684502
-1.172422422422422 	299.9999962941417 	0.000553454459996671 	101324.9956137416
-1.16991991991992 	299.9999975549819 	0.000520404146009839 	101324.997115212
-1.167417417417417 	299.99999591324 	0.000484885662754621 	101324.9951670755
-1.164914914914915 	299.9999974447304 	0.0004531970560295807 	101324.9969831193
-1.162412412412412 	299.9999962294441 	0.0004207997590434605 	101324.9955368823
-1.15990990990991 	299.9999974819916 	0.0003923065584576412 	101324.9970269728
-1.157407407407407 	299.9999960601063 	0.000361878417456981 	101324.9953395169
-1.154904904904904 	299.9999968934852 	0.0003371845386056699 	101324.9963322933
-1.152402402402403 	299.9999957258639 	0.0003100256187838685 	101324.9949454629
-1.1498998998999 	299.9999969828411 	0.0002874099974788305 	101324.9964365913
-1.147397397397397 	299.9999965260262 	0.0002645085727225688 	101324.99589025
-1.144894894894895 	299.9999977917386 	0.0002440234215125946 	101324.9973907656
-1.142392392392392 	299.9999967051468 	0.0002234714677352394 	101324.9961020651
-1.13988988988989 	299.9999973340533 	0.0002071186625624996 	101324.9968496338
-1.137387387387387 	299.9999966670602 	0.0001867004458389418 	101324.9960575421
-1.134884884884885 	299.9999966166301 	0.0001713956404983012 	101324.9960009615
-1.132382382382382 	299.9999962536499 	0.0001524454005698477 	101324.9955697794
-1.12987987987988 	299.9999966298815 	0.0001392856145472711 	101324.9960172444
-1.127377377377377 	299.9999962241782 	0.0001234438919791666 	101324.995536542
-1.124874874874875 	299.9999967443829 	0.0001121162192470486 	101324.996152893
-1.122372372372372 	299.9999964651098 	9.807879632158322e-05 	101324.9958212536
-1.11986986986987 	299.9999968904466 	8.811977125982475e-05 	101324.9963235956
-1.117367367367367 	299.9999967490751 	7.551225643847328e-05 	101324.9961559566
-1.114864864864865 	299.9999969451201 	6.724294644289848e-05 	101324.9963879824
-1.112362362362362 	299.9999968355634 	5.597565689338237e-05 	101324.9962592269
-1.10985985985986 	299.9999969085547 	4.939809533420242e-05 	101324.9963463245
-1.107357357357357 	299.9999968948814 	3.951361494931613e-05 	101324.9963299458
-1.104854854854855 	299.9999968193794 	3.468380924475377e-05 	101324.9962397754
-1.102352352352353 	299.9999968082772 	2.616286448212273e-05 	101324.9962258805
-1.09984984984985 	299.9999967006375 	2.324726791871542e-05 	101324.9960980426
-1.097347347347347 	299.9999966971299 	1.626078889827024e-05 	101324.9960940731
-1.094844844844845 	299.9999966903685 	1.470964339361967e-05 	101324.9960858794
-1.092342342342342 	299.9999967785556 	9.530368518615401e-06 	101324.9961908767
-1.08983983983984 	299.9999968827616 	8.754999289751922e-06 	101324.9963152704
-1.087337337337337 	299.9999970469717 	8.844112776009174e-06 	101324.9965097001
-1.084834834834835 	299.9999971699103 	7.900265272476412e-06 	101324.9966545321
-1.082332332332332 	299.9999972925959 	8.101111136883722e-06 	101324.9967992064
-1.07982982982983 	299.9999973388269 	7.523014899006708e-06 	101324.9968530843
-1.077327327327327 	299.999997353555 	7.829014665925732e-06 	101324.9968700004
-1.074824824824825 	299.9999973185821 	7.691711059379835e-06 	101324.9968286134
-1.072322322322323 	299.9999972659416 	7.985795349325692e-06 	101324.9967668111
-1.06981981981982 	299.9999972076639 	8.058814805472979e-06 	101324.9966983614
-1.067317317317317 	299.9999971635097 	8.222004559196196e-06 	101324.9966463783
-1.064814814814815 	299.9999971454978 	8.256374862205711e-06 	101324.9966250436
-1.062312312312312 	299.9999971599355 	8.217980954898997e-06 	101324.9966420346
-1.05980980980981 	299.9999972060509 	8.085882744880429e-06 	101324.9966965713
-1.057307307307307 	299.999997277929 	7.880913764169308e-06 	101324.9967815548
-1.054804804804805 	299.9999973667708 	7.627236963531298e-06 	101324.9968863531
-1.052302302302302 	299.9999974633783 	7.350672674828316e-06 	101324.9970002882
-1.0497997997998 	299.999997560222 	7.071958497939176e-06 	101324.9971147693
-1.047297297297297 	299.9999976523214 	6.805634298156673e-06 	101324.9972239101
-1.044794794794795 	299.9999977366663 	6.560958284554053e-06 	101324.9973239882
-1.042292292292292 	299.999997811785 	6.342880504096283e-06 	101324.9974129155
-1.03978978978979 	299.9999978777988 	6.151363970208e-06 	101324.9974908195
-1.037287287287287 	299.9999979363305 	5.981187736562252e-06 	101324.9975598434
-1.034784784784785 	299.9999979902525 	5.823742514598801e-06 	101324.99762356
-1.032282282282283 	299.9999980428475 	5.66995618546067e-06 	101324.9976859012
-1.02977977977978 	299.999998097077 	5.511458163855052e-06 	101324.9977501425
-1.027277277277277 	299.9999981563563 	5.338578711451246e-06 	101324.9978201791
-1.024774774774775 	299.999998224701 	5.141280850194054e-06 	101324.9979006615
-1.022272272272272 	299.9999983027591 	4.917631750313384e-06 	101324.9979926953
-1.01976976976977 	299.9999983853595 	4.68057784440654e-06 	101324.9980905244
-1.017267267267267 	299.9999984651519 	4.449538184547525e-06 	101324.9981853927
-1.014764764764765 	299.9999985394629 	4.232925441866044e-06 	101324.9982735546
-1.012262262262262 	299.9999986105194 	4.027382806280964e-06 	101324.9983572549
-1.00975975975976 	299.9999986789106 	3.831849139649139e-06 	101324.998437373
-1.007257257257257 	299.9999987426631 	3.646924545019583e-06 	101324.9985122476
-1.004754754754755 	299.999998805337 	3.460932110341795e-06 	101324.9985866424
-1.002252252252252 	299.9999988768957 	3.248994356279484e-06 	101324.9986722606
-0.9997497497497498 	299.9999989640441 	2.996021551039088e-06 	101324.9987760576
-0.9972472472472473 	299.999999063059 	2.713702904044545e-06 	101324.9988927856
-0.9947447447447449 	299.9999991636353 	2.428545502081627e-06 	101324.9990104539
-0.9922422422422421 	299.9999992566198 	2.162965632995265e-06 	101324.99911921
-0.9897397397397399 	299.999999338537 	1.924160791840767e-06 	101324.9992161023
-0.9872372372372376 	299.9999994130251 	1.702660063630243e-06 	101324.9993054566
-0.9847347347347346 	299.9999994874566 	1.48166677962535e-06 	101324.9993949594
-0.9822322322322323 	299.9999995672547 	1.249444896240417e-06 	101324.9994896821
-0.9797297297297296 	299.9999996530831 	1.003570584670571e-06 	101324.9995900832
-0.9772272272272275 	299.9999997437808 	7.444803987999689e-07 	101324.9996956292
-0.9747247247247248 	299.9999998391657 	4.706873080300346e-07 	101324.9998073386
-0.9722222222222224 	299.9999999383488 	1.837174600422951e-07 	101324.9999249566
-0.9697197197197196 	300.0000000383805 	1.627201799482598e-07 	101325.0000445634
-0.9672172172172175 	300.0000001366953 	3.966879053921415e-07 	101325.0001622914
-0.9647147147147147 	300.0000002343874 	6.821854586806833e-07 	101325.000278578
-0.9622122122122124 	300.0000003329225 	9.662184356415004e-07 	101325.000394878
-0.9597097097097099 	300.0000004296726 	1.242650633240342e-06 	101325.0005083396
-0.9572072072072073 	300.0000005202654 	1.50268683340157e-06 	101325.0006143313
-0.9547047047047047 	300.0000006052976 	1.749181695482084e-06 	101325.0007138887
-0.9522022022022023 	300.0000006909489 	1.998208312055172e-06 	101325.0008146429
-0.9496996996996998 	300.0000007828565 	2.263744258222166e-06 	101325.0009231192
-0.9471971971971973 	300.0000008807917 	2.545761570820688e-06 	101325.0010388037
-0.9446946946946947 	300.0000009812219 	2.836424047990741e-06 	101325.0011575222
-0.9421921921921923 	300.0000010835178 	3.133390542471624e-06 	101325.0012783121
-0.93968968968969 	300.0000011895601 	3.440024089084206e-06 	101325.0014034745
-0.9371871871871872 	300.0000012985809 	3.753502079778163e-06 	101325.0015322576
-0.9346846846846848 	300.0000014051141 	4.060247291288061e-06 	101325.0016583263
-0.9321821821821823 	300.000001504044 	4.347716847671451e-06 	101325.0017755699
-0.9296796796796799 	300.0000015963416 	4.618349721802443e-06 	101325.0018850276
-0.9271771771771771 	300.0000016883207 	4.887859895261839e-06 	101325.0019941424
-0.9246746746746748 	300.0000017853267 	5.169340463322651e-06 	101325.0021090761
-0.9221721721721724 	300.0000018865931 	5.461312901144108e-06 	101325.0022289311
-0.9196696696696698 	300.0000019875075 	5.753192098080212e-06 	101325.0023483764
-0.9171671671671672 	300.0000020862103 	6.040454282824e-06 	101325.0024651677
-0.9146646646646649 	300.0000021858635 	6.33021348725625e-06 	101325.0025829044
-0.9121621621621623 	300.0000022897467 	6.630335010126001e-06 	101325.0027056014
-0.9096596596596597 	300.0000023962684 	6.936984872731224e-06 	101325.0028315356
-0.9071571571571573 	300.0000025001746 	7.236853480194435e-06 	101325.0029543752
-0.9046546546546547 	300.0000025979218 	7.521405273620851e-06 	101325.0030700301
-0.9021521521521524 	300.0000026920295 	7.797199591417585e-06 	101325.0031815039
-0.8996496496496498 	300.0000027893753 	8.081042239736468e-06 	101325.0032966933
-0.8971471471471473 	300.0000028942843 	8.383562927434853e-06 	101325.0034207452
-0.894644644644645 	300.0000030035724 	8.696683981338042e-06 	101325.003550011
-0.892142142142142 	300.0000031087455 	8.999181708947171e-06 	101325.0036744957
-0.8896396396396397 	300.000003204055 	9.2765742318287e-06 	101325.0037873474
-0.8871371371371374 	300.0000032918745 	9.534601487719085e-06 	101325.0038913649
-0.8846346346346349 	300.0000033799828 	9.79242290094151e-06 	101325.0039955369
-0.8821321321321324 	300.0000034739402 	1.006491234230654e-05 	101325.0041065128
-0.8796296296296297 	300.0000035738311 	1.035354459049306e-05 	101325.0042245569
-0.8771271271271271 	300.0000036766978 	1.065121268223627e-05 	101325.0043462204
-0.8746246246246248 	300.0000037803319 	1.095177842287543e-05 	101325.0044687696
-0.8721221221221224 	300.0000038845322 	1.125401361331648e-05 	101325.0045919327
-0.8696196196196196 	300.000003989673 	1.155781659264402e-05 	101325.0047161567
-0.8671171171171175 	300.0000040936725 	1.185667480098967e-05 	101325.0048390302
-0.8646146146146148 	300.0000041906315 	1.213552169326024e-05 	101325.0049538116
-0.8621121121121121 	300.0000042752838 	1.23814840776601e-05 	101325.0050540693
-0.8596096096096097 	300.000004349708 	1.260123796749826e-05 	101325.0051421239
-0.857107107107107 	300.0000044251781 	1.282418719758139e-05 	101325.0052312853
-0.8546046046046049 	300.0000045136641 	1.308016645304271e-05 	101325.0053356372
-0.8521021021021022 	300.0000046156982 	1.337080398409123e-05 	101325.0054561002
-0.8495995995995997 	300.000004719615 	1.366754968984167e-05 	101325.0055790909
-0.8470970970970974 	300.0000048140226 	1.394191770382229e-05 	101325.0056910752
-0.8445945945945946 	300.000004899679 	1.419402732100856e-05 	101325.0057925089
-0.8420920920920922 	300.0000049861247 	1.444593907221121e-05 	101325.0058945043
-0.8395895895895897 	300.0000050783253 	1.471001756203496e-05 	101325.0060031409
-0.8370870870870872 	300.0000051705275 	1.497321893051141e-05 	101325.0061118437
-0.8345845845845846 	300.0000052542196 	1.52157366180829e-05 	101325.0062108008
-0.8320820820820823 	300.0000053292684 	1.543710269646691e-05 	101325.0062999148
-0.8295795795795798 	300.0000054037399 	1.565597641608633e-05 	101325.0063884046
-0.8270770770770772 	300.0000054835559 	1.588650928436125e-05 	101325.0064829404
-0.8245745745745746 	300.0000055662287 	1.61236747565572e-05 	101325.0065806249
-0.8220720720720721 	300.0000056461373 	1.635429201586281e-05 	101325.006674807
-0.8195695695695699 	300.0000057222113 	1.657588023131732e-05 	101325.0067644393
-0.817067067067067 	300.0000057987126 	1.679864814738745e-05 	101325.0068547699
-0.8145645645645651 	300.0000058790309 	1.703042889378607e-05 	101325.0069497608
-0.8120620620620621 	300.000005960834 	1.726524008130377e-05 	101325.0070465532
-0.8095595595595597 	300.0000060382832 	1.748892399405596e-05 	101325.0071383515
-0.8070570570570572 	300.0000061085891 	1.769449701193703e-05 	101325.0072218001
-0.8045545545545546 	300.0000061751515 	1.788965185232352e-05 	101325.0073005721
-0.8020520520520523 	300.0000062437084 	1.808794112716619e-05 	101325.0073812664
-0.7995495495495494 	300.0000063154136 	1.829202622656236e-05 	101325.0074654546
-0.7970470470470474 	300.0000063839857 	1.848664738658852e-05 	101325.007546116
-0.7945445445445446 	300.0000064411455 	1.865242298243149e-05 	101325.0076137624
-0.7920420420420423 	300.0000064865283 	1.879038835614315e-05 	101325.0076681308
-0.7895395395395397 	300.0000065321802 	1.893141247700485e-05 	101325.0077231663
-0.7870370370370371 	300.0000065938407 	1.911344275092674e-05 	101325.0077968271
-0.7845345345345348 	300.0000066752735 	1.934356897937275e-05 	101325.0078930174
-0.7820320320320323 	300.0000067620591 	1.958436257785558e-05 	101325.0079945757
-0.7795295295295296 	300.0000068336181 	1.978530192961315e-05 	101325.0080777571
-0.7770270270270272 	300.0000068833436 	1.993121288788195e-05 	101325.0081353889
-0.7745245245245247 	300.0000069245162 	2.00559657239782e-05 	101325.008183759
-0.7720220220220222 	300.0000069747878 	2.02026462744205e-05 	101325.0082437667
-0.7695195195195199 	300.0000070349919 	2.037217834901529e-05 	101325.0083160535
-0.767017017017017 	300.0000070872209 	2.051956921300581e-05 	101325.0083788226
-0.7645145145145147 	300.0000071158431 	2.060759553314687e-05 	101325.0084132837
-0.7620120120120122 	300.0000071297843 	2.066119477985612e-05 	101325.0084301026
-0.7595095095095097 	300.0000071594276 	2.075787337870158e-05 	101325.0084655824
-0.7570070070070072 	300.0000072275803 	2.095305707230904e-05 	101325.0085468004
-0.7545045045045048 	300.0000073217832 	2.121230345400148e-05 	101325.0086590794
-0.7520020020020022 	300.0000073989722 	2.142429970749232e-05 	101325.0087513487
-0.7494994994994997 	300.0000074221391 	2.149442367174583e-05 	101325.0087792193
-0.7469969969969972 	300.0000073961454 	2.143640592280573e-05 	101325.0087480533
-0.7444944944944945 	300.0000073685101 	2.137338489832698e-05 	101325.0087141527
-0.7419919919919924 	300.0000073908276 	2.143818096099607e-05 	101325.0087388562
-0.7394894894894897 	300.0000074731783 	2.165704945227195e-05 	101325.008834804
-0.7369869869869872 	300.000007572852 	2.192021923013707e-05 	101325.0089519071
-0.7344844844844846 	300.000007628111 	2.206931693503728e-05 	101325.0090175013
-0.7319819819819822 	300.0000076101343 	2.203039861276482e-05 	101325.0089971569
-0.7294794794794797 	300.0000075489681 	2.188151956668949e-05 	101325.0089260539
-0.7269769769769773 	300.0000075121142 	2.179681582496827e-05 	101325.0088833727
-0.7244744744744747 	300.0000075517272 	2.191061897902664e-05 	101325.0089304751
-0.721971971971972 	300.000007663029 	2.22092551764222e-05 	101325.0090616619
-0.7194694694694695 	300.0000077859314 	2.253500697283371e-05 	101325.0092058434
-0.7169669669669674 	300.0000078480741 	2.269896990619728e-05 	101325.009277922
-0.7144644644644647 	300.0000078172482 	2.261732239129303e-05 	101325.0092399278
-0.711961961961962 	300.0000077243437 	2.237226085230627e-05 	101325.0091287543
-0.7094594594594597 	300.0000076416399 	2.215469283568687e-05 	101325.0090301143
-0.7069569569569573 	300.000007632442 	2.213198760653215e-05 	101325.0090189348
-0.7044544544544545 	300.0000077082713 	2.233449286384448e-05 	101325.0091088836
-0.7019519519519523 	300.0000078213205 	2.263568257706786e-05 	101325.0092434103
-0.6994494494494495 	300.0000078964906 	2.283562132198522e-05 	101325.0093335572
-0.6969469469469471 	300.0000078796099 	2.27895487131575e-05 	101325.0093148364
-0.6944444444444446 	300.0000077717673 	2.250116993613532e-05 	101325.0091883766
-0.6919419419419421 	300.0000076311191 	2.212612758548657e-05 	101325.0090227126
-0.6894394394394396 	300.0000075397739 	2.188596397157296e-05 	101325.0089150887
-0.6869369369369374 	300.0000075593452 	2.194605317234925e-05 	101325.0089382311
-0.6844344344344344 	300.0000076965669 	2.232344263417143e-05 	101325.0091003254
-0.6819319319319321 	300.0000078969559 	2.287010042509496e-05 	101325.009337166
-0.6794294294294296 	300.0000080700582 	2.333880150376777e-05 	101325.0095417554
-0.6769269269269272 	300.0000081296488 	2.349328590862818e-05 	101325.0096122252
-0.6744244244244245 	300.0000080304172 	2.321013579576675e-05 	101325.0094948539
-0.6719219219219222 	300.0000077881398 	2.253455648241174e-05 	101325.0092083852
-0.6694194194194195 	300.0000074761995 	2.166811774255012e-05 	101325.0088393825
-0.6669169169169172 	300.0000071968652 	2.089407799077521e-05 	101325.0085088264
-0.6644144144144146 	300.0000070456334 	2.047924823566701e-05 	101325.0083297196
-0.661911911911912 	300.0000070829356 	2.059140515392274e-05 	101325.0083734275
-0.6594094094094097 	300.000007315886 	2.124892297360091e-05 	101325.0086484819
-0.656906906906907 	300.0000076947631 	2.231314365353606e-05 	101325.0090962439
-0.6544044044044046 	300.0000081281512 	2.35297993962614e-05 	101325.0096085654
-0.6519019019019021 	300.0000085105571 	2.460246525411375e-05 	101325.0100607418
-0.6493993993993996 	300.0000087475982 	2.52630359956562e-05 	101325.0103411822
-0.6468968968968971 	300.0000087717986 	2.531914730537628e-05 	101325.010370122
-0.6443943943943946 	300.0000085509177 	2.46784468236415e-05 	101325.0101094079
-0.6418918918918921 	300.0000080895701 	2.335293809338589e-05 	101325.0095643329
-0.6393893893893897 	300.0000074242309 	2.144529048918445e-05 	101325.0087780236
-0.6368868868868871 	300.0000066136386 	1.912124420625279e-05 	101325.0078199255
-0.6343843843843846 	300.0000057263109 	1.657428114460848e-05 	101325.0067709771
-0.6318818818818821 	300.0000048277807 	1.399053370744108e-05 	101325.0057087521
-0.6293793793793795 	300.0000039712521 	1.152208549964258e-05 	101325.0046960097
-0.6268768768768773 	300.0000031928791 	9.274513451983224e-06 	101325.0037756634
-0.6243743743743745 	300.0000025131206 	7.307744360150911e-06 	101325.0029716771
-0.6218718718718721 	300.0000019389638 	5.643953797016258e-06 	101325.002292597
-0.6193693693693696 	300.0000014676827 	4.277473939170277e-06 	101325.0017356782
-0.6168668668668671 	300.0000010914372 	3.184403175792158e-06 	101325.0012908025
-0.6143643643643645 	300.000000798052 	2.330726768284952e-06 	101325.000943804
-0.6118618618618621 	300.0000005741131 	1.678487029291775e-06 	101325.0006790091
-0.6093593593593596 	300.000000406692 	1.190183727398243e-06 	101325.0004810006
-0.6068568568568571 	300.0000002838397 	8.31482332109287e-07 	101325.0003357111
-0.6043543543543546 	300.0000001952519 	5.726447095969203e-07 	101325.000230985
-0.6018518518518521 	300.0000001325014 	3.889871144532616e-07 	101325.0001567567
-0.5993493493493496 	300.000000088703 	2.607430110716454e-07 	101325.0001049775
-0.5968468468468471 	300.0000000586352 	1.725452551570888e-07 	101325.0000694035
-0.5943443443443446 	300.000000038309 	1.127697770159479e-07 	101325.0000453163
-0.591841841841842 	300.0000000246828 	7.281633664867972e-08 	101325.0000292331
-0.5893393393393397 	300.0000000157013 	4.647274485342208e-08 	101325.0000186375
-0.5868368368368371 	300.0000000099268 	2.93206212891568e-08 	101325.0000117466
-0.5843343343343346 	300.0000000062013 	1.829937657810286e-08 	101325.0000073208
-0.5818318318318321 	300.000000003858 	1.129458403120168e-08 	101325.0000045124
-0.5793293293293297 	300.0000000023217 	6.902271087526245e-09 	101325.0000027509
-0.5768268268268271 	300.0000000014135 	4.171852176028031e-09 	101325.0000016586
-0.5743243243243245 	300.0000000008642 	2.499213461755596e-09 	101325.0000009886
-0.5718218218218221 	300.0000000005149 	1.481988749346811e-09 	101325.0000005824
-0.5693193193193196 	300.0000000003374 	8.718407092454293e-10 	101325.0000003382
-0.5668168168168171 	300.0000000001544 	5.089515552272425e-10 	101325.000000193
-0.5643143143143147 	300.0000000000391 	2.937206875625819e-10 	101325.0000001072
-0.5618118118118121 	300.0000000000667 	1.697244610229756e-10 	101325.0000000572
-0.5593093093093094 	300.0000000000653 	9.676706721130154e-11 	101325.0000000286
-0.5568068068068072 	300.000000000033 	5.717185468461369e-11 	101325.0000000122
-0.5543043043043046 	300.0000000000222 	3.286230770711774e-11 	101325.0000000032
-0.551801801801802 	299.9999999999525 	2.050393202182882e-11 	101324.9999999981
-0.5492992992992995 	299.9999999999961 	1.139026137569785e-11 	101324.9999999952
-0.5467967967967969 	300.0000000000135 	8.355841993179467e-12 	101324.9999999937
-0.5442942942942947 	300.000000000007 	5.002873526582978e-12 	101324.999999993
-0.5417917917917919 	299.9999999999577 	5.520039072965338e-12 	101324.9999999927
-0.5392892892892895 	299.9999999999288 	2.379802813704788e-12 	101324.9999999923
-0.536786786786787 	299.9999999999531 	3.926891148958386e-12 	101324.999999992
-0.5342842842842846 	299.9999999999562 	1.11694815895115e-12 	101324.9999999919
-0.531781781781782 	299.9999999999268 	3.93920610176876e-12 	101324.9999999916
-0.5292792792792794 	299.9999999999239 	2.155729217371782e-12 	101324.9999999914
-0.526776776776777 	299.9999999999021 	4.997388853669761e-12 	101324.9999999914
-0.5242742742742745 	299.9999999999744 	3.703004050679419e-12 	101324.9999999913
-0.521771771771772 	300.0000000000147 	6.761203751492278e-12 	101324.9999999914
-0.5192692692692695 	299.99999999996 	4.382252914560473e-12 	101324.9999999915
-0.516766766766767 	300.0000000000058 	7.06258843754097e-12 	101324.9999999915
-0.5142642642642645 	299.9999999999756 	4.086971436521692e-12 	101324.9999999915
-0.511761761761762 	299.9999999999505 	6.158147505078092e-12 	101324.9999999916
-0.5092592592592596 	299.9999999999692 	3.112983617394646e-12 	101324.9999999916
-0.506756756756757 	299.9999999999344 	4.911923599135712e-12 	101324.9999999915
-0.5042542542542544 	299.9999999999891 	2.351638145390515e-12 	101324.9999999918
-0.5017517517517521 	300.0000000000265 	4.32664848900707e-12 	101324.999999992
-0.4992492492492494 	300.00000000003 	1.264749248091316e-12 	101324.999999992
-0.496746746746747 	299.9999999999818 	4.882465061523143e-12 	101324.999999992
-0.4942442442442445 	299.9999999999483 	2.879035880549484e-12 	101324.9999999922
-0.4917417417417421 	299.9999999999371 	5.254856086661309e-12 	101324.999999992
-0.4892392392392395 	299.9999999999542 	2.949070263265893e-12 	101324.9999999922
-0.486736736736737 	299.9999999999571 	5.442348564302013e-12 	101324.999999992
-0.4842342342342345 	299.9999999999204 	2.530690064659973e-12 	101324.999999992
-0.481731731731732 	300.0000000000355 	5.006142509094471e-12 	101324.9999999918
-0.4792292292292296 	300.0000000000207 	1.592159498048034e-12 	101324.9999999916
-0.4767267267267268 	299.999999999953 	5.388497335716895e-12 	101324.9999999914
-0.4742242242242246 	299.9999999999939 	1.725292311369767e-12 	101324.9999999915
-0.471721721721722 	299.9999999999596 	4.963066631584836e-12 	101324.9999999915
-0.4692192192192195 	299.9999999999779 	1.132051349766093e-12 	101324.9999999916
-0.4667167167167169 	299.999999999912 	3.351312908858296e-12 	101324.9999999914
-0.4642142142142145 	299.9999999999926 	1.232088323526937e-12 	101324.9999999914
-0.461711711711712 	300.0000000000143 	2.787889092728406e-12 	101324.9999999911
-0.4592092092092094 	300.0000000000127 	6.629714180482372e-13 	101324.9999999912
-0.456706706706707 	300.0000000000495 	2.829170659677472e-12 	101324.9999999911
-0.4542042042042045 	299.99999999994 	1.422022356557418e-12 	101324.999999991
-0.451701701701702 	299.9999999999495 	2.541494173939259e-12 	101324.9999999911
-0.4491991991991995 	299.9999999999568 	6.459302885131106e-13 	101324.9999999911
-0.4466966966966969 	299.9999999999488 	2.011447547748907e-12 	101324.9999999909
-0.4441941941941945 	299.9999999999908 	1.453216725083784e-12 	101324.9999999907
-0.441691691691692 	299.9999999999592 	3.068939237721887e-12 	101324.9999999905
-0.4391891891891895 	299.9999999999869 	1.726150366831935e-12 	101324.9999999905
-0.436686686686687 	299.9999999999637 	4.673912402997713e-12 	101324.9999999906
-0.4341841841841846 	299.9999999999998 	2.370923767170931e-12 	101324.9999999908
-0.431681681681682 	299.9999999999488 	5.069304136033961e-12 	101324.9999999912
-0.4291791791791794 	299.9999999999288 	1.267299981870471e-12 	101324.9999999913
-0.426676676676677 	299.9999999999087 	3.922069257548955e-12 	101324.9999999914
-0.4241741741741744 	299.9999999999657 	1.033992054613161e-12 	101324.9999999914
-0.421671671671672 	300.0000000000016 	3.722201375618189e-12 	101324.9999999914
-0.4191691691691694 	300.0000000000487 	1.904186639886718e-12 	101324.9999999912
-0.4166666666666669 	300.0000000000569 	3.867578068975473e-12 	101324.999999991
-0.4141641641641645 	299.9999999999361 	1.985253206782888e-12 	101324.999999991
-0.411661661661662 	300.0000000000066 	2.887008200064491e-12 	101324.9999999912
-0.4091591591591594 	300.0000000000009 	2.111787372085306e-12 	101324.999999991
-0.406656656656657 	299.9999999999466 	3.537756909735104e-12 	101324.9999999908
-0.4041541541541545 	300.0000000000167 	1.46583968437696e-12 	101324.9999999907
-0.401651651651652 	299.999999999921 	3.647577756666875e-12 	101324.9999999909
-0.3991491491491494 	299.9999999999964 	1.538794972707806e-12 	101324.9999999908
-0.396646646646647 	299.9999999999565 	4.710331028657189e-12 	101324.999999991
-0.3941441441441444 	299.9999999999779 	1.964197456845792e-12 	101324.9999999912
-0.3916416416416419 	299.9999999999304 	4.533659014713871e-12 	101324.9999999912
-0.3891391391391395 	299.999999999961 	1.213591135517327e-12 	101324.9999999915
-0.3866366366366368 	299.9999999999582 	2.56667227972089e-12 	101324.9999999916
-0.3841341341341344 	299.9999999999961 	9.213425203936929e-13 	101324.9999999918
-0.381631631631632 	299.9999999999544 	1.635878152300718e-12 	101324.9999999918
-0.3791291291291294 	300.000000000005 	1.133959037031189e-12 	101324.9999999919
-0.3766266266266269 	300.0000000000233 	1.149157617669181e-12 	101324.9999999919
-0.3741241241241244 	300.0000000000251 	2.366501808692546e-12 	101324.9999999921
-0.371621621621622 	300.0000000000193 	1.072016672456242e-12 	101324.9999999919
-0.3691191191191194 	300.0000000000032 	3.916366997018217e-12 	101324.999999992
-0.366616616616617 	300.0000000000024 	8.729490931691079e-13 	101324.9999999919
-0.3641141141141143 	299.9999999999642 	3.620743167184715e-12 	101324.9999999914
-0.3616116116116119 	299.9999999999503 	1.939446222510674e-12 	101324.9999999913
-0.3591091091091095 	299.9999999999867 	4.044060651236121e-12 	101324.9999999911
-0.356606606606607 	299.9999999999885 	3.612215881006279e-12 	101324.999999991
-0.3541041041041044 	299.9999999999866 	3.617878125671423e-12 	101324.9999999909
-0.3516016016016019 	300.0000000000063 	3.987025598577443e-12 	101324.9999999911
-0.3490990990990994 	299.9999999999907 	2.140662566333745e-12 	101324.9999999912
-0.346596596596597 	300.0000000000385 	3.942096072458339e-12 	101324.9999999914
-0.3440940940940944 	300.0000000000461 	1.778853267208319e-12 	101324.9999999912
-0.3415915915915919 	300.0000000000215 	4.346711921895979e-12 	101324.9999999909
-0.3390890890890895 	299.9999999999811 	2.629670531658129e-12 	101324.9999999907
-0.3365865865865869 	300.0000000000184 	3.726628679701338e-12 	101324.9999999907
-0.3340840840840844 	300.0000000000006 	2.366815778471243e-12 	101324.9999999908
-0.3315815815815819 	300.0000000000207 	2.983270793195048e-12 	101324.9999999909
-0.3290790790790794 	300.0000000000198 	2.611793300926081e-12 	101324.9999999912
-0.3265765765765769 	299.999999999929 	3.701393674110821e-12 	101324.9999999915
-0.3240740740740744 	299.9999999999965 	2.779370938328114e-12 	101324.9999999913
-0.3215715715715718 	300.0000000000081 	4.308577076078674e-12 	101324.9999999912
-0.3190690690690695 	299.9999999999376 	2.91325009524101e-12 	101324.9999999914
-0.3165665665665668 	299.9999999999906 	4.938287521389167e-12 	101324.9999999916