/*--------------------------------*- C++ -*----------------------------------*\
  =========                 |
  \\      /  F ield         | OpenFOAM: The Open Source CFD Toolbox
   \\    /   O peration     | Website:  https://openfoam.org
    \\  /    A nd           | Version:  7
     \\/     M anipulation  |
\*---------------------------------------------------------------------------*/
FoamFile
{
    version     2.0;
    format      ascii;
    class       volScalarField;
    location    "0.00308";
    object      Uz;
}
// * * * * * * * * * * * * * * * * * * * * * * * * * * * * * * * * * * * * * //

dimensions      [0 1 -1 0 0 0 0];

internalField   nonuniform List<scalar> 
5000
(
0
0
0
0
0
-8.5876252e-18
-1.829248e-32
2.5728757e-17
8.5721266e-18
-1.7137429e-17
-1.7131967e-17
8.5635316e-18
-7.299849e-32
-7.5412149e-32
1.711392e-17
-1.7109203e-17
-9.1883074e-49
-7.5326918e-32
-8.5466687e-18
1.7087252e-17
8.5405029e-18
0
0
-8.5300612e-18
7.270004e-32
-7.0244449e-32
-8.5185231e-18
8.5144372e-18
8.5103664e-18
-8.5061417e-18
1.4860854e-31
-7.2455007e-32
-8.493326e-18
8.4889093e-18
8.4845459e-18
0
0
-8.4711191e-18
-8.466644e-18
8.4620824e-18
-1.4182394e-31
-8.4529874e-18
8.4484524e-18
-1.4279406e-31
-8.4394227e-18
8.4347385e-18
-2.8991566e-31
2.885641e-31
-2.8960856e-31
1.4352429e-31
8.4117784e-18
0
0
0
0
0
0
0
0
0
0
0
0
-8.35227e-18
-8.3477283e-18
8.3431292e-18
-1.4338318e-31
-2.0076313e-49
8.3294651e-18
0
0
-8.3157895e-18
-8.3112596e-18
0
8.3021826e-18
2.8653743e-31
-8.2931257e-18
-8.2886074e-18
8.2840959e-18
1.6559199e-17
-1.6550195e-17
4.7013069e-33
2.4798412e-17
-1.6523379e-17
-8.5894338e-31
1.6505574e-17
-2.4744953e-17
8.2439123e-18
8.2394463e-18
-8.2350698e-18
8.2306275e-18
8.2262713e-18
2.8625701e-31
-1.6435036e-17
-5.6840174e-31
-8.2087539e-18
-8.2043529e-18
-2.8782826e-31
5.7069013e-31
1.6382743e-17
8.1870063e-18
-8.1827349e-18
1.1622193e-33
8.1741436e-18
0
-8.1656045e-18
-2.8414917e-31
8.1571219e-18
-8.1528609e-18
-8.1486974e-18
1.6288933e-17
8.1403337e-18
-2.4408404e-17
-8.1320351e-18
2.4383611e-17
-8.1238059e-18
-8.1196774e-18
-4.613213e-33
-8.1115599e-18
2.4322714e-17
-5.6657709e-31
-1.619914e-17
1.6191117e-17
8.0916492e-18
-8.08768e-18
8.0838154e-18
-8.0798933e-18
-1.6152155e-17
8.0722064e-18
2.7862251e-31
8.0646248e-18
1.6121831e-17
-8.0571541e-18
-8.0535028e-18
-8.049801e-18
-2.8014166e-31
-2.7887204e-31
2.7989218e-31
1.6070941e-17
8.0320085e-18
-8.0284981e-18
-1.60502e-17
-8.021654e-18
-8.0183203e-18
5.5582778e-31
1.6023342e-17
-2.2761122e-33
2.2752032e-33
1.1909496e-48
7.998795e-18
-5.5448877e-31
1.1130986e-30
7.9895041e-18
-7.9865443e-18
7.9835475e-18
2.7672577e-31
-7.9777702e-18
7.9749877e-18
-1.1329126e-33
-7.9694566e-18
0
7.9640849e-18
5.509852e-31
-1.5917774e-17
7.9563152e-18
-2.260625e-33
-7.9513858e-18
7.9490284e-18
-7.9466378e-18
7.9443715e-18
-3.3091617e-30
-2.2024947e-30
7.9376893e-18
-1.5871213e-17
0
-5.5004158e-31
-1.6497047e-30
7.9275919e-18
7.9256708e-18
5.4613461e-31
-7.9220562e-18
7.9203633e-18
5.4464847e-31
3.3752412e-33
1.0967287e-30
-1.5827867e-17
7.9124093e-18
7.9110122e-18
-5.4402558e-31
5.4505992e-31
-1.6438937e-30
5.4600849e-31
-7.9045055e-18
0
0
0
0
-7.8992668e-18
1.6465863e-30
7.8974758e-18
7.8966076e-18
-7.8958602e-18
-7.8950775e-18
1.5788829e-17
5.462992e-31
-1.6387768e-30
-7.8925121e-18
-7.8920085e-18
7.8914652e-18
0
7.8905671e-18
5.4605672e-31
-7.8898108e-18
-7.8895219e-18
1.0986985e-30
7.888961e-18
-1.5777373e-17
7.8885168e-18
7.8882957e-18
-7.8881762e-18
7.8880013e-18
0
0
0
7.8876414e-18
-7.8876273e-18
-1.5775094e-17
7.8875528e-18
-5.4811006e-31
7.8875054e-18
7.8874476e-18
-1.5774936e-17
2.2417367e-33
-2.2417414e-33
7.887361e-18
7.8873668e-18
-1.5774574e-17
1.1208493e-33
-1.6431443e-30
7.887142e-18
-4.3801359e-30
-1.0939048e-30
7.8868051e-18
-7.8867132e-18
0
-7.8863951e-18
7.8861658e-18
7.8859915e-18
-7.8857164e-18
0
-7.8851703e-18
7.8848972e-18
7.8845189e-18
-2.737163e-30
-1.5767498e-17
-1.5766708e-17
2.3648537e-17
1.5764757e-17
0
-1.5762503e-17
-7.8805894e-18
7.8799631e-18
7.8792166e-18
7.8785034e-18
-1.5755335e-17
-1.5753725e-17
7.8759318e-18
1.5750059e-17
2.1842151e-30
-1.574599e-17
7.8718608e-18
-1.0916568e-30
-7.8695059e-18
1.5736566e-17
-7.8669264e-18
1.0954121e-30
7.864117e-18
-7.8626637e-18
7.8610753e-18
-1.5719011e-17
3.2785156e-30
1.5712228e-17
-1.5708582e-17
-5.4344588e-31
7.8505428e-18
0
0
7.844501e-18
-7.8423125e-18
-1.5680277e-17
7.8378267e-18
-2.2269915e-33
7.8330955e-18
7.8306775e-18
-7.8281236e-18
0
-7.8229202e-18
-7.8202649e-18
0
1.5629341e-17
7.8117385e-18
-1.5617648e-17
5.4021322e-31
-2.2176734e-33
7.7995812e-18
7.7964363e-18
-7.7931596e-18
7.7899029e-18
-7.786516e-18
4.424209e-33
1.5559315e-17
-7.7761875e-18
-7.7725916e-18
-7.7690208e-18
-1.0770347e-30
7.7616579e-18
0
0
-7.7502238e-18
1.0755066e-30
-2.1488104e-30
-1.0755081e-30
7.7344054e-18
-7.7303817e-18
1.0979651e-33
7.7221368e-18
0
0
0
0
0
0
0
-7.6876271e-18
0
7.6786611e-18
0
-7.6695803e-18
-2.1262292e-30
7.6603936e-18
0
0
-7.6463937e-18
-1.0609781e-30
7.6369705e-18
0
0
-7.6227127e-18
-7.6178722e-18
7.6130851e-18
7.6082081e-18
0
-7.5984758e-18
1.0791186e-33
7.5886816e-18
-7.5837991e-18
-7.578832e-18
7.5739239e-18
7.5689326e-18
0
-7.5589879e-18
-7.5540349e-18
7.5490007e-18
7.5440273e-18
0
-7.5339813e-18
-7.5289099e-18
7.523901e-18
7.5188146e-18
0
0
0
0
0
0
0
0
-7.4731643e-18
-3.6275617e-48
7.4629686e-18
0
0
0
-7.4425403e-18
-1.0315512e-30
7.4323157e-18
-7.4271685e-18
1.0304833e-30
-1.054011e-33
-1.0290637e-30
7.4067195e-18
-7.4016423e-18
7.3964974e-18
-4.1070019e-30
-7.3862774e-18
7.3812024e-18
0
0
-7.3658506e-18
-1.0219714e-30
7.3556493e-18
-7.3505861e-18
-7.3454586e-18
0
7.335278e-18
7.3302244e-18
-7.3251057e-18
-2.0315934e-30
9.0637677e-49
-1.0149057e-30
7.3047792e-18
-7.2997351e-18
-3.6201575e-48
-1.0120869e-30
-7.284488e-18
0
0
7.269339e-18
1.0323124e-33
-3.0205227e-30
7.2541538e-18
0
0
-7.239057e-18
2.0056503e-30
7.2289861e-18
0
0
0
-7.2088965e-18
1.0237291e-33
7.1988777e-18
-7.1938411e-18
7.1888705e-18
-1.9968503e-30
-1.435774e-17
7.1738407e-18
2.9859814e-30
9.9462968e-31
-9.9394213e-31
-7.1538893e-18
0
0
7.1390232e-18
9.9048956e-31
-1.9785967e-30
2.2070837e-49
-7.1192073e-18
7.1142149e-18
7.1092737e-18
0
-7.0993781e-18
-9.8498397e-31
7.0894536e-18
0
0
-7.0746523e-18
2.0093449e-33
2.1168746e-49
-7.0600461e-18
7.0549969e-18
-9.7682329e-31
9.7813902e-31
-1.9539367e-30
-7.0353595e-18
7.030492e-18
-1.950853e-30
1.9504929e-30
-1.9491259e-30
-7.0108657e-18
7.0059633e-18
-1.9440638e-30
9.733404e-31
0
-6.9864401e-18
6.9815731e-18
-9.6864529e-31
9.9075705e-34
-9.6729385e-31
9.6760778e-31
6.957239e-18
-6.9523763e-18
-6.9475194e-18
6.9426597e-18
6.9378078e-18
0
-6.9281058e-18
-6.9232553e-18
0
6.913569e-18
-9.5920886e-31
9.8110215e-34
9.5688565e-31
-6.8942255e-18
6.889399e-18
9.5487529e-31
-1.9103683e-30
-6.8749171e-18
-6.8700993e-18
1.3730551e-17
-9.7493026e-34
9.5086344e-31
6.8508318e-18
-6.8460157e-18
9.4983374e-31
6.8363962e-18
0
0
0
-6.8171804e-18
-6.8123841e-18
6.8075867e-18
6.8027951e-18
0
-6.7932157e-18
-6.7884286e-18
6.7836441e-18
6.7788607e-18
0
-6.769298e-18
-6.7645179e-18
6.7597403e-18
1.8757187e-30
-6.750188e-18
0
0
0
0
6.7263253e-18
-1.864532e-30
-6.7167851e-18
6.7120173e-18
9.3123459e-31
-9.3152537e-31
2.1914133e-49
6.6929513e-18
6.6881874e-18
-1.3366856e-17
-9.2726662e-31
9.2565797e-31
-6.6691563e-18
0
6.6596508e-18
6.6549012e-18
-6.6501497e-18
-1.8434071e-30
6.6406517e-18
0
0
-6.6264087e-18
9.1841055e-31
6.6169135e-18
0
-6.6074198e-18
9.382962e-34
-1.8321137e-30
-9.1446111e-31
6.5884439e-18
-6.5837023e-18
9.3492719e-34
-1.825532e-30
-6.5694932e-18
6.5647577e-18
1.8215887e-30
9.3156303e-34
-9.0948024e-31
-6.5458274e-18
6.5410963e-18
0
-3.6264794e-30
-9.0526703e-31
-2.7138322e-30
-9.2618243e-34
-6.5126978e-18
6.5079635e-18
8.7489052e-49
-9.022519e-31
1.8031903e-30
-9.0093807e-31
1.2968614e-17
-6.4795757e-18
-6.4748483e-18
-8.9831166e-31
8.9765558e-31
1.2921332e-17
-6.4559424e-18
-6.4512163e-18
2.1847892e-49
0
2.1847955e-49
-6.4323216e-18
6.4276e-18
2.1789571e-49
-8.9018486e-31
-9.114034e-34
-6.4087108e-18
1.2807976e-17
1.7769493e-30
-6.3945446e-18
8.8625549e-31
-8.8560039e-31
6.3803807e-18
-6.3756574e-18
-8.744006e-49
-2.6525611e-30
1.7673644e-30
-1.7642457e-30
-1.7638386e-30
2.1799151e-49
0
6.3378897e-18
0
0
-6.3237283e-18
-1.754662e-30
6.314285e-18
0
0
-1.2600237e-17
-5.2407424e-30
1.2581353e-17
-6.2859573e-18
8.9261726e-34
-8.7143193e-31
-6.2717953e-18
0
0
0
-6.2529104e-18
-1.7332218e-30
6.2434625e-18
0
0
-6.2292847e-18
8.8456248e-34
6.219828e-18
0
0
-6.2056368e-18
-1.720106e-30
-1.7214341e-30
1.719239e-30
6.1866978e-18
-6.181958e-18
1.7144108e-30
-1.7130931e-30
1.7108968e-30
6.1629509e-18
0
0
-6.1486445e-18
-5.5475986e-48
6.1390854e-18
0
0
-6.124723e-18
-3.5562274e-48
6.1151408e-18
0
0
-6.1007813e-18
-3.5451386e-48
6.0912369e-18
0
0
-6.0770019e-18
8.6292395e-34
6.0675926e-18
-6.0629196e-18
1.6831223e-30
-1.6818385e-30
1.6797032e-30
6.044499e-18
0
0
0
0
0
-6.0179143e-18
1.669009e-30
6.0093739e-18
0
0
0
0
0
0
0
-5.9767071e-18
3.315333e-30
5.968822e-18
0
0
0
0
0
0
0
-5.9375544e-18
1.6468029e-30
5.9296528e-18
0
0
-5.917638e-18
1.6429238e-30
5.9094918e-18
0
0
0
-5.8928336e-18
-1.6359812e-30
5.884315e-18
0
0
0
0
0
0
0
-5.8490816e-18
8.3056269e-34
5.8400271e-18
0
0
0
0
0
0
0
-5.8031764e-18
-8.2401852e-34
5.7938468e-18
0
0
0
-5.7751412e-18
3.203859e-30
5.765754e-18
0
-5.7563445e-18
-1.5979332e-30
5.7469383e-18
0
0
-5.7328409e-18
-5.7281336e-18
5.7234201e-18
5.718703e-18
0
0
0
0
5.6951656e-18
-8.0866306e-34
-1.1371497e-17
-5.6810297e-18
1.1352616e-17
1.1343176e-17
-5.6668743e-18
-5.6621691e-18
0
0
0
0
-5.6386597e-18
-1.5652343e-30
5.6292237e-18
0
0
0
0
0
0
0
0
0
0
0
0
0
0
-5.5586514e-18
3.0844552e-30
5.5492815e-18
0
0
5.5350949e-18
-1.5356683e-30
7.8523805e-34
-5.520918e-18
-5.5162414e-18
-3.0601304e-30
1.529946e-30
5.5022488e-18
0
0
0
0
0
-5.4737793e-18
3.0365401e-30
5.4644414e-18
0
0
0
0
0
0
0
-5.4267555e-18
3.0096351e-30
5.4173533e-18
0
0
0
0
0
0
0
-5.3806284e-18
4.4768077e-30
5.3712012e-18
0
0
0
0
0
0
0
0
-5.332078e-18
7.5708597e-34
5.3229605e-18
0
0
0
0
-5.3019059e-18
5.298091e-18
5.2943015e-18
-1.0580935e-17
-1.4679627e-30
5.2824446e-18
0
0
0
0
-5.2609664e-18
1.458968e-30
1.0505595e-17
-5.2488722e-18
-5.2450224e-18
5.241223e-18
0
0
0
-5.226001e-18
-1.4485834e-30
5.2180522e-18
5.213896e-18
-5.2096018e-18
-5.2051797e-18
5.2006618e-18
0
0
-5.1870637e-18
-5.1826878e-18
5.1784296e-18
5.1742693e-18
5.1701734e-18
2.8690528e-30
-5.1620561e-18
0
0
0
-5.1456742e-18
-5.1415131e-18
5.1373069e-18
5.1330404e-18
5.1287068e-18
1.4221909e-30
-5.1198618e-18
0
0
0
-5.1017597e-18
1.4146578e-30
5.0925357e-18
0
0
0
0
0
0
0
-5.0546129e-18
1.4015615e-30
1.0090736e-17
1.3997172e-30
-5.0361209e-18
0
0
-5.0220295e-18
7.1300159e-34
-1.3918996e-30
1.3898954e-30
5.0033431e-18
4.9987759e-18
-1.3867942e-30
-4.9896326e-18
0
0
-4.975808e-18
4.1398863e-30
1.3785097e-30
-7.0523496e-34
4.9584419e-18
-4.954216e-18
-4.9498917e-18
9.8908228e-18
-2.7410901e-30
-4.9359538e-18
4.9310829e-18
0
-4.921486e-18
-1.3660179e-30
4.9124026e-18
0
-4.903606e-18
4.8991105e-18
-5.4349831e-30
-4.8896419e-18
4.8847207e-18
0
-4.8749777e-18
0
4.8658809e-18
0
-4.8572961e-18
4.8529521e-18
-2.6898882e-30
-4.8438194e-18
4.8390594e-18
0
-4.82957e-18
-1.3398084e-30
4.8205871e-18
0
-4.8118927e-18
4.8074433e-18
-1.3650565e-33
-4.7981922e-18
4.7935174e-18
0
-4.7845855e-18
-4.7804083e-18
4.7763234e-18
4.7721638e-18
-4.7678168e-18
4.7632363e-18
4.758422e-18
-4.7534304e-18
0
0
0
0
0
0
-4.7205973e-18
-2.049947e-49
9.4237043e-18
-4.7073395e-18
-4.7027308e-18
4.698068e-18
0
0
-4.6843991e-18
-4.6800221e-18
4.6756633e-18
4.671256e-18
0
-4.6621445e-18
-1.2939471e-30
4.6527885e-18
0
0
-4.6395349e-18
-4.6353495e-18
4.6311215e-18
4.6267946e-18
0
-4.6178396e-18
1.2810174e-30
4.6087586e-18
-4.6043179e-18
-2.5546591e-30
-6.5310643e-34
-4.5917611e-18
4.5877348e-18
4.5836755e-18
0
0
-4.5709391e-18
1.2673825e-30
4.562093e-18
0
-4.5534751e-18
-4.5493618e-18
4.5453849e-18
4.5415098e-18
0
0
0
0
0
0
-4.5143778e-18
1.2518267e-30
4.506573e-18
0
0
0
0
0
0
-4.4784767e-18
-1.8222093e-49
4.4707391e-18
4.4670368e-18
1.238122e-30
-4.459645e-18
0
0
0
0
-4.4385741e-18
-1.2306675e-30
4.430064e-18
-4.4261021e-18
-4.4223201e-18
4.4186444e-18
-2.4506473e-30
-3.6734821e-30
-3.6689958e-30
1.2233316e-30
-2.4430535e-30
1.2196753e-30
4.3900737e-18
0
-4.3808853e-18
3.6438759e-30
-6.2132121e-34
-4.3681086e-18
4.3642515e-18
4.3604733e-18
-4.3566165e-18
1.2080004e-30
-3.6191667e-30
-2.411675e-30
-2.4071772e-30
1.2022498e-30
-2.4031033e-30
-4.3247953e-18
4.3205138e-18
4.3164349e-18
-4.3124398e-18
1.1951262e-30
-4.7782458e-30
-1.1933193e-30
1.1926239e-30
1.1900604e-30
1.1893363e-30
-4.2807369e-18
0
4.2727572e-18
-1.1848869e-30
-6.5240086e-49
4.2622116e-18
0
-4.2537119e-18
4.2489168e-18
4.2439427e-18
-4.2389712e-18
0
0
0
0
-4.2168022e-18
1.1691527e-30
-2.3365021e-30
4.2037923e-18
4.1991898e-18
-4.1944995e-18
0
0
0
0
-4.1728663e-18
-5.9248673e-34
4.1656974e-18
0
0
0
0
0
0
0
-4.130393e-18
-4.1255826e-18
4.1209534e-18
4.1165405e-18
0
0
0
0
0
0
-4.0887922e-18
-4.0846442e-18
4.0803154e-18
4.0758078e-18
0
0
0
0
0
0
-4.0455295e-18
-4.0417503e-18
4.0379654e-18
4.0341357e-18
0
0
0
0
0
0
-4.0054813e-18
2.2215803e-30
3.9970331e-18
0
0
0
0
0
0
-3.9669339e-18
1.1004297e-30
3.9589894e-18
0
0
0
0
-3.9388149e-18
-5.5916748e-34
3.9308102e-18
-3.9268748e-18
-1.8116151e-49
3.9192388e-18
-3.9156049e-18
2.1726279e-30
3.9086876e-18
-3.905226e-18
-2.1662415e-30
-2.1641244e-30
-3.0521077e-48
-2.1591229e-30
-1.0779002e-30
3.881935e-18
-3.8782829e-18
-3.8748013e-18
7.7428339e-18
-2.1459734e-30
-7.7294797e-18
0
3.8582083e-18
-1.0704467e-30
-1.0700564e-30
-3.2033291e-30
-3.2006287e-30
-2.1303642e-30
3.193674e-30
-2.1263136e-30
1.0634823e-30
3.8246164e-18
0
-3.8189087e-18
-5.4230192e-34
-3.1743546e-30
-3.1723009e-30
5.409802e-34
2.1112233e-30
-1.055201e-30
-3.7964914e-18
0
3.7887815e-18
-2.1008195e-30
-5.3728284e-34
3.777114e-18
0
-3.7709075e-18
3.7681992e-18
3.7653976e-18
-3.7622891e-18
0
0
-3.750852e-18
4.1599067e-30
-2.0763267e-30
2.0757007e-30
-1.0375894e-30
3.7311479e-18
3.7278368e-18
-3.724788e-18
0
0
0
0
-3.7082542e-18
-1.028534e-30
-4.1072089e-30
3.6954167e-18
3.6913782e-18
-3.6876191e-18
0
0
0
0
-3.6702006e-18
-3.6666004e-18
3.6629426e-18
3.6592037e-18
0
0
0
0
0
0
-3.6311892e-18
-3.6274271e-18
3.6236979e-18
3.6199553e-18
0
0
0
0
0
0
-3.5930543e-18
2.9887659e-30
7.1697328e-18
-3.5806812e-18
-1.0729546e-17
-3.5724291e-18
0
7.1291466e-18
-3.9539872e-30
-1.1845196e-29
-3.5530616e-18
-7.0982059e-18
7.0901011e-18
-3.5409252e-18
-3.5367694e-18
3.5326293e-18
-3.5285391e-18
5.0086307e-34
3.5205353e-18
3.5165923e-18
-3.512658e-18
-3.5087114e-18
3.5047356e-18
-3.500718e-18
-4.9690409e-34
3.4925349e-18
0
0
0
6.9514643e-18
-3.4715253e-18
-6.9346842e-18
3.4631803e-18
-3.4590284e-18
-3.4548704e-18
6.9013905e-18
1.5988542e-48
-3.4422866e-18
3.4380665e-18
6.8677027e-18
3.4296545e-18
-1.0276463e-17
3.4213549e-18
2.0996893e-47
-1.0239503e-17
6.8181858e-18
3.4050067e-18
3.400881e-18
6.7933827e-18
-6.7848474e-18
-3.3880821e-18
-3.3836894e-18
3.3792811e-18
3.3748923e-18
-1.0111652e-17
3.3662702e-18
3.3620528e-18
-3.3578876e-18
-3.3537564e-18
-4.7601246e-34
1.0036564e-17
-3.3413887e-18
5.5563123e-30
-5.5512604e-30
-9.9866134e-18
3.3246569e-18
3.3204257e-18
6.6323657e-18
-3.3119346e-18
-6.6153749e-18
6.6068924e-18
-3.2992144e-18
3.2949938e-18
3.2907866e-18
-9.8597883e-18
3.2824271e-18
3.2782844e-18
-6.5483443e-18
-3.2700905e-18
3.2660344e-18
9.7859823e-18
-3.2579584e-18
-1.3015675e-17
1.803926e-30
6.4916449e-18
3.2417776e-18
0
6.4674729e-18
7.1701013e-30
-9.6773165e-18
3.221805e-18
-7.1445774e-30
3.2138668e-18
3.2098946e-18
-6.4118554e-18
0
0
0
-3.1902572e-18
1.7691488e-30
6.3651412e-18
-3.1787543e-18
-6.3498997e-18
9.5134601e-18
-1.0548755e-29
-6.3271365e-18
3.1597738e-18
0
0
0
6.2893125e-18
-3.1409075e-18
-6.2743164e-18
9.4001955e-18
-8.8949312e-34
-6.2516948e-18
0
0
-3.1145959e-18
1.7272257e-30
6.2144542e-18
-3.1035858e-18
-6.1999122e-18
9.2889591e-18
-5.1491078e-30
-6.1779386e-18
3.085237e-18
-3.081468e-18
6.1553434e-18
3.0738599e-18
-1.022377e-29
-3.0662252e-18
-6.1248128e-18
9.1757515e-18
-1.7364286e-33
-3.0509328e-18
1.6913829e-30
-3.0433267e-18
-3.0395563e-18
1.6851007e-30
9.0961523e-18
-8.6069221e-34
-9.0735575e-18
6.0414746e-18
8.6460064e-48
-6.026345e-18
3.0093913e-18
-3.0056005e-18
6.0035832e-18
2.9979647e-18
-6.6487323e-30
-2.9903088e-18
-5.9730192e-18
-2.9827317e-18
-2.9789593e-18
8.9255175e-18
0
-2.967533e-18
-1.645083e-30
1.6429729e-30
-1.6404596e-30
2.9523839e-18
-3.2734273e-30
2.9448517e-18
-9.7950045e-30
-8.8116029e-18
5.8667032e-18
8.7885401e-18
2.9257025e-18
-8.7657695e-18
-5.8363284e-18
8.7432162e-18
-2.9106326e-18
-8.720554e-18
0
0
2.895681e-18
2.8920189e-18
0
-2.8846235e-18
-2.880866e-18
5.7541579e-18
-6.3795598e-30
-8.6084639e-18
3.1813559e-30
2.8618879e-18
2.8580589e-18
2.8542111e-18
-2.8503626e-18
-2.8465396e-18
2.8427606e-18
8.517073e-18
-2.8353058e-18
-1.1326256e-17
2.8277657e-18
5.6478173e-18
2.8200319e-18
0
-2.8124518e-18
0
-2.8052456e-18
2.8016831e-18
-6.2125385e-30
2.7943297e-18
-9.2935941e-30
-8.3596597e-18
2.7825902e-18
2.7786773e-18
-2.7748813e-18
-2.7712334e-18
2.7677229e-18
8.2928393e-18
-2.7607898e-18
-1.1028659e-17
4.5857715e-30
2.7494173e-18
5.4907298e-18
2.7413074e-18
-5.4746756e-18
-1.5173067e-30
-3.8793176e-34
2.7262348e-18
-6.0451376e-30
-2.7190431e-18
8.1460921e-18
-3.0103503e-30
-5.4159051e-18
0
0
-2.6968782e-18
1.4948702e-30
5.3784005e-18
-2.6852067e-18
-5.3622896e-18
-2.6770763e-18
2.9667592e-30
8.0076092e-18
2.6654889e-18
-2.6619171e-18
5.3168511e-18
-1.5091469e-33
-8.8308715e-30
-2.647614e-18
-5.2876e-18
7.9197495e-18
-2.9271194e-30
-5.2642349e-18
0
0
5.2413087e-18
-5.8102169e-30
-2.9001326e-30
-7.4158383e-34
-7.8161808e-18
-5.2032197e-18
4.3268361e-30
7.7828626e-18
2.5907469e-18
-2.5872241e-18
5.1673392e-18
2.8635186e-30
-8.5797651e-30
-2.5726431e-18
-5.1377662e-18
7.6953282e-18
-2.5613299e-18
-2.5575464e-18
2.5537621e-18
-2.5499856e-18
5.0924584e-18
-2.8225658e-30
-2.5388207e-18
-3.6027251e-34
-5.0632604e-18
5.0562445e-18
-4.2033693e-30
-5.0422493e-18
2.5175808e-18
0
-2.5103562e-18
-1.3910512e-30
7.5090859e-18
-2.4993608e-18
-4.9913939e-18
-2.4920365e-18
-2.4883792e-18
2.4847252e-18
2.4810744e-18
2.4774284e-18
-2.4737928e-18
1.3711342e-30
-1.3687848e-30
2.4629865e-18
-2.7310245e-30
2.4558636e-18
-8.1673414e-30
-7.34628e-18
4.8903279e-18
1.3988486e-48
-2.4378539e-18
-2.7019545e-30
1.3494532e-30
7.2804469e-18
-2.4231329e-18
-7.258313e-18
0
0
2.4083728e-18
2.4047346e-18
4.8022554e-18
-2.3975234e-18
-4.7877575e-18
4.7803571e-18
-2.3864396e-18
-7.1480811e-18
2.3789705e-18
2.3752786e-18
2.3716016e-18
2.3679062e-18
-4.7283267e-18
-2.3603703e-18
2.3565514e-18
7.0582183e-18
-2.3489573e-18
-1.9278408e-47
-3.8984428e-30
-4.6755449e-18
4.6681061e-18
4.660628e-18
-2.3265453e-18
-4.6454891e-18
4.6378401e-18
2.3150905e-18
-6.9338394e-18
-6.9225279e-18
2.303792e-18
4.6002365e-18
2.2964431e-18
-1.2726313e-30
-4.5778296e-18
-2.285053e-18
2.2811696e-18
4.5546434e-18
-3.230921e-34
-4.5397958e-18
4.5325995e-18
-3.7685258e-30
-4.5179834e-18
2.2552126e-18
4.5027104e-18
4.4949039e-18
0
-2.2397052e-18
-6.7078405e-18
-2.2322828e-18
2.228684e-18
0
0
0
0
-2.2103432e-18
1.2248013e-30
6.6082882e-18
-2.1990165e-18
-6.585934e-18
-2.1916243e-18
3.6440038e-30
4.3683181e-18
2.1803372e-18
-2.1764738e-18
4.3452353e-18
2.168825e-18
-7.211499e-30
-2.1615479e-18
-4.3160639e-18
6.4635939e-18
-6.1134863e-34
-2.1473844e-18
3.0464116e-34
-2.140033e-18
-2.1363436e-18
2.3675853e-30
6.3870105e-18
-6.040565e-34
-6.3649241e-18
-4.2358233e-18
1.1729168e-30
4.2208253e-18
2.1067248e-18
-2.1031207e-18
4.1991898e-18
2.0961106e-18
-6.9687767e-30
-2.0890813e-18
-4.1709905e-18
6.2456225e-18
-2.3077547e-30
-2.07462e-18
-2.071019e-18
-2.0674315e-18
-1.1450015e-30
1.1432907e-30
4.1131782e-18
1.1392366e-30
-4.0984926e-18
4.0911702e-18
-1.0201584e-29
-6.1151485e-18
4.069645e-18
-2.2555806e-30
-4.0553343e-18
2.0240491e-18
2.0204083e-18
4.0335249e-18
-2.0131363e-18
-6.0286436e-18
0
0
0
5.9858303e-18
5.9749532e-18
-5.9640235e-18
-5.9531046e-18
3.9615127e-18
-5.6194953e-34
1.9736387e-18
-6.5624268e-30
-5.8995735e-18
5.8887733e-18
-9.7896956e-30
-3.9113169e-18
-1.0832515e-30
1.0818167e-30
3.8898225e-18
-1.94139e-18
1.9378592e-18
-6.4431912e-30
-5.7920972e-18
5.7812334e-18
1.9234595e-18
-4.2626964e-30
3.8326518e-18
-3.8256437e-18
-1.9093318e-18
-1.9058179e-18
-5.7067811e-18
2.1078057e-30
1.8950528e-18
5.6743771e-18
-1.2575189e-29
-5.6532293e-18
0
1.8774778e-18
3.7479281e-18
-1.8703961e-18
1.8667917e-18
-6.2052648e-30
-3.719242e-18
5.5683307e-18
-4.1129255e-30
-2.0539598e-30
-2.0490509e-30
-2.0451192e-30
1.8385978e-18
-5.5049235e-18
-5.4941165e-18
1.827825e-18
3.6486959e-18
0
-1.8174651e-18
2.013236e-30
-4.0195005e-30
2.005691e-30
1.8030258e-18
-1.7994195e-18
-1.7958927e-18
5.3773156e-18
1.7936257e-47
-2.9737375e-30
1.781865e-18
-1.9730262e-30
3.5488835e-18
-3.541506e-18
-3.5343012e-18
-1.7636462e-18
1.9538247e-30
1.7566727e-18
0
0
0
3.483452e-18
-1.7380215e-18
-3.4688729e-18
5.1928202e-18
-1.7274238e-18
-5.1713808e-18
5.1600783e-18
-5.715592e-30
-3.4245488e-18
5.125382e-18
3.4095609e-18
0
-3.3954456e-18
-5.6416641e-30
-1.6903262e-18
-3.3728082e-18
1.6824182e-18
0
3.3494052e-18
4.7495703e-34
1.8512959e-30
-1.6640217e-18
-4.9807485e-18
4.9688828e-18
-2.7527534e-30
-4.9445899e-18
4.9329448e-18
-8.1976249e-30
-3.274333e-18
1.6336255e-18
-1.6298862e-18
3.2518673e-18
1.6218442e-18
-7.1837956e-30
-1.6137888e-18
-3.220097e-18
-1.6065057e-18
-1.6029998e-18
3.1987167e-18
1.5955043e-18
0
-1.5872982e-18
8.7902727e-31
7.1293484e-49
1.5757934e-18
-4.4690133e-34
1.5688664e-18
9.0843238e-48
-4.6830287e-18
4.670527e-18
4.6582777e-18
-3.0978434e-18
-3.0907304e-18
0
3.0767558e-18
-1.5346131e-18
-4.5919957e-18
4.5798586e-18
-2.5359249e-30
-3.0375209e-18
1.5151351e-18
0
-1.5081812e-18
-1.5045218e-18
1.5006645e-18
-2.4923069e-30
2.9853769e-18
8.4631229e-34
-4.4557512e-18
0
4.435172e-18
2.9495269e-18
-4.4128454e-18
-2.9340454e-18
4.3893199e-18
1.4593229e-18
-5.8229556e-18
-1.452306e-18
2.8977778e-18
2.8907798e-18
-1.6005827e-30
-1.4380112e-18
-1.4341533e-18
-1.4302916e-18
1.4265453e-18
-1.5797513e-30
2.8393078e-18
-4.7170145e-30
-4.2385651e-18
0
0
2.8035018e-18
-3.1047148e-30
-1.3947295e-18
4.1741783e-18
-1.3879639e-18
-2.3049132e-30
-4.5983153e-30
-4.1309601e-18
1.3734012e-18
-7.6026243e-31
1.5172925e-30
1.3634586e-18
-1.3600647e-18
1.9277948e-34
-7.5101073e-31
1.4978255e-30
1.345816e-18
0
-1.3390638e-18
2.6717199e-18
1.3326294e-18
-2.6585541e-18
0
1.3222093e-18
-1.3186357e-18
-2.6303713e-18
3.9358085e-18
-4.3596896e-30
-4.3483266e-30
1.3022657e-18
-3.8962928e-18
1.8406288e-34
1.2917989e-18
1.2885893e-18
-1.2855524e-18
-1.2824839e-18
1.2792463e-18
0
-1.2723816e-18
2.5378742e-18
-2.1078928e-30
-1.2624475e-18
-2.7965766e-30
-2.7890394e-30
-3.5616956e-34
-2.4998058e-18
3.7396264e-18
3.7293542e-18
0
-2.4728081e-18
-3.6998297e-18
-1.7483228e-34
1.2272226e-18
1.2240081e-18
-1.2206308e-18
-1.217184e-18
1.2138117e-18
0
2.4152892e-18
2.4093574e-18
-3.6046152e-18
-1.1982039e-18
1.1947667e-18
-3.386018e-34
-1.1880696e-18
-2.3699494e-18
-1.18197e-18
1.9634621e-30
4.7027644e-18
-3.9045724e-30
-3.5069957e-18
1.165577e-18
1.1621776e-18
1.1588679e-18
-1.1556985e-18
-1.1526222e-18
-1.1494929e-18
-3.257729e-34
1.1427808e-18
-1.1392811e-18
3.4075112e-18
2.2650911e-18
-3.3882171e-18
1.1262781e-18
2.2460278e-18
-2.2392208e-18
1.1161377e-18
-1.1126604e-18
-2.21847e-18
3.3176966e-18
-1.1026526e-18
3.6622425e-30
3.28845e-18
-2.1854831e-18
-1.0892135e-18
-1.0856177e-18
-2.1640712e-18
1.0785493e-18
6.6319672e-75
2.1438735e-18
1.0686198e-18
-1.1825348e-30
-1.0617002e-18
-2.1162883e-18
2.1091361e-18
-1.0510229e-18
-3.1427052e-18
3.1327269e-18
1.0409749e-18
-1.7891127e-47
1.0340877e-18
-3.0913149e-18
-1.026752e-18
1.023129e-18
2.0392465e-18
-1.0162145e-18
1.012821e-18
-3.3617089e-30
-2.0118521e-18
3.0074224e-18
1.1096169e-30
-4.4211411e-30
2.2020678e-30
-1.9766131e-18
1.9694233e-18
-9.8117717e-19
-3.9109535e-18
9.743796e-19
1.9420506e-18
0
1.9282534e-18
-2.1327829e-30
-5.4399393e-34
-1.0584498e-30
-9.4987495e-19
-9.4635925e-19
9.4289555e-19
9.3949887e-19
-1.8722947e-18
1.8655402e-18
-1.0316904e-30
-1.8516608e-18
1.8446759e-18
3.0603263e-30
-1.0163627e-30
-9.1217651e-19
-1.8175807e-18
9.0533413e-19
-9.0183914e-19
4.9864929e-31
8.9488017e-19
1.7829344e-18
-8.8811766e-19
-1.7696078e-18
8.8146265e-19
-8.7806807e-19
1.4567356e-30
-8.7124408e-19
-1.9274851e-30
1.7292007e-18
1.7226037e-18
1.9046586e-30
-2.8462752e-30
2.8349488e-30
-8.477838e-19
-8.4449381e-19
-8.4128445e-19
8.3808114e-19
0
0
-8.2790595e-19
4.5764922e-31
1.1669425e-34
9.0808967e-31
8.1488926e-19
0
-8.0846274e-19
-1.6101841e-18
8.0169464e-19
1.5966917e-18
1.5901807e-18
1.5838615e-18
-2.3664446e-18
-2.6166307e-30
2.3473542e-18
-1.5583375e-18
-1.5516997e-18
0
-7.69288e-19
1.5321813e-18
7.6293138e-19
-1.5195608e-18
-7.5663344e-19
8.364781e-31
2.2508407e-18
-7.4702392e-19
-2.2312802e-18
2.2216602e-18
7.3744565e-19
-2.2031459e-18
8.1169978e-31
7.2805415e-19
1.4496884e-18
8.0095295e-31
-1.4370408e-18
1.4307777e-18
-7.122503e-19
-2.1272955e-18
0
7.0279776e-19
1.3993494e-18
-3.8684141e-31
6.9342925e-19
1.3805711e-18
-1.3743051e-18
-1.3681021e-18
0
-6.7794343e-19
-7.49215e-31
-7.4585271e-31
-7.4226495e-31
1.9964282e-18
1.324736e-18
0
-1.3124665e-18
-1.4500737e-30
-6.5011414e-19
-1.941072e-18
6.4392539e-19
-3.5562501e-31
9.0634604e-35
6.3473967e-19
1.2633586e-18
-6.285935e-19
-1.2510045e-18
6.2242005e-19
0
1.2325303e-18
-6.1319369e-19
-1.8303867e-18
6.0706637e-19
6.0400126e-19
1.2018544e-18
-5.9783367e-19
-1.7841652e-18
5.9161e-19
-6.5325222e-31
-1.1708344e-18
5.8232246e-19
5.7922248e-19
1.1522185e-18
1.7189051e-18
-1.1396078e-18
-1.1332822e-18
1.1269973e-18
6.2193097e-31
-1.1144054e-18
1.1079946e-18
6.1144555e-31
-1.0951297e-18
0
1.0822766e-18
1.0757817e-18
0
-1.5939718e-18
-5.2803204e-19
-1.491369e-34
-5.2139604e-19
-5.1804043e-19
-5.7121874e-31
1.0225738e-18
1.0157634e-18
-1.6800859e-30
-1.002028e-18
9.9506958e-19
1.6453719e-30
-9.8105216e-19
0
0
0
0
9.451336e-19
5.2067732e-31
-9.3038583e-19
-4.6146591e-19
9.1541609e-19
-1.5120101e-30
-9.001918e-19
8.9249059e-19
4.9121089e-31
-4.3842052e-19
8.6876564e-19
-1.4349666e-30
-8.5356101e-19
8.4471793e-19
8.3675717e-19
-8.2858878e-19
-8.2029641e-19
0
0
0
0
-3.8892759e-19
3.8456848e-19
3.8017044e-19
-4.1712124e-31
1.4777908e-74
-3.667423e-19
-7.2437556e-19
-3.575937e-19
7.0591971e-19
1.044858e-18
-3.4357199e-19
-6.7763511e-19
1.0020676e-18
6.5837339e-19
-9.729296e-19
-6.387837e-19
-3.1443245e-19
-3.4351599e-31
6.0877762e-19
0
-2.9417761e-19
2.8900881e-19
-6.301171e-31
-7.9166985e-35
-9.0996219e-31
-2.6790884e-19
-2.6252697e-19
7.307281e-35
5.0326825e-19
4.9224587e-19
-8.0113417e-31
-4.6994102e-19
0
0
0
-2.1214328e-19
-2.0632714e-19
2.0046707e-19
1.9456301e-19
-1.8861494e-19
3.6524579e-19
5.2976061e-19
0
-3.2876523e-19
-1.7559686e-31
-1.5200158e-19
-4.3723417e-19
1.3944364e-19
-2.2163919e-31
2.5341807e-19
-8.0121336e-31
-2.2759606e-19
-5.954653e-32
-1.4311836e-35
9.4100709e-20
-8.7446867e-20
1.6149824e-19
7.4007625e-20
-1.3444488e-19
1.2078718e-19
1.5211602e-35
-5.1751882e-32
-3.9645774e-20
-9.7930651e-20
5.119602e-20
6.8458051e-49
1.1375278e-20
-7.0286618e-33
5.8686902e-21
-1.0210714e-20
-3.512857e-20
2.7646021e-32
9.6901101e-20
-1.1290773e-35
-4.7192349e-20
5.4699733e-20
-1.2449532e-19
-6.9835917e-20
1.5492829e-19
-1.7026407e-19
-1.0303924e-31
5.5835339e-31
-2.406451e-31
2.3238577e-19
-2.4810749e-19
1.3195212e-19
2.7977525e-19
-1.4785974e-19
1.5586799e-19
-3.2782382e-19
2.864532e-31
5.4031523e-19
0
0
-6.1395344e-19
-2.1289924e-19
4.4235865e-19
-4.5898185e-19
-1.3519273e-34
1.0933075e-30
2.8265558e-31
5.2608415e-19
-5.4300561e-19
-5.5998241e-19
2.8850671e-19
8.9114606e-19
3.0561667e-19
-3.1420995e-19
0
0
3.4013382e-19
-1.9362181e-31
-1.0725848e-18
-1.040965e-34
7.5001152e-19
3.837738e-19
-4.3568992e-31
-1.204092e-18
-9.1073386e-31
8.3804075e-19
0
4.3673692e-19
-8.9123187e-19
-4.5450757e-19
1.0290447e-30
4.7232479e-19
9.624969e-19
-4.9018112e-19
0
0
0
0
5.3495159e-19
-3.0191709e-31
-1.6586745e-18
5.6186446e-19
1.712515e-18
-1.7394368e-18
-5.8878527e-19
1.1955126e-18
6.0672428e-19
1.025174e-30
-1.8739428e-18
3.6016057e-34
2.140161e-30
6.5148773e-19
1.3208378e-18
6.6934071e-19
7.5277042e-31
-6.8715299e-19
-6.9604176e-19
-7.0491778e-19
-7.1378015e-19
1.6044537e-30
1.4629206e-18
0
0
7.5785669e-19
1.2764869e-30
1.101856e-34
-1.1142515e-34
-7.9278595e-19
-1.6029302e-18
-1.620243e-18
1.6375088e-18
9.1896915e-31
8.3594688e-19
2.5335142e-18
0
0
-8.7001563e-19
-8.7846293e-19
0
8.9526914e-19
-5.0158143e-31
-9.1195272e-19
9.2024685e-19
-1.8570169e-18
3.1197614e-30
2.8347961e-18
-9.5309285e-19
-9.6121887e-19
-1.938619e-18
9.7736419e-19
2.9561476e-18
-9.9336414e-19
5.5594463e-31
-2.0184306e-18
-1.0170838e-18
2.0498275e-18
-2.0654091e-18
1.1904858e-47
2.0963357e-18
0
0
-2.1421243e-18
1.1961969e-30
3.617893e-30
1.1463397e-47
3.3030347e-18
1.2306435e-30
-1.1157346e-18
-2.2460646e-18
-2.2605742e-18
2.2749972e-18
2.5415077e-30
1.151791e-18
3.8602295e-30
-1.1659084e-18
2.3458022e-18
0
1.1867534e-18
-1.324752e-30
-1.2004268e-18
-2.4143927e-18
-1.3472918e-30
2.4412017e-18
0
0
1.2403692e-18
-6.9210646e-31
-3.7599643e-18
-1.3984913e-30
2.5321849e-18
0
-1.2786818e-18
1.2849081e-18
1.2910888e-18
1.2972241e-18
1.3033138e-18
-2.6187163e-18
-3.9460709e-18
1.3213102e-18
2.6544357e-18
-3.9992394e-18
2.2284075e-48
2.6893339e-18
0
0
0
0
-2.7456713e-18
-2.7566638e-18
1.3837823e-18
4.1675606e-18
1.54895e-30
-1.3998579e-18
2.8102482e-18
2.8206878e-18
-1.4155172e-18
-5.6825761e-18
-2.8514485e-18
4.2922734e-18
2.8714891e-18
-4.322053e-18
-3.2092095e-30
2.900845e-18
0
0
0
-2.9386618e-18
-1.6362961e-30
3.2831369e-30
-1.4830106e-18
4.4624223e-18
-1.4918894e-18
-1.4962564e-18
4.501725e-18
3.0096897e-18
-1.5090658e-18
-3.0264748e-18
-3.0347192e-18
5.0679277e-30
-1.6939206e-30
4.3468968e-34
3.0667032e-18
0
1.5410475e-18
1.5448194e-18
-1.5485403e-18
-1.5522099e-18
1.5558278e-18
1.5593939e-18
-3.125816e-18
-1.5663696e-18
1.5697785e-18
-1.5731342e-18
1.5764363e-18
3.1593686e-18
0
0
-4.7673025e-18
-1.5921299e-18
3.1902073e-18
1.5980222e-18
1.6008856e-18
-3.2073894e-18
1.7843194e-30
3.2183265e-18
0
-1.6144601e-18
-4.8511408e-18
-3.5955067e-30
9.0045506e-30