/*--------------------------------*- C++ -*----------------------------------*\
  =========                 |
  \\      /  F ield         | OpenFOAM: The Open Source CFD Toolbox
   \\    /   O peration     | Website:  https://openfoam.org
    \\  /    A nd           | Version:  7
     \\/     M anipulation  |
\*---------------------------------------------------------------------------*/
FoamFile
{
    version     2.0;
    format      ascii;
    class       volScalarField;
    location    "0.00228";
    object      Uy;
}
// * * * * * * * * * * * * * * * * * * * * * * * * * * * * * * * * * * * * * //

dimensions      [0 1 -1 0 0 0 0];

internalField   nonuniform List<scalar> 
5000
(
3.9505973e-21
5.3662601e-21
0
0
-2.5924112e-21
2.8118899e-36
2.2458052e-21
0
0
-2.5521852e-21
-5.1868926e-21
2.5978373e-21
2.5904052e-21
-2.5790364e-21
0
-2.5463622e-21
2.054493e-51
2.5170873e-21
0
2.546495e-21
-2.5655648e-21
-2.5670189e-21
5.1032055e-21
-2.5357462e-21
-2.5212665e-21
-2.0699074e-35
2.5154672e-21
2.5296032e-21
-5.0893896e-21
4.4237982e-35
-4.4549526e-35
2.5401151e-21
5.0565408e-21
-5.0341836e-21
4.3476553e-35
-2.1736978e-34
-8.6591928e-35
5.0096774e-21
-5.0276015e-21
-5.0348641e-21
5.0261281e-21
-1.7245037e-34
-5.0125366e-21
2.5068e-21
7.52304e-21
-2.5085799e-21
-2.5058476e-21
-1.7123922e-34
-4.9918259e-21
0
2.5024147e-21
3.5550394e-37
-2.4915317e-21
4.9547502e-21
-8.6032919e-35
-4.8968562e-21
2.4409533e-21
-8.4452791e-35
-2.4618667e-21
0
2.4126858e-21
8.3101146e-35
6.9019078e-37
2.4547198e-21
-2.3566663e-21
8.8999678e-35
2.1845706e-21
-2.1288459e-21
-2.6472658e-21
2.3872862e-21
2.2967931e-21
-2.4039914e-21
-2.4552645e-21
4.8714597e-21
2.4152196e-21
-2.410134e-21
0
2.4504577e-21
-3.4842639e-37
-2.4382438e-21
2.4031679e-21
-6.7721673e-37
6.8326957e-37
2.4493359e-21
2.4712536e-21
8.5665628e-35
-2.4373939e-21
0
-2.3853784e-21
-2.4898126e-34
-8.5158376e-35
2.4528745e-21
2.4403351e-21
-4.8382663e-21
-1.6529347e-34
2.3713462e-21
0
0
-2.4438363e-21
-1.6782163e-34
4.7750658e-21
-2.3423322e-21
-4.6440665e-21
0
2.4026261e-21
2.4289654e-21
-2.4206696e-21
-2.3923403e-21
0
0
2.3317881e-21
2.3547058e-21
0
-2.3860676e-21
8.2764033e-35
2.3395157e-21
-2.3120686e-21
6.5550909e-37
-8.1620993e-35
-1.5988454e-52
4.7248141e-21
-9.9597377e-37
-2.3002131e-21
0
-2.2638935e-21
2.2988553e-21
2.3323831e-21
-4.6766855e-21
-2.3163444e-21
4.5834367e-21
2.2667199e-21
-2.2524852e-21
-2.26765e-21
-2.2934635e-21
0
2.2898268e-21
2.2690424e-21
-2.2480446e-21
-7.7506101e-35
2.2472257e-21
-2.2603753e-21
-2.2610716e-21
0
2.2276546e-21
2.2125343e-21
-2.2199888e-21
2.2332365e-21
-1.2718244e-36
-2.2261176e-21
2.2001569e-21
-2.1808997e-21
1.5218937e-34
2.211172e-21
-2.2273632e-21
2.2151894e-21
2.1932434e-21
-2.1696654e-21
0
0
-2.1909046e-21
-2.196707e-21
2.1868182e-21
2.167259e-21
-2.1524739e-21
-1.4935038e-34
2.1664597e-21
-2.176383e-21
-2.1723299e-21
0
2.1469668e-21
2.1459678e-21
0
-2.1570208e-21
-2.1528716e-21
0
2.1355319e-21
4.4434092e-34
-2.1384449e-21
2.1328497e-21
2.1122326e-21
-2.0965725e-21
-1.4520959e-34
1.4581226e-34
9.0808347e-37
2.1193215e-21
-2.0945002e-21
-2.8750047e-34
1.425102e-34
-1.4423011e-34
2.1165148e-21
0
0
-2.0674759e-21
-2.0556487e-21
0
0
2.0858906e-21
8.9266032e-52
-2.0519222e-21
0
2.0496953e-21
-2.063765e-21
-5.7267067e-34
4.1154748e-21
-2.0368441e-21
-4.2004784e-34
-2.8854975e-37
-2.0433317e-21
2.0478296e-21
-2.8999503e-37
-2.8004945e-34
1.3920063e-34
-2.0146601e-21
0
2.0271088e-21
1.3962909e-34
5.5628348e-34
1.9974042e-21
0
-2.0095791e-21
-2.0043289e-21
0
0
0
1.9803636e-21
1.3771923e-34
-1.9879677e-21
0
0
1.9652997e-21
1.9619919e-21
-1.9505316e-21
-1.9407425e-21
0
1.9519539e-21
1.9496421e-21
-1.9387757e-21
-1.9139886e-21
0
1.9061972e-21
-5.347369e-34
-1.3427291e-34
1.9266452e-21
-1.9042447e-21
-1.8845978e-21
0
1.8992008e-21
-2.6598172e-34
1.9080021e-21
2.6178004e-34
-3.7359459e-21
1.8646121e-21
-2.6116946e-34
-6.5905825e-34
-1.3058199e-34
-1.8626794e-21
1.8343993e-21
1.8239318e-21
0
-1.8711852e-21
-1.870464e-21
0
1.8191509e-21
1.7968276e-21
-3.6174914e-21
-1.841682e-21
1.861282e-21
1.848293e-21
5.0604683e-34
-1.7963801e-21
1.7828486e-21
-1.2515517e-34
-1.826592e-21
1.8306957e-21
-1.2619824e-34
1.2443905e-34
-5.0176745e-37
-1.2230933e-34
1.7973571e-21
0
0
-1.793014e-21
-1.7748527e-21
0
0
0
0
1.7713114e-21
1.2112165e-34
-3.5181778e-21
7.5300553e-37
1.7675926e-21
1.760235e-21
-2.4095744e-34
-2.3846892e-34
-2.4697582e-37
-1.7522323e-21
-1.7509459e-21
-1.7337599e-21
3.3748833e-21
4.991237e-21
-1.6917068e-21
-3.4768809e-21
0
1.7478884e-21
1.7051924e-21
-1.6244727e-21
4.5027609e-37
-6.9518102e-37
4.819147e-37
1.7338496e-21
1.7490195e-21
-1.7395626e-21
-3.4192492e-21
1.6819887e-21
-5.2674311e-52
1.63067e-21
4.6054521e-34
-3.4024374e-21
0
0
3.3808041e-21
-9.2238763e-34
-3.2745319e-21
0
1.6749075e-21
1.6949977e-21
-1.6945789e-21
2.3868843e-37
-2.2924861e-34
2.3200233e-37
1.6437394e-21
-1.6746886e-21
-1.6929341e-21
0
1.667598e-21
-2.2855761e-34
-1.6357907e-21
3.3048911e-21
-4.6388451e-34
-1.6789358e-21
-4.6478729e-34
-3.3236462e-21
3.3107465e-21
1.6609713e-21
-1.6735441e-21
-2.3858672e-37
-1.6768743e-21
0
0
1.6629604e-21
-2.287365e-34
-3.2771786e-21
2.3412196e-37
4.9864038e-21
-1.6709303e-21
-1.6652547e-21
3.2819073e-21
-1.625432e-21
1.6383547e-21
3.3264902e-21
-1.6771764e-21
-1.6636059e-21
-1.6262318e-21
1.5978373e-21
-2.9554156e-51
-1.6567168e-21
1.6937527e-21
-1.6986488e-21
1.6703367e-21
4.5408965e-34
4.5423632e-37
1.5916475e-21
-3.2790301e-21
1.6858651e-21
4.7310333e-34
-4.6996363e-34
-1.6714217e-21
-3.274098e-21
4.8420155e-21
4.524851e-34
-9.2898118e-34
4.7114483e-34
-3.4021808e-21
3.3667287e-21
-4.5679911e-34
-3.2476074e-21
0
0
1.7112746e-21
-2.3660207e-34
-1.6866332e-21
-1.6425269e-21
1.6231244e-21
4.9712258e-21
-1.7066375e-21
-1.7340379e-21
-4.9183459e-37
-1.7070623e-21
0
3.2967319e-21
3.317407e-21
-1.7000943e-21
-3.4572075e-21
-1.7358277e-21
3.4611272e-21
3.4331598e-21
-3.4149442e-21
-3.4326488e-21
0
3.4687656e-21
-1.7316531e-21
-3.4236915e-21
1.7016994e-21
1.7222162e-21
-2.4733567e-37
2.4192804e-34
1.7331668e-21
-1.7007789e-21
-1.6867444e-21
1.7162426e-21
-2.4236743e-34
-2.4998519e-37
-2.4204926e-34
-1.7040383e-21
1.6761975e-21
-7.0624144e-34
-2.422229e-34
-4.9169729e-34
-1.7679016e-21
1.7398618e-21
-2.3266949e-34
-4.5542713e-34
-2.3919582e-37
-3.4887279e-21
-1.7780627e-21
1.7882393e-21
3.5689523e-21
-2.4551524e-34
-3.5006683e-21
-1.7229647e-21
3.4076892e-21
1.7209477e-21
-1.758896e-21
-1.7788694e-21
-4.9323036e-34
1.7614371e-21
0
0
1.7224446e-21
0
-1.7924284e-21
1.783959e-21
2.5051173e-37
-4.8169546e-34
0
-1.7513375e-21
1.7773727e-21
1.7807402e-21
-3.5426095e-21
-1.7462493e-21
1.733719e-21
0
0
-1.7758724e-21
4.8897765e-34
1.7214209e-21
0
0
-1.7775152e-21
7.4309854e-34
1.7663146e-21
0
0
0
0
0
0
0
0
3.4143899e-21
9.6388945e-34
-1.7621481e-21
1.768974e-21
-1.7589379e-21
1.7189451e-21
-4.7148911e-34
-1.721094e-21
-4.86703e-34
-1.7674087e-21
0
0
1.6629102e-21
4.6809861e-34
-1.7404035e-21
0
0
0
0
0
0
0
3.5378387e-21
-1.4769583e-33
-3.4890518e-21
1.7075345e-21
2.3145828e-37
1.5960175e-21
-9.1634258e-34
-3.4271293e-21
-1.7426875e-21
-1.2543041e-51
5.1578808e-21
0
-3.2822021e-21
0
0
3.432872e-21
-4.7479666e-34
-5.0855177e-21
1.6503347e-21
1.6284511e-21
-1.6602337e-21
1.6892587e-21
-1.6974265e-21
-4.6801848e-34
1.648777e-21
-1.625731e-21
0
-1.6736205e-21
1.6786219e-21
3.3325364e-21
-1.6330576e-21
-1.6172087e-21
-1.6358067e-21
-1.6593705e-21
3.3044662e-21
1.6030113e-21
-1.5655532e-21
0
1.6258371e-21
-1.653447e-21
-1.6343699e-21
4.7588031e-21
4.3527612e-37
-3.0585684e-21
1.5860435e-21
2.2433615e-34
1.614333e-21
-4.527274e-37
-3.0729036e-21
1.5069243e-21
0
-4.3749349e-34
-2.2631073e-37
-1.5790221e-21
1.5313425e-21
-4.1583246e-34
-2.0981209e-34
-2.2048837e-37
-1.573913e-21
1.5511172e-21
9.3327918e-52
-3.9743565e-34
-2.066553e-37
-3.0332887e-21
-2.1439986e-34
1.5405892e-21
0
0
-1.3850075e-21
-5.9712402e-34
1.4956883e-21
-1.5153482e-21
2.0868859e-34
1.0534164e-50
-1.9219909e-34
1.3545427e-21
1.4120221e-21
2.040897e-34
-1.4846945e-21
0
0
1.3456782e-21
-1.3255457e-21
1.1580598e-33
1.4506659e-21
-1.4597507e-21
0
1.3497528e-21
1.2655963e-21
-1.2838175e-21
-1.3758763e-21
0
1.4192708e-21
1.4093479e-21
-2.8040321e-21
-1.4018654e-21
1.4062645e-21
1.3962354e-21
1.8904698e-34
1.3271009e-21
3.5597437e-34
-2.5486782e-21
0
0
0
1.3270617e-21
1.2756387e-21
0
-1.2559272e-21
-1.8035465e-34
1.3156928e-21
0
0
-1.1847305e-21
-1.6238802e-34
1.7047323e-34
-1.2791353e-21
1.2890939e-21
-5.2625548e-34
-1.227729e-21
0
-1.162957e-21
-1.6508238e-34
1.217515e-21
-1.226263e-21
1.2199426e-21
1.2099316e-21
-1.2002623e-21
0
1.1912307e-21
1.1906598e-21
-1.1852588e-21
-1.1727785e-21
0
-1.1422737e-21
1.1313872e-21
1.1272331e-21
-1.1282067e-21
-2.2553952e-21
6.2391831e-34
3.350099e-21
3.3114712e-52
-1.1021285e-21
-2.1908137e-21
6.0386939e-34
2.1609719e-21
-1.071937e-21
1.0635738e-21
-1.0559483e-21
-1.0492361e-21
2.0829514e-21
0
0
-2.0210227e-21
-1.3790925e-51
1.9966174e-21
0
0
-1.9590447e-21
-2.6349105e-51
1.9216132e-21
0
0
-1.8792528e-21
-9.2011257e-22
1.8013112e-21
8.8718453e-22
0
-1.782041e-21
4.9779642e-34
1.7868503e-21
-8.7825883e-22
0
8.350009e-22
-8.2140836e-22
1.161491e-37
8.2247637e-22
-8.2705886e-22
8.2546923e-22
8.1716548e-22
-8.0184018e-22
-7.8080218e-22
2.115981e-34
7.4929307e-22
-7.4560972e-22
-2.0828883e-34
7.5360286e-22
-7.5203817e-22
7.4295955e-22
7.2737096e-22
-7.1035099e-22
-6.9656654e-22
1.916008e-34
6.8995576e-22
-6.9138784e-22
9.7767596e-38
6.7549286e-22
-6.557036e-22
6.3819482e-22
6.2871509e-22
-6.270678e-22
-1.2577391e-21
3.4857876e-34
1.2433068e-21
-6.1410682e-22
8.6206345e-38
1.1998524e-21
1.6874182e-37
-5.8701701e-22
0
5.6875889e-22
0
-5.5279971e-22
0
0
0
-5.3652455e-22
-6.8506898e-52
5.101734e-22
0
4.9149278e-22
-1.3623196e-34
-4.9142408e-22
0
0
0
-4.6489929e-22
1.2632209e-34
4.4897757e-22
0
4.4627301e-22
1.231e-34
-4.351534e-22
0
4.0341147e-22
-3.9232053e-22
2.1702399e-34
3.9330981e-22
-3.9400182e-22
0
-3.8469122e-22
-1.0482128e-34
3.691007e-22
0
3.5335406e-22
-3.4768304e-22
-1.9040671e-34
3.3825137e-22
-1.8525214e-34
-4.6745216e-38
8.9952255e-35
-4.5149736e-38
-3.1004601e-22
0
2.9208763e-22
-7.9224084e-35
-7.7883336e-35
2.4325513e-52
-7.5143114e-35
0
-5.1417069e-22
-6.946768e-35
2.4344736e-22
-2.3675586e-22
6.3790895e-35
2.2243495e-22
2.1443195e-22
5.7275136e-35
-5.5115914e-35
1.9117549e-22
-1.8403801e-22
-1.7680668e-22
0
-1.6188524e-22
4.290141e-35
1.4741987e-22
0
0
0
-2.4094093e-22
1.247392e-34
2.054925e-22
0
0
0
0
0
0
0
-6.7272479e-23
1.1760651e-35
1.1972812e-23
-8.4893104e-24
1.8643023e-23
2.4772561e-23
-8.448793e-36
-2.1391902e-35
-4.9711138e-23
6.3493727e-23
-7.8051977e-23
-9.0006753e-23
9.8837947e-23
1.0728728e-22
-6.5359532e-35
-1.3137027e-22
-1.4690313e-22
4.442731e-35
1.687218e-22
1.7491863e-22
-1.8262945e-22
-1.9379241e-22
2.083286e-22
-2.270617e-22
0
2.6384665e-22
2.7190359e-22
-7.6917365e-35
-2.8509108e-22
2.9674263e-22
-3.1173917e-22
-3.3057432e-22
3.5309748e-22
-3.7440315e-22
-1.0777982e-34
3.953603e-22
4.0288101e-22
5.8928955e-38
-8.6130165e-22
-2.5034904e-34
4.7396226e-22
4.9370925e-22
0
-5.1495514e-22
0
0
0
-5.858111e-22
-6.0754908e-22
6.229457e-22
6.3341631e-22
0
-6.6082491e-22
1.8912704e-34
7.0455141e-22
0
0
-7.6811251e-22
4.3338523e-34
7.9507788e-22
0
0
-8.5904939e-22
4.9109349e-34
9.0934706e-22
0
-9.4885091e-22
2.6835419e-34
-2.7362301e-34
2.8011949e-34
1.034786e-21
0
1.0899896e-21
-6.1907361e-34
-1.1387431e-21
0
-1.1861185e-21
1.2136845e-21
1.2429863e-21
-2.5440416e-21
-3.6133223e-34
2.6557921e-21
-3.7715812e-34
-1.3922788e-21
0
0
-1.5017729e-21
4.2600072e-34
1.5677119e-21
0
-1.6423131e-21
1.684113e-21
1.7270201e-21
-1.7707105e-21
0
1.8639127e-21
-1.9136549e-21
-1.0900263e-33
1.1175066e-33
-2.063037e-21
1.7612414e-33
-2.1700473e-21
2.2278697e-21
-6.3491552e-34
1.3051732e-33
4.8353661e-21
-6.9133236e-34
-2.5716949e-21
0
0
0
5.7229244e-21
2.9376946e-21
-6.0595647e-21
-3.1362368e-21
0
0
-3.4607933e-21
4.9140953e-51
3.6507858e-21
0
7.7730565e-21
4.0249568e-21
-8.3368037e-21
-4.3101471e-21
0
9.1709093e-21
1.3441882e-36
-1.4655206e-20
1.401874e-33
1.0466204e-20
-5.4190006e-21
-3.1873283e-36
5.7961623e-21
-1.6636706e-33
-3.4332858e-33
-6.4010522e-21
0
-6.8664276e-21
3.9490514e-33
1.4724789e-20
-7.6158039e-21
1.311576e-32
8.1542734e-21
-1.6898289e-20
1.2448165e-36
9.0782931e-21
0
0
0
1.0408864e-20
-1.0790647e-20
-2.238223e-20
1.1603125e-20
3.3365668e-33
3.4484075e-33
1.2861025e-20
0
-1.3799375e-20
2.0328467e-36
2.9645911e-20
-1.5348436e-20
-8.8126529e-33
1.6439888e-20
1.7020831e-20
-9.795e-33
-3.6516643e-20
0
-1.9575447e-20
-2.0263608e-20
0
2.1707506e-20
2.2464699e-20
-2.3247703e-20
0
2.4901418e-20
0
0
-2.758651e-20
2.376107e-32
2.9512623e-20
0
0
-3.2664015e-20
-3.3776612e-20
3.4921216e-20
3.6103267e-20
-3.7326195e-20
-3.8589055e-20
7.9778083e-20
4.1226057e-20
-1.1836394e-32
-4.4028326e-20
2.5242652e-32
2.6082785e-32
-4.8568166e-20
5.0165639e-20
-5.1814491e-20
5.3522142e-20
4.7141392e-35
-5.7103505e-20
1.1792066e-19
6.0860192e-20
6.2816315e-20
-1.2968842e-19
-1.3389859e-19
6.9122115e-20
-7.13459e-20
7.3611311e-20
-4.2166519e-32
-1.566257e-19
8.0790685e-20
-2.3136893e-32
2.389883e-32
8.8741448e-20
0
0
-9.7232104e-20
-1.0022908e-19
0
1.0654275e-19
1.0983745e-19
0
1.1664466e-19
-3.336816e-32
-1.2379118e-19
1.2752718e-19
-3.6443366e-32
-1.3533242e-19
0
-1.4353402e-19
-8.2051837e-32
1.5214312e-19
-1.5662288e-19
4.4700425e-32
1.6594999e-19
1.7079337e-19
4.877894e-32
-1.8084078e-19
0
1.9139241e-19
-1.9686293e-19
5.7544216e-35
-1.1562911e-31
-2.1408928e-19
2.2012157e-19
0
4.6525795e-19
-5.3087064e-31
-2.4571314e-19
-1.4014658e-31
-5.1882448e-19
5.3301505e-19
5.4753059e-19
-5.623653e-19
-5.7752321e-19
-2.965097e-19
0
3.1254071e-19
6.4164809e-19
-4.679376e-35
3.3791588e-19
-3.4673377e-19
-3.5574344e-19
3.6494757e-19
-7.4868637e-19
7.6785402e-19
6.557142e-31
-8.0734762e-19
8.2770591e-19
-2.3548621e-31
4.3483597e-19
-4.456331e-19
-4.566345e-19
4.6784779e-19
1.3295064e-31
9.8187558e-19
-1.0056284e-18
-1.0298106e-18
1.0544204e-18
1.497969e-31
5.5248882e-19
-3.1404551e-31
-5.7871338e-19
-1.6435335e-31
2.6580954e-48
-6.1980788e-19
-1.2679153e-18
6.4834143e-19
-6.3881523e-48
6.7786404e-19
1.1544215e-30
-7.0841461e-19
1.4480982e-18
-4.1070724e-31
-1.5120215e-18
7.9309367e-49
7.8898791e-19
0
0
8.4044656e-19
-8.5809205e-19
-1.7519694e-18
0
0
0
9.5022331e-19
9.6944304e-19
0
-1.0086479e-18
1.0286448e-18
1.7469767e-30
-2.1389015e-18
0
0
0
1.1542425e-18
1.1761088e-18
-1.1982463e-18
1.2206493e-18
6.9048575e-31
-2.5324644e-18
0
0
2.6732145e-18
-3.8670865e-34
-1.3848732e-18
1.4093898e-18
-1.4341611e-18
1.4591946e-18
-8.2443059e-31
-3.0201374e-18
0
0
1.5883349e-18
1.6149316e-18
0
0
-1.6962597e-18
-1.7238695e-18
0
1.7798331e-18
1.8081931e-18
-1.8368029e-18
1.8656542e-18
1.8947399e-18
-1.9240584e-18
-1.9536141e-18
1.1015073e-30
2.0134461e-18
-2.0437132e-18
-5.7567066e-31
2.1049188e-18
0
2.1670179e-18
-1.2205906e-30
-2.2299903e-18
2.2617894e-18
-1.2735582e-30
-2.3260215e-18
0
2.3911034e-18
-6.7307953e-31
-3.4915434e-34
2.4901531e-18
-2.5235395e-18
-2.5571205e-18
0
5.2497048e-18
-2.9533866e-30
-2.6932783e-18
-3.8763433e-34
-5.5246955e-18
5.5942336e-18
5.6640812e-18
-5.7342415e-18
-2.9023582e-18
0
5.9465531e-18
-5.0096971e-30
-6.0893915e-18
0
6.2331902e-18
1.7509088e-30
-3.1890212e-18
-8.9563102e-31
-6.5237566e-18
6.5968606e-18
8.3299997e-30
-6.7436098e-18
6.8172908e-18
-1.9120698e-30
-6.9651857e-18
-3.51966e-18
7.1135459e-18
3.5939357e-18
-7.2623181e-18
7.3368991e-18
9.2559786e-30
-7.4863914e-18
7.5612276e-18
-1.060195e-30
3.8554901e-18
-4.3195632e-30
-1.1791367e-17
2.2025268e-30
8.0109919e-18
-4.0430065e-18
-8.1609931e-18
4.1179674e-18
-2.3071669e-30
4.1928693e-18
4.6986749e-30
-4.2676883e-18
8.6100704e-18
-3.6160988e-30
4.862599e-30
-2.4503688e-30
-4.4538576e-18
0
-4.5279161e-18
-4.5648332e-18
0
0
0
0
0
4.7843873e-18
4.8205878e-18
0
-4.8926123e-18
4.9284571e-18
8.269328e-30
-9.9995728e-18
0
0
0
5.1404826e-18
5.1752491e-18
-5.2098603e-18
-5.244304e-18
1.0557132e-17
8.8512815e-30
-1.0693023e-17
0
1.0827303e-17
9.0734376e-30
-5.4799491e-18
5.5127811e-18
-5.5454044e-18
5.5778133e-18
3.1139722e-30
-1.1283852e-17
0
0
5.7362283e-18
5.7671827e-18
0
5.8283387e-18
1.6650889e-33
5.8884013e-18
-5.9180131e-18
-1.7842063e-17
0
-1.2010465e-17
-1.2067497e-17
0
1.8269583e-17
1.2234909e-17
-1.2289501e-17
6.171755e-18
6.1984625e-18
-1.8674574e-17
-6.2509264e-18
-8.9196704e-34
-6.302063e-18
6.3271439e-18
6.3519072e-18
6.3763482e-18
-1.1471428e-48
6.424216e-18
6.4476233e-18
-6.4706788e-18
0
-1.3031521e-17
-1.307558e-17
0
6.5807798e-18
1.3203446e-17
3.6749372e-30
6.6425093e-18
1.3324722e-17
-1.3363699e-17
-1.3401935e-17
-6.719709e-18
-6.7380722e-18
0
6.7736678e-18
2.037269e-17
-6.8077407e-18
8.4012225e-47
2.0520806e-17
-1.3711914e-17
-6.8712606e-18
-6.8861729e-18
-1.3801377e-17
1.3829614e-17
6.9285333e-18
-6.9418718e-18
-6.9548211e-18
-6.967374e-18
2.0938569e-17
6.991266e-18
-2.1007819e-17
-7.013548e-18
7.0240923e-18
1.4068474e-17
-7.0439823e-18
7.0533281e-18
-1.1758288e-29
1.1776529e-29
2.1236844e-17
-7.0866706e-18
-7.0939867e-18
-1.4201807e-17
-7.1074247e-18
1.4227092e-17
2.0234151e-33
7.1245631e-18
-7.1294696e-18
-2.1401944e-17
2.141427e-17
7.1417895e-18
-2.1435224e-17
0
2.1451321e-17
7.1525537e-18
-2.1462854e-17
7.1556072e-18
1.4313024e-17
3.9726821e-30
-7.9444483e-30
-7.1567778e-18
0
-1.4309855e-17
-1.4306842e-17
7.1515252e-18
7.1492394e-18
1.429313e-17
-7.1435053e-18
-7.1400643e-18
1.4272495e-17
0
-1.4254983e-17
-1.4245101e-17
7.1172349e-18
1.4223094e-17
-3.944087e-30
-7.0990696e-18
1.4184577e-17
-7.0851479e-18
2.357179e-29
1.4139571e-17
-7.0615667e-18
0
-1.4088156e-17
0
1.560011e-29
7.0152706e-18
1.4009969e-17
-2.098308e-17
1.9848019e-33
1.3944226e-17
0
-1.3897127e-17
-6.9363049e-18
1.3847455e-17
-7.6730591e-30
-6.8976308e-18
1.3768237e-17
-6.8703002e-18
1.1415154e-29
1.3683523e-17
-6.8270479e-18
6.8120421e-18
-1.3593493e-17
-2.0343491e-17
0
2.0247469e-17
1.3465487e-17
-2.0148186e-17
-1.3398227e-17
6.681899e-18
1.3328842e-17
-6.6466853e-18
-6.6286983e-18
1.3220932e-17
-6.5919908e-18
-1.3146549e-17
6.5543207e-18
-9.2869819e-34
1.3031429e-17
1.2992142e-17
-1.942862e-17
6.4561262e-18
1.0718958e-29
-1.9245988e-17
0
1.9121123e-17
1.2705198e-17
-6.3312986e-18
-6.3098102e-18
-6.2881368e-18
0
-6.2442428e-18
3.4537007e-30
1.2399311e-17
-3.4278916e-30
-6.15442e-18
0
-6.1085523e-18
1.2170774e-17
1.8186233e-17
-1.2077264e-17
-1.8045161e-17
-5.9913443e-18
5.9675042e-18
1.188707e-17
-5.9194414e-18
5.8952324e-18
5.8709148e-18
-1.1692984e-17
1.164393e-17
5.7973353e-18
-1.7317813e-17
-1.1495554e-17
5.7228618e-18
1.7093593e-17
-1.2595314e-29
1.2539466e-29
5.6224052e-18
6.2136324e-30
5.5717266e-18
-5.5462906e-18
-5.5207986e-18
-5.4952533e-18
5.469656e-18
5.4440072e-18
-1.6254925e-17
5.392565e-18
1.073357e-17
-1.6022918e-17
-1.5106512e-33
5.2892612e-18
-1.0526725e-17
-5.2374372e-18
0
5.1855299e-18
5.1595594e-18
1.0267163e-17
-5.1075964e-18
1.692406e-29
1.5166824e-17
-5.0296113e-18
-5.0036203e-18
-4.9776386e-18
4.9516681e-18
4.9257093e-18
-1.4699289e-17
4.8738322e-18
9.6958435e-18
8.0311588e-30
4.7961761e-18
-9.5406885e-18
-1.4233618e-17
-2.6186013e-30
2.6049819e-30
6.6326482e-34
4.6416441e-18
9.2320373e-18
4.5904349e-18
-1.3694679e-17
5.0394181e-30
9.0278875e-18
0
0
-4.4378971e-18
2.4493572e-30
-2.4347511e-30
-4.3623288e-18
8.6745127e-18
4.3122459e-18
4.7583322e-30
-4.2624067e-18
-1.2712732e-17
-4.2128122e-18
0
0
0
1.2343322e-17
8.1800353e-18
-1.2196988e-17
4.4876939e-30
8.0343419e-18
0
0
-7.8899932e-18
8.7059996e-30
4.3254274e-30
-7.7469663e-18
3.8497986e-18
7.6523859e-18
7.6053325e-18
-3.7792172e-18
-1.1267533e-17
-3.7325478e-18
0
0
0
1.0920463e-17
7.2345089e-18
-1.0783298e-17
7.9302358e-30
3.5490257e-18
-5.0113767e-34
3.5039401e-18
-6.9630307e-18
3.8402016e-30
3.4368974e-18
-6.8294132e-18
0
1.8713998e-30
6.6972303e-18
6.6534762e-18
-9.9148086e-18
-6.5664227e-18
3.2615654e-18
1.7979853e-30
-3.2185104e-18
9.5912851e-18
6.3515033e-18
-3.1544818e-18
-3.1332878e-18
3.1121711e-18
3.0911313e-18
-3.0701648e-18
-3.0492678e-18
1.6810143e-30
-1.6690656e-30
-2.9870007e-18
0
-2.9458567e-18
5.8507802e-18
8.7149686e-18
-5.7693112e-18
-5.7287809e-18
-2.8441959e-18
3.1347486e-30
5.6080371e-18
-2.7840291e-18
2.764102e-18
2.7442386e-18
-5.4488821e-18
5.4094222e-18
2.6850494e-18
-2.6654531e-18
-5.291836e-18
-2.6264425e-18
5.2140561e-18
-1.4356218e-30
2.5683907e-18
2.5491696e-18
-7.5900309e-18
2.5109086e-18
2.4918638e-18
-7.4186336e-18
3.4872772e-34
7.3052757e-18
2.416294e-18
-7.1926661e-18
2.3788717e-18
9.6753379e-47
3.8987489e-30
4.6463137e-18
-4.6094105e-18
-4.5726311e-18
2.2679845e-18
-2.4975177e-30
-4.4629699e-18
2.2133175e-18
6.5856234e-18
2.1771577e-18
-2.159168e-18
0
-2.1233602e-18
-4.211076e-18
2.9669013e-34
6.2101853e-18
2.0524116e-18
-4.0696432e-18
2.8667411e-34
3.9996265e-18
-3.964784e-18
3.2727769e-30
3.895443e-18
-5.7914304e-18
-3.8265865e-18
0
0
1.8620837e-18
5.5353826e-18
1.8282325e-18
-5.4342053e-18
1.9923186e-30
3.5558616e-18
-3.5225655e-18
-3.4893836e-18
1.7281602e-18
3.423381e-18
-1.6952862e-18
-1.6789493e-18
4.9880357e-18
1.6464704e-18
2.7153239e-30
-8.955668e-31
-1.5982198e-18
1.5822658e-18
-3.1327585e-18
-4.6516834e-18
0
4.5573869e-18
3.0070287e-18
-4.4639046e-18
4.1850712e-34
1.4570835e-18
-2.8834927e-18
1.4264805e-18
1.4112874e-18
1.5499588e-30
-1.381122e-18
-2.7322959e-18
1.3512463e-18
2.6728355e-18
2.6433286e-18
-1.451328e-30
-1.2923937e-18
1.2778763e-18
-2.5268689e-18
-3.7472035e-18
0
3.6616987e-18
2.4128746e-18
-3.5771792e-18
1.3085732e-30
1.1645504e-18
-1.1507484e-18
-1.1370269e-18
6.2324645e-31
2.2196697e-18
-6.0856834e-31
-2.1659812e-18
1.1873733e-30
1.1727094e-30
2.0867194e-18
3.0909619e-18
-2.0347424e-18
1.115447e-30
3.3026744e-30
-9.7906086e-19
-9.66466e-19
-1.9079184e-18
2.8246293e-18
9.2922085e-19
-1.8339855e-18
1.8097125e-18
5.0750346e-34
-2.642557e-18
-8.6898563e-19
8.572125e-19
2.5366094e-18
-2.777696e-30
-1.6449456e-18
-8.1107998e-19
1.5995576e-18
2.3657099e-18
-2.3323688e-18
-7.6644111e-19
-8.3853267e-31
-7.4470477e-19
1.4679572e-18
-4.0151199e-31
7.1280741e-19
-7.0236519e-19
2.3051434e-30
2.0453366e-18
-2.0148962e-18
-1.9847394e-18
0
0
0
6.2232326e-19
1.8382729e-18
6.0328914e-19
6.5933608e-31
5.8463438e-19
-1.7263387e-18
-5.6635287e-19
5.5735848e-19
5.4846488e-19
5.3966979e-19
-1.06194e-18
5.2236376e-19
-5.1385059e-19
1.6833134e-30
9.9420817e-19
-1.4666212e-18
-9.6147964e-19
0
9.2951499e-19
5.0723619e-31
-4.4914911e-19
1.3244491e-18
4.339079e-19
-4.2642371e-19
0
0
-4.0452736e-19
-7.9482437e-19
8.6677679e-31
7.6689895e-19
3.766007e-19
-3.6984063e-19
3.631695e-19
-3.5658667e-19
-3.3553657e-47
5.7240573e-31
-1.0120754e-18
0
0
6.3781069e-19
6.2584563e-19
3.0702234e-19
-3.3434e-31
-8.8641225e-19
3.2182712e-31
5.6850378e-19
0
-5.4670293e-19
-2.6801675e-19
5.2552259e-19
-2.5758718e-19
-2.524932e-19
7.4243059e-19
-2.4253584e-19
7.9154238e-31
4.6574509e-19
-6.8445441e-19
-4.4701138e-19
0
0
0
6.1693228e-19
4.0271007e-19
-5.9141428e-19
-3.8598315e-19
0
3.6980145e-19
-2.0088211e-31
-1.7706211e-19
3.4648169e-19
-1.6948867e-19
1.6580391e-19
1.6218351e-19
-4.7587405e-19
3.1024943e-19
3.0336406e-19
-1.4829788e-19
1.4497469e-19
-2.8342553e-19
-4.1553272e-19
0
3.9684474e-19
2.5850235e-19
-1.2627463e-19
-1.2335013e-19
1.3374856e-31
-1.1765936e-19
3.8272367e-31
1.1218848e-19
6.0814584e-32
4.9701299e-49
-1.043695e-19
0
-9.939e-20
1.9394814e-19
2.8382817e-19
-2.768807e-19
-2.7007346e-19
0
1.7122902e-19
1.6693933e-19
-1.6273641e-19
7.9312952e-20
7.7303369e-20
-2.2601119e-19
1.4682402e-19
1.4305063e-19
-6.9673793e-20
-1.3571562e-19
-6.6080623e-20
1.9303231e-19
6.2647729e-20
1.0156196e-31
-1.1873705e-19
-3.2844988e-35
1.6867818e-19
-1.0940311e-19
-1.5962989e-19
-5.1753122e-20
1.5099423e-19
9.7887498e-20
-1.4276618e-19
1.0273496e-31
8.9937756e-20
4.3699173e-20
-2.3566813e-32
-8.2489146e-20
4.4476163e-32
-3.8911713e-20
-3.7789045e-20
1.1008092e-19
3.5622601e-20
3.8382251e-32
-6.7096619e-20
1.0839929e-31
9.4725761e-20
-6.1246816e-20
3.298974e-32
3.2009732e-32
6.2023845e-32
2.7067672e-20
-7.8686838e-20
2.5411251e-20
4.0985868e-32
7.9413229e-32
6.9279485e-20
-2.2361031e-20
-4.3292001e-20
2.325559e-32
-2.0269036e-20
-1.9609411e-20
3.7938312e-20
3.6694449e-20
-1.9692367e-32
-5.1442951e-20
1.8389991e-32
1.6008671e-20
-3.0931087e-20
1.4940251e-20
1.4431138e-20
-7.7303045e-33
7.4634478e-33
-1.2970014e-20
2.5019159e-20
-1.2065387e-20
3.8764286e-32
3.7381823e-32
-3.2464286e-20
2.0850696e-20
-2.8529156e-36
-1.9325161e-20
9.3013759e-21
2.6862641e-20
8.6208188e-21
-2.4895213e-20
8.8616081e-33
7.6716512e-21
-1.4738535e-20
1.4155802e-20
3.3967737e-32
-6.5302248e-21
6.2734227e-21
-6.0248977e-21
1.1561847e-20
-5.5415375e-21
-1.59282e-20
0
0
9.3390593e-21
1.2718815e-36
-8.573325e-21
4.1015835e-21
1.1761496e-20
3.7456903e-21
-1.0735417e-20
-9.7178849e-37
-3.6279371e-33
-6.2471251e-21
8.9488044e-21
1.4212336e-32
-2.7105639e-21
2.5821107e-21
2.4600768e-21
-2.6046598e-33
-2.2366446e-21
4.2642989e-21
-4.0582238e-21
6.4219737e-33
3.6630051e-21
-5.2198931e-21
-3.3086001e-21
1.5748647e-21
4.499211e-21
1.4257122e-21
-1.3523147e-21
0
1.2145671e-21
-1.1524834e-21
-3.2883052e-21
-5.7971806e-34
1.9879607e-21
-9.4339205e-22
-8.9411657e-22
1.6952785e-21
-8.0481963e-22
7.6636947e-22
1.462575e-21
-2.0920386e-21
2.2118075e-33
-1.4047529e-33
-1.2077913e-21
1.1581959e-21
5.57154e-22
5.3519532e-22
5.6852218e-34
-4.8840533e-22
9.3739379e-22
-9.0710673e-22
-1.3295876e-21
0
4.268163e-22
-2.2923872e-34
-1.1301732e-37
1.1564408e-21
3.7832732e-22
-1.1266387e-21
3.7592143e-22
-3.6382639e-51
-1.128105e-21
3.7191616e-22
1.1006295e-21
3.6347594e-22
-7.2580659e-22
3.6534023e-22
-3.6993343e-22
1.2510223e-33
7.6308585e-22
-1.1578716e-21
-4.3103775e-34
1.7285675e-33
-7.8315682e-22
7.9338161e-22
4.4885096e-34
-4.1387535e-22
8.4800775e-22
4.3142329e-22
0
0
-8.8606633e-22
1.0003263e-33
2.6175347e-37
5.2384567e-34
4.8265255e-22
4.8987324e-22
-4.9367285e-22
-4.9739243e-22
1.0065682e-21
-1.0226501e-21
5.7830015e-34
1.0614945e-21
-1.0765475e-21
-1.8090464e-33
6.0781474e-34
-5.5285834e-22
1.119667e-21
-5.6750058e-22
1.2741382e-33
1.1557235e-21
0
-1.1679809e-21
-5.8850114e-22
1.1883937e-21
5.9993494e-22
-6.0261082e-22
1.0030743e-33
6.0163723e-22
0
0
-1.2184469e-21
-1.2256706e-21
0
1.2179166e-21
6.0476558e-22
-6.0231258e-22
6.0162319e-22
-6.0214285e-22
0
1.1989493e-21
0
0
-5.8051369e-22
6.3994627e-34
5.7345689e-22
0
-5.6395499e-22
-3.0766108e-34
5.4372478e-22
0
-1.0539647e-21
-1.0414288e-21
5.1490605e-22
5.6277721e-34
-4.9506313e-22
9.6157116e-22
9.3433405e-22
-9.1114306e-22
-1.266398e-37
-9.6961773e-34
-1.2152402e-37
8.3106608e-22
-4.0001135e-22
4.2570722e-34
-3.6804746e-22
3.5421106e-22
1.0252191e-21
-9.8897658e-22
-3.161267e-22
3.0014426e-22
3.1390442e-34
2.6576513e-22
-4.9952953e-22
-4.7007872e-22
4.4186999e-22
6.8517047e-34
1.88621e-22
1.7045764e-22
-3.0504272e-22
1.3552324e-22
-1.3278895e-34
5.7690653e-35
-8.6995355e-23
-1.3793283e-22
1.0153098e-22
6.6440989e-23
0
-2.2188723e-24
1.4817126e-35
-6.2141049e-23
-5.5739825e-35
2.0793467e-22
1.7442617e-22
0
-2.3283015e-22
-2.889234e-34
-1.45899e-22
-1.6338043e-22
5.4445312e-22
-1.1039158e-34
-4.2898722e-22
2.2822674e-22
4.8334004e-22
-2.5603676e-22
-5.4208831e-22
-2.8584415e-22
0
6.2587257e-22
-3.2589142e-22
-1.0176528e-21
3.5264875e-22
3.6567565e-22
7.5494669e-22
3.8761678e-22
-7.9476591e-22
-4.0775748e-22
-4.1872068e-22
4.7803213e-34
4.4225562e-22
4.5152926e-22
9.1668125e-22
4.6507991e-22
0
0
0
-9.9955774e-22
-1.0129525e-21
1.0203605e-21
5.7039294e-34
5.7424177e-34
-5.7868428e-34
-1.1743571e-33
1.0735583e-21
0
-1.0850981e-21
-5.4327535e-22
5.4321909e-22
-5.4371969e-22
-5.4840868e-22
0
0
1.111695e-21
-1.8427575e-33
-1.2203788e-33
1.0929827e-21
-1.0965873e-21
-1.1061968e-21
0
1.1039459e-21
-6.0712444e-34
-1.0818368e-21
1.0703251e-21
5.9324036e-34
-1.0731864e-21
0
1.0625499e-21
5.2409851e-22
-1.0294224e-21
5.0650597e-22
1.1228491e-33
-1.017496e-21
1.014585e-21
9.986052e-22
0
0
0
-9.2652197e-22
-9.3215734e-22
9.3561429e-22
0
-9.0751665e-22
0
-4.297599e-22
8.3900403e-22
4.1611637e-22
-4.1607592e-22
8.298468e-22
4.1143572e-22
-8.0841455e-22
-3.9390226e-22
-4.264042e-34
3.7401218e-22
-8.1164066e-34
2.0560447e-37
7.2041673e-22
0
-3.5328812e-22
-6.8692405e-22
-3.3296778e-22
0
0
0
-3.1230992e-22
6.214628e-22
3.0575835e-22
-2.9702055e-22
-2.8790903e-22
2.7997714e-22
2.7435409e-22
-5.4416095e-22
0
5.3922497e-22
5.3167977e-22
0
0
-4.9379137e-22
-2.6939626e-34
-2.4054386e-22
-2.3973968e-22
2.3888438e-22
-2.3629451e-22
2.3154638e-22
4.5288429e-22
2.2229989e-22
0
-4.3918045e-22
-2.4443122e-34
2.2012507e-22
-2.1811051e-22
-2.1442082e-22
-4.2199586e-22
4.1820102e-22
2.0905821e-22
-5.9860374e-38
2.1215075e-22
-4.2425448e-22
2.1018481e-22
-2.0817372e-22
1.778826e-51
2.0780937e-22
-4.1942836e-22
4.2308633e-22
4.2454906e-22
0
-2.116786e-22
-4.2497941e-22
1.1906777e-34
2.1687962e-22
2.1821824e-22
-4.3574731e-22
-4.3472068e-22
2.1828291e-22
4.4229427e-22
4.5118385e-22
-2.2977516e-22
-4.6289136e-22
2.3007244e-22
-2.286135e-22
3.8114121e-34
2.3155691e-22
-4.7314114e-22
4.8388931e-22
2.7231562e-34
-1.3669296e-33
4.9232387e-22
-4.9338911e-22
-1.1035053e-33
2.5146695e-22
-5.0956991e-22
2.5748249e-22
-7.3662404e-38
1.1566055e-33
2.6222973e-22
-5.2938896e-22
5.9283365e-34
-1.4894823e-34
2.6897162e-22
-7.6568586e-38
-5.4171488e-22
5.4754496e-22
1.5775679e-37
-1.2423785e-33
5.5887339e-22
-5.5559084e-22
-6.1413504e-34
5.5461375e-22
-2.8024594e-22
-2.8435151e-22
-2.8764557e-22
2.8815656e-22
-3.172797e-34
-5.6633159e-22
0
0
5.6753613e-22
8.1387061e-38
-5.7684845e-22
2.8866669e-22
-3.1811894e-34
2.8360176e-22
6.2422018e-34
-5.5942443e-22
0
-2.8075517e-22
5.6388686e-22
2.8112385e-22
-6.1677607e-34
2.7361972e-22
-5.4049064e-22
2.6857854e-22
-2.9827444e-34
-5.3921145e-22
0
0
2.6035598e-22
-1.4198316e-34
2.5296646e-22
-2.5183381e-22
-7.5436068e-22
7.4920776e-22
2.4564017e-22
-4.8158175e-22
2.3671953e-22
3.8971926e-34
2.3265759e-22
-1.3092444e-37
-7.5104489e-34
2.187179e-22
-4.2501503e-22
-2.091079e-22
0
-2.0855461e-22
2.0673594e-22
2.0076107e-22
1.9132886e-22
-4.0562446e-34
1.9710985e-34
-1.9563906e-34
-3.5398189e-22
1.7653788e-22
2.8822579e-34
-3.321351e-22
2.2317711e-38
1.4912261e-22
2.8728542e-22
2.8135938e-22
-2.7888162e-22
-1.5343232e-34
-1.3533037e-22
-1.3034453e-22
2.465898e-22
-2.3060581e-22
-1.0833817e-22
3.1101991e-22
2.0270304e-22
-1.00202e-22