/*--------------------------------*- C++ -*----------------------------------*\
  =========                 |
  \\      /  F ield         | OpenFOAM: The Open Source CFD Toolbox
   \\    /   O peration     | Website:  https://openfoam.org
    \\  /    A nd           | Version:  7
     \\/     M anipulation  |
\*---------------------------------------------------------------------------*/
FoamFile
{
    version     2.0;
    format      ascii;
    class       volScalarField;
    location    "0.0001";
    object      Uy;
}
// * * * * * * * * * * * * * * * * * * * * * * * * * * * * * * * * * * * * * //

dimensions      [0 1 -1 0 0 0 0];

internalField   nonuniform List<scalar> 
5000
(
-2.7021173e-28
-1.013294e-28
0
0
-3.039882e-28
2.3039638e-43
-2.026588e-28
0
0
2.533235e-28
4.053176e-28
-1.013294e-28
-1.013294e-28
3.546529e-28
0
-2.533235e-28
7.806133e-56
3.546529e-28
0
-2.026588e-28
2.026588e-28
2.0423535e-43
1.013294e-28
1.013294e-28
1.013294e-28
-1.2527803e-42
2.026588e-28
5.06647e-29
2.026588e-28
-2.6351586e-42
-8.8558609e-43
2.026588e-28
4.053176e-28
-4.7185179e-44
-2.6351586e-42
4.4063308e-42
4.4484836e-57
-3.039882e-28
5.06647e-28
-1.013294e-28
9.119646e-28
-3.4847452e-41
-5.06647e-28
-5.06647e-29
-9.119646e-28
4.053176e-28
3.039882e-28
6.9406909e-42
1.013294e-28
0
-2.026588e-28
-2.8799547e-44
5.573117e-28
-1.1146234e-27
5.3135165e-42
-4.4902447e-43
-1.013294e-28
-1.2955801e-55
-1.503273e-42
0
5.06647e-29
5.5696644e-56
-1.4399774e-44
2.026588e-28
-3.546529e-28
7.0846887e-42
2.533235e-28
-2.026588e-28
2.026588e-28
-2.026588e-28
-5.06647e-29
-1.013294e-28
-1.519941e-28
2.026588e-28
-5.06647e-29
4.559823e-28
0
-3.546529e-28
2.8799547e-44
1.013294e-28
-1.519941e-28
1.4399774e-44
1.4399774e-44
-2.533235e-28
-3.039882e-28
1.7639723e-42
-2.533235e-28
0
-5.06647e-28
-1.5767752e-41
1.7711722e-42
5.06647e-29
1.013294e-28
-2.026588e-28
-3.5063449e-42
-5.06647e-29
0
0
-1.519941e-28
-7.0270896e-42
1.013294e-28
-1.013294e-28
-2.026588e-28
0
1.013294e-28
-3.039882e-28
4.053176e-28
2.026588e-28
0
0
-1.519941e-28
-1.013294e-28
0
5.06647e-29
-7.0846887e-42
1.013294e-28
-2.533235e-28
2.8799547e-44
-1.7711722e-42
4.8788331e-57
-3.039882e-28
1.2959796e-43
1.519941e-28
0
-2.533235e-28
1.013294e-28
-1.013294e-28
2.026588e-28
1.519941e-28
-1.0655008e-41
2.026588e-28
-5.06647e-29
-4.2764235e-44
1.519941e-28
0
-3.546529e-28
-4.053176e-28
2.533235e-28
7.0270896e-42
-5.06647e-29
-2.026588e-28
-2.026588e-28
0
-2.026588e-28
-3.039882e-28
2.533235e-28
-1.519941e-28
-8.6398642e-44
-2.026588e-28
5.06647e-29
-5.06647e-29
1.7639723e-41
2.026588e-28
1.013294e-28
-5.06647e-29
5.06647e-29
-1.519941e-28
0
0
-1.519941e-28
-3.546529e-28
3.039882e-28
1.519941e-28
-3.546529e-28
-2.4594814e-41
-1.013294e-28
2.533235e-28
1.013294e-28
0
3.039882e-28
5.573117e-28
0
-5.06647e-29
1.013294e-28
0
-2.533235e-28
-1.0540634e-41
-2.533235e-28
2.533235e-28
2.026588e-28
-2.026588e-28
-1.399658e-41
2.4393217e-41
6.4798982e-44
-5.06647e-29
-5.06647e-29
-2.1081269e-41
1.3938981e-41
-1.0454236e-41
-5.06647e-29
0
0
-5.06647e-29
-1.519941e-28
0
0
-2.533235e-28
-1.5387253e-69
1.519941e-28
0
4.559823e-28
-6.586411e-28
-1.5443757e-40
5.06647e-28
-2.533235e-28
-3.1557104e-41
-2.8799547e-44
-3.039882e-28
2.533235e-28
-3.5999434e-44
-2.1038069e-41
1.0519035e-41
-1.4025794e-41
0
-1.519941e-28
-3.1557104e-41
-1.1249103e-40
4.4312632e-43
0
3.546529e-28
3.039882e-28
0
0
0
-2.026588e-28
-1.7531725e-41
1.519941e-28
0
0
-1.013294e-28
5.06647e-29
5.06647e-29
2.026588e-28
0
-5.06647e-29
-1.013294e-28
2.026588e-28
3.546529e-28
0
-1.013294e-28
1.4068579e-41
7.0270896e-42
-5.06647e-29
5.06647e-29
5.06647e-29
0
2.0956107e-41
2.1124468e-41
-2.533235e-28
-4.9189627e-41
2.026588e-28
1.013294e-28
-4.2162538e-41
-7.0357295e-41
1.7531725e-41
3.039882e-28
-4.053176e-28
-2.533235e-28
0
3.546529e-28
2.533235e-28
0
2.533235e-28
3.546529e-28
-9.119646e-28
-3.546529e-28
2.026588e-28
1.519941e-28
1.4054179e-41
-1.013294e-28
4.559823e-28
-3.1621903e-41
-3.546529e-28
2.026588e-28
7.0414894e-42
7.8990883e-55
-4.3199321e-44
-3.499145e-42
1.013294e-28
0
0
1.519941e-28
-1.519941e-28
0
0
0
0
-1.013294e-28
1.3967781e-41
-2.026588e-28
-6.4798982e-44
-2.533235e-28
-3.039882e-28
7.0342895e-42
-2.8079559e-41
-4.3199321e-44
-2.533235e-28
-1.013294e-28
-1.519941e-28
3.039882e-28
3.039882e-28
1.013294e-28
5.06647e-28
0
-5.06647e-29
-3.4998118e-42
-2.533235e-28
7.1998869e-44
-2.1599661e-44
-1.4399774e-44
-2.533235e-28
-4.559823e-28
3.039882e-28
-1.013294e-28
1.013294e-28
-2.4394166e-56
3.039882e-28
2.8079559e-41
-1.013294e-28
0
0
-2.026588e-28
1.6882295e-40
6.079764e-28
0
2.026588e-28
1.519941e-28
-5.06647e-29
-7.1998869e-45
2.1102868e-41
-2.8799547e-44
-2.026588e-28
5.06647e-29
-1.519941e-28
0
1.013294e-28
-2.8137158e-41
-2.026588e-28
0
-2.8108358e-41
-1.519941e-28
-2.8137158e-41
-5.06647e-28
5.06647e-28
7.2016486e-42
-5.06647e-29
7.1998869e-45
2.533235e-28
0
0
-3.546529e-28
2.1081269e-41
-3.039882e-28
1.4399774e-44
3.039882e-28
-2.533235e-28
5.06647e-29
-8.106352e-28
3.039882e-28
-5.456053e-44
4.053176e-28
-2.026588e-28
-2.8229277e-41
2.026588e-28
-1.013294e-28
-1.9515332e-56
-2.026588e-28
1.013294e-28
1.013294e-28
-1.013294e-28
0
-1.4399774e-44
-5.06647e-29
3.039882e-28
-2.533235e-28
-7.0342895e-41
4.2162538e-41
1.519941e-28
5.06647e-28
-3.039882e-28
1.1862623e-56
2.8108358e-41
-1.944571e-54
-5.06647e-28
4.053176e-28
-2.8108358e-41
-2.026588e-28
0
0
7.3999858e-42
1.4054179e-41
5.06647e-29
-1.519941e-28
2.026588e-28
-5.0469024e-43
1.013294e-28
6.4146353e-43
-2.8799547e-44
1.3896024e-41
0
-3.039882e-28
-4.053176e-28
3.039882e-28
4.053176e-28
5.06647e-29
3.039882e-28
5.06647e-28
-1.013294e-28
3.039882e-28
0
-2.026588e-28
5.06647e-29
-3.039882e-28
3.546529e-28
1.013294e-28
2.8799547e-44
-2.1102868e-41
-2.533235e-28
4.559823e-28
3.546529e-28
-2.533235e-28
4.2162538e-41
2.1599661e-44
-7.0270896e-42
-1.519941e-28
1.519941e-28
-8.4411474e-41
-3.5171447e-41
-7.0306895e-41
-2.026588e-28
-5.06647e-29
-1.9055083e-54
-5.6187917e-41
-2.8799547e-44
2.855443e-41
1.013294e-28
-2.1382118e-44
-1.013294e-28
-9.8402887e-55
2.026588e-28
3.039882e-28
-6.079764e-28
-1.013294e-28
-1.013294e-28
-5.06647e-29
-4.2184137e-41
2.533235e-28
0
0
1.013294e-28
0
5.06647e-29
5.06647e-29
2.1599661e-44
-2.8122758e-41
0
5.06647e-29
1.013294e-28
2.1382118e-44
6.079764e-28
4.559823e-28
-1.519941e-28
0
0
-2.533235e-28
5.6303115e-41
5.06647e-29
0
0
1.519941e-28
-1.6888055e-40
-4.559823e-28
0
0
0
0
0
0
0
0
-1.013294e-28
2.8122758e-41
-2.026588e-28
1.013294e-28
-5.06647e-29
1.013294e-28
-7.0414894e-41
-1.519941e-28
2.8137158e-41
-7.0755663e-42
0
0
2.1089564e-41
-5.6274316e-41
-7.2930752e-42
0
0
0
0
0
0
0
0
4.2176937e-41
-1.3804598e-41
1.013294e-28
1.4399774e-44
1.519941e-28
-2.8093959e-41
-3.039882e-28
-1.519941e-28
-4.8788331e-57
1.519941e-28
0
-2.026588e-28
0
0
-2.026588e-28
1.4054179e-41
2.1091775e-41
5.06647e-29
4.2764235e-44
5.06647e-29
-5.06647e-29
-5.06647e-29
-1.9472531e-54
-1.013294e-28
-1.519941e-28
0
5.06647e-29
-1.519941e-28
-1.013294e-28
-4.2764235e-44
-3.039882e-28
-3.546529e-28
-7.0674577e-42
-5.06647e-28
-3.039882e-28
1.013294e-28
0
-1.013294e-28
5.06647e-29
-4.1695129e-43
3.039882e-28
4.3199321e-44
-3.039882e-28
2.026588e-28
2.1102868e-41
1.013294e-28
-1.4399774e-44
8.9804894e-43
-1.013294e-28
0
1.4068579e-41
-3.5999434e-44
-3.039882e-28
1.4006623e-41
1.4068579e-41
-9.8569633e-55
7.1998869e-45
-2.533235e-28
3.546529e-28
2.4394166e-56
7.0342895e-41
3.5999434e-44
4.053176e-28
1.4054179e-41
-1.013294e-28
0
0
1.013294e-28
2.1081269e-41
1.013294e-28
-3.039882e-28
4.9240026e-41
1.9515332e-56
-3.5171447e-41
5.06647e-29
-1.519941e-28
7.0270896e-42
-2.026588e-28
0
0
-1.013294e-28
-1.7694442e-44
8.4353875e-41
-7.9630323e-44
1.013294e-28
0
-2.026588e-28
-1.519941e-28
1.013294e-28
-5.06647e-29
0
5.06647e-29
1.013294e-28
-5.06647e-28
-2.026588e-28
1.013294e-28
1.013294e-28
7.0270896e-42
1.013294e-28
5.6274316e-41
-3.039882e-28
0
0
0
-2.026588e-28
-1.013294e-28
0
-3.039882e-28
-1.4039779e-41
-5.06647e-29
0
0
6.4146353e-44
9.7362657e-55
9.7362657e-55
1.519941e-28
-5.06647e-29
-8.4325075e-41
-1.519941e-28
0
3.546529e-28
2.8137158e-41
-1.519941e-28
1.519941e-28
-1.519941e-28
-5.06647e-29
3.039882e-28
0
-2.533235e-28
1.013294e-28
-2.026588e-28
-1.013294e-28
0
1.013294e-28
-2.026588e-28
-1.519941e-28
2.026588e-28
8.106352e-28
-2.5323442e-40
-7.599705e-28
-9.7576662e-57
-5.06647e-29
3.039882e-28
-1.6865015e-40
-3.039882e-28
1.013294e-28
5.06647e-29
-3.546529e-28
-4.559823e-28
8.106352e-28
0
0
-7.093058e-28
-2.7321465e-55
-3.039882e-28
0
0
-5.06647e-28
1.0743843e-68
-2.026588e-28
0
0
1.013294e-28
1.013294e-28
-2.026588e-28
-5.06647e-29
0
1.013294e-28
-2.8137158e-41
8.5528471e-44
5.06647e-29
0
2.026588e-28
-5.06647e-29
-7.1998869e-45
-5.06647e-29
1.013294e-28
-2.026588e-28
-5.06647e-29
-5.06647e-29
-1.013294e-28
4.2205737e-41
1.013294e-28
5.06647e-29
4.2205737e-41
-1.013294e-28
1.519941e-28
-2.533235e-28
4.2147417e-41
-3.039882e-28
-1.519941e-28
-1.4068579e-41
2.7427985e-43
5.06647e-29
-2.8799547e-44
-1.013294e-28
0
-5.06647e-29
5.06647e-29
-2.026588e-28
-3.039882e-28
2.8151558e-41
-1.013294e-28
2.026588e-28
-1.4399774e-44
4.053176e-28
1.4399774e-44
1.013294e-28
0
-2.026588e-28
0
-1.013294e-28
0
0
0
2.026588e-28
9.7576662e-57
1.1649641e-43
0
5.06647e-29
-4.2205737e-41
-5.06647e-29
0
0
0
-5.6171001e-41
4.2205737e-41
-1.013294e-28
0
2.533235e-28
5.6245516e-41
-2.026588e-28
0
2.8224484e-41
-1.013294e-28
-2.8151558e-41
-1.013294e-28
5.06647e-29
0
-5.06647e-29
2.8137158e-41
-3.546529e-28
0
-1.013294e-28
1.519941e-28
2.8137158e-41
5.06647e-29
-5.6259916e-41
-7.1998869e-45
4.2227337e-41
-2.1599661e-44
-1.013294e-28
0
-1.013294e-28
-5.6245516e-41
-5.6245516e-41
-9.7576662e-57
-7.0342895e-41
0
-1.013294e-28
1.4068579e-41
-1.0691059e-43
-5.06647e-29
7.0306895e-41
3.546529e-28
3.039882e-28
4.2205737e-41
-4.4530415e-56
0
1.519941e-28
3.546529e-28
0
5.06647e-29
-1.4068579e-41
-2.026588e-28
0
0
0
-2.026588e-28
5.6274316e-41
-3.039882e-28
0
0
0
0
0
0
0
-4.053176e-28
8.4454673e-41
-3.039882e-28
-2.026588e-28
5.06647e-29
-1.519941e-28
5.6303115e-41
5.6216717e-41
-5.06647e-29
1.519941e-28
-2.026588e-28
-1.519941e-28
-2.80855e-41
-2.026588e-28
5.6245516e-41
-1.013294e-28
1.3960171e-41
-1.4054179e-41
1.519941e-28
2.533235e-28
-1.519941e-28
-5.06647e-29
-1.188347e-56
-5.06647e-29
0
-1.013294e-28
-3.546529e-28
1.2648761e-40
4.559823e-28
-2.026588e-28
-2.533235e-28
-4.053176e-28
2.533235e-28
2.026588e-28
9.8480053e-41
5.06647e-29
1.013294e-28
-9.115745e-60
2.026588e-28
-2.8129958e-41
3.546529e-28
2.026588e-28
0
1.013294e-28
0
0
0
-1.519941e-28
-2.026588e-28
2.533235e-28
3.546529e-28
0
2.026588e-28
-7.0378894e-41
-3.039882e-28
0
0
-2.026588e-28
5.6245516e-41
-3.039882e-28
0
0
2.533235e-28
-1.9685931e-40
-2.026588e-28
0
-1.013294e-28
-2.8137158e-41
-1.4061379e-41
7.0342895e-41
2.533235e-28
0
5.06647e-29
2.8115558e-41
-1.013294e-28
0
-2.026588e-28
5.573117e-28
4.053176e-28
-5.06647e-28
-2.8165957e-41
3.039882e-28
-4.2205737e-41
-5.06647e-29
0
0
-1.013294e-28
2.8122758e-41
1.013294e-28
0
3.039882e-28
-2.026588e-28
-1.013294e-28
5.06647e-29
0
1.4050492e-41
6.8939265e-44
-2.8122758e-41
2.8122758e-41
5.06647e-29
-3.5612177e-56
2.533235e-28
-5.06647e-28
1.1249103e-40
-2.2509726e-40
-8.106352e-28
1.4054179e-41
-2.8282732e-41
0
0
0
2.8269831e-41
1.013294e-28
2.026588e-28
2.533235e-28
0
0
-3.546529e-28
-1.9515332e-56
-5.06647e-29
0
1.6937566e-40
1.519941e-28
-1.013294e-28
1.013294e-28
0
6.079764e-28
-2.8799547e-44
6.079764e-28
-4.2162538e-41
-2.026588e-28
-1.519941e-28
-8.6398642e-44
-1.013294e-28
1.4075779e-41
-8.4325075e-41
1.013294e-28
0
1.519941e-28
2.8129958e-41
5.06647e-28
-1.013294e-28
7.0219129e-53
5.06647e-29
-1.013294e-28
3.5999434e-44
3.039882e-28
0
0
0
1.013294e-28
-1.519941e-28
-3.039882e-28
5.06647e-29
-4.2205737e-41
-4.2162538e-41
1.519941e-28
0
-5.573117e-28
3.5999434e-44
-3.039882e-28
5.1096035e-43
-1.4054179e-40
1.013294e-28
5.06647e-29
-5.6303115e-41
-3.039882e-28
0
6.0570268e-43
-1.519941e-28
0
5.06647e-29
1.519941e-28
-2.026588e-28
0
-4.1926964e-41
0
0
5.06647e-29
3.543909e-53
5.06647e-29
0
0
1.3997037e-41
1.519941e-28
-1.013294e-28
-3.546529e-28
4.559823e-28
1.013294e-28
-1.013294e-28
-1.013294e-28
8.4454673e-41
2.026588e-28
1.6865015e-40
2.8108358e-40
-3.546529e-28
1.013294e-28
-6.524956e-56
-2.026588e-28
-2.5919593e-43
1.519941e-28
2.026588e-28
1.013294e-28
-1.013294e-28
1.013294e-28
-1.013294e-28
-1.519941e-28
3.039882e-28
-1.519941e-28
8.4411474e-41
3.039882e-28
-2.026588e-28
5.6245516e-41
1.4075779e-41
2.533235e-28
0
0
8.5528471e-44
-1.013294e-28
0
1.519941e-28
-5.06647e-29
0
-1.013294e-28
-2.8137158e-41
5.06647e-29
1.3804598e-41
4.1030834e-54
2.533235e-28
0
2.533235e-28
-8.4389874e-41
3.039882e-28
-1.013294e-28
-5.6187917e-41
-2.533235e-28
5.06647e-29
5.6245516e-41
-5.06647e-29
0
2.026588e-28
-3.039882e-28
-4.3199321e-44
1.4068579e-40
-1.519941e-28
3.546529e-28
0
3.039882e-28
-5.6245516e-40
-2.026588e-28
-8.4368274e-41
-4.053176e-28
5.06647e-28
6.079764e-28
1.1240836e-40
4.053176e-28
2.026588e-28
0
2.533235e-28
6.079764e-28
7.1998869e-45
-3.546529e-28
3.039882e-28
1.013294e-28
-1.395796e-41
2.7597399e-41
-3.039882e-28
-4.2191337e-40
4.053176e-28
2.811057e-41
-5.6245516e-41
5.06647e-29
2.1382118e-43
1.013294e-28
-1.519941e-28
1.4054179e-41
1.013294e-28
3.039882e-28
4.053176e-28
-3.039882e-28
-3.8923433e-54
-5.06647e-29
-2.8137158e-41
-2.533235e-28
1.4061379e-41
4.9416553e-71
2.533235e-28
3.039882e-28
-1.013294e-28
-2.444023e-68
-1.013294e-28
-2.5319122e-40
1.519941e-28
-4.053176e-28
5.6245516e-41
1.013294e-28
-4.8788331e-57
-2.533235e-28
0
0
1.013294e-28
1.519941e-28
2.026588e-28
0
0
0
1.013294e-28
3.039882e-28
0
-1.519941e-28
1.013294e-28
5.0629604e-40
-6.079764e-28
0
0
0
1.519941e-28
1.013294e-28
2.884346e-41
2.7956102e-41
8.4411474e-41
-1.013294e-28
0
0
-6.079764e-28
1.4399774e-44
1.013294e-28
-3.546529e-28
1.519941e-28
1.519941e-28
7.8104699e-54
2.026588e-28
0
0
-1.519941e-28
-1.2829271e-43
0
0
-4.053176e-28
-4.559823e-28
0
2.533235e-28
3.546529e-28
-2.533235e-28
1.519941e-28
1.013294e-28
5.06647e-29
1.013294e-28
-5.6274316e-41
5.06647e-29
-1.519941e-28
-3.8906841e-54
-1.013294e-28
0
5.06647e-29
2.8129958e-41
1.013294e-28
-1.519941e-28
5.6259916e-41
1.8875138e-43
0
2.026588e-28
-7.0342895e-41
-2.8799547e-44
-2.026588e-28
3.039882e-28
5.06647e-29
0
-6.079764e-28
3.9392021e-40
3.546529e-28
5.7599095e-44
9.119646e-28
-8.106352e-28
-2.026588e-28
-4.053176e-28
-2.026588e-28
0
-1.013294e-28
-8.4353875e-41
-6.079764e-28
0
1.013294e-28
5.6274316e-41
-4.559823e-28
-2.1102868e-40
-9.119646e-28
1.013294e-28
-2.5309042e-40
2.026588e-28
3.039882e-28
-1.4057779e-40
-4.053176e-28
-1.013294e-28
4.053176e-28
1.519941e-28
4.053176e-28
-1.1146234e-27
-1.5185425e-39
7.093058e-28
-3.039882e-28
-1.4068579e-41
1.519941e-28
-1.1243343e-40
-1.519941e-28
-2.8122758e-41
-3.039882e-28
1.013294e-28
1.1796295e-44
1.013294e-28
1.5706769e-53
-2.533235e-28
-3.9392021e-40
2.026588e-28
-2.026588e-28
8.4382674e-41
2.2501086e-40
-1.4054179e-40
5.06647e-29
0
1.519941e-28
1.519941e-28
0
0
0
0
0
-5.06647e-29
-2.026588e-28
0
1.519941e-28
5.06647e-29
1.6879415e-40
1.013294e-28
0
0
0
2.533235e-28
1.013294e-28
-1.519941e-28
-5.06647e-29
-1.013294e-28
0
3.039882e-28
0
-2.026588e-28
8.4397074e-41
5.06647e-29
-1.013294e-28
5.1317082e-43
2.026588e-28
1.6873655e-40
-1.013294e-28
0
0
-2.026588e-28
-2.026588e-28
0
-3.039882e-28
-8.6398642e-44
-2.026588e-28
-1.519941e-28
-9.119646e-28
0
-2.026588e-28
-5.06647e-28
0
1.519941e-28
-1.013294e-28
3.039882e-28
5.06647e-29
1.519941e-28
4.559823e-28
1.519941e-28
1.9750781e-59
5.06647e-29
-2.8128265e-41
1.519941e-28
1.013294e-28
-9.7576662e-57
5.06647e-29
5.06647e-29
-1.013294e-28
0
0
-1.013294e-28
0
3.546529e-28
3.039882e-28
-2.8115558e-41
5.06647e-29
2.026588e-28
1.013294e-28
2.026588e-28
3.039882e-28
4.559823e-28
0
-4.053176e-28
-4.559823e-28
1.013294e-28
5.2691398e-55
-4.559823e-28
4.053176e-28
5.06647e-29
-1.013294e-28
-2.026588e-28
3.039882e-28
2.533235e-28
-2.533235e-28
-2.026588e-28
5.8981473e-45
-4.559823e-28
-1.013294e-28
3.039882e-28
1.519941e-28
1.013294e-28
2.026588e-28
-5.8981473e-45
5.06647e-29
-8.4353875e-41
1.6876535e-40
-1.519941e-28
5.06647e-29
-2.026588e-28
-3.039882e-28
1.013294e-28
-3.039882e-28
-5.7599095e-44
-1.013294e-28
-2.026588e-28
-7.599705e-28
7.599705e-28
5.06647e-29
6.079764e-28
0
3.039882e-28
1.013294e-28
1.519941e-28
-1.013294e-28
-2.026588e-28
-2.8122758e-41
-3.374299e-40
-2.533235e-28
0
-1.013294e-28
-2.026588e-28
1.013294e-28
0
1.013294e-28
-5.06647e-29
-5.06647e-29
3.039882e-28
0
2.026588e-28
3.2073177e-43
-2.1382118e-44
-1.013294e-28
5.6245516e-41
1.519941e-28
-2.026588e-28
1.013294e-28
-6.749462e-40
-5.06647e-28
2.026588e-28
0
8.106352e-28
0
4.5002173e-40
1.013294e-28
-1.013294e-28
-1.519941e-28
1.0079842e-43
7.093058e-28
0
-5.06647e-28
-2.026588e-28
3.039882e-28
-1.1250543e-40
1.519941e-28
-6.079764e-28
1.013294e-28
-2.1360014e-55
-2.5658541e-43
-1.0691059e-43
-5.06647e-29
1.6736795e-40
-3.039882e-28
0
1.519941e-28
5.06647e-28
-4.559823e-28
-1.013294e-28
2.533235e-28
4.053176e-28
5.06647e-29
1.519941e-28
5.429896e-41
-5.06647e-29
0
-5.06647e-29
-7.1998869e-45
2.026588e-28
2.026588e-28
-9.119646e-28
1.013294e-28
8.4382674e-41
-4.559823e-28
0
3.3381206e-40
4.053176e-28
-3.039882e-28
-1.519941e-28
-2.767924e-41
0
1.013294e-28
-5.6245516e-41
-3.039882e-28
2.8115558e-41
-1.519941e-28
0
-1.013294e-28
2.026588e-28
-3.039882e-28
3.039882e-28
3.039882e-28
1.013294e-28
-1.519941e-28
-2.026588e-28
1.013294e-28
-3.039882e-28
-4.053176e-28
5.06647e-28
-3.039882e-28
1.013294e-28
-4.559823e-28
2.7796753e-43
1.013294e-28
4.559823e-28
-4.4996413e-40
3.374731e-40
-5.06647e-29
-1.6873655e-40
-1.013294e-28
5.06647e-29
5.06647e-29
-1.519941e-28
1.013294e-28
5.06647e-29
-3.3695523e-40
-1.013294e-28
-2.026588e-28
9.119646e-28
7.1998869e-44
-5.06647e-29
2.026588e-28
-1.013294e-28
0
1.519941e-28
-1.519941e-28
-5.06647e-28
5.06647e-29
-1.6873655e-40
-3.039882e-28
5.06647e-29
-5.06647e-29
-1.013294e-28
5.06647e-29
-2.1382118e-43
1.519941e-28
5.6244733e-41
3.039882e-28
4.2191337e-40
1.519941e-28
0
-1.7805291e-55
8.4346675e-41
-1.4061379e-40
-2.8799547e-44
-5.06647e-29
3.039882e-28
1.519941e-28
-1.519941e-28
-5.6245516e-41
-5.06647e-28
0
0
5.06647e-29
-2.8122758e-41
-5.6231116e-41
-1.519941e-28
1.013294e-28
1.013294e-28
2.8115558e-40
-5.06647e-29
4.559823e-28
5.06647e-29
0
0
0
-1.519941e-28
2.026588e-28
-8.4390692e-41
1.1251983e-40
4.053176e-28
0
0
-2.026588e-28
-1.2491642e-52
-1.6869335e-40
4.053176e-28
-1.013294e-28
-1.013294e-28
-4.053176e-28
1.519941e-28
1.2829271e-43
-8.5528471e-44
0
0
0
9.119646e-28
3.039882e-28
-4.559823e-28
3.374731e-40
-1.013294e-28
1.4399774e-44
5.06647e-29
3.039882e-28
-1.1249103e-40
5.06647e-29
1.013294e-28
0
8.4389874e-41
4.053176e-28
2.026588e-28
1.519941e-28
2.026588e-28
0
5.6231116e-41
-5.06647e-29
1.519941e-28
2.026588e-28
1.0691059e-43
5.06647e-29
-5.06647e-29
1.519941e-28
-2.533235e-28
-2.533235e-28
1.1249103e-40
-5.6231116e-41
-1.519941e-28
0
-3.546529e-28
2.026588e-28
-4.559823e-28
1.013294e-28
3.039882e-28
2.533235e-28
-5.6238316e-41
-5.6513115e-41
5.06647e-29
-2.533235e-28
-5.06647e-28
7.093058e-28
-1.013294e-28
2.026588e-28
-3.039882e-28
-3.039882e-28
-5.06647e-29
4.053176e-28
-2.2486687e-40
5.06647e-28
2.533235e-28
-1.519941e-28
-8.4212632e-41
-1.013294e-28
4.559823e-28
-2.8799547e-44
-3.039882e-28
5.06647e-29
-6.079764e-28
2.026588e-28
1.053828e-54
-1.6870775e-40
-1.013294e-28
4.053176e-28
8.106352e-28
-3.039882e-28
1.6873655e-40
2.026588e-28
-1.013294e-28
-1.519941e-28
1.013294e-28
-1.519941e-28
0
-1.013294e-28
1.013294e-28
1.6712199e-59
3.039882e-28
-2.026588e-28
6.079764e-28
-1.4399774e-44
1.013294e-28
1.013294e-28
-8.4382674e-41
2.026588e-28
-1.519941e-28
-1.013294e-28
0
0
1.519941e-28
3.039882e-28
-1.519941e-28
1.2159528e-27
-2.8122758e-40
-2.026588e-28
2.5658541e-43
-2.026588e-28
-5.06647e-29
-4.053176e-28
1.519941e-28
1.013294e-28
-3.039882e-28
-2.533235e-28
-5.0629604e-40
8.4325075e-41
5.06647e-29
1.519941e-28
-1.013294e-28
7.599705e-28
0
3.039882e-28
1.013294e-28
-8.6597577e-43
-4.3199321e-44
-1.519941e-28
1.013294e-28
-5.06647e-29
1.013294e-28
2.2498207e-40
-1.519941e-28
1.013294e-28
-5.06647e-29
4.053176e-28
6.079764e-28
-3.375595e-40
-2.026588e-28
2.1971932e-43
-1.013294e-28
-1.6827006e-40
0
-9.119646e-28
-8.106352e-28
4.559823e-28
1.1251983e-40
1.013294e-28
-5.06647e-29
5.06647e-29
-2.8108358e-41
1.013294e-28
-1.4061379e-40
-2.026588e-28
-1.6871495e-40
5.6238316e-41
7.093058e-28
1.0639587e-27
-2.3592589e-44
-1.1251983e-40
0
5.06647e-29
1.519941e-28
2.026588e-28
1.519941e-28
1.013294e-28
-4.053176e-28
5.06647e-28
-5.7599095e-44
4.559823e-28
-5.06647e-29
-1.0691059e-43
-1.519941e-28
3.375019e-40
2.026588e-28
-1.519941e-28
6.079764e-28
-1.6865309e-40
1.519941e-28
1.013294e-28
3.373867e-40
2.533235e-28
-1.013294e-28
-2.8122758e-41
-1.519941e-28
1.013294e-28
-1.6876535e-40
-7.599705e-28
9.119646e-28
6.079764e-28
0
0
0
-1.519941e-28
-1.519941e-28
1.013294e-28
-6.2483759e-53
5.06647e-29
-6.079764e-28
-5.06647e-29
-1.013294e-28
-1.013294e-28
5.6067778e-41
-3.039882e-28
2.026588e-28
1.013294e-28
-5.0620965e-40
1.013294e-28
4.559823e-28
8.106352e-28
0
3.039882e-28
3.374731e-40
-1.013294e-28
-3.039882e-28
2.8122366e-41
-5.5003691e-43
0
0
1.519941e-28
1.013294e-28
1.1249103e-40
2.026588e-28
1.519941e-28
-1.013294e-28
5.06647e-29
1.013294e-28
1.5807419e-54
2.5314802e-40
-1.0639587e-27
0
0
-3.039882e-28
-1.1257499e-40
-1.7105694e-43
1.1247663e-40
1.519941e-28
1.1251983e-40
5.06647e-28
0
-1.013294e-28
-1.013294e-28
-2.2478428e-40
5.06647e-29
5.06647e-29
-4.559823e-28
5.06647e-29
5.0620965e-40
5.06647e-28
-6.079764e-28
-3.039882e-28
0
0
0
-1.519941e-28
-5.06647e-28
3.039882e-28
-1.013294e-28
0
4.053176e-28
-3.374731e-40
8.5528471e-44
0
-1.013294e-28
2.026588e-28
1.013294e-28
-1.9243906e-43
-1.013294e-28
-1.013294e-28
-1.519941e-28
5.06647e-29
3.039882e-28
1.519941e-28
0
-6.079764e-28
1.6830656e-40
-2.533235e-28
-2.026588e-28
1.6873655e-40
-5.06647e-29
-5.0629604e-40
-2.026588e-28
2.8129958e-41
3.9030665e-56
1.013294e-28
0
-2.026588e-28
2.026588e-28
-3.039882e-28
3.039882e-28
7.599705e-28
0
-1.013294e-28
-4.053176e-28
3.039882e-28
-1.013294e-28
-1.013294e-28
4.559823e-28
-4.053176e-28
-3.039882e-28
-2.8281627e-41
1.013294e-28
1.013294e-28
-3.039882e-28
-1.519941e-28
1.6873655e-40
-3.039882e-28
-8.6398642e-44
-2.5233154e-40
2.026588e-28
-1.519941e-28
5.06647e-29
-2.3592589e-44
3.039882e-28
-3.039882e-28
-1.1250543e-40
-1.013294e-28
1.013294e-28
3.1220422e-53
3.039882e-28
-1.1249103e-40
5.06647e-29
-5.06647e-29
-4.7185179e-44
5.06647e-29
5.6245516e-41
4.053176e-28
-3.374731e-40
6.079764e-28
-4.053176e-28
2.2509726e-40
2.8144358e-40
3.375163e-40
5.06647e-29
1.519941e-28
-1.519941e-28
-1.6870775e-40
6.749462e-40
7.599705e-28
-5.06647e-29
1.013294e-28
-1.1249103e-40
2.533235e-28
6.079764e-28
-1.013294e-27
-4.053176e-28
5.6238316e-41
-9.119646e-28
3.373867e-40
-8.4464424e-41
1.013294e-28
-1.013294e-28
-2.026588e-28
3.1093335e-53
5.6245516e-41
1.7105694e-43
1.013294e-28
-1.013294e-28
5.0629604e-40
5.0620965e-40
-3.039882e-28
1.013294e-28
-2.8799547e-44
-1.013294e-28
5.06647e-29
1.519941e-28
-1.519941e-28
6.079764e-28
-3.9371861e-40
-4.053176e-28
5.06647e-28
-2.026588e-28
2.5314802e-40
-1.519941e-28
2.533235e-28
-1.013294e-28
-4.053176e-28
1.519941e-28
-1.519941e-28
0
0
1.013294e-28
-1.4399774e-44
1.013294e-28
1.013294e-28
1.519941e-28
5.6314777e-41
-3.039882e-28
-5.7599095e-44
-1.1249103e-40
2.026588e-28
-3.039882e-28
-1.0124769e-39
4.559823e-28
-4.053176e-28
-1.013294e-28
-1.1254863e-40
5.06647e-29
-2.026588e-28
9.5114294e-44
-5.0620965e-40
-4.053176e-28
9.119646e-28
1.013294e-28
2.026588e-28
4.559823e-28
3.039882e-28
-4.053176e-28
0
-1.013294e-28
-5.06647e-29
-9.119646e-28
-2.2498207e-40
7.093058e-28
-3.546529e-28
-2.026588e-28
5.5593506e-43
1.1863556e-56
-1.2829271e-43
-1.013294e-28
3.039882e-28
2.8149878e-52
-2.2501086e-40
-1.013294e-28
1.013294e-28
-5.06647e-29
-2.026588e-28
-2.2515486e-40
1.519941e-28
-2.026588e-28
-1.013294e-28
-3.039882e-28
0
2.026588e-28
-8.4368274e-41
-5.7599095e-44
6.079764e-28
1.519941e-28
3.039882e-28
-3.039882e-28
-5.2691398e-55
4.559823e-28
-1.519941e-28
3.3798157e-40
-1.123291e-40
3.039882e-28
-1.519941e-28
1.519941e-28
1.8818176e-52
1.013294e-28
3.039882e-28
5.6274316e-41
5.0047363e-52
-2.026588e-28
4.053176e-28
5.6245516e-41
5.06647e-29
-3.039882e-28
-1.013294e-28
0
0
-3.039882e-28
2.2498207e-40
5.7599095e-44
-1.6873655e-40
-2.026588e-28
-1.013294e-28
5.06647e-29
-5.06647e-29
-1.013294e-28
3.039882e-28
5.6245516e-41
2.026588e-28
-2.026588e-28
-3.374731e-40
-5.321117e-68
0
-2.026588e-28
-5.06647e-29
1.1249103e-39
9.119646e-28
0
3.039882e-28
-1.3308562e-43
-1.013294e-28
-1.013294e-28
-1.013294e-28
2.5314802e-40
1.013294e-28
0
0
-3.039882e-28
-4.053176e-28
0
-5.06647e-28
-3.546529e-28
-5.06647e-29
1.519941e-28
5.06647e-29
0
-5.5926212e-41
0
0
5.06647e-29
2.8122758e-40
4.053176e-28
0
1.519941e-28
2.8122758e-41
5.06647e-29
0
-1.013294e-28
-1.013294e-28
1.013294e-28
-2.2495327e-40
4.053176e-28
-5.06647e-28
-4.053176e-28
-1.013294e-28
-2.8799547e-44
-1.2403798e-52
1.4399774e-44
-5.06647e-28
2.026588e-28
-1.6873655e-40
1.1247767e-40
-5.6266115e-41
-1.519941e-28
-1.519941e-28
-5.06647e-29
5.06647e-29
-5.6238316e-41
-5.06647e-29
-1.013294e-28
-1.013294e-28
1.013294e-28
3.374443e-40
-2.7914443e-41
1.013294e-28
-2.026588e-28
1.013294e-28
-2.8119158e-40
5.6274316e-41
-5.06647e-29
1.013294e-28
-1.013294e-28
-1.013294e-28
0
-3.039882e-28
-2.2498207e-40
-2.026588e-28
-2.8122758e-40
3.039882e-28
1.013294e-28
0
4.053176e-28
6.748598e-40
1.013294e-28
-5.06647e-29
1.519941e-28
2.8115558e-41
1.013294e-28
2.026588e-28
5.06647e-28
-2.026588e-28
-1.013294e-28
2.026588e-28
0
3.039882e-28
-5.06647e-29
6.079764e-28
-5.06647e-29
2.533235e-28
6.079764e-28
2.026588e-28
-1.013294e-28
5.06647e-29
-5.06647e-29
2.2498207e-40
1.013294e-28
-1.519941e-28
-3.039882e-28
5.06647e-29
0
0
0
4.053176e-28
3.039882e-28
-1.013294e-28
-5.6245516e-41
-1.1249103e-40
2.2492447e-40
2.2501086e-40
3.039882e-28
0
-1.013294e-28
5.06647e-29
-2.026588e-28
1.519941e-28
1.519941e-28
0
0
-1.013294e-28
6.749462e-40
2.2498207e-40
-3.039882e-28
1.013294e-28
-2.026588e-28
0
4.053176e-28
-2.8115558e-40
-3.039882e-28
1.013294e-28
1.6877975e-40
-5.6249451e-40
0
3.039882e-28
5.06647e-29
2.026588e-28
-1.519941e-28
-3.375595e-40
-5.06647e-28
5.06647e-28
-1.013294e-28
0
0
0
1.013294e-28
-3.039882e-28
5.06647e-28
0
2.026588e-28
0
1.519941e-28
-2.026588e-28
-1.519941e-28
2.533235e-28
-8.106352e-28
-4.559823e-28
1.2159528e-27
7.093058e-28
9.5629617e-40
-1.013294e-27
2.5872937e-39
-8.3518688e-43
-3.3438702e-27
0
2.9892173e-27
7.093058e-27
4.2558348e-27
0
0
0
1.0791581e-26
-2.8169573e-26
-1.7428657e-26
2.1279174e-26
2.6700297e-26
-3.3692025e-26
-4.2305024e-26
1.0568656e-25
0
-1.6607889e-25
-2.068133e-25
0
0
4.0308835e-25
2.7875278e-37
3.126012e-25
3.8859825e-25
-4.8374655e-25
6.0159264e-25
-7.4700033e-25
-1.8541254e-24
-1.149886e-24
0
3.528391e-24
2.42328e-36
-2.7003272e-24
3.3372331e-24
4.12132e-24
1.0171344e-23
-1.2542553e-23
-7.7274307e-24
2.7042631e-39
-1.1706788e-23
2.878525e-23
-1.7682183e-23
2.1706632e-23
-1.2506128e-50
-3.2635464e-23
7.9940891e-23
-9.7831813e-23
-1.1963253e-22
0
8.9233e-23
2.1771513e-22
-7.3653532e-35
-1.6161112e-22
-1.9667418e-22
4.7829483e-22
5.8110414e-22
-3.5271214e-22
-8.5562302e-22
-1.0369252e-21
6.2778716e-22
1.5190273e-21
-9.1808783e-22
1.1088058e-21
-2.2276474e-33
-1.6130795e-21
3.8860583e-21
-4.676758e-21
-3.1205493e-33
1.8749338e-32
-8.1076759e-21
9.721927e-21
2.5859419e-32
-6.9698814e-21
1.6668501e-20
-9.9562756e-21
3.3772531e-36
-6.2915178e-32
-1.6876897e-20
4.0167899e-20
-5.3014149e-32
1.5736981e-32
-3.3647152e-20
1.1335239e-35
9.4450313e-20
-1.1172586e-19
-3.7523922e-35
3.4603924e-31
-1.8378704e-19
2.1650127e-19
2.8283193e-31
-2.9948011e-19
1.758299e-19
2.0624172e-19
2.4164935e-19
-2.8282401e-19
3.6706843e-31
7.7224791e-19
0
0
-1.2214801e-18
-2.0178278e-34
1.6486749e-18
-9.5601698e-19
1.229087e-30
-1.2812623e-18
-3.2874088e-30
3.4178002e-18
0
2.2681202e-18
-5.2162815e-18
-2.9953668e-18
7.6293301e-30
-3.9357856e-18
9.0056358e-18
-5.1448468e-18
6.5157136e-30
1.3380255e-17
0
0
-9.8212742e-18
6.1789616e-30
-1.2599652e-17
1.4241284e-17
4.8222644e-17
-5.4352118e-17
-2.0391085e-17
4.5834228e-17
-2.5718689e-17
-4.7988643e-29
-3.2248819e-17
2.0481407e-32
1.3388589e-28
-4.4776708e-17
9.9604467e-17
5.5306869e-17
0
6.7892338e-17
-7.5045147e-17
-8.2820699e-17
-9.1256762e-17
2.228995e-28
-1.2237725e-28
1.3419319e-28
2.6473542e-16
-1.4467518e-16
-2.6286224e-28
3.4395463e-16
-2.6579681e-32
-2.0307838e-16
-4.4025135e-16
-4.7640681e-16
5.1466316e-16
3.0825394e-28
2.9879852e-16
3.2115526e-16
-6.8919514e-16
7.3824197e-16
3.9471498e-16
-1.264088e-15
-8.98081e-16
4.7771803e-16
1.0147154e-15
5.3791462e-16
-5.6933666e-16
-1.2031283e-15
1.26906e-15
2.0044793e-15
-7.0237176e-16
-7.3707709e-16
-1.5443601e-15
-8.0757826e-16
1.6863261e-15
8.7881982e-16
9.144284e-16
-1.8997271e-15
-9.8499552e-16
2.0393808e-15
-2.1076216e-15
4.9348115e-44
-3.1825641e-31
-2.3026252e-15
2.3634274e-15
4.0336264e-27
1.3735118e-27
4.2123834e-27
3.3896236e-44
3.9344342e-15
1.4789094e-27
-1.3503937e-15
-2.7330811e-15
-2.7606408e-15
2.7832444e-15
3.1091879e-27
1.406391e-15
4.6956664e-27
-1.4100738e-15
2.8148685e-15
0
-1.3930963e-15
1.5332073e-27
-1.3667726e-15
-2.6982732e-15
2.6571279e-15
2.6102275e-15
0
-2.4998335e-15
2.705884e-27
2.3688373e-15
-2.2963365e-15
-1.2320641e-27
1.0695579e-15
5.7054717e-28
2.7972608e-31
-9.3956891e-16
8.9397408e-16
8.476759e-16
-8.0094212e-16
8.3742307e-28
-7.0724581e-16
2.2010098e-27
-6.8275719e-28
-1.140156e-15
1.0524897e-15
9.6745379e-16
0
-8.0677645e-16
8.1237811e-28
6.6066301e-16
-5.936401e-16
-5.3083824e-16
2.3617014e-16
4.181765e-16
1.0227758e-28
2.2931615e-32
7.8027206e-29
3.4651823e-32
1.0511363e-16
-1.802457e-16
-1.5367551e-16
1.3028198e-16
6.0990786e-29
-9.2045566e-17
7.6705638e-17
6.3557919e-17
0
-4.2906307e-17
4.968707e-33
-1.5729183e-29
-1.2690807e-29
2.0381949e-29
-1.4677987e-17
1.1693948e-17
2.5801878e-45
-7.362366e-18
8.7429585e-18
4.6123311e-18
-1.8262626e-18
0
-2.3066284e-18
3.0774707e-30
-8.3504361e-31
-1.249468e-18
0
0
1.3676235e-18
4.1781665e-19
-3.8028108e-19
3.6144161e-19
-3.7067849e-19
3.8136448e-19
8.1046959e-31
-3.5365399e-19