/*--------------------------------*- C++ -*----------------------------------*\
  =========                 |
  \\      /  F ield         | OpenFOAM: The Open Source CFD Toolbox
   \\    /   O peration     | Website:  https://openfoam.org
    \\  /    A nd           | Version:  7
     \\/     M anipulation  |
\*---------------------------------------------------------------------------*/
FoamFile
{
    version     2.0;
    format      ascii;
    class       volScalarField;
    location    "0.00182";
    object      mag(U);
}
// * * * * * * * * * * * * * * * * * * * * * * * * * * * * * * * * * * * * * //

dimensions      [0 1 -1 0 0 0 0];

internalField   nonuniform List<scalar> 
5000
(
23.10018
23.100199
23.100222
23.100246
23.100258
23.100257
23.100256
23.100255
23.100258
23.100267
23.100281
23.100297
23.100316
23.100319
23.100319
23.100318
23.100323
23.100331
23.100342
23.100355
23.100371
23.100376
23.100376
23.100379
23.100386
23.100393
23.100401
23.10041
23.100417
23.100418
23.10042
23.100421
23.100423
23.100425
23.100428
23.100429
23.100432
23.100435
23.100438
23.100441
23.100444
23.100447
23.10045
23.100453
23.100457
23.100461
23.100464
23.100467
23.100471
23.100476
23.100481
23.100484
23.100489
23.100495
23.100502
23.100509
23.100517
23.100526
23.100536
23.100548
23.100562
23.100577
23.100594
23.100613
23.100633
23.100644
23.100643
23.100644
23.100646
23.10065
23.100655
23.10066
23.100664
23.100666
23.100668
23.100671
23.100674
23.100677
23.100681
23.100685
23.10069
23.100694
23.100699
23.100704
23.100709
23.100714
23.100719
23.100725
23.100729
23.100733
23.100737
23.100742
23.100746
23.100751
23.100756
23.100761
23.100767
23.100773
23.100777
23.100779
23.10078
23.100782
23.100784
23.100787
23.100791
23.100795
23.1008
23.100807
23.100813
23.10082
23.100823
23.100827
23.100832
23.100837
23.100843
23.100847
23.10085
23.100854
23.100859
23.100864
23.100866
23.100867
23.10087
23.100874
23.10088
23.100887
23.100888
23.100887
23.100885
23.100886
23.100891
23.100899
23.100905
23.100903
23.100899
23.100888
23.100886
23.100888
23.100889
23.100892
23.100897
23.100903
23.100913
23.100913
23.100908
23.100898
23.100899
23.100904
23.100913
23.100912
23.100906
23.100892
23.100876
23.100881
23.100894
23.100906
23.100903
23.100892
23.10087
23.10085
23.10086
23.100879
23.10089
23.100885
23.100874
23.100855
23.100859
23.100875
23.100875
23.100862
23.100833
23.100797
23.100806
23.100832
23.100838
23.100828
23.100804
23.100769
23.100774
23.10079
23.100787
23.100771
23.10073
23.100726
23.100738
23.100732
23.100703
23.100654
23.100599
23.100612
23.100639
23.100634
23.100607
23.100541
23.100446
23.100374
23.100382
23.100387
23.100393
23.100405
23.100419
23.10041
23.100374
23.100295
23.100181
23.100152
23.100171
23.100189
23.100177
23.100134
23.100041
23.099917
23.09984
23.099854
23.099873
23.099857
23.099803
23.099707
23.099645
23.099663
23.099656
23.099603
23.099495
23.099353
23.099261
23.09927
23.099282
23.099258
23.099182
23.09906
23.098917
23.098832
23.098802
23.098776
23.098729
23.098636
23.098508
23.098379
23.098302
23.09824
23.09817
23.098075
23.097952
23.097818
23.097708
23.097611
23.09751
23.097395
23.097263
23.097123
23.096989
23.09686
23.096727
23.096583
23.096429
23.096266
23.096099
23.095929
23.095756
23.095584
23.09542
23.095259
23.095094
23.094915
23.094712
23.094488
23.094255
23.094035
23.093835
23.093636
23.093423
23.093185
23.092919
23.092639
23.092374
23.092132
23.091891
23.091638
23.091366
23.091071
23.090759
23.090437
23.090112
23.089787
23.08948
23.089179
23.088871
23.088544
23.088189
23.087813
23.087428
23.087052
23.086679
23.086296
23.085895
23.08548
23.085058
23.08464
23.084218
23.083784
23.083336
23.082877
23.082413
23.081942
23.081456
23.080956
23.080447
23.079938
23.079426
23.078898
23.078346
23.077776
23.077207
23.076654
23.076095
23.075515
23.074905
23.074274
23.073633
23.073003
23.072373
23.071733
23.071072
23.070389
23.069694
23.068998
23.0683
23.067589
23.066858
23.066109
23.065351
23.064587
23.06381
23.063012
23.062196
23.061374
23.060554
23.059731
23.058898
23.058054
23.057199
23.056332
23.055441
23.054522
23.053577
23.05262
23.05166
23.0507
23.049738
23.048771
23.047787
23.046775
23.045731
23.044663
23.043596
23.042556
23.041506
23.040427
23.039313
23.038175
23.037032
23.035893
23.034746
23.033579
23.032392
23.03119
23.029977
23.028752
23.027511
23.026258
23.025002
23.023741
23.022464
23.02116
23.019836
23.018505
23.017179
23.015846
23.014494
23.013121
23.011732
23.010329
23.008911
23.007472
23.006014
23.004543
23.003076
23.00161
23.000132
22.998627
22.997093
22.995541
22.993986
22.992449
22.990905
22.98934
22.987749
22.986138
22.984516
22.982888
22.98125
22.979598
22.977934
22.976262
22.974584
22.972891
22.971179
22.96945
22.967714
22.965983
22.964246
22.962493
22.960715
22.958919
22.95711
22.955305
22.9535
22.951683
22.949845
22.94799
22.946124
22.944261
22.942394
22.940515
22.938618
22.936709
22.934798
22.932886
22.930963
22.929021
22.927062
22.925094
22.923126
22.921156
22.91918
22.917197
22.915205
22.913202
22.911186
22.909157
22.907122
22.905087
22.903048
22.901
22.898939
22.896869
22.894797
22.892722
22.890642
22.88855
22.886445
22.884331
22.882216
22.880109
22.877997
22.875872
22.873731
22.87158
22.869428
22.867284
22.865135
22.862975
22.860804
22.858627
22.856454
22.854278
22.852094
22.849902
22.84771
22.845525
22.843334
22.841132
22.838919
22.836699
22.834483
22.832274
22.830061
22.827841
22.825613
22.82338
22.821145
22.818917
22.816687
22.814451
22.812208
22.809959
22.807722
22.805487
22.803246
22.800999
22.798745
22.796497
22.794255
22.792009
22.789758
22.787504
22.785252
22.783002
22.780749
22.778504
22.77626
22.774012
22.771759
22.769503
22.767252
22.765015
22.762778
22.760536
22.758289
22.75604
22.753803
22.751573
22.74934
22.747106
22.744875
22.74265
22.740425
22.738199
22.735977
22.733762
22.731548
22.729334
22.727121
22.724917
22.722721
22.720524
22.718327
22.716137
22.713951
22.711769
22.709589
22.707414
22.705252
22.703091
22.70093
22.698766
22.696609
22.694464
22.692332
22.6902
22.688068
22.685939
22.683818
22.681708
22.679602
22.677497
22.675399
22.673311
22.671228
22.669147
22.667071
22.665006
22.662952
22.660902
22.658854
22.65681
22.654775
22.652752
22.650734
22.648721
22.646713
22.644716
22.642727
22.640744
22.638765
22.636796
22.634836
22.632885
22.630939
22.628998
22.627068
22.625149
22.623235
22.621325
22.619422
22.617531
22.615652
22.61378
22.611913
22.610051
22.608199
22.606359
22.604527
22.602703
22.600886
22.599076
22.597274
22.595482
22.5937
22.591926
22.590161
22.588404
22.586657
22.584917
22.583184
22.58146
22.579746
22.578043
22.576348
22.574661
22.572982
22.571311
22.569649
22.567996
22.566353
22.564719
22.563093
22.561476
22.559867
22.558268
22.556678
22.555096
22.553523
22.551959
22.550403
22.548856
22.547318
22.545789
22.544269
22.542758
22.541254
22.539759
22.538273
22.536797
22.535329
22.533869
22.532417
22.530973
22.52954
22.528115
22.526698
22.525289
22.523887
22.522495
22.521112
22.519737
22.51837
22.517011
22.51566
22.514318
22.512984
22.511657
22.510339
22.509029
22.507727
22.506434
22.505147
22.503868
22.502598
22.501335
22.500081
22.498834
22.497595
22.496363
22.495139
22.493922
22.492713
22.491511
22.490317
22.48913
22.487952
22.48678
22.485616
22.484458
22.483308
22.482164
22.481028
22.479899
22.478778
22.477664
22.476556
22.475456
22.474361
22.473273
22.472193
22.471119
22.470053
22.468993
22.46794
22.466893
22.465852
22.464818
22.463791
22.462771
22.461757
22.460748
22.459747
22.458752
22.457763
22.45678
22.455804
22.454834
22.453869
22.452911
22.45196
22.451014
22.450075
22.449141
22.448214
22.447293
22.446378
22.445468
22.444563
22.443665
22.442773
22.441888
22.441008
22.440134
22.439265
22.438401
22.437544
22.436692
22.435847
22.435007
22.434173
22.433344
22.43252
22.431702
22.43089
22.430084
22.429283
22.428488
22.427698
22.426914
22.426135
22.425362
22.424595
22.423832
22.423075
22.422323
22.421578
22.420838
22.420103
22.419373
22.418649
22.41793
22.417217
22.416509
22.415806
22.415109
22.414417
22.41373
22.413049
22.412374
22.411703
22.411038
22.410378
22.409723
22.409074
22.40843
22.407792
22.407158
22.40653
22.405907
22.40529
22.404678
22.404071
22.403469
22.402873
22.402282
22.401696
22.401115
22.400539
22.399969
22.399404
22.398845
22.39829
22.39774
22.397195
22.396657
22.396123
22.395595
22.395071
22.394552
22.394039
22.39353
22.393027
22.39253
22.392037
22.391549
22.391066
22.390588
22.390116
22.389648
22.389186
22.388728
22.388276
22.387828
22.387385
22.386947
22.386514
22.386087
22.385664
22.385246
22.384833
22.384424
22.384021
22.383622
22.383227
22.382838
22.382454
22.382075
22.3817
22.38133
22.380964
22.380602
22.380246
22.379894
22.379547
22.379205
22.378866
22.378533
22.378203
22.377878
22.377558
22.377242
22.376931
22.376623
22.37632
22.376021
22.375727
22.375437
22.375151
22.374869
22.374591
22.374317
22.374048
22.373782
22.37352
22.373263
22.373009
22.372759
22.372513
22.372271
22.372033
22.371798
22.371567
22.37134
22.371117
22.370897
22.370681
22.370468
22.370259
22.370053
22.369851
22.369652
22.369457
22.369265
22.369076
22.36889
22.368708
22.368529
22.368353
22.36818
22.36801
22.367844
22.36768
22.367519
22.367362
22.367207
22.367055
22.366906
22.366759
22.366616
22.366475
22.366337
22.366201
22.366068
22.365938
22.36581
22.365685
22.365562
22.365441
22.365323
22.365207
22.365094
22.364983
22.364875
22.364768
22.364664
22.364561
22.364461
22.364363
22.364267
22.364173
22.364082
22.363992
22.363904
22.363817
22.363733
22.363651
22.36357
22.363491
22.363414
22.363339
22.363265
22.363193
22.363122
22.363053
22.362986
22.36292
22.362856
22.362794
22.362732
22.362672
22.362614
22.362556
22.362501
22.362447
22.362393
22.362341
22.362291
22.362241
22.362193
22.362146
22.362101
22.362056
22.362012
22.36197
22.361928
22.361888
22.361849
22.36181
22.361773
22.361737
22.361701
22.361667
22.361633
22.3616
22.361568
22.361537
22.361507
22.361478
22.361449
22.361422
22.361395
22.361368
22.361343
22.361318
22.361294
22.361271
22.361248
22.361226
22.361204
22.361184
22.361163
22.361144
22.361125
22.361106
22.361088
22.361071
22.361054
22.361038
22.361022
22.361007
22.360992
22.360978
22.360964
22.36095
22.360937
22.360925
22.360913
22.360901
22.36089
22.360879
22.360868
22.360857
22.360848
22.360838
22.360829
22.36082
22.360812
22.360803
22.360795
22.360787
22.36078
22.360773
22.360766
22.36076
22.360753
22.360747
22.360741
22.360736
22.36073
22.360725
22.36072
22.360715
22.36071
22.360706
22.360702
22.360698
22.360694
22.36069
22.360686
22.360683
22.360679
22.360676
22.360673
22.36067
22.360668
22.360665
22.360662
22.36066
22.360657
22.360655
22.360653
22.360651
22.360649
22.360647
22.360645
22.360644
22.360642
22.36064
22.360639
22.360637
22.360636
22.360635
22.360633
22.360632
22.360631
22.36063
22.360629
22.360628
22.360627
22.360626
22.360625
22.360624
22.360623
22.360622
22.360621
22.360621
22.36062
22.360619
22.360619
22.360618
22.360617
22.360617
22.360616
22.360615
22.360615
22.360614
22.360614
22.360613
22.360613
22.360612
22.360612
22.360611
22.360611
22.360611
22.36061
22.36061
22.360609
22.360609
22.360609
22.360608
22.360608
22.360608
22.360607
22.360607
22.360607
22.360606
22.360606
22.360606
22.360606
22.360605
22.360605
22.360605
22.360604
22.360604
22.360604
22.360604
22.360604
22.360603
22.360603
22.360603
22.360602
22.360602
22.360602
22.360602
22.360601
22.360601
22.360601
22.360601
22.360601
22.3606
22.3606
22.3606
22.360599
22.360599
22.360599
22.360599
22.360598
22.360598
22.360598
22.360597
22.360597
22.360597
22.360596
22.360596
22.360596
22.360595
22.360595
22.360594
22.360594
22.360594
22.360593
22.360593
22.360592
22.360592
22.360591
22.360591
22.36059
22.36059
22.360589
22.360589
22.360588
22.360587
22.360587
22.360586
22.360585
22.360585
22.360584
22.360583
22.360583
22.360582
22.360581
22.36058
22.360579
22.360579
22.360578
22.360577
22.360576
22.360576
22.360575
22.360574
22.360573
22.360572
22.360571
22.36057
22.360569
22.360568
22.360567
22.360566
22.360565
22.360564
22.360563
22.360562
22.360561
22.360561
22.36056
22.360558
22.360557
22.360556
22.360555
22.360554
22.360553
22.360552
22.360551
22.36055
22.360549
22.360548
22.360547
22.360546
22.360545
22.360544
22.360543
22.360542
22.36054
22.360539
22.360538
22.360537
22.360536
22.360535
22.360534
22.360533
22.360532
22.360531
22.36053
22.360529
22.360528
22.360527
22.360526
22.360525
22.360524
22.360523
22.360522
22.360521
22.36052
22.360519
22.360518
22.360517
22.360516
22.360515
22.360514
22.360513
22.360513
22.360512
22.360511
22.36051
22.360509
22.360508
22.360507
22.360507
22.360506
22.360505
22.360504
22.360504
22.360503
22.360502
22.360501
22.360501
22.3605
22.360499
22.360499
22.360498
22.360498
22.360497
22.360496
22.360496
22.360495
22.360495
22.360494
22.360494
22.360493
22.360493
22.360492
22.360492
22.360491
22.360491
22.36049
22.36049
22.36049
22.360489
22.360489
22.360489
22.360488
22.360488
22.360488
22.360487
22.360487
22.360487
22.360486
22.360486
22.360486
22.360486
22.360486
22.360485
22.360485
22.360485
22.360485
22.360485
22.360484
22.360484
22.360484
22.360484
22.360484
22.360483
22.360483
22.360483
22.360483
22.360483
22.360483
22.360482
22.360482
22.360482
22.360482
22.360482
22.360482
22.360482
22.360481
22.360481
22.360481
22.360481
22.360481
22.36048
22.36048
22.36048
22.36048
22.36048
22.360479
22.360479
22.360479
22.360479
22.360478
22.360478
22.360478
22.360478
22.360477
22.360477
22.360477
22.360476
22.360476
22.360476
22.360475
22.360475
22.360475
22.360474
22.360474
22.360474
22.360473
22.360473
22.360473
22.360472
22.360472
22.360471
22.360471
22.36047
22.36047
22.36047
22.360469
22.360469
22.360468
22.360468
22.360467
22.360467
22.360466
22.360466
22.360465
22.360465
22.360464
22.360464
22.360463
22.360463
22.360462
22.360462
22.360461
22.360461
22.36046
22.36046
22.360459
22.360459
22.360458
22.360458
22.360457
22.360456
22.360456
22.360455
22.360455
22.360454
22.360454
22.360453
22.360453
22.360452
22.360452
22.360451
22.360451
22.36045
22.36045
22.360449
22.360449
22.360448
22.360448
22.360447
22.360447
22.360446
22.360446
22.360445
22.360445
22.360444
22.360444
22.360443
22.360443
22.360442
22.360442
22.360441
22.360441
22.36044
22.36044
22.36044
22.360439
22.360439
22.360438
22.360438
22.360437
22.360437
22.360437
22.360436
22.360436
22.360435
22.360435
22.360435
22.360434
22.360434
22.360434
22.360433
22.360433
22.360432
22.360432
22.360432
22.360431
22.360431
22.36043
22.36043
22.36043
22.360429
22.360429
22.360429
22.360428
22.360428
22.360428
22.360427
22.360427
22.360427
22.360426
22.360426
22.360426
22.360425
22.360425
22.360424
22.360424
22.360424
22.360423
22.360423
22.360423
22.360422
22.360422
22.360422
22.360421
22.360421
22.36042
22.36042
22.36042
22.360419
22.360419
22.360419
22.360418
22.360418
22.360417
22.360417
22.360417
22.360416
22.360416
22.360415
22.360415
22.360415
22.360414
22.360414
22.360413
22.360413
22.360412
22.360412
22.360412
22.360411
22.360411
22.36041
22.36041
22.360409
22.360409
22.360409
22.360408
22.360408
22.360407
22.360407
22.360406
22.360406
22.360405
22.360405
22.360404
22.360404
22.360403
22.360403
22.360403
22.360402
22.360402
22.360401
22.360401
22.3604
22.3604
22.360399
22.360399
22.360398
22.360398
22.360397
22.360397
22.360396
22.360396
22.360395
22.360395
22.360394
22.360394
22.360393
22.360393
22.360393
22.360392
22.360392
22.360391
22.360391
22.36039
22.36039
22.360389
22.360389
22.360388
22.360388
22.360387
22.360387
22.360386
22.360386
22.360385
22.360385
22.360384
22.360384
22.360383
22.360383
22.360382
22.360382
22.360381
22.360381
22.36038
22.36038
22.360379
22.360378
22.360378
22.360377
22.360377
22.360376
22.360376
22.360375
22.360375
22.360374
22.360374
22.360373
22.360373
22.360372
22.360372
22.360371
22.360371
22.36037
22.36037
22.360369
22.360369
22.360368
22.360368
22.360367
22.360367
22.360366
22.360366
22.360365
22.360365
22.360364
22.360364
22.360363
22.360363
22.360362
22.360362
22.360361
22.360361
22.36036
22.36036
22.360359
22.360359
22.360358
22.360358
22.360357
22.360357
22.360356
22.360356
22.360356
22.360355
22.360355
22.360354
22.360354
22.360353
22.360353
22.360353
22.360352
22.360352
22.360351
22.360351
22.360351
22.36035
22.36035
22.36035
22.360349
22.360349
22.360349
22.360348
22.360348
22.360348
22.360348
22.360347
22.360347
22.360347
22.360346
22.360346
22.360346
22.360346
22.360345
22.360345
22.360345
22.360345
22.360345
22.360344
22.360344
22.360344
22.360344
22.360344
22.360343
22.360343
22.360343
22.360343
22.360343
22.360343
22.360343
22.360342
22.360342
22.360342
22.360342
22.360342
22.360342
22.360342
22.360342
22.360341
22.360341
22.360341
22.360341
22.360341
22.360341
22.360341
22.360341
22.36034
22.36034
22.36034
22.36034
22.36034
22.36034
22.36034
22.36034
22.360339
22.360339
22.360339
22.360339
22.360339
22.360339
22.360338
22.360338
22.360338
22.360338
22.360338
22.360337
22.360337
22.360337
22.360337
22.360336
22.360336
22.360336
22.360336
22.360335
22.360335
22.360335
22.360334
22.360334
22.360334
22.360333
22.360333
22.360332
22.360332
22.360332
22.360331
22.360331
22.36033
22.36033
22.36033
22.360329
22.360329
22.360328
22.360328
22.360327
22.360327
22.360326
22.360326
22.360325
22.360325
22.360324
22.360323
22.360323
22.360322
22.360321
22.360321
22.36032
22.36032
22.360319
22.360319
22.360318
22.360317
22.360317
22.360316
22.360315
22.360315
22.360314
22.360313
22.360313
22.360312
22.360311
22.360311
22.36031
22.360309
22.360309
22.360308
22.360307
22.360307
22.360306
22.360305
22.360305
22.360304
22.360303
22.360302
22.360302
22.360301
22.360301
22.3603
22.360299
22.360299
22.360298
22.360297
22.360297
22.360296
22.360296
22.360295
22.360294
22.360294
22.360293
22.360293
22.360292
22.360292
22.360291
22.36029
22.36029
22.360289
22.360289
22.360288
22.360288
22.360287
22.360287
22.360287
22.360286
22.360286
22.360285
22.360285
22.360284
22.360284
22.360284
22.360283
22.360283
22.360283
22.360282
22.360282
22.360282
22.360281
22.360281
22.360281
22.36028
22.36028
22.36028
22.36028
22.360279
22.360279
22.360279
22.360279
22.360278
22.360278
22.360278
22.360278
22.360278
22.360277
22.360277
22.360277
22.360277
22.360277
22.360277
22.360276
22.360276
22.360276
22.360276
22.360276
22.360276
22.360275
22.360275
22.360275
22.360275
22.360275
22.360275
22.360274
22.360274
22.360274
22.360274
22.360274
22.360274
22.360274
22.360273
22.360273
22.360273
22.360273
22.360273
22.360273
22.360272
22.360272
22.360272
22.360272
22.360272
22.360272
22.360271
22.360271
22.360271
22.360271
22.360271
22.36027
22.36027
22.36027
22.36027
22.360269
22.360269
22.360269
22.360269
22.360268
22.360268
22.360268
22.360268
22.360267
22.360267
22.360267
22.360267
22.360266
22.360266
22.360266
22.360265
22.360265
22.360265
22.360264
22.360264
22.360264
22.360263
22.360263
22.360262
22.360262
22.360262
22.360262
22.360261
22.360261
22.36026
22.36026
22.36026
22.360259
22.360259
22.360259
22.360258
22.360258
22.360257
22.360257
22.360256
22.360256
22.360256
22.360255
22.360255
22.360255
22.360254
22.360254
22.360253
22.360253
22.360252
22.360252
22.360252
22.360251
22.360251
22.36025
22.36025
22.36025
22.360249
22.360249
22.360248
22.360248
22.360247
22.360247
22.360247
22.360246
22.360246
22.360246
22.360245
22.360245
22.360244
22.360244
22.360243
22.360243
22.360243
22.360242
22.360242
22.360241
22.360241
22.360241
22.36024
22.36024
22.36024
22.360239
22.360239
22.360238
22.360238
22.360238
22.360237
22.360237
22.360237
22.360236
22.360236
22.360236
22.360235
22.360235
22.360234
22.360234
22.360234
22.360234
22.360233
22.360233
22.360233
22.360232
22.360232
22.360231
22.360231
22.360231
22.360231
22.36023
22.36023
22.36023
22.360229
22.360229
22.360229
22.360228
22.360228
22.360228
22.360228
22.360227
22.360227
22.360227
22.360226
22.360226
22.360226
22.360225
22.360225
22.360225
22.360224
22.360224
22.360224
22.360223
22.360223
22.360223
22.360223
22.360222
22.360222
22.360222
22.360221
22.360221
22.360221
22.36022
22.36022
22.36022
22.36022
22.360219
22.360219
22.360219
22.360218
22.360218
22.360218
22.360217
22.360217
22.360217
22.360216
22.360216
22.360216
22.360215
22.360215
22.360215
22.360214
22.360214
22.360214
22.360213
22.360213
22.360213
22.360212
22.360212
22.360212
22.360211
22.360211
22.360211
22.36021
22.36021
22.36021
22.360209
22.360209
22.360209
22.360208
22.360208
22.360208
22.360207
22.360207
22.360207
22.360206
22.360206
22.360206
22.360205
22.360205
22.360205
22.360204
22.360204
22.360204
22.360203
22.360203
22.360203
22.360202
22.360202
22.360202
22.360201
22.360201
22.360201
22.3602
22.3602
22.3602
22.360199
22.360199
22.360199
22.360199
22.360198
22.360198
22.360198
22.360197
22.360197
22.360197
22.360196
22.360196
22.360196
22.360196
22.360195
22.360195
22.360195
22.360194
22.360194
22.360194
22.360194
22.360193
22.360193
22.360193
22.360192
22.360192
22.360192
22.360192
22.360191
22.360191
22.360191
22.360191
22.36019
22.36019
22.36019
22.36019
22.360189
22.360189
22.360189
22.360189
22.360188
22.360188
22.360188
22.360187
22.360187
22.360187
22.360187
22.360186
22.360186
22.360186
22.360185
22.360185
22.360185
22.360185
22.360184
22.360184
22.360184
22.360183
22.360183
22.360183
22.360183
22.360182
22.360182
22.360182
22.360181
22.360181
22.360181
22.36018
22.36018
22.36018
22.360179
22.360179
22.360179
22.360178
22.360178
22.360177
22.360177
22.360177
22.360176
22.360176
22.360176
22.360175
22.360175
22.360174
22.360174
22.360174
22.360173
22.360173
22.360172
22.360172
22.360171
22.360171
22.36017
22.36017
22.36017
22.360169
22.360169
22.360168
22.360168
22.360167
22.360167
22.360166
22.360166
22.360165
22.360165
22.360164
22.360164
22.360163
22.360163
22.360162
22.360162
22.360161
22.360161
22.36016
22.36016
22.360159
22.360159
22.360158
22.360158
22.360157
22.360157
22.360156
22.360156
22.360155
22.360155
22.360154
22.360154
22.360153
22.360153
22.360152
22.360152
22.360151
22.360151
22.36015
22.36015
22.360149
22.360149
22.360148
22.360148
22.360148
22.360147
22.360147
22.360146
22.360146
22.360145
22.360145
22.360144
22.360144
22.360144
22.360143
22.360143
22.360142
22.360142
22.360142
22.360141
22.360141
22.36014
22.36014
22.36014
22.360139
22.360139
22.360139
22.360138
22.360138
22.360138
22.360137
22.360137
22.360137
22.360136
22.360136
22.360136
22.360136
22.360135
22.360135
22.360135
22.360134
22.360134
22.360134
22.360134
22.360133
22.360133
22.360133
22.360133
22.360133
22.360132
22.360132
22.360132
22.360132
22.360131
22.360131
22.360131
22.360131
22.360131
22.36013
22.36013
22.36013
22.36013
22.36013
22.36013
22.360129
22.360129
22.360129
22.360129
22.360129
22.360128
22.360128
22.360128
22.360128
22.360128
22.360128
22.360127
22.360127
22.360127
22.360127
22.360127
22.360127
22.360126
22.360126
22.360126
22.360126
22.360126
22.360125
22.360125
22.360125
22.360125
22.360124
22.360124
22.360124
22.360124
22.360124
22.360123
22.360123
22.360123
22.360123
22.360123
22.360122
22.360122
22.360122
22.360121
22.360121
22.360121
22.360121
22.360121
22.36012
22.36012
22.36012
22.360119
22.360119
22.360119
22.360119
22.360118
22.360118
22.360118
22.360117
22.360117
22.360117
22.360116
22.360116
22.360116
22.360115
22.360115
22.360115
22.360114
22.360114
22.360114
22.360113
22.360113
22.360113
22.360112
22.360112
22.360112
22.360111
22.360111
22.360111
22.36011
22.36011
22.36011
22.360109
22.360109
22.360108
22.360108
22.360108
22.360107
22.360107
22.360107
22.360106
22.360106
22.360106
22.360105
22.360105
22.360105
22.360104
22.360104
22.360103
22.360103
22.360103
22.360102
22.360102
22.360102
22.360101
22.360101
22.3601
22.3601
22.3601
22.360099
22.360099
22.360099
22.360098
22.360098
22.360098
22.360097
22.360097
22.360096
22.360096
22.360096
22.360095
22.360095
22.360095
22.360094
22.360094
22.360094
22.360093
22.360093
22.360093
22.360092
22.360092
22.360092
22.360091
22.360091
22.360091
22.36009
22.36009
22.36009
22.360089
22.360089
22.360089
22.360088
22.360088
22.360088
22.360087
22.360087
22.360087
22.360087
22.360086
22.360086
22.360086
22.360085
22.360085
22.360085
22.360085
22.360084
22.360084
22.360084
22.360084
22.360083
22.360083
22.360083
22.360082
22.360082
22.360082
22.360082
22.360082
22.360081
22.360081
22.360081
22.360081
22.36008
22.36008
22.36008
22.36008
22.360079
22.360079
22.360079
22.360079
22.360079
22.360078
22.360078
22.360078
22.360078
22.360078
22.360078
22.360077
22.360077
22.360077
22.360077
22.360077
22.360076
22.360076
22.360076
22.360076
22.360076
22.360075
22.360075
22.360075
22.360075
22.360075
22.360075
22.360074
22.360074
22.360074
22.360074
22.360074
22.360074
22.360073
22.360073
22.360073
22.360073
22.360073
22.360073
22.360072
22.360072
22.360072
22.360072
22.360072
22.360072
22.360072
22.360071
22.360071
22.360071
22.360071
22.360071
22.36007
22.36007
22.36007
22.36007
22.36007
22.36007
22.360069
22.360069
22.360069
22.360069
22.360069
22.360068
22.360068
22.360068
22.360068
22.360068
22.360068
22.360067
22.360067
22.360067
22.360067
22.360066
22.360066
22.360066
22.360066
22.360066
22.360065
22.360065
22.360065
22.360065
22.360064
22.360064
22.360064
22.360064
22.360063
22.360063
22.360063
22.360063
22.360062
22.360062
22.360062
22.360062
22.360061
22.360061
22.360061
22.360061
22.36006
22.36006
22.36006
22.360059
22.360059
22.360059
22.360059
22.360058
22.360058
22.360058
22.360057
22.360057
22.360057
22.360056
22.360056
22.360056
22.360055
22.360055
22.360055
22.360055
22.360054
22.360054
22.360054
22.360053
22.360053
22.360053
22.360052
22.360052
22.360052
22.360051
22.360051
22.360051
22.36005
22.36005
22.36005
22.360049
22.360049
22.360049
22.360048
22.360048
22.360047
22.360047
22.360047
22.360046
22.360046
22.360046
22.360045
22.360045
22.360045
22.360044
22.360044
22.360044
22.360043
22.360043
22.360043
22.360042
22.360042
22.360042
22.360041
22.360041
22.360041
22.36004
22.36004
22.36004
22.360039
22.360039
22.360039
22.360038
22.360038
22.360038
22.360037
22.360037
22.360037
22.360036
22.360036
22.360036
22.360035
22.360035
22.360035
22.360034
22.360034
22.360034
22.360033
22.360033
22.360033
22.360032
22.360032
22.360032
22.360031
22.360031
22.360031
22.36003
22.36003
22.36003
22.360029
22.360029
22.360029
22.360029
22.360028
22.360028
22.360028
22.360027
22.360027
22.360027
22.360026
22.360026
22.360026
22.360026
22.360025
22.360025
22.360025
22.360024
22.360024
22.360024
22.360024
22.360023
22.360023
22.360023
22.360022
22.360022
22.360022
22.360021
22.360021
22.360021
22.360021
22.36002
22.36002
22.36002
22.360019
22.360019
22.360019
22.360018
22.360018
22.360018
22.360018
22.360017
22.360017
22.360017
22.360016
22.360016
22.360016
22.360015
22.360015
22.360015
22.360014
22.360014
22.360014
22.360013
22.360013
22.360013
22.360012
22.360012
22.360012
22.360011
22.360011
22.360011
22.360011
22.36001
22.36001
22.360009
22.360009
22.360009
22.360009
22.360008
22.360008
22.360008
22.360007
22.360007
22.360007
22.360006
22.360006
22.360006
22.360005
22.360005
22.360004
22.360004
22.360003
22.360003
22.360003
22.360002
22.360002
22.360002
22.360002
22.360001
22.360001
22.360001
22.360001
22.360001
22.36
22.359999
22.359998
22.359997
22.359996
22.359995
22.359994
22.359994
22.359994
22.359996
22.359998
22.36
22.360003
22.360007
22.360009
22.36001
22.360009
22.360005
22.359998
22.35999
22.359985
22.359996
22.360046
22.360209
22.36067
22.361657
22.361198
22.359798
22.359787
22.359938
22.359927
22.359909
22.359916
22.359928
22.359937
22.359947
22.359958
22.359969
22.359978
22.359986
22.359992
22.359997
22.360001
22.360004
22.360005
22.360007
22.360008
22.360008
22.360009
22.360009
22.360009
22.360009
22.360009
22.360009
22.360008
22.360008
22.360008
22.360008
22.360007
22.360007
22.360007
22.360006
22.360006
22.360006
22.360005
22.360002
22.359999
22.360001
22.360005
22.360005
22.360004
22.360004
22.360004
22.360004
22.360003
22.360003
22.360003
22.360003
22.360002
22.360002
22.360002
22.360002
22.360001
22.360001
22.360001
22.36
22.36
22.36
22.359999
22.359999
22.359999
22.359998
22.359998
22.359998
22.359998
22.359997
22.359997
22.359997
22.359996
22.359996
22.359996
22.359996
22.359995
22.359995
22.359995
22.359995
22.359994
22.359994
22.359994
22.359993
22.359993
22.359993
22.359993
22.359992
22.359992
22.359992
22.359992
22.359991
22.359991
22.359991
22.35999
22.35999
22.35999
22.359989
22.359989
22.359989
22.359989
22.359988
22.359988
22.359988
22.359988
22.359988
22.359987
22.359987
22.359987
22.359987
22.359986
22.359986
22.359986
22.359986
22.359985
22.359985
22.359985
22.359985
22.359985
22.359984
22.359984
22.359984
22.359984
22.359983
22.359983
22.359983
22.359983
22.359983
22.359982
22.359982
22.359982
22.359982
22.359981
22.359981
22.359981
22.359981
22.359981
22.35998
22.35998
22.35998
22.35998
22.35998
22.35998
22.359979
22.359979
22.359979
22.359979
22.359978
22.359978
22.359978
22.359978
22.359978
22.359978
22.359978
22.359978
22.359978
22.359978
22.359978
22.359978
22.359977
22.359977
22.359977
22.359978
22.359978
22.359978
22.359978
22.359978
22.359978
22.359978
22.359978
22.359978
22.359978
22.359978
22.359978
22.359978
22.359977
22.359977
22.359977
22.359977
22.359977
22.359977
22.359977
22.359976
22.359976
22.359976
22.359976
22.359976
22.359975
22.359975
22.359975
22.359975
22.359975
22.359974
22.359974
22.359974
22.359974
22.359974
22.359973
22.359973
22.359973
22.359973
22.359973
22.359973
22.359972
22.359972
22.359972
22.359972
22.359972
22.359971
22.359971
22.359971
22.359971
22.359971
22.35997
22.35997
22.35997
22.35997
22.35997
22.359969
22.359969
22.359969
22.359969
22.359969
22.359968
22.359968
22.359968
22.359968
22.359967
22.359967
22.359967
22.359967
22.359966
22.359966
22.359966
22.359966
22.359965
22.359965
22.359965
22.359965
22.359964
22.359964
22.359964
22.359963
22.359963
22.359963
22.359963
22.359962
22.359962
22.359962
22.359961
22.359961
22.359961
22.35996
22.35996
22.35996
22.359959
22.359959
22.359959
22.359958
22.359958
22.359958
22.359957
22.359957
22.359957
22.359956
22.359956
22.359956
22.359955
22.359955
22.359954