/*--------------------------------*- C++ -*----------------------------------*\
  =========                 |
  \\      /  F ield         | OpenFOAM: The Open Source CFD Toolbox
   \\    /   O peration     | Website:  https://openfoam.org
    \\  /    A nd           | Version:  7
     \\/     M anipulation  |
\*---------------------------------------------------------------------------*/
FoamFile
{
    version     2.0;
    format      ascii;
    class       volVectorField;
    location    "0.00182";
    object      U;
}
// * * * * * * * * * * * * * * * * * * * * * * * * * * * * * * * * * * * * * //

dimensions      [0 1 -1 0 0 0 0];

internalField   nonuniform List<vector> 
5000
(
(23.10018 -4.8341339e-20 0)
(23.100199 -6.5205391e-20 0)
(23.100222 0 0)
(23.100246 0 0)
(23.100258 2.6298664e-20 0)
(23.100257 -2.8405674e-35 2.4985895e-20)
(23.100256 -2.7780592e-20 5.9217894e-35)
(23.100255 0 -7.9415347e-20)
(23.100258 0 -2.6559151e-20)
(23.100267 2.9083289e-20 5.8166578e-20)
(23.100281 6.0971708e-20 6.0971708e-20)
(23.100297 -3.0594497e-20 -3.0594497e-20)
(23.100316 -2.9259756e-20 2.4948369e-34)
(23.100319 2.5886643e-20 2.2808022e-34)
(23.100319 0 -5.1088828e-20)
(23.100318 2.5961677e-20 5.1923353e-20)
(23.100323 -8.2272624e-49 -4.1136312e-49)
(23.100331 -2.8280965e-20 2.4917595e-34)
(23.100342 0 2.9144801e-20)
(23.100355 -2.9031665e-20 -5.8063331e-20)
(23.100371 2.8535137e-20 -2.8535137e-20)
(23.100376 2.7578783e-20 0)
(23.100376 -4.9851566e-20 0)
(23.100379 2.467526e-20 2.467526e-20)
(23.100386 2.6849114e-20 -2.2892931e-34)
(23.100393 2.2907167e-34 2.2907167e-34)
(23.100401 -2.7810799e-20 2.7810799e-20)
(23.10041 -2.7567759e-20 -2.7567759e-20)
(23.100417 5.3979345e-20 -2.6989673e-20)
(23.100418 -4.5688963e-34 2.6353073e-20)
(23.10042 4.5243183e-34 -4.5243183e-34)
(23.100421 -2.5984341e-20 2.2155581e-34)
(23.100423 -5.2170937e-20 2.6085468e-20)
(23.100425 5.1897168e-20 -2.5948584e-20)
(23.100428 -4.5095596e-34 -2.6010823e-20)
(23.100429 2.2541581e-33 0)
(23.100432 8.9409495e-34 0)
(23.100435 -5.1476414e-20 2.5738207e-20)
(23.100438 5.0782369e-20 2.5391184e-20)
(23.100441 4.9958249e-20 -2.4979124e-20)
(23.100444 -4.9761172e-20 4.1721778e-34)
(23.100447 1.7033318e-33 2.4764736e-20)
(23.10045 4.8749428e-20 -2.4374714e-20)
(23.100453 -2.4027206e-20 4.0632208e-34)
(23.100457 -7.1940153e-20 2.3980051e-20)
(23.100461 2.3861835e-20 -2.3861835e-20)
(23.100464 2.3381896e-20 8.0410969e-34)
(23.100467 1.5908488e-33 -7.9542439e-34)
(23.100471 4.7385489e-20 8.1479984e-34)
(23.100476 0 -4.1005125e-34)
(23.100481 -2.3561869e-20 -2.3561869e-20)
(23.100484 -3.244041e-36 0)
(23.100489 2.2872686e-20 0)
(23.100495 -4.7011747e-20 0)
(23.100502 8.427966e-34 0)
(23.100509 4.8285487e-20 0)
(23.100517 -2.395562e-20 0)
(23.100526 8.2990575e-34 0)
(23.100536 2.4380339e-20 0)
(23.100548 0 0)
(23.100562 -2.4913415e-20 0)
(23.100577 -8.5243129e-34 0)
(23.100594 -7.1184574e-36 0)
(23.100613 -2.4751398e-20 2.4751398e-20)
(23.100633 2.3590672e-20 2.3590672e-20)
(23.100644 -6.8816647e-34 -1.9685126e-20)
(23.100643 -1.6982229e-20 2.9201171e-34)
(23.100644 1.7259945e-20 -3.3123411e-50)
(23.100646 1.8486116e-20 -1.8486116e-20)
(23.10065 -1.9618507e-20 0)
(23.100655 -1.9666675e-20 0)
(23.10066 1.9383115e-20 1.9383115e-20)
(23.100664 1.889461e-20 1.889461e-20)
(23.100666 -3.6633577e-20 0)
(23.100668 -1.7837238e-20 -1.7837238e-20)
(23.100671 1.7695871e-20 -6.1108048e-34)
(23.100674 0 1.7753209e-20)
(23.100677 -1.7669493e-20 1.7669493e-20)
(23.100681 2.5030848e-36 -1.7613893e-20)
(23.100685 1.761656e-20 -3.523312e-20)
(23.10069 -1.7604874e-20 3.5209748e-20)
(23.100694 4.9979717e-36 -9.9959434e-36)
(23.100699 -5.000034e-36 -5.2776917e-20)
(23.100704 -1.7584426e-20 3.5168853e-20)
(23.100709 -1.7553912e-20 1.8260186e-33)
(23.100714 -6.1208199e-34 -3.516036e-20)
(23.100719 1.7541703e-20 5.2625109e-20)
(23.100725 0 -1.7418571e-20)
(23.100729 1.7262783e-20 -1.7262783e-20)
(23.100733 1.7704149e-33 1.706601e-20)
(23.100737 5.9282108e-34 -1.6957754e-20)
(23.100742 -1.690469e-20 -1.690469e-20)
(23.100746 -1.6798392e-20 -5.8486281e-34)
(23.100751 3.3207295e-20 3.3207295e-20)
(23.100756 1.1319953e-33 1.1319953e-33)
(23.100761 -1.6157952e-20 1.6157952e-20)
(23.100767 0 1.5909441e-20)
(23.100773 0 5.4400229e-34)
(23.100777 1.4835293e-20 -1.0330288e-33)
(23.100779 9.8000602e-34 -2.826303e-20)
(23.10078 -2.7262727e-20 -1.3631364e-20)
(23.100782 1.3478001e-20 1.3478001e-20)
(23.100784 2.6867944e-20 -1.9090823e-36)
(23.100787 0 -1.3235204e-20)
(23.100791 -1.3082173e-20 0)
(23.100795 -1.2939703e-20 1.2939703e-20)
(23.1008 1.2761602e-20 4.4431551e-34)
(23.100807 1.2539575e-20 -1.2539575e-20)
(23.100813 0 1.2222338e-20)
(23.10082 0 1.1710669e-20)
(23.100823 -1.1199496e-20 -2.2398991e-20)
(23.100827 -1.0933936e-20 -1.0933936e-20)
(23.100832 0 3.2688494e-20)
(23.100837 1.0801356e-20 1.0801356e-20)
(23.100843 -3.6885904e-34 -3.1653838e-20)
(23.100847 -1.0272088e-20 1.0272088e-20)
(23.10085 1.0010533e-20 1.0010533e-20)
(23.100854 -2.8418365e-36 5.6836729e-36)
(23.100859 3.5374495e-34 1.0118938e-20)
(23.100864 2.0541713e-50 -2.9840788e-20)
(23.100866 -1.9358583e-20 6.7675093e-34)
(23.100867 4.0690252e-36 1.9088813e-20)
(23.10087 9.7199247e-21 -1.9439849e-20)
(23.100874 0 -1.0126969e-20)
(23.10088 1.0268854e-20 1.0268854e-20)
(23.100887 -1.0125381e-20 -1.0125381e-20)
(23.100888 -9.2443037e-21 9.2443037e-21)
(23.100887 1.8022928e-20 1.8022928e-20)
(23.100885 9.8260816e-21 -9.8260816e-21)
(23.100886 -2.1299713e-20 -3.6776486e-34)
(23.100891 -1.1121819e-20 -1.1121819e-20)
(23.100899 1.1196433e-20 -2.2392866e-20)
(23.100905 9.9742104e-21 9.9742104e-21)
(23.100903 8.9028664e-21 8.9028664e-21)
(23.100899 0 9.0381869e-21)
(23.100888 -1.0071394e-20 3.5065163e-34)
(23.100886 -1.1296315e-20 3.916939e-34)
(23.100888 1.2148768e-20 -4.2297873e-34)
(23.100889 4.3111212e-34 -2.4866245e-20)
(23.100892 -1.2361248e-20 -1.2361248e-20)
(23.100897 1.2884341e-20 1.2884341e-20)
(23.100903 1.2988604e-20 2.5977208e-20)
(23.100913 0 1.1842951e-20)
(23.100913 -1.0529597e-20 1.0529597e-20)
(23.100908 -1.0731611e-20 -7.4422621e-34)
(23.100898 1.1882991e-20 -2.3765981e-20)
(23.100899 -1.2945929e-20 3.6794544e-36)
(23.100904 7.7052337e-36 -3.8526169e-36)
(23.100913 1.2509132e-20 -5.9797658e-49)
(23.100912 -1.0908421e-20 -1.0908421e-20)
(23.100906 1.0424029e-20 7.2289569e-34)
(23.100892 -7.9575587e-34 -1.5915117e-33)
(23.100876 -1.4023956e-20 -1.4023956e-20)
(23.100881 1.6267262e-20 1.6267262e-20)
(23.100894 -1.7116245e-20 -1.7116245e-20)
(23.100906 -1.4683868e-20 -5.0915558e-34)
(23.100903 1.2303753e-20 1.2303753e-20)
(23.100892 0 -1.1709914e-20)
(23.10087 0 1.8424703e-36)
(23.10085 1.7119831e-20 1.7119831e-20)
(23.10086 2.0309639e-20 0)
(23.100879 -2.0955861e-20 -2.0955861e-20)
(23.10089 -1.7758511e-20 -1.2290108e-33)
(23.100885 1.5420631e-20 3.0841262e-20)
(23.100874 1.1327077e-33 -1.6333446e-20)
(23.100855 -1.8787777e-20 5.3398074e-36)
(23.100859 2.0826286e-20 2.0826286e-20)
(23.100875 2.1969214e-20 -2.1969214e-20)
(23.100875 0 1.9537842e-20)
(23.100862 -1.6944573e-20 -1.6944573e-20)
(23.100833 -1.8696111e-20 7.789964e-33)
(23.100797 0 6.7490624e-33)
(23.100806 2.8760019e-20 -2.8760019e-20)
(23.100832 2.9678263e-20 5.9356525e-20)
(23.100838 0 0)
(23.100828 -2.251898e-20 1.5616681e-33)
(23.100804 -5.0018456e-33 5.0018456e-33)
(23.100769 2.83521e-20 -2.83521e-20)
(23.100774 -3.2750065e-20 -3.2750065e-20)
(23.10079 -3.2778317e-20 -2.2591683e-33)
(23.100787 2.9474221e-20 2.9474221e-20)
(23.100771 1.9483936e-33 -2.8211113e-20)
(23.10073 -2.1754337e-33 -2.1754337e-33)
(23.100726 -1.5583734e-35 -1.5583734e-35)
(23.100738 -3.7942096e-20 -5.2570988e-33)
(23.100732 3.6764492e-20 7.3528983e-20)
(23.100703 4.9697761e-33 -3.583165e-20)
(23.100654 -2.8009394e-33 -4.0722849e-20)
(23.100599 3.4809224e-33 3.4809224e-33)
(23.100612 -5.9730602e-20 -4.1167911e-33)
(23.100639 0 1.2639957e-32)
(23.100634 0 -3.8582254e-33)
(23.100607 5.439905e-20 5.439905e-20)
(23.100541 5.4053848e-20 0)
(23.100446 0 0)
(23.100374 0 0)
(23.100382 -8.5282187e-20 0)
(23.100387 -1.3634169e-49 8.8098266e-20)
(23.100393 8.7570226e-20 -1.8256049e-32)
(23.100405 0 -9.1089111e-20)
(23.100419 -8.849428e-20 -8.849428e-20)
(23.10041 8.1171351e-20 8.1171351e-20)
(23.100374 2.1557036e-32 7.7791874e-20)
(23.100295 -1.5458455e-19 -1.5458455e-19)
(23.100181 8.735033e-20 -6.0452423e-33)
(23.100152 2.064466e-32 2.064466e-32)
(23.100171 1.5448104e-35 1.0870637e-19)
(23.100189 1.0753355e-19 1.0753355e-19)
(23.100177 -9.7986067e-20 -9.7986067e-20)
(23.100134 1.3772434e-35 0)
(23.100041 1.3602669e-32 -9.8275434e-20)
(23.099917 -7.7622643e-33 -7.7622643e-33)
(23.09984 1.3093101e-19 1.3093101e-19)
(23.099854 0 1.4574058e-19)
(23.099873 -1.4635603e-19 -2.0382473e-32)
(23.099857 -9.3674449e-33 -1.3535428e-19)
(23.099803 -3.6753602e-32 2.6485456e-19)
(23.099707 -1.4074666e-19 -1.4074666e-19)
(23.099645 0 -1.5275718e-19)
(23.099663 1.55891e-19 1.55891e-19)
(23.099656 1.5081557e-19 -1.5081557e-19)
(23.099603 0 0)
(23.099495 0 0)
(23.099353 0 0)
(23.099261 -1.7368086e-19 -1.7368086e-19)
(23.09927 -1.3208141e-32 1.9085017e-19)
(23.099282 1.9519658e-19 3.9039316e-19)
(23.099258 0 -1.8550202e-19)
(23.099182 0 1.2823371e-32)
(23.09906 -1.8962029e-19 -1.8962029e-19)
(23.098917 -2.0165865e-19 -2.0165865e-19)
(23.098832 2.1932043e-19 4.3864086e-19)
(23.098802 2.3777937e-19 -6.7580962e-35)
(23.098776 0 6.9839298e-35)
(23.098729 -2.4539459e-19 -2.4539459e-19)
(23.098636 -2.483651e-19 -2.483651e-19)
(23.098508 2.5767701e-19 5.1535402e-19)
(23.098379 2.7342099e-19 -3.885546e-35)
(23.098302 0 6.0506099e-32)
(23.09824 -3.0431832e-19 -3.0431832e-19)
(23.09817 8.6349704e-32 1.7269941e-31)
(23.098075 2.1920214e-32 4.3840429e-32)
(23.097952 -3.2579042e-19 -3.2579042e-19)
(23.097818 3.4062278e-19 3.4062278e-19)
(23.097708 3.5706721e-19 0)
(23.097611 0 3.717152e-19)
(23.09751 -3.8253419e-19 -3.8253419e-19)
(23.097395 5.4410092e-32 -3.9148976e-19)
(23.097263 -4.0335627e-19 4.0335627e-19)
(23.097123 -5.8082548e-32 0)
(23.096989 8.700907e-19 4.3504535e-19)
(23.09686 -4.4999306e-19 -4.4999306e-19)
(23.096727 6.4203962e-32 -4.6290493e-19)
(23.096583 1.6498274e-31 1.6498274e-31)
(23.096429 3.3857004e-32 9.7842909e-19)
(23.096266 5.0473433e-19 1.0094687e-18)
(23.096099 -5.2057584e-19 -1.5617275e-18)
(23.095929 -5.3674665e-19 -1.0734933e-18)
(23.095756 0 0)
(23.095584 5.7271577e-19 1.1454315e-18)
(23.09542 5.9155212e-19 5.9155212e-19)
(23.095259 0 -6.0957076e-19)
(23.095094 -6.2404986e-19 -6.2404986e-19)
(23.094915 -6.3552639e-19 -6.3552639e-19)
(23.094712 1.297468e-18 1.297468e-18)
(23.094488 6.6682515e-19 1.3336503e-18)
(23.094255 -6.8972677e-19 -6.8972677e-19)
(23.094035 -7.1383711e-19 -1.4276742e-18)
(23.093835 -2.0432722e-31 -2.0432722e-31)
(23.093636 7.5479087e-19 1.5095817e-18)
(23.093423 -7.6706666e-19 -7.6706666e-19)
(23.093185 5.4104086e-32 1.0820817e-31)
(23.092919 7.9928896e-19 7.9928896e-19)
(23.092639 -8.2548476e-19 -1.6509695e-18)
(23.092374 5.9305434e-32 8.5342514e-19)
(23.092132 -6.1192818e-32 -1.2238564e-31)
(23.091891 2.5574251e-34 -8.9981395e-19)
(23.091638 6.3268083e-32 9.1606905e-19)
(23.091366 -9.3270394e-19 -9.3270394e-19)
(23.091071 0 1.9057014e-18)
(23.090759 0 -4.0738648e-31)
(23.090437 1.0023354e-18 -2.0046708e-18)
(23.090112 1.0294613e-18 2.0589227e-18)
(23.089787 0 7.3166232e-32)
(23.08948 0 -1.0854202e-18)
(23.089179 0 0)
(23.088871 0 0)
(23.088544 -1.1486112e-18 -1.1486112e-18)
(23.088189 -8.061996e-32 1.1697166e-18)
(23.087813 2.3958149e-18 2.3958149e-18)
(23.087428 -5.2447236e-34 -1.2302154e-18)
(23.087052 -1.2616251e-18 3.5857542e-34)
(23.086679 -1.2884753e-18 -1.2884753e-18)
(23.086296 1.8204734e-31 -1.3112019e-18)
(23.085895 1.850333e-31 1.3354421e-18)
(23.08548 1.9402824e-34 0)
(23.085058 1.3985446e-18 1.3985446e-18)
(23.08464 1.4299416e-18 1.4299416e-18)
(23.084218 1.4571718e-18 0)
(23.083784 -2.9658064e-18 -2.9658064e-18)
(23.083336 -4.5357555e-18 -1.5119185e-18)
(23.082877 1.5444423e-18 3.0888846e-18)
(23.082413 3.1527196e-18 -1.0909492e-31)
(23.081942 0 4.5616853e-34)
(23.081456 -1.6330514e-18 -1.6330514e-18)
(23.080956 -1.6651136e-18 -1.6651136e-18)
(23.080447 1.7015244e-18 1.7015244e-18)
(23.079938 -4.9365293e-34 -1.7368868e-18)
(23.079426 7.5294663e-34 1.7661303e-18)
(23.078898 -5.092789e-34 -1.0185578e-33)
(23.078346 -1.8217369e-18 -3.6434738e-18)
(23.077776 -1.860924e-18 1.860924e-18)
(23.077207 1.9026523e-18 1.9026523e-18)
(23.076654 3.8777008e-18 1.9388504e-18)
(23.076095 -1.9682047e-18 2.7298594e-31)
(23.075515 1.4619441e-48 -1.9939809e-18)
(23.074905 -2.02484e-18 0)
(23.074274 -5.7190293e-31 0)
(23.073633 4.2137739e-18 2.1068869e-18)
(23.073003 0 -2.9829678e-31)
(23.072373 0 6.0621786e-31)
(23.071733 -4.4294016e-18 3.078039e-31)
(23.071072 1.2473651e-30 -2.246047e-18)
(23.070389 4.5670924e-18 2.2835462e-18)
(23.069694 0 -3.3061695e-34)
(23.068998 -2.3689171e-18 -2.3689171e-18)
(23.0683 -2.4055363e-18 0)
(23.067589 2.4380531e-18 0)
(23.066858 -3.5143689e-34 0)
(23.066109 3.4900212e-31 0)
(23.065351 -3.6328244e-34 0)
(23.064587 -2.5952139e-18 0)
(23.06381 2.6300386e-18 0)
(23.063012 2.6667509e-18 2.6667509e-18)
(23.062196 0 0)
(23.061374 -2.7562204e-18 -2.7562204e-18)
(23.060554 3.8880626e-31 0)
(23.059731 2.8399944e-18 2.8399944e-18)
(23.058898 -5.7569231e-18 7.9847338e-31)
(23.058054 8.0982375e-31 -2.9193791e-18)
(23.057199 2.960408e-18 0)
(23.056332 8.3228737e-31 0)
(23.055441 6.0628952e-18 3.0314476e-18)
(23.054522 -6.1381506e-18 4.2611057e-31)
(23.053577 -3.1135338e-18 -3.1135338e-18)
(23.05262 3.162197e-18 0)
(23.05166 4.562204e-34 0)
(23.0507 3.2560676e-18 3.2560676e-18)
(23.049738 0 3.2993614e-18)
(23.048771 0 -3.3388081e-18)
(23.047787 -3.3734902e-18 -3.3734902e-18)
(23.046775 4.7264702e-31 0)
(23.045731 6.8969213e-18 3.4484607e-18)
(23.044663 -4.974845e-34 -4.974845e-34)
(23.043596 -1.0666963e-17 -3.5556544e-18)
(23.042556 3.6013826e-18 3.6013826e-18)
(23.041506 3.636742e-18 3.636742e-18)
(23.040427 -7.3380535e-18 -3.6690267e-18)
(23.039313 3.7098293e-18 -3.7098293e-18)
(23.038175 -3.7606902e-18 0)
(23.037032 -7.6269968e-18 3.8134984e-18)
(23.035893 3.8598271e-18 3.8598271e-18)
(23.034746 3.8990507e-18 -3.8990507e-18)
(23.033579 3.9376356e-18 -3.9376356e-18)
(23.032392 -3.9812495e-18 0)
(23.03119 4.2995829e-48 4.0281665e-18)
(23.029977 4.0732846e-18 4.0732846e-18)
(23.028752 -4.115658e-18 -4.115658e-18)
(23.027511 4.1595705e-18 -4.1595705e-18)
(23.026258 -4.2079615e-18 0)
(23.025002 -1.1794645e-30 0)
(23.023741 -1.2214761e-33 0)
(23.022464 -4.3340295e-18 0)
(23.02116 8.7482894e-18 0)
(23.019836 -4.4227267e-18 0)
(23.018505 -1.2425109e-30 0)
(23.017179 1.2541631e-30 0)
(23.015846 4.5605165e-18 4.5605165e-18)
(23.014494 9.1969408e-18 -3.1597166e-47)
(23.013121 -1.3921866e-17 -4.6406219e-18)
(23.011732 -1.2997859e-30 0)
(23.010329 2.6235659e-30 0)
(23.008911 -1.3215229e-30 0)
(23.007472 9.618366e-18 4.809183e-18)
(23.006014 -9.706485e-18 6.7313474e-31)
(23.004543 1.3599862e-30 -4.9026907e-18)
(23.003076 9.9043586e-18 4.9521793e-18)
(23.00161 0 -6.9328703e-31)
(23.000132 0 7.1440399e-34)
(22.998627 -5.0610603e-18 7.0267787e-31)
(22.997093 7.0762443e-31 -5.1019101e-18)
(22.995541 5.1510766e-18 5.1510766e-18)
(22.993986 5.2016652e-18 -5.2016652e-18)
(22.992449 -5.245724e-18 2.9147573e-30)
(22.990905 -1.584457e-17 5.2815235e-18)
(22.98934 5.3143931e-18 -5.3143931e-18)
(22.987749 5.3520579e-18 0)
(22.986138 1.5334681e-33 0)
(22.984516 5.4398821e-18 5.4398821e-18)
(22.982888 0 7.609677e-31)
(22.98125 -1.1037095e-17 -5.5185477e-18)
(22.979598 -1.1113428e-17 5.5567138e-18)
(22.977934 5.5976018e-18 5.5976018e-18)
(22.976262 1.1277069e-17 0)
(22.974584 5.6755189e-18 -5.6755189e-18)
(22.972891 -1.141831e-17 -5.7091552e-18)
(22.971179 -1.1489048e-17 5.7445238e-18)
(22.96945 1.1569743e-17 1.6055217e-30)
(22.967714 1.1656673e-17 7.6965634e-48)
(22.965983 0 8.1477307e-31)
(22.964246 -1.180173e-17 -5.9008649e-18)
(22.962493 5.9298191e-18 5.9298191e-18)
(22.960715 1.1923938e-17 -2.5335608e-47)
(22.958919 -5.9994353e-18 8.3296191e-31)
(22.95711 -6.0411492e-18 6.0411492e-18)
(22.955305 8.6424567e-34 0)
(22.9535 -8.4894465e-31 0)
(22.951683 -6.1423e-18 -6.1423e-18)
(22.949845 6.1717609e-18 -8.7705997e-34)
(22.94799 6.2067369e-18 2.5825849e-30)
(22.946124 -6.2458666e-18 -6.2458666e-18)
(22.944261 8.7138674e-31 0)
(22.942394 8.9704046e-34 0)
(22.940515 8.7923333e-31 6.3391952e-18)
(22.938618 6.3692967e-18 -1.7659116e-30)
(22.936709 -6.4048381e-18 -6.4048381e-18)
(22.934798 2.6826336e-30 0)
(22.932886 8.9826822e-31 0)
(22.930963 1.8023278e-30 0)
(22.929021 6.5195987e-18 6.5195987e-18)
(22.927062 -6.5502204e-18 -9.3084231e-34)
(22.925094 9.1413862e-31 -6.5841133e-18)
(22.923126 1.8344895e-30 6.6166438e-18)
(22.921156 9.4433235e-34 -6.6451481e-18)
(22.91918 1.3342951e-17 1.8544321e-30)
(22.917197 6.6978103e-18 1.3395621e-17)
(22.915205 -6.7235499e-18 -6.7235499e-18)
(22.913202 -1.3495647e-17 -2.8106045e-30)
(22.911186 9.4026931e-31 -9.4026931e-31)
(22.909157 1.3598853e-17 9.4403271e-31)
(22.907122 6.8289362e-18 6.8289362e-18)
(22.905087 -1.3712575e-17 0)
(22.903048 -6.8786313e-18 0)
(22.901 6.8993775e-18 -6.8993775e-18)
(22.898939 6.9224177e-18 -9.6110882e-31)
(22.896869 1.9284108e-30 1.9284108e-30)
(22.894797 -6.9741503e-18 1.1568927e-48)
(22.892722 0 6.9966449e-18)
(22.890642 0 -7.015648e-18)
(22.88855 -7.0342117e-18 -7.0342117e-18)
(22.886445 0 0)
(22.884331 7.0791112e-18 7.0791112e-18)
(22.882216 -7.1038716e-18 9.8630189e-31)
(22.880109 -1.0124649e-33 -7.1245883e-18)
(22.877997 1.9816829e-30 0)
(22.875872 0 0)
(22.873731 7.1718388e-18 7.1718388e-18)
(22.87158 -7.1940985e-18 -2.0446858e-33)
(22.869428 -7.21684e-18 9.7421543e-49)
(22.867284 1.4469131e-17 7.2345657e-18)
(22.865135 7.2480754e-18 -7.2480754e-18)
(22.862975 -7.2613406e-18 1.0061011e-30)
(22.860804 0 -1.0104832e-30)
(22.858627 0 2.0252845e-30)
(22.856454 7.3144675e-18 7.3144675e-18)
(22.854278 -2.0356634e-30 -7.3272162e-18)
(22.852094 -7.3389974e-18 2.0378935e-30)
(22.849902 0 -2.04333e-30)
(22.84771 0 2.0481103e-30)
(22.845525 7.3848047e-18 7.3848047e-18)
(22.843334 -3.0805846e-30 -7.3934811e-18)
(22.841132 -7.4018988e-18 2.05536e-30)
(22.838919 0 -1.0313653e-30)
(22.836699 0 0)
(22.834483 0 7.4422234e-18)
(22.832274 0 -7.4527538e-18)
(22.830061 0 1.0357792e-30)
(22.827841 0 -1.0611566e-33)
(22.825613 0 1.0379233e-30)
(22.82338 0 -1.0403468e-30)
(22.821145 -1.4991316e-17 -7.4956578e-18)
(22.818917 -4.1653503e-30 7.5041083e-18)
(22.816687 7.5092671e-18 7.5092671e-18)
(22.814451 -7.5135056e-18 -7.5135056e-18)
(22.812208 7.5189746e-18 -7.5189746e-18)
(22.809959 -7.5269198e-18 0)
(22.807722 2.0944765e-30 7.5350554e-18)
(22.805487 7.538957e-18 7.538957e-18)
(22.803246 2.0937897e-30 0)
(22.800999 7.5422929e-18 -7.5422929e-18)
(22.798745 0 1.0478781e-30)
(22.796497 0 -1.0733611e-33)
(22.794255 -7.5552317e-18 -1.0478951e-30)
(22.792009 -2.0979252e-30 7.5551873e-18)
(22.789758 7.555659e-18 -7.555659e-18)
(22.787504 0 -1.0482372e-30)
(22.785252 0 2.0991236e-30)
(22.783002 0 7.5591497e-18)
(22.780749 0 7.5589939e-18)
(22.778504 0 -1.5118621e-17)
(22.77626 0 1.0739063e-33)
(22.774012 0 -1.0475488e-30)
(22.771759 -1.5098633e-17 -7.5493163e-18)
(22.769503 6.2835482e-30 7.5480607e-18)
(22.767252 1.5094713e-17 -1.0478753e-30)
(22.765015 -7.5445729e-18 -7.5445729e-18)
(22.762778 -1.0713216e-33 0)
(22.760536 -7.5318087e-18 0)
(22.758289 4.1735457e-30 0)
(22.75604 1.5045848e-17 7.5229239e-18)
(22.753803 7.5188037e-18 7.5188037e-18)
(22.751573 3.3548121e-49 -7.5124205e-18)
(22.74934 -2.2513181e-17 -7.5043936e-18)
(22.747106 0 0)
(22.744875 1.4980782e-17 7.490391e-18)
(22.74265 0 7.4824005e-18)
(22.740425 0 -7.4731518e-18)
(22.738199 -1.4928002e-17 -7.4640011e-18)
(22.735977 2.0680719e-30 0)
(22.733762 2.233647e-17 7.4454899e-18)
(22.731548 -7.4348354e-18 7.4348354e-18)
(22.729334 -7.4240358e-18 -7.4240358e-18)
(22.727121 7.4133155e-18 -2.0585302e-30)
(22.724917 -7.4024709e-18 7.4024709e-18)
(22.722721 7.390473e-18 0)
(22.720524 2.046539e-30 0)
(22.718327 -7.3649698e-18 0)
(22.716137 7.3520912e-18 0)
(22.713951 0 -7.3386782e-18)
(22.711769 7.3246167e-18 2.0318185e-30)
(22.709589 -7.3104369e-18 7.3104369e-18)
(22.707414 -1.4592825e-17 -7.2964125e-18)
(22.705252 7.2817658e-18 -1.0110007e-30)
(22.703091 7.2653792e-18 1.0097581e-30)
(22.70093 7.2479866e-18 -8.2635244e-49)
(22.698766 7.2317602e-18 -7.2317602e-18)
(22.696609 -1.443309e-17 -7.2165448e-18)
(22.694464 -7.2008891e-18 1.4401778e-17)
(22.692332 7.184008e-18 9.9742803e-31)
(22.6902 0 -9.9383955e-31)
(22.688068 -7.1467873e-18 7.1467873e-18)
(22.685939 7.128819e-18 0)
(22.683818 7.1108319e-18 -7.1108319e-18)
(22.681708 -2.1276311e-17 -7.0921038e-18)
(22.679602 -2.0101191e-33 7.0724777e-18)
(22.677497 1.4105362e-17 1.9563847e-30)
(22.675399 -7.0330475e-18 -7.0330475e-18)
(22.673311 -9.7368404e-31 0)
(22.671228 -6.9921342e-18 0)
(22.669147 1.9812764e-33 6.9709968e-18)
(22.667071 1.390031e-17 -9.6397222e-31)
(22.665006 -6.9293649e-18 -6.9293649e-18)
(22.662952 0 0)
(22.660902 1.9118969e-30 6.8852499e-18)
(22.658854 9.7519358e-34 -9.7519358e-34)
(22.65681 6.8397236e-18 1.8992552e-30)
(22.654775 -6.8174063e-18 9.4556022e-31)
(22.652752 1.8867307e-30 -6.7946198e-18)
(22.650734 9.3912613e-31 6.771017e-18)
(22.648721 9.5881622e-34 -9.5881622e-34)
(22.646713 6.7232633e-18 1.8669164e-30)
(22.644716 -6.6994393e-18 6.6994393e-18)
(22.642727 -1.1930256e-48 -6.6750855e-18)
(22.640744 1.8466235e-30 -1.8466235e-30)
(22.638765 9.4150596e-34 -9.4150596e-34)
(22.636796 1.3200989e-17 9.1641297e-31)
(22.634836 9.1200203e-31 6.5754547e-18)
(22.632885 -6.5498096e-18 -6.5498096e-18)
(22.630939 0 0)
(22.628998 0 3.6077967e-30)
(22.627068 6.4722043e-18 8.9768142e-31)
(22.625149 2.6821058e-30 2.6821058e-30)
(22.623235 -6.4189333e-18 9.1218528e-34)
(22.621325 6.3918702e-18 6.3918702e-18)
(22.619422 -8.8375481e-31 -6.3652729e-18)
(22.617531 -5.1171966e-48 -5.1171966e-48)
(22.615652 8.763421e-31 8.763421e-31)
(22.61378 -6.2841611e-18 -1.7449865e-30)
(22.611913 -6.2561499e-18 8.6860417e-31)
(22.610051 -8.6386713e-31 -1.2456813e-17)
(22.608199 6.2009189e-18 6.2009189e-18)
(22.606359 0 6.1732916e-18)
(22.604527 0 8.5321085e-31)
(22.602703 -6.1168747e-18 -8.492672e-31)
(22.600886 6.0882319e-18 -1.2176464e-17)
(22.599076 -5.044458e-30 6.0596138e-18)
(22.597274 -6.0311612e-18 6.0311612e-18)
(22.595482 6.0027207e-18 -1.3741895e-48)
(22.5937 0 0)
(22.591926 -5.9452031e-18 -1.3946061e-48)
(22.590161 -5.9162599e-18 5.9162599e-18)
(22.588404 5.8872414e-18 -5.8872414e-18)
(22.586657 5.8580277e-18 -1.4142468e-48)
(22.584917 0 8.0841965e-31)
(22.583184 -5.7992881e-18 8.241284e-34)
(22.58146 -5.7701388e-18 5.7701388e-18)
(22.579746 1.148206e-17 -1.148206e-17)
(22.578043 5.7117156e-18 -1.5860298e-30)
(22.576348 -5.682173e-18 5.682173e-18)
(22.574661 -5.6525194e-18 -7.839928e-31)
(22.572982 -7.7987753e-31 7.7987753e-31)
(22.571311 -5.5932321e-18 -5.5932321e-18)
(22.569649 -1.5449294e-30 5.5637024e-18)
(22.567996 1.1068422e-17 5.685806e-48)
(22.566353 0 2.2935795e-30)
(22.564719 0 -1.521069e-30)
(22.563093 0 1.5112653e-30)
(22.561476 -5.4155808e-18 1.503799e-30)
(22.559867 -5.3859976e-18 -1.4229294e-48)
(22.558268 0 0)
(22.556678 5.3268746e-18 -5.3268746e-18)
(22.555096 7.3396144e-31 0)
(22.553523 -5.2676215e-18 0)
(22.551959 0 5.2380953e-18)
(22.550403 0 1.446324e-30)
(22.548856 5.1791095e-18 -5.1791095e-18)
(22.547318 7.1425304e-31 0)
(22.545789 -7.0946235e-31 0)
(22.544269 5.0911252e-18 1.018225e-17)
(22.542758 -5.0617904e-18 4.2137981e-30)
(22.541254 2.0939902e-30 -1.0064991e-17)
(22.539759 5.0033651e-18 5.0033651e-18)
(22.538273 0 -7.0690427e-34)
(22.536797 4.9454518e-18 6.8662678e-31)
(22.535329 6.8259747e-31 4.9164306e-18)
(22.533869 -4.8874194e-18 0)
(22.532417 4.8585983e-18 0)
(22.530973 -4.8300169e-18 0)
(22.52954 -4.8015425e-18 4.8015425e-18)
(22.528115 4.7730371e-18 1.3240209e-30)
(22.526698 0 -4.7445132e-18)
(22.525289 -4.7160998e-18 0)
(22.523887 -4.6878936e-18 0)
(22.522495 4.6598558e-18 4.6598558e-18)
(22.521112 4.6318893e-18 -6.5823105e-34)
(22.519737 0 -4.6039637e-18)
(22.51837 4.5761142e-18 0)
(22.517011 -4.5484011e-18 0)
(22.51566 -4.520844e-18 4.520844e-18)
(22.514318 4.4933951e-18 1.2464493e-30)
(22.512984 8.9320758e-18 1.2407645e-30)
(22.511657 -2.465141e-30 -1.2325705e-30)
(22.510339 -1.3235259e-17 -4.4117531e-18)
(22.509029 -1.2946027e-48 4.3848277e-18)
(22.507727 4.3579819e-18 -1.2095055e-30)
(22.506434 8.662412e-18 1.2020742e-30)
(22.505147 -2.3881306e-30 -1.1940653e-30)
(22.503868 -8.5561744e-18 -4.2780872e-18)
(22.502598 4.2518278e-18 0)
(22.501335 -4.225708e-18 0)
(22.500081 4.1996615e-18 4.1996615e-18)
(22.498834 4.1736963e-18 3.1212475e-47)
(22.497595 -8.2957125e-18 -4.1478562e-18)
(22.496363 0 0)
(22.495139 0 0)
(22.493922 8.1426213e-18 4.0713106e-18)
(22.492713 9.7305709e-48 1.9461142e-47)
(22.491511 -8.0417242e-18 -4.0208621e-18)
(22.490317 0 0)
(22.48913 0 0)
(22.487952 7.8931737e-18 3.9465869e-18)
(22.48678 9.4705504e-48 1.8941101e-47)
(22.485616 -7.794966e-18 -3.897483e-18)
(22.484458 0 0)
(22.483308 0 0)
(22.482164 7.6498983e-18 3.8249492e-18)
(22.481028 3.8011401e-18 -5.401745e-34)
(22.479899 -7.5549954e-18 -3.7774977e-18)
(22.478778 -3.7539547e-18 3.7539547e-18)
(22.477664 0 -1.0364061e-30)
(22.476556 7.4141045e-18 1.0299015e-30)
(22.475456 -2.0458133e-30 -1.0229067e-30)
(22.474361 -7.3212708e-18 -3.6606354e-18)
(22.473273 3.63772e-18 0)
(22.472193 0 0)
(22.471119 -3.5923826e-18 0)
(22.470053 3.5698445e-18 0)
(22.468993 -5.0411148e-34 0)
(22.46794 -3.5249919e-18 3.5249919e-18)
(22.466893 3.5027743e-18 -9.7215296e-31)
(22.465852 -3.4807466e-18 -3.4807466e-18)
(22.464818 -3.45887e-18 0)
(22.463791 3.4370754e-18 0)
(22.462771 3.4153337e-18 0)
(22.461757 -9.423615e-31 0)
(22.460748 -3.3722127e-18 0)
(22.459747 3.3508702e-18 0)
(22.458752 9.2457092e-31 0)
(22.457763 -3.3084711e-18 3.3084711e-18)
(22.45678 3.2874299e-18 -1.8247734e-30)
(22.455804 -3.2665055e-18 -3.2665055e-18)
(22.454834 -3.2456662e-18 0)
(22.453869 3.2249199e-18 0)
(22.452911 3.2042958e-18 0)
(22.45196 -8.8407288e-31 0)
(22.451014 -3.1633544e-18 0)
(22.450075 3.1430149e-18 0)
(22.449141 -4.4377382e-34 0)
(22.448214 -3.1026475e-18 3.1026475e-18)
(22.447293 3.082574e-18 -8.555314e-31)
(22.446378 -3.0625241e-18 -3.0625241e-18)
(22.445468 -3.042535e-18 0)
(22.444563 3.0226965e-18 0)
(22.443665 6.0060658e-18 3.0030329e-18)
(22.442773 -1.6577429e-30 -8.2887147e-31)
(22.441888 -5.927788e-18 -2.963894e-18)
(22.441008 2.9443315e-18 0)
(22.440134 -4.1564111e-34 0)
(22.439265 -5.8107609e-18 0)
(22.438401 -8.2026791e-34 2.8860611e-18)
(22.437544 2.8668657e-18 7.9647895e-31)
(22.436692 0 -2.8477512e-18)
(22.435847 -2.8286655e-18 0)
(22.435007 0 0)
(22.434173 2.7905526e-18 0)
(22.433344 0 0)
(22.43252 0 0)
(22.431702 0 0)
(22.43089 2.7151185e-18 0)
(22.430084 9.0089458e-49 2.6964066e-18)
(22.429283 -2.6777073e-18 -3.8052509e-34)
(22.428488 0 -2.659035e-18)
(22.427698 -2.64042e-18 0)
(22.426914 7.2804227e-31 0)
(22.426135 2.603384e-18 0)
(22.425362 0 0)
(22.424595 0 0)
(22.423832 0 0)
(22.423075 2.5296516e-18 0)
(22.422323 -6.973581e-31 2.5113723e-18)
(22.421578 -2.4931289e-18 3.5429493e-34)
(22.420838 0 -2.4748824e-18)
(22.420103 -2.4566285e-18 0)
(22.419373 -6.7674668e-31 0)
(22.418649 2.4202025e-18 0)
(22.41793 0 2.4020676e-18)
(22.417217 -2.3839686e-18 -1.3236225e-30)
(22.416509 2.3658752e-18 -2.3658752e-18)
(22.415806 -1.3045362e-30 0)
(22.415109 -2.3297377e-18 2.3297377e-18)
(22.414417 2.311733e-18 6.4225078e-31)
(22.41373 0 -2.293764e-18)
(22.413049 2.2757984e-18 0)
(22.412374 6.2695288e-31 0)
(22.411703 -2.2398692e-18 2.2398692e-18)
(22.411038 0 2.2219595e-18)
(22.410378 -2.2040931e-18 -2.2040931e-18)
(22.409723 2.1862449e-18 -2.1862449e-18)
(22.409074 1.204237e-30 0)
(22.40843 -2.1505344e-18 0)
(22.407792 1.1841193e-30 0)
(22.407158 3.0054973e-34 0)
(22.40653 -5.8264471e-31 -2.0971855e-18)
(22.405907 2.9550722e-34 2.9550722e-34)
(22.40529 2.0617061e-18 4.1234122e-18)
(22.404678 0 2.0439772e-18)
(22.404071 -2.0262768e-18 -4.0525536e-18)
(22.403469 5.5746697e-31 -4.01723e-18)
(22.402873 5.5257207e-31 1.9909781e-18)
(22.402282 -8.4943502e-49 1.9733426e-18)
(22.401696 5.4306334e-31 0)
(22.401115 0 0)
(22.400539 3.841161e-18 0)
(22.399969 5.2844298e-31 0)
(22.399404 -1.8855518e-18 1.8855518e-18)
(22.398845 1.8680264e-18 5.1897923e-31)
(22.39829 -5.1358755e-31 -1.8505126e-18)
(22.39774 -1.8330629e-18 0)
(22.397195 -1.8156877e-18 0)
(22.396657 -4.9936566e-31 0)
(22.396123 4.9455155e-31 0)
(22.395595 -1.7636654e-18 0)
(22.395071 1.7463163e-18 0)
(22.394552 1.7289996e-18 0)
(22.394039 0 0)
(22.39353 1.6945865e-18 0)
(22.393027 -4.6579581e-31 0)
(22.39253 -1.6603382e-18 0)
(22.392037 0 0)
(22.391549 0 0)
(22.391066 0 0)
(22.390588 3.1842435e-18 1.5921218e-18)
(22.390116 -1.7496162e-30 -8.748081e-31)
(22.389648 -3.116681e-18 -1.5583405e-18)
(22.389186 0 0)
(22.388728 0 0)
(22.388276 0 -1.5079125e-18)
(22.387828 0 4.1407548e-31)
(22.387385 0 -2.0954618e-34)
(22.386947 0 1.4579635e-18)
(22.386514 0 1.4414285e-18)
(22.386087 2.8498886e-18 7.9115487e-31)
(22.385664 -7.8263371e-31 -3.9131685e-31)
(22.385246 -2.7842917e-18 -1.3921458e-18)
(22.384833 -1.3758281e-18 0)
(22.384424 1.3595511e-18 0)
(22.384021 1.3433256e-18 0)
(22.383622 -3.6872273e-31 0)
(22.383227 -7.2742066e-31 0)
(22.382838 -1.2952127e-18 1.2952127e-18)
(22.382454 1.279323e-18 -7.1030329e-31)
(22.382075 -1.263476e-18 -1.263476e-18)
(22.3817 -1.2476653e-18 0)
(22.38133 1.23191e-18 0)
(22.380964 1.2162509e-18 0)
(22.380602 -6.6648679e-31 0)
(22.380246 -1.1852796e-18 0)
(22.379894 -1.1699219e-18 0)
(22.379547 3.202889e-31 0)
(22.379205 1.1393938e-18 1.1393938e-18)
(22.378866 1.1242223e-18 -6.2402881e-31)
(22.378533 -1.1091329e-18 -1.1091329e-18)
(22.378203 -1.0941564e-18 0)
(22.377878 1.0792984e-18 0)
(22.377558 -1.0645407e-18 0)
(22.377242 0 0)
(22.376931 1.0352668e-18 0)
(22.376623 1.020738e-18 0)
(22.37632 -2.7914383e-31 0)
(22.376021 -9.919819e-19 9.919819e-19)
(22.375727 9.7778393e-19 -8.1425552e-31)
(22.375437 -9.6369343e-19 -9.6369343e-19)
(22.375151 -9.4969654e-19 0)
(22.374869 9.3578844e-19 0)
(22.374591 -9.2197442e-19 0)
(22.374317 -2.5220794e-31 0)
(22.374048 8.9467545e-19 0)
(22.373782 8.8118646e-19 0)
(22.37352 1.2332168e-34 0)
(22.373263 -1.7090586e-18 0)