/*--------------------------------*- C++ -*----------------------------------*\
| =========                 |                                                 |
| \\      /  F ield         | OpenFOAM: The Open Source CFD Toolbox           |
|  \\    /   O peration     | Version:  4.x                                   |
|   \\  /    A nd           | Web:      www.OpenFOAM.org                      |
|    \\/     M anipulation  |                                                 |
\*---------------------------------------------------------------------------*/
FoamFile
{
    version     2.0;
    format      ascii;
    class       surfaceScalarField;
    location    "0.09";
    object      phi;
}
// * * * * * * * * * * * * * * * * * * * * * * * * * * * * * * * * * * * * * //

dimensions      [1 0 -1 0 0 0 0];

internalField   nonuniform List<scalar> 
17503
(
5.232197276e-09
5.231671648e-09
-1.046391389e-08
1.017637287e-08
5.459148375e-09
-1.040331866e-08
1.462554986e-08
5.809354506e-09
-1.025855255e-08
1.82374097e-08
6.495351631e-09
-1.010723702e-08
2.093311725e-08
7.14362885e-09
-9.839334431e-09
8.286321362e-09
-9.621922608e-09
2.226877132e-08
5.459700832e-09
1.017534737e-08
-1.040335785e-08
1.063387499e-08
1.063281093e-08
-1.034780661e-08
1.531309446e-08
1.13316207e-08
-1.020146764e-08
1.914364243e-08
1.273608517e-08
-1.007122138e-08
2.202516484e-08
1.407550335e-08
-9.813277836e-09
1.649224769e-08
-9.627764241e-09
2.344715832e-08
5.80992636e-09
1.462406046e-08
-1.02586567e-08
1.133269934e-08
1.531155145e-08
-1.020153161e-08
1.632837426e-08
1.6326839e-08
-9.990894724e-09
2.046929727e-08
1.844705038e-08
-9.851843886e-09
2.370359619e-08
2.026630809e-08
-9.425017183e-09
2.41434693e-08
-9.204255343e-09
2.525673658e-08
6.495950358e-09
1.823550322e-08
-1.010743795e-08
1.27372022e-08
1.914167172e-08
-1.007138183e-08
1.844863809e-08
2.046736371e-08
-9.851950148e-09
2.334038655e-08
2.33383547e-08
-9.783017884e-09
2.727278944e-08
2.576316933e-08
-9.429218787e-09
3.1557663e-08
-9.183897129e-09
2.904254262e-08
7.144222611e-09
2.093085048e-08
-9.839608042e-09
1.407659949e-08
2.202282572e-08
-9.813506081e-09
2.026785717e-08
2.370133702e-08
-9.425209552e-09
2.576512146e-08
2.72703784e-08
-9.429279306e-09
3.012317114e-08
3.012082225e-08
-8.715708808e-09
3.835945097e-08
-8.642215321e-09
3.196356869e-08
8.286918581e-09
-9.622269226e-09
2.226620162e-08
1.649334972e-08
-9.628068947e-09
2.344451692e-08
2.414506914e-08
-9.204582583e-09
2.525421651e-08
3.155972373e-08
-9.184104529e-09
2.903982022e-08
3.836216731e-08
-8.642566935e-09
3.19608986e-08
-8.111734787e-09
4.241501417e-08
4.241825379e-08
6.348710057e-09
6.348074685e-09
-2.316075955e-08
1.237677629e-08
6.649620532e-09
-2.308101804e-08
1.783360511e-08
7.169662092e-09
-2.288507348e-08
2.234233169e-08
8.081378192e-09
-2.269734e-08
2.575849153e-08
9.086559588e-09
-2.234199826e-08
1.064237416e-08
-2.207946332e-08
2.757374382e-08
6.650292085e-09
1.23755288e-08
-2.308111862e-08
1.298136181e-08
1.298005872e-08
-2.300929801e-08
1.874129327e-08
1.402300039e-08
-2.281471729e-08
2.353390573e-08
1.588021146e-08
-2.266259168e-08
2.721167864e-08
1.792436496e-08
-2.232873928e-08
2.118469156e-08
-2.210939146e-08
2.915110366e-08
7.170357566e-09
1.783179616e-08
-2.2885343e-08
1.402432761e-08
1.873941511e-08
-2.281487869e-08
2.029757183e-08
2.02956868e-08
-2.253682207e-08
2.559121811e-08
2.311773104e-08
-2.238297953e-08
2.986224808e-08
2.607078642e-08
-2.184242428e-08
3.141298999e-08
-2.16197432e-08
3.204948274e-08
8.082096962e-09
2.234002782e-08
-2.26978225e-08
1.588157073e-08
2.35315275e-08
-2.266295845e-08
2.311966082e-08
2.558884539e-08
-2.238319881e-08
2.938809312e-08
2.938561079e-08
-2.231934755e-08
3.469832489e-08
3.321272067e-08
-2.188140325e-08
4.113311937e-08
-2.156541353e-08
3.735968658e-08
9.087270455e-09
2.575578823e-08
-2.234264731e-08
1.792570908e-08
2.720888708e-08
-2.232926493e-08
2.607268086e-08
2.985948283e-08
-2.184283499e-08
3.321518658e-08
3.469535393e-08
-2.188157513e-08
3.940040076e-08
3.939740744e-08
-2.108567253e-08
5.059675091e-08
-2.102465012e-08
4.231911518e-08
1.06430557e-08
-2.20802588e-08
2.757074798e-08
2.11859823e-08
-2.211008668e-08
2.914800808e-08
3.141478024e-08
-2.162038148e-08
3.204646515e-08
4.113547061e-08
-2.15658425e-08
3.735635729e-08
5.059951043e-08
-2.102511538e-08
4.231582208e-08
-2.033832801e-08
5.670980544e-08
5.671297243e-08
6.468704956e-09
6.467935327e-09
-3.609749521e-08
1.262787901e-08
6.776757792e-09
-3.601694041e-08
1.821006562e-08
7.344399685e-09
-3.581165721e-08
2.285132879e-08
8.264008836e-09
-3.560258792e-08
2.637790734e-08
9.37051312e-09
-3.523904769e-08
1.097558536e-08
-3.496187129e-08
2.828476748e-08
6.777553921e-09
1.262638561e-08
-3.601712337e-08
1.324231312e-08
1.324077422e-08
-3.593799868e-08
1.912365573e-08
1.438099557e-08
-3.573259849e-08
2.403453146e-08
1.624989887e-08
-3.555929877e-08
2.784818445e-08
1.844959128e-08
-3.522142301e-08
2.179061703e-08
-3.496990638e-08
2.989370033e-08
7.345204576e-09
1.820796465e-08
-3.581215502e-08
1.438255187e-08
1.912149498e-08
-3.573290432e-08
2.084588951e-08
2.084371453e-08
-3.546286817e-08
2.629157979e-08
2.371418648e-08
-3.529297937e-08
3.075033423e-08
2.695925224e-08
-3.481086838e-08
3.257984977e-08
-3.460898202e-08
3.295032391e-08
8.264815845e-09
2.284873111e-08
-3.560341558e-08
1.625145722e-08
2.403186602e-08
-3.555993346e-08
2.371637361e-08
2.62888831e-08
-3.529331979e-08
3.015044634e-08
3.014767134e-08
-3.518698079e-08
3.584056335e-08
3.417465728e-08
-3.478698574e-08
4.25009402e-08
-3.44118481e-08
3.876586416e-08
9.371291047e-09
2.637496262e-08
-3.524015818e-08
1.845111778e-08
2.784514539e-08
-3.522235481e-08
2.696141226e-08
3.07472432e-08
-3.481154157e-08
3.417747488e-08
3.583730981e-08
-3.478734042e-08
4.072639891e-08
4.072301742e-08
-3.418302253e-08
5.264243316e-08
-3.407813527e-08
4.363831957e-08
1.097629585e-08
-3.496320066e-08
2.828161661e-08
2.179201396e-08
-3.497110658e-08
2.989044101e-08
3.258175969e-08
-3.460996983e-08
3.294706491e-08
4.250339416e-08
-3.441256493e-08
3.876236512e-08
5.264504694e-08
-3.407857089e-08
4.363476186e-08
-3.329225187e-08
5.911899353e-08
5.912237751e-08
6.547014317e-09
6.546033677e-09
-4.919061122e-08
1.277317622e-08
6.837152857e-09
-4.908018059e-08
1.839408941e-08
7.415413843e-09
-4.884793947e-08
2.307600715e-08
8.280191124e-09
-4.856466585e-08
2.659069182e-08
9.409741089e-09
-4.816346652e-08
1.096830874e-08
-4.781407476e-08
2.847457467e-08
6.838147092e-09
1.277131251e-08
-4.908048503e-08
1.335417993e-08
1.335228257e-08
-4.896902763e-08
1.924924651e-08
1.451954064e-08
-4.873173078e-08
2.416792721e-08
1.62611304e-08
-4.845891202e-08
2.798198963e-08
1.844430623e-08
-4.807006958e-08
2.164922239e-08
-4.772919301e-08
3.00603466e-08
7.416396067e-09
1.839156189e-08
-4.884877134e-08
1.452143965e-08
1.92466664e-08
-4.873226018e-08
2.102273662e-08
2.102013508e-08
-4.846478185e-08
2.645781717e-08
2.37344588e-08
-4.820147095e-08
3.086796573e-08
2.701803287e-08
-4.779483302e-08
3.253016976e-08
-4.75667486e-08
3.294472278e-08
8.28114328e-09
2.3073023e-08
-4.856599754e-08
1.62630069e-08
2.416485158e-08
-4.845995826e-08
2.373707652e-08
2.645467466e-08
-4.820201016e-08
3.012881726e-08
3.012555431e-08
-4.796992391e-08
3.593933804e-08
3.405451801e-08
-4.763408134e-08
4.234011378e-08
-4.737243231e-08
3.908989902e-08
9.410632989e-09
2.658743837e-08
-4.816519634e-08
1.844609056e-08
2.797859639e-08
-4.807157904e-08
2.702055497e-08
3.086446615e-08
-4.779588545e-08
3.4057775e-08
3.593557745e-08
-4.763466096e-08
4.067912772e-08
4.067526902e-08
-4.742523454e-08
5.294421996e-08
-4.76798417e-08
4.367657483e-08
1.09690899e-08
-4.781613226e-08
2.847126123e-08
2.165080555e-08
-4.773112416e-08
3.005686368e-08
3.253234248e-08
-4.756828816e-08
3.29412061e-08
4.234281584e-08
-4.737355511e-08
3.908605153e-08
5.294696787e-08
-4.768022046e-08
4.367266437e-08
-4.809836074e-08
6.0346829e-08
6.035030212e-08
6.761914004e-09
6.76049772e-09
-6.271303139e-08
1.321487199e-08
7.056366185e-09
-6.258939069e-08
1.901887801e-08
7.66183873e-09
-6.231373217e-08
2.385101886e-08
8.544492561e-09
-6.194130493e-08
2.744306471e-08
9.71043081e-09
-6.14659798e-08
1.127266011e-08
-6.098721747e-08
2.934351075e-08
7.057780221e-09
1.321227781e-08
-6.258994294e-08
1.380473875e-08
1.380212101e-08
-6.246161626e-08
1.988146624e-08
1.502425036e-08
-6.217085409e-08
2.494693671e-08
1.678950641e-08
-6.176943868e-08
2.88453105e-08
1.899752208e-08
-6.12555701e-08
2.217186784e-08
-6.074860847e-08
3.096552052e-08
7.663215444e-09
1.90155429e-08
-6.231520073e-08
1.502686582e-08
1.98780501e-08
-6.217179617e-08
2.172501336e-08
2.172153807e-08
-6.186028698e-08
2.72822621e-08
2.445918509e-08
-6.142850072e-08
3.16634227e-08
2.772521141e-08
-6.090375569e-08
3.310683998e-08
-6.042077843e-08
3.358246501e-08
8.545804887e-09
2.384733281e-08
-6.194357906e-08
1.679205212e-08
2.494309765e-08
-6.177126692e-08
2.44626694e-08
2.727824615e-08
-6.142942934e-08
3.095455905e-08
3.09503472e-08
-6.095306849e-08
3.675267321e-08
3.462905313e-08
-6.033609464e-08
4.252484199e-08
-5.983847969e-08
3.980065321e-08
9.71160735e-09
2.743926575e-08
-6.146875372e-08
1.899988308e-08
2.884126139e-08
-6.125805075e-08
2.772852667e-08
3.165913313e-08
-6.090545887e-08
3.463320135e-08
3.674800434e-08
-6.033700974e-08
4.05522294e-08
4.054746861e-08
-5.926272162e-08
5.232106972e-08
-5.927285116e-08
4.2348902e-08
1.127363238e-08
-6.099043499e-08
2.933987933e-08
2.217388232e-08
-6.075175057e-08
3.096162247e-08
3.310976026e-08
-6.042336572e-08
3.357836157e-08
4.252861295e-08
-5.98404598e-08
3.979605673e-08
5.232549695e-08
-5.927385721e-08
4.234415915e-08
-6.079023069e-08
5.866681102e-08
5.867153358e-08
6.852333959e-09
6.850175424e-09
-7.641548826e-08
1.333122236e-08
7.139978673e-09
-7.620815748e-08
1.9129889e-08
7.711131582e-09
-7.582351107e-08
2.390694344e-08
8.562585706e-09
-7.528097264e-08
2.739541151e-08
9.640968735e-09
-7.459544203e-08
1.111682149e-08
2.917349035e-08
-7.388209779e-08
7.142143254e-09
1.332746709e-08
-7.620928456e-08
1.390493876e-08
1.390109929e-08
-7.598546016e-08
1.997618581e-08
1.503984591e-08
-7.557083082e-08
2.500568339e-08
1.675262178e-08
-7.498901036e-08
2.881511257e-08
1.883401691e-08
-7.425803007e-08
2.187696761e-08
3.086647345e-08
-7.356003577e-08
7.713235358e-09
1.912556966e-08
-7.582650755e-08
1.504367651e-08
1.997162178e-08
-7.557274547e-08
2.167211747e-08
2.166743557e-08
-7.51163776e-08
2.713921238e-08
2.434523067e-08
-7.44882526e-08
3.135888531e-08
2.741249231e-08
-7.370187917e-08
3.25928947e-08
3.322657068e-08
-7.300432353e-08
8.564528553e-09
2.390266293e-08
-7.528520068e-08
1.675634854e-08
2.500099732e-08
-7.499247355e-08
2.434997886e-08
2.71341704e-08
-7.448982617e-08
3.080240521e-08
3.079696168e-08
-7.385722326e-08
3.652320478e-08
3.435639309e-08
-7.300075678e-08
4.229611908e-08
3.977414967e-08
-7.279265994e-08
9.64258957e-09
2.739126679e-08
-7.459996174e-08
1.883731833e-08
2.881040063e-08
-7.426216881e-08
2.74169197e-08
3.13536487e-08
-7.37044762e-08
3.436167655e-08
3.651733958e-08
-7.300206305e-08
4.058538607e-08
4.057940442e-08
-7.170939969e-08
5.230010913e-08
4.309746932e-08
-7.178892728e-08
1.111800703e-08
2.916969437e-08
-7.388688148e-08
2.187966523e-08
3.086217931e-08
-7.35651124e-08
3.259696028e-08
3.32217598e-08
-7.300865713e-08
4.230144673e-08
3.976866786e-08
-7.279622201e-08
5.230659981e-08
4.309161675e-08
-7.179122294e-08
5.880427848e-08
5.881083814e-08
-7.379858172e-08
9.133072655e-09
2.243183021e-08
-9.298684683e-09
1.822250643e-08
2.371992122e-08
-9.364794036e-09
2.609041919e-08
2.612992939e-08
-8.743612556e-09
3.375452819e-08
3.024522566e-08
-8.869521057e-09
3.858221486e-08
3.504424655e-08
-7.911084835e-09
4.508781541e-08
-8.119615552e-09
4.40289711e-08
1.051292725e-08
2.095699043e-08
-9.038080112e-09
2.10207419e-08
2.229847205e-08
-9.086331948e-09
3.049038792e-08
2.505022846e-08
-8.38991215e-09
3.93028792e-08
2.964248927e-08
-8.209755076e-09
4.472116963e-08
3.632176815e-08
-6.69582833e-09
4.506053152e-08
-6.19056942e-09
5.093906954e-08
1.193339482e-08
1.781172814e-08
-8.788140846e-09
2.394113938e-08
1.908248345e-08
-8.791695737e-09
3.528612714e-08
2.178659628e-08
-8.081299313e-09
4.637847215e-08
2.61912835e-08
-7.641130541e-09
5.551161988e-08
3.307977591e-08
-5.891132974e-09
4.115602588e-08
-4.560811707e-09
6.39770366e-08
1.342575029e-08
1.298443341e-08
-8.598452284e-09
2.69955978e-08
1.401607227e-08
-8.503329061e-09
4.040976536e-08
1.615555406e-08
-7.783091445e-09
5.386222137e-08
1.973452028e-08
-6.995686332e-09
6.654765499e-08
2.554592275e-08
-5.151511564e-09
3.222748805e-08
-2.550754868e-09
7.802706926e-08
1.458015501e-08
6.859621118e-09
-8.455300283e-09
2.940819898e-08
7.443178239e-09
-8.255045609e-09
4.446276689e-08
8.644199076e-09
-7.543237112e-09
5.995143561e-08
1.067148462e-08
-6.42572087e-09
7.57921601e-08
1.404760086e-08
-4.34241082e-09
1.794445704e-08
-1.205660096e-09
9.128086356e-08
1.524260088e-08
-6.355395122e-13
-8.382279393e-09
3.080805084e-08
-5.798286036e-13
-8.121673191e-09
4.685843961e-08
-3.867104216e-13
-7.405910113e-09
6.363617236e-08
-1.230506022e-13
-6.106207922e-09
8.148979418e-08
4.862779484e-13
-3.806494851e-09
7.676072481e-13
-6.423546711e-10
1.000758242e-07
1.524275478e-08
-6.860855798e-09
-8.382479132e-09
3.080833903e-08
-7.444287906e-09
-8.12186367e-09
4.68588711e-08
-8.644962469e-09
-7.406070956e-09
6.363677958e-08
-1.067176137e-08
-6.106388008e-09
8.149046681e-08
-1.404683189e-08
-3.806457537e-09
-1.794327128e-08
-6.424554249e-10
1.000768667e-07
1.45804941e-08
-1.298543765e-08
-8.455939694e-09
2.940880801e-08
-1.401694792e-08
-8.25570732e-09
4.446361412e-08
-1.615609389e-08
-7.543768028e-09
5.995271027e-08
-1.973465139e-08
-6.426348806e-09
7.579369327e-08
-2.55453191e-08
-4.342597616e-09
-3.222678205e-08
-1.206651804e-09
9.128378724e-08
1.342631346e-08
-1.781243335e-08
-8.599303139e-09
2.69966439e-08
-1.908307414e-08
-8.504211346e-09
4.041115757e-08
-2.1786838e-08
-7.783803784e-09
5.386399996e-08
-2.619113562e-08
-6.996473016e-09
6.654929303e-08
-3.307892974e-08
-5.151774511e-09
-4.115499901e-08
-2.55136928e-09
7.802882461e-08
1.193410754e-08
-2.095730153e-08
-8.789230842e-09
2.394247606e-08
-2.229862642e-08
-8.792778106e-09
3.528801412e-08
-2.505014713e-08
-8.08228452e-09
4.638075512e-08
-2.964193214e-08
-7.642061631e-09
5.551427438e-08
-3.63207751e-08
-5.891777204e-09
-4.505926013e-08
-4.561381991e-09
6.39798363e-08
1.051381284e-08
-2.243180261e-08
-9.039321907e-09
2.102238818e-08
-2.371969744e-08
-9.087490382e-09
3.049275204e-08
-2.612953926e-08
-8.390994985e-09
3.930587106e-08
-3.024442298e-08
-8.210722183e-09
4.472454329e-08
-3.50431795e-08
-6.696395829e-09
-4.508612933e-08
-6.191126146e-09
5.094237008e-08
9.13405009e-09
-9.3000134e-09
-2.226583405e-08
1.822443415e-08
-9.366074818e-09
-2.344399736e-08
2.60932327e-08
-8.744713829e-09
-2.525353627e-08
3.37582485e-08
-8.870583433e-09
-2.903885707e-08
3.858649852e-08
-7.911687196e-09
-3.195975822e-08
-8.120148287e-09
-4.241270704e-08
4.403319048e-08
1.199504602e-08
2.793746211e-08
-2.166043132e-08
2.378560809e-08
2.974490703e-08
-2.175223795e-08
3.480555405e-08
3.338347416e-08
-2.110055269e-08
4.503038456e-08
3.945018394e-08
-2.118820435e-08
5.303566882e-08
4.669716792e-08
-2.029776413e-08
6.107730175e-08
-2.082559604e-08
6.137416832e-08
1.403687987e-08
2.620809465e-08
-2.134560495e-08
2.790417214e-08
2.815832284e-08
-2.136699891e-08
4.164884892e-08
3.200131205e-08
-2.075238737e-08
5.429088419e-08
3.890563679e-08
-2.030723151e-08
6.537612046e-08
4.788147088e-08
-1.896529692e-08
6.037483445e-08
-1.806354089e-08
7.79516755e-08
1.608098253e-08
2.2348215e-08
-2.100924924e-08
3.217113378e-08
2.419756493e-08
-2.092100398e-08
4.859412871e-08
2.78429771e-08
-2.034594304e-08
6.459923656e-08
3.457509575e-08
-1.931565846e-08
8.123588044e-08
4.323829754e-08
-1.788448077e-08
5.406395062e-08
-1.485402215e-08
9.784015331e-08
1.815868768e-08
1.633063211e-08
-2.073952947e-08
3.649889142e-08
1.784928563e-08
-2.049518671e-08
5.58297672e-08
2.065604174e-08
-1.992708729e-08
7.532123296e-08
2.619806211e-08
-1.811018597e-08
9.662471786e-08
3.321532844e-08
-1.643197762e-08
4.149498931e-08
-1.11632003e-08
1.178060998e-07
1.977631583e-08
8.636168271e-09
-2.053708651e-08
3.999360227e-08
9.49481222e-09
-2.01178519e-08
6.155516704e-08
1.104470038e-08
-1.949356216e-08
8.4169185e-08
1.41840329e-08
-1.7025747e-08
1.094485598e-07
1.81378682e-08
-1.454422348e-08
2.276863497e-08
-8.19851716e-09
1.351678068e-07
2.068957332e-08
-2.795437128e-14
-2.04355559e-08
4.197275621e-08
7.286189329e-14
-1.991007884e-08
6.485984607e-08
3.890401345e-13
-1.924875639e-08
8.931309541e-08
9.231259739e-13
-1.6376382e-08
1.169517039e-07
1.889626178e-12
-1.3309118e-08
2.147231267e-12
-6.711248102e-09
1.457870305e-07
2.068981781e-08
-8.63620941e-09
-2.043614651e-08
4.197320627e-08
-9.4946564e-09
-1.99106287e-08
6.486051302e-08
-1.104390188e-08
-1.924920999e-08
8.931406461e-08
-1.418228193e-08
-1.637681427e-08
1.169529743e-07
-1.813438965e-08
-1.330913458e-08
-2.276440594e-08
-6.711685178e-09
1.457887127e-07
1.977684447e-08
-1.63303334e-08
-2.053863976e-08
3.999464352e-08
-1.784878495e-08
-2.011936559e-08
6.155675599e-08
-2.065491961e-08
-1.949490927e-08
8.417142698e-08
-2.619621211e-08
-1.702715578e-08
1.09451683e-07
-3.321224707e-08
-1.45450364e-08
-4.149067431e-08
-8.200506207e-09
1.351717812e-07
1.815961172e-08
-2.234749688e-08
-2.074175027e-08
3.650065553e-08
-2.41966398e-08
-2.049734644e-08
5.583237443e-08
-2.78415271e-08
-1.992900014e-08
7.532452695e-08
-3.45730242e-08
-1.811195068e-08
9.662878597e-08
-4.323526554e-08
-1.643315455e-08
-5.405960185e-08
-1.116423328e-08
1.17810341e-07
1.608214352e-08
-2.620694584e-08
-2.10119439e-08
3.217337423e-08
-2.815696112e-08
-2.092365243e-08
4.859747854e-08
-3.199959401e-08
-2.034838713e-08
6.460358851e-08
-3.890339352e-08
-1.931790734e-08
8.124148387e-08
-4.787874421e-08
-1.788634557e-08
-6.037097117e-08
-1.485542838e-08
9.78467276e-08
1.403826204e-08
-2.79359617e-08
-2.134856375e-08
2.790687082e-08
-2.9743188e-08
-2.136980822e-08
4.165288659e-08
-3.338153294e-08
-2.075502032e-08
5.429612461e-08
-3.944777978e-08
-2.030954514e-08
6.538253011e-08
-4.669450428e-08
-1.896709741e-08
-6.107372258e-08
-1.806433962e-08
7.795849827e-08
1.199652431e-08
-2.166354198e-08
-2.756899634e-08
2.378858162e-08
-2.17552038e-08
-2.914607514e-08
3.48100889e-08
-2.110334528e-08
-3.204441554e-08
4.503647735e-08
-2.119079906e-08
-3.735398285e-08
5.304344599e-08
-2.029976412e-08
-4.231339486e-08
-2.082699512e-08
-5.670553856e-08
6.138215151e-08
1.246320958e-08
2.871559821e-08
-3.455764914e-08
2.451511614e-08
3.067086737e-08
-3.458456492e-08
3.610474168e-08
3.445031798e-08
-3.419341046e-08
4.623098573e-08
4.145896003e-08
-3.40110587e-08
5.466434373e-08
4.864319604e-08
-3.373959742e-08
6.493564095e-08
-3.406047729e-08
6.208253898e-08
1.466141479e-08
2.697770936e-08
-3.426916701e-08
2.896795242e-08
2.917588934e-08
-3.417849585e-08
4.361148947e-08
3.302967158e-08
-3.397526295e-08
5.683121628e-08
4.111682117e-08
-3.318479076e-08
7.0118236e-08
4.968941802e-08
-3.329851088e-08
6.450716965e-08
-3.199978301e-08
8.448292473e-08
1.685655489e-08
2.30569882e-08
-3.394507093e-08
3.362811063e-08
2.518281527e-08
-3.36993686e-08
5.113203523e-08
2.884835341e-08
-3.366851037e-08
6.826822719e-08
3.680451263e-08
-3.213949551e-08
8.778607646e-08
4.529527498e-08
-3.300808443e-08
5.808429105e-08
-2.970500808e-08
1.090599215e-07
1.911677678e-08
1.688458635e-08
-3.368382722e-08
3.840623788e-08
1.864033008e-08
-3.324205863e-08
5.919256759e-08
2.148556623e-08
-3.33505863e-08
8.075686914e-08
2.800996358e-08
-3.087996238e-08
1.062662081e-07
3.526616296e-08
-3.191214589e-08
4.47927101e-08
-2.731077988e-08
1.357053363e-07
2.089395039e-08
8.938075338e-09
-3.348442295e-08
4.232723858e-08
9.934251315e-09
-3.284498658e-08
6.576115652e-08
1.151895362e-08
-3.296088905e-08
9.12660917e-08
1.521154508e-08
-2.973224366e-08
1.226723281e-07
1.945215463e-08
-3.013639819e-08
2.476786344e-08
-2.510354241e-08
1.596022041e-07
2.189577571e-08
-6.917819332e-13
-3.339253931e-08
4.4551453e-08
-6.065798646e-13
-3.263090556e-08
6.958040545e-08
-1.247917369e-13
-3.275874255e-08
9.743435601e-08
2.545037864e-13
-2.901910244e-08
1.327034117e-07
1.545614118e-12
-2.912757689e-08
2.956649699e-12
-2.37070008e-08
1.744640324e-07
2.189604222e-08
-8.939225416e-09
-3.339361376e-08
4.455196045e-08
-9.935217901e-09
-3.263191966e-08
6.958128551e-08
-1.151904096e-08
-3.275966575e-08
9.743558148e-08
-1.521085724e-08
-2.901997572e-08
1.327056238e-07
-1.944937359e-08
-2.912824825e-08
-2.476232538e-08
-2.370846266e-08
1.744675298e-07
2.089454391e-08
-1.688512458e-08
-3.348727912e-08
4.232836274e-08
-1.864063408e-08
-3.284771333e-08
6.576297612e-08
-2.14851591e-08
-3.296349274e-08
9.126833885e-08
-2.800872461e-08
-2.973468362e-08
1.226761774e-07
-3.526360357e-08
-3.013872048e-08
-4.478788496e-08
-2.510743663e-08
1.596083941e-07
1.911780595e-08
-2.305684411e-08
-3.368788052e-08
3.840817432e-08
-2.518236404e-08
-3.324591812e-08
5.919551624e-08
-2.884737872e-08
-3.335420464e-08
8.076044979e-08
-3.680259714e-08
-3.088300651e-08
1.062709203e-07
-4.529243687e-08
-3.191489896e-08
-5.807919815e-08
-2.731336807e-08
1.357111242e-07
1.68578345e-08
-2.69767957e-08
-3.394980677e-08
3.36305108e-08
-2.917469881e-08
-3.370393232e-08
5.113564726e-08
-3.302811359e-08
-3.36728189e-08
6.827275445e-08
-4.111436785e-08
-3.214325057e-08
8.77916383e-08
-4.968620279e-08
-3.301160497e-08
-6.450216344e-08
-2.970774985e-08
1.090668554e-07
1.466290585e-08
-2.87140694e-08
-3.427419717e-08
2.897083145e-08
-3.066910928e-08
-3.418329649e-08
4.361580742e-08
-3.444829766e-08
-3.397981156e-08
5.683676252e-08
-4.145611537e-08
-3.318873901e-08
7.012520858e-08
-4.863964757e-08
-3.330215069e-08
-6.493113857e-08
-3.200197267e-08
8.449183828e-08
1.246474795e-08
-3.456282431e-08
-2.82795395e-08
2.451829895e-08
-3.458953504e-08
-2.988817971e-08
3.610963465e-08
-3.419820977e-08
-3.294471707e-08
4.623768106e-08
-3.401545356e-08
-3.875953237e-08
5.467351522e-08
-3.374358152e-08
-4.363174781e-08
-3.406390892e-08
-5.911489347e-08
6.209416758e-08
1.245954213e-08
2.887150731e-08
-4.741748435e-08
2.431456248e-08
3.094742783e-08
-4.733013569e-08
3.596284549e-08
3.441962878e-08
-4.732011304e-08
4.585127847e-08
4.239592964e-08
-4.720938939e-08
5.505227985e-08
4.889843259e-08
-4.816644664e-08
6.788878612e-08
-4.926113883e-08
6.271078943e-08
1.463720915e-08
2.71259944e-08
-4.716089704e-08
2.887187635e-08
2.954274451e-08
-4.700840405e-08
4.373730297e-08
3.298233685e-08
-4.740337504e-08
5.744704021e-08
4.256018295e-08
-4.705878678e-08
7.340084661e-08
4.930653547e-08
-4.96604443e-08
6.84965079e-08
-5.087999227e-08
9.167319119e-08
1.685989742e-08
2.323094826e-08
-4.69098915e-08
3.376387043e-08
2.563393584e-08
-4.669445112e-08
5.156168633e-08
2.900387185e-08
-4.748785861e-08
7.005650586e-08
3.869256975e-08
-4.676676278e-08
9.219246132e-08
4.55264137e-08
-5.136392682e-08
6.307910027e-08
-5.252541334e-08
1.204301217e-07
1.920840936e-08
1.706849339e-08
-4.672970516e-08
3.899132298e-08
1.906272469e-08
-4.645371973e-08
6.044342116e-08
2.179419595e-08
-4.759308857e-08
8.462616075e-08
2.989578069e-08
-4.626601265e-08
1.147036911e-07
3.570741028e-08
-5.217070273e-08
5.003293706e-08
-5.446271802e-08
1.549016227e-07
2.113379716e-08
9.056778179e-09
-4.660643114e-08
4.345814302e-08
1.019147127e-08
-4.62981034e-08
6.815904143e-08
1.176177047e-08
-4.762953771e-08
9.768867556e-08
1.645197472e-08
-4.58181767e-08
1.363621175e-07
1.979376318e-08
-5.289619352e-08
2.863233235e-08
-5.331224886e-08
1.859713878e-07
2.223246449e-08
-1.854072939e-12
-4.656630846e-08
4.604600177e-08
-1.67376411e-12
-4.625133714e-08
7.274209524e-08
-1.166254911e-12
-4.769204585e-08
1.057591698e-07
-5.076777949e-13
-4.558374692e-08
1.502994956e-07
1.176296851e-13
-5.38741864e-08
1.662789411e-12
-4.982477304e-08
2.050479279e-07
2.223281937e-08
-9.060081753e-09
-4.65681999e-08
4.60466745e-08
-1.019437368e-08
-4.625310487e-08
7.27430727e-08
-1.17637201e-08
-4.769364693e-08
1.057606312e-07
-1.645265137e-08
-4.558541592e-08
1.503016355e-07
-1.979303118e-08
-5.387612156e-08
-2.862938316e-08
-4.982632926e-08
2.050502459e-07
2.11345232e-08
-1.707065295e-08
-4.661127255e-08
4.345945725e-08
-1.906445229e-08
-4.630258678e-08
6.816086104e-08
-2.179510284e-08
-4.763364909e-08
9.769110214e-08
-2.989548876e-08
-4.582211036e-08
1.363655203e-07
-3.570560574e-08
-5.290066375e-08
-5.002965293e-08
-5.331705544e-08
1.859749485e-07
1.920971171e-08
-2.323185993e-08
-4.673638011e-08
3.899372786e-08
-2.563443797e-08
-4.645997135e-08
6.044682379e-08
-2.900376285e-08
-4.75987298e-08
8.463060597e-08
-3.869134774e-08
-4.627094465e-08
1.147090268e-07
-4.552382794e-08
-5.217527619e-08
-6.307487901e-08
-5.446827217e-08
1.549088208e-07
1.686135924e-08
-2.712565755e-08
-4.691731579e-08
3.376663442e-08
-2.954213984e-08
-4.67014971e-08
5.156567794e-08
-3.298133416e-08
-4.749427998e-08
7.006174557e-08
-4.255828588e-08
-4.677236978e-08
9.219859793e-08
-4.930342066e-08
-5.136901262e-08
-6.849210203e-08
-5.25309762e-08
1.204389651e-07
1.463894524e-08
-2.887025211e-08
-4.716850221e-08
2.88751908e-08
-3.094596043e-08
-4.701562857e-08
4.374201164e-08
-3.441783042e-08
-4.741008234e-08
5.745313395e-08
-4.239338323e-08
-4.706475091e-08
7.340779415e-08
-4.889457857e-08
-4.966575578e-08
-6.788567772e-08
-5.088539079e-08
9.168474136e-08
1.246123016e-08
-4.742517703e-08
-2.846910748e-08
2.431800536e-08
-4.733755467e-08
-3.005456281e-08
3.596804575e-08
-4.732715658e-08
-3.293883014e-08
4.585827845e-08
-4.72158791e-08
-3.908317066e-08
5.506187007e-08
-4.817247992e-08
-4.366935565e-08
-4.92667867e-08
-6.034325081e-08
6.272229509e-08
1.270694861e-08
2.968086119e-08
-6.046548602e-08
2.465905783e-08
3.183841083e-08
-6.015902411e-08
3.566130295e-08
3.48891901e-08
-5.963316939e-08
4.424539614e-08
4.303613316e-08
-5.903360953e-08
4.964326414e-08
4.697524135e-08
-5.819545753e-08
6.70620387e-08
-6.117020075e-08
5.315711097e-08
1.479006134e-08
2.784761119e-08
-6.011772243e-08
2.905446226e-08
3.033244653e-08
-5.976677926e-08
4.260058788e-08
3.328578609e-08
-5.934607642e-08
5.501799376e-08
4.288728939e-08
-5.932739273e-08
6.546481531e-08
4.737716016e-08
-6.050919247e-08
6.829726914e-08
-6.725497234e-08
8.06045312e-08
1.694247531e-08
2.383009042e-08
-5.98347876e-08
3.374463766e-08
2.623792621e-08
-5.940201191e-08
4.977654629e-08
2.912134827e-08
-5.935534997e-08
6.71317811e-08
3.878560598e-08
-6.00204266e-08
8.348366132e-08
4.324546459e-08
-6.358417704e-08
6.379285476e-08
-7.380954698e-08
1.092720174e-07
1.920644867e-08
1.752105103e-08
-5.96270223e-08
3.877836052e-08
1.946823407e-08
-5.925590536e-08
5.825876429e-08
2.177253162e-08
-5.972478916e-08
8.213448096e-08
2.983747598e-08
-6.119371031e-08
1.079962711e-07
3.272259036e-08
-6.750964018e-08
5.102024502e-08
-8.127165493e-08
1.475777175e-07
2.110628847e-08
9.298798984e-09
-5.949040249e-08
4.313085021e-08
1.039856749e-08
-5.92530014e-08
6.592400651e-08
1.171424972e-08
-6.036453203e-08
9.604403643e-08
1.636407287e-08
-6.246487965e-08
1.305931558e-07
1.758740886e-08
-7.231009908e-08
2.885435769e-08
-8.312931408e-08
1.825761081e-07
2.218724682e-08
-4.399091506e-12
-5.945037944e-08
4.563935765e-08
-4.161158866e-12
-5.930079643e-08
7.049070408e-08
-3.522122928e-12
-6.082574912e-08
1.046586752e-07
-2.976774203e-12
-6.338474704e-08
1.438307173e-07
-2.694898839e-12
-7.545606125e-08
-1.353400922e-12
-7.996273768e-08
2.028242947e-07
2.218762771e-08
-9.306451771e-09
-5.945383802e-08
4.564005579e-08
-1.040576072e-08
-5.930399706e-08
7.049145975e-08
-1.17202358e-08
-6.082842561e-08
1.046595295e-07
-1.636867359e-08
-6.338782789e-08
1.43831094e-07
-1.759095712e-08
-7.545945806e-08
-2.88557088e-08
-7.996435774e-08
2.028230709e-07
2.110724476e-08
-1.752604401e-08
-5.949897657e-08
4.313252298e-08
-1.94728908e-08
-5.926076239e-08
6.592578648e-08
-2.177615657e-08
-6.037104808e-08
9.604567968e-08
-2.983958217e-08
-6.24711085e-08
1.305937425e-07
-3.272262546e-08
-7.231715168e-08
-5.101843871e-08
-8.313540686e-08
1.825744508e-07
1.920804188e-08
-2.383235407e-08
-5.963808747e-08
3.878129512e-08
-2.623995218e-08
-5.9266145e-08
5.826274917e-08
-2.912266864e-08
-5.973365933e-08
8.213915544e-08
-3.878576888e-08
-6.120117697e-08
1.080009171e-07
-4.324371445e-08
-6.751613323e-08
-6.378835984e-08
-8.127878726e-08
1.47581139e-07
1.694427481e-08
-2.78477571e-08
-5.984614806e-08
3.374798745e-08
-3.033249398e-08
-5.94126093e-08
4.978129045e-08
-3.328547624e-08
-5.936470849e-08
6.713752208e-08
-4.288617875e-08
-6.002819018e-08
8.349014538e-08
-4.737469677e-08
-6.359076133e-08
-6.829237739e-08
-7.381660463e-08
1.092797388e-07
1.479206458e-08
-2.967945696e-08
-6.012885572e-08
2.905819399e-08
-3.183683819e-08
-5.97772816e-08
4.260573942e-08
-3.488735208e-08
-5.935560303e-08
5.50241853e-08
-4.303372852e-08
-5.933559813e-08
6.547177137e-08
-4.697216823e-08
-6.051585252e-08
-6.705806227e-08
-6.726213874e-08
8.06141711e-08
1.270877996e-08
-6.047642615e-08
-2.933697789e-08
2.466280034e-08
-6.016957004e-08
-3.095872144e-08
3.566666542e-08
-5.964285751e-08
-3.35754156e-08
4.425205488e-08
-5.904242886e-08
-3.979260402e-08
4.965103952e-08
-5.820312399e-08
-4.234052593e-08
-6.117757016e-08
-5.866296553e-08
5.316658398e-08
1.247804963e-08
2.933226915e-08
-7.310608407e-08
2.439657403e-08
3.157464859e-08
-7.278988973e-08
3.578081857e-08
3.417779043e-08
-7.197335075e-08
4.547161692e-08
4.294738296e-08
-7.19031185e-08
5.286692163e-08
4.685245045e-08
-6.935158029e-08
6.569327321e-08
-7.244927909e-08
5.725718904e-08
1.439968572e-08
2.737303485e-08
-7.255809859e-08
2.867450606e-08
2.99714859e-08
-7.243828062e-08
4.255299609e-08
3.267255671e-08
-7.171929397e-08
5.574237938e-08
4.299452188e-08
-7.256392509e-08
6.545310258e-08
4.706017731e-08
-7.042762599e-08
6.718987788e-08
-7.746875806e-08
7.417024565e-08
1.644193688e-08
2.326682816e-08
-7.217043283e-08
3.338390917e-08
2.598848155e-08
-7.236084392e-08
4.974615632e-08
2.874239521e-08
-7.178747464e-08
6.712971138e-08
3.940855596e-08
-7.381805884e-08
7.957421318e-08
4.362836965e-08
-7.259686954e-08
6.434356981e-08
-8.520141659e-08
9.381227801e-08
1.870845972e-08
1.697226071e-08