/*--------------------------------*- C++ -*----------------------------------*\
| =========                 |                                                 |
| \\      /  F ield         | OpenFOAM: The Open Source CFD Toolbox           |
|  \\    /   O peration     | Version:  4.x                                   |
|   \\  /    A nd           | Web:      www.OpenFOAM.org                      |
|    \\/     M anipulation  |                                                 |
\*---------------------------------------------------------------------------*/
FoamFile
{
    version     2.0;
    format      ascii;
    class       volScalarField;
    location    "0.91";
    object      T;
}
// * * * * * * * * * * * * * * * * * * * * * * * * * * * * * * * * * * * * * //

dimensions      [0 0 0 1 0 0 0];

internalField   nonuniform List<scalar> 
6398
(
300.0000001
300.0000014
300.0000013
300.0000013
300.0000013
300.0000014
300.0000014
300.0000025
300.0000024
300.0000025
300.0000025
300.0000026
300.0000013
300.0000024
300.0000023
300.0000023
300.0000024
300.0000025
300.0000013
300.0000024
300.0000023
300.0000023
300.0000024
300.0000025
300.0000013
300.0000024
300.0000023
300.0000024
300.0000024
300.0000025
300.0000013
300.0000024
300.0000023
300.0000024
300.0000024
300.0000025
300.0000015
300.0000024
300.0000021
300.0000021
300.0000022
300.0000022
300.0000024
300.000003
300.0000027
300.0000028
300.0000028
300.000003
300.0000021
300.0000027
300.0000024
300.0000024
300.0000025
300.0000026
300.0000021
300.0000027
300.0000024
300.0000024
300.0000025
300.0000026
300.0000021
300.0000027
300.0000024
300.0000024
300.0000025
300.0000026
300.0000022
300.0000028
300.0000025
300.0000025
300.0000026
300.0000027
300.0000008
300.000001
300.0000005
300.0000003
300.0000002
300.0000002
300.0000011
300.0000005
299.9999998
299.9999995
299.9999993
299.9999994
300.0000006
299.9999999
299.999999
299.9999987
299.9999986
299.9999987
300.0000006
299.9999998
299.999999
299.9999987
299.9999986
299.9999987
300.0000007
300
299.9999992
299.9999989
299.9999989
299.9999991
300.0000008
300.0000003
299.9999996
299.9999993
299.9999993
299.9999996
299.9999999
299.9999991
299.9999983
299.999998
299.9999978
299.9999978
299.9999992
299.9999969
299.9999957
299.999995
299.9999944
299.9999943
299.9999986
299.9999962
299.9999949
299.999994
299.9999933
299.9999933
299.9999987
299.9999963
299.999995
299.9999942
299.9999937
299.9999938
299.9999988
299.9999966
299.9999954
299.9999948
299.9999946
299.9999949
299.9999988
299.9999969
299.9999959
299.9999955
299.9999954
299.9999958
299.9999991
299.9999974
299.9999965
299.9999963
299.9999962
299.9999963
299.9999974
299.9999933
299.9999919
299.9999912
299.9999907
299.9999907
299.9999967
299.9999925
299.999991
299.9999901
299.9999895
299.9999895
299.9999968
299.9999927
299.9999914
299.9999906
299.9999902
299.9999904
299.9999969
299.999993
299.9999919
299.9999916
299.9999915
299.9999921
299.9999969
299.999993
299.9999921
299.9999922
299.9999925
299.9999933
299.9999988
299.9999964
299.9999955
299.9999955
299.9999957
299.9999959
299.9999963
299.9999905
299.9999887
299.9999883
299.9999883
299.9999886
299.9999954
299.999989
299.9999871
299.9999866
299.9999865
299.9999869
299.9999954
299.999989
299.9999874
299.9999871
299.9999873
299.9999879
299.9999955
299.9999891
299.9999878
299.999988
299.9999887
299.9999898
299.9999955
299.999989
299.9999877
299.9999882
299.9999894
299.9999909
299.9999993
299.9999969
299.9999962
299.9999963
299.9999968
299.9999969
299.9999967
299.9999903
299.999988
299.9999876
299.9999879
299.9999884
299.9999957
299.9999877
299.9999849
299.9999844
299.9999847
299.9999856
299.9999954
299.999987
299.9999842
299.999984
299.9999847
299.9999862
299.9999955
299.9999869
299.9999842
299.9999844
299.9999857
299.9999879
299.9999956
299.9999868
299.999984
299.9999844
299.9999861
299.9999885
300.0000012
300.0000006
300.0000005
300.0000009
300.0000015
300.0000006
300.0000002
299.9999955
299.999992
299.9999911
299.9999916
299.999992
299.9999992
299.9999909
299.9999861
299.9999848
299.9999852
299.999986
299.9999985
299.9999886
299.9999838
299.9999827
299.9999834
299.9999844
299.9999983
299.999988
299.999983
299.9999821
299.9999833
299.9999852
299.9999987
299.9999881
299.9999828
299.9999818
299.9999833
299.9999857
300.0000047
300.0000096
300.000012
300.0000131
300.000014
300.0000113
300.0000089
300.0000141
300.0000102
300.0000076
300.0000082
300.0000077
300.0000096
300.0000072
299.999998
299.9999933
299.9999932
299.9999929
300.0000083
300.0000009
299.99999
299.9999856
299.9999856
299.9999852
300.0000078
299.9999983
299.999987
299.999983
299.9999833
299.9999832
300.0000081
299.9999985
299.9999866
299.9999823
299.9999828
299.9999851
300.000009
300.0000222
300.0000303
300.0000337
300.0000353
300.0000312
300.0000216
300.0000498
300.0000547
300.0000521
300.0000532
300.0000531
300.0000274
300.0000494
300.0000377
300.0000261
300.0000238
300.0000232
300.0000273
300.0000386
300.0000182
300.0000042
300.0000009
299.9999987
300.0000263
300.000032
300.0000091
299.9999949
299.9999913
299.9999883
300.0000258
300.0000317
300.0000077
299.9999926
299.9999888
299.9999901
300.0000126
300.0000347
300.0000504
300.0000574
300.0000595
300.0000532
300.0000342
300.0000909
300.0001164
300.0001222
300.000125
300.0001235
300.0000478
300.0001111
300.0001193
300.000107
300.0001021
300.0001017
300.0000514
300.000107
300.0000941
300.0000659
300.0000545
300.0000509
300.0000507
300.0000994
300.000075
300.0000413
300.0000276
300.0000203
300.0000485
300.0000956
300.00007
300.0000342
300.000019
300.0000169
300.0000149
300.0000439
300.000067
300.0000782
300.0000808
300.0000719
300.0000436
300.0001259
300.0001757
300.000195
300.0002005
300.0001948
300.0000653
300.0001718
300.0002164
300.0002204
300.000218
300.0002139
300.0000738
300.0001823
300.0002082
300.000192
300.0001776
300.000171
300.0000739
300.0001776
300.0001901
300.0001585
300.0001328
300.0001195
300.0000695
300.0001688
300.0001787
300.0001431
300.0001124
300.0001026
300.0000158
300.0000489
300.0000775
300.0000927
300.0000961
300.0000852
300.0000487
300.0001483
300.0002197
300.0002539
300.0002634
300.0002533
300.0000763
300.0002171
300.0003013
300.000331
300.0003357
300.0003264
300.0000895
300.0002447
300.0003211
300.0003329
300.0003255
300.000313
300.0000907
300.000245
300.0003118
300.0003097
300.0002917
300.0002724
300.0000843
300.0002314
300.0002943
300.0002874
300.0002644
300.00025
300.0000155
300.0000501
300.0000818
300.0000999
300.0001043
300.0000927
300.0000498
300.0001571
300.0002428
300.00029
300.0003044
300.0002919
300.0000806
300.0002407
300.0003568
300.0004137
300.0004296
300.0004178
300.0000969
300.0002826
300.000406
300.000456
300.0004639
300.00045
300.0000993
300.0002886
300.0004088
300.0004494
300.0004487
300.0004308
300.0000918
300.0002718
300.000388
300.0004252
300.0004201
300.0003999
300.0000013
300.0000025
300.0000024
300.0000024
300.0000025
300.0000025
300.0000014
300.0000025
300.0000024
300.0000025
300.0000025
300.0000026
300.0000014
300.0000026
300.0000025
300.0000025
300.0000026
300.0000026
300.0000014
300.0000027
300.0000025
300.0000026
300.0000026
300.0000027
300.0000014
300.0000027
300.0000026
300.0000026
300.0000027
300.0000027
300.0000015
300.0000028
300.0000026
300.0000027
300.0000027
300.0000027
300.0000015
300.0000028
300.0000027
300.0000027
300.0000027
300.0000027
300.0000015
300.0000029
300.0000027
300.0000027
300.0000027
300.0000027
300.0000015
300.0000029
300.0000028
300.0000028
300.0000027
300.0000027
300.0000016
300.0000029
300.0000028
300.0000028
300.0000028
300.0000027
300.0000016
300.000003
300.0000028
300.0000028
300.0000028
300.0000027
300.0000016
300.000003
300.0000028
300.0000028
300.0000028
300.0000028
300.0000023
300.000003
300.0000027
300.0000027
300.0000028
300.0000029
300.0000024
300.0000032
300.0000029
300.0000029
300.0000029
300.000003
300.0000025
300.0000033
300.000003
300.000003
300.000003
300.0000031
300.0000025
300.0000034
300.0000031
300.0000031
300.0000031
300.0000032
300.0000025
300.0000035
300.0000032
300.0000032
300.0000032
300.0000032
300.0000026
300.0000035
300.0000033
300.0000032
300.0000032
300.0000032
300.0000026
300.0000036
300.0000033
300.0000033
300.0000032
300.0000032
300.0000026
300.0000037
300.0000034
300.0000033
300.0000033
300.0000032
300.0000026
300.0000037
300.0000035
300.0000034
300.0000033
300.0000032
300.0000027
300.0000038
300.0000036
300.0000034
300.0000033
300.0000032
300.0000027
300.0000039
300.0000036
300.0000035
300.0000034
300.0000033
300.0000028
300.000004
300.0000038
300.0000036
300.0000035
300.0000034
300.0000009
300.0000006
299.9999999
299.9999997
299.9999997
299.9999999
300.000001
300.0000008
300.0000002
299.9999999
299.9999999
300
300.0000009
300.0000008
300.0000003
300
299.9999998
299.9999998
300.0000008
300.0000007
300.0000002
299.9999999
299.9999997
299.9999996
300.0000006
300.0000006
300.0000001
299.9999998
299.9999995
299.9999993
300.0000005
300.0000003
299.9999999
299.9999996
299.9999993
299.9999991
300.0000003
300.0000001
299.9999997
299.9999995
299.9999993
299.9999991
300.0000001
300
299.9999996
299.9999995
299.9999994
299.9999992
300.0000001
300
299.9999996
299.9999995
299.9999994
299.9999994
300.0000001
300.0000001
299.9999997
299.9999996
299.9999995
299.9999995
300.0000002
300.0000003
300
299.9999999
299.9999998
299.9999998
300.0000006
300.0000009
300.0000006
300.0000004
300.0000003
300.0000004
299.9999988
299.9999969
299.999996
299.9999957
299.9999957
299.9999961
299.9999985
299.9999965
299.9999957
299.9999954
299.9999954
299.9999957
299.9999981
299.9999957
299.9999949
299.9999946
299.9999945
299.9999946
299.9999976
299.9999948
299.9999939
299.9999936
299.9999934
299.9999933
299.9999972
299.999994
299.9999929
299.9999925
299.9999922
299.999992
299.9999967
299.999993
299.9999918
299.9999914
299.9999911
299.999991
299.9999962
299.999992
299.9999907
299.9999904
299.9999903
299.9999904
299.9999958
299.9999911
299.9999898
299.9999897
299.9999899
299.9999902
299.9999954
299.9999905
299.9999893
299.9999894
299.9999897
299.9999902
299.9999953
299.9999904
299.9999893
299.9999894
299.9999898
299.9999903
299.9999956
299.9999911
299.9999901
299.9999902
299.9999905
299.9999909
299.9999963
299.9999926
299.9999918
299.9999919
299.999992
299.9999921
299.9999967
299.9999925
299.9999917
299.999992
299.9999925
299.9999934
299.9999962
299.9999914
299.9999905
299.9999909
299.9999916
299.9999924
299.9999956
299.9999898
299.9999887
299.9999891
299.9999897
299.9999903
299.9999948
299.9999882
299.9999869
299.9999871
299.9999876
299.9999879
299.9999941
299.9999868
299.999985
299.999985
299.9999853
299.9999855
299.9999935
299.9999853
299.999983
299.9999828
299.9999831
299.9999833
299.9999929
299.9999836
299.9999808
299.9999806
299.999981
299.9999814
299.9999923
299.999982
299.9999789
299.9999787
299.9999792
299.9999799
299.9999919
299.9999809
299.9999776
299.9999775
299.9999781
299.9999788
299.9999918
299.9999806
299.9999773
299.9999772
299.9999778
299.9999784
299.9999921
299.9999813
299.9999784
299.9999783
299.9999786
299.9999788
299.9999928
299.9999834
299.999981
299.9999808
299.9999806
299.9999801
299.9999954
299.9999884
299.9999869
299.9999876
299.999989
299.9999906
299.999995
299.999987
299.9999851
299.9999858
299.9999873
299.9999888
299.9999942
299.999985
299.9999826
299.9999832
299.9999845
299.9999858
299.9999931
299.9999828
299.99998
299.9999804
299.9999815
299.9999826
299.9999922
299.9999808
299.9999775
299.9999776
299.9999784
299.9999793
299.9999915
299.9999789
299.9999748
299.9999745
299.9999751
299.9999758
299.9999909
299.999977
299.999972
299.9999711
299.9999715
299.9999721
299.9999904
299.9999753
299.9999693
299.999968
299.9999683
299.9999687
299.9999902
299.999974
299.9999674
299.9999659
299.999966
299.9999661
299.9999902
299.9999736
299.9999668
299.9999651
299.999965
299.9999647
299.9999904
299.9999742
299.9999677
299.999966
299.9999655
299.9999646
299.999991
299.9999761
299.9999702
299.9999686
299.9999675
299.9999659
299.9999957
299.9999864
299.9999832
299.9999835
299.9999853
299.9999876
299.9999954
299.9999854
299.9999814
299.9999814
299.9999829
299.9999849
299.9999945
299.9999832
299.9999786
299.9999782
299.9999794
299.9999807
299.9999931
299.9999804
299.9999752
299.9999745
299.9999752
299.9999761
299.9999918
299.9999777
299.9999719
299.9999708
299.9999711
299.9999715
299.9999909
299.9999755
299.9999689
299.9999671
299.9999668
299.9999667
299.9999905
299.9999738
299.9999659
299.9999631
299.9999623
299.9999616
299.9999905
299.9999725
299.9999632
299.9999596
299.9999583
299.9999571
299.9999907
299.9999718
299.9999614
299.9999572
299.9999555
299.9999538
299.999991
299.9999716
299.9999607
299.9999561
299.999954
299.9999518
299.9999912
299.999972
299.9999611
299.9999564
299.9999539
299.9999512
299.9999915
299.9999732
299.999963
299.9999582
299.9999553
299.9999523
299.999999
299.9999882
299.9999823
299.9999809
299.9999822
299.9999848
299.9999989
299.9999875
299.9999808
299.9999789
299.9999796
299.9999815
299.9999977
299.9999853
299.999978
299.9999755
299.9999755
299.9999762
299.9999955
299.9999817
299.999974
299.999971
299.9999702
299.9999698
299.9999934
299.9999781
299.99997
299.9999664
299.9999647
299.9999633
299.9999921
299.9999756
299.9999666
299.9999622
299.9999596
299.9999572
299.9999921
299.9999744
299.9999641
299.9999585
299.999955
299.9999518
299.999993
299.9999742
299.9999622
299.9999556
299.9999515
299.9999477
299.9999944
299.9999748
299.9999611
299.9999536
299.999949
299.9999448
299.9999955
299.9999752
299.9999606
299.9999525
299.9999475
299.9999429
299.9999959
299.9999755
299.9999606
299.9999522
299.9999468
299.999942
299.9999958
299.9999758
299.9999616
299.999953
299.9999472
299.9999425
300.0000086
299.9999997
299.9999869
299.9999817
299.9999817
299.9999838
300.0000081
299.9999998
299.9999861
299.99998
299.9999792
299.9999803
300.0000058
299.9999969
299.9999831
299.9999765
299.9999746
299.9999742
300.0000018
299.9999909
299.9999778
299.9999713
299.9999682
299.999966
299.9999979
299.9999847
299.9999723
299.9999658
299.9999614
299.9999574
299.9999961
299.9999812
299.9999685
299.9999612
299.9999557
299.9999504
299.9999967
299.9999815
299.999967
299.9999582
299.9999518
299.9999456
299.9999994
299.999985
299.9999674
299.9999565
299.9999494
299.9999428
300.0000028
299.9999893
299.9999685
299.9999555
299.9999479
299.9999411
300.0000054
299.999992
299.999969
299.9999548
299.9999466
299.9999395
300.0000063
299.9999921
299.9999685
299.999954
299.9999454
299.9999383
300.0000058
299.9999905
299.9999678
299.9999537
299.999945
299.9999383
300.0000252
300.0000338
300.0000093
299.9999926
299.9999876
299.9999881
300.0000229
300.0000336
300.0000096
299.9999916
299.9999851
299.999984
300.000018
300.0000273
300.0000053
299.9999873
299.9999795
299.9999766
300.0000111
300.000015
299.9999955
299.9999793
299.9999711
299.9999665
300.0000051
300.0000029
299.9999853
299.9999709
299.9999625
299.9999561
300.0000023
299.9999971
299.99998
299.9999656
299.9999562
299.9999483
300.0000038
300
299.9999816
299.9999646
299.9999534
299.9999446
300.0000083
300.0000095
299.9999885
299.9999669
299.9999532
299.9999434
300.000014
300.0000207
299.9999964
299.99997
299.9999539
299.999943
300.0000183
300.000028
300.0000003
299.999971
299.9999536
299.9999422
300.0000203
300.0000296
299.9999992
299.9999693
299.9999519
299.999941
300.0000201
300.0000266
299.9999946
299.9999664
299.9999503
299.9999407
300.0000448
300.0000929
300.0000716
300.0000347
300.0000168
300.0000118
300.0000388
300.0000854
300.0000701
300.0000342
300.0000133
300.0000051
300.00003
300.0000692
300.0000585
300.0000264
300.0000037
299.9999923
300.0000201
300.0000471
300.0000372
300.0000095
299.999988
299.9999754
300.0000122
300.0000277
300.0000169
299.9999924
299.999973
299.9999603
300.0000091
300.0000192
300.000008
299.9999845
299.999965
299.9999514
300.0000114
300.0000244
300.0000141
299.999989
299.9999659
299.99995
300.0000175
300.0000396
300.0000309
300.0000023
299.9999732
299.9999538
300.0000248
300.0000573
300.0000495
300.0000163
299.9999817
299.999959
300.0000307
300.0000702
300.0000608
300.0000227
299.9999853
299.9999617
300.0000339
300.0000751
300.0000625
300.0000208
299.9999836
299.9999615
300.0000347
300.000074
300.0000569
300.000013
299.9999794
299.999961
300.0000615
300.0001559
300.0001705
300.0001384
300.0001051
300.0000892
300.0000507
300.0001355
300.0001549
300.0001287
300.0000948
300.000073
300.0000379
300.0001067
300.0001259
300.0001045
300.0000713
300.0000446
300.0000257
300.000075
300.0000882
300.0000691
300.0000371
300.000009
300.0000173
300.0000503
300.0000562
300.0000376
300.0000068
299.9999802
300.0000149
300.0000408
300.0000431
300.0000248
299.9999944
299.9999682
300.0000185
300.0000483
300.0000529
300.0000351
300.0000036
299.999974
300.0000259
300.0000678
300.0000787
300.0000609
300.0000272
299.9999926
300.0000343
300.0000902
300.0001074
300.0000888
300.0000521
300.0000136
300.0000412
300.0001075
300.0001274
300.0001062
300.0000664
300.0000269
300.0000457
300.0001168
300.0001347
300.0001102
300.0000685
300.0000318
300.0000483
300.0001198
300.0001334
300.0001055
300.0000642
300.0000333
300.0000721
300.0002058
300.0002699
300.0002667
300.000243
300.0002214
300.0000567
300.0001707
300.0002335
300.0002353
300.0002127
300.0001855
300.0000407
300.0001297
300.0001843
300.0001874
300.0001656
300.0001342
300.0000273
300.0000913
300.0001317
300.0001312
300.0001092
300.0000757
300.0000198
300.0000655
300.0000915
300.0000857
300.0000625
300.0000293
300.0000193
300.0000585
300.0000767
300.0000682
300.000044
300.0000123
300.000025
300.0000703
300.0000901
300.0000824
300.000059
300.0000277
300.0000341
300.0000937
300.0001223
300.0001179
300.0000954
300.0000612
300.0000435
300.0001191
300.0001578
300.0001569
300.0001339
300.0000949
300.0000512
300.0001396
300.0001847
300.000185
300.0001606
300.000121
300.0000572
300.0001537
300.0001997
300.0001979
300.0001729
300.0001367
300.0000618
300.0001631
300.0002067
300.0002019
300.0001775
300.0001491
300.0000765
300.0002351
300.0003459
300.0003855
300.0003814
300.0003613
300.0000578
300.0001873
300.0002876
300.0003291
300.0003264
300.0003046
300.0000398
300.0001371
300.00022
300.0002573
300.0002534
300.000228
300.0000263
300.0000955
300.0001571
300.0001837
300.0001759
300.0001471
300.0000201
300.0000723
300.0001155
300.0001286
300.0001168
300.0000853
300.0000223
300.000072
300.0001053
300.0001091
300.0000947
300.0000627
300.000031
300.0000912
300.0001257
300.0001279
300.0001135
300.0000823
300.0000424
300.0001202
300.0001641
300.0001712
300.0001584
300.0001283
300.000053
300.000149
300.0002048
300.0002185
300.0002076
300.000184
300.0000618
300.000173
300.0002378
300.0002557
300.0002454
300.0002225
300.0000691
300.0001922
300.000262
300.0002804
300.0002707
300.0002514
300.0000748
300.0002075
300.0002803
300.0002982
300.0002902
300.0002779
300.0000016
300.0000029
300.0000028
300.0000028
300.0000028
300.0000028
300.0000015
300.0000029
300.0000028
300.0000028
300.0000028
300.0000028
300.0000015
300.0000028
300.0000027
300.0000027
300.0000028
300.0000028
300.0000015
300.0000028
300.0000027
300.0000027
300.0000027
300.0000028
300.0000014
300.0000027
300.0000026
300.0000026
300.0000026
300.0000027
300.0000012
300.0000019
300.0000018
300.0000018
300.0000019
300.0000019
300.000003
300.0000042
300.0000039
300.0000038
300.0000037
300.0000036
300.0000031
300.0000043
300.000004
300.0000039
300.0000039
300.0000039
300.0000032
300.0000044
300.0000041
300.0000041
300.0000041
300.000004
300.0000033
300.0000045
300.0000042
300.0000042
300.0000042
300.0000041
300.0000033
300.0000045
300.0000042
300.0000042
300.0000041
300.000004
300.0000026
300.0000032
300.0000031
300.000003
300.0000029
300.0000028
300.0000011
300.0000016
300.0000013
300.0000012
300.0000011
300.0000011
300.0000016
300.0000024
300.0000021
300.000002
300.0000019
300.0000016
300.0000021
300.000003
300.0000027
300.0000026
300.0000023
300.0000019
300.0000024
300.0000034
300.0000031
300.0000028
300.0000024
300.0000018
300.0000026
300.0000035
300.0000032
300.0000029
300.0000023
300.0000016
300.0000021
300.0000024
300.0000021
300.0000018
300.0000013
300.0000008
299.9999973
299.9999947
299.9999942
299.9999942
299.999994
299.9999936
299.9999985
299.999997
299.9999967
299.9999965
299.9999958
299.9999947
299.9999995
299.9999988
299.9999985
299.999998
299.9999967
299.9999949
300.0000002
299.9999999
299.9999994
299.9999985
299.9999968
299.9999946
300.0000008
300.0000005
299.9999997
299.9999986
299.9999968
299.9999946
300.000001
300.0000005
299.9999998
299.999999
299.9999979
299.9999968
299.999994
299.9999864
299.9999847
299.9999843
299.9999835
299.9999821
299.9999954
299.9999898
299.9999886
299.9999878
299.9999861
299.9999837
299.9999967
299.9999925
299.9999914
299.9999902
299.9999876
299.9999843
299.9999977
299.9999943
299.9999929
299.9999911
299.9999881
299.9999845
299.9999986
299.9999956
299.9999938
299.9999918
299.999989
299.9999859
299.9999999
299.999998
299.9999968
299.9999957
299.9999945
299.9999933
299.999992
299.9999791
299.9999742
299.9999725
299.9999707
299.9999683
299.9999933
299.9999825
299.9999785
299.9999765
299.9999739
299.9999706
299.9999945
299.9999855
299.9999819
299.9999794
299.9999762
299.9999723
299.9999955
299.9999878
299.9999841
299.9999813
299.9999777
299.9999738
299.9999968
299.9999905
299.9999869
299.9999842
299.9999814
299.9999786
299.999999
299.999996
299.9999943
299.9999931
299.9999922
299.9999913
299.9999921
299.9999754
299.9999661
299.9999615
299.9999581
299.9999548
299.999993
299.9999782
299.9999699
299.9999653
299.9999615
299.9999579
299.999994
299.9999811
299.9999735
299.9999688
299.9999649
299.9999612
299.999995
299.9999841
299.9999772
299.9999726
299.9999689
299.9999659
299.9999964
299.9999885
299.9999832
299.9999796
299.9999772
299.9999754
299.9999987
299.9999956
299.9999938
299.9999927
299.9999921
299.9999918
299.9999956
299.999977
299.9999636
299.999955
299.9999492
299.9999448
299.9999958
299.999979
299.9999666
299.9999583
299.9999527
299.9999487
299.9999963
299.9999817
299.9999706
299.9999629
299.9999578
299.9999545
299.9999972
299.9999857
299.9999763
299.9999698
299.9999658
299.9999636
299.9999984
299.9999916
299.9999852
299.9999808
299.9999786
299.9999778
299.9999994
299.9999979
299.9999967
299.9999959
299.9999959
299.9999966
300.0000047
299.999989
299.999968
299.9999548
299.9999462
299.9999404
300.0000039
299.9999893
299.9999703
299.9999578
299.9999499
299.9999453
300.0000039
299.9999922
299.9999753
299.9999638
299.9999573
299.9999542
300.0000045
299.9999982
299.9999848
299.9999749
299.9999701
299.9999688
300.0000043
300.0000054
299.9999992
299.9999935
299.9999918
299.9999932
300.0000013
300.0000043
300.0000056
300.000006
300.0000072
300.0000094
300.0000187
300.0000221
299.9999911
299.9999651
299.9999506
299.9999428
300.0000175
300.0000203
299.9999919
299.9999683
299.9999555
299.9999497
300.0000169
300.0000232
300.0000001
299.9999792
299.9999684
299.9999652
300.0000162
300.00003
300.000018
300.0000024
299.9999954
299.9999959
300.0000125
300.0000312
300.0000349
300.0000316
300.0000316
300.0000365
300.0000036
300.0000131
300.0000199
300.0000236
300.000027
300.0000306
300.0000342
300.0000702
300.0000505
300.0000078
299.9999785
299.9999645
300.0000333
300.0000684
300.0000505
300.0000122
299.9999876
299.9999783
300.0000323
300.0000706
300.0000625
300.0000344
300.0000151
300.0000112
300.0000294
300.0000723
300.0000811
300.0000717
300.0000654
300.0000689
300.0000209
300.0000599
300.000082
300.0000906
300.0000971
300.0001057
300.0000058
300.0000222
300.0000356
300.0000439
300.0000501
300.0000549
300.0000494
300.00012
300.0001302
300.0001016
300.0000638
300.0000409
300.0000495
300.0001206
300.0001329
300.0001091
300.0000804
300.0000679
300.000048
300.0001217
300.0001444
300.0001348
300.0001224
300.0001217
300.0000422
300.0001156
300.0001527
300.0001623
300.0001665
300.0001751
300.0000285
300.0000869
300.0001285
300.0001517
300.000167
300.0001791
300.0000078
300.0000302
300.0000496
300.0000626
300.0000713
300.0000768
300.0000646
300.0001694
300.0002117
300.0002062
300.0001858
300.0001692
300.0000652
300.0001729
300.0002198
300.0002205
300.0002092
300.000205
300.0000621
300.0001711
300.0002284
300.0002437
300.0002474
300.0002548
300.0000523
300.0001535
300.0002208
300.0002537
300.0002719
300.0002862
300.0000334
300.0001071
300.0001668
300.0002051
300.0002291
300.0002436
300.0000088
300.0000352
300.0000595
300.0000767
300.0000879
300.0000938
300.0000778
300.0002173
300.0002954
300.000316
300.0003126
300.0003068
300.0000769
300.0002196
300.0003057
300.0003367
300.0003446
300.0003501
300.0000703
300.0002089
300.000305
300.0003512
300.0003726
300.0003863
300.000056
300.0001755
300.0002723
300.0003321
300.0003665
300.0003856
300.0000336
300.0001137
300.0001876
300.0002409
300.0002745
300.0002916
300.0000083
300.0000353
300.0000626
300.0000836
300.0000974
300.0001042
300.0000014
300.0000014
300.0000016
300.0000038
300.0000027
300.0000027
300.0000028
300.0000047
300.0000025
300.0000025
300.0000027
300.0000046
300.0000025
300.0000025
300.0000027
300.0000046
300.0000025
300.0000025
300.0000026
300.0000046
300.0000025
300.0000025
300.0000027
300.0000047
300.0000023
300.0000025
300.0000027
300.0000053
300.0000031
300.0000033
300.0000036
300.000006
300.0000028
300.000003
300.0000033
300.0000056
300.0000027
300.0000029
300.0000033
300.0000056
300.0000028
300.000003
300.0000034
300.0000059
300.0000029
300.0000032
300.0000036
300.0000063
300.0000004
300.0000008
300.0000012
300.0000047
299.9999998
300.0000005
300.0000012
300.0000043
299.9999992
300
300.0000008
300.0000039
299.9999993
300.0000001
300.000001
300.0000044
299.9999997
300.0000006
300.0000017
300.0000055
300.0000002
300.0000012
300.0000024
300.0000065
299.999998
299.9999984
300.0000006
299.9999948
299.9999958
299.9999984
299.9999939
299.9999953
299.9999983
299.9999946
299.9999962
299.9999995
299.9999959
299.9999976
300.0000014
299.9999969
299.9999988
300.0000027
299.9999965
299.9999967
299.9999978
299.9999912
299.9999921
299.9999938
299.9999903
299.9999917
299.9999941
299.9999914
299.9999932
299.9999965
299.9999934
299.9999955
299.9999996
299.9999948
299.9999971
300.0000015
299.999996
299.9999957
299.9999957
299.9999893
299.9999895
299.9999895
299.9999882
299.9999892
299.9999898
299.9999897
299.9999913
299.9999929
299.9999919
299.9999941
299.9999969
299.999993
299.9999956
299.999999
299.9999961
299.9999961
299.9999883
299.9999887
299.9999859
299.9999869
299.999987
299.9999886
299.9999899
299.999992
299.9999911
299.9999939
299.9999882
299.9999893
299.9999851
299.9999848
299.9999874
299.9999859
300.00001
300.0000064
300.0000925
300.0000862
300.0002209
300.0002016
300.0000025
300.0000026
300.0000027
300.0000048
300.0000026
300.0000026
300.0000028
300.000005
300.0000027
300.0000027
300.0000029
300.0000052
300.0000027
300.0000028
300.000003
300.0000053
300.0000027
300.0000028
300.000003
300.0000053
300.0000027
300.0000028
300.000003
300.0000053
300.0000027
300.0000028
300.0000029
300.0000051
300.0000027
300.0000027
300.0000029
300.0000049
300.0000027
300.0000027
300.0000027
300.0000024
300.0000045
300.0000045
300.0000046
300.0000047
300.0000048
300.0000049
300.000007
300.0000027
300.0000027
300.0000027
300.0000026
300.0000027
300.0000028
300.0000028
300.0000028
300.0000028
300.0000027
300.0000025
300.0000044
300.0000027
300.0000027
300.0000027
300.0000026
300.0000026
300.0000026
300.0000027
300.0000027
300.0000026
300.0000026
300.0000025
300.0000026
300.0000027
300.0000027
300.0000027
300.0000026
300.0000026
300.0000026
300.0000026
300.0000026
300.0000026
300.0000026
300.0000025
300.0000025
300.0000031
300.0000033
300.0000038
300.0000066
300.0000032
300.0000034
300.0000038
300.0000066
300.0000032
300.0000034
300.0000037
300.0000064
300.0000032
300.0000033
300.0000036
300.0000062
300.0000032
300.0000033
300.0000035
300.0000061
300.0000032
300.0000032
300.0000035
300.000006
300.0000032
300.0000032
300.0000035
300.0000059
300.0000032
300.0000033
300.0000035
300.0000057
300.0000032
300.0000033
300.0000033
300.000003
300.0000056
300.0000057
300.0000058
300.0000057
300.0000056
300.0000057
300.0000084
300.0000032
300.0000032
300.0000033
300.0000033
300.0000034
300.0000034
300.0000033
300.0000031
300.000003
300.0000028
300.0000026
300.0000052
300.0000032
300.0000032
300.0000033
300.0000033
300.0000032
300.0000031
300.000003
300.0000028
300.0000028
300.0000026
300.0000025
300.0000026
300.0000034
300.0000033
300.0000033
300.0000032
300.0000031
300.000003
300.0000028
300.0000027
300.0000027
300.0000027
300.0000026
300.0000026
300.0000004
300.0000013
300.0000025
300.0000068
300.0000004
300.000001
300.0000018
300.0000059
300
300.0000003
300.0000006
300.0000027
299.9999996
299.9999995
299.9999994
300.0000014
299.9999991
299.999999
299.9999988
300.0000007
299.999999
299.9999989
299.9999988
300.0000009
299.9999991
299.9999992
299.9999993
300.0000014
299.9999993
299.9999995
299.9999998
300.0000018
299.9999995
299.9999998
300.0000002
299.9999997
300.000002
300.0000015
300.0000007
300.0000001
299.9999996
299.9999998
300.0000027
299.9999997
300
300.0000003
300.0000004
300.0000002
299.9999996
299.9999988
299.9999981
299.9999978
299.9999977
299.9999975
300
300
300.0000002
300.0000004
300.0000003
300
299.9999994
299.9999987
299.9999982
299.9999979
299.9999979
299.9999978
299.9999978
300.0000005
300.0000005
300.0000005
300.0000003
299.9999999
299.9999994
299.9999988
299.9999984
299.9999983
299.9999983
299.9999982
299.999998
299.9999971
299.9999988
300.0000026
299.9999964
299.9999975
300.0000006
299.9999949
299.9999951
299.9999948
299.9999987
299.9999932
299.9999928
299.9999915
299.999992
299.9999917
299.999991
299.9999892
299.999989
299.9999908
299.9999902
299.9999884
299.9999882
299.9999905
299.9999901
299.9999889
299.9999889
299.9999905
299.9999906
299.99999
299.9999904
299.9999907
299.9999911
299.9999912
299.9999899
299.9999907
299.9999886
299.999987
299.9999865
299.9999871
299.9999882
299.9999911
299.9999909
299.9999914
299.9999916
299.9999913
299.9999901
299.9999885
299.999987
299.9999866
299.9999871
299.9999879
299.9999878
299.9999899
299.9999914