-1.25 	299.997030943589 	0.9998162080949734 	101325
-1.247497497497497 	299.9941697018683 	0.9873339726923127 	101318.1164156119
-1.244994994994995 	299.988530497348 	0.966848947809561 	101311.4502606568
-1.242492492492492 	299.9830890526089 	0.9511260112090234 	101305.0096118797
-1.23998998998999 	299.9779472907774 	0.9362609367270917 	101298.9319984472
-1.237487487487487 	299.9732096140182 	0.9225698507902182 	101293.3323805383
-1.234984984984985 	299.9689636740917 	0.910299230028583 	101288.314052251
-1.232482482482482 	299.9652874577105 	0.899675189237196 	101283.9693409625
-1.22997997997998 	299.9622479202061 	0.8908921288682781 	101280.3772425263
-1.227477477477477 	299.9599015449674 	0.8841122845348153 	101277.6042351283
-1.224974974974975 	299.9582918583731 	0.879461491308603 	101275.70186202
-1.222472472472472 	299.9574479593338 	0.8770240680694734 	101274.704500693
-1.21996996996997 	299.9573840848786 	0.876842769156405 	101274.6292657828
-1.217467467467467 	299.9581021807829 	0.8789206599111309 	101275.4778289789
-1.214964964964965 	299.9595892085112 	0.8832190936916636 	101277.234618879
-1.212462462462462 	299.9618158733618 	0.8896566953618043 	101279.8659085594
-1.20995995995996 	299.9647411568874 	0.8981138072332302 	101283.3229995038
-1.207457457457457 	299.968311464154 	0.9084348171511069 	101287.54249013
-1.204954954954955 	299.9724607996459 	0.9204295924909551 	101292.4465691316
-1.202452452452452 	299.9771132018203 	0.9338780889637663 	101297.9453829103
-1.19994994994995 	299.9821835780696 	0.9485343482340012 	101303.9385177156
-1.197447447447447 	299.9875790607018 	0.9641298230134013 	101310.3161801758
-1.194944944944945 	299.9932007085822 	0.9803788306604706 	101316.9614624029
-1.192442442442442 	299.9989459451182 	0.9969849345977659 	101323.7532287359
-1.18993993993994 	300.0047101172626 	1.013645201110389 	101330.5677035983
-1.187437437437437 	300.010387516077 	1.030054512440139 	101337.2799513375
-1.184934934934935 	300.0158742289556 	1.045912562815323 	101343.7670104307
-1.182432432432432 	300.0210703278097 	1.060930527762243 	101349.9107618153
-1.17992992992993 	300.0258813898517 	1.074835213442817 	101355.5995158686
-1.177427427427427 	300.030219496291 	1.087372672387926 	101360.7292401421
-1.174924924924925 	300.0340050917003 	1.098313125405854 	101365.2058273434
-1.172422422422422 	300.037168762961 	1.107455796515999 	101368.9470334
-1.16991991991992 	300.0396523983749 	1.114633329126864 	101371.8842152658
-1.167417417417417 	300.041410976345 	1.119715298214871 	101373.9640509244
-1.164914914914915 	300.0424128080587 	1.1226095058312 	101375.1488377684
-1.162412412412412 	300.0426396009811 	1.123261888766353 	101375.4166599236
-1.15990990990991 	300.0420849039402 	1.12165666008184 	101374.7605773208
-1.157407407407407 	300.0407573370252 	1.117820302746434 	101373.1911712443
-1.154904904904904 	300.0386824770023 	1.111823011329601 	101370.7377814046
-1.152402402402403 	300.0358979327635 	1.103773705610057 	101367.4449163079
-1.1498998998999 	300.032453597469 	1.093817867304091 	101363.3720307635
-1.147397397397397 	300.0284122698944 	1.082136313365223 	101358.5932057295
-1.144894894894895 	300.0238474509782 	1.068941924662639 	101353.1955558299
-1.142392392392392 	300.0188426049053 	1.054475740192605 	101347.277889835
-1.13988988988989 	300.0134891997862 	1.039002241069052 	101340.9482802613
-1.137387387387387 	300.007885629465 	1.022805950591446 	101334.3232127186
-1.134884884884885 	300.0021356208256 	1.006186161835458 	101327.5253044117
-1.132382382382382 	299.9963453703431 	0.9894503783526318 	101320.6801706076
-1.12987987987988 	299.9906224255299 	0.9729087547313875 	101313.9149042788
-1.127377377377377 	299.9850723513967 	0.9568666501974232 	101307.3542752292
-1.124874874874875 	299.9797972417242 	0.9416200854449197 	101301.119002628
-1.122372372372372 	299.9748954466654 	0.9274520350276867 	101295.3251596585
-1.11986986986987 	299.9704573118316 	0.9146243314681864 	101290.0795957957
-1.117367367367367 	299.9665646313098 	0.9033733841375334 	101285.4787227662
-1.114864864864865 	299.9632892733064 	0.8939063765072691 	101281.6076308683
-1.112362362362362 	299.9606901761952 	0.8863947766545454 	101278.5359911901
-1.10985985985986 	299.9588142663247 	0.8809739636061825 	101276.3190530506
-1.107357357357357 	299.9576954672426 	0.8777408180091246 	101274.9968964795
-1.104854854854855 	299.9573517975219 	0.8767496597864514 	101274.5909232213
-1.102352352352353 	299.9577893819055 	0.8780173204579365 	101275.1082151501
-1.09984984984985 	299.9590014817057 	0.8815202524756742 	101276.5402537814
-1.097347347347347 	299.9609622247322 	0.8871879017271304 	101278.8571027131
-1.094844844844845 	299.9636340227797 	0.8949126201053803 	101282.0146414916
-1.092342342342342 	299.9669691372727 	0.9045528202232078 	101285.956171433
-1.08983983983984 	299.9709042744871 	0.915928104393004 	101290.6070117938
-1.087337337337337 	299.9753674785032 	0.9288308621508223 	101295.8821411421
-1.084834834834835 	299.9802801297309 	0.9430301871931945 	101301.6887455417
-1.082332332332332 	299.9855505295793 	0.958263317561825 	101307.9184372811
-1.07982982982983 	299.991080929393 	0.9742504161159486 	101314.4557806
-1.077327327327327 	299.9967748189026 	0.9907076568899578 	101321.1867303002
-1.074824824824825 	300.0025279487801 	1.00733414840445 	101327.9879628414
-1.072322322322323 	300.0082315579284 	1.023821402747529 	101334.7310945315
-1.06981981981982 	300.0137866188755 	1.039878108146246 	101341.2988413573
-1.067317317317317 	300.0190946805912 	1.055216261981708 	101347.5748425908
-1.064814814814815 	300.0240520859322 	1.069544388532425 	101353.4366179712
-1.062312312312312 	300.0285696446531 	1.082604071270818 	101358.778383948
-1.05980980980981 	300.0325730927714 	1.094171903355246 	101363.5125170329
-1.057307307307307 	300.0359841803188 	1.104026068843011 	101367.5463027473
-1.054804804804805 	300.0387325338963 	1.111972384290747 	101370.7964064809
-1.052302302302302 	300.0407776282283 	1.117884732663638 	101373.2150084327
-1.0497997997998 	300.0420880501637 	1.121664036162349 	101374.764771354
-1.047297297297297 	300.0426240885623 	1.123208617802215 	101375.3984811698
-1.044794794794795 	300.0423699431019 	1.122478999268434 	101375.0975677398
-1.042292292292292 	300.0413467301613 	1.119521679347342 	101373.8878585542
-1.03978978978979 	300.0395740428028 	1.114387318307376 	101371.7919503508
-1.037287287287287 	300.0370592860776 	1.107117955468536 	101368.8182055905
-1.034784784784785 	300.0338484536804 	1.097849636152608 	101365.0213187693
-1.032282282282283 	300.0300304720495 	1.086812608383061 	101360.5065541038
-1.02977977977978 	300.0256719149705 	1.074197810403347 	101355.3527990245
-1.027277277277277 	300.0208132505894 	1.060153970459498 	101349.6078179551
-1.024774774774775 	300.0155444162834 	1.044945595196274 	101343.3781419136
-1.022272272272272 	300.0100123600359 	1.028959526267589 	101336.837526016
-1.01976976976977 	300.0043271949387 	1.012502811007864 	101330.1161527605
-1.017267267267267 	299.998534840748 	0.9957506215276755 	101323.2684307096
-1.014764764764765 	299.9927192312084 	0.978968707680784 	101316.3935006641
-1.012262262262262 	299.9870558799738 	0.9626219644584378 	101309.6988633211
-1.00975975975976 	299.9817039524826 	0.9471287772397763 	101303.3726520207
-1.007257257257257 	299.9767020869199 	0.9326337414980197 	101297.4604929629
-1.004754754754755 	299.9720502145867 	0.9191989734435537 	101291.9622231758
-1.002252252252252 	299.9678628001909 	0.907147433632663 	101287.0130640737
-0.9997497497497498 	299.9643447699061 	0.8969962628885967 	101282.8551994916
-0.9972472472472473 	299.9616002042794 	0.8890127742959715 	101279.611539828
-0.9947447447447449 	299.9595491452863 	0.8830304129370726 	101277.1875063644
-0.9922422422422421 	299.9580924539802 	0.8788417082762567 	101275.465956968
-0.9897397397397399 	299.9573108865935 	0.8766632503392924 	101274.5423959111
-0.9872372372372376 	299.9574178109763 	0.8770138576659464 	101274.6692429283
-0.9847347347347346 	299.958506270779 	0.8801007262500272 	101275.9552693932
-0.9822322322322323 	299.9603997478681 	0.885477768911891 	101278.1924616707
-0.9797297297297296 	299.9628179468605 	0.8924494555332925 	101281.0501752358
-0.9772272272272275 	299.9656705887498 	0.9007849471178659 	101284.4214947904
-0.9747247247247248 	299.9691356744915 	0.9109093879557197 	101288.5167014031
-0.9722222222222224 	299.9734261465839 	0.9233225858001043 	101293.5875542945
-0.9697197197197196 	299.978488848444 	0.93785063432629 	101299.5714251583
-0.9672172172172175 	299.983954643905 	0.9535240543693203 	101306.0319929038
-0.9647147147147147 	299.9893982779673 	0.9692336996706556 	101312.466699778
-0.9622122122122124 	299.9946574174757 	0.9845395941276605 	101318.683665044
-0.9597097097097099 	299.9999117829119 	0.9998755738735005 	101324.895122939
-0.9572072072072073 	300.0054568049808 	1.015972900554294 	101331.4505150728
-0.9547047047047047 	300.0113759391146 	1.033013605419387 	101338.4485831481
-0.9522022022022023 	300.0173830722107 	1.050217930203902 	101345.5510114706
-0.9496996996996998 	300.0229520904113 	1.066177440794288 	101352.1358711535
-0.9471971971971973 	300.0276229575648 	1.079656046683415 	101357.6590000955
-0.9446946946946947 	300.0312584818514 	1.090272084069878 	101361.9580057208
-0.9421921921921923 	300.0340858970459 	1.098615271791479 	101365.3015680874
-0.93968968968969 	300.0365139307912 	1.105765842819057 	101368.1727961121
-0.9371871871871872 	300.0388565070845 	1.112559118340461 	101370.9430435503
-0.9346846846846848 	300.041133581576 	1.11904388534215 	101373.6359704147
-0.9321821821821823 	300.0430456130227 	1.124402220572896 	101375.8971568075
-0.9296796796796799 	300.0441085504343 	1.127308291124425 	101377.1540674966
-0.9271771771771771 	300.0438626170031 	1.126494308510442 	101376.8621088304
-0.9246746746746748 	300.0420493785243 	1.121254881808703 	101374.7183114573
-0.9221721721721724 	300.03871252998 	1.11170497497801 	101370.7732480554
-0.9196696696696698 	300.0341716747874 	1.098727970015873 	101365.4037087819
-0.9171671671671672 	300.0289151823181 	1.083692376653005 	101359.1879233006
-0.9146646646646649 	300.0234721194715 	1.06809047560947 	101352.751761783
-0.9121621621621623 	300.0183010547648 	1.05322729101455 	101346.6374618962
-0.9096596596596597 	300.0137251304803 	1.040033303773998 	101341.2270539875
-0.9071571571571573 	300.0099157048282 	1.029011850444162 	101336.7230645306
-0.9046546546546547 	300.0069111564567 	1.020287573763851 	101333.1707906134
-0.9021521521521524 	300.0046541251377 	1.013709086827536 	101330.5023539092
-0.8996496496496498 	300.0030325096905 	1.008964222586397 	101328.5851792955
-0.8971471471471473 	300.0019143842633 	1.005679581357111 	101327.2632726851
-0.894644644644645 	300.0011723834412 	1.003491089236962 	101326.3860444828
-0.892142142142142 	300.0006973288051 	1.002084265110315 	101325.8244138188
-0.8896396396396397 	300.0004032825789 	1.001209938997508 	101325.4767794926
-0.8871371371371374 	300.0002270001218 	1.000683642983084 	101325.2683705667
-0.8846346346346349 	300.0001244787689 	1.000376318269618 	101325.1471651202
-0.8821321321321324 	300.0000665571353 	1.000201983738459 	101325.0786873775
-0.8796296296296297 	300.0000347275633 	1.000105794003124 	101325.0410568588
-0.8771271271271271 	300.000017695383 	1.000054114483278 	101325.0209205331
-0.8746246246246248 	300.0000088116324 	1.000027050578954 	101325.0104176619
-0.8721221221221224 	300.0000042908908 	1.000013223104367 	101325.0050729757
-0.8696196196196196 	300.0000020445565 	1.000006324847313 	101325.0024172256
-0.8671171171171175 	300.0000009538134 	1.000002961942577 	101325.0011276759
-0.8646146146146148 	300.0000004358761 	1.000001358784952 	101325.0005153474
-0.8621121121121121 	300.0000001952267 	1.000000610931647 	101325.0002308271
-0.8596096096096097 	300.0000000857519 	1.000000269341628 	101325.0001013802
-0.857107107107107 	300.0000000369427 	1.000000116493393 	101325.0000436815
-0.8546046046046049 	300.0000000156255 	1.000000049452179 	101325.0000184713
-0.8521021021021022 	300.0000000065004 	1.000000020612199 	101325.0000076682
-0.8495995995995997 	300.0000000026609 	1.000000008439767 	101325.0000031261
-0.8470970970970974 	300.0000000010523 	1.000000003396407 	101325.0000012516
-0.8445945945945946 	300.0000000003925 	1.000000001344117 	101325.0000004918
-0.8420920920920922 	300.0000000001662 	1.000000000523612 	101325.0000001887
-0.8395895895895897 	300.0000000000824 	1.000000000206717 	101325.0000000697
-0.8370870870870872 	300.0000000000293 	1.000000000075772 	101325.0000000237
-0.8345845845845846 	300.000000000005 	1.000000000027026 	101325.0000000067
-0.8320820820820823 	299.9999999999885 	1.000000000012004 	101325.0000000006
-0.8295795795795798 	299.9999999999677 	1.000000000005303 	101324.9999999982
-0.8270770770770772 	299.9999999999676 	1.000000000002891 	101324.9999999971
-0.8245745745745746 	299.9999999999689 	1.000000000002117 	101324.999999997
-0.8220720720720721 	299.9999999999844 	1.000000000001411 	101324.9999999972
-0.8195695695695699 	299.9999999999931 	1.000000000000988 	101324.9999999972
-0.817067067067067 	299.9999999999876 	1.000000000006161 	101324.9999999971
-0.8145645645645651 	299.9999999999582 	0.9999999999986541 	101324.9999999969
-0.8120620620620621 	299.9999999999776 	0.9999999999975338 	101324.9999999966
-0.8095595595595597 	300.0000000000015 	1.000000000001293 	101324.9999999962
-0.8070570570570572 	299.999999999994 	1.000000000002007 	101324.9999999958
-0.8045545545545546 	299.9999999999598 	1.000000000002088 	101324.9999999961
-0.8020520520520523 	299.9999999999852 	1.000000000001644 	101324.9999999968
-0.7995495495495494 	300.0000000000046 	1.000000000006379 	101324.9999999966
-0.7970470470470474 	299.9999999999881 	0.9999999999981847 	101324.9999999961
-0.7945445445445446 	299.9999999999925 	0.9999999999994278 	101324.9999999962
-0.7920420420420423 	300.0000000000052 	0.9999999999992918 	101324.9999999962
-0.7895395395395397 	300.0000000000141 	1.000000000002263 	101324.9999999967
-0.7870370370370371 	299.9999999999991 	0.9999999999995557 	101324.999999997
-0.7845345345345348 	299.9999999999959 	0.9999999999991009 	101324.999999997
-0.7820320320320323 	300.0000000000007 	1.000000000000154 	101324.9999999966
-0.7795295295295296 	299.9999999999785 	1.000000000005822 	101324.9999999964
-0.7770270270270272 	299.9999999999682 	0.9999999999984033 	101324.9999999962
-0.7745245245245247 	299.9999999999653 	0.9999999999971866 	101324.999999996
-0.7720220220220222 	299.9999999999733 	0.9999999999997415 	101324.9999999959
-0.7695195195195199 	299.9999999999628 	1.000000000000743 	101324.999999996
-0.767017017017017 	299.9999999999691 	1.00000000000131 	101324.9999999963
-0.7645145145145147 	299.9999999999903 	1.000000000001497 	101324.9999999966
-0.7620120120120122 	299.9999999999949 	1.000000000000447 	101324.9999999965
-0.7595095095095097 	299.9999999999807 	1.000000000008523 	101324.9999999962
-0.7570070070070072 	299.9999999999575 	0.9999999999968199 	101324.9999999954
-0.7545045045045048 	299.9999999999686 	1.000000000001445 	101324.9999999952
-0.7520020020020022 	299.9999999999601 	0.9999999999981284 	101324.9999999958
-0.7494994994994997 	299.9999999999734 	1.000000000000161 	101324.9999999967
-0.7469969969969972 	299.9999999999867 	0.999999999998692 	101324.999999997
-0.7444944944944945 	299.9999999999763 	0.9999999999989806 	101324.9999999969
-0.7419919919919924 	299.9999999999878 	1.000000000000528 	101324.9999999964
-0.7394894894894897 	299.9999999999673 	0.9999999999996128 	101324.9999999958
-0.7369869869869872 	299.9999999999753 	0.9999999999985268 	101324.9999999957
-0.7344844844844846 	299.9999999999808 	0.9999999999982047 	101324.9999999961
-0.7319819819819822 	299.9999999999986 	1.000000000004035 	101324.9999999962
-0.7294794794794797 	300.0000000000076 	0.9999999999968531 	101324.9999999958
-0.7269769769769773 	300.0000000000071 	0.9999999999967341 	101324.9999999953
-0.7244744744744747 	300.000000000002 	0.9999999999997066 	101324.999999995
-0.721971971971972 	299.999999999982 	0.9999999999999115 	101324.9999999955
-0.7194694694694695 	299.9999999999814 	0.9999999999994251 	101324.9999999957
-0.7169669669669674 	299.9999999999692 	0.9999999999989548 	101324.9999999958
-0.7144644644644647 	299.9999999999919 	0.9999999999982221 	101324.9999999962
-0.711961961961962 	300.0000000000076 	0.9999999999972 	101324.9999999965
-0.7094594594594597 	300.0000000000043 	0.9999999999999443 	101324.9999999961
-0.7069569569569573 	299.9999999999939 	0.9999999999969131 	101324.9999999959
-0.7044544544544545 	299.9999999999998 	0.9999999999978306 	101324.9999999961
-0.7019519519519523 	300.0000000000036 	0.9999999999994171 	101324.9999999961
-0.6994494494494495 	299.9999999999783 	0.999999999999547 	101324.9999999959
-0.6969469469469471 	299.9999999999844 	0.9999999999991532 	101324.9999999959
-0.6944444444444446 	299.9999999999968 	0.9999999999984227 	101324.9999999962
-0.6919419419419421 	300.0000000000104 	0.9999999999980408 	101324.9999999959
-0.6894394394394396 	299.9999999999854 	0.9999999999981017 	101324.9999999955
-0.6869369369369374 	299.9999999999905 	0.9999999999980322 	101324.9999999958
-0.6844344344344344 	299.9999999999964 	0.9999999999981408 	101324.9999999957
-0.6819319319319321 	299.9999999999717 	0.9999999999976774 	101324.9999999953
-0.6794294294294296 	299.9999999999767 	0.9999999999977952 	101324.9999999953
-0.6769269269269272 	299.999999999966 	0.9999999999978832 	101324.9999999955
-0.6744244244244245 	299.9999999999867 	0.9999999999979846 	101324.9999999954
-0.6719219219219222 	299.9999999999665 	0.999999999998249 	101324.9999999954
-0.6694194194194195 	299.9999999999892 	0.9999999999982059 	101324.9999999954
-0.6669169169169172 	300.0000000000014 	0.9999999999978499 	101324.9999999956
-0.6644144144144146 	299.9999999999982 	0.9999999999976961 	101324.9999999958
-0.661911911911912 	299.9999999999963 	0.999999999997475 	101324.999999996
-0.6594094094094097 	299.9999999999795 	0.9999999999980855 	101324.9999999964
-0.656906906906907 	299.9999999999748 	0.9999999999990844 	101324.9999999966
-0.6544044044044046 	299.9999999999562 	0.999999999998743 	101324.9999999965
-0.6519019019019021 	299.9999999999663 	0.9999999999980831 	101324.9999999963
-0.6493993993993996 	299.9999999999964 	0.9999999999971101 	101324.9999999962
-0.6468968968968971 	300.0000000000048 	1.0000000000026 	101324.9999999963
-0.6443943943943946 	300.0000000000121 	0.9999999999946619 	101324.9999999964
-0.6418918918918921 	300.0000000000162 	0.9999999999956276 	101324.9999999963
-0.6393893893893897 	300.0000000000165 	0.9999999999984283 	101324.9999999963
-0.6368868868868871 	300.0000000000134 	0.9999999999984382 	101324.9999999966
-0.6343843843843846 	300.0000000000128 	0.9999999999985265 	101324.9999999968
-0.6318818818818821 	299.999999999987 	0.9999999999992124 	101324.9999999967
-0.6293793793793795 	299.9999999999928 	0.9999999999996244 	101324.9999999962
-0.6268768768768773 	299.9999999999977 	1.000000000000646 	101324.9999999962
-0.6243743743743745 	299.9999999999762 	1.000000000003806 	101324.9999999963
-0.6218718718718721 	299.9999999999846 	0.9999999999987152 	101324.9999999965
-0.6193693693693696 	299.999999999974 	0.9999999999987735 	101324.999999997
-0.6168668668668671 	299.999999999992 	0.999999999999891 	101324.9999999968
-0.6143643643643645 	300.0000000000013 	0.9999999999995978 	101324.9999999964
-0.6118618618618621 	300.0000000000119 	0.9999999999996988 	101324.9999999961
-0.6093593593593596 	300.0000000000186 	0.9999999999994261 	101324.999999996
-0.6068568568568571 	299.9999999999875 	0.9999999999987047 	101324.9999999961
-0.6043543543543546 	299.9999999999827 	0.9999999999985947 	101324.9999999963
-0.6018518518518521 	299.9999999999737 	0.9999999999990054 	101324.9999999963
-0.5993493493493496 	299.9999999999869 	0.9999999999994029 	101324.9999999964
-0.5968468468468471 	299.9999999999927 	0.9999999999996153 	101324.9999999963
-0.5943443443443446 	299.9999999999927 	0.9999999999995122 	101324.9999999964
-0.591841841841842 	299.9999999999674 	0.9999999999994285 	101324.9999999966
-0.5893393393393397 	299.9999999999707 	0.9999999999994369 	101324.9999999967
-0.5868368368368371 	299.999999999991 	0.9999999999982302 	101324.9999999965
-0.5843343343343346 	300.0000000000143 	1.000000000002834 	101324.9999999968
-0.5818318318318321 	300.0000000000196 	0.9999999999934469 	101324.9999999968
-0.5793293293293297 	299.9999999999866 	0.9999999999947483 	101324.9999999969
-0.5768268268268271 	299.9999999999903 	0.9999999999978008 	101324.9999999968
-0.5743243243243245 	299.9999999999999 	0.9999999999983638 	101324.9999999965
-0.5718218218218221 	299.9999999999965 	0.9999999999979212 	101324.9999999959
-0.5693193193193196 	300.0000000000115 	0.9999999999979368 	101324.9999999955
-0.5668168168168171 	300.0000000000069 	0.9999999999985295 	101324.9999999955
-0.5643143143143147 	299.9999999999689 	0.999999999998371 	101324.9999999957
-0.5618118118118121 	299.999999999994 	1.000000000001556 	101324.9999999961
-0.5593093093093094 	300.0000000000055 	0.9999999999976954 	101324.999999996
-0.5568068068068072 	300.0000000000025 	0.9999999999990524 	101324.999999996
-0.5543043043043046 	300.0000000000036 	1.00000000000153 	101324.9999999964
-0.551801801801802 	299.9999999999711 	1.000000000001029 	101324.9999999966
-0.5492992992992995 	299.9999999999876 	1.000000000000118 	101324.9999999965
-0.5467967967967969 	300.0000000000035 	1.00000000000022 	101324.9999999958
-0.5442942942942947 	300.0000000000102 	1.000000000000646 	101324.9999999957
-0.5417917917917919 	299.9999999999717 	1.000000000001277 	101324.9999999959
-0.5392892892892895 	299.9999999999681 	1.000000000001285 	101324.9999999959
-0.536786786786787 	299.999999999971 	1.000000000000512 	101324.9999999961
-0.5342842842842846 	299.9999999999688 	0.9999999999994642 	101324.9999999964
-0.531781781781782 	299.9999999999502 	0.9999999999987979 	101324.9999999964
-0.5292792792792794 	299.9999999999555 	0.9999999999985896 	101324.9999999963
-0.526776776776777 	299.9999999999661 	0.9999999999988055 	101324.9999999961
-0.5242742742742745 	299.9999999999739 	0.9999999999993634 	101324.9999999958
-0.521771771771772 	299.999999999991 	1.000000000005895 	101324.9999999962
-0.5192692692692695 	299.9999999999906 	0.9999999999956999 	101324.9999999965
-0.516766766766767 	299.999999999996 	0.9999999999998832 	101324.9999999964
-0.5142642642642645 	299.9999999999669 	0.99999999999745 	101324.9999999958
-0.511761761761762 	299.9999999999852 	1.000000000001013 	101324.9999999957
-0.5092592592592596 	300.0000000000057 	0.9999999999971618 	101324.9999999962
-0.506756756756757 	299.999999999986 	0.9999999999980036 	101324.9999999962
-0.5042542542542544 	300.0000000000082 	0.9999999999996783 	101324.9999999963
-0.5017517517517521 	300.0000000000175 	1.00000000000029 	101324.9999999965
-0.4992492492492494 	300.0000000000112 	0.9999999999998461 	101324.9999999965
-0.496746746746747 	300.0000000000032 	0.9999999999992105 	101324.999999997
-0.4942442442442445 	299.9999999999686 	0.9999999999988665 	101324.9999999972
-0.4917417417417421 	299.9999999999669 	0.9999999999992901 	101324.9999999969
-0.4892392392392395 	299.9999999999667 	0.9999999999996427 	101324.9999999966
-0.486736736736737 	299.9999999999808 	0.9999999999997298 	101324.9999999962
-0.4842342342342345 	299.9999999999777 	0.9999999999997008 	101324.9999999967
-0.481731731731732 	300.0000000000096 	1.000000000000013 	101324.9999999967
-0.4792292292292296 	300.0000000000165 	0.9999999999999412 	101324.9999999961
-0.4767267267267268 	299.9999999999765 	1.000000000006458 	101324.9999999959
-0.4742242242242246 	299.9999999999835 	0.9999999999960776 	101324.999999996
-0.471721721721722 	299.9999999999651 	0.9999999999977722 	101324.9999999961
-0.4692192192192195 	299.9999999999707 	1.000000000000999 	101324.9999999959
-0.4667167167167169 	299.9999999999644 	1.000000000000984 	101324.9999999958
-0.4642142142142145 	299.9999999999999 	1.000000000000856 	101324.999999996
-0.461711711711712 	300.0000000000079 	1.000000000000724 	101324.9999999959
-0.4592092092092094 	299.9999999999961 	1.000000000000984 	101324.9999999958
-0.456706706706707 	300.0000000000163 	1.000000000001215 	101324.999999996
-0.4542042042042045 	299.9999999999861 	1.000000000000834 	101324.9999999963
-0.451701701701702 	299.9999999999868 	1.000000000000403 	101324.9999999963
-0.4491991991991995 	299.9999999999695 	0.9999999999996444 	101324.9999999962
-0.4466966966966969 	299.9999999999678 	0.9999999999996616 	101324.9999999959
-0.4441941941941945 	299.9999999999794 	0.9999999999999361 	101324.9999999951
-0.441691691691692 	299.9999999999629 	0.9999999999997262 	101324.9999999958
-0.4391891891891895 	299.9999999999844 	0.9999999999989525 	101324.999999996
-0.436686686686687 	299.9999999999805 	1.0000000000059 	101324.9999999959
-0.4341841841841846 	299.9999999999831 	0.9999999999961903 	101324.9999999958
-0.431681681681682 	299.9999999999741 	0.9999999999975869 	101324.999999996
-0.4291791791791794 	299.999999999971 	1.000000000000386 	101324.9999999959
-0.426676676676677 	299.9999999999558 	1.000000000000968 	101324.9999999958
-0.4241741741741744 	299.9999999999822 	1.000000000000807 	101324.999999996
-0.421671671671672 	300.0000000000056 	0.9999999999997666 	101324.9999999961
-0.4191691691691694 	300.000000000007 	0.9999999999985915 	101324.9999999962
-0.4166666666666669 	300.0000000000142 	0.9999999999979889 	101324.9999999961
-0.4141641641641645 	299.9999999999775 	0.9999999999980929 	101324.9999999961
-0.411661661661662 	299.9999999999908 	0.9999999999994783 	101324.9999999965
-0.4091591591591594 	299.9999999999886 	1.000000000001765 	101324.9999999966
-0.406656656656657 	299.9999999999631 	1.000000000002589 	101324.9999999966
-0.4041541541541545 	300 	1.000000000002346 	101324.9999999967
-0.401651651651652 	299.9999999999722 	1.000000000001262 	101324.9999999964
-0.3991491491491494 	299.9999999999878 	1.000000000000135 	101324.999999996
-0.396646646646647 	299.9999999999866 	1.000000000006585 	101324.9999999957
-0.3941441441441444 	300.000000000003 	0.9999999999958773 	101324.9999999958
-0.3916416416416419 	299.9999999999854 	0.999999999998109 	101324.999999996
-0.3891391391391395 	299.9999999999892 	1.000000000000314 	101324.9999999963
-0.3866366366366368 	299.9999999999977 	1.000000000000418 	101324.9999999962
-0.3841341341341344 	299.9999999999981 	1.000000000000988 	101324.9999999954
-0.381631631631632 	299.9999999999662 	1.00000000000187 	101324.999999995
-0.3791291291291294 	299.9999999999918 	1.000000000001984 	101324.9999999953
-0.3766266266266269 	299.9999999999922 	1.000000000001672 	101324.9999999954
-0.3741241241241244 	300.0000000000138 	1.000000000001725 	101324.9999999955
-0.371621621621622 	300.0000000000007 	1.000000000000829 	101324.9999999957
-0.3691191191191194 	300.0000000000101 	1.000000000007209 	101324.9999999959
-0.366616616616617 	300.0000000000083 	0.9999999999966126 	101324.9999999956
-0.3641141141141143 	299.9999999999699 	0.9999999999992102 	101324.9999999953
-0.3616116116116119 	299.9999999999847 	1.000000000002632 	101324.9999999956
-0.3591091091091095 	300.0000000000065 	1.000000000003558 	101324.9999999962
-0.356606606606607 	299.9999999999855 	1.000000000003399 	101324.9999999969
-0.3541041041041044 	300.0000000000015 	1.000000000002574 	101324.999999997
-0.3516016016016019 	300.0000000000043 	1.000000000001582 	101324.9999999962
-0.3490990990990994 	300.000000000009 	1.00000000000139 	101324.9999999954
-0.346596596596597 	300.0000000000146 	1.00000000000449 	101324.9999999952
-0.3440940940940944 	300.0000000000148 	0.9999999999995903 	101324.9999999957
-0.3415915915915919 	300.0000000000105 	1.000000000001193 	101324.999999996
-0.3390890890890895 	299.9999999999825 	1.000000000002423 	101324.9999999959
-0.3365865865865869 	299.9999999999972 	1.000000000002741 	101324.9999999958
-0.3340840840840844 	299.9999999999926 	1.00000000000306 	101324.9999999956
-0.3315815815815819 	300.0000000000127 	1.000000000002678 	101324.9999999954
-0.3290790790790794 	300.0000000000159 	1.000000000001896 	101324.9999999955
-0.3265765765765769 	299.9999999999733 	1.00000000000152 	101324.9999999951
-0.3240740740740744 	299.9999999999915 	1.000000000001926 	101324.9999999952
-0.3215715715715718 	300.0000000000011 	1.000000000003054 	101324.9999999955
-0.3190690690690695 	299.9999999999764 	1.000000000004446 	101324.9999999956
-0.3165665665665668 	299.9999999999912 	1.000000000004027 	101324.9999999957
-0.3140640640640644 	300.0000000000012 	1.000000000003134 	101324.999999996
-0.311561561561562 	299.9999999999771 	1.00000000000286 	101324.999999996
-0.3090590590590593 	299.9999999999946 	1.000000000002933 	101324.9999999957
-0.3065565565565568 	300.0000000000038 	1.000000000010497 	101324.9999999953
-0.3040540540540545 	299.9999999999913 	0.9999999999984097 	101324.9999999951
-0.3015515515515518 	299.9999999999989 	1.000000000001024 	101324.999999995
-0.2990490490490494 	299.9999999999764 	1.000000000003755 	101324.9999999949
-0.2965465465465469 	299.9999999999955 	1.000000000004065 	101324.9999999957
-0.2940440440440444 	300.0000000000087 	1.000000000004177 	101324.9999999954
-0.2915415415415418 	300.0000000000134 	1.000000000004323 	101324.9999999955
-0.2890390390390395 	300.0000000000025 	1.000000000004568 	101324.9999999951
-0.2865365365365368 	299.999999999988 	1.000000000004564 	101324.9999999947
-0.2840340340340343 	299.999999999992 	1.000000000007194 	101324.9999999949
-0.2815315315315318 	299.9999999999852 	1.000000000000311 	101324.9999999952
-0.2790290290290295 	299.9999999999712 	1.000000000001592 	101324.9999999954
-0.2765265265265269 	299.9999999999946 	1.000000000003529 	101324.9999999951
-0.2740240240240244 	300.00000000002 	1.000000000004497 	101324.9999999949