-1.25 	300 	0.1165229460922334 	101372.5528258148
-1.247497497497497 	300.0380246837877 	0.11590906193406 	101372.3429314285
-1.244994994994995 	300.0398125285145 	0.1153340062599535 	101372.1198286508
-1.242492492492492 	300.0396577748144 	0.1149578885142859 	101371.8883884935
-1.23998998998999 	300.0394531480993 	0.114267529621664 	101371.6487343456
-1.237487487487487 	300.0392431945337 	0.1136747915744422 	101371.4004788231
-1.234984984984985 	300.039025897017 	0.113044790741114 	101371.1435134181
-1.232482482482482 	300.0388012706128 	0.1123954178988774 	101370.8778837629
-1.22997997997998 	300.038569391515 	0.1117267218187757 	101370.6036762516
-1.227477477477477 	300.038330392465 	0.1110351390552885 	101370.321048982
-1.224974974974975 	300.038084319273 	0.1103188334325417 	101370.0300611182
-1.222472472472472 	300.0378311872391 	0.1095839931183462 	101369.730718646
-1.21996996996997 	300.0375711989705 	0.1088335844078008 	101369.4232679726
-1.217467467467467 	300.0373045222911 	0.1080658149779609 	101369.1079193619
-1.214964964964965 	300.037031116217 	0.1072723604649627 	101368.7846115158
-1.212462462462462 	300.0367508477637 	0.1064563496678916 	101368.4531817456
-1.20995995995996 	300.0364636814944 	0.105622963709063 	101368.1135969814
-1.207457457457457 	300.0361696400364 	0.1047737881773231 	101367.7658853577
-1.204954954954955 	300.0358689207365 	0.1039070990581403 	101367.4102761278
-1.202452452452452 	300.0355616475381 	0.1030153357702153 	101367.0469175595
-1.19994994994995 	300.0352477140171 	0.1021020655586648 	101366.6756869284
-1.197447447447447 	300.0349272873569 	0.1011723851678421 	101366.2967809807
-1.194944944944945 	300.0346005316007 	0.1002284727501076 	101365.9103913545
-1.192442442442442 	300.0342675769683 	0.09926747458250149 	101365.5166680252
-1.18993993993994 	300.0339284292012 	0.09828279101597669 	101365.115620124
-1.187437437437437 	300.0335829400292 	0.09727947468193321 	101364.7070762347
-1.184934934934935 	300.0332311906237 	0.09626021451601849 	101364.2911295152
-1.182432432432432 	300.0328732715089 	0.09522421764904376 	101363.8678876459
-1.17992992992993 	300.0325092963848 	0.09417122778184114 	101363.437488176
-1.177427427427427 	300.0321393085799 	0.09309869537485424 	101362.9999830536
-1.174924924924925 	300.0317632360377 	0.09200815802329602 	101362.5552828608
-1.172422422422422 	300.0313813933391 	0.09090146705917219 	101362.103756779
-1.16991991991992 	300.0309939078293 	0.08977936807510414 	101361.645559061
-1.167417417417417 	300.0306006890258 	0.08864127288327221 	101361.1805876973
-1.164914914914915 	300.0302019514158 	0.08748631583305017 	101360.7090969836
-1.162412412412412 	300.0297975954628 	0.08631495662141662 	101360.230964227
-1.15990990990991 	300.0293876276179 	0.0851271018341225 	101359.7461913495
-1.157407407407407 	300.028972506555 	0.08392423595376071 	101359.2553202974
-1.154904904904904 	300.0285520045363 	0.08270602967534596 	101358.7580860387
-1.152402402402403 	300.0281258744634 	0.08147173759433239 	101358.2542027158
-1.1498998998999 	300.0276947055801 	0.08022265312342682 	101357.7443697359
-1.147397397397397 	300.0272585632607 	0.07895832520629228 	101357.2286616004
-1.144894894894895 	300.0268171286065 	0.07767954983648495 	101356.7066965504
-1.142392392392392 	300.026370909243 	0.07638766227781957 	101356.179069905
-1.13988988988989 	300.0259200963646 	0.07508287869919965 	101355.6460063424
-1.137387387387387 	300.0254641973327 	0.07376329659441135 	101355.1069252565
-1.134884884884885 	300.0250036660274 	0.07242824165480871 	101354.5623669843
-1.132382382382382 	300.0245390884331 	0.07108082262361599 	101354.0130266382
-1.12987987987988 	300.0240696405049 	0.06971999127522509 	101353.4579303524
-1.127377377377377 	300.0235949767079 	0.06834628676604962 	101352.8966718612
-1.124874874874875 	300.023116435407 	0.06696063282268544 	101352.330833601
-1.122372372372372 	300.0226343076156 	0.06556116776391553 	101351.7607587792
-1.11986986986987 	300.0221472428856 	0.06414990270841313 	101351.1848506843
-1.117367367367367 	300.0216553642525 	0.0627273328604773 	101350.6032538161
-1.114864864864865 	300.0211603074111 	0.06129730776567423 	101350.0179026895
-1.112362362362362 	300.020662208988 	0.05985628245641775 	101349.4289572263
-1.10985985985986 	300.0201599811147 	0.05839714584253038 	101348.8351316252
-1.107357357357357 	300.0196533019315 	0.05692678130522469 	101348.2360466588
-1.104854854854855 	300.0191428599838 	0.05544841194725926 	101347.6325148724
-1.102352352352353 	300.0186295718349 	0.05396347109127242 	101347.0256202413
-1.09984984984985 	300.0181133656688 	0.05246800708945384 	101346.4152775024
-1.097347347347347 	300.0175930862871 	0.05095751464825952 	101345.8001214927
-1.094844844844845 	300.0170686123001 	0.04943837338839909 	101345.180008957
-1.092342342342342 	300.0165407790698 	0.04791148626958243 	101344.5559269191
-1.08983983983984 	300.0160104900866 	0.04637907957268526 	101343.9289447774
-1.087337337337337 	300.0154788920435 	0.044840889772847 	101343.3004175354
-1.084834834834835 	300.014945392701 	0.04329154940799799 	101342.6696445564
-1.082332332332332 	300.0144072325672 	0.04173109560288643 	101342.033362676
-1.07982982982983 	300.0138641773695 	0.04015814741719022 	101341.3912954876
-1.077327327327327 	300.0133182521743 	0.03857636485451518 	101340.7458400653
-1.074824824824825 	300.0127718492113 	0.03699534121572022 	101340.0998244641
-1.072322322322323 	300.0122259624134 	0.03541407286246973 	101339.4544213472
-1.06981981981982 	300.0116788338605 	0.03382586361428562 	101338.8075506983
-1.067317317317317 	300.0111267141875 	0.03222682030187342 	101338.1547799594
-1.064814814814815 	300.0105692352103 	0.03061380962489975 	101337.4956762945
-1.062312312312312 	300.0100080470036 	0.02899170347385426 	101336.8321927755
-1.05980980980981 	300.0094461913635 	0.02736682844151889 	101336.1679252209
-1.057307307307307 	300.0088860887651 	0.02574209961495465 	101335.505733096
-1.054804804804805 	300.008327809635 	0.0241208331501877 	101334.8456986645
-1.052302302302302 	300.007768790696 	0.02249964115669052 	101334.1847912
-1.0497997997998 	300.0072069588887 	0.02087182996628958 	101333.5205603811
-1.047297297297297 	300.0066410285631 	0.01923333874439119 	101332.8514870639
-1.044794794794795 	300.0060715168974 	0.01758420058125228 	101332.1781829223
-1.042292292292292 	300.00549994465 	0.01592846889354478 	101331.5024463123
-1.03978978978979 	300.0049271085188 	0.01426955835588721 	101330.8252197655
-1.037287287287287 	300.0043534211753 	0.0126094004713109 	101330.146990211
-1.034784784784785 	300.003779972999 	0.0109493675520204 	101329.4690463122
-1.032282282282283 	300.0032069016602 	0.009288498911435643 	101328.7915508922
-1.02977977977978 	300.0026333889782 	0.007625320136589654 	101328.1135372046
-1.027277277277277 	300.0020591280078 	0.005960524709967012 	101327.4346420262
-1.024774774774775 	300.0014845843747 	0.004295902553118748 	101326.755415332
-1.022272272272272 	300.0009105697395 	0.002634911427752309 	101326.0768180992
-1.01976976976977 	300.0003379799559 	0.0009768167699370752 	101325.3999097229
-1.017267267267267 	299.9997662732007 	0.0009261915724596246 	101324.7240476387
-1.014764764764765 	299.9991943301113 	0.002338313822023928 	101324.047906558
-1.012262262262262 	299.9986218754824 	0.003996617204019139 	101323.3711627983
-1.00975975975976 	299.9980491064938 	0.005653231548926157 	101322.6940539276
-1.007257257257257 	299.9974763418065 	0.007310826587765287 	101322.0169554184
-1.004754754754755 	299.9969038730657 	0.008972237673172727 	101321.3402078282
-1.002252252252252 	299.9963318084477 	0.01063147227412439 	101320.663936858
-0.9997497497497498 	299.9957601111181 	0.01228796617260689 	101319.9881027735
-0.9972472472472473 	299.9951888582394 	0.01393908907566545 	101319.3128037241
-0.9947447447447449 	299.9946183719376 	0.0155891609070068 	101318.6384182952
-0.9922422422422421 	299.9940490115366 	0.01724197510835435 	101317.9653631619
-0.9897397397397399 	299.9934809194417 	0.01888977664020369 	101317.2938015464
-0.9872372372372376 	299.9929140575572 	0.02053198285431955 	101316.6236936982
-0.9847347347347346 	299.9923484601129 	0.02216666920220709 	101315.9550924835
-0.9822322322322323 	299.9917843282209 	0.0237987249434377 	101315.2882380932
-0.9797297297297296 	299.9912218197089 	0.02543213160352471 	101314.6233070487
-0.9772272272272275 	299.9906608910495 	0.02705937279806656 	101313.960234146
-0.9747247247247248 	299.9901014655434 	0.02868009968463375 	101313.2989273638
-0.9722222222222224 	299.989543672972 	0.03029422184092476 	101312.6395538435
-0.9697197197197196 	299.9889878056871 	0.03190353080921349 	101311.9824733934
-0.9672172172172175 	299.9884340768875 	0.0335091908441702 	101311.327940446
-0.9647147147147147 	299.987882532308 	0.0351076854942079 	101310.675995608
-0.9622122122122124 	299.9873332057593 	0.03669893603496862 	101310.026661712
-0.9597097097097099 	299.9867862545161 	0.03828233753669815 	101309.3801183094
-0.9572072072072073 	299.9862418520097 	0.03985915303689266 	101308.7365796375
-0.9547047047047047 	299.9857000273226 	0.04142985572668349 	101308.0960987173
-0.9522022022022023 	299.9851607298544 	0.04299254423611729 	101307.4586296588
-0.9496996996996998 	299.9846240132854 	0.04454740979650575 	101306.8242344787
-0.9471971971971973 	299.9840900744817 	0.04609354883017802 	101306.1931305222
-0.9446946946946947 	299.9835591173784 	0.04763158976063781 	101305.5655397724
-0.9421921921921923 	299.9830312354639 	0.04916129597542548 	101304.9415618098
-0.93968968968969 	299.9825064709081 	0.05068150761324391 	101304.321250878
-0.9371871871871872 	299.981984932011 	0.05219258352318906 	101303.7047508877
-0.9346846846846848 	299.9814667619243 	0.05369343791295699 	101303.0922473743
-0.9321821821821823 	299.9809520441528 	0.05518453427452195 	101302.4838492529
-0.9296796796796799 	299.9804408163453 	0.05666546249178563 	101301.8796023938
-0.9271771771771771 	299.9799331341887 	0.05813590886061113 	101301.2795644828
-0.9246746746746748 	299.9794291094619 	0.05959642135452671 	101300.6838544889
-0.9221721721721724 	299.9789288952865 	0.06104552669820841 	101300.0926393158
-0.9196696696696698 	299.9784325990659 	0.06248345388726835 	101299.5060348121
-0.9171671671671672 	299.9779402727958 	0.06390932752427471 	101298.9240997266
-0.9146646646646649 	299.9774520083741 	0.06532348908448146 	101298.3469471091
-0.9121621621621623 	299.9769679270356 	0.0667267017161373 	101297.774727479
-0.9096596596596597 	299.9764881171308 	0.06811693207493627 	101297.2075527511
-0.9071571571571573 	299.9760126558621 	0.06949444049025037 	101296.645520408
-0.9046546546546547 	299.9755416088893 	0.07085798740359728 	101296.0887114891
-0.9021521521521524 	299.9750750467035 	0.07220901707529186 	101295.537211829
-0.8996496496496498 	299.9746130979634 	0.07354879968983424 	101294.9911753738
-0.8971471471471473 	299.9741558626169 	0.07487425384204649 	101294.4507197028
-0.894644644644645 	299.9737033596313 	0.07618549187931237 	101293.9158671902
-0.892142142142142 	299.9732556559267 	0.07747974941677771 	101293.3866969165
-0.8896396396396397 	299.9728128741111 	0.078761176061398 	101292.8633500577
-0.8871371371371374 	299.9723751028989 	0.08003238866810347 	101292.3459308511
-0.8846346346346349 	299.9719424281901 	0.08128694616541858 	101291.8345384061
-0.8821321321321324 	299.971514921188 	0.08252526201587188 	101291.3292561114
-0.8796296296296297 	299.9710926511249 	0.08374493578532917 	101290.8301678479
-0.8771271271271271 	299.9706757570057 	0.08495107573734556 	101290.3374388178
-0.8746246246246248 	299.9702643498286 	0.08614674151924154 	101289.8511989848
-0.8721221221221224 	299.969858442259 	0.08732448724318187 	101289.3714604739
-0.8696196196196196 	299.9694580648288 	0.08848478164176614 	101288.898256554
-0.8671171171171175 	299.9690632897094 	0.08962600327298166 	101288.4316730083
-0.8646146146146148 	299.9686741919861 	0.09075214528352013 	101287.9718006768
-0.8621121121121121 	299.9682908459949 	0.09186540372912951 	101287.5187300202
-0.8596096096096097 	299.9679132916212 	0.09295984886964898 	101287.0725080356
-0.857107107107107 	299.9675415952944 	0.09403606215194424 	101286.6332134744
-0.8546046046046049 	299.9671759309102 	0.09509371313245958 	101286.2010500989
-0.8521021021021022 	299.9668164591448 	0.09613463976253886 	101285.7762048644
-0.8495995995995997 	299.9664632264951 	0.09715956659626446 	101285.3587318417
-0.8470970970970974 	299.9661162219818 	0.0981658996619611 	101284.9486174252
-0.8445945945945946 	299.9657754370288 	0.09915402409428178 	101284.5458536227
-0.8420920920920922 	299.9654409061722 	0.1001230703209772 	101284.1504840626
-0.8395895895895897 	299.9651126768043 	0.1010740386536924 	101283.7625659601
-0.8370870870870872 	299.9647907499694 	0.1020069246561496 	101283.382100396
-0.8345845845845846 	299.9644751728994 	0.102920221739893 	101283.0091421306
-0.8320820820820823 	299.9641661397598 	0.1038144873580328 	101282.6439193715
-0.8295795795795798 	299.9638638826564 	0.1046890287048049 	101282.2867041667
-0.8270770770770772 	299.9635685125931 	0.1055447213036261 	101281.9376260416
-0.8245745745745746 	299.963279994431 	0.1063813702989829 	101281.5966436899
-0.8220720720720721 	299.9629982490644 	0.1071982781583344 	101281.2636645308
-0.8195695695695699 	299.9627232807264 	0.1079959973514886 	101280.938695593
-0.817067067067067 	299.9624551450497 	0.1087734793913257 	101280.6218027859
-0.8145645645645651 	299.9621937953546 	0.109531062387418 	101280.3129314911
-0.8120620620620621 	299.961939162128 	0.1102679416657257 	101280.0120003614
-0.8095595595595597 	299.9616913898964 	0.110984007746421 	101279.7191804453
-0.8070570570570572 	299.9614508144606 	0.1116801259798936 	101279.43486833
-0.8045545545545546 	299.9612176859592 	0.1123552262036962 	101279.1593586522
-0.8020520520520523 	299.9609919637223 	0.113009743902908 	101278.8926024791
-0.7995495495495494 	299.9607734233656 	0.1136427267042762 	101278.6343332227
-0.7970470470470474 	299.9605619864382 	0.1142549651309578 	101278.3844559999
-0.7945445445445446 	299.9603577958744 	0.1148476739394036 	101278.1431413131
-0.7920420420420423 	299.9601609160537 	0.1154191210053207 	101277.9104670138
-0.7895395395395397 	299.9599712078788 	0.1159692435993255 	101277.6862690899
-0.7870370370370371 	299.9597886024027 	0.1164963234145238 	101277.4704657258
-0.7845345345345348 	299.9596133466849 	0.117002141657354 	101277.2633489048
-0.7820320320320323 	299.9594458440523 	0.1174882021707611 	101277.0653949917
-0.7795295295295296 	299.9592862192648 	0.1179517891289254 	101276.8767512868
-0.7770270270270272 	299.9591341729675 	0.1183930595692848 	101276.6970641632
-0.7745245245245247 	299.9589894522589 	0.1188093279821227 	101276.5260339838
-0.7720220220220222 	299.9588521903003 	0.1192054226737789 	101276.3638183567
-0.7695195195195199 	299.9587225972095 	0.1195839738105965 	101276.2106666084
-0.767017017017017 	299.9586006126965 	0.1199391012259952 	101276.0665068661
-0.7645145145145147 	299.9584860532789 	0.1202712500520162 	101275.9311221102
-0.7620120120120122 	299.9583789367616 	0.1205772917580806 	101275.804533366
-0.7595095095095097 	299.9582795714902 	0.1208631811222852 	101275.687104604
-0.7570070070070072 	299.9581881870927 	0.1211317316416425 	101275.5791086892
-0.7545045045045048 	299.9581046515019 	0.1213753243790166 	101275.4803883144
-0.7520020020020022 	299.958028786433 	0.1215950231089176 	101275.3907321847
-0.7494994994994997 	299.9579606505442 	0.1217893700977655 	101275.3102093712
-0.7469969969969972 	299.9579002956158 	0.1219633382740779 	101275.2388818442
-0.7444944944944945 	299.9578476905108 	0.1221188918402949 	101275.1767144596
-0.7419919919919924 	299.9578027853503 	0.122250141085682 	101275.1236469173
-0.7394894894894897 	299.9577655041674 	0.1223579979640979 	101275.0795890797
-0.7369869869869872 	299.9577359359012 	0.1224420107670794 	101275.0446451968
-0.7344844844844846 	299.9577142831998 	0.1225044692478072 	101275.0190549001
-0.7319819819819822 	299.9577004969565 	0.1225457120264463 	101275.0027612912
-0.7294794794794797 	299.9576945055473 	0.122563146004831 	101274.9956810176
-0.7269769769769773 	299.9576963791897 	0.122557776252154 	101274.9978956444
-0.7244744744744747 	299.9577060533543 	0.1225289978147214 	101275.0093282016
-0.721971971971972 	299.9577235082397 	0.1224782378603011 	101275.02995531
-0.7194694694694695 	299.957748835104 	0.1224057734846797 	101275.0598846037
-0.7169669669669674 	299.957781869623 	0.122310237526834 	101275.0989224691
-0.7144644644644647 	299.9578225399945 	0.1221923011453622 	101275.1469843959
-0.711961961961962 	299.9578710412424 	0.1220513917480912 	101275.2043017507
-0.7094594594594597 	299.9579273644689 	0.1218883291111112 	101275.2708645698
-0.7069569569569573 	299.9579914294018 	0.1217028533885321 	101275.3465759524
-0.7044544544544545 	299.9580632486209 	0.1214946850868138 	101275.4314491282
-0.7019519519519523 	299.9581427438589 	0.1212644969641443 	101275.5253922547
-0.6994494494494495 	299.9582299758092 	0.1210113831933802 	101275.6284783937
-0.6969469469469471 	299.9583250347825 	0.1207362455294984 	101275.7408160982
-0.6944444444444446 	299.958427734997 	0.1204386811670775 	101275.8621864582
-0.6919419419419421 	299.958537986435 	0.1201189733300525 	101275.9924810273
-0.6894394394394396 	299.9586558710702 	0.1197779817855655 	101276.1317957026
-0.6869369369369374 	299.9587813871248 	0.1194143794958582 	101276.2801279547
-0.6844344344344344 	299.9589145341214 	0.1190287938786141 	101276.4374767682
-0.6819319319319321 	299.9590552499901 	0.118620719055451 	101276.6037692699
-0.6794294294294296 	299.9592034082287 	0.1181910217068297 	101276.7788582724
-0.6769269269269272 	299.9593590683586 	0.1177405540399957 	101276.9628154425
-0.6744244244244245 	299.9595223110743 	0.1172677257524929 	101277.1557363954
-0.6719219219219222 	299.9596930347502 	0.1167731740379838 	101277.3575002056
-0.6694194194194195 	299.9598711460014 	0.1162560656022215 	101277.5679918314
-0.6669169169169172 	299.9600566350239 	0.1157183800663496 	101277.7871997032
-0.6644144144144146 	299.9602494831578 	0.1151610133160749 	101278.0151045065
-0.661911911911912 	299.9604496991794 	0.1145814525690937 	101278.2517157073
-0.6594094094094097 	299.9606572029416 	0.1139805834271614 	101278.4969406603
-0.656906906906907 	299.9608718465126 	0.1133564267098498 	101278.7506061783
-0.6544044044044046 	299.961093603457 	0.1127130732126164 	101279.0126801558
-0.6519019019019021 	299.9613225346554 	0.1120521037568265 	101279.2832352864
-0.6493993993993996 	299.9615585670238 	0.1113686249251335 	101279.562184933
-0.6468968968968971 	299.9618017336376 	0.1106639497161862 	101279.8495647807
-0.6443943943943946 	299.9620520405282 	0.109935058113586 	101280.1453817034
-0.6418918918918921 	299.9623094486528 	0.1091885543080043 	101280.4495901338
-0.6393893893893897 	299.9625738209073 	0.1084268895523557 	101280.762027244
-0.6368868868868871 	299.9628449939498 	0.1076427390715551 	101281.0825001077
-0.6343843843843846 	299.9631227297142 	0.1068381545696213 	101281.4107294442
-0.6318818818818821 	299.9634071548399 	0.1060105967523579 	101281.7468637424
-0.6293793793793795 	299.9636984340364 	0.1051658253203017 	101282.0911009336
-0.6268768768768773 	299.9639965216312 	0.1043054800349217 	101282.4433900105
-0.6243743743743745 	299.964301145268 	0.1034231442550493 	101282.8034289948
-0.6218718718718721 	299.9646122234861 	0.1025214296829785 	101283.1710699434
-0.6193693693693696 	299.9649297888116 	0.101599879831341 	101283.5463741014
-0.6168668668668671 	299.9652541522443 	0.1006606320791361 	101283.9297219191
-0.6143643643643645 	299.9655853061513 	0.09970381865542328 	101284.3210991121
-0.6118618618618621 	299.9659227266251 	0.09872719750694292 	101284.7198828497
-0.6093593593593596 	299.9662659214206 	0.09773312735108157 	101285.1254896885
-0.6068568568568571 	299.9666147716506 	0.09672177422895376 	101285.5377789213
-0.6043543543543546 	299.9669694841663 	0.09569384585024371 	101285.9569956986
-0.6018518518518521 	299.967330531502 	0.09464767927704379 	101286.383699057
-0.5993493493493496 	299.9676981783474 	0.09358120698721922 	101286.8182043592
-0.5968468468468471 	299.9680721627635 	0.09249662321023722 	101287.2602039574
-0.5943443443443446 	299.9684521110534 	0.09139588059866086 	101287.7092549579
-0.591841841841842 	299.9688375120091 	0.09028135721875656 	101288.164754078
-0.5893393393393397 	299.9692279558301 	0.08915155671930389 	101288.6262174584
-0.5868368368368371 	299.9696238369813 	0.08800419397440828 	101289.0941101778
-0.5843343343343346 	299.9700258900384 	0.08683929136184382 	101289.5692991107
-0.5818318318318321 	299.9704341941124 	0.08565653575109541 	101290.051876117
-0.5793293293293297 	299.9708480560248 	0.08445850308778793 	101290.5410213045
-0.5768268268268271 	299.9712662561684 	0.08324619957404542 	101291.0352939761
-0.5743243243243245 	299.9716883188484 	0.08202028926277673 	101291.5341328795
-0.5718218218218221 	299.9721155516184 	0.08078142585584205 	101292.039083264
-0.5693193193193196 	299.9725492671782 	0.07952636999239418 	101292.5516974123
-0.5668168168168171 	299.9729893246225 	0.07825309144671198 	101293.0718094934
-0.5643143143143147 	299.9734351256646 	0.07696181648136222 	101293.5987110772
-0.5618118118118121 	299.9738854497286 	0.07565716427241041 	101294.1309594989
-0.5593093093093094 	299.9743389021709 	0.0743434509302514 	101294.6669089902
-0.5568068068068072 	299.9747956661505 	0.07302058926469539 	101295.2067755217
-0.5543043043043046 	299.9752564572023 	0.07168618060595375 	101295.7514054698
-0.551801801801802 	299.9757220155331 	0.07033443109318407 	101296.3016730024
-0.5492992992992995 	299.9761939941365 	0.06896576475995229 	101296.8595305314
-0.5467967967967969 	299.9766724928857 	0.06758197663306799 	101297.4250965435
-0.5442942942942947 	299.9771556252239 	0.06618300432342471 	101297.9961408586
-0.5417917917917919 	299.9776421378998 	0.06477444104194885 	101298.5711819104
-0.5392892892892895 	299.9781306642604 	0.06335785597034096 	101299.1486049968
-0.536786786786787 	299.9786208533359 	0.06193613687863558 	101299.727995904
-0.5342842842842846 	299.9791144752373 	0.06050758609362861 	101300.3114482242
-0.531781781781782 	299.9796131825411 	0.05906354061362414 	101300.9009149804
-0.5292792792792794 	299.9801175295294 	0.05760160818309654 	101301.4970507067
-0.526776776776777 	299.9806279457002 	0.05611935595569265 	101302.1003612037
-0.5242742742742745 	299.9811429171586 	0.05462739444748832 	101302.709057755
-0.521771771771772 	299.9816604716635 	0.05313225800022979 	101303.3208093861
-0.5192692692692695 	299.9821793405442 	0.05163014955933278 	101303.9341171826
-0.516766766766767 	299.9826990884279 	0.05012454173116249 	101304.5484663464
-0.5142642642642645 	299.983220042069 	0.04861045838651155 	101305.1642441552
-0.511761761761762 	299.9837439788953 	0.04709169067087068 	101305.7835515082
-0.5092592592592596 	299.9842722409919 	0.04556497981602507 	101306.4079764341
-0.506756756756757 	299.9848060865913 	0.04401887941444448 	101307.0390041982
-0.5042542542542544 	299.9853453923843 	0.04245672295233895 	101307.6764879924
-0.5017517517517521 	299.985889023833 	0.04088108256612681 	101308.3190862202
-0.4992492492492494 	299.9864347062144 	0.03930011784456 	101308.9641109037
-0.496746746746747 	299.9869814280523 	0.03771859518789445 	101309.6103669778
-0.4942442442442445 	299.9875278961768 	0.03613564684352266 	101310.2563262095
-0.4917417417417421 	299.9880739936406 	0.03455314860075317 	101310.9018496462
-0.4892392392392395 	299.9886202964299 	0.0329692253542147 	101311.5476190522
-0.486736736736737 	299.9891681835433 	0.03138187645784635 	101312.1952657291
-0.4842342342342345 	299.9897189393913 	0.02978639311206446 	101312.8463082807
-0.481731731731732 	299.9902740834942 	0.02817803167014014 	101313.5025415521
-0.4792292292292296 	299.9908339598709 	0.02655627724971352 	101314.1643715695
-0.4767267267267268 	299.9913981224216 	0.02492171538274211 	101314.8312701582
-0.4742242242242246 	299.991965278058 	0.02327935762164701 	101315.5017091516
-0.471721721721722 	299.9925342763996 	0.02163179328185997 	101316.1743303173
-0.4692192192192195 	299.9931039771589 	0.01998119017791466 	101316.8477845065
-0.4667167167167169 	299.9936732656072 	0.01833289495531938 	101317.5207526704
-0.4642142142142145 	299.9942405338086 	0.01668957542753613 	101318.1913342691
-0.461711711711712 	299.9948054889724 	0.0150525974484078 	101318.8591851377
-0.4592092092092094 	299.9953690258794 	0.01341995649406408 	101319.5253642761
-0.456706706706707 	299.9959317919611 	0.01178936185282554 	101320.1906369973
-0.4542042042042045 	299.9964941715639 	0.01015998384237035 	101320.8554562026
-0.451701701701702 	299.9970570965194 	0.008529131734863658 	101321.5209221186
-0.4491991991991995 	299.9976214386924 	0.006894206305143092 	101322.1880666442
-0.4466966966966969 	299.9981881160562 	0.005251178473552587 	101322.8579764082
-0.4441941941941945 	299.9987583181095 	0.003599185898007805 	101323.5320580328
-0.441691691691692 	299.9993319366753 	0.001938257645916112 	101324.2101830473
-0.4391891891891895 	299.9999086475089 	0.0003093138689584936 	101324.8919647625
-0.436686686686687 	300.0004865056363 	0.001404599332701901 	101325.5751024346
-0.4341841841841846 	300.0010638709614 	0.003076917319806347 	101326.2576593972
-0.431681681681682 	300.0016402485417 	0.004746566246706239 	101326.9390537742
-0.4291791791791794 	300.0022155370921 	0.006413113586875969 	101327.6191668268
-0.426676676676677 	300.0027897321704 	0.00807651023198348 	101328.2979911934
-0.4241741741741744 	300.0033628538827 	0.009736793957464998 	101328.9755477762
-0.421671671671672 	300.003934916474 	0.01139399719946816 	101329.6518520757
-0.4191691691691694 	300.0045059154467 	0.01304811139613424 	101330.3269013132
-0.4166666666666669 	300.0050758272699 	0.01469907676584833 	101331.0006711286
-0.4141641641641645 	300.0056446122445 	0.01634678287652349 	101331.6731161843
-0.411661661661662 	300.0062122190689 	0.01799107408830132 	101332.3441727254
-0.4091591591591594 	300.0067785844821 	0.01963175834151739 	101333.0137622157
-0.406656656656657 	300.007343633922 	0.02126861562108174 	101333.6817946603
-0.4041541541541545 	300.0079072821618 	0.02290140399788372 	101334.3481709464
-0.401651651651652 	300.0084694350497 	0.02452986530555961 	101335.0127851362
-0.3991491491491494 	300.009029997398 	0.02615373033518489 	101335.6755271213
-0.396646646646647 	300.0095888750357 	0.02777272250467493 	101336.3362842523
-0.3941441441441444 	300.0101459751452 	0.02938655932277297 	101336.9949414517
-0.3916416416416419 	300.0107012023017 	0.03099495453630466 	101337.6513816412
-0.3891391391391395 	300.0112544571481 	0.03259762125066239 	101338.3054873128
-0.3866366366366368 	300.0118056360588 	0.03419427285999747 	101338.9571413019
-0.3841341341341344 	300.0123546347128 	0.03578462103123096 	101339.606225992
-0.381631631631632 	300.0129013513277 	0.03736837611107013 	101340.2526232322
-0.3791291291291294 	300.0134456908584 	0.03894525001299121 	101340.8962156984
-0.3766266266266269 	300.0139875605095 	0.04051495744206442 	101341.5368871028
-0.3741241241241244 	300.0145268653859 	0.04207721322406043 	101342.1745206246
-0.371621621621622 	300.0150635045702 	0.04363173110402062 	101342.8089988109
-0.3691191191191194 	300.0155973742893 	0.04517822743734207 	101343.440205782
-0.366616616616617 	300.016128372392 	0.04671642187349929 	101344.0680277469
-0.3641141141141143 	300.0166564003147 	0.04824603349036961 	101344.6923504999
-0.3616116116116119 	300.0171813647334 	0.04976678036204314 	101345.3130585056
-0.3591091091091095 	300.0177031764266 	0.05127838439987557 	101345.9300376912
-0.356606606606607 	300.0182217468506 	0.05278057282344793 	101346.5431768639
-0.3541041041041044 	300.0187369820065 	0.05427307280689644 	101347.1523647646
-0.3516016016016019 	300.0192487798567 	0.05575560809945808 	101347.7574882517
-0.3490990990990994 	300.019757037616 	0.05722790568514374 	101348.3584356478
-0.346596596596597 	300.0202616595119 	0.05868970054701565 	101348.9550993183
-0.3440940940940944 	300.0207625568464 	0.0601407283071652 	101349.5473719598
-0.3415915915915919 	300.0212596436562 	0.06158071926893107 	101350.1351428869
-0.3390890890890895 	300.0217528355121 	0.06300940567598165 	101350.7183018768
-0.3365865865865869 	300.0222420484164 	0.06442653078373113 	101351.2967443151
-0.3340840840840844 	300.0227271929169 	0.06583184205538883 	101351.8703676684
-0.3315815815815819 	300.0232081708363 	0.06722507851803482 	101352.43906483
-0.3290790790790794 	300.0236848809307 	0.06860597618839426 	101353.0027271151
-0.3265765765765769 	300.0241572320341 	0.06997428418087573 	101353.5612529562
-0.3240740740740744 	300.0246251447224 	0.07132976205500423 	101354.1145462579
-0.3215715715715718 	300.0250885406789 	0.07267216121139755 	101354.6625054187
-0.3190690690690695 	300.0255473386778 	0.07400122364603483 	101355.2050222503
-0.3165665665665668 	300.0260014599858 	0.07531670417064742 	101355.7419947377
-0.3140640640640644 	300.0264508280827 	0.0766183772897253 	101356.2733322295
-0.311561561561562 	300.0268953582116 	0.07790601177096337 	101356.7989425352
-0.3090590590590593 	300.0273349532221 	0.07917935492568552 	101357.3187223555
-0.3065565565565568 	300.0277695173922 	0.08043815810119133 	101357.8325692417
-0.3040540540540545 	300.0281989732571 	0.08168220418785989 	101358.3403958229
-0.3015515515515518 	300.0286232542213 	0.08291128853193512 	101358.8421197462
-0.2990490490490494 	300.0290422857838 	0.08412517933665384 	101359.3376435953
-0.2965465465465469 	300.0294559875767 	0.08532362658004791 	101359.8268604342
-0.2940440440440444 	300.0298642911558 	0.08650640991931545 	101360.3096802017
-0.2915415415415418 	300.030267140889 	0.08767334451298368 	101360.7860334918