-1.25 	300 	0 	101286.4743378612
-1.247497497497497 	299.9740154600074 	0.3834446788524895 	101300.3553929108
-1.244994994994995 	299.968657004715 	0.5260582204970959 	101288.797586829
-1.242492492492492 	299.978489628454 	0.650499353925897 	101299.7378819117
-1.23998998998999 	299.9705050200348 	0.7625240468830405 	101290.6254148143
-1.237487487487487 	299.9782033609931 	0.859087823220572 	101299.5543032147
-1.234984984984985 	299.97192382978 	0.9416054114792419 	101292.4585697193
-1.232482482482482 	299.9780774137654 	1.009520898588515 	101299.5760520544
-1.22997997997998 	299.9723885778026 	1.060005223883725 	101293.1303764493
-1.227477477477477 	299.9775191628922 	1.093124405815671 	101299.0281683893
-1.224974974974975 	299.9755262797755 	1.092024907676586 	101296.8647969586
-1.222472472472472 	299.977458691448 	1.071223723023366 	101298.944325301
-1.21996996996997 	299.9764033099629 	1.039584892004124 	101297.8186496654
-1.217467467467467 	299.977972078331 	1.008857351483728 	101299.4906183332
-1.214964964964965 	299.977387109275 	0.9701696580243998 	101298.8847009148
-1.212462462462462 	299.9786871745325 	0.9349585127615182 	101300.2657093944
-1.20995995995996 	299.9783225936949 	0.8938126916539155 	101299.8932494159
-1.207457457457457 	299.9799846286434 	0.8560044562942093 	101301.7285928472
-1.204954954954955 	299.9798872269306 	0.8152697995192202 	101301.6521210106
-1.202452452452452 	299.9816305903335 	0.7774805172500614 	101303.6091246794
-1.19994994994995 	299.9814739003923 	0.7350890987713684 	101303.4450776476
-1.197447447447447 	299.982076712845 	0.6992474245863614 	101304.0783203735
-1.194944944944945 	299.981864898953 	0.6554881288080014 	101303.8323752877
-1.192442442442442 	299.9821595158068 	0.6217710805387082 	101304.125238826
-1.18993993993994 	299.9820245499287 	0.5806044422043102 	101303.9578360264
-1.187437437437437 	299.9828161418134 	0.5486640113179575 	101304.8591207258
-1.184934934934935 	299.9830249100795 	0.5117103048873003 	101305.089298781
-1.182432432432432 	299.9842516646427 	0.4823322373146884 	101306.5231690458
-1.17992992992993 	299.9847680754654 	0.448505766071792 	101307.1077116601
-1.177427427427427 	299.9857689704656 	0.4217180151512938 	101308.2908620585
-1.174924924924925 	299.9861201670315 	0.3904951971966091 	101308.6721516506
-1.172422422422422 	299.9868712550677 	0.366661884290212 	101309.5728105177
-1.16991991991992 	299.9872800300492 	0.3385000287748736 	101310.0168003394
-1.167417417417417 	299.9879134423554 	0.3183773133986741 	101310.788892437
-1.164914914914915 	299.9884126150649 	0.2932347502471206 	101311.3357364893
-1.162412412412412 	299.9886855480541 	0.2764828501613908 	101311.6888136813
-1.15990990990991 	299.9890095055675 	0.254084772466595 	101312.0268584213
-1.157407407407407 	299.9891827014521 	0.2410588411918546 	101312.2653932188
-1.154904904904904 	299.9896309197918 	0.2221895089613294 	101312.7530160679
-1.152402402402403 	299.9898809962807 	0.212268969767211 	101313.0823983854
-1.1498998998999 	299.9902679242101 	0.1966233322452685 	101313.5020750423
-1.147397397397397 	299.9907317565464 	0.1887491497798571 	101314.0802753043
-1.144894894894895 	299.991311814659 	0.1761463302798998 	101314.7344014967
-1.142392392392392 	299.9919340813638 	0.1695727456792501 	101315.4954029159
-1.13988988988989 	299.992461499889 	0.1591385659295102 	101316.0914233477
-1.137387387387387 	299.9931831873313 	0.1533520468632462 	101316.9670219969
-1.134884884884885 	299.993707478003 	0.1443310414513618 	101317.563226064
-1.132382382382382 	299.994336117223 	0.1389989387808861 	101318.3256578532
-1.12987987987988 	299.9947121596352 	0.1308484347380499 	101318.7506995467
-1.127377377377377 	299.9954649799274 	0.1258033081831492 	101319.6558801915
-1.124874874874875 	299.9957582785836 	0.1187513442202844 	101319.9877198078
-1.122372372372372 	299.9965048612989 	0.113271651780379 	101320.8819858677
-1.11986986986987 	299.9967860311231 	0.106316302736697 	101321.202452429
-1.117367367367367 	299.9974209456153 	0.1012458027045996 	101321.9612376011
-1.114864864864865 	299.9971727133998 	0.09580413102051599 	101321.6582932263
-1.112362362362362 	299.9986487532927 	0.09123687195957134 	101323.410108836
-1.10985985985986 	299.9983091964431 	0.08761026646266851 	101323.001730944
-1.107357357357357 	299.9999183834562 	0.08111737843463127 	101324.9096916268
-1.104854854854855 	299.999799669616 	0.07726087598303727 	101324.764151187
-1.102352352352353 	300.0007742195976 	0.06943636036333742 	101325.9196670111
-1.09984984984985 	300.0009830189419 	0.06424236133989442 	101326.1631645871
-1.097347347347347 	300.0012491132858 	0.05522283634640851 	101326.4793306394
-1.094844844844845 	300.0019492465534 	0.0511563683754814 	101327.3052587646
-1.092342342342342 	300.0024119984795 	0.04200561625124509 	101327.852920608
-1.08983983983984 	300.0030395074097 	0.04028054502122484 	101328.5939294425
-1.087337337337337 	300.0035879422337 	0.03131267119395208 	101329.2424128944
-1.084834834834835 	300.0041577158032 	0.0314226430191242 	101329.9156687322
-1.082332332332332 	300.0046929182793 	0.02243076478128803 	101330.5483653797
-1.07982982982983 	300.0052095207627 	0.02409751334954447 	101331.1590028143
-1.077327327327327 	300.0057064957759 	0.01561190279823187 	101331.7464149321
-1.074824824824825 	300.006199874924 	0.01866087439864076 	101332.3297373872
-1.072322322322323 	300.0066968042162 	0.01890296994804522 	101332.9171255963
-1.06981981981982 	300.0072125178611 	0.0212360496483566 	101333.5268736319
-1.067317317317317 	300.0077367712651 	0.02221379257468084 	101334.146593374
-1.064814814814815 	300.0082721432578 	0.02405611819785597 	101334.7796086576
-1.062312312312312 	300.0087972225368 	0.02546652139525065 	101335.4003148766
-1.05980980980981 	300.0093116878014 	0.02692419403508158 	101336.0086213176
-1.057307307307307 	300.0098063812096 	0.02849083509405522 	101336.593429586
-1.054804804804805 	300.0102952773133 	0.02972781077072335 	101337.1714872467
-1.052302302302302 	300.0107879718086 	0.03137375945655348 	101337.7539670481
-1.0497997997998 	300.0113013097774 	0.03265504468280716 	101338.3609045259
-1.047297297297297 	300.0118378780072 	0.03437669768348794 	101338.9952800301
-1.044794794794795 	300.0123913846249 	0.0358566117514443 	101339.6497067007
-1.042292292292292 	300.0129416512335 	0.03748648284788513 	101340.3002979263
-1.03978978978979 	300.0134661280505 	0.03898787065369404 	101340.9204040828
-1.037287287287287 	300.013948936852 	0.04038550382496493 	101341.4912452833
-1.034784784784785 	300.0143888228806 	0.04167074867673708 	101342.0113379946
-1.032282282282283 	300.0148002727756 	0.04287340685655817 	101342.4978096381
-1.02977977977978 	300.0152080664975 	0.04406578257726594 	101342.9799567909
-1.027277277277277 	300.0156376913858 	0.04531747643892411 	101343.4879181797
-1.024774774774775 	300.0161058531751 	0.04667228498892532 	101344.0414454083
-1.022272272272272 	300.0166144496537 	0.0481401104392141 	101344.6427816909
-1.01976976976977 	300.0171501254789 	0.04967852623045711 	101345.2761436749
-1.017267267267267 	300.0176896117638 	0.05123535831004479 	101345.9140146009
-1.014764764764765 	300.0182082873625 	0.05273167783528836 	101346.527282949
-1.012262262262262 	300.0186884440529 	0.0541200006704075 	101347.0950130471
-1.00975975975976 	300.0191245656198 	0.05538613771914962 	101347.6106761397
-1.007257257257257 	300.0195242861827 	0.05654817912826114 	101348.0833019227
-1.004754754754755 	300.0199054615593 	0.0576655373365017 	101348.5339996654
-1.002252252252252 	300.0202906000962 	0.05878887554268562 	101348.9893826532
-0.9997497497497498 	300.0207001322603 	0.05998033070027364 	101349.4736104882
-0.9972472472472473 	300.0211461194403 	0.0612729913130837 	101350.0009414265
-0.9947447447447449 	300.0216282594669 	0.06266229203534027 	101350.5710220091
-0.9922422422422421 	300.0221337012255 	0.06411729530464036 	101351.1686580021
-0.9897397397397399 	300.0226406043662 	0.06557474400951775 	101351.7680255565
-0.9872372372372376 	300.0231241269922 	0.06697037853502173 	101352.3397546092
-0.9847347347347346 	300.0235631035143 	0.06823869386302812 	101352.8588152567
-0.9822322322322323 	300.0239458960103 	0.06934641566175433 	101353.3114444921
-0.9797297297297296 	300.0242739568359 	0.07030291194449077 	101353.6993583767
-0.9772272272272275 	300.0245616803773 	0.07114488752681429 	101354.0395751494
-0.9747247247247248 	300.024832370006 	0.07193964539784838 	101354.3596483803
-0.9722222222222224 	300.0251119965225 	0.07275806717230726 	101354.6902886557
-0.9697197197197196 	300.0254232607434 	0.07366572931139384 	101355.0583365904
-0.9672172172172175 	300.0257814226236 	0.07470703545035326 	101355.4818381891
-0.9647147147147147 	300.0261919502175 	0.07589316611083918 	101355.9672625017
-0.9622122122122124 	300.0266498382084 	0.07721109598741184 	101356.5086879582
-0.9597097097097099 	300.0271407656515 	0.07862211191753059 	101357.0891861087
-0.9572072072072073 	300.0276440524909 	0.08007309179969253 	101357.6843063139
-0.9547047047047047 	300.0281365209062 	0.08149446487967499 	101358.2666353332
-0.9522022022022023 	300.0285961508234 	0.08281965119922817 	101358.810140695
-0.9496996996996998 	300.0290053071861 	0.08400288168122698 	101359.2939634196
-0.9471971971971973 	300.029353628744 	0.08501215793496819 	101359.7058512147
-0.9446946946946947 	300.0296401592438 	0.08584635814334717 	101360.0446749836
-0.9421921921921923 	300.029873690961 	0.08653008969266478 	101360.3208229485
-0.93968968968969 	300.0300707987449 	0.08710727776979295 	101360.5539026524
-0.9371871871871872 	300.0302523041374 	0.08763998389419725 	101360.7685318914
-0.9346846846846848 	300.0304392482651 	0.08818487345012946 	101360.9895888919
-0.9321821821821823 	300.030649261189 	0.08879390629716413 	101361.2379273037
-0.9296796796796799 	300.0308937872697 	0.08950325321847966 	101361.5270757681
-0.9271771771771771 	300.0311766108692 	0.09032435342729861 	101361.8615118572
-0.9246746746746748 	300.0314942599632 	0.09124608109909479 	101362.2371314025
-0.9221721721721724 	300.0318378739144 	0.092238524865007 	101362.6434544247
-0.9196696696696698 	300.0321954347516 	0.09327155695112127 	101363.0662721303
-0.9171671671671672 	300.0325537324534 	0.09430372806925116 	101363.489963465
-0.9146646646646649 	300.032900022098 	0.09529955571195205 	101363.8994567939
-0.9121621621621623 	300.0332234933522 	0.09623287360951689 	101364.2819682927
-0.9096596596596597 	300.0335166054255 	0.09707829811848095 	101364.6285827082
-0.9071571571571573 	300.0337759081216 	0.09783037522842977 	101364.9352170083
-0.9046546546546547 	300.0340019495897 	0.09848576139486087 	101365.202519606
-0.9021521521521524 	300.0341989985985 	0.09905853186420902 	101365.4355384209
-0.8996496496496498 	300.0343750566142 	0.09957543047157844 	101365.6437324375
-0.8971471471471473 	300.0345411594136 	0.1000654112899071 	101365.8401558637
-0.894644644644645 	300.0347093001068 	0.1005596383080213 	101366.038986932
-0.892142142142142 	300.0348895764905 	0.1010808133773093 	101366.2521687847
-0.8896396396396397 	300.0350876858618 	0.1016530251169355 	101366.4864399561
-0.8871371371371374 	300.0353037716378 	0.1022746768353162 	101366.7419677565
-0.8846346346346349 	300.0355325862996 	0.1029322437663719 	101367.0125504234
-0.8821321321321324 	300.0357642438735 	0.103598366515337 	101367.28649664
-0.8796296296296297 	300.035986044403 	0.104234088756099 	101367.5487879578
-0.8771271271271271 	300.0361859324106 	0.1048136328318701 	101367.7851675073
-0.8746246246246248 	300.0363561190554 	0.1053087284868132 	101367.9864240625
-0.8721221221221224 	300.0364950412186 	0.1057165185203533 	101368.1507089868
-0.8696196196196196 	300.0366070807161 	0.1060440019399251 	101368.2832021005
-0.8671171171171175 	300.0367008337822 	0.106317312698764 	101368.3940723393
-0.8646146146146148 	300.0367874268334 	0.1065729279545406 	101368.4964726214
-0.8621121121121121 	300.0368788218556 	0.1068386850363617 	101368.6045490115
-0.8596096096096097 	300.0369852780413 	0.1071494801117979 	101368.730439803
-0.857107107107107 	300.0371127999255 	0.1075149333362523 	101368.8812397403
-0.8546046046046049 	300.0372619229638 	0.1079452546524535 	101369.0575844747
-0.8521021021021022 	300.0374279621701 	0.1084266525442779 	101369.2539364231
-0.8495995995995997 	300.037602107194 	0.1089297082000635 	101369.459873129
-0.8470970970970974 	300.0377725628368 	0.1094224818332742 	101369.6614491295
-0.8445945945945946 	300.0379256043367 	0.1098577641132298 	101369.8424321643
-0.8420920920920922 	300.0380478337952 	0.1102085633619186 	101369.9869793828
-0.8395895895895897 	300.0381296310586 	0.1104424514788806 	101370.083714923
-0.8370870870870872 	300.0381672110655 	0.110550947204753 	101370.1281608579
-0.8345845845845846 	300.0381625148336 	0.1105393004324108 	101370.1226077242
-0.8320820820820823 	300.0381224399438 	0.1104232858712868 	101370.0752219376
-0.8295795795795798 	300.0380580318511 	0.1102446676955777 	101369.9990574646
-0.8270770770770772 	300.0379836525787 	0.1100374436926973 	101369.9110964155
-0.8245745745745746 	300.0379156069234 	0.1098501995244726 	101369.8306266048
-0.8220720720720721 	300.0378690802582 	0.1097188994910843 	101369.7756001227
-0.8195695695695699 	300.0378552867268 	0.1096788110311402 	101369.7592886701
-0.817067067067067 	300.037880588861 	0.1097538416700776 	101369.7892100264
-0.8145645645645651 	300.0379454458184 	0.1099372165215871 	101369.8659018668
-0.8120620620620621 	300.0380429265434 	0.1102146850244345 	101369.9811789137
-0.8095595595595597 	300.0381584650962 	0.1105378564356622 	101370.1178093292
-0.8070570570570572 	300.0382710870484 	0.1108545583750965 	101370.2509935338
-0.8045545545545546 	300.038357293548 	0.1110997587235993 	101370.3529429089
-0.8020520520520523 	300.0383962722822 	0.1112091905407653 	101370.399039084
-0.7995495495495494 	300.0383730831438 	0.1111439207205807 	101370.3716188675
-0.7970470470470474 	300.038280913671 	0.11087663032876 	101370.2626314456
-0.7945445445445446 	300.0381235525982 	0.1104253009020133 	101370.0765500396
-0.7920420420420423 	300.0379156795526 	0.1098311180932669 	101369.8307313641
-0.7895395395395397 	300.0376808049584 	0.109159472728397 	101369.5529772873
-0.7870370370370371 	300.037447024117 	0.1084930118660374 	101369.2765153242
-0.7845345345345348 	300.0372408634523 	0.107900208268744 	101369.0327137718
-0.7820320320320323 	300.0370829659486 	0.1074471089333547 	101368.8459836466
-0.7795295295295296 	300.0369861540549 	0.107169781440565 	101368.7314917627
-0.7770270270270272 	300.0369530178668 	0.1070728117355791 	101368.6923049902
-0.7745245245245247 	300.0369747682553 	0.1071302091357161 	101368.7180231644
-0.7720220220220222 	300.0370324388471 	0.1072862467400473 	101368.7862170131
-0.7695195195195199 	300.0370986653526 	0.1074673909692581 	101368.8645343624
-0.767017017017017 	300.0371415286329 	0.1075801619903926 	101368.9152241203
-0.7645145145145147 	300.037129715622 	0.1075342814115845 	101368.9012568575
-0.7620120120120122 	300.0370369307062 	0.1072569097598095 	101368.7915428507
-0.7595095095095097 	300.0368477952377 	0.1067085430785611 	101368.567892014
-0.7570070070070072 	300.0365640394883 	0.1058962940532014 	101368.2323465333
-0.7545045045045048 	300.0362061929137 	0.10487553875707 	101367.8091780282
-0.7520020020020022 	300.0358108088873 	0.103747473624665 	101367.3416192957
-0.7494994994994997 	300.0354237461162 	0.1026424421302275 	101366.8838978254
-0.7469969969969972 	300.0350902503901 	0.1016889507525865 	101366.4895157747
-0.7444944944944945 	300.034845700539 	0.1009915008522955 	101366.2003170064
-0.7419919919919924 	300.0347071327508 	0.1005879715186853 	101366.0364469105
-0.7394894894894897 	300.0346661794646 	0.1004508980487309 	101365.9880130402
-0.7369869869869872 	300.0346894745272 	0.1004975390117176 	101366.0155602511
-0.7344844844844846 	300.0347266979389 	0.1005837919006052 	101366.0595784152
-0.7319819819819822 	300.0347219066512 	0.1005576921219155 	101366.0539103176
-0.7294794794794797 	300.0346266537987 	0.1002741506613215 	101365.9412799966
-0.7269769769769773 	300.0344118752283 	0.09964702608981929 	101365.6873124182
-0.7244744744744747 	300.0340747878624 	0.09867993479949944 	101365.2887076145
-0.721971971971972 	300.0336410503507 	0.09744192725933244 	101364.7758104234
-0.7194694694694695 	300.033159459692 	0.0960732709364869 	101364.2063198707
-0.7169669669669674 	300.0326884770106 	0.09472756793059908 	101363.649372238
-0.7144644644644647 	300.0322804624981 	0.09355061428632638 	101363.1668833097
-0.711961961961962 	300.0319674296009 	0.09264277449259299 	101362.7967074485
-0.7094594594594597 	300.0317510382383 	0.09200537048291324 	101362.5408167786
-0.7069569569569573 	300.031603253391 	0.09156597468128533 	101362.3660574429
-0.7044544544544545 	300.0314760168408 	0.09117957401124259 	101362.2155986881
-0.7019519519519523 	300.0313166423102 	0.09069951407411452 	101362.0271445392
-0.6994494494494495 	300.0310863153931 	0.09002935798603108 	101361.7547891857
-0.6969469469469471 	300.0307738751353 	0.08913134870572054 	101361.385336498
-0.6944444444444446 	300.030396913538 	0.08805681221090368 	101360.9395878686
-0.6919419419419421 	300.0299921989939 	0.08689714078849198 	101360.461016842
-0.6894394394394396 	300.0295982237329 	0.08575829239000615 	101359.9951451327
-0.6869369369369374 	300.029238943505 	0.08471761681336479 	101359.5702983934
-0.6844344344344344 	300.0289170095371 	0.08377969734791582 	101359.1896139794
-0.6819319319319321 	300.0286156862103 	0.08289963295174366 	101358.8333048557
-0.6794294294294296 	300.028306366145 	0.0819946156029898 	101358.4675443196
-0.6769269269269272 	300.027963196272 	0.08099531986983878 	101358.0617610621
-0.6744244244244245 	300.0275757873116 	0.07987789673271786 	101357.6036669094
-0.6719219219219222 	300.0271537408347 	0.07866531328792775 	101357.1046166463
-0.6694194194194195 	300.0267218079341 	0.07742524193671371 	101356.5938742952
-0.6669169169169172 	300.026307429027 	0.07622884201153213 	101356.1038872314
-0.6644144144144146 	300.0259280866732 	0.07512820439621345 	101355.65532974
-0.661911911911912 	300.0255877843783 	0.07413909092331973 	101355.2529352473
-0.6594094094094097 	300.0252769689531 	0.07323090674802361 	101354.8854116944
-0.656906906906907 	300.0249743496172 	0.07234608894387981 	101354.52758452
-0.6544044044044046 	300.0246531305373 	0.07140783449918438 	101354.1477668471
-0.6519019019019021 	300.0242900156803 	0.07035161087562153 	101353.7184126324
-0.6493993993993996 	300.0238742865027 	0.06915316800213883 	101353.2268470124
-0.6468968968968971 	300.0234140086911 	0.06782741191132656 	101352.6826043797
-0.6443943943943946 	300.0229294164772 	0.06642938827730219 	101352.1096091684
-0.6418918918918921 	300.0224400259338 	0.06501369294566982 	101351.5309435193
-0.6393893893893897 	300.0219573662371 	0.06361445440952493 	101350.960234919
-0.6368868868868871 	300.0214859820795 	0.06225136986840074 	101350.4028614026
-0.6343843843843846 	300.0210306474638 	0.0609364459764663 	101349.8644697248
-0.6318818818818821 	300.0206035235149 	0.05970477499229889 	101349.3594325179
-0.6293793793793795 	300.0202177044548 	0.05858875756541326 	101348.9032392247
-0.6268768768768773 	300.0198740587092 	0.05758689642240923 	101348.4969124693
-0.6243743743743745 	300.0195530912261 	0.05664714643535378 	101348.1173844061
-0.6218718718718721 	300.0192171070407 	0.05565669713106661 	101347.720128429
-0.6193693693693696 	300.0188260670264 	0.05451471158658205 	101347.257792929
-0.6168668668668671 	300.0183607249668 	0.05316977355425788 	101346.7075950787
-0.6143643643643645 	300.0178312758877 	0.05164466382180812 	101346.0815954419
-0.6118618618618621 	300.0172693861169 	0.05003230489732568 	101345.4172374791
-0.6093593593593596 	300.0167086963343 	0.04841201192095201 	101344.754300657
-0.6068568568568571 	300.0161645292357 	0.04683164170391482 	101344.1109025032
-0.6043543543543546 	300.0156299358361 	0.04528118858899607 	101343.4788262913
-0.6018518518518521 	300.0150899515419 	0.04371315340851319 	101342.8403807956
-0.5993493493493496 	300.0145362522881 	0.04211508306477128 	101342.1857233534
-0.5968468468468471 	300.0139780468363 	0.04050658651942081 	101341.5257369595
-0.5943443443443446 	300.0134414159916 	0.03896022923592916 	101340.8912605832
-0.591841841841842 	300.0129551995504 	0.03755842126298887 	101340.3163918627
-0.5893393393393397 	300.0125362470749 	0.03634172347207109 	101339.8210509032
-0.5868368368368371 	300.0121808581643 	0.03530254590866264 	101339.4008670698
-0.5843343343343346 	300.0118605030574 	0.03435595426343129 	101339.0221080282
-0.5818318318318321 	300.0115335338781 	0.03339615296650054 	101338.6355336152
-0.5793293293293297 	300.0111618179681 	0.03231442075647068 	101338.1960603571
-0.5768268268268271 	300.0107218952264 	0.03103880246142792 	101337.675946216
-0.5743243243243245 	300.0102120641318 	0.02957284731843774 	101337.073182591
-0.5718218218218221 	300.0096524793803 	0.02795726953809097 	101336.4115950864
-0.5693193193193196 	300.0090719594799 	0.02628618692476635 	101335.7252553722
-0.5668168168168171 	300.0085008014748 	0.0246429283412037 	101335.0499875081
-0.5643143143143147 	300.0079613498943 	0.02307707159705586 	101334.4122054296
-0.5618118118118121 	300.0074591616981 	0.02161818932655679 	101333.8184815307
-0.5593093093093094 	300.0069844545333 	0.02023333961664047 	101333.2572520176
-0.5568068068068072 	300.0065204586028 	0.01888408626632163 	101332.7086885642
-0.5543043043043046 	300.0060465488033 	0.01751427877331165 	101332.1484090914
-0.551801801801802 	300.005551324674 	0.01607840507461956 	101331.5629340437
-0.5492992992992995 	300.0050332905917 	0.01457900944318876 	101330.9504914701
-0.5467967967967969 	300.00449696036 	0.01302283387263082 	101330.3164225202
-0.5442942942942947 	300.0039532108148 	0.01145908503144523 	101329.6735842698
-0.5417917917917919 	300.0034173796023 	0.009911953802073346 	101329.0401072965
-0.5392892892892895 	300.0028960332829 	0.008394518582453107 	101328.4237591209
-0.536786786786787 	300.0023912965546 	0.006929863128797802 	101327.8270483852
-0.5342842842842846 	300.0018960300426 	0.005481947882661115 	101327.2415373906
-0.531781781781782 	300.0013957577805 	0.004037721763199741 	101326.6501130787
-0.5292792792792794 	300.0008813844136 	0.002557431777729533 	101326.0420203708
-0.526776776776777 	300.0003522575497 	0.001015687998108691 	101325.4164885472
-0.5242742742742745 	299.9998088517328 	0.0008449641925235197 	101324.7740791787
-0.521771771771772 	299.9992572821693 	0.002152296547455731 	101324.1220196283
-0.5192692692692695 	299.9987127703637 	0.003724249103897377 	101323.4783055935
-0.516766766766767 	299.998190176408 	0.005233309519029755 	101322.8605061879
-0.5142642642642645 	299.9976961247206 	0.006668837787339369 	101322.2764485634
-0.511761761761762 	299.9972258977009 	0.008034054507634336 	101321.7205604689
-0.5092592592592596 	299.9967649708852 	0.009378684694800171 	101321.1756707378
-0.506756756756757 	299.9962943569855 	0.01074726096995033 	101320.6193315061
-0.5042542542542544 	299.9957971955603 	0.01218908458269661 	101320.0316151972
-0.5017517517517521 	299.9952642897007 	0.013734543091352 	101319.4016435615
-0.4992492492492494 	299.9946972371375 	0.01537009450642901 	101318.7313087056
-0.496746746746747 	299.9941082106411 	0.01707173760218448 	101318.0350005104
-0.4942442442442445 	299.9935162845493 	0.01877876734620088 	101317.3352633268
-0.4917417417417421 	299.9929413893902 	0.02043874727712145 	101316.6556655132
-0.4892392392392395 	299.9923982613964 	0.02201299011246963 	101316.0136185422
-0.486736736736737 	299.9918921346475 	0.02347811261027956 	101315.4153138405
-0.4842342342342345 	299.9914174113642 	0.02486033097440308 	101314.8541395112
-0.481731731731732 	299.9909599089819 	0.02619118735057597 	101314.313320412
-0.4792292292292296 	299.9905015671678 	0.0275255813022367 	101313.7715161988
-0.4767267267267268 	299.9900259338335 	0.02890926140243341 	101313.2092757616
-0.4742242242242246 	299.9895230185055 	0.03036155746495119 	101312.614783285
-0.471721721721722 	299.9889921464427 	0.03189773800000611 	101311.9872506379
-0.4692192192192195 	299.9884419916812 	0.03348524679766485 	101311.336924263
-0.4667167167167169 	299.9878877788854 	0.03508771926720328 	101310.6818005841
-0.4642142142142145 	299.9873466007539 	0.03665365463540195 	101310.0420897636
-0.461711711711712 	299.9868325442642 	0.03813434619673126 	101309.4344376019
-0.4592092092092094 	299.9863531341288 	0.03952500698726126 	101308.8677411483
-0.456706706706707 	299.9859076720762 	0.04081804764334594 	101308.3411798858
-0.4542042042042045 	299.9854876453424 	0.0420423066424901 	101307.8446850262
-0.451701701701702 	299.9850790788187 	0.04323382264472656 	101307.3617386873
-0.4491991991991995 	299.984666031873 	0.04442864050156831 	101306.8735031691
-0.4466966966966969 	299.9842341579356 	0.04568422978010831 	101306.3630115929
-0.4441941941941945 	299.9837736099526 	0.04702026893032667 	101305.8186305355
-0.441691691691692 	299.9832807870478 	0.0484500814587429 	101305.2361047708
-0.4391891891891895 	299.9827587259531 	0.04996270308070628 	101304.6190141184
-0.436686686686687 	299.9822164565848 	0.05152228849652589 	101303.9780442364
-0.4341841841841846 	299.9816673517544 	0.05310805314950311 	101303.3289944093
-0.431681681681682 	299.9811267330757 	0.05466995042259723 	101302.6899735356
-0.4291791791791794 	299.9806093140875 	0.05616631277505012 	101302.0783835713
-0.426676676676677 	299.9801267894502 	0.05756406668785324 	101301.5080346409
-0.4241741741741744 	299.9796858734174 	0.0588338438923313 	101300.9868692098
-0.421671671671672 	299.9792872966769 	0.05999057214821414 	101300.5157536884
-0.4191691691691694 	299.9789256775175 	0.06104437120915165 	101300.0883199092
-0.4166666666666669 	299.9785903928711 	0.06202347373941959 	101299.6920188772
-0.4141641641641645 	299.9782674149349 	0.06296792193942435 	101299.3102662846
-0.411661661661662 	299.9779415455862 	0.06391033339610011 	101298.9250950913
-0.4091591591591594 	299.9775987368596 	0.06490739725661585 	101298.5199086203
-0.406656656656657 	299.9772282222345 	0.06598439956150945 	101298.0819743109
-0.4041541541541545 	299.9768239852664 	0.06715761045557181 	101297.6041815707
-0.401651651651652 	299.9763855167029 	0.06842832206969185 	101297.0859345608
-0.3991491491491494 	299.9759178930887 	0.06977203913068557 	101296.5332223272
-0.396646646646647 	299.9754308969907 	0.0711786658404417 	101295.9576179125
-0.3941441441441444 	299.9749375634667 	0.07260472023313648 	101295.3745248291
-0.3916416416416419 	299.974452225912 	0.07400893300591858 	101294.8008791733
-0.3891391391391395 	299.973988274459 	0.07535218197487424 	101294.2525172707
-0.3866366366366368 	299.9735561705092 	0.07659438112008835 	101293.7417955633
-0.3841341341341344 	299.9731619285196 	0.07773641343322096 	101293.2758218033
-0.381631631631632 	299.9728062371269 	0.07876983881458979 	101292.855421497
-0.3791291291291294 	299.9724845671278 	0.07970708252737951 	101292.4752288525
-0.3766266266266269 	299.9721882338203 	0.08057181393603685 	101292.1249825649
-0.3741241241241244 	299.9719061991998 	0.08138535839201412 	101291.7916437613
-0.371621621621622 	299.9716272537374 	0.08219744449709564 	101291.4619522276
-0.3691191191191194 	299.971342000648 	0.08302838838202038 	101291.1248084534
-0.366616616616617 	299.9710442090262 	0.08389526305045941 	101290.7728513928
-0.3641141141141143 	299.970731447173 	0.08480332656969995 	101290.4031945444
-0.3616116116116119 	299.9704049011591 	0.08574109757031231 	101290.0172501649
-0.3591091091091095 	299.9700684994655 	0.08671381851061502 	101289.6196604257
-0.356606606606607 	299.9697276245815 	0.0877000712197773 	101289.2167781521
-0.3541041041041044 	299.9693878294348 	0.08868519624925311 	101288.8151793754
-0.3516016016016019 	299.9690538992888 	0.08965237606527235 	101288.4205099672
-0.3490990990990994 	299.9687293930166 	0.0905853710819098 	101288.03697705
-0.346596596596597 	299.9684166067253 	0.09149187989033904 	101287.6673019855
-0.3440940940940944 	299.9681167106938 	0.09236231627975855 	101287.3128576657
-0.3415915915915919 	299.9678298422562 	0.09319787455700436 	101286.9738143147
-0.3390890890890895 	299.9675551884681 	0.09399642956077028 	101286.6492088765
-0.3365865865865869 	299.9672909386158 	0.09475744688483251 	101286.3368949528
-0.3340840840840844 	299.9670343127661 	0.09550216448138681 	101286.033599167
-0.3315815815815819 	299.9667818352771 	0.09623498156965749 	101285.7352034041
-0.3290790790790794 	299.9665299374162 	0.09696771660308928 	101285.4374935937
-0.3265765765765769 	299.9662760027728 	0.09770413321775845 	101285.1373820678
-0.3240740740740744 	299.9660195600126 	0.09844023114747968 	101284.8342990104
-0.3215715715715718 	299.9657629869383 	0.09918209702249409 	101284.5310662775
-0.3190690690690695 	299.9655114996896 	0.09990984439560452 	101284.2338477099
-0.3165665665665668 	299.9652721797724 	0.10060459225915 	101283.9510017633
-0.3140640640640644 	299.9650524033967 	0.1012411608377381 	101283.691259098
-0.311561561561562 	299.9648580788121 	0.101798687176543 	101283.4615957314
-0.3090590590590593 	299.9646919521136 	0.1022805340358766 	101283.2652531278
-0.3065565565565568 	299.9645523628596 	0.1026870333277149 	101283.1002808581
-0.3040540540540545 	299.9644329494075 	0.1030387540204963 	101282.9591528179
-0.3015515515515518 	299.9643233923561 	0.1033603850489645 	101282.829671147
-0.2990490490490494 	299.9642112132037 	0.1036851686612796 	101282.6970962505
-0.2965465465465469 	299.964084132547 	0.1040572147525056 	101282.5469088861
-0.2940440440440444 	299.9639324621175 	0.1045000687237202 	101282.3676600836
-0.2915415415415418 	299.9637511267682 	0.105028133496176 	101282.1533567691
-0.2890390390390395 	299.9635409645347 	0.1056358997205858 	101281.9049808903