/*--------------------------------*- C++ -*----------------------------------*\
  =========                 |
  \\      /  F ield         | OpenFOAM: The Open Source CFD Toolbox
   \\    /   O peration     | Website:  https://openfoam.org
    \\  /    A nd           | Version:  7
     \\/     M anipulation  |
\*---------------------------------------------------------------------------*/
FoamFile
{
    version     2.0;
    format      ascii;
    class       volScalarField;
    location    "0.0015";
    object      Uy;
}
// * * * * * * * * * * * * * * * * * * * * * * * * * * * * * * * * * * * * * //

dimensions      [0 1 -1 0 0 0 0];

internalField   nonuniform List<scalar> 
5000
(
-7.1906006e-17
-7.6626664e-17
0
0
3.8990084e-17
-4.4241225e-32
-3.8808157e-17
0
0
3.8357478e-17
7.6368983e-17
-3.8004596e-17
-3.7821609e-17
3.7634016e-17
0
3.7251806e-17
1.5469158e-46
-3.685741e-17
0
-3.6454422e-17
3.624873e-17
3.6038297e-17
-7.1640275e-17
3.5603095e-17
3.5388867e-17
2.89842e-31
-3.4939092e-17
-3.4709114e-17
6.8952983e-17
-5.936246e-31
5.9430404e-31
-3.3757033e-17
-6.7021227e-17
6.6520985e-17
-5.7225143e-31
2.8482879e-30
1.1265647e-30
-6.4451959e-17
6.3917768e-17
6.3376874e-17
-6.2829227e-17
2.1416483e-30
6.171361e-17
-3.0572802e-17
-9.085613e-17
2.9994581e-17
2.9700397e-17
2.0139899e-30
5.8204102e-17
0
-2.8490528e-17
-4.0046015e-33
2.7865965e-17
-5.5097684e-17
9.5187266e-31
5.3809927e-17
-2.6578247e-17
9.0641948e-31
2.5915392e-17
0
-2.5240088e-17
-8.4916659e-31
-6.9782387e-33
-2.4204139e-17
2.3852738e-17
-8.2147144e-31
-2.314092e-17
2.2780529e-17
2.2417156e-17
-2.2050867e-17
-2.1681688e-17
2.1309731e-17
2.093507e-17
-4.1115721e-17
-2.0178227e-17
1.9796384e-17
0
-1.9026882e-17
2.648855e-33
1.8251053e-17
-1.7861174e-17
4.9653176e-33
-4.8538757e-33
-1.6684926e-17
-1.6290704e-17
-5.5342063e-31
1.549858e-17
0
1.4700545e-17
1.4833658e-30
4.8577092e-31
-1.3490209e-17
-1.3082822e-17
2.5346787e-17
8.4860942e-31
-1.1848503e-17
0
0
1.0597368e-17
7.0576894e-31
-1.9510658e-17
9.3323271e-18
1.7816414e-17
0
-8.0572534e-18
-7.6306905e-18
7.2035513e-18
6.7759482e-18
0
0
-5.4912079e-18
-5.0626119e-18
0
4.2055014e-18
-1.3204702e-31
-3.349312e-18
2.9218483e-18
-7.091273e-34
7.2323701e-32
2.0678073e-47
-2.4337894e-18
3.3169219e-34
3.3135935e-19
0
-4.9398015e-19
9.0976755e-19
1.3193677e-18
-3.4593068e-18
-2.1408559e-18
5.0991811e-18
2.9564911e-18
-3.3624041e-18
-3.7665005e-18
-4.1684257e-18
0
4.965882e-18
5.3609967e-18
-5.7537173e-18
-2.1303993e-31
6.5316909e-18
-6.9166954e-18
-7.2989268e-18
0
8.0547878e-18
8.428245e-18
-8.7986017e-18
9.1658087e-18
-5.4170847e-33
-9.8906187e-18
1.0248074e-17
-1.0602099e-17
7.6266553e-31
1.1299529e-17
-1.1642761e-17
1.1982231e-17
1.2317887e-17
-1.2649652e-17
0
0
-1.3620944e-17
-1.3936565e-17
1.4248065e-17
1.4555375e-17
-1.4858449e-17
-1.0511403e-30
1.5451827e-17
-1.5742168e-17
-1.6028291e-17
0
1.6587812e-17
1.6861225e-17
0
-1.7395468e-17
-1.7656305e-17
0
1.8165461e-17
3.8309456e-30
-1.8658171e-17
1.88984e-17
1.9134554e-17
-1.9366606e-17
-1.353293e-30
1.3631184e-30
8.5427581e-33
2.0253763e-17
-2.0465391e-17
-2.867302e-30
1.435905e-30
-1.4496363e-30
2.1271934e-17
0
0
-2.1835278e-17
-2.201523e-17
0
0
2.2532103e-17
-7.9093389e-48
-2.2858024e-17
0
2.3169684e-17
-2.3320317e-17
-6.5031113e-30
4.7222457e-17
-2.3751644e-17
-4.9598071e-30
-3.4138297e-33
-2.4153344e-17
2.4280825e-17
-3.4681983e-33
-3.3948402e-30
1.7056238e-30
-2.476084e-17
0
2.4983055e-17
1.7363906e-30
6.9922473e-30
2.5294992e-17
0
-2.5488829e-17
-2.5581665e-17
0
0
0
2.5927155e-17
1.7998631e-30
-2.6084323e-17
0
0
2.6302047e-17
2.636995e-17
-2.6435523e-17
-2.6498845e-17
0
2.6619191e-17
2.6676351e-17
-2.6731499e-17
-2.6784619e-17
0
2.6884941e-17
-7.4785691e-30
-1.8708933e-30
2.7021883e-17
-2.7064121e-17
-2.7104689e-17
0
2.7181072e-17
-3.7826875e-30
2.7251704e-17
3.7843693e-30
-5.4633706e-17
2.7347359e-17
-3.7970738e-30
-9.5140951e-30
-1.8984582e-30
-2.7457697e-17
2.7482749e-17
2.7506757e-17
0
-2.7551791e-17
-2.7573078e-17
0
2.7613683e-17
2.7632945e-17
-5.5302868e-17
-2.7669173e-17
2.7686268e-17
2.7702842e-17
7.6891241e-30
-2.7734572e-17
2.7749605e-17
-1.9254042e-30
-2.7777748e-17
2.779096e-17
-1.9321103e-30
1.9369193e-30
-7.9091575e-33
-1.9227048e-30
2.7849817e-17
0
0
-2.7878304e-17
-2.7886851e-17
0
0
0
0
2.7921177e-17
1.9247654e-30
-5.5862616e-17
1.1909697e-32
2.7939527e-17
2.794285e-17
-3.8799822e-30
-3.8723762e-30
-3.9719576e-33
-2.7951816e-17
-2.7953082e-17
-2.7953994e-17
5.5909171e-17
8.3864591e-17
-2.7954814e-17
-5.5908861e-17
0
2.7952869e-17
2.7951833e-17
-2.7950659e-17
7.9436703e-33
-1.1914834e-32
7.9427163e-33
2.7944026e-17
2.7942047e-17
-2.7940061e-17
-5.5876127e-17
2.7936027e-17
-9.603736e-51
2.7931798e-17
7.7396342e-30
-5.5855109e-17
0
0
5.5843316e-17
-1.5505573e-29
-5.5836221e-17
0
2.7914827e-17
2.7913276e-17
-2.791179e-17
3.9663032e-33
-3.8748938e-30
3.9659383e-33
2.790665e-17
-2.7905549e-17
-2.7904478e-17
0
2.7902351e-17
-3.8738158e-30
-2.790021e-17
5.5798216e-17
-7.7387772e-30
-2.7896718e-17
-7.745994e-30
-5.5787914e-17
5.5784856e-17
2.7890803e-17
-2.7889081e-17
-3.9630177e-33
-2.7885327e-17
0
0
2.7878758e-17
-3.8663791e-30
-5.5747153e-17
3.9606695e-33
8.3603253e-17
-2.7864657e-17
-2.7861469e-17
5.5716366e-17
-2.7854786e-17
2.7851265e-17
5.5695234e-17
-2.7843857e-17
-2.7840007e-17
-2.7836094e-17
2.7832142e-17
1.6552461e-49
-2.7824184e-17
2.7820185e-17
-2.7816167e-17
2.7812135e-17
7.7059509e-30
7.9024031e-33
2.7800165e-17
-5.5592583e-17
2.7792494e-17
7.7163911e-30
-7.7074872e-30
-2.7781621e-17
-5.5556366e-17
8.332451e-17
7.7037231e-30
-1.54057e-29
7.694119e-30
-5.5525036e-17
5.5519525e-17
-7.6997142e-30
-5.5509227e-17
0
0
2.7747658e-17
-3.8482486e-30
-2.77435e-17
-2.7741541e-17
2.7739646e-17
8.3213417e-17
-2.7736014e-17
-2.7734262e-17
-7.882059e-33
-2.7730796e-17
0
5.5454527e-17
5.5450922e-17
-2.7723637e-17
-5.544357e-17
-2.7719886e-17
5.5435837e-17
5.5431728e-17
-5.5427434e-17
-5.5422952e-17
0
5.5413428e-17
-2.7704182e-17
-5.540308e-17
2.769878e-17
2.7695897e-17
-3.9353966e-33
3.8444487e-30
2.7686529e-17
-2.768318e-17
-2.7679722e-17
2.7676151e-17
-3.8381136e-30
-3.9319527e-33
-3.8370428e-30
-2.7660731e-17
2.7656636e-17
-1.151781e-29
-3.8386806e-30
-7.6722316e-30
-2.7639488e-17
2.7635001e-17
-3.8362137e-30
-7.659376e-30
-3.9252165e-33
-5.5233252e-17
-2.7611979e-17
2.7607317e-17
5.5205304e-17
-3.8317081e-30
-5.5186778e-17
-2.7588826e-17
5.5168635e-17
2.7579861e-17
-2.7575457e-17
-2.757111e-17
-7.650845e-30
2.7562663e-17
0
0
2.7550874e-17
0
-2.7543667e-17
2.7540256e-17
3.9132396e-33
-7.6416847e-30
0
-2.7527974e-17
2.7525255e-17
2.7522671e-17
-5.5040427e-17
-2.7517874e-17
2.7515646e-17
0
0
-2.7509579e-17
7.6422621e-30
2.7505984e-17
0
0
-2.7500984e-17
1.1457948e-29
2.7497761e-17
0
0
0
0
0
0
0
0
5.4963859e-17
1.5253402e-29
-2.7477657e-17
2.7475364e-17
-2.7472969e-17
2.747048e-17
-7.6350964e-30
-2.7465227e-17
-7.625776e-30
-2.7459566e-17
0
0
2.7450328e-17
7.6215103e-30
-2.7443773e-17
0
0
0
0
0
0
0
5.4830454e-17
-2.2819336e-29
-5.4815688e-17
2.7404163e-17
3.8938477e-33
2.7396916e-17
-1.5189823e-29
-5.4779661e-17
-2.7386337e-17
-5.937828e-50
8.2138496e-17
0
-5.4745922e-17
0
0
5.4727498e-17
-7.5897819e-30
-8.2073994e-17
2.7355254e-17
2.7352598e-17
-2.7350025e-17
2.7347528e-17
-2.7345105e-17
-7.584767e-30
2.7340469e-17
-2.7338249e-17
0
-2.7333975e-17
2.7331908e-17
5.4659755e-17
-2.7327877e-17
-2.7325899e-17
-2.7323936e-17
-2.7321982e-17
5.4640061e-17
2.7318076e-17
-2.7316111e-17
0
2.7312127e-17
-2.7310093e-17
-2.7308019e-17
8.1917697e-17
7.7601862e-33
-5.4603005e-17
2.7299222e-17
3.7899011e-30
2.7294493e-17
-7.7568644e-33
-5.4579053e-17
2.728695e-17
0
-7.5755574e-30
-3.8765541e-33
-2.7275983e-17
2.7273083e-17
-7.5723729e-30
-3.7818957e-30
-3.8744618e-33
-2.7261024e-17
2.7257904e-17
4.8384894e-50
-7.5672138e-30
-3.8722224e-33
-5.4490255e-17
-3.7783975e-30
2.7238706e-17
0
0
-2.7229095e-17
-1.1328534e-29
2.7222757e-17
-2.721964e-17
3.7787496e-30
1.6311256e-49
-3.7779165e-30
2.7207642e-17
2.7204765e-17
3.7728523e-30
-2.7199151e-17
0
0
2.7191132e-17
-2.718859e-17
2.2631676e-29
2.7183698e-17
-2.7181334e-17
0
2.7176759e-17
2.7174548e-17
-2.7172388e-17
-2.7170271e-17
0
2.7166139e-17
2.7164111e-17
-5.4324203e-17
-2.7160106e-17
2.7158119e-17
2.7156136e-17
3.7662251e-30
2.7152165e-17
7.539061e-30
-5.42963e-17
0
0
0
2.7139762e-17
2.7137563e-17
0
-2.7133013e-17
-3.7591105e-30
2.7128239e-17
0
0
-2.7120614e-17
-3.7612013e-30
3.7569658e-30
-2.7112346e-17
2.7109443e-17
-1.1278834e-29
-2.7103423e-17
0
-2.7097131e-17
-3.7617172e-30
2.709059e-17
-2.7087227e-17
2.7083803e-17
2.7080321e-17
-2.7076788e-17
0
2.7069592e-17
2.7065937e-17
-2.7062249e-17
-2.7058534e-17
0
-2.705106e-17
2.7047313e-17
2.7043563e-17
-2.7039806e-17
-5.4072096e-17
1.5012662e-29
8.1085693e-17
7.535838e-50
-2.7021202e-17
-5.4035152e-17
1.4987136e-29
5.4020855e-17
-2.7006912e-17
2.7003448e-17
-2.7000047e-17
-2.6996709e-17
5.3986868e-17
0
0
-5.3967946e-17
-3.3616811e-49
5.3956006e-17
0
0
-5.3939153e-17
-2.0282215e-49
5.3928599e-17
0
0
-5.3913711e-17
-2.695449e-17
5.3904363e-17
2.6949929e-17
0
-5.3891139e-17
1.496332e-29
5.388273e-17
-2.6939308e-17
0
2.6935268e-17
-2.6933274e-17
3.8271663e-33
2.6929304e-17
-2.6927316e-17
2.6925321e-17
2.6923322e-17
-2.6921318e-17
-2.6919306e-17
7.4743933e-30
2.6915232e-17
-2.6913152e-17
-7.4726596e-30
2.690889e-17
-2.6906713e-17
2.6904511e-17
2.6902282e-17
-2.690002e-17
-2.689772e-17
7.468311e-30
2.6892993e-17
-2.6890574e-17
3.8210326e-33
2.6885653e-17
-2.6883155e-17
2.6880626e-17
2.6878065e-17
-2.6875475e-17
-5.3745725e-17
1.4930297e-29
5.3735208e-17
-2.6864965e-17
3.8173649e-33
5.3719314e-17
7.633215e-33
-2.6854316e-17
0
2.6849009e-17
0
-2.6843777e-17
0
0
0
-2.6833515e-17
-1.9089805e-50
2.6828555e-17
0
2.6823738e-17
-7.447763e-30
-2.6819051e-17
0
0
0
-2.6810127e-17
7.4440473e-30
2.6805901e-17
0
2.6801792e-17
7.4379582e-30
-2.6797811e-17
0
2.6793969e-17
-2.6792084e-17
1.4885832e-29
2.6788351e-17
-2.6786502e-17
0
-2.6782849e-17
-7.4365605e-30
2.677922e-17
0
2.6775572e-17
-2.6773736e-17
-1.486804e-29
2.6770019e-17
-1.486215e-29
-3.8037083e-33
7.4357117e-30
-3.8031537e-33
-2.6760314e-17
0
2.6756188e-17
-7.4252691e-30
-7.4246674e-30
7.716099e-51
-7.4272256e-30
0
-5.3485458e-17
-7.4252511e-30
2.673783e-17
-2.6735295e-17
7.419339e-30
2.6730037e-17
2.672732e-17
7.4208752e-30
-7.4200895e-30
2.6718824e-17
-2.6715862e-17
-2.6712835e-17
0
-2.6706612e-17
7.4150089e-30
2.6700174e-17
0
0
0
-5.3373169e-17
2.9637418e-29
5.335897e-17
0
0
0
0
0
0
0
-5.3298558e-17
1.4805339e-29
5.3282767e-17
2.6637384e-17
-2.6633354e-17
-2.6629303e-17
7.3970828e-30
1.4769204e-29
2.6617082e-17
-2.6612983e-17
2.6608868e-17
2.6604742e-17
-2.6600612e-17
-2.6596486e-17
1.4760785e-29
2.658826e-17
2.658416e-17
-7.3732014e-30
-2.6575983e-17
-2.6571911e-17
2.6567861e-17
2.6563837e-17
-2.6559845e-17
2.6555883e-17
0
-2.6548044e-17
-2.6544169e-17
7.3621786e-30
2.6536536e-17
-2.6532789e-17
2.6529092e-17
2.6525444e-17
-2.6521843e-17
2.6518289e-17
7.3626268e-30
-2.6511324e-17
-2.6507925e-17
-3.7665285e-33
5.3002625e-17
1.4712223e-29
-2.6494941e-17
-2.6491837e-17
0
2.64858e-17
0
0
0
2.6474479e-17
2.6471793e-17
-2.6469159e-17
-2.6466577e-17
0
2.6461581e-17
-7.3509446e-30
-2.6456808e-17
0
0
2.6449979e-17
-1.4680528e-29
-2.6445623e-17
0
0
2.6439367e-17
-1.4674735e-29
-2.643534e-17
0
2.6431367e-17
-7.3389204e-30
7.3346293e-30
-7.3378543e-30
-2.6423645e-17
0
-2.6419727e-17
1.4660135e-29
2.6415935e-17
0
2.6412043e-17
-2.6409935e-17
-2.6407838e-17
5.2811742e-17
7.3393834e-30
-5.2804413e-17
7.3307609e-30
2.6397397e-17
0
0
2.6391053e-17
-7.3241397e-30
-2.6387399e-17
0
2.6380017e-17
-2.6377015e-17
-2.6375036e-17
2.637406e-17
0
-2.6372528e-17
2.6369959e-17
1.4635118e-29
-1.4632702e-29
2.6357917e-17
-2.1947414e-29
2.6352862e-17
-2.6349937e-17
7.3119632e-30
-1.462897e-29
-5.2675712e-17
7.3052865e-30
2.6333335e-17
0
0
0
-5.2641302e-17
-2.6316693e-17
5.2625403e-17
2.6308839e-17
0
0
2.6299308e-17
5.0851172e-50
-2.6292599e-17
0
-5.256773e-17
-2.6279885e-17
5.2552831e-17
2.6273408e-17
0
-5.2531572e-17
-7.4638703e-33
7.8771173e-17
-7.2826271e-30
-5.2500193e-17
2.6246376e-17
1.4917103e-32
-2.6238444e-17
7.2884563e-30
1.4551972e-29
2.622486e-17
0
2.6217274e-17
-1.4554643e-29
-5.2421125e-17
2.6205493e-17
-4.3621477e-29
-2.6195239e-17
5.2382714e-17
-3.7215022e-33
-2.6183793e-17
0
0
0
-2.6166399e-17
2.6162689e-17
5.231747e-17
-2.6154246e-17
-7.261183e-30
-7.2524899e-30
-2.6140842e-17
0
2.6133673e-17
-3.7131698e-33
-5.2247406e-17
2.6118343e-17
1.4487811e-29
-2.6110931e-17
-2.6108121e-17
1.4504465e-29
5.2195631e-17
0
2.6086795e-17
2.608427e-17
0
-2.6079384e-17
-2.6073666e-17
2.6066909e-17
0
-2.6057926e-17
0
0
2.6048441e-17
-2.168749e-29
-2.6038031e-17
0
0
2.602703e-17
2.6023056e-17
-2.6018457e-17
-2.6013742e-17
2.6009645e-17
2.600643e-17
-5.2007354e-17
-2.6000252e-17
7.2220939e-30
2.5990057e-17
-1.4416714e-29
-1.4415111e-29
2.5981091e-17
-2.5978924e-17
2.5975115e-17
-2.5970628e-17
-2.2140454e-32
2.5962968e-17
-5.1918543e-17
-2.5955305e-17
-2.5951456e-17
5.1896589e-17
5.1892317e-17
-2.5944211e-17
2.5941467e-17
-2.5938045e-17
1.4403121e-29
5.1863972e-17
-2.5929193e-17
7.1954439e-30
-7.2018778e-30
-2.5919604e-17
0
0
2.5912894e-17
2.59105e-17
0
-2.5905261e-17
-2.5902179e-17
0
-2.5896276e-17
7.1903309e-30
2.5893047e-17
-2.5891643e-17
7.1816208e-30
2.5887124e-17
0
2.5882776e-17
1.4368931e-29
-2.5876439e-17
2.5873689e-17
-7.1731302e-30
-2.5871732e-17
-2.5871347e-17
-7.1797642e-30
2.5866703e-17
0
-2.5861261e-17
2.5858756e-17
-7.3488262e-33
1.4358486e-29
2.5852915e-17
-2.5851792e-17
0
-5.1696987e-17
5.7386776e-29
2.5844147e-17
1.4344015e-29
5.1677119e-17
-5.1671589e-17
-5.1667575e-17
5.1665612e-17
5.1663538e-17
2.582961e-17
0
-2.5824299e-17
-5.1644015e-17
3.6691395e-33
-2.5815915e-17
2.5812621e-17
2.5810199e-17
-2.5809082e-17
5.1616486e-17
-5.1612561e-17
-4.2975192e-29
5.1598366e-17
-5.1591626e-17
1.431704e-29
-2.5790308e-17
2.5787735e-17
2.5785148e-17
-2.57825e-17
-7.1512026e-30
-5.155382e-17
5.1547818e-17
5.1541651e-17
-5.1535366e-17
-7.1506261e-30
-2.5761283e-17
1.4305022e-29
2.5754953e-17
7.1470954e-30
2.7462574e-49
2.5744951e-17
5.148298e-17
-2.5738236e-17
-3.9388495e-49
-2.5731914e-17
-4.2857045e-29
2.5723227e-17
-5.1439018e-17
1.427487e-29
5.1429712e-17
7.3646826e-50
-2.5707539e-17
0
0
-2.5693799e-17
2.5690097e-17
5.1373036e-17
0
0
0
-2.5671875e-17
-2.5668056e-17
0
2.5660046e-17
-2.5656083e-17
-4.272427e-29
5.1297322e-17
0
0
0
-2.5631415e-17
-2.5628548e-17
2.5625788e-17
-2.5621988e-17
-1.4226744e-29
5.1224e-17
0
0
-5.1198625e-17
7.2746949e-33
2.5591823e-17
-2.5588014e-17
2.5584152e-17
-2.558031e-17
1.4204138e-29
5.1144954e-17
0
0
-2.5560771e-17
-2.5557214e-17
0
0
2.5544198e-17
2.5540601e-17
0
-2.5535706e-17
-2.5531753e-17
2.5526888e-17
-2.5522091e-17
-2.5518045e-17
2.5514617e-17
2.5511402e-17
-1.4166142e-29
-2.5504351e-17
2.5500822e-17
7.0766617e-30
-2.5495966e-17
0
-2.5489645e-17
1.4149685e-29
2.5480365e-17
-2.5476415e-17
1.4143117e-29
2.5470106e-17
0
-2.546449e-17
7.0702002e-30
3.6179178e-33
-2.5455978e-17
2.5453093e-17
2.545023e-17
0
-5.0889113e-17
2.8258689e-29
2.5439017e-17
3.614716e-33
5.0867207e-17
-5.0861831e-17
-5.0856508e-17
5.0851252e-17
2.5423022e-17
0
-5.0835764e-17
4.2315298e-29
5.0826436e-17
0
-5.0817739e-17
-1.4109641e-29
2.5403577e-17
7.0533675e-30
5.0797586e-17
-5.0793445e-17
-6.3428144e-29
5.0784747e-17
-5.0780183e-17
1.4088589e-29
5.0771454e-17
2.5383622e-17
-5.0763024e-17
-2.5379376e-17
5.0754452e-17
-5.0750175e-17
-6.3374093e-29
5.07418e-17
-5.0737648e-17
7.0438411e-30
-2.5364667e-17
2.8141892e-29
7.608142e-17
-1.4075854e-29
-5.0713014e-17
2.5354633e-17
5.0704779e-17
-2.534964e-17
1.4073158e-29
-2.5345294e-17
-2.8150595e-29
2.5342995e-17
-5.0679826e-17
2.1099196e-29
-2.8128042e-29
1.4053784e-29
2.5329561e-17
0
2.5325597e-17
2.5323517e-17
0
0
0
0
0
-2.5309706e-17
-2.5306432e-17
0
2.5300587e-17
-2.5298083e-17
-4.2137347e-29
5.058636e-17
0
0
0
-2.5281904e-17
-2.5279443e-17
2.5277594e-17
2.5275135e-17
-5.0542611e-17
-4.2097439e-29
5.0528053e-17
0
-5.0516482e-17
-4.2070289e-29
2.5252545e-17
-2.5249537e-17
2.5246028e-17
-2.5242362e-17
-1.4009688e-29
5.0474162e-17
0
0
-2.5225745e-17
-2.5221775e-17
0
-2.5215162e-17
-7.1656504e-33
-2.5208651e-17
2.5205286e-17
7.5604431e-17
0
5.0387248e-17
5.0381742e-17
0
-7.5551061e-17
-5.0357485e-17
5.0348455e-17
-2.517042e-17
-2.5166774e-17
7.5489349e-17
2.5159429e-17
3.5748345e-33
2.5151652e-17
-2.5147378e-17
-2.5143232e-17
-2.5139525e-17
-6.6988222e-50
-2.5131958e-17
-2.512712e-17
2.5122334e-17
0
5.0226664e-17
5.0218079e-17
0
-2.5102226e-17
-5.0195516e-17
-1.3924615e-29
-2.5087303e-17
-5.0165655e-17
5.0157111e-17
5.0149676e-17
2.5071407e-17
2.5066941e-17
0
-2.5056336e-17
-7.5155873e-17
2.5047717e-17
1.1857165e-47
-7.511921e-17
5.0071084e-17
2.5030769e-17
2.5026018e-17
5.0042901e-17
-5.0033669e-17
-2.501237e-17
2.5008518e-17
2.5004996e-17
2.5000577e-17
-7.4985626e-17
-2.499027e-17
7.4958173e-17
2.4981972e-17
-2.4978106e-17
-4.9949401e-17
2.4970728e-17
-2.4965858e-17
4.155905e-29
-4.1566498e-29
-7.4859696e-17
2.4949331e-17
2.4945755e-17
4.9884305e-17
2.4938093e-17
-4.9867656e-17
-7.0854747e-33
-2.4925894e-17
2.4922004e-17
7.4755666e-17
-7.4748003e-17
-2.4912627e-17
7.4723321e-17
0
-7.4700113e-17
-2.489686e-17
7.4681351e-17
-2.4891006e-17
-4.9775997e-17
-1.3812778e-29
2.7618097e-29
2.487776e-17
0
4.9743245e-17
4.9737653e-17
-2.4866645e-17
-2.4863964e-17
-4.9720526e-17
2.4856801e-17
2.4854022e-17
-4.9703431e-17
0
4.9695198e-17
4.9688806e-17
-2.4841329e-17
-4.9677909e-17
1.3786562e-29
2.4835297e-17
-4.9665207e-17
2.4830072e-17
-8.2688877e-29
-4.9652328e-17
2.4824023e-17
0
4.9639324e-17
0
-5.5106473e-29
-2.4814119e-17
-4.9623881e-17
7.4429906e-17
-7.0509459e-33
-4.9613502e-17
0
4.9605922e-17
2.4801031e-17
-4.9598751e-17
2.7533058e-29
2.4796432e-17
-4.9588856e-17
2.4792432e-17
-4.1275249e-29
-4.957906e-17
2.4788124e-17
-2.4786069e-17
4.9567743e-17
7.4346413e-17
0
-7.4339985e-17
-4.9555251e-17
7.43247e-17
4.9546058e-17
-2.477222e-17
-4.954268e-17
2.4768967e-17
2.4766035e-17
-4.9528161e-17
2.4763078e-17
4.9524203e-17
-2.4760007e-17
3.5182355e-33
-4.9510852e-17
-4.9508137e-17
7.425809e-17
-2.4750708e-17
-4.1218988e-29
7.4240273e-17
0
-7.4228948e-17
-4.948222e-17
2.4739403e-17
2.4737258e-17
2.4734832e-17
0
2.4730824e-17
-1.3726258e-29
-4.9452745e-17
1.3720305e-29
2.4721915e-17
0
2.4716927e-17
-4.9429193e-17
-7.4136328e-17
4.9418822e-17
7.4120445e-17
2.4704388e-17
-2.4701783e-17
-4.9397919e-17
2.4696306e-17
-2.4693883e-17
-2.4691228e-17
4.937659e-17
-4.9371229e-17
-2.4683225e-17
7.4041539e-17
4.9354896e-17
-2.467472e-17
-7.401716e-17
5.4773932e-29
-5.4766519e-29
-2.4663417e-17
-2.7377759e-29
-2.4658282e-17
2.4654404e-17
2.4651404e-17
2.4649394e-17
-2.4646396e-17
-2.4642251e-17
7.3917119e-17
-2.4636941e-17
-4.9267803e-17
7.3889088e-17
6.9992126e-33
-2.4623739e-17
4.9241272e-17
2.4616804e-17
0
-2.461037e-17
-2.4607071e-17
-4.9206795e-17
2.4599969e-17
-8.1918582e-29
-7.3780313e-17
2.458988e-17
2.4586525e-17
2.4583309e-17
-2.4579931e-17
-2.4576463e-17
7.3719453e-17
-2.4569882e-17
-4.9132922e-17
-4.0910002e-29
-2.4559697e-17
4.9112694e-17
7.3658557e-17
1.3623286e-29
-1.3624922e-29
-3.4877188e-33
-2.4539076e-17
-4.9071159e-17
-2.4532243e-17
7.358641e-17
-2.7226667e-29
-4.904327e-17
0
0
2.4511052e-17
-1.3603482e-29
1.3598132e-29
2.450046e-17
-4.8992982e-17
-2.449272e-17
-2.7179965e-29
2.4485677e-17
7.344427e-17
2.4477554e-17
0
0
0
-7.3387791e-17
-4.8918658e-17
7.3368028e-17
-2.7153022e-29
-4.8898271e-17
0
0
4.8877336e-17
-5.4253264e-29
-2.7115528e-29
4.8856097e-17
-2.4424446e-17
-4.8840655e-17
-4.8833392e-17
2.4413377e-17
7.3229833e-17
2.440647e-17
0
0
0
-7.3176744e-17
-4.8777289e-17
7.3155008e-17
-5.4134216e-29
-2.4377779e-17
3.4637644e-33
-2.4370617e-17
4.8733775e-17
-2.704637e-29
-2.4359007e-17
4.8710963e-17
0
-1.3518547e-29
-4.8689097e-17
-4.8681748e-17
7.3011641e-17
4.8667188e-17
-2.4329944e-17
-1.3499486e-29
2.4322702e-17
-7.2957212e-17
-4.8630823e-17
2.4311812e-17
2.430815e-17
-2.4304415e-17
-2.4300835e-17
2.4297134e-17
2.4293138e-17
-1.3482419e-29
1.3476958e-29
2.4282015e-17
0
2.4274514e-17
-4.8541414e-17
-7.2800663e-17
4.8526164e-17
4.8518482e-17
2.4255371e-17
-2.691941e-29
-4.8495173e-17
2.424359e-17
-2.4239563e-17
-2.4235421e-17
4.8462211e-17
-4.8453471e-17
-2.4222302e-17
2.4217775e-17
4.8426592e-17
2.4208924e-17
-4.8409247e-17
1.342617e-29
-2.4196127e-17
-2.4191787e-17
7.2562019e-17
-2.4182806e-17
-2.4178201e-17
7.2520636e-17
-3.4346008e-33
-7.2492322e-17
-2.4159302e-17
7.2463467e-17
-2.4149653e-17
-1.6921869e-47
-4.0191561e-29
-4.8270085e-17
4.8260449e-17
4.825097e-17
-2.4120864e-17
2.6772866e-29
4.8224262e-17
-2.4108123e-17
-7.231338e-17
-2.4101242e-17
2.4098565e-17
0
2.4095132e-17
4.8189055e-17
-3.4240743e-33
-7.2288498e-17
-2.4098478e-17
4.8202868e-17
-3.425493e-33
-4.821519e-17
4.8219109e-17
-4.0156678e-29
-4.822217e-17
7.233217e-17
4.8219362e-17
0
0
-2.4103193e-17
-7.2300444e-17
-2.4096771e-17
7.2279356e-17
-2.6742718e-29
-4.8170364e-17
4.8161962e-17
4.8153342e-17
-2.407228e-17
-4.8135664e-17
2.4063347e-17
2.4058841e-17
-7.2162984e-17
-2.4049819e-17
-4.0047776e-29
1.3337662e-29
2.4036391e-17
-2.4031966e-17
4.8055147e-17
7.2069643e-17
0
-7.2043805e-17
-4.8020698e-17
7.2018398e-17
-6.8217649e-33
-2.3997805e-17
4.7987388e-17
-2.3989616e-17
-2.3985571e-17
-2.6623176e-29
2.397758e-17
4.7947266e-17
-2.3969718e-17
-4.7931669e-17
-4.7923961e-17
2.6604003e-29
2.3954356e-17
-2.3950579e-17
4.7893647e-17
7.1829267e-17
0
-7.1807043e-17
-4.7864021e-17
7.1785081e-17
-2.6566881e-29
-2.3921102e-17
2.3917492e-17
2.39139e-17
-1.3265251e-29
-4.7813521e-17
1.3268097e-29
4.7799334e-17
-2.6524948e-29
-2.6521043e-29
-4.7778222e-17
-7.1656831e-17
4.7764236e-17
-2.6515698e-29
-7.9508366e-29
2.3871684e-17
2.3868219e-17
4.7729518e-17
-7.1583912e-17
-2.3857855e-17
4.7708824e-17
-4.7701949e-17
-1.3555759e-32
7.1532347e-17
2.3840692e-17
-2.3837272e-17
-7.1501565e-17
7.937301e-29
4.7654066e-17
2.3823628e-17
-4.7640455e-17
-7.1450488e-17
7.1440295e-17
2.3810037e-17
2.6422231e-29
2.3803263e-17
-4.7599759e-17
1.3208864e-29
-2.3793115e-17
2.3789738e-17
-7.9232955e-29
-7.1348969e-17
7.1338855e-17
7.1328754e-17
0
0
0
-2.3762798e-17
-7.1278324e-17
-2.3756086e-17
-2.6369143e-29
-2.3749381e-17
7.1238089e-17
2.374268e-17
-2.3739334e-17
-2.373599e-17
-2.3732648e-17
4.7458612e-17
-2.3725965e-17
2.3722629e-17
-7.8996072e-29
-4.743193e-17
7.1137892e-17
4.7418592e-17
0
-4.7405279e-17
-2.6309845e-29
2.3695997e-17
-7.1078024e-17
-2.3689352e-17
2.368603e-17
0
0
2.3676088e-17
4.7345557e-17
-5.2553412e-29
-4.7332313e-17
-2.3662848e-17
2.3659544e-17
-2.3656244e-17
2.3652945e-17
8.9629247e-48
-3.9383276e-29
7.0929146e-17
0
0
-4.7266362e-17
-4.7259782e-17
-2.3626602e-17
2.6222117e-29
7.0860123e-17
-2.6224912e-29
-4.7226981e-17
0
4.7213881e-17
2.3603673e-17
-4.7200821e-17
2.3597149e-17
2.3593887e-17
-7.0771874e-17
2.3587369e-17
-7.8545873e-29
-4.7161752e-17
7.0732893e-17
4.7148771e-17
0
0
0
-7.0684347e-17
-4.7116442e-17
7.0664985e-17
4.7103552e-17
0
-4.7090715e-17
2.6135365e-29
2.3538945e-17
-4.7071491e-17
2.3532556e-17
-2.3529372e-17
-2.3526187e-17
7.0569006e-17
-4.7039641e-17
-4.7033295e-17
2.3513485e-17
-2.351033e-17
4.7014354e-17
7.0512074e-17
0
-7.0493187e-17
-4.6989185e-17
2.3491466e-17
2.3488347e-17
-2.6072174e-29
2.3482114e-17
-7.8209129e-29
-2.3475899e-17
-1.3032526e-29
-2.9482859e-49
2.346664e-17
0
2.3460486e-17
-4.6914834e-17
-7.0363079e-17
7.0353938e-17
7.0344813e-17
0
-4.6884386e-17
-4.6878326e-17
4.6872291e-17
-2.3433139e-17
-2.3430138e-17
7.0281417e-17
-4.6848286e-17
-4.684231e-17
2.3418178e-17
4.6830424e-17
2.3412252e-17
-7.0227883e-17
-2.3406341e-17
-3.8971991e-29
4.6800929e-17
1.3299963e-32
-7.0183877e-17
4.6783426e-17
7.0166415e-17
2.3385905e-17
-7.0149045e-17
-4.6760273e-17
7.0131798e-17
-5.1904916e-29
-4.6743077e-17
-2.3368684e-17
1.2969816e-29
4.6726008e-17
-2.5933348e-29
2.335736e-17
2.3354547e-17
-7.0055221e-17
-2.3348942e-17
-2.5917777e-29
4.6686746e-17
-7.7734843e-29
-7.0013506e-17
4.6670153e-17
-2.591569e-29
-2.5919276e-29
-5.1799331e-29
-2.3324127e-17
6.9964225e-17
-2.3318697e-17
-3.881982e-29
-7.7643924e-29
-6.9931849e-17
2.3307937e-17
4.6610532e-17
-2.5869432e-29
2.3299951e-17
2.3297305e-17
-4.6589332e-17
-4.6584068e-17
2.5851475e-29
6.9860387e-17
-2.5842369e-29
-2.3281587e-17
4.6557991e-17
-2.3276414e-17
-2.3273842e-17
1.2910712e-29
-1.2915903e-29
2.3266154e-17
-4.6527205e-17
2.3261063e-17
-7.747475e-29
-7.7453141e-29
6.9760512e-17
-4.6501989e-17
6.6076185e-33
4.6491987e-17
-2.3243504e-17
-6.9723071e-17
-2.3238551e-17
6.9708257e-17
-2.5792856e-29
-2.3231175e-17
4.6457458e-17
-4.6452581e-17
-1.1603885e-28
2.3221429e-17
-2.3219007e-17
2.3216593e-17
-4.6428373e-17
2.3211786e-17
6.9628174e-17
0
0
-4.6404484e-17
-6.5937998e-33
4.6395008e-17
-2.3195143e-17
-6.9578361e-17
-2.3190438e-17
6.9564285e-17
6.5897883e-33
2.5737121e-29
4.6362182e-17
-6.95363e-17
-1.157888e-28
2.3174136e-17
-2.3171827e-17
-2.3169519e-17
2.5732299e-29
2.3164919e-17
-4.6325258e-17
4.6320688e-17
-7.7126899e-29
-4.6311557e-17
6.9460499e-17
4.6302451e-17
-2.3148958e-17
-6.9440087e-17
-2.3144436e-17
2.3142177e-17
0
-2.3137667e-17
2.3135418e-17
6.9399522e-17
1.2839425e-29
-4.6257387e-17
2.3126455e-17
2.3124219e-17
-4.6243973e-17
2.3119758e-17
-2.3117533e-17
-4.6230617e-17
6.9339251e-17
-7.6969699e-29
5.1314769e-29
4.6212846e-17
-4.6208422e-17
-2.3101999e-17
-2.3099787e-17
-2.566151e-29
2.309536e-17
-4.6186299e-17
4.6181885e-17
6.9266215e-17
0
-2.308433e-17
1.2812333e-29
6.5597073e-33
-6.9233139e-17
-2.3075509e-17
6.9219921e-17
-2.3071105e-17
-3.701035e-48
6.9200092e-17
-2.3064493e-17
-6.9186866e-17
-2.3060085e-17
4.6115763e-17
-2.3055676e-17
2.3053468e-17
-7.6771201e-29
-4.6098099e-17
6.9140519e-17
2.5596139e-29
-1.0233543e-28
4.6080398e-17
-4.6075965e-17
-2.5573201e-29
2.3033547e-17
-4.606265e-17
-2.3029099e-17
0
0
4.6044818e-17
-5.1111787e-29
-1.3084183e-32
-2.555092e-29
-2.3013451e-17
-2.3011205e-17
2.3008957e-17
2.3006705e-17
-4.6008896e-17
4.6004371e-17
-2.5533405e-29
-4.59953e-17
4.5990754e-17
7.6577504e-29
-2.5523301e-29
2.298853e-17
-4.597248e-17
2.2983947e-17
-5.1026244e-29
-4.5958683e-17
0
4.594942e-17
2.297239e-17
-4.5940134e-17
-2.2967738e-17
2.2965401e-17
-3.8245248e-29
-2.2960702e-17
0
0
4.5907231e-17
4.5902489e-17
0
-4.5892959e-17
-2.2944084e-17
2.294168e-17
-2.2939271e-17
2.2936857e-17
0
-4.5864021e-17
0
0
2.2924681e-17
-2.5447151e-29
-2.2919757e-17
0
2.2914805e-17
1.2718077e-29
-2.2909822e-17
0
4.5809612e-17
4.5804572e-17
-2.2899758e-17
-2.5416144e-29
2.2894681e-17
-4.5784259e-17
-4.5779137e-17
4.5773999e-17
6.5041443e-33
5.0811142e-29
6.5026734e-33
-4.5753294e-17
2.2874036e-17
-2.5390748e-29
2.2868789e-17
-2.2866156e-17
-6.859054e-17
6.8582587e-17
2.2858202e-17
-2.2855534e-17
-2.5366897e-29
-2.2850172e-17
4.5694955e-17
4.568955e-17
-4.5684129e-17
-7.6058945e-29
-2.2836621e-17
-2.2833886e-17
4.5662283e-17
-2.2828389e-17
2.5336673e-29
-1.267491e-29
2.2820089e-17
4.563461e-17
-4.5629022e-17
-4.5623419e-17
0
2.2806088e-17
2.5315093e-29
-4.5600877e-17
-2.53088e-29
6.8384256e-17
4.5583795e-17
0
-4.5572344e-17
-5.0579375e-29
-2.2780419e-17
-2.277753e-17
6.8323897e-17
-1.2636804e-29
-4.553764e-17
2.2765906e-17
4.5525972e-17
-2.2760058e-17
-4.5514245e-17
-2.275418e-17
0
4.549656e-17
-2.2745322e-17
-6.8227071e-17
2.2739385e-17
2.2736406e-17
4.5466849e-17
2.2730439e-17
-4.5454899e-17
-2.2724454e-17
-2.272145e-17
2.5220918e-29
2.271542e-17
2.2712399e-17
4.5418756e-17
2.2706353e-17
0
0
0
-4.5388393e-17
-4.5382287e-17
4.5376176e-17
2.5183832e-29
2.5180434e-29
-2.5170587e-29
-5.0353696e-29
4.5345527e-17
0
-4.5333202e-17
-2.2663516e-17
2.266043e-17
-2.2657341e-17
-2.2654249e-17
0
0
4.5289898e-17
-7.5407661e-29
-5.0264877e-29
4.527126e-17
-4.526504e-17
-4.5258813e-17
0
4.5246335e-17
-2.5105259e-29
-4.5233849e-17
4.5227606e-17
2.5107717e-29
-4.5215108e-17
0
4.5202586e-17
2.2598161e-17
-4.5190056e-17
2.2591895e-17
5.0166756e-29
-4.5171253e-17
4.5164981e-17
4.5158707e-17
0
0
0
-4.5133592e-17
-4.5127313e-17
4.5121033e-17
0
-4.5108467e-17
0
-2.2547948e-17
4.508961e-17
2.2541662e-17
-2.253852e-17
4.5070757e-17
2.2532236e-17
-4.5058184e-17
-2.2525947e-17
-2.5006933e-29
2.2519658e-17
-4.9993507e-29
1.2797371e-32
4.5020459e-17
0
-2.250394e-17
-4.5001591e-17
-2.2497652e-17
0
0
0
-2.2485069e-17
4.4963851e-17
2.2478783e-17
-2.247564e-17
-2.2472495e-17
2.2469346e-17
2.2466196e-17
-4.4926095e-17
0
4.4913512e-17
4.4907221e-17
0
0
-4.4888331e-17
-2.4912937e-29
-2.2437864e-17
-2.2434714e-17
2.2431564e-17
-2.2428413e-17
2.2425262e-17
4.4844223e-17
2.2418959e-17
0
-4.48253e-17
-2.4871576e-29
2.2406341e-17
-2.2403186e-17
-2.2400032e-17
-4.4793753e-17
4.478744e-17
2.2390563e-17
-6.362883e-33
2.2384246e-17
-4.4762177e-17
2.2377931e-17
-2.2374772e-17
-4.082081e-48
2.2368452e-17
-4.4730583e-17
4.4724263e-17
4.4717945e-17
0
-2.2352654e-17
-4.4698983e-17
1.2403911e-29
2.2343167e-17
2.2340007e-17
-4.4673697e-17
-4.466738e-17
2.2330529e-17
4.4654734e-17
4.464841e-17
-2.2321045e-17
-4.4635776e-17
2.2314731e-17
-2.2311574e-17
3.7142258e-29
2.2305256e-17
-4.4604195e-17
4.4597883e-17
2.4745376e-29
-1.2374741e-28
4.4578969e-17
-4.4572663e-17
-9.8950853e-29
2.2280024e-17
-4.4553747e-17
2.2273727e-17
-6.32968e-33
9.8880958e-29
2.2264292e-17
-4.452229e-17
4.9419525e-29
-1.2349974e-29
2.2251719e-17
-6.3234272e-33
-4.449089e-17
4.4484614e-17
1.2641504e-32
-9.8741496e-29
4.4465794e-17
-4.4459532e-17
-4.9349888e-29
4.4447014e-17
-2.2220376e-17
-2.2217243e-17
-2.2214112e-17
2.2210982e-17
-2.4654093e-29
-4.4409453e-17
0
0
4.4390673e-17
6.3074038e-33
-4.4378144e-17
2.2185939e-17
-2.4619979e-29
2.2179666e-17
4.9238625e-29
-4.4346762e-17
0
-2.2167087e-17
4.4327868e-17
2.2160774e-17
-4.9202923e-29
2.2154437e-17
-4.4302522e-17
2.2148079e-17
-2.45779e-29
-4.4283386e-17
0
0
2.2132036e-17
-1.2283164e-29
2.2125547e-17
-2.2122283e-17
-6.6357015e-17
6.6347131e-17
2.2112399e-17
-4.4218143e-17
2.2105726e-17
3.6802331e-29
2.2098978e-17
-1.2559878e-32
-7.3583177e-29
2.2088684e-17
-4.4170403e-17
-2.2081693e-17
0
-2.2074588e-17
2.2070987e-17
2.206735e-17
2.2063677e-17
-4.8979833e-29
2.4479487e-29
-2.4475282e-29
-4.4097195e-17
2.2044717e-17
3.6699801e-29
-4.4073611e-17
3.1310454e-33
2.2028687e-17
4.4049089e-17
4.404068e-17
-4.4032141e-17
-2.4448882e-29
-2.2007329e-17
-2.2002854e-17
4.399661e-17
-4.3987358e-17
-2.198897e-17