/*--------------------------------*- C++ -*----------------------------------*\
  =========                 |
  \\      /  F ield         | OpenFOAM: The Open Source CFD Toolbox
   \\    /   O peration     | Website:  https://openfoam.org
    \\  /    A nd           | Version:  7
     \\/     M anipulation  |
\*---------------------------------------------------------------------------*/
FoamFile
{
    version     2.0;
    format      ascii;
    class       volVectorField;
    location    "0.00113";
    object      U;
}
// * * * * * * * * * * * * * * * * * * * * * * * * * * * * * * * * * * * * * //

dimensions      [0 1 -1 0 0 0 0];

internalField   nonuniform List<vector> 
5000
(
(3.38073e-12 -1.3510587e-28 0)
(3.5030229e-12 1.013294e-28 0)
(3.8578327e-12 0 0)
(4.0888169e-12 0 0)
(3.7427986e-12 4.053176e-28 0)
(3.8471173e-12 -5.7599095e-43 5.06647e-28)
(4.1728249e-12 -1.013294e-28 2.1599661e-43)
(4.0160046e-12 0 -4.559823e-28)
(4.2384761e-12 0 -4.053176e-28)
(4.6978704e-12 6.079764e-28 1.2159528e-27)
(4.2982966e-12 9.119646e-28 9.119646e-28)
(4.1945163e-12 -2.533235e-28 -2.533235e-28)
(4.5121526e-12 -1.013294e-28 8.6398642e-43)
(4.6016189e-12 5.06647e-29 4.4639299e-43)
(4.5780306e-12 0 -2.026588e-28)
(4.9331091e-12 1.519941e-28 3.039882e-28)
(5.4131247e-12 -2.3418399e-55 -1.1709199e-55)
(5.1018721e-12 -4.559823e-28 4.0175369e-42)
(5.2235833e-12 0 4.053176e-28)
(5.273057e-12 -6.586411e-28 -1.3172822e-27)
(5.5161526e-12 1.0639587e-27 -1.0639587e-27)
(6.0514683e-12 1.2159528e-27 0)
(6.4584184e-12 -1.9252586e-27 0)
(6.0167832e-12 8.612999e-28 8.612999e-28)
(6.4541574e-12 9.119646e-28 -7.7758778e-42)
(6.8338164e-12 7.0990885e-42 7.0990885e-42)
(7.0449731e-12 -1.2159528e-27 1.2159528e-27)
(7.3128843e-12 -1.5706057e-27 -1.5706057e-27)
(7.8733639e-12 3.4451996e-27 -1.7225998e-27)
(8.2612032e-12 -3.2500289e-41 1.8745939e-27)
(8.5528759e-12 3.5423443e-41 -3.5423443e-41)
(9.730364e-12 -2.2799115e-27 1.9439695e-41)
(1.0488288e-11 -4.8638112e-27 2.4319056e-27)
(1.0824019e-11 5.1677994e-27 -2.5838997e-27)
(1.1323157e-11 -5.1824786e-41 -2.9892173e-27)
(1.2310455e-11 2.7319251e-40 0)
(1.3277837e-11 1.0540634e-40 0)
(1.4468714e-11 -6.586411e-27 3.2932055e-27)
(1.601613e-11 7.8023638e-27 3.9011819e-27)
(1.7083283e-11 8.8156578e-27 -4.4078289e-27)
(1.8281153e-11 -9.7276224e-27 8.1560318e-41)
(1.9548962e-11 3.7286774e-40 5.4211229e-27)
(2.0795827e-11 1.1044905e-26 -5.5224523e-27)
(2.2709185e-11 -5.4717876e-27 9.2532946e-41)
(2.4060835e-11 -1.8239292e-26 6.079764e-27)
(2.6459488e-11 7.093058e-27 -7.093058e-27)
(2.8783402e-11 7.8530285e-27 2.7006776e-40)
(3.1146996e-11 5.8995873e-40 -2.9497937e-40)
(3.4855475e-11 1.8847268e-26 3.2408131e-40)
(3.7309228e-11 0 -1.779812e-40)
(4.01654e-11 -1.1399557e-26 -1.1399557e-26)
(4.3450017e-11 -1.7279728e-42 0)
(4.718736e-11 1.3172822e-26 0)
(5.1028495e-11 -2.8777549e-26 0)
(5.5717356e-11 5.5791923e-40 0)
(6.0921856e-11 3.5161302e-26 0)
(6.613245e-11 -1.8999262e-26 0)
(7.2072609e-11 7.1207601e-40 0)
(7.8359694e-11 2.2140474e-26 0)
(8.5442147e-11 0 0)
(9.3552785e-11 -2.6852291e-26 0)
(1.0175311e-10 -9.8321655e-40 0)
(1.1049467e-10 -8.9854588e-42 0)
(1.2064805e-10 -3.4755984e-26 3.4755984e-26)
(1.3073001e-10 3.7694537e-26 3.7694537e-26)
(1.4261552e-10 -1.4346495e-39 -4.1038407e-26)
(1.5572105e-10 -4.4838259e-26 7.7099989e-40)
(1.6884262e-10 4.8891435e-26 -2.0003216e-55)
(1.8411835e-10 5.2944611e-26 -5.2944611e-26)
(2.0049109e-10 -5.7555099e-26 0)
(2.1720705e-10 -6.2621569e-26 0)
(2.3687664e-10 6.7840033e-26 6.7840033e-26)
(2.5760659e-10 7.3869132e-26 7.3869132e-26)
(2.8030727e-10 -1.613164e-25 0)
(3.0498228e-10 -8.7801925e-26 -8.7801925e-26)
(3.3186884e-10 9.53003e-26 -3.2909459e-39)
(3.6108706e-10 0 1.0320399e-25)
(3.9281133e-10 -1.1217165e-25 1.1217165e-25)
(4.2707008e-10 1.7344527e-41 -1.2205126e-25)
(4.6483961e-10 1.3274151e-25 -2.6548303e-25)
(5.0528733e-10 -1.4429306e-25 2.8858613e-25)
(5.4882474e-10 4.4509701e-41 -8.9019401e-41)
(5.9697034e-10 -4.836884e-41 -5.1054818e-25)
(6.4939567e-10 -1.8487549e-25 3.6975098e-25)
(7.0670301e-10 -2.0058155e-25 2.0865186e-38)
(7.679434e-10 -7.5692051e-39 -4.3480445e-25)
(8.3424187e-10 2.3579351e-25 7.0738054e-25)
(9.0668203e-10 0 -2.5600873e-25)
(9.849402e-10 2.7799721e-25 -2.7799721e-25)
(1.0698871e-09 3.1304244e-38 3.0175895e-25)
(1.1626606e-09 1.1440001e-38 -3.272433e-25)
(1.2631821e-09 -3.5470356e-25 -3.5470356e-25)
(1.3724157e-09 -3.8489972e-25 -1.3400897e-38)
(1.490513e-09 8.3495425e-25 8.3495425e-25)
(1.617935e-09 3.1315166e-38 3.1315166e-38)
(1.7559558e-09 -4.9043429e-25 4.9043429e-25)
(1.9066876e-09 0 5.3167536e-25)
(2.0699793e-09 0 2.0227204e-38)
(2.2464899e-09 6.2398644e-25 -4.3450165e-38)
(2.4371735e-09 4.6877715e-38 -1.3519368e-24)
(2.6440228e-09 -1.4653244e-24 -7.3266222e-25)
(2.86898e-09 7.9345986e-25 7.9345986e-25)
(3.1122442e-09 1.7185466e-24 -1.2211008e-40)
(3.3750484e-09 0 -9.3050788e-25)
(3.6603122e-09 -1.0071129e-24 0)
(3.9687706e-09 -1.0903043e-24 1.0903043e-24)
(4.302294e-09 1.1799302e-24 4.1081151e-38)
(4.6636005e-09 1.2765984e-24 -1.2765984e-24)
(5.0547159e-09 0 1.3812717e-24)
(5.4771234e-09 0 1.4945073e-24)
(5.9339774e-09 -1.6165586e-24 -3.2331171e-24)
(6.4285978e-09 -1.7482868e-24 -1.7482868e-24)
(6.9632869e-09 0 5.6716598e-24)
(7.5422654e-09 2.0437127e-24 2.0437127e-24)
(8.1678637e-09 -7.7235505e-38 -6.6280067e-24)
(8.8437457e-09 -2.38803e-24 2.38803e-24)
(9.5739579e-09 2.5806065e-24 2.5806065e-24)
(1.0362894e-08 -7.9254915e-40 1.5850983e-39)
(1.1215219e-08 1.053263e-37 3.0128777e-24)
(1.2136727e-08 -1.2099506e-53 -9.7647089e-24)
(1.3132195e-08 -7.031551e-24 2.458139e-37)
(1.4207872e-08 1.6187218e-39 7.5938279e-24)
(1.5368821e-08 4.0998382e-24 -8.1996763e-24)
(1.6621991e-08 0 -4.4263215e-24)
(1.7975485e-08 4.7782385e-24 4.7782385e-24)
(1.9436376e-08 -5.1569571e-24 -5.1569571e-24)
(2.1012189e-08 -5.5650613e-24 5.5650613e-24)
(2.2713257e-08 1.2009966e-23 1.2009966e-23)
(2.4548846e-08 6.4783938e-24 -6.4783938e-24)
(2.6527743e-08 -1.3975959e-23 -2.4131154e-37)
(2.8662693e-08 -7.5367287e-24 -7.5367287e-24)
(3.0965963e-08 8.1273778e-24 -1.6254756e-23)
(3.3448396e-08 8.7630171e-24 8.7630171e-24)
(3.6125716e-08 9.4471426e-24 9.4471426e-24)
(3.9011928e-08 0 1.0183199e-23)
(4.2121291e-08 -1.0974683e-23 3.8210109e-37)
(4.5472846e-08 -1.1826104e-23 4.1006406e-37)
(4.9084096e-08 1.2741817e-23 -4.4362668e-37)
(5.2975504e-08 4.7595708e-37 -2.745287e-23)
(5.7166747e-08 -1.478477e-23 -1.478477e-23)
(6.1680611e-08 1.5922294e-23 1.5922294e-23)
(6.6542293e-08 1.7144985e-23 3.428997e-23)
(7.177654e-08 0 1.845867e-23)
(7.7411373e-08 -1.9869935e-23 1.9869935e-23)
(8.3476235e-08 -2.138638e-23 -1.4831235e-36)
(9.0003352e-08 2.30152e-23 -4.60304e-23)
(9.7026319e-08 -2.4763841e-23 7.038307e-39)
(1.0458268e-07 1.514404e-38 -7.5720202e-39)
(1.127128e-07 2.8657879e-23 9.0462348e-52)
(1.2145612e-07 -3.0821718e-23 -3.0821718e-23)
(1.3085951e-07 3.3144036e-23 2.2985048e-36)
(1.4097051e-07 -2.4814715e-36 -4.9629431e-36)
(1.5184032e-07 -3.8310366e-23 -3.8310366e-23)
(1.6352525e-07 4.1178444e-23 4.1178444e-23)
(1.7608353e-07 -4.4254855e-23 -4.4254855e-23)
(1.8957971e-07 -4.7554039e-23 -1.6489118e-36)
(2.0407944e-07 5.1091094e-23 5.1091094e-23)
(2.196575e-07 0 -5.4883651e-23)
(2.3639197e-07 0 8.3771692e-39)
(2.5436298e-07 6.3305694e-23 6.3305694e-23)
(2.736607e-07 6.7973788e-23 0)
(2.9438004e-07 -7.2975154e-23 -7.2975154e-23)
(3.166223e-07 -7.8333047e-23 -5.4211844e-36)
(3.4049515e-07 8.4071736e-23 1.6814347e-22)
(3.6611478e-07 6.2564673e-36 -9.0217162e-23)
(3.9360534e-07 -9.6797088e-23 2.7511387e-38)
(4.2309909e-07 1.038412e-22 1.038412e-22)
(4.5473579e-07 1.1138123e-22 -1.1138123e-22)
(4.8866749e-07 0 1.1945059e-22)
(5.2505465e-07 -1.2808507e-22 -1.2808507e-22)
(5.6406808e-07 -1.3732282e-22 5.7217236e-35)
(6.0589226e-07 0 4.0833968e-35)
(6.5072339e-07 1.5777368e-22 -1.5777368e-22)
(6.9876849e-07 1.6907596e-22 3.3815191e-22)
(7.5025097e-07 0 0)
(8.0540951e-07 -1.9407848e-22 1.3459143e-35)
(8.6449532e-07 -4.3250089e-35 4.3250089e-35)
(9.2777993e-07 2.2264243e-22 -2.2264243e-22)
(9.9555138e-07 -2.3840918e-22 -2.3840918e-22)
(1.0681158e-06 -2.5525352e-22 -1.7592748e-35)
(1.1458019e-06 2.7324658e-22 2.7324658e-22)
(1.2289565e-06 2.0198871e-35 -2.9246279e-22)
(1.3179515e-06 -2.152707e-35 -2.152707e-35)
(1.4131827e-06 -1.4277218e-37 -1.4277218e-37)
(1.5150713e-06 -3.5827634e-22 -4.9641277e-35)
(1.6240673e-06 3.832365e-22 7.6647301e-22)
(1.7406464e-06 5.6848501e-35 -4.0987271e-22)
(1.8653181e-06 -3.0146016e-35 -4.3829282e-22)
(1.9986232e-06 3.2231315e-35 3.2231315e-35)
(2.1411377e-06 -5.0094889e-22 -3.4526723e-35)
(2.293475e-06 0 1.1131974e-34)
(2.4562862e-06 0 -3.9519477e-35)
(2.6302647e-06 6.1141213e-22 6.1141213e-22)
(2.8161472e-06 6.5319981e-22 0)
(3.0147172e-06 0 0)
(3.2268083e-06 0 0)
(3.4533072e-06 -7.9575184e-22 0)
(3.6951533e-06 2.6750203e-51 8.4961009e-22)
(3.9533461e-06 9.0697281e-22 -1.8907956e-34)
(4.2289481e-06 0 -9.6805676e-22)
(4.5230868e-06 -1.0330934e-21 -1.0330934e-21)
(4.8369617e-06 1.1023273e-21 1.1023273e-21)
(5.1718431e-06 3.2588792e-34 1.1760166e-21)
(5.5290813e-06 -2.5088711e-21 -2.5088711e-21)
(5.9101098e-06 1.3378742e-21 -9.2590074e-35)
(6.3164468e-06 2.961996e-34 2.961996e-34)
(6.7497073e-06 2.1615468e-37 1.5210534e-21)
(7.2116024e-06 1.6214615e-21 1.6214615e-21)
(7.7039469e-06 -1.7282261e-21 -1.7282261e-21)
(8.2286663e-06 2.6172556e-37 0)
(8.7878003e-06 2.7162014e-34 -1.9623787e-21)
(9.3835118e-06 -1.4468395e-34 -1.4468395e-34)
(1.0018095e-05 2.22685e-21 2.22685e-21)
(1.0693979e-05 0 2.3716029e-21)
(1.1413735e-05 -2.5253649e-21 -3.5169843e-34)
(1.2180093e-05 -1.8607442e-34 -2.6886701e-21)
(1.2995939e-05 -7.9433634e-34 5.7241629e-21)
(1.3864331e-05 -3.0461934e-21 -3.0461934e-21)
(1.4788508e-05 0 -3.2416335e-21)
(1.5771894e-05 3.4490635e-21 3.4490635e-21)
(1.681812e-05 3.6691824e-21 -3.6691824e-21)
(1.7931022e-05 0 0)
(1.9114658e-05 0 0)
(2.0373325e-05 0 0)
(2.1711564e-05 -4.6918943e-21 -4.6918943e-21)
(2.3134182e-05 -3.4515839e-34 4.9873434e-21)
(2.4646252e-05 5.3005469e-21 1.0601094e-20)
(2.6253141e-05 0 -5.6325153e-21)
(2.7960522e-05 0 4.1585638e-34)
(2.9774389e-05 -6.3570616e-21 -6.3570616e-21)
(3.1701074e-05 -6.7519406e-21 -6.7519406e-21)
(3.3747263e-05 7.1701922e-21 1.4340384e-20)
(3.5920017e-05 7.6131241e-21 -2.16378e-36)
(3.8226792e-05 0 2.2970746e-36)
(4.067546e-05 -8.5786052e-21 -8.5786052e-21)
(4.3274329e-05 -9.1041239e-21 -9.1041239e-21)
(4.6032166e-05 9.6602705e-21 1.9320541e-20)
(4.895822e-05 1.0248729e-20 -1.456432e-36)
(5.2062247e-05 0 2.2648237e-33)
(5.5354539e-05 -1.1529749e-20 -1.1529749e-20)
(5.8845945e-05 3.3949513e-33 6.7899026e-33)
(6.2547906e-05 8.9893239e-34 1.7978648e-33)
(6.6472478e-05 -1.3740876e-20 -1.3740876e-20)
(7.063237e-05 1.4563674e-20 1.4563674e-20)
(7.5040972e-05 1.543322e-20 0)
(7.971239e-05 0 1.6352008e-20)
(8.4661483e-05 -1.7322658e-20 -1.7322658e-20)
(8.9903895e-05 2.5500331e-33 -1.8347917e-20)
(9.5456102e-05 -1.9430669e-20 1.9430669e-20)
(0.00010133544 -2.8535628e-33 0)
(0.00010756017 4.3561782e-20 2.1780891e-20)
(0.0001141495 -2.3054855e-20 -2.3054855e-20)
(0.00012112362 3.3841341e-33 -2.439931e-20)
(0.00012850379 8.963234e-33 8.963234e-33)
(0.00013631237 1.8903492e-33 5.4628951e-20)
(0.00014457286 2.8893015e-20 5.778603e-20)
(0.00015330996 -3.0557722e-20 -9.1673166e-20)
(0.00016254965 -3.2312988e-20 -6.4625976e-20)
(0.00017231921 0 0)
(0.00018264733 3.6113802e-20 7.2227605e-20)
(0.00019356412 3.8169196e-20 3.8169196e-20)
(0.0002051012 0 -4.0334857e-20)
(0.00021729181 -4.2616294e-20 -4.2616294e-20)
(0.00023017081 -4.5019264e-20 -4.5019264e-20)
(0.00024377479 9.5099577e-20 9.5099577e-20)
(0.00025814218 5.0214159e-20 1.0042832e-19)
(0.00027331328 -5.301895e-20 -5.301895e-20)
(0.00028933035 -5.5971028e-20 -1.1194206e-19)
(0.00030623775 -1.6387874e-32 -1.6387874e-32)
(0.00032408196 6.2346061e-20 1.2469212e-19)
(0.00034291173 -6.5784324e-20 -6.5784324e-20)
(0.00036277815 4.8128548e-33 9.6257095e-33)
(0.00038373476 7.3203169e-20 7.3203169e-20)
(0.00040583766 -7.7201152e-20 -1.544023e-19)
(0.00042914563 5.6568337e-33 8.1403739e-20)
(0.0004537202 -5.9759615e-33 -1.1951923e-32)
(0.00047962583 2.5710787e-35 -9.0461789e-20)
(0.00050692998 6.5844836e-33 9.5337828e-20)
(0.00053570329 -1.0045965e-19 -1.0045965e-19)
(0.00056601964 0 2.1167732e-19)
(0.00059795638 0 -4.6515686e-32)
(0.00063159437 1.1741622e-19 -2.3483245e-19)
(0.00066701823 1.2364001e-19 2.4728002e-19)
(0.00070431639 0 9.0087604e-33)
(0.00074358133 0 -1.370246e-19)
(0.0007849097 0 0)
(0.00082840248 0 0)
(0.0008741652 -1.596617e-19 -1.596617e-19)
(0.00092230808 -1.1575715e-32 1.6795228e-19)
(0.0009729462 3.5328602e-19 3.5328602e-19)
(0.0010261997 -7.919063e-35 -1.8575151e-19)
(0.0010821942 -1.9529605e-19 5.5506476e-35)
(0.0011410604 -2.0529564e-19 -2.0529564e-19)
(0.001202935 2.9957518e-32 -2.1577e-19)
(0.0012679606 3.1416094e-32 2.267396e-19)
(0.0013362858 3.3853904e-35 0)
(0.0014080656 2.5025027e-19 2.5025027e-19)
(0.0014834616 2.6283625e-19 2.6283625e-19)
(0.0015626422 2.7600732e-19 0)
(0.001645783 -5.7957611e-19 -5.7957611e-19)
(0.0017330669 -9.1261177e-19 -3.0420392e-19)
(0.0018246844 3.1928132e-19 6.3856263e-19)
(0.0019208338 6.7009514e-19 -2.3187591e-32)
(0.0020217219 0 9.991112e-35)
(0.0021275635 -3.6876092e-19 -3.6876092e-19)
(0.0022385826 -3.8676767e-19 -3.8676767e-19)
(0.002355012 4.0558264e-19 4.0558264e-19)
(0.002477094 -1.2086e-34 -4.2523831e-19)
(0.0026050804 1.9004245e-34 4.4576828e-19)
(0.0027392334 -1.3278829e-34 -2.6557659e-34)
(0.0028798253 -4.895912e-19 -9.7918239e-19)
(0.0030271393 -5.1295715e-19 5.1295715e-19)
(0.0031814694 5.3734345e-19 5.3734345e-19)
(0.0033431214 1.1255794e-18 5.6278969e-19)
(0.0035124127 -5.8933675e-19 8.1739794e-32)
(0.0036896728 1.3612475e-48 -6.1702681e-19)
(0.0038752442 -6.4590342e-19 0)
(0.004069482 -1.8733067e-31 0)
(0.0042727549 1.4147947e-18 7.0739734e-19)
(0.0044854453 0 -1.0275674e-31)
(0.0047079499 0 2.1486851e-31)
(0.0049406802 -1.6194134e-18 1.1253478e-31)
(0.0051840627 4.7022137e-31 -8.466962e-19)
(0.0054385395 1.7704347e-18 8.8521733e-19)
(0.0057045687 0 -1.3149666e-34)
(0.0059826251 -9.6707772e-19 -9.6707772e-19)
(0.0062732003 -1.0105327e-18 0)
(0.0065768035 1.0557508e-18 0)
(0.0068939619 -1.5671648e-34 0)
(0.007225221 1.5990577e-31 0)
(0.0075711456 -1.7090165e-34 0)
(0.0079323199 -1.2555224e-18 0)
(0.008309348 1.3105225e-18 0)
(0.0087028549 1.3676848e-18 1.3676848e-18)
(0.0091134865 0 0)
(0.0095419106 -1.4887897e-18 -1.4887897e-18)
(0.0099888171 2.1560247e-31 0)
(0.010454919 1.6194434e-18 1.6194434e-18)
(0.010940952 -3.377098e-18 4.6839654e-31)
(0.011447677 4.8829534e-31 -1.7602833e-18)
(0.011975878 1.834731e-18 0)
(0.012526365 5.3091848e-31 0)
(0.013099974 3.984231e-18 1.9921155e-18)
(0.013697568 -4.1504637e-18 2.8812529e-31)
(0.014320034 -2.1614208e-18 -2.1614208e-18)
(0.014968291 2.2507774e-18 0)
(0.015643282 3.3301698e-34 0)
(0.016345982 2.4393839e-18 2.4393839e-18)
(0.017077394 0 2.5388346e-18)
(0.017838551 0 -2.6418542e-18)
(0.018630517 -2.7485483e-18 -2.7485483e-18)
(0.019454387 3.9654088e-31 0)
(0.02031129 5.946788e-18 2.973394e-18)
(0.021202385 -4.3936661e-34 -4.3936661e-34)
(0.022128865 -9.6427807e-18 -3.2142602e-18)
(0.023091958 3.3409882e-18 3.3409882e-18)
(0.024092925 3.4720701e-18 3.4720701e-18)
(0.025133063 -7.2152537e-18 -3.6076269e-18)
(0.026213705 3.7477813e-18 -3.7477813e-18)
(0.027336221 -3.8926583e-18 0)
(0.028502016 -8.0847704e-18 4.0423852e-18)
(0.029712534 4.1970911e-18 4.1970911e-18)
(0.030969257 4.3569072e-18 -4.3569072e-18)
(0.032273706 4.5219669e-18 -4.5219669e-18)
(0.033627441 -4.6924056e-18 0)
(0.035032064 1.721105e-47 4.8683604e-18)
(0.036489214 5.0499708e-18 5.0499708e-18)
(0.038000575 -5.2373778e-18 -5.2373778e-18)
(0.03956787 5.4307246e-18 -5.4307246e-18)
(0.041192866 -5.6301561e-18 0)
(0.042877371 -1.6171735e-30 0)
(0.044623239 -1.7189057e-33 0)
(0.046432366 -6.2664346e-18 0)
(0.048306692 1.2983378e-17 0)
(0.050248203 -6.7237792e-18 0)
(0.05225893 -1.9334475e-30 0)
(0.05434095 1.9997708e-30 0)
(0.056496385 7.462617e-18 7.462617e-18)
(0.058727405 1.5447223e-17 -2.0393368e-46)
(0.061036227 -2.397669e-17 -7.9922301e-18)
(0.063425113 -2.2936851e-30 0)
(0.065896375 4.7451263e-30 0)
(0.068452372 -2.4511774e-30 0)
(0.071095511 1.829238e-17 9.14619e-18)
(0.073828249 -1.8910744e-17 1.3114406e-30)
(0.07665309 2.7110348e-30 -9.7731616e-18)
(0.079572588 2.0199452e-17 1.0099726e-17)
(0.082589345 0 -1.4488282e-30)
(0.085706012 0 1.5319086e-33)
(0.088925292 -1.1133743e-17 1.5458094e-30)
(0.092249935 1.5946217e-30 -1.1497083e-17)
(0.095682741 1.1870037e-17 1.1870037e-17)
(0.09922656 1.2252775e-17 -1.2252775e-17)
(0.10288429 -1.2645464e-17 7.0263812e-30)
(0.10665888 -3.9144814e-17 1.3048271e-17)
(0.11055333 1.3461365e-17 -1.3461365e-17)
(0.11457068 1.3884913e-17 0)
(0.11871404 4.0697277e-33 0)
(0.12298654 1.4764035e-17 1.4764035e-17)
(0.12739138 0 2.1131371e-30)
(0.1319318 -3.1373915e-17 -1.5686957e-17)
(0.13661109 -3.2330504e-17 1.6165252e-17)
(0.14143259 1.6654984e-17 1.6654984e-17)
(0.14639968 3.4312626e-17 0)
(0.15151579 1.7669397e-17 -1.7669397e-17)
(0.15678441 -3.6388786e-17 -1.8194393e-17)
(0.16220904 -3.7462907e-17 1.8731454e-17)
(0.16779327 3.8561464e-17 5.3511357e-30)
(0.17354071 3.9684756e-17 1.0930822e-46)
(0.179455 0 2.8346333e-30)
(0.18553985 -4.2006719e-17 -2.100336e-17)
(0.191799 2.1602983e-17 2.1602983e-17)
(0.19823624 4.4431094e-17 -4.7661743e-46)
(0.20485538 -2.284119e-17 3.1712719e-30)
(0.21166029 -2.3480043e-17 2.3480043e-17)
(0.21865488 3.4293972e-33 0)
(0.22584308 -3.4429417e-30 0)
(0.23322887 -2.5477152e-17 -2.5477152e-17)
(0.24081625 2.6170113e-17 -3.7189968e-33)
(0.24860929 2.6876899e-17 1.1183312e-29)
(0.25661205 -2.759762e-17 -2.759762e-17)
(0.26482865 3.9296432e-30 0)
(0.27326324 4.1326999e-33 0)
(0.28191998 4.1393624e-30 2.984444e-17)
(0.29080307 3.0621925e-17 -8.4900442e-30)
(0.29991675 -3.1413833e-17 -3.1413833e-17)
(0.30926527 1.3420383e-29 0)
(0.3188529 4.5874487e-30 0)
(0.32868394 9.4021293e-30 0)
(0.33876271 3.4727295e-17 3.4727295e-17)
(0.34909356 -3.5592469e-17 -5.057994e-33)
(0.35968084 5.0638421e-30 -3.6472488e-17)
(0.37052892 1.0360254e-29 3.7367404e-17)
(0.38164219 5.439526e-33 -3.8277261e-17)
(0.39302505 7.8404198e-17 1.0896785e-29)
(0.40468191 4.0141951e-17 8.0283902e-17)
(0.41661719 -4.1096844e-17 -4.1096844e-17)
(0.42883533 -8.4133597e-17 -1.7521669e-29)
(0.44134074 5.9773182e-30 -5.9773182e-30)
(0.45413788 8.8103891e-17 6.1161744e-30)
(0.46723117 4.5067148e-17 4.5067148e-17)
(0.48062505 -9.2194862e-17 0)
(0.49432397 -4.7142784e-17 0)
(0.50833236 4.8203189e-17 -4.8203189e-17)
(0.52265463 4.927862e-17 -6.8418461e-30)
(0.5372952 1.3979324e-29 1.3979324e-29)
(0.5522585 -5.1474429e-17 5.3479563e-47)
(0.5675489 0 5.2594722e-17)
(0.5831708 0 -5.3729875e-17)
(0.59912855 -5.4879826e-17 -5.4879826e-17)
(0.61542651 0 0)
(0.63206901 5.7223856e-17 5.7223856e-17)
(0.64906034 -5.841778e-17 8.1107275e-30)
(0.66640479 -8.4733922e-33 -5.9626197e-17)
(0.68410662 1.6887913e-29 0)
(0.70217005 0 0)
(0.72059928 6.3337429e-17 6.3337429e-17)
(0.73939847 -6.4602807e-17 -1.8361222e-32)
(0.75857175 -6.5882138e-17 6.1762972e-47)
(0.77812322 1.3435059e-16 6.7175294e-17)
(0.79805693 6.8482139e-17 -6.8482139e-17)
(0.8183769 -6.9802531e-17 9.6715478e-30)
(0.83908709 0 -9.8765705e-30)
(0.86019144 0 2.0116885e-29)
(0.88169383 7.3843472e-17 7.3843472e-17)
(0.9035981 -2.0896815e-29 -7.5216502e-17)
(0.92590802 -7.660227e-17 2.1270926e-29)
(0.94862733 0 -2.1670298e-29)
(0.97175971 0 2.2062221e-29)
(0.99530878 8.0834167e-17 8.0834167e-17)
(1.0192781 -3.4278396e-29 -8.226902e-17)
(1.0436712 -8.3715647e-17 2.3246169e-29)
(1.0684915 0 -1.1849748e-29)
(1.0937424 0 0)
(1.1194273 0 8.8124034e-17)
(1.1455493 0 -8.9615592e-17)
(1.1721116 0 1.2650802e-29)
(1.1991175 0 -1.3163581e-32)
(1.2265699 0 1.307225e-29)
(1.2544717 0 -1.3298658e-29)
(1.2828261 -1.9445708e-16 -9.7228541e-17)
(1.3116356 -5.4830646e-29 9.8780433e-17)
(1.3409032 1.0034149e-16 1.0034149e-16)
(1.3706314 -1.0191146e-16 -1.0191146e-16)
(1.400823 1.0349006e-16 -1.0349006e-16)
(1.4314803 -1.0507702e-16 0)
(1.4626059 2.965103e-29 1.0667207e-16)
(1.4942021 1.0827493e-16 1.0827493e-16)
(1.5262712 3.0512963e-29 0)
(1.5588153 1.1150292e-16 -1.1150292e-16)
(1.5918367 0 1.5706626e-29)
(1.6253373 0 -1.6308193e-32)
(1.6593191 -1.1639629e-16 -1.6143925e-29)
(1.6937838 -3.2777339e-29 1.1803993e-16)
(1.7287334 1.1968933e-16 -1.1968933e-16)
(1.7641694 0 -1.6830191e-29)
(1.8000935 0 3.4155827e-29)
(1.8365072 0 1.2466911e-16)
(1.8734118 0 1.2633854e-16)
(1.9108087 0 -2.560244e-16)
(1.9486991 0 1.8430028e-32)
(1.9870842 0 -1.8220888e-29)
(2.025965 -2.6611104e-16 -1.3305552e-16)
(2.0653425 1.1216978e-28 1.3474303e-16)
(2.1052175 2.7286644e-16 -1.8942395e-29)
(2.1455908 -1.3812578e-16 -1.3812578e-16)
(2.1864632 -1.9869673e-32 0)
(2.2278351 -1.4151675e-16 0)
(2.2697071 7.941354e-29 0)
(2.3120797 2.8982687e-16 1.4491343e-16)
(2.354953 1.4661314e-16 1.4661314e-16)
(2.3983275 -8.0983571e-47 -1.4831333e-16)
(2.4422031 -4.5004111e-16 -1.500137e-16)
(2.4865799 0 0)
(2.5314579 3.0682749e-16 1.5341375e-16)
(2.576837 0 1.551128e-16)
(2.6227169 0 -1.568108e-16)
(2.6690973 -3.1701487e-16 -1.5850744e-16)
(2.7159778 4.443949e-29 0)
(2.7633578 4.8568626e-16 1.6189542e-16)
(2.811237 -1.6358616e-16 1.6358616e-16)
(2.8596144 -1.6527433e-16 -1.6527433e-16)
(2.9084895 1.6695965e-16 -4.6361371e-29)
(2.9578613 -1.686418e-16 1.686418e-16)
(3.0077289 1.7032051e-16 0)
(3.0580913 4.7710838e-29 0)
(3.1089475 -1.7366643e-16 0)
(3.1602961 1.7533306e-16 0)
(3.212136 0 -1.769951e-16)
(3.2644658 1.7865227e-16 4.9557405e-29)
(3.3172841 -1.803043e-16 1.803043e-16)
(3.3705893 -3.639018e-16 -1.819509e-16)
(3.4243799 1.8359181e-16 -2.5489896e-29)
(3.4786541 1.8522676e-16 2.5743215e-29)
(3.5334103 1.8685548e-16 7.6844859e-47)
(3.5886467 1.8847772e-16 -1.8847772e-16)
(3.6443612 -3.8018643e-16 -1.9009321e-16)
(3.700552 -1.9170171e-16 3.8340341e-16)
(3.7572169 1.9330295e-16 2.6838191e-29)
(3.8143539 0 -2.703177e-29)
(3.8719608 -1.9648269e-16 1.9648269e-16)
(3.9300353 1.980607e-16 0)
(3.988575 1.9963049e-16 -1.9963049e-16)
(4.0475775 -6.0357546e-16 -2.0119182e-16)
(4.1070404 -5.7623441e-32 2.0274446e-16)
(4.166961 4.0857636e-16 5.66687e-29)
(4.2273369 -2.0582276e-16 -2.0582276e-16)
(4.2881653 -2.8788203e-29 0)
(4.3494434 -2.0886361e-16 0)
(4.4111686 5.9790595e-32 2.1036946e-16)
(4.4733378 4.2373059e-16 -2.9385281e-29)
(4.5359481 -2.1335093e-16 -2.1335093e-16)
(4.5989967 0 0)
(4.6624803 6.0059641e-29 2.1629076e-16)
(4.726396 3.0943364e-32 -3.0943364e-32)
(4.7907405 2.1918737e-16 6.0863972e-29)
(4.8555107 -2.20619e-16 3.0599401e-29)
(4.9207031 6.165588e-29 -2.2203924e-16)
(4.9863146 3.099177e-29 2.2344794e-16)
(5.0523418 3.1952383e-32 -3.1952383e-32)
(5.1187811 2.2622997e-16 6.2819561e-29)
(5.1856291 -2.2760296e-16 2.2760296e-16)
(5.2528823 6.3059309e-47 -2.289637e-16)
(5.320537 6.3953069e-29 -6.3953069e-29)
(5.3885897 3.2919132e-32 -3.2919132e-32)
(5.4570367 4.6594168e-16 3.2345683e-29)
(5.5258742 3.2494292e-29 2.34281e-16)
(5.5950984 -2.3557813e-16 -2.3557813e-16)
(5.6647056 0 0)
(5.7346918 0 1.3221558e-28)
(5.8050532 2.3938986e-16 3.320288e-29)
(5.8757859 1.0012608e-28 1.0012608e-28)
(5.9468857 -2.4186322e-16 3.4370831e-32)
(6.0183488 2.4307916e-16 2.4307916e-16)
(6.090171 -3.3916e-29 -2.442811e-16)
(6.1623482 2.1740987e-46 2.1740987e-46)
(6.2348763 3.4243851e-29 3.4243851e-29)
(6.3077512 -2.4780163e-16 -6.8809583e-29)
(6.3809685 -2.4894632e-16 3.4563719e-29)
(6.454524 -3.4685081e-29 -5.0015278e-16)
(6.5284135 2.5119174e-16 2.5119174e-16)
(6.6026327 0 2.5229226e-16)
(6.6771771 0 3.5178991e-29)
(6.7520425 -2.5444835e-16 -3.5327622e-29)
(6.8272243 2.5550373e-16 -5.1100745e-16)
(6.9027181 -2.1356553e-28 2.5654384e-16)
(6.9785196 -2.5756861e-16 2.5756861e-16)
(7.054624 2.5857793e-16 4.5440657e-47)
(7.131027 0 0)
(7.207724 -2.6054983e-16 4.3890101e-47)
(7.2847103 -2.6151223e-16 2.6151223e-16)
(7.3619813 2.6245882e-16 -2.6245882e-16)
(7.4395325 2.6338951e-16 4.1533952e-47)
(7.5173591 0 3.6658449e-29)
(7.5954564 -2.6520283e-16 3.7687588e-32)
(7.6738197 -2.660853e-16 2.660853e-16)
(7.7524443 5.3390306e-16 -5.3390306e-16)
(7.8313254 2.6780146e-16 -7.4363136e-29)
(7.9104582 -2.6863499e-16 2.6863499e-16)
(7.9898378 -2.6945207e-16 -3.7372447e-29)
(8.0694595 -3.748348e-29 3.748348e-29)
(8.1493184 -2.7103653e-16 -2.7103653e-16)
(8.2294095 -7.5474498e-29 2.7180377e-16)
(8.3097281 5.4510853e-16 -1.3048035e-46)
(8.3902691 0 1.1386877e-28)
(8.4710276 0 -7.6124598e-29)
(8.5519987 0 7.6240952e-29)
(8.6331772 -2.7538738e-16 7.6469594e-29)
(8.7145584 -2.7605311e-16 2.8444534e-47)
(8.796137 0 0)
(8.8779081 2.7733308e-16 -2.7733308e-16)
(8.9598666 3.8511204e-29 0)
(9.0420074 -2.7854397e-16 0)
(9.1243254 0 2.7912336e-16)
(9.2068155 0 7.7663043e-29)
(9.2894725 2.8022974e-16 -2.8022974e-16)
(9.3722913 3.8940364e-29 0)
(9.4552666 -3.8971025e-29 0)
(9.5383934 2.8175742e-16 5.6351485e-16)
(9.6216663 -2.8223126e-16 2.3494958e-28)
(9.7050802 1.1762444e-28 -5.6537461e-16)
(9.7886298 2.831255e-16 2.831255e-16)
(9.8723098 0 -4.0294282e-32)
(9.956115 2.8394815e-16 3.9423376e-29)
(10.04004 3.9476737e-29 2.8433249e-16)
(10.12408 -2.8469877e-16 0)
(10.208228 2.8504694e-16 0)
(10.292481 -2.8537693e-16 0)
(10.376832 -2.8568871e-16 2.8568871e-16)
(10.461276 2.8598222e-16 7.9330291e-29)
(10.545808 0 -2.8625741e-16)
(10.630422 -2.8651422e-16 0)
(10.715113 -2.867526e-16 0)
(10.799875 2.8697251e-16 2.8697251e-16)
(10.884704 2.8717388e-16 -4.0809863e-32)
(10.969592 0 -2.8735668e-16)
(11.054536 2.8752084e-16 0)
(11.139529 -2.8766633e-16 0)
(11.224566 -2.8779308e-16 2.8779308e-16)
(11.309642 2.8790104e-16 7.9862565e-29)
(11.39475 5.7598036e-16 8.0010068e-29)
(11.479885 -1.599773e-28 -7.9988649e-29)
(11.565042 -8.6433524e-16 -2.8811175e-16)
(11.650215 -2.4396119e-48 2.8814408e-16)
(11.735399 2.8815737e-16 -7.9974619e-29)
(11.820587 5.7630271e-16 7.9972949e-29)
(11.905774 -1.5984954e-28 -7.9924772e-29)
(11.990955 -5.7615878e-16 -2.8807939e-16)
(12.076123 2.8801423e-16 0)
(12.161273 -2.8792975e-16 0)
(12.2464 2.8782592e-16 2.8782592e-16)
(12.331497 2.8770267e-16 2.4649373e-46)
(12.416558 -5.7511995e-16 -2.8755998e-16)
(12.501579 0 0)
(12.586553 0 0)
(12.671474 5.7402936e-16 2.8701468e-16)
(12.756337 1.1642379e-46 2.3284758e-46)
(12.841136 -5.7310602e-16 -2.8655301e-16)
(12.925865 0 0)
(13.010517 0 0)
(13.095088 5.7142476e-16 2.8571238e-16)
(13.179572 1.5431771e-46 3.0863542e-46)
(13.263961 -5.7010537e-16 -2.8505268e-16)
(13.348251 0 0)
(13.432436 0 0)
(13.516509 5.6782676e-16 2.8391338e-16)
(13.600465 2.8349351e-16 -4.0286851e-32)
(13.684298 -5.6610704e-16 -2.8305352e-16)
(13.768002 -2.8259338e-16 2.8259338e-16)
(13.85157 0 -7.8377269e-29)
(13.934997 5.6322496e-16 7.8238202e-29)
(14.018276 -1.5610712e-28 -7.805356e-29)
(14.101403 -5.6110108e-16 -2.8055054e-16)
(14.18437 2.7998909e-16 0)
(14.267171 0 0)
(14.349801 -2.788051e-16 0)
(14.432254 2.7818249e-16 0)
(14.514523 -3.9440728e-32 0)
(14.596602 -2.7687595e-16 2.7687595e-16)
(14.678486 2.7619196e-16 -7.6653762e-29)
(14.760168 -2.7548747e-16 -2.7548747e-16)
(14.841642 -2.7476246e-16 0)
(14.922901 2.7401691e-16 0)
(15.003941 2.7325082e-16 0)
(15.084754 -7.5657878e-29 0)
(15.165335 -2.7165695e-16 0)
(15.245677 2.7082917e-16 0)
(15.325775 7.4968298e-29 0)
(15.405621 -2.6911188e-16 2.6911188e-16)
(15.485211 2.6822238e-16 -1.488838e-28)
(15.564538 -2.6731232e-16 -2.6731232e-16)
(15.643595 -2.6638171e-16 0)
(15.722378 2.6543057e-16 0)
(15.800878 2.6445891e-16 0)
(15.879091 -7.3159474e-29 0)
(15.957011 -2.6245412e-16 0)
(16.03463 2.6142105e-16 0)
(16.111944 -3.7000456e-32 0)
(16.188946 -2.5929371e-16 2.5929371e-16)
(16.26563 2.5819953e-16 -7.1660178e-29)
(16.341989 -2.5708506e-16 -2.5708506e-16)
(16.418019 -2.5595036e-16 0)
(16.493712 2.5479549e-16 0)
(16.569063 5.07241e-16 2.536205e-16)
(16.644066 -1.402588e-28 -7.01294e-29)
(16.718715 -5.024209e-16 -2.5121045e-16)
(16.793004 2.4997554e-16 0)
(16.866926 -3.5345352e-32 0)
(16.940477 -4.9489269e-16 0)
(17.013649 -6.9960679e-32 2.4615225e-16)
(17.086438 2.4483863e-16 6.8021609e-29)
(17.158837 0 -2.4350558e-16)
(17.230842 -2.4215321e-16 0)
(17.302444 0 0)
(17.373641 2.3939102e-16 0)
(17.444424 0 0)
(17.514789 0 0)
(17.584731 0 0)
(17.654243 2.3364057e-16 0)
(17.723321 7.4164213e-47 2.3215673e-16)
(17.791958 -2.3065472e-16 -3.2778007e-32)
(17.860149 0 -2.2913473e-16)
(17.92789 -2.2759693e-16 0)
(17.995174 6.2767232e-29 0)
(18.061996 2.244687e-16 0)
(18.128352 0 0)
(18.194235 0 0)
(18.259642 0 0)
(18.324566 2.1800757e-16 0)
(18.389004 -6.0076359e-29 2.1635097e-16)
(18.452949 -2.1467833e-16 3.0507626e-32)
(18.516399 0 -2.1298991e-16)
(18.579347 -2.1128597e-16 0)
(18.641789 -5.8162749e-29 0)
(18.70372 2.0783267e-16 0)
(18.765137 0 2.0608388e-16)
(18.826035 -2.0432073e-16 -1.1344257e-28)
(18.886409 2.0254354e-16 -2.0254354e-16)
(18.946255 -1.1154707e-28 0)
(19.00557 -1.9894829e-16 1.9894829e-16)
(19.064349 1.971309e-16 5.4767344e-29)
(19.122588 0 -1.9530081e-16)
(19.180284 1.9345835e-16 0)
(19.237433 5.3204589e-29 0)
(19.294032 -1.8973782e-16 1.8973782e-16)
(19.350076 0 1.8786051e-16)
(19.405563 -1.8597234e-16 -1.8597234e-16)
(19.460489 1.8407373e-16 -1.8407373e-16)
(19.514852 1.0116723e-28 0)
(19.568648 -1.8024678e-16 0)
(19.621874 9.9006098e-29 0)
(19.674528 2.5065537e-32 0)
(19.726608 -4.8462874e-29 -1.7443844e-16)
(19.77811 2.451173e-32 2.451173e-32)
(19.829033 1.7052607e-16 3.4105213e-16)
(19.879374 0 1.685592e-16)
(19.929131 -1.6658584e-16 -3.3317167e-16)
(19.978302 4.5684545e-29 -3.2921291e-16)
(20.026886 4.5133656e-29 1.6262154e-16)
(20.07488 -9.7030009e-47 1.6063158e-16)
(20.122285 4.4050359e-29 0)
(20.169097 0 0)
(20.215316 3.0927287e-16 0)
(20.260941 4.2382681e-29 0)
(20.305971 -1.506237e-16 1.506237e-16)
(20.350406 1.4861411e-16 4.1288299e-29)
(20.394244 -4.0687918e-29 -1.4660306e-16)
(20.437486 -1.4459108e-16 0)
(20.480131 -1.4257873e-16 0)
(20.522179 -3.9032526e-29 0)
(20.56363 3.8473969e-29 0)
(20.604485 -1.3654474e-16 0)
(20.644743 1.3453625e-16 0)
(20.684406 1.325301e-16 0)
(20.723474 0 0)
(20.761948 1.2852699e-16 0)
(20.799829 -3.513518e-29 0)
(20.837119 -1.2453982e-16 0)
(20.873818 0 0)
(20.909929 0 0)
(20.945453 0 0)
(20.980391 2.3326173e-16 1.1663086e-16)
(21.014747 -1.2736679e-28 -6.3683396e-29)