/*--------------------------------*- C++ -*----------------------------------*\
  =========                 |
  \\      /  F ield         | OpenFOAM: The Open Source CFD Toolbox
   \\    /   O peration     | Website:  https://openfoam.org
    \\  /    A nd           | Version:  7
     \\/     M anipulation  |
\*---------------------------------------------------------------------------*/
FoamFile
{
    version     2.0;
    format      ascii;
    class       volScalarField;
    location    "0.0016";
    object      Uz;
}
// * * * * * * * * * * * * * * * * * * * * * * * * * * * * * * * * * * * * * //

dimensions      [0 1 -1 0 0 0 0];

internalField   nonuniform List<scalar> 
5000
(
0
0
0
0
0
1.4072688e-16
3.2189152e-31
-4.9081403e-16
-1.6956209e-16
3.4105115e-16
3.3770203e-16
-1.6600892e-16
1.3984677e-30
1.441057e-30
-3.2775696e-16
3.2639155e-16
5.1586487e-46
1.41342e-30
1.5927147e-16
-3.1642794e-16
-1.5705405e-16
0
0
1.5344595e-16
-1.2980709e-30
1.2448281e-30
1.4981682e-16
-1.4860118e-16
-1.4738217e-16
1.4616004e-16
-2.5333694e-30
1.2253207e-30
1.4247662e-16
-1.4124362e-16
-1.4000831e-16
0
0
1.3629035e-16
1.3504766e-16
-1.3380361e-16
2.2228465e-30
1.3131224e-16
-1.3006533e-16
2.1784284e-30
1.2757008e-16
-1.2632213e-16
4.3013371e-30
-4.2408343e-30
4.215541e-30
-2.0690943e-30
-1.2008733e-16
0
0
0
0
0
0
0
0
0
0
0
0
1.0405807e-16
1.0284415e-16
-1.0163387e-16
1.7268628e-30
5.8159789e-47
-9.8026646e-17
0
0
9.4458568e-17
9.327873e-17
0
-9.0934372e-17
-3.0999783e-30
8.8611585e-17
8.7458701e-17
-8.6311712e-17
-1.7034156e-16
1.6807214e-16
-4.7127596e-32
-2.4535785e-16
1.613417e-16
8.2763764e-30
-1.5692267e-16
2.3210165e-16
-7.6280386e-17
-7.5200981e-17
7.4129141e-17
-7.3065002e-17
-7.2008695e-17
-2.4705976e-30
1.3984018e-16
4.7675251e-30
6.7864313e-17
6.684903e-17
2.3111182e-30
-4.5153105e-30
-1.2770984e-16
-6.2874482e-17
6.1902998e-17
-8.6601752e-33
-5.9987277e-17
0
5.810845e-17
1.9909198e-30
-5.6267148e-17
5.5360745e-17
5.446393e-17
-1.0715352e-16
-5.2699293e-17
1.5549475e-16
5.0973673e-17
-1.5037683e-16
4.9287433e-17
4.8459176e-17
2.7080702e-32
4.6832552e-17
-1.381027e-16
3.1634785e-30
8.893536e-17
-8.7398942e-17
-4.2941322e-17
4.2193232e-17
-4.1455202e-17
4.0727229e-17
8.0018605e-17
-3.9301414e-17
-1.3330722e-30
-3.7915678e-17
-7.4475584e-17
3.6569858e-17
3.5911845e-17
3.5263724e-17
1.2055404e-30
1.1788285e-30
-1.1621192e-30
-6.5538702e-17
-3.2170065e-17
3.1580399e-17
6.2000598e-17
3.0429709e-17
2.9868564e-17
-2.0330901e-30
-5.7548715e-17
8.0266199e-33
-7.8776836e-33
-2.2141688e-46
-2.6696313e-17
1.8168986e-30
-3.5807151e-30
-2.5231956e-17
2.4761338e-17
-2.4299324e-17
-8.2684174e-31
2.3400749e-17
-2.2963998e-17
3.2024837e-33
2.2115083e-17
0
-2.1298269e-17
-1.4465363e-30
4.1025385e-17
-2.0131338e-17
5.6154024e-33
1.9390876e-17
-1.9031514e-17
1.8679209e-17
-1.8333811e-17
7.4979045e-30
4.8996656e-30
-1.7337376e-17
3.4035666e-17
0
1.1370594e-30
3.3482448e-30
-1.5797194e-17
-1.5518858e-17
-9.6170928e-31
1.2632623e-17
-1.2992205e-17
-9.4308137e-31
-5.8136506e-33
-1.8524384e-30
2.662309e-17
-1.3167903e-17
-1.2947266e-17
8.7565149e-31
-8.6929328e-31
2.5894784e-30
-8.4358364e-31
1.2012591e-17
0
0
0
0
1.1147141e-17
-2.2818531e-30
-1.0742775e-17
-1.0597465e-17
1.0465779e-17
1.0292765e-17
-2.0221106e-17
-6.8995468e-31
2.0435177e-30
9.6904787e-18
9.5337672e-18
-9.3984002e-18
0
-9.1168883e-18
-6.2205642e-31
8.8803147e-18
8.7578195e-18
-1.1998729e-30
-8.4902194e-18
1.6782565e-17
-8.2853026e-18
-8.1593232e-18
8.0426623e-18
-7.9486591e-18
0
0
0
-7.544555e-18
7.456663e-18
1.4710617e-17
-7.2564655e-18
4.9855103e-31
-7.0950071e-18
-7.0040095e-18
1.3824924e-17
-1.9427924e-33
1.9221308e-33
-6.6807687e-18
-6.5969448e-18
1.3050258e-17
-9.1776477e-34
1.3299383e-30
-6.3068685e-18
3.465259e-30
8.5683553e-31
-6.1097756e-18
6.0392436e-18
0
5.9184473e-18
-5.8583043e-18
-5.7968707e-18
5.73604e-18
0
5.6185317e-18
-5.5622418e-18
-5.5088385e-18
1.894148e-30
1.0803922e-17
1.0694585e-17
-1.5882305e-17
-1.0485532e-17
0
1.0289653e-17
5.0977136e-18
-5.0499682e-18
-5.0019444e-18
-4.9548623e-18
9.8184873e-18
9.7294822e-18
-4.8207276e-18
-9.5540028e-18
-1.3131385e-30
9.3827835e-18
-4.6496753e-18
6.3917006e-31
4.5673815e-18
-9.0538714e-18
4.4876073e-18
-6.1978263e-31
-4.4145988e-18
4.3784814e-18
-4.3414839e-18
8.6090912e-18
-1.7808632e-30
-8.4659606e-18
8.3999943e-18
2.8849469e-31
-4.1359646e-18
0
0
-4.0409544e-18
4.01177e-18
7.9619557e-18
-3.9513998e-18
1.1154618e-33
-3.8983257e-18
-3.8708745e-18
3.8445774e-18
0
3.7943829e-18
3.7665916e-18
0
-7.4423377e-18
-3.6993589e-18
7.3490374e-18
-2.5247695e-31
1.0314849e-33
-3.6141505e-18
-3.5913879e-18
3.5642413e-18
-3.5428188e-18
3.5299436e-18
-1.9994936e-33
-6.9937115e-18
3.4712159e-18
3.4546761e-18
3.4438301e-18
4.7530805e-31
-3.4040394e-18
0
0
3.3637742e-18
-4.6518718e-31
9.232078e-31
4.5880998e-31
-3.2877715e-18
3.2826372e-18
-4.6546427e-34
-3.2567082e-18
0
0
0
0
0
0
0
3.1325003e-18
0
-3.1194423e-18
0
3.0670109e-18
8.4649009e-31
-3.0485248e-18
0
0
3.0049994e-18
4.1366268e-31
-2.9636478e-18
0
0
2.9455384e-18
2.9151024e-18
-2.8878133e-18
-2.8706819e-18
0
2.8693831e-18
-4.0519452e-34
-2.8145793e-18
2.7810224e-18
2.7625475e-18
-2.7612832e-18
-2.7655518e-18
0
2.7333352e-18
2.6970176e-18
-2.6736123e-18
-2.6591614e-18
0
2.6500212e-18
2.626708e-18
-2.5849325e-18
-2.5498191e-18
0
0
0
0
0
0
0
0
2.4154247e-18
8.9497187e-48
-2.3869375e-18
0
0
0
2.2895343e-18
3.1637265e-31
-2.2599796e-18
2.2324173e-18
-3.0748778e-31
3.1302634e-34
3.0302289e-31
-2.156416e-18
2.1370948e-18
-2.1227297e-18
1.1657286e-30
2.0673223e-18
-2.0464758e-18
0
0
1.9950136e-18
2.7184602e-31
-1.935106e-18
1.9274145e-18
1.9208538e-18
0
-1.8829055e-18
-1.8576118e-18
1.8297365e-18
5.0083111e-31
-3.8071767e-48
2.4582719e-31
-1.7650108e-18
1.7436427e-18
2.218041e-47
2.3262463e-31
1.6554775e-18
0
0
-1.6227535e-18
-2.263366e-34
6.506875e-31
-1.5467266e-18
0
0
1.5063296e-18
-4.1217541e-31
-1.4686668e-18
0
0
0
1.3851118e-18
-1.9514629e-34
-1.3556673e-18
1.3329366e-18
-1.3097484e-18
3.5978904e-31
2.5653994e-18
-1.2650661e-18
-5.1752756e-31
-1.6942232e-31
1.6733992e-31
1.1932248e-18
0
0
-1.1410361e-18
-1.5630956e-31
3.0784498e-31
-8.4541547e-49
1.0742023e-18
-1.0595759e-18
-1.0440187e-18
0
1.010833e-18
1.3826617e-31
-9.8007169e-19
0
0
9.35135e-19
-2.6151396e-34
-8.1748861e-49
8.8379051e-19
-8.7057658e-19
1.1916673e-31
-1.1768603e-31
2.3080043e-31
8.1372648e-19
-8.0068642e-19
2.1952482e-31
-2.1616238e-31
2.1178211e-31
7.4532166e-19
-7.3338531e-19
2.0105766e-31
-9.8944492e-32
0
6.8058659e-19
-6.7034535e-19
9.1967526e-32
-9.2275981e-35
8.7941756e-32
-8.606526e-32
-6.1022389e-19
6.0283195e-19
5.9090779e-19
-5.7662226e-19
-5.6474586e-19
0
5.4701205e-19
5.3585416e-19
0
-5.1413529e-19
7.0145067e-32
-7.0332045e-35
-6.7140169e-32
4.7478718e-19
-4.6632349e-19
-6.3303562e-32
1.2366998e-31
4.3653253e-19
4.292991e-19
-8.3968461e-19
5.8136693e-35
-5.5376938e-32
-3.9251469e-19
3.8680821e-19
-5.2387748e-32
-3.6588484e-19
0
0
0
3.3918879e-19
3.2847416e-19
-3.1820085e-19
-3.1247384e-19
0
3.0169133e-19
2.9307443e-19
-2.8449268e-19
-2.7922397e-19
0
2.7055921e-19
2.616711e-19
-2.5178013e-19
-6.8024111e-32
2.4075786e-19
0
0
0
0
-2.1162564e-19
5.7311274e-32
2.0321437e-19
-2.0038777e-19
-2.7108269e-32
2.615086e-32
-2.8216352e-49
-1.7794006e-19
-1.7567481e-19
3.4310251e-19
2.297685e-32
-2.2118628e-32
1.5592565e-19
0
-1.5018424e-19
-1.4610333e-19
1.4157883e-19
3.8061302e-32
-1.3308509e-19
0
0
1.2434503e-19
-1.680056e-32
-1.1702022e-19
0
1.0924991e-19
-1.5175647e-35
2.9094409e-32
1.4106398e-32
-9.7959791e-20
9.5011169e-20
-1.3221082e-35
2.5259186e-32
8.802811e-20
-8.4742551e-20
-2.2884842e-32
-1.1441217e-35
1.0832073e-32
7.5140205e-20
-7.3027823e-20
0
3.8587238e-32
9.2828771e-33
2.695163e-32
8.9615485e-36
6.1049384e-20
-5.8764631e-20
-3.4045281e-49
7.7040055e-33
-1.4991082e-32
7.2701222e-33
-1.0136966e-19
4.879285e-20
4.6723111e-20
6.2241975e-33
-6.040709e-33
-8.4826217e-20
4.0784877e-20
3.880394e-20
-6.1024677e-50
0
-6.0350748e-50
3.3727803e-20
-3.1898031e-20
-6.5266417e-50
4.1038999e-33
4.103986e-36
2.7795358e-20
-5.2483038e-20
-6.8531401e-33
2.3589278e-20
-3.1573505e-33
3.0423335e-33
-2.1105687e-20
2.0151497e-20
2.2001306e-49
7.3872783e-33
-4.6585681e-33
4.4424057e-33
4.2188911e-33
-3.9972884e-50
0
-1.2700569e-20
0
0
1.0124474e-20
2.7660266e-33
-9.3787947e-21
0
0
1.354301e-20
5.2248443e-33
-1.1382963e-20
5.1776741e-21
-6.8774448e-37
6.2257384e-34
3.9275694e-21
0
0
0
2.1612696e-21
4.7591787e-34
-1.3081995e-21
0
0
3.2015161e-22
3.1528764e-39
1.9989946e-22
0
0
-1.1024494e-21
-3.9856777e-34
-4.2905765e-34
4.3566313e-34
1.7276044e-21
-2.0509233e-21
6.6181166e-34
-7.1257059e-34
7.3283637e-34
2.7481401e-21
0
0
-3.2754301e-21
1.6968711e-49
3.4858614e-21
0
0
-3.8339997e-21
8.5141582e-50
3.9471607e-21
0
0
-4.1159691e-21
1.3428757e-49
4.478096e-21
0
0
-4.3119771e-21
6.4333918e-37
4.7509578e-21
-4.7608636e-21
1.2925296e-33
-1.2830844e-33
1.303497e-33
4.7954217e-21
0
0
0
0
0
-4.6804918e-21
1.2972128e-33
4.8639407e-21
0
0
0
0
0
0
0
-4.8363533e-21
2.6347558e-33
4.8148918e-21
0
0
0
0
0
0
0
-4.8969328e-21
1.3072595e-33
4.5807143e-21
0
0
-4.8896726e-21
1.3593038e-33
4.8445856e-21
0
0
0
-4.8491909e-21
-1.3681288e-33
4.9958541e-21
0
0
0
0
0
0
0
-5.1236041e-21
7.409414e-37
5.3631666e-21
0
0
0
0
0
0
0
-5.4785896e-21
-7.6381987e-37
5.4895131e-21
0
0
0
-5.6752701e-21
3.058482e-33
5.512927e-21
0
-5.878585e-21
-1.6244414e-33
5.7401541e-21
0
0
-5.6587691e-21
-5.7947615e-21
5.7982856e-21
5.7133754e-21
0
0
0
0
5.702649e-21
-7.9519168e-37
-1.1011275e-20
-5.4892174e-21
1.1130052e-20
1.1161957e-20
-5.5192121e-21
-5.4614389e-21
0
0
0
0
-5.3339094e-21
-1.466955e-33
5.221847e-21
0
0
0
0
0
0
0
0
0
0
0
0
0
0
-4.616288e-21
2.6160537e-33
4.7773277e-21
0
0
4.3913997e-21
-1.2284837e-33
6.5190202e-37
-4.6602061e-21
-4.5999709e-21
-2.4920849e-33
1.2095918e-33
4.3339085e-21
0
0
0
0
0
-4.3693672e-21
2.502592e-33
4.6887093e-21
0
0
0
0
0
0
0
-4.9369434e-21
2.7205127e-33
4.8543176e-21
0
0
0
0
0
0
0
-5.0118996e-21
4.2485909e-33
5.1696042e-21
0
0
0
0
0
0
0
0
-5.0271802e-21
7.2688627e-37
5.1873561e-21
0
0
0
0
-5.1254368e-21
5.053361e-21
4.9895869e-21
-9.9016976e-21
-1.3793563e-33
4.9536218e-21
0
0
0
0
-4.7938916e-21
1.3037471e-33
8.9642767e-21
-4.4135234e-21
-4.5666868e-21
4.7300412e-21
0
0
0
-4.3019518e-21
-1.1823581e-33
4.4361694e-21
4.6011916e-21
-4.6247795e-21
-4.5234146e-21
4.3918764e-21
0
0
-4.3170783e-21
-4.4972e-21
4.5570169e-21
4.5116782e-21
4.4282377e-21
2.3921328e-33
-4.2539611e-21
0
0
0
-4.5001557e-21
-4.4292484e-21
4.3319604e-21
4.3064121e-21
4.4188481e-21
1.2496323e-33
-4.5089932e-21
0
0
0
-4.3995842e-21
1.2520559e-33
4.5507646e-21
0
0
0
0
0
0
0
-4.419217e-21
1.1809716e-33
8.363458e-21
1.1893518e-33
-4.4289613e-21
0
0
-4.3331324e-21
5.9562596e-37
-1.1465794e-33
1.1699696e-33
4.3110704e-21
4.345133e-21
-1.1945519e-33
-4.2129796e-21
0
0
-4.1705679e-21
3.4916513e-33
1.150102e-33
-5.7196456e-37
3.940885e-21
-3.9617774e-21
-4.0435253e-21
8.1667415e-21
-2.2292833e-33
-3.9023379e-21
3.7982059e-21
0
-3.8736004e-21
-1.088238e-33
3.8795142e-21
0
-3.6876695e-21
3.6381183e-21
-4.107044e-33
-3.7627121e-21
3.7690943e-21
0
-3.5801496e-21
0
3.5437047e-21
0
-3.684341e-21
3.6275089e-21
-1.9637528e-33
-3.4474691e-21
3.4254397e-21
0
-3.5729392e-21
-9.9275145e-34
3.5235782e-21
0
-3.4075073e-21
3.4389969e-21
-9.9486075e-37
-3.5302344e-21
3.4945801e-21
0
-3.3810656e-21
-3.3992537e-21
3.4704588e-21
3.5179268e-21
-3.4855396e-21
3.4193143e-21
3.3671953e-21
-3.3715767e-21
0
0
0
0
0
0
-3.4475685e-21
-1.5509409e-51
6.9526389e-21
-3.42342e-21
-3.3874455e-21
3.3996941e-21
0
0
-3.4368622e-21
-3.3620742e-21
3.3244724e-21
3.3674178e-21
0
-3.4961917e-21
-9.5597214e-34
3.3583777e-21
0
0
-3.3365544e-21
-3.4357489e-21
3.4676823e-21
3.4223936e-21
0
-3.2918674e-21
9.0523202e-34
3.2914293e-21
-3.3527737e-21
-1.8790309e-33
-4.748518e-37
-3.2752122e-21
3.2131496e-21
3.2004864e-21
0
0
-3.2911448e-21
8.9863103e-34
3.1611755e-21
0
-3.1715001e-21
-3.2205857e-21
3.2291742e-21
3.1883679e-21
0
0
0
0
0
0
-3.0624634e-21
8.4453546e-34
3.0790339e-21
0
0
0
0
0
0
-3.0020193e-21
-3.6165165e-52
3.0493849e-21
2.9890482e-21
8.1102258e-34
-2.8718877e-21
0
0
0
0
-2.9388617e-21
-8.0333579e-34
2.8686984e-21
-2.8738799e-21
-2.9087647e-21
2.9427668e-21
-1.6366919e-33
-2.4347997e-33
-2.4112454e-33
7.9915402e-34
-1.5941562e-33
8.021573e-34
2.9178142e-21
0
-2.9141963e-21
2.4181091e-33
-4.1353737e-37
-2.9241443e-21
2.9319114e-21
2.9243719e-21
-2.9000281e-21
8.0369217e-34
-2.4390276e-33
-1.6499189e-33
-1.6523584e-33
8.2222929e-34
-1.6346891e-33
-2.9495821e-21
2.9901611e-21
3.0300863e-21
-3.025024e-21
8.2932571e-34
-3.2951148e-33
-8.3021011e-34
8.4992463e-34
8.6368409e-34
8.6040815e-34
-3.0620214e-21
0
3.0270189e-21
-8.5812398e-34
-8.3392612e-52
3.169707e-21
0
-3.1313878e-21
3.1324743e-21
3.1699359e-21
-3.2063659e-21
0
0
0
0
-3.1967283e-21
8.9873753e-34
-1.792933e-33
3.1996105e-21
3.1532663e-21
-3.1342193e-21
0
0
0
0
-3.1429176e-21
-4.4168384e-37
3.1344793e-21
0
0
0
0
0
0
0
-3.150706e-21
-3.1128487e-21
3.0449727e-21
2.9805296e-21
0
0
0
0
0
0
-2.9245847e-21
-2.9121215e-21
2.9295348e-21
2.9451865e-21
0
0
0
0
0
0
-2.7930724e-21
-2.7834149e-21
2.7841803e-21
2.783286e-21
0
0
0
0
0
0
-2.6501197e-21
1.4780222e-33
2.6693636e-21
0
0
0
0
0
0
-2.5610167e-21
7.0324799e-34
2.5279037e-21
0
0
0
0
-2.4621265e-21
-3.4738319e-37
2.469389e-21
-2.5085407e-21
-5.5711731e-52
2.5275123e-21
-2.5079007e-21
1.3802124e-33
2.4648512e-21
-2.4435651e-21
-1.3512888e-33
-1.3628987e-33
5.358746e-51
-1.383386e-33
-6.8237144e-34
2.4122709e-21
-2.3793218e-21
-2.3893832e-21
4.8909192e-21
-1.3753066e-33
-4.938628e-21
0
2.3879136e-21
-6.5825741e-34
-6.6742621e-34
-2.0417122e-33
-2.0613794e-33
-1.3586388e-33
2.0040669e-33
-1.3166004e-33
6.5919323e-34
2.4237255e-21
0
-2.4678392e-21
-3.4403311e-37
-1.9640993e-33
-1.9310821e-33
3.3232959e-37
1.3363354e-33
-6.8455725e-34
-2.476948e-21
0
2.3980823e-21
-1.3111488e-33
-3.3367115e-37
2.3740727e-21
0
-2.4395441e-21
2.4288948e-21
2.4009156e-21
-2.3659074e-21
0
0
-2.402413e-21
2.6914103e-33
-1.3337791e-33
1.3162274e-33
-6.49396e-34
2.3264864e-21
2.3581693e-21
-2.3839384e-21
0
0
0
0
-2.3187804e-21
-6.5461712e-34
-2.6324414e-33
2.3421062e-21
2.296865e-21
-2.2624539e-21
0
0
0
0
-2.2962842e-21
-2.252739e-21
2.2304561e-21
2.2478163e-21
0
0
0
0
0
0
-2.2344304e-21
-2.254817e-21
2.2625464e-21
2.253584e-21
0
0
0
0
0
0
-2.2062551e-21
1.839301e-33
4.4193891e-21
-2.1992407e-21
-2.1795174e-21
2.1671101e-21
0
4.36757e-21
-2.4299742e-33
-7.2650149e-33
-2.1665767e-21
-4.3209619e-21
4.3357472e-21
-2.1789558e-21
-2.1731702e-21
2.1545941e-21
-2.1424967e-21
3.051373e-37
2.1614534e-21
2.1699153e-21
-2.1636038e-21
-2.1450732e-21
2.1374855e-21
-2.1523876e-21
-3.0817072e-37
2.16921e-21
0
0
0
4.3114319e-21
-2.178577e-21
-4.3642467e-21
2.169257e-21
-2.1464977e-21
-2.1392962e-21
4.3210807e-21
-1.923859e-51
-2.1966956e-21
2.1908468e-21
4.3478191e-21
2.1688551e-21
-6.5636204e-21
2.2071728e-21
1.1052431e-49
-6.6020209e-21
4.3603087e-21
2.1745925e-21
2.1998121e-21
4.456523e-21
-4.4746797e-21
-2.2213174e-21
-2.1921843e-21
2.1760103e-21
2.1904904e-21
-6.6937236e-21
2.2598419e-21
2.2578825e-21
-2.2423617e-21
-2.2283297e-21
-3.1607851e-37
6.7063376e-21
-2.2537084e-21
3.7648452e-33
-3.7603544e-33
-6.7696776e-21
2.2536017e-21
2.2496811e-21
4.4882291e-21
-2.2291584e-21
-4.442538e-21
4.4735806e-21
-2.2496796e-21
2.2456027e-21
2.2283879e-21
-6.593005e-21
2.183017e-21
2.2025555e-21
-4.4618823e-21
-2.2412635e-21
2.2221106e-21
6.5672129e-21
-2.1648069e-21
-8.6648797e-21
1.2193308e-33
4.4269896e-21
2.1982766e-21
0
4.2800103e-21
4.7194594e-33
-6.4343033e-21
2.1699231e-21
-4.8308162e-33
2.1541714e-21
2.1248265e-21
-4.2033349e-21
0
0
0
-2.1179855e-21
1.1661487e-33
4.1725979e-21
-2.0801175e-21
-4.1594583e-21
6.2054982e-21
-6.8248556e-33
-4.0592008e-21
2.0206702e-21
0
0
0
4.0038777e-21
-1.9795787e-21
-3.9385317e-21
5.9424365e-21
-5.6630035e-37
-3.9571654e-21
0
0
-1.9235404e-21
1.0771202e-33
3.8983438e-21
-1.9338419e-21
-3.8169932e-21
5.6455951e-21
-3.1156876e-33
-3.7746311e-21
1.9030523e-21
-1.9007322e-21
3.7596928e-21
1.8513103e-21
-6.114158e-33
-1.8433341e-21
-3.730541e-21
5.6231474e-21
-1.0532845e-36
-1.8232718e-21
9.9942675e-34
-1.7936452e-21
-1.8119049e-21
1.0179217e-33
5.5199258e-21
-5.1945434e-37
-5.4350429e-21
3.602845e-21
2.1232901e-50
-3.5661858e-21
1.7742373e-21
-1.7732674e-21
3.5680841e-21
1.7905747e-21
-3.9609388e-33
-1.764436e-21
-3.4807684e-21
-1.728193e-21
-1.7366945e-21
5.279523e-21
0
-1.7546982e-21
-9.5974041e-34
9.4890756e-34
-9.4560387e-34
1.7214239e-21
-1.928954e-33
1.7354062e-21
-5.7116374e-33
-5.0670784e-21
3.350638e-21
5.0485286e-21
1.7072969e-21
-5.1652233e-21
-3.4274213e-21
5.075081e-21
-1.6705786e-21
-4.9797207e-21
0
0
1.6798801e-21
1.6806889e-21
0
-1.6779129e-21
-1.6685177e-21
3.2888709e-21
-3.5839086e-33
-4.7849465e-21
1.7810807e-33
1.6399259e-21
1.6735225e-21
1.6753485e-21
-1.6357134e-21
-1.590141e-21
1.5543829e-21
4.6459651e-21
-1.5825324e-21
-6.4822442e-21
1.6408682e-21
3.2797028e-21
1.6278211e-21
0
-1.6077083e-21
0
-1.5901006e-21
1.5843172e-21
-3.5228398e-33
1.5981373e-21
-5.3416708e-33
-4.7936092e-21
1.5865491e-21
1.5733983e-21
-1.5692465e-21
-1.5804831e-21
1.5957905e-21
4.7989558e-21
-1.5850734e-21
-6.2640793e-21
2.5887697e-33
1.5574311e-21
3.1568344e-21
1.5929082e-21
-3.180188e-21
-8.7602709e-34
-2.2242131e-37
1.5615721e-21
-3.4905451e-33
-1.5833166e-21
4.7549261e-21
-1.7505431e-33
-3.1284089e-21
0
0
-1.5842803e-21
8.8367609e-34
3.1678804e-21
-1.5713262e-21
-3.1266456e-21
-1.5636401e-21
1.7488791e-33
4.7625323e-21
1.5860181e-21
-1.5781793e-21
3.1466673e-21
-8.9419599e-37
-5.2536516e-33
-1.5780206e-21
-3.1488929e-21
4.7071883e-21
-1.7413729e-33
-3.1522602e-21
0
0
3.1469098e-21
-3.4820901e-33
-1.7379734e-33
-4.457374e-37
-4.7028077e-21
-3.1214704e-21
2.5915584e-33
4.6791813e-21
1.5670731e-21
-1.5682439e-21
3.1111512e-21
1.7053558e-33
-5.0788281e-33
-1.5302583e-21
-3.1038924e-21
4.6898112e-21
-1.5543229e-21
-1.5353562e-21
1.5144428e-21
-1.5065649e-21
3.037372e-21
-1.7103254e-33
-1.5517493e-21
-2.1898393e-37
-3.0463583e-21
3.0202806e-21
-2.5061036e-33
-3.0257583e-21
1.522101e-21
0
-1.5169666e-21
-8.3719352e-34
4.5146314e-21
-1.5040908e-21
-3.0072057e-21
-1.497707e-21
-1.4858259e-21
1.4789112e-21
1.483905e-21
1.4976423e-21
-1.5016786e-21
8.2314702e-34
-8.098733e-34
1.4411534e-21
-1.5964518e-33
1.4574265e-21
-4.9310292e-33
-4.4673413e-21
2.9536006e-21
7.0012123e-51
-1.4422422e-21
-1.5916941e-33
7.9618608e-34
4.331701e-21
-1.457184e-21
-4.3880515e-21
0
0
1.4213285e-21
1.41127e-21
2.8304199e-21
-1.4332913e-21
-2.8902843e-21
2.8817339e-21
-1.4238897e-21
-4.2118145e-21
1.3940363e-21
1.4018177e-21
1.4238834e-21
1.4353498e-21
-2.8510015e-21
-1.4020178e-21
1.3767278e-21
4.0972296e-21
-1.3779728e-21
5.6608997e-50
-2.3686852e-33
-2.8487494e-21
2.8281824e-21
2.8076248e-21
-1.3993894e-21
-2.7943516e-21
2.7851785e-21
1.3852918e-21
-4.1348979e-21
-4.1361317e-21
1.3915299e-21
2.8087201e-21
1.4033699e-21
-7.6791818e-34
-2.7181374e-21
-1.3435365e-21
1.349422e-21
2.7563558e-21
-1.9927552e-37
-2.802566e-21
2.7458812e-21
-2.2332887e-33
-2.6394652e-21
1.326974e-21
2.7274529e-21
2.8007304e-21
0
-1.3811951e-21
-4.0317196e-21
-1.3070996e-21
1.2976239e-21
0
0
0
0
-1.3817834e-21
7.5398963e-34
4.0244669e-21
-1.3309106e-21
-3.9997503e-21
-1.3520024e-21
2.2881038e-33
2.7751581e-21
1.3846568e-21
-1.3677104e-21
2.7048139e-21
1.3415342e-21
-4.4628289e-33
-1.354309e-21
-2.7450451e-21
4.140872e-21
-3.9014219e-37
-1.3619826e-21
1.9250328e-37
-1.3537155e-21
-1.3646089e-21
1.5246637e-33
4.1162696e-21
-3.8768485e-37
-4.0615287e-21
-2.7006836e-21
7.5338549e-34
2.7424463e-21
1.3786691e-21
-1.3733875e-21
2.7286054e-21
1.3587346e-21
-4.5217495e-33
-1.3637052e-21
-2.7420456e-21
4.1190749e-21
-1.5221121e-33
-1.3697054e-21
-1.368692e-21
-1.3673771e-21
-7.5648169e-34
7.5291091e-34
2.7064992e-21
7.5309713e-34
-2.728591e-21
2.7355919e-21
-6.8085173e-33
-4.0613067e-21
2.6973067e-21
-1.4997068e-33
-2.7117831e-21
1.3580779e-21
1.3532955e-21
2.6883498e-21
-1.3396002e-21
-4.0303465e-21
0
0
0
3.9905277e-21
3.9752454e-21
-3.9920891e-21
-4.0200962e-21
2.6843113e-21
-3.7840641e-37
1.3166977e-21
-4.3557099e-33
-3.92456e-21
3.9550071e-21
-6.6279964e-33
-2.6447497e-21
-7.2806298e-34
7.2462829e-34
2.6093204e-21
-1.306308e-21
1.304011e-21
-4.3126636e-33
-3.8423769e-21
3.8241818e-21
1.2820471e-21
-2.8771702e-33
2.598847e-21
-2.5658951e-21
-1.2624229e-21
-1.2480919e-21
-3.741562e-21
1.4039582e-33
1.280587e-21
3.8375371e-21
-8.3884838e-33
-3.7141368e-21
0
1.2272632e-21
2.4893496e-21
-1.2592895e-21
1.2579569e-21
-4.1328497e-33
-2.4465283e-21
3.6373139e-21
-2.691427e-33
-1.3607902e-33
-1.3715913e-33
-1.3686449e-33
1.2181007e-21
-3.6073278e-21
-3.582276e-21
1.1962766e-21
2.4163873e-21
0
-1.2092798e-21
1.3273854e-33
-2.6263582e-33
1.3069312e-33
1.1808401e-21
-1.1883595e-21
-1.190647e-21
3.5485478e-21
3.1582214e-50
-1.9407567e-33
1.1648879e-21
-1.2979048e-33
2.3413468e-21
-2.3214735e-21
-2.2957272e-21
-1.1392863e-21
1.2629712e-33
1.1454008e-21
0
0
0
2.2373581e-21
-1.1153245e-21
-2.2437275e-21
3.3749769e-21
-1.1166345e-21
-3.2998752e-21
3.2475019e-21
-3.5839614e-33
-2.1681187e-21
3.2970481e-21
2.2038758e-21
0
-2.1303975e-21
-3.4889424e-33
-1.0426129e-21
-2.1038e-21
1.0660552e-21
0
2.1110924e-21
2.9437809e-37
1.1314694e-33
-1.0123102e-21
-3.0494812e-21
3.0788062e-21
-1.7137266e-33
-3.0564626e-21
3.0086606e-21
-4.9384403e-33
-1.9631196e-21
9.8399744e-22
-9.918473e-22
1.984088e-21
9.8004559e-22
-4.2771224e-33
-9.4849728e-22
-1.8862861e-21
-9.4857545e-22
-9.585579e-22
1.9185209e-21
9.4519759e-22
0
-9.1372854e-22
5.0523743e-34
-1.5193241e-51
9.2611823e-22
-2.6305535e-37
9.1043051e-22
2.8474769e-50
-2.6488891e-21
2.6450821e-21
2.6732333e-21
-1.8038063e-21
-1.8042598e-21
0
1.7386427e-21
-8.5764665e-22
-2.5632749e-21
2.579199e-21
-1.4462705e-33
-1.7463479e-21
8.7265756e-22
0
-8.578443e-22
-8.4746513e-22
8.3970896e-22
-1.3943158e-33
1.6850718e-21
4.8489111e-37
-2.5837926e-21
0
2.5257739e-21
1.6531417e-21
-2.4559697e-21
-1.643331e-21
2.5097476e-21
8.5264718e-22
-3.432665e-21
-8.4943544e-22
1.6714798e-21
1.6534877e-21
-9.1623818e-34
-8.3131035e-22
-8.4128062e-22
-8.4833509e-22
8.4845266e-22
-9.3926641e-34
1.6910677e-21
-2.8217781e-33
-2.5458763e-21
0
0
1.6777345e-21
-1.8647005e-33
-8.4776961e-22
2.5795433e-21
-8.6508984e-22
-1.4272949e-33
-2.8189366e-33
-2.5214628e-21
8.4329481e-22
-4.7509143e-34
9.6493592e-34
8.7259501e-22
-8.6415576e-22
1.2141299e-37
-4.7238955e-34
9.5066124e-34
8.7023978e-22
0
-8.755101e-22
1.7323263e-21
8.5764465e-22
-1.7157212e-21
0
8.83302e-22
-8.9017555e-22
-1.7637455e-21
2.6097266e-21
-2.8755421e-33
-2.8803833e-33
8.7664552e-22
-2.6618109e-21
1.2616841e-37
8.779724e-22
8.6638289e-22
-8.6316911e-22
-8.7148235e-22
8.8765498e-22
0
-8.8614475e-22
1.7387812e-21
-1.4218423e-33
-8.516166e-22
-1.922814e-33
-1.9678761e-33
-2.5507325e-37
-1.7818834e-21
2.6141947e-21
2.5605329e-21
0
-1.7054853e-21
-2.6128353e-21
-1.2608606e-37
8.9034288e-22
8.7793544e-22
-8.6161794e-22
-8.5018816e-22
8.4747617e-22
0
1.7347756e-21
1.7474474e-21
-2.6088016e-21
-8.5877507e-22
8.4851646e-22
-2.4007162e-37
-8.4875463e-22
-1.7163666e-21
-8.6148749e-22
1.4221161e-33
3.3711883e-21
-2.7780749e-33
-2.4994061e-21
8.4135488e-22
8.5067393e-22
8.5048364e-22
-8.372132e-22
-8.2254705e-22
-8.1483565e-22
-2.3238578e-37
8.3081077e-22
-8.4085012e-22
2.5150601e-21
1.6479285e-21
-2.4281816e-21
8.0290584e-22
1.6143325e-21
-1.6405322e-21
8.3000495e-22
-8.2687453e-22
-1.6227839e-21
2.3896717e-21
-7.8894904e-22
2.6358948e-33
2.4108777e-21
-1.629328e-21
-8.1525018e-22
-8.0468682e-22
-1.5868887e-21
7.8723435e-22
-3.2642425e-77
1.5875355e-21
8.0116668e-22
-8.8978254e-34
-7.930083e-22
-1.5673732e-21
1.5566194e-21
-7.7769111e-22
-2.3476151e-21
2.3678522e-21
7.9115502e-22
-4.9879498e-50
7.7692908e-22
-2.3106326e-21
-7.6798746e-22
7.7088134e-22
1.5544182e-21
-7.8073279e-22
7.7787221e-22
-2.5661578e-33
-1.5278442e-21
2.2844186e-21
8.4780734e-34
-3.4107698e-33
1.7116917e-33
-1.538407e-21
1.5311684e-21
-7.636563e-22
-3.0496317e-21
7.6129568e-22
1.5185427e-21
0
1.5114985e-21
-1.6824496e-33
-4.3267129e-37
-8.4533389e-34
-7.5576935e-22
-7.492309e-22
7.4601432e-22
7.4749705e-22
-1.5084064e-21
1.5176193e-21
-8.401953e-34
-1.5006946e-21
1.4891003e-21
2.4759868e-33
-8.293357e-34
-7.528867e-22
-1.5125472e-21
7.546938e-22
-7.515683e-22
4.1647712e-34
7.5032658e-22
1.5002309e-21
-7.4931508e-22
-1.4983514e-21
7.5078424e-22
-7.543082e-22
1.2593679e-33
-7.5350433e-22
-1.6648419e-33
1.4948876e-21
1.497174e-21
1.6738195e-33
-2.5246322e-33
2.5213984e-33
-7.5310875e-22
-7.4960365e-22
-7.5059277e-22
7.5692006e-22
0
0
-7.5954656e-22
4.182762e-34
1.0691849e-37
8.4061005e-34
7.6668323e-22
0
-7.7008149e-22
-1.5298886e-21
7.6194894e-22
1.5271289e-21
1.5409289e-21
1.554581e-21
-2.3377302e-21
-2.5849245e-33
2.3178998e-21
-1.5450893e-21
-1.5517367e-21
0
-7.8405544e-22
1.5699228e-21
7.851952e-22
-1.5744404e-21
-7.9006922e-22
8.7750072e-34
2.3586533e-21
-7.8114102e-22
-2.3397265e-21
2.3534859e-21
7.9425403e-22
-2.4044712e-21
8.8969522e-34
7.960756e-22
1.5819321e-21
8.767373e-34
-1.5857305e-21
1.5959313e-21
-8.015656e-22
-2.4071025e-21
0
8.0242514e-22
1.6037846e-21
-4.4358449e-34
7.9457632e-22
1.5810819e-21
-1.5819401e-21
-1.5961297e-21
0
-8.1017996e-22
-8.8791358e-34
-8.7364699e-34
-8.6487495e-34
2.3370882e-21
1.575511e-21
0
-1.6010437e-21
-1.7640026e-33
-7.8682885e-22
-2.3480914e-21
7.8293312e-22
-4.3683599e-34
1.1199121e-37
7.8006054e-22
1.5402562e-21
-7.6364112e-22
-1.5263245e-21
7.7044231e-22
0
1.5536958e-21
-7.6338337e-22
-2.2464471e-21
7.3979078e-22
7.3839842e-22
1.491108e-21
-7.5405944e-22
-2.2695914e-21
7.4896173e-22
-8.1708587e-34
-1.4523594e-21
7.1982137e-22
7.1663478e-22
1.435127e-21
2.1625923e-21
-1.447899e-21
-1.4400555e-21
1.4144977e-21
7.6878953e-34
-1.3628814e-21
1.3557356e-21
7.5862749e-34
-1.3856056e-21
0
1.3703818e-21
1.3253067e-21
0
-1.8986433e-21
-6.3784104e-22
-1.8544769e-37
-6.6395157e-22
-6.6453434e-22
-7.224727e-34
1.260246e-21
1.2280261e-21
-2.0172305e-33
-1.213491e-21
1.2320804e-21
2.0828289e-33
-1.2546908e-21
0
0
0
0
1.150662e-21
6.5170511e-34
-1.1956208e-21
-5.9964229e-22
1.1754369e-21
-1.891675e-33
-1.1047154e-21
1.0909085e-21
6.0845547e-34
-5.5760648e-22
1.1330946e-21
-1.8987937e-33
-1.1337158e-21
1.1155352e-21
1.0895262e-21
-1.0671829e-21
-1.0549735e-21
0
0
0
0
-5.4281615e-22
5.23982e-22
5.0897847e-22
-5.6430356e-34
-6.8583797e-77
-5.3929397e-22
-1.1000153e-21
-5.4560774e-22
1.0534049e-21
1.5274814e-21
-5.0217533e-22
-1.0184603e-21
1.5819091e-21
1.0868367e-21
-1.6444021e-21
-1.0769834e-21
-5.214926e-22
-5.6507975e-34
1.0158641e-21
0
-5.3412782e-22
5.4654179e-22
-1.2179947e-33
-1.5317306e-37
-1.7526071e-33
-5.1899342e-22
-5.2104554e-22
1.5106474e-37
1.088814e-21
1.1043451e-21
-1.8320309e-33
-1.0801741e-21
0
0
0
-5.4803821e-22
-5.5819321e-22
5.5930975e-22
5.5037314e-22
-5.4112436e-22
1.0757861e-21
1.6266012e-21
0
-1.1284489e-21
-6.290696e-34
-5.5831641e-22
-1.6450691e-21
5.4423036e-22
-9.1196751e-34
1.1156e-21
-3.7879235e-33
-1.1432982e-21
-3.1276228e-34
-7.8626374e-38
5.4871222e-22
-5.5149224e-22
1.1216912e-21
5.7091497e-22
-1.1467525e-21
1.1298308e-21
1.5766909e-37
-6.1094042e-34
-5.5281452e-22
-1.6859953e-21
1.1417103e-21
9.0179334e-52
5.6023161e-22
-9.1448504e-34
-1.0894175e-21
5.4919277e-22
1.1225562e-21
-6.3497827e-34
-1.7133022e-21
1.5783614e-37
5.3850484e-22
-5.3054855e-22
1.0696894e-21
5.4938737e-22
-1.1275743e-21
1.1358662e-21
6.1846256e-34
-2.986329e-33
1.1613619e-33
-1.0385755e-21
1.0544818e-21
-5.4127281e-22
-1.1040257e-21
5.5394837e-22
-5.4428512e-22
1.0556402e-21
-8.5786715e-34
-1.5290066e-21
0
0
1.5954593e-21
5.3430916e-22
-1.0545909e-21
1.0287331e-21
2.8641108e-37
-2.2179206e-33
-5.5664013e-34
-1.0157974e-21
1.0248509e-21
1.0193352e-21
-4.9977981e-22
-1.4707996e-21
-4.8593064e-22
4.8742131e-22
0
0
-4.9385982e-22
2.6762681e-34
1.4131124e-21
1.324003e-37
-9.3522666e-22
-4.7500689e-22
5.3468976e-34
1.4427486e-21
1.0443503e-33
-9.1518948e-22
0
-4.494675e-22
9.0974883e-22
4.61715e-22
-1.0331143e-33
-4.6173664e-22
-9.0397859e-22
4.4269024e-22
0
0
0
0
-4.4883775e-22
2.4612979e-34
1.3076189e-21
-4.3090354e-22
-1.2921397e-21
1.3026191e-21
4.3772383e-22
-8.7412359e-22
-4.310612e-22
-7.074684e-34
1.2694966e-21
-2.4218916e-37
-1.436768e-33
-4.3262142e-22
-8.539678e-22
-4.1859872e-22
-4.5881363e-34
4.1490543e-22
4.2148825e-22
4.2827365e-22
4.2857492e-22
-9.3203983e-34
-8.1950672e-22
0
0
-4.1471549e-22
-7.0036056e-34
-5.9656347e-38
5.8468191e-38
4.0287015e-22
7.9865718e-22
8.0219324e-22
-8.1261677e-22
-4.5448771e-34
-4.0589321e-22
-1.1931557e-21
0
0
3.9167593e-22
3.9586115e-22
0
-3.8868172e-22
2.1033242e-34
3.7211361e-22
-3.7145074e-22
7.5046567e-22
-1.2631638e-33
-1.1337453e-21
3.6916592e-22
3.5873554e-22
7.0495528e-22
-3.5148969e-22
-1.0612834e-21
3.5520039e-22
-1.9541959e-34
6.8772187e-22
3.3594716e-22
-6.6339281e-22
6.6123661e-22
1.1521638e-51
-6.576607e-22
0
0
6.1999118e-22
-3.4120523e-34
-1.0219343e-33
6.2666145e-51
-8.988411e-22
-3.25648e-34
2.8838229e-22
5.7122176e-22
5.6777032e-22
-5.6222165e-22
-6.1266494e-34
-2.7041621e-22
-8.8813199e-34
2.6451192e-22
-5.2580608e-22
0
-2.5411334e-22
2.7615022e-34
2.4603452e-22
4.9065822e-22
2.7155316e-34
-4.8205402e-22
0
0
-2.2450643e-22
1.2532712e-34
6.8485962e-22
2.5241493e-34
-4.4181989e-22
0
2.0866347e-22
-2.089842e-22
-2.1150076e-22
-2.1101849e-22
-2.0435907e-22
3.8950406e-22
5.6818145e-22
-1.9205992e-22
-3.9929606e-22
6.1897556e-22
2.868276e-51
-3.8501236e-22
0
0
0
0
3.8463963e-22
3.9393253e-22
-1.9303836e-22
-5.4514525e-22
-1.8857022e-34
1.6371221e-22
-3.2917111e-22
-3.4042782e-22
1.7721116e-22
7.3057063e-22
3.705099e-22
-5.4983475e-22
-3.5165293e-22
5.0084469e-22
3.6232203e-34
-3.3503489e-22
0
0
0
3.7449993e-22
1.9630212e-34
-3.7676786e-34
1.7262395e-22
-5.5115997e-22
1.9659083e-22
2.0482117e-22
-6.1213679e-22
-3.9019291e-22
1.875615e-22
3.7745015e-22
3.9734281e-22
-7.0819175e-34
2.484702e-34
-6.4451508e-38
-4.4101592e-22
0
-2.1276092e-22
-2.210433e-22
2.3423976e-22
2.4638581e-22
-2.5191869e-22
-2.4905649e-22
4.8505194e-22
2.4039587e-22
-2.4676964e-22
2.5895104e-22
-2.7147552e-22
-5.5786324e-22
0
0
8.0461532e-22
2.7153285e-22
-5.6237559e-22
-2.929948e-22
-3.0132667e-22
6.0506143e-22
-3.3048579e-34
-5.8667042e-22
0
3.0098049e-22
9.3085797e-22
7.0397418e-34
-1.7618976e-33
6.2354071e-22