/*--------------------------------*- C++ -*----------------------------------*\
  =========                 |
  \\      /  F ield         | OpenFOAM: The Open Source CFD Toolbox
   \\    /   O peration     | Website:  https://openfoam.org
    \\  /    A nd           | Version:  7
     \\/     M anipulation  |
\*---------------------------------------------------------------------------*/
FoamFile
{
    version     2.0;
    format      ascii;
    class       surfaceScalarField;
    location    "0.00186";
    object      phi;
}
// * * * * * * * * * * * * * * * * * * * * * * * * * * * * * * * * * * * * * //

dimensions      [1 0 -1 0 0 0 0];

internalField   nonuniform List<scalar> 
4999
(
-2.2610705
-2.2600944
-2.2591183
-2.2581423
-2.2571663
-2.2561905
-2.2552149
-2.2542399
-2.2532656
-2.2522918
-2.2513181
-2.250344
-2.249369
-2.2483931
-2.2474162
-2.2464388
-2.2454609
-2.2444828
-2.2435045
-2.2425262
-2.2415479
-2.2405695
-2.2395912
-2.2386128
-2.2376345
-2.2366561
-2.2356778
-2.2346994
-2.233721
-2.2327427
-2.2317644
-2.2307859
-2.2298076
-2.2288293
-2.2278508
-2.2268725
-2.2258942
-2.2249157
-2.2239374
-2.2229591
-2.2219806
-2.2210022
-2.220024
-2.2190454
-2.2180671
-2.2170888
-2.2161102
-2.2151321
-2.2141536
-2.2131751
-2.212197
-2.2112182
-2.2102401
-2.2092618
-2.208283
-2.2073052
-2.2063264
-2.2053481
-2.2043701
-2.2033909
-2.2024138
-2.2014338
-2.2004572
-2.1994771
-2.1985003
-2.1975206
-2.1965432
-2.1955642
-2.1945862
-2.1936076
-2.1926293
-2.191651
-2.1906725
-2.1896942
-2.1887158
-2.1877375
-2.186759
-2.1857807
-2.1848023
-2.183824
-2.1828456
-2.1818672
-2.1808888
-2.1799105
-2.1789321
-2.1779537
-2.1769753
-2.175997
-2.1750186
-2.1740402
-2.1730619
-2.1720835
-2.1711051
-2.1701268
-2.1691484
-2.16817
-2.1671917
-2.1662133
-2.1652349
-2.1642565
-2.1632782
-2.1622998
-2.1613214
-2.1603431
-2.1593647
-2.1583863
-2.157408
-2.1564296
-2.1554513
-2.1544729
-2.1534945
-2.1525162
-2.1515378
-2.1505595
-2.149581
-2.1486027
-2.1476243
-2.146646
-2.1456676
-2.1446893
-2.1437109
-2.1427326
-2.1417542
-2.1407759
-2.1397975
-2.1388192
-2.1378409
-2.1368626
-2.1358842
-2.1349059
-2.1339277
-2.1329494
-2.1319711
-2.1309929
-2.1300147
-2.1290365
-2.1280584
-2.1270802
-2.1261021
-2.1251241
-2.124146
-2.123168
-2.1221899
-2.1212119
-2.1202339
-2.1192558
-2.1182778
-2.1172997
-2.1163215
-2.1153432
-2.1143649
-2.1133865
-2.112408
-2.1114294
-2.1104507
-2.1094719
-2.108493
-2.1075139
-2.1065347
-2.1055554
-2.104576
-2.1035965
-2.1026169
-2.1016373
-2.1006575
-2.0996777
-2.0986978
-2.0977178
-2.0967379
-2.0957578
-2.0947777
-2.0937976
-2.0928175
-2.0918374
-2.0908572
-2.089877
-2.0888968
-2.0879166
-2.0869364
-2.0859561
-2.0849759
-2.0839956
-2.0830154
-2.0820351
-2.0810549
-2.0800746
-2.0790944
-2.0781141
-2.0771338
-2.0761535
-2.0751732
-2.0741929
-2.0732127
-2.0722324
-2.0712521
-2.0702717
-2.0692914
-2.0683111
-2.0673308
-2.0663505
-2.0653701
-2.0643898
-2.0634095
-2.0624291
-2.0614488
-2.0604684
-2.0594881
-2.0585077
-2.0575273
-2.056547
-2.0555666
-2.0545862
-2.0536058
-2.0526254
-2.051645
-2.0506646
-2.0496842
-2.0487038
-2.0477234
-2.0467429
-2.0457625
-2.0447821
-2.0438016
-2.0428212
-2.0418407
-2.0408603
-2.0398798
-2.0388993
-2.0379188
-2.0369383
-2.0359578
-2.0349773
-2.0339968
-2.0330163
-2.0320358
-2.0310552
-2.0300747
-2.0290942
-2.0281136
-2.027133
-2.0261525
-2.0251719
-2.0241913
-2.0232107
-2.0222301
-2.0212495
-2.0202689
-2.0192882
-2.0183076
-2.017327
-2.0163463
-2.0153656
-2.014385
-2.0134043
-2.0124236
-2.0114429
-2.0104622
-2.0094815
-2.0085007
-2.00752
-2.0065392
-2.0055585
-2.0045777
-2.0035969
-2.0026162
-2.0016354
-2.0006545
-1.9996737
-1.9986929
-1.9977121
-1.9967312
-1.9957504
-1.9947695
-1.9937886
-1.9928078
-1.9918269
-1.990846
-1.9898651
-1.9888842
-1.9879033
-1.9869224
-1.9859415
-1.9849606
-1.9839797
-1.9829989
-1.9820179
-1.9810371
-1.9800562
-1.9790753
-1.9780944
-1.9771135
-1.9761326
-1.9751518
-1.9741709
-1.97319
-1.9722091
-1.9712281
-1.9702472
-1.9692662
-1.9682852
-1.9673042
-1.9663231
-1.965342
-1.9643608
-1.9633796
-1.9623983
-1.9614169
-1.9604355
-1.959454
-1.9584725
-1.9574909
-1.9565091
-1.9555274
-1.9545455
-1.9535636
-1.9525815
-1.9515995
-1.9506173
-1.9496351
-1.9486528
-1.9476704
-1.946688
-1.9457055
-1.944723
-1.9437405
-1.9427579
-1.9417752
-1.9407926
-1.9398099
-1.9388272
-1.9378445
-1.9368618
-1.9358791
-1.9348964
-1.9339137
-1.9329311
-1.9319484
-1.9309658
-1.9299832
-1.9290006
-1.9280181
-1.9270357
-1.9260532
-1.9250709
-1.9240886
-1.9231063
-1.9221241
-1.921142
-1.92016
-1.9191781
-1.9181962
-1.9172144
-1.9162328
-1.9152512
-1.9142697
-1.9132884
-1.9123072
-1.9113261
-1.9103451
-1.9093642
-1.9083835
-1.9074029
-1.9064225
-1.9054423
-1.9044621
-1.9034822
-1.9025025
-1.9015229
-1.9005435
-1.8995643
-1.8985853
-1.8976065
-1.8966279
-1.8956495
-1.8946713
-1.8936934
-1.8927157
-1.8917383
-1.8907611
-1.8897841
-1.8888075
-1.8878311
-1.886855
-1.8858791
-1.8849036
-1.8839283
-1.8829534
-1.8819788
-1.8810045
-1.8800305
-1.8790569
-1.8780836
-1.8771106
-1.8761381
-1.8751658
-1.874194
-1.8732225
-1.8722514
-1.8712807
-1.8703105
-1.8693406
-1.8683711
-1.867402
-1.8664334
-1.8654652
-1.8644975
-1.8635302
-1.8625633
-1.8615969
-1.860631
-1.8596655
-1.8587005
-1.857736
-1.856772
-1.8558085
-1.8548455
-1.853883
-1.852921
-1.8519595
-1.8509985
-1.8500381
-1.8490782
-1.8481188
-1.84716
-1.8462017
-1.845244
-1.8442868
-1.8433302
-1.8423741
-1.8414187
-1.8404638
-1.8395095
-1.8385557
-1.8376026
-1.83665
-1.8356981
-1.8347467
-1.833796
-1.8328459
-1.8318963
-1.8309474
-1.8299992
-1.8290515
-1.8281045
-1.8271581
-1.8262124
-1.8252673
-1.8243229
-1.8233791
-1.8224359
-1.8214935
-1.8205516
-1.8196105
-1.81867
-1.8177301
-1.816791
-1.8158525
-1.8149146
-1.8139775
-1.813041
-1.8121052
-1.81117
-1.8102355
-1.8093017
-1.8083686
-1.8074361
-1.8065043
-1.8055731
-1.8046426
-1.8037128
-1.8027836
-1.801855
-1.8009271
-1.7999999
-1.7990732
-1.7981472
-1.7972219
-1.7962971
-1.795373
-1.7944494
-1.7935265
-1.7926042
-1.7916825
-1.7907614
-1.7898408
-1.7889209
-1.7880015
-1.7870827
-1.7861644
-1.7852467
-1.7843296
-1.783413
-1.7824969
-1.7815814
-1.7806664
-1.7797519
-1.778838
-1.7779245
-1.7770116
-1.7760992
-1.7751872
-1.7742758
-1.7733648
-1.7724543
-1.7715443
-1.7706348
-1.7697257
-1.768817
-1.7679089
-1.7670011
-1.7660938
-1.7651869
-1.7642805
-1.7633745
-1.7624689
-1.7615637
-1.7606589
-1.7597545
-1.7588504
-1.7579468
-1.7570436
-1.7561407
-1.7552382
-1.754336
-1.7534342
-1.7525328
-1.7516317
-1.7507309
-1.7498305
-1.7489304
-1.7480306
-1.7471311
-1.7462319
-1.745333
-1.7444344
-1.7435361
-1.7426381
-1.7417404
-1.7408429
-1.7399457
-1.7390488
-1.7381521
-1.7372556
-1.7363594
-1.7354634
-1.7345676
-1.7336721
-1.7327768
-1.7318816
-1.7309867
-1.730092
-1.7291974
-1.7283031
-1.7274089
-1.7265148
-1.725621
-1.7247273
-1.7238337
-1.7229403
-1.722047
-1.7211538
-1.7202608
-1.7193678
-1.718475
-1.7175823
-1.7166897
-1.7157972
-1.7149047
-1.7140124
-1.7131201
-1.7122278
-1.7113356
-1.7104435
-1.7095515
-1.7086594
-1.7077674
-1.7068755
-1.7059835
-1.7050916
-1.7041997
-1.7033078
-1.7024159
-1.701524
-1.7006321
-1.6997402
-1.6988482
-1.6979563
-1.6970643
-1.6961723
-1.6952803
-1.6943882
-1.693496
-1.6926039
-1.6917117
-1.6908194
-1.689927
-1.6890346
-1.6881421
-1.6872496
-1.6863569
-1.6854642
-1.6845714
-1.6836784
-1.6827854
-1.6818923
-1.680999
-1.6801056
-1.679212
-1.6783184
-1.6774245
-1.6765305
-1.6756363
-1.674742
-1.6738475
-1.6729527
-1.6720578
-1.6711626
-1.6702672
-1.6693716
-1.6684757
-1.6675795
-1.6666831
-1.6657863
-1.6648893
-1.6639919
-1.6630943
-1.6621962
-1.6612979
-1.6603991
-1.6595
-1.6586005
-1.6577006
-1.6568002
-1.6558994
-1.6549982
-1.6540965
-1.6531943
-1.6522917
-1.6513885
-1.6504849
-1.6495807
-1.648676
-1.6477707
-1.6468649
-1.6459584
-1.6450514
-1.6441438
-1.6432356
-1.6423268
-1.6414173
-1.6405071
-1.6395964
-1.6386849
-1.6377727
-1.6368599
-1.6359464
-1.6350321
-1.6341171
-1.6332014
-1.632285
-1.6313677
-1.6304498
-1.629531
-1.6286115
-1.6276911
-1.62677
-1.625848
-1.6249252
-1.6240016
-1.6230772
-1.6221519
-1.6212258
-1.6202988
-1.6193709
-1.6184421
-1.6175125
-1.616582
-1.6156505
-1.6147182
-1.613785
-1.6128508
-1.6119157
-1.6109797
-1.6100427
-1.6091048
-1.608166
-1.6072262
-1.6062855
-1.6053437
-1.604401
-1.6034574
-1.6025128
-1.6015671
-1.6006206
-1.599673
-1.5987244
-1.5977748
-1.5968242
-1.5958727
-1.5949201
-1.5939665
-1.5930119
-1.5920562
-1.5910996
-1.5901419
-1.5891832
-1.5882235
-1.5872628
-1.586301
-1.5853383
-1.5843744
-1.5834096
-1.5824437
-1.5814768
-1.5805088
-1.5795398
-1.5785698
-1.5775988
-1.5766267
-1.5756536
-1.5746794
-1.5737042
-1.572728
-1.5717508
-1.5707725
-1.5697932
-1.5688129
-1.5678316
-1.5668493
-1.5658659
-1.5648816
-1.5638962
-1.5629099
-1.5619225
-1.5609342
-1.5599449
-1.5589546
-1.5579633
-1.556971
-1.5559778
-1.5549837
-1.5539886
-1.5529925
-1.5519956
-1.5509977
-1.5499988
-1.5489991
-1.5479985
-1.546997
-1.5459946
-1.5449913
-1.5439872
-1.5429822
-1.5419764
-1.5409697
-1.5399622
-1.5389539
-1.5379448
-1.5369349
-1.5359243
-1.5349128
-1.5339006
-1.5328877
-1.531874
-1.5308596
-1.5298445
-1.5288287
-1.5278122
-1.5267951
-1.5257772
-1.5247587
-1.5237396
-1.5227198
-1.5216994
-1.5206784
-1.5196567
-1.5186345
-1.5176117
-1.5165884
-1.5155645
-1.51454
-1.513515
-1.5124894
-1.5114634
-1.5104368
-1.5094097
-1.5083821
-1.5073541
-1.5063256
-1.5052966
-1.5042671
-1.5032372
-1.5022069
-1.5011761
-1.5001449
-1.4991133
-1.4980812
-1.4970488
-1.496016
-1.4949828
-1.4939492
-1.4929152
-1.4918809
-1.4908463
-1.4898112
-1.4887759
-1.4877402
-1.4867042
-1.4856678
-1.4846312
-1.4835943
-1.482557
-1.4815195
-1.4804817
-1.4794436
-1.4784052
-1.4773666
-1.4763277
-1.4752886
-1.4742492
-1.4732096
-1.4721698
-1.4711298
-1.4700895
-1.4690491
-1.4680084
-1.4669675
-1.4659265
-1.4648852
-1.4638438
-1.4628022
-1.4617604
-1.4607185
-1.4596764
-1.4586342
-1.4575918
-1.4565492
-1.4555065
-1.4544637
-1.4534208
-1.4523777
-1.4513345
-1.4502912
-1.4492477
-1.4482041
-1.4471604
-1.4461166
-1.4450727
-1.4440287
-1.4429846
-1.4419403
-1.440896
-1.4398515
-1.438807
-1.4377624
-1.4367176
-1.4356728
-1.4346278
-1.4335828
-1.4325377
-1.4314924
-1.4304471
-1.4294017
-1.4283562
-1.4273106
-1.4262649
-1.4252192
-1.4241733
-1.4231274
-1.4220813
-1.4210352
-1.419989
-1.4189427
-1.4178963
-1.4168499
-1.4158033
-1.4147567
-1.41371
-1.4126633
-1.4116164
-1.4105695
-1.4095225
-1.4084754
-1.4074283
-1.4063811
-1.4053338
-1.4042864
-1.403239
-1.4021916
-1.401144
-1.4000964
-1.3990487
-1.398001
-1.3969532
-1.3959054
-1.3948575
-1.3938095
-1.3927615
-1.3917134
-1.3906653
-1.3896171
-1.3885689
-1.3875206
-1.3864723
-1.3854239
-1.3843755
-1.383327
-1.3822785
-1.3812299
-1.3801812
-1.3791325
-1.3780838
-1.377035
-1.3759861
-1.3749372
-1.3738883
-1.3728392
-1.3717902
-1.370741
-1.3696919
-1.3686426
-1.3675933
-1.366544
-1.3654946
-1.3644451
-1.3633955
-1.3623459
-1.3612963
-1.3602466
-1.3591968
-1.358147
-1.3570971
-1.3560471
-1.3549971
-1.353947
-1.3528968
-1.3518466
-1.3507963
-1.349746
-1.3486956
-1.3476451
-1.3465946
-1.345544
-1.3444934
-1.3434427
-1.3423919
-1.3413411
-1.3402903
-1.3392394
-1.3381884
-1.3371374
-1.3360863
-1.3350352
-1.333984
-1.3329328
-1.3318815
-1.3308302
-1.3297789
-1.3287275
-1.3276761
-1.3266246
-1.3255731
-1.3245216
-1.32347
-1.3224184
-1.3213668
-1.3203151
-1.3192634
-1.3182116
-1.3171599
-1.3161081
-1.3150563
-1.3140044
-1.3129525
-1.3119006
-1.3108487
-1.3097967
-1.3087448
-1.3076927
-1.3066407
-1.3055886
-1.3045365
-1.3034844
-1.3024322
-1.30138
-1.3003278
-1.2992755
-1.2982232
-1.2971709
-1.2961185
-1.2950661
-1.2940137
-1.2929612
-1.2919086
-1.2908561
-1.2898034
-1.2887508
-1.287698
-1.2866453
-1.2855925
-1.2845396
-1.2834867
-1.2824337
-1.2813807
-1.2803276
-1.2792744
-1.2782212
-1.277168
-1.2761146
-1.2750613
-1.2740078
-1.2729543
-1.2719007
-1.2708471
-1.2697934
-1.2687396
-1.2676858
-1.2666319
-1.265578
-1.264524
-1.2634699
-1.2624157
-1.2613615
-1.2603073
-1.2592529
-1.2581986
-1.2571441
-1.2560896
-1.255035
-1.2539804
-1.2529257
-1.251871
-1.2508162
-1.2497613
-1.2487064
-1.2476514
-1.2465964
-1.2455413
-1.2444862
-1.243431
-1.2423758
-1.2413205
-1.2402651
-1.2392097
-1.2381543
-1.2370988
-1.2360433
-1.2349877
-1.233932
-1.2328763
-1.2318206
-1.2307648
-1.229709
-1.2286531
-1.2275971
-1.2265411
-1.2254851
-1.224429
-1.2233728
-1.2223166
-1.2212603
-1.220204
-1.2191477
-1.2180912
-1.2170348
-1.2159782
-1.2149216
-1.213865
-1.2128083
-1.2117515
-1.2106946
-1.2096378
-1.2085808
-1.2075238
-1.2064667
-1.2054096
-1.2043524
-1.2032951
-1.2022378
-1.2011804
-1.2001229
-1.1990654
-1.1980078
-1.1969502
-1.1958925
-1.1948347
-1.1937769
-1.192719
-1.191661
-1.190603
-1.1895449
-1.1884867
-1.1874285
-1.1863702
-1.1853119
-1.1842535
-1.183195
-1.1821365
-1.1810779
-1.1800192
-1.1789605
-1.1779017
-1.1768429
-1.175784
-1.174725
-1.173666
-1.172607
-1.1715478
-1.1704886
-1.1694294
-1.1683701
-1.1673107
-1.1662513
-1.1651919
-1.1641323
-1.1630727
-1.1620131
-1.1609534
-1.1598936
-1.1588338
-1.1577739
-1.156714
-1.155654
-1.154594
-1.1535339
-1.1524737
-1.1514135
-1.1503532
-1.1492929
-1.1482325
-1.147172
-1.1461115
-1.1450509
-1.1439902
-1.1429295
-1.1418688
-1.1408079
-1.139747
-1.1386861
-1.137625
-1.1365639
-1.1355028
-1.1344416
-1.1333803
-1.1323189
-1.1312575
-1.1301961
-1.1291345
-1.1280729
-1.1270113
-1.1259495
-1.1248877
-1.1238259
-1.122764
-1.121702
-1.12064
-1.1195779
-1.1185157
-1.1174535
-1.1163912
-1.1153289
-1.1142665
-1.113204
-1.1121415
-1.111079
-1.1100163
-1.1089537
-1.1078909
-1.1068282
-1.1057653
-1.1047025
-1.1036396
-1.1025766
-1.1015136
-1.1004505
-1.0993874
-1.0983243
-1.0972611
-1.0961978
-1.0951345
-1.0940712
-1.0930079
-1.0919444
-1.090881
-1.0898175
-1.088754
-1.0876904
-1.0866268
-1.0855632
-1.0844995
-1.0834358
-1.082372
-1.0813083
-1.0802444
-1.0791805
-1.0781166
-1.0770527
-1.0759887
-1.0749247
-1.0738606
-1.0727965
-1.0717323
-1.0706681
-1.0696039
-1.0685396
-1.0674753
-1.0664109
-1.0653465
-1.064282
-1.0632175
-1.062153
-1.0610884
-1.0600237
-1.058959
-1.0578942
-1.0568294
-1.0557645
-1.0546996
-1.0536346
-1.0525696
-1.0515045
-1.0504393
-1.0493741
-1.0483088
-1.0472435
-1.0461781
-1.0451126
-1.0440471
-1.0429815
-1.0419158
-1.0408501
-1.0397843
-1.0387185
-1.0376526
-1.0365866
-1.0355205
-1.0344544
-1.0333883
-1.032322
-1.0312557
-1.0301893
-1.0291229
-1.0280564
-1.0269898
-1.0259232
-1.0248564
-1.0237897
-1.0227228
-1.0216559
-1.0205889
-1.0195219
-1.0184548
-1.0173876
-1.0163203
-1.015253
-1.0141856
-1.0131182
-1.0120507
-1.0109831
-1.0099155
-1.0088478
-1.00778
-1.0067122
-1.0056443
-1.0045763
-1.0035083
-1.0024402
-1.001372
-1.0003038
-0.9992355
-0.99816713
-0.99709871
-0.99603021
-0.99496166
-0.99389303
-0.99282434
-0.99175559
-0.99068675
-0.98961786
-0.9885489
-0.98747987
-0.98641078
-0.98534161
-0.98427238
-0.98320307
-0.9821337
-0.98106425
-0.97999474
-0.97892516
-0.97785551
-0.9767858
-0.975716
-0.97464614
-0.9735762
-0.9725062
-0.97143612
-0.97036598
-0.96929576
-0.96822548
-0.96715512
-0.96608469
-0.9650142
-0.96394363
-0.962873
-0.9618023
-0.96073153
-0.95966069
-0.95858978
-0.95751881
-0.95644777
-0.95537667
-0.9543055
-0.95323427
-0.95216297
-0.95109162
-0.95002019
-0.94894872
-0.94787718
-0.94680558
-0.94573393
-0.94466222
-0.94359046
-0.94251864
-0.94144677
-0.94037485
-0.93930288
-0.93823087
-0.93715879
-0.93608668
-0.93501453
-0.93394232
-0.93287008
-0.9317978
-0.93072547
-0.92965312
-0.92858072
-0.92750828
-0.92643582
-0.92536332
-0.92429078
-0.92321822
-0.92214564
-0.92107301
-0.92000037
-0.9189277
-0.917855
-0.91678228
-0.91570954
-0.91463678
-0.91356399
-0.91249119
-0.91141837
-0.91034553
-0.90927267
-0.9081998
-0.90712691
-0.906054
-0.90498108
-0.90390815
-0.9028352
-0.90176223
-0.90068926
-0.89961627
-0.89854327
-0.89747025
-0.89639722
-0.89532418
-0.89425113
-0.89317806
-0.89210498
-0.89103188
-0.88995877
-0.88888565
-0.88781251
-0.88673936
-0.88566618
-0.884593
-0.8835198
-0.88244657
-0.88137333
-0.88030007
-0.87922679
-0.87815349
-0.87708016
-0.87600681
-0.87493344
-0.87386004
-0.87278662
-0.87171316
-0.87063968
-0.86956617
-0.86849263
-0.86741905
-0.86634544
-0.8652718
-0.86419812
-0.86312441
-0.86205066
-0.86097686
-0.85990303
-0.85882915
-0.85775524
-0.85668127
-0.85560727
-0.85453321
-0.85345911
-0.85238496
-0.85131076
-0.85023651
-0.84916221
-0.84808786
-0.84701345
-0.84593899
-0.84486447
-0.8437899
-0.84271527
-0.84164058
-0.84056584
-0.83949104
-0.83841617
-0.83734125
-0.83626627
-0.83519123
-0.83411613
-0.83304097
-0.83196575
-0.83089046
-0.82981512
-0.82873972
-0.82766425
-0.82658872
-0.82551314
-0.82443749
-0.82336178
-0.82228602
-0.82121019
-0.82013431
-0.81905836
-0.81798237
-0.81690631
-0.8158302
-0.81475403
-0.8136778
-0.81260153
-0.8115252
-0.81044881
-0.80937238
-0.8082959
-0.80721936
-0.80614278
-0.80506615
-0.80398948
-0.80291276
-0.80183599
-0.80075919
-0.79968234
-0.79860545
-0.79752852
-0.79645156
-0.79537455
-0.79429751
-0.79322044
-0.79214334
-0.7910662
-0.78998903
-0.78891184
-0.78783461
-0.78675736
-0.78568009
-0.78460278
-0.78352546
-0.78244811
-0.78137075
-0.78029336
-0.77921596
-0.77813853
-0.7770611
-0.77598364
-0.77490618
-0.7738287
-0.7727512
-0.7716737
-0.77059619
-0.76951867
-0.76844114
-0.7673636
-0.76628606
-0.76520851
-0.76413096
-0.7630534
-0.76197585
-0.76089829
-0.75982073
-0.75874317
-0.75766561
-0.75658805
-0.75551049
-0.75443293
-0.75335538
-0.75227783
-0.75120028
-0.75012274
-0.74904521
-0.74796768
-0.74689015
-0.74581263
-0.74473512
-0.74365762
-0.74258012
-0.74150263
-0.74042515
-0.73934768
-0.73827021
-0.73719276
-0.73611531
-0.73503788
-0.73396045
-0.73288303
-0.73180562
-0.73072822
-0.72965084
-0.72857346
-0.72749609
-0.72641873
-0.72534138
-0.72426404
-0.72318671
-0.72210939
-0.72103208
-0.71995478
-0.71887748
-0.7178002
-0.71672292
-0.71564565
-0.71456839
-0.71349113
-0.71241388
-0.71133664
-0.7102594
-0.70918216
-0.70810493
-0.7070277
-0.70595047
-0.70487325
-0.70379602
-0.7027188
-0.70164157
-0.70056434
-0.6994871
-0.69840987
-0.69733262
-0.69625537
-0.69517812
-0.69410085
-0.69302358
-0.69194629
-0.69086899
-0.68979168
-0.68871436
-0.68763701
-0.68655966
-0.68548228
-0.68440489
-0.68332747
-0.68225003
-0.68117257
-0.68009509
-0.67901758
-0.67794004
-0.67686248
-0.67578488
-0.67470726
-0.67362961
-0.67255192
-0.6714742
-0.67039645
-0.66931866
-0.66824083
-0.66716297
-0.66608506
-0.66500712
-0.66392913
-0.6628511
-0.66177303
-0.66069492
-0.65961675
-0.65853855
-0.65746029
-0.65638199
-0.65530363
-0.65422523
-0.65314678
-0.65206827
-0.65098971
-0.6499111
-0.64883244
-0.64775372
-0.64667495
-0.64559612
-0.64451724
-0.6434383
-0.6423593
-0.64128024
-0.64020113
-0.63912196
-0.63804274
-0.63696345
-0.63588411
-0.63480471
-0.63372525
-0.63264573
-0.63156616
-0.63048653
-0.62940685
-0.62832711
-0.62724732
-0.62616747
-0.62508756
-0.6240076
-0.62292759
-0.62184752
-0.6207674
-0.61968723
-0.61860701
-0.61752674
-0.61644642
-0.61536605
-0.61428563
-0.61320517
-0.61212466
-0.61104411
-0.60996351
-0.60888287
-0.60780219
-0.60672146
-0.6056407
-0.60455989
-0.60347904
-0.60239816
-0.60131725
-0.60023629
-0.5991553
-0.59807427
-0.59699321
-0.59591212
-0.59483099
-0.59374983
-0.59266865
-0.59158743
-0.59050619
-0.58942492
-0.58834362
-0.58726229
-0.58618093
-0.58509954
-0.58401813
-0.58293669
-0.58185522
-0.58077373
-0.57969222
-0.57861068
-0.57752911
-0.57644752
-0.57536591
-0.57428428
-0.57320262
-0.57212094
-0.57103924
-0.56995752
-0.56887576
-0.56779399
-0.56671218
-0.56563036
-0.5645485
-0.56346662
-0.56238471
-0.56130277
-0.5602208
-0.5591388
-0.55805677
-0.5569747
-0.55589259
-0.55481045
-0.55372826
-0.55264604
-0.55156377
-0.55048145
-0.54939909
-0.54831668
-0.54723421
-0.54615169
-0.5450691
-0.54398645
-0.54290374
-0.54182096
-0.54073811
-0.53965518
-0.53857218
-0.53748909
-0.53640591
-0.53532265
-0.53423929
-0.53315582
-0.53207225
-0.53098857
-0.52990478
-0.52882086
-0.52773681
-0.52665263
-0.52556831
-0.52448384
-0.52339923
-0.52231445
-0.52122952
-0.52014441
-0.51905912
-0.51797365
-0.51688798
-0.5158021
-0.51471601
-0.5136297
-0.51254317
-0.51145639
-0.51036937
-0.50928208
-0.50819453
-0.50710671
-0.50601859
-0.50493018
-0.50384145
-0.50275241
-0.50166304
-0.50057332
-0.49948324
-0.49839279
-0.49730196
-0.49621074
-0.4951191
-0.49402705
-0.49293456
-0.49184162
-0.49074822
-0.48965434
-0.48855996
-0.48746507
-0.48636966
-0.48527371
-0.48417719
-0.4830801
-0.48198241
-0.48088411
-0.47978518
-0.4786856
-0.47758535
-0.47648442
-0.47538278
-0.47428041
-0.47317729
-0.47207339
-0.47096871
-0.46986321
-0.46875687
-0.46764967
-0.4665416
-0.46543261
-0.4643227
-0.46321184
-0.4621
-0.46098715
-0.45987328
-0.45875835
-0.45764234
-0.45652523
-0.45540698
-0.45428757
-0.45316697
-0.45204515
-0.45092209
-0.44979775
-0.44867211
-0.44754513
-0.44641679
-0.44528705
-0.44415588
-0.44302326
-0.44188914
-0.4407535
-0.4396163
-0.43847752
-0.4373371
-0.43619502
-0.43505125
-0.43390575
-0.43275848
-0.43160941
-0.4304585
-0.42930571
-0.42815101
-0.42699437
-0.42583573
-0.42467506
-0.42351233
-0.4223475
-0.42118052
-0.42001136
-0.41883998
-0.41766634
-0.41649039
-0.4153121
-0.41413142
-0.41294832
-0.41176275
-0.41057467
-0.40938404
-0.40819082
-0.40699497
-0.40579644
-0.40459519
-0.40339117
-0.40218436
-0.40097469
-0.39976214
-0.39854665
-0.39732818
-0.39610669
-0.39488214
-0.39365449
-0.39242368
-0.39118968
-0.38995244
-0.38871192
-0.38746808
-0.38622086
-0.38497024
-0.38371616
-0.38245859
-0.38119747
-0.37993277
-0.37866445
-0.37739245
-0.37611675
-0.3748373
-0.37355405
-0.37226697
-0.37097601
-0.36968114
-0.36838231
-0.36707949
-0.36577263
-0.36446169
-0.36314664
-0.36182744
-0.36050405
-0.35917643
-0.35784455
-0.35650837
-0.35516785
-0.35382297
-0.35247368
-0.35111995
-0.34976175
-0.34839905
-0.34703181
-0.34566
-0.3442836
-0.34290256
-0.34151687
-0.34012649
-0.3387314
-0.33733156
-0.33592695
-0.33451755
-0.33310333
-0.33168426
-0.33026032
-0.32883149
-0.32739774
-0.32595905
-0.32451541
-0.32306679
-0.32161318
-0.32015455
-0.31869089
-0.31722219
-0.31574843
-0.3142696
-0.31278567
-0.31129665
-0.30980251
-0.30830325
-0.30679885
-0.30528932
-0.30377463
-0.30225478
-0.30072977
-0.29919959
-0.29766423
-0.29612369
-0.29457797
-0.29302707
-0.29147098
-0.2899097
-0.28834325
-0.28677161
-0.28519479
-0.28361279
-0.28202563
-0.2804333
-0.27883582
-0.27723319
-0.27562542
-0.27401252
-0.2723945
-0.27077138
-0.26914315
-0.26750984
-0.26587146
-0.26422802
-0.26257953
-0.26092602
-0.2592675
-0.25760398
-0.25593549
-0.25426204
-0.25258365
-0.25090035
-0.24921215
-0.24751908
-0.24582115
-0.24411841
-0.24241086
-0.24069853
-0.23898146
-0.23725966
-0.23553316
-0.23380199
-0.23206618
-0.23032576
-0.22858076
-0.2268312
-0.22507711
-0.22331853
-0.22155549
-0.21978801
-0.21801614
-0.2162399
-0.21445933
-0.21267446
-0.21088533
-0.20909197
-0.20729442
-0.20549271
-0.20368688
-0.20187697
-0.20006301
-0.19824504
-0.1964231
-0.19459723
-0.19276746
-0.19093383
-0.18909638
-0.18725514
-0.18541016
-0.18356147
-0.18170912
-0.17985314
-0.17799357
-0.17613045
-0.17426383
-0.17239374
-0.17052023
-0.16864334
-0.16676311
-0.16487958
-0.1629928
-0.16110279
-0.15920961
-0.1573133
-0.15541389
-0.15351142
-0.15160594
-0.14969748
-0.14778608
-0.14587178
-0.14395463
-0.14203467
-0.14011192
-0.13818645
-0.13625828
-0.13432746
-0.13239402
-0.13045802
-0.12851949
-0.12657846
-0.12463498
-0.12268909
-0.12074083
-0.11879023
-0.11683733
-0.11488217
-0.11292479
-0.11096522
-0.10900351
-0.10703969
-0.10507379
-0.10310586
-0.10113593
-0.099164029
-0.097190207
-0.095214494
-0.093236927
-0.091257541
-0.08927637
-0.087293446
-0.0853088
-0.083322465
-0.08133447
-0.079344848
-0.077353632
-0.075360857
-0.07336656
-0.071370781
-0.069373555
-0.067374922
-0.065374912
-0.063373554
-0.061370873
-0.059366887
-0.057361616
-0.055355076
-0.053347289
-0.051338281
-0.049328081
-0.047316723
-0.045304244
-0.04329068
-0.041276064
-0.039260428
-0.037243797
-0.035226191
-0.033207624
-0.031188109
-0.029167658
-0.027146289
-0.025124021
-0.02310087
-0.021076848
-0.019051959
-0.017026211
-0.014999632
-0.012972317
-0.010944443
-0.0089162063
-0.0068876145
-0.0048583015
-0.0028278902
-0.00079672384
0.0012349526
0.0032673351
0.0053007377
0.0073347579
0.0093689966
0.011403422
0.013438195
0.015473457
0.017509265
0.019545619
0.021582492
0.023619856
0.025657682
0.027695944
0.029734616
0.031773671
0.033813087
0.035852848
0.037892943
0.03993337
0.041974126
0.04401521
0.046056617
0.048098336
0.050140354
0.052182651
0.054225208
0.056268005
0.058311029
0.060354268
0.062397716
0.064441368
0.066485221
0.068529272
0.070573517
0.07261795
0.074662564
0.076707352
0.078752304
0.080797413
0.082842672
0.084888072
0.086933608
0.088979274
0.091025063
0.09307097
0.09511699
0.097163116
0.099209344
0.10125567
0.10330208
0.10534858
0.10739516
0.10944182
0.11148855
0.11353535
0.11558221
0.11762913
0.1196761
0.12172313
0.12377021
0.12581733
0.1278645
0.1299117
0.13195893
0.1340062
0.13605349
0.1381008
0.14014812
0.14219547
0.14424282
0.14629019
0.14833757
0.15038495
0.15243233
0.15447972
0.1565271
0.15857449
0.16062187
0.16266924
0.1647166
0.16676395
0.16881129
0.17085862
0.17290593
0.17495322
0.17700049
0.17904774
0.18109497
0.18314218
0.18518938
0.18723655
0.1892837
0.19133083
0.19337794
0.19542503
0.1974721
0.19951916
0.20156621
0.20361324
0.20566027
0.20770729
0.20975431
0.21180133
0.21384835
0.21589538
0.21794242
0.21998948
0.22203655
0.22408364
0.22613074
0.22817787
0.23022503
0.2322722
0.2343194
0.23636661
0.23841384
0.24046109
0.24250834
0.24455559
0.24660284
0.24865008
0.25069729
0.25274448
0.25479163
0.25683874
0.25888579
0.26093278
0.2629797
0.26502654
0.2670733
0.26911997
0.27116655
0.27321303
0.27525942
0.27730571
0.2793519
0.281398
0.283444
0.28548992
0.28753575
0.28958151
0.2916272
0.29367283
0.2957184
0.29776393
0.29980941
0.30185487
0.3039003
0.30594571
0.30799111
0.31003651
0.31208192
0.31412733
0.31617275
0.31821818
0.32026363
0.3223091
0.32435459
0.3264001
0.32844563
0.33049118
0.33253675
0.33458235
0.33662796
0.33867359
0.34071923
0.34276489
0.34481056
0.34685624
0.34890193
0.35094762
0.35299331
0.35503901
0.35708471
0.35913041
0.3611761
0.36322179
0.36526747
0.36731314
0.36935881
0.37140446
0.3734501
0.37549572
0.37754134
0.37958693
0.38163252
0.38367808
0.38572363
0.38776916
0.38981468
0.39186018
0.39390566
0.39595112
0.39799657
0.400042
0.40208741
0.40413281
0.40617819
0.40822355
0.41026889
0.41231423
0.41435954
0.41640484
0.41845013
0.4204954
0.42254066
0.4245859
0.42663113
0.42867635
0.43072155
0.43276674
0.43481192
0.43685709
0.43890225
0.44094739
0.44299253
0.44503765
0.44708277
0.44912787
0.45117297
0.45321806
0.45526313
0.45730821
0.45935327
0.46139832
0.46344337
0.46548841
0.46753345
0.46957847
0.47162349
0.47366851
0.47571352
0.47775852
0.47980352
0.48184851
0.4838935
0.48593848
0.48798346
0.49002844
0.4920734
0.49411837
0.49616332
0.49820828
0.50025322
0.50229817
0.50434311
0.50638805
0.50843298
0.51047792
0.51252285
0.51456777
0.5166127
0.51865762
0.52070254
0.52274746
0.52479238
0.5268373
0.52888221
0.53092712
0.53297203
0.53501693
0.53706183
0.53910673
0.54115163
0.54319653
0.54524143
0.54728632
0.54933122
0.55137611
0.553421
0.5554659
0.55751078
0.55955567
0.56160055
0.56364544
0.56569032
0.5677352
0.56978008
0.57182495
0.57386983
0.57591471
0.57795959
0.58000446
0.58204934
0.58409421
0.58613908
0.58818394
0.59022881
0.59227367
0.59431853
0.59636339
0.59840825
0.6004531
0.60249796
0.60454281
0.60658766
0.6086325
0.61067735
0.61272219
0.61476702
0.61681186
0.61885669
0.62090152
0.62294635
0.62499117
0.627036
0.62908082
0.63112565
0.63317047
0.63521529
0.6372601
0.63930492
0.64134973
0.64339454
0.64543935
0.64748416
0.64952897
0.65157377
0.65361858
0.65566338
0.65770818
0.65975299
0.66179779
0.66384259
0.66588739
0.66793219
0.669977
0.6720218
0.6740666
0.67611141
0.67815621
0.68020102
0.68224582
0.68429063
0.68633543
0.68838024
0.69042505
0.69246986
0.69451467
0.69655948
0.69860429
0.70064911
0.70269393
0.70473875
0.70678357
0.70882839
0.71087322
0.71291805
0.71496289
0.71700773
0.71905257
0.72109742
0.72314227
0.72518713
0.72723199
0.72927686
0.73132173
0.7333666
0.73541148
0.73745636
0.73950125
0.74154614
0.74359104
0.74563594
0.74768086
0.74972577
0.7517707
0.75381563
0.75586058
0.75790553
0.75995048
0.76199545
0.76404042
0.76608541
0.7681304
0.7701754
0.77222041
0.77426542
0.77631045
0.77835548
0.78040053
0.78244558
0.78449064
0.78653571
0.7885808
0.79062589
0.79267099
0.7947161
0.79676123
0.79880636
0.8008515
0.80289666
0.80494182
0.806987
0.80903219
0.81107739
0.81312261
0.81516783
0.81721307
0.81925833
0.82130359
0.82334887
0.82539417
0.82743948
0.82948481
0.83153015
0.8335755
0.83562087
0.83766625
0.83971164
0.84175704
0.84380246
0.84584789
0.84789333
0.84993878
0.85198425
0.85402974
0.85607523
0.85812075
0.86016627
0.86221181
0.86425736
0.86630292
0.8683485
0.87039409
0.87243969
0.8744853
0.87653092
0.87857656
0.8806222
0.88266787
0.88471354
0.88675923
0.88880493
0.89085064
0.89289637
0.89494211
0.89698786
0.89903362
0.90107939
0.90312518
0.90517097
0.90721677
0.90926259
0.91130841
0.91335424
0.91540008
0.91744594
0.9194918
0.92153767
0.92358355
0.92562944
0.92767534
0.92972125
0.93176717
0.93381309
0.93585903
0.93790497
0.93995092
0.94199687
0.94404283
0.9460888
0.94813477
0.95018075
0.95222673
0.95427272
0.95631871
0.95836471
0.96041071
0.96245671
0.96450272
0.96654873
0.96859475
0.97064077
0.97268678
0.9747328
0.97677882
0.97882484
0.98087086
0.98291687
0.98496289
0.98700891
0.98905492
0.99110094
0.99314695
0.99519295
0.99723895
0.99928494
1.0013309
1.0033769
1.0054229
1.0074688
1.0095148
1.0115607
1.0136066
1.0156526
1.0176985
1.0197444
1.0217903
1.0238362
1.0258821
1.027928
1.0299739
1.0320197
1.0340656
1.0361114
1.0381572
1.040203
1.0422488
1.0442946
1.0463404
1.0483861
1.0504319
1.0524776
1.0545233
1.056569
1.0586147
1.0606603
1.062706
1.0647516
1.0667972
1.0688428
1.0708884
1.072934
1.0749795
1.077025
1.0790705
1.081116
1.0831615
1.085207
1.0872524
1.0892978
1.0913432
1.0933886
1.0954339
1.0974792
1.0995245
1.1015698
1.103615
1.1056602
1.1077054
1.1097505
1.1117957
1.1138408
1.1158859
1.1179309
1.1199759
1.1220209
1.1240659
1.1261108
1.1281557
1.1302006
1.1322454
1.1342903
1.1363351
1.1383799
1.1404246
1.1424693
1.144514
1.1465587
1.1486034