/*--------------------------------*- C++ -*----------------------------------*\
  =========                 |
  \\      /  F ield         | OpenFOAM: The Open Source CFD Toolbox
   \\    /   O peration     | Website:  https://openfoam.org
    \\  /    A nd           | Version:  7
     \\/     M anipulation  |
\*---------------------------------------------------------------------------*/
FoamFile
{
    version     2.0;
    format      ascii;
    class       volScalarField;
    location    "0.00231";
    object      T;
}
// * * * * * * * * * * * * * * * * * * * * * * * * * * * * * * * * * * * * * //

dimensions      [0 0 0 1 0 0 0];

internalField   nonuniform List<scalar> 
5000
(
255.17714
255.19149
255.19797
255.20944
255.2161
255.22751
255.23418
255.2456
255.25227
255.2637
255.27037
255.28181
255.28847
255.29991
255.30658
255.31801
255.32467
255.3361
255.34275
255.35418
255.36082
255.37225
255.37889
255.39031
255.39695
255.40838
255.41502
255.42646
255.4331
255.44455
255.45119
255.46264
255.46928
255.48073
255.48736
255.49881
255.50544
255.51689
255.52351
255.53496
255.54158
255.55302
255.55963
255.57108
255.57768
255.58913
255.59573
255.60718
255.61377
255.62522
255.6318
255.64325
255.64982
255.66127
255.66784
255.67929
255.68585
255.6973
255.70386
255.7153
255.72186
255.7333
255.73985
255.75129
255.75784
255.76928
255.77582
255.78726
255.79379
255.80523
255.81176
255.8232
255.82972
255.84115
255.84767
255.85911
255.86561
255.87705
255.88355
255.895
255.90149
255.91293
255.91942
255.93086
255.93734
255.94878
255.95525
255.96669
255.97316
255.9846
255.99106
256.0025
256.00896
256.0204
256.02685
256.03828
256.04473
256.05617
256.0626
256.07404
256.08047
256.09191
256.09834
256.10977
256.1162
256.12763
256.13405
256.14548
256.15189
256.16333
256.16973
256.18116
256.18756
256.199
256.20538
256.21682
256.2232
256.23464
256.24101
256.25245
256.25882
256.27026
256.27662
256.28806
256.29441
256.30585
256.3122
256.32364
256.32998
256.34142
256.34776
256.35919
256.36553
256.37696
256.38329
256.39472
256.40104
256.41248
256.41879
256.43023
256.43653
256.44797
256.45427
256.46571
256.472
256.48344
256.48972
256.50116
256.50744
256.51888
256.52515
256.53659
256.54285
256.55429
256.56055
256.57199
256.57824
256.58968
256.59592
256.60736
256.61359
256.62504
256.63127
256.64271
256.64894
256.66037
256.66661
256.67804
256.68426
256.69572
256.7019
256.71338
256.71956
256.73103
256.73724
256.74865
256.75491
256.7663
256.77255
256.78397
256.79015
256.80167
256.80774
256.81935
256.82536
256.83697
256.84305
256.85449
256.86083
256.87192
256.87868
256.8893
256.89655
256.90665
256.9144
256.92403
256.93221
256.94146
256.94995
256.95893
256.96764
256.97645
256.98528
256.99399
257.00289
257.01155
257.02047
257.02912
257.03804
257.04668
257.0556
257.06424
257.07315
257.0818
257.0907
257.09934
257.10824
257.11688
257.12578
257.13442
257.14331
257.15195
257.16083
257.16947
257.17835
257.18699
257.19586
257.2045
257.21337
257.222
257.23087
257.2395
257.24837
257.25699
257.26587
257.27447
257.28335
257.29196
257.30082
257.30944
257.31829
257.32692
257.33574
257.34439
257.35319
257.36186
257.37063
257.37933
257.38807
257.39678
257.4055
257.41423
257.42293
257.43167
257.44035
257.4491
257.45778
257.46653
257.47519
257.48394
257.4926
257.50135
257.51001
257.51876
257.52741
257.53616
257.54481
257.55355
257.5622
257.57094
257.57958
257.58832
257.59696
257.60569
257.61433
257.62306
257.63169
257.64043
257.64905
257.65778
257.66641
257.67513
257.68376
257.69248
257.7011
257.70982
257.71844
257.72715
257.73577
257.74448
257.75309
257.7618
257.77041
257.77912
257.78772
257.79643
257.80503
257.81373
257.82233
257.83103
257.83962
257.84832
257.85691
257.8656
257.8742
257.88289
257.89147
257.90016
257.90875
257.91743
257.92602
257.9347
257.94328
257.95196
257.96054
257.96922
257.9778
257.98648
257.99506
258.00373
258.01231
258.02099
258.02956
258.03823
258.0468
258.05548
258.06405
258.07272
258.08129
258.08995
258.09852
258.10719
258.11575
258.12441
258.13298
258.14164
258.1502
258.15886
258.16741
258.17607
258.18463
258.19328
258.20183
258.21048
258.21903
258.22768
258.23623
258.24487
258.25342
258.26206
258.2706
258.27924
258.28778
258.29642
258.30496
258.31359
258.32212
258.33076
258.33929
258.34792
258.35644
258.36507
258.37359
258.38222
258.39074
258.39936
258.40788
258.4165
258.42501
258.43363
258.44214
258.45076
258.45927
258.46788
258.47638
258.485
258.4935
258.50211
258.5106
258.51921
258.5277
258.53631
258.5448
258.5534
258.56189
258.57049
258.57898
258.58757
258.59606
258.60465
258.61313
258.62172
258.6302
258.63879
258.64726
258.65585
258.66432
258.67291
258.68137
258.68995
258.69842
258.70699
258.71546
258.72403
258.7325
258.74106
258.74954
258.75808
258.76656
258.7751
258.78359
258.79211
258.8006
258.80912
258.81761
258.82612
258.83462
258.84312
258.85162
258.86012
258.86861
258.87711
258.8856
258.89409
258.90258
258.91107
258.91955
258.92804
258.93652
258.94501
258.95349
258.96197
258.97045
258.97893
258.9874
258.99588
259.00435
259.01282
259.02129
259.02976
259.03823
259.0467
259.05516
259.06362
259.07209
259.08055
259.08901
259.09747
259.10592
259.11438
259.12283
259.13129
259.13974
259.14819
259.15664
259.16509
259.17353
259.18198
259.19042
259.19887
259.20731
259.21575
259.22419
259.23263
259.24107
259.24951
259.25794
259.26638
259.27482
259.28325
259.29168
259.30012
259.30855
259.31698
259.32541
259.33384
259.34226
259.35069
259.35912
259.36754
259.37597
259.38439
259.39281
259.40124
259.40966
259.41808
259.42649
259.43491
259.44333
259.45174
259.46016
259.46857
259.47698
259.4854
259.49381
259.50221
259.51062
259.51903
259.52743
259.53584
259.54424
259.55264
259.56104
259.56944
259.57784
259.58623
259.59463
259.60302
259.61142
259.61981
259.6282
259.63659
259.64497
259.65336
259.66174
259.67013
259.67851
259.68689
259.69527
259.70365
259.71202
259.7204
259.72878
259.73715
259.74552
259.75389
259.76226
259.77063
259.77899
259.78736
259.79572
259.80409
259.81245
259.82081
259.82917
259.83753
259.84588
259.85424
259.86259
259.87094
259.87929
259.88764
259.89599
259.90434
259.91269
259.92103
259.92937
259.93772
259.94606
259.9544
259.96274
259.97107
259.97941
259.98774
259.99608
260.00441
260.01274
260.02107
260.0294
260.03772
260.04605
260.05437
260.0627
260.07102
260.07934
260.08766
260.09598
260.10429
260.11261
260.12092
260.12924
260.13755
260.14586
260.15417
260.16247
260.17078
260.17909
260.18739
260.19569
260.20399
260.2123
260.22059
260.22889
260.23719
260.24548
260.25378
260.26207
260.27036
260.27865
260.28694
260.29523
260.30351
260.3118
260.32008
260.32836
260.33664
260.34492
260.3532
260.36148
260.36975
260.37803
260.3863
260.39457
260.40284
260.41111
260.41938
260.42765
260.43591
260.44418
260.45244
260.46071
260.46897
260.47723
260.48549
260.49375
260.502
260.51026
260.51851
260.52677
260.53502
260.54327
260.55153
260.55978
260.56803
260.57628
260.58452
260.59277
260.60102
260.60926
260.61751
260.62575
260.63399
260.64223
260.65048
260.65872
260.66696
260.67519
260.68343
260.69167
260.6999
260.70814
260.71637
260.72461
260.73284
260.74107
260.7493
260.75753
260.76576
260.77399
260.78221
260.79044
260.79866
260.80688
260.81511
260.82333
260.83155
260.83977
260.84798
260.8562
260.86442
260.87263
260.88084
260.88906
260.89727
260.90548
260.91369
260.92189
260.9301
260.9383
260.94651
260.95471
260.96291
260.97111
260.97931
260.98751
260.99571
261.0039
261.0121
261.02029
261.02848
261.03667
261.04486
261.05305
261.06124
261.06942
261.07761
261.08579
261.09397
261.10215
261.11033
261.11851
261.12669
261.13486
261.14304
261.15121
261.15939
261.16756
261.17573
261.1839
261.19206
261.20023
261.20839
261.21656
261.22472
261.23288
261.24104
261.2492
261.25736
261.26552
261.27367
261.28183
261.28998
261.29813
261.30628
261.31443
261.32258
261.33073
261.33887
261.34702
261.35516
261.36331
261.37145
261.37959
261.38773
261.39586
261.404
261.41213
261.42027
261.4284
261.43653
261.44466
261.45279
261.46092
261.46905
261.47717
261.4853
261.49342
261.50154
261.50966
261.51778
261.5259
261.53402
261.54214
261.55025
261.55836
261.56648
261.57459
261.5827
261.59081
261.59892
261.60702
261.61513
261.62323
261.63134
261.63944
261.64754
261.65564
261.66374
261.67184
261.67993
261.68803
261.69612
261.70422
261.71231
261.7204
261.72849
261.73659
261.74467
261.75276
261.76085
261.76894
261.77702
261.78511
261.79319
261.80127
261.80936
261.81744
261.82552
261.8336
261.84168
261.84976
261.85783
261.86591
261.87399
261.88206
261.89013
261.89821
261.90628
261.91435
261.92242
261.93049
261.93856
261.94663
261.95469
261.96276
261.97083
261.97889
261.98695
261.99502
262.00308
262.01114
262.0192
262.02726
262.03531
262.04337
262.05143
262.05948
262.06753
262.07559
262.08364
262.09169
262.09974
262.10779
262.11583
262.12388
262.13192
262.13997
262.14801
262.15605
262.1641
262.17214
262.18017
262.18821
262.19625
262.20428
262.21232
262.22035
262.22838
262.23641
262.24444
262.25247
262.2605
262.26853
262.27655
262.28458
262.2926
262.30062
262.30864
262.31666
262.32468
262.3327
262.34071
262.34873
262.35674
262.36476
262.37277
262.38078
262.38879
262.39679
262.4048
262.41281
262.42081
262.42881
262.43681
262.44482
262.45282
262.46081
262.46881
262.47681
262.4848
262.49279
262.50079
262.50878
262.51676
262.52475
262.53274
262.54073
262.54871
262.5567
262.56468
262.57266
262.58064
262.58861
262.59659
262.60456
262.61253
262.6205
262.62848
262.63644
262.64441
262.65238
262.66034
262.66831
262.67627
262.68423
262.69219
262.70015
262.7081
262.71606
262.72401
262.73196
262.73991
262.74785
262.7558
262.76374
262.77168
262.77962
262.78756
262.79549
262.80343
262.81136
262.81929
262.82722
262.83514
262.84306
262.85098
262.8589
262.86682
262.87473
262.88264
262.89055
262.89846
262.90636
262.91427
262.92217
262.93006
262.93796
262.94585
262.95374
262.96163
262.96951
262.97739
262.98527
262.99315
263.00102
263.00889
263.01675
263.02462
263.03248
263.04034
263.04819
263.05604
263.06389
263.07173
263.07957
263.0874
263.09524
263.10306
263.11089
263.11871
263.12653
263.13434
263.14215
263.14995
263.15775
263.16554
263.17333
263.18112
263.1889
263.19667
263.20445
263.21221
263.21997
263.22772
263.23547
263.24321
263.25095
263.25868
263.26641
263.27413
263.28184
263.28955
263.29725
263.30494
263.31263
263.3203
263.32797
263.33564
263.34329
263.35094
263.35858
263.36622
263.37384
263.38145
263.38906
263.39665
263.40424
263.41182
263.41939
263.42695
263.4345
263.44204
263.44956
263.45708
263.46459
263.47209
263.47957
263.48705
263.49451
263.50196
263.5094
263.51682
263.52424
263.53164
263.53903
263.5464
263.55376
263.56112
263.56845
263.57577
263.58308
263.59036
263.59764
263.6049
263.61215
263.61938
263.62659
263.63379
263.64097
263.64814
263.65529
263.66242
263.66953
263.67662
263.6837
263.69076
263.69781
263.70483
263.71183
263.71882
263.72578
263.73273
263.73965
263.74656
263.75345
263.76031
263.76715
263.77397
263.78078
263.78755
263.79431
263.80104
263.80775
263.81444
263.82111
263.82775
263.83437
263.84096
263.84753
263.85408
263.8606
263.8671
263.87357
263.88001
263.88643
263.89283
263.89919
263.90553
263.91185
263.91814
263.9244
263.93063
263.93684
263.94302
263.94917
263.9553
263.96139
263.96746
263.97349
263.9795
263.98548
263.99143
263.99735
264.00324
264.0091
264.01493
264.02073
264.0265
264.03224
264.03795
264.04363
264.04927
264.05489
264.06047
264.06602
264.07154
264.07703
264.08249
264.08791
264.09331
264.09867
264.104
264.10929
264.11456
264.11979
264.12498
264.13015
264.13528
264.14038
264.14545
264.15048
264.15548
264.16044
264.16537
264.17027
264.17514
264.17997
264.18477
264.18953
264.19426
264.19896
264.20362
264.20825
264.21285
264.21742
264.22194
264.22645
264.2309
264.23534
264.23973
264.24409
264.24842
264.25272
264.25698
264.26121
264.2654
264.26957
264.2737
264.2778
264.28186
264.28589
264.28988
264.29385
264.29779
264.30169
264.30556
264.3094
264.31321
264.31698
264.32072
264.32443
264.32811
264.33175
264.33537
264.33895
264.34251
264.34603
264.34953
264.35299
264.35642
264.35982
264.3632
264.36654
264.36985
264.37314
264.37639
264.37961
264.38281
264.38598
264.38911
264.39223
264.39531
264.39836
264.40139
264.40439
264.40735
264.4103
264.41322
264.41611
264.41897
264.42181
264.42462
264.42741
264.43017
264.43291
264.43562
264.4383
264.44096
264.4436
264.44621
264.44879
264.45136
264.4539
264.45642
264.45891
264.46138
264.46382
264.46625
264.46865
264.47104
264.47339
264.47573
264.47804
264.48034
264.48261
264.48487
264.4871
264.48931
264.4915
264.49367
264.49583
264.49796
264.50007
264.50217
264.50424
264.5063
264.50834
264.51036
264.51237
264.51436
264.51633
264.51828
264.52022
264.52213
264.52404
264.52592
264.52779
264.52965
264.53149
264.53331
264.53512
264.53691
264.53869
264.54046
264.54221
264.54395
264.54567
264.54738
264.54908
264.55076
264.55243
264.55409
264.55573
264.55736
264.55898
264.56059
264.56219
264.56377
264.56535
264.56691
264.56846
264.57
264.57153
264.57305
264.57456
264.57606
264.57755
264.57903
264.5805
264.58196
264.58341
264.58485
264.58629
264.58771
264.58913
264.59054
264.59194
264.59333
264.59471
264.59609
264.59746
264.59883
264.60018
264.60153
264.60287
264.60421
264.60553
264.60686
264.60817
264.60949
264.61079
264.61209
264.61338
264.61467
264.61595
264.61723
264.61851
264.61978
264.62104
264.6223
264.62356
264.62481
264.62606
264.62731
264.62855
264.62978
264.63102
264.63225
264.63348
264.63471
264.63593
264.63715
264.63837
264.63959
264.6408
264.64202
264.64323
264.64444
264.64565
264.64685
264.64806
264.64926
264.65046
264.65167
264.65287
264.65407
264.65527
264.65648
264.65768
264.65888
264.66008
264.66128
264.66248
264.66369
264.66489
264.66609
264.6673
264.6685
264.66971
264.67092
264.67212
264.67334
264.67455
264.67576
264.67698
264.67819
264.67941
264.68063
264.68186
264.68309
264.68431
264.68554
264.68677
264.68801
264.68925
264.69049
264.69173
264.69298
264.69423
264.69548
264.69674
264.69799
264.69925
264.70052
264.70178
264.70306
264.70433
264.70562
264.7069
264.70818
264.70947
264.71076
264.71207
264.71336
264.71467
264.71598
264.71729
264.71861
264.71993
264.72126
264.72258
264.72392
264.72525
264.7266
264.72794
264.72929
264.73065
264.732
264.73338
264.73474
264.73612
264.73749
264.73888
264.74026
264.74165
264.74304
264.74445
264.74585
264.74726
264.74867
264.75009
264.75151
264.75295
264.75437
264.75582
264.75725
264.7587
264.76014
264.76161
264.76306
264.76453
264.766
264.76747
264.76895
264.77043
264.77192
264.77341
264.7749
264.7764
264.77791
264.77942
264.78093
264.78245
264.78397
264.7855
264.78703
264.78856
264.7901
264.79165
264.79319
264.79474
264.7963
264.79786
264.79942
264.80099
264.80256
264.80414
264.80571
264.8073
264.80888
264.81047
264.81206
264.81366
264.81526
264.81686
264.81847
264.82008
264.82169
264.82331
264.82493
264.82655
264.82818
264.8298
264.83144
264.83307
264.83471
264.83635
264.83799
264.83963
264.84128
264.84293
264.84458
264.84624
264.84789
264.84955
264.85121
264.85287
264.85454
264.85621
264.85787
264.85954
264.86121
264.86289
264.86456
264.86624
264.86792
264.8696
264.87128
264.87296
264.87464
264.87633
264.87801
264.8797
264.88139
264.88308
264.88477
264.88646
264.88815
264.88984
264.89153
264.89323
264.89492
264.89661
264.89831
264.90001
264.9017
264.9034
264.90509
264.90679
264.90849
264.91018
264.91188
264.91358
264.91527
264.91697
264.91867
264.92036
264.92206
264.92376
264.92545
264.92715
264.92884
264.93054
264.93223
264.93393
264.93562
264.93731
264.939
264.9407
264.94239
264.94408
264.94576
264.94745
264.94914
264.95083
264.95251
264.9542
264.95588
264.95757
264.95925
264.96093
264.96261
264.96429
264.96597
264.96765
264.96932
264.971
264.97267
264.97434
264.97601
264.97768
264.97935
264.98102
264.98269
264.98435
264.98602
264.98768
264.98934
264.991
264.99266
264.99432
264.99597
264.99762
264.99928
265.00093
265.00258
265.00423
265.00587
265.00752
265.00916
265.01081
265.01245
265.01409
265.01572
265.01736
265.019
265.02063
265.02226
265.02389
265.02552
265.02715
265.02877
265.0304
265.03202
265.03364
265.03526
265.03688
265.0385
265.04011
265.04172
265.04334
265.04494
265.04655
265.04816
265.04976
265.05137
265.05297
265.05457
265.05617
265.05776
265.05936
265.06095
265.06255
265.06414
265.06573
265.06731
265.0689
265.07048
265.07206
265.07365
265.07522
265.0768
265.07838
265.07995
265.08152
265.08309
265.08466
265.08622
265.08779
265.08935
265.09091
265.09247
265.09403
265.09559
265.09714
265.09869
265.10025
265.10179
265.10334
265.10489
265.10643
265.10797
265.10951
265.11105
265.11259
265.11413
265.11566
265.11719
265.11872
265.12025
265.12178
265.12331
265.12483
265.12635
265.12787
265.12939
265.1309
265.13242
265.13393
265.13544
265.13695
265.13846
265.13996
265.14146
265.14296
265.14446
265.14596
265.14746
265.14895
265.15045
265.15194
265.15343
265.15492
265.1564
265.15789
265.15937
265.16085
265.16233
265.16381
265.16528
265.16675
265.16822
265.16969
265.17116
265.17262
265.17409
265.17555
265.17701
265.17846
265.17992
265.18137
265.18282
265.18427
265.18572
265.18717
265.18861
265.19006
265.1915
265.19294
265.19438
265.19581
265.19724
265.19868
265.2001
265.20153
265.20296
265.20438
265.2058
265.20722
265.20864
265.21006
265.21147
265.21289
265.2143
265.2157
265.21711
265.21851
265.21991
265.22131
265.22271
265.22411
265.2255
265.2269
265.22829
265.22968
265.23107
265.23246
265.23384
265.23522
265.2366
265.23798
265.23936
265.24073
265.2421
265.24348
265.24484
265.24621
265.24758
265.24894
265.25031
265.25167
265.25302
265.25438
265.25574
265.25709
265.25844
265.25979
265.26114
265.26248
265.26383
265.26517
265.26651
265.26785
265.26918
265.27052
265.27185
265.27318
265.27451
265.27584
265.27717
265.27849
265.27981
265.28113
265.28245
265.28377
265.28508
265.28639
265.28771
265.28902
265.29033
265.29163
265.29294
265.29424
265.29554
265.29684
265.29814
265.29943
265.30073
265.30202
265.30331
265.30459
265.30588
265.30717
265.30845
265.30973
265.31102
265.31229
265.31357
265.31484
265.31611
265.31738
265.31865
265.31992
265.32118
265.32245
265.32371
265.32497
265.32623
265.32749
265.32874
265.33
265.33125
265.3325
265.33375
265.33499
265.33624
265.33748
265.33872
265.33996
265.3412
265.34243
265.34367
265.3449
265.34613
265.34736
265.34858
265.34981
265.35103
265.35226
265.35348
265.3547
265.35591
265.35713
265.35834
265.35956
265.36077
265.36197
265.36318
265.36439
265.36559
265.36679
265.36799
265.36919
265.37039
265.37158
265.37278
265.37397
265.37516
265.37635
265.37753
265.37872
265.3799
265.38108
265.38226
265.38344
265.38462
265.38579
265.38697
265.38814
265.38931
265.39048
265.39165
265.39281
265.39398
265.39514
265.3963
265.39746
265.39862
265.39977
265.40092
265.40208
265.40323
265.40438
265.40553
265.40667
265.40781
265.40896
265.4101
265.41124
265.41238
265.41351
265.41465
265.41578
265.41691
265.41804
265.41917
265.4203
265.42142
265.42255
265.42367
265.42479
265.42591
265.42702
265.42814
265.42925
265.43037
265.43148
265.43259
265.43369
265.4348
265.4359
265.43701
265.43811
265.43921
265.44031
265.4414
265.4425
265.4436
265.44469
265.44578
265.44687
265.44796
265.44904
265.45012
265.45121
265.45228
265.45336
265.45444
265.45552
265.45659
265.45766
265.45873
265.4598
265.46087
265.46194
265.463
265.46407
265.46513
265.46619
265.46725
265.4683
265.46936
265.47042
265.47147
265.47252
265.47357
265.47461
265.47566
265.4767
265.47774
265.47878
265.47982
265.48086
265.48189
265.48293
265.48396
265.48499
265.48602
265.48705
265.48807
265.4891
265.49012
265.49114
265.49216
265.49318
265.4942
265.49521
265.49623
265.49724
265.49825
265.49925
265.50026
265.50126
265.50227
265.50327
265.50427
265.50527
265.50627
265.50726
265.50826
265.50925
265.51024
265.51123
265.51222
265.5132
265.51418
265.51516
265.51615
265.51712
265.5181
265.51908
265.52005
265.52102
265.522
265.52297
265.52393
265.5249
265.52587
265.52683
265.52779
265.52875
265.52971
265.53067
265.53162
265.53258
265.53353
265.53448
265.53543
265.53638
265.53733
265.53827
265.53922
265.54016
265.5411
265.54204
265.54298
265.54391
265.54485
265.54578
265.54671
265.54764
265.54857
265.54949
265.55042
265.55134
265.55226
265.55318
265.5541
265.55502
265.55594
265.55685
265.55776
265.55867
265.55958
265.56049
265.56139
265.5623
265.5632
265.5641
265.565
265.5659
265.5668
265.5677
265.56859
265.56948
265.57037
265.57126
265.57215
265.57303
265.57392
265.5748
265.57568
265.57656
265.57744
265.57832
265.57919
265.58007
265.58094
265.58181
265.58268
265.58354
265.58441
265.58527
265.58613
265.587
265.58785
265.58871
265.58957
265.59042
265.59128
265.59213
265.59298
265.59383
265.59467
265.59552
265.59636
265.5972
265.59804
265.59888
265.59972
265.60055
265.60138
265.60222
265.60305
265.60387
265.6047
265.60553
265.60635
265.60717
265.60799
265.60881
265.60962
265.61044
265.61125
265.61206
265.61287
265.61368
265.61449
265.61529
265.6161
265.6169
265.6177
265.6185
265.6193
265.62009
265.62088
265.62168
265.62246
265.62325
265.62404
265.62482
265.6256
265.62638
265.62716
265.62794
265.62871
265.62948
265.63026
265.63102
265.63179
265.63256
265.63332
265.63408
265.63484
265.6356
265.63635
265.63711
265.63786
265.63861
265.63936
265.64011
265.64086
265.6416
265.64234
265.64308
265.64382
265.64456
265.64529
265.64602
265.64675
265.64748
265.6482
265.64893
265.64965
265.65037
265.65109
265.6518
265.65252
265.65323
265.65394
265.65465
265.65535
265.65606
265.65676
265.65747
265.65816
265.65886
265.65956
265.66025
265.66094
265.66163
265.66232
265.663
265.66369
265.66436
265.66504
265.66572
265.66641
265.66709
265.66775
265.66842
265.66909
265.66975
265.67042
265.67108
265.67174
265.6724
265.67305
265.67371
265.67436
265.67501
265.67566
265.67631
265.67696
265.6776
265.67824
265.67888
265.67952
265.68016
265.68079
265.68143
265.68206
265.68269
265.68331
265.68394
265.68456
265.68518
265.6858
265.68642
265.68704
265.68765
265.68826
265.68887
265.68948
265.69009
265.6907
265.6913
265.6919
265.6925
265.6931
265.69369
265.69429
265.69488
265.69547
265.69606
265.69665
265.69723
265.69782
265.6984
265.69898
265.69956
265.70014
265.70071
265.70128
265.70185
265.70242
265.70299
265.70355
265.70412
265.70468
265.70524
265.7058
265.70635
265.70691
265.70746
265.70801
265.70856
265.70911
265.70965
265.71019
265.71074
265.71128
265.71181
265.71235
265.71288
265.71342
265.71395
265.71448
265.715
265.71553
265.71605
265.71657
265.71709
265.7176
265.71812
265.71863
265.71914
265.71965
265.72016
265.72066
265.72117
265.72167
265.72217
265.72266
265.72316
265.72365
265.72415
265.72464
265.72513
265.72561
265.7261
265.72658
265.72706
265.72753
265.72801
265.72848
265.72895
265.72942
265.72988
265.73035
265.73081
265.73127
265.73173
265.73218
265.73264
265.73309
265.73355
265.734
265.73444
265.73489
265.73533
265.73578
265.73621
265.73665
265.73709
265.73752
265.73795
265.73837
265.7388
265.73922
265.73964
265.74006
265.74047
265.74089
265.7413
265.74171
265.74212
265.74253
265.74293
265.74333
265.74373
265.74413
265.74453
265.74492
265.74532
265.7457
265.7461
265.74648
265.74686
265.74724
265.74762
265.748
265.74837
265.74874
265.74911
265.74948
265.74985
265.75021
265.75057
265.75093
265.75129
265.75165
265.752
265.75235
265.7527
265.75305
265.75339
265.75374
265.75408
265.75442
265.75476
265.75509
265.75542
265.75576
265.75608
265.75641
265.75673
265.75706
265.75738
265.75769
265.75801
265.75832
265.75864
265.75895
265.75926
265.75956
265.75987
265.76017
265.76047
265.76077
265.76106
265.76136
265.76165
265.76194
265.76223
265.76251
265.7628
265.76308
265.76336
265.76364
265.76392
265.76419
265.76446
265.76473
265.765
265.76527
265.76553
265.7658
265.76606
265.76632
265.76657
265.76683
265.76708
265.76733
265.76758
265.76783
265.76807
265.76832
265.76856
265.7688
265.76904
265.76928
265.76951
265.76975
265.76998
265.77021
265.77044
265.77067
265.77089
265.77111
265.77133
265.77155
265.77177
265.77198
265.7722
265.77241
265.77261
265.77282
265.77302
265.77323
265.77343
265.77363
265.77383
265.77403
265.77422
265.77441
265.77461
265.7748
265.77498
265.77517
265.77535
265.77553
265.77571
265.77589
265.77607
265.77624
265.77642
265.77659
265.77676
265.77693
265.7771
265.77726
265.77742
265.77758
265.77774
265.77789
265.77805
265.7782
265.77835
265.7785
265.77865
265.77879
265.77894
265.77908
265.77922
265.77936
265.77949
265.77963
265.77976
265.77989
265.78002
265.78014
265.78027
265.78039
265.78051
265.78063
265.78075
265.78087
265.78098
265.78109
265.7812
265.78131
265.78142
265.78152
265.78162
265.78172
265.78182
265.78191
265.78201
265.7821
265.78219
265.78228
265.78237
265.78245
265.78253
265.78262
265.7827
265.78277
265.78285
265.78292
265.78299
265.78306
265.78313
265.7832
265.78326
265.78332
265.78338
265.78344
265.78349
265.78355
265.7836
265.78365
265.7837
265.78374
265.78379
265.78383
265.78387
265.78391
265.78395
265.78399
265.78402
265.78405
265.78408
265.78411
265.78414
265.78416
265.78419
265.78421
265.78423
265.78424
265.78426
265.78427
265.78428
265.78429
265.7843
265.7843
265.78431
265.78431
265.78431
265.78431
265.78431
265.7843
265.7843
265.78429
265.78428
265.78427
265.78426
265.78425
265.78423
265.78421
265.78419
265.78417
265.78415
265.78412
265.78409
265.78407
265.78403
265.784
265.78397
265.78393
265.7839
265.78386
265.78382
265.78378
265.78374
265.78369
265.78365
265.7836
265.78355
265.7835
265.78345
265.7834
265.78335
265.78329
265.78323
265.78318
265.78312
265.78306
265.783
265.78294
265.78287
265.78281
265.78274
265.78267
265.7826
265.78253
265.78245
265.78238
265.7823
265.78222
265.78214
265.78205
265.78197
265.78188
265.7818
265.78171
265.78162
265.78153
265.78144
265.78134
265.78125
265.78115
265.78105
265.78096
265.78085
265.78075
265.78065
265.78054
265.78044
265.78033
265.78022
265.78011
265.78
265.77988
265.77977
265.77966
265.77954
265.77942
265.7793
265.77918
265.77906
265.77893
265.77881
265.77867
265.77855
265.77841
265.77828
265.77815
265.77801
265.77787
265.77773
265.77759
265.77745
265.7773
265.77716
265.77701
265.77686
265.77671
265.77656
265.77641
265.77625
265.7761
265.77594
265.77577
265.77561
265.77545
265.77528
265.77511
265.77494
265.77477
265.7746
265.77443
265.77425
265.77408
265.7739
265.77372
265.77353
265.77336
265.77316
265.77299
265.77278
265.7726
265.7724
265.77221
265.77202
265.7718
265.77162
265.7714
265.77121
265.771
265.77079
265.77059
265.77037
265.77016
265.76995
265.76972
265.76951
265.76928
265.76905
265.76884
265.7686
265.76837
265.76815
265.76791
265.76769
265.76746
265.76721
265.76698
265.76674
265.76649
265.76625
265.76601
265.76576
265.76551
265.76526
265.765
265.76475
265.76449
265.76423
265.76397
265.76371
265.76345
265.76318
265.76292
265.76265
265.76237
265.76211
265.76183
265.76155
265.76128
265.76101
265.76072
265.76044
265.76016
265.75988
265.75959
265.75931
265.75902
265.75873
265.75844
265.75815
265.75785
265.75755
265.75726
265.75696
265.75665
265.75635
265.75605
265.75574
265.75543
265.75512
265.75481
265.7545
265.75419
265.75387
265.75356
265.75325
265.75293
265.75262
265.75231
265.75199
265.75167
265.75135
265.75104
265.75072
265.7504
265.75008
265.74976
265.74944
265.74912
265.74879
265.74846
265.74814
265.74781
265.74748
265.74714
265.74681
265.74648
265.74614
265.7458
265.74546
265.74513
265.74479
265.74444
265.74409
265.74374
265.7434
265.74305
265.7427
265.74233
265.74196
265.7416
265.74124
265.74087
265.74049
265.7401
265.73971
265.73933
265.73893
265.73852
265.73808
265.73766
265.73724
265.73683
265.73641
265.73596
265.73549
265.73503
265.73458
265.73412
265.73364
265.73314
265.73262
265.73211
265.73162
265.73114
265.73065
265.73014
265.7296
265.72904
265.7285
265.72798
265.72747
265.72696
265.72641
265.72585
265.72529
265.72477
265.7243
265.72387
265.72344
265.72299
265.72251
265.72203
265.72158
265.72119
265.72086
265.72055
265.72022
265.71985
265.71944
265.71902
265.71863
265.7183
265.71803
265.7178
265.71757
265.71729
265.71695
265.71655
265.71611
265.71566
265.71525
265.71488
265.71456
265.71427
265.71398
265.71364
265.71325
265.71278
265.71222
265.71158
265.71088
265.71014
265.70942
265.70874
265.70815
265.70768
265.70734
265.70713
265.70702
265.70698
265.70697
265.70699
265.70712
265.70763
265.70926
265.71405
265.72777
265.76687
265.87846
266.19833
266.86324
267.62103
268.43182
269.27847
270.14495
271.0156
271.87588
272.71289
273.51562
274.27514
274.98468
275.63958
276.23711
276.77632
277.25773
277.68315
278.05534
278.37781
278.65459
278.88997
279.08838
279.25419
279.3916
279.50454
279.59662
279.6711
279.73086
279.77842
279.81593
279.84523
279.86787
279.88516
279.89817
279.90779
279.91475
279.91966
279.92298
279.92513
279.9264
279.92705
279.9273
279.92733
279.92727
279.92694
279.92589
279.92444
279.92307
279.92176
279.92052
279.91931
279.91815
279.91701
279.91591
279.91483
279.91376
279.91272
279.91169
279.91068
279.90967
279.90868
279.90769
279.9067
279.90571
279.90472
279.90373
279.90273
279.90172
279.9007
279.89966
279.89862
279.89756
279.89648
279.89539
279.89429
279.89317
279.89205
279.89091
279.88977
279.88862
279.88746
279.8863
279.88515
279.88399
279.88284
279.88169
279.88055
279.87941
279.87828
279.87716
279.87605
279.87495
279.87386
279.87278
279.87171
279.87065
279.8696
279.86856
279.86752
279.8665
279.86549
279.86448
279.86348
279.86249
279.86151
279.86053
279.85955
279.85858
279.85761
279.85665
279.85569
279.85473
279.85377
279.85282
279.85186
279.85091
279.84997
279.84902
279.84807
279.84713
279.84618
279.84524
279.84429
279.84335
279.84241
279.84147
279.84052
279.83958
279.83864
279.83769
279.83675
279.8358
279.83486
279.83391
279.83297
279.83202
279.83107
279.83012
279.82917
279.82822
279.82727
279.82631
279.82536
279.82441
279.82345
279.8225
279.82154
279.82059
279.81963
279.81867
279.81771
279.81675
279.81579
279.81482
279.81386
279.81289
279.81192
279.81095
279.80998
279.80901
279.80803
279.80706
279.80608
279.8051
279.80412
279.80314
279.80215
279.80117
279.80018
279.79919
279.79821
279.79721
279.79622
279.79523
279.79423
279.79324
279.79224
279.79124
279.79024
279.78924
279.78823
279.78723
279.78622
279.78521
279.7842
279.78318
279.78217
279.78115
279.78014
279.77912
279.77809
279.77707
279.77604