/*--------------------------------*- C++ -*----------------------------------*\
  =========                 |
  \\      /  F ield         | OpenFOAM: The Open Source CFD Toolbox
   \\    /   O peration     | Website:  https://openfoam.org
    \\  /    A nd           | Version:  7
     \\/     M anipulation  |
\*---------------------------------------------------------------------------*/
FoamFile
{
    version     2.0;
    format      ascii;
    class       volScalarField;
    location    "0.00101";
    object      Ux;
}
// * * * * * * * * * * * * * * * * * * * * * * * * * * * * * * * * * * * * * //

dimensions      [0 1 -1 0 0 0 0];

internalField   nonuniform List<scalar> 
5000
(
2.7224583e-13
2.3390434e-13
-2.4031052e-14
9.9264493e-14
2.7708762e-13
3.7271124e-13
4.4900535e-13
3.6867834e-13
5.5092643e-13
5.5077618e-13
2.1123569e-13
2.0385673e-13
2.1428835e-13
2.0983268e-13
1.6907624e-13
3.2884025e-13
2.8458844e-13
7.9887209e-14
2.2307989e-13
6.7790111e-13
8.8042348e-13
6.9501378e-13
4.2310869e-13
3.7256171e-13
1.9939923e-14
8.9354658e-14
1.2718107e-13
1.5111111e-13
3.2011912e-13
4.380607e-13
1.7315324e-13
2.5765684e-13
3.8061601e-13
1.7957972e-13
1.9477774e-13
4.9576394e-13
4.7479417e-13
3.5720913e-13
4.1385443e-13
3.4515975e-13
4.4300337e-13
2.560339e-13
3.8193989e-13
1.3506562e-13
2.7842352e-13
1.8371173e-13
3.1367943e-13
2.6422179e-13
1.2871874e-13
-1.0301599e-13
-4.8985244e-14
1.8671075e-14
-2.466056e-13
-1.9200834e-13
-3.7020397e-13
-1.8654953e-13
-1.6205404e-13
2.1728638e-13
-2.2362999e-14
-2.1511014e-13
-3.4889305e-13
-3.3093085e-13
-5.3735595e-13
-4.6371212e-13
-4.9321486e-13
-3.5350359e-13
-2.0115572e-13
-3.3304699e-13
-4.3979037e-14
9.4440871e-14
-1.3855535e-13
-2.1897926e-13
-7.0164096e-14
-1.23688e-13
-2.5781519e-13
-5.4535387e-13
-6.1303385e-13
-6.3432732e-13
-5.5049441e-13
-7.2581614e-13
-8.2133586e-13
-8.0004497e-13
-9.3590616e-13
-7.0355795e-13
-6.0838592e-13
-5.6361798e-13
-5.270839e-13
-6.5124173e-13
-7.1733595e-13
-6.0081686e-13
-5.8368063e-13
-4.9082173e-13
-5.7073213e-13
-5.6795944e-13
-4.3781854e-13
-2.2358113e-13
-1.2669728e-13
-2.6651762e-13
-3.2862169e-13
-2.7653774e-13
-1.100704e-13
-2.5492568e-13
-2.1140117e-13
-2.8622008e-13
-1.3343768e-13
4.4515014e-14
-2.5002025e-14
-4.3029236e-14
-1.2119031e-13
-2.1673273e-13
-1.2577705e-13
-3.7552634e-13
-4.1701685e-13
-5.0007119e-13
-3.9797309e-13
-3.3216095e-13
-2.0625224e-14
-1.2634168e-13
-2.4597057e-13
-1.5692371e-13
-3.6098138e-13
-2.5785717e-13
-4.553393e-13
-7.1794965e-13
-8.1816439e-13
-9.1450504e-13
-1.134557e-12
-1.0358099e-12
-1.0786474e-12
-1.018753e-12
-1.1044103e-12
-1.2651992e-12
-1.0156514e-12
-8.2426723e-13
-1.0441428e-12
-1.2263278e-12
-1.0206014e-12
-1.0156247e-12
-8.2209514e-13
-7.6377799e-13
-8.2871542e-13
-7.2641761e-13
-8.5801488e-13
-7.5789304e-13
-9.3392801e-13
-7.8187509e-13
-8.89713e-13
-4.8630155e-13
-8.5234128e-13
-1.3087501e-12
-1.0817127e-12
-1.0894446e-12
-9.6649614e-13
-8.5476166e-13
-8.4199968e-13
-9.9558457e-13
-8.4030764e-13
-8.811016e-13
-1.0018839e-12
-1.0849425e-12
-7.8948829e-13
-8.7455412e-13
-9.6202494e-13
-7.3006432e-13
-6.6647793e-13
-1.0003548e-12
-1.0995386e-12
-9.8923828e-13
-1.2808262e-12
-1.6108237e-12
-1.2852293e-12
-1.3951795e-12
-1.44899e-12
-1.2496429e-12
-1.3403988e-12
-1.283542e-12
-1.2862476e-12
-1.3864959e-12
-1.3475573e-12
-1.3160469e-12
-1.152512e-12
-1.1157624e-12
-1.3215421e-12
-1.2885878e-12
-1.3318446e-12
-1.3162488e-12
-1.0718197e-12
-1.2086186e-12
-1.1386035e-12
-1.0968163e-12
-1.2591175e-12
-1.1522147e-12
-1.0425901e-12
-1.1988911e-12
-1.2706202e-12
-1.1937607e-12
-1.3810016e-12
-1.5477332e-12
-1.3231438e-12
-1.3781041e-12
-1.3757466e-12
-1.4460129e-12
-1.5346392e-12
-1.6524732e-12
-1.6960628e-12
-1.773595e-12
-1.8029928e-12
-1.4099627e-12
-1.720009e-12
-1.9420162e-12
-1.7214955e-12
-1.4635882e-12
-1.7118625e-12
-1.7605414e-12
-1.8365951e-12
-1.3280087e-12
-1.5016255e-12
-1.6611881e-12
-1.5619865e-12
-1.7763286e-12
-1.8008335e-12
-1.8600268e-12
-1.9888605e-12
-2.1053925e-12
-1.912954e-12
-1.8336261e-12
-1.9432994e-12
-1.8339971e-12
-1.8441046e-12
-1.6917725e-12
-1.2937554e-12
-1.3844445e-12
-1.3860777e-12
-1.2404211e-12
-1.2877623e-12
-1.1594017e-12
-7.1494325e-13
-5.3735066e-13
-3.7569398e-13
-5.1847315e-13
-2.0428983e-13
-1.4619859e-13
-1.0917071e-13
-2.502951e-14
3.9233712e-13
6.0824113e-13
1.2007102e-12
1.4529461e-12
1.3495102e-12
1.5061581e-12
1.6335249e-12
1.96557e-12
2.2625023e-12
2.7075184e-12
3.0396071e-12
2.9448211e-12
3.1905425e-12
3.3120474e-12
3.495568e-12
3.8198822e-12
4.4143213e-12
5.2888391e-12
5.8331718e-12
6.5326745e-12
6.8363091e-12
7.4135146e-12
8.3079186e-12
9.0003021e-12
9.9566405e-12
1.1074702e-11
1.239902e-11
1.3894088e-11
1.5060227e-11
1.7036526e-11
1.8613742e-11
2.0264842e-11
2.1906229e-11
2.4000559e-11
2.6606225e-11
2.9079318e-11
3.1789999e-11
3.4537124e-11
3.774429e-11
4.1899168e-11
4.5888648e-11
5.0156639e-11
5.4847647e-11
6.0317706e-11
6.6312417e-11
7.2753976e-11
7.9831405e-11
8.7173684e-11
9.5541319e-11
1.0484561e-10
1.1454804e-10
1.2543265e-10
1.3762037e-10
1.5057399e-10
1.6520754e-10
1.8061179e-10
1.9734182e-10
2.1547794e-10
2.3542813e-10
2.5822375e-10
2.8322163e-10
3.0950568e-10
3.3770748e-10
3.6910258e-10
4.0357731e-10
4.4103442e-10
4.8218061e-10
5.2715245e-10
5.7605145e-10
6.2915479e-10
6.8699718e-10
7.5030943e-10
8.1904878e-10
8.9418656e-10
9.7614476e-10
1.0647727e-09
1.1620506e-09
1.2675289e-09
1.3823407e-09
1.5076985e-09
1.6443953e-09
1.7931232e-09
1.9544622e-09
2.1299882e-09
2.3218198e-09
2.5302228e-09
2.7562976e-09
3.002405e-09
3.2696343e-09
3.5608444e-09
3.877603e-09
4.2210093e-09
4.5944359e-09
5.0006205e-09
5.4409593e-09
5.9192042e-09
6.4388619e-09
7.0032427e-09
7.6160056e-09
8.2811628e-09
9.0025594e-09
9.7855627e-09
1.0634947e-08
1.1556062e-08
1.2555088e-08
1.3638411e-08
1.4813565e-08
1.6087428e-08
1.7468318e-08
1.8964819e-08
2.0585458e-08
2.2340878e-08
2.4242597e-08
2.6302216e-08
2.8532909e-08
3.094814e-08
3.3561849e-08
3.6390724e-08
3.9452087e-08
4.2763976e-08
4.6347617e-08
5.0223203e-08
5.4413883e-08
5.8945835e-08
6.3845078e-08
6.9140625e-08
7.4863e-08
8.1047515e-08
8.7729717e-08
9.4947125e-08
1.0274133e-07
1.1115799e-07
1.2024595e-07
1.3005603e-07
1.4064497e-07
1.5207187e-07
1.6440142e-07
1.777021e-07
1.9204768e-07
2.0751977e-07
2.2420206e-07
2.4218706e-07
2.615745e-07
2.8246867e-07
3.049823e-07
3.2923811e-07
3.5536723e-07
3.8350914e-07
4.1381369e-07
4.464411e-07
4.8156449e-07
5.1936714e-07
5.600488e-07
6.0382065e-07
6.5090844e-07
7.0155607e-07
7.5602284e-07
8.1458809e-07
8.775496e-07
9.452244e-07
1.017954e-06
1.0961033e-06
1.1800624e-06
1.2702476e-06
1.367103e-06
1.4711058e-06
1.5827642e-06
1.7026222e-06
1.83126e-06
1.9692971e-06
2.1173944e-06
2.2762583e-06
2.4466436e-06
2.6293551e-06
2.8252504e-06
3.0352449e-06
3.2603155e-06
3.5015033e-06
3.759918e-06
4.0367423e-06
4.3332374e-06
4.6507465e-06
4.9907014e-06
5.3546259e-06
5.7441429e-06
6.1609807e-06
6.6069787e-06
7.0840951e-06
7.5944113e-06
8.1401433e-06
8.7236487e-06
9.3474345e-06
1.0014165e-05
1.0726674e-05
1.148797e-05
1.2301254e-05
1.3169926e-05
1.4097592e-05
1.508809e-05
1.6145487e-05
1.7274106e-05
1.8478534e-05
1.9763636e-05
2.1134576e-05
2.2596831e-05
2.4156206e-05
2.5818859e-05
2.759132e-05
2.9480507e-05
3.1493749e-05
3.3638816e-05
3.5923931e-05
3.8357809e-05
4.0949669e-05
4.3709279e-05
4.6646974e-05
4.9773688e-05
5.3100986e-05
5.6641107e-05
6.0406991e-05
6.4412314e-05
6.8671539e-05
7.3199948e-05
7.8013689e-05
8.3129819e-05
8.8566356e-05
9.4342322e-05
0.0001004778
0.000106994
0.00011391328
0.00012125926
0.00012905682
0.00013733222
0.00014611316
0.00015542882
0.00016530996
0.000175789
0.00018690007
0.00019867916
0.00021116413
0.00022439486
0.00023841332
0.00025326368
0.00026899242
0.00028564843
0.0003032831
0.00032195051
0.00034170748
0.00036261372
0.00038473201
0.00040812825
0.0004328717
0.00045903506
0.00048669465
0.0005159306
0.00054682696
0.00057947195
0.00061395806
0.00065038232
0.00068884641
0.00072945696
0.00077232566
0.00081756958
0.0008653113
0.00091567921
0.00096880772
0.0010248375
0.0010839159
0.0011461969
0.0012118415
0.0012810185
0.0013539038
0.0014306817
0.0015115446
0.0015966936
0.0016863387
0.0017806992
0.001880004
0.0019844922
0.0020944132
0.0022100271
0.0023316054
0.0024594311
0.0025937991
0.002735017
0.0028834051
0.0030392974
0.0032030414
0.0033749992
0.0035555475
0.0037450786
0.0039440004
0.0041527375
0.0043717312
0.0046014405
0.0048423423
0.0050949323
0.0053597256
0.0056372569
0.0059280817
0.0062327764
0.0065519393
0.0068861914
0.0072361765
0.0076025623
0.0079860412
0.0083873308
0.0088071745
0.0092463426
0.0097056328
0.010185871
0.010687912
0.01121264
0.011760971
0.012333851
0.012932258
0.013557205
0.014209736
0.014890933
0.015601909
0.016343816
0.017117845
0.017925221
0.01876721
0.019645118
0.02056029
0.021514114
0.02250802
0.023543481
0.024622013
0.025745178
0.026914585
0.028131886
0.029398784
0.030717028
0.032088419
0.033514804
0.034998083
0.036540208
0.038143184
0.039809066
0.041539965
0.043338048
0.045205535
0.047144704
0.049157888
0.051247479
0.053415927
0.055665739
0.057999484
0.06041979
0.062929344
0.065530896
0.068227256
0.071021297
0.073915953
0.076914223
0.080019166
0.083233906
0.08656163
0.09000559
0.093569101
0.09725554
0.10106835
0.10501104
0.10908719
0.11330041
0.11765443
0.12215299
0.12679992
0.13159912
0.13655453
0.14167016
0.14695011
0.15239849
0.15801952
0.16381744
0.16979658
0.17596131
0.18231607
0.18886534
0.19561367
0.20256566
0.20972597
0.21709931
0.22469042
0.23250413
0.24054528
0.24881877
0.25732957
0.26608266
0.27508307
0.28433588
0.29384621
0.30361921
0.31366006
0.32397399
0.33456624
0.3454421
0.35660688
0.3680659
0.37982452
0.39188813
0.4042621
0.41695186
0.42996282
0.44330041
0.45697009
0.4709773
0.48532748
0.5000261
0.51507859
0.53049041
0.546267
0.56241377
0.57893616
0.59583955
0.61312932
0.63081085
0.64888946
0.66737046
0.68625914
0.70556074
0.72528047
0.74542352
0.76599501
0.78700003
0.80844364
0.83033082
0.85266652
0.87545563
0.89870298
0.92241335
0.94659144
0.97124191
0.99636932
1.0219782
1.0480729
1.074658
1.1017375
1.1293158
1.1573969
1.1859849
1.2150838
1.2446974
1.2748295
1.3054837
1.3366636
1.3683728
1.4006146
1.4333923
1.466709
1.500568
1.5349721
1.5699242
1.6054271
1.6414834
1.6780958
1.7152665
1.752998
1.7912924
1.8301518
1.8695782
1.9095735
1.9501394
1.9912775
2.0329893
2.0752762
2.1181395
2.1615803
2.2055997
2.2501985
2.2953775
2.3411375
2.3874788
2.434402
2.4819074
2.529995
2.5786651
2.6279175
2.677752
2.7281683
2.7791661
2.8307448
2.8829036
2.935642
2.9889588
3.0428533
3.0973241
3.1523702
3.2079901
3.2641824
3.3209455
3.3782777
3.4361772
3.4946422
3.5536706
3.6132603
3.6734091
3.7341147
3.7953746
3.8571863
3.9195472
3.9824546
4.0459055
4.1098972
4.1744266
4.2394905
4.3050858
4.3712093
4.4378574
4.5050267
4.5727137
4.6409148
4.7096261
4.7788439
4.8485644
4.9187834
4.9894971
5.0607012
5.1323915
5.2045638
5.2772138
5.3503369
5.4239287
5.4979847
5.5725002
5.6474706
5.7228909
5.7987566
5.8750626
5.9518039
6.0289757
6.1065728
6.1845902
6.2630225
6.3418646
6.4211112
6.500757
6.5807965
6.6612244
6.742035
6.823223
6.9047826
6.9867082
7.0689942
7.1516348
7.2346242
7.3179567
7.4016263
7.4856272
7.5699534
7.654599
7.7395578
7.8248239
7.9103912
7.9962534
8.0824045
8.1688383
8.2555484
8.3425287
8.4297728
8.5172743
8.6050269
8.6930242
8.7812597
8.869727
8.9584195
9.0473308
9.1364542
9.2257832
9.3153112
9.4050314
9.4949373
9.5850221
9.675279
9.7657014
9.8562823
9.9470151
10.037893
10.128909
10.220056
10.311327
10.402716
10.494215
10.585817
10.677516
10.769304
10.861174
10.953119
11.045132
11.137207
11.229334
11.321509
11.413722
11.505968
11.598238
11.690526
11.782824
11.875125
11.967421
12.059706
12.151971
12.244209
12.336413
12.428575
12.520688
12.612745
12.704737
12.796657
12.888499
12.980253
13.071913
13.16347
13.254918
13.346249
13.437454
13.528527
13.619459
13.710243
13.800871
13.891335
13.981628
14.071741
14.161667
14.251399
14.340928
14.430246
14.519346
14.60822
14.69686
14.785257
14.873406
14.961296
15.048921
15.136273
15.223343
15.310125
15.396609
15.482789
15.568656
15.654202
15.739421
15.824303
15.908841
15.993027
16.076854
16.160313
16.243398
16.326099
16.40841
16.490323
16.571831
16.652924
16.733597
16.813841
16.893649
16.973014
17.051928
17.130383
17.208373
17.28589
17.362927
17.439476
17.515532
17.591085
17.666131
17.740661
17.814669
17.888148
17.961092
18.033494
18.105347
18.176646
18.247383
18.317552
18.387148
18.456164
18.524595
18.592435
18.659678
18.726318
18.79235
18.85777
18.922571
18.986748
19.050297
19.113214
19.175492
19.237129
19.29812
19.358459
19.418145
19.477172
19.535538
19.593237
19.650269
19.706628
19.762313
19.81732
19.871648
19.925292
19.978253
20.030526
20.082112
20.133007
20.183211
20.232722
20.28154
20.329663
20.377091
20.423825
20.469863
20.515206
20.559854
20.603807
20.647067
20.689634
20.731509
20.772695
20.813191
20.853001
20.892127
20.93057
20.968333
21.005419
21.04183
21.07757
21.112643
21.14705
21.180798
21.213889
21.246327
21.278117
21.309263
21.339771
21.369645
21.39889
21.427511
21.455514
21.482904
21.509688
21.535871
21.56146
21.58646
21.610878
21.634721
21.657995
21.680708
21.702865
21.724475
21.745544
21.766079
21.786089
21.80558
21.82456
21.843038
21.861019
21.878513
21.895527
21.912069
21.928148
21.94377
21.958944
21.973679
21.987982
22.001862
22.015326
22.028383
22.04104
22.053307
22.065191
22.0767
22.087843
22.098627
22.10906
22.119151
22.128908
22.138337
22.147447
22.156247
22.164743
22.172943
22.180855
22.188486
22.195843
22.202935
22.209767
22.216348
22.222684
22.228783
22.234651
22.240294
22.24572
22.250935
22.255945
22.260757
22.265377
22.269811
22.274064
22.278144
22.282055
22.285802
22.289393
22.292831
22.296123
22.299272
22.302285
22.305166
22.30792
22.310551
22.313065
22.315464
22.317755
22.31994
22.322024
22.324011
22.325904
22.327708
22.329426
22.331061
22.332617
22.334097
22.335504
22.336841
22.338112
22.339319
22.340464
22.341552
22.342583
22.343561
22.344488
22.345366
22.346198
22.346985
22.34773
22.348435
22.349102
22.349732
22.350327
22.350889
22.351419
22.35192
22.352392
22.352837
22.353257
22.353652
22.354024
22.354374
22.354703
22.355013
22.355304
22.355577
22.355834
22.356075
22.3563
22.356512
22.356711
22.356896
22.35707
22.357233
22.357385
22.357527
22.35766
22.357784
22.3579
22.358008
22.358108
22.358202
22.358289
22.35837
22.358446
22.358516
22.358582
22.358643
22.3587
22.358753
22.358802
22.358848
22.35889
22.35893
22.358968
22.359003
22.359035
22.359066
22.359095
22.359122
22.359148
22.359173
22.359196
22.359218
22.35924
22.359261
22.35928
22.3593
22.35932
22.359339
22.359358
22.35938
22.359402
22.359419
22.359436
22.359458
22.359481
22.359496
22.359508
22.359525
22.359544
22.359556
22.359564
22.359581
22.359603
22.359611
22.359613
22.359637
22.359668
22.359679
22.359681
22.359706
22.359739
22.359756
22.359762
22.359785
22.359819
22.359843
22.359856
22.359874
22.359904
22.359929
22.359948
22.359966
22.35999
22.360016
22.360036
22.360052
22.360073
22.360096
22.360116
22.360131
22.360148
22.360169
22.360188
22.360202
22.360216
22.360234
22.360251
22.360265
22.360278
22.360292
22.360307
22.360318
22.360328
22.360344
22.360358
22.360364
22.36037
22.360388
22.360405
22.36041
22.360416
22.360436
22.360456
22.36046
22.360459
22.360475
22.360499
22.36051
22.360511
22.360523
22.360545
22.360562
22.36057
22.360579
22.360597
22.360617
22.360631
22.360642
22.360657
22.360675
22.360693
22.360713
22.360735
22.360747
22.360757
22.360769
22.360779
22.360781
22.360787
22.360797
22.360809
22.360815
22.360818
22.360819
22.360827
22.360841
22.360848
22.360846
22.36085
22.360866
22.360885
22.360896
22.360904
22.360917
22.36093
22.360943
22.360955
22.360967
22.360975
22.360983
22.36099
22.360996
22.361004
22.361014
22.361022
22.361027
22.361035
22.361042
22.361045
22.361045
22.36105
22.361063
22.361076
22.361086
22.361098
22.361112
22.361127
22.361141
22.361155
22.361169
22.361184
22.361199
22.361215
22.361227
22.36124
22.361253
22.361266
22.361275
22.36128
22.361287
22.361294
22.361291
22.36129
22.361291
22.36129
22.361296
22.361301
22.361296
22.361292
22.361295
22.361295
22.361295
22.361302
22.361312
22.361321
22.36133
22.361341
22.361353
22.361366
22.361374
22.361382
22.361389
22.361396
22.361404
22.361412
22.361419
22.361427
22.361434
22.36144
22.361446
22.361451
22.361454
22.361458
22.361461
22.361465
22.361467
22.361469
22.361472
22.361476
22.361479
22.361483
22.361486
22.36149
22.361495
22.361498
22.361501
22.361504
22.361507
22.361509
22.361513
22.361516
22.36152
22.361524
22.36153
22.361536
22.361542
22.361546
22.361545
22.361545
22.361546
22.361546
22.361547
22.361549
22.361551
22.361554
22.361552
22.361545
22.361543
22.361547
22.361546
22.361541
22.361536
22.361536
22.361538
22.361534
22.361529
22.361525
22.361522
22.361521
22.361521
22.361521
22.361522
22.361522
22.361522
22.361522
22.361524
22.361527
22.361531
22.361535
22.361539
22.361539
22.36154
22.361542
22.361544
22.361545
22.361547
22.361548
22.361551
22.361553
22.361551
22.361551
22.361553
22.361555
22.361552
22.361546
22.361543
22.361545
22.361548
22.361548
22.361545
22.361539
22.361533
22.361531
22.36153
22.361529
22.361528
22.361528
22.361526
22.361524
22.361519
22.361513
22.361509
22.361507
22.361504
22.361501
22.361495
22.361489
22.361486
22.361485
22.361483
22.36148
22.361476
22.361473
22.361471
22.361468
22.361465
22.361462
22.361461
22.361459
22.361456
22.361452
22.361453
22.361453
22.361451
22.361447
22.361442
22.361442
22.361444
22.361444
22.361442
22.361439
22.361437
22.361438
22.361437
22.361436
22.361432
22.361426
22.361424
22.361424
22.361425
22.361424
22.361423
22.361419
22.361415
22.361409
22.361406
22.361406
22.361405
22.361404
22.361401
22.361397
22.361392
22.361388
22.361386
22.361383
22.361379
22.361374
22.36137
22.361368
22.361365
22.361361
22.361356
22.36135
22.361347
22.361344
22.36134
22.361335
22.36133
22.361325
22.361322
22.361318
22.361314
22.361309
22.361304
22.361301
22.361297
22.361293
22.361288
22.361283
22.36128
22.361277
22.361274
22.36127
22.361266
22.361261
22.361258
22.361257
22.361254
22.361251
22.361248
22.361244
22.361242
22.361239
22.361238
22.361237
22.361236
22.361234
22.361232
22.361229
22.361229
22.361228
22.361227
22.361225
22.361223
22.361223
22.361223
22.361222
22.361221
22.36122
22.361219
22.361218
22.361218
22.361218
22.361216
22.361214
22.361212
22.361212
22.361212
22.361211
22.36121
22.361207
22.361206
22.361205
22.361204
22.361202
22.3612
22.361198
22.361196
22.361194
22.361191
22.361189
22.361188
22.361186
22.361183
22.36118
22.361178
22.361176
22.361173
22.36117
22.361167
22.361165
22.361163
22.361161
22.361157
22.361154
22.361152
22.361151
22.361148
22.361145
22.361142
22.361139
22.361138
22.361137
22.361135
22.361132
22.361129
22.361127
22.361126
22.361124
22.361122
22.361119
22.361117
22.361117
22.361115
22.361114
22.361111
22.361108
22.361107
22.361106
22.361104
22.361103
22.361101
22.361099
22.361097
22.361096
22.361094
22.361092
22.36109
22.361088
22.361086
22.361084
22.361082
22.36108
22.361078
22.361076
22.361074
22.361072
22.36107
22.361068
22.361066
22.361064
22.361062
22.361061
22.361058
22.361056
22.361053
22.361052
22.36105
22.361048
22.361046
22.361043
22.361041
22.36104
22.361038
22.361036
22.361034
22.361031
22.361029
22.361028
22.361027
22.361025
22.361023
22.361021
22.361019
22.361018
22.361016
22.361015
22.361013
22.361011
22.361009
22.361008
22.361007
22.361005
22.361002
22.361001
22.360999
22.360998
22.360997
22.360995
22.360993
22.360992
22.36099
22.360988
22.360986
22.360985
22.360983
22.360982
22.36098
22.360978
22.360976
22.360975
22.360974
22.360972
22.36097
22.360968
22.360966
22.360965
22.360963
22.360962
22.36096
22.360957
22.360956
22.360954
22.360953
22.360951
22.360949
22.360946
22.360945
22.360943
22.360942
22.360941
22.360939
22.360937
22.360934
22.360933
22.360931
22.36093
22.360928
22.360926
22.360924
22.360922
22.360921
22.360919
22.360917
22.360915
22.360913
22.360911
22.36091
22.360909
22.360907
22.360905
22.360903
22.360902
22.3609
22.360899
22.360897
22.360895
22.360893
22.360892
22.360891
22.360889
22.360888
22.360886
22.360883
22.360882
22.360882
22.360881
22.360879
22.360878
22.360876
22.360874
22.360872
22.360871
22.36087
22.360869
22.360867
22.360866
22.360864
22.360862
22.36086
22.360859
22.360859
22.360857
22.360856
22.360854
22.360852
22.36085
22.360849
22.360847
22.360846
22.360845
22.360843
22.360842
22.36084
22.360838
22.360836
22.360835
22.360833
22.360832
22.36083
22.360828
22.360826
22.360824
22.360822
22.360821
22.360819
22.360817
22.360815
22.360814
22.360812
22.360809
22.360807
22.360806
22.360804
22.360803
22.360801
22.360798
22.360796
22.360794
22.360793
22.360792
22.36079
22.360788
22.360786
22.360784
22.360782
22.360781
22.36078
22.360779
22.360777
22.360775
22.360774
22.360772
22.360771
22.36077
22.360769
22.360768
22.360766
22.360765
22.360764
22.360763
22.360762
22.360761
22.36076
22.360759
22.360758
22.360758
22.360757
22.360756
22.360755
22.360755
22.360754
22.360754
22.360753
22.360752
22.360751
22.360751
22.360751
22.360751
22.36075
22.360749
22.360748
22.360748
22.360748
22.360748
22.360747
22.360747
22.360746
22.360745
22.360745
22.360745
22.360744
22.360743
22.360742
22.360741
22.36074
22.36074
22.36074
22.360739
22.360738
22.360737
22.360735
22.360734
22.360734
22.360733
22.360732
22.360731
22.360729
22.360728
22.360727
22.360726
22.360724
22.360723
22.360721
22.360719
22.360718
22.360717
22.360715
22.360713
22.360711
22.360709
22.360708
22.360706
22.360704
22.360702
22.3607
22.360699
22.360697
22.360695
22.360693
22.360691
22.360689
22.360687
22.360685
22.360683
22.360681
22.360679
22.360677
22.360676
22.360674
22.360672
22.360669
22.360667
22.360666
22.360664
22.360662
22.36066
22.360658
22.360656
22.360655
22.360654
22.360652
22.36065
22.360649
22.360647
22.360645
22.360644
22.360643
22.360641
22.36064
22.360638
22.360636
22.360635
22.360634
22.360633
22.360632
22.360631
22.360629
22.360628
22.360627
22.360626
22.360625
22.360624
22.360623
22.360622
22.360621
22.36062
22.360618
22.360617
22.360617
22.360616
22.360615
22.360614
22.360613
22.360612
22.360611
22.36061
22.36061
22.360609
22.360608
22.360607
22.360605
22.360604
22.360604
22.360603
22.360603
22.360602
22.360601
22.3606
22.360598
22.360598
22.360597
22.360596
22.360595
22.360594
22.360593
22.360592
22.360591
22.360591
22.36059
22.360589
22.360588
22.360586
22.360586
22.360585
22.360584
22.360583
22.360582
22.360581
22.36058
22.360579
22.360578
22.360577
22.360576
22.360575
22.360574
22.360573
22.360572
22.360571
22.360569
22.360568
22.360568
22.360567
22.360566
22.360564
22.360563
22.360562
22.360561
22.36056
22.360559
22.360558
22.360557
22.360556
22.360555
22.360554
22.360552
22.360551
22.36055
22.360549
22.360548
22.360547
22.360546
22.360544
22.360543
22.360542
22.360541
22.36054
22.360539
22.360537
22.360536
22.360535
22.360534
22.360533
22.360532
22.36053
22.360529
22.360528
22.360527
22.360526
22.360525
22.360523
22.360522
22.360521
22.36052
22.360519
22.360518
22.360516
22.360515
22.360514
22.360513
22.360511
22.36051
22.36051
22.360509
22.360508
22.360507
22.360505
22.360504
22.360503
22.360501
22.360501
22.3605
22.360499
22.360498
22.360497
22.360495
22.360494
22.360493
22.360492
22.360491
22.360491
22.36049
22.360488
22.360487
22.360486
22.360485
22.360484
22.360483
22.360482
22.360481
22.36048
22.360479
22.360478
22.360477
22.360476
22.360475
22.360473
22.360472
22.360471
22.360471
22.360469
22.360468
22.360467
22.360466
22.360465
22.360464
22.360463
22.360462
22.360461
22.36046
22.360459
22.360458
22.360457
22.360455
22.360454
22.360454
22.360453
22.360452
22.36045
22.360449
22.360448
22.360447
22.360446
22.360445
22.360444
22.360443
22.360442
22.360441
22.36044
22.360439
22.360438
22.360437
22.360436
22.360436
22.360435
22.360434
22.360432
22.360431
22.360431
22.36043
22.360429
22.360428
22.360427
22.360426
22.360425
22.360425
22.360424
22.360424
22.360423
22.360422
22.360421
22.36042
22.36042
22.360419
22.360418
22.360418
22.360417
22.360416
22.360416
22.360415
22.360414
22.360414
22.360413
22.360412
22.360412
22.360411
22.360411
22.360411
22.36041
22.360409
22.360408
22.360408
22.360408
22.360407
22.360407
22.360406
22.360406
22.360405
22.360405
22.360404
22.360404
22.360403
22.360403
22.360402
22.360402
22.360402
22.360401
22.360401
22.3604
22.3604
22.360399
22.360399
22.360398
22.360398
22.360397
22.360397
22.360396
22.360396
22.360395
22.360395
22.360394
22.360394
22.360393
22.360393
22.360392
22.360391
22.360391
22.36039
22.36039
22.360389
22.360389
22.360388
22.360387
22.360387
22.360386
22.360385
22.360384
22.360384
22.360383
22.360383
22.360382
22.360381
22.36038
22.360378
22.360378
22.360377
22.360377
22.360376
22.360375
22.360374
22.360373
22.360372
22.360371
22.36037
22.360369
22.360368
22.360367
22.360366
22.360365
22.360364
22.360363
22.360361
22.36036
22.360359
22.360358
22.360357
22.360356
22.360355
22.360353
22.360352
22.360351
22.36035
22.360349
22.360348
22.360346
22.360345
22.360344
22.360343
22.360342
22.36034
22.360339
22.360338
22.360337
22.360335
22.360334
22.360333
22.360331
22.36033
22.360329
22.360328
22.360327
22.360325
22.360324
22.360323
22.360321
22.36032
22.360319
22.360318
22.360317
22.360315
22.360314
22.360313
22.360312
22.360311
22.36031
22.360308
22.360307
22.360306
22.360305
22.360304
22.360303
22.360302
22.3603
22.360299
22.360298
22.360297
22.360296
22.360295
22.360294
22.360293
22.360292
22.360291
22.36029
22.360289
22.360288
22.360286
22.360285
22.360284
22.360283
22.360283
22.360282
22.36028
22.360279
22.360278
22.360278
22.360277
22.360276
22.360275
22.360274
22.360273
22.360272
22.360271
22.36027
22.360269
22.360268
22.360267
22.360266
22.360266
22.360265
22.360264
22.360263
22.360262
22.360261
22.36026
22.36026
22.360259
22.360258
22.360257
22.360256
22.360255
22.360254
22.360254
22.360253
22.360253
22.360252
22.360251
22.36025
22.360249
22.360249
22.360248
22.360248
22.360247
22.360246
22.360246
22.360245
22.360244
22.360243
22.360243
22.360242
22.360242
22.360241
22.36024
22.360239
22.360239
22.360238
22.360238
22.360237
22.360236
22.360236
22.360235
22.360234
22.360234
22.360233
22.360233
22.360232
22.360231
22.36023
22.36023
22.360229
22.360229
22.360228
22.360227
22.360226
22.360226
22.360225
22.360225
22.360224
22.360223
22.360223
22.360222
22.360221
22.360221
22.36022
22.360219
22.360218
22.360218
22.360217
22.360216
22.360216
22.360215
22.360214
22.360213
22.360213
22.360212
22.360211
22.360211
22.36021
22.360209
22.360208
22.360208
22.360207
22.360206
22.360205
22.360205
22.360204
22.360203
22.360202
22.360202
22.360201
22.3602
22.3602
22.360199
22.360198
22.360197
22.360196
22.360196
22.360195
22.360194
22.360194
22.360193
22.360192
22.360191
22.360191
22.36019
22.360189
22.360189
22.360188
22.360187
22.360186
22.360186
22.360185
22.360184
22.360184
22.360183
22.360182
22.360181
22.360181
22.36018
22.36018
22.360179
22.360178
22.360177
22.360177
22.360176
22.360176
22.360175
22.360174
22.360174
22.360173
22.360173
22.360172
22.360171
22.360171
22.36017
22.360169
22.360169
22.360168
22.360168
22.360167
22.360167
22.360166
22.360166
22.360165
22.360164
22.360164
22.360163
22.360162
22.360162
22.360162
22.360161
22.36016
22.36016
22.360159
22.360158
22.360158
22.360157
22.360157
22.360156
22.360156
22.360155
22.360154
22.360154
22.360153
22.360153
22.360152
22.360151
22.360151
22.36015
22.36015
22.360149
22.360148
22.360148
22.360147
22.360146
22.360146
22.360145
22.360145
22.360144
22.360143
22.360142
22.360142
22.360141
22.360141
22.36014
22.360139
22.360138
22.360138
22.360137
22.360136
22.360136
22.360135
22.360134
22.360133
22.360133
22.360132
22.360131
22.36013
22.36013
22.360129
22.360128
22.360127
22.360127
22.360126
22.360125
22.360124
22.360123
22.360123
22.360122
22.360121
22.36012
22.360119
22.360118
22.360117
22.360117
22.360116
22.360115
22.360114
22.360114
22.360113
22.360112
22.360111
22.36011
22.360109
22.360108
22.360107
22.360106
22.360105
22.360105
22.360104
22.360103
22.360102
22.360101
22.3601
22.360099
22.360098
22.360098
22.360097
22.360096
22.360095
22.360094
22.360093
22.360092
22.360091
22.36009
22.360089
22.360088
22.360087
22.360086
22.360085
22.360084
22.360083
22.360082
22.360081
22.36008
22.360079
22.360078
22.360077
22.360077
22.360076
22.360074
22.360073
22.360072
22.360072
22.360071
22.36007
22.360069
22.360068
22.360067
22.360066
22.360065
22.360064
22.360063
22.360062
22.360061
22.36006
22.36006
22.360059
22.360058
22.360057
22.360056
22.360055
22.360054
22.360053
22.360052
22.360051
22.36005
22.360049
22.360048
22.360047
22.360047
22.360046
22.360045
22.360044
22.360043
22.360042
22.360042
22.360041
22.36004
22.36004
22.360039
22.360039
22.360038
22.360037
22.360036
22.360036
22.360035
22.360035
22.360034
22.360033
22.360032
22.360031
22.36003
22.360029
22.360028
22.360026
22.360025
22.360024
22.360023
22.360022
22.360022
22.360022
22.360023
22.360025
22.360027
22.360028
22.360029
22.360029
22.360028
22.360024
22.360018
22.360009
22.359999
22.359989
22.35998
22.359975
22.359976
22.359988
22.360017
22.360076
22.360193
22.36046
22.361067
22.362941
22.362556
22.360134
22.359559
22.359942
22.360001
22.359936
22.359918
22.359932
22.359946
22.359958
22.359974
22.35999
22.360002
22.360013
22.360021
22.360027
22.360031
22.360034
22.360035
22.360035
22.360035
22.360034
22.360033
22.360032
22.360031
22.360029
22.360028
22.360028
22.360027
22.360025
22.360017
22.360015
22.360023
22.360027
22.360026
22.360026
22.360026
22.360025
22.360025
22.360025
22.360025
22.360024
22.360024
22.360023
22.360023
22.360022
22.360021
22.360021
22.36002
22.360019
22.360019
22.360018
22.360017
22.360017
22.360016
22.360015
22.360014
22.360014
22.360013
22.360012
22.360012
22.360011
22.36001
22.360009
22.360009
22.360008
22.360007
22.360007
22.360006
22.360005
22.360004
22.360004
22.360003
22.360002
22.360001
22.36
22.359999
22.359999
22.359998
22.359997
22.359996
22.359995
22.359994
22.359993
22.359992
22.359991
22.35999
22.359989
22.359988
22.359988
22.359987
22.359986
22.359985
22.359984
22.359983
22.359982
22.359981
22.35998
22.359979