/*--------------------------------*- C++ -*----------------------------------*\
  =========                 |
  \\      /  F ield         | OpenFOAM: The Open Source CFD Toolbox
   \\    /   O peration     | Website:  https://openfoam.org
    \\  /    A nd           | Version:  7
     \\/     M anipulation  |
\*---------------------------------------------------------------------------*/
FoamFile
{
    version     2.0;
    format      ascii;
    class       volScalarField;
    location    "0.00346";
    object      rho;
}
// * * * * * * * * * * * * * * * * * * * * * * * * * * * * * * * * * * * * * //

dimensions      [1 -3 0 0 0 0 0];

internalField   nonuniform List<scalar> 
5000
(
1.3374802
1.3374802
1.3374802
1.3374802
1.3374802
1.3374802
1.3374802
1.3374802
1.3374802
1.3374802
1.3374802
1.3374802
1.3374802
1.3374802
1.3374802
1.3374802
1.3374802
1.3374802
1.3374802
1.3374802
1.3374802
1.3374802
1.3374802
1.3374802
1.3374802
1.3374802
1.3374802
1.3374802
1.3374802
1.3374802
1.3374802
1.3374802
1.3374802
1.3374802
1.3374802
1.3374802
1.3374802
1.3374802
1.3374802
1.3374803
1.3374803
1.3374803
1.3374803
1.3374803
1.3374803
1.3374803
1.3374803
1.3374803
1.3374803
1.3374803
1.3374803
1.3374803
1.3374803
1.3374803
1.3374803
1.3374803
1.3374803
1.3374803
1.3374803
1.3374803
1.3374803
1.3374803
1.3374803
1.3374803
1.3374803
1.3374803
1.3374803
1.3374803
1.3374803
1.3374803
1.3374803
1.3374803
1.3374803
1.3374803
1.3374803
1.3374803
1.3374803
1.3374803
1.3374803
1.3374803
1.3374803
1.3374803
1.3374803
1.3374803
1.3374803
1.3374803
1.3374803
1.3374803
1.3374803
1.3374803
1.3374803
1.3374803
1.3374803
1.3374803
1.3374803
1.3374803
1.3374803
1.3374803
1.3374803
1.3374803
1.3374803
1.3374803
1.3374803
1.3374803
1.3374803
1.3374803
1.3374803
1.3374803
1.3374803
1.3374803
1.3374803
1.3374803
1.3374803
1.3374803
1.3374803
1.3374803
1.3374803
1.3374803
1.3374803
1.3374803
1.3374803
1.3374803
1.3374803
1.3374803
1.3374803
1.3374803
1.3374803
1.3374803
1.3374804
1.3374804
1.3374804
1.3374804
1.3374804
1.3374804
1.3374804
1.3374804
1.3374804
1.3374804
1.3374804
1.3374804
1.3374804
1.3374804
1.3374804
1.3374804
1.3374804
1.3374804
1.3374804
1.3374804
1.3374804
1.3374804
1.3374804
1.3374804
1.3374804
1.3374804
1.3374804
1.3374804
1.3374804
1.3374804
1.3374804
1.3374804
1.3374804
1.3374804
1.3374804
1.3374804
1.3374804
1.3374804
1.3374804
1.3374804
1.3374804
1.3374804
1.3374804
1.3374804
1.3374804
1.3374804
1.3374804
1.3374804
1.3374804
1.3374804
1.3374804
1.3374804
1.3374804
1.3374804
1.3374804
1.3374804
1.3374804
1.3374804
1.3374804
1.3374804
1.3374804
1.3374803
1.3374803
1.3374803
1.3374803
1.3374803
1.3374803
1.3374803
1.3374802
1.33748
1.3374796
1.3374788
1.3374767
1.3374727
1.3374669
1.3374585
1.337447
1.3374318
1.3374121
1.3373876
1.3373576
1.3373221
1.3372809
1.3372342
1.3371825
1.3371264
1.3370667
1.3370043
1.3369403
1.3368758
1.3368117
1.3367491
1.3366889
1.3366317
1.3365783
1.3365289
1.3364838
1.3364433
1.3364072
1.3363755
1.3363479
1.3363242
1.336304
1.3362869
1.3362727
1.3362609
1.3362513
1.3362435
1.3362372
1.3362321
1.3362281
1.336225
1.3362225
1.3362206
1.3362192
1.3362181
1.3362172
1.3362166
1.3362161
1.3362157
1.3362155
1.3362153
1.3362151
1.336215
1.3362149
1.3362149
1.3362148
1.3362148
1.3362148
1.3362148
1.3362147
1.3362147
1.3362147
1.3362147
1.3362147
1.3362147
1.3362147
1.3362147
1.3362147
1.3362147
1.3362147
1.3362147
1.3362147
1.3362147
1.3362147
1.3362147
1.3362147
1.3362147
1.3362147
1.3362147
1.3362147
1.3362147
1.3362147
1.3362147
1.3362147
1.3362147
1.3362147
1.3362147
1.3362147
1.3362147
1.3362147
1.3362147
1.3362147
1.3362146
1.3362146
1.3362146
1.3362146
1.3362146
1.3362146
1.3362146
1.3362146
1.3362146
1.3362146
1.3362146
1.3362146
1.3362146
1.3362146
1.3362146
1.3362146
1.3362146
1.3362146
1.3362146
1.3362146
1.3362146
1.3362146
1.3362146
1.3362146
1.3362146
1.3362146
1.3362146
1.3362146
1.3362146
1.3362146
1.3362146
1.3362146
1.3362146
1.3362146
1.3362146
1.3362146
1.3362146
1.3362146
1.3362146
1.3362146
1.3362146
1.3362146
1.3362145
1.3362145
1.3362145
1.3362145
1.3362145
1.3362145
1.3362145
1.3362145
1.3362145
1.3362145
1.3362145
1.3362145
1.3362145
1.3362145
1.3362145
1.3362145
1.3362145
1.3362145
1.3362145
1.3362145
1.3362145
1.3362145
1.3362145
1.3362145
1.3362145
1.3362145
1.3362145
1.3362145
1.3362145
1.3362145
1.3362145
1.3362145
1.3362145
1.3362145
1.3362145
1.3362145
1.3362145
1.3362145
1.3362145
1.3362145
1.3362145
1.3362144
1.3362144
1.3362144
1.3362144
1.3362144
1.3362144
1.3362144
1.3362144
1.3362144
1.3362144
1.3362144
1.3362144
1.3362144
1.3362144
1.3362144
1.3362144
1.3362144
1.3362144
1.3362144
1.3362144
1.3362144
1.3362144
1.3362144
1.3362144
1.3362144
1.3362144
1.3362144
1.3362144
1.3362144
1.3362144
1.3362144
1.3362144
1.3362144
1.3362144
1.3362144
1.3362144
1.3362144
1.3362144
1.3362144
1.3362144
1.3362143
1.3362143
1.3362143
1.3362143
1.3362143
1.3362143
1.3362143
1.3362143
1.3362143
1.3362143
1.3362143
1.3362143
1.3362143
1.3362143
1.3362143
1.3362143
1.3362143
1.3362143
1.3362143
1.3362143
1.3362143
1.3362143
1.3362143
1.3362143
1.3362143
1.3362143
1.3362143
1.3362143
1.3362143
1.3362143
1.3362143
1.3362143
1.3362143
1.3362143
1.3362143
1.3362143
1.3362143
1.3362143
1.3362143
1.3362142
1.3362142
1.3362142
1.3362142
1.3362142
1.3362142
1.3362142
1.3362142
1.3362142
1.3362142
1.3362142
1.3362142
1.3362142
1.3362142
1.3362142
1.3362142
1.3362142
1.3362142
1.3362142
1.3362142
1.3362142
1.3362142
1.3362142
1.3362142
1.3362142
1.3362142
1.3362142
1.3362142
1.3362142
1.3362142
1.3362142
1.3362142
1.3362142
1.3362142
1.3362142
1.3362142
1.3362142
1.3362141
1.3362141
1.3362141
1.3362141
1.3362141
1.3362141
1.3362141
1.3362141
1.3362141
1.3362141
1.3362141
1.3362141
1.3362141
1.3362141
1.3362141
1.3362141
1.3362141
1.3362141
1.3362141
1.3362141
1.3362141
1.3362141
1.3362141
1.3362141
1.3362141
1.3362141
1.3362141
1.3362141
1.3362141
1.3362141
1.3362141
1.3362141
1.3362141
1.3362141
1.3362141
1.336214
1.336214
1.336214
1.336214
1.336214
1.336214
1.336214
1.336214
1.336214
1.336214
1.336214
1.336214
1.336214
1.336214
1.336214
1.336214
1.336214
1.336214
1.336214
1.336214
1.336214
1.336214
1.336214
1.336214
1.336214
1.336214
1.336214
1.336214
1.336214
1.336214
1.336214
1.336214
1.336214
1.336214
1.336214
1.336214
1.336214
1.3362139
1.3362139
1.3362139
1.3362139
1.3362139
1.3362139
1.3362139
1.3362139
1.3362139
1.3362139
1.3362139
1.3362139
1.3362139
1.3362139
1.3362139
1.3362139
1.3362139
1.3362139
1.3362139
1.3362139
1.3362139
1.3362139
1.3362139
1.3362139
1.3362139
1.3362139
1.3362139
1.3362139
1.3362139
1.3362139
1.3362139
1.3362139
1.3362139
1.3362139
1.3362138
1.3362138
1.3362138
1.3362138
1.3362138
1.3362138
1.3362138
1.3362138
1.3362138
1.3362138
1.3362138
1.3362138
1.3362138
1.3362138
1.3362138
1.3362138
1.3362138
1.3362138
1.3362138
1.3362138
1.3362138
1.3362138
1.3362138
1.3362138
1.3362138
1.3362138
1.3362138
1.3362138
1.3362138
1.3362138
1.3362137
1.3362137
1.3362137
1.3362137
1.3362137
1.3362137
1.3362137
1.3362137
1.3362137
1.3362137
1.3362137
1.3362137
1.3362137
1.3362137
1.3362137
1.3362137
1.3362137
1.3362137
1.3362137
1.3362137
1.3362137
1.3362137
1.3362137
1.3362137
1.3362137
1.3362137
1.3362137
1.3362137
1.3362137
1.3362137
1.3362137
1.3362137
1.3362136
1.3362136
1.3362136
1.3362136
1.3362136
1.3362136
1.3362136
1.3362136
1.3362136
1.3362136
1.3362136
1.3362136
1.3362136
1.3362136
1.3362136
1.3362136
1.3362136
1.3362136
1.3362136
1.3362136
1.3362136
1.3362136
1.3362136
1.3362136
1.3362136
1.3362136
1.3362136
1.3362136
1.3362136
1.3362136
1.3362136
1.3362136
1.3362136
1.3362135
1.3362135
1.3362135
1.3362135
1.3362135
1.3362135
1.3362135
1.3362135
1.3362135
1.3362135
1.3362135
1.3362135
1.3362135
1.3362135
1.3362135
1.3362135
1.3362135
1.3362135
1.3362135
1.3362135
1.3362135
1.3362135
1.3362135
1.3362135
1.3362135
1.3362135
1.3362135
1.3362134
1.3362134
1.3362134
1.3362134
1.3362134
1.3362134
1.3362134
1.3362134
1.3362134
1.3362134
1.3362134
1.3362134
1.3362134
1.3362134
1.3362134
1.3362134
1.3362134
1.3362134
1.3362134
1.3362134
1.3362134
1.3362134
1.3362134
1.3362134
1.3362134
1.3362134
1.3362134
1.3362134
1.3362134
1.3362134
1.3362133
1.3362133
1.3362133
1.3362133
1.3362133
1.3362133
1.3362133
1.3362133
1.3362133
1.3362133
1.3362133
1.3362133
1.3362133
1.3362133
1.3362133
1.3362133
1.3362133
1.3362133
1.3362133
1.3362133
1.3362133
1.3362133
1.3362133
1.3362133
1.3362133
1.3362133
1.3362133
1.3362133
1.3362132
1.3362132
1.3362132
1.3362132
1.3362132
1.3362132
1.3362132
1.3362132
1.3362132
1.3362132
1.3362132
1.3362132
1.3362132
1.3362132
1.3362132
1.3362132
1.3362132
1.3362132
1.3362132
1.3362132
1.3362132
1.3362132
1.3362132
1.3362132
1.3362132
1.3362132
1.3362131
1.3362131
1.3362131
1.3362131
1.3362131
1.3362131
1.3362131
1.3362131
1.3362131
1.3362131
1.3362131
1.3362131
1.3362131
1.3362131
1.3362131
1.3362131
1.3362131
1.3362131
1.3362131
1.3362131
1.3362131
1.3362131
1.3362131
1.3362131
1.3362131
1.3362131
1.3362131
1.3362131
1.336213
1.336213
1.336213
1.336213
1.336213
1.336213
1.336213
1.336213
1.336213
1.336213
1.336213
1.336213
1.336213
1.336213
1.336213
1.336213
1.336213
1.336213
1.336213
1.336213
1.336213
1.336213
1.336213
1.336213
1.336213
1.336213
1.336213
1.3362129
1.3362129
1.3362129
1.3362129
1.3362129
1.3362129
1.3362129
1.3362129
1.3362129
1.3362129
1.3362129
1.3362129
1.3362129
1.3362129
1.3362129
1.3362129
1.3362129
1.3362129
1.3362129
1.3362129
1.3362129
1.3362129
1.3362129
1.3362129
1.3362129
1.3362129
1.3362129
1.3362128
1.3362128
1.3362128
1.3362128
1.3362128
1.3362128
1.3362128
1.3362128
1.3362128
1.3362128
1.3362128
1.3362128
1.3362128
1.3362128
1.3362128
1.3362128
1.3362128
1.3362128
1.3362128
1.3362128
1.3362128
1.3362128
1.3362128
1.3362128
1.3362127
1.3362127
1.3362127
1.3362127
1.3362127
1.3362127
1.3362127
1.3362127
1.3362127
1.3362127
1.3362127
1.3362127
1.3362127
1.3362127
1.3362127
1.3362127
1.3362127
1.3362127
1.3362127
1.3362127
1.3362127
1.3362127
1.3362127
1.3362127
1.3362127
1.3362127
1.3362126
1.3362126
1.3362126
1.3362126
1.3362126
1.3362126
1.3362126
1.3362126
1.3362126
1.3362126
1.3362126
1.3362126
1.3362126
1.3362126
1.3362126
1.3362126
1.3362126
1.3362126
1.3362126
1.3362126
1.3362126
1.3362126
1.3362126
1.3362125
1.3362125
1.3362125
1.3362125
1.3362125
1.3362125
1.3362125
1.3362125
1.3362125
1.3362125
1.3362125
1.3362125
1.3362125
1.3362125
1.3362125
1.3362125
1.3362125
1.3362125
1.3362125
1.3362125
1.3362125
1.3362125
1.3362125
1.3362124
1.3362124
1.3362124
1.3362124
1.3362124
1.3362124
1.3362124
1.3362124
1.3362124
1.3362124
1.3362124
1.3362124
1.3362124
1.3362124
1.3362124
1.3362124
1.3362124
1.3362124
1.3362124
1.3362124
1.3362124
1.3362124
1.3362124
1.3362123
1.3362123
1.3362123
1.3362123
1.3362123
1.3362123
1.3362123
1.3362123
1.3362123
1.3362123
1.3362123
1.3362123
1.3362123
1.3362123
1.3362123
1.3362123
1.3362123
1.3362123
1.3362123
1.3362123
1.3362123
1.3362123
1.3362122
1.3362122
1.3362122
1.3362122
1.3362122
1.3362122
1.3362122
1.3362122
1.3362122
1.3362122
1.3362122
1.3362122
1.3362122
1.3362122
1.3362122
1.3362122
1.3362122
1.3362122
1.3362122
1.3362122
1.3362122
1.3362122
1.3362121
1.3362121
1.3362121
1.3362121
1.3362121
1.3362121
1.3362121
1.3362121
1.3362121
1.3362121
1.3362121
1.3362121
1.3362121
1.3362121
1.3362121
1.3362121
1.3362121
1.3362121
1.3362121
1.3362121
1.3362121
1.336212
1.336212
1.336212
1.336212
1.336212
1.336212
1.336212
1.336212
1.336212
1.336212
1.336212
1.336212
1.336212
1.336212
1.336212
1.336212
1.336212
1.336212
1.336212
1.336212
1.336212
1.3362119
1.3362119
1.3362119
1.3362119
1.3362119
1.3362119
1.3362119
1.3362119
1.3362119
1.3362119
1.3362119
1.3362119
1.3362119
1.3362119
1.3362119
1.3362119
1.3362119
1.3362119
1.3362119
1.3362119
1.3362119
1.3362118
1.3362118
1.3362118
1.3362118
1.3362118
1.3362118
1.3362118
1.3362118
1.3362118
1.3362118
1.3362118
1.3362118
1.3362118
1.3362118
1.3362118
1.3362118
1.3362118
1.3362118
1.3362118
1.3362118
1.3362117
1.3362117
1.3362117
1.3362117
1.3362117
1.3362117
1.3362117
1.3362117
1.3362117
1.3362117
1.3362117
1.3362117
1.3362117
1.3362117
1.3362117
1.3362117
1.3362117
1.3362117
1.3362117
1.3362116
1.3362116
1.3362116
1.3362116
1.3362116
1.3362116
1.3362116
1.3362116
1.3362116
1.3362116
1.3362116
1.3362116
1.3362116
1.3362116
1.3362116
1.3362116
1.3362116
1.3362116
1.3362116
1.3362115
1.3362115
1.3362115
1.3362115
1.3362115
1.3362115
1.3362115
1.3362115
1.3362115
1.3362115
1.3362115
1.3362115
1.3362115
1.3362115
1.3362115
1.3362115
1.3362115
1.3362115
1.3362115
1.3362114
1.3362114
1.3362114
1.3362114
1.3362114
1.3362114
1.3362114
1.3362114
1.3362114
1.3362114
1.3362114
1.3362114
1.3362114
1.3362114
1.3362114
1.3362114
1.3362114
1.3362113
1.3362113
1.3362113
1.3362113
1.3362113
1.3362113
1.3362113
1.3362113
1.3362113
1.3362113
1.3362113
1.3362113
1.3362113
1.3362113
1.3362113
1.3362113
1.3362113
1.3362112
1.3362112
1.3362112
1.3362112
1.3362112
1.3362112
1.3362112
1.3362112
1.3362112
1.3362112
1.3362112
1.3362112
1.3362112
1.3362112
1.3362112
1.3362111
1.3362111
1.3362111
1.3362111
1.3362111
1.3362111
1.3362111
1.3362111
1.3362111
1.3362111
1.3362111
1.3362111
1.336211
1.336211
1.336211
1.336211
1.336211
1.336211
1.336211
1.336211
1.336211
1.336211
1.336211
1.3362109
1.3362109
1.3362109
1.3362109
1.3362109
1.3362109
1.3362109
1.3362109
1.3362109
1.3362109
1.3362108
1.3362108
1.3362108
1.3362108
1.3362108
1.3362108
1.3362108
1.3362108
1.3362107
1.3362107
1.3362107
1.3362107
1.3362107
1.3362107
1.3362107
1.3362106
1.3362106
1.3362106
1.3362106
1.3362106
1.3362105
1.3362105
1.3362105
1.3362105
1.3362105
1.3362104
1.3362104
1.3362104
1.3362104
1.3362104
1.3362103
1.3362103
1.3362103
1.3362103
1.3362102
1.3362102
1.3362102
1.3362102
1.3362101
1.3362101
1.3362101
1.33621
1.33621
1.33621
1.3362099
1.3362099
1.3362099
1.3362098
1.3362098
1.3362097
1.3362097
1.3362096
1.3362096
1.3362096
1.3362095
1.3362095
1.3362094
1.3362094
1.3362093
1.3362093
1.3362092
1.3362091
1.3362091
1.336209
1.336209
1.3362089
1.3362088
1.3362088
1.3362087
1.3362086
1.3362085
1.3362085
1.3362084
1.3362083
1.3362082
1.3362081
1.3362081
1.336208
1.3362079
1.3362078
1.3362077
1.3362076
1.3362075
1.3362073
1.3362072
1.3362071
1.336207
1.3362069
1.3362067
1.3362066
1.3362065
1.3362063
1.3362062
1.336206
1.3362059
1.3362057
1.3362056
1.3362054
1.3362052
1.3362051
1.3362049
1.3362047
1.3362045
1.3362043
1.3362041
1.3362039
1.3362037
1.3362035
1.3362033
1.336203
1.3362028
1.3362025
1.3362023
1.336202
1.3362018
1.3362015
1.3362012
1.3362009
1.3362006
1.3362003
1.3362
1.3361997
1.3361994
1.336199
1.3361987
1.3361983
1.3361979
1.3361976
1.3361972
1.3361968
1.3361963
1.3361959
1.3361955
1.336195
1.3361946
1.3361941
1.3361936
1.3361931
1.3361926
1.3361921
1.3361916
1.336191
1.3361905
1.3361899
1.3361893
1.3361887
1.3361881
1.3361874
1.3361868
1.3361861
1.3361854
1.3361847
1.336184
1.3361832
1.3361825
1.3361817
1.3361809
1.3361801
1.3361792
1.3361784
1.3361775
1.3361766
1.3361757
1.3361747
1.3361737
1.3361727
1.3361717
1.3361707
1.3361696
1.3361685
1.3361674
1.3361663
1.3361651
1.3361639
1.3361627
1.3361614
1.3361602
1.3361588
1.3361575
1.3361561
1.3361547
1.3361533
1.3361518
1.3361503
1.3361488
1.3361472
1.3361456
1.336144
1.3361423
1.3361406
1.3361389
1.3361371
1.3361353
1.3361334
1.3361315
1.3361296
1.3361276
1.3361256
1.3361235
1.3361214
1.3361193
1.3361171
1.3361148
1.3361125
1.3361102
1.3361078
1.3361054
1.3361029
1.3361004
1.3360978
1.3360952
1.3360925
1.3360898
1.336087
1.3360842
1.3360813
1.3360783
1.3360753
1.3360723
1.3360692
1.336066
1.3360627
1.3360594
1.3360561
1.3360527
1.3360492
1.3360456
1.336042
1.3360384
1.3360346
1.3360308
1.336027
1.336023
1.336019
1.3360149
1.3360108
1.3360066
1.3360023
1.3359979
1.3359935
1.335989
1.3359844
1.3359797
1.335975
1.3359701
1.3359652
1.3359603
1.3359552
1.3359501
1.3359449
1.3359396
1.3359342
1.3359287
1.3359232
1.3359175
1.3359118
1.335906
1.3359001
1.3358941
1.335888
1.3358819
1.3358756
1.3358693
1.3358628
1.3358563
1.3358497
1.335843
1.3358361
1.3358292
1.3358222
1.3358151
1.335808
1.3358007
1.3357933
1.3357858
1.3357782
1.3357705
1.3357627
1.3357548
1.3357468
1.3357387
1.3357305
1.3357223
1.3357139
1.3357053
1.3356967
1.335688
1.3356792
1.3356703
1.3356613
1.3356521
1.3356429
1.3356335
1.3356241
1.3356145
1.3356049
1.3355951
1.3355852
1.3355752
1.3355651
1.3355549
1.3355446
1.3355342
1.3355237
1.335513
1.3355023
1.3354914
1.3354805
1.3354694
1.3354582
1.3354469
1.3354355
1.335424
1.3354124
1.3354007
1.3353889
1.3353769
1.3353649
1.3353528
1.3353405
1.3353281
1.3353157
1.3353031
1.3352904
1.3352777
1.3352648
1.3352518
1.3352387
1.3352255
1.3352122
1.3351988
1.3351853
1.3351717
1.335158
1.3351442
1.3351303
1.3351164
1.3351023
1.3350881
1.3350738
1.3350594
1.335045
1.3350304
1.3350158
1.335001
1.3349862
1.3349713
1.3349563
1.3349412
1.334926
1.3349107
1.3348954
1.33488
1.3348644
1.3348489
1.3348332
1.3348174
1.3348016
1.3347857
1.3347697
1.3347537
1.3347376
1.3347214
1.3347051
1.3346888
1.3346724
1.334656
1.3346395
1.3346229
1.3346062
1.3345896
1.3345728
1.334556
1.3345391
1.3345222
1.3345053
1.3344883
1.3344712
1.3344541
1.334437
1.3344198
1.3344025
1.3343853
1.334368
1.3343506
1.3343332
1.3343158
1.3342984
1.3342809
1.3342634
1.3342459
1.3342284
1.3342108
1.3341932
1.3341756
1.334158
1.3341404
1.3341228
1.3341051
1.3340874
1.3340698
1.3340521
1.3340344
1.3340168
1.3339991
1.3339814
1.3339638
1.3339461
1.3339285
1.3339108
1.3338932
1.3338756
1.333858
1.3338404
1.3338228
1.3338053
1.3337878
1.3337703
1.3337529
1.3337354
1.333718
1.3337007
1.3336833
1.333666
1.3336488
1.3336315
1.3336144
1.3335972
1.3335801
1.3335631
1.3335461
1.3335292
1.3335123
1.3334954
1.3334787
1.3334619
1.3334453
1.3334287
1.3334121
1.3333956
1.3333792
1.3333629
1.3333466
1.3333304
1.3333142
1.3332982
1.3332822
1.3332663
1.3332504
1.3332347
1.333219
1.3332034
1.3331879
1.3331724
1.3331571
1.3331418
1.3331267
1.3331116
1.3330966
1.3330817
1.3330669
1.3330521
1.3330375
1.333023
1.3330086
1.3329942
1.33298
1.3329659
1.3329518
1.3329379
1.3329241
1.3329103
1.3328967
1.3328832
1.3328698
1.3328565
1.3328433
1.3328302
1.3328172
1.3328043
1.3327915
1.3327789
1.3327663
1.3327539
1.3327416
1.3327294
1.3327173
1.3327053
1.3326934
1.3326817
1.33267
1.3326585
1.3326471
1.3326358
1.3326246
1.3326135
1.3326026
1.3325917
1.332581
1.3325704
1.3325599
1.3325495
1.3325393
1.3325291
1.3325191
1.3325092
1.3324994
1.3324897
1.3324801
1.3324707
1.3324613
1.3324521
1.332443
1.332434
1.3324251
1.3324163
1.3324077
1.3323991
1.3323907
1.3323824
1.3323742
1.3323661
1.3323581
1.3323502
1.3323425
1.3323348
1.3323273
1.3323198
1.3323125
1.3323052
1.3322981
1.3322911
1.3322842
1.3322774
1.3322707
1.3322641
1.3322576
1.3322512
1.3322449
1.3322387
1.3322326
1.3322266
1.3322207
1.3322149
1.3322092
1.3322036
1.3321981
1.3321926
1.3321873
1.3321821
1.3321769
1.3321718
1.3321669
1.332162
1.3321572
1.3321525
1.3321479
1.3321433
1.3321389
1.3321345
1.3321302
1.332126
1.3321218
1.3321178
1.3321138
1.3321099
1.3321061
1.3321024
1.3320987
1.3320951
1.3320916
1.3320881
1.3320847
1.3320814
1.3320782
1.332075
1.3320719
1.3320688
1.3320658
1.3320629
1.3320601
1.3320573
1.3320546
1.3320519
1.3320493
1.3320467
1.3320442
1.3320418
1.3320394
1.3320371
1.3320348
1.3320326
1.3320304
1.3320283
1.3320262
1.3320242
1.3320222
1.3320203
1.3320184
1.3320166
1.3320148
1.332013
1.3320113
1.3320097
1.3320081
1.3320065
1.332005
1.3320035
1.332002
1.3320006
1.3319992
1.3319979
1.3319966
1.3319953
1.3319941
1.3319928
1.3319917
1.3319905
1.3319894
1.3319883
1.3319873
1.3319863
1.3319853
1.3319843
1.3319834
1.3319825
1.3319816
1.3319807
1.3319799
1.3319791
1.3319783
1.3319776
1.3319768
1.3319761
1.3319754
1.3319747
1.3319741
1.3319735
1.3319729
1.3319723
1.3319717
1.3319711
1.3319706
1.3319701
1.3319696
1.3319691
1.3319686
1.3319681
1.3319677
1.3319673
1.3319669
1.3319665
1.3319661
1.3319657
1.3319653
1.331965
1.3319647
1.3319643
1.331964
1.3319637
1.3319634
1.3319631
1.3319629
1.3319626
1.3319624
1.3319621
1.3319619
1.3319617
1.3319614
1.3319612
1.331961
1.3319608
1.3319606
1.3319605
1.3319603
1.3319601
1.33196
1.3319598
1.3319596
1.3319595
1.3319594
1.3319592
1.3319591
1.331959
1.3319589
1.3319587
1.3319586
1.3319585
1.3319584
1.3319583
1.3319582
1.3319581
1.3319581
1.331958
1.3319579
1.3319578
1.3319577
1.3319577
1.3319576
1.3319575
1.3319575
1.3319574
1.3319573
1.3319573
1.3319572
1.3319572
1.3319571
1.3319571
1.331957
1.331957
1.3319569
1.3319569
1.3319568
1.3319568
1.3319567
1.3319567
1.3319567
1.3319566
1.3319566
1.3319566
1.3319565
1.3319565
1.3319565
1.3319564
1.3319564
1.3319564
1.3319563
1.3319563
1.3319563
1.3319562
1.3319562
1.3319562
1.3319561
1.3319561
1.3319561
1.3319561
1.331956
1.331956
1.331956
1.3319559
1.3319559
1.3319559
1.3319559
1.3319558
1.3319558
1.3319558
1.3319557
1.3319557
1.3319557
1.3319557
1.3319556
1.3319556
1.3319556
1.3319555
1.3319555
1.3319555
1.3319554
1.3319554
1.3319554
1.3319554
1.3319553
1.3319553
1.3319553
1.3319552
1.3319552
1.3319552
1.3319551
1.3319551
1.3319551
1.331955
1.331955
1.331955
1.3319549
1.3319549
1.3319548
1.3319548
1.3319548
1.3319547
1.3319547
1.3319547
1.3319546
1.3319546
1.3319545
1.3319545
1.3319545
1.3319544
1.3319544
1.3319543
1.3319543
1.3319543
1.3319542
1.3319542
1.3319541
1.3319541
1.331954
1.331954
1.3319539
1.3319539
1.3319539
1.3319538
1.3319538
1.3319537
1.3319537
1.3319536
1.3319536
1.3319535
1.3319535
1.3319534
1.3319534
1.3319533
1.3319533
1.3319532
1.3319532
1.3319531
1.331953
1.331953
1.3319529
1.3319529
1.3319528
1.3319528
1.3319527
1.3319527
1.3319526
1.3319525
1.3319525
1.3319524
1.3319524
1.3319523
1.3319522
1.3319522
1.3319521
1.3319521
1.331952
1.331952
1.3319519
1.3319518
1.3319518
1.3319517
1.3319516
1.3319516
1.3319515
1.3319514
1.3319514
1.3319513
1.3319512
1.3319512
1.3319511
1.331951
1.331951
1.3319509
1.3319508
1.3319508
1.3319507
1.3319506
1.3319506
1.3319505
1.3319504
1.3319503
1.3319503
1.3319502
1.3319501
1.3319501
1.33195
1.3319499
1.3319498
1.3319498
1.3319497
1.3319496
1.3319495
1.3319495
1.3319494
1.3319493
1.3319492
1.3319491
1.3319491
1.331949
1.3319489
1.3319488
1.3319488
1.3319487
1.3319486
1.3319485
1.3319484
1.3319483
1.3319483
1.3319482
1.3319481
1.331948
1.3319479
1.3319478
1.3319478
1.3319477
1.3319476
1.3319475
1.3319474
1.3319473
1.3319472
1.3319472
1.3319471
1.331947
1.3319469
1.3319468
1.3319467
1.3319466
1.3319465
1.3319464
1.3319463
1.3319462
1.3319462
1.3319461
1.331946
1.3319459
1.3319458
1.3319457
1.3319456
1.3319455
1.3319454
1.3319453
1.3319452
1.3319451
1.331945
1.3319449
1.3319448
1.3319447
1.3319446
1.3319445
1.3319444
1.3319443
1.3319442
1.3319441
1.331944
1.3319439
1.3319438
1.3319437
1.3319436
1.3319435
1.3319434
1.3319433
1.3319432
1.3319431
1.331943
1.3319429
1.3319428
1.3319427
1.3319426
1.3319425
1.3319424
1.3319423
1.3319422
1.331942
1.3319419
1.3319418
1.3319417
1.3319416
1.3319415
1.3319414
1.3319413
1.3319412
1.3319411
1.331941
1.3319408
1.3319407
1.3319406
1.3319405
1.3319404
1.3319403
1.3319402
1.3319401
1.3319399
1.3319398
1.3319397
1.3319396
1.3319395
1.3319394
1.3319392
1.3319391
1.331939
1.3319389
1.3319388
1.3319387
1.3319385
1.3319384
1.3319383
1.3319382
1.3319381
1.331938
1.3319378
1.3319377
1.3319376
1.3319375
1.3319374
1.3319372
1.3319371
1.331937
1.3319369
1.3319368
1.3319366
1.3319365
1.3319364
1.3319363
1.3319362
1.331936
1.3319359
1.3319358
1.3319357
1.3319355
1.3319354
1.3319353
1.3319352
1.3319351
1.3319349
1.3319348
1.3319347
1.3319346
1.3319344
1.3319343
1.3319342
1.3319341
1.3319339
1.3319338
1.3319337
1.3319336
1.3319334
1.3319333
1.3319332
1.331933
1.3319329
1.3319328
1.3319327
1.3319325
1.3319324
1.3319323
1.3319322
1.331932
1.3319319
1.3319318
1.3319317
1.3319315
1.3319314
1.3319313
1.3319311
1.331931
1.3319309
1.3319308
1.3319306
1.3319305
1.3319304
1.3319302
1.3319301
1.33193
1.3319299
1.3319297
1.3319296
1.3319295
1.3319294
1.3319292
1.3319291
1.331929
1.3319288
1.3319287
1.3319286
1.3319285
1.3319283
1.3319282
1.3319281
1.3319279
1.3319278
1.3319277
1.3319276
1.3319274
1.3319273
1.3319272
1.331927
1.3319269
1.3319268
1.3319267
1.3319265
1.3319264
1.3319263
1.3319262
1.331926
1.3319259
1.3319258
1.3319256
1.3319255
1.3319254
1.3319253
1.3319251
1.331925
1.3319249
1.3319248
1.3319246
1.3319245
1.3319244
1.3319243
1.3319241
1.331924
1.3319239
1.3319238
1.3319236
1.3319235
1.3319234
1.3319233
1.3319231
1.331923
1.3319229
1.3319228
1.3319226
1.3319225
1.3319224
1.3319223
1.3319221
1.331922
1.3319219
1.3319218
1.3319217
1.3319215
1.3319214
1.3319213
1.3319212
1.331921
1.3319209
1.3319208
1.3319207
1.3319206
1.3319204
1.3319203
1.3319202
1.3319201
1.33192
1.3319198
1.3319197
1.3319196
1.3319195
1.3319194
1.3319192
1.3319191
1.331919
1.3319189
1.3319188
1.3319187
1.3319185
1.3319184
1.3319183
1.3319182
1.3319181
1.331918
1.3319179
1.3319177
1.3319176
1.3319175
1.3319174
1.3319173
1.3319172
1.331917
1.3319169
1.3319168
1.3319167
1.3319166
1.3319165
1.3319164
1.3319163
1.3319161
1.331916
1.3319159
1.3319158
1.3319157
1.3319156
1.3319155
1.3319154
1.3319153
1.3319152
1.3319151
1.3319149
1.3319148
1.3319147
1.3319146
1.3319145
1.3319144
1.3319143
1.3319142
1.3319141
1.331914
1.3319139
1.3319138
1.3319137
1.3319136
1.3319134
1.3319133
1.3319132
1.3319131
1.331913
1.3319129
1.3319128
1.3319127
1.3319126
1.3319125
1.3319124
1.3319123
1.3319122
1.3319121
1.331912
1.3319119
1.3319118
1.3319117
1.3319116
1.3319115
1.3319114
1.3319113
1.3319112
1.3319111
1.331911
1.3319109
1.3319108
1.3319107
1.3319106
1.3319105
1.3319104
1.3319103
1.3319102
1.3319101
1.33191
1.3319099
1.3319098
1.3319097
1.3319096
1.3319095
1.3319094
1.3319093
1.3319093
1.3319092
1.3319091
1.331909
1.3319089
1.3319088
1.3319087
1.3319086
1.3319085
1.3319084
1.3319083
1.3319082
1.3319081
1.331908
1.3319079
1.3319078
1.3319077
1.3319076
1.3319075
1.3319075
1.3319074
1.3319073
1.3319072
1.3319071
1.331907
1.3319069
1.3319068
1.3319067
1.3319066
1.3319065
1.3319064
1.3319063
1.3319063
1.3319062
1.3319061
1.331906
1.3319059
1.3319058
1.3319057
1.3319056
1.3319055
1.3319054
1.3319053
1.3319052
1.3319052
1.3319051
1.331905
1.3319049
1.3319048
1.3319047
1.3319046
1.3319045
1.3319044
1.3319043
1.3319042
1.3319041
1.331904
1.331904
1.3319039
1.3319038
1.3319037
1.3319036
1.3319035
1.3319034
1.3319033
1.3319032
1.3319031
1.331903
1.3319029
1.3319028
1.3319027
1.3319026
1.3319026
1.3319025
1.3319024
1.3319023
1.3319022
1.3319021
1.331902
1.3319019
1.3319018
1.3319017
1.3319016
1.3319015
1.3319014
1.3319013
1.3319012
1.3319011
1.331901
1.3319009
1.3319008
1.3319007
1.3319006
1.3319005
1.3319004
1.3319003
1.3319002
1.3319001
1.3319
1.3318999
1.3318998
1.3318997
1.3318996
1.3318995
1.3318994
1.3318993
1.3318992
1.3318991
1.331899
1.3318989
1.3318988
1.3318987
1.3318986
1.3318985
1.3318984
1.3318983
1.3318982
1.3318981
1.331898
1.3318979
1.3318977
1.3318976
1.3318975
1.3318974
1.3318973
1.3318972
1.3318971
1.331897
1.3318969
1.3318968
1.3318967
1.3318965
1.3318964
1.3318963
1.3318962
1.3318961
1.331896
1.3318958
1.3318957
1.3318956
1.3318955
1.3318954
1.3318952
1.3318951
1.331895
1.3318949
1.3318948
1.3318946
1.3318945
1.3318944
1.3318943
1.3318941
1.331894
1.3318939
1.3318937
1.3318936
1.3318935
1.3318934
1.3318932
1.3318931
1.331893
1.3318928
1.3318927
1.3318925
1.3318924
1.3318923
1.3318921
1.331892
1.3318918
1.3318917
1.3318916
1.3318914
1.3318913
1.3318911
1.331891
1.3318908
1.3318907
1.3318905
1.3318904
1.3318903
1.3318901
1.33189
1.3318898
1.3318896
1.3318895
1.3318893
1.3318892
1.331889
1.3318889
1.3318887
1.3318885
1.3318884
1.3318882
1.331888
1.3318879
1.3318877
1.3318875
1.3318874
1.3318872
1.331887
1.3318868
1.3318866
1.3318865
1.3318863
1.3318861
1.3318859
1.3318857
1.3318855
1.3318853
1.3318852
1.331885
1.3318848
1.3318846
1.3318844
1.3318842
1.331884
1.3318838
1.3318836
1.3318834
1.3318832
1.3318829
1.3318827
1.3318825
1.3318823
1.3318821
1.3318819
1.3318816
1.3318814
1.3318812
1.331881
1.3318807
1.3318805
1.3318803
1.33188
1.3318798
1.3318795
1.3318793
1.331879
1.3318788
1.3318785
1.3318782
1.331878
1.3318777
1.3318775
1.3318772
1.3318769
1.3318766
1.3318764
1.3318761
1.3318758
1.3318755
1.3318752
1.3318749
1.3318746
1.3318743
1.331874
1.3318737
1.3318734
1.3318731
1.3318728
1.3318725
1.3318721
1.3318718
1.3318715
1.3318711
1.3318708
1.3318704
1.3318701
1.3318697
1.3318693
1.331869
1.3318686
1.3318682
1.3318678
1.3318674
1.331867
1.3318666
1.3318662
1.3318658
1.3318654
1.3318649
1.3318645
1.3318641
1.3318636
1.3318632
1.3318627
1.3318622
1.3318618
1.3318613
1.3318608
1.3318603
1.3318598
1.3318593
1.3318588
1.3318583
1.3318578
1.3318573
1.3318568
1.3318562
1.3318557
1.3318552
1.3318546
1.3318541
1.3318536
1.3318531
1.3318525
1.331852
1.3318515
1.331851
1.3318505
1.33185
1.3318495
1.3318491
1.3318487
1.3318483
1.3318479
1.3318475
1.3318472
1.3318469
1.3318466
1.3318464
1.3318462
1.331846
1.3318458
1.3318457
1.3318456
1.3318455
1.3318455
1.3318454
1.3318454
1.3318454
1.3318454
1.3318454
1.3318455
1.3318455
1.3318455
1.3318455
1.3318455
1.3318455
1.3318454
1.3318452
1.331845
1.3318447
1.3318443
1.3318439
1.3318434
1.3318427
1.3318421
1.3318413
1.3318405
1.3318396
1.3318387
1.3318377
1.3318367
1.3318356
1.3318345
1.3318335
1.3318323
1.3318312
1.3318301
1.331829
1.3318281
1.3318273
1.3318267
1.3318261
1.3318255
1.3318248
1.331824
1.3318232
1.3318226
1.331822
1.3318212
1.3318196
1.3318162
1.331809
1.3317926
1.3317548
1.3316648
1.3314517
1.3309398
1.3300645
1.328908
1.3274563
1.3257052
1.3236606
1.321338
1.3187621
1.3159655
1.312987
1.3098697
1.3066593
1.3034023
1.300144
1.2969271
1.2937905
1.2907679
1.287888
1.2851733
1.2826407
1.2803012
1.2781606
1.27622
1.2744763
1.2729232
1.2715513
1.2703495
1.269305
1.2684044
1.2676337
1.2669791
1.2664273
1.2659655
1.265582
1.2652657
1.2650068
1.2647963
1.2646263
1.2644901
1.2643818
1.2642962
1.2642293
1.2641774
1.2641376
1.2641073
1.2640845
1.2640674
1.2640549
1.2640458
1.2640394
1.264035
1.2640323
1.2640308
1.2640302
1.26403
1.2640301
1.2640307
1.2640321
1.2640337
1.2640353
1.2640369
1.2640385
1.2640402
1.2640419
1.2640436
1.2640453
1.2640471
1.2640489
1.2640508
1.2640527
1.2640546
1.2640565
1.2640585
1.2640604
1.2640624
1.2640644
1.2640663
1.2640682
1.2640701
1.264072
1.2640738
1.2640756