/*--------------------------------*- C++ -*----------------------------------*\
  =========                 |
  \\      /  F ield         | OpenFOAM: The Open Source CFD Toolbox
   \\    /   O peration     | Website:  https://openfoam.org
    \\  /    A nd           | Version:  7
     \\/     M anipulation  |
\*---------------------------------------------------------------------------*/
FoamFile
{
    version     2.0;
    format      ascii;
    class       volVectorField;
    location    "0.00346";
    object      U;
}
// * * * * * * * * * * * * * * * * * * * * * * * * * * * * * * * * * * * * * //

dimensions      [0 1 -1 0 0 0 0];

internalField   nonuniform List<vector> 
5000
(
(23.099848 7.7993331e-22 0)
(23.099847 1.0587999e-21 0)
(23.099847 0 0)
(23.099847 0 0)
(23.099847 -5.1127386e-22 0)
(23.099847 5.5454029e-37 -4.877788e-22)
(23.099847 4.4211007e-22 -9.424143e-37)
(23.099846 0 1.309667e-21)
(23.099846 0 4.7756662e-22)
(23.099846 -5.0173389e-22 -1.0034678e-21)
(23.099846 -1.0215146e-21 -1.0215146e-21)
(23.099846 5.1285675e-22 5.1285675e-22)
(23.099846 5.1287523e-22 -4.3730372e-36)
(23.099846 -5.1227331e-22 -4.5135018e-36)
(23.099845 0 1.0222058e-21)
(23.099845 -5.0961004e-22 -1.0192201e-21)
(23.099845 -1.6536516e-51 -8.2682579e-52)
(23.099845 5.0521753e-22 -4.4513352e-36)
(23.099845 0 -5.0219359e-22)
(23.099845 4.991152e-22 9.9823039e-22)
(23.099845 -4.9636968e-22 4.9636968e-22)
(23.099844 -4.9401373e-22 0)
(23.099844 9.8431056e-22 0)
(23.099844 -4.8894708e-22 -4.8894708e-22)
(23.099844 -4.8616472e-22 4.1452898e-36)
(23.099844 -4.0207375e-36 -4.0207375e-36)
(23.099844 4.9224738e-22 -4.9224738e-22)
(23.099844 4.9634125e-22 4.9634125e-22)
(23.099844 -9.9766732e-22 4.9883366e-22)
(23.099843 8.6668139e-36 -4.9989575e-22)
(23.099843 -8.7409882e-36 8.7409882e-36)
(23.099843 4.9967526e-22 -4.2604875e-36)
(23.099843 9.9762081e-22 -4.988104e-22)
(23.099843 -9.9479338e-22 4.9739669e-22)
(23.099843 8.584702e-36 4.9515959e-22)
(23.099843 -4.2800589e-35 0)
(23.099842 -1.6957921e-35 0)
(23.099842 9.7331244e-22 -4.8665622e-22)
(23.099842 -9.6842403e-22 -4.8421202e-22)
(23.099842 -9.6580029e-22 4.8290015e-22)
(23.099842 9.6858938e-22 -8.121045e-36)
(23.099842 -3.3497924e-35 -4.8702621e-22)
(23.099842 -9.7924974e-22 4.8962487e-22)
(23.099842 4.917381e-22 -8.3157422e-36)
(23.099841 1.4795989e-21 -4.9319963e-22)
(23.099841 -4.9313975e-22 4.9313975e-22)
(23.099841 -4.9095495e-22 -1.6884073e-35)
(23.099841 -3.3387382e-35 1.6693691e-35)
(23.099841 -9.6798426e-22 -1.6644619e-35)
(23.099841 0 8.2082076e-36)
(23.099841 4.7842986e-22 4.7842986e-22)
(23.099841 6.7778184e-38 0)
(23.09984 -4.790927e-22 0)
(23.09984 9.6606335e-22 0)
(23.09984 -1.7021907e-35 0)
(23.09984 -9.7783747e-22 0)
(23.09984 4.8870992e-22 0)
(23.09984 -1.6787657e-35 0)
(23.09984 -4.8160797e-22 0)
(23.099839 0 0)
(23.099839 4.7372605e-22 0)
(23.099839 1.6062754e-35 0)
(23.099839 1.3455513e-37 0)
(23.099839 4.7873945e-22 -4.7873945e-22)
(23.099839 -4.8328699e-22 -4.8328699e-22)
(23.099839 1.6984616e-35 4.85848e-22)
(23.099839 4.850646e-22 -8.3407508e-36)
(23.099838 -4.8119053e-22 -2.1585624e-52)
(23.099838 -4.7745386e-22 4.7745386e-22)
(23.099838 4.7383237e-22 0)
(23.099838 4.7146165e-22 0)
(23.099838 -4.7313807e-22 -4.7313807e-22)
(23.099838 -4.774391e-22 -4.774391e-22)
(23.099838 9.625794e-22 0)
(23.099838 4.8284153e-22 4.8284153e-22)
(23.099837 -4.8168944e-22 1.6633881e-35)
(23.099837 0 -4.7930426e-22)
(23.099837 4.7761624e-22 -4.7761624e-22)
(23.099837 -6.7649523e-38 4.760412e-22)
(23.099837 -4.7510046e-22 9.5020092e-22)
(23.099837 4.7629074e-22 -9.5258147e-22)
(23.099837 -1.3603464e-37 2.7206927e-37)
(23.099837 1.3660396e-37 1.4418974e-21)
(23.099836 4.8087208e-22 -9.6174416e-22)
(23.099836 4.7960079e-22 -4.9889732e-35)
(23.099836 1.6651438e-35 9.565231e-22)
(23.099836 -4.7722667e-22 -1.43168e-21)
(23.099836 0 4.7644811e-22)
(23.099836 -4.7644411e-22 4.7644411e-22)
(23.099836 -4.9529039e-35 -4.7743785e-22)
(23.099836 -1.6736425e-35 4.7874846e-22)
(23.099835 4.7956663e-22 4.7956663e-22)
(23.099835 4.7946776e-22 1.6693434e-35)
(23.099835 -9.5779423e-22 -9.5779423e-22)
(23.099835 -3.3115395e-35 -3.3115395e-35)
(23.099835 4.781853e-22 -4.781853e-22)
(23.099835 0 -4.7799891e-22)
(23.099835 0 -1.6786748e-35)
(23.099835 -4.7876895e-22 3.3338208e-35)
(23.099834 -3.3225164e-35 9.5820208e-22)
(23.099834 9.581186e-22 4.790593e-22)
(23.099834 -4.789072e-22 -4.789072e-22)
(23.099834 -9.5752279e-22 6.8036086e-38)
(23.099834 0 4.7869735e-22)
(23.099834 4.7883342e-22 0)
(23.099834 4.7905752e-22 -4.7905752e-22)
(23.099834 -4.7922145e-22 -1.6684859e-35)
(23.099833 -4.7924299e-22 4.7924299e-22)
(23.099833 0 -4.7915949e-22)
(23.099833 0 -4.791027e-22)
(23.099833 4.7918753e-22 9.5837506e-22)
(23.099833 4.794849e-22 4.794849e-22)
(23.099833 0 -1.4391539e-21)
(23.099833 -4.7977587e-22 -4.7977587e-22)
(23.099833 1.6771665e-35 1.4392696e-21)
(23.099832 4.7966013e-22 -4.7966013e-22)
(23.099832 -4.7961011e-22 -4.7961011e-22)
(23.099832 1.3635833e-37 -2.7271665e-37)
(23.099832 -1.6785784e-35 -4.8016038e-22)
(23.099832 3.4724197e-54 1.4414878e-21)
(23.099832 9.6128124e-22 -3.3605145e-35)
(23.099832 -2.0492699e-37 -9.6136365e-22)
(23.099832 -4.8062812e-22 9.6125623e-22)
(23.099831 0 4.8061324e-22)
(23.099831 -4.8080185e-22 -4.8080185e-22)
(23.099831 4.8120415e-22 4.8120415e-22)
(23.099831 4.8152665e-22 -4.8152665e-22)
(23.099831 -9.6316456e-22 -9.6316456e-22)
(23.099831 -4.8151972e-22 4.8151972e-22)
(23.099831 9.6298015e-22 1.6626997e-35)
(23.099831 4.8154231e-22 4.8154231e-22)
(23.09983 -4.8169714e-22 9.6339427e-22)
(23.09983 -4.8185478e-22 -4.8185478e-22)
(23.09983 -4.8186667e-22 -4.8186667e-22)
(23.09983 0 -4.8183987e-22)
(23.09983 4.8181219e-22 -1.6775059e-35)
(23.09983 4.8180802e-22 -1.6706445e-35)
(23.09983 -4.8198357e-22 1.6781026e-35)
(23.09983 -1.6724949e-35 9.6468335e-22)
(23.099829 4.8271351e-22 4.8271351e-22)
(23.099829 -4.8291216e-22 -4.8291216e-22)
(23.099829 -4.8294464e-22 -9.6588928e-22)
(23.099829 0 -4.8295833e-22)
(23.099829 4.8300568e-22 -4.8300568e-22)
(23.099829 4.8307424e-22 3.3500702e-35)
(23.099829 -4.8317286e-22 9.6634572e-22)
(23.099828 4.8328319e-22 -1.3735734e-37)
(23.099828 -2.7478172e-37 1.3739086e-37)
(23.099828 -4.8355904e-22 -7.7216969e-53)
(23.099828 4.8378436e-22 4.8378436e-22)
(23.099828 -4.839873e-22 -3.3564021e-35)
(23.099828 3.3704914e-35 6.7409827e-35)
(23.099828 4.8397784e-22 4.8397784e-22)
(23.099828 -4.8395428e-22 -4.8395428e-22)
(23.099827 4.8394823e-22 4.8394823e-22)
(23.099827 4.8395847e-22 1.6781011e-35)
(23.099827 -4.8405986e-22 -4.8405986e-22)
(23.099827 0 4.8422419e-22)
(23.099827 0 -6.8830595e-38)
(23.099827 -4.8436734e-22 -4.8436734e-22)
(23.099827 -4.8432695e-22 0)
(23.099827 4.842965e-22 4.842965e-22)
(23.099826 4.8428319e-22 3.351572e-35)
(23.099826 -4.8429892e-22 -9.6859784e-22)
(23.099826 -3.358829e-35 4.8433725e-22)
(23.099826 4.8439463e-22 -1.3767323e-37)
(23.099826 -4.8447146e-22 -4.8447146e-22)
(23.099826 -4.8458664e-22 4.8458664e-22)
(23.099826 0 -4.8475144e-22)
(23.099826 4.8493867e-22 4.8493867e-22)
(23.099825 4.8510073e-22 -2.0212317e-34)
(23.099825 0 -1.3458157e-34)
(23.099825 -4.850477e-22 4.850477e-22)
(23.099825 -4.8485579e-22 -9.6971158e-22)
(23.099825 0 0)
(23.099825 4.8327078e-22 -3.3514331e-35)
(23.099825 1.002647e-34 -1.002647e-34)
(23.099825 -4.8145336e-22 4.8145336e-22)
(23.099824 4.8082561e-22 4.8082561e-22)
(23.099824 4.7976835e-22 3.3066904e-35)
(23.099824 -4.794256e-22 -4.794256e-22)
(23.099824 -3.3149094e-35 4.7997122e-22)
(23.099824 3.3102106e-35 3.3102106e-35)
(23.099824 2.0610618e-37 2.0610618e-37)
(23.099824 4.8662357e-22 6.7424534e-35)
(23.099824 -4.9051254e-22 -9.8102508e-22)
(23.099823 -6.8602888e-35 4.9462081e-22)
(23.099823 3.4269206e-35 4.9823988e-22)
(23.099823 -3.4412152e-35 -3.4412152e-35)
(23.099823 4.9927463e-22 3.4411329e-35)
(23.099823 0 -1.0266153e-34)
(23.099823 0 3.339242e-35)
(23.099823 -4.6861765e-22 -4.6861765e-22)
(23.099822 -4.5015735e-22 0)
(23.099822 0 0)
(23.099822 0 0)
(23.099822 3.7531351e-22 0)
(23.099822 -9.2875094e-52 -3.5927209e-22)
(23.099823 -3.9910886e-22 8.3203516e-35)
(23.099824 0 4.316124e-22)
(23.099823 5.6188132e-22 5.6188132e-22)
(23.099822 -6.666173e-22 -6.666173e-22)
(23.099821 -1.3061579e-34 -4.7134714e-22)
(23.099821 6.6290864e-22 6.6290864e-22)
(23.099821 -3.6679514e-22 2.5384741e-35)
(23.099821 -8.7799103e-35 -8.7799103e-35)
(23.099821 -6.3594912e-38 -4.4750941e-22)
(23.099821 -4.4844519e-22 -4.4844519e-22)
(23.099821 4.5685928e-22 4.5685928e-22)
(23.09982 -6.6623693e-38 0)
(23.09982 -6.5825193e-35 4.7556839e-22)
(23.09982 3.3057842e-35 3.3057842e-35)
(23.09982 -4.7862337e-22 -4.7862337e-22)
(23.09982 0 -4.7829361e-22)
(23.09982 4.77669e-22 6.6523231e-35)
(23.09982 3.3074483e-35 4.7790756e-22)
(23.09982 1.3260729e-34 -9.5559738e-22)
(23.099819 4.7590481e-22 4.7590481e-22)
(23.099819 0 4.7334273e-22)
(23.099819 -4.7106144e-22 -4.7106144e-22)
(23.099819 -4.6939443e-22 4.6939443e-22)
(23.099819 0 0)
(23.099819 0 0)
(23.099819 0 0)
(23.099819 4.6828999e-22 4.6828999e-22)
(23.099819 3.2297584e-35 -4.6668182e-22)
(23.099818 -4.6529202e-22 -9.3058404e-22)
(23.099818 0 4.6522891e-22)
(23.099818 0 -3.2446377e-35)
(23.099818 4.6768771e-22 4.6768771e-22)
(23.099818 4.6645459e-22 4.6645459e-22)
(23.099818 -4.6452618e-22 -9.2905236e-22)
(23.099818 -4.6201279e-22 1.3131193e-37)
(23.099818 0 -1.3077081e-37)
(23.099817 4.6046842e-22 4.6046842e-22)
(23.099817 4.6287908e-22 4.6287908e-22)
(23.099817 -4.6430637e-22 -9.2861274e-22)
(23.099817 -4.6336902e-22 6.5848698e-38)
(23.099817 0 -9.6079477e-35)
(23.099817 4.5861389e-22 4.5861389e-22)
(23.099817 -1.2676715e-34 -2.535343e-34)
(23.099817 -3.1639474e-35 -6.3278948e-35)
(23.099816 4.5816847e-22 4.5816847e-22)
(23.099816 -4.6040251e-22 -4.6040251e-22)
(23.099816 -4.6058135e-22 0)
(23.099816 0 -4.5846208e-22)
(23.099816 4.5618524e-22 4.5618524e-22)
(23.099816 -6.3108857e-35 4.5407884e-22)
(23.099816 4.5252056e-22 -4.5252056e-22)
(23.099816 6.282703e-35 0)
(23.099816 -9.099438e-22 -4.549719e-22)
(23.099815 4.5628765e-22 4.5628765e-22)
(23.099815 -6.3183408e-35 4.5554683e-22)
(23.099815 -1.5747653e-34 -1.5747653e-34)
(23.099815 -3.1264734e-35 -9.0351542e-22)
(23.099815 -4.5009708e-22 -9.0019416e-22)
(23.099815 4.4920472e-22 1.3476142e-21)
(23.099815 4.5000841e-22 9.0001682e-22)
(23.099815 0 0)
(23.099814 -4.5189916e-22 -9.0379832e-22)
(23.099814 -4.5103038e-22 -4.5103038e-22)
(23.099814 0 4.4977412e-22)
(23.099814 4.4875549e-22 4.4875549e-22)
(23.099814 4.4811566e-22 4.4811566e-22)
(23.099814 -8.9560381e-22 -8.9560381e-22)
(23.099814 -4.4752884e-22 -8.9505767e-22)
(23.099814 4.4683656e-22 4.4683656e-22)
(23.099814 4.4542054e-22 8.9084107e-22)
(23.099813 1.2316946e-34 1.2316946e-34)
(23.099813 -4.4369395e-22 -8.8738791e-22)
(23.099813 4.4499819e-22 4.4499819e-22)
(23.099813 -3.0935341e-35 -6.1870682e-35)
(23.099813 -4.4537246e-22 -4.4537246e-22)
(23.099813 4.4315309e-22 8.8630617e-22)
(23.099813 -3.0622805e-35 -4.4067246e-22)
(23.099813 3.0521547e-35 6.1043094e-35)
(23.099812 -1.2433719e-37 4.374726e-22)
(23.099812 -3.0352391e-35 -4.394773e-22)
(23.099812 4.4251665e-22 4.4251665e-22)
(23.099812 0 -8.8767612e-22)
(23.099812 0 1.8455149e-34)
(23.099812 -4.398779e-22 8.7975579e-22)
(23.099812 -4.3785773e-22 -8.7571546e-22)
(23.099812 0 -3.0192346e-35)
(23.099812 0 4.3598253e-22)
(23.099811 0 0)
(23.099811 0 0)
(23.099811 4.4031929e-22 4.4031929e-22)
(23.099811 3.0327638e-35 -4.4002429e-22)
(23.099811 -8.768117e-22 -8.768117e-22)
(23.099811 1.8623482e-37 4.3683702e-22)
(23.099811 4.3529906e-22 -1.2371944e-37)
(23.099811 4.3403959e-22 4.3403959e-22)
(23.099811 -6.0296232e-35 4.3428558e-22)
(23.09981 -6.0418796e-35 -4.3606101e-22)
(23.09981 -6.2221965e-38 0)
(23.09981 -4.3794018e-22 -4.3794018e-22)
(23.09981 -4.3630077e-22 -4.3630077e-22)
(23.09981 -4.34667e-22 0)
(23.09981 8.6590368e-22 8.6590368e-22)
(23.09981 1.2954645e-21 4.3182149e-22)
(23.09981 -4.3306095e-22 -8.6612191e-22)
(23.09981 -8.7140199e-22 3.0153499e-35)
(23.099809 0 -1.2423879e-37)
(23.099809 4.3611763e-22 4.3611763e-22)
(23.099809 4.344497e-22 4.344497e-22)
(23.099809 -4.3290721e-22 -4.3290721e-22)
(23.099809 1.2274064e-37 4.3185524e-22)
(23.099809 -1.8435195e-37 -4.324205e-22)
(23.099809 1.2346355e-37 2.4692709e-37)
(23.099809 4.3584945e-22 8.716989e-22)
(23.099809 4.3557856e-22 -4.3557856e-22)
(23.099808 -4.3464612e-22 -4.3464612e-22)
(23.099808 -8.6734685e-22 -4.3367343e-22)
(23.099808 4.3308014e-22 -6.0067323e-35)
(23.099808 -3.7465614e-53 4.3368602e-22)
(23.099808 4.3472007e-22 0)
(23.099808 1.2063607e-34 0)
(23.099808 -8.7028068e-22 -4.3514034e-22)
(23.099808 0 6.0302766e-35)
(23.099808 0 -1.2037095e-34)
(23.099807 8.6782505e-22 -6.03061e-35)
(23.099807 -2.4158409e-34 4.3500433e-22)
(23.099807 -8.7207072e-22 -4.3603536e-22)
(23.099807 0 6.1956638e-38)
(23.099807 4.3531608e-22 4.3531608e-22)
(23.099807 4.3463718e-22 0)
(23.099807 -4.3444906e-22 0)
(23.099807 6.1907325e-38 0)
(23.099807 -6.0638273e-35 0)
(23.099806 6.2060736e-38 0)
(23.099806 4.3618571e-22 0)
(23.099806 -4.3522904e-22 0)
(23.099806 -4.3463096e-22 -4.3463096e-22)
(23.099806 0 0)
(23.099806 4.3731326e-22 4.3731326e-22)
(23.099806 -6.085359e-35 0)
(23.099806 -4.380029e-22 -4.380029e-22)
(23.099806 8.7356688e-22 -1.2116193e-34)
(23.099805 -1.2086994e-34 4.3573082e-22)
(23.099805 -4.3598989e-22 0)
(23.099805 -1.2172288e-34 0)
(23.099805 -8.7984192e-22 -4.3992096e-22)
(23.099805 8.7902794e-22 -6.1022142e-35)
(23.099805 4.3844524e-22 4.3844524e-22)
(23.099805 -4.3644802e-22 0)
(23.099805 -6.1838894e-38 0)
(23.099805 -4.3670406e-22 -4.3670406e-22)
(23.099804 0 -4.4059252e-22)
(23.099804 0 4.430328e-22)
(23.099804 4.4246915e-22 4.4246915e-22)
(23.099804 -6.1086633e-35 0)
(23.099804 -8.7548139e-22 -4.377407e-22)
(23.099804 6.1920312e-38 6.1920312e-38)
(23.099804 1.3097436e-21 4.365812e-22)
(23.099804 -4.4049326e-22 -4.4049326e-22)
(23.099803 -4.448627e-22 -4.448627e-22)
(23.099803 8.9336505e-22 4.4668253e-22)
(23.099803 -4.4524691e-22 4.4524691e-22)
(23.099803 4.4308881e-22 0)
(23.099803 8.8243064e-22 -4.4121532e-22)
(23.099803 -4.399028e-22 -4.399028e-22)
(23.099803 -4.4070436e-22 4.4070436e-22)
(23.099803 -4.4362322e-22 4.4362322e-22)
(23.099803 4.471711e-22 0)
(23.099802 4.7641072e-53 -4.49003e-22)
(23.099802 -4.4825861e-22 -4.4825861e-22)
(23.099802 4.4655574e-22 4.4655574e-22)
(23.099802 -4.4496302e-22 4.4496302e-22)
(23.099802 4.4355788e-22 0)
(23.099802 1.2294449e-34 0)
(23.099802 1.2682776e-37 0)
(23.099802 4.4986788e-22 0)
(23.099802 -9.0323756e-22 0)
(23.099801 4.5033525e-22 0)
(23.099801 1.2453305e-34 0)
(23.099801 -1.2388862e-34 0)
(23.099801 -4.4542522e-22 -4.4542522e-22)
(23.099801 -8.9375021e-22 1.8645649e-51)
(23.099801 1.3512929e-21 4.5043095e-22)
(23.099801 1.2567865e-34 0)
(23.099801 -2.5140133e-34 0)
(23.0998 1.2513926e-34 0)
(23.0998 -8.9940568e-22 -4.4970284e-22)
(23.0998 8.9620279e-22 -6.2150741e-35)
(23.0998 -1.2432411e-34 4.4818297e-22)
(23.0998 -9.0185048e-22 -4.5092524e-22)
(23.0998 0 6.3071761e-35)
(23.0998 0 -6.4759637e-38)
(23.0998 4.5464892e-22 -6.3123479e-35)
(23.0998 -6.2861429e-35 4.5322539e-22)
(23.099799 -4.5183225e-22 -4.5183225e-22)
(23.099799 -4.5099427e-22 4.5099427e-22)
(23.099799 4.524146e-22 -2.5138165e-34)
(23.099799 1.3661335e-21 -4.5537783e-22)
(23.099799 -4.5720205e-22 4.5720205e-22)
(23.099799 -4.5642584e-22 0)
(23.099799 -1.2931261e-37 0)
(23.099799 -4.5353929e-22 -4.5353929e-22)
(23.099799 0 -6.2838583e-35)
(23.099798 9.074944e-22 4.537472e-22)
(23.099798 9.132572e-22 -4.566286e-22)
(23.099798 -4.5830201e-22 -4.5830201e-22)
(23.099798 -9.1528784e-22 0)
(23.099798 -4.5628745e-22 4.5628745e-22)
(23.099798 9.091477e-22 4.5457385e-22)
(23.099798 9.0682723e-22 -4.5341361e-22)
(23.099798 -9.0860142e-22 -1.2608571e-34)
(23.099797 -9.1414797e-22 -1.8910909e-52)
(23.099797 0 -6.3719701e-35)
(23.099797 9.1753351e-22 4.5876676e-22)
(23.099797 -4.5759434e-22 -4.5759434e-22)
(23.099797 -9.1184397e-22 6.8313025e-53)
(23.099797 4.5471092e-22 -6.3132087e-35)
(23.099797 4.5521712e-22 -4.5521712e-22)
(23.099797 -6.5031872e-38 0)
(23.099797 6.3770768e-35 0)
(23.099796 4.5921066e-22 4.5921066e-22)
(23.099796 -4.5822015e-22 6.5117e-38)
(23.099796 -4.5664992e-22 -1.9000921e-34)
(23.099796 4.5552778e-22 4.5552778e-22)
(23.099796 -6.3256678e-35 0)
(23.099796 -6.513858e-38 0)
(23.099796 -6.3774737e-35 -4.5981026e-22)
(23.099796 -4.5928908e-22 1.2733963e-34)
(23.099795 4.5810724e-22 4.5810724e-22)
(23.099795 -1.9012758e-34 0)
(23.099795 -6.3219473e-35 0)
(23.099795 -1.2659687e-34 0)
(23.099795 -4.5864451e-22 -4.5864451e-22)
(23.099795 4.6013514e-22 6.5389136e-38)
(23.099795 -6.377045e-35 4.5930875e-22)
(23.099795 -1.2692964e-34 -4.5781032e-22)
(23.099795 -6.4809368e-38 4.5605539e-22)
(23.099794 -9.0972402e-22 -1.2643541e-34)
(23.099794 -4.5575007e-22 -9.1150014e-22)
(23.099794 4.5837651e-22 4.5837651e-22)
(23.099794 9.1981769e-22 1.915613e-34)
(23.099794 -6.3731884e-35 6.3731884e-35)
(23.099794 -9.1491236e-22 -6.3513239e-35)
(23.099794 -4.5563997e-22 -4.5563997e-22)
(23.099794 9.0879212e-22 0)
(23.099793 4.5523673e-22 0)
(23.099793 -4.5785317e-22 4.5785317e-22)
(23.099793 -4.5933906e-22 6.3774658e-35)
(23.099793 -1.2724741e-34 -1.2724741e-34)
(23.099793 4.5693332e-22 7.8112033e-53)
(23.099793 0 -4.5504182e-22)
(23.099793 0 4.5372287e-22)
(23.099793 4.5448442e-22 4.5448442e-22)
(23.099793 0 0)
(23.099792 -4.5860141e-22 -4.5860141e-22)
(23.099792 4.5786939e-22 -6.3570609e-35)
(23.099792 6.48445e-38 4.563026e-22)
(23.099792 -1.2607657e-34 0)
(23.099792 0 0)
(23.099792 -4.5332809e-22 -4.5332809e-22)
(23.099792 4.5586274e-22 1.2956398e-37)
(23.099792 4.5776127e-22 2.0381689e-53)
(23.099791 -9.1526302e-22 -4.5763151e-22)
(23.099791 -4.5614937e-22 4.5614937e-22)
(23.099791 4.5426143e-22 -6.2940571e-35)
(23.099791 0 6.2850606e-35)
(23.099791 0 -1.2560291e-34)
(23.099791 -4.5460692e-22 -4.5460692e-22)
(23.099791 1.2687385e-34 4.5667283e-22)
(23.099791 4.5706038e-22 -1.2691657e-34)
(23.099791 0 1.2663709e-34)
(23.09979 0 -1.2618393e-34)
(23.09979 -4.5266677e-22 -4.5266677e-22)
(23.09979 1.8839508e-34 4.5215298e-22)
(23.09979 4.5380213e-22 -1.2601182e-34)
(23.09979 0 6.344595e-35)
(23.09979 0 0)
(23.09979 0 -4.55663e-22)
(23.09979 0 4.5424331e-22)
(23.099789 0 -6.2883628e-35)
(23.099789 0 6.4244599e-38)
(23.099789 0 -6.2898049e-35)
(23.099789 0 6.3210637e-35)
(23.099789 9.1190277e-22 4.5595139e-22)
(23.099789 2.5298512e-34 -4.5576664e-22)
(23.099789 -4.5511228e-22 -4.5511228e-22)
(23.099789 4.5468581e-22 4.5468581e-22)
(23.099789 -4.545139e-22 4.545139e-22)
(23.099788 4.5481807e-22 0)
(23.099788 -1.2643021e-34 -4.5484332e-22)
(23.099788 -4.5436362e-22 -4.5436362e-22)
(23.099788 -1.2599803e-34 0)
(23.099788 -4.5356904e-22 4.5356904e-22)
(23.099788 0 -6.3100094e-35)
(23.099788 0 6.467065e-38)
(23.099788 4.5477036e-22 6.3075714e-35)
(23.099787 1.2605101e-34 -4.5394327e-22)
(23.099787 -4.5246303e-22 4.5246303e-22)
(23.099787 0 6.2593273e-35)
(23.099787 0 -1.2543319e-34)
(23.099787 0 -4.5396144e-22)
(23.099787 0 -4.5541216e-22)
(23.099787 0 9.1002863e-22)
(23.099787 0 -6.4479963e-38)
(23.099787 0 6.2673179e-35)
(23.099786 9.0096417e-22 4.5048208e-22)
(23.099786 -3.7545002e-34 -4.5100626e-22)
(23.099786 -9.0708613e-22 6.2969942e-35)
(23.099786 4.5561971e-22 4.5561971e-22)
(23.099786 6.4760576e-38 0)
(23.099786 4.5433283e-22 0)
(23.099786 -2.5098945e-34 0)
(23.099786 -9.022922e-22 -4.511461e-22)
(23.099786 -4.5091023e-22 -4.5091023e-22)
(23.099785 6.2226538e-53 4.5287478e-22)
(23.099785 1.3664139e-21 4.5547129e-22)
(23.099785 0 0)
(23.099785 -9.1083003e-22 -4.5541501e-22)
(23.099785 0 -4.5402814e-22)
(23.099785 0 4.5274611e-22)
(23.099785 9.0380826e-22 4.5190413e-22)
(23.099785 -1.2559748e-34 0)
(23.099784 -1.3647892e-21 -4.5492973e-22)
(23.099784 4.563487e-22 -4.563487e-22)
(23.099784 4.5597028e-22 4.5597028e-22)
(23.099784 -4.5500199e-22 1.26345e-34)
(23.099784 4.5405356e-22 -4.5405356e-22)
(23.099784 -4.5344382e-22 0)
(23.099784 -1.2591649e-34 0)
(23.099784 4.5514049e-22 0)
(23.099784 -4.5608035e-22 0)
(23.099783 0 4.5596332e-22)
(23.099783 -4.5534786e-22 -1.2631162e-34)
(23.099783 4.5477651e-22 -4.5477651e-22)
(23.099783 9.091187e-22 4.5455935e-22)
(23.099783 -4.5524395e-22 6.3206093e-35)
(23.099783 -4.5604571e-22 -6.3382217e-35)
(23.099783 -4.5590833e-22 3.8624609e-53)
(23.099783 -4.5531616e-22 4.5531616e-22)
(23.099783 9.0920457e-22 4.5460228e-22)
(23.099782 4.5412221e-22 -9.0824442e-22)
(23.099782 -4.548463e-22 -6.3150884e-35)
(23.099782 0 6.3205555e-35)
(23.099782 4.5585337e-22 -4.5585337e-22)
(23.099782 -4.552584e-22 0)
(23.099782 -4.5418146e-22 4.5418146e-22)
(23.099782 1.3598718e-21 4.532906e-22)
(23.099782 1.2883691e-37 -4.5330456e-22)
(23.099781 -9.0917664e-22 -1.2610093e-34)
(23.099781 4.5565927e-22 4.5565927e-22)
(23.099781 6.3241256e-35 0)
(23.099781 4.5477542e-22 0)
(23.099781 -1.290094e-37 -4.5391147e-22)
(23.099781 -9.066928e-22 6.2878213e-35)
(23.099781 4.5373673e-22 4.5373673e-22)
(23.099781 0 0)
(23.099781 -1.2617649e-34 -4.5439514e-22)
(23.09978 -6.45185e-38 6.45185e-38)
(23.09978 -4.5316536e-22 -1.25835e-34)
(23.09978 4.525277e-22 -6.2764661e-35)
(23.09978 -1.2576314e-34 4.5290658e-22)
(23.09978 -6.2873878e-35 -4.5331515e-22)
(23.09978 -6.4391832e-38 6.4391832e-38)
(23.09978 -4.52384e-22 -1.2561803e-34)
(23.09978 4.510168e-22 -4.510168e-22)
(23.09978 -3.5248153e-53 4.4987471e-22)
(23.099779 -1.2494238e-34 1.2494238e-34)
(23.099779 -6.4151067e-38 6.4151067e-38)
(23.099779 -9.0456296e-22 -6.2794784e-35)
(23.099779 -6.2593088e-35 -4.5129067e-22)
(23.099779 4.4974389e-22 4.4974389e-22)
(23.099779 0 0)
(23.099779 0 -2.4803608e-34)
(23.099779 -4.4718385e-22 -6.202348e-35)
(23.099778 -1.868128e-34 -1.868128e-34)
(23.099778 4.4990289e-22 -6.3935046e-38)
(23.099778 -4.4864904e-22 -4.4864904e-22)
(23.099778 6.20328e-35 4.4679327e-22)
(23.099778 1.7627618e-54 1.7627618e-54)
(23.099778 -6.1589043e-35 -6.1589043e-35)
(23.099778 4.4398966e-22 1.2328709e-34)
(23.099778 4.4569339e-22 -6.1880092e-35)
(23.099778 6.1926733e-35 8.9297263e-22)
(23.099777 -4.4510364e-22 -4.4510364e-22)
(23.099777 0 -4.4314828e-22)
(23.099777 0 -6.1263156e-35)
(23.099777 4.3975448e-22 6.1055534e-35)
(23.099777 -4.3993149e-22 8.7986298e-22)
(23.099777 3.6754207e-34 -4.415069e-22)
(23.099777 4.421532e-22 -4.421532e-22)
(23.099777 -4.4070763e-22 1.160496e-52)
(23.099777 0 0)
(23.099776 4.3660012e-22 2.2315212e-53)
(23.099776 4.3491724e-22 -4.3491724e-22)
(23.099776 -4.3474693e-22 4.3474693e-22)
(23.099776 -4.3603186e-22 4.1364092e-54)
(23.099776 0 -6.0574167e-35)
(23.099776 4.357256e-22 -6.1920332e-38)
(23.099776 4.3379159e-22 -4.3379159e-22)
(23.099776 -8.635331e-22 8.635331e-22)
(23.099776 -4.2997841e-22 1.1939645e-34)
(23.099776 4.2906123e-22 -4.2906123e-22)
(23.099775 4.2952226e-22 5.9573854e-35)
(23.099775 5.9673017e-35 -5.9673017e-35)
(23.099775 4.2994509e-22 4.2994509e-22)
(23.099775 1.1899138e-34 -4.2851964e-22)
(23.099775 -8.538011e-22 -2.6988891e-52)
(23.099775 0 -1.7731456e-34)
(23.099775 0 1.179235e-34)
(23.099775 0 -1.1758933e-34)
(23.099775 4.230677e-22 -1.1747748e-34)
(23.099774 4.2234466e-22 4.560819e-53)
(23.099774 0 0)
(23.099774 -4.2045822e-22 4.2045822e-22)
(23.099774 -5.8075706e-35 0)
(23.099774 4.1755843e-22 0)
(23.099774 0 -4.1604013e-22)
(23.099774 0 -1.1508244e-34)
(23.099774 -4.1295259e-22 4.1295259e-22)
(23.099774 -5.7189064e-35 0)
(23.099774 5.7099512e-35 0)
(23.099773 -4.1147589e-22 -8.2295177e-22)
(23.099773 4.10058e-22 -3.4136175e-34)
(23.099773 -1.6992495e-34 8.1676265e-22)
(23.099773 -4.0680501e-22 -4.0680501e-22)
(23.099773 0 5.7632424e-38)
(23.099773 -4.0467818e-22 -5.6185539e-35)
(23.099773 -5.6047776e-35 -4.0368594e-22)
(23.099773 4.021596e-22 0)
(23.099773 -4.002447e-22 0)
(23.099773 3.9835276e-22 0)
(23.099772 3.9703568e-22 -3.9703568e-22)
(23.099772 -3.9686845e-22 -1.1008968e-34)
(23.099772 0 3.9662025e-22)
(23.099772 3.9513628e-22 0)
(23.099772 3.9312115e-22 0)
(23.099772 -3.9112572e-22 -3.9112572e-22)
(23.099772 -3.89497e-22 5.5350853e-38)
(23.099772 0 3.8889085e-22)
(23.099772 -3.8833781e-22 0)
(23.099772 3.8652843e-22 0)
(23.099772 3.8429542e-22 -3.8429542e-22)
(23.099771 -3.8196142e-22 -1.0595453e-34)
(23.099771 -7.6009668e-22 -1.0558587e-34)
(23.099771 2.109434e-34 1.054717e-34)
(23.099771 1.1400784e-21 3.8002615e-22)
(23.099771 1.1697397e-52 -3.7912324e-22)
(23.099771 -3.7700274e-22 1.0463258e-34)
(23.099771 -7.49311e-22 -1.0398114e-34)
(23.099771 2.0666151e-34 1.0333075e-34)
(23.099771 7.4221095e-22 3.7110548e-22)
(23.099771 -3.7100345e-22 0)
(23.099771 3.7100044e-22 0)
(23.09977 -3.7037492e-22 -3.7037492e-22)
(23.09977 -3.692451e-22 -1.5744041e-51)
(23.09977 7.358781e-22 3.6793905e-22)
(23.09977 0 0)
(23.09977 0 0)
(23.09977 -7.2904226e-22 -3.6452113e-22)
(23.09977 -4.7669777e-52 -9.5339553e-52)
(23.09977 7.2422914e-22 3.6211457e-22)
(23.09977 0 0)
(23.09977 0 0)
(23.09977 -7.1656715e-22 -3.5828358e-22)
(23.099769 -4.9644929e-52 -9.9289859e-52)
(23.099769 7.1143235e-22 3.5571617e-22)
(23.099769 0 0)
(23.099769 0 0)
(23.099769 -7.0425855e-22 -3.5212928e-22)
(23.099769 -3.5100466e-22 4.9880763e-38)
(23.099769 6.9997933e-22 3.4998967e-22)
(23.099769 3.4910824e-22 -3.4910824e-22)
(23.099769 0 9.6711385e-35)
(23.099769 -6.9393032e-22 -9.6394627e-35)
(23.099769 1.9195073e-34 9.5975363e-35)
(23.099769 6.8782468e-22 3.4391234e-22)
(23.099768 -3.4197398e-22 0)
(23.099768 0 0)
(23.099768 3.3825725e-22 0)
(23.099768 -3.3658627e-22 0)
(23.099768 4.7578303e-38 0)
(23.099768 3.336174e-22 -3.336174e-22)
(23.099768 -3.3353901e-22 9.2569748e-35)
(23.099768 3.3407003e-22 3.3407003e-22)
(23.099768 3.3461925e-22 0)
(23.099768 -3.3490829e-22 0)
(23.099768 -3.347489e-22 0)
(23.099768 9.2707311e-35 0)
(23.099768 3.3241849e-22 0)
(23.099768 -3.3079212e-22 0)
(23.099767 -9.1393156e-35 0)
(23.099767 3.2764204e-22 -3.2764204e-22)
(23.099767 -3.2641855e-22 1.811871e-34)
(23.099767 3.251527e-22 3.251527e-22)
(23.099767 3.241669e-22 0)
(23.099767 -3.2403571e-22 0)
(23.099767 -3.2444588e-22 0)
(23.099767 9.0210555e-35 0)
(23.099767 3.2492751e-22 0)
(23.099767 -3.2436091e-22 0)
(23.099767 4.5949208e-38 0)
(23.099767 3.222216e-22 -3.222216e-22)
(23.099767 -3.2120166e-22 8.9145663e-35)
(23.099767 3.2045996e-22 3.2045996e-22)
(23.099766 3.1981143e-22 0)
(23.099766 -3.1933494e-22 0)
(23.099766 -6.3850254e-22 -3.1925127e-22)
(23.099766 1.7738921e-34 8.8694607e-35)
(23.099766 6.382627e-22 3.1913135e-22)
(23.099766 -3.18949e-22 0)
(23.099766 4.5302929e-38 0)
(23.099766 6.3734291e-22 0)
(23.099766 9.054434e-38 -3.1857457e-22)
(23.099766 -3.1849686e-22 -8.8485501e-35)
(23.099766 0 3.1844272e-22)
(23.099766 3.1841502e-22 0)
(23.099766 0 0)
(23.099766 -3.1844273e-22 0)
(23.099766 0 0)
(23.099765 0 0)
(23.099765 0 0)
(23.099765 -3.1881224e-22 0)
(23.099765 7.558393e-54 -3.189674e-22)
(23.099765 3.1914618e-22 4.5353399e-38)
(23.099765 0 3.1934782e-22)
(23.099765 3.1957254e-22 0)
(23.099765 -8.8807331e-35 0)
(23.099765 -3.2008796e-22 0)
(23.099765 0 0)
(23.099765 0 0)
(23.099765 0 0)
(23.099765 -3.2135144e-22 0)
(23.099765 8.93321e-35 -3.2170868e-22)
(23.099765 3.2205646e-22 -4.5766975e-38)
(23.099764 0 3.2242231e-22)
(23.099764 3.2280722e-22 0)
(23.099764 8.9706454e-35 0)
(23.099764 -3.2367709e-22 0)
(23.099764 0 -3.241652e-22)
(23.099764 3.2469234e-22 1.8027506e-34)
(23.099764 -3.2525588e-22 3.2525588e-22)
(23.099764 1.8104588e-34 0)
(23.099764 3.2638739e-22 -3.2638739e-22)
(23.099764 -3.2692581e-22 -9.0827252e-35)
(23.099764 0 3.2747978e-22)
(23.099764 -3.2808545e-22 0)
(23.099764 -9.1281735e-35 0)
(23.099764 3.2942019e-22 -3.2942019e-22)
(23.099763 0 -3.3018618e-22)
(23.099763 3.3099286e-22 3.3099286e-22)
(23.099763 -3.3181949e-22 3.3181949e-22)
(23.099763 -1.8475257e-34 0)
(23.099763 3.3355227e-22 0)
(23.099763 -1.8569558e-34 0)
(23.099763 -4.765992e-38 0)
(23.099763 9.3436439e-35 3.3631738e-22)
(23.099763 -4.7929817e-38 -4.7929817e-38)
(23.099763 -3.3825126e-22 -6.7650251e-22)
(23.099763 0 -3.3924117e-22)
(23.099763 3.4024589e-22 6.8049178e-22)
(23.099763 -9.4713783e-35 6.8252841e-22)
(23.099763 -9.499996e-35 -3.4229534e-22)
(23.099762 -5.0568971e-53 -3.4333905e-22)
(23.099762 -9.5631447e-35 0)
(23.099762 0 0)
(23.099762 -6.9307218e-22 0)
(23.099762 -9.6527417e-35 0)
(23.099762 3.4871505e-22 -3.4871505e-22)
(23.099762 -3.4981739e-22 -9.7187041e-35)
(23.099762 9.7395488e-35 3.5092669e-22)
(23.099762 3.5204282e-22 0)
(23.099762 3.5316508e-22 0)
(23.099762 9.8379952e-35 0)
(23.099762 -9.8694266e-35 0)
(23.099762 3.5656055e-22 0)
(23.099761 -3.5770012e-22 0)
(23.099761 -3.5884225e-22 0)
(23.099761 0 0)
(23.099761 -3.6113269e-22 0)
(23.099761 1.0059764e-34 0)
(23.099761 3.6342545e-22 0)
(23.099761 0 0)
(23.099761 0 0)
(23.099761 0 0)
(23.099761 -7.3599703e-22 -3.6799851e-22)
(23.099761 4.1000618e-34 2.0500309e-34)
(23.09976 7.4053543e-22 3.7026771e-22)
(23.09976 0 0)
(23.09976 0 0)
(23.09976 0 3.736309e-22)
(23.09976 0 -1.0405711e-34)
(23.09976 0 5.3409394e-38)
(23.09976 0 -3.7692294e-22)
(23.09976 0 -3.7799923e-22)
(23.09976 -7.5812558e-22 -2.1046252e-34)
(23.09976 2.1120742e-34 1.0560371e-34)
(23.09976 7.6229543e-22 3.8114772e-22)
(23.09976 3.8216668e-22 0)
(23.099759 -3.8316918e-22 0)
(23.099759 -3.8415432e-22 0)
(23.099759 1.0699401e-34 0)
(23.099759 2.1417915e-34 0)
(23.099759 3.8698448e-22 -3.8698448e-22)
(23.099759 -3.8791453e-22 2.1537716e-34)
(23.099759 3.8884816e-22 3.8884816e-22)
(23.099759 3.8979843e-22 0)
(23.099759 -3.90746e-22 0)
(23.099759 -3.9168523e-22 0)
(23.099759 2.1793546e-34 0)
(23.099758 3.9355674e-22 0)
(23.099758 3.9448182e-22 0)
(23.099758 -1.0968157e-34 0)
(23.099758 -3.9630288e-22 -3.9630288e-22)
(23.099758 -3.9719625e-22 2.204741e-34)
(23.099758 3.9807572e-22 3.9807572e-22)
(23.099758 3.9894096e-22 0)
(23.099758 -3.9979083e-22 0)
(23.099758 4.0062385e-22 0)
(23.099758 0 0)
(23.099757 -4.0223638e-22 0)
(23.099757 -4.0301417e-22 0)
(23.099757 1.1200467e-34 0)
(23.099757 4.0450859e-22 -4.0450859e-22)
(23.099757 -4.0522374e-22 3.3745254e-34)
(23.099757 4.0591679e-22 4.0591679e-22)
(23.099757 4.0658709e-22 0)
(23.099757 -4.0723383e-22 0)
(23.099757 4.0785708e-22 0)
(23.099757 1.1342041e-34 0)
(23.099757 -4.0903395e-22 0)
(23.099756 -4.0958741e-22 0)
(23.099756 -5.8281255e-38 0)