/*--------------------------------*- C++ -*----------------------------------*\
  =========                 |
  \\      /  F ield         | OpenFOAM: The Open Source CFD Toolbox
   \\    /   O peration     | Website:  https://openfoam.org
    \\  /    A nd           | Version:  7
     \\/     M anipulation  |
\*---------------------------------------------------------------------------*/
FoamFile
{
    version     2.0;
    format      ascii;
    class       volScalarField;
    location    "0.00298";
    object      p;
}
// * * * * * * * * * * * * * * * * * * * * * * * * * * * * * * * * * * * * * //

dimensions      [1 -1 -2 0 0 0 0];

internalField   nonuniform List<scalar> 
5000
(
109813.32
109813.32
109813.32
109813.32
109813.32
109813.32
109813.32
109813.32
109813.32
109813.32
109813.32
109813.32
109813.32
109813.32
109813.32
109813.32
109813.32
109813.32
109813.32
109813.32
109813.32
109813.32
109813.32
109813.32
109813.32
109813.32
109813.32
109813.32
109813.32
109813.32
109813.32
109813.32
109813.32
109813.32
109813.32
109813.32
109813.32
109813.32
109813.32
109813.32
109813.32
109813.32
109813.32
109813.32
109813.32
109813.32
109813.32
109813.33
109813.33
109813.33
109813.33
109813.33
109813.33
109813.33
109813.33
109813.33
109813.33
109813.33
109813.33
109813.33
109813.33
109813.33
109813.33
109813.33
109813.33
109813.33
109813.33
109813.33
109813.33
109813.33
109813.33
109813.33
109813.33
109813.33
109813.33
109813.33
109813.33
109813.33
109813.33
109813.33
109813.33
109813.33
109813.33
109813.33
109813.33
109813.33
109813.33
109813.33
109813.33
109813.33
109813.33
109813.33
109813.33
109813.33
109813.33
109813.33
109813.33
109813.33
109813.33
109813.33
109813.33
109813.33
109813.33
109813.33
109813.33
109813.33
109813.33
109813.33
109813.33
109813.33
109813.33
109813.33
109813.33
109813.33
109813.33
109813.33
109813.33
109813.33
109813.33
109813.33
109813.33
109813.33
109813.33
109813.33
109813.33
109813.33
109813.33
109813.33
109813.33
109813.33
109813.33
109813.33
109813.33
109813.33
109813.33
109813.34
109813.34
109813.34
109813.34
109813.34
109813.34
109813.34
109813.34
109813.34
109813.34
109813.34
109813.34
109813.34
109813.34
109813.34
109813.34
109813.34
109813.34
109813.34
109813.34
109813.34
109813.34
109813.34
109813.34
109813.34
109813.34
109813.34
109813.34
109813.34
109813.34
109813.34
109813.34
109813.34
109813.34
109813.34
109813.34
109813.34
109813.34
109813.34
109813.34
109813.34
109813.34
109813.34
109813.34
109813.34
109813.34
109813.34
109813.34
109813.34
109813.34
109813.34
109813.34
109813.34
109813.34
109813.34
109813.34
109813.34
109813.34
109813.34
109813.34
109813.34
109813.34
109813.34
109813.34
109813.34
109813.34
109813.34
109813.34
109813.34
109813.34
109813.34
109813.34
109813.34
109813.34
109813.34
109813.34
109813.34
109813.34
109813.34
109813.34
109813.34
109813.34
109813.34
109813.34
109813.34
109813.34
109813.34
109813.35
109813.35
109813.35
109813.35
109813.35
109813.35
109813.35
109813.35
109813.35
109813.35
109813.35
109813.35
109813.35
109813.35
109813.35
109813.35
109813.35
109813.35
109813.35
109813.35
109813.35
109813.35
109813.35
109813.35
109813.35
109813.35
109813.35
109813.35
109813.35
109813.35
109813.35
109813.35
109813.35
109813.35
109813.35
109813.35
109813.35
109813.35
109813.35
109813.35
109813.35
109813.35
109813.35
109813.35
109813.35
109813.35
109813.35
109813.35
109813.35
109813.35
109813.35
109813.35
109813.35
109813.35
109813.35
109813.35
109813.35
109813.35
109813.35
109813.35
109813.35
109813.35
109813.35
109813.35
109813.35
109813.35
109813.35
109813.35
109813.35
109813.35
109813.35
109813.35
109813.35
109813.35
109813.35
109813.35
109813.35
109813.35
109813.35
109813.35
109813.35
109813.35
109813.35
109813.35
109813.35
109813.35
109813.35
109813.35
109813.35
109813.35
109813.35
109813.35
109813.35
109813.35
109813.35
109813.35
109813.35
109813.35
109813.35
109813.35
109813.36
109813.36
109813.36
109813.36
109813.36
109813.36
109813.36
109813.36
109813.36
109813.36
109813.36
109813.36
109813.36
109813.36
109813.36
109813.36
109813.36
109813.36
109813.36
109813.36
109813.36
109813.36
109813.36
109813.36
109813.36
109813.36
109813.36
109813.36
109813.36
109813.36
109813.36
109813.36
109813.36
109813.36
109813.36
109813.36
109813.36
109813.36
109813.36
109813.36
109813.36
109813.36
109813.36
109813.36
109813.36
109813.36
109813.36
109813.36
109813.36
109813.36
109813.36
109813.36
109813.36
109813.36
109813.36
109813.36
109813.36
109813.36
109813.36
109813.36
109813.36
109813.36
109813.36
109813.36
109813.36
109813.36
109813.36
109813.36
109813.36
109813.36
109813.36
109813.36
109813.36
109813.36
109813.36
109813.36
109813.36
109813.36
109813.36
109813.36
109813.36
109813.36
109813.36
109813.36
109813.36
109813.36
109813.36
109813.36
109813.36
109813.36
109813.36
109813.36
109813.36
109813.36
109813.36
109813.36
109813.36
109813.36
109813.36
109813.36
109813.36
109813.36
109813.36
109813.36
109813.36
109813.36
109813.36
109813.36
109813.37
109813.37
109813.37
109813.37
109813.37
109813.37
109813.37
109813.37
109813.37
109813.37
109813.37
109813.37
109813.37
109813.37
109813.37
109813.37
109813.37
109813.37
109813.37
109813.37
109813.37
109813.37
109813.37
109813.37
109813.37
109813.37
109813.37
109813.37
109813.37
109813.37
109813.37
109813.37
109813.37
109813.37
109813.37
109813.37
109813.37
109813.37
109813.37
109813.37
109813.37
109813.37
109813.37
109813.37
109813.37
109813.37
109813.37
109813.37
109813.37
109813.37
109813.37
109813.37
109813.37
109813.37
109813.37
109813.37
109813.37
109813.37
109813.37
109813.37
109813.37
109813.37
109813.37
109813.37
109813.37
109813.37
109813.37
109813.37
109813.37
109813.37
109813.37
109813.37
109813.37
109813.37
109813.37
109813.37
109813.37
109813.37
109813.37
109813.37
109813.37
109813.37
109813.37
109813.37
109813.37
109813.37
109813.37
109813.37
109813.37
109813.37
109813.37
109813.37
109813.37
109813.37
109813.37
109813.37
109813.37
109813.37
109813.37
109813.37
109813.37
109813.37
109813.37
109813.37
109813.37
109813.37
109813.37
109813.37
109813.37
109813.37
109813.37
109813.38
109813.38
109813.38
109813.38
109813.38
109813.38
109813.38
109813.38
109813.38
109813.38
109813.38
109813.38
109813.38
109813.38
109813.38
109813.38
109813.38
109813.38
109813.38
109813.38
109813.38
109813.38
109813.38
109813.38
109813.38
109813.38
109813.38
109813.38
109813.38
109813.38
109813.38
109813.38
109813.38
109813.38
109813.38
109813.38
109813.38
109813.38
109813.38
109813.38
109813.38
109813.38
109813.38
109813.38
109813.38
109813.38
109813.38
109813.38
109813.38
109813.38
109813.38
109813.38
109813.38
109813.38
109813.38
109813.38
109813.38
109813.38
109813.38
109813.38
109813.38
109813.38
109813.38
109813.38
109813.38
109813.38
109813.38
109813.38
109813.38
109813.38
109813.38
109813.38
109813.38
109813.38
109813.38
109813.38
109813.38
109813.38
109813.38
109813.38
109813.38
109813.38
109813.38
109813.38
109813.38
109813.38
109813.38
109813.38
109813.38
109813.38
109813.38
109813.38
109813.38
109813.38
109813.38
109813.38
109813.38
109813.38
109813.38
109813.38
109813.38
109813.38
109813.38
109813.38
109813.38
109813.38
109813.38
109813.38
109813.38
109813.38
109813.38
109813.38
109813.38
109813.38
109813.38
109813.38
109813.38
109813.39
109813.39
109813.39
109813.39
109813.39
109813.39
109813.39
109813.39
109813.39
109813.39
109813.39
109813.39
109813.39
109813.39
109813.39
109813.39
109813.39
109813.39
109813.39
109813.39
109813.39
109813.39
109813.39
109813.39
109813.39
109813.39
109813.39
109813.39
109813.39
109813.39
109813.39
109813.39
109813.39
109813.39
109813.39
109813.39
109813.39
109813.39
109813.39
109813.39
109813.39
109813.39
109813.39
109813.39
109813.39
109813.39
109813.39
109813.39
109813.39
109813.39
109813.39
109813.39
109813.39
109813.39
109813.39
109813.39
109813.39
109813.39
109813.39
109813.39
109813.39
109813.39
109813.39
109813.39
109813.39
109813.39
109813.39
109813.39
109813.39
109813.39
109813.39
109813.39
109813.39
109813.39
109813.39
109813.39
109813.39
109813.39
109813.39
109813.39
109813.39
109813.39
109813.39
109813.39
109813.39
109813.39
109813.39
109813.39
109813.39
109813.39
109813.39
109813.39
109813.39
109813.39
109813.39
109813.39
109813.39
109813.39
109813.39
109813.39
109813.39
109813.39
109813.39
109813.39
109813.39
109813.39
109813.39
109813.39
109813.39
109813.39
109813.39
109813.39
109813.39
109813.39
109813.39
109813.39
109813.39
109813.39
109813.39
109813.39
109813.39
109813.39
109813.39
109813.39
109813.39
109813.39
109813.4
109813.4
109813.4
109813.4
109813.4
109813.4
109813.4
109813.4
109813.4
109813.4
109813.4
109813.4
109813.4
109813.4
109813.4
109813.4
109813.4
109813.4
109813.4
109813.4
109813.4
109813.4
109813.4
109813.4
109813.4
109813.4
109813.4
109813.4
109813.4
109813.4
109813.4
109813.4
109813.4
109813.4
109813.4
109813.4
109813.4
109813.4
109813.4
109813.4
109813.4
109813.4
109813.4
109813.4
109813.4
109813.4
109813.4
109813.4
109813.4
109813.4
109813.4
109813.4
109813.4
109813.4
109813.4
109813.4
109813.4
109813.4
109813.4
109813.4
109813.4
109813.4
109813.4
109813.4
109813.4
109813.4
109813.4
109813.4
109813.4
109813.4
109813.4
109813.4
109813.4
109813.4
109813.4
109813.4
109813.4
109813.4
109813.4
109813.4
109813.4
109813.4
109813.4
109813.4
109813.4
109813.4
109813.4
109813.4
109813.4
109813.4
109813.4
109813.4
109813.4
109813.4
109813.4
109813.4
109813.4
109813.4
109813.4
109813.4
109813.4
109813.4
109813.4
109813.4
109813.4
109813.4
109813.4
109813.4
109813.4
109813.4
109813.4
109813.4
109813.4
109813.4
109813.4
109813.4
109813.4
109813.4
109813.4
109813.4
109813.4
109813.4
109813.4
109813.4
109813.4
109813.4
109813.4
109813.4
109813.4
109813.4
109813.4
109813.4
109813.4
109813.4
109813.4
109813.4
109813.4
109813.4
109813.4
109813.4
109813.41
109813.41
109813.41
109813.41
109813.41
109813.41
109813.41
109813.41
109813.41
109813.41
109813.41
109813.41
109813.41
109813.41
109813.41
109813.41
109813.41
109813.41
109813.41
109813.41
109813.41
109813.41
109813.41
109813.41
109813.41
109813.41
109813.41
109813.41
109813.41
109813.41
109813.41
109813.41
109813.41
109813.41
109813.41
109813.41
109813.41
109813.41
109813.41
109813.41
109813.41
109813.41
109813.41
109813.41
109813.41
109813.41
109813.41
109813.41
109813.41
109813.41
109813.41
109813.41
109813.41
109813.41
109813.41
109813.41
109813.41
109813.41
109813.41
109813.41
109813.41
109813.41
109813.41
109813.41
109813.41
109813.41
109813.41
109813.41
109813.41
109813.41
109813.41
109813.41
109813.41
109813.41
109813.41
109813.41
109813.41
109813.41
109813.41
109813.41
109813.41
109813.41
109813.41
109813.41
109813.41
109813.41
109813.41
109813.41
109813.41
109813.41
109813.41
109813.41
109813.41
109813.41
109813.41
109813.41
109813.41
109813.41
109813.41
109813.41
109813.41
109813.41
109813.41
109813.41
109813.41
109813.41
109813.41
109813.41
109813.41
109813.41
109813.41
109813.41
109813.41
109813.41
109813.41
109813.41
109813.41
109813.41
109813.41
109813.41
109813.41
109813.41
109813.41
109813.41
109813.41
109813.41
109813.41
109813.41
109813.41
109813.41
109813.41
109813.41
109813.41
109813.41
109813.41
109813.41
109813.41
109813.41
109813.41
109813.41
109813.41
109813.41
109813.42
109813.42
109813.42
109813.42
109813.42
109813.42
109813.42
109813.42
109813.42
109813.42
109813.42
109813.42
109813.42
109813.42
109813.42
109813.42
109813.42
109813.42
109813.42
109813.42
109813.42
109813.42
109813.42
109813.42
109813.42
109813.42
109813.42
109813.42
109813.42
109813.42
109813.42
109813.42
109813.42
109813.42
109813.42
109813.42
109813.42
109813.42
109813.42
109813.42
109813.42
109813.42
109813.42
109813.42
109813.42
109813.42
109813.42
109813.42
109813.42
109813.42
109813.42
109813.42
109813.42
109813.42
109813.42
109813.42
109813.42
109813.42
109813.42
109813.42
109813.42
109813.42
109813.42
109813.42
109813.42
109813.42
109813.42
109813.42
109813.42
109813.42
109813.42
109813.42
109813.42
109813.42
109813.42
109813.42
109813.42
109813.42
109813.42
109813.42
109813.42
109813.42
109813.42
109813.42
109813.42
109813.42
109813.42
109813.42
109813.42
109813.42
109813.42
109813.42
109813.42
109813.42
109813.42
109813.42
109813.42
109813.42
109813.42
109813.42
109813.42
109813.42
109813.42
109813.42
109813.42
109813.42
109813.42
109813.42
109813.42
109813.42
109813.42
109813.42
109813.42
109813.42
109813.42
109813.42
109813.42
109813.42
109813.42
109813.42
109813.42
109813.42
109813.42
109813.42
109813.42
109813.42
109813.42
109813.42
109813.42
109813.42
109813.42
109813.42
109813.42
109813.42
109813.42
109813.42
109813.42
109813.42
109813.42
109813.42
109813.42
109813.43
109813.43
109813.43
109813.43
109813.43
109813.43
109813.43
109813.43
109813.43
109813.43
109813.43
109813.43
109813.43
109813.43
109813.43
109813.43
109813.43
109813.43
109813.43
109813.43
109813.43
109813.43
109813.43
109813.43
109813.43
109813.43
109813.43
109813.43
109813.43
109813.43
109813.43
109813.43
109813.43
109813.43
109813.43
109813.43
109813.43
109813.43
109813.43
109813.43
109813.43
109813.43
109813.43
109813.43
109813.43
109813.43
109813.43
109813.43
109813.43
109813.43
109813.43
109813.43
109813.43
109813.43
109813.43
109813.43
109813.43
109813.43
109813.43
109813.43
109813.43
109813.43
109813.43
109813.43
109813.43
109813.43
109813.43
109813.43
109813.43
109813.43
109813.43
109813.43
109813.43
109813.43
109813.43
109813.43
109813.43
109813.43
109813.43
109813.43
109813.43
109813.43
109813.43
109813.43
109813.43
109813.43
109813.43
109813.43
109813.43
109813.43
109813.43
109813.43
109813.43
109813.43
109813.43
109813.43
109813.43
109813.43
109813.43
109813.43
109813.43
109813.43
109813.43
109813.43
109813.43
109813.43
109813.43
109813.43
109813.43
109813.43
109813.43
109813.43
109813.43
109813.43
109813.43
109813.43
109813.43
109813.43
109813.43
109813.43
109813.43
109813.43
109813.43
109813.43
109813.43
109813.43
109813.43
109813.43
109813.43
109813.43
109813.43
109813.43
109813.43
109813.43
109813.43
109813.44
109813.44
109813.44
109813.44
109813.44
109813.44
109813.44
109813.44
109813.44
109813.44
109813.44
109813.44
109813.44
109813.44
109813.44
109813.44
109813.44
109813.44
109813.44
109813.44
109813.44
109813.44
109813.44
109813.44
109813.44
109813.44
109813.44
109813.44
109813.44
109813.44
109813.44
109813.44
109813.44
109813.44
109813.44
109813.44
109813.44
109813.44
109813.44
109813.44
109813.44
109813.44
109813.44
109813.44
109813.44
109813.44
109813.44
109813.44
109813.44
109813.44
109813.44
109813.44
109813.44
109813.44
109813.44
109813.44
109813.44
109813.44
109813.44
109813.44
109813.44
109813.44
109813.44
109813.44
109813.44
109813.44
109813.44
109813.44
109813.44
109813.44
109813.44
109813.44
109813.44
109813.44
109813.44
109813.44
109813.44
109813.44
109813.44
109813.44
109813.44
109813.44
109813.44
109813.44
109813.44
109813.44
109813.44
109813.44
109813.44
109813.44
109813.44
109813.44
109813.44
109813.44
109813.44
109813.44
109813.44
109813.44
109813.44
109813.44
109813.44
109813.44
109813.44
109813.44
109813.44
109813.44
109813.44
109813.44
109813.44
109813.44
109813.44
109813.44
109813.44
109813.44
109813.44
109813.44
109813.44
109813.44
109813.44
109813.44
109813.44
109813.44
109813.44
109813.44
109813.44
109813.44
109813.44
109813.44
109813.44
109813.44
109813.44
109813.44
109813.44
109813.44
109813.44
109813.44
109813.44
109813.44
109813.44
109813.44
109813.44
109813.44
109813.44
109813.44
109813.44
109813.44
109813.44
109813.44
109813.44
109813.44
109813.44
109813.44
109813.44
109813.44
109813.44
109813.44
109813.44
109813.44
109813.44
109813.44
109813.45
109813.45
109813.45
109813.45
109813.45
109813.45
109813.45
109813.45
109813.45
109813.45
109813.45
109813.45
109813.45
109813.45
109813.45
109813.45
109813.45
109813.45
109813.45
109813.45
109813.45
109813.45
109813.45
109813.45
109813.45
109813.45
109813.45
109813.45
109813.45
109813.45
109813.45
109813.45
109813.45
109813.45
109813.45
109813.45
109813.45
109813.45
109813.45
109813.45
109813.45
109813.45
109813.45
109813.45
109813.45
109813.45
109813.45
109813.45
109813.45
109813.45
109813.45
109813.45
109813.45
109813.45
109813.45
109813.45
109813.45
109813.45
109813.45
109813.45
109813.45
109813.45
109813.45
109813.45
109813.45
109813.45
109813.45
109813.45
109813.45
109813.45
109813.45
109813.45
109813.45
109813.45
109813.45
109813.45
109813.45
109813.45
109813.45
109813.45
109813.45
109813.45
109813.45
109813.45
109813.45
109813.45
109813.45
109813.45
109813.45
109813.45
109813.45
109813.45
109813.45
109813.45
109813.45
109813.45
109813.45
109813.45
109813.45
109813.45
109813.45
109813.45
109813.45
109813.45
109813.45
109813.45
109813.45
109813.45
109813.45
109813.45
109813.45
109813.45
109813.45
109813.45
109813.45
109813.45
109813.45
109813.45
109813.45
109813.45
109813.45
109813.45
109813.45
109813.45
109813.45
109813.45
109813.45
109813.45
109813.45
109813.45
109813.45
109813.45
109813.45
109813.45
109813.45
109813.45
109813.45
109813.45
109813.45
109813.45
109813.45
109813.45
109813.45
109813.45
109813.45
109813.45
109813.45
109813.46
109813.46
109813.46
109813.46
109813.46
109813.46
109813.46
109813.46
109813.46
109813.46
109813.46
109813.46
109813.46
109813.46
109813.46
109813.46
109813.46
109813.46
109813.46
109813.46
109813.46
109813.46
109813.46
109813.46
109813.46
109813.46
109813.46
109813.46
109813.46
109813.46
109813.46
109813.46
109813.46
109813.46
109813.46
109813.46
109813.46
109813.46
109813.46
109813.46
109813.46
109813.46
109813.46
109813.46
109813.46
109813.46
109813.46
109813.46
109813.46
109813.46
109813.46
109813.46
109813.46
109813.46
109813.46
109813.46
109813.46
109813.46
109813.46
109813.46
109813.46
109813.46
109813.46
109813.46
109813.46
109813.46
109813.46
109813.46
109813.46
109813.46
109813.46
109813.46
109813.46
109813.46
109813.46
109813.46
109813.46
109813.46
109813.46
109813.46
109813.46
109813.46
109813.46
109813.46
109813.46
109813.46
109813.46
109813.46
109813.46
109813.46
109813.46
109813.46
109813.46
109813.46
109813.46
109813.46
109813.46
109813.46
109813.46
109813.46
109813.46
109813.46
109813.46
109813.46
109813.46
109813.46
109813.46
109813.46
109813.46
109813.46
109813.46
109813.46
109813.46
109813.46
109813.46
109813.46
109813.46
109813.46
109813.46
109813.46
109813.46
109813.46
109813.46
109813.46
109813.46
109813.46
109813.46
109813.46
109813.46
109813.46
109813.46
109813.46
109813.46
109813.46
109813.46
109813.46
109813.46
109813.46
109813.46
109813.46
109813.46
109813.46
109813.46
109813.46
109813.46
109813.46
109813.46
109813.46
109813.46
109813.46
109813.46
109813.46
109813.46
109813.46
109813.46
109813.46
109813.47
109813.47
109813.47
109813.47
109813.47
109813.47
109813.47
109813.47
109813.47
109813.47
109813.47
109813.47
109813.47
109813.47
109813.47
109813.47
109813.47
109813.47
109813.47
109813.47
109813.47
109813.47
109813.47
109813.47
109813.47
109813.47
109813.47
109813.47
109813.47
109813.47
109813.47
109813.47
109813.47
109813.47
109813.47
109813.47
109813.47
109813.47
109813.47
109813.47
109813.47
109813.47
109813.47
109813.47
109813.47
109813.47
109813.47
109813.47
109813.47
109813.47
109813.47
109813.47
109813.47
109813.47
109813.47
109813.47
109813.47
109813.47
109813.47
109813.47
109813.47
109813.47
109813.47
109813.47
109813.47
109813.47
109813.47
109813.47
109813.47
109813.47
109813.47
109813.47
109813.47
109813.47
109813.47
109813.47
109813.47
109813.47
109813.47
109813.47
109813.47
109813.47
109813.47
109813.47
109813.47
109813.47
109813.47
109813.47
109813.47
109813.47
109813.47
109813.47
109813.47
109813.47
109813.47
109813.47
109813.47
109813.47
109813.47
109813.47
109813.47
109813.47
109813.47
109813.47
109813.47
109813.47
109813.47
109813.47
109813.47
109813.47
109813.47
109813.47
109813.47
109813.47
109813.47
109813.47
109813.47
109813.47
109813.47
109813.47
109813.47
109813.47
109813.47
109813.47
109813.47
109813.47
109813.47
109813.47
109813.47
109813.47
109813.47
109813.47
109813.47
109813.47
109813.47
109813.47
109813.47
109813.47
109813.47
109813.47
109813.47
109813.47
109813.47
109813.47
109813.47
109813.47
109813.47
109813.47
109813.47
109813.47
109813.47
109813.47
109813.47
109813.47
109813.47
109813.47
109813.47
109813.47
109813.47
109813.47
109813.47
109813.47
109813.47
109813.47
109813.47
109813.47
109813.47
109813.47
109813.47
109813.47
109813.47
109813.47
109813.47
109813.47
109813.47
109813.47
109813.47
109813.47
109813.47
109813.47
109813.47
109813.47
109813.47
109813.47
109813.47
109813.47
109813.47
109813.47
109813.47
109813.47
109813.47
109813.47
109813.47
109813.47
109813.47
109813.46
109813.46
109813.46
109813.46
109813.46
109813.46
109813.46
109813.46
109813.46
109813.46
109813.46
109813.46
109813.46
109813.46
109813.46
109813.46
109813.46
109813.46
109813.46
109813.46
109813.46
109813.46
109813.46
109813.46
109813.46
109813.46
109813.46
109813.46
109813.46
109813.46
109813.46
109813.46
109813.46
109813.46
109813.46
109813.46
109813.46
109813.46
109813.46
109813.46
109813.46
109813.46
109813.45
109813.45
109813.45
109813.45
109813.45
109813.45
109813.45
109813.45
109813.45
109813.45
109813.45
109813.45
109813.45
109813.45
109813.45
109813.45
109813.45
109813.44
109813.44
109813.44
109813.44
109813.44
109813.44
109813.44
109813.44
109813.44
109813.44
109813.43
109813.43
109813.43
109813.43
109813.43
109813.43
109813.43
109813.43
109813.42
109813.42
109813.42
109813.42
109813.42
109813.42
109813.41
109813.41
109813.41
109813.41
109813.41
109813.4
109813.4
109813.4
109813.4
109813.39
109813.39
109813.39
109813.38
109813.38
109813.38
109813.38
109813.37
109813.37
109813.36
109813.36
109813.36
109813.35
109813.35
109813.34
109813.34
109813.34
109813.33
109813.33
109813.32
109813.32
109813.31
109813.3
109813.3
109813.29
109813.29
109813.28
109813.27
109813.27
109813.26
109813.25
109813.24
109813.23
109813.23
109813.22
109813.21
109813.2
109813.19
109813.18
109813.17
109813.16
109813.15
109813.14
109813.12
109813.11
109813.1
109813.09
109813.07
109813.06
109813.04
109813.03
109813.01
109813
109812.98
109812.96
109812.94
109812.93
109812.91
109812.89
109812.87
109812.85
109812.83
109812.8
109812.78
109812.76
109812.73
109812.71
109812.68
109812.65
109812.63
109812.6
109812.57
109812.54
109812.51
109812.47
109812.44
109812.4
109812.37
109812.33
109812.29
109812.25
109812.21
109812.17
109812.13
109812.09
109812.04
109811.99
109811.94
109811.89
109811.84
109811.79
109811.74
109811.68
109811.62
109811.56
109811.5
109811.44
109811.37
109811.31
109811.24
109811.17
109811.09
109811.02
109810.94
109810.86
109810.78
109810.7
109810.61
109810.52
109810.43
109810.34
109810.24
109810.14
109810.04
109809.93
109809.83
109809.72
109809.6
109809.49
109809.37
109809.24
109809.12
109808.99
109808.85
109808.72
109808.58
109808.43
109808.28
109808.13
109807.98
109807.82
109807.65
109807.49
109807.31
109807.14
109806.96
109806.77
109806.58
109806.39
109806.19
109805.98
109805.77
109805.56
109805.34
109805.11
109804.88
109804.64
109804.4
109804.15
109803.9
109803.64
109803.37
109803.1
109802.82
109802.54
109802.25
109801.95
109801.64
109801.33
109801.01
109800.69
109800.35
109800.01
109799.66
109799.31
109798.94
109798.57
109798.19
109797.8
109797.4
109797
109796.59
109796.16
109795.73
109795.29
109794.84
109794.38
109793.92
109793.44
109792.95
109792.45
109791.95
109791.43
109790.9
109790.36
109789.82
109789.26
109788.69
109788.11
109787.52
109786.91
109786.3
109785.67
109785.03
109784.38
109783.72
109783.05
109782.36
109781.67
109780.95
109780.23
109779.5
109778.75
109777.98
109777.21
109776.42
109775.62
109774.8
109773.97
109773.13
109772.27
109771.4
109770.52
109769.62
109768.7
109767.77
109766.83
109765.87
109764.9
109763.91
109762.9
109761.88
109760.85
109759.8
109758.73
109757.65
109756.55
109755.44
109754.31
109753.16
109752
109750.82
109749.62
109748.41
109747.18
109745.94
109744.68
109743.4
109742.1
109740.79
109739.46
109738.11
109736.75
109735.36
109733.97
109732.55
109731.12
109729.66
109728.2
109726.71
109725.21
109723.68
109722.15
109720.59
109719.01
109717.42
109715.81
109714.19
109712.54
109710.88
109709.2
109707.5
109705.79
109704.05
109702.3
109700.54
109698.75
109696.95
109695.13
109693.29
109691.43
109689.56
109687.67
109685.77
109683.84
109681.9
109679.95
109677.97
109675.98
109673.97
109671.95
109669.91
109667.85
109665.78
109663.69
109661.59
109659.47
109657.33
109655.18
109653.01
109650.83
109648.63
109646.42
109644.19
109641.95
109639.69
109637.42
109635.14
109632.84
109630.53
109628.2
109625.86
109623.51
109621.15
109618.77
109616.38
109613.97
109611.56
109609.13
109606.69
109604.24
109601.78
109599.31
109596.83
109594.33
109591.83
109589.32
109586.79
109584.26
109581.72
109579.17
109576.61
109574.04
109571.46
109568.88
109566.28
109563.68
109561.08
109558.46
109555.84
109553.22
109550.58
109547.95
109545.3
109542.65
109540
109537.34
109534.68
109532.01
109529.34
109526.67
109523.99
109521.31
109518.63
109515.94
109513.26
109510.57
109507.88
109505.19
109502.5
109499.8
109497.11
109494.42
109491.73
109489.04
109486.35
109483.66
109480.97
109478.29
109475.6
109472.92
109470.24
109467.57
109464.89
109462.22
109459.56
109456.9
109454.24
109451.59
109448.94
109446.3
109443.66
109441.03
109438.4
109435.78
109433.17
109430.56
109427.96
109425.37
109422.78
109420.21
109417.63
109415.07
109412.52
109409.97
109407.43
109404.9
109402.38
109399.87
109397.37
109394.88
109392.4
109389.92
109387.46
109385.01
109382.57
109380.14
109377.72
109375.31
109372.91
109370.52
109368.15
109365.78
109363.43
109361.09
109358.76
109356.45
109354.14
109351.85
109349.57
109347.3
109345.04
109342.8
109340.57
109338.35
109336.15
109333.96
109331.78
109329.62
109327.46
109325.32
109323.2
109321.09
109318.99
109316.9
109314.83
109312.77
109310.72
109308.69
109306.67
109304.67
109302.67
109300.7
109298.73
109296.78
109294.84
109292.92
109291.01
109289.11
109287.22
109285.35
109283.5
109281.65
109279.82
109278
109276.2
109274.41
109272.63
109270.86
109269.11
109267.37
109265.64
109263.93
109262.23
109260.54
109258.87
109257.2
109255.55
109253.91
109252.28
109250.67
109249.06
109247.47
109245.89
109244.33
109242.77
109241.23
109239.7
109238.18
109236.67
109235.17
109233.68
109232.2
109230.74
109229.28
109227.84
109226.41
109224.99
109223.57
109222.17
109220.78
109219.4
109218.02
109216.66
109215.31
109213.97
109212.63
109211.31
109210
109208.69
109207.39
109206.11
109204.83
109203.56
109202.29
109201.04
109199.8
109198.56
109197.33
109196.11
109194.9
109193.69
109192.5
109191.31
109190.13
109188.95
109187.79
109186.63
109185.47
109184.33
109183.19
109182.06
109180.93
109179.81
109178.7
109177.6
109176.5
109175.4
109174.32
109173.24
109172.16
109171.09
109170.03
109168.97
109167.92
109166.88
109165.83
109164.8
109163.77
109162.75
109161.73
109160.71
109159.7
109158.7
109157.7
109156.71
109155.72
109154.73
109153.75
109152.78
109151.8
109150.84
109149.88
109148.92
109147.97
109147.02
109146.07
109145.13
109144.2
109143.26
109142.33
109141.41
109140.49
109139.57
109138.66
109137.75
109136.85
109135.95
109135.05
109134.16
109133.27
109132.38
109131.5
109130.62
109129.74
109128.87
109128
109127.14
109126.27
109125.42
109124.56
109123.71
109122.86
109122.02
109121.17
109120.34
109119.5
109118.67
109117.84
109117.02
109116.19
109115.38
109114.56
109113.75
109112.94
109112.13
109111.33
109110.53
109109.73
109108.94
109108.15
109107.36
109106.58
109105.8
109105.02
109104.25
109103.47
109102.71
109101.94
109101.18
109100.42
109099.66
109098.91
109098.16
109097.41
109096.67
109095.93
109095.19
109094.45
109093.72
109092.99
109092.27
109091.54
109090.82
109090.11
109089.39
109088.68
109087.97
109087.27
109086.57
109085.87
109085.17
109084.48
109083.79
109083.11
109082.42
109081.74
109081.07
109080.39
109079.72
109079.05
109078.39
109077.72
109077.07
109076.41
109075.76
109075.11
109074.46
109073.82
109073.18
109072.54
109071.9
109071.27
109070.64
109070.02
109069.39
109068.78
109068.16
109067.55
109066.94
109066.33
109065.72
109065.12
109064.52
109063.93
109063.34
109062.75
109062.16
109061.58
109061
109060.42
109059.85
109059.28
109058.71
109058.14
109057.58
109057.02
109056.47
109055.91
109055.36
109054.82
109054.27
109053.73
109053.19
109052.66
109052.13
109051.6
109051.07
109050.55
109050.03
109049.51
109049
109048.49
109047.98
109047.47
109046.97
109046.47
109045.97
109045.48
109044.99
109044.5
109044.01
109043.53
109043.05
109042.58
109042.1
109041.63
109041.17
109040.7
109040.24
109039.78
109039.32
109038.87
109038.42
109037.97
109037.53
109037.09
109036.65
109036.21
109035.77
109035.34
109034.91
109034.49
109034.06
109033.64
109033.22
109032.81
109032.4
109031.99
109031.58
109031.18
109030.78
109030.38
109029.99
109029.59
109029.2
109028.81
109028.42
109028.03
109027.64
109027.28
109026.92
109026.54
109026.17
109025.8
109025.44
109025.08
109024.73
109024.38
109024.03
109023.69
109023.35
109023.01
109022.68
109022.35
109022.02
109021.69
109021.37
109021.05
109020.74
109020.43
109020.11
109019.81
109019.5
109019.2
109018.9
109018.6
109018.31
109018.02
109017.73
109017.44
109017.15
109016.87
109016.59
109016.31
109016.03
109015.76
109015.49
109015.22
109014.95
109014.68
109014.42
109014.16
109013.9
109013.64
109013.39
109013.13
109012.88
109012.63
109012.39
109012.14
109011.9
109011.66
109011.42
109011.18
109010.95
109010.72
109010.49
109010.26
109010.03
109009.81
109009.59
109009.37
109009.15
109008.93
109008.72
109008.5
109008.29
109008.08
109007.88
109007.67
109007.47
109007.27
109007.07
109006.87
109006.67
109006.48
109006.29
109006.1
109005.91
109005.72
109005.54
109005.35
109005.17
109004.99
109004.81
109004.64
109004.46
109004.29
109004.12
109003.95
109003.78
109003.62
109003.45
109003.29
109003.13
109002.97
109002.81
109002.65
109002.5
109002.35
109002.2
109002.05
109001.9
109001.75
109001.61
109001.46
109001.32
109001.18
109001.04
109000.9
109000.77
109000.63
109000.5
109000.37
109000.24
109000.11
108999.98
108999.86
108999.73
108999.61
108999.49
108999.37
108999.25
108999.13
108999.02
108998.9
108998.79
108998.68
108998.56
108998.45
108998.35
108998.24
108998.13
108998.03