/*--------------------------------*- C++ -*----------------------------------*\
  =========                 |
  \\      /  F ield         | OpenFOAM: The Open Source CFD Toolbox
   \\    /   O peration     | Website:  https://openfoam.org
    \\  /    A nd           | Version:  7
     \\/     M anipulation  |
\*---------------------------------------------------------------------------*/
FoamFile
{
    version     2.0;
    format      ascii;
    class       volScalarField;
    location    "0.0017";
    object      Uz;
}
// * * * * * * * * * * * * * * * * * * * * * * * * * * * * * * * * * * * * * //

dimensions      [0 1 -1 0 0 0 0];

internalField   nonuniform List<scalar> 
5000
(
0
0
0
0
0
1.4846561e-17
2.6276275e-32
-3.2885447e-17
-1.1709356e-17
2.5352671e-17
2.6219049e-17
-1.3112582e-17
1.0942561e-31
1.093303e-31
-2.3750936e-17
2.170227e-17
-4.1942479e-47
9.5105855e-32
1.0957114e-17
-2.1531754e-17
-1.0409765e-17
0
0
9.6237364e-18
-8.0992917e-32
7.6426137e-32
9.0215069e-18
-8.8230383e-18
-8.6383126e-18
8.4293144e-18
-1.4389724e-31
6.8555384e-32
7.8533188e-18
-7.6754372e-18
-7.5012792e-18
0
0
7.0131392e-18
6.861194e-18
-6.7144307e-18
1.1021668e-31
6.4359311e-18
-6.3039308e-18
1.0445181e-31
6.0537812e-18
-5.9353702e-18
2.0019375e-31
-1.9559967e-31
1.9276741e-31
-9.3847063e-32
-5.4050172e-18
0
0
0
0
0
0
0
0
0
0
0
0
4.4383575e-18
4.3890319e-18
-4.3548012e-18
6.7898455e-32
1.9816719e-48
-3.7558134e-18
0
0
3.9959947e-18
3.9922472e-18
0
-3.8941375e-18
-1.3462441e-31
3.904022e-18
3.8845582e-18
-3.8603157e-18
-7.6882207e-18
7.6543556e-18
-2.1686338e-33
-1.1455703e-17
7.6472201e-18
3.9638046e-31
-7.5807175e-18
1.1359339e-17
-3.7961293e-18
-3.8003844e-18
3.7965978e-18
-3.7991896e-18
-3.8123717e-18
-1.3309768e-31
7.6432357e-18
2.6431257e-31
3.8297682e-18
3.8521143e-18
1.359011e-31
-2.701269e-31
-7.7638828e-18
-3.8927092e-18
3.9143718e-18
-5.5976951e-34
-3.9591549e-18
0
3.9923416e-18
1.3971674e-31
-4.0354816e-18
4.0581283e-18
4.0808976e-18
-8.2092327e-18
-4.1294272e-18
1.2464369e-17
4.1801544e-18
-1.261579e-17
4.2302724e-18
4.2560716e-18
2.4353107e-33
4.3158814e-18
-1.3049375e-17
3.0639816e-31
8.8203756e-18
-8.8691366e-18
-4.4602628e-18
4.4912e-18
-4.5270628e-18
4.5641e-18
9.1964679e-18
-4.6280137e-18
-1.6077662e-31
-4.6861313e-18
-9.4429061e-18
4.7594374e-18
4.7947132e-18
4.8248154e-18
1.6898213e-31
1.6943595e-31
-1.7146341e-31
-9.9274781e-18
-4.9987572e-18
5.0303409e-18
1.012543e-17
5.0981304e-18
5.1344731e-18
-3.5842613e-31
-1.0399541e-17
1.4868758e-33
-1.4967914e-33
1.5147725e-47
-5.3413236e-18
3.7279288e-31
-7.5305537e-31
-5.4391115e-18
5.4728761e-18
-5.5078279e-18
-1.9216437e-31
5.5744419e-18
-5.6064127e-18
8.0142854e-34
5.6744877e-18
0
-5.7448826e-18
-3.9978658e-31
1.161164e-17
-5.8344951e-18
1.666987e-33
5.8982242e-18
-5.9315018e-18
5.962969e-18
-5.9930893e-18
2.5100294e-30
1.6801408e-30
-6.0886305e-18
1.2232865e-17
0
4.2763091e-31
1.2891201e-30
-6.2301518e-18
-6.263482e-18
-4.336595e-31
6.3163021e-18
-6.3407005e-18
-4.3799469e-31
-2.7272564e-33
-8.9017265e-31
1.2897417e-17
-6.4711118e-18
-6.4955087e-18
4.4869884e-31
-4.5165027e-31
1.3677688e-30
-4.5581811e-31
6.6199544e-18
0
0
0
0
6.7358676e-18
-1.4086345e-30
-6.7789916e-18
-6.8002179e-18
6.8198739e-18
6.839297e-18
-1.3718794e-17
-4.7612308e-31
1.4326956e-30
6.9220195e-18
6.9407994e-18
-6.9548983e-18
0
-6.9849699e-18
-4.8479024e-31
7.0232926e-18
7.0380457e-18
-9.8223124e-31
-7.0712327e-18
1.4177217e-17
-7.0994858e-18
-7.1081485e-18
7.1214715e-18
-7.1390488e-18
0
0
0
-7.1902101e-18
7.2028313e-18
1.4418033e-17
-7.2138297e-18
5.02106e-31
-7.2414892e-18
-7.2532352e-18
1.4513772e-17
-2.0629597e-33
2.0655896e-33
-7.2822242e-18
-7.2930419e-18
1.4589529e-17
-1.0364818e-33
1.5208455e-30
-7.3126281e-18
4.066292e-30
1.0154617e-30
-7.3180206e-18
7.3204973e-18
0
7.3433801e-18
-7.3429799e-18
-7.3351292e-18
7.330895e-18
0
7.3491949e-18
-7.349589e-18
-7.3413453e-18
2.5463025e-30
1.4670349e-17
1.4685757e-17
-2.2050671e-17
-1.4689599e-17
0
1.4644447e-17
7.3256197e-18
-7.3326387e-18
-7.3297689e-18
-7.317269e-18
1.4609532e-17
1.4598109e-17
-7.3021434e-18
-1.4613559e-17
-2.0242439e-30
1.4556149e-17
-7.2641e-18
1.0073092e-30
7.2661145e-18
-1.4530125e-17
7.2506952e-18
-1.0065453e-30
-7.2122372e-18
7.2105252e-18
-7.2125607e-18
1.441734e-17
-3.0004862e-30
-1.4330445e-17
1.429622e-17
4.9443965e-31
-7.1442069e-18
0
0
-7.0938124e-18
7.0728684e-18
1.4131414e-17
-7.0623424e-18
2.0042189e-33
-7.0303579e-18
-7.0055364e-18
6.9863188e-18
0
6.9746684e-18
6.9536379e-18
0
-1.3784236e-17
-6.876792e-18
1.3746507e-17
-4.7560125e-31
1.9465375e-33
-6.8084308e-18
-6.7767128e-18
6.76145e-18
-6.7559801e-18
6.7480249e-18
-3.8219868e-33
-1.3384957e-17
6.6656387e-18
6.6534173e-18
6.6471959e-18
9.1820087e-31
-6.5767907e-18
0
0
6.5163997e-18
-9.0337433e-31
1.7975689e-30
8.946491e-31
-6.4045519e-18
6.3911314e-18
-9.0736449e-34
-6.3601489e-18
0
0
0
0
0
0
0
6.1390304e-18
0
-6.0889907e-18
0
6.0192034e-18
1.6637064e-30
-5.9817064e-18
0
0
5.8732558e-18
8.1218778e-31
-5.831464e-18
0
0
5.7317775e-18
5.7072387e-18
-5.6908e-18
-5.6593655e-18
0
5.5661639e-18
-7.8639837e-34
-5.5151375e-18
5.500453e-18
5.4738216e-18
-5.4328501e-18
-5.3903525e-18
0
5.3327217e-18
5.3090608e-18
-5.2792536e-18
-5.2440326e-18
0
5.1789802e-18
5.1461405e-18
-5.1118354e-18
-5.0795177e-18
0
0
0
0
0
0
0
0
4.7784788e-18
2.6989658e-47
-4.7111778e-18
0
0
0
4.5789244e-18
6.3052043e-31
-4.5117411e-18
4.4766595e-18
-6.1678074e-31
6.2668964e-34
6.0776613e-31
-4.3429017e-18
4.3066538e-18
-4.2720083e-18
2.3558214e-30
4.2069059e-18
-4.1715352e-18
0
0
4.0687375e-18
5.6047174e-31
-4.0023944e-18
3.966193e-18
3.9313321e-18
0
-3.8661816e-18
-3.8322108e-18
3.7969628e-18
1.044318e-30
-6.0824441e-48
5.1346694e-31
-3.6642081e-18
3.6290268e-18
2.565641e-47
4.9459454e-31
3.5299419e-18
0
0
-3.430634e-18
-4.8275525e-34
1.3995238e-30
-3.3307499e-18
0
0
3.235381e-18
-8.8775842e-31
-3.1690237e-18
0
0
0
3.0425291e-18
-4.2785963e-34
-2.9793614e-18
2.9484244e-18
-2.9171859e-18
8.0202326e-31
5.7072717e-18
-2.8230032e-18
-1.1635288e-30
-3.837172e-31
3.7946179e-31
2.7022418e-18
0
0
-2.613318e-18
-3.5874616e-31
7.0908159e-31
-1.421842e-48
2.4960716e-18
-2.4664931e-18
-2.4378699e-18
0
2.3836306e-18
3.2701077e-31
-2.3261089e-18
0
0
2.2438114e-18
-6.3026642e-34
-1.3249141e-48
2.1631803e-18
-2.1364797e-18
2.9238936e-31
-2.8940793e-31
5.714238e-31
2.0330466e-18
-2.0068641e-18
5.5007291e-31
-5.433924e-31
5.3662944e-31
1.9071966e-18
-1.8825191e-18
5.1597675e-31
-2.552092e-31
0
1.786217e-18
-1.7621352e-18
2.4142648e-31
-2.4397307e-34
2.353391e-31
-2.3242997e-31
-1.6490014e-18
1.6258574e-18
1.60363e-18
-1.5824164e-18
-1.561487e-18
0
1.5184753e-18
1.4973424e-18
0
-1.4564678e-18
1.9936659e-31
-2.0117935e-34
-1.9362665e-31
1.3767462e-18
-1.3573572e-18
-1.8556512e-31
3.6623221e-31
1.3003539e-18
1.2816897e-18
-2.5255339e-18
1.7678266e-34
-1.7002224e-31
-1.2084655e-18
1.1913538e-18
-1.6298812e-31
-1.1563739e-18
0
0
0
1.0894705e-18
1.073117e-18
-1.057192e-18
-1.0413247e-18
0
1.0097033e-18
9.947497e-19
-9.8045641e-19
-9.6603087e-19
0
9.3605338e-19
9.2145375e-19
-9.0736352e-19
-2.4815052e-31
8.8002672e-19
0
0
0
0
-8.1410589e-19
2.2225833e-31
7.8818284e-19
-7.7545356e-19
-1.0598191e-31
1.0446922e-31
-5.684734e-49
-7.2818927e-19
-7.1661634e-19
1.4107267e-18
9.6370456e-32
-9.4702297e-32
6.7164025e-19
0
-6.5065128e-19
-6.405304e-19
6.3013422e-19
1.7187334e-31
-6.0929661e-19
0
0
5.8084139e-19
-7.9276497e-32
-5.6211813e-19
0
5.4330827e-19
-7.5929269e-35
1.4595969e-31
7.1754475e-32
-5.0915162e-19
5.007207e-19
-6.9935828e-35
1.3431034e-31
4.7556545e-19
-4.6785051e-19
-1.278585e-31
-6.4375382e-35
6.1826603e-32
4.3757342e-19
-4.3006845e-19
0
2.3099882e-31
5.6739365e-32
1.6728137e-31
5.6147308e-35
3.8855907e-19
-3.8242381e-19
-1.2113528e-48
5.1347286e-32
-1.008532e-31
4.9523518e-32
-7.0088796e-19
3.4447467e-19
3.3877803e-19
4.6269114e-32
-4.5510106e-32
-6.4443556e-19
3.1650825e-19
3.1080906e-19
-2.6250628e-49
0
-2.3210857e-49
2.9015055e-19
-2.8510931e-19
-2.4684798e-49
3.8135534e-32
3.8388901e-35
2.6546683e-19
-5.2183072e-19
-7.1214992e-32
2.5198441e-19
-3.4317707e-32
3.3689953e-32
-2.3853415e-19
2.3440839e-19
7.621544e-49
9.4332758e-32
-6.1752679e-32
6.0557329e-32
5.9505458e-32
-1.7658306e-49
0
-2.0310956e-19
0
0
1.9225335e-19
5.2427017e-32
-1.85387e-19
0
0
3.5095067e-19
1.4332841e-31
-3.3791391e-19
1.6591197e-19
-2.3163561e-35
2.2220205e-32
1.5696467e-19
0
0
0
1.4578257e-19
3.9723055e-32
-1.4037488e-19
0
0
1.3227266e-19
-1.8461539e-35
-1.2763621e-19
0
0
1.2024392e-19
3.2699493e-32
3.2135073e-32
-3.1544991e-32
-1.1150309e-19
1.0927021e-19
-2.970145e-32
2.9102309e-32
-2.8524678e-32
-1.0089191e-19
0
0
9.4946202e-20
2.1554181e-48
-9.1291007e-20
0
0
8.5687404e-20
1.2583374e-48
-8.2371563e-20
0
0
7.7222663e-20
1.2689842e-48
-7.3992191e-20
0
0
6.9528051e-20
-9.6588906e-36
-6.6505084e-20
6.5130014e-20
-1.7706096e-32
1.7303871e-32
-1.6895144e-32
-5.9487657e-20
0
0
0
0
0
5.1856347e-20
-1.4088729e-32
-4.9604551e-20
0
0
0
0
0
0
0
4.0674291e-20
-2.2033623e-32
-3.8776591e-20
0
0
0
0
0
0
0
3.1254818e-20
-8.4101012e-33
-2.9504706e-20
0
0
2.7325848e-20
-7.3485477e-33
-2.5602636e-20
0
0
0
2.2853755e-20
6.1352014e-33
-2.1292611e-20
0
0
0
0
0
0
0
1.6236811e-20
-2.2275651e-36
-1.5143815e-20
0
0
0
0
0
0
0
1.1059576e-20
1.5059804e-36
-1.0083417e-20
0
0
0
8.4409839e-21
-4.4828899e-33
-7.6659341e-21
0
6.8706426e-21
1.8098672e-33
-6.1878632e-21
0
0
5.2615257e-21
4.9387243e-21
-4.6544053e-21
-4.4202578e-21
0
0
0
0
-3.0297466e-21
4.0881986e-37
5.4860169e-21
2.5638823e-21
-4.6844482e-21
-4.2412961e-21
1.9138737e-21
1.7122791e-21
0
0
0
0
9.8627346e-22
2.2153681e-34
-5.9650383e-22
0
0
0
0
0
0
0
0
0
0
0
0
0
0
-9.4180566e-22
5.9261773e-34
1.1936639e-21
0
0
1.4387659e-21
-4.0774435e-34
2.1474674e-37
-1.5959544e-21
-1.7231984e-21
-1.036496e-33
5.4472685e-34
1.9783705e-21
0
0
0
0
0
-2.4647228e-21
1.3754994e-33
2.4765981e-21
0
0
0
0
0
0
0
-2.9436872e-21
1.6896447e-33
3.1557504e-21
0
0
0
0
0
0
0
-3.5610458e-21
2.9955602e-33
3.6291375e-21
0
0
0
0
0
0
0
0
-3.8530477e-21
5.4937743e-37
3.9212816e-21
0
0
0
0
-3.9805867e-21
4.0117514e-21
4.0262979e-21
-7.9882251e-21
-1.1027922e-33
4.0088226e-21
0
0
0
0
-3.7917926e-21
1.0750097e-33
7.9560483e-21
-4.0093594e-21
-3.9606543e-21
3.8888524e-21
0
0
0
-3.8272275e-21
-1.0706583e-33
3.8342245e-21
3.776411e-21
-3.6984917e-21
-3.645109e-21
3.6467722e-21
0
0
-3.645468e-21
-3.6052045e-21
3.6009264e-21
3.6000333e-21
3.5622979e-21
1.9465032e-33
-3.4245058e-21
0
0
0
-3.4572982e-21
-3.4073855e-21
3.3267315e-21
3.2834287e-21
3.3138431e-21
9.3204675e-34
-3.3707594e-21
0
0
0
-3.2451285e-21
9.1023017e-34
3.2920449e-21
0
0
0
0
0
0
0
-3.1447822e-21
8.6733373e-34
6.3715081e-21
9.0104071e-34
-3.2592162e-21
0
0
-3.1521076e-21
4.5187194e-37
-8.9615433e-34
9.032014e-34
3.2451185e-21
3.2079884e-21
-8.8518895e-34
-3.2112117e-21
0
0
-3.2295802e-21
2.6397513e-33
8.7148978e-34
-4.5180202e-37
3.2546494e-21
-3.3054242e-21
-3.2911877e-21
6.4846388e-21
-1.7783297e-33
-3.179468e-21
3.1807854e-21
0
-3.2613035e-21
-9.1096968e-34
3.2626363e-21
0
-3.1608372e-21
3.1206257e-21
-3.4952312e-33
-3.221755e-21
3.2559664e-21
0
-3.1843713e-21
0
3.0841129e-21
0
-3.1938872e-21
3.2181729e-21
-1.7654927e-33
-3.1242039e-21
3.0696664e-21
0
-3.1138716e-21
-8.7504751e-34
3.1424029e-21
0
-3.0319074e-21
2.9915586e-21
-8.5691746e-37
-3.0631014e-21
3.0883744e-21
0
-3.0208563e-21
-2.9837478e-21
2.9814797e-21
3.0103044e-21
-3.0256238e-21
2.9924377e-21
2.9394564e-21
-2.8896046e-21
0
0
0
0
0
0
-2.8430578e-21
8.8388955e-52
5.617134e-21
-2.844938e-21
-2.8644637e-21
2.8487504e-21
0
0
-2.7502013e-21
-2.7652965e-21
2.7841716e-21
2.7768881e-21
0
-2.714722e-21
-7.4878941e-34
2.7047511e-21
0
0
-2.666562e-21
-2.6347982e-21
2.6298949e-21
2.6470702e-21
0
-2.629793e-21
7.1642049e-34
2.5461093e-21
-2.5513426e-21
-1.4383681e-33
-3.7120558e-37
-2.5830054e-21
2.5368533e-21
2.4965548e-21
0
0
-2.5388243e-21
7.0257679e-34
2.4967141e-21
0
-2.423001e-21
-2.4417377e-21
2.4850786e-21
2.5068665e-21
0
0
0
0
0
0
-2.4568288e-21
6.7398768e-34
2.3891901e-21
0
0
0
0
0
0
-2.3758975e-21
1.6790982e-51
2.4452751e-21
2.4694558e-21
6.7765802e-34
-2.4036572e-21
0
0
0
0
-2.497688e-21
-6.8494022e-34
2.4281131e-21
-2.3932714e-21
-2.391592e-21
2.4468613e-21
-1.3899257e-33
-2.101487e-33
-2.0803202e-33
6.8503826e-34
-1.3548447e-33
6.7824598e-34
2.4951061e-21
0
-2.5403777e-21
2.1020309e-33
-3.5474412e-37
-2.4848956e-21
2.5097958e-21
2.5467297e-21
-2.5662175e-21
7.086181e-34
-2.0987713e-33
-1.3878621e-33
-1.3926063e-33
7.0832696e-34
-1.4353289e-33
-2.5733356e-21
2.543711e-21
2.5140964e-21
-2.50451e-21
7.0442912e-34
-2.8518997e-33
-7.1278936e-34
7.0777806e-34
6.9840517e-34
6.9416111e-34
-2.518177e-21
0
2.5345168e-21
-6.9826263e-34
1.1502377e-51
2.4647723e-21
0
-2.5162673e-21
2.5215501e-21
2.491466e-21
-2.4542046e-21
0
0
0
0
-2.4598687e-21
6.8100581e-34
-1.3497138e-33
2.4041494e-21
2.3793117e-21
-2.3586187e-21
0
0
0
0
-2.356303e-21
-3.3216325e-37
2.3224219e-21
0
0
0
0
0
0
0
-2.2295528e-21
-2.1984857e-21
2.1918344e-21
2.2220214e-21
0
0
0
0
0
0
-2.2043825e-21
-2.1960768e-21
2.1753226e-21
2.1503415e-21
0
0
0
0
0
0
-2.109348e-21
-2.1301835e-21
2.1634348e-21
2.1783506e-21
0
0
0
0
0
0
-2.1658848e-21
1.1919584e-33
2.1237146e-21
0
0
0
0
0
0
-2.1477966e-21
5.9453287e-34
2.135388e-21
0
0
0
0
-2.1398391e-21
-3.0186637e-37
2.0963807e-21
-2.0798885e-21
1.2289334e-51
2.1243114e-21
-2.1429381e-21
1.1824889e-33
2.1015631e-21
-2.0736273e-21
-1.1442778e-33
-1.1513309e-33
3.8323953e-51
-1.1733512e-33
-5.862961e-34
2.1051206e-21
-2.0903543e-21
-2.0750672e-21
4.1216139e-21
-1.1300849e-33
-4.0486574e-21
0
2.0753329e-21
-5.7963319e-34
-5.7346752e-34
-1.6884936e-33
-1.6567763e-33
-1.0951075e-33
1.6619457e-33
-1.1281831e-33
5.7042353e-34
2.0416705e-21
0
-2.0029729e-21
-2.8361366e-37
-1.6701118e-33
-1.6809203e-33
2.8702805e-37
1.1158164e-33
-5.5536004e-34
-1.9955403e-21
0
1.9854632e-21
-1.1010678e-33
-2.8302441e-37
1.9978836e-21
0
-1.9792456e-21
1.9544996e-21
1.9401191e-21
-1.9514164e-21
0
0
-1.9874416e-21
2.1773026e-33
-1.0715154e-33
1.0682963e-33
-5.4348337e-34
1.9960623e-21
2.0086914e-21
-1.9800247e-21
0
0
0
0
-2.0178248e-21
-5.6383356e-34
-2.2126839e-33
1.949216e-21
1.9085807e-21
-1.9031084e-21
0
0
0
0
-1.9865157e-21
-1.9504358e-21
1.929156e-21
1.9436936e-21
0
0
0
0
0
0
-1.9488989e-21
-1.9775186e-21
2.0202827e-21
2.0380099e-21
0
0
0
0
0
0
-2.033334e-21
1.6717448e-33
3.9430299e-21
-1.9360536e-21
-1.9238753e-21
1.9535053e-21
0
4.0257846e-21
-2.2156504e-33
-6.5508356e-33
-1.9370639e-21
-3.845032e-21
3.8751292e-21
-1.9684336e-21
-1.9832531e-21
1.9731198e-21
-1.953685e-21
2.7456355e-37
1.9207303e-21
1.9299422e-21
-1.9440381e-21
-1.9473244e-21
1.9331027e-21
-1.9090286e-21
-2.689314e-37
1.8952025e-21
0
0
0
3.8031479e-21
-1.8805033e-21
-3.7390769e-21
1.8754165e-21
-1.8882255e-21
-1.8925642e-21
3.7740359e-21
-3.5548934e-53
-1.8737767e-21
1.8720461e-21
3.7339112e-21
1.855015e-21
-5.5069437e-21
1.8241716e-21
-5.7465878e-50
-5.5275075e-21
3.6927845e-21
1.8362691e-21
1.815988e-21
3.6076482e-21
-3.6198259e-21
-1.8270504e-21
-1.8320739e-21
1.8100871e-21
1.7812067e-21
-5.2700715e-21
1.7522943e-21
1.7794845e-21
-1.8105258e-21
-1.8184393e-21
-2.5524193e-37
5.3022534e-21
-1.7449558e-21
2.8880584e-33
-2.9061125e-33
-5.2961608e-21
1.779649e-21
1.7773751e-21
3.5258444e-21
-1.7493231e-21
-3.4786195e-21
3.4664122e-21
-1.7346443e-21
1.74099e-21
1.7454605e-21
-5.2245019e-21
1.7307049e-21
1.7207496e-21
-3.4233839e-21
-1.706112e-21
1.7099939e-21
5.1528356e-21
-1.717122e-21
-6.8103288e-21
9.3586679e-34
3.3443518e-21
1.66655e-21
0
3.3758588e-21
3.7461471e-33
-5.0342543e-21
1.6656167e-21
-3.6833728e-33
1.6618481e-21
1.6655806e-21
-3.3231988e-21
0
0
0
-1.6383599e-21
9.1254311e-34
3.2901934e-21
-1.6420741e-21
-3.276096e-21
4.89771e-21
-5.4126388e-33
-3.2363037e-21
1.6102015e-21
0
0
0
3.2254813e-21
-1.6040133e-21
-3.1853724e-21
4.763172e-21
-4.5308487e-37
-3.2073693e-21
0
0
-1.5895271e-21
8.8001086e-34
3.1699804e-21
-1.5849917e-21
-3.1611314e-21
4.7287772e-21
-2.6278321e-33
-3.1784402e-21
1.5954181e-21
-1.5894039e-21
3.1523819e-21
1.5625916e-21
-5.1863304e-33
-1.5642917e-21
-3.1568143e-21
4.7675784e-21
-9.0451037e-37
-1.5893511e-21
8.8089009e-34
-1.5835891e-21
-1.5776374e-21
8.7116587e-34
4.6927528e-21
-4.4589466e-37
-4.7560706e-21
3.1893494e-21
4.9000351e-50
-3.1418559e-21
1.5568105e-21
-1.5542287e-21
3.1429271e-21
1.5921303e-21
-3.5508538e-33
-1.5873694e-21
-3.1427149e-21
-1.5612032e-21
-1.563309e-21
4.7467812e-21
0
-1.5960015e-21
-8.7992875e-34
8.7297189e-34
-8.6981139e-34
1.5734799e-21
-1.7608495e-33
1.5951337e-21
-5.3103914e-33
-4.7681163e-21
3.1735834e-21
4.7586988e-21
1.5864081e-21
-4.7457574e-21
-3.150216e-21
4.7087791e-21
-1.5677003e-21
-4.7180241e-21
0
0
1.5796972e-21
1.5737113e-21
0
-1.5598751e-21
-1.551996e-21
3.0931903e-21
-3.4402684e-33
-4.6725072e-21
1.7324216e-33
1.5503499e-21
1.5362331e-21
1.5251745e-21
-1.5200983e-21
-1.5246836e-21
1.5315103e-21
4.5895306e-21
-1.5206191e-21
-6.0550863e-21
1.513993e-21
3.0237834e-21
1.5018568e-21
0
-1.470161e-21
0
-1.4710848e-21
1.4892454e-21
-3.3189962e-33
1.4764359e-21
-4.8361115e-33
-4.298321e-21
1.4244911e-21
1.4341771e-21
-1.451224e-21
-1.4585892e-21
1.4492811e-21
4.2944364e-21
-1.415548e-21
-5.6193089e-21
2.336812e-33
1.4115143e-21
2.8355587e-21
1.4145431e-21
-2.8052684e-21
-7.7078745e-34
-1.9606135e-37
1.3795277e-21
-3.0783659e-33
-1.3900457e-21
4.1454159e-21
-1.5197335e-33
-2.7188889e-21
0
0
-1.3698527e-21
7.5541145e-34
2.6939343e-21
-1.3360721e-21
-2.6646814e-21
-1.3415208e-21
1.4963651e-33
4.0309673e-21
1.3322843e-21
-1.319067e-21
2.6276784e-21
-7.5109817e-37
-4.4400046e-33
-1.3361683e-21
-2.6499591e-21
3.9324208e-21
-1.4450515e-33
-2.5997935e-21
0
0
2.6404075e-21
-2.918758e-33
-1.453145e-33
-3.7162788e-37
-3.9243362e-21
-2.6154655e-21
2.1707793e-33
3.8916646e-21
1.2937073e-21
-1.2939804e-21
2.5959651e-21
1.4455563e-33
-4.3473948e-33
-1.3055266e-21
-2.601421e-21
3.8745267e-21
-1.2831522e-21
-1.2763044e-21
1.2752019e-21
-1.285235e-21
2.5896688e-21
-1.4380622e-33
-1.2860269e-21
-1.8097596e-37
-2.5345586e-21
2.5433915e-21
-2.1337611e-33
-2.5736574e-21
1.2806353e-21
0
-1.2613393e-21
-7.0277394e-34
3.835548e-21
-1.2829061e-21
-2.5369359e-21
-1.2465322e-21
-1.2327731e-21
1.2390764e-21
1.2660725e-21
1.2882685e-21
-1.285398e-21
6.9663984e-34
-6.7794615e-34
1.199892e-21
-1.3409526e-33
1.2439034e-21
-4.2443327e-33
-3.8564891e-21
2.549007e-21
8.2294255e-51
-1.2373509e-21
-1.3624614e-33
6.7988534e-34
3.7029768e-21
-1.2493712e-21
-3.7765287e-21
0
0
1.2364073e-21
1.2296383e-21
2.4610748e-21
-1.2417518e-21
-2.505224e-21
2.5028123e-21
-1.2362583e-21
-3.6606338e-21
1.2093216e-21
1.2103509e-21
1.2275584e-21
1.2474952e-21
-2.5068838e-21
-1.239678e-21
1.2214973e-21
3.6245938e-21
-1.2039943e-21
7.0240601e-50
-2.0487255e-33
-2.4814426e-21
2.4745596e-21
2.4491091e-21
-1.2121019e-21
-2.410424e-21
2.4167052e-21
1.2223265e-21
-3.7042452e-21
-3.7050966e-21
1.2223208e-21
2.417546e-21
1.2000949e-21
-6.6650427e-34
-2.4288838e-21
-1.226345e-21
1.228086e-21
2.4438396e-21
-1.7253996e-37
-2.4225749e-21
2.4296681e-21
-2.0316865e-33
-2.4351962e-21
1.2111828e-21
2.4107549e-21
2.4104164e-21
0
-1.2206055e-21
-3.6462433e-21
-1.2047168e-21
1.1927722e-21
0
0
0
0
-1.2108183e-21
6.6492019e-34
3.5670447e-21
-1.1879931e-21
-3.5989099e-21
-1.2098623e-21
2.0145297e-33
2.400102e-21
1.1886144e-21
-1.1833624e-21
2.3753257e-21
1.1995482e-21
-4.0178198e-33
-1.2005436e-21
-2.3811544e-21
3.5483733e-21
-3.3551358e-37
-1.1867641e-21
1.6954639e-37
-1.1929517e-21
-1.1870992e-21
1.3092649e-33
3.5282164e-21
-3.353114e-37
-3.5505663e-21
-2.3635667e-21
6.5195227e-34
2.3326179e-21
1.1627041e-21
-1.167782e-21
2.3481996e-21
1.1748107e-21
-3.8906409e-33
-1.1582866e-21
-2.3072245e-21
3.4744008e-21
-1.2927264e-33
-1.1624231e-21
-1.14899e-21
-1.1309302e-21
-6.2237106e-34
6.2666494e-34
2.2995705e-21
6.4706213e-34
-2.324521e-21
2.2755913e-21
-5.5639505e-33
-3.2902026e-21
2.1901001e-21
-1.2374319e-33
-2.2723477e-21
1.1451052e-21
1.1412135e-21
2.2617823e-21
-1.116867e-21
-3.3110594e-21
0
0
0
3.3185885e-21
3.3637814e-21
-3.3635409e-21
-3.2979802e-21
2.1486695e-21
-2.9999512e-37
1.0517818e-21
-3.5594353e-33
-3.2726109e-21
3.3059311e-21
-5.4597381e-33
-2.1387251e-21
-5.8218607e-34
5.7537375e-34
2.0724359e-21
-1.0513415e-21
1.0677722e-21
-3.5745561e-33
-3.189549e-21
3.1372454e-21
1.0313526e-21
-2.2708895e-33
2.0455613e-21
-2.063995e-21
-1.0409235e-21
-1.0404232e-21
-3.0861624e-21
1.1279259e-33
1.0069973e-21
3.0127031e-21
-6.734941e-33
-3.0458786e-21
0
9.972386e-22
1.9663792e-21
-9.7746474e-22
9.8384844e-22
-3.3220145e-33
-2.0010489e-21
2.9611057e-21
-2.1469208e-33
-1.0541156e-33
-1.048102e-33
-1.060596e-33
9.7251956e-22
-2.9434666e-21
-2.9259334e-21
9.6035344e-22
1.8950408e-21
0
-9.3940061e-22
1.0476963e-33
-2.1058056e-33
1.0539476e-33
9.4760008e-22
-9.4571433e-22
-9.4170569e-22
2.8052608e-21
4.1433227e-50
-1.5335971e-33
9.1815322e-22
-1.0234053e-33
1.859482e-21
-1.8627684e-21
-1.8438852e-21
-9.1048699e-22
1.0025327e-33
9.0252848e-22
0
0
0
1.8145256e-21
-8.9676103e-22
-1.7854375e-21
2.6917997e-21
-9.0812774e-22
-2.738821e-21
2.7194555e-21
-2.9830249e-33
-1.7738625e-21
2.6559167e-21
1.7838842e-21
0
-1.8115659e-21
-3.0065556e-33
-8.9787639e-22
-1.7912957e-21
8.9510213e-22
0
1.7885559e-21
2.5311734e-37
9.8692468e-34
-8.9192074e-22
-2.696977e-21
2.7068456e-21
-1.4914029e-33
-2.6567096e-21
2.6388957e-21
-4.3982974e-33
-1.7804121e-21
9.0004884e-22
-9.0064878e-22
1.7813465e-21
8.7957878e-22
-3.8837255e-33
-8.7854287e-22
-1.7821468e-21
-8.9943678e-22
-8.9746956e-22
1.7770241e-21
8.7936407e-22
0
-8.8253697e-22
4.9630657e-34
9.8684325e-52
8.9190044e-22
-2.5050708e-37
8.7328425e-22
-2.2421725e-50
-2.6404182e-21
2.6723024e-21
2.6868925e-21
-1.7813064e-21
-1.7662766e-21
0
1.7571375e-21
-8.8062163e-22
-2.6454242e-21
2.6393995e-21
-1.4581314e-33
-1.7483637e-21
8.7830056e-22
0
-8.7872857e-22
-8.694765e-22
8.5897709e-22
-1.4241784e-33
1.7221688e-21
4.9631513e-37
-2.6330214e-21
0
2.572094e-21
1.6932631e-21
-2.5335903e-21
-1.7055193e-21
2.5947869e-21
8.687958e-22
-3.4373634e-21
-8.4656487e-22
1.6753922e-21
1.6725159e-21
-9.3672511e-34
-8.5403909e-22
-8.5690351e-22
-8.4776798e-22
8.3622037e-22
-9.2026747e-34
1.6556105e-21
-2.7785152e-33
-2.5255406e-21
0
0
1.6533047e-21
-1.8244975e-33
-8.2162804e-22
2.4823981e-21
-8.310164e-22
-1.3779288e-33
-2.7337728e-33
-2.4446632e-21
8.1338231e-22
-4.5354874e-34
9.0998328e-34
8.1611965e-22
-8.0929141e-22
1.1404436e-37
-4.4507349e-34
8.9850102e-34
8.2067567e-22
0
-8.1069757e-22
1.5882667e-21
7.8228469e-22
-1.5614704e-21
0
8.0407112e-22
-8.1370338e-22
-1.6305748e-21
2.4314905e-21
-2.6811485e-33
-2.6637547e-33
7.9385154e-22
-2.3658733e-21
1.1168838e-37
7.8879012e-22
7.9817422e-22
-8.0916816e-22
-8.1155701e-22
8.0198166e-22
0
-7.7968119e-22
1.5584336e-21
-1.313729e-33
-8.0262674e-22
-1.8038725e-33
-1.8000908e-33
-2.2722454e-37
-1.5780421e-21
2.3512786e-21
2.3557702e-21
0
-1.6143198e-21
-2.442079e-21
-1.1528286e-37
8.0198366e-22
7.9432611e-22
-7.9168168e-22
-7.9523634e-22
8.0481094e-22
0
1.6237021e-21
1.6137551e-21
-2.405696e-21
-8.0176362e-22
8.0738969e-22
-2.3184817e-37
-8.1930238e-22
-1.6277888e-21
-8.0696865e-22
1.3384999e-33
3.2235856e-21
-2.7154835e-33
-2.474848e-21
8.2625651e-22
8.178911e-22
8.0945318e-22
-8.0549343e-22
-8.0790751e-22
-8.183851e-22
-2.3604583e-37
8.3607084e-22
-8.3117075e-22
2.4653088e-21
1.6313032e-21
-2.4419449e-21
8.1679942e-22
1.6472123e-21
-1.6608695e-21
8.3452189e-22
-8.3535122e-22
-1.669429e-21
2.5002543e-21
-8.3125063e-22
2.7602633e-33
2.4795733e-21
-1.6530467e-21
-8.2969959e-22
-8.3439546e-22
-1.6736795e-21
8.3430695e-22
1.5732311e-78
1.6573637e-21
8.3040396e-22
-9.2711067e-34
-8.374884e-22
-1.6662085e-21
1.6537253e-21
-8.2369891e-22
-2.4777224e-21
2.5038451e-21
8.3998478e-22
-6.2595808e-50
8.2597587e-22
-2.4476796e-21
-8.1328025e-22
8.2029481e-22
1.6661818e-21
-8.3978061e-22
8.3563346e-22
-2.7491988e-33
-1.6327101e-21
2.4411164e-21
9.0939531e-34
-3.6793167e-33
1.8494228e-33
-1.6547027e-21
1.6375366e-21
-8.130347e-22
-3.2502022e-21
8.1907267e-22
1.6518075e-21
0
1.6322209e-21
-1.7894166e-33
-4.5513666e-37
-8.9133217e-34
-8.1278342e-22
-8.2011183e-22
8.1776698e-22
8.068411e-22
-1.5916795e-21
1.5809628e-21
-8.8042484e-34
-1.6059163e-21
1.619096e-21
2.6857989e-33
-8.8315864e-34
-7.846623e-22
-1.5590525e-21
7.8233379e-22
-7.9183579e-22
4.4299571e-34
7.9459352e-22
1.56594e-21
-7.7161073e-22
-1.5313246e-21
7.6735651e-22
-7.7621975e-22
1.3040467e-33
-7.810728e-22
-1.7125126e-33
1.5219987e-21
1.5101372e-21
1.6751855e-33
-2.5318703e-33
2.5414359e-33
-7.5847786e-22
-7.5087109e-22
-7.4399347e-22
7.4152222e-22
0
0
-7.4552213e-22
4.0695751e-34
1.0233358e-37
7.9125824e-34
7.1417334e-22
0
-7.3257603e-22
-1.4628983e-21
7.1830712e-22
1.4067596e-21
1.3865513e-21
1.3797202e-21
-2.0819584e-21
-2.3337493e-33
2.112888e-21
-1.4008263e-21
-1.3818567e-21
0
-6.7388375e-22
1.3379018e-21
6.6746706e-22
-1.3388213e-21
-6.7214552e-22
7.4335495e-34
1.980045e-21
-6.4843082e-22
-1.9164919e-21
1.9035877e-21
6.3667187e-22
-1.9262262e-21
7.141202e-34
6.3563327e-22
1.2422414e-21
6.7460703e-34
-1.2013976e-21
1.2025227e-21
-6.0768287e-22
-1.837949e-21
0
5.9725062e-22
1.1683531e-21
-3.1958365e-34
5.7218726e-22
1.1492756e-21
-1.1569341e-21
-1.1528328e-21
0
-5.5275969e-22
-6.0377527e-34
-6.0000983e-34
-6.0232937e-34
1.6395343e-21
1.0901478e-21
0
-1.0433585e-21
-1.1328027e-33
-5.0568715e-22
-1.5247384e-21
5.1422449e-22
-2.8713559e-34
7.2622155e-38
4.9440162e-22
9.5565703e-22
-4.6801371e-22
-9.3372423e-22
4.7319054e-22
0
9.6389803e-22
-4.7704204e-22
-1.4013273e-21
4.5541564e-22
4.4560312e-22
8.7759927e-22
-4.3562342e-22
-1.309212e-21
4.3925456e-22
-4.8971307e-34
-8.789712e-22
4.3304402e-22
4.2502325e-22
8.3819971e-22
1.2444043e-21
-8.2190126e-22
-8.1423095e-22
8.0758056e-22
4.4731298e-34
-8.1058618e-22
8.164411e-22
4.5020868e-34
-7.8879486e-22
0
7.5028066e-22
7.5476347e-22
0
-1.1879511e-21
-3.9635764e-22
-1.09354e-37
-3.6871831e-22
-3.5869819e-22
-4.004946e-34
7.4416523e-22
7.6840861e-22
-1.2985927e-33
-7.6973252e-22
7.4274593e-22
1.1993492e-33
-7.1437193e-22
0
0
0
0
7.5874304e-22
4.1035489e-34
-7.2844023e-22
-3.6659653e-22
7.4989032e-22
-1.2811885e-33
-7.793501e-22
7.7529359e-22
4.2360306e-34
-3.7748605e-22
7.591001e-22
-1.2879127e-33
-7.9076484e-22
7.9946395e-22
7.9491233e-22
-7.8639297e-22
-7.8428398e-22
0
0
0
0
-4.1020431e-22
4.0576995e-22
4.0737162e-22
-4.6099197e-34
-3.4872914e-77
-4.3403352e-22
-8.6659372e-22
-4.2643477e-22
8.4281045e-22
1.2720323e-21
-4.3364239e-22
-8.9203878e-22
1.3603494e-21
9.0436301e-22
-1.3355137e-21
-8.8047515e-22
-4.4264711e-22
-5.0149985e-34
9.269762e-22
0
-4.7013692e-22
4.633971e-22
-1.0173862e-33
-1.3051954e-37
-1.5523962e-33
-4.7623213e-22
-4.8302373e-22
1.3733845e-37
9.5753133e-22
9.5059517e-22
-1.5863205e-33
-9.6281986e-22
0
0
0
-4.839996e-22
-4.8305893e-22
4.8614549e-22
4.9273755e-22
-4.9710959e-22
9.9038671e-22
1.4648716e-21
0
-9.649922e-22
-5.418119e-34
-4.9633379e-22
-1.5001626e-21
4.9592925e-22
-8.1091564e-34
9.5989581e-22
-3.1927185e-33
-9.6889788e-22
-2.7310868e-34
-7.0436506e-38
4.9188511e-22
-4.8297862e-22
9.5106585e-22
4.7340567e-22
-9.5264682e-22
9.6393654e-22
1.3772315e-37
-5.341659e-34
-4.7335015e-22
-1.4004798e-21
9.2984173e-22
-4.5417256e-52
4.7162381e-22
-7.8666067e-34
-9.3339621e-22
4.5767681e-22
9.0135828e-22
-4.9825843e-34
-1.3550227e-21
1.2959749e-37
4.5705161e-22
-4.530208e-22
8.9350228e-22
4.4199825e-22
-8.7996334e-22
8.7868623e-22
4.856217e-34
-2.4019805e-33
9.4911089e-34
-8.4941047e-22
8.505897e-22
-4.2826925e-22
-8.5979732e-22
4.2655155e-22
-4.1836215e-22
8.2145651e-22
-6.7768505e-34
-1.2188885e-21
0
0
1.2236579e-21
4.060549e-22
-8.0890497e-22
8.0612624e-22
2.2734538e-37
-1.7490505e-33
-4.3088374e-34
-7.7182793e-22
7.7597475e-22
7.8610351e-22
-3.9643971e-22
-1.1803942e-21
-3.8416489e-22
3.758158e-22
0
0
-3.8421252e-22
2.1673549e-34
1.170746e-21
1.0875166e-37
-7.4851553e-22
-3.706508e-22
4.1352226e-34
1.1355394e-21
8.5422631e-34
-7.7302522e-22
0
-3.7668769e-22
7.4941348e-22
3.7695989e-22
-8.4904595e-34
-3.8757656e-22
-7.7676548e-22
3.8367659e-22
0
0
0
0
-3.9431317e-22
2.192475e-34
1.1716046e-21
-3.8649698e-22
-1.1593656e-21
1.1711427e-21
3.9695398e-22
-8.0279648e-22
-4.0068774e-22
-6.6008308e-34
1.1803231e-21
-2.2430367e-37
-1.3300288e-33
-4.0563882e-22
-8.2025692e-22
-4.1025259e-22
-4.5202706e-34
4.0504062e-22
4.0499215e-22
4.0707441e-22
4.1121361e-22
-9.2424614e-34
-8.4138894e-22
0
0
-4.0903586e-22
-6.769439e-34
-5.8139952e-38
5.9107695e-38
4.2370706e-22
8.5444821e-22
8.4929567e-22
-8.3923716e-22
-4.6273264e-34
-4.172891e-22
-1.2618812e-21
0
0
4.2007788e-22
4.177987e-22
0
-4.2244468e-22
2.3671974e-34
4.2706481e-22
-4.2306931e-22
8.3757659e-22
-1.3903799e-33
-1.2573803e-21
4.2256952e-22
4.2402823e-22
8.4231794e-22
-4.1739737e-22
-1.2492532e-21
4.1870213e-22
-2.3498574e-34
8.4862631e-22
4.1911014e-22
-8.2408418e-22
8.1596497e-22
-1.1545339e-50
-8.3245367e-22
0
0
8.3191992e-22
-4.5085011e-34
-1.3396507e-33
-1.2607316e-50
-1.2340881e-21
-4.6495537e-34
4.1966885e-22
8.2306807e-22
8.035262e-22
-7.9361702e-22
-8.8391923e-34
-4.0449231e-22
-1.3705285e-33
4.1279684e-22
-8.1301066e-22
0
-3.9092205e-22
4.3318982e-34
3.9436766e-22
7.9946848e-22
4.4529738e-34
-7.9408917e-22
0
0
-3.8534363e-22
2.148301e-34
1.1632187e-21
4.2713768e-34
-7.5742943e-22
0
3.7195814e-22
-3.7431113e-22
-3.7782184e-22
-3.7674355e-22
-3.6859616e-22
7.1753262e-22
1.0582565e-21
-3.5266023e-22
-7.1434276e-22
1.085725e-21
2.7549986e-51
-7.0202528e-22
0
0
0
0
6.7906899e-22
6.7955367e-22
-3.3337852e-22
-9.6899156e-22
-3.4929847e-34
3.1046271e-22
-6.2052511e-22
-6.2410955e-22
3.1266477e-22
1.2389557e-21
6.066813e-22
-8.8918137e-22
-5.8254574e-22
8.6466869e-22
6.3653753e-34
-5.7153014e-22
0
0
0
5.333342e-22
2.9203996e-34
-5.8142325e-34
2.6189669e-22
-7.8111049e-22
2.5532526e-22
2.4776165e-22
-7.2423407e-22
-4.7772031e-22
2.3941224e-22
4.8131258e-22
4.762841e-22
-7.6624365e-34
2.4496747e-34
-6.112455e-38
-4.3043728e-22
0
-2.2243596e-22
-2.2067113e-22
2.1196922e-22
2.0058962e-22
-1.9317696e-22
-1.9250956e-22
3.9270168e-22
2.0065554e-22
-2.0194014e-22
1.9851285e-22
-1.9158958e-22
-3.7074773e-22
0
0
5.5014075e-22
1.8443537e-22
-3.6696528e-22
-1.8019944e-22
-1.7673937e-22
3.5013127e-22
-1.9501927e-34
-3.5513065e-22
0
1.7810944e-22
5.2153662e-22
3.772224e-34
-9.4073722e-34