/*--------------------------------*- C++ -*----------------------------------*\
  =========                 |
  \\      /  F ield         | OpenFOAM: The Open Source CFD Toolbox
   \\    /   O peration     | Website:  https://openfoam.org
    \\  /    A nd           | Version:  7
     \\/     M anipulation  |
\*---------------------------------------------------------------------------*/
FoamFile
{
    version     2.0;
    format      ascii;
    class       volScalarField;
    location    "0.00051";
    object      mag(U);
}
// * * * * * * * * * * * * * * * * * * * * * * * * * * * * * * * * * * * * * //

dimensions      [0 1 -1 0 0 0 0];

internalField   nonuniform List<scalar> 
5000
(
21.813418
21.794481
21.778433
21.753739
21.73028
21.704203
21.678425
21.651708
21.625094
21.598172
21.571283
21.544308
21.517341
21.490361
21.46338
21.436404
21.409429
21.382461
21.355495
21.328537
21.301582
21.274635
21.247691
21.220755
21.193822
21.166897
21.139975
21.113061
21.086152
21.059249
21.032351
21.005459
20.978572
20.951692
20.924817
20.897948
20.871085
20.844228
20.817376
20.79053
20.76369
20.736856
20.710027
20.683205
20.656388
20.629576
20.602771
20.575971
20.549177
20.522389
20.495606
20.46883
20.442059
20.415294
20.388534
20.361781
20.335033
20.30829
20.281554
20.254823
20.228098
20.201379
20.174665
20.147958
20.121255
20.094559
20.067868
20.041184
20.014504
19.987831
19.961163
19.934501
19.907844
19.881194
19.854549
19.827909
19.801276
19.774648
19.748025
19.721409
19.694798
19.668193
19.641593
19.614999
19.588411
19.561828
19.535251
19.50868
19.482114
19.455554
19.429
19.402451
19.375908
19.349371
19.322839
19.296312
19.269792
19.243277
19.216767
19.190263
19.163765
19.137273
19.110785
19.084304
19.057828
19.031358
19.004893
18.978434
18.95198
18.925532
18.899089
18.872652
18.846221
18.819795
18.793375
18.76696
18.740551
18.714147
18.687749
18.661356
18.634969
18.608587
18.582211
18.555841
18.529476
18.503116
18.476763
18.450414
18.424071
18.397734
18.371402
18.345076
18.318756
18.292441
18.266131
18.239827
18.213529
18.187236
18.160949
18.134668
18.108392
18.082121
18.055857
18.029598
18.003344
17.977096
17.950854
17.924618
17.898387
17.872161
17.845942
17.819728
17.79352
17.767317
17.74112
17.714928
17.688742
17.662562
17.636388
17.610219
17.584055
17.557897
17.531745
17.505598
17.479456
17.45332
17.42719
17.401064
17.374944
17.34883
17.322721
17.296616
17.270518
17.244424
17.218335
17.192252
17.166173
17.1401
17.114031
17.087967
17.061908
17.035854
17.009804
16.983759
16.957719
16.931683
16.905652
16.879625
16.853602
16.827584
16.801571
16.775561
16.749556
16.723554
16.697557
16.671564
16.645576
16.619591
16.59361
16.567633
16.54166
16.515691
16.489725
16.463764
16.437806
16.411853
16.385903
16.359957
16.334014
16.308076
16.282141
16.25621
16.230282
16.204359
16.178439
16.152523
16.126611
16.100702
16.074797
16.048896
16.022999
15.997105
15.971216
15.94533
15.919448
15.893569
15.867695
15.841824
15.815957
15.790094
15.764235
15.73838
15.712528
15.68668
15.660837
15.634997
15.609161
15.583328
15.5575
15.531676
15.505855
15.480039
15.454226
15.428417
15.402612
15.376812
15.351015
15.325222
15.299432
15.273647
15.247866
15.222089
15.196315
15.170546
15.14478
15.119018
15.093261
15.067507
15.041757
15.016011
14.990269
14.964531
14.938796
14.913066
14.887339
14.861617
14.835898
14.810183
14.784472
14.758764
14.733061
14.707361
14.681665
14.655973
14.630284
14.6046
14.578919
14.553242
14.527568
14.501898
14.476232
14.450569
14.42491
14.399255
14.373603
14.347955
14.322311
14.296669
14.271032
14.245398
14.219767
14.19414
14.168516
14.142896
14.117279
14.091665
14.066055
14.040448
14.014845
13.989245
13.963648
13.938054
13.912464
13.886877
13.861293
13.835713
13.810135
13.784562
13.758991
13.733423
13.707859
13.682298
13.656741
13.631187
13.605636
13.580088
13.554543
13.529002
13.503465
13.477931
13.4524
13.426872
13.401348
13.375828
13.350311
13.324797
13.299288
13.273781
13.248279
13.22278
13.197285
13.171794
13.146306
13.120823
13.095343
13.069867
13.044396
13.018928
12.993464
12.968005
12.94255
12.917099
12.891652
12.86621
12.840772
12.815338
12.789909
12.764485
12.739065
12.713649
12.688239
12.662833
12.637431
12.612035
12.586643
12.561256
12.535875
12.510498
12.485126
12.459759
12.434397
12.40904
12.383688
12.358342
12.333
12.307664
12.282333
12.257007
12.231687
12.206371
12.181061
12.155757
12.130457
12.105163
12.079875
12.054592
12.029314
12.004041
11.978774
11.953512
11.928256
11.903005
11.87776
11.85252
11.827285
11.802056
11.776832
11.751614
11.726401
11.701193
11.675991
11.650794
11.625603
11.600417
11.575237
11.550062
11.524892
11.499728
11.474569
11.449416
11.424268
11.399125
11.373988
11.348856
11.32373
11.298608
11.273493
11.248382
11.223277
11.198177
11.173083
11.147993
11.12291
11.097831
11.072758
11.04769
11.022627
10.99757
10.972517
10.94747
10.922429
10.897393
10.872361
10.847336
10.822315
10.7973
10.772289
10.747285
10.722285
10.69729
10.672301
10.647317
10.622338
10.597365
10.572396
10.547433
10.522475
10.497522
10.472574
10.447632
10.422694
10.397762
10.372835
10.347913
10.322997
10.298085
10.273179
10.248278
10.223382
10.198491
10.173605
10.148724
10.123849
10.098979
10.074113
10.049253
10.024398
9.9995484
9.9747037
9.9498641
9.9250297
9.9002003
9.8753761
9.8505569
9.8257429
9.800934
9.7761302
9.7513315
9.7265379
9.7017494
9.6769659
9.6521876
9.6274144
9.6026462
9.5778831
9.5531251
9.5283722
9.5036244
9.4788817
9.454144
9.4294114
9.4046839
9.3799614
9.355244
9.3305317
9.3058244
9.2811222
9.256425
9.2317329
9.2070459
9.1823639
9.157687
9.1330151
9.1083482
9.0836864
9.0590296
9.0343779
9.0097312
8.9850896
8.960453
8.9358214
8.9111948
8.8865733
8.8619568
8.8373453
8.8127388
8.7881374
8.763541
8.7389496
8.7143632
8.6897818
8.6652054
8.6406341
8.6160677
8.5915063
8.56695
8.5423986
8.5178523
8.4933109
8.4687746
8.4442432
8.4197169
8.3951955
8.3706791
8.3461677
8.3216612
8.2971598
8.2726633
8.2481719
8.2236854
8.1992038
8.1747273
8.1502557
8.1257891
8.1013274
8.0768707
8.052419
8.0279723
8.0035305
7.9790937
7.9546618
7.9302349
7.9058129
7.8813959
7.8569839
7.8325768
7.8081746
7.7837774
7.7593852
7.7349979
7.7106155
7.6862381
7.6618656
7.637498
7.6131354
7.5887778
7.564425
7.5400772
7.5157343
7.4913964
7.4670634
7.4427353
7.4184121
7.3940938
7.3697805
7.3454721
7.3211686
7.2968701
7.2725764
7.2482877
7.2240039
7.199725
7.175451
7.1511819
7.1269178
7.1026585
7.0784042
7.0541547
7.0299102
7.0056706
6.9814359
6.957206
6.9329811
6.9087611
6.884546
6.8603357
6.8361304
6.81193
6.7877344
6.7635438
6.739358
6.7151772
6.6910012
6.6668301
6.6426639
6.6185026
6.5943462
6.5701947
6.546048
6.5219063
6.4977694
6.4736374
6.4495103
6.4253881
6.4012707
6.3771582
6.3530507
6.3289479
6.3048501
6.2807572
6.2566691
6.2325859
6.2085075
6.1844341
6.1603655
6.1363018
6.112243
6.088189
6.0641399
6.0400957
6.0160563
5.9920218
5.9679922
5.9439675
5.9199476
5.8959326
5.8719225
5.8479172
5.8239168
5.7999212
5.7759305
5.7519447
5.7279638
5.7039877
5.6800164
5.6560501
5.6320886
5.6081319
5.5841802
5.5602332
5.5362912
5.512354
5.4884216
5.4644942
5.4405715
5.4166538
5.3927409
5.3688328
5.3449296
5.3210313
5.2971378
5.2732492
5.2493654
5.2254865
5.2016125
5.1777432
5.1538789
5.1300194
5.1061647
5.0823149
5.05847
5.0346299
5.0107946
4.9869642
4.9631387
4.939318
4.9155021
4.8916911
4.8678849
4.8440836
4.8202871
4.7964954
4.7727086
4.7489266
4.7251495
4.7013772
4.6776097
4.6538471
4.6300893
4.6063363
4.5825881
4.5588448
4.5351063
4.5113726
4.4876438
4.4639197
4.4402005
4.4164861
4.3927765
4.3690717
4.3453717
4.3216765
4.2979861
4.2743005
4.2506197
4.2269438
4.2032726
4.1796062
4.1559446
4.1322877
4.1086357
4.0849884
4.061346
4.0377083
4.0140754
3.9904473
3.9668239
3.9432054
3.9195916
3.8959826
3.8723784
3.848779
3.8251844
3.8015946
3.7780095
3.7544294
3.730854
3.7072834
3.6837177
3.6601569
3.6366009
3.6130498
3.5895037
3.5659624
3.5424261
3.5188948
3.4953685
3.4718473
3.4483311
3.42482
3.4013141
3.3778134
3.354318
3.3308279
3.3073432
3.283864
3.2603903
3.2369222
3.2134598
3.1900032
3.1665525
3.1431078
3.1196693
3.0962371
3.0728112
3.0493919
3.0259794
3.0025737
2.9791751
2.9557838
2.9324
2.9090239
2.8856557
2.8622958
2.8389444
2.8156017
2.7922681
2.7689439
2.7456295
2.7223251
2.6990313
2.6757484
2.6524768
2.629217
2.6059695
2.5827348
2.5595134
2.5363058
2.5131126
2.4899346
2.4667722
2.4436262
2.4204972
2.3973861
2.3742936
2.3512204
2.3281675
2.3051356
2.2821258
2.2591389
2.236176
2.2132381
2.1903262
2.1674414
2.1445849
2.1217579
2.0989616
2.0761973
2.0534662
2.0307698
2.0081095
1.9854867
1.9629029
1.9403596
1.9178584
1.8954009
1.8729889
1.850624
1.828308
1.8060426
1.7838299
1.7616716
1.7395696
1.7175261
1.6955429
1.6736222
1.6517661
1.6299768
1.6082563
1.586607
1.5650311
1.543531
1.5221089
1.5007672
1.4795084
1.4583349
1.4372491
1.4162536
1.3953509
1.3745434
1.3538339
1.3332248
1.3127188
1.2923185
1.2720266
1.2518457
1.2317784
1.2118274
1.1919954
1.1722851
1.1526991
1.1332401
1.1139108
1.0947138
1.0756518
1.0567273
1.037943
1.0193016
1.0008054
0.98245721
0.96425941
0.94621449
0.92832492
0.9105931
0.8930214
0.87561216
0.85836766
0.84129012
0.82438173
0.80764463
0.79108089
0.77469251
0.75848145
0.74244961
0.7265988
0.71093077
0.69544721
0.68014974
0.66503987
0.65011908
0.63538874
0.62085015
0.60650452
0.59235298
0.57839659
0.5646363
0.55107298
0.53770742
0.5245403
0.51157224
0.49880373
0.4862352
0.47386698
0.46169929
0.44973227
0.43796598
0.42640036
0.41503527
0.40387048
0.39290567
0.38214041
0.37157421
0.36120645
0.35103646
0.34106345
0.33128657
0.32170487
0.3123173
0.30312276
0.29412005
0.28530789
0.27668493
0.26824973
0.2600008
0.25193654
0.24405533
0.23635543
0.22883508
0.22149244
0.21432559
0.20733258
0.20051139
0.19385996
0.18737616
0.18105782
0.17490274
0.16890865
0.16307327
0.15739426
0.15186926
0.14649586
0.14127164
0.13619414
0.1312609
0.12646941
0.12181715
0.1173016
0.1129202
0.10867041
0.10454966
0.10055538
0.096685002
0.092935948
0.089305649
0.085791538
0.082391053
0.079101642
0.075920761
0.072845879
0.069874482
0.067004068
0.064232155
0.061556281
0.058974005
0.056482909
0.054080599
0.051764707
0.049532894
0.047382846
0.045312283
0.043318953
0.041400637
0.039555149
0.037780337
0.036074083
0.034434306
0.03285896
0.031346036
0.029893562
0.028499606
0.027162271
0.025879702
0.02465008
0.023471627
0.022342604
0.021261311
0.020226087
0.019235313
0.018287407
0.017380828
0.016514071
0.015685675
0.014894214
0.014138302
0.013416591
0.012727771
0.012070569
0.011443749
0.010846113
0.010276496
0.009733773
0.0092168504
0.0087246707
0.0082562101
0.0078104783
0.0073865176
0.0069834025
0.006600239
0.006236164
0.0058903444
0.0055619769
0.0052502868
0.0049545279
0.0046739813
0.0044079548
0.0041557826
0.0039168241
0.0036904637
0.0034761097
0.0032731939
0.0030811707
0.0028995169
0.0027277302
0.0025653295
0.0024118535
0.0022668605
0.0021299276
0.00200065
0.0018786407
0.0017635295
0.0016549627
0.0015526023
0.0014561258
0.0013652252
0.0012796066
0.0011989901
0.0011231084
0.0010517072
0.00098454413
0.00092138853
0.00086202089
0.00080623239
0.00075382452
0.00070460862
0.00065840544
0.0006150448
0.00057436514
0.00053621319
0.00050044356
0.00046691845
0.00043550724
0.00040608623
0.00037853828
0.0003527525
0.00032862401
0.00030605358
0.00028494745
0.00026521697
0.00024677844
0.0002295528
0.00021346545
0.00019844598
0.00018442801
0.00017134895
0.00015914981
0.00014777502
0.00013717226
0.00012729228
0.00011808874
0.00010951803
0.00010153919
9.4113685e-05
8.7205328e-05
8.0780131e-05
7.4806189e-05
6.9253554e-05
6.4094138e-05
5.9301599e-05
5.4851243e-05
5.0719933e-05
4.6885994e-05
4.3329131e-05
4.0030349e-05
3.6971874e-05
3.413708e-05
3.1510425e-05
2.9077379e-05
2.682437e-05
2.4738717e-05
2.2808588e-05
2.1022933e-05
1.9371446e-05
1.7844517e-05
1.6433181e-05
1.512909e-05
1.3924461e-05
1.2812048e-05
1.1785104e-05
1.0837353e-05
9.9629519e-06
9.1564674e-06
8.4128526e-06
7.7274121e-06
7.0957855e-06
6.5139245e-06
5.978068e-06
5.4847269e-06
5.0306648e-06
4.6128812e-06
4.2285918e-06
3.875215e-06
3.5503629e-06
3.2518212e-06
2.977541e-06
2.7256253e-06
2.4943194e-06
2.2819995e-06
2.0871651e-06
1.9084292e-06
1.7445097e-06
1.5942225e-06
1.4564742e-06
1.330256e-06
1.2146369e-06
1.108758e-06
1.0118261e-06
9.231113e-07
8.4194052e-07
7.6769529e-07
6.9980315e-07
6.377379e-07
5.8101636e-07
5.2919385e-07
4.818614e-07
4.3864086e-07
3.9918761e-07
3.6318394e-07
3.303356e-07
3.0037622e-07
2.7306e-07
2.4815956e-07
2.2546863e-07
2.0479632e-07
1.8596851e-07
1.6882617e-07
1.5322227e-07
1.3902228e-07
1.2610465e-07
1.1435722e-07
1.0367558e-07
9.3965993e-08
8.5143439e-08
7.7127544e-08
6.9848214e-08
6.3239517e-08
5.724005e-08
5.1795982e-08
4.6857358e-08
4.2378331e-08
3.8316358e-08
3.4635278e-08
3.1299929e-08
2.8277764e-08
2.5540897e-08
2.3062761e-08
2.0819244e-08
1.8789047e-08
1.6952729e-08
1.5291737e-08
1.3789352e-08
1.2431308e-08
1.120381e-08
1.0095227e-08
9.0949753e-09
8.1911941e-09
7.3749261e-09
6.6381498e-09
5.973147e-09
5.3733655e-09
4.8332696e-09
4.3463e-09
3.9068472e-09
3.511123e-09
3.1544829e-09
2.8337885e-09
2.5446616e-09
2.2845639e-09
2.0505262e-09
1.8391888e-09
1.6499968e-09
1.4804374e-09
1.3273408e-09
1.1896714e-09
1.0656951e-09
9.548977e-10
8.551741e-10
7.6547109e-10
6.8577399e-10
6.1373336e-10
5.4871052e-10
4.9033321e-10
4.3851153e-10
3.920415e-10
3.5036566e-10
3.1318014e-10
2.7961753e-10
2.4983394e-10
2.2306558e-10
1.9905927e-10
1.7725394e-10
1.5819737e-10
1.4081447e-10
1.2567752e-10
1.1212078e-10
9.9741522e-11
8.8759082e-11
7.9195642e-11
7.047926e-11
6.2292418e-11
5.5259141e-11
4.926154e-11
4.3962456e-11
3.8494037e-11
3.3995731e-11
3.0179439e-11
2.6796893e-11
2.3780127e-11
2.0979278e-11
1.8619999e-11
1.6272841e-11
1.4509846e-11
1.2716208e-11
1.0933537e-11
9.6117197e-12
8.511357e-12
7.2500873e-12
6.0786771e-12
5.4132598e-12
4.7308473e-12
3.9608822e-12
3.5038568e-12
3.2898154e-12
2.8112302e-12
2.2930786e-12
1.7470873e-12
1.3124887e-12
1.0385494e-12
8.0500204e-13
3.0138993e-13
1.9917262e-13
1.9793619e-13
6.4460087e-14
4.8894796e-14
7.7342868e-14
2.0044118e-13
4.8223402e-13
7.8649045e-13
1.0326515e-12
9.4733072e-13
1.088287e-12
1.3348579e-12
1.4533972e-12
1.2312784e-12
1.2727771e-12
1.6730925e-12
1.5659139e-12
1.3058411e-12
1.5121592e-12
1.7143483e-12
1.6002869e-12
2.0325131e-12
2.3002439e-12
2.3364017e-12
2.6525104e-12
2.6732128e-12
2.6247053e-12
2.9213559e-12
3.2077577e-12
3.715801e-12
4.1649087e-12
4.4617561e-12
4.4361244e-12
4.8452168e-12
5.3938283e-12
5.7658601e-12
6.5389109e-12
6.9298863e-12
7.7644146e-12
8.5174115e-12
9.6437211e-12
1.0916121e-11
1.2159324e-11
1.3859798e-11
1.5545765e-11
1.7221112e-11
1.9868031e-11
2.2506543e-11
2.5096035e-11
2.8197654e-11
3.1998543e-11
3.6550655e-11
4.1273163e-11
4.6572651e-11
5.2328069e-11
5.9409437e-11
6.7128453e-11
7.6128661e-11
8.557542e-11
9.6416733e-11
1.090159e-10
1.2303568e-10
1.3895853e-10
1.5700812e-10
1.7744984e-10
2.0046308e-10
2.2554551e-10
2.5433071e-10
2.871705e-10
3.2347005e-10
3.643507e-10
4.1023366e-10
4.6197727e-10
5.1998987e-10
5.8516794e-10
6.5831513e-10
7.4068915e-10
8.3304073e-10
9.3686547e-10
1.0534846e-09
1.1833141e-09
1.3292065e-09
1.4930903e-09
1.6765474e-09
1.8824025e-09
2.112382e-09
2.3701804e-09
2.6587305e-09
2.9814879e-09
3.3424099e-09
3.7462436e-09
4.1980213e-09
4.7030153e-09
5.2674739e-09
5.8982999e-09
6.6026482e-09
7.3891857e-09
8.267005e-09
9.2467136e-09
1.0340501e-08
1.1560781e-08
1.2920709e-08
1.443738e-08
1.6128789e-08
1.8012321e-08
2.0111393e-08
2.2448754e-08
2.5051167e-08
2.7949538e-08
3.1174013e-08
3.4760145e-08
3.8749702e-08
4.318576e-08
4.8116968e-08
5.3597523e-08
5.968621e-08
6.6449439e-08
7.3959652e-08
8.229638e-08
9.1548809e-08
1.0181458e-07
1.1320071e-07
1.2582718e-07
1.3982486e-07
1.5533796e-07
1.7252636e-07
1.9156466e-07
2.1264707e-07
2.3598661e-07
2.6181724e-07
2.9039668e-07
3.2200859e-07
3.5696542e-07
3.9560958e-07
4.3831876e-07
4.855063e-07
5.3762758e-07
5.9518202e-07
6.5871708e-07
7.2883598e-07
8.0619749e-07
8.9152527e-07
9.8561395e-07
1.0893312e-06
1.2036313e-06
1.3295578e-06
1.4682512e-06
1.6209633e-06
1.7890624e-06
1.9740444e-06
2.1775464e-06
2.4013578e-06
2.6474317e-06
2.9179037e-06
3.2151072e-06
3.5415874e-06
3.9001228e-06
4.2937442e-06
4.7257577e-06
5.1997686e-06
5.7197041e-06
6.2898439e-06
6.9148497e-06
7.5997979e-06
8.3502124e-06
9.1721042e-06
1.0072012e-05
1.1057046e-05
1.213493e-05
1.3314063e-05
1.4603566e-05
1.6013341e-05
1.7554139e-05
1.9237626e-05
2.1076453e-05
2.3084342e-05
2.5276164e-05
2.7668036e-05
3.0277415e-05
3.3123204e-05
3.6225864e-05
3.9607534e-05
4.3292166e-05
4.7305655e-05
5.1675993e-05
5.6433426e-05
6.1610622e-05
6.7242858e-05
7.3368206e-05
8.0027747e-05
8.726579e-05
9.5130107e-05
0.00010367219
0.0001129475
0.0001230158
0.00013394139
0.0001457935
0.0001586466
0.00017258076
0.00018768207
0.00020404304
0.00022176302
0.00024094872
0.00026171465
0.00028418369
0.00030848763
0.00033476775
0.00036317549
0.00039387304
0.00042703414
0.00046284472
0.00050150376
0.00054322408
0.00058823322
0.00063677438
0.00068910735
0.0007455096
0.00080627729
0.00087172644
0.00094219412
0.0010180397
0.0010996463
0.0011874217
0.0012818006
0.0013832453
0.001492248
0.0016093319
0.0017350533
0.0018700034
0.0020148102
0.0021701403
0.0023367012
0.0025152435
0.0027065631
0.0029115035
0.0031309583
0.003365874
0.0036172523
0.003886153
0.004173697
0.0044810693
0.0048095218
0.0051603767
0.0055350299
0.0059349542
0.0063617031
0.0068169142
0.0073023131
0.0078197173
0.00837104
0.0089582944
0.009583598
0.010249177
0.010957369
0.011710631
0.012511542
0.013362807
0.014267262
0.015227882
0.016247781
0.017330222
0.018478619
0.019696544
0.02098773
0.02235608
0.02380567
0.025340754
0.026965771
0.028685352
0.030504322
0.032427707
0.034460742
0.036608872
0.038877762
0.041273301
0.043801605
0.046469026
0.049282157
0.052247834
0.055373145
0.058665431
0.062132296
0.065781607
0.0696215
0.073660386
0.077906952
0.082370168
0.087059289
0.091983856
0.097153706
0.10257897
0.10827006
0.11423772
0.12049296
0.12704712
0.13391181
0.14109897
0.14862085
0.15648996
0.16471916
0.17332158
0.18231066
0.19170014
0.20150403
0.21173667
0.22241264
0.23354683
0.2451544
0.25725078
0.26985165
0.28297297
0.29663092
0.31084195
0.32562272
0.34099012
0.35696125
0.37355341
0.3907841
0.40867099
0.42723191
0.44648485
0.46644795
0.48713944
0.50857771
0.53078121
0.55376848
0.57755812
0.60216878
0.62761914
0.65392791
0.68111376
0.70919537
0.73819136
0.76812029
0.79900067
0.83085087
0.86368918
0.89753373
0.93240251
0.96831332
1.0052838
1.0433313
1.082473
1.1227259
1.1641066
1.2066313
1.2503163
1.2951771
1.3412292
1.3884875
1.4369667
1.486681
1.5376442
1.5898696
1.6433701
1.6981583
1.754246
1.8116448
1.8703655
1.9304186
1.9918141
2.0545611
2.1186687
2.1841448
2.2509972
2.3192328
2.3888581
2.4598789
2.5323004
2.6061272
2.6813631
2.7580115
2.8360749
2.9155555
2.9964544
3.0787724
3.1625095
3.247665
3.3342377
3.4222255
3.5116258
3.6024352
3.6946499
3.7882651
3.8832755
3.9796753
4.0774577
4.1766155
4.2771407
4.3790248
4.4822587
4.5868323
4.6927353
4.7999566
4.9084844
5.0183065
5.1294097
5.2417808
5.3554054
5.4702689
5.586356
5.7036508
5.822137
5.9417975
6.0626148
6.1845709
6.3076471
6.4318244
6.5570832
6.6834033
6.8107641
6.9391445
7.0685229
7.1988773
7.3301852
7.4624235
7.5955689
7.7295975
7.8644851
8.000207
8.136738
8.2740527
8.4121251
8.550929
8.6904377
8.8306242
8.9714611
9.1129206
9.2549746
9.3975948
9.5407524
9.6844182
9.8285629
9.9731567
10.11817
10.263572
10.409332
10.55542
10.701804
10.848453
10.995336
11.14242
11.289674
11.437064
11.58456
11.732127
11.879733
12.027346
12.17493
12.322453
12.469882
12.617182
12.764321
12.911262
13.057973
13.204419
13.350566
13.49638
13.641826
13.78687
13.931477
14.075613
14.219243
14.362332
14.504848
14.646753
14.788016
14.9286
15.068472
15.207599
15.345946
15.48348
15.620165
15.755972
15.890865
16.024811
16.15778
16.289736
16.420652
16.550491
16.679227
16.806826
16.933258
17.058496
17.182507
17.305265
17.42674
17.546905
17.665734
17.783199
17.899277
18.01394
18.127165
18.238929
18.349209
18.457984
18.565232
18.670934
18.775069
18.877621
18.978572
19.077906
19.175608
19.271662
19.366059
19.458783
19.549826
19.639177
19.726827
19.812772
19.897001
19.979514
20.060303
20.139369
20.216709
20.292323
20.366214
20.438382
20.508833
20.577571
20.644603
20.709936
20.773577
20.83554
20.895832
20.954468
21.011461
21.066823
21.120574
21.172727
21.223302
21.272316
21.31979
21.365744
21.4102
21.453181
21.494709
21.534809
21.573505
21.610823
21.646789
21.681428
21.71477
21.74684
21.777668
21.807282
21.83571
21.862982
21.889126
21.914173
21.938151
21.961091
21.983022
22.003974
22.023977
22.043059
22.061252
22.078582
22.09508
22.110774
22.125691
22.139863
22.153312
22.16607
22.178161
22.189612
22.20045
22.210697
22.220382
22.229525
22.238153
22.246286
22.253948
22.261162
22.267945
22.274322
22.280311
22.28593
22.2912
22.296136
22.300759
22.305083
22.309124
22.312899
22.316421
22.319706
22.322766
22.325616
22.328265
22.330728
22.333016
22.335138
22.337106
22.338929
22.340616
22.342177
22.343618
22.34495
22.346177
22.347309
22.348351
22.34931
22.350191
22.351
22.351744
22.352423
22.353048
22.353618
22.354139
22.354616
22.35505
22.355447
22.355806
22.356135
22.356432
22.356702
22.356948
22.357169
22.357371
22.357551
22.357715
22.357862
22.357994
22.358114
22.35822
22.358317
22.358402
22.358479
22.358548
22.358609
22.358664
22.358713
22.358757
22.358795
22.35883
22.358862
22.358892
22.35892
22.358943
22.35897
22.359006
22.359041
22.359066
22.359094
22.359141
22.359182
22.359204
22.359225
22.359268
22.359314
22.359339
22.359355
22.359383
22.359427
22.359461
22.359472
22.359484
22.359523
22.359567
22.359582
22.359584
22.359616
22.359673
22.359704
22.359702
22.359718
22.359769
22.35981
22.359822
22.359833
22.359871
22.359921
22.359959
22.359988
22.360027
22.360065
22.360102
22.360133
22.360154
22.360173
22.360201
22.360226
22.360235
22.360235
22.36025
22.36027
22.360287
22.360312
22.360345
22.360371
22.360388
22.360408
22.36044
22.360471
22.360492
22.360509
22.360536
22.360566
22.360588
22.360606
22.360631
22.360661
22.360679
22.360682
22.360698
22.360732
22.360752
22.360752
22.360759
22.360788
22.360813
22.360824
22.360835
22.360856
22.360879
22.360901
22.360925
22.360953
22.360981
22.360992
22.361003
22.36102
22.361034
22.36105
22.361071
22.361072
22.361066
22.36108
22.361102
22.361108
22.361103
22.361103
22.361106
22.361113
22.361131
22.361158
22.361178
22.361196
22.361215
22.361234
22.361254
22.361272
22.361288
22.361303
22.36132
22.361338
22.361355
22.361372
22.361381
22.361384
22.361385
22.36139
22.361393
22.361402
22.361416
22.361428
22.361435
22.361445
22.361458
22.361474
22.361493
22.361522
22.361538
22.361533
22.361536
22.361544
22.361545
22.361546
22.361555
22.361563
22.361567
22.36157
22.361573
22.361581
22.361579
22.361568
22.361566
22.361569
22.36157
22.361575
22.361576
22.361571
22.361571
22.361574
22.361574
22.361577
22.361583
22.361591
22.361603
22.361613
22.36161
22.361598
22.361593
22.361594
22.3616
22.361604
22.361606
22.361612
22.361621
22.361633
22.361643
22.361644
22.361642
22.361643
22.361645
22.361646
22.361645
22.361645
22.361645
22.361647
22.361646
22.361641
22.36164
22.361641
22.361639
22.361638
22.361639
22.361635
22.361626
22.361618
22.361614
22.361613
22.361613
22.361613
22.361612
22.361612
22.361614
22.361613
22.361611
22.361611
22.361613
22.361612
22.361606
22.3616
22.361604
22.361609
22.361607
22.3616
22.3616
22.361602
22.361599
22.361591
22.361579
22.361571
22.361567
22.361564
22.361562
22.36156
22.36156
22.361559
22.361557
22.361549
22.361537
22.361528
22.361527
22.361522
22.361512
22.361494
22.361483
22.361481
22.361479
22.361476
22.361472
22.361463
22.361451
22.361447
22.361444
22.36144
22.361434
22.361427
22.361419
22.361411
22.361409
22.361406
22.361402
22.361394
22.361392
22.361391
22.361388
22.361382
22.361376
22.361375
22.361374
22.361369
22.361366
22.361367
22.361365
22.361361
22.361355
22.361352
22.361351
22.361349
22.361344
22.36134
22.361338
22.361335
22.36133
22.361323
22.361316
22.361314
22.361312
22.361308
22.361302
22.361298
22.361295
22.36129
22.361284
22.361276
22.361268
22.361266
22.361264
22.36126
22.361254
22.361246
22.361238
22.361234
22.361231
22.361227
22.361221
22.361213
22.36121
22.361206
22.361201
22.361194
22.361189
22.361186
22.361182
22.361177
22.361169
22.361166
22.361164
22.36116
22.361154
22.361147
22.361144
22.361142
22.361139
22.361134
22.36113
22.361128
22.361125
22.36112
22.361115
22.361112
22.361111
22.361108
22.361104
22.361098
22.361091
22.361091
22.361091
22.36109
22.361087
22.361084
22.36108
22.361075
22.36107
22.361068
22.361068
22.361066
22.361063
22.361058
22.361053
22.361052
22.36105
22.361047
22.361043
22.361039
22.361035
22.361032
22.361029
22.361026
22.361023
22.361019
22.361014
22.361011
22.361008
22.361005
22.361001
22.360994
22.360989
22.360988
22.360987
22.360984
22.36098
22.360975
22.36097
22.360965
22.360959
22.360956
22.360955
22.360954
22.360951
22.360947
22.360943
22.360939
22.360935
22.360933
22.360931
22.360928
22.360924
22.360919
22.360916
22.360915
22.360914
22.36091
22.360907
22.360903
22.360901
22.360899
22.360896
22.360893
22.36089
22.360888
22.360885
22.360881
22.360878
22.360876
22.360873
22.36087
22.360867
22.360863
22.360861
22.360858
22.360855
22.360852
22.360849
22.360845
22.36084
22.360836
22.360834
22.360831
22.360827
22.360823
22.360817
22.360813
22.36081
22.360808
22.360804
22.360799
22.360794
22.36079
22.360785
22.360782
22.360778
22.360774
22.36077
22.360765
22.360759
22.360756
22.360753
22.36075
22.360746
22.360741
22.360735
22.36073
22.360727
22.360725
22.360722
22.360719
22.360714
22.360709
22.360705
22.360702
22.3607
22.360697
22.360693
22.360689
22.360685
22.360682
22.360679
22.360677
22.360674
22.360671
22.360668
22.360665
22.360661
22.360658
22.360656
22.360654
22.360651
22.360648
22.360644
22.360642
22.36064
22.360638
22.360635
22.360632
22.360629
22.360627
22.360625
22.360623
22.36062
22.360616
22.360613
22.360612
22.36061
22.360608
22.360605
22.360602
22.360599
22.360597
22.360595
22.360593
22.36059
22.360587
22.360584
22.360582
22.36058
22.360577
22.360573
22.360572
22.36057
22.360568
22.360565
22.360562
22.360559
22.360555
22.360553
22.360551
22.360549
22.360546
22.360543
22.360539
22.360536
22.360534
22.360533
22.36053
22.360526
22.360523
22.360519
22.360517
22.360515
22.360513
22.36051
22.360506
22.360502
22.360499
22.360497
22.360495
22.360493
22.36049
22.360486
22.360482
22.36048
22.360478
22.360476
22.360474
22.36047
22.360467
22.360464
22.360462
22.36046
22.360458
22.360455
22.360452
22.36045
22.360448
22.360445
22.360442
22.360439
22.360436
22.360435
22.360434
22.360432
22.360429
22.360426
22.360423
22.36042
22.360419
22.360418
22.360417
22.360415
22.360412
22.36041
22.360407
22.360405
22.360404
22.360403
22.360401
22.360399
22.360396
22.360393
22.360392
22.360391
22.36039
22.360388
22.360386
22.360383
22.360381
22.36038
22.360379
22.360378
22.360376
22.360374
22.360371
22.36037
22.360369
22.360368
22.360367
22.360365
22.360363
22.360361
22.36036
22.360358
22.360357
22.360354
22.360353
22.360352
22.360351
22.360349
22.360347
22.360344
22.360342
22.360341
22.360341
22.360339
22.360338
22.360335
22.360333
22.36033
22.360329
22.360327
22.360326
22.360324
22.360321
22.360319
22.360316
22.360314
22.360312
22.36031
22.360307
22.360304
22.360301
22.360299
22.360297
22.360294
22.360291
22.360288
22.360284
22.360282
22.360279
22.360276
22.360273
22.36027
22.360267
22.360264
22.360261
22.360258
22.360254
22.360251
22.360248
22.360245
22.360242
22.360238
22.360234
22.360231
22.360229
22.360226
22.360223
22.360219
22.360215
22.360212
22.36021
22.360207
22.360204
22.3602
22.360196
22.360193
22.360192
22.360189
22.360186
22.360183
22.360179
22.360176
22.360174
22.360172
22.36017
22.360167
22.360163
22.36016
22.360158
22.360156
22.360154
22.360151
22.360149
22.360146
22.360145
22.360143
22.360141
22.360139
22.360135
22.360133
22.360132
22.36013
22.360128
22.360126
22.360124
22.360121
22.360119
22.360117
22.360115
22.360114
22.360112
22.360111
22.360111
22.36011
22.36011
22.360109
22.360107
22.360105
22.360101
22.360095
22.360088
22.360079
22.360069
22.360059
22.36005
22.360044
22.360042
22.360046
22.360056
22.360073
22.360096
22.360123
22.36015
22.360177
22.360202
22.360237
22.360316
22.360548
22.361246
22.363539
22.365683
22.362838
22.358812
22.359417
22.360006
22.359959
22.359973
22.36004
22.360081
22.360089
22.360089
22.360083
22.360073
22.360062
22.360053
22.360045
22.360039
22.360035
22.360033
22.360033
22.360032
22.360033
22.360032
22.360021
22.360018
22.36003
22.360036
22.360034
22.360033
22.360032
22.36003
22.360029
22.360027
22.360026
22.360024
22.360022
22.360021
22.36002
22.360018
22.360017
22.360016
22.360014
22.360013
22.360012
22.36001
22.360009
22.360007
22.360006
22.360005
22.360003
22.360001
22.36
22.359998
22.359996
22.359995
22.359993
22.359991
22.359989
22.359987
22.359985
22.359983
22.359981
22.35998
22.359978
22.359977
22.359975
22.359973
22.359972
22.359971
22.359969
22.359967
22.359966
22.359964
22.359962
22.359961
22.359959
22.359957
22.359955
22.359953
22.359951
22.359949
22.359948
22.359946
22.359944
22.359942
22.35994
22.359939
22.359937
22.359936
22.359934
22.359933
22.359931
22.35993
22.359929
22.359928
22.359928
22.359928
22.359928
22.359928
22.359928
22.359926
22.359925
22.359925
22.359924
22.359922
22.359919
22.359917
22.359915
22.359912
22.359909
22.359906
22.359904
22.359901
22.359898
22.359895
22.359893
22.35989
22.359888
22.359885
22.359883
22.35988
22.359878
22.359875
22.359873
22.359871
22.359868
22.359866
22.359863
22.359861
22.359859
22.359856
22.359854
22.359851
22.359849
22.359846
22.359844
22.359841
22.359839
22.359836
22.359834
22.359831
22.359828
22.359826
22.359823
22.359821
22.359818
22.359816
22.359813
22.359811
22.359808
22.359806
22.359803
22.359801
22.359798
22.359796
22.359793
22.359791
22.359788
22.359786
22.359783
22.359781
22.359779
22.359776
22.359774
22.359772
22.359769
22.359767
22.359765
22.359762
22.35976
22.359758
22.359755
22.359753
22.359751
22.359749
22.359746
22.359744
22.359741
22.359739
22.359737
22.359734
22.359732
22.359729
22.359727
22.359725
22.359722