/*--------------------------------*- C++ -*----------------------------------*\
  =========                 |
  \\      /  F ield         | OpenFOAM: The Open Source CFD Toolbox
   \\    /   O peration     | Website:  https://openfoam.org
    \\  /    A nd           | Version:  7
     \\/     M anipulation  |
\*---------------------------------------------------------------------------*/
FoamFile
{
    version     2.0;
    format      ascii;
    class       volScalarField;
    location    "0.00289";
    object      rho;
}
// * * * * * * * * * * * * * * * * * * * * * * * * * * * * * * * * * * * * * //

dimensions      [1 -3 0 0 0 0 0];

internalField   nonuniform List<scalar> 
5000
(
1.2479596
1.2479595
1.2479598
1.2479601
1.2479603
1.2479605
1.2479606
1.2479607
1.2479608
1.2479609
1.2479609
1.2479609
1.2479609
1.2479609
1.247961
1.247961
1.247961
1.247961
1.247961
1.247961
1.247961
1.247961
1.247961
1.247961
1.247961
1.247961
1.247961
1.247961
1.247961
1.247961
1.247961
1.247961
1.247961
1.247961
1.247961
1.247961
1.247961
1.247961
1.2479609
1.2479609
1.2479609
1.2479609
1.2479609
1.2479609
1.2479609
1.2479609
1.2479609
1.2479609
1.2479609
1.2479609
1.2479609
1.2479609
1.2479609
1.2479609
1.2479609
1.2479609
1.2479609
1.2479609
1.2479609
1.2479609
1.2479609
1.2479609
1.2479609
1.2479609
1.2479609
1.2479609
1.2479609
1.2479609
1.2479609
1.2479609
1.2479609
1.2479609
1.2479609
1.2479609
1.2479609
1.2479609
1.2479609
1.2479609
1.2479609
1.2479609
1.2479609
1.2479609
1.2479609
1.2479609
1.2479609
1.2479609
1.2479608
1.2479608
1.2479608
1.2479608
1.2479608
1.2479608
1.2479608
1.2479608
1.2479608
1.2479608
1.2479608
1.2479608
1.2479608
1.2479608
1.2479608
1.2479608
1.2479608
1.2479608
1.2479608
1.2479608
1.2479608
1.2479608
1.2479608
1.2479608
1.2479608
1.2479608
1.2479608
1.2479608
1.2479608
1.2479608
1.2479608
1.2479608
1.2479608
1.2479608
1.2479608
1.2479608
1.2479608
1.2479608
1.2479608
1.2479608
1.2479607
1.2479607
1.2479607
1.2479607
1.2479607
1.2479607
1.2479607
1.2479607
1.2479607
1.2479607
1.2479607
1.2479607
1.2479607
1.2479607
1.2479607
1.2479607
1.2479607
1.2479607
1.2479607
1.2479607
1.2479607
1.2479607
1.2479607
1.2479607
1.2479607
1.2479607
1.2479607
1.2479607
1.2479607
1.2479607
1.2479607
1.2479607
1.2479607
1.2479607
1.2479607
1.2479607
1.2479607
1.2479607
1.2479607
1.2479607
1.2479607
1.2479607
1.2479607
1.2479607
1.2479607
1.2479607
1.2479607
1.2479607
1.2479607
1.2479607
1.2479607
1.2479607
1.2479607
1.2479607
1.2479607
1.2479607
1.2479607
1.2479607
1.2479607
1.2479607
1.2479607
1.2479607
1.2479607
1.2479607
1.2479607
1.2479607
1.2479606
1.2479607
1.2479607
1.2479607
1.2479607
1.2479607
1.2479607
1.2479607
1.2479606
1.2479606
1.2479606
1.2479606
1.2479606
1.2479606
1.2479606
1.2479606
1.2479606
1.2479606
1.2479606
1.2479606
1.2479606
1.2479606
1.2479606
1.2479606
1.2479606
1.2479606
1.2479606
1.2479606
1.2479606
1.2479606
1.2479606
1.2479606
1.2479606
1.2479606
1.2479606
1.2479606
1.2479606
1.2479606
1.2479606
1.2479606
1.2479606
1.2479606
1.2479606
1.2479606
1.2479606
1.2479606
1.2479606
1.2479607
1.2479607
1.2479607
1.2479607
1.2479607
1.2479607
1.2479607
1.2479607
1.2479607
1.2479607
1.2479607
1.2479607
1.2479607
1.2479607
1.2479607
1.2479607
1.2479607
1.2479607
1.2479607
1.2479607
1.2479607
1.2479607
1.2479607
1.2479607
1.2479607
1.2479607
1.2479607
1.2479607
1.2479607
1.2479607
1.2479607
1.2479607
1.2479607
1.2479607
1.2479607
1.2479607
1.2479607
1.2479607
1.2479607
1.2479607
1.2479607
1.2479607
1.2479607
1.2479607
1.2479607
1.2479607
1.2479607
1.2479607
1.2479607
1.2479607
1.2479607
1.2479607
1.2479607
1.2479607
1.2479607
1.2479607
1.2479607
1.2479607
1.2479607
1.2479607
1.2479607
1.2479607
1.2479607
1.2479607
1.2479607
1.2479607
1.2479607
1.2479607
1.2479607
1.2479607
1.2479607
1.2479607
1.2479607
1.2479607
1.2479607
1.2479607
1.2479607
1.2479607
1.2479607
1.2479607
1.2479607
1.2479607
1.2479607
1.2479607
1.2479607
1.2479607
1.2479607
1.2479607
1.2479607
1.2479607
1.2479607
1.2479607
1.2479607
1.2479607
1.2479607
1.2479607
1.2479607
1.2479607
1.2479607
1.2479607
1.2479607
1.2479607
1.2479607
1.2479607
1.2479607
1.2479607
1.2479607
1.2479607
1.2479607
1.2479607
1.2479607
1.2479607
1.2479607
1.2479607
1.2479607
1.2479607
1.2479607
1.2479607
1.2479607
1.2479607
1.2479607
1.2479607
1.2479607
1.2479607
1.2479607
1.2479607
1.2479607
1.2479607
1.2479607
1.2479607
1.2479607
1.2479607
1.2479607
1.2479607
1.2479607
1.2479607
1.2479607
1.2479607
1.2479607
1.2479607
1.2479607
1.2479607
1.2479607
1.2479607
1.2479607
1.2479607
1.2479607
1.2479607
1.2479607
1.2479607
1.2479607
1.2479607
1.2479607
1.2479607
1.2479607
1.2479607
1.2479607
1.2479607
1.2479607
1.2479607
1.2479607
1.2479607
1.2479607
1.2479607
1.2479607
1.2479607
1.2479607
1.2479607
1.2479607
1.2479607
1.2479607
1.2479607
1.2479607
1.2479607
1.2479607
1.2479607
1.2479607
1.2479607
1.2479607
1.2479607
1.2479607
1.2479607
1.2479607
1.2479607
1.2479608
1.2479608
1.2479608
1.2479608
1.2479608
1.2479608
1.2479608
1.2479608
1.2479608
1.2479608
1.2479608
1.2479608
1.2479608
1.2479608
1.2479608
1.2479608
1.2479608
1.2479608
1.2479608
1.2479608
1.2479608
1.2479608
1.2479608
1.2479608
1.2479608
1.2479608
1.2479608
1.2479608
1.2479608
1.2479608
1.2479608
1.2479608
1.2479608
1.2479608
1.2479608
1.2479608
1.2479608
1.2479608
1.2479608
1.2479608
1.2479608
1.2479608
1.2479608
1.2479608
1.2479608
1.2479608
1.2479608
1.2479608
1.2479608
1.2479608
1.2479608
1.2479608
1.2479608
1.2479608
1.2479608
1.2479608
1.2479608
1.2479608
1.2479608
1.2479608
1.2479608
1.2479608
1.2479608
1.2479608
1.2479608
1.2479608
1.2479608
1.2479608
1.2479608
1.2479608
1.2479608
1.2479608
1.2479608
1.2479608
1.2479608
1.2479608
1.2479608
1.2479608
1.2479608
1.2479608
1.2479608
1.2479608
1.2479608
1.2479608
1.2479608
1.2479608
1.2479608
1.2479608
1.2479608
1.2479608
1.2479608
1.2479608
1.2479608
1.2479608
1.2479608
1.2479608
1.2479608
1.2479608
1.2479608
1.2479608
1.2479608
1.2479608
1.2479608
1.2479608
1.2479608
1.2479608
1.2479608
1.2479608
1.2479608
1.2479608
1.2479608
1.2479608
1.2479608
1.2479608
1.2479608
1.2479608
1.2479608
1.2479608
1.2479608
1.2479608
1.2479608
1.2479608
1.2479608
1.2479608
1.2479608
1.2479608
1.2479608
1.2479608
1.2479608
1.2479608
1.2479608
1.2479608
1.2479608
1.2479608
1.2479608
1.2479608
1.2479608
1.2479608
1.2479608
1.2479608
1.2479608
1.2479608
1.2479608
1.2479608
1.2479608
1.2479608
1.2479608
1.2479608
1.2479608
1.2479608
1.2479608
1.2479608
1.2479608
1.2479608
1.2479608
1.2479608
1.2479608
1.2479608
1.2479608
1.2479608
1.2479608
1.2479608
1.2479608
1.2479608
1.2479608
1.2479608
1.2479608
1.2479608
1.2479608
1.2479608
1.2479608
1.2479608
1.2479608
1.2479608
1.2479608
1.2479608
1.2479608
1.2479608
1.2479608
1.2479608
1.2479608
1.2479608
1.2479608
1.2479608
1.2479608
1.2479608
1.2479608
1.2479608
1.2479608
1.2479608
1.2479608
1.2479608
1.2479608
1.2479608
1.2479608
1.2479608
1.2479608
1.2479608
1.2479608
1.2479608
1.2479608
1.2479608
1.2479608
1.2479608
1.2479608
1.2479608
1.2479608
1.2479608
1.2479608
1.2479608
1.2479608
1.2479608
1.2479608
1.2479608
1.2479608
1.2479608
1.2479608
1.2479608
1.2479608
1.2479608
1.2479608
1.2479608
1.2479608
1.2479608
1.2479608
1.2479608
1.2479608
1.2479608
1.2479608
1.2479608
1.2479608
1.2479608
1.2479608
1.2479608
1.2479608
1.2479608
1.2479608
1.2479608
1.2479608
1.2479608
1.2479608
1.2479608
1.2479608
1.2479608
1.2479608
1.2479608
1.2479608
1.2479608
1.2479608
1.2479608
1.2479608
1.2479608
1.2479608
1.2479608
1.2479608
1.2479608
1.2479608
1.2479608
1.2479608
1.2479608
1.2479608
1.2479608
1.2479608
1.2479608
1.2479608
1.2479608
1.2479608
1.2479608
1.2479608
1.2479608
1.2479608
1.2479608
1.2479608
1.2479608
1.2479608
1.2479608
1.2479608
1.2479608
1.2479608
1.2479608
1.2479608
1.2479608
1.2479608
1.2479608
1.2479608
1.2479608
1.2479608
1.2479608
1.2479608
1.2479608
1.2479608
1.2479608
1.2479608
1.2479608
1.2479608
1.2479608
1.2479608
1.2479608
1.2479608
1.2479608
1.2479608
1.2479608
1.2479608
1.2479608
1.2479608
1.2479608
1.2479608
1.2479608
1.2479608
1.2479608
1.2479608
1.2479608
1.2479608
1.2479608
1.2479608
1.2479608
1.2479608
1.2479608
1.2479608
1.2479608
1.2479608
1.2479608
1.2479608
1.2479608
1.2479608
1.2479608
1.2479608
1.2479608
1.2479608
1.2479608
1.2479608
1.2479608
1.2479608
1.2479608
1.2479608
1.2479608
1.2479608
1.2479608
1.2479608
1.2479608
1.2479608
1.2479608
1.2479608
1.2479608
1.2479608
1.2479608
1.2479608
1.2479608
1.2479608
1.2479608
1.2479608
1.2479608
1.2479608
1.2479608
1.2479608
1.2479608
1.2479608
1.2479608
1.2479608
1.2479608
1.2479608
1.2479608
1.2479608
1.2479608
1.2479608
1.2479608
1.2479608
1.2479608
1.2479608
1.2479608
1.2479608
1.2479608
1.2479608
1.2479608
1.2479608
1.2479608
1.2479608
1.2479608
1.2479608
1.2479608
1.2479608
1.2479608
1.2479608
1.2479608
1.2479608
1.2479608
1.2479608
1.2479608
1.2479608
1.2479608
1.2479608
1.2479608
1.2479608
1.2479608
1.2479608
1.2479608
1.2479608
1.2479608
1.2479608
1.2479608
1.2479608
1.2479608
1.2479608
1.2479608
1.2479608
1.2479608
1.2479608
1.2479608
1.2479608
1.2479608
1.2479608
1.2479608
1.2479608
1.2479608
1.2479608
1.2479608
1.2479608
1.2479608
1.2479608
1.2479608
1.2479608
1.2479608
1.2479608
1.2479608
1.2479608
1.2479608
1.2479608
1.2479608
1.2479608
1.2479608
1.2479608
1.2479608
1.2479608
1.2479608
1.2479608
1.2479608
1.2479608
1.2479608
1.2479608
1.2479608
1.2479608
1.2479608
1.2479608
1.2479608
1.2479608
1.2479608
1.2479608
1.2479608
1.2479608
1.2479608
1.2479608
1.2479608
1.2479608
1.2479608
1.2479608
1.2479608
1.2479608
1.2479608
1.2479608
1.2479608
1.2479608
1.2479608
1.2479608
1.2479608
1.2479608
1.2479608
1.2479608
1.2479608
1.2479608
1.2479608
1.2479608
1.2479608
1.2479608
1.2479608
1.2479608
1.2479608
1.2479608
1.2479608
1.2479608
1.2479608
1.2479608
1.2479608
1.2479608
1.2479608
1.2479608
1.2479608
1.2479608
1.2479608
1.2479608
1.2479608
1.2479608
1.2479608
1.2479608
1.2479608
1.2479608
1.2479608
1.2479608
1.2479608
1.2479608
1.2479608
1.2479608
1.2479608
1.2479608
1.2479608
1.2479608
1.2479608
1.2479608
1.2479608
1.2479608
1.2479608
1.2479608
1.2479608
1.2479608
1.2479608
1.2479608
1.2479608
1.2479608
1.2479608
1.2479608
1.2479608
1.2479608
1.2479608
1.2479608
1.2479608
1.2479608
1.2479608
1.2479608
1.2479608
1.2479608
1.2479608
1.2479608
1.2479608
1.2479608
1.2479608
1.2479608
1.2479608
1.2479608
1.2479608
1.2479608
1.2479608
1.2479608
1.2479608
1.2479608
1.2479608
1.2479608
1.2479608
1.2479608
1.2479608
1.2479608
1.2479608
1.2479608
1.2479608
1.2479608
1.2479608
1.2479608
1.2479608
1.2479608
1.2479608
1.2479608
1.2479608
1.2479608
1.2479608
1.2479608
1.2479608
1.2479608
1.2479608
1.2479608
1.2479608
1.2479608
1.2479608
1.2479608
1.2479608
1.2479608
1.2479608
1.2479608
1.2479608
1.2479608
1.2479608
1.2479608
1.2479608
1.2479608
1.2479608
1.2479608
1.2479608
1.2479608
1.2479608
1.2479608
1.2479608
1.2479608
1.2479608
1.2479608
1.2479608
1.2479608
1.2479608
1.2479608
1.2479608
1.2479608
1.2479608
1.2479608
1.2479608
1.2479608
1.2479608
1.2479608
1.2479608
1.2479608
1.2479608
1.2479608
1.2479608
1.2479608
1.2479608
1.2479608
1.2479608
1.2479608
1.2479608
1.2479608
1.2479608
1.2479608
1.2479608
1.2479608
1.2479608
1.2479608
1.2479608
1.2479608
1.2479608
1.2479608
1.2479608
1.2479608
1.2479608
1.2479608
1.2479608
1.2479608
1.2479608
1.2479608
1.2479608
1.2479608
1.2479608
1.2479608
1.2479608
1.2479608
1.2479608
1.2479608
1.2479608
1.2479608
1.2479608
1.2479608
1.2479608
1.2479608
1.2479608
1.2479608
1.2479608
1.2479608
1.2479608
1.2479608
1.2479608
1.2479608
1.2479608
1.2479608
1.2479608
1.2479608
1.2479608
1.2479608
1.2479608
1.2479608
1.2479608
1.2479608
1.2479608
1.2479608
1.2479608
1.2479608
1.2479608
1.2479608
1.2479608
1.2479608
1.2479608
1.2479608
1.2479608
1.2479608
1.2479608
1.2479608
1.2479608
1.2479608
1.2479608
1.2479608
1.2479608
1.2479608
1.2479608
1.2479608
1.2479608
1.2479608
1.2479608
1.2479608
1.2479608
1.2479608
1.2479608
1.2479608
1.2479608
1.2479608
1.2479608
1.2479608
1.2479608
1.2479608
1.2479608
1.2479608
1.2479608
1.2479608
1.2479608
1.2479608
1.2479608
1.2479608
1.2479608
1.2479608
1.2479608
1.2479608
1.2479608
1.2479608
1.2479608
1.2479608
1.2479608
1.2479608
1.2479608
1.2479608
1.2479608
1.2479608
1.2479608
1.2479608
1.2479608
1.2479608
1.2479608
1.2479608
1.2479608
1.2479608
1.2479608
1.2479608
1.2479608
1.2479608
1.2479608
1.2479608
1.2479608
1.2479608
1.2479608
1.2479608
1.2479608
1.2479608
1.2479608
1.2479608
1.2479608
1.2479608
1.2479608
1.2479608
1.2479608
1.2479608
1.2479608
1.2479608
1.2479608
1.2479608
1.2479608
1.2479608
1.2479608
1.2479608
1.2479608
1.2479608
1.2479608
1.2479608
1.2479608
1.2479608
1.2479608
1.2479608
1.2479608
1.2479608
1.2479608
1.2479608
1.2479608
1.2479608
1.2479608
1.2479608
1.2479608
1.2479608
1.2479608
1.2479608
1.2479608
1.2479608
1.2479608
1.2479608
1.2479608
1.2479608
1.2479608
1.2479608
1.2479608
1.2479608
1.2479608
1.2479608
1.2479608
1.2479608
1.2479608
1.2479608
1.2479608
1.2479608
1.2479608
1.2479608
1.2479608
1.2479608
1.2479608
1.2479608
1.2479608
1.2479608
1.2479608
1.2479608
1.2479608
1.2479608
1.2479608
1.2479608
1.2479608
1.2479608
1.2479608
1.2479608
1.2479608
1.2479608
1.2479608
1.2479608
1.2479608
1.2479608
1.2479608
1.2479608
1.2479608
1.2479608
1.2479608
1.2479608
1.2479608
1.2479608
1.2479608
1.2479608
1.2479608
1.2479608
1.2479608
1.2479608
1.2479608
1.2479608
1.2479608
1.2479608
1.2479608
1.2479608
1.2479608
1.2479608
1.2479608
1.2479608
1.2479608
1.2479608
1.2479608
1.2479608
1.2479608
1.2479608
1.2479608
1.2479608
1.2479608
1.2479608
1.2479608
1.2479608
1.2479608
1.2479608
1.2479608
1.2479608
1.2479608
1.2479608
1.2479608
1.2479608
1.2479608
1.2479608
1.2479608
1.2479608
1.2479608
1.2479608
1.2479608
1.2479608
1.2479608
1.2479608
1.2479608
1.2479608
1.2479608
1.2479608
1.2479608
1.2479608
1.2479608
1.2479608
1.2479608
1.2479608
1.2479608
1.2479608
1.2479608
1.2479608
1.2479608
1.2479608
1.2479608
1.2479608
1.2479608
1.2479608
1.2479608
1.2479608
1.2479608
1.2479608
1.2479608
1.2479608
1.2479608
1.2479608
1.2479608
1.2479608
1.2479608
1.2479608
1.2479608
1.2479608
1.2479608
1.2479608
1.2479608
1.2479608
1.2479608
1.2479608
1.2479608
1.2479608
1.2479608
1.2479608
1.2479608
1.2479608
1.2479608
1.2479608
1.2479608
1.2479608
1.2479608
1.2479608
1.2479608
1.2479608
1.2479608
1.2479608
1.2479608
1.2479608
1.2479608
1.2479608
1.2479608
1.2479608
1.2479608
1.2479608
1.2479608
1.2479608
1.2479608
1.2479608
1.2479608
1.2479608
1.2479608
1.2479608
1.2479608
1.2479608
1.2479608
1.2479608
1.2479608
1.2479608
1.2479608
1.2479608
1.2479608
1.2479608
1.2479608
1.2479608
1.2479608
1.2479608
1.2479608
1.2479608
1.2479608
1.2479608
1.2479608
1.2479608
1.2479608
1.2479608
1.2479608
1.2479608
1.2479608
1.2479608
1.2479608
1.2479608
1.2479608
1.2479608
1.2479608
1.2479608
1.2479608
1.2479608
1.2479608
1.2479608
1.2479608
1.2479608
1.2479608
1.2479608
1.2479608
1.2479608
1.2479608
1.2479608
1.2479608
1.2479608
1.2479609
1.2479609
1.2479609
1.2479609
1.2479609
1.2479609
1.2479609
1.2479609
1.2479609
1.2479609
1.2479609
1.2479609
1.2479609
1.2479609
1.2479609
1.2479609
1.2479609
1.2479609
1.2479609
1.2479609
1.2479609
1.2479609
1.2479609
1.2479609
1.2479609
1.2479609
1.2479609
1.2479609
1.2479609
1.2479609
1.2479609
1.2479609
1.2479609
1.2479609
1.2479609
1.2479609
1.2479609
1.2479609
1.2479609
1.2479609
1.2479609
1.2479609
1.2479609
1.2479609
1.2479609
1.2479609
1.2479609
1.247961
1.247961
1.247961
1.247961
1.247961
1.247961
1.247961
1.247961
1.247961
1.247961
1.247961
1.247961
1.247961
1.247961
1.247961
1.247961
1.247961
1.247961
1.247961
1.247961
1.247961
1.247961
1.247961
1.247961
1.247961
1.247961
1.2479611
1.2479611
1.2479611
1.2479611
1.2479611
1.2479611
1.2479611
1.2479611
1.2479611
1.2479611
1.2479611
1.2479611
1.2479611
1.2479611
1.2479611
1.2479611
1.2479611
1.2479611
1.2479611
1.2479611
1.2479611
1.2479611
1.2479612
1.2479612
1.2479612
1.2479612
1.2479612
1.2479612
1.2479612
1.2479612
1.2479612
1.2479612
1.2479612
1.2479612
1.2479612
1.2479612
1.2479612
1.2479613
1.2479613
1.2479613
1.2479613
1.2479613
1.2479613
1.2479613
1.2479613
1.2479613
1.2479613
1.2479613
1.2479613
1.2479614
1.2479614
1.2479614
1.2479614
1.2479614
1.2479614
1.2479614
1.2479614
1.2479614
1.2479614
1.2479614
1.2479615
1.2479615
1.2479615
1.2479615
1.2479615
1.2479615
1.2479615
1.2479615
1.2479615
1.2479615
1.2479616
1.2479616
1.2479616
1.2479616
1.2479616
1.2479616
1.2479616
1.2479616
1.2479616
1.2479617
1.2479617
1.2479617
1.2479617
1.2479617
1.2479617
1.2479617
1.2479617
1.2479618
1.2479618
1.2479618
1.2479618
1.2479618
1.2479618
1.2479618
1.2479619
1.2479619
1.2479619
1.2479619
1.2479619
1.2479619
1.2479619
1.247962
1.247962
1.247962
1.247962
1.247962
1.247962
1.2479621
1.2479621
1.2479621
1.2479621
1.2479621
1.2479621
1.2479622
1.2479622
1.2479622
1.2479622
1.2479622
1.2479623
1.2479623
1.2479623
1.2479623
1.2479623
1.2479624
1.2479624
1.2479624
1.2479624
1.2479624
1.2479625
1.2479625
1.2479625
1.2479625
1.2479625
1.2479626
1.2479626
1.2479626
1.2479626
1.2479627
1.2479627
1.2479627
1.2479627
1.2479627
1.2479628
1.2479628
1.2479628
1.2479628
1.2479629
1.2479629
1.2479629
1.2479629
1.247963
1.247963
1.247963
1.247963
1.2479631
1.2479631
1.2479631
1.2479631
1.2479632
1.2479632
1.2479632
1.2479633
1.2479633
1.2479633
1.2479633
1.2479634
1.2479634
1.2479634
1.2479635
1.2479635
1.2479635
1.2479635
1.2479636
1.2479636
1.2479636
1.2479637
1.2479637
1.2479637
1.2479638
1.2479638
1.2479638
1.2479639
1.2479639
1.2479639
1.247964
1.247964
1.247964
1.2479641
1.2479641
1.2479642
1.2479642
1.2479642
1.2479643
1.2479643
1.2479643
1.2479644
1.2479644
1.2479645
1.2479645
1.2479645
1.2479646
1.2479646
1.2479647
1.2479647
1.2479647
1.2479648
1.2479648
1.2479649
1.2479649
1.247965
1.247965
1.247965
1.2479651
1.2479651
1.2479652
1.2479652
1.2479653
1.2479653
1.2479653
1.2479654
1.2479654
1.2479655
1.2479655
1.2479656
1.2479656
1.2479657
1.2479657
1.2479658
1.2479658
1.2479659
1.2479659
1.247966
1.247966
1.2479661
1.2479662
1.2479662
1.2479663
1.2479663
1.2479664
1.2479664
1.2479665
1.2479666
1.2479666
1.2479667
1.2479667
1.2479668
1.2479669
1.2479669
1.247967
1.247967
1.2479671
1.2479672
1.2479672
1.2479673
1.2479674
1.2479674
1.2479675
1.2479676
1.2479676
1.2479677
1.2479678
1.2479678
1.2479679
1.247968
1.2479681
1.2479681
1.2479682
1.2479683
1.2479684
1.2479685
1.2479685
1.2479686
1.2479687
1.2479688
1.2479689
1.247969
1.2479691
1.2479692
1.2479692
1.2479693
1.2479694
1.2479695
1.2479696
1.2479697
1.2479698
1.2479699
1.24797
1.2479702
1.2479703
1.2479704
1.2479705
1.2479706
1.2479707
1.2479708
1.247971
1.2479711
1.2479712
1.2479713
1.2479715
1.2479716
1.2479717
1.2479719
1.247972
1.2479722
1.2479723
1.2479725
1.2479726
1.2479728
1.2479729
1.2479731
1.2479733
1.2479734
1.2479736
1.2479738
1.247974
1.2479742
1.2479744
1.2479746
1.2479748
1.247975
1.2479752
1.2479754
1.2479756
1.2479759
1.2479761
1.2479763
1.2479766
1.2479768
1.2479771
1.2479774
1.2479776
1.2479779
1.2479782
1.2479785
1.2479788
1.2479791
1.2479794
1.2479798
1.2479801
1.2479804
1.2479808
1.2479812
1.2479815
1.2479819
1.2479823
1.2479827
1.2479831
1.2479836
1.247984
1.2479845
1.2479849
1.2479854
1.2479859
1.2479864
1.2479869
1.2479875
1.247988
1.2479886
1.2479891
1.2479897
1.2479903
1.247991
1.2479916
1.2479923
1.247993
1.2479937
1.2479944
1.2479951
1.2479959
1.2479967
1.2479975
1.2479983
1.2479992
1.2480001
1.248001
1.2480019
1.2480028
1.2480038
1.2480048
1.2480059
1.2480069
1.248008
1.2480091
1.2480103
1.2480115
1.2480127
1.248014
1.2480153
1.2480166
1.2480179
1.2480193
1.2480208
1.2480222
1.2480238
1.2480253
1.2480269
1.2480286
1.2480303
1.248032
1.2480338
1.2480356
1.2480375
1.2480394
1.2480414
1.2480434
1.2480455
1.2480476
1.2480498
1.2480521
1.2480544
1.2480568
1.2480592
1.2480617
1.2480643
1.2480669
1.2480696
1.2480724
1.2480752
1.2480781
1.2480811
1.2480842
1.2480873
1.2480906
1.2480939
1.2480972
1.2481007
1.2481043
1.2481079
1.2481116
1.2481155
1.2481194
1.2481234
1.2481275
1.2481317
1.248136
1.2481404
1.248145
1.2481496
1.2481543
1.2481592
1.2481642
1.2481692
1.2481744
1.2481798
1.2481852
1.2481908
1.2481965
1.2482023
1.2482083
1.2482144
1.2482206
1.248227
1.2482335
1.2482402
1.248247
1.248254
1.2482611
1.2482684
1.2482758
1.2482834
1.2482911
1.2482991
1.2483072
1.2483154
1.2483239
1.2483325
1.2483413
1.2483503
1.2483595
1.2483689
1.2483784
1.2483882
1.2483981
1.2484083
1.2484187
1.2484292
1.24844
1.248451
1.2484623
1.2484737
1.2484854
1.2484973
1.2485094
1.2485218
1.2485344
1.2485472
1.2485603
1.2485736
1.2485872
1.2486011
1.2486152
1.2486295
1.2486442
1.2486591
1.2486742
1.2486897
1.2487054
1.2487214
1.2487377
1.2487543
1.2487712
1.2487884
1.2488058
1.2488236
1.2488417
1.2488601
1.2488788
1.2488978
1.2489172
1.2489369
1.2489569
1.2489772
1.2489979
1.2490189
1.2490403
1.249062
1.249084
1.2491064
1.2491292
1.2491523
1.2491758
1.2491997
1.2492239
1.2492485
1.2492735
1.2492989
1.2493247
1.2493508
1.2493773
1.2494043
1.2494316
1.2494593
1.2494875
1.249516
1.249545
1.2495744
1.2496042
1.2496344
1.2496651
1.2496962
1.2497277
1.2497596
1.249792
1.2498248
1.2498581
1.2498918
1.249926
1.2499607
1.2499958
1.2500313
1.2500673
1.2501038
1.2501408
1.2501782
1.2502161
1.2502545
1.2502933
1.2503327
1.2503725
1.2504128
1.2504536
1.2504949
1.2505367
1.250579
1.2506218
1.2506651
1.2507089
1.2507532
1.2507981
1.2508434
1.2508893
1.2509357
1.2509826
1.25103
1.2510779
1.2511264
1.2511754
1.2512249
1.251275
1.2513256
1.2513767
1.2514284
1.2514806
1.2515334
1.2515866
1.2516405
1.2516949
1.2517498
1.2518053
1.2518613
1.2519179
1.251975
1.2520327
1.2520909
1.2521497
1.252209
1.252269
1.2523294
1.2523904
1.252452
1.2525142
1.2525769
1.2526402
1.252704
1.2527684
1.2528334
1.2528989
1.252965
1.2530317
1.2530989
1.2531667
1.253235
1.253304
1.2533735
1.2534436
1.2535142
1.2535854
1.2536572
1.2537295
1.2538024
1.2538759
1.2539499
1.2540246
1.2540997
1.2541755
1.2542518
1.2543287
1.2544062
1.2544842
1.2545628
1.2546419
1.2547216
1.2548019
1.2548827
1.2549641
1.2550461
1.2551286
1.2552117
1.2552954
1.2553796
1.2554643
1.2555496
1.2556355
1.2557219
1.2558089
1.2558964
1.2559845
1.2560732
1.2561623
1.2562521
1.2563423
1.2564332
1.2565245
1.2566164
1.2567089
1.2568018
1.2568954
1.2569894
1.257084
1.2571791
1.2572748
1.257371
1.2574677
1.2575649
1.2576627
1.257761
1.2578598
1.2579591
1.258059
1.2581593
1.2582602
1.2583616
1.2584635
1.2585659
1.2586688
1.2587722
1.2588762
1.2589806
1.2590855
1.2591909
1.2592968
1.2594032
1.2595101
1.2596175
1.2597254
1.2598337
1.2599426
1.2600519
1.2601617
1.2602719
1.2603827
1.2604939
1.2606056
1.2607177
1.2608303
1.2609434
1.2610569
1.2611709
1.2612853
1.2614002
1.2615156
1.2616313
1.2617476
1.2618643
1.2619814
1.2620989
1.2622169
1.2623354
1.2624542
1.2625735
1.2626932
1.2628134
1.2629339
1.2630549
1.2631763
1.2632981
1.2634204
1.263543
1.263666
1.2637895
1.2639133
1.2640376
1.2641622
1.2642873
1.2644127
1.2645386
1.2646648
1.2647914
1.2649184
1.2650458
1.2651735
1.2653017
1.2654302
1.2655591
1.2656883
1.2658179
1.2659479
1.2660783
1.266209
1.2663401
1.2664715
1.2666033
1.2667355
1.266868
1.2670008
1.267134
1.2672675
1.2674014
1.2675356
1.2676702
1.2678051
1.2679403
1.2680759
1.2682118
1.268348
1.2684846
1.2686215
1.2687587
1.2688962
1.2690341
1.2691723
1.2693108
1.2694496
1.2695887
1.2697281
1.2698679
1.270008
1.2701483
1.270289
1.27043
1.2705713
1.2707129
1.2708549
1.2709971
1.2711396
1.2712824
1.2714255
1.271569
1.2717127
1.2718567
1.272001
1.2721457
1.2722906
1.2724358
1.2725813
1.2727272
1.2728733
1.2730197
1.2731664
1.2733135
1.2734608
1.2736084
1.2737563
1.2739046
1.2740531
1.274202
1.2743511
1.2745006
1.2746503
1.2748004
1.2749508
1.2751015
1.2752526
1.2754039
1.2755556
1.2757076
1.27586
1.2760127
1.2761657
1.276319
1.2764727
1.2766268
1.2767812
1.276936
1.2770911
1.2772466
1.2774025
1.2775587
1.2777154
1.2778724
1.2780299
1.2781877
1.278346
1.2785047
1.2786638
1.2788234
1.2789834
1.2791439
1.2793048
1.2794663
1.2796282
1.2797906
1.2799536
1.280117
1.280281
1.2804456
1.2806107
1.2807765
1.2809428
1.2811097
1.2812773
1.2814455
1.2816143
1.2817839
1.2819542
1.2821252
1.2822969
1.2824694
1.2826427
1.2828168
1.2829918
1.2831676
1.2833443
1.2835219
1.2837004
1.28388
1.2840605
1.2842421
1.2844248
1.2846085
1.2847934
1.2849795
1.2851668
1.2853553
1.2855451
1.2857363
1.2859288
1.2861228
1.2863182
1.2865152
1.2867137
1.2869138
1.2871156
1.2873192
1.2875245
1.2877316
1.2879407
1.2881517
1.2883647
1.2885798
1.2887971
1.2890166
1.2892384
1.2894626
1.2896893
1.2899184
1.2901502
1.2903847
1.2906219
1.2908621
1.2911051
1.2913513
1.2916006
1.2918531
1.292109
1.2923683
1.2926312
1.2928977
1.293168
1.2934423
1.2937205
1.2940028
1.2942894
1.2945803
1.2948758
1.2951758
1.2954806
1.2957902
1.2961048
1.2964247
1.2967498
1.2970804
1.2974165
1.2977583
1.2981061
1.2984598
1.2988198
1.2991861
1.2995588
1.2999382
1.3003244
1.3007175
1.3011178
1.3015253
1.3019402
1.3023627
1.3027929
1.303231
1.3036771
1.3041314
1.304594
1.3050651
1.3055448
1.3060332
1.3065305
1.3070369
1.3075523
1.3080771
1.3086112
1.3091548
1.3097079
1.3102708
1.3108434
1.3114258
1.3120182
1.3126205
1.3132329
1.3138553
1.3144878
1.3151304
1.3157832
1.316446
1.317119
1.317802
1.318495
1.3191979
1.3199108
1.3206334
1.3213658
1.3221077
1.322859
1.3236196
1.3243894
1.3251681
1.3259555
1.3267515
1.3275557
1.3283681
1.3291882
1.3300159
1.3308508
1.3316926
1.3325411
1.3333959
1.3342566
1.3351229
1.3359944
1.3368708
1.3377517
1.3386366
1.3395251
1.340417
1.3413116
1.3422087
1.3431077
1.3440083
1.3449099
1.3458123
1.3467148
1.3476171
1.3485188
1.3494193
1.3503183
1.3512154
1.3521101
1.3530019
1.3538906
1.3547756
1.3556566
1.3565332
1.357405
1.3582716
1.3591328
1.3599881
1.3608372
1.3616798
1.3625156
1.3633442
1.3641655
1.3649792
1.365785
1.3665826
1.3673719
1.3681527
1.3689247
1.3696878
1.3704418
1.3711866
1.371922
1.3726479
1.3733643
1.374071
1.374768
1.3754551
1.3761324
1.3767998
1.3774572
1.3781047
1.3787423
1.3793699
1.3799876
1.3805954
1.3811933
1.3817815
1.3823598
1.3829285
1.3834875
1.384037
1.3845769
1.3851076
1.3856289
1.386141
1.3866441
1.3871381
1.3876234
1.3880998
1.3885677
1.389027
1.389478
1.3899208
1.3903554
1.3907821
1.3912009
1.391612
1.3920156
1.3924117
1.3928005
1.3931821
1.3935567
1.3939245
1.3942855
1.3946399
1.3949878
1.3953293
1.3956647
1.395994
1.3963173
1.3966348
1.3969467
1.397253
1.3975538
1.3978493
1.3981397
1.3984249
1.3987052
1.3989807
1.3992515
1.3995176
1.3997792
1.4000364
1.4002894
1.4005381
1.4007827
1.4010234
1.4012602
1.4014932
1.4017224
1.4019481
1.4021702
1.4023889
1.4026042
1.4028163
1.4030252
1.4032309
1.4034336
1.4036334
1.4038302
1.4040242
1.4042155
1.4044041
1.40459
1.4047734
1.4049543
1.4051328
1.4053088
1.4054826
1.4056541
1.4058233
1.4059904
1.4061554
1.4063183
1.4064792
1.4066382
1.4067952
1.4069503
1.4071036
1.4072551
1.4074048
1.4075528
1.4076991
1.4078438
1.4079868
1.4081283
1.4082682
1.4084066
1.4085435
1.408679
1.408813
1.4089457
1.4090769
1.4092068
1.4093354
1.4094627
1.4095888
1.4097135
1.4098371
1.4099594
1.4100806
1.4102006
1.4103195
1.4104372
1.4105539
1.4106694
1.4107839
1.4108973
1.4110097
1.4111211
1.4112314
1.4113408
1.4114492
1.4115566
1.4116631
1.4117686
1.4118732
1.4119769
1.4120797
1.4121816
1.4122826
1.4123827
1.412482
1.4125804
1.412678
1.4127748
1.4128707
1.4129658
1.4130601
1.4131536
1.4132463
1.4133383
1.4134294
1.4135198
1.4136094
1.4136983
1.4137864
1.4138738
1.4139604
1.4140463
1.4141315
1.414216
1.4142997
1.4143827
1.4144651
1.4145467
1.4146276
1.4147079
1.4147874
1.4148663
1.4149445
1.4150221
1.4150989
1.4151751
1.4152507
1.4153255
1.4153998
1.4154734
1.4155463
1.4156186
1.4156902
1.4157613
1.4158317
1.4159014
1.4159706
1.4160391
1.416107
1.4161743
1.416241
1.416307
1.4163725
1.4164373
1.4165016
1.4165652
1.4166283
1.4166907
1.4167526
1.4168139
1.4168746
1.4169347
1.4169942
1.4170532
1.4171116
1.4171694
1.4172267
1.4172834
1.4173395
1.4173951
1.4174502
1.4175047
1.4175586
1.417612
1.4176649
1.4177173
1.4177691
1.4178204
1.4178712
1.4179215
1.4179713
1.4180205
1.4180693
1.4181176
1.4181655
1.4182128
1.4182597
1.4183061
1.4183521
1.4183976
1.4184426
1.4184872
1.4185314
1.4185751
1.4186183
1.4186611
1.4187034
1.4187453
1.4187868
1.4188277
1.4188683
1.4189083
1.4189479
1.418987
1.4190257
1.4190639
1.4191017
1.4191389
1.4191756
1.4192118
1.4192474
1.4192825
1.419317
1.419351
1.4193845
1.4194175
1.4194493
1.4194814
1.419513
1.4195441
1.4195748
1.419605
1.4196348
1.4196642
1.4196932
1.4197218
1.4197501
1.419778
1.4198056
1.4198329
1.4198599
1.4198868
1.4199133
1.4199398
1.4199661
1.4199917
1.4200175
1.4200444
1.4200646
1.4200961
1.4201224
1.4201167
1.4201672
1.4202117
1.4201462
1.4197556
1.4187691
1.4172648
1.4152594
1.4127602
1.4098041
1.4064442
1.4027481
1.3987949
1.3946709
1.3904645
1.3862616
1.3821412
1.3781727
1.3744135
1.3709077
1.3676865
1.3647683
1.36216
1.3598589
1.357854
1.3561284
1.3546604
1.3534261
1.3524
1.3515565
1.3508708
1.3503198
1.349882
1.3495384
1.349272
1.3490683
1.3489149
1.3488014
1.3487192
1.3486613
1.348622
1.3485969
1.3485823
1.3485757
1.3485748
1.3485779
1.3485837
1.3485913
1.3486003
1.3486103
1.348621
1.3486321
1.3486433
1.3486546
1.3486658
1.3486768
1.3486876
1.3486982
1.3487087
1.348719
1.3487291
1.3487392
1.3487491
1.3487589
1.3487686
1.3487782
1.3487878
1.3487972
1.3488066
1.3488159
1.3488251
1.3488342
1.3488432
1.3488521
1.3488608
1.3488694
1.3488778
1.3488861
1.3488942
1.3489021
1.3489098
1.3489173
1.3489247
1.3489319
1.3489389
1.3489457
1.3489523
1.3489587
1.348965
1.3489711
1.3489771
1.3489829
1.3489885
1.348994
1.3489994
1.3490046
1.3490097
1.3490147
1.3490195
1.3490243
1.3490289
1.3490335
1.3490379
1.3490422
1.3490464
1.3490506
1.3490546
1.3490586
1.3490624
1.3490662
1.3490699
1.3490735
1.3490771
1.3490805
1.3490839
1.3490872
1.3490905
1.3490937
1.3490968
1.3490998
1.3491028
1.3491057
1.3491086
1.3491114
1.3491141
1.3491168
1.3491194
1.349122
1.3491245
1.3491269
1.3491293
1.3491316
1.3491339
1.3491362
1.3491383
1.3491405
1.3491426
1.3491446
1.3491466
1.3491486
1.3491505
1.3491524
1.3491542
1.349156
1.3491577
1.3491594
1.3491611
1.3491627
1.3491643
1.3491658
1.3491674
1.3491688
1.3491703
1.3491717
1.3491731
1.3491744
1.3491757
1.349177
1.3491782
1.3491795
1.3491807
1.3491818
1.3491829
1.349184
1.3491851