/*--------------------------------*- C++ -*----------------------------------*\
  =========                 |
  \\      /  F ield         | OpenFOAM: The Open Source CFD Toolbox
   \\    /   O peration     | Website:  https://openfoam.org
    \\  /    A nd           | Version:  7
     \\/     M anipulation  |
\*---------------------------------------------------------------------------*/
FoamFile
{
    version     2.0;
    format      ascii;
    class       volScalarField;
    location    "0.00289";
    object      Uz;
}
// * * * * * * * * * * * * * * * * * * * * * * * * * * * * * * * * * * * * * //

dimensions      [0 1 -1 0 0 0 0];

internalField   nonuniform List<scalar> 
5000
(
0
0
0
0
0
-9.515532e-22
-2.069833e-36
3.0703788e-21
1.0428382e-21
-2.1573133e-21
-2.1937282e-21
1.0955538e-21
-9.3672539e-36
-9.7985772e-36
2.2554757e-21
-2.2795589e-21
3.3356256e-51
-1.0198814e-35
-1.1656062e-21
2.3459517e-21
1.1796097e-21
0
0
-1.1950608e-21
1.0221912e-35
-9.9072878e-36
-1.2046088e-21
1.2067034e-21
1.2083484e-21
-1.2095985e-21
2.1158786e-35
-1.0326479e-35
-1.2114409e-21
1.2115593e-21
1.2114948e-21
0
0
-1.2104809e-21
-1.2099406e-21
1.2093301e-21
-2.0267915e-35
-1.2079671e-21
1.2072397e-21
-2.0402892e-35
-1.2057334e-21
1.2049733e-21
-4.1413364e-35
4.1216854e-35
-4.1363617e-35
2.0499728e-35
1.2015228e-21
0
0
0
0
0
0
0
0
0
0
0
0
-1.1767527e-21
-1.1830816e-21
1.1874047e-21
-2.0512677e-35
5.0159631e-52
1.2076396e-21
0
0
-1.2105537e-21
-1.2170854e-21
0
1.2312523e-21
4.2759027e-35
-1.2445786e-21
-1.2488167e-21
1.2507423e-21
2.509464e-21
-2.5167101e-21
7.1487017e-37
3.77042e-21
-2.5246757e-21
-1.3258345e-34
2.5785441e-21
-3.8779319e-21
1.2918476e-21
1.3022604e-21
-1.3062214e-21
1.3013335e-21
1.3074954e-21
4.6006322e-35
-2.6467458e-21
-9.1465785e-35
-1.3317992e-21
-1.3349569e-21
-4.6630602e-35
9.2832079e-35
2.6920807e-21
1.3468901e-21
-1.343648e-21
1.9220646e-37
1.3543933e-21
0
-1.3594076e-21
-4.7379864e-35
1.3570049e-21
-1.3650934e-21
-1.3663858e-21
2.7160013e-21
1.3611749e-21
-4.1185745e-21
-1.372587e-21
4.091041e-21
-1.3666152e-21
-1.378064e-21
-7.8301398e-37
-1.368245e-21
4.113474e-21
-9.6652541e-35
-2.7705377e-21
2.7691174e-21
1.3848012e-21
-1.3824576e-21
1.3789602e-21
-1.3798133e-21
-2.7773138e-21
1.3885484e-21
4.7620868e-35
1.3814813e-21
2.7861602e-21
-1.3921799e-21
-1.3869124e-21
-1.3942548e-21
-4.8674554e-35
-4.8453132e-35
4.865973e-35
2.7917909e-21
1.4005418e-21
-1.3999366e-21
-2.7812556e-21
-1.39282e-21
-1.4045821e-21
9.7363457e-35
2.794351e-21
-3.9829475e-37
3.9847574e-37
-2.1134662e-51
1.4094937e-21
-9.7797713e-35
1.9566963e-34
1.412393e-21
-1.4132461e-21
1.4034459e-21
4.8743954e-35
-1.4179678e-21
1.4174973e-21
-2.006706e-37
-1.4198467e-21
0
1.415271e-21
9.8479512e-35
-2.8477818e-21
1.4138101e-21
-4.0244784e-37
-1.4283521e-21
1.4281505e-21
-1.4176507e-21
1.4197498e-21
-5.9677242e-34
-3.9729286e-34
1.4216847e-21
-2.8473611e-21
0
-9.9579974e-35
-2.9757666e-34
1.4379766e-21
1.4385663e-21
9.8771765e-35
-1.4406651e-21
1.4412285e-21
9.8752803e-35
6.1523708e-37
2.0050119e-34
-2.9000909e-21
1.458572e-21
1.4570925e-21
-9.9941212e-35
9.9756136e-35
-2.9869355e-34
9.9333936e-35
-1.4504434e-21
0
0
0
0
-1.4451818e-21
3.027631e-34
1.4523483e-21
1.4462935e-21
-1.4533221e-21
-1.4535917e-21
2.884997e-21
9.9913978e-35
-3.0219016e-34
-1.4544528e-21
-1.4480113e-21
1.4548731e-21
0
1.4484246e-21
1.0070888e-34
-1.4551685e-21
-1.4437668e-21
2.0119698e-34
1.4562688e-21
-2.9101297e-21
1.4486049e-21
1.4553472e-21
-1.4545931e-21
1.4476211e-21
0
0
0
1.4536489e-21
-1.4575933e-21
-2.9120861e-21
1.4551184e-21
-1.0084367e-34
1.44502e-21
1.4440866e-21
-2.9047422e-21
4.1376697e-37
-4.1345025e-37
1.4542467e-21
1.4520204e-21
-2.8979767e-21
2.048494e-37
-2.9996877e-34
1.4491945e-21
-8.0407259e-34
-1.9906503e-34
1.4355017e-21
-1.4467217e-21
0
-1.4487573e-21
1.4481843e-21
1.445648e-21
-1.4423326e-21
0
-1.4334363e-21
1.442428e-21
1.440672e-21
-4.9764897e-34
-2.8790746e-21
-2.8775611e-21
4.2799401e-21
2.853991e-21
0
-2.8720405e-21
-1.4287726e-21
1.4347638e-21
1.4382101e-21
1.4362172e-21
-2.8700126e-21
-2.861231e-21
1.4240257e-21
2.8455085e-21
3.9695239e-34
-2.8593534e-21
1.4174208e-21
-1.9664748e-34
-1.4288587e-21
2.8536169e-21
-1.4194075e-21
1.985453e-34
1.4246567e-21
-1.4174399e-21
1.4236645e-21
-2.8453114e-21
5.9058606e-34
2.8431771e-21
-2.8395955e-21
-9.7714666e-35
1.4185256e-21
0
0
1.4180481e-21
-1.411552e-21
-2.8280112e-21
1.4225499e-21
-4.0357093e-37
1.4171106e-21
1.414988e-21
-1.4092306e-21
0
-1.4097007e-21
-1.4025543e-21
0
2.824213e-21
1.4108443e-21
-2.8207069e-21
9.7448401e-35
-3.9934142e-37
1.3966884e-21
1.388014e-21
-1.3854715e-21
1.3913897e-21
-1.4034267e-21
7.9702598e-37
2.7898205e-21
-1.4016403e-21
-1.401229e-21
-1.3888857e-21
-1.9274777e-34
1.4016972e-21
0
0
-1.3998631e-21
1.9426848e-34
-3.8637772e-34
-1.9447961e-34
1.4040174e-21
-1.4024335e-21
1.9916107e-37
1.3975967e-21
0
0
0
0
0
0
0
-1.400874e-21
0
1.3903805e-21
0
-1.40845e-21
-3.9390386e-34
1.4113445e-21
0
0
-1.4086486e-21
-1.9635088e-34
1.4128077e-21
0
0
-1.4054363e-21
-1.4032353e-21
1.3959965e-21
1.3967629e-21
0
-1.4089057e-21
1.9895005e-37
1.4024162e-21
-1.4018538e-21
-1.4006348e-21
1.4125466e-21
1.4140904e-21
0
-1.4161376e-21
-1.4175363e-21
1.405885e-21
1.408125e-21
0
-1.4227965e-21
-1.4166645e-21
1.4257975e-21
1.4270031e-21
0
0
0
0
0
0
0
0
-1.4431502e-21
-3.2344273e-51
1.4458988e-21
0
0
0
-1.4532907e-21
-2.0168564e-34
1.4420462e-21
-1.444659e-21
2.0273438e-34
-2.0757896e-37
-2.0198812e-34
1.4645322e-21
-1.4718991e-21
1.4779748e-21
-8.2588454e-34
-1.4754858e-21
1.4578344e-21
0
0
-1.4814309e-21
-2.0594402e-34
1.4779052e-21
-1.4882975e-21
-1.4904526e-21
0
1.495885e-21
1.4982438e-21
-1.4931263e-21
-4.1739249e-34
2.3109545e-51
-2.0752506e-34
1.4982093e-21
-1.515684e-21
-9.9131201e-51
-2.0993185e-34
-1.5229165e-21
0
0
1.5296461e-21
2.1749885e-37
-6.405993e-34
1.5460496e-21
0
0
-1.5516118e-21
4.3277073e-34
1.5734924e-21
0
0
0
-1.6071316e-21
2.2926941e-37
1.6192431e-21
-1.6249291e-21
1.630422e-21
-4.5468164e-34
-3.2817222e-21
1.6458351e-21
6.8763251e-34
2.2991525e-34
-2.3061497e-34
-1.6658713e-21
0
0
1.6785768e-21
2.3364299e-34
-4.6816928e-34
-2.0522578e-52
-1.695425e-21
1.7001804e-21
1.7051751e-21
0
-1.7149217e-21
-2.3874885e-34
1.724637e-21
0
0
-1.7406473e-21
4.9591768e-37
-2.1559505e-52
-1.7537778e-21
1.7586116e-21
-2.4428919e-34
2.4534602e-34
-4.9144753e-34
-1.7742024e-21
1.7776145e-21
-4.9453325e-34
4.9572489e-34
-4.9671988e-34
-1.7916166e-21
1.7954616e-21
-4.9969446e-34
2.5091718e-34
0
-1.8108506e-21
1.8152867e-21
-2.5280366e-34
2.5952103e-37
-2.5411563e-34
2.5489523e-34
1.8386805e-21
-1.844381e-21
-1.8505367e-21
1.8556931e-21
1.8596037e-21
0
-1.8683832e-21
-1.8732653e-21
0
1.8822744e-21
-2.6198914e-34
2.6887448e-37
2.6303227e-34
-1.9059126e-21
1.922284e-21
2.6750565e-34
-5.3466587e-34
-1.9292939e-21
-1.9371618e-21
3.8886346e-21
-2.7652648e-37
2.6937314e-34
1.9471415e-21
-1.9532267e-21
2.7143053e-34
1.9629719e-21
0
0
0
-1.9823894e-21
-1.9875538e-21
1.9956875e-21
2.0017081e-21
0
-2.0026715e-21
-2.0088839e-21
2.0184648e-21
2.0257668e-21
0
-2.0262632e-21
-2.0304903e-21
2.0408552e-21
5.6908325e-34
-2.0535804e-21
0
0
0
0
2.0623347e-21
-5.7115275e-34
-2.0652734e-21
2.0823352e-21
2.900121e-34
-2.8940842e-34
-1.1842484e-51
2.1113434e-21
2.1183301e-21
-4.2274555e-21
-2.9351356e-34
2.9327281e-34
-2.1120311e-21
0
2.126239e-21
2.1271643e-21
-2.1127629e-21
-5.815135e-34
2.1016082e-21
0
0
-2.1391374e-21
2.9633935e-34
2.1516253e-21
0
-2.1483825e-21
3.0499379e-37
-5.9648229e-34
-2.977754e-34
2.1449643e-21
-2.142492e-21
3.042318e-37
-5.9377232e-34
-2.1375574e-21
2.1419229e-21
5.9778076e-34
3.0681792e-37
-2.9945653e-34
-2.164294e-21
2.1650373e-21
0
-1.2046456e-33
-3.0462608e-34
-9.1618919e-34
-3.1277412e-37
-2.1973414e-21
2.1856661e-21
-9.5649536e-52
-3.0312564e-34
6.0616078e-34
-3.029901e-34
4.3635208e-21
-2.1818277e-21
-2.1816711e-21
-3.0344361e-34
3.0495166e-34
4.3980214e-21
-2.1928867e-21
-2.1942853e-21
3.3716617e-52
0
4.0107093e-52
-2.1836424e-21
2.1866628e-21
-2.3149121e-52
-3.0548573e-34
-3.1380803e-37
-2.214767e-21
4.4353488e-21
6.1370727e-34
-2.2058625e-21
3.0584161e-34
-3.0558145e-34
2.1992434e-21
-2.191792e-21
2.6900082e-51
-9.1950475e-34
6.1550132e-34
-6.1519686e-34
-6.1524234e-34
3.2356985e-52
0
2.2091e-21
0
0
-2.2282966e-21
-6.1737177e-34
2.2251717e-21
0
0
-4.4518657e-21
-1.8514656e-33
4.444018e-21
-2.2190065e-21
3.1570204e-37
-3.0940114e-34
-2.2342866e-21
0
0
0
-2.260476e-21
-6.2429356e-34
2.2450983e-21
0
0
-2.245378e-21
3.1921547e-37
2.2504088e-21
0
0
-2.2872937e-21
-6.3492924e-34
-6.3563126e-34
6.3434938e-34
2.2827499e-21
-2.2777008e-21
6.2908576e-34
-6.2800006e-34
6.2818619e-34
2.2635133e-21
0
0
-2.2766183e-21
6.8706789e-51
2.2867612e-21
0
0
-2.2754812e-21
8.1108042e-51
2.2843642e-21
0
0
-2.2764382e-21
1.9562711e-50
2.304976e-21
0
0
-2.3174758e-21
3.3014722e-37
2.3306209e-21
-2.3406705e-21
6.5275299e-34
-6.528073e-34
6.5110354e-34
2.3450152e-21
0
0
0
0
0
-2.3431236e-21
6.5110499e-34
2.3527806e-21
0
0
0
0
0
0
0
-2.4049748e-21
1.3344632e-33
2.3995121e-21
0
0
0
0
0
0
0
-2.4249454e-21
6.741669e-34
2.4341071e-21
0
0
-2.4534568e-21
6.8065462e-34
2.4508501e-21
0
0
0
-2.4905525e-21
-6.9157092e-34
2.4858369e-21
0
0
0
0
0
0
0
-2.5491253e-21
3.6350986e-37
2.5581773e-21
0
0
0
0
0
0
0
-2.5569151e-21
-3.6542226e-37
2.578181e-21
0
0
0
-2.5920947e-21
1.4504915e-33
2.6237787e-21
0
-2.6199185e-21
-7.2998439e-34
2.6286874e-21
0
0
-2.6319202e-21
-2.6420295e-21
2.6524347e-21
2.6568676e-21
0
0
0
0
2.7057232e-21
-3.8449013e-37
-5.4177153e-21
-2.7130912e-21
5.4185511e-21
5.4071483e-21
-2.7109264e-21
-2.7174561e-21
0
0
0
0
-2.7480663e-21
-7.6483839e-34
2.7601661e-21
0
0
0
0
0
0
0
0
0
0
0
0
0
0
-2.8224229e-21
1.5685976e-33
2.8300206e-21
0
0
2.8497788e-21
-7.9135486e-34
4.0526812e-37
-2.8590563e-21
-2.8704704e-21
-1.5990759e-33
8.0078397e-34
2.8843097e-21
0
0
0
0
0
-2.9011785e-21
1.6131682e-33
2.9250122e-21
0
0
0
0
0
0
0
-2.9565667e-21
1.6420058e-33
2.958796e-21
0
0
0
0
0
0
0
-2.9844859e-21
2.48216e-33
2.9733391e-21
0
0
0
0
0
0
0
0
-3.0080283e-21
4.2738006e-37
3.0067259e-21
0
0
0
0
-3.0231064e-21
3.023296e-21
3.0173943e-21
-6.0328777e-21
-8.3959208e-34
3.0316958e-21
0
0
0
0
-3.0598704e-21
8.5057774e-34
6.1255499e-21
-3.0606004e-21
-3.0629107e-21
3.0651344e-21
0
0
0
-3.0657218e-21
-8.5027956e-34
3.0668955e-21
3.0737972e-21
-3.0809775e-21
-3.0822905e-21
3.0837872e-21
0
0
-3.0924384e-21
-3.0845916e-21
3.0892567e-21
3.096514e-21
3.0958866e-21
1.718912e-33
-3.1002966e-21
0
0
0
-3.1147908e-21
-3.1140534e-21
3.1132583e-21
3.1154717e-21
3.1233658e-21
8.7000971e-34
-3.1348491e-21
0
0
0
-3.1312455e-21
8.7091462e-34
3.1487274e-21
0
0
0
0
0
0
0
-3.1656586e-21
8.8095535e-34
6.3619805e-21
8.9019005e-34
-3.214191e-21
0
0
-3.192534e-21
4.537832e-37
-8.8790367e-34
8.855288e-34
3.1821047e-21
3.1904545e-21
-8.8940155e-34
-3.2107994e-21
0
0
-3.2255862e-21
2.695941e-33
8.9774382e-34
-4.5841684e-37
3.2302859e-21
-3.2365575e-21
-3.239963e-21
6.5035888e-21
-1.8124575e-33
-3.2699202e-21
3.2595483e-21
0
-3.2623556e-21
-9.0606432e-34
3.2739503e-21
0
-3.2954548e-21
3.2814924e-21
-3.6387189e-33
-3.2790671e-21
3.2794219e-21
0
-3.2952008e-21
0
3.287496e-21
0
-3.3013604e-21
3.3081683e-21
-1.8485903e-33
-3.3397517e-21
3.3250525e-21
0
-3.3203494e-21
-9.2030643e-34
3.3146563e-21
0
-3.3310877e-21
3.3283349e-21
-9.4914359e-37
-3.3477762e-21
3.3546022e-21
0
-3.3878868e-21
-3.3740219e-21
3.3713045e-21
3.373196e-21
-3.3726764e-21
3.3864656e-21
3.4050164e-21
-3.4027783e-21
0
0
0
0
0
0
-3.4298315e-21
1.7366506e-51
6.9200246e-21
-3.4531014e-21
-3.4533008e-21
3.4640822e-21
0
0
-3.4861343e-21
-3.4784218e-21
3.4787695e-21
3.4905167e-21
0
-3.4528608e-21
-9.6418431e-34
3.4857836e-21
0
0
-3.5338557e-21
-3.5463446e-21
3.5513713e-21
3.5399402e-21
0
-3.51901e-21
9.785795e-34
3.5245958e-21
-3.5424828e-21
-1.9744905e-33
-5.037566e-37
-3.5470205e-21
3.5536529e-21
3.546727e-21
0
0
-3.5918792e-21
9.8879728e-34
3.5467551e-21
0
-3.5784574e-21
-3.5719666e-21
3.5736467e-21
3.5906804e-21
0
0
0
0
0
0
-3.6226253e-21
1.0077466e-33
3.6284087e-21
0
0
0
0
0
0
-3.6540332e-21
1.5684959e-51
3.6855485e-21
3.6908153e-21
1.0317709e-33
-3.7350717e-21
0
0
0
0
-3.7365884e-21
-1.0438982e-33
3.7792853e-21
-3.7589882e-21
-3.7293455e-21
3.7344669e-21
-2.0918101e-33
-3.1580293e-33
-3.1689949e-33
1.059467e-33
-2.1137975e-33
1.0601524e-33
3.8533538e-21
0
-3.8632631e-21
3.1898367e-33
-5.41873e-37
-3.8337465e-21
3.8534408e-21
3.8701207e-21
-3.885971e-21
1.0731169e-33
-3.2034683e-33
-2.1488736e-33
-2.1590501e-33
1.0837316e-33
-2.1764832e-33
-3.9048643e-21
3.8883538e-21
3.9129044e-21
-3.9345445e-21
1.0906621e-33
-4.3816662e-33
-1.1005412e-33
1.0955001e-33
1.0903212e-33
1.1012285e-33
-4.001008e-21
0
3.9911836e-21
-1.1098466e-33
-7.2229551e-51
3.9712184e-21
0
-4.0259259e-21
4.0432213e-21
4.0572027e-21
-4.0409715e-21
0
0
0
0
-4.0900996e-21
1.1360058e-33
-2.2791553e-33
4.0889902e-21
4.0690854e-21
-4.0706099e-21
0
0
0
0
-4.1975061e-21
-5.9812722e-37
4.1883487e-21
0
0
0
0
0
0
0
-4.2472963e-21
-4.228712e-21
4.2454702e-21
4.2903088e-21
0
0
0
0
0
0
-4.3442852e-21
-4.3787335e-21
4.3963086e-21
4.4018331e-21
0
0
0
0
0
0
-4.4721359e-21
-4.4550307e-21
4.419905e-21
4.3925911e-21
0
0
0
0
0
0
-4.4865197e-21
2.4767229e-33
4.458298e-21
0
0
0
0
0
0
-4.5250098e-21
1.257381e-33
4.5375217e-21
0
0
0
0
-4.5835852e-21
-6.5195967e-37
4.6106153e-21
-4.6551418e-21
-2.3349767e-52
4.6597295e-21
-4.6383741e-21
2.5763628e-33
4.652529e-21
-4.6853918e-21
-2.6243594e-33
-2.628644e-33
-2.3454888e-50
-2.6060725e-33
-1.3034763e-33
4.7070591e-21
-4.7245351e-21
-4.7560218e-21
9.5488821e-21
-2.6441197e-33
-9.5138606e-21
0
4.7705304e-21
-1.3290457e-33
-1.3374318e-33
-4.0241057e-33
-4.0219764e-33
-2.6757761e-33
4.0192601e-33
-2.6840407e-33
1.3474207e-33
4.8720716e-21
0
-4.89427e-21
-6.9497141e-37
-4.0745092e-33
-4.0848537e-33
6.9985357e-37
2.7444311e-33
-1.3748911e-33
-4.9500462e-21
0
4.9629111e-21
-2.7638272e-33
-7.1062908e-37
5.0130818e-21
0
-5.0133275e-21
5.0229486e-21
5.0400425e-21
-5.0561741e-21
0
0
-5.0705526e-21
5.6457768e-33
-2.8327301e-33
2.84311e-33
-1.4231083e-33
5.1232761e-21
5.1306357e-21
-5.1458037e-21
0
0
0
0
-5.1925005e-21
-1.4453158e-33
-5.8005402e-33
5.2473659e-21
5.2568166e-21
-5.2550979e-21
0
0
0
0
-5.3183301e-21
-5.3273499e-21
5.3278619e-21
5.3323404e-21
0
0
0
0
0
0
-5.4102458e-21
-5.4205526e-21
5.4330186e-21
5.4511718e-21
0
0
0
0
0
0
-5.5259367e-21
4.6147633e-33
1.1120458e-20
-5.5743685e-21
-1.6743144e-20
-5.587639e-21
0
1.1221378e-20
-6.2439328e-33
-1.8769763e-32
-5.6531708e-21
-1.1342648e-20
1.136739e-20
-5.6908658e-21
-5.6997502e-21
5.7117829e-21
-5.724546e-21
8.1547641e-37
5.7561938e-21
5.7757333e-21
-5.7891695e-21
-5.7963556e-21
5.8049706e-21
-5.8172798e-21
-8.2857921e-37
5.8448662e-21
0
0
0
1.1809103e-20
-5.9142107e-21
-1.1854394e-20
5.941249e-21
-5.9552612e-21
-5.969911e-21
1.1974352e-20
-7.4246391e-51
-6.0216554e-21
6.0321191e-21
1.2085886e-20
6.056623e-21
-1.8213975e-20
6.0860548e-21
-9.3940095e-50
-1.8365503e-20
1.227941e-20
6.1520777e-21
6.1631616e-21
1.2354226e-20
-1.2384994e-20
-6.208297e-21
-6.2257948e-21
6.2444915e-21
6.2609849e-21
-1.8822996e-20
6.2878173e-21
6.3031671e-21
-6.3193578e-21
-6.3364929e-21
-9.0312287e-37
1.9119372e-20
-6.3882518e-21
1.0659995e-32
-1.0690124e-32
-1.9305899e-20
6.4529634e-21
6.4724543e-21
1.298289e-20
-6.5073221e-21
-1.304454e-20
1.3077758e-20
-6.5568202e-21
6.5762464e-21
6.596579e-21
-1.9844704e-20
6.6307659e-21
6.6469934e-21
-1.332964e-20
-6.6841915e-21
6.7052007e-21
2.0176126e-20
-6.7425957e-21
-2.703683e-20
3.7619977e-33
1.3594483e-20
6.818966e-21
0
1.3719989e-20
1.5267185e-32
-2.0685874e-20
6.914957e-21
-1.5399053e-32
6.9578222e-21
6.9805139e-21
-1.4001851e-20
0
0
0
-7.0809974e-21
3.9438558e-33
1.4250966e-20
-7.1467813e-21
-1.433543e-20
2.1568041e-20
-2.401888e-32
-1.4469721e-20
7.2575157e-21
0
0
0
1.4698873e-20
-7.3727798e-21
-1.4791645e-20
2.2257642e-20
-2.1155381e-36
-1.4937533e-20
0
0
-7.5425486e-21
4.2009445e-33
1.518226e-20
-7.616799e-21
-1.5286538e-20
2.3009456e-20
-1.2812509e-32
-1.5441199e-20
7.7463847e-21
-7.7731358e-21
1.5600474e-20
7.8271368e-21
-2.6155299e-32
-7.8815169e-21
-1.5820105e-20
2.3818159e-20
-4.5293104e-36
-7.9954013e-21
4.4532892e-33
-8.051322e-21
-8.0807112e-21
4.5023765e-33
2.4427426e-20
-2.3227725e-36
-2.4603856e-20
1.6460903e-20
-7.1242672e-50
-1.6584063e-20
8.3242244e-21
-8.3567612e-21
1.6776893e-20
8.419458e-21
-1.8766183e-32
-8.4835408e-21
-1.7034069e-20
-8.5512699e-21
-8.58533e-21
2.5855825e-20
0
-8.6859776e-21
-4.8408326e-33
4.8609043e-33
-4.8799662e-33
8.8295342e-21
-9.841097e-33
8.90033e-21
-2.976471e-32
-2.6925288e-20
1.8027905e-20
2.71573e-20
9.0898845e-21
-2.7382405e-20
-1.8332256e-20
2.7617427e-20
-9.2466054e-21
-2.7864283e-20
0
0
9.409663e-21
9.4513505e-21
0
-9.5377303e-21
-9.5821153e-21
1.925197e-20
-2.1468669e-32
-2.9139177e-20
1.0832876e-32
9.8039887e-21
9.8509687e-21
9.8984768e-21
-9.9456102e-21
-9.9924289e-21
1.0039884e-20
3.0265317e-20
-1.0138031e-20
-4.0754502e-20
1.0239773e-20
2.0581415e-20
1.0341465e-20
0
-1.0445305e-20
0
-1.0553378e-20
1.0608487e-20
-2.3676458e-32
1.0718781e-20
-3.5884218e-32
-3.249433e-20
1.0889476e-20
1.0948319e-20
-1.1007525e-20
-1.1067017e-20
1.1127167e-20
3.3565124e-20
-1.125064e-20
-4.525416e-20
1.8947998e-32
1.1440198e-20
2.3009274e-20
1.1570394e-20
-2.3274888e-20
-6.4973229e-33
-1.6730809e-36
1.1841351e-20
-2.6444302e-32
-1.1980355e-20
3.6155634e-20
-1.3460209e-32
-2.4396365e-20
0
0
-1.2420775e-20
6.9367495e-33
2.5149047e-20
-1.2653377e-20
-2.5466153e-20
-1.281322e-20
1.431043e-32
3.8925718e-20
1.3057913e-20
-1.3142021e-20
2.6454835e-20
-7.568003e-36
-4.4634649e-32
-1.3488527e-20
-2.7154174e-20
4.1000429e-20
-1.5277298e-32
-2.7700834e-20
0
0
2.8266811e-20
-3.1593471e-32
-1.5900622e-32
-4.099947e-36
-4.3577081e-20
-2.9254153e-20
2.4531677e-32
4.4496159e-20
1.49359e-20
-1.5041132e-20
3.0295883e-20
1.6932382e-32
-5.1170334e-32
-1.5476102e-20
-3.1174982e-20
4.7099998e-20
-1.5813805e-20
-1.5928982e-20
1.6045488e-20
-1.616326e-20
3.2564603e-20
-1.8209451e-32
-1.6524339e-20
-2.3657123e-36
-3.3542446e-20
3.3792809e-20
-2.834227e-32
-3.430213e-20
1.728073e-20
0
-1.7543963e-20
-9.8096765e-33
5.3434854e-20
-1.794751e-20
-3.6170177e-20
-1.822431e-20
-1.8364914e-20
1.8506656e-20
1.8649504e-20
1.8793646e-20
-1.8939331e-20
1.0594559e-32
-1.0674501e-32
1.9385973e-20
-2.1695229e-32
1.9690436e-20
-6.6091887e-32
-6.0001531e-20
4.0315859e-20
-6.1508043e-50
-2.0477188e-20
-2.2909302e-32
1.1549574e-32
6.2899406e-20
-2.1132718e-20
-6.3901666e-20
0
0
2.1812265e-20
2.1985677e-20
4.4321572e-20
-2.2337613e-20
-4.5032024e-20
4.5391595e-20
-2.2876894e-20
-6.9178148e-20
2.324343e-20
2.3429168e-20
2.3616602e-20
2.380563e-20
-4.7992254e-20
-2.418803e-20
2.4381369e-20
7.3728717e-20
-2.477274e-20
1.0350223e-48
-4.1907845e-32
-5.074415e-20
5.1149771e-20
5.1558316e-20
-2.5984965e-20
-5.2384812e-20
5.2803077e-20
2.6612333e-20
-8.0474081e-20
-8.111559e-20
2.7253828e-20
5.4941322e-20
2.768914e-20
-1.5491799e-32
-5.6262428e-20
-2.8354701e-20
2.8579707e-20
5.7612418e-20
-4.1260171e-36
-5.8527909e-20
5.8990647e-20
-4.9512937e-32
-5.9926012e-20
3.0199256e-20
6.0874228e-20
6.1353193e-20
0
-3.116043e-20
-9.4214313e-20
-3.1650741e-20
3.1898368e-20
0
0
0
0
-3.3161467e-20
1.8550075e-32
1.0103464e-19
-3.3939186e-20
-1.0260562e-19
-3.4466221e-20
5.7846887e-32
6.9999623e-20
3.5269147e-20
-3.5540257e-20
7.1626304e-20
3.6087783e-20
-1.2111932e-31
-3.6642035e-20
-7.3843362e-20
1.1160932e-19
-1.0654269e-35
-3.7771479e-20
5.4084189e-36
-3.8346986e-20
-3.8637336e-20
4.3217609e-32
1.1767018e-19
-1.1232032e-35
-1.1945065e-19
-8.0232848e-20
2.2423465e-32
8.1442043e-20
4.1026099e-20
-4.1333069e-20
8.3283923e-20
4.1952793e-20
-1.4075159e-31
-4.2580282e-20
-8.5793916e-20
1.2964685e-19
-4.8344264e-32
-4.3858966e-20
-4.4183678e-20
-4.4510437e-20
-2.4876456e-32
2.5066471e-32
9.1006496e-20
2.5437313e-32
-9.2351675e-20
9.3030791e-20
-2.3409678e-31
-1.416033e-19
9.5094644e-20
-5.3185289e-32
-9.6493459e-20
4.8599961e-20
4.895556e-20
9.8627089e-20
-4.9673955e-20
-1.5011053e-19
0
0
0
1.5454231e-19
1.5566999e-19
-1.5680578e-19
-1.5794983e-19
1.060682e-19
-1.5183196e-35
5.3811059e-20
-1.8055473e-31
-1.6379969e-19
1.6499671e-19
-2.7681335e-31
-1.1161275e-19
-3.119558e-32
3.1440248e-32
1.1408426e-19
-5.746088e-20
5.788318e-20
-1.9422906e-31
-1.7621625e-19
1.7751653e-19
5.9609474e-20
-1.3333084e-31
1.2099199e-19
-1.2189082e-19
-6.1399082e-20
-6.1857129e-20
-1.86959e-19
6.9702887e-32
6.3258632e-20
1.9120584e-19
-4.2774292e-31
-1.9411063e-19
0
6.5692707e-20
1.3239102e-19
-6.6703999e-20
6.7218338e-20
-2.2560071e-31
-1.3653042e-19
2.063943e-19
-1.539307e-31
-7.762129e-32
-7.8195663e-32
-7.881774e-32
7.1565005e-20
-2.1642111e-19
-2.1817073e-19
7.3314878e-20
1.4782908e-19
0
-7.5140114e-20
8.409091e-32
-1.6963701e-31
8.5535456e-32
7.7704351e-20
-7.8370739e-20
-7.9047951e-20
2.3920911e-19
-3.6708095e-48
-1.3515365e-31
8.1872796e-20
-9.1662672e-32
1.6672075e-19
-1.682489e-19
-1.6980535e-19
-8.5695566e-20
9.6019893e-32
8.7327429e-20
0
0
0
1.8158173e-19
-9.170176e-20
-1.8526391e-19
2.8074643e-19
-9.4553047e-20
-2.8663623e-19
2.8967996e-19
-3.2504436e-31
-1.9731783e-19
2.9923471e-19
2.0171281e-19
0
-2.0631931e-19
-3.475145e-31
-1.0557636e-19
-2.136596e-19
1.0811473e-19
0
2.2156722e-19
3.1880607e-35
1.2610484e-31
-1.1505236e-19
-3.4965327e-19
3.5427e-19
-1.9938079e-31
-3.6388276e-19
3.6888782e-19
-6.2295389e-31
-2.5287885e-19
1.2825111e-19
-1.3011394e-19
2.6405952e-19
1.3400045e-19
-6.0404678e-31
-1.3811421e-19
-2.805225e-19
-1.4247112e-19
-1.4474598e-19
2.9417614e-19
1.4949972e-19
0
-1.5454144e-19
8.726726e-32
-5.3063201e-49
1.6268827e-19
-4.7057902e-35
1.6854014e-19
-7.1806346e-48
-5.242666e-19
5.3402207e-19
5.4407872e-19
-3.6963095e-19
-3.7675682e-19
0
3.9167889e-19
-1.99745e-19
-6.1131733e-19
6.2377745e-19
-3.5343697e-31
-4.3325333e-19
2.211825e-19
0
-2.3072703e-19
-2.3572508e-19
2.4088015e-19
-4.0997452e-31
5.0336287e-19
1.4627967e-34
-7.8951606e-19
0
8.2618562e-19
5.6359178e-19
-8.6519196e-19
-5.9041138e-19
9.0668188e-19
3.0946856e-19
-1.2677442e-18
-3.2463659e-19
6.6515428e-19
6.8152992e-19
-3.8767335e-31
-3.5791221e-19
-3.6688691e-19
-3.7613945e-19
3.8567787e-19
-4.3907672e-31
8.1129153e-19
-1.385778e-30
-1.2805797e-18
0
0
9.2235462e-19
-1.0510489e-30
-4.8583111e-19
1.4961623e-18
-5.1199963e-19
-8.7522502e-31
-1.7976741e-30
-1.66284e-18
5.6922536e-19
-3.2442318e-31
6.6660597e-31
6.16781e-19
-6.3358036e-19
9.2494838e-35
-3.7116633e-31
7.6257652e-31
7.0585756e-19
0
-7.4523284e-19
1.531558e-18
7.8691704e-19
-1.6173239e-18
0
8.5403379e-19
-8.7769217e-19
-1.8040408e-18
2.781105e-18
-3.1736429e-30
-3.2611524e-30
1.0063668e-18
-3.102894e-18
1.5106177e-34
1.0924994e-18
1.1228067e-18
-1.1539438e-18
-1.18593e-18
1.2187849e-18
0
-1.2871809e-18
2.6455265e-18
-2.2639246e-30
-1.3968017e-18
-3.1872122e-30
-3.2741204e-30
-4.3069379e-34
-3.113966e-18
4.7990424e-18
4.9304578e-18
0
-3.4690267e-18
-5.3453522e-18
-2.6009543e-34
1.8799629e-18
1.9309214e-18
-1.9831602e-18
-2.0367055e-18
2.0915836e-18
0
4.4108908e-18
4.5289671e-18
-6.9748898e-18
-2.3869127e-18
2.4503601e-18
-7.1490101e-34
-2.5818642e-18
-5.2999583e-18
-2.7197086e-18
4.6485816e-30
1.1456523e-17
-9.7878247e-30
-9.0461217e-18
3.0936305e-18
3.1736854e-18
3.2555702e-18
-3.3393168e-18
-3.4249572e-18
-3.512524e-18
-1.0237642e-33
3.6935677e-18
-3.7871106e-18
1.1648135e-17
7.9608098e-18
-1.2240671e-17
4.1822023e-18
8.5727497e-18
-8.7855515e-18
4.5014395e-18
-4.6124008e-18
-9.4513891e-18
1.4524067e-17
-4.9594198e-18
1.6921343e-29
1.5608692e-17
-1.0656764e-17
-5.4564109e-18
-5.5870202e-18
-1.1440491e-17
5.8561232e-18
-5.4957125e-73
1.2271956e-17
6.2800274e-18
-7.1348051e-30
-6.5765492e-18
-1.3458188e-17
1.3769084e-17
-7.0429305e-18
-2.1612883e-17
2.2106008e-17
7.5360916e-18
8.9490261e-46
7.8802192e-18
-2.4170987e-17
-8.2369611e-18
8.4201504e-18
1.7213197e-17
-8.7963399e-18
8.9894093e-18
-3.0593039e-29
-1.8771339e-17
2.8766783e-17
1.0880228e-29
-4.4437828e-29
2.2687753e-29
-2.0873859e-17
2.1315672e-17
-1.0882369e-17
-4.4442245e-17
1.1342443e-17
2.3156089e-17
0
2.4121062e-17
-2.7326334e-29
-7.1385432e-33
-1.4224277e-29
-1.3071457e-17
-1.3333927e-17
1.3600348e-17
1.3870746e-17
-2.8290295e-17
2.8847154e-17
-1.632596e-29
-2.9985237e-17
3.0566556e-17
5.1882045e-29
-1.7625871e-29
-1.6180084e-17
-3.2974734e-17
1.6798858e-17
-1.7114576e-17
9.6774944e-30
1.7758767e-17
3.617455e-17
-1.842008e-17
-3.7514395e-17
1.9098642e-17
-1.9444429e-17
3.2968096e-29
-2.0149076e-17
-4.5545564e-29
4.1742468e-17
4.2477811e-17
4.797681e-29
-7.3234569e-29
7.4503296e-29
-2.2753732e-17
-2.3143507e-17
-2.3537718e-17
2.3936368e-17
0
0
-2.5158979e-17
1.4196291e-29
3.6942917e-33
2.9331958e-29
2.6851308e-17
0
-2.7724071e-17
-5.6334165e-17
2.8614504e-17
5.8132656e-17
5.9045087e-17
5.9966281e-17
-9.134432e-17
-1.0296914e-28
9.4173288e-17
-6.373818e-17
-6.4702793e-17
0
-3.3328876e-17
6.7648027e-17
3.4323389e-17
-6.9653966e-17
-3.5334773e-17
3.9795324e-29
1.0908854e-16
-3.6883081e-17
-1.1222224e-16
1.1380745e-16
3.8468263e-17
-1.1701417e-16
4.3895528e-29
4.0089568e-17
8.1275777e-17
4.5715561e-29
-8.3492326e-17
8.4612098e-17
-4.2869721e-17
-1.3031143e-16
0
4.4583084e-17
9.0323053e-17
-2.5404155e-29
4.6329156e-17
9.3836524e-17
-9.5021677e-17
-9.6213688e-17
0
-4.9308964e-17
-5.5413221e-29
-5.6096785e-29
-5.6769542e-29
1.5525707e-16
1.0474218e-16
0
-1.0723535e-16
-1.2042593e-28
-5.4876092e-17
-1.6652882e-16
5.6145928e-17
-3.1511919e-29
8.1608343e-33
5.8071178e-17
1.1743636e-16
-5.9367719e-17
-1.2003948e-16
6.0674182e-17
0
1.2398024e-16
-6.2651504e-17
-1.8994525e-16
6.3980807e-17
6.4648613e-17
1.3063689e-16
-6.5990244e-17
-1.9999186e-16
6.7339511e-17
-7.5499384e-29
-1.3739188e-16
6.9376688e-17
7.0059049e-17
1.4148593e-16
2.142851e-16
-1.4423041e-16
-1.4560683e-16
1.4698587e-16
8.23341e-29
-1.4975132e-16
1.511375e-16
8.4663415e-29
-1.5391614e-16
0
1.5670237e-16
1.5809803e-16
0
-2.4134072e-16
-8.1146852e-17
-2.3262426e-32
-8.2548444e-17
-8.3249971e-17
-9.3175512e-29
1.6930837e-16
1.7071352e-16
-2.8661756e-28
-1.7352506e-16
1.7493123e-16
2.9364216e-28
-1.777438e-16
0
0
0
0
1.8477112e-16
1.0336772e-28
-1.8757805e-16
-9.4490106e-17
1.9038136e-16
-3.1941424e-28
-1.9318019e-16
1.9457765e-16
1.0880813e-28
-9.8684073e-17
1.9876097e-16
-3.3335568e-28
-2.0154127e-16
2.0292854e-16
2.0431375e-16
-2.0569681e-16
-2.0707762e-16
0
0
0
0
-1.0697228e-16
1.0765494e-16
1.0833615e-16
-1.2102417e-28
-3.1004988e-72
-1.1037062e-16
-2.2209117e-16
-1.1171888e-16
2.2478094e-16
3.3918092e-16
-1.1372836e-16
-2.2878916e-16
3.451768e-16
2.3144276e-16
-3.4914565e-16
-2.3408081e-16
-1.1769691e-16
-1.31388e-28
2.3800747e-16
0
-1.2030207e-16
1.2094797e-16
-2.6997042e-28
-3.474073e-32
-4.0918558e-28
-1.2350904e-16
-1.2414353e-16
3.5463369e-32
2.5081069e-16
2.5206525e-16
-4.2179103e-28
-2.5455955e-16
0
0
0
-1.2974377e-16
-1.3035331e-16
1.3096022e-16
1.3156448e-16
-1.3216607e-16
2.6552992e-16
4.0008341e-16
0
-2.6909056e-16
-1.4997999e-28
-1.3571834e-16
-4.0890203e-16
1.3688019e-16
-2.2889702e-28
2.760614e-16
-9.2329226e-28
-2.7833951e-16
-7.7563515e-29
-1.9937438e-32
1.4085662e-16
-1.4141308e-16
2.839332e-16
1.4251718e-16
-2.861296e-16
2.8721892e-16
4.0970222e-32
-1.6066887e-28
-1.452256e-16
-4.3727505e-16
2.9257621e-16
-5.1913739e-47
1.4733862e-16
-2.4626158e-28
-2.9675424e-16
1.4889186e-16
2.9880719e-16
-1.6638285e-28
-4.5125413e-16
4.2894259e-32
1.5142047e-16
-1.5191718e-16
3.0482178e-16
1.5290161e-16
-3.0677869e-16
3.0774819e-16
1.713146e-28
-8.5949409e-28
3.448807e-28
-3.1156683e-16
3.1250674e-16
-1.5672039e-16
-3.1436899e-16
1.5764568e-16
-1.5810398e-16
3.1711879e-16
-2.6483634e-28
-4.7838497e-16
0
0
4.8238148e-16
1.612323e-16
-3.2333603e-16
3.2420199e-16
9.2388329e-32
-7.2363635e-28
-1.8138081e-28
-3.2761207e-16
3.2845138e-16
3.2928553e-16
-1.6505729e-16
-4.9640785e-16
-1.6587879e-16
1.6628584e-16
0
0
-1.6749259e-16
9.3191798e-29
5.048564e-16
4.7941325e-32
-3.3813887e-16
-1.6945819e-16
1.8850532e-28
5.106884e-16
3.7881069e-28
-3.4198554e-16
0
-1.7174854e-16
3.4424747e-16
1.7249723e-16
-3.8387102e-28
-1.7323934e-16
-3.4721618e-16
1.7397539e-16
0
0
0
0
-1.7579292e-16
9.7778407e-29
5.2953776e-16
-1.768712e-16
-5.3168736e-16
5.3275937e-16
1.7794331e-16
-3.5659958e-16
-1.7865601e-16
-2.9807047e-28
5.381043e-16
-1.0216139e-31
-5.9980153e-28
-1.8043724e-16
-3.6158884e-16
-1.8115223e-16
-2.0145299e-28
1.8187032e-16
1.822309e-16
1.8259274e-16
1.8295599e-16
-4.0702795e-28
-3.6737487e-16
0
0
-1.8479978e-16
-3.0833295e-28
-2.6368781e-32
2.642298e-32
1.863198e-16
3.7341577e-16
3.7419936e-16
-3.7499087e-16
-2.0869928e-28
-1.8829994e-16
-5.661267e-16
0
0
1.899659e-16
1.9039641e-16
0
-1.9127674e-16
1.064232e-28
1.921852e-16
-1.9265091e-16
3.8624962e-16
-6.448006e-28
-5.8229647e-16
1.945998e-16
1.951107e-16
3.9126398e-16
-1.9616416e-16
-5.9012314e-16
1.9726318e-16
-1.098394e-28
3.9682401e-16
1.9900651e-16
-3.992304e-16
4.0047738e-16
-1.0360507e-45
-4.0306531e-16
0
0
4.0720265e-16
-2.2660266e-28
-6.8310684e-28
-1.2390269e-45
-6.1988748e-16
-2.30319e-28
2.0827326e-16
4.1826187e-16
4.2002723e-16
-4.2184456e-16
-4.70389e-28
-2.1282162e-16
-7.1222102e-28
2.1483742e-16
-4.3178358e-16
0
-2.1809935e-16
2.4334408e-28
2.2044699e-16
4.4335317e-16
2.4743967e-28
-4.4850841e-16
0
0
-2.2843852e-16
1.276254e-28
6.9437397e-16
2.5871159e-28
-4.6935347e-16
0
2.3810875e-16
-2.3990931e-16
-2.4176879e-16
-2.4368916e-16
-2.4567243e-16
4.9544135e-16
7.4950805e-16
-2.5202063e-16
-5.0855348e-16
7.6981988e-16
-9.5780926e-46
-5.2299417e-16
0
0
0
0
5.50367e-16
5.5638331e-16
-2.8129634e-16
-8.5350097e-16
-3.1967245e-28
2.9121744e-16
-5.8947262e-16
-5.9673186e-16
3.0210926e-16
1.2238771e-15
6.1989792e-16
-9.421541e-16
-6.3655906e-16
9.6790952e-16
7.2622474e-28
-6.6349829e-16
0
0
0
7.033096e-16
3.9632317e-28
-8.0495396e-28
3.6814717e-16
-1.1217351e-15
3.6104087e-16
3.4962089e-16
-1.0933063e-15
-7.6616998e-16
3.934708e-16
8.0530965e-16
8.2263421e-16
-1.3963952e-27
4.7467695e-28
-1.2380435e-31
-8.8725958e-16
0
-4.6040926e-16
-4.6886513e-16
4.7746641e-16
4.863078e-16
-4.953095e-16
-5.0444636e-16
1.0274985e-15
5.2323854e-16
-5.3288443e-16
5.4269649e-16
-5.5265718e-16
-1.1256314e-15
0
0
1.7826551e-15
6.0500729e-16
-1.2318512e-15
-6.2697976e-16
-6.3816239e-16
1.298972e-15
-7.3412213e-28
-1.3449714e-15
0
6.9587466e-16
2.1231029e-15
1.5975041e-27
-4.0609885e-27
1.4870745e-15