/*--------------------------------*- C++ -*----------------------------------*\
  =========                 |
  \\      /  F ield         | OpenFOAM: The Open Source CFD Toolbox
   \\    /   O peration     | Website:  https://openfoam.org
    \\  /    A nd           | Version:  7
     \\/     M anipulation  |
\*---------------------------------------------------------------------------*/
FoamFile
{
    version     2.0;
    format      ascii;
    class       volVectorField;
    location    "0.00078";
    object      U;
}
// * * * * * * * * * * * * * * * * * * * * * * * * * * * * * * * * * * * * * //

dimensions      [0 1 -1 0 0 0 0];

internalField   nonuniform List<vector> 
5000
(
(2.1638046e-12 6.7552933e-29 0)
(1.7141424e-12 3.039882e-28 0)
(1.6308591e-12 0 0)
(1.5332734e-12 0 0)
(1.515825e-12 -1.013294e-28 0)
(2.2407757e-12 -3.4559457e-43 3.039882e-28)
(1.8728358e-12 -3.039882e-28 6.4798982e-43)
(1.8255387e-12 0 4.6185374e-42)
(2.1210258e-12 0 3.2073177e-43)
(2.3613736e-12 1.2187807e-42 2.4375614e-42)
(2.4729084e-12 -1.013294e-28 -1.013294e-28)
(2.4056359e-12 -1.013294e-28 -1.013294e-28)
(2.3947023e-12 -1.519941e-28 1.2959796e-42)
(2.3746454e-12 1.7960979e-42 1.5824933e-56)
(2.4970881e-12 0 3.039882e-28)
(2.2315346e-12 -4.053176e-28 -8.106352e-28)
(2.1639337e-12 1.5612266e-55 7.806133e-56)
(1.6701423e-12 3.039882e-28 -2.6783579e-42)
(2.1569312e-12 0 5.06647e-29)
(2.3159281e-12 1.013294e-28 2.026588e-28)
(2.3399771e-12 1.013294e-28 -1.013294e-28)
(2.8752928e-12 4.053176e-28 0)
(2.807642e-12 -5.06647e-28 0)
(2.3294991e-12 -2.533235e-28 -2.533235e-28)
(2.5478267e-12 -4.559823e-28 3.8879389e-42)
(2.9639934e-12 -3.3407475e-42 -3.3407475e-42)
(2.5545181e-12 3.546529e-28 -3.546529e-28)
(2.5668751e-12 -1.013294e-28 -1.013294e-28)
(2.8352925e-12 1.013294e-28 -5.06647e-29)
(2.6390076e-12 8.783862e-43 -5.06647e-29)
(2.6386182e-12 8.8558609e-42 -8.8558609e-42)
(2.5383346e-12 -6.079764e-28 5.1839185e-42)
(2.6391183e-12 -1.013294e-27 5.06647e-28)
(2.5002492e-12 4.053176e-28 -2.026588e-28)
(2.0501847e-12 -2.6351586e-42 -1.519941e-28)
(2.197805e-12 3.5250646e-41 0)
(1.8143991e-12 3.5135448e-42 0)
(1.5449655e-12 -2.026588e-28 1.013294e-28)
(1.8511177e-12 5.06647e-28 2.533235e-28)
(1.8230379e-12 3.039882e-28 -1.519941e-28)
(1.597105e-12 -1.013294e-28 8.4958665e-43)
(1.6966658e-12 -3.4847452e-42 -5.06647e-29)
(1.8848057e-12 1.013294e-28 -5.06647e-29)
(1.7537286e-12 -2.026588e-28 3.4271462e-42)
(1.6450679e-12 -4.559823e-28 1.519941e-28)
(1.5246857e-12 -2.026588e-28 2.026588e-28)
(1.3295637e-12 -3.039882e-28 -1.0454236e-41)
(1.502692e-12 -2.0822073e-41 1.0411036e-41)
(1.6699177e-12 -8.106352e-28 -1.3938981e-41)
(1.9332045e-12 0 -3.4559457e-42)
(2.0512945e-12 -4.053176e-28 -4.053176e-28)
(1.5756122e-12 7.1998869e-45 0)
(1.7717024e-12 -2.026588e-28 0)
(1.7430145e-12 3.039882e-28 0)
(1.7223736e-12 -1.0627033e-41 0)
(1.8522941e-12 -5.06647e-28 0)
(1.6962468e-12 3.039882e-28 0)
(1.7951638e-12 -8.7478626e-42 0)
(1.6568827e-12 1.013294e-28 0)
(1.5473057e-12 0 0)
(1.6262362e-12 -1.013294e-28 0)
(1.9773875e-12 -3.4559457e-42 0)
(1.7745539e-12 -8.6398642e-44 0)
(1.9248047e-12 -1.013294e-28 1.013294e-28)
(2.0036305e-12 -5.06647e-29 -5.06647e-29)
(2.0241238e-12 1.7711722e-42 5.06647e-29)
(2.2059079e-12 3.546529e-28 -6.0983042e-42)
(1.710078e-12 -4.053176e-28 -1.9515332e-56)
(1.8715952e-12 -2.026588e-28 2.026588e-28)
(1.99838e-12 2.026588e-28 0)
(1.7747371e-12 1.013294e-28 0)
(1.8031502e-12 -1.013294e-28 -1.013294e-28)
(1.3220915e-12 -4.559823e-28 -4.559823e-28)
(1.6435141e-12 5.06647e-28 0)
(1.7487985e-12 1.013294e-28 1.013294e-28)
(2.0211976e-12 1.013294e-28 -3.499145e-42)
(2.0332077e-12 0 5.06647e-28)
(2.0322235e-12 -2.026588e-28 2.026588e-28)
(2.0831994e-12 1.4399774e-44 -1.013294e-28)
(1.7751364e-12 5.06647e-29 -1.013294e-28)
(1.7357473e-12 1.2662528e-41 -2.5325056e-41)
(2.0114535e-12 8.6398642e-44 -1.7279728e-43)
(2.2953759e-12 -1.8719706e-43 -1.9759233e-27)
(1.7114306e-12 -4.559823e-28 9.119646e-28)
(1.8111068e-12 -3.039882e-28 3.1621903e-41)
(1.9009974e-12 -1.7639723e-41 -1.013294e-27)
(2.156923e-12 3.546529e-28 1.0639587e-27)
(1.9101228e-12 0 -5.4214066e-42)
(1.4210506e-12 -3.039882e-28 3.039882e-28)
(2.0350437e-12 -4.2047339e-41 -4.053176e-28)
(2.0422553e-12 -1.594055e-41 4.559823e-28)
(2.130892e-12 2.533235e-28 2.533235e-28)
(2.717419e-12 5.06647e-29 1.7639723e-42)
(2.7121481e-12 -2.026588e-28 -2.026588e-28)
(3.1600773e-12 7.0126898e-42 7.0126898e-42)
(2.9624633e-12 -2.026588e-28 2.026588e-28)
(2.5156671e-12 0 -1.013294e-28)
(2.6176514e-12 0 -8.8918603e-42)
(2.6497255e-12 -3.039882e-28 2.1167667e-41)
(2.6168175e-12 -3.5135448e-42 1.013294e-28)
(2.5035441e-12 8.5381788e-42 4.2454968e-42)
(2.0618333e-12 -3.546529e-28 -3.546529e-28)
(2.4033524e-12 -7.093058e-28 5.0399208e-44)
(2.3881443e-12 0 3.546529e-28)
(1.9421994e-12 4.559823e-28 0)
(1.873554e-12 1.519941e-28 -1.519941e-28)
(2.2270706e-12 5.06647e-29 1.7639723e-42)
(2.5082364e-12 -1.013294e-28 1.013294e-28)
(2.8446091e-12 0 -1.013294e-28)
(2.7111899e-12 0 -2.533235e-28)
(2.5975314e-12 3.546529e-28 7.093058e-28)
(2.9028708e-12 5.06647e-29 5.06647e-29)
(2.607195e-12 0 1.2159528e-27)
(2.8280678e-12 5.573117e-28 5.573117e-28)
(3.011852e-12 -1.0627033e-41 -9.119646e-28)
(2.9526251e-12 -1.013294e-28 1.013294e-28)
(2.8999959e-12 2.533235e-28 2.533235e-28)
(2.90289e-12 -8.6398642e-44 1.7279728e-43)
(2.3337593e-12 -1.7711722e-42 -5.06647e-29)
(2.4228061e-12 1.9515332e-56 1.519941e-27)
(2.2506928e-12 8.106352e-28 -2.8338755e-41)
(2.2995117e-12 2.1599661e-44 1.013294e-28)
(2.5570075e-12 5.573117e-28 -1.1146234e-27)
(2.2327904e-12 0 -6.586411e-28)
(2.055453e-12 4.559823e-28 4.559823e-28)
(2.6728391e-12 -3.546529e-28 -3.546529e-28)
(2.2999108e-12 -2.026588e-28 2.026588e-28)
(2.2152065e-12 3.039882e-28 3.039882e-28)
(2.5588949e-12 -5.06647e-29 5.06647e-29)
(2.8451374e-12 -3.039882e-28 -5.2487175e-42)
(2.5650763e-12 -5.06647e-29 -5.06647e-29)
(3.0714668e-12 1.013294e-28 -2.026588e-28)
(3.3054988e-12 1.519941e-28 1.519941e-28)
(2.7808744e-12 -3.039882e-28 -3.039882e-28)
(3.163377e-12 0 -5.5593506e-43)
(3.4160907e-12 -3.039882e-28 1.0583834e-41)
(3.4853693e-12 -3.546529e-28 1.2297407e-41)
(3.3502475e-12 4.559823e-28 -1.5875751e-41)
(3.2863973e-12 1.9324496e-41 -1.1146234e-27)
(3.1827113e-12 -5.06647e-28 -5.06647e-28)
(3.4098359e-12 2.533235e-28 2.533235e-28)
(3.0973143e-12 5.06647e-29 1.013294e-28)
(2.897265e-12 0 -2.026588e-28)
(2.9763948e-12 3.546529e-28 -3.546529e-28)
(3.3142066e-12 1.013294e-28 7.0270896e-42)
(3.1714594e-12 1.519941e-28 -3.039882e-28)
(3.10378e-12 -3.546529e-28 1.0079842e-43)
(3.160824e-12 3.4559457e-43 -1.7279728e-43)
(2.8928989e-12 3.039882e-28 -3.5127598e-55)
(2.5291285e-12 2.026588e-28 2.026588e-28)
(2.5740835e-12 -3.546529e-28 -2.4594814e-41)
(2.8273821e-12 -1.4111778e-41 -2.8223557e-41)
(3.0329294e-12 -3.039882e-28 -3.039882e-28)
(3.2884132e-12 1.519941e-28 1.519941e-28)
(3.152406e-12 -5.573117e-28 -5.573117e-28)
(2.6679695e-12 -3.039882e-28 -1.0540634e-41)
(2.5722556e-12 1.519941e-28 1.519941e-28)
(2.3379705e-12 0 1.519941e-28)
(2.7433563e-12 0 7.1998869e-45)
(3.0956528e-12 5.06647e-28 5.06647e-28)
(2.9238076e-12 2.026588e-28 0)
(2.791738e-12 2.026588e-28 2.026588e-28)
(2.6271446e-12 2.533235e-28 1.7531725e-41)
(3.2698175e-12 1.0370327e-42 2.0740654e-42)
(3.1006669e-12 -1.1862623e-55 1.7105694e-42)
(2.9465908e-12 -5.06647e-29 1.4399774e-44)
(2.8816331e-12 5.06647e-29 5.06647e-29)
(2.8627871e-12 -2.026588e-28 2.026588e-28)
(2.9663957e-12 0 -4.053176e-28)
(2.4721133e-12 5.06647e-28 5.06647e-28)
(2.7214978e-12 4.559823e-28 -1.8999061e-40)
(3.1682909e-12 0 2.8108358e-41)
(3.3563444e-12 -1.5290803e-41 1.5290803e-41)
(2.741112e-12 -4.559823e-28 -9.119646e-28)
(2.989422e-12 0 0)
(3.1553457e-12 5.2440796e-42 -3.8385483e-55)
(3.5925587e-12 2.1081269e-41 -2.1081269e-41)
(3.6054844e-12 -4.559823e-28 4.559823e-28)
(3.2524209e-12 4.559823e-28 4.559823e-28)
(3.9679956e-12 -4.559823e-28 -3.1427506e-41)
(4.0475626e-12 8.612999e-28 8.612999e-28)
(3.36876e-12 2.799316e-41 -4.053176e-28)
(3.1187146e-12 1.7423726e-41 1.7423726e-41)
(3.1261135e-12 1.2959796e-43 1.2959796e-43)
(3.5688664e-12 -1.013294e-28 -1.4039779e-41)
(3.4836094e-12 2.026588e-28 4.053176e-28)
(3.2269695e-12 -2.1081269e-41 1.519941e-28)
(3.5182241e-12 3.4847452e-42 5.06647e-29)
(3.2519114e-12 6.9694905e-42 6.9694905e-42)
(3.7003038e-12 -1.013294e-28 -6.9838903e-42)
(3.8373663e-12 0 6.3200607e-41)
(3.6900838e-12 0 -8.4366619e-55)
(3.4337181e-12 -3.039882e-28 -3.039882e-28)
(3.2911075e-12 -2.533235e-28 0)
(3.3494373e-12 0 0)
(3.1999487e-12 0 0)
(3.3951266e-12 1.013294e-28 0)
(3.7171427e-12 1.4636499e-56 5.06647e-29)
(3.8568515e-12 1.013294e-28 -2.1124468e-41)
(3.549075e-12 0 1.519941e-28)
(3.4387147e-12 4.053176e-28 4.053176e-28)
(2.9901368e-12 -6.586411e-28 -6.586411e-28)
(2.7385945e-12 -1.8251713e-40 -6.586411e-28)
(3.1396271e-12 5.06647e-28 5.06647e-28)
(3.5551227e-12 4.053176e-28 -2.8050759e-41)
(3.8654854e-12 1.2622842e-40 1.2622842e-40)
(3.3920619e-12 4.3199321e-44 3.039882e-28)
(3.5299941e-12 4.559823e-28 4.559823e-28)
(3.3919906e-12 -7.599705e-28 -7.599705e-28)
(2.7410172e-12 1.079983e-43 0)
(2.6982256e-12 9.1164968e-41 -6.586411e-28)
(2.800975e-12 -1.7531725e-41 -1.7531725e-41)
(3.0355158e-12 -1.013294e-28 -1.013294e-28)
(2.7381278e-12 0 -1.4272126e-41)
(2.7848315e-12 2.533235e-28 3.5279446e-41)
(3.1154425e-12 4.2076139e-41 6.079764e-28)
(2.9965874e-12 2.1092069e-40 -1.519941e-27)
(2.8461516e-12 7.093058e-28 7.093058e-28)
(3.28305e-12 0 5.06647e-29)
(3.0198789e-12 1.013294e-28 1.013294e-28)
(2.884938e-12 -2.533235e-28 2.533235e-28)
(2.5669959e-12 0 0)
(2.4139758e-12 0 0)
(2.1961347e-12 0 0)
(2.4944457e-12 1.013294e-28 1.013294e-28)
(2.287644e-12 3.8569794e-41 -5.573117e-28)
(1.7736473e-12 -1.013294e-27 -2.026588e-27)
(2.1380476e-12 0 6.586411e-28)
(1.9212149e-12 0 3.5207447e-42)
(2.3824939e-12 -7.599705e-28 -7.599705e-28)
(2.4177151e-12 -8.106352e-28 -8.106352e-28)
(2.5652391e-12 3.546529e-28 7.093058e-28)
(2.4198566e-12 -1.013294e-28 2.8799547e-44)
(2.5486285e-12 0 1.4399774e-44)
(2.8321388e-12 -3.039882e-28 -3.039882e-28)
(2.6661555e-12 -1.013294e-28 -1.013294e-28)
(2.9467854e-12 5.06647e-29 1.013294e-28)
(2.600948e-12 -3.039882e-28 4.3199321e-44)
(2.628895e-12 0 -7.3885239e-41)
(2.7288924e-12 5.9538145e-42 5.9479164e-42)
(2.5826216e-12 -2.8137158e-41 -5.6274316e-41)
(2.9304932e-12 -1.8486907e-54 -3.0053823e-54)
(3.1929565e-12 -5.06647e-29 -5.06647e-29)
(3.1739633e-12 -1.013294e-28 -1.013294e-28)
(2.8862737e-12 2.533235e-28 0)
(3.1322966e-12 0 5.573117e-28)
(2.7856035e-12 -3.546529e-28 -3.546529e-28)
(2.771789e-12 7.0414894e-42 -5.06647e-29)
(2.875991e-12 -1.519941e-28 1.519941e-28)
(2.8090289e-12 -4.2162538e-41 0)
(2.6972699e-12 -1.7238322e-42 -8.3832353e-43)
(2.2279696e-12 -1.013294e-28 -1.013294e-28)
(2.0261145e-12 6.3243806e-41 -4.559823e-28)
(1.8363519e-12 1.5830391e-40 1.5830391e-40)
(1.7969741e-12 1.402538e-41 4.053176e-28)
(2.0554007e-12 -1.013294e-28 -2.026588e-28)
(1.9908062e-12 -5.06647e-29 -1.519941e-28)
(2.2505842e-12 -1.519941e-28 -3.039882e-28)
(1.8682344e-12 0 0)
(1.8425305e-12 -1.519941e-28 -3.039882e-28)
(2.0362969e-12 -3.039882e-28 -3.039882e-28)
(1.8374863e-12 0 3.039882e-28)
(1.8789247e-12 3.546529e-28 3.546529e-28)
(1.8943631e-12 4.053176e-28 4.053176e-28)
(2.0099827e-12 -8.106352e-28 -8.106352e-28)
(1.8451679e-12 -2.533235e-28 -5.06647e-28)
(2.4087203e-12 -2.533235e-28 -2.533235e-28)
(2.6064237e-12 -6.079764e-28 -1.2159528e-27)
(2.6258816e-12 -1.6865015e-40 -1.6865015e-40)
(1.8665318e-12 5.06647e-29 1.013294e-28)
(2.0819263e-12 2.533235e-28 2.533235e-28)
(2.6118202e-12 7.0270896e-42 1.4054179e-41)
(2.7634991e-12 3.546529e-28 3.546529e-28)
(2.8354625e-12 -3.039882e-28 -6.079764e-28)
(2.7465549e-12 1.0562234e-41 1.519941e-28)
(2.9067696e-12 -1.7639723e-41 -3.5279446e-41)
(2.4932253e-12 2.8799547e-44 -1.013294e-28)
(2.7639928e-12 -6.99829e-42 -1.013294e-28)
(2.6224499e-12 2.026588e-28 2.026588e-28)
(2.6203163e-12 0 -6.079764e-28)
(2.6860098e-12 0 4.2277736e-41)
(2.088111e-12 -1.013294e-28 2.026588e-28)
(2.3924529e-12 -3.546529e-28 -7.093058e-28)
(2.3019348e-12 0 -2.4544414e-41)
(2.4827424e-12 0 1.519941e-28)
(2.5048807e-12 0 0)
(2.1847419e-12 0 0)
(2.5834157e-12 -5.06647e-29 -5.06647e-29)
(2.5648417e-12 -1.3967781e-41 2.026588e-28)
(2.5385943e-12 7.093058e-28 7.093058e-28)
(2.5339732e-12 -2.1599661e-43 -5.06647e-28)
(2.7859881e-12 -8.106352e-28 2.3039638e-43)
(2.5514818e-12 -6.586411e-28 -6.586411e-28)
(2.6101854e-12 6.3308605e-41 -4.559823e-28)
(2.3126818e-12 7.0198897e-42 5.06647e-29)
(2.386428e-12 -3.5999434e-44 0)
(2.5932114e-12 1.519941e-28 1.519941e-28)
(2.6824055e-12 -1.013294e-28 -1.013294e-28)
(2.8483865e-12 5.275303e-41 0)
(2.8189798e-12 -1.013294e-28 -1.013294e-28)
(3.1935314e-12 6.5887476e-41 2.1970356e-41)
(3.3541455e-12 1.6368241e-41 3.2736483e-41)
(3.2250657e-12 -1.2159528e-27 4.2076139e-41)
(3.4817057e-12 0 -5.7599095e-44)
(3.5539023e-12 -2.533235e-28 -2.533235e-28)
(3.2374838e-12 1.013294e-28 1.013294e-28)
(3.0453742e-12 -2.533235e-28 -2.533235e-28)
(2.7380458e-12 2.8799547e-44 1.013294e-28)
(2.4436911e-12 -8.6398642e-44 -2.026588e-28)
(2.6263765e-12 8.6398642e-44 1.7279728e-43)
(2.4549003e-12 4.053176e-28 8.106352e-28)
(2.1525557e-12 3.546529e-28 -3.546529e-28)
(2.5509896e-12 2.533235e-28 2.533235e-28)
(2.6998188e-12 5.06647e-28 2.533235e-28)
(2.303201e-12 -5.06647e-29 7.0270896e-42)
(2.0873765e-12 -2.4394166e-56 5.06647e-29)
(2.0415322e-12 5.06647e-29 0)
(2.2015015e-12 4.2119338e-41 0)
(2.3366766e-12 -8.106352e-28 -4.053176e-28)
(2.3739174e-12 0 2.1102868e-41)
(2.2674236e-12 0 -5.6245516e-41)
(2.0785726e-12 1.013294e-27 -7.0414894e-41)
(2.5206808e-12 -1.9696011e-40 3.546529e-28)
(2.3875423e-12 -1.013294e-28 -5.06647e-29)
(2.5225213e-12 0 -1.4399774e-44)
(2.3854303e-12 5.06647e-29 5.06647e-29)
(2.6521887e-12 2.533235e-28 0)
(1.9689516e-12 -3.546529e-28 0)
(1.9886863e-12 7.9198756e-44 0)
(2.5621937e-12 -3.5171447e-41 0)
(2.5946029e-12 5.0399208e-44 0)
(2.3247365e-12 1.0639587e-27 0)
(2.2533177e-12 -7.599705e-28 0)
(2.5696025e-12 1.519941e-28 1.519941e-28)
(2.7236764e-12 0 0)
(2.4230788e-12 1.519941e-28 1.519941e-28)
(2.3935641e-12 6.3308605e-41 0)
(2.7806387e-12 5.06647e-28 5.06647e-28)
(2.7263527e-12 1.013294e-28 -1.4054179e-41)
(2.6739089e-12 -5.6216717e-41 2.026588e-28)
(2.6298835e-12 -1.2084443e-41 0)
(2.9337812e-12 7.0342895e-41 0)
(2.5305047e-12 3.039882e-28 1.519941e-28)
(2.4387411e-12 7.093058e-28 -4.9240026e-41)
(2.2913451e-12 7.093058e-28 7.093058e-28)
(2.486044e-12 -3.039882e-28 0)
(2.699781e-12 -2.8799547e-44 0)
(2.5911793e-12 -3.546529e-28 -3.546529e-28)
(2.9572444e-12 0 -2.026588e-28)
(2.674677e-12 0 2.026588e-28)
(2.3337176e-12 1.013294e-28 1.013294e-28)
(2.8781835e-12 4.2162538e-41 0)
(3.0174021e-12 1.013294e-27 5.06647e-28)
(2.768683e-12 -7.1998869e-44 -7.1998869e-44)
(2.7960578e-12 -1.9759233e-27 -6.586411e-28)
(2.5489546e-12 5.06647e-29 5.06647e-29)
(2.5048632e-12 -1.519941e-28 -1.519941e-28)
(3.0133181e-12 -6.079764e-28 -3.039882e-28)
(2.6762326e-12 2.026588e-28 -2.026588e-28)
(2.6629748e-12 -4.053176e-28 0)
(2.3523515e-12 -7.093058e-28 3.546529e-28)
(2.2036391e-12 -1.519941e-28 -1.519941e-28)
(2.2580306e-12 -2.026588e-28 2.026588e-28)
(2.4693408e-12 -4.559823e-28 4.559823e-28)
(2.5895444e-12 3.039882e-28 0)
(2.4659335e-12 -4.8788331e-56 -1.519941e-28)
(3.1864957e-12 -2.533235e-28 -2.533235e-28)
(3.1245117e-12 -2.026588e-28 -2.026588e-28)
(2.9609895e-12 2.533235e-28 -2.533235e-28)
(3.1351914e-12 -4.559823e-28 0)
(3.1365027e-12 -2.5271603e-40 0)
(2.9040044e-12 -1.7279728e-43 0)
(2.7935077e-12 -3.039882e-28 0)
(2.7982643e-12 9.119646e-28 0)
(2.617033e-12 -5.573117e-28 0)
(2.566763e-12 -1.4068579e-40 0)
(2.9514261e-12 8.4325075e-41 0)
(2.8524773e-12 1.519941e-28 1.519941e-28)
(2.975542e-12 3.039882e-28 7.806133e-56)
(2.8011712e-12 -3.039882e-28 -1.013294e-28)
(2.6530787e-12 -4.2162538e-41 0)
(2.5929689e-12 1.1243343e-40 0)
(2.3674799e-12 -1.4039779e-41 0)
(2.4644952e-12 -2.026588e-28 -1.013294e-28)
(2.7314692e-12 -1.013294e-28 7.0270896e-42)
(2.842282e-12 5.6216717e-41 -2.026588e-28)
(2.2143917e-12 1.013294e-28 5.06647e-29)
(2.426032e-12 0 1.4068579e-41)
(2.385049e-12 0 -2.1599661e-44)
(2.1357156e-12 1.013294e-28 -1.4068579e-41)
(2.3455921e-12 2.6148273e-68 -1.8692942e-55)
(2.2399329e-12 -1.013294e-28 -1.013294e-28)
(2.1304435e-12 -3.546529e-28 3.546529e-28)
(2.2775965e-12 3.546529e-28 -1.970609e-40)
(2.3587064e-12 -3.039882e-28 1.013294e-28)
(2.3433282e-12 3.546529e-28 -3.546529e-28)
(2.4301493e-12 1.519941e-28 0)
(2.7493454e-12 2.8799547e-44 0)
(2.5911141e-12 -3.039882e-28 -3.039882e-28)
(2.5560196e-12 0 -5.6274316e-41)
(2.6624071e-12 -5.06647e-28 -2.533235e-28)
(2.5196252e-12 -1.013294e-28 5.06647e-29)
(2.1990366e-12 -5.06647e-28 -5.06647e-28)
(2.1285098e-12 -6.079764e-28 0)
(2.3381541e-12 -5.06647e-29 5.06647e-29)
(2.6166011e-12 1.013294e-28 5.06647e-29)
(3.0479027e-12 -5.06647e-28 2.533235e-28)
(2.6621361e-12 9.119646e-28 1.2655241e-40)
(2.500609e-12 -1.013294e-28 -1.7563799e-55)
(2.8692691e-12 0 -2.8137158e-41)
(3.3272062e-12 -2.026588e-28 -1.013294e-28)
(3.7013018e-12 5.06647e-29 5.06647e-29)
(2.9714904e-12 -4.053176e-28 3.1224532e-55)
(3.1664613e-12 1.519941e-28 -2.1102868e-41)
(3.4060392e-12 5.8118109e-42 -5.8177091e-42)
(3.5924975e-12 -3.5999434e-44 0)
(3.107584e-12 3.5171447e-41 0)
(2.9448408e-12 -1.013294e-28 -1.013294e-28)
(3.4486703e-12 2.026588e-28 -2.8799547e-44)
(3.3908891e-12 1.519941e-28 6.3243806e-41)
(3.2952884e-12 -5.06647e-28 -5.06647e-28)
(3.0746331e-12 8.4325075e-41 0)
(3.176372e-12 5.7599095e-44 0)
(3.2976683e-12 3.5135448e-41 2.533235e-28)
(3.1047144e-12 1.013294e-28 -2.8093959e-41)
(3.1070909e-12 1.519941e-28 1.519941e-28)
(3.0197797e-12 3.5273622e-53 0)
(2.7223512e-12 6.3308605e-41 0)
(3.0823489e-12 1.4061379e-40 0)
(2.8911242e-12 2.533235e-28 2.533235e-28)
(2.588145e-12 1.519941e-28 2.1599661e-44)
(2.232574e-12 -5.6274316e-41 4.053176e-28)
(2.5297967e-12 -1.9134909e-53 -6.8800326e-41)
(2.595021e-12 4.3199321e-44 -3.039882e-28)
(2.2420099e-12 -2.8004534e-41 -3.8925799e-54)
(2.0459768e-12 -1.013294e-28 -2.026588e-28)
(2.8237175e-12 5.06647e-29 5.06647e-29)
(2.8104218e-12 3.039882e-28 6.3308605e-41)
(2.5745621e-12 -2.1102868e-41 2.1102868e-41)
(2.394496e-12 1.013294e-28 7.0342895e-42)
(2.5913883e-12 2.026588e-28 2.026588e-28)
(2.6934625e-12 -1.013294e-28 0)
(2.2509501e-12 -5.06647e-29 0)
(2.5093804e-12 5.06647e-29 -5.06647e-29)
(2.3978775e-12 -2.026588e-28 2.8137158e-41)
(2.2598803e-12 -5.6245516e-41 -5.6245516e-41)
(2.163922e-12 3.039882e-28 -9.7576662e-57)
(2.5520116e-12 0 -2.026588e-28)
(2.8210573e-12 0 -1.3470734e-42)
(2.7914679e-12 2.026588e-28 2.026588e-28)
(3.1074304e-12 0 0)
(3.1884765e-12 3.546529e-28 3.546529e-28)
(3.0273001e-12 1.013294e-28 -1.4068579e-41)
(2.7967391e-12 1.4399774e-44 1.013294e-28)
(2.8009773e-12 1.4061379e-41 0)
(2.9546257e-12 0 0)
(2.9183735e-12 -2.8629933e-42 -2.8629933e-42)
(2.9756688e-12 -5.06647e-29 -1.4399774e-44)
(2.6893001e-12 3.039882e-28 2.3169994e-70)
(2.6657026e-12 -2.026588e-28 -1.013294e-28)
(2.6405741e-12 1.519941e-28 -1.519941e-28)
(2.4217809e-12 -2.026588e-28 2.8079559e-41)
(2.4920832e-12 0 -1.4068579e-41)
(2.4932937e-12 0 -2.8122758e-41)
(2.8925857e-12 -5.06647e-29 -5.06647e-29)
(2.6192551e-12 -1.4075779e-41 -5.06647e-29)
(2.6232422e-12 -1.519941e-28 4.2205737e-41)
(2.5273866e-12 0 -1.2668201e-40)
(2.6508273e-12 0 1.970609e-40)
(2.7257061e-12 4.053176e-28 4.053176e-28)
(2.4878406e-12 6.3330205e-41 1.519941e-28)
(2.3633507e-12 -5.06647e-29 1.4068579e-41)
(2.5607749e-12 0 -7.7535582e-41)
(2.9246754e-12 0 0)
(2.8198676e-12 0 -7.0626648e-42)
(2.9563832e-12 0 1.013294e-28)
(2.9637776e-12 0 -7.0342895e-42)
(3.002614e-12 0 3.5999434e-44)
(2.9585056e-12 0 -2.1102868e-41)
(3.351293e-12 0 -5.6331915e-41)
(3.5520228e-12 -7.093058e-28 -3.546529e-28)
(3.1680274e-12 2.8122758e-41 -5.06647e-29)
(3.4155912e-12 -5.06647e-29 -5.06647e-29)
(3.4596662e-12 -2.533235e-28 -2.533235e-28)
(3.3662574e-12 3.546529e-28 -3.546529e-28)
(3.3940057e-12 -3.546529e-28 0)
(2.9599821e-12 1.2674681e-40 4.559823e-28)
(2.7156224e-12 3.546529e-28 3.546529e-28)
(2.2689756e-12 7.0342895e-41 0)
(2.3016928e-12 2.026588e-28 -2.026588e-28)
(2.2832531e-12 0 -2.1102868e-41)
(2.1455016e-12 0 6.4798982e-44)
(2.2067597e-12 -5.06647e-29 -7.0270896e-42)
(2.2686105e-12 -5.6274316e-41 2.026588e-28)
(2.0077236e-12 -1.519941e-28 1.519941e-28)
(2.0453246e-12 0 -2.1081269e-41)
(2.0801799e-12 0 4.2205737e-41)
(2.3236643e-12 0 2.026588e-28)
(2.3078288e-12 0 4.559823e-28)
(2.3880468e-12 0 -1.1146234e-27)
(2.4266646e-12 0 1.0079842e-43)
(2.2239282e-12 0 -9.1352165e-41)
(1.9567867e-12 -6.079764e-28 -3.039882e-28)
(1.3946341e-12 4.2176937e-41 5.06647e-29)
(7.8718236e-13 -6.079764e-28 4.2205737e-41)
(7.9763082e-13 4.053176e-28 4.053176e-28)
(8.8861309e-13 4.3199321e-44 0)
(9.7310871e-13 4.559823e-28 0)
(1.6079238e-12 -1.6856375e-40 0)
(1.4405174e-12 -5.06647e-28 -2.533235e-28)
(1.3465413e-12 -2.026588e-28 -2.026588e-28)
(1.6361097e-12 -1.9515332e-56 -1.013294e-28)
(1.5301457e-12 -7.599705e-28 -2.533235e-28)
(1.4551051e-12 0 0)
(1.3921208e-12 -5.06647e-28 -2.533235e-28)
(1.258411e-12 0 -8.106352e-28)
(1.1363663e-12 0 3.546529e-28)
(1.9246298e-12 -2.026588e-28 -1.013294e-28)
(1.7573132e-12 -2.8108358e-41 0)
(1.3961986e-12 -1.2159528e-27 -4.053176e-28)
(1.4519953e-12 6.079764e-28 -6.079764e-28)
(1.5850468e-12 3.546529e-28 3.546529e-28)
(1.9568993e-12 1.519941e-28 -4.2205737e-41)
(1.9803593e-12 -3.546529e-28 3.546529e-28)
(1.7817921e-12 3.546529e-28 0)
(1.8035672e-12 1.4054179e-41 0)
(1.7076474e-12 5.06647e-29 0)
(1.962848e-12 3.546529e-28 0)
(1.6088913e-12 0 -5.06647e-28)
(1.2843726e-12 1.013294e-28 2.8108358e-41)
(1.782798e-12 4.053176e-28 -4.053176e-28)
(1.969363e-12 2.026588e-28 1.013294e-28)
(2.2164281e-12 3.039882e-28 -4.2205737e-41)
(2.1921744e-12 5.06647e-28 7.0414894e-41)
(2.3114408e-12 7.599705e-28 -4.8788331e-57)
(2.3320634e-12 2.533235e-28 -2.533235e-28)
(2.3569505e-12 -1.013294e-28 -5.06647e-29)
(2.2773856e-12 -4.053176e-28 8.106352e-28)
(2.3751497e-12 3.039882e-28 4.2205737e-41)
(2.3214015e-12 0 2.8108358e-41)
(2.410458e-12 3.546529e-28 -3.546529e-28)
(2.0661743e-12 -1.013294e-28 0)
(2.2961357e-12 1.013294e-28 -1.013294e-28)
(2.2870375e-12 -9.119646e-28 -3.039882e-28)
(2.3921518e-12 -1.4399774e-44 5.06647e-29)
(2.2583821e-12 -3.039882e-28 -4.2162538e-41)
(2.0903868e-12 -1.013294e-28 -1.013294e-28)
(1.9887171e-12 -1.8044693e-54 0)
(1.6451442e-12 1.519941e-28 0)
(2.0478514e-12 -1.4399774e-43 -5.06647e-28)
(1.943947e-12 -1.6212704e-27 1.1243343e-40)
(2.1122596e-12 5.06647e-28 5.06647e-28)
(2.4744494e-12 0 0)
(2.3275123e-12 1.4068579e-41 5.06647e-29)
(2.5339032e-12 1.4399774e-44 -1.4399774e-44)
(2.581284e-12 3.039882e-28 8.4411474e-41)
(2.577959e-12 -6.586411e-28 9.1352165e-41)
(2.239751e-12 9.8480053e-41 -3.546529e-28)
(1.7945564e-12 -7.0270896e-42 -5.06647e-29)
(1.5961661e-12 -2.1599661e-44 2.1599661e-44)
(1.5531554e-12 3.9341938e-41 1.0963009e-53)
(1.9477721e-12 -2.533235e-28 2.533235e-28)
(1.9270429e-12 4.8788331e-57 -2.533235e-28)
(1.8175053e-12 -2.8137158e-41 2.8137158e-41)
(1.595409e-12 -5.0399208e-44 5.0399208e-44)
(1.6751814e-12 -3.039882e-28 -2.1102868e-41)
(1.7294982e-12 7.0270896e-42 5.06647e-29)
(1.620995e-12 1.013294e-28 1.013294e-28)
(1.3063133e-12 0 0)
(1.3490313e-12 0 -4.6852091e-53)
(1.5470491e-12 -2.3326206e-41 -3.2710232e-54)
(1.6730259e-12 -2.1081269e-41 -2.1081269e-41)
(1.8823273e-12 1.519941e-28 -2.1599661e-44)
(1.6236823e-12 -4.053176e-28 -4.053176e-28)
(1.8967093e-12 -7.0342895e-42 -5.06647e-29)
(2.1899498e-12 5.8545997e-56 5.8545997e-56)
(2.0409759e-12 7.0342895e-41 7.0342895e-41)
(1.8502814e-12 -2.026588e-28 -5.6274316e-41)
(2.2826768e-12 -2.026588e-28 2.8137158e-41)
(2.2894176e-12 -3.758961e-54 -5.421284e-41)
(2.235219e-12 -3.039882e-28 -3.039882e-28)
(2.1510509e-12 0 -3.546529e-28)
(1.9810412e-12 0 -3.5171447e-41)
(1.8791329e-12 5.06647e-29 7.0342895e-42)
(1.966747e-12 5.06647e-29 -1.013294e-28)
(2.2787912e-12 -8.4353875e-41 1.013294e-28)
(2.1205502e-12 -2.533235e-28 2.533235e-28)
(2.2083835e-12 3.039882e-28 -9.7576662e-57)
(1.9418625e-12 0 0)
(1.9039938e-12 3.546529e-28 1.4636499e-56)
(1.7239068e-12 5.06647e-29 -5.06647e-29)
(1.371317e-12 -1.013294e-28 1.013294e-28)
(1.6062415e-12 -4.053176e-28 -9.7576662e-57)
(1.6890639e-12 0 -6.3243806e-41)
(1.8613391e-12 4.559823e-28 -6.4798982e-44)
(2.2167836e-12 -1.013294e-28 1.013294e-28)
(2.5199503e-12 8.106352e-28 -8.106352e-28)
(2.3718092e-12 2.026588e-28 -5.6274316e-41)
(2.385567e-12 -2.533235e-28 2.533235e-28)
(2.1637498e-12 -1.519941e-28 -2.1081269e-41)
(1.9009415e-12 -1.4054179e-41 1.4054179e-41)
(2.2552909e-12 -1.013294e-28 -1.013294e-28)
(2.3580005e-12 -1.4068579e-41 5.06647e-29)
(1.8668725e-12 -2.026588e-28 3.9030665e-56)
(1.9282563e-12 0 -6.3330205e-41)
(1.6015444e-12 0 -1.4075779e-41)
(1.4485706e-12 0 7.0306895e-41)
(1.5631581e-12 -1.519941e-28 4.2205737e-41)
(1.5353725e-12 -3.039882e-28 2.9272999e-56)
(1.7252766e-12 0 0)
(1.5842521e-12 2.1587984e-41 -2.1564392e-41)
(1.5029482e-12 1.4039779e-41 0)
(1.3343025e-12 2.6976213e-41 0)
(1.3992093e-12 0 5.06647e-29)
(1.1803553e-12 0 -5.6274316e-41)
(8.0800975e-13 -3.546529e-28 3.546529e-28)
(6.5166887e-13 -3.1450702e-54 0)
(1.0398264e-12 -6.3179007e-41 0)
(1.2687948e-12 5.06647e-28 1.013294e-27)
(1.7622532e-12 -4.559823e-28 3.7959244e-40)
(1.8620526e-12 1.2648761e-40 -6.079764e-28)
(1.6122648e-12 -1.013294e-28 -1.013294e-28)
(1.8214758e-12 0 2.1599661e-44)
(1.9833997e-12 -5.06647e-29 -7.0342895e-42)
(1.959639e-12 -2.1102868e-41 -1.519941e-28)
(1.5157211e-12 2.026588e-28 0)
(1.6097144e-12 -5.06647e-29 0)
(1.6276995e-12 -2.026588e-28 0)
(1.4550092e-12 -8.5714173e-41 8.5714173e-41)
(1.7035354e-12 -5.06647e-29 -1.4054179e-41)
(1.3295251e-12 0 5.06647e-29)
(1.5569403e-12 -1.013294e-28 0)
(1.4820596e-12 -4.053176e-28 0)
(1.759808e-12 3.546529e-28 3.546529e-28)
(1.9168025e-12 7.093058e-28 -1.0079842e-43)
(1.5184048e-12 0 -5.573117e-28)
(1.5477498e-12 2.533235e-28 0)
(1.543156e-12 -1.013294e-28 0)
(1.8655843e-12 2.7459521e-41 -2.7459521e-41)
(1.9041922e-12 1.013294e-28 2.8108358e-41)
(1.8817425e-12 -2.026588e-28 -2.8151558e-41)
(2.2477972e-12 8.4411474e-41 4.2205737e-41)
(2.3442527e-12 9.119646e-28 3.039882e-28)
(2.7082452e-12 1.9515332e-56 -3.039882e-28)
(2.5543993e-12 -3.039882e-28 8.4368274e-41)
(2.1841507e-12 -5.06647e-28 -7.0306895e-41)
(2.4520313e-12 1.1243343e-40 5.6216717e-41)
(2.4946567e-12 6.079764e-28 3.039882e-28)
(2.1397946e-12 -2.026588e-28 0)
(2.3679154e-12 4.053176e-28 0)
(2.12225e-12 -4.559823e-28 -4.559823e-28)
(2.220356e-12 -1.013294e-28 -4.8788331e-55)
(2.6066214e-12 3.039882e-28 1.519941e-28)
(2.2961633e-12 0 0)
(2.8005335e-12 0 0)
(3.1018842e-12 -1.013294e-28 -5.06647e-29)
(3.3504299e-12 -2.3418399e-55 -4.6836798e-55)
(3.2272721e-12 -7.093058e-28 -3.546529e-28)
(2.9650843e-12 0 0)
(2.3700604e-12 0 0)
(2.4379868e-12 -9.119646e-28 -4.559823e-28)
(2.5676369e-12 -1.5612266e-55 -3.1224532e-55)
(2.5433506e-12 1.013294e-28 5.06647e-29)
(2.5493789e-12 0 0)
(2.4332366e-12 0 0)
(2.4760737e-12 8.106352e-28 4.053176e-28)
(2.2213589e-12 -1.519941e-28 2.1599661e-44)
(2.3330138e-12 -8.9071165e-41 -4.4559175e-41)
(2.3380752e-12 -4.5326721e-41 4.5350314e-41)
(2.1566854e-12 0 7.0378894e-41)
(1.9098364e-12 -6.079764e-28 -8.4454673e-41)
(1.8430779e-12 2.2509726e-40 1.1254863e-40)
(1.9496064e-12 1.4186116e-27 7.093058e-28)
(2.4175525e-12 -6.586411e-28 0)
(3.0474475e-12 0 0)
(2.9767109e-12 -1.013294e-28 0)
(2.6965815e-12 -3.546529e-28 0)
(3.0328146e-12 5.0399208e-44 0)
(3.1283652e-12 1.519941e-28 -1.519941e-28)
(2.9185713e-12 -2.026588e-28 5.6245516e-41)
(3.0894408e-12 -1.519941e-28 -1.519941e-28)
(2.6483096e-12 -1.013294e-28 0)
(2.5345782e-12 -1.013294e-28 0)
(2.9897897e-12 1.013294e-28 0)
(2.7416198e-12 -1.1254863e-40 0)
(3.0614592e-12 -8.106352e-28 0)
(3.2604885e-12 6.079764e-28 0)
(2.9989618e-12 -2.6718249e-55 0)
(3.319996e-12 -1.013294e-28 1.013294e-28)
(3.2811213e-12 -5.06647e-29 2.8122758e-41)
(3.4206073e-12 2.533235e-28 2.533235e-28)
(3.6618508e-12 -5.06647e-29 0)
(3.9206754e-12 3.546529e-28 0)
(3.6111384e-12 1.013294e-28 0)
(3.6656452e-12 2.8137158e-41 0)
(3.3392203e-12 2.533235e-28 0)
(3.3736092e-12 -3.039882e-28 0)
(3.9467107e-12 -7.1998869e-45 0)
(4.0084489e-12 -4.559823e-28 4.559823e-28)
(4.4634023e-12 7.599705e-28 -2.1092069e-40)
(4.6987251e-12 -8.106352e-28 -8.106352e-28)
(4.5046796e-12 -7.093058e-28 0)
(4.620819e-12 8.106352e-28 0)
(4.8331055e-12 1.8239292e-27 9.119646e-28)
(4.7005345e-12 -3.6597025e-40 -1.8298512e-40)
(5.0757807e-12 -1.2159528e-27 -6.079764e-28)
(5.26023e-12 6.079764e-28 0)
(5.6741789e-12 -1.2239808e-43 0)
(5.9502565e-12 -2.2292468e-27 0)
(6.103698e-12 -3.311948e-43 1.1652881e-27)
(6.5122859e-12 1.519941e-27 4.2227337e-40)
(7.323975e-12 0 -2.1279174e-27)
(7.6964684e-12 -2.1279174e-27 0)
(7.9275412e-12 0 0)
(8.2200367e-12 2.6852291e-27 0)
(9.0636212e-12 0 0)
(9.5312672e-12 0 0)
(1.0122951e-11 0 0)
(1.1237629e-11 3.6478584e-27 0)
(1.1781651e-11 2.4394166e-56 3.6985231e-27)
(1.3078042e-11 -3.546529e-27 -5.0399208e-43)
(1.4410888e-11 0 -4.4584936e-27)
(1.6119601e-11 -5.573117e-27 0)
(1.7527662e-11 1.6460237e-39 0)
(1.9200858e-11 6.3837522e-27 0)
(2.1168941e-11 0 0)
(2.2815539e-11 0 0)
(2.5075049e-11 0 0)
(2.8017146e-11 9.6769577e-27 0)
(3.1090456e-11 -2.940333e-39 1.0588922e-26)
(3.4422804e-11 -1.2108863e-26 1.720773e-42)
(3.8436381e-11 0 -1.3932792e-26)
(4.210995e-11 -1.5148745e-26 0)
(4.6322826e-11 -4.3871503e-39 0)
(5.1032423e-11 1.7225998e-26 0)
(5.6535211e-11 0 1.940458e-26)
(6.2535367e-11 -2.1785821e-26 -1.2095882e-38)
(6.9067306e-11 2.4369721e-26 -2.4369721e-26)
(7.6568118e-11 -1.4610658e-38 0)
(8.4282973e-11 -2.8726885e-26 2.8726885e-26)
(9.3716563e-11 3.2273414e-26 8.9662711e-39)
(1.0409125e-10 0 -3.6022602e-26)
(1.1519881e-10 4.0126442e-26 0)
(1.2693802e-10 1.2281869e-38 0)
(1.4027474e-10 -4.8435453e-26 4.8435453e-26)
(1.5552644e-10 0 5.3603252e-26)
(1.7190346e-10 -5.9480358e-26 -5.9480358e-26)
(1.8967943e-10 6.5205469e-26 -6.5205469e-26)
(2.0988864e-10 3.9673393e-38 0)
(2.3235148e-10 -7.9188926e-26 0)
(2.5698102e-10 4.8721087e-38 0)
(2.8435997e-10 1.3816583e-41 0)
(3.1432209e-10 -2.9770272e-38 -1.0715584e-25)
(3.4757779e-10 1.6761337e-41 1.6761337e-41)
(3.8356037e-10 1.3000562e-25 2.6001124e-25)