/*--------------------------------*- C++ -*----------------------------------*\
  =========                 |
  \\      /  F ield         | OpenFOAM: The Open Source CFD Toolbox
   \\    /   O peration     | Website:  https://openfoam.org
    \\  /    A nd           | Version:  7
     \\/     M anipulation  |
\*---------------------------------------------------------------------------*/
FoamFile
{
    version     2.0;
    format      ascii;
    class       volScalarField;
    location    "0.00065";
    object      mag(U);
}
// * * * * * * * * * * * * * * * * * * * * * * * * * * * * * * * * * * * * * //

dimensions      [0 1 -1 0 0 0 0];

internalField   nonuniform List<scalar> 
5000
(
1.385047e-12
1.6043194e-12
1.598559e-12
1.3731963e-12
1.429944e-12
1.534627e-12
1.701618e-12
1.6770777e-12
1.6862359e-12
1.7424481e-12
1.7327414e-12
1.9643757e-12
1.7437939e-12
1.6413349e-12
1.4336807e-12
1.4420142e-12
1.5965997e-12
1.6397087e-12
1.6751357e-12
1.6143761e-12
1.8939877e-12
2.1599982e-12
1.8543203e-12
1.7357814e-12
2.1409139e-12
1.9935812e-12
1.8360719e-12
2.063423e-12
2.1264979e-12
1.9363937e-12
2.1493547e-12
2.0598568e-12
1.7940202e-12
1.7915537e-12
1.5726565e-12
1.721705e-12
1.7832676e-12
1.8566618e-12
2.0404847e-12
1.9181854e-12
2.1334129e-12
2.0976767e-12
2.1569351e-12
1.9271438e-12
1.9489027e-12
1.8570938e-12
1.5063205e-12
1.4874006e-12
1.7440438e-12
1.9054228e-12
2.0040036e-12
2.0827e-12
1.8196296e-12
2.0634144e-12
2.1288468e-12
1.930733e-12
1.9083685e-12
2.1099707e-12
1.8005888e-12
1.881972e-12
2.3012164e-12
2.1385842e-12
2.2770163e-12
2.2133042e-12
2.3248401e-12
2.5614399e-12
2.7077976e-12
2.2234816e-12
2.4166478e-12
2.5881685e-12
2.0172555e-12
2.2432377e-12
2.049117e-12
2.1273112e-12
2.1474149e-12
2.2901381e-12
2.2187146e-12
2.196876e-12
2.5442661e-12
2.4456437e-12
2.5733056e-12
2.4526206e-12
2.6157865e-12
2.6254758e-12
2.7781274e-12
2.5901781e-12
2.6044617e-12
2.5841297e-12
2.3554398e-12
3.0051605e-12
2.4324602e-12
2.5047542e-12
2.7429237e-12
2.7943958e-12
2.6753499e-12
2.5505083e-12
2.5681924e-12
2.6814072e-12
2.7105323e-12
2.6249542e-12
2.6421515e-12
2.3220409e-12
2.6919097e-12
2.5063594e-12
2.2447936e-12
2.4897112e-12
2.6477578e-12
2.4727401e-12
2.3870782e-12
2.5115037e-12
2.5868654e-12
2.4853973e-12
2.3242797e-12
2.3657348e-12
2.1155707e-12
2.1358389e-12
2.3091167e-12
2.5453104e-12
2.5719745e-12
2.5380341e-12
2.3030348e-12
1.9011104e-12
2.2037041e-12
2.2913869e-12
1.9941002e-12
1.9480226e-12
1.8187267e-12
1.3509771e-12
1.3380839e-12
1.3571404e-12
1.4683855e-12
1.5941103e-12
1.3121168e-12
1.2395947e-12
1.4839901e-12
1.3700537e-12
1.4726933e-12
1.5529066e-12
1.0469598e-12
1.0918099e-12
1.451378e-12
1.1746568e-12
1.049856e-12
1.2394585e-12
1.1658043e-12
1.3443553e-12
9.8643511e-13
1.1144348e-12
1.3259345e-12
1.2834404e-12
1.203559e-12
1.1837325e-12
1.0796916e-12
1.1024764e-12
8.7639349e-13
1.1176421e-12
1.3855319e-12
1.2088365e-12
1.3317715e-12
1.3611928e-12
1.4905563e-12
1.0875042e-12
1.2951146e-12
1.5414041e-12
1.5252279e-12
1.4867273e-12
1.5587038e-12
1.5518188e-12
1.4782741e-12
1.6158754e-12
1.5382584e-12
1.4802857e-12
1.369369e-12
1.3681953e-12
1.1869368e-12
1.2259318e-12
1.0745193e-12
1.0331165e-12
9.9778438e-13
1.333524e-12
1.1454293e-12
8.3509299e-13
1.1506129e-12
1.1223151e-12
1.1230848e-12
1.1892435e-12
1.2584316e-12
1.347092e-12
1.2747912e-12
1.2631583e-12
1.7721252e-12
1.686504e-12
1.7120023e-12
1.6990053e-12
1.5280309e-12
1.7259452e-12
1.5660341e-12
1.5857689e-12
1.7325316e-12
1.2124188e-12
1.5607795e-12
1.7368233e-12
1.6794965e-12
1.9911412e-12
1.9783872e-12
1.9225015e-12
1.7755403e-12
2.0063416e-12
2.3720408e-12
2.0938672e-12
2.3836515e-12
2.4704889e-12
2.2936825e-12
2.3593795e-12
2.4343136e-12
2.5271836e-12
2.473478e-12
2.369402e-12
2.3176454e-12
2.3216155e-12
2.2633683e-12
2.4959077e-12
2.2742767e-12
2.4035058e-12
2.5621083e-12
2.5103213e-12
2.0191654e-12
1.9922724e-12
2.2850402e-12
2.1805288e-12
2.3272431e-12
2.3313315e-12
2.2978203e-12
2.6254494e-12
2.5347588e-12
2.1784064e-12
2.2218583e-12
2.30295e-12
2.1204194e-12
1.9111343e-12
1.989256e-12
1.7365522e-12
1.6799882e-12
1.7862996e-12
1.7784528e-12
1.6550123e-12
1.7600426e-12
1.3177211e-12
1.6613277e-12
1.8032969e-12
1.5623206e-12
1.5410835e-12
1.5839262e-12
1.2067908e-12
1.0054872e-12
1.0501952e-12
1.332494e-12
1.2013484e-12
8.5385047e-13
1.1977363e-12
1.4020314e-12
1.3270755e-12
9.5758348e-13
1.3043732e-12
1.3351111e-12
9.5041089e-13
1.2292542e-12
1.6160673e-12
1.6208197e-12
1.5361702e-12
1.5238633e-12
1.7937412e-12
1.6326303e-12
1.4954521e-12
1.3428804e-12
1.2179775e-12
1.4663721e-12
1.4948949e-12
1.5477074e-12
1.7567026e-12
1.3616655e-12
1.5423902e-12
1.8088874e-12
1.5394517e-12
1.8453441e-12
1.8990343e-12
1.8502034e-12
1.9828838e-12
1.9255374e-12
1.9328225e-12
1.8535773e-12
2.1858706e-12
2.2804787e-12
2.8097481e-12
2.583259e-12
2.275666e-12
2.2393858e-12
2.4113895e-12
2.7983486e-12
2.6843831e-12
2.5684264e-12
2.4788536e-12
2.9658164e-12
2.9212052e-12
2.7223176e-12
2.6238492e-12
2.4084979e-12
2.3434651e-12
2.6808132e-12
2.4822384e-12
2.646035e-12
2.4897253e-12
2.5474731e-12
2.763764e-12
2.9764483e-12
3.0108316e-12
2.989634e-12
3.2160377e-12
2.9653382e-12
2.8734465e-12
3.1070794e-12
3.4621944e-12
3.4289459e-12
3.2804249e-12
3.2124607e-12
3.1269827e-12
2.9588981e-12
3.1039431e-12
3.3412957e-12
3.3653035e-12
3.3082349e-12
3.3651713e-12
3.1874482e-12
3.1030471e-12
3.1861365e-12
3.1305196e-12
3.3173046e-12
3.4780684e-12
3.2318312e-12
2.8722547e-12
2.986646e-12
3.0562958e-12
3.0142507e-12
2.8586379e-12
2.5651991e-12
2.7826525e-12
2.6558914e-12
2.6948419e-12
2.6544006e-12
2.5457089e-12
2.7686431e-12
2.3267355e-12
2.241509e-12
2.0816533e-12
1.9235256e-12
2.4135903e-12
2.3438485e-12
1.8940631e-12
2.2744891e-12
2.480384e-12
2.4746743e-12
2.0262867e-12
2.0153972e-12
2.3274498e-12
2.3039553e-12
2.3358042e-12
1.9949774e-12
2.0291818e-12
1.8558068e-12
1.7784355e-12
1.5302833e-12
1.6872656e-12
1.8703883e-12
2.1509377e-12
1.997149e-12
1.7897083e-12
2.1350021e-12
2.1418903e-12
2.0660396e-12
2.1877177e-12
2.026598e-12
1.5194422e-12
1.6102487e-12
1.6776919e-12
1.3490732e-12
1.5934801e-12
1.6605219e-12
1.5186378e-12
1.6868882e-12
1.3786604e-12
1.7755501e-12
1.8159487e-12
1.3965683e-12
1.3031723e-12
1.483434e-12
1.6187753e-12
1.720466e-12
1.4740424e-12
1.7560364e-12
1.5603081e-12
1.4899046e-12
1.6902047e-12
1.7247634e-12
1.8513558e-12
1.6877143e-12
1.7354103e-12
1.9696332e-12
1.9655703e-12
1.4904549e-12
1.7364157e-12
2.0467637e-12
1.9661709e-12
1.9535488e-12
2.0108019e-12
1.9940942e-12
1.9497621e-12
1.8521147e-12
1.641773e-12
1.4305763e-12
1.4615578e-12
1.8570641e-12
1.8878616e-12
1.6198583e-12
1.9295392e-12
1.9835897e-12
2.0540073e-12
1.9037087e-12
1.9512797e-12
2.1447905e-12
2.0141278e-12
2.0860447e-12
2.3664964e-12
2.3902259e-12
2.2844715e-12
2.4164277e-12
2.3578651e-12
2.3343514e-12
2.1970735e-12
2.3057944e-12
2.4287942e-12
2.3158445e-12
2.1300532e-12
2.0288834e-12
1.9654562e-12
1.9692205e-12
1.9921404e-12
2.1643757e-12
2.3159179e-12
2.4317435e-12
2.32206e-12
2.5373444e-12
2.4191535e-12
2.2131325e-12
2.2745629e-12
2.3907217e-12
2.5324872e-12
2.2069727e-12
2.3043193e-12
2.2217048e-12
2.7287493e-12
2.6664157e-12
2.5546147e-12
2.8698264e-12
2.5934164e-12
2.718698e-12
2.4895274e-12
2.4300202e-12
2.6111039e-12
2.8051865e-12
2.9531396e-12
2.7528872e-12
2.7448732e-12
2.3343924e-12
2.361628e-12
2.768213e-12
2.6298229e-12
2.6289103e-12
2.8923286e-12
2.6887944e-12
2.6954126e-12
2.6897186e-12
3.0980283e-12
2.740686e-12
2.7455889e-12
2.9661216e-12
2.6312485e-12
2.9798143e-12
2.9386488e-12
2.8133076e-12
2.7900961e-12
2.7073679e-12
2.5873776e-12
2.7042085e-12
2.7381734e-12
2.8346381e-12
2.8688868e-12
2.4631728e-12
2.5571502e-12
2.7033062e-12
2.4461361e-12
2.2354842e-12
2.5598872e-12
2.6075091e-12
2.4338572e-12
2.271017e-12
2.1297122e-12
2.5175854e-12
2.457434e-12
2.2773768e-12
2.0485351e-12
2.2423062e-12
2.5611747e-12
2.5221715e-12
2.428519e-12
2.2026455e-12
2.4760391e-12
2.2307808e-12
1.9537926e-12
1.9052884e-12
1.7941827e-12
2.0043957e-12
1.7854945e-12
1.7729301e-12
1.6006784e-12
1.5151536e-12
1.4920421e-12
1.2913233e-12
1.537168e-12
1.4456824e-12
1.4823005e-12
1.3336907e-12
1.2118966e-12
1.3114877e-12
1.0878058e-12
1.1649504e-12
1.243215e-12
1.0874703e-12
1.0829469e-12
9.7846588e-13
8.154241e-13
1.0507851e-12
1.3885521e-12
1.1663529e-12
9.4877363e-13
9.9731985e-13
8.9601521e-13
8.0250563e-13
1.1314328e-12
1.1892105e-12
7.3976633e-13
8.6494258e-13
9.1331015e-13
8.9512443e-13
8.9651293e-13
7.7999987e-13
7.5370624e-13
9.6579296e-13
8.7010232e-13
9.60397e-13
7.6427516e-13
5.5184787e-13
9.2734671e-13
7.3248983e-13
6.0140065e-13
1.0454941e-12
6.8569292e-13
8.1609208e-13
6.923849e-13
5.9234198e-13
4.7341211e-13
4.6752554e-13
4.6024317e-13
1.4569481e-13
3.0742984e-13
1.6821498e-13
7.3301108e-14
1.3820633e-13
9.7891258e-14
1.2025908e-13
1.9597563e-14
2.4154331e-14
7.655578e-14
4.2916445e-14
2.1723323e-14
1.163195e-13
2.5777386e-13
2.3527553e-13
5.4089751e-13
5.189409e-13
4.3884873e-13
5.25071e-13
5.4611343e-13
7.0788297e-13
5.7965217e-13
5.7610574e-13
4.6983013e-13
3.7094423e-13
3.3343752e-13
1.7438435e-13
3.1323205e-13
2.6714896e-13
1.8034581e-13
4.1589748e-13
2.6333363e-13
4.689295e-13
3.9797042e-13
3.1121063e-13
1.8508112e-13
1.5215616e-13
5.4477519e-13
3.7332913e-13
2.8175441e-13
2.4054709e-13
6.2748046e-14
2.0658246e-13
2.4269406e-13
2.6074781e-13
3.4706562e-13
2.6343354e-13
1.963131e-13
3.6534683e-13
1.796848e-13
1.5679793e-13
2.980883e-14
8.5733402e-14
8.5672297e-14
1.3724032e-13
2.7126657e-13
1.6640976e-13
2.1507256e-13
3.392698e-13
5.1790623e-13
5.7576376e-13
7.0569316e-13
3.5383753e-13
4.1668039e-13
5.0888955e-13
4.6165828e-13
4.361612e-13
4.3483923e-13
1.256877e-13
1.8475063e-13
1.5361437e-14
1.5378563e-13
2.565706e-13
1.240941e-14
1.7151748e-14
6.7693448e-15
1.8799775e-13
3.8641829e-13
2.8843159e-13
1.3275197e-13
3.0234036e-13
3.6440685e-13
4.3840155e-13
5.0719638e-13
5.6015006e-13
7.2939722e-13
6.2740906e-13
5.0950857e-13
4.0969971e-13
3.6943371e-13
3.7447478e-13
5.0750949e-13
6.2649072e-13
7.6672171e-13
4.4862926e-13
2.8291392e-13
2.3688109e-13
2.8497129e-13
2.2499258e-13
4.6957994e-13
4.3004933e-13
4.2385289e-13
3.5089818e-13
2.4208498e-13
9.750563e-14
1.8075899e-13
1.4730938e-13
6.634505e-15
2.5436429e-13
1.3324896e-13
4.6057933e-13
8.955262e-14
2.3671426e-13
3.4233297e-13
2.7372269e-13
2.0927516e-13
1.2384797e-13
1.088451e-13
2.2162085e-13
2.5995829e-13
1.9957332e-13
5.0725126e-13
3.0339256e-13
3.1690407e-13
1.9365766e-13
1.8245653e-13
2.0422016e-13
1.9884121e-13
2.5829169e-13
2.4427627e-13
2.492917e-13
3.6747527e-13
3.4751008e-13
3.7284766e-13
4.6787123e-13
4.0709504e-13
5.5560553e-13
4.136159e-13
6.1888792e-13
5.7399671e-13
4.1814706e-13
4.4076633e-13
2.4777531e-13
1.1661015e-13
1.1210646e-13
8.4515693e-14
1.970341e-13
3.3720632e-13
1.5371687e-13
1.5745169e-13
2.4145594e-13
2.5940766e-13
2.4170587e-13
1.5560932e-13
2.3033425e-13
4.5623437e-13
6.1494733e-13
5.1138506e-13
7.4563762e-13
6.258639e-13
6.3339515e-13
5.8555126e-13
4.8623631e-13
5.4027646e-13
7.4589059e-13
7.7727708e-13
9.1373439e-13
8.2438093e-13
7.3115715e-13
7.274768e-13
8.885102e-13
1.0264471e-12
1.0714683e-12
1.0018591e-12
1.1251647e-12
1.2689225e-12
1.2163805e-12
1.2273516e-12
1.4772733e-12
1.7055907e-12
1.6507992e-12
1.7915675e-12
1.7115158e-12
1.9939671e-12
2.1603785e-12
2.0470949e-12
1.9275261e-12
1.7990587e-12
1.8020773e-12
1.7866824e-12
1.6577499e-12
1.7873077e-12
1.8626214e-12
1.9531517e-12
1.9278564e-12
1.8401159e-12
1.8101983e-12
1.9493486e-12
2.0885452e-12
2.0165995e-12
2.1582678e-12
2.1816431e-12
2.0536067e-12
1.9749245e-12
2.0113697e-12
1.9708596e-12
1.965967e-12
2.0231104e-12
2.0665339e-12
2.0406628e-12
2.0162795e-12
1.9507406e-12
1.8872283e-12
1.8582528e-12
1.9000021e-12
1.9256975e-12
1.919524e-12
1.8502861e-12
1.9313418e-12
2.0392917e-12
2.1061997e-12
2.5061614e-12
2.2637639e-12
2.050706e-12
2.1255868e-12
2.1726087e-12
1.9341461e-12
2.024727e-12
2.0969783e-12
2.1087638e-12
2.1494831e-12
1.9980903e-12
2.0636426e-12
1.9926593e-12
2.1031716e-12
1.7919472e-12
1.95136e-12
2.1204293e-12
2.0680037e-12
2.2717368e-12
1.902324e-12
1.8133561e-12
1.6379726e-12
1.9094511e-12
2.1226115e-12
2.0392617e-12
2.0446199e-12
2.1245872e-12
2.0673038e-12
2.2047963e-12
2.3641561e-12
2.0528448e-12
1.9746431e-12
1.7747674e-12
1.8844645e-12
1.9861541e-12
1.9478609e-12
1.863379e-12
1.9676673e-12
1.7544271e-12
1.7752989e-12
1.6999417e-12
1.9915535e-12
1.9490363e-12
1.739798e-12
1.8464369e-12
1.8967333e-12
2.0056141e-12
1.7049863e-12
1.3121497e-12
1.3583258e-12
1.4142815e-12
1.3210798e-12
1.5299125e-12
1.4508051e-12
1.6619402e-12
1.5763637e-12
1.4787213e-12
1.4547986e-12
1.6478869e-12
1.5827231e-12
1.1639685e-12
1.394993e-12
1.6010076e-12
1.6748448e-12
1.6562061e-12
1.6168394e-12
1.4628839e-12
1.6052764e-12
1.6353394e-12
1.2431806e-12
1.2597343e-12
1.3570988e-12
1.4503152e-12
1.4365908e-12
1.4893655e-12
1.5630491e-12
1.4389943e-12
1.6335739e-12
1.8675047e-12
1.8543313e-12
1.565335e-12
1.1857278e-12
1.4177759e-12
1.6459022e-12
1.6747358e-12
1.4038578e-12
1.3677749e-12
1.4121033e-12
1.2464226e-12
1.3839917e-12
1.5963785e-12
1.4338071e-12
1.590813e-12
1.5909695e-12
1.2049128e-12
1.4332573e-12
1.4493667e-12
1.3206715e-12
1.3959797e-12
1.6720303e-12
1.8350462e-12
1.3890997e-12
1.4020579e-12
1.5244609e-12
1.601693e-12
1.9612402e-12
1.9298012e-12
1.8774451e-12
2.100174e-12
2.0845449e-12
1.966863e-12
2.3011007e-12
2.3205777e-12
2.710082e-12
2.8427741e-12
2.9011018e-12
3.2168783e-12
3.3890679e-12
3.6445055e-12
3.8515563e-12
4.1639799e-12
4.6636714e-12
5.1859874e-12
5.3622088e-12
6.1262013e-12
6.6082859e-12
7.2824541e-12
8.2559847e-12
8.814896e-12
9.9130536e-12
1.0868781e-11
1.1943825e-11
1.3031471e-11
1.4671359e-11
1.6479025e-11
1.7936773e-11
1.9412873e-11
2.1588851e-11
2.430028e-11
2.665253e-11
2.8975171e-11
3.1979596e-11
3.5169391e-11
3.8345326e-11
4.2414964e-11
4.6888045e-11
5.177725e-11
5.6880522e-11
6.2843694e-11
6.9125613e-11
7.583998e-11
8.3775579e-11
9.2647679e-11
1.0212931e-10
1.1206415e-10
1.2312783e-10
1.3533555e-10
1.4912202e-10
1.6437552e-10
1.8043324e-10
1.9834684e-10
2.1844627e-10
2.4017449e-10
2.6381099e-10
2.89477e-10
3.1817979e-10
3.4985795e-10
3.841712e-10
4.2198261e-10
4.638217e-10
5.0952134e-10
5.5945245e-10
6.1368843e-10
6.7365143e-10
7.3916865e-10
8.1084052e-10
8.8971604e-10
9.7605728e-10
1.0710677e-09
1.1742295e-09
1.2871547e-09
1.4112464e-09
1.5472701e-09
1.6958664e-09
1.8581764e-09
2.0357252e-09
2.2296897e-09
2.4421944e-09
2.6746995e-09
2.9289546e-09
3.2059874e-09
3.50833e-09
3.8394214e-09
4.2020362e-09
4.5969488e-09
5.0274534e-09
5.4982196e-09
6.0126605e-09
6.5735947e-09
7.1851305e-09
7.8535817e-09
8.5825947e-09
9.3777478e-09
1.0244478e-08
1.1189378e-08
1.2219376e-08
1.3342391e-08
1.456624e-08
1.5899582e-08
1.7352337e-08
1.8935417e-08
2.0659351e-08
2.2535847e-08
2.4578963e-08
2.6802653e-08
2.9223126e-08
3.1857456e-08
3.4722954e-08
3.783977e-08
4.1230589e-08
4.4917618e-08
4.8925308e-08
5.3282427e-08
5.8017962e-08
6.3163986e-08
6.875529e-08
7.4828472e-08
8.1424598e-08
8.8587007e-08
9.6363784e-08
1.0480717e-07
1.1397053e-07
1.2391347e-07
1.3470176e-07
1.4640468e-07
1.590982e-07
1.7286334e-07
1.8778779e-07
2.039656e-07
2.2150021e-07
2.4050154e-07
2.6108909e-07
2.83391e-07
3.0754536e-07
3.3370212e-07
3.6202161e-07
3.9267893e-07
4.258587e-07
4.617627e-07
5.0060938e-07
5.4263146e-07
5.8808027e-07
6.3722644e-07
6.9036131e-07
7.477979e-07
8.0987354e-07
8.7695106e-07
9.4942121e-07
1.0277028e-06
1.1122463e-06
1.2035359e-06
1.3020922e-06
1.4084755e-06
1.5232861e-06
1.6471683e-06
1.7808137e-06
1.9249678e-06
2.0804281e-06
2.2480495e-06
2.428751e-06
2.6235173e-06
2.833405e-06
3.0595466e-06
3.3031558e-06
3.5655319e-06
3.8480705e-06
4.1522643e-06
4.4797116e-06
4.8321252e-06
5.2113385e-06
5.6193138e-06
6.0581496e-06
6.5300938e-06
7.0375489e-06
7.5830836e-06
8.169447e-06
8.7995751e-06
9.4766072e-06
1.0203899e-05
1.0985033e-05
1.1823839e-05
1.2724401e-05
1.3691085e-05
1.4728548e-05
1.5841762e-05
1.7036029e-05
1.8317006e-05
1.9690729e-05
2.1163628e-05
2.2742563e-05
2.4434842e-05
2.6248254e-05
2.8191094e-05
3.0272201e-05
3.2500982e-05
3.4887456e-05
3.7442286e-05
4.0176819e-05
4.3103125e-05
4.6234043e-05
4.958323e-05
5.3165202e-05
5.6995389e-05
6.1090192e-05
6.5467033e-05
7.0144419e-05
7.5142003e-05
8.0480655e-05
8.6182526e-05
9.2271123e-05
9.8771392e-05
0.00010570979
0.00011311437
0.0001210149
0.0001294429
0.0001384318
0.00014801702
0.00015823606
0.00016912865
0.00018073686
0.00019310521
0.00020628082
0.00022031356
0.00023525615
0.00025116436
0.00026809717
0.00028611691
0.00030528944
0.00032568435
0.00034737515
0.00037043946
0.00039495923
0.00042102097
0.00044871594
0.00047814044
0.00050939604
0.00054258981
0.00057783467
0.00061524959
0.00065495993
0.00069709777
0.00074180218
0.00078921959
0.00083950415
0.00089281804
0.00094933192
0.0010092253
0.0010726868
0.001139915
0.0012111183
0.0012865158
0.0013663378
0.0014508258
0.0015402336
0.0016348276
0.0017348872
0.0018407057
0.0019525905
0.002070864
0.0021958643
0.0023279454
0.0024674784
0.0026148518
0.0027704727
0.0029347669
0.0031081802
0.0032911789
0.0034842509
0.0036879063
0.0039026781
0.0041291237
0.0043678252
0.0046193907
0.004884455
0.0051636811
0.0054577606
0.0057674151
0.0060933973
0.006436492
0.0067975172
0.0071773254
0.0075768048
0.0079968803
0.0084385149
0.008902711
0.0093905116
0.0099030016
0.01044131
0.011006608
0.011600117
0.012223103
0.01287688
0.013562816
0.014282329
0.015036889
0.015828024
0.016657317
0.017526408
0.018437
0.019390854
0.020389796
0.021435716
0.02253057
0.023676383
0.024875249
0.026129334
0.027440876
0.028812188
0.03024566
0.031743761
0.033309038
0.034944121
0.036651722
0.038434639
0.040295758
0.04223805
0.044264578
0.046378497
0.048583055
0.050881594
0.053277552
0.055774466
0.058375972
0.061085808
0.063907811
0.066845925
0.069904198
0.073086783
0.076397941
0.079842042
0.083423566
0.087147103
0.091017354
0.095039135
0.099217373
0.10355711
0.1080635
0.11274182
0.11759746
0.12263591
0.12786281
0.13328388
0.13890499
0.14473209
0.15077129
0.15702878
0.16351089
0.17022404
0.17717479
0.1843698
0.19181586
0.19951984
0.20748876
0.21572972
0.22424993
0.23305674
0.24215756
0.25155994
0.2612715
0.27129999
0.28165324
0.29233918
0.30336581
0.31474127
0.32647373
0.33857148
0.35104287
0.36389635
0.37714043
0.39078368
0.40483475
0.41930235
0.43419526
0.44952229
0.46529232
0.48151426
0.49819709
0.51534979
0.5329814
0.55110097
0.56971758
0.58884034
0.60847835
0.62864073
0.6493366
0.67057506
0.69236524
0.71471621
0.73763705
0.76113681
0.78522449
0.80990907
0.83519948
0.86110461
0.88763328
0.91479426
0.94259625
0.97104787
1.0001577
1.0299341
1.0603856
1.0915204
1.1233466
1.1558724
1.1891056
1.2230542
1.2577258
1.293128
1.3292683
1.3661539
1.403792
1.4421896
1.4813535
1.5212904
1.5620068
1.6035091
1.6458034
1.6888957
1.7327918
1.7774972
1.8230174
1.8693576
1.9165228
1.9645177
2.013347
2.0630151
2.1135259
2.1648836
2.2170918
2.2701539
2.3240732
2.3788527
2.4344952
2.4910032
2.5483791
2.6066247
2.6657421
2.7257327
2.7865978
2.8483385
2.9109557
2.9744498
3.0388212
3.10407
3.1701959
3.2371985
3.3050772
3.3738308
3.4434583
3.5139582
3.5853287
3.6575679
3.7306735
3.8046431
3.8794739
3.9551629
4.0317069
4.1091025
4.1873458
4.2664329
4.3463596
4.4271214
4.5087137
4.5911313
4.6743693
4.758422
4.8432839
4.9289491
5.0154115
5.1026646
5.190702
5.2795167
5.3691018
5.45945
5.5505538
5.6424056
5.7349975
5.8283213
5.9223687
6.0171313
6.1126002
6.2087666
6.3056213
6.403155
6.5013581
6.6002211
6.6997339
6.7998865
6.9006687
7.00207
7.1040797
7.2066871
7.3098812
7.4136508
7.5179847
7.6228714
7.7282993
7.8342564
7.940731
8.0477109
8.1551837
8.2631372
8.3715588
8.4804357
8.5897551
8.699504
8.8096693
8.9202378
9.0311959
9.1425303
9.2542272
9.3662729
9.4786535
9.5913549
9.704363
9.8176635
9.9312421
10.045084
10.159175
10.273501
10.388046
10.502795
10.617734
10.732847
10.848119
10.963536
11.079081
11.194738
11.310494
11.426331
11.542234
11.658187
11.774175
11.890181
12.00619
12.122184
12.238149
12.354068
12.469924
12.585701
12.701383
12.816953
12.932395
13.047694
13.16283
13.277788
13.392553
13.507107
13.621432
13.735514
13.849334
13.962876
14.076124
14.189061
14.30167
14.413934
14.525837
14.637362
14.748493
14.859212
14.969504
15.079352
15.188738
15.297648
15.406064
15.51397
15.62135
15.728188
15.834468
15.940173
16.045289
16.149799
16.253687
16.356939
16.459538
16.56147
16.662719
16.763271
16.86311
16.962223
17.060594
17.158209
17.255056
17.351118
17.446384
17.540841
17.634473
17.727269
17.819216
17.910302
18.000514
18.089842
18.178272
18.265795
18.352399
18.438073
18.522808
18.606593
18.689419
18.771276
18.852156
18.93205
19.010951
19.08885
19.165739
19.241613
19.316464
19.390287
19.463075
19.534824
19.605529
19.675185
19.743789
19.811336
19.877824
19.943251
20.007614
20.070912
20.133143
20.194307
20.254404
20.313434
20.371397
20.428296
20.484131
20.538905
20.592621
20.645282
20.69689
20.747452
20.79697
20.84545
20.892898
20.939319
20.984719
21.029107
21.072488
21.11487
21.156262
21.196672
21.236108
21.27458
21.312098
21.348671
21.384311
21.419027
21.45283
21.485732
21.517744
21.548878
21.579147
21.608563
21.637138
21.664886
21.691819
21.71795
21.743294
21.767864
21.791673
21.814736
21.837066
21.858679
21.879587
21.899806
21.919349
21.938231
21.956468
21.974072
21.991059
22.007443
22.023239
22.03846
22.053122
22.067239
22.080824
22.093892
22.106457
22.118532
22.130133
22.141271
22.15196
22.162216
22.172048
22.181472
22.1905
22.199144
22.207417
22.215331
22.222898
22.23013
22.237038
22.243633
22.249928
22.255932
22.261657
22.267112
22.272307
22.277254
22.28196
22.286437
22.290692
22.294735
22.298575
22.302219
22.305676
22.308955
22.312062
22.315005
22.317792
22.320429
22.322923
22.32528
22.327508
22.329611
22.331597
22.333469
22.335235
22.336899
22.338466
22.339941
22.341329
22.342633
22.34386
22.345012
22.346093
22.347107
22.348058
22.348949
22.349784
22.350566
22.351296
22.35198
22.352618
22.353214
22.35377
22.354289
22.354773
22.355223
22.355642
22.356032
22.356394
22.356731
22.357043
22.357333
22.357601
22.357849
22.358079
22.358292
22.358488
22.35867
22.358837
22.358991
22.359132
22.359263
22.359382
22.359492
22.359592
22.359684
22.359768
22.359845
22.359914
22.359978
22.360036
22.360088
22.360135
22.360178
22.360216
22.36025
22.360281
22.360309
22.360333
22.360355
22.360373
22.36039
22.360409
22.36043
22.360444
22.360454
22.360478
22.360513
22.360532
22.360541
22.360569
22.360611
22.360636
22.360644
22.360665
22.360708
22.360742
22.360752
22.360764
22.360798
22.360833
22.36085
22.360865
22.360897
22.360932
22.360953
22.36096
22.360984
22.361014
22.36103
22.36104
22.361065
22.361097
22.361113
22.36112
22.36114
22.361169
22.361183
22.361186
22.361197
22.361223
22.361251
22.361266
22.361273
22.361291
22.361317
22.361331
22.36134
22.36136
22.361386
22.361396
22.361396
22.361404
22.361428
22.36145
22.36146
22.361469
22.361486
22.361504
22.361519
22.361533
22.361549
22.361563
22.361572
22.361586
22.361603
22.361608
22.36161
22.361624
22.361641
22.361648
22.361656
22.361666
22.361667
22.361665
22.36168
22.361694
22.361699
22.361708
22.361723
22.361733
22.361738
22.361747
22.36176
22.361773
22.361785
22.361797
22.361809
22.36182
22.361829
22.361839
22.361845
22.361849
22.361857
22.361865
22.361862
22.361858
22.361865
22.36187
22.361861
22.361857
22.361863
22.361868
22.361873
22.361882
22.361891
22.361898
22.361905
22.361915
22.361927
22.361932
22.361938
22.361946
22.361956
22.361954
22.361948
22.361949
22.361954
22.361955
22.361956
22.36196
22.361962
22.361962
22.361961
22.361965
22.361968
22.361969
22.36197
22.361972
22.36197
22.361967
22.361968
22.36197
22.361973
22.361972
22.361967
22.361965
22.361967
22.36197
22.36197
22.36197
22.361971
22.361973
22.36197
22.361961
22.361957
22.36196
22.361958
22.361951
22.361951
22.361952
22.361949
22.361946
22.361946
22.361947
22.361947
22.361948
22.361946
22.36194
22.361931
22.361929
22.361928
22.361924
22.361922
22.361919
22.361916
22.361914
22.361912
22.361905
22.361899
22.361899
22.361896
22.361889
22.361882
22.361882
22.361879
22.361872
22.361862
22.361859
22.361858
22.361854
22.361851
22.361849
22.361847
22.361841
22.361833
22.36183
22.361829
22.361825
22.361818
22.361811
22.361811
22.361809
22.361804
22.361796
22.361787
22.361787
22.361785
22.36178
22.361772
22.361764
22.361762
22.36176
22.361755
22.361746
22.361741
22.361739
22.361735
22.361727
22.361721
22.36172
22.361717
22.361712
22.361702
22.3617
22.361698
22.361695
22.361689
22.36168
22.361675
22.361675
22.361673
22.361667
22.361659
22.361651
22.361649
22.361649
22.361648
22.361644
22.361638
22.361631
22.361626
22.361625
22.361623
22.361618
22.361612
22.361604
22.3616
22.361598
22.361596
22.361592
22.361584
22.36158
22.361578
22.361576
22.361571
22.361564
22.361557
22.361552
22.36155
22.361548
22.361544
22.361538
22.36153
22.361522
22.36152
22.361519
22.361516
22.361512
22.361505
22.361497
22.361492
22.361491
22.36149
22.361486
22.361481
22.361475
22.361469
22.361467
22.361464
22.36146
22.361455
22.361448
22.361443
22.361442
22.361441
22.361438
22.361433
22.361427
22.361422
22.36142
22.361418
22.361413
22.361408
22.361402
22.361401
22.3614
22.361397
22.361393
22.361388
22.361382
22.361379
22.361377
22.361375
22.361371
22.361367
22.361361
22.361358
22.361357
22.361355
22.361351
22.361346
22.36134
22.361338
22.361336
22.361333
22.361329
22.361323
22.361319
22.361318
22.361317
22.361314
22.36131
22.361305
22.3613
22.361295
22.361294
22.361292
22.36129
22.361287
22.361284
22.36128
22.361277
22.361273
22.36127
22.361268
22.361265
22.361261
22.361257
22.361254
22.361252
22.361249
22.361246
22.361241
22.361237
22.361236
22.361233
22.36123
22.361225
22.361221
22.361218
22.361216
22.361213
22.361209
22.361206
22.361203
22.3612
22.361197
22.361194
22.36119
22.361186
22.361182
22.361178
22.361176
22.361174
22.361171
22.361167
22.361163
22.361158
22.361156
22.361154
22.361151
22.361147
22.361142
22.361139
22.361136
22.361133
22.361129
22.361125
22.361122
22.361121
22.361118
22.361114
22.36111
22.361106
22.361103
22.361101
22.361099
22.361096
22.361093
22.361089
22.361085
22.361083
22.361081
22.361078
22.361075
22.361072
22.36107
22.361068
22.361065
22.361062
22.361058
22.361056
22.361054
22.361051
22.361048
22.361045
22.361043
22.361041
22.361038
22.361035
22.361032
22.36103
22.361028
22.361025
22.361021
22.361017
22.361012
22.361012
22.361012
22.36101
22.361007
22.361003
22.360999
22.360996
22.360993
22.36099
22.360989
22.360987
22.360985
22.360982
22.360979
22.360975
22.360971
22.360968
22.360967
22.360966
22.360964
22.36096
22.360957
22.360953
22.36095
22.360947
22.360946
22.360944
22.360941
22.360938
22.360935
22.360931
22.360929
22.360927
22.360925
22.360922
22.360918
22.360916
22.360913
22.360911
22.360909
22.360906
22.360903
22.360901
22.360898
22.360895
22.360892
22.36089
22.360888
22.360886
22.360883
22.360879
22.360876
22.360875
22.360873
22.360871
22.360868
22.360864
22.360861
22.360859
22.360858
22.360856
22.360853
22.36085
22.360847
22.360844
22.360842
22.360841
22.360839
22.360837
22.360834
22.36083
22.360827
22.360825
22.360824
22.360822
22.360819
22.360817
22.360814
22.360812
22.360809
22.360807
22.360804
22.360802
22.3608
22.360798
22.360795
22.360792
22.360789
22.360787
22.360786
22.360784
22.360782
22.360779
22.360777
22.360775
22.360772
22.360769
22.360767
22.360766
22.360764
22.360761
22.360758
22.360756
22.360754
22.360752
22.36075
22.360747
22.360745
22.360743
22.360741
22.360739
22.360736
22.360734
22.360731
22.36073
22.360728
22.360725
22.360723
22.36072
22.360719
22.360717
22.360715
22.360713
22.36071
22.360708
22.360705
22.360704
22.360702
22.3607
22.360698
22.360696
22.360693
22.360691
22.36069
22.360688
22.360686
22.360684
22.360681
22.360679
22.360677
22.360676
22.360674
22.360671
22.360669
22.360666
22.360665
22.360664
22.360662
22.36066
22.360658
22.360656
22.360653
22.360651
22.360649
22.360648
22.360646
22.360644
22.360642
22.360639
22.360637
22.360636
22.360634
22.360633
22.36063
22.360628
22.360625
22.360624
22.360622
22.36062
22.360618
22.360615
22.360612
22.360611
22.36061
22.360608
22.360606
22.360604
22.360601
22.360598
22.360597
22.360595
22.360593
22.360591
22.360589
22.360586
22.360584
22.360583
22.36058
22.360578
22.360575
22.360573
22.360572
22.36057
22.360568
22.360565
22.360563
22.36056
22.360559
22.360557
22.360555
22.360552
22.36055
22.360548
22.360546
22.360544
22.360542
22.36054
22.360537
22.360535
22.360533
22.360532
22.36053
22.360528
22.360525
22.360522
22.360521
22.360519
22.360518
22.360516
22.360513
22.360511
22.360508
22.360507
22.360506
22.360504
22.360502
22.360499
22.360496
22.360495
22.360493
22.360492
22.36049
22.360487
22.360485
22.360483
22.360482
22.36048
22.360478
22.360476
22.360474
22.360472
22.36047
22.360468
22.360466
22.360463
22.360461
22.36046
22.360459
22.360457
22.360455
22.360452
22.360449
22.360447
22.360446
22.360445
22.360444
22.360442
22.360439
22.360437
22.360434
22.360432
22.360431
22.360429
22.360428
22.360426
22.360424
22.360421
22.360419
22.360417
22.360416
22.360414
22.360412
22.36041
22.360407
22.360405
22.360403
22.360402
22.3604
22.360398
22.360396
22.360394
22.360392
22.36039
22.360388
22.360386
22.360385
22.360383
22.360381
22.360379
22.360377
22.360375
22.360374
22.360372
22.36037
22.360368
22.360366
22.360364
22.360362
22.360361
22.360359
22.360357
22.360355
22.360353
22.360351
22.36035
22.360348
22.360347
22.360345
22.360342
22.360341
22.36034
22.360338
22.360336
22.360334
22.360332
22.360331
22.360329
22.360328
22.360326
22.360324
22.360322
22.360321
22.36032
22.360318
22.360317
22.360315
22.360312
22.36031
22.360309
22.360308
22.360307
22.360306
22.360304
22.360302
22.3603
22.360298
22.360297
22.360296
22.360294
22.360293
22.360291
22.360289
22.360288
22.360286
22.360285
22.360283
22.360281
22.36028
22.360279
22.360277
22.360276
22.360274
22.360272
22.36027
22.360269
22.360268
22.360266
22.360265
22.360263
22.360261
22.360259
22.360258
22.360257
22.360255
22.360253
22.360251
22.360249
22.360248
22.360246
22.360245
22.360243
22.360241
22.360238
22.360237
22.360235
22.360234
22.360232
22.36023
22.360228
22.360226
22.360225
22.360223
22.36022
22.360218
22.360216
22.360215
22.360213
22.360212