/*--------------------------------*- C++ -*----------------------------------*\
  =========                 |
  \\      /  F ield         | OpenFOAM: The Open Source CFD Toolbox
   \\    /   O peration     | Website:  https://openfoam.org
    \\  /    A nd           | Version:  7
     \\/     M anipulation  |
\*---------------------------------------------------------------------------*/
FoamFile
{
    version     2.0;
    format      ascii;
    class       volVectorField;
    location    "0.00065";
    object      U;
}
// * * * * * * * * * * * * * * * * * * * * * * * * * * * * * * * * * * * * * //

dimensions      [0 1 -1 0 0 0 0];

internalField   nonuniform List<vector> 
5000
(
(1.385047e-12 -5.06647e-28 0)
(1.6043194e-12 -7.599705e-28 0)
(1.598559e-12 0 0)
(1.3731963e-12 0 0)
(1.429944e-12 -6.3330875e-29 0)
(1.534627e-12 7.1998869e-44 -6.3330875e-29)
(1.701618e-12 6.3330875e-29 -1.3499788e-43)
(1.6770777e-12 0 1.8999262e-28)
(1.6862359e-12 0 1.8999262e-28)
(1.7424481e-12 -1.2533563e-43 -2.5067126e-43)
(1.7327414e-12 3.7998525e-28 3.7998525e-28)
(1.9643757e-12 -2.533235e-28 -2.533235e-28)
(1.7437939e-12 -3.1665437e-28 2.6999576e-42)
(1.6413349e-12 3.1665437e-28 2.7899562e-42)
(1.4336807e-12 0 -5.06647e-28)
(1.4420142e-12 6.3330875e-29 1.2666175e-28)
(1.5965997e-12 -9.7576662e-56 -4.8788331e-56)
(1.6397087e-12 1.2666175e-28 -1.1159825e-42)
(1.6751357e-12 0 -1.8999262e-28)
(1.6143761e-12 1.8999262e-28 3.7998525e-28)
(1.8939877e-12 -1.2666175e-28 1.2666175e-28)
(2.1599982e-12 -1.2666175e-28 0)
(1.8543203e-12 1.2666175e-28 0)
(1.7357814e-12 6.3330875e-29 6.3330875e-29)
(2.1409139e-12 -6.3330875e-29 5.3999152e-43)
(1.9935812e-12 3.9020458e-56 3.9020458e-56)
(1.8360719e-12 1.2666175e-28 -1.2666175e-28)
(2.063423e-12 1.8999262e-28 1.8999262e-28)
(2.1264979e-12 -1.2666175e-28 6.3330875e-29)
(1.9363937e-12 -2.1959655e-42 1.2666175e-28)
(2.1493547e-12 8.8558609e-42 -8.8558609e-42)
(2.0598568e-12 -4.4331612e-28 3.7799406e-42)
(1.7940202e-12 6.7448142e-42 -3.3724071e-42)
(1.7915537e-12 -1.2666175e-28 6.3330875e-29)
(1.5726565e-12 1.0660474e-55 4.729101e-42)
(1.721705e-12 5.5617077e-56 0)
(1.7832676e-12 9.2630984e-56 0)
(1.8566618e-12 -4.9251931e-42 2.4699692e-42)
(2.0404847e-12 1.2666175e-28 6.3330875e-29)
(1.9181854e-12 2.533235e-28 -1.2666175e-28)
(2.1334129e-12 -7.599705e-28 6.3718999e-42)
(2.0976767e-12 3.0491521e-41 4.4331612e-28)
(2.1569351e-12 5.06647e-28 -2.533235e-28)
(1.9271438e-12 -6.3330875e-29 1.0709832e-42)
(1.9489027e-12 1.8999262e-28 -6.3330875e-29)
(1.8570938e-12 -2.533235e-28 2.533235e-28)
(1.5063205e-12 -5.06647e-28 -1.7423726e-41)
(1.4874006e-12 -3.0365523e-41 1.5182761e-41)
(1.7440438e-12 -3.7998525e-28 -6.5338973e-42)
(1.9054228e-12 0 -1.8439897e-56)
(2.0040036e-12 -6.3330875e-29 -6.3330875e-29)
(2.0827e-12 -1.7999717e-44 0)
(1.8196296e-12 1.8999262e-28 0)
(2.0634144e-12 -3.7998525e-28 0)
(2.1288468e-12 6.6418956e-42 0)
(1.930733e-12 -1.2666175e-28 0)
(1.9083685e-12 1.8999262e-28 0)
(2.1099707e-12 -2.1869656e-42 0)
(1.8005888e-12 -2.533235e-28 0)
(1.881972e-12 0 0)
(2.3012164e-12 6.3330875e-29 0)
(2.1385842e-12 -2.1599661e-42 0)
(2.2770163e-12 -1.7016057e-58 0)
(2.2133042e-12 -1.2666175e-28 1.2666175e-28)
(2.3248401e-12 1.2666175e-28 1.2666175e-28)
(2.5614399e-12 -8.8558609e-42 -2.533235e-28)
(2.7077976e-12 -3.7998525e-28 6.5338973e-42)
(2.2234816e-12 1.2666175e-28 1.2197083e-56)
(2.4166478e-12 0 0)
(2.5881685e-12 6.3330875e-29 0)
(2.0172555e-12 1.8999262e-28 0)
(2.2432377e-12 -1.2666175e-28 -1.2666175e-28)
(2.049117e-12 -6.3330875e-29 -6.3330875e-29)
(2.1273112e-12 7.599705e-28 0)
(2.1474149e-12 5.6997787e-28 5.6997787e-28)
(2.2901381e-12 -2.533235e-28 8.7478626e-42)
(2.2187146e-12 0 -1.2666175e-28)
(2.196876e-12 3.1665437e-28 -3.1665437e-28)
(2.5442661e-12 -4.4999293e-44 3.1665437e-28)
(2.4456437e-12 -6.3330875e-29 1.2666175e-28)
(2.5733056e-12 -1.8999262e-28 3.7998525e-28)
(2.4526206e-12 1.7999717e-44 -3.5999434e-44)
(2.6157865e-12 3.5999434e-44 3.7998525e-28)
(2.6254758e-12 1.2666175e-28 -2.533235e-28)
(2.7781274e-12 6.3330875e-29 -6.5878965e-42)
(2.5901781e-12 2.2049654e-42 1.2666175e-28)
(2.6044617e-12 -3.7893863e-42 -1.1360786e-41)
(2.5841297e-12 0 -1.8999262e-28)
(2.3554398e-12 1.2666175e-28 -1.2666175e-28)
(3.0051605e-12 -1.3139794e-41 -1.2666175e-28)
(2.4324602e-12 -6.6418956e-42 1.8999262e-28)
(2.5047542e-12 6.3330875e-29 6.3330875e-29)
(2.7429237e-12 -4.1908951e-42 -1.4591269e-55)
(2.7943958e-12 1.6143746e-55 1.6143746e-55)
(2.6753499e-12 -1.6721619e-55 -1.6721619e-55)
(2.5505083e-12 1.2666175e-28 -1.2666175e-28)
(2.5681924e-12 0 -1.8999262e-28)
(2.6814072e-12 0 -2.2229651e-42)
(2.7105323e-12 -3.6242689e-42 2.523694e-55)
(2.6249542e-12 -4.391931e-42 1.2666175e-28)
(2.6421515e-12 -1.2666175e-28 -6.3330875e-29)
(2.3220409e-12 7.2526868e-42 7.2526868e-42)
(2.6919097e-12 5.3750202e-42 -9.7958704e-56)
(2.5063594e-12 0 2.9490737e-44)
(2.2447936e-12 1.1374004e-41 0)
(2.4897112e-12 -1.8999262e-28 1.8999262e-28)
(2.6477578e-12 1.8999262e-28 6.6148961e-42)
(2.4727401e-12 1.8999262e-28 -1.8999262e-28)
(2.3870782e-12 0 1.2666175e-28)
(2.5115037e-12 0 6.3330875e-29)
(2.5868654e-12 4.6506106e-42 9.3012212e-42)
(2.4853973e-12 1.2666175e-28 1.2666175e-28)
(2.3242797e-12 0 -3.7998525e-28)
(2.3657348e-12 6.3330875e-29 6.3330875e-29)
(2.1155707e-12 -8.8558609e-42 -7.599705e-28)
(2.1358389e-12 -3.1665437e-28 3.1665437e-28)
(2.3091167e-12 3.7998525e-28 3.7998525e-28)
(2.5453104e-12 -1.6199745e-43 3.2399491e-43)
(2.5719745e-12 1.3283791e-41 3.7998525e-28)
(2.5380341e-12 -1.8295624e-56 -9.4996312e-28)
(2.3030348e-12 -6.3330875e-28 2.2139652e-41)
(1.9011104e-12 -5.0506828e-56 -8.0477849e-42)
(2.2037041e-12 6.3330875e-29 -1.2666175e-28)
(2.2913869e-12 0 -1.2666175e-28)
(1.9941002e-12 1.8999262e-28 1.8999262e-28)
(1.9480226e-12 -2.533235e-28 -2.533235e-28)
(1.8187267e-12 -6.3330875e-29 6.3330875e-29)
(1.3509771e-12 -1.2666175e-28 -1.2666175e-28)
(1.3380839e-12 -1.8999262e-28 1.8999262e-28)
(1.3571404e-12 -1.2666175e-28 -2.1869656e-42)
(1.4683855e-12 -3.1665437e-28 -3.1665437e-28)
(1.5941103e-12 1.8999262e-28 -3.7998525e-28)
(1.3121168e-12 6.3330875e-29 6.3330875e-29)
(1.2395947e-12 -1.2666175e-28 -1.2666175e-28)
(1.4839901e-12 0 -3.7998525e-28)
(1.3700537e-12 3.1665437e-28 -1.1024827e-41)
(1.4726933e-12 -1.2666175e-28 4.391931e-42)
(1.5529066e-12 -7.5253561e-42 3.019045e-55)
(1.0469598e-12 -1.0979827e-41 6.3330875e-28)
(1.0918099e-12 6.3330875e-29 6.3330875e-29)
(1.451378e-12 6.3330875e-29 6.3330875e-29)
(1.1746568e-12 -1.2666175e-28 -2.533235e-28)
(1.049856e-12 0 -6.3330875e-29)
(1.2394585e-12 -6.3330875e-29 6.3330875e-29)
(1.1658043e-12 -6.3330875e-29 -4.391931e-42)
(1.3443553e-12 1.2666175e-28 -2.533235e-28)
(9.8643511e-13 1.4745368e-44 -1.0977501e-55)
(1.1144348e-12 -7.1998869e-44 3.5999434e-44)
(1.3259345e-12 -6.3330875e-29 5.4886873e-56)
(1.2834404e-12 -3.9556918e-43 -3.9556918e-43)
(1.203559e-12 6.3330875e-29 4.391931e-42)
(1.1837325e-12 4.4099307e-42 8.8198614e-42)
(1.0796916e-12 1.8999262e-28 1.8999262e-28)
(1.1024764e-12 -1.2666175e-28 -1.2666175e-28)
(8.7639349e-13 -6.3330875e-29 -6.3330875e-29)
(1.1176421e-12 -4.4331612e-28 -1.5371758e-41)
(1.3855319e-12 4.4331612e-28 4.4331612e-28)
(1.2088365e-12 0 -1.8999262e-28)
(1.3317715e-12 0 2.6999576e-44)
(1.3611928e-12 2.533235e-28 2.533235e-28)
(1.4905563e-12 1.2666175e-28 0)
(1.0875042e-12 6.3330875e-29 6.3330875e-29)
(1.2951146e-12 5.092357e-42 3.6398765e-55)
(1.5414041e-12 1.2666175e-28 2.533235e-28)
(1.5252279e-12 4.391931e-42 -6.3330875e-29)
(1.4867273e-12 1.2666175e-28 -3.5999434e-44)
(1.5587038e-12 -2.533235e-28 -2.533235e-28)
(1.5518188e-12 -6.3330875e-29 6.3330875e-29)
(1.4782741e-12 0 -6.3686473e-42)
(1.6158754e-12 6.3330875e-29 6.3330875e-29)
(1.5382584e-12 6.3330875e-29 -2.6387585e-41)
(1.4802857e-12 0 -3.5135448e-41)
(1.369369e-12 -1.2666175e-28 1.2666175e-28)
(1.3681953e-12 -6.3330875e-29 -1.2666175e-28)
(1.1869368e-12 0 0)
(1.2259318e-12 1.8999262e-28 -1.3175793e-41)
(1.0745193e-12 -3.936908e-55 3.936908e-55)
(1.0331165e-12 -1.8999262e-28 1.8999262e-28)
(9.9778438e-13 2.533235e-28 2.533235e-28)
(1.333524e-12 4.8177078e-42 3.4368935e-55)
(1.1454293e-12 1.2666175e-28 1.2666175e-28)
(8.3509299e-13 2.7149066e-55 -3.7519203e-42)
(1.1506129e-12 4.9595473e-55 4.9595473e-55)
(1.1223151e-12 4.9065257e-56 4.9065257e-56)
(1.1230848e-12 6.3330875e-29 8.7748621e-42)
(1.1892435e-12 -1.8999262e-28 -3.7998525e-28)
(1.2584316e-12 -3.5135448e-41 2.533235e-28)
(1.347092e-12 2.1779658e-41 3.1665437e-28)
(1.2747912e-12 -2.1779658e-41 -2.1779658e-41)
(1.2631583e-12 1.2666175e-28 8.7298628e-42)
(1.7721252e-12 0 1.3166793e-41)
(1.686504e-12 0 -8.7478626e-42)
(1.7120023e-12 4.5971553e-43 4.5971553e-43)
(1.6990053e-12 -2.533235e-28 0)
(1.5280309e-12 0 0)
(1.7259452e-12 0 0)
(1.5660341e-12 1.8999262e-28 0)
(1.5857689e-12 1.9028164e-69 -3.7998525e-28)
(1.7325316e-12 -1.8999262e-28 3.9608378e-41)
(1.2124188e-12 0 6.3330875e-29)
(1.5607795e-12 1.17563e-41 1.17563e-41)
(1.7368233e-12 6.3330875e-29 6.3330875e-29)
(1.6794965e-12 7.6435522e-55 2.7582932e-42)
(1.9911412e-12 -5.45244e-42 -5.45244e-42)
(1.9783872e-12 1.3791466e-42 -9.5446408e-56)
(1.9225015e-12 -1.3148793e-41 -1.3148793e-41)
(1.7755403e-12 -2.6999576e-44 -1.8999262e-28)
(2.0063416e-12 -1.8999262e-28 -1.8999262e-28)
(2.3720408e-12 3.1665437e-28 3.1665437e-28)
(2.0938672e-12 -6.299901e-44 0)
(2.3836515e-12 -4.3829311e-41 3.1665437e-28)
(2.4704889e-12 1.3148793e-41 1.3148793e-41)
(2.2936825e-12 -1.0519455e-41 -1.0519455e-41)
(2.3593795e-12 0 1.2666175e-28)
(2.4343136e-12 -1.8999262e-28 -2.6459584e-41)
(2.5271836e-12 -2.1914656e-41 -3.1665437e-28)
(2.473478e-12 -7.0306895e-41 5.06647e-28)
(2.369402e-12 -1.8999262e-28 -1.8999262e-28)
(2.3176454e-12 0 -6.3330875e-29)
(2.3216155e-12 -6.3330875e-29 -6.3330875e-29)
(2.2633683e-12 1.2666175e-28 -1.2666175e-28)
(2.4959077e-12 0 0)
(2.2742767e-12 0 0)
(2.4035058e-12 0 0)
(2.5621083e-12 -3.7998525e-28 -3.7998525e-28)
(2.5103213e-12 -1.3148793e-41 1.8999262e-28)
(2.0191654e-12 -1.8999262e-28 -3.7998525e-28)
(1.9922724e-12 0 3.1665437e-28)
(2.2850402e-12 0 3.9567575e-55)
(2.1805288e-12 -1.8999262e-28 -1.8999262e-28)
(2.3272431e-12 4.4162378e-42 4.4088651e-42)
(2.3313315e-12 1.2666175e-28 2.533235e-28)
(2.2978203e-12 3.1665437e-28 -8.9998586e-44)
(2.6254494e-12 0 1.2599802e-43)
(2.5347588e-12 -4.4331612e-28 -4.4331612e-28)
(2.1784064e-12 -1.2666175e-28 -1.2666175e-28)
(2.2218583e-12 -2.1282712e-58 -2.837695e-58)
(2.30295e-12 1.2666175e-28 -1.7999717e-44)
(2.1204194e-12 0 3.9581378e-41)
(1.9111343e-12 3.2755183e-42 3.282891e-42)
(1.989256e-12 5.2757171e-41 1.0551434e-40)
(1.7365522e-12 1.7567724e-41 3.5135448e-41)
(1.6799882e-12 -4.9178871e-43 -4.9178871e-43)
(1.7862996e-12 1.8999262e-28 1.8999262e-28)
(1.7784528e-12 1.8999262e-28 0)
(1.6550123e-12 0 -2.9507322e-42)
(1.7600426e-12 2.72622e-42 2.72622e-42)
(1.3177211e-12 8.8018617e-42 -6.3330875e-29)
(1.6613277e-12 -6.3330875e-29 6.3330875e-29)
(1.8032969e-12 1.7567724e-41 0)
(1.5623206e-12 -3.7998525e-28 -1.8999262e-28)
(1.5410835e-12 1.2666175e-28 1.2666175e-28)
(1.5839262e-12 -2.6351586e-41 1.8999262e-28)
(1.2067908e-12 -1.5390658e-40 -1.5390658e-40)
(1.0054872e-12 -3.0680518e-41 -8.8663225e-28)
(1.0501952e-12 -1.8999262e-28 -3.7998525e-28)
(1.332494e-12 6.3330875e-29 1.8999262e-28)
(1.2013484e-12 6.3330875e-29 1.2666175e-28)
(8.5385047e-13 0 0)
(1.1977363e-12 1.2666175e-28 2.533235e-28)
(1.4020314e-12 2.533235e-28 2.533235e-28)
(1.3270755e-12 0 -1.2666175e-28)
(9.5758348e-13 6.3330875e-29 6.3330875e-29)
(1.3043732e-12 1.7159528e-41 1.7159528e-41)
(1.3351111e-12 -7.0560988e-43 -7.0560988e-43)
(9.5041089e-13 -6.3330875e-29 -1.2666175e-28)
(1.2292542e-12 -2.533235e-28 -2.533235e-28)
(1.6160673e-12 -4.4331612e-28 -8.8663225e-28)
(1.6208197e-12 -7.0270896e-41 -7.0270896e-41)
(1.5361702e-12 1.2666175e-28 2.533235e-28)
(1.5238633e-12 -2.533235e-28 -2.533235e-28)
(1.7937412e-12 3.5135448e-41 7.0270896e-41)
(1.6326303e-12 3.7998525e-28 3.7998525e-28)
(1.4954521e-12 6.3330875e-29 1.2666175e-28)
(1.3428804e-12 -1.3202793e-41 -1.8999262e-28)
(1.2179775e-12 8.8198614e-42 1.7639723e-41)
(1.4663721e-12 -3.5999434e-44 1.2666175e-28)
(1.4948949e-12 -4.3739313e-42 -6.3330875e-29)
(1.5477074e-12 -6.3330875e-29 -6.3330875e-29)
(1.7567026e-12 0 5.06647e-28)
(1.3616655e-12 0 2.6423585e-41)
(1.5423902e-12 -3.7998525e-28 7.599705e-28)
(1.8088874e-12 -1.2666175e-28 -2.533235e-28)
(1.5394517e-12 0 -4.3829311e-42)
(1.8453441e-12 0 1.2666175e-28)
(1.8990343e-12 0 0)
(1.8502034e-12 0 0)
(1.9828838e-12 2.533235e-28 2.533235e-28)
(1.9255374e-12 1.3094794e-41 -1.8999262e-28)
(1.9328225e-12 -2.533235e-28 -2.533235e-28)
(1.8535773e-12 2.6999576e-44 6.3330875e-29)
(2.1858706e-12 -9.9832278e-43 1.2478956e-56)
(2.2804787e-12 -6.3330875e-29 -6.3330875e-29)
(2.8097481e-12 1.7585724e-41 -1.2666175e-28)
(2.583259e-12 8.7748621e-42 6.3330875e-29)
(2.275666e-12 -3.5999434e-44 0)
(2.2393858e-12 -4.4331612e-28 -4.4331612e-28)
(2.4113895e-12 -2.533235e-28 -2.533235e-28)
(2.7983486e-12 -2.533235e-28 0)
(2.6843831e-12 2.533235e-28 2.533235e-28)
(2.5684264e-12 -2.1879639e-41 -7.298128e-42)
(2.4788536e-12 -1.2666175e-28 -2.533235e-28)
(2.9658164e-12 3.7998525e-28 -1.3148793e-41)
(2.9212052e-12 0 1.079983e-43)
(2.7223176e-12 -2.533235e-28 -2.533235e-28)
(2.6238492e-12 -1.2666175e-28 -1.2666175e-28)
(2.4084979e-12 6.3330875e-29 6.3330875e-29)
(2.3434651e-12 1.7999717e-44 6.3330875e-29)
(2.6808132e-12 -5.3999152e-44 -1.2666175e-28)
(2.4822384e-12 1.7999717e-44 3.5999434e-44)
(2.646035e-12 2.533235e-28 5.06647e-28)
(2.4897253e-12 3.7998525e-28 -3.7998525e-28)
(2.5474731e-12 -2.533235e-28 -2.533235e-28)
(2.763764e-12 -6.3330875e-28 -3.1665437e-28)
(2.9764483e-12 3.7998525e-28 -5.2703172e-41)
(3.0108316e-12 6.0985414e-57 3.1665437e-28)
(2.989634e-12 1.8999262e-28 0)
(3.2160377e-12 2.0544614e-54 0)
(2.9653382e-12 2.533235e-28 1.2666175e-28)
(2.8734465e-12 0 -3.5171447e-41)
(3.1070794e-12 0 8.7883619e-41)
(3.4621944e-12 -5.06647e-28 3.5207447e-41)
(3.4289459e-12 1.7585724e-40 -3.1665437e-28)
(3.2804249e-12 3.7998525e-28 1.8999262e-28)
(3.2124607e-12 0 -2.6999576e-44)
(3.1269827e-12 -2.533235e-28 -2.533235e-28)
(2.9588981e-12 -1.8999262e-28 0)
(3.1039431e-12 2.533235e-28 0)
(3.3412957e-12 -3.9266014e-59 0)
(3.3653035e-12 -8.7928618e-42 0)
(3.3082349e-12 -8.9998586e-45 0)
(3.3651713e-12 -6.3330875e-29 0)
(3.1874482e-12 6.3330875e-29 0)
(3.1030471e-12 -2.8545127e-42 -2.8545127e-42)
(3.1861365e-12 0 0)
(3.1305196e-12 -6.3330875e-29 -6.3330875e-29)
(3.3173046e-12 -2.7480317e-54 0)
(3.4780684e-12 1.2666175e-28 1.2666175e-28)
(3.2318312e-12 -6.3330875e-28 8.783862e-41)
(2.8722547e-12 -2.4642408e-54 8.7808668e-42)
(2.986646e-12 -1.2666175e-28 0)
(3.0562958e-12 -3.5171447e-41 0)
(3.0142507e-12 -1.2666175e-28 -6.3330875e-29)
(2.8586379e-12 1.2666175e-28 -8.7928618e-42)
(2.5651991e-12 -6.3330875e-29 -6.3330875e-29)
(2.7826525e-12 6.3330875e-29 0)
(2.6558914e-12 1.7999717e-44 0)
(2.6948419e-12 3.7998525e-28 3.7998525e-28)
(2.6544006e-12 0 5.06647e-28)
(2.5457089e-12 0 -4.4331612e-28)
(2.7686431e-12 -6.3330875e-29 -6.3330875e-29)
(2.3267355e-12 -8.783862e-42 0)
(2.241509e-12 1.2666175e-28 6.3330875e-29)
(2.0816533e-12 -1.7999717e-44 -1.7999717e-44)
(1.9235256e-12 -1.8999262e-28 -6.3330875e-29)
(2.4135903e-12 1.8999262e-28 1.8999262e-28)
(2.3438485e-12 2.533235e-28 2.533235e-28)
(1.8940631e-12 0 0)
(2.2744891e-12 -6.3330875e-29 6.3330875e-29)
(2.480384e-12 -1.2666175e-28 0)
(2.4746743e-12 -3.7998525e-28 1.8999262e-28)
(2.0262867e-12 1.8999262e-28 1.8999262e-28)
(2.0153972e-12 3.1665437e-28 -3.1665437e-28)
(2.3274498e-12 3.1665437e-28 -3.1665437e-28)
(2.3039553e-12 -3.1665437e-28 0)
(2.3358042e-12 1.8079729e-69 3.7998525e-28)
(1.9949774e-12 3.7998525e-28 3.7998525e-28)
(2.0291818e-12 -3.7998525e-28 -3.7998525e-28)
(1.8558068e-12 1.2666175e-28 -1.2666175e-28)
(1.7784355e-12 2.533235e-28 0)
(1.5302833e-12 1.0529835e-40 0)
(1.6872656e-12 7.1998869e-44 0)
(1.8703883e-12 1.2666175e-28 0)
(2.1509377e-12 -2.533235e-28 0)
(1.997149e-12 3.1665437e-28 0)
(1.7897083e-12 8.7928618e-41 0)
(2.1350021e-12 1.7567724e-41 0)
(2.1418903e-12 6.3330875e-29 6.3330875e-29)
(2.0660396e-12 -1.2666175e-28 -9.7576662e-56)
(2.1877177e-12 6.0297572e-42 2.0099191e-42)
(2.026598e-12 -1.7567724e-41 0)
(1.5194422e-12 3.5135448e-41 0)
(1.6102487e-12 2.932991e-55 0)
(1.6776919e-12 1.7105694e-42 8.5528471e-43)
(1.3490732e-12 2.533235e-28 -1.7567724e-41)
(1.5934801e-12 -3.5135448e-41 1.2666175e-28)
(1.6605219e-12 -9.9426847e-42 -4.9713424e-42)
(1.5186378e-12 0 -8.7928618e-42)
(1.6868882e-12 0 -1.3229608e-58)
(1.3786604e-12 1.8999262e-28 -2.6378586e-41)
(1.7755501e-12 -8.783862e-42 6.3330875e-29)
(1.8159487e-12 1.8999262e-28 1.8999262e-28)
(1.3965683e-12 -1.2666175e-28 1.2666175e-28)
(1.3031723e-12 3.1665437e-28 -1.7594724e-40)
(1.483434e-12 -1.8999262e-28 6.3330875e-29)
(1.6187753e-12 1.8999262e-28 -1.8999262e-28)
(1.720466e-12 1.8999262e-28 0)
(1.4740424e-12 5.3999152e-44 0)
(1.7560364e-12 -1.5050071e-41 -1.5050071e-41)
(1.5603081e-12 0 -1.7585724e-41)
(1.4899046e-12 3.7998525e-28 1.8999262e-28)
(1.6902047e-12 5.06647e-28 -2.533235e-28)
(1.7247634e-12 -2.533235e-28 -2.533235e-28)
(1.8513558e-12 -5.06647e-28 0)
(1.6877143e-12 -1.2666175e-28 1.2666175e-28)
(1.7354103e-12 1.2666175e-28 6.3330875e-29)
(1.9696332e-12 1.2666175e-28 -6.3330875e-29)
(1.9655703e-12 1.2666175e-28 1.7576724e-41)
(1.4904549e-12 -2.533235e-28 -9.7576662e-56)
(1.7364157e-12 0 -4.3964309e-41)
(2.0467637e-12 6.3330875e-28 3.1665437e-28)
(1.9661709e-12 -4.4331612e-28 -4.4331612e-28)
(1.9535488e-12 -7.599705e-28 -1.9515332e-55)
(2.0108019e-12 3.1665437e-28 -4.3964309e-41)
(1.9940942e-12 2.533235e-28 -2.533235e-28)
(1.9497621e-12 -1.3801992e-58 0)
(1.8521147e-12 1.7208029e-54 0)
(1.641773e-12 3.1665437e-28 3.1665437e-28)
(1.4305763e-12 -5.6997787e-28 8.0998727e-44)
(1.4615578e-12 -5.06647e-28 -2.1081269e-40)
(1.8570641e-12 1.8999262e-28 1.8999262e-28)
(1.8878616e-12 -8.783862e-42 0)
(1.6198583e-12 -1.7999717e-44 0)
(1.9295392e-12 1.2304441e-54 8.7734941e-42)
(1.9835897e-12 3.7998525e-28 -1.0535234e-40)
(2.0540073e-12 -3.7998525e-28 -3.7998525e-28)
(1.9037087e-12 -1.1075887e-53 0)
(1.9512797e-12 -2.6378586e-41 0)
(2.1447905e-12 -8.7883619e-41 0)
(2.0141278e-12 -1.8999262e-28 -1.8999262e-28)
(2.0860447e-12 -1.2666175e-28 -1.7999717e-44)
(2.3664964e-12 2.6378586e-41 -1.8999262e-28)
(2.3902259e-12 1.7558724e-41 6.3330875e-29)
(2.2844715e-12 8.9998586e-45 -6.3330875e-29)
(2.4164277e-12 2.533235e-28 3.5207447e-41)
(2.3578651e-12 1.2666175e-28 2.533235e-28)
(2.3343514e-12 -6.3330875e-29 -6.3330875e-29)
(2.1970735e-12 1.3256913e-42 2.7608857e-55)
(2.3057944e-12 8.7928618e-42 -8.7928618e-42)
(2.4287942e-12 1.2666175e-28 8.7928618e-42)
(2.3158445e-12 1.2666175e-28 1.2666175e-28)
(2.1300532e-12 -5.06647e-28 0)
(2.0288834e-12 -2.533235e-28 0)
(1.9654562e-12 1.2666175e-28 -1.2666175e-28)
(1.9692205e-12 1.2666175e-28 -1.7585724e-41)
(1.9921404e-12 7.0306895e-41 7.0306895e-41)
(2.1643757e-12 -6.3330875e-29 -1.8295624e-56)
(2.3159179e-12 0 -8.6599468e-42)
(2.4317435e-12 0 -1.8999262e-28)
(2.32206e-12 -2.533235e-28 -2.533235e-28)
(2.5373444e-12 0 0)
(2.4191535e-12 -6.3330875e-29 -6.3330875e-29)
(2.2131325e-12 6.3330875e-29 -8.7928618e-42)
(2.2745629e-12 2.6999576e-44 1.8999262e-28)
(2.3907217e-12 -1.0120573e-53 0)
(2.5324872e-12 0 0)
(2.2069727e-12 -1.2666175e-28 -1.2666175e-28)
(2.3043193e-12 6.3330875e-29 1.7999717e-44)
(2.2217048e-12 -6.3330875e-29 1.8295624e-56)
(2.7287493e-12 3.7998525e-28 1.8999262e-28)
(2.6664157e-12 3.1665437e-28 -3.1665437e-28)
(2.5546147e-12 -3.7998525e-28 5.2649173e-41)
(2.8698264e-12 0 -1.7585724e-41)
(2.5934164e-12 0 -3.5153448e-41)
(2.718698e-12 -1.8999262e-28 -1.8999262e-28)
(2.4895274e-12 5.2784171e-41 1.8999262e-28)
(2.4300202e-12 -3.4444766e-41 9.5917746e-54)
(2.6111039e-12 0 -5.2784171e-41)
(2.8051865e-12 0 7.0378894e-41)
(2.9531396e-12 3.7998525e-28 3.7998525e-28)
(2.7528872e-12 -7.9162756e-41 -1.8999262e-28)
(2.7448732e-12 1.2666175e-28 -3.5171447e-41)
(2.3343924e-12 0 3.5243446e-41)
(2.361628e-12 0 0)
(2.768213e-12 0 2.533235e-28)
(2.6298229e-12 0 -1.8999262e-28)
(2.6289103e-12 0 2.6378586e-41)
(2.8923286e-12 0 -4.4999293e-44)
(2.6887944e-12 0 2.6378586e-41)
(2.6954126e-12 0 8.8018617e-42)
(2.6897186e-12 2.533235e-28 1.2666175e-28)
(3.0980283e-12 -3.5153448e-41 6.3330875e-29)
(2.740686e-12 -6.3330875e-29 -6.3330875e-29)
(2.7455889e-12 6.3330875e-29 6.3330875e-29)
(2.9661216e-12 2.533235e-28 -2.533235e-28)
(2.6312485e-12 -2.533235e-28 0)
(2.9798143e-12 1.0562234e-40 3.7998525e-28)
(2.9386488e-12 4.4331612e-28 4.4331612e-28)
(2.8133076e-12 8.7928618e-41 0)
(2.7900961e-12 1.2666175e-28 -1.2666175e-28)
(2.7073679e-12 0 -1.7585724e-41)
(2.5873776e-12 0 2.6999576e-44)
(2.7042085e-12 6.3330875e-29 8.783862e-42)
(2.7381734e-12 0 0)
(2.8346381e-12 0 0)
(2.8688868e-12 0 -1.7567724e-41)
(2.4631728e-12 0 5.2757171e-41)
(2.5571502e-12 0 7.2199722e-42)
(2.7033062e-12 0 6.3330875e-29)
(2.4461361e-12 0 6.8889531e-41)
(2.2354842e-12 0 -8.9998586e-45)
(2.5598872e-12 0 -1.7567724e-41)
(2.6075091e-12 -1.2666175e-28 -6.3330875e-29)
(2.4338572e-12 -5.3400034e-54 -6.4146353e-42)
(2.271017e-12 -2.533235e-28 1.7585724e-41)
(2.1297122e-12 2.533235e-28 2.533235e-28)
(2.5175854e-12 2.6999576e-44 0)
(2.457434e-12 1.2666175e-28 0)
(2.2773768e-12 -7.0234896e-41 0)
(2.0485351e-12 1.2666175e-28 6.3330875e-29)
(2.2423062e-12 1.2666175e-28 1.2666175e-28)
(2.5611747e-12 -1.2197083e-56 -1.2666175e-28)
(2.5221715e-12 -5.6997787e-28 -1.8999262e-28)
(2.428519e-12 0 0)
(2.2026455e-12 1.2666175e-28 6.3330875e-29)
(2.4760391e-12 0 2.533235e-28)
(2.2307808e-12 0 -3.1665437e-28)
(1.9537926e-12 -1.2666175e-28 -6.3330875e-29)
(1.9052884e-12 -1.7567724e-41 0)
(1.7941827e-12 -3.7998525e-28 -1.2666175e-28)
(2.0043957e-12 6.3330875e-29 -6.3330875e-29)
(1.7854945e-12 6.3330875e-29 6.3330875e-29)
(1.7729301e-12 -6.3330875e-29 1.7585724e-41)
(1.6006784e-12 1.8999262e-28 -1.8999262e-28)
(1.5151536e-12 -2.533235e-28 0)
(1.4920421e-12 -1.7567724e-41 0)
(1.2913233e-12 -6.3330875e-29 0)
(1.537168e-12 1.8999262e-28 0)
(1.4456824e-12 0 -6.3330875e-29)
(1.4823005e-12 -6.3330875e-29 -1.7567724e-41)
(1.3336907e-12 6.7353671e-43 -6.7353671e-43)
(1.2118966e-12 2.533235e-28 1.2666175e-28)
(1.3114877e-12 -2.533235e-28 3.5171447e-41)
(1.0878058e-12 -3.1665437e-28 -4.4009309e-41)
(1.1649504e-12 -2.533235e-28 1.2197083e-56)
(1.243215e-12 -6.3330875e-29 6.3330875e-29)
(1.0874703e-12 1.2666175e-28 6.3330875e-29)
(1.0829469e-12 6.3330875e-29 -1.2666175e-28)
(9.7846588e-13 -1.2666175e-28 -1.7585724e-41)
(8.154241e-13 0 2.6351586e-41)
(1.0507851e-12 -1.2666175e-28 1.2666175e-28)
(1.3885521e-12 3.1665437e-28 0)
(1.1663529e-12 6.3330875e-29 -6.3330875e-29)
(9.4877363e-13 5.6997787e-28 1.8999262e-28)
(9.9731985e-13 8.9998586e-44 -3.1665437e-28)
(8.9601521e-13 -5.06647e-28 -7.0270896e-41)
(8.0250563e-13 1.8999262e-28 1.8999262e-28)
(1.1314328e-12 2.6378586e-41 0)
(1.1892105e-12 1.2666175e-28 0)
(7.3976633e-13 -7.1998869e-44 -2.533235e-28)
(8.6494258e-13 -5.06647e-28 3.5135448e-41)
(9.1331015e-13 9.0842708e-42 9.0842708e-42)
(8.9512443e-13 0 0)
(8.9651293e-13 -3.5171447e-41 -1.2666175e-28)
(7.7999987e-13 -2.6999576e-44 2.6999576e-44)
(7.5370624e-13 -1.8999262e-28 -5.2757171e-41)
(9.6579296e-13 6.3330875e-29 -8.783862e-42)
(8.7010232e-13 2.6460694e-68 -9.5027932e-56)
(9.60397e-13 3.5135448e-41 2.533235e-28)
(7.6427516e-13 2.6999576e-44 -2.6999576e-44)
(5.5184787e-13 -6.3330875e-29 -1.7585724e-41)
(9.2734671e-13 -6.3330875e-29 6.3330875e-29)
(7.3248983e-13 6.0985414e-57 -1.8999262e-28)
(6.0140065e-13 5.2757171e-41 -5.2757171e-41)
(1.0454941e-12 2.6999576e-44 -2.6999576e-44)
(6.8569292e-13 7.599705e-28 5.2757171e-41)
(8.1609208e-13 7.9054758e-41 5.6997787e-28)
(6.923849e-13 -3.7998525e-28 -3.7998525e-28)
(5.9234198e-13 0 0)
(4.7341211e-13 0 -3.5162448e-41)
(4.6752554e-13 1.8999262e-28 2.6351586e-41)
(4.6024317e-13 5.2703172e-41 5.2703172e-41)
(1.4569481e-13 -6.3330875e-29 8.9998586e-45)
(3.0742984e-13 1.2666175e-28 1.2666175e-28)
(1.6821498e-13 -8.7928618e-42 -6.3330875e-29)
(7.3301108e-14 -1.2197083e-55 -1.2197083e-55)
(-1.3820633e-13 -2.6378586e-41 -2.6378586e-41)
(-9.7891258e-14 6.3330875e-29 1.7585724e-41)
(-1.2025908e-13 3.1665437e-28 -4.3964309e-41)
(-1.9597563e-14 2.6351586e-41 3.7998525e-28)
(2.4154331e-14 1.2666175e-28 1.2666175e-28)
(7.655578e-14 0 1.6471246e-41)
(-4.2916445e-14 0 -3.5171447e-41)
(2.1723323e-14 3.1665437e-28 4.3964309e-41)
(1.163195e-13 -3.7998525e-28 7.599705e-28)
(2.5777386e-13 2.1088469e-40 -2.533235e-28)
(2.3527553e-13 -1.2666175e-28 1.2666175e-28)
(5.4089751e-13 3.7998525e-28 5.9556068e-72)
(5.189409e-13 0 0)
(4.3884873e-13 -6.3330875e-29 6.0985414e-57)
(5.25071e-13 -1.8999262e-28 1.8999262e-28)
(5.4611343e-13 1.8999262e-28 -1.8999262e-28)
(7.0788297e-13 3.1665437e-28 1.8295624e-56)
(5.7965217e-13 0 4.391931e-41)
(5.7610574e-13 -6.3330875e-29 8.9998586e-45)
(4.6983013e-13 -1.2666175e-28 1.2666175e-28)
(3.7094423e-13 5.06647e-28 -5.06647e-28)
(3.3343752e-13 -1.2666175e-28 3.5171447e-41)
(1.7438435e-13 4.4331612e-28 -4.4331612e-28)
(3.1323205e-13 1.8999262e-28 2.6351586e-41)
(2.6714896e-13 1.7567724e-41 -1.7567724e-41)
(1.8034581e-13 2.533235e-28 2.533235e-28)
(4.1589748e-13 3.5171447e-41 -1.2666175e-28)
(2.6333363e-13 3.7998525e-28 -7.3182497e-56)
(4.689295e-13 0 1.0555034e-40)
(3.9797042e-13 0 -3.5189447e-41)
(3.1121063e-13 0 1.7576724e-41)
(1.8508112e-13 1.2666175e-28 -3.5171447e-41)
(1.5215616e-13 1.2666175e-28 1.2197083e-56)
(5.4477519e-13 0 0)
(3.7332913e-13 2.533235e-28 -2.533235e-28)
(2.8175441e-13 3.5099449e-41 0)
(2.4054709e-13 -6.3330875e-29 0)
(6.2748046e-14 0 -6.3330875e-29)
(2.0658246e-13 0 -1.7585724e-41)
(2.4269406e-13 -6.3330875e-29 6.3330875e-29)
(2.6074781e-13 -8.783862e-42 0)
(3.4706562e-13 1.7549724e-41 0)
(2.6343354e-13 -1.2666175e-28 -2.533235e-28)
(1.963131e-13 6.3330875e-29 -5.2721172e-41)
(3.6534683e-13 -5.2703172e-41 2.533235e-28)
(1.796848e-13 -6.3330875e-29 -6.3330875e-29)
(1.5679793e-13 0 -1.7999717e-44)
(-2.980883e-14 6.3330875e-29 8.7928618e-42)
(-8.5733402e-14 -8.9060829e-57 -6.4146353e-44)
(-8.5672297e-14 -1.2666175e-28 0)
(1.3724032e-13 1.2666175e-28 0)
(2.7126657e-13 3.2073177e-44 0)
(1.6640976e-13 1.3898376e-43 -1.3898376e-43)
(2.1507256e-13 1.2666175e-28 3.5135448e-41)
(3.392698e-13 0 -1.8999262e-28)
(5.1790623e-13 -1.8999262e-28 0)
(5.7576376e-13 -3.1665437e-28 0)
(7.0569316e-13 2.533235e-28 2.533235e-28)
(3.5383753e-13 -6.3330875e-29 8.9998586e-45)
(4.1668039e-13 0 1.2666175e-28)
(5.0888955e-13 -6.3330875e-29 0)
(4.6165828e-13 6.3330875e-29 0)
(4.361612e-13 1.2666175e-28 -1.2666175e-28)
(4.3483923e-13 -1.8999262e-28 -5.2703172e-41)
(1.256877e-13 -1.2666175e-28 -1.7594724e-41)
(1.8475063e-13 -7.0342895e-41 -3.5171447e-41)
(1.5361437e-14 -3.7998525e-28 -1.2666175e-28)
(1.5378563e-13 -1.8295624e-56 -1.8999262e-28)
(2.565706e-13 -3.1665437e-28 8.7883619e-41)
(1.240941e-14 -5.06647e-28 -7.0306895e-41)
(1.7151748e-14 2.1081269e-40 1.0540634e-40)
(-6.7693448e-15 5.06647e-28 2.533235e-28)
(1.8799775e-13 -6.3330875e-29 0)
(3.8641829e-13 1.8999262e-28 0)
(2.8843159e-13 -2.533235e-28 -2.533235e-28)
(1.3275197e-13 -1.8999262e-28 -1.5246353e-55)
(3.0234036e-13 5.06647e-28 2.533235e-28)
(3.6440685e-13 0 0)
(4.3840155e-13 0 0)
(5.0719638e-13 -1.2666175e-28 -6.3330875e-29)
(5.6015006e-13 4.8788331e-56 9.7576662e-56)
(7.2939722e-13 -3.5595346e-41 -1.7797673e-41)
(6.2740906e-13 0 0)
(5.0950857e-13 0 0)
(4.0969971e-13 -8.8663225e-28 -4.4331612e-28)
(3.6943371e-13 -4.8788331e-56 -9.7576662e-56)
(3.7447478e-13 6.3330875e-28 3.1665437e-28)
(5.0750949e-13 0 0)
(6.2649072e-13 0 0)
(7.6672171e-13 3.7998525e-28 1.8999262e-28)
(4.4862926e-13 -6.3330875e-29 8.9998586e-45)
(2.8291392e-13 6.3330875e-28 3.1665437e-28)
(2.3688109e-13 3.1665437e-28 -3.1665437e-28)
(2.8497129e-13 0 7.0378894e-41)
(2.2499258e-13 -2.533235e-28 -3.5189447e-41)
(4.6957994e-13 -7.0342895e-41 -3.5171447e-41)
(4.3004933e-13 -5.06647e-28 -2.533235e-28)
(4.2385289e-13 2.533235e-28 0)
(3.5089818e-13 0 0)
(2.4208498e-13 -6.3330875e-29 0)
(9.750563e-14 2.533235e-28 0)
(1.8075899e-13 -4.4999293e-44 0)
(1.4730938e-13 -6.3330875e-29 6.3330875e-29)
(-6.634505e-15 6.3330875e-29 -1.7576724e-41)
(2.5436429e-13 -1.8999262e-28 -1.8999262e-28)
(1.3324896e-13 -1.2666175e-28 0)
(4.6057933e-13 6.3330875e-29 0)
(8.955262e-14 -1.8999262e-28 0)
(2.3671426e-13 3.5171447e-41 0)
(3.4233297e-13 -1.2666175e-28 0)
(2.7372269e-13 1.8999262e-28 0)
(2.0927516e-13 7.0342895e-41 0)
(1.2384797e-13 -6.3330875e-29 6.3330875e-29)
(1.088451e-13 -1.8999262e-28 1.0546034e-40)
(2.2162085e-13 1.8999262e-28 1.8999262e-28)
(2.5995829e-13 2.533235e-28 0)
(1.9957332e-13 5.2938093e-41 0)
(5.0725126e-13 5.06647e-28 0)
(3.0339256e-13 -1.4068579e-40 0)
(3.1690407e-13 -1.8999262e-28 0)
(1.9365766e-13 6.3330875e-29 0)
(1.8245653e-13 -8.9998586e-45 0)
(2.0422016e-13 -6.3330875e-29 6.3330875e-29)
(1.9884121e-13 6.3330875e-29 -1.7576724e-41)
(2.5829169e-13 -6.3330875e-29 -6.3330875e-29)
(2.4427627e-13 -1.2829271e-43 0)
(2.492917e-13 1.8248394e-43 0)
(3.6747527e-13 -7.0919361e-41 -3.545968e-41)
(3.4751008e-13 3.5189447e-41 1.7594724e-41)
(3.7284766e-13 2.533235e-28 1.2666175e-28)
(4.6787123e-13 -1.8999262e-28 0)
(4.0709504e-13 1.7999717e-44 0)
(5.5560553e-13 3.7998525e-28 0)
(4.136159e-13 5.3999152e-44 -1.8999262e-28)
(6.1888792e-13 -1.6772067e-41 -4.6699833e-54)
(5.7399671e-13 0 -1.2666175e-28)
(4.1814706e-13 -6.3330875e-29 0)
(4.4076633e-13 0 0)
(2.4777531e-13 6.3330875e-29 0)
(1.1661015e-13 0 0)
(1.1210646e-13 0 0)
(8.4515693e-14 0 0)
(1.970341e-13 -6.3330875e-29 0)
(3.3720632e-13 -6.0985414e-57 6.3330875e-29)
(1.5371687e-13 -6.3330875e-29 -8.9998586e-45)
(1.5745169e-13 0 6.3330875e-29)
(2.4145594e-13 -1.7812418e-41 0)
(2.5940766e-13 1.7585724e-41 0)
(2.4170587e-13 -6.3330875e-29 0)
(1.5560932e-13 0 0)
(2.3033425e-13 0 0)
(4.5623437e-13 0 0)
(6.1494733e-13 2.533235e-28 0)
(5.1138506e-13 -5.2757171e-41 1.8999262e-28)
(7.4563762e-13 -1.2666175e-28 1.7999717e-44)
(6.258639e-13 0 6.3330875e-29)
(6.3339515e-13 2.533235e-28 0)
(5.8555126e-13 3.5153448e-41 0)
(4.8623631e-13 -1.2666175e-28 0)
(5.4027646e-13 0 -1.2666175e-28)
(7.4589059e-13 -1.2666175e-28 -7.0324895e-41)
(7.7727708e-13 1.2666175e-28 -1.2666175e-28)
(9.1373439e-13 3.5189447e-41 0)