/*--------------------------------*- C++ -*----------------------------------*\
  =========                 |
  \\      /  F ield         | OpenFOAM: The Open Source CFD Toolbox
   \\    /   O peration     | Website:  https://openfoam.org
    \\  /    A nd           | Version:  7
     \\/     M anipulation  |
\*---------------------------------------------------------------------------*/
FoamFile
{
    version     2.0;
    format      ascii;
    class       volScalarField;
    location    "0.00299";
    object      p;
}
// * * * * * * * * * * * * * * * * * * * * * * * * * * * * * * * * * * * * * //

dimensions      [1 -1 -2 0 0 0 0];

internalField   nonuniform List<scalar> 
5000
(
99789.048
99789.049
99789.049
99789.049
99789.049
99789.049
99789.049
99789.049
99789.049
99789.049
99789.049
99789.049
99789.049
99789.05
99789.05
99789.05
99789.05
99789.05
99789.05
99789.05
99789.05
99789.05
99789.05
99789.05
99789.05
99789.051
99789.051
99789.051
99789.051
99789.051
99789.051
99789.051
99789.051
99789.051
99789.051
99789.051
99789.051
99789.051
99789.052
99789.052
99789.052
99789.052
99789.052
99789.052
99789.052
99789.052
99789.052
99789.052
99789.052
99789.052
99789.053
99789.053
99789.053
99789.053
99789.053
99789.053
99789.053
99789.053
99789.053
99789.053
99789.053
99789.053
99789.053
99789.054
99789.054
99789.054
99789.054
99789.054
99789.054
99789.054
99789.054
99789.054
99789.054
99789.054
99789.054
99789.054
99789.055
99789.055
99789.055
99789.055
99789.055
99789.055
99789.055
99789.055
99789.055
99789.055
99789.055
99789.055
99789.055
99789.055
99789.056
99789.056
99789.056
99789.056
99789.056
99789.056
99789.056
99789.056
99789.056
99789.056
99789.056
99789.056
99789.056
99789.056
99789.057
99789.057
99789.057
99789.057
99789.057
99789.057
99789.057
99789.057
99789.057
99789.057
99789.057
99789.057
99789.057
99789.057
99789.058
99789.058
99789.058
99789.058
99789.058
99789.058
99789.058
99789.058
99789.058
99789.058
99789.058
99789.058
99789.058
99789.058
99789.059
99789.059
99789.059
99789.059
99789.059
99789.059
99789.059
99789.059
99789.059
99789.059
99789.059
99789.059
99789.059
99789.059
99789.059
99789.06
99789.06
99789.06
99789.06
99789.06
99789.06
99789.06
99789.06
99789.06
99789.06
99789.06
99789.06
99789.06
99789.06
99789.061
99789.061
99789.061
99789.061
99789.061
99789.061
99789.061
99789.061
99789.061
99789.061
99789.061
99789.061
99789.061
99789.061
99789.062
99789.062
99789.062
99789.062
99789.062
99789.062
99789.062
99789.062
99789.062
99789.062
99789.062
99789.062
99789.062
99789.062
99789.063
99789.063
99789.063
99789.063
99789.063
99789.063
99789.063
99789.063
99789.063
99789.063
99789.063
99789.063
99789.064
99789.064
99789.064
99789.064
99789.064
99789.064
99789.064
99789.064
99789.064
99789.064
99789.064
99789.064
99789.064
99789.065
99789.065
99789.065
99789.065
99789.065
99789.065
99789.065
99789.065
99789.065
99789.065
99789.065
99789.066
99789.066
99789.066
99789.066
99789.066
99789.066
99789.066
99789.066
99789.066
99789.066
99789.066
99789.066
99789.067
99789.067
99789.067
99789.067
99789.067
99789.067
99789.067
99789.067
99789.067
99789.067
99789.068
99789.068
99789.068
99789.068
99789.068
99789.068
99789.068
99789.068
99789.068
99789.068
99789.068
99789.069
99789.069
99789.069
99789.069
99789.069
99789.069
99789.069
99789.069
99789.069
99789.07
99789.07
99789.07
99789.07
99789.07
99789.07
99789.07
99789.07
99789.07
99789.07
99789.071
99789.071
99789.071
99789.071
99789.071
99789.071
99789.071
99789.071
99789.071
99789.072
99789.072
99789.072
99789.072
99789.072
99789.072
99789.072
99789.072
99789.072
99789.073
99789.073
99789.073
99789.073
99789.073
99789.073
99789.073
99789.073
99789.073
99789.074
99789.074
99789.074
99789.074
99789.074
99789.074
99789.074
99789.074
99789.074
99789.075
99789.075
99789.075
99789.075
99789.075
99789.075
99789.075
99789.075
99789.075
99789.076
99789.076
99789.076
99789.076
99789.076
99789.076
99789.076
99789.076
99789.076
99789.077
99789.077
99789.077
99789.077
99789.077
99789.077
99789.077
99789.077
99789.078
99789.078
99789.078
99789.078
99789.078
99789.078
99789.078
99789.078
99789.078
99789.079
99789.079
99789.079
99789.079
99789.079
99789.079
99789.079
99789.079
99789.08
99789.08
99789.08
99789.08
99789.08
99789.08
99789.08
99789.08
99789.081
99789.081
99789.081
99789.081
99789.081
99789.081
99789.081
99789.081
99789.081
99789.082
99789.082
99789.082
99789.082
99789.082
99789.082
99789.082
99789.082
99789.083
99789.083
99789.083
99789.083
99789.083
99789.083
99789.083
99789.083
99789.083
99789.084
99789.084
99789.084
99789.084
99789.084
99789.084
99789.084
99789.084
99789.085
99789.085
99789.085
99789.085
99789.085
99789.085
99789.085
99789.085
99789.085
99789.086
99789.086
99789.086
99789.086
99789.086
99789.086
99789.086
99789.086
99789.086
99789.087
99789.087
99789.087
99789.087
99789.087
99789.087
99789.087
99789.087
99789.088
99789.088
99789.088
99789.088
99789.088
99789.088
99789.088
99789.088
99789.088
99789.089
99789.089
99789.089
99789.089
99789.089
99789.089
99789.089
99789.089
99789.09
99789.09
99789.09
99789.09
99789.09
99789.09
99789.09
99789.09
99789.09
99789.091
99789.091
99789.091
99789.091
99789.091
99789.091
99789.091
99789.091
99789.091
99789.092
99789.092
99789.092
99789.092
99789.092
99789.092
99789.092
99789.092
99789.093
99789.093
99789.093
99789.093
99789.093
99789.093
99789.093
99789.093
99789.094
99789.094
99789.094
99789.094
99789.094
99789.094
99789.094
99789.094
99789.094
99789.095
99789.095
99789.095
99789.095
99789.095
99789.095
99789.095
99789.095
99789.096
99789.096
99789.096
99789.096
99789.096
99789.096
99789.096
99789.096
99789.097
99789.097
99789.097
99789.097
99789.097
99789.097
99789.097
99789.097
99789.098
99789.098
99789.098
99789.098
99789.098
99789.098
99789.098
99789.098
99789.099
99789.099
99789.099
99789.099
99789.099
99789.099
99789.099
99789.099
99789.1
99789.1
99789.1
99789.1
99789.1
99789.1
99789.1
99789.1
99789.101
99789.101
99789.101
99789.101
99789.101
99789.101
99789.101
99789.102
99789.102
99789.102
99789.102
99789.102
99789.102
99789.102
99789.102
99789.103
99789.103
99789.103
99789.103
99789.103
99789.103
99789.103
99789.104
99789.104
99789.104
99789.104
99789.104
99789.104
99789.104
99789.105
99789.105
99789.105
99789.105
99789.105
99789.105
99789.105
99789.106
99789.106
99789.106
99789.106
99789.106
99789.106
99789.106
99789.107
99789.107
99789.107
99789.107
99789.107
99789.107
99789.107
99789.108
99789.108
99789.108
99789.108
99789.108
99789.108
99789.109
99789.109
99789.109
99789.109
99789.109
99789.109
99789.109
99789.11
99789.11
99789.11
99789.11
99789.11
99789.11
99789.111
99789.111
99789.111
99789.111
99789.111
99789.111
99789.111
99789.112
99789.112
99789.112
99789.112
99789.112
99789.112
99789.113
99789.113
99789.113
99789.113
99789.113
99789.113
99789.114
99789.114
99789.114
99789.114
99789.114
99789.114
99789.114
99789.115
99789.115
99789.115
99789.115
99789.115
99789.115
99789.116
99789.116
99789.116
99789.116
99789.116
99789.116
99789.117
99789.117
99789.117
99789.117
99789.117
99789.117
99789.118
99789.118
99789.118
99789.118
99789.118
99789.118
99789.119
99789.119
99789.119
99789.119
99789.119
99789.119
99789.12
99789.12
99789.12
99789.12
99789.12
99789.12
99789.121
99789.121
99789.121
99789.121
99789.121
99789.121
99789.122
99789.122
99789.122
99789.122
99789.122
99789.122
99789.123
99789.123
99789.123
99789.123
99789.123
99789.123
99789.124
99789.124
99789.124
99789.124
99789.124
99789.125
99789.125
99789.125
99789.125
99789.125
99789.125
99789.126
99789.126
99789.126
99789.126
99789.126
99789.126
99789.127
99789.127
99789.127
99789.127
99789.127
99789.127
99789.128
99789.128
99789.128
99789.128
99789.128
99789.129
99789.129
99789.129
99789.129
99789.129
99789.129
99789.13
99789.13
99789.13
99789.13
99789.13
99789.13
99789.131
99789.131
99789.131
99789.131
99789.131
99789.132
99789.132
99789.132
99789.132
99789.132
99789.132
99789.133
99789.133
99789.133
99789.133
99789.133
99789.133
99789.134
99789.134
99789.134
99789.134
99789.134
99789.135
99789.135
99789.135
99789.135
99789.135
99789.135
99789.136
99789.136
99789.136
99789.136
99789.136
99789.137
99789.137
99789.137
99789.137
99789.137
99789.137
99789.138
99789.138
99789.138
99789.138
99789.138
99789.139
99789.139
99789.139
99789.139
99789.139
99789.14
99789.14
99789.14
99789.14
99789.14
99789.14
99789.141
99789.141
99789.141
99789.141
99789.141
99789.142
99789.142
99789.142
99789.142
99789.142
99789.143
99789.143
99789.143
99789.143
99789.143
99789.143
99789.144
99789.144
99789.144
99789.144
99789.144
99789.145
99789.145
99789.145
99789.145
99789.145
99789.146
99789.146
99789.146
99789.146
99789.146
99789.147
99789.147
99789.147
99789.147
99789.147
99789.148
99789.148
99789.148
99789.148
99789.148
99789.149
99789.149
99789.149
99789.149
99789.149
99789.15
99789.15
99789.15
99789.15
99789.15
99789.151
99789.151
99789.151
99789.151
99789.151
99789.152
99789.152
99789.152
99789.152
99789.152
99789.153
99789.153
99789.153
99789.153
99789.153
99789.154
99789.154
99789.154
99789.154
99789.154
99789.155
99789.155
99789.155
99789.155
99789.155
99789.156
99789.156
99789.156
99789.156
99789.156
99789.157
99789.157
99789.157
99789.157
99789.158
99789.158
99789.158
99789.158
99789.158
99789.159
99789.159
99789.159
99789.159
99789.159
99789.16
99789.16
99789.16
99789.16
99789.161
99789.161
99789.161
99789.161
99789.161
99789.162
99789.162
99789.162
99789.162
99789.162
99789.163
99789.163
99789.163
99789.163
99789.164
99789.164
99789.164
99789.164
99789.164
99789.165
99789.165
99789.165
99789.165
99789.166
99789.166
99789.166
99789.166
99789.166
99789.167
99789.167
99789.167
99789.167
99789.168
99789.168
99789.168
99789.168
99789.169
99789.169
99789.169
99789.169
99789.169
99789.17
99789.17
99789.17
99789.17
99789.171
99789.171
99789.171
99789.171
99789.172
99789.172
99789.172
99789.172
99789.172
99789.173
99789.173
99789.173
99789.173
99789.174
99789.174
99789.174
99789.174
99789.175
99789.175
99789.175
99789.175
99789.176
99789.176
99789.176
99789.176
99789.177
99789.177
99789.177
99789.177
99789.178
99789.178
99789.178
99789.178
99789.179
99789.179
99789.179
99789.179
99789.18
99789.18
99789.18
99789.18
99789.181
99789.181
99789.181
99789.181
99789.182
99789.182
99789.182
99789.182
99789.183
99789.183
99789.183
99789.183
99789.184
99789.184
99789.184
99789.184
99789.185
99789.185
99789.185
99789.185
99789.186
99789.186
99789.186
99789.186
99789.187
99789.187
99789.187
99789.187
99789.188
99789.188
99789.188
99789.189
99789.189
99789.189
99789.189
99789.19
99789.19
99789.19
99789.19
99789.191
99789.191
99789.191
99789.191
99789.192
99789.192
99789.192
99789.193
99789.193
99789.193
99789.193
99789.194
99789.194
99789.194
99789.194
99789.195
99789.195
99789.195
99789.196
99789.196
99789.196
99789.196
99789.197
99789.197
99789.197
99789.197
99789.198
99789.198
99789.198
99789.199
99789.199
99789.199
99789.199
99789.2
99789.2
99789.2
99789.201
99789.201
99789.201
99789.201
99789.202
99789.202
99789.202
99789.202
99789.203
99789.203
99789.203
99789.204
99789.204
99789.204
99789.204
99789.205
99789.205
99789.205
99789.206
99789.206
99789.206
99789.206
99789.207
99789.207
99789.207
99789.208
99789.208
99789.208
99789.208
99789.209
99789.209
99789.209
99789.21
99789.21
99789.21
99789.21
99789.211
99789.211
99789.211
99789.212
99789.212
99789.212
99789.213
99789.213
99789.213
99789.213
99789.214
99789.214
99789.214
99789.215
99789.215
99789.215
99789.215
99789.216
99789.216
99789.216
99789.217
99789.217
99789.217
99789.218
99789.218
99789.218
99789.218
99789.219
99789.219
99789.219
99789.22
99789.22
99789.22
99789.221
99789.221
99789.221
99789.221
99789.222
99789.222
99789.222
99789.223
99789.223
99789.223
99789.224
99789.224
99789.224
99789.224
99789.225
99789.225
99789.225
99789.226
99789.226
99789.226
99789.227
99789.227
99789.227
99789.227
99789.228
99789.228
99789.228
99789.229
99789.229
99789.229
99789.23
99789.23
99789.23
99789.231
99789.231
99789.231
99789.231
99789.232
99789.232
99789.232
99789.233
99789.233
99789.233
99789.234
99789.234
99789.234
99789.235
99789.235
99789.235
99789.236
99789.236
99789.236
99789.236
99789.237
99789.237
99789.237
99789.238
99789.238
99789.238
99789.239
99789.239
99789.239
99789.24
99789.24
99789.24
99789.241
99789.241
99789.241
99789.242
99789.242
99789.242
99789.242
99789.243
99789.243
99789.243
99789.244
99789.244
99789.244
99789.245
99789.245
99789.245
99789.246
99789.246
99789.246
99789.247
99789.247
99789.247
99789.248
99789.248
99789.248
99789.249
99789.249
99789.249
99789.25
99789.25
99789.25
99789.251
99789.251
99789.251
99789.252
99789.252
99789.252
99789.253
99789.253
99789.253
99789.254
99789.254
99789.254
99789.255
99789.255
99789.255
99789.256
99789.256
99789.256
99789.257
99789.257
99789.257
99789.258
99789.258
99789.259
99789.259
99789.259
99789.26
99789.26
99789.26
99789.261
99789.261
99789.261
99789.262
99789.262
99789.262
99789.263
99789.263
99789.263
99789.264
99789.264
99789.264
99789.265
99789.265
99789.266
99789.266
99789.266
99789.267
99789.267
99789.267
99789.268
99789.268
99789.268
99789.269
99789.269
99789.269
99789.27
99789.27
99789.271
99789.271
99789.271
99789.272
99789.272
99789.272
99789.273
99789.273
99789.273
99789.274
99789.274
99789.275
99789.275
99789.275
99789.276
99789.276
99789.276
99789.277
99789.277
99789.278
99789.278
99789.278
99789.279
99789.279
99789.279
99789.28
99789.28
99789.281
99789.281
99789.281
99789.282
99789.282
99789.282
99789.283
99789.283
99789.284
99789.284
99789.284
99789.285
99789.285
99789.286
99789.286
99789.286
99789.287
99789.287
99789.287
99789.288
99789.288
99789.289
99789.289
99789.289
99789.29
99789.29
99789.291
99789.291
99789.291
99789.292
99789.292
99789.293
99789.293
99789.293
99789.294
99789.294
99789.295
99789.295
99789.295
99789.296
99789.296
99789.297
99789.297
99789.297
99789.298
99789.298
99789.299
99789.299
99789.299
99789.3
99789.3
99789.301
99789.301
99789.302
99789.302
99789.302
99789.303
99789.303
99789.304
99789.304
99789.304
99789.305
99789.305
99789.306
99789.306
99789.307
99789.307
99789.307
99789.308
99789.308
99789.309
99789.309
99789.31
99789.31
99789.311
99789.311
99789.311
99789.312
99789.312
99789.313
99789.313
99789.314
99789.314
99789.314
99789.315
99789.315
99789.316
99789.316
99789.317
99789.317
99789.318
99789.318
99789.319
99789.319
99789.319
99789.32
99789.32
99789.321
99789.321
99789.322
99789.322
99789.323
99789.323
99789.324
99789.324
99789.325
99789.325
99789.325
99789.326
99789.326
99789.327
99789.327
99789.328
99789.328
99789.329
99789.329
99789.33
99789.33
99789.331
99789.331
99789.332
99789.332
99789.333
99789.333
99789.334
99789.334
99789.335
99789.335
99789.336
99789.336
99789.337
99789.337
99789.338
99789.338
99789.339
99789.339
99789.34
99789.34
99789.341
99789.341
99789.342
99789.342
99789.343
99789.343
99789.344
99789.344
99789.345
99789.345
99789.346
99789.346
99789.347
99789.347
99789.348
99789.348
99789.349
99789.349
99789.35
99789.35
99789.351
99789.352
99789.352
99789.353
99789.353
99789.354
99789.354
99789.355
99789.355
99789.356
99789.356
99789.357
99789.357
99789.358
99789.359
99789.359
99789.36
99789.36
99789.361
99789.361
99789.362
99789.362
99789.363
99789.364
99789.364
99789.365
99789.365
99789.366
99789.366
99789.367
99789.368
99789.368
99789.369
99789.369
99789.37
99789.37
99789.371
99789.372
99789.372
99789.373
99789.373
99789.374
99789.374
99789.375
99789.376
99789.376
99789.377
99789.377
99789.378
99789.379
99789.379
99789.38
99789.38
99789.381
99789.382
99789.382
99789.383
99789.384
99789.384
99789.385
99789.385
99789.386
99789.387
99789.387
99789.388
99789.388
99789.389
99789.39
99789.39
99789.391
99789.392
99789.392
99789.393
99789.394
99789.394
99789.395
99789.395
99789.396
99789.397
99789.397
99789.398
99789.399
99789.399
99789.4
99789.401
99789.401
99789.402
99789.403
99789.403
99789.404
99789.405
99789.405
99789.406
99789.407
99789.407
99789.408
99789.409
99789.409
99789.41
99789.411
99789.411
99789.412
99789.413
99789.414
99789.414
99789.415
99789.416
99789.416
99789.417
99789.418
99789.419
99789.419
99789.42
99789.421
99789.421
99789.422
99789.423
99789.424
99789.424
99789.425
99789.426
99789.427
99789.427
99789.428
99789.429
99789.43
99789.43
99789.431
99789.432
99789.433
99789.433
99789.434
99789.435
99789.436
99789.436
99789.437
99789.438
99789.439
99789.44
99789.44
99789.441
99789.442
99789.443
99789.444
99789.444
99789.445
99789.446
99789.447
99789.448
99789.448
99789.449
99789.45
99789.451
99789.452
99789.453
99789.453
99789.454
99789.455
99789.456
99789.457
99789.458
99789.459
99789.459
99789.46
99789.461
99789.462
99789.463
99789.464
99789.465
99789.466
99789.467
99789.467
99789.468
99789.469
99789.47
99789.471
99789.472
99789.473
99789.474
99789.475
99789.476
99789.477
99789.478
99789.479
99789.48
99789.481
99789.482
99789.483
99789.484
99789.485
99789.486
99789.487
99789.488
99789.489
99789.49
99789.491
99789.492
99789.493
99789.494
99789.495
99789.496
99789.497
99789.498
99789.499
99789.5
99789.501
99789.502
99789.504
99789.505
99789.506
99789.507
99789.508
99789.509
99789.51
99789.511
99789.513
99789.514
99789.515
99789.516
99789.517
99789.518
99789.52
99789.521
99789.522
99789.523
99789.524
99789.526
99789.527
99789.528
99789.529
99789.531
99789.532
99789.533
99789.535
99789.536
99789.537
99789.539
99789.54
99789.541
99789.543
99789.544
99789.545
99789.547
99789.548
99789.549
99789.551
99789.552
99789.554
99789.555
99789.557
99789.558
99789.559
99789.561
99789.562
99789.564
99789.565
99789.567
99789.569
99789.57
99789.572
99789.573
99789.575
99789.576
99789.578
99789.58
99789.581
99789.583
99789.584
99789.586
99789.588
99789.589
99789.591
99789.593
99789.595
99789.596
99789.598
99789.6
99789.602
99789.603
99789.605
99789.607
99789.609
99789.611
99789.613
99789.615
99789.616
99789.618
99789.62
99789.622
99789.624
99789.626
99789.628
99789.63
99789.632
99789.634
99789.636
99789.638
99789.64
99789.642
99789.644
99789.647
99789.649
99789.651
99789.653
99789.655
99789.658
99789.66
99789.662
99789.664
99789.667
99789.669
99789.671
99789.674
99789.676
99789.678
99789.681
99789.683
99789.685
99789.688
99789.69
99789.693
99789.695
99789.698
99789.7
99789.703
99789.706
99789.708
99789.711
99789.714
99789.716
99789.719
99789.722
99789.724
99789.727
99789.73
99789.733
99789.736
99789.738
99789.741
99789.744
99789.747
99789.75
99789.753
99789.756
99789.759
99789.762
99789.765
99789.768
99789.771
99789.774
99789.778
99789.781
99789.784
99789.787
99789.79
99789.794
99789.797
99789.8
99789.804
99789.807
99789.81
99789.814
99789.817
99789.821
99789.824
99789.828
99789.832
99789.835
99789.839
99789.842
99789.846
99789.85
99789.854
99789.857
99789.861
99789.865
99789.869
99789.873
99789.877
99789.881
99789.885
99789.889
99789.893
99789.897
99789.901
99789.905
99789.909
99789.913
99789.918
99789.922
99789.926
99789.93
99789.935
99789.939
99789.944
99789.948
99789.953
99789.957
99789.962
99789.966
99789.971
99789.976
99789.981
99789.985
99789.99
99789.995
99790
99790.005
99790.01
99790.015
99790.02
99790.025
99790.03
99790.035
99790.04
99790.046
99790.051
99790.056
99790.062
99790.067
99790.073
99790.078
99790.084
99790.089
99790.095
99790.101
99790.106
99790.112
99790.118
99790.124
99790.13
99790.136
99790.142
99790.148
99790.155
99790.161
99790.167
99790.173
99790.18
99790.186
99790.193
99790.2
99790.206
99790.213
99790.22
99790.227
99790.234
99790.241
99790.248
99790.255
99790.262
99790.269
99790.277
99790.284
99790.292
99790.3
99790.307
99790.315
99790.323
99790.331
99790.339
99790.347
99790.355
99790.364
99790.372
99790.381
99790.39
99790.398
99790.407
99790.416
99790.426
99790.435
99790.444
99790.454
99790.463
99790.473
99790.483
99790.493
99790.503
99790.514
99790.524
99790.535
99790.546
99790.557
99790.568
99790.579
99790.591
99790.603
99790.615
99790.627
99790.639
99790.652
99790.665
99790.677
99790.691
99790.704
99790.718
99790.732
99790.746
99790.761
99790.775
99790.79
99790.806
99790.821
99790.837
99790.854
99790.87
99790.887
99790.904
99790.922
99790.94
99790.959
99790.977
99790.997
99791.016
99791.036
99791.057
99791.078
99791.099
99791.121
99791.144
99791.167
99791.19
99791.214
99791.239
99791.264
99791.29
99791.317
99791.344
99791.372
99791.4
99791.43
99791.46
99791.49
99791.522
99791.554
99791.587
99791.621
99791.656
99791.692
99791.729
99791.767
99791.805
99791.845
99791.886
99791.928
99791.971
99792.015
99792.061
99792.107
99792.155
99792.204
99792.255
99792.307
99792.36
99792.415
99792.472
99792.53
99792.589
99792.651
99792.714
99792.778
99792.845
99792.913
99792.984
99793.056
99793.131
99793.207
99793.286
99793.367
99793.45
99793.535
99793.623
99793.714
99793.807
99793.902
99794.001
99794.102
99794.206
99794.313
99794.423
99794.537
99794.653
99794.773
99794.896
99795.023
99795.153
99795.287
99795.425
99795.566
99795.712
99795.862
99796.016
99796.174
99796.337
99796.505
99796.677
99796.854
99797.037
99797.224
99797.416
99797.614
99797.818
99798.027
99798.242
99798.463
99798.691
99798.924
99799.165
99799.412
99799.665
99799.926
99800.194
99800.47
99800.753
99801.044
99801.343
99801.65
99801.966
99802.29
99802.623
99802.966
99803.317
99803.679
99804.05
99804.431
99804.823
99805.226
99805.639
99806.063
99806.499
99806.947
99807.407
99807.879
99808.364
99808.862
99809.374
99809.899
99810.438
99810.991
99811.56
99812.143
99812.742
99813.357
99813.988
99814.636
99815.301
99815.984
99816.685
99817.404
99818.142
99818.899
99819.677
99820.475
99821.294
99822.134
99822.996
99823.881
99824.789
99825.72
99826.676
99827.657
99828.663
99829.696
99830.755
99831.842
99832.957
99834.101
99835.274
99836.478
99837.713
99838.98
99840.28
99841.613
99842.981
99844.384
99845.824
99847.3
99848.815
99850.369
99851.963
99853.598
99855.275
99856.995
99858.76
99860.57
99862.427
99864.332
99866.286
99868.29
99870.346
99872.456
99874.619
99876.839
99879.116
99881.452
99883.849
99886.307
99888.829
99891.417
99894.072
99896.795
99899.59
99902.457
99905.399
99908.417
99911.514
99914.692
99917.953
99921.299
99924.733
99928.256
99931.873
99935.584
99939.392
99943.301
99947.313
99951.431
99955.657
99959.995
99964.449
99969.02
99973.712
99978.529
99983.475
99988.552
99993.764
99999.116
100004.61
100010.25
100016.05
100022
100028.1
100034.38
100040.82
100047.44
100054.23
100061.21
100068.38
100075.74
100083.3
100091.07
100099.04
100107.24
100115.66
100124.3
100133.19
100142.31
100151.69
100161.32
100171.21
100181.38
100191.82
100202.55
100213.58
100224.9
100236.54
100248.5
100260.78
100273.4
100286.36
100299.69
100313.37
100327.43
100341.88
100356.72
100371.96
100387.62
100403.71
100420.24
100437.21
100454.65
100472.56
100490.95
100509.84
100529.24
100549.16
100569.62
100590.62
100612.19
100634.33
100657.05
100680.38
100704.32
100728.89
100754.11
100779.98
100806.53
100833.76
100861.69
100890.33
100919.71
100949.83
100980.71
101012.36
101044.8
101078.04
101112.1
101146.99
101182.73
101219.32
101256.79
101295.15
101334.41
101374.58
101415.67
101457.71
101500.69
101544.64
101589.56
101635.46
101682.36
101730.26
101779.17
101829.1
101880.06
101932.05
101985.09
102039.17
102094.3
102150.48
102207.72
102266.01
102325.37
102385.78
102447.25
102509.77
102573.34
102637.95
102703.6
102770.28
102837.99
102906.7
102976.42
103047.12
103118.8
103191.44
103265.02
103339.53
103414.94
103491.24
103568.4
103646.4
103725.22
103804.84
103885.21
103966.33
104048.15
104130.65
104213.8
104297.57
104381.92
104466.81
104552.23
104638.11
104724.45
104811.18
104898.29
104985.72
105073.44
105161.42
105249.61
105337.98
105426.48
105515.07
105603.72
105692.38
105781.02
105869.6
105958.07
106046.41
106134.57
106222.51
106310.2
106397.6
106484.67
106571.39
106657.71
106743.61
106829.05
106914
106998.43
107082.31
107165.62
107248.32
107330.39
107411.81
107492.55
107572.59
107651.91
107730.49
107808.31
107885.36
107961.61
108037.06
108111.68
108185.48
108258.43
108330.52
108401.75
108472.12
108541.6
108610.2
108677.92
108744.74
108810.68
108875.72
108939.86
109003.11
109065.47
109126.94
109187.52
109247.22
109306.04
109363.98
109421.06
109477.28
109532.65
109587.17
109640.85
109693.7
109745.74
109796.96
109847.39
109897.03
109945.89
109993.98
110041.32
110087.91
110133.77
110178.92
110223.35
110267.09
110310.15
110352.54
110394.27
110435.35
110475.81
110515.64
110554.87
110593.51
110631.56
110669.05
110705.98
110742.37
110778.23
110813.57
110848.41
110882.75
110916.62
110950.01
110982.95
111015.44
111047.5
111079.13
111110.35
111141.17
111171.6
111201.65
111231.33
111260.65
111289.62
111318.25
111346.55
111374.54
111402.21
111429.58
111456.66
111483.45
111509.97
111536.23
111562.22
111587.96
111613.46
111638.73
111663.76
111688.58
111713.18
111737.57
111761.77
111785.77
111809.58
111833.22
111856.67
111879.96
111903.08
111926.05
111948.86
111971.53
111994.05
112016.44
112038.69
112060.82
112082.82
112104.71
112126.48
112148.14
112169.69
112191.14
112212.49
112233.75
112254.92
112276
112296.99
112317.9
112338.74
112359.49
112380.18
112400.8
112421.35
112441.84
112462.26
112482.63
112502.94
112523.19
112543.4
112563.55
112583.66
112603.72
112623.74
112643.72
112663.65
112683.55
112703.41
112723.24
112743.04
112762.8
112782.53
112802.24
112821.91
112841.56
112861.19
112880.79
112900.37
112919.93
112939.47
112958.99
112978.49
112997.97
113017.44
113036.89
113056.33
113075.76
113095.17
113114.57
113133.96
113153.33
113172.7
113192.06
113211.41
113230.75
113250.08
113269.41
113288.73
113308.04
113327.35
113346.65
113365.94
113385.23
113404.52
113423.8
113443.08
113462.36
113481.63
113500.91
113520.17
113539.44
113558.7
113577.97
113597.23
113616.48
113635.74
113655
113674.25
113693.51
113712.76
113732.01
113751.27
113770.52
113789.77
113809.02
113828.27
113847.52
113866.77
113886.02
113905.27
113924.52
113943.77
113963.01
113982.26
114001.51
114020.76
114040
114059.25
114078.5
114097.74
114116.98
114136.23
114155.47
114174.71
114193.95
114213.19
114232.43
114251.67
114270.91
114290.14
114309.38
114328.61
114347.84
114367.06
114386.29
114405.51
114424.73
114443.95
114463.17
114482.38
114501.59
114520.8
114540
114559.2
114578.4
114597.59
114616.78
114635.97
114655.15
114674.32
114693.5
114712.66
114731.83
114750.98
114770.13
114789.28
114808.42
114827.55
114846.68
114865.81
114884.92
114904.03
114923.13
114942.23
114961.32
114980.4
114999.47
115018.53
115037.59
115056.64
115075.68
115094.71
115113.73
115132.75
115151.75
115170.75
115189.73
115208.7
115227.67
115246.62
115265.57
115284.5
115303.42
115322.33
115341.23
115360.12
115378.99
115397.86
115416.71
115435.55
115454.37
115473.18
115491.98
115510.77
115529.54
115548.3
115567.04
115585.77
115604.48
115623.18
115641.87
115660.54
115679.19
115697.83
115716.45
115735.06
115753.64
115772.22
115790.77
115809.31
115827.83
115846.33
115864.81
115883.28
115901.73
115920.16
115938.57
115956.96
115975.33
115993.68
116012.01
116030.33
116048.62
116066.89
116085.14
116103.37
116121.58
116139.76
116157.93
116176.07
116194.19
116212.29
116230.37
116248.42
116266.45
116284.45
116302.43
116320.39
116338.32
116356.23
116374.11
116391.97
116409.8
116427.61
116445.39
116463.15
116480.88
116498.58
116516.26
116533.91
116551.53
116569.12
116586.68
116604.22
116621.73
116639.21
116656.66
116674.08
116691.47
116708.84
116726.17
116743.47
116760.74
116777.98
116795.19
116812.37
116829.51
116846.63
116863.71
116880.76
116897.78
116914.76
116931.71
116948.63
116965.51
116982.36
116999.17
117015.95
117032.69
117049.4
117066.08
117082.72
117099.32
117115.88
117132.42
117148.91
117165.37
117181.78
117198.16
117214.51
117230.81
117247.08
117263.31
117279.5
117295.65
117311.76
117327.84
117343.87
117359.86
117375.81
117391.72
117407.59
117423.42
117439.21
117454.96
117470.66
117486.33
117501.95
117517.52
117533.06
117548.55
117564
117579.4
117594.77
117610.08
117625.36
117640.58
117655.77
117670.9
117686
117701.05
117716.05
117731
117745.91
117760.77
117775.59
117790.36
117805.08
117819.75
117834.38
117848.96
117863.49
117877.97
117892.4
117906.79
117921.12
117935.4
117949.64
117963.83
117977.96
117992.05
118006.08
118020.06
118034
118047.88
118061.71
118075.49
118089.21
118102.89
118116.51
118130.08
118143.59
118157.06
118170.47
118183.82
118197.12
118210.37
118223.57
118236.71
118249.8
118262.83
118275.8
118288.73
118301.59
118314.4
118327.16
118339.86
118352.51
118365.09
118377.63
118390.1
118402.5
118414.84
118427.1
118439.29
118451.39
118463.41
118475.34
118487.18
118498.93
118510.59
118522.16
118533.63
118545.01
118556.31
118567.52
118578.64
118589.69
118600.65
118611.54
118622.36
118633.1
118643.78
118654.39
118664.93
118675.41
118685.82
118696.18
118706.47
118716.7
118726.87
118736.99
118747.04
118757.03
118766.97
118776.85
118786.67
118796.43
118806.13
118815.78
118825.36
118834.89
118844.36
118853.78
118863.13
118872.42
118881.66
118890.84
118899.96
118909.02
118918.03
118926.97
118935.86
118944.69
118953.45
118962.17
118970.82
118979.41
118987.95
118996.43
119004.84
119013.2
119021.51
119029.75
119037.94
119046.06
119054.13
119062.14
119070.09
119077.99
119085.82
119093.6
119101.32
119108.99
119116.59
119124.14
119131.63
119139.06
119146.43
119153.75
119161.01
119168.21
119175.35
119182.44
119189.47
119196.45
119203.36
119210.22
119217.03
119223.77
119230.46
119237.1
119243.68
119250.2
119256.67
119263.08
119269.44
119275.74
119281.98
119288.17
119294.31
119300.39
119306.42
119312.39
119318.31
119324.17
119329.98
119335.74
119341.45
119347.1
119352.69
119358.24
119363.73
119369.17
119374.55
119379.89
119385.17
119390.4
119395.58
119400.71
119405.79
119410.81
119415.79
119420.71
119425.59
119430.41
119435.19
119439.91
119444.59
119449.21
119453.79
119458.32
119462.8
119467.24
119471.62
119475.96
119480.25
119484.49
119488.69
119492.84
119496.94
119501
119505.01
119508.97
119512.89
119516.77
119520.6
119524.39
119528.14
119531.84
119535.51
119539.06
119542.65
119546.18
119549.68
119553.14
119556.55
119559.92
119563.25
119566.54
119569.79
119573
119576.16
119579.29
119582.38
119585.43
119588.44
119591.41
119594.34
119597.24
119600.1
119602.92
119605.7
119608.45
119611.16
119613.83