/*--------------------------------*- C++ -*----------------------------------*\
  =========                 |
  \\      /  F ield         | OpenFOAM: The Open Source CFD Toolbox
   \\    /   O peration     | Website:  https://openfoam.org
    \\  /    A nd           | Version:  7
     \\/     M anipulation  |
\*---------------------------------------------------------------------------*/
FoamFile
{
    version     2.0;
    format      ascii;
    class       volScalarField;
    location    "0.00299";
    object      Uy;
}
// * * * * * * * * * * * * * * * * * * * * * * * * * * * * * * * * * * * * * //

dimensions      [0 1 -1 0 0 0 0];

internalField   nonuniform List<scalar> 
5000
(
1.8041224e-21
3.250828e-21
0
0
-1.1576417e-21
9.2445376e-37
8.1774641e-22
0
0
-9.006771e-22
-1.8201322e-21
8.995185e-22
8.924924e-22
-8.9541019e-22
0
-9.0221828e-22
-7.498518e-52
9.0082377e-22
0
8.9961519e-22
-8.9900067e-22
-8.9837086e-22
1.7954334e-21
-8.9704812e-22
-8.9637721e-22
-7.3826108e-36
8.9500495e-22
8.942973e-22
-1.7871573e-21
1.5479569e-35
-1.5593534e-35
8.9135869e-22
1.7811805e-21
-1.7796204e-21
1.5413164e-35
-7.7248839e-35
-3.077042e-35
1.7731692e-21
-1.7714917e-21
-1.7697852e-21
1.7680546e-21
-6.0743637e-35
-1.7645287e-21
8.8136032e-22
2.6413063e-21
-8.7948901e-22
-8.7851257e-22
-6.0105402e-35
-1.7528925e-21
0
8.7417816e-22
1.2404667e-37
-8.7146415e-22
1.7294527e-21
-2.9775183e-35
-1.6976318e-21
8.5380063e-22
-2.9372563e-35
-8.4724646e-22
0
8.4906524e-22
2.8958473e-35
2.4093191e-37
8.4653651e-22
-8.4345275e-22
2.9337933e-35
8.3980233e-22
-8.4562185e-22
-8.4570459e-22
8.431865e-22
8.4179204e-22
-8.3794293e-22
-8.3713664e-22
1.6765545e-21
8.3989972e-22
-8.3621714e-22
0
8.2223192e-22
-1.171033e-37
-8.2635056e-22
8.2758145e-22
-2.3387001e-37
2.3197462e-37
8.1534706e-22
8.2071852e-22
2.8835864e-35
-8.2521593e-22
0
-8.2290541e-22
-8.5171151e-35
-2.835869e-35
8.1195922e-22
8.1970586e-22
-1.6325959e-21
-5.6051084e-35
8.1472296e-22
0
0
-8.0332176e-22
-5.6253718e-35
1.6155545e-21
-8.0108108e-22
-1.6114883e-21
0
7.9748519e-22
8.021101e-22
-8.0023578e-22
-7.937863e-22
0
0
7.8635576e-22
7.8693489e-22
0
-7.9203254e-22
2.7317778e-35
7.8204815e-22
-7.9020868e-22
2.2370363e-37
-2.714087e-35
4.7465768e-52
1.570546e-21
-3.3471969e-37
-7.8125009e-22
0
-7.7501659e-22
7.7084953e-22
7.7047399e-22
-1.5533609e-21
-7.7445321e-22
1.5278341e-21
7.646552e-22
-7.7347683e-22
-7.7057677e-22
-7.6409865e-22
0
7.7069244e-22
7.6771781e-22
-7.6603424e-22
-2.6482558e-35
7.6727653e-22
-7.6555313e-22
-7.5595592e-22
0
7.6674135e-22
7.6482958e-22
-7.5809734e-22
7.6202496e-22
-4.3306579e-37
-7.5891556e-22
7.6621597e-22
-7.6620053e-22
5.2997346e-35
7.6758813e-22
-7.6809283e-22
7.5912936e-22
7.6154768e-22
-7.7278295e-22
0
0
-7.7520971e-22
-7.7625534e-22
7.7219012e-22
7.8002739e-22
-7.8166458e-22
-5.3642752e-35
7.7687509e-22
-7.8930241e-22
-7.9009213e-22
0
7.8558771e-22
7.9852664e-22
0
-7.9196123e-22
-7.9587787e-22
0
8.1050615e-22
1.6798132e-34
-8.1654019e-22
8.1912887e-22
8.1638025e-22
-8.2561956e-22
-5.7209857e-35
5.6799428e-35
3.5596252e-37
8.4150481e-22
-8.4786677e-22
-1.189967e-34
5.8997801e-35
-5.8881444e-35
8.537366e-22
0
0
-8.6516823e-22
-8.6695804e-22
0
0
8.7634702e-22
-1.8897245e-52
-8.8307017e-22
0
8.8316899e-22
-8.9249878e-22
-2.4816931e-34
1.7767739e-21
-8.9267864e-22
-1.8818074e-34
-1.2904185e-37
-9.0513042e-22
9.1449953e-22
-1.30359e-37
-1.2660457e-34
6.3951164e-35
-9.2715635e-22
0
9.2439275e-22
6.4933992e-35
2.6093456e-34
9.3763138e-22
0
-9.5008723e-22
-9.4729795e-22
0
0
0
9.6777565e-22
6.7450842e-35
-9.7512049e-22
0
0
9.7866052e-22
9.8339382e-22
-9.9530177e-22
-1.0017334e-21
0
1.0039093e-21
1.0061979e-21
-1.0086877e-21
-1.0083957e-21
0
1.0287114e-21
-2.8657488e-34
-7.1106035e-35
1.0307239e-21
-1.0458353e-21
-1.0526868e-21
0
1.0559362e-21
-1.4716331e-34
1.0621765e-21
1.4730712e-34
-2.1351972e-21
1.081618e-21
-1.5045443e-34
-3.7601398e-34
-7.5697738e-35
-1.0980318e-21
1.0919087e-21
1.0974495e-21
0
-1.1152372e-21
-1.1132577e-21
0
1.1308394e-21
1.1322078e-21
-2.2681523e-21
-1.1355106e-21
1.136473e-21
1.1410201e-21
3.1986917e-34
-1.1561551e-21
1.1492914e-21
-8.0046193e-35
-1.1686824e-21
1.1706696e-21
-8.115837e-35
8.2017398e-35
-3.3561962e-37
-8.1366206e-35
1.1878646e-21
0
0
-1.1973095e-21
-1.1992803e-21
0
0
0
0
1.2127543e-21
8.3435542e-35
-2.4345945e-21
5.2394202e-37
1.2299069e-21
1.23019e-21
-1.7089297e-34
-1.7027654e-34
-1.7559338e-37
-1.2366567e-21
-1.2330546e-21
-1.2414523e-21
2.4948211e-21
3.7428055e-21
-1.2487473e-21
-2.5004691e-21
0
1.2611652e-21
1.2593346e-21
-1.2489429e-21
3.5521103e-37
-5.3823562e-37
3.5902252e-37
1.2586113e-21
1.2671119e-21
-1.2687665e-21
-2.5189078e-21
1.262431e-21
-5.5026087e-52
1.2753061e-21
3.5200986e-34
-2.5573762e-21
0
0
2.5660028e-21
-7.1562466e-34
-2.5759321e-21
0
1.2862582e-21
1.2830888e-21
-1.2844576e-21
1.839699e-37
-1.7974037e-34
1.8320652e-37
1.2973356e-21
-1.3019722e-21
-1.3003057e-21
0
1.2928286e-21
-1.7963368e-34
-1.3046224e-21
2.6167245e-21
-3.6339754e-34
-1.3127243e-21
-3.642285e-34
-2.6285544e-21
2.625422e-21
1.3079873e-21
-1.3124533e-21
-1.8685163e-37
-1.3130995e-21
0
0
1.3057959e-21
-1.8266255e-34
-2.6324387e-21
1.8583622e-37
3.9298325e-21
-1.3091148e-21
-1.3073673e-21
2.6352764e-21
-1.3181897e-21
1.3115898e-21
2.6373747e-21
-1.3190932e-21
-1.30756e-21
-1.308951e-21
1.3213304e-21
1.3267791e-51
-1.3129683e-21
1.3202958e-21
-1.3199937e-21
1.3131701e-21
3.6589175e-34
3.7514098e-37
1.3129197e-21
-2.6401097e-21
1.3198674e-21
3.6305331e-34
-3.6295921e-34
-1.3204503e-21
-2.6450038e-21
3.9574629e-21
3.651984e-34
-7.2572617e-34
3.6223614e-34
-2.6355326e-21
2.6323364e-21
-3.6144141e-34
-2.6069681e-21
0
0
1.30518e-21
-1.8191768e-34
-1.3144203e-21
-1.3109662e-21
1.3077109e-21
3.8919952e-21
-1.2881611e-21
-1.2858587e-21
-3.6720607e-37
-1.3045015e-21
0
2.5885038e-21
2.601095e-21
-1.2989392e-21
-2.58103e-21
-1.2967671e-21
2.5902057e-21
2.5731688e-21
-2.5855646e-21
-2.5825856e-21
0
2.5527502e-21
-1.2883595e-21
-2.5712668e-21
1.2767274e-21
1.2828665e-21
-1.8274886e-37
1.7823971e-34
1.2818366e-21
-1.2766914e-21
-1.2785163e-21
1.2811101e-21
-1.7765934e-34
-1.8207717e-37
-1.7763344e-34
-1.2801017e-21
1.2795087e-21
-5.3364162e-34
-1.7822927e-34
-3.5723586e-34
-1.2912855e-21
1.2942732e-21
-1.800253e-34
-3.6000435e-34
-1.8470366e-37
-2.6013699e-21
-1.3013771e-21
1.3019395e-21
2.6049779e-21
-1.8090452e-34
-2.6068988e-21
-1.3037398e-21
2.606955e-21
1.3030759e-21
-1.3028739e-21
-1.3025467e-21
-3.6141083e-34
1.3020523e-21
0
0
1.3027913e-21
0
-1.3037006e-21
1.3041817e-21
1.8545228e-37
-3.6250894e-34
0
-1.3080928e-21
1.3082997e-21
1.3085971e-21
-2.6185795e-21
-1.3101203e-21
1.3106817e-21
0
0
-1.3102599e-21
3.6392281e-34
1.3095247e-21
0
0
-1.3092855e-21
5.4565147e-34
1.3101756e-21
0
0
0
0
0
0
0
0
2.6394974e-21
7.3397764e-34
-1.3258557e-21
1.3286113e-21
-1.3295926e-21
1.3304857e-21
-3.7035772e-34
-1.3347194e-21
-3.7118185e-34
-1.3383915e-21
0
0
1.3491996e-21
3.7798017e-34
-1.3645493e-21
0
0
0
0
0
0
0
2.7424507e-21
-1.1461928e-33
-2.752774e-21
1.3812306e-21
1.9703075e-37
1.3925894e-21
-7.7590667e-34
-2.794874e-21
-1.3971621e-21
1.2963122e-52
4.2196445e-21
0
-2.8115309e-21
0
0
2.8477901e-21
-3.9641335e-34
-4.277273e-21
1.4267302e-21
1.4341544e-21
-1.4414527e-21
1.4459868e-21
-1.4367374e-21
-3.9684952e-34
1.4425424e-21
-1.4495956e-21
0
-1.4565304e-21
1.4628427e-21
2.9452711e-21
-1.4786561e-21
-1.4735686e-21
-1.476003e-21
-1.4861937e-21
2.991425e-21
1.507696e-21
-1.5153607e-21
0
1.5135298e-21
-1.5072109e-21
-1.4966598e-21
4.4893781e-21
4.2647623e-37
-3.0079571e-21
1.5173012e-21
2.1158193e-34
1.5231406e-21
-4.3527766e-37
-3.0819255e-21
1.5529396e-21
0
-4.3178739e-34
-2.2063294e-37
-1.554705e-21
1.5549395e-21
-4.3217142e-34
-2.1611909e-34
-2.2172502e-37
-1.5629559e-21
1.5674139e-21
-3.2367866e-52
-4.4078555e-34
-2.2716512e-37
-3.1944232e-21
-2.2169019e-34
1.594308e-21
0
0
-1.6001538e-21
-6.7122389e-34
1.6303313e-21
-1.6397943e-21
2.2693216e-34
-1.4703223e-51
-2.2727852e-34
1.63744e-21
1.6393998e-21
2.2772013e-34
-1.6448129e-21
0
0
1.6712351e-21
-1.6807363e-21
1.3959946e-33
1.6749021e-21
-1.6751721e-21
0
1.6745203e-21
1.6725402e-21
-1.6789492e-21
-1.6893697e-21
0
1.6951132e-21
1.6857911e-21
-3.384081e-21
-1.7058889e-21
1.7137302e-21
1.7150125e-21
2.3785064e-34
1.7139911e-21
4.7506446e-34
-3.4364357e-21
0
0
0
1.7439508e-21
1.7449972e-21
0
-1.7495565e-21
-2.4309152e-34
1.7665705e-21
0
0
-1.7708824e-21
-2.4569405e-34
2.4534589e-34
-1.7712373e-21
1.772001e-21
-7.3732655e-34
-1.7718086e-21
0
-1.7845033e-21
-2.4869501e-34
1.7948907e-21
-1.798694e-21
1.8125256e-21
1.81912e-21
-1.811041e-21
0
1.8094262e-21
1.8087825e-21
-1.8097617e-21
-1.8109411e-21
0
-1.8017212e-21
1.8169322e-21
1.8387781e-21
-1.839928e-21
-3.6768129e-21
1.0239244e-33
5.5448682e-21
3.0757091e-52
-1.8401396e-21
-3.6761853e-21
1.0208964e-33
3.6783266e-21
-1.8399251e-21
1.8463104e-21
-1.8583574e-21
-1.8672384e-21
3.7337103e-21
0
0
-3.703029e-21
3.5580569e-51
3.7173109e-21
0
0
-3.7123583e-21
9.5672912e-51
3.7739904e-21
0
0
-3.7796171e-21
-1.8898282e-21
3.7871862e-21
1.9039331e-21
0
-3.831151e-21
1.0625734e-33
3.8139311e-21
-1.8981929e-21
0
1.8874075e-21
-1.8888078e-21
2.6822712e-37
1.8866516e-21
-1.8887692e-21
1.8947015e-21
1.9009192e-21
-1.9010745e-21
-1.9006399e-21
5.2769835e-34
1.8987766e-21
-1.9102082e-21
-5.3581086e-34
1.9387639e-21
-1.9397035e-21
1.9346979e-21
1.9293661e-21
-1.9284402e-21
-1.9280582e-21
5.3565009e-34
1.9327746e-21
-1.9361648e-21
2.7514247e-37
1.9351243e-21
-1.9328166e-21
1.9203677e-21
1.9090541e-21
-1.9142323e-21
-3.8513224e-21
1.074873e-33
3.8757627e-21
-1.9418262e-21
2.780633e-37
3.9241188e-21
5.5376374e-37
-1.9491163e-21
0
1.9473809e-21
0
-1.9406597e-21
0
0
0
-1.9354935e-21
1.272886e-51
1.967029e-21
0
1.9642826e-21
-5.4685152e-34
-1.9707104e-21
0
0
0
-1.9798102e-21
5.5023996e-34
1.9790363e-21
0
1.9737392e-21
5.4817019e-34
-1.9771183e-21
0
2.000768e-21
-2.006713e-21
1.1158118e-33
2.0078098e-21
-2.0061798e-21
0
-1.9978762e-21
-5.5397929e-34
1.993439e-21
0
2.0033292e-21
-2.0045124e-21
-1.1107974e-33
1.9981427e-21
-1.1179112e-33
-2.8887513e-37
5.6488148e-34
-2.8860732e-37
-2.036767e-21
0
2.042686e-21
-5.6943572e-34
-5.7015139e-34
1.4799047e-52
-5.7109975e-34
0
-4.1318132e-21
-5.7004517e-34
2.0515097e-21
-2.0558494e-21
5.717893e-34
2.0739932e-21
2.0783999e-21
5.7428582e-34
-5.7397566e-34
2.0677287e-21
-2.0686324e-21
-2.0774685e-21
0
-2.076868e-21
5.7696792e-34
2.0790868e-21
0
0
0
-4.183306e-21
2.3240323e-33
4.1913087e-21
0
0
0
0
0
0
0
-4.2708449e-21
1.1872321e-33
4.2749486e-21
2.1413824e-21
-2.147318e-21
-2.1458722e-21
5.9423373e-34
1.1879624e-33
2.145263e-21
-2.1410667e-21
2.1398406e-21
2.1557742e-21
-2.1756372e-21
-2.1760834e-21
1.2065976e-33
2.1805157e-21
2.1826274e-21
-6.0560672e-34
-2.1870077e-21
-2.1889179e-21
2.1895286e-21
2.1926437e-21
-2.19632e-21
2.2010398e-21
0
-2.2073104e-21
-2.207809e-21
6.1327202e-34
2.215794e-21
-2.2136962e-21
2.208042e-21
2.213089e-21
-2.2185898e-21
2.2200013e-21
6.185233e-34
-2.2418192e-21
-2.250728e-21
-3.1915684e-37
4.4870261e-21
1.2474038e-33
-2.2461627e-21
-2.2455786e-21
0
2.2470408e-21
0
0
0
2.2716767e-21
2.2707479e-21
-2.2714903e-21
-2.2745505e-21
0
2.2878936e-21
-6.3634485e-34
-2.293842e-21
0
0
2.3295496e-21
-1.2926227e-33
-2.3267959e-21
0
0
2.3279681e-21
-1.2946848e-33
-2.3338036e-21
0
2.3352481e-21
-6.4915856e-34
6.507451e-34
-6.5302834e-34
-2.3532344e-21
0
-2.3591372e-21
1.3134553e-33
2.3665264e-21
0
2.3658118e-21
-2.3719106e-21
-2.3723953e-21
4.7536435e-21
6.6328035e-34
-4.800497e-21
6.7171359e-34
2.424757e-21
0
0
2.4010459e-21
-6.6752564e-34
-2.4150422e-21
0
2.4249509e-21
-2.4243869e-21
-2.4248071e-21
2.4211596e-21
0
-2.435564e-21
2.4447458e-21
1.3579064e-33
-1.3582734e-33
2.4492382e-21
-2.0382852e-33
2.4572992e-21
-2.4673851e-21
6.8470658e-34
-1.3751446e-33
-4.9706478e-21
6.8922148e-34
2.485696e-21
0
0
0
-5.0184012e-21
-2.509121e-21
5.0175788e-21
2.5080571e-21
0
0
2.5378513e-21
-2.7612196e-52
-2.5493302e-21
0
-5.1172564e-21
-2.5693851e-21
5.1420845e-21
2.5660666e-21
0
-5.1524704e-21
-7.3232954e-37
7.7280229e-21
-7.1361383e-34
-5.1604166e-21
2.5957368e-21
1.4819164e-36
-2.6103388e-21
7.2569872e-34
1.4497479e-33
2.6093263e-21
0
2.6284382e-21
-1.4650987e-33
-5.2856795e-21
2.6452468e-21
-4.4181688e-33
-2.6658457e-21
5.335297e-21
-3.7847887e-37
-2.6701538e-21
0
0
0
-2.6838105e-21
2.6928825e-21
5.4042024e-21
-2.7059701e-21
-7.5189354e-34
-7.5286476e-34
-2.7248436e-21
0
2.7591377e-21
-3.9337071e-37
-5.5099939e-21
2.7445263e-21
1.5233515e-33
-2.7490769e-21
-2.7572039e-21
1.53769e-33
5.5435426e-21
0
2.7856868e-21
2.8006833e-21
0
-2.7979508e-21
-2.8000799e-21
2.8064866e-21
0
-2.8083037e-21
0
0
2.8320007e-21
-2.361593e-33
-2.8351696e-21
0
0
2.8542687e-21
2.8626815e-21
-2.8650752e-21
-2.8630596e-21
2.8651535e-21
2.8728624e-21
-5.7647815e-21
-2.8911962e-21
8.0397267e-34
2.8941165e-21
-1.6099703e-33
-1.6211821e-33
2.9421156e-21
-2.9459189e-21
2.9469382e-21
-2.9466361e-21
-2.503591e-36
2.9331883e-21
-5.8723042e-21
-2.93388e-21
-2.9349564e-21
5.8845975e-21
5.9051857e-21
-2.9631022e-21
2.9675298e-21
-2.9711432e-21
1.6565983e-33
5.9989179e-21
-3.0040541e-21
8.3141897e-34
-8.3207596e-34
-2.9943823e-21
0
0
3.0033705e-21
3.0121287e-21
0
-3.0181508e-21
-3.0222002e-21
0
-3.0297435e-21
8.4240721e-34
3.0433173e-21
-3.0451797e-21
8.4328617e-34
3.0458839e-21
0
3.051201e-21
1.6938337e-33
-3.0547157e-21
3.0627697e-21
-8.5204177e-34
-3.0756021e-21
-3.075007e-21
-8.5684998e-34
3.1067652e-21
0
-3.0982564e-21
3.0989918e-21
-8.8033768e-37
1.7144245e-33
3.093535e-21
-3.1034028e-21
0
-6.2173169e-21
6.8964654e-33
3.1174168e-21
1.7354773e-33
6.2439318e-21
-6.243579e-21
-6.2568954e-21
6.2728999e-21
6.2942517e-21
3.1580015e-21
0
-3.1742953e-21
-6.3288952e-21
4.4919385e-37
-3.1617433e-21
3.1502001e-21
3.1469125e-21
-3.1592378e-21
6.3436031e-21
-6.3586398e-21
-5.2974838e-33
6.360125e-21
-6.3726831e-21
1.7750048e-33
-3.1971301e-21
3.1905475e-21
3.1977918e-21
-3.2053599e-21
-8.8809816e-34
-6.4015124e-21
6.4117366e-21
6.4297813e-21
-6.4642961e-21
-8.991433e-34
-3.2294601e-21
1.7981766e-33
3.2656664e-21
9.0698682e-34
3.3841249e-51
3.2444145e-21
6.4924926e-21
-3.245779e-21
2.8492859e-51
-3.2591492e-21
-5.4309939e-33
3.2546058e-21
-6.5228025e-21
1.8143942e-33
6.542936e-21
-7.3935967e-52
-3.2985364e-21
0
0
-3.261439e-21
3.2795961e-21
6.5834352e-21
0
0
0
-3.2780686e-21
-3.2879641e-21
0
3.2875465e-21
-3.3025607e-21
-5.5197932e-33
6.6335293e-21
0
0
0
-3.3374779e-21
-3.3392943e-21
3.3430191e-21
-3.3313237e-21
-1.8496151e-33
6.6736431e-21
0
0
-6.672051e-21
9.5149148e-37
3.3587105e-21
-3.3568716e-21
3.3566094e-21
-3.3653295e-21
1.8711726e-33
6.7314946e-21
0
0
-3.3802914e-21
-3.3943911e-21
0
0
3.3946672e-21
3.3783011e-21
0
-3.4060983e-21
-3.4065586e-21
3.4197806e-21
-3.4394626e-21
-3.4450519e-21
3.421477e-21
3.4044109e-21
-1.8995093e-33
-3.4297142e-21
3.4279849e-21
9.553495e-34
-3.4656492e-21
0
-3.4439525e-21
1.9015116e-33
3.4418414e-21
-3.4521812e-21
1.9193754e-33
3.4842112e-21
0
-3.4819047e-21
9.6630649e-34
4.9535722e-37
-3.485824e-21
3.5029687e-21
3.5158037e-21
0
-7.0276956e-21
3.9221889e-33
3.5141973e-21
4.9803908e-37
7.0555296e-21
-7.0668334e-21
-7.0439284e-21
7.0838248e-21
3.5644921e-21
0
-7.0745862e-21
5.936293e-33
7.1587855e-21
0
-7.0706384e-21
-1.9748477e-33
3.5686524e-21
9.9192955e-34
7.1991496e-21
-7.2311895e-21
-8.9647169e-33
7.1435339e-21
-7.1946323e-21
2.0075609e-33
7.2361196e-21
3.6355312e-21
-7.3028691e-21
-3.6318102e-21
7.2318307e-21
-7.2947518e-21
-9.1822916e-33
7.3277328e-21
-7.3194684e-21
1.0183607e-33
-3.647963e-21
4.0376711e-33
1.0989188e-20
-2.0430493e-33
-7.3908993e-21
3.7091368e-21
7.3803022e-21
-3.6764664e-21
2.0536198e-33
-3.7171432e-21
-4.1406158e-33
3.7327492e-21
-7.4543866e-21
3.1124542e-33
-4.1712426e-33
2.091751e-33
3.773331e-21
0
3.739418e-21
3.7634568e-21
0
0
0
0
0
-3.8055215e-21
-3.8254093e-21
0
3.8301683e-21
-3.8401813e-21
-6.3573976e-33
7.6099618e-21
0
0
0
-3.8666474e-21
-3.8764932e-21
3.858249e-21
3.8359356e-21
-7.6980909e-21
-6.4678869e-33
7.8000309e-21
0
-7.8389462e-21
-6.496361e-33
3.8771043e-21
-3.8901798e-21
3.9249918e-21
-3.9462463e-21
-2.1978134e-33
7.9332917e-21
0
0
-3.92601e-21
-3.9499938e-21
0
-4.0425244e-21
-1.1537527e-36
-4.0520242e-21
4.0201242e-21
1.1963592e-20
0
7.9723392e-21
7.98508e-21
0
-1.2186577e-20
-8.2089251e-21
8.1987087e-21
-4.0629115e-21
-4.0369611e-21
1.2099315e-20
4.0523205e-21
5.8262829e-37
4.148531e-21
-4.1649917e-21
-4.1485174e-21
-4.115066e-21
-4.8842467e-52
-4.0901437e-21
-4.0969579e-21
4.1179289e-21
0
8.4198124e-21
8.4137367e-21
0
-4.1403136e-21
-8.268694e-21
-2.2965189e-33
-4.1417664e-21
-8.3194447e-21
8.4132601e-21
8.506295e-21
4.2583756e-21
4.2275419e-21
0
-4.1902395e-21
-1.2588992e-20
4.2038223e-21
-3.435511e-50
-1.2697413e-20
8.5473119e-21
4.2923981e-21
4.2730944e-21
8.5137961e-21
-8.520463e-21
-4.2685925e-21
4.2801309e-21
4.3026292e-21
4.3285653e-21
-1.3007423e-20
-4.3263223e-21
1.2966356e-20
4.3279746e-21
-4.3362344e-21
-8.7001721e-21
4.3741494e-21
-4.3919351e-21
7.3088692e-33
-7.3014853e-33
-1.3163949e-20
4.3964804e-21
4.4108182e-21
8.8712226e-21
4.4535559e-21
-8.9023234e-21
-1.2634127e-36
-4.4494982e-21
4.4614182e-21
1.3447849e-20
-1.3516525e-20
-4.5120239e-21
1.3518262e-20
0
-1.3538792e-20
-4.5277598e-21
1.3656362e-20
-4.5689067e-21
-9.1344671e-21
-2.5332184e-33
5.0721023e-33
4.5841417e-21
0
9.261624e-21
9.2608981e-21
-4.6238651e-21
-4.6278958e-21
-9.2751653e-21
4.6509872e-21
4.6735354e-21
-9.389813e-21
0
9.3912874e-21
9.3976756e-21
-4.7081471e-21
-9.4396951e-21
2.6285049e-33
4.7501444e-21
-9.5152742e-21
4.7621928e-21
-1.5887847e-32
-9.5654567e-21
4.7969459e-21
0
9.6331329e-21
0
-1.0741154e-32
-4.8506708e-21
-9.7215354e-21
1.4605618e-20
-1.3863684e-36
-9.7806896e-21
0
9.8553074e-21
4.9373397e-21
-9.8795615e-21
5.4910603e-33
4.9558871e-21
-9.93713e-21
4.9851687e-21
-8.3273416e-33
-1.0021777e-20
5.0163898e-21
-5.025404e-21
1.0076255e-20
1.515283e-20
0
-1.5216042e-20
-1.016722e-20
1.5298456e-20
1.0237795e-20
-5.1329007e-21
-1.0277095e-20
5.1445534e-21
5.1549805e-21
-1.0336944e-20
5.1871184e-21
1.0414377e-20
-5.2184767e-21
7.4216564e-37
-1.0458849e-20
-1.0481422e-20
1.5762972e-20
-5.2718289e-21
-8.8099599e-33
1.5901746e-20
0
-1.594906e-20
-1.0656857e-20
5.3428134e-21
5.360562e-21
5.376331e-21
0
5.3939871e-21
-3.0003744e-33
-1.0839201e-20
3.0175853e-33
5.4557288e-21
0
5.4737699e-21
-1.0967966e-20
-1.6491403e-20
1.1026936e-20
1.659924e-20
5.5486586e-21
-5.5569193e-21
-1.1129873e-20
5.5767811e-21
-5.5910717e-21
-5.6088722e-21
1.1256078e-20
-1.1282846e-20
-5.6493964e-21
1.6976931e-20
1.1343453e-20
-5.6862648e-21
-1.7112274e-20
1.2706609e-32
-1.2736243e-32
-5.7449362e-21
-6.3892578e-33
-5.7684608e-21
5.7832764e-21
5.8010214e-21
5.8191456e-21
-5.8322388e-21
-5.8418555e-21
1.7559995e-20
-5.8670087e-21
-1.1763961e-20
1.7698821e-20
1.6819018e-36
-5.9312421e-21
1.1883135e-20
5.9534788e-21
0
-5.9824863e-21
-5.9995779e-21
-1.2034182e-20
6.031257e-21
-2.0125293e-32
-1.8166301e-20
6.0699016e-21
6.08563e-21
6.1021461e-21
-6.1175256e-21
-6.1310072e-21
1.8433341e-20
-6.1595972e-21
-1.2353266e-20
-1.0315012e-32
-6.2073253e-21
1.2440841e-20
1.8704457e-20
3.4687596e-33
-3.47973e-33
-8.9349649e-37
-6.3021988e-21
-1.2628702e-20
-6.3278557e-21
1.9029077e-20
-7.0599193e-33
-1.2756215e-20
0
0
6.4242449e-21
-3.5738048e-33
3.5816095e-33
6.4707004e-21
-1.2977986e-20
-6.507655e-21
-7.2404245e-33
6.5375943e-21
1.9656986e-20
6.568456e-21
0
0
0
-1.991769e-20
-1.3309005e-20
2.0009676e-20
-7.4249318e-33
-1.3407942e-20
0
0
1.3519275e-20
-1.5043598e-32
-7.5377614e-33
1.3617736e-20
-6.8271381e-21
-1.3693913e-20
-1.3734432e-20
6.8852589e-21
2.070414e-20
6.9181627e-21
0
0
0
-2.0985816e-20
-1.4029182e-20
2.1096935e-20
-1.565347e-32
-7.0691085e-21
1.0073632e-36
-7.1084615e-21
1.4256516e-20
-7.9355409e-33
-7.1686984e-21
1.4379637e-20
0
-4.0142332e-33
-1.4499398e-20
-1.4540232e-20
2.1873689e-20
1.462688e-20
-7.3362866e-21
-4.0831498e-33
7.3779771e-21
-2.2194896e-20
-1.4839422e-20
7.4420533e-21
7.4656349e-21
-7.4895918e-21
-7.5120276e-21
7.5331779e-21
7.554881e-21
-4.2061797e-33
4.2181954e-33
7.6257719e-21
0
7.6741833e-21
-1.5394121e-20
-2.3161286e-20
1.5489619e-20
1.554022e-20
7.7958758e-21
-8.6815339e-33
-1.5691312e-20
7.8703896e-21
-7.8960314e-21
-7.9227495e-21
1.590044e-20
-1.5954237e-20
-8.0028044e-21
8.0285476e-21
1.6110557e-20
8.0828719e-21
-1.6223016e-20
4.5164263e-33
-8.1690974e-21
-8.1962804e-21
2.4671356e-20
-8.2523482e-21
-8.2816742e-21
2.4935504e-20
-1.1855613e-36
-2.5119252e-20
-8.4026983e-21
2.5296846e-20
-8.4626243e-21
1.6388419e-49
-1.4194852e-32
-1.7116666e-20
1.7181855e-20
1.7245882e-20
-8.6547933e-21
9.6441625e-33
1.7441126e-20
-8.7548096e-21
-2.6369419e-20
-8.8247162e-21
8.8589386e-21
0
8.9278332e-21
1.7926957e-20
-1.2789722e-36
-2.7111955e-20
-9.074914e-21
1.8223893e-20
-1.3000949e-36
-1.8371613e-20
1.8447952e-20
-1.5427542e-32
-1.8604986e-20
2.8027195e-20
1.8764963e-20
0
0
-9.5047949e-21
-2.8638834e-20
-9.5880897e-21
2.8891223e-20
-1.0739023e-32
-1.9434776e-20
1.9523899e-20
1.9613393e-20
-9.8513115e-21
-1.9792067e-20
9.9414603e-21
9.9879659e-21
-3.0106345e-20
-1.0083423e-20
-1.6873903e-32
5.6473626e-33
1.0227604e-20
-1.0276947e-20
2.065495e-20
3.11367e-20
0
-3.1445742e-20
-2.1066914e-20
3.1757422e-20
-3.0238636e-36
-1.0693932e-20
2.1499001e-20
-1.0805281e-20
-1.0860869e-20
-1.2119124e-32
1.0973227e-20
2.2061858e-20
-1.1089712e-20
-2.2298859e-20
-2.2419492e-20
1.2515002e-32
1.1331252e-20
-1.1392728e-20
2.2910126e-20
3.455515e-20
0
-3.494264e-20
-2.3426271e-20
3.5338261e-20
-1.3154742e-32
-1.1914253e-20
1.198275e-20
1.2051971e-20
-6.7251792e-33
-2.4385753e-20
6.8078354e-33
2.4674887e-20
-1.3776403e-32
-1.3858918e-32
-2.5120679e-20
-3.7907838e-20
2.542495e-20
-1.4202673e-32
-4.2856203e-32
1.2948925e-20
1.3029462e-20
2.6221135e-20
-3.9577152e-20
-1.3275207e-20
2.6718549e-20
-2.6889201e-20
-7.6914707e-36
4.0854451e-20
1.3706001e-20
-1.3794628e-20
-4.1652766e-20
4.6547362e-32
2.8134323e-20
1.4160406e-20
-2.8509334e-20
-4.3049536e-20
4.3337777e-20
1.4542953e-20
1.6249598e-32
1.474024e-20
-2.9681372e-20
8.2941442e-33
-1.5045191e-20
1.5149109e-20
-5.0811681e-32
-4.6080263e-20
4.6401605e-20
4.6726394e-20
0
0
0
-1.6020642e-20
-4.8405344e-20
-1.6250786e-20
-1.8170454e-32
-1.6485342e-20
4.9812919e-20
1.6724603e-20
-1.6846327e-20
-1.6969447e-20
-1.7093858e-20
3.4438946e-20
-1.7346263e-20
1.7474264e-20
-5.8627855e-32
-3.5468418e-20
5.3598806e-20
3.5999428e-20
0
-3.6541328e-20
-2.0435832e-32
1.8546902e-20
-5.6060824e-20
-1.8828318e-20
1.8971159e-20
0
0
1.9408736e-20
3.9114608e-20
-4.3755819e-32
-3.9716615e-20
-2.0010982e-20
2.0165258e-20
-2.0321129e-20
2.0478491e-20
-8.288889e-49
-3.4638143e-32
6.2876212e-20
0
0
-4.2904586e-20
-4.3239909e-20
-2.1789108e-20
2.4375517e-32
6.6395492e-20
-2.4768765e-32
-4.4961161e-20
0
4.5671114e-20
2.3015394e-20
-4.6393594e-20
2.3379787e-20
2.3564371e-20
-7.1251578e-20
2.393822e-20
-8.0355438e-32
-4.8636587e-20
7.353235e-20
4.940988e-20
0
0
0
-7.6492858e-20
-5.1399717e-20
7.77114e-20
5.2218853e-20
0
-5.3051109e-20
2.9681059e-32
2.6948193e-20
-5.4324228e-20
2.7377823e-20
-2.7595273e-20
-2.7814382e-20
8.4105306e-20
-5.6514922e-20
-5.6963101e-20
2.8707455e-20
-2.8935191e-20
5.832943e-20
8.8187901e-20
0
-8.9590809e-20
-6.0200107e-20
3.0338312e-20
3.0578397e-20
-3.4215226e-32
3.106405e-20
-1.0429314e-31
-3.1557055e-20
-1.7659435e-32
4.8519478e-50
3.2310233e-20
0
3.2821667e-20
-6.6160638e-20
-1.0002275e-19
1.0081026e-19
1.0160337e-19
0
-6.8804413e-20
-6.9344761e-20
6.9889223e-20
-3.5218903e-20
-3.5495219e-20
1.0732056e-19
-7.21076e-20
-7.2672189e-20
3.6620463e-20
7.3813929e-20
3.7195627e-20
-1.1245934e-19
-3.7779412e-20
-6.3402743e-32
7.6743535e-20
2.1982036e-35
-1.1691863e-19
7.8553636e-20
1.187492e-19
3.9891638e-20
-1.2060761e-19
-8.1031546e-20
1.2249409e-19
-9.1375729e-32
-8.2939479e-20
-4.1792622e-20
2.3378705e-32
8.4891955e-20
-4.7488406e-32
4.3109588e-20
4.3445298e-20
-1.3135098e-19
-4.4124725e-20
-4.936685e-32
8.9630381e-20
-1.5041897e-31
-1.3655114e-19
9.1744643e-20
-5.1349218e-32
-5.17637e-32
-1.042702e-31
-4.7323583e-20
1.4308275e-19
-4.8068172e-20
-8.0658855e-32
-1.6261275e-31
-1.476299e-19
4.9597459e-20
9.9977054e-20
-5.5933069e-32
5.0781714e-20
5.1183982e-20
-1.0318025e-19
-1.0400046e-19
5.8180483e-32
1.5849807e-19
-5.9106287e-32
-5.3682168e-20
1.0822706e-19
-5.4549446e-20
-5.4990018e-20
3.0755085e-32
-3.1020769e-32
5.6340925e-20
-1.1360279e-19
5.7267169e-20
-1.9232792e-31
-1.9388295e-31
1.7609288e-19
-1.18372e-19
1.6962202e-35
1.2036225e-19
-6.068822e-20
-1.8360571e-19
-6.1722353e-20
1.8674928e-19
-6.9700156e-32
-6.3326309e-20
1.2775181e-19
-1.2886672e-19
-3.2476945e-31
6.55728e-20
-6.615527e-20
6.6746587e-20
-1.3469407e-19
6.7956908e-20
2.0572956e-19
0
0
-1.4099391e-19
-2.0224528e-35
1.436638e-19
-7.2516848e-20
-2.1964191e-19
-7.3923682e-20
2.239392e-19
2.142501e-35
8.4518734e-32
1.5379389e-19
-2.3302842e-19
-3.9203696e-31
7.9281074e-20
-8.0107894e-20
-8.0951685e-20
9.0871382e-32
8.2692471e-20
-1.6718137e-19
1.6901664e-19
-2.8457432e-31
-1.728092e-19
2.62154e-19
1.7677396e-19
-8.9412308e-20
-2.7138433e-19
-9.1535223e-20
9.2634528e-20
0
-9.4913318e-20
9.6094663e-20
2.9191579e-19
5.4700595e-32
-1.9963671e-19
1.0112302e-19
1.0246126e-19
-2.076685e-19
1.0524318e-19
-1.066893e-19
-2.163478e-19
3.2909505e-19
-3.7055998e-31
2.5064312e-31
2.290498e-19
-2.3244607e-19
-1.1796839e-19
-1.1976261e-19
-1.3510639e-31
1.2350455e-19
-2.5091164e-19
2.5492612e-19
3.8858446e-19
0
-1.3383991e-19
7.554073e-32
3.93379e-35
-4.2238072e-19
-1.4325002e-19
4.3733888e-19
-1.4838486e-19
1.4160884e-47
4.614977e-19
-1.5668045e-19
-4.7884419e-19
-1.6263828e-19
3.3150808e-19
-1.6896508e-19
1.7227457e-19
-5.8511383e-31
-3.584043e-19
5.4848116e-19
2.0722051e-31
-8.4567468e-31
3.8877827e-19
-3.9696986e-19
-2.2503696e-31
2.0706322e-19
-4.2310815e-19
-2.1618515e-19
0
0
4.619307e-19
-5.2444426e-31
-1.3733739e-34
-2.7440571e-31
-2.5292517e-19
-2.5885194e-19
2.6496449e-19
2.712687e-19
-5.5554122e-19
5.6895273e-19
-3.2348968e-31
-5.9704939e-19
6.1176066e-19
1.0439847e-30
-3.5667941e-31
3.2935605e-19
-6.7535034e-19
3.462538e-19
-7.8842933e-31
-7.2844192e-19
0
7.6664507e-19
3.9332015e-19
-8.0725514e-19
-4.1425396e-19
4.2520873e-19
-7.269985e-31
-4.4814205e-19
0
0
9.7050817e-19
9.9678136e-19
0
-1.0517597e-18
-5.4025568e-19
5.5506841e-19
-5.7033049e-19
5.8605472e-19
0
-1.2378847e-18
0
0
6.720771e-19
-7.6695972e-31
-7.1020381e-19
0
7.506357e-19
4.2838321e-31
-7.9350115e-19
0
1.6778692e-18
1.7253165e-18
-8.8707756e-19
-1.0125635e-30
9.3807842e-19
-1.9293973e-18
-1.984184e-18
2.0405579e-18
2.982235e-34
2.3962782e-30
3.1542846e-34
-2.2827855e-18
1.1738743e-18
-1.3402681e-30
1.2416442e-18
-1.2769814e-18
-3.9399607e-18
4.0520601e-18
1.3891073e-18
-1.4286092e-18
-1.6308485e-30
-1.5109677e-18
3.1077632e-18
3.1959824e-18
-3.2866538e-18
-5.6277231e-30
-1.7378015e-18
-1.7870046e-18
3.6751239e-18
-1.8895076e-18
2.1566117e-30
-1.1094448e-30
2.0540249e-18
4.2237575e-18
-4.3426054e-18
-4.4646711e-18
0
2.3593873e-18
2.6926605e-30
-4.9867242e-18
-2.8453779e-30
7.9038132e-18
5.4161258e-18
0
-5.7217749e-18
-6.5276345e-30
-3.0219115e-18
-3.1056236e-18
9.574615e-18
-1.8200217e-30
-6.7403808e-18
3.4630384e-18
7.1166207e-18
-3.656065e-18
-7.5127243e-18
-3.8592633e-18
0
8.1462609e-18
-4.1842266e-18
-1.2894562e-17
4.415082e-18
4.5349812e-18
9.3159154e-18
4.7840858e-18
-9.826883e-18
-5.0461028e-18
-5.1821497e-18
5.9078557e-30
5.4647297e-18
5.6114331e-18
1.1523725e-17
5.9161084e-18
0
0
0
-1.3146296e-17
-1.3495833e-17
1.385419e-17
7.8940601e-30
8.1031316e-30
-8.3153398e-30
-1.7076591e-29
1.5786065e-17
0
-1.6628589e-17
-8.5329015e-18
8.7570033e-18
-8.9867371e-18
-9.2222441e-18
0
0
1.9929747e-17
-3.4053791e-29
-2.3294527e-29
2.1529861e-17
-2.2090289e-17
-2.2664826e-17
0
2.3857683e-17
-1.3582984e-29
-2.5111459e-17
2.5762187e-17
1.4674059e-29
-2.7113412e-17
0
2.8533933e-17
1.4635665e-17
-3.0027456e-17
1.5401407e-17
3.5087466e-29
-3.2413285e-17
3.3249475e-17
3.4107042e-17
0
0
0
-3.7762933e-17
-3.8736431e-17
3.9735055e-17
0
-4.1810387e-17
0
-2.1997375e-17
4.5129744e-17
2.3147173e-17
-2.3744694e-17
4.8715724e-17
2.4987121e-17
-5.1265847e-17
-2.6295741e-17
-2.9951356e-29
2.767437e-17
-6.303708e-29
1.6556817e-32
5.976503e-17
0
-3.145446e-17
-6.4544262e-17
-3.311175e-17
0
0
0
-3.6702726e-17
7.5324049e-17
3.8647391e-17
-3.9659585e-17
-4.0699392e-17
4.1767618e-17
4.2865095e-17
-8.7985358e-17
0
9.2683431e-17
9.5129784e-17
0
0
-1.0276445e-16
-5.8580159e-29
-5.4178622e-17
-5.5625046e-17
5.7109918e-17
-5.8635164e-17
6.020233e-17
1.2362581e-16
6.3468321e-17
0
-1.338376e-16
-7.6266411e-29
7.0564897e-17
-7.2464949e-17
-7.4418298e-17
-1.528529e-16
1.5698197e-16
8.0613493e-17
-2.3531924e-32
8.5038959e-17
-1.7469056e-16
8.9716292e-17
-9.2153749e-17
5.8826459e-45
9.7235309e-17
-1.9976631e-16
2.0520985e-16
2.1080516e-16
0
-1.1123353e-16
-2.2854176e-16
6.5161637e-29
1.2059985e-16
1.2389571e-16
-2.5456414e-16
-2.6152228e-16
1.3433515e-16
2.760127e-16
2.8355407e-16
-1.4564949e-16
-2.9925176e-16
1.5370818e-16
-1.5789883e-16
2.7005474e-28
1.6661557e-16
-3.4229264e-16
3.5159025e-16
2.004025e-28
-1.0294754e-27
3.8094608e-16
-3.9123434e-16
-8.9207733e-28
2.0629619e-16
-4.236709e-16
2.1751071e-16
-6.3472511e-32
1.0181312e-27
2.3537281e-16
-4.8322411e-16
5.5062849e-28
-1.4124677e-28
2.6120992e-16
-7.6181861e-32
-5.5004769e-16
5.6431874e-16
1.6453252e-31
-1.3183837e-27
6.0898387e-16
-6.2449425e-16
-7.1084929e-28
6.5645268e-16
-3.364504e-16
-3.4483039e-16
-3.5336572e-16
3.6205558e-16
-4.1175416e-28
-7.5978878e-16
0
0
8.1555059e-16
1.1862068e-31
-8.5416829e-16
4.3694622e-16
-4.9604642e-28
4.5706716e-16
1.0375869e-27
-9.5537652e-16
0
-4.9876948e-16
1.0189364e-15
5.202638e-16
-1.1794642e-27
5.4211792e-16
-1.1063226e-15
5.6427135e-16
-6.3866166e-28
-1.1733132e-15
0
0
6.205061e-16
-3.5070851e-28
6.4313307e-16
-6.5443171e-16
-1.997114e-15
2.030819e-15
6.8812459e-16
-1.3984936e-15
7.1029309e-16
1.2009431e-27
7.3210376e-16
-4.2225634e-31
-2.509542e-27
7.6391224e-16
-1.5484345e-15
-7.8434971e-16
0
-8.0404185e-16
8.1357315e-16
8.228757e-16
8.3193628e-16
-1.8667022e-27
9.4258668e-28
-9.5174759e-28
-1.7309826e-15
8.7314367e-16
1.466071e-27
-1.7749622e-15
1.270653e-31
9.0045243e-16
1.8128022e-15
1.8239568e-15
-1.8343509e-15
-1.0240678e-27
-9.2640102e-16
-9.3041559e-16
1.8680435e-15
-1.8744296e-15
-9.3999224e-16