/*--------------------------------*- C++ -*----------------------------------*\
| =========                 |                                                 |
| \\      /  F ield         | OpenFOAM: The Open Source CFD Toolbox           |
|  \\    /   O peration     | Version:  4.x                                   |
|   \\  /    A nd           | Web:      www.OpenFOAM.org                      |
|    \\/     M anipulation  |                                                 |
\*---------------------------------------------------------------------------*/
FoamFile
{
    version     2.0;
    format      ascii;
    class       volScalarField;
    location    "0.89";
    object      T;
}
// * * * * * * * * * * * * * * * * * * * * * * * * * * * * * * * * * * * * * //

dimensions      [0 0 0 1 0 0 0];

internalField   nonuniform List<scalar> 
6394
(
300.000002
300.0000012
300.0000012
300.0000012
300.0000012
300.0000012
300.0000012
300.0000012
300.0000032
300.0000022
300.0000022
300.0000022
300.0000022
300.0000022
300.0000022
300.0000022
300.000003
300.000002
300.000002
300.000002
300.0000021
300.0000021
300.0000021
300.0000021
300.000003
300.000002
300.000002
300.000002
300.000002
300.0000021
300.000002
300.000002
300.000003
300.000002
300.000002
300.000002
300.000002
300.000002
300.000002
300.000002
300.000003
300.000002
300.000002
300.000002
300.000002
300.000002
300.000002
300.000002
300.0000027
300.0000018
300.0000019
300.0000019
300.0000019
300.0000019
300.0000019
300.000002
300.0000032
300.0000022
300.0000023
300.0000023
300.0000022
300.0000022
300.0000022
300.0000023
300.000003
300.0000018
300.000002
300.000002
300.0000019
300.0000019
300.0000019
300.0000021
300.000003
300.000002
300.0000021
300.0000021
300.0000021
300.000002
300.0000021
300.0000023
300.0000034
300.0000023
300.0000024
300.0000024
300.0000024
300.0000023
300.0000025
300.0000027
300.0000039
300.0000028
300.0000028
300.0000027
300.0000026
300.0000026
300.0000027
300.000003
300.0000007
300.0000004
300.0000007
300.0000007
300.0000007
300.0000007
300.0000008
300.000001
299.9999998
299.9999996
300
300
299.9999999
299.9999998
299.9999999
300.0000003
299.9999997
299.9999994
299.9999998
299.9999997
299.9999995
299.9999995
299.9999997
300.0000003
300.0000006
300.0000004
300.0000006
300.0000005
300.0000003
300.0000003
300.0000007
300.0000013
300.0000022
300.0000018
300.0000018
300.0000016
300.0000014
300.0000014
300.0000018
300.0000026
300.0000035
300.0000028
300.0000026
300.0000023
300.0000021
300.0000022
300.0000026
300.0000033
299.999998
299.9999981
299.9999994
299.9999998
300
300.0000002
300.0000004
300.0000006
300.0000008
299.9999952
299.9999956
299.9999976
299.9999983
299.9999985
299.9999986
299.9999989
299.9999993
299.9999999
299.9999955
299.9999958
299.9999979
299.9999985
299.9999985
299.9999985
299.9999988
299.9999993
300.0000001
299.9999976
299.9999983
300
300.0000002
300
299.9999999
300.0000001
300.0000007
300.0000017
300.0000006
300.0000016
300.0000026
300.0000023
300.0000018
300.0000016
300.0000018
300.0000025
300.0000037
300.0000025
300.0000035
300.0000042
300.0000035
300.0000027
300.0000025
300.0000028
300.0000037
300.0000051
299.9999956
299.9999978
299.9999994
300
300.0000004
300.0000008
300.0000011
300.0000014
300.0000015
299.9999913
299.9999945
299.9999972
299.9999981
299.9999987
299.9999994
300.0000002
300.000001
300.0000015
299.9999919
299.9999952
299.9999978
299.9999986
299.999999
299.9999996
300.0000004
300.0000013
300.0000021
299.9999954
299.9999989
300.000001
300.0000011
300.0000011
300.0000014
300.0000021
300.0000031
300.0000043
299.9999996
300.0000034
300.0000048
300.0000041
300.0000035
300.0000035
300.000004
300.0000051
300.0000064
300.0000015
300.0000053
300.000006
300.0000049
300.0000041
300.000004
300.0000046
300.0000057
300.0000071
299.999995
299.9999989
300.0000007
300.0000015
300.000002
300.0000022
300.000002
300.0000018
300.0000016
299.9999891
299.999995
299.9999981
299.9999995
300.0000006
300.0000019
300.000003
300.0000036
300.0000037
299.9999896
299.9999955
299.9999985
299.9999996
300.0000009
300.0000026
300.0000042
300.0000053
300.0000056
299.9999935
299.9999995
300.0000017
300.0000021
300.000003
300.0000044
300.0000056
300.0000066
300.0000071
299.999998
300.0000037
300.0000049
300.0000044
300.0000046
300.0000054
300.0000062
300.000007
300.0000076
299.9999995
300.0000051
300.0000057
300.0000046
300.0000042
300.0000045
300.0000052
300.0000062
300.0000071
299.999994
299.9999992
300.0000037
300.0000056
300.0000063
300.000006
300.0000048
300.0000032
300.0000019
300.0000013
299.9999858
299.9999916
299.9999992
300.0000028
300.0000045
300.0000053
300.0000053
300.0000049
300.0000043
300.0000039
299.9999844
299.9999899
299.9999976
300.0000009
300.0000024
300.0000038
300.0000052
300.0000063
300.0000067
300.0000063
299.9999868
299.9999927
299.9999999
300.0000022
300.0000029
300.0000041
300.0000057
300.000007
300.0000073
300.0000072
299.9999901
299.9999962
300.0000027
300.0000038
300.0000037
300.0000044
300.0000054
300.0000062
300.0000067
300.000007
299.9999908
299.9999966
300.0000029
300.0000036
300.000003
300.0000033
300.0000038
300.0000045
300.0000052
300.0000059
300.0000012
300.0000032
300.0000073
300.0000125
300.000016
300.0000174
300.000017
300.0000148
300.0000107
300.0000062
300.000003
300.0000016
299.9999931
299.9999949
299.9999978
300.0000064
300.0000139
300.0000174
300.0000184
300.0000168
300.000013
300.0000085
300.0000052
300.0000037
299.9999862
299.9999878
299.9999896
299.9999976
300.0000056
300.000009
300.0000103
300.0000105
300.0000096
300.000008
300.0000064
300.0000054
299.9999846
299.9999864
299.9999882
299.9999956
300.0000025
300.0000046
300.0000054
300.0000063
300.0000069
300.0000068
300.0000062
300.0000056
299.999984
299.9999865
299.9999896
299.9999966
300.0000023
300.0000032
300.0000033
300.0000038
300.0000044
300.0000047
300.0000045
300.0000044
299.9999884
299.9999956
300.0000004
300.0000009
300.0000006
300.0000007
300.0000014
300.0000016
300.0000017
300.0000018
300.0000194
300.0000262
300.0000311
300.0000349
300.0000374
300.0000381
300.000036
300.0000305
300.0000219
300.000013
300.0000068
300.0000041
300.0000196
300.0000293
300.0000382
300.0000475
300.0000534
300.0000554
300.000053
300.0000447
300.0000312
300.0000177
300.0000087
300.0000051
300.0000007
300.0000083
300.0000147
300.000024
300.0000306
300.0000332
300.0000325
300.0000281
300.0000206
300.0000124
300.0000065
300.0000038
299.9999894
299.9999957
300.0000005
300.0000084
300.0000136
300.0000151
300.000015
300.0000136
300.0000104
300.0000059
300.0000016
300
299.9999832
299.9999883
299.9999951
300.0000017
300.0000056
300.000006
300.0000058
300.000005
300.0000024
299.9999989
299.9999966
299.9999956
299.9999889
299.9999969
300.0000006
300.0000008
300.0000002
299.9999983
299.9999948
299.9999927
299.9999909
299.9999901
300.0000439
300.0000528
300.0000577
300.0000609
300.0000634
300.000064
300.0000606
300.0000517
300.0000385
300.0000251
300.0000155
300.0000111
300.000082
300.0000991
300.0001104
300.0001186
300.0001237
300.000124
300.0001158
300.000096
300.0000675
300.000039
300.0000202
300.000013
300.0000497
300.0000683
300.0000811
300.0000902
300.0000946
300.0000947
300.0000878
300.0000713
300.0000475
300.0000248
300.0000105
300.0000055
300.0000156
300.0000299
300.0000394
300.0000466
300.0000495
300.0000491
300.000045
300.0000358
300.000022
300.0000079
299.9999976
299.9999943
299.9999945
300.0000048
300.0000165
300.0000216
300.000023
300.000022
300.0000194
300.0000135
300.0000037
299.9999904
299.9999821
299.9999809
299.9999987
300.0000066
300.0000083
300.0000075
300.0000052
299.9999996
299.9999879
299.999975
299.9999687
299.9999692
300.0000661
300.0000753
300.0000796
300.0000829
300.0000862
300.0000877
300.0000841
300.0000734
300.0000575
300.0000413
300.0000295
300.0000238
300.0001573
300.0001761
300.0001877
300.0001962
300.000203
300.0002038
300.0001913
300.0001612
300.0001189
300.0000773
300.0000483
300.0000363
300.0001481
300.0001729
300.0001881
300.0001975
300.0002022
300.0001997
300.0001829
300.0001477
300.0001004
300.0000549
300.0000266
300.0000173
300.0000946
300.0001208
300.000136
300.0001426
300.0001431
300.0001385
300.0001234
300.0000934
300.0000537
300.0000194
300.0000006
299.9999957
300.0000434
300.000062
300.0000786
300.0000807
300.0000786
300.000074
300.0000635
300.0000428
300.0000153
299.9999902
299.999975
299.9999738
300.0000359
300.0000415
300.0000401
300.0000364
300.0000281
300.0000116
299.9999886
299.9999626
299.9999507
299.9999541
300.0000823
300.0000899
300.0000928
300.0000957
300.0000997
300.0001024
300.0000997
300.0000894
300.0000735
300.0000571
300.0000449
300.0000388
300.0002238
300.0002394
300.0002488
300.0002575
300.0002667
300.0002703
300.0002575
300.0002232
300.0001741
300.0001257
300.0000921
300.0000782
300.0002623
300.0002869
300.0003018
300.0003123
300.0003196
300.0003172
300.0002928
300.0002411
300.0001722
300.0001082
300.000067
300.0000529
300.0002267
300.0002544
300.00027
300.0002777
300.0002799
300.0002728
300.0002449
300.0001902
300.0001186
300.0000521
300.0000181
300.0000105
300.0001653
300.0001891
300.0002074
300.0002077
300.0002031
300.0001915
300.0001639
300.0001139
300.0000509
300.0000008
299.9999785
299.9999773
300.0001362
300.0001371
300.0001309
300.0001201
300.0000961
300.0000527
300.0000014
299.9999626
299.9999462
299.9999523
300.0000919
300.0000967
300.0000972
300.0000986
300.0001022
300.0001055
300.0001042
300.0000961
300.0000825
300.0000681
300.0000569
300.0000511
300.000272
300.00028
300.0002836
300.0002892
300.0002989
300.0003055
300.0002965
300.0002652
300.0002181
300.0001707
300.0001373
300.0001233
300.0003657
300.0003817
300.0003916
300.0004006
300.0004109
300.0004121
300.0003873
300.0003291
300.00025
300.0001758
300.0001298
300.0001155
300.0003638
300.0003848
300.0003975
300.0004049
300.0004094
300.000402
300.0003663
300.0002955
300.0002033
300.0001179
300.0000691
300.0000596
300.0003131
300.0003329
300.0003514
300.0003533
300.0003513
300.0003367
300.0002924
300.0002126
300.0001153
300.0000343
300.0000009
300.0000016
300.000262
300.0002636
300.0002566
300.0002394
300.0001973
300.0001237
300.000036
299.9999746
299.9999537
299.9999645
300.000095
300.0000971
300.0000951
300.0000944
300.0000964
300.0000993
300.0000993
300.0000938
300.0000837
300.0000726
300.0000639
300.000059
300.0002974
300.0002965
300.0002919
300.0002923
300.0002997
300.0003073
300.0003025
300.0002785
300.0002405
300.0002008
300.0001721
300.0001593
300.0004398
300.000443
300.0004415
300.0004434
300.0004521
300.0004578
300.0004406
300.0003899
300.0003155
300.0002436
300.0001993
300.0001858
300.0004874
300.0004959
300.0004989
300.0005023
300.000508
300.0005041
300.0004676
300.0003896
300.0002905
300.0002017
300.0001538
300.0001457
300.000467
300.0004743
300.0004779
300.0004791
300.0004802
300.000469
300.0004213
300.0003272
300.000207
300.0001076
300.000065
300.000072
300.000426
300.0004141
300.0004127
300.00041
300.0004034
300.0003819
300.0003232
300.0002215
300.0001028
300.0000152
299.9999897
300.0000148
300.0000032
300.0000021
300.0000021
300.0000021
300.0000021
300.000002
300.000002
300.000002
300.0000035
300.0000023
300.0000022
300.0000022
300.0000022
300.0000021
300.0000021
300.000002
300.0000037
300.0000024
300.0000023
300.0000023
300.0000022
300.0000022
300.0000021
300.0000021
300.0000038
300.0000024
300.0000024
300.0000023
300.0000023
300.0000022
300.0000022
300.0000021
300.0000038
300.0000024
300.0000024
300.0000024
300.0000023
300.0000022
300.0000022
300.0000021
300.0000037
300.0000024
300.0000023
300.0000023
300.0000023
300.0000022
300.0000022
300.0000021
300.0000036
300.0000023
300.0000023
300.0000023
300.0000023
300.0000023
300.0000022
300.0000021
300.0000049
300.0000035
300.0000035
300.0000036
300.0000035
300.0000033
300.000003
300.0000017
300.0000038
300.0000041
300.0000029
300.0000029
300.0000028
300.0000028
300.0000027
300.0000028
300.000003
300.0000041
300.0000028
300.0000029
300.0000029
300.0000028
300.0000027
300.0000027
300.0000029
300.0000038
300.0000026
300.0000028
300.0000028
300.0000027
300.0000025
300.0000025
300.0000026
300.0000035
300.0000024
300.0000026
300.0000026
300.0000025
300.0000023
300.0000022
300.0000022
300.0000033
300.0000022
300.0000025
300.0000024
300.0000022
300.000002
300.0000019
300.000002
300.0000032
300.0000021
300.0000023
300.0000022
300.000002
300.0000018
300.0000018
300.0000019
300.000003
300.0000018
300.0000019
300.0000018
300.0000016
300.0000015
300.0000016
300.0000018
300.0000043
300.0000028
300.0000027
300.0000026
300.0000024
300.0000021
300.0000019
300.0000008
300.0000024
300.0000034
300.0000026
300.0000025
300.0000022
300.0000021
300.0000023
300.0000027
300.0000034
300.0000019
300.0000012
300.0000015
300.0000015
300.0000015
300.0000017
300.0000022
300.0000029
299.9999992
299.9999993
300.0000001
300.0000004
300.0000004
300.0000005
300.000001
300.0000017
299.9999969
299.9999975
299.9999987
299.999999
299.999999
299.9999991
299.9999997
300.0000005
299.9999957
299.9999966
299.9999977
299.9999978
299.9999976
299.9999978
299.9999986
299.9999996
299.9999957
299.9999962
299.9999969
299.9999967
299.9999964
299.9999968
299.9999978
299.9999989
299.9999959
299.9999955
299.9999955
299.999995
299.9999948
299.9999955
299.9999968
299.9999981
299.9999971
299.9999953
299.9999946
299.9999938
299.9999937
299.9999943
299.9999954
299.9999956
299.9999948
300.0000018
300.0000025
300.0000033
300.0000028
300.0000022
300.0000021
300.0000026
300.0000036
300.000005
299.9999993
299.9999979
299.9999997
300
299.9999999
300.0000003
300.0000012
300.0000024
300.0000036
299.999993
299.9999945
299.9999959
299.9999965
299.9999973
299.9999986
300.0000002
300.0000015
299.9999872
299.9999896
299.9999918
299.9999929
299.9999941
299.9999958
299.9999977
299.9999993
299.9999834
299.9999861
299.9999884
299.9999896
299.999991
299.9999931
299.9999955
299.9999974
299.9999815
299.9999837
299.9999854
299.9999864
299.9999881
299.9999906
299.9999935
299.9999958
299.9999804
299.9999811
299.9999816
299.9999824
299.9999844
299.9999874
299.9999907
299.9999936
299.9999809
299.9999788
299.9999781
299.9999786
299.9999806
299.9999837
299.9999868
299.9999889
299.9999851
299.9999994
300.000003
300.000004
300.000003
300.0000024
300.0000026
300.0000034
300.0000048
300.000006
299.9999939
299.9999961
299.9999986
299.9999987
299.9999987
299.9999994
300.0000009
300.0000025
300.0000037
299.999988
299.9999909
299.9999925
299.9999936
299.9999952
299.9999974
299.9999996
300.000001
299.9999794
299.9999831
299.9999861
299.9999882
299.9999907
299.9999936
299.9999963
299.9999982
299.9999723
299.9999764
299.9999801
299.999983
299.9999862
299.9999898
299.9999932
299.9999956
299.9999665
299.9999703
299.9999741
299.9999774
299.9999814
299.9999859
299.99999
299.999993
299.9999612
299.9999635
299.9999667
299.9999704
299.9999752
299.9999805
299.9999853
299.9999893
299.9999583
299.9999577
299.9999596
299.9999633
299.9999685
299.9999737
299.9999786
299.9999825
299.9999756
299.9999959
300.0000022
300.0000033
300.0000024
300.0000019
300.0000022
300.0000032
300.0000045
300.0000056
299.9999865
299.9999937
299.999997
299.9999971
299.9999974
299.9999984
300.0000002
300.0000019
300.0000029
299.9999816
299.9999874
299.9999898
299.9999915
299.9999937
299.9999963
299.9999985
299.9999997
299.9999707
299.9999778
299.9999821
299.9999851
299.9999885
299.9999919
299.9999947
299.9999964
299.9999604
299.9999685
299.9999744
299.9999786
299.9999829
299.9999872
299.9999907
299.9999931
299.9999501
299.9999587
299.9999657
299.9999711
299.9999765
299.9999818
299.9999862
299.9999893
299.9999398
299.9999473
299.9999547
299.9999612
299.9999681
299.9999747
299.9999799
299.9999842
299.9999335
299.9999372
299.9999435
299.9999502
299.9999578
299.9999645
299.9999701
299.9999754
299.9999645
299.9999879
299.9999925
299.9999994
300.0000006
300.0000002
300.0000004
300.0000009
300.0000019
300.0000029
300.0000036
299.999981
299.999982
299.9999906
299.9999943
299.999995
299.9999958
299.9999971
299.9999986
300
300.0000006
299.9999744
299.9999712
299.9999778
299.9999849
299.999988
299.99999
299.9999925
299.9999948
299.9999964
299.9999971
299.9999661
299.9999615
299.999966
299.9999749
299.9999801
299.9999836
299.9999871
299.9999901
299.9999921
299.999993
299.9999568
299.9999502
299.999954
299.9999645
299.9999717
299.9999767
299.999981
299.9999844
299.9999866
299.999988
299.999947
299.999938
299.9999409
299.9999527
299.9999617
299.999968
299.9999732
299.9999773
299.9999802
299.9999822
299.9999381
299.9999267
299.9999268
299.9999382
299.9999482
299.9999556
299.9999619
299.9999673
299.9999714
299.9999751
299.9999333
299.9999215
299.9999164
299.9999244
299.9999332
299.9999407
299.9999472
299.9999528
299.9999575
299.999964
299.9999494
299.9999847
299.9999908
299.999996
299.9999972
299.9999971
299.9999973
299.9999978
299.9999982
299.9999985
299.9999984
299.9999771
299.9999809
299.9999882
299.9999919
299.999993
299.9999935
299.9999944
299.9999951
299.9999953
299.9999949
299.9999682
299.9999695
299.9999768
299.999984
299.9999874
299.9999892
299.999991
299.9999919
299.999992
299.9999914
299.9999575
299.9999586
299.9999653
299.9999747
299.9999804
299.999984
299.9999867
299.9999879
299.9999876
299.999987
299.9999459
299.9999462
299.9999531
299.9999645
299.9999724
299.9999774
299.9999809
299.9999823
299.999982
299.9999818
299.9999342
299.9999327
299.9999392
299.9999523
299.9999619
299.9999681
299.999972
299.9999733
299.9999734
299.9999742
299.9999237
299.9999194
299.9999235
299.9999364
299.999947
299.9999539
299.9999575
299.9999588
299.9999604
299.9999637
299.999917
299.9999105
299.9999101
299.9999195
299.9999289
299.9999353
299.9999384
299.9999398
299.9999424
299.9999506
299.9999359
299.9999842
299.9999908
299.999995
299.9999961
299.9999955
299.9999928
299.9999899
299.9999878
299.9999858
299.9999846
299.9999761
299.9999812
299.9999877
299.9999913
299.9999922
299.9999905
299.9999879
299.9999855
299.9999829
299.9999812
299.9999658
299.9999699
299.9999778
299.9999851
299.9999888
299.9999897
299.9999878
299.9999852
299.9999819
299.9999799
299.9999538
299.9999588
299.9999678
299.9999783
299.999985
299.9999878
299.9999878
299.9999851
299.9999815
299.9999798
299.9999413
299.9999468
299.9999569
299.9999702
299.9999793
299.9999834
299.9999839
299.999982
299.9999787
299.9999774
299.9999294
299.9999335
299.9999436
299.9999585
299.999969
299.9999736
299.9999741
299.9999722
299.9999694
299.9999695
299.9999187
299.99992
299.9999273
299.9999415
299.999952
299.9999567
299.999957
299.9999538
299.9999526
299.9999563
299.9999104
299.999909
299.9999116
299.9999219
299.9999307
299.999935
299.9999345
299.9999317
299.9999324
299.9999424
299.9999297
299.9999894
299.9999957
299.9999985
299.999999
299.9999972
299.9999909
299.9999777
299.999966
299.9999605
299.9999616
299.9999791
299.9999849
299.9999903
299.9999941
299.9999944
299.9999897
299.9999775
299.9999661
299.9999603
299.9999611
299.9999668
299.9999735
299.999983
299.9999919
299.9999961
299.9999938
299.9999852
299.9999736
299.9999671
299.9999669
299.9999537
299.9999632
299.9999778
299.9999926
300.0000017
300.0000015
299.9999939
299.999984
299.9999764
299.9999752
299.9999414
299.9999537
299.9999727
299.9999922
300.0000038
300.0000039
299.9999956
299.999985
299.9999782
299.9999765
299.9999305
299.9999432
299.9999636
299.9999846
299.9999957
299.9999942
299.999985
299.9999747
299.9999691
299.999969
299.999921
299.9999309
299.9999481
299.9999664
299.9999748
299.9999716
299.9999624
299.9999537
299.9999503
299.9999551
299.9999124
299.9999182
299.9999291
299.9999416
299.999947
299.9999438
299.9999365
299.99993
299.9999295
299.9999418
299.9999306
300.000013
300.0000167
300.0000167
300.0000154
300.0000092
299.9999948
299.9999712
299.9999464
299.9999372
299.9999437
299.999994
299.9999985
300.0000029
300.0000068
300.000005
299.999993
299.9999709
299.9999478
299.9999393
299.9999463
299.9999749
299.9999841
299.9999973
300.0000097
300.000014
300.0000052
299.9999855
299.999964
299.9999551
299.9999607
299.9999587
299.9999756
300.0000013
300.0000258
300.0000378
300.0000307
300.000009
299.9999858
299.9999756
299.9999761
299.9999472
299.9999739
300.0000115
300.000043
300.0000561
300.0000464
300.0000217
299.9999946
299.999982
299.9999811
299.9999401
299.9999734
300.0000158
300.0000473
300.0000555
300.00004
300.0000116
299.9999843
299.9999733
299.9999747
299.9999352
299.9999671
300.0000065
300.000032
300.0000325
300.0000108
299.9999804
299.9999586
299.9999526
299.9999605
299.9999294
299.9999539
299.9999847
300.0000018
299.9999969
299.9999746
299.9999487
299.999934
299.9999322
299.9999496
299.9999447
300.0000913
300.0000881
300.0000827
300.0000758
300.0000563
300.0000182
299.9999738
299.9999384
299.9999269
299.9999399
300.0000489
300.0000481
300.0000502
300.0000532
300.0000431
300.0000118
299.9999714
299.9999388
299.9999298
299.9999449
300.0000097
300.0000195
300.0000377
300.0000552
300.0000542
300.0000288
299.9999903
299.9999612
299.9999529
299.9999648
299.9999828
300.0000075
300.000042
300.0000732
300.0000835
300.0000647
300.0000284
299.9999945
299.9999824
299.9999899
299.9999706
300.0000106
300.0000598
300.0001006
300.0001128
300.0000918
300.0000525
300.0000164
300.0000006
300.0000057
299.9999706
300.0000215
300.000079
300.0001184
300.0001209
300.0000898
300.0000452
300.0000083
299.9999935
300.0000022
299.9999783
300.0000303
300.0000842
300.0001122
300.0001004
300.0000593
300.0000113
299.9999771
299.9999686
299.9999878
299.9999841
300.000028
300.0000704
300.0000865
300.0000688
300.0000283
299.9999835
299.9999555
299.9999522
299.9999849
300
300.0001756
300.0001678
300.0001594
300.000147
300.0001148
300.000056
299.999987
299.9999408
299.9999288
299.9999488
300.0001081
300.0001009
300.0000996
300.000099
300.0000804
300.0000348
299.9999769
299.9999388
299.9999313
299.9999557
300.0000482
300.0000534
300.0000692
300.0000875
300.0000869
300.0000543
300
299.9999628
299.9999575
299.9999847
300.0000085
300.0000317
300.0000746
300.0001107
300.0001239
300.0001006
300.0000488
300.0000098
299.9999988
300.0000235
299.9999945
300.0000448
300.0001085
300.0001567
300.0001675
300.0001369
300.0000807
300.0000361
300.0000237
300.0000458
300.0000081
300.000078
300.0001472
300.0001865
300.0001814
300.0001358
300.000071
300.0000263
300.000017
300.0000425
300.0000287
300.000099
300.0001606
300.000185
300.0001608
300.0001007
300.0000311
299.999994
299.9999916
300.0000291
300.0000381
300.0000951
300.0001461
300.0001586
300.0001268
300.0000662
300.000005
299.9999783
299.9999823
300.0000361
300.0000715
300.0004045
300.0003819
300.0003579
300.0003427
300.0003306
300.0003081
300.000249
300.0001451
300.0000302
299.9999671
299.9999622
300.0000117
300.0003372
300.0003011
300.0002617
300.0002396
300.0002302
300.0002185
300.0001729
300.0000845
299.9999895
299.9999483
299.9999588
300.0000201
300.000242
300.0002007
300.0001616
300.0001458
300.0001486
300.0001577
300.0001365
300.0000694
299.9999958
299.9999664
299.9999874
300.0000585
300.0001477
300.0001083
300.0000809
300.0000839
300.0001106
300.0001478
300.0001483
300.0000976
300.0000402
300.0000197
300.0000461
300.0001122
300.000076
300.0000457
300.0000428
300.0000687
300.0001234
300.0001782
300.0001878
300.0001413
300.0000842
300.0000635
300.0000846
300.0001422
300.0000534
300.000036
300.0000458
300.0000937
300.000168
300.0002205
300.000209
300.0001435
300.0000808
300.0000602
300.0000819
300.0001408
300.0000776
300.0000643
300.000077
300.0001294
300.0002008
300.0002291
300.0001893
300.0001091
300.0000477
300.0000324
300.0000641
300.0001354
300.0001238
300.0001046
300.0001075
300.0001439
300.0001987
300.0002112
300.0001678
300.000096
300.0000483
300.0000399
300.0000804
300.0001675
300.0002413
300.0000012
300.0000012
300.0000012
300.0000012
300.0000011
300.000001
300.0000022
300.0000022
300.0000022
300.0000021
300.000002
300.0000014
300.0000021
300.0000021
300.0000021
300.000002
300.0000019
300.0000013
300.000002
300.000002
300.000002
300.000002
300.0000019
300.0000013
300.000002
300.000002
300.000002
300.000002
300.0000019
300.0000014
300.000002
300.000002
300.000002
300.000002
300.0000019
300.0000014
300.0000021
300.0000022
300.0000021
300.000002
300.0000019
300.0000017
300.0000025
300.0000026
300.0000025
300.0000023
300.0000023
300.0000018
300.0000023
300.0000024
300.0000023
300.0000022
300.0000021
300.0000017
300.0000026
300.0000028
300.0000027
300.0000024
300.0000024
300.0000019
300.000003
300.0000032
300.0000031
300.0000029
300.0000027
300.0000021
300.0000032
300.0000034
300.0000033
300.0000031
300.0000029
300.0000022
300.0000012
300.0000012
300.000001
300.0000007
300.0000007
300.0000008
300.0000008
300.0000009
300.0000006
300.0000001
300.0000001
300.0000005
300.0000009
300.0000011
300.0000007
300.0000001
300.0000001
300.0000006
300.000002
300.0000023
300.0000019
300.0000012
300.0000011
300.0000012
300.0000033
300.0000035
300.0000032
300.0000024
300.0000021
300.0000016
300.000004
300.0000042
300.0000037
300.0000029
300.0000024
300.0000016
300.000001
300.0000008
300.0000003
299.9999999
299.9999999
300.0000004
300.0000003
300.0000001
299.9999992
299.9999984
299.9999985
299.9999999
300.0000007
300.0000006
299.9999997
299.9999988
299.9999989
300.0000001
300.0000026
300.0000027
300.0000019
300.0000007
300.0000004
300.0000007
300.0000048
300.000005
300.000004
300.0000025
300.0000017
300.0000011
300.0000062
300.0000062
300.0000049
300.000003
300.0000018
300.0000009
300.0000014
300.000001
300.0000005
300.0000002
300.0000002
300.0000004
300.0000015
300.0000008
299.9999996
299.9999987
299.9999989
300.0000001
300.0000025
300.0000018
300.0000004
299.9999993
299.9999993
300.0000004
300.000005
300.0000047
300.0000032
300.0000014
300.0000008
300.0000008
300.0000073
300.0000071
300.0000055
300.0000033
300.0000017
300.0000008
300.0000078
300.0000074
300.0000056
300.000003
300.0000012
300.0000003
300.0000015
300.0000014
300.0000013
300.0000012
300.0000011
300.0000005
300.0000034
300.0000025
300.0000015
300.0000009
300.000001
300.0000008
300.0000053
300.0000043
300.0000028
300.0000016
300.0000013
300.0000011
300.0000071
300.0000065
300.000005
300.0000031
300.0000019
300.0000011
300.0000079
300.0000074
300.0000059
300.0000037
300.0000018
300.0000007
300.0000076
300.000007
300.0000052
300.0000025
300.0000004
300
300.0000013
300.0000017
300.0000022
300.0000027
300.0000024
300.0000006
300.0000036
300.0000035
300.0000037
300.0000042
300.0000043
300.0000019
300.0000059
300.0000054
300.0000048
300.0000044
300.0000043
300.0000024
300.000007
300.0000065
300.0000056
300.0000044
300.0000036
300.0000021
300.0000071
300.0000067
300.0000054
300.0000036
300.0000023
300.0000013
300.0000061
300.0000054
300.0000036
300.0000014
300.0000003
300.0000005
300.0000017
300.0000026
300.000004
300.0000049
300.0000041
300.0000009
300.0000036
300.0000048
300.0000069
300.0000091
300.0000093
300.0000037
300.0000052
300.0000058
300.000007
300.0000086
300.0000096
300.000005
300.0000054
300.0000056
300.0000061
300.0000067
300.0000074
300.0000046
300.0000043
300.0000042
300.0000039
300.0000042
300.0000046
300.0000036
300.0000018
300.0000012
300.0000005
300.0000011
300.0000022
300.0000031
300.000004
300.0000056
300.0000077
300.0000089
300.0000071
300.0000016
300.0000053
300.0000086
300.0000137
300.0000181
300.0000179
300.000007
300.0000044
300.0000073
300.0000119
300.0000172
300.0000198
300.0000099
300.0000007
300.0000041
300.0000079
300.0000126
300.0000165
300.0000099
299.9999962
299.9999989
300.0000036
300.0000076
300.0000125
300.0000091
299.9999906
299.9999935
299.9999989
300.0000038
300.0000103
300.0000091
300.0000107
300.0000126
300.0000153
300.0000161
300.0000123
300.0000031
300.0000135
300.0000197
300.0000289
300.000036
300.0000332
300.0000127
300.000007
300.0000138
300.0000242
300.0000355
300.0000397
300.0000183
299.9999979
300.0000054
300.0000149
300.0000274
300.0000366
300.0000192
299.9999867
299.9999969
300.0000068
300.0000195
300.0000319
300.0000187
299.9999766
299.9999889
300.000001
300.0000153
300.000031
300.0000193
300.0000229
300.0000249
300.000027
300.0000263
300.000019
300.0000051
300.0000371
300.0000468
300.0000592
300.0000654
300.0000544
300.0000196
300.0000207
300.000034
300.000054
300.0000721
300.0000704
300.000029
300.0000017
300.0000155
300.0000364
300.0000616
300.0000701
300.0000315
299.9999851
300.0000011
300.0000218
300.00005
300.0000658
300.0000313
299.9999708
299.9999911
300.0000141
300.000046
300.0000657
300.0000318
300.0000375
300.0000387
300.0000394
300.000036
300.0000245
300.0000065
300.0000789
300.0000889
300.0000988
300.0000984
300.0000744
300.0000252
300.0000598
300.0000817
300.0001083
300.0001226
300.0001033
300.0000387
300.0000224
300.0000494
300.0000885
300.0001172
300.0001095
300.0000434
299.9999941
300.0000231
300.0000656
300.0001051
300.0001068
300.0000436
299.9999754
300.0000085
300.0000552
300.0001008
300.0001064
300.0000439
300.0000494
300.0000496
300.0000485
300.0000422
300.0000274
300.000007
300.0001232
300.0001304
300.0001346
300.0001241
300.0000871
300.0000281
300.0001254
300.0001494
300.00017
300.0001705
300.0001286
300.0000449
300.0000821
300.0001231
300.0001621
300.0001784
300.0001439
300.0000522
300.0000323
300.0000853
300.0001421
300.0001709
300.0001445
300.0000535
300.0000033
300.0000638
300.000131
300.0001662
300.0001436
300.0000536
300.0000571
300.0000563
300.0000536
300.0000451
300.0000283
300.000007
300.000158
300.000161
300.0001586
300.0001387
300.0000929
300.0000292
300.0001945
300.0002127
300.0002218
300.0002043
300.0001434
300.000048
300.0001698
300.0002077
300.0002342
300.0002294
300.0001676
300.0000576
300.00012
300.0001805
300.000223
300.0002298
300.0001727
300.0000603
300.00008
300.0001578
300.0002118
300.0002257
300.0001718
300.0000606
300.000002
300.000002
300.000002
300.000002
300.000002
300.0000014
300.000002
300.000002
300.0000021
300.0000021
300.000002
300.0000014
300.0000021
300.0000021
300.0000021
300.0000021
300.000002
300.0000014
300.0000021
300.0000021
300.0000021
300.000002
300.000002
300.0000014
300.0000021
300.0000021
300.000002
300.000002
300.0000019
300.0000013
300.0000021
300.000002
300.000002
300.0000019
300.0000018
300.0000013
300.0000021
300.000002
300.0000019