/*--------------------------------*- C++ -*----------------------------------*\
  =========                 |
  \\      /  F ield         | OpenFOAM: The Open Source CFD Toolbox
   \\    /   O peration     | Website:  https://openfoam.org
    \\  /    A nd           | Version:  8
     \\/     M anipulation  |
\*---------------------------------------------------------------------------*/
FoamFile
{
    version     2.0;
    format      ascii;
    class       volVectorField;
    location    "350";
    object      U;
}
// * * * * * * * * * * * * * * * * * * * * * * * * * * * * * * * * * * * * * //

dimensions      [0 1 -1 0 0 0 0];

internalField   nonuniform List<vector> 
83124
(
(-0.47153728 -0.16790059 -0.080956267)
(-0.43382286 -0.10292009 0.03972044)
(-0.39390953 -0.093361954 0.025913462)
(-0.40043383 -0.084143473 0.0075485873)
(-0.38889529 -0.072296381 -0.013325778)
(-0.29103736 -0.045261187 -0.020435668)
(-0.23855001 -0.1066529 0.041788177)
(-0.41842381 -0.17036143 0.010712651)
(-0.49596368 -0.11621414 0.0067313601)
(-0.50128556 -0.10640668 -0.019085657)
(-0.50346347 -0.1000922 -0.044018915)
(-0.4942395 -0.093191875 -0.063345146)
(-0.44365025 -0.086225775 -0.069224303)
(-0.33488135 -0.07773658 -0.059848704)
(-0.36539314 -0.047047829 0.035508495)
(-0.52178051 -0.10266218 0.026313893)
(-0.54293678 -0.093697536 -0.014412236)
(-0.55449848 -0.088558486 -0.051193378)
(-0.54935534 -0.081777047 -0.081990577)
(-0.54393117 -0.073271376 -0.10620462)
(-0.51785036 -0.067082714 -0.11712627)
(-0.3892895 -0.060514778 -0.098376701)
(-0.37427567 -0.026379344 0.039900162)
(-0.54346428 -0.058014078 0.033875059)
(-0.55941809 -0.058803531 -0.012058646)
(-0.56770385 -0.058328642 -0.049903558)
(-0.56322394 -0.054386207 -0.082021463)
(-0.56043602 -0.048675532 -0.10877489)
(-0.53579994 -0.04216988 -0.12074412)
(-0.40148779 -0.029249196 -0.099002956)
(-0.34216265 0.0015629628 0.048653354)
(-0.51239946 -0.021921246 0.05194025)
(-0.53012526 -0.029971082 0.01100861)
(-0.54215463 -0.030717048 -0.026742835)
(-0.54022793 -0.027261408 -0.059612533)
(-0.54003914 -0.02263482 -0.087013404)
(-0.51566874 -0.016430096 -0.10043576)
(-0.38737964 -0.0032887679 -0.08375434)
(-0.26948076 0.0083299906 0.0558403)
(-0.42821086 -0.0095174437 0.07648244)
(-0.45314232 -0.020298234 0.046235303)
(-0.47176358 -0.021444703 0.01175905)
(-0.47701925 -0.018695214 -0.020159306)
(-0.48162503 -0.014362835 -0.047723719)
(-0.4592365 -0.0077956568 -0.064291179)
(-0.34642736 0.0044064108 -0.057041423)
(-0.19632236 -0.026417306 0.050937991)
(-0.32766813 -0.041567173 0.08810254)
(-0.35752176 -0.047546571 0.071568615)
(-0.38045552 -0.046937532 0.044139587)
(-0.39425748 -0.043701329 0.016143953)
(-0.40665774 -0.038640742 -0.010387495)
(-0.38652237 -0.031551076 -0.028533284)
(-0.29031201 -0.020349785 -0.029502106)
(-0.23146055 -0.079663314 0.038974583)
(-0.3442031 -0.10405093 0.074018777)
(-0.368109 -0.10260352 0.057985428)
(-0.38517682 -0.10013231 0.032132454)
(-0.39581527 -0.096722362 0.0057233756)
(-0.40686325 -0.092155728 -0.019752184)
(-0.38476483 -0.084509759 -0.036330298)
(-0.28748528 -0.071879538 -0.035709695)
(-0.30728575 -0.10363089 0.038155431)
(-0.43723404 -0.1444528 0.060290873)
(-0.45710975 -0.14088258 0.032757365)
(-0.47042789 -0.13783496 0.00032304282)
(-0.47381334 -0.13418741 -0.030088584)
(-0.47623715 -0.12948989 -0.056821831)
(-0.45144234 -0.12134011 -0.071953837)
(-0.33733223 -0.10349918 -0.063728584)
(-0.3539039 -0.10429556 0.042210228)
(-0.50887496 -0.1537615 0.053707544)
(-0.5286271 -0.15230694 0.01641009)
(-0.54157146 -0.14988118 -0.021748798)
(-0.54032873 -0.14592378 -0.055416674)
(-0.53707711 -0.13970033 -0.082871681)
(-0.51150307 -0.13080515 -0.097220277)
(-0.38105667 -0.10753175 -0.082723534)
(-0.37208878 -0.095809267 0.047113021)
(-0.54324785 -0.14569981 0.054510211)
(-0.56314227 -0.14722166 0.012669828)
(-0.57619611 -0.14569612 -0.028205415)
(-0.57281333 -0.14139893 -0.062877538)
(-0.57092103 -0.13581232 -0.091474105)
(-0.54430924 -0.12609713 -0.10615115)
(-0.40490425 -0.10014316 -0.089698433)
(-0.37736091 -0.085583966 0.051665101)
(-0.55743735 -0.13220417 0.059124742)
(-0.57809387 -0.13600057 0.01558055)
(-0.59181741 -0.13531996 -0.02644896)
(-0.58802697 -0.13112119 -0.06181929)
(-0.58681714 -0.12598469 -0.091218269)
(-0.55941112 -0.11625599 -0.10620765)
(-0.41574216 -0.090346087 -0.089554705)
(-0.37717103 -0.07632632 0.055021701)
(-0.56211134 -0.11861586 0.064166687)
(-0.58414861 -0.12356199 0.020511433)
(-0.59878893 -0.12342566 -0.022235861)
(-0.59542889 -0.1196985 -0.058179274)
(-0.59455497 -0.11510251 -0.088159674)
(-0.56646616 -0.10600092 -0.10384239)
(-0.42147341 -0.081734398 -0.088546793)
(-0.37521605 -0.069195844 0.057254398)
(-0.56288064 -0.10736686 0.068431129)
(-0.5866097 -0.11262535 0.025254864)
(-0.60218477 -0.11282291 -0.017908943)
(-0.59970252 -0.10962404 -0.054444662)
(-0.59900878 -0.10546301 -0.084900026)
(-0.57037384 -0.097146711 -0.10100528)
(-0.4242863 -0.074924991 -0.086517947)
(-0.37418186 -0.06427017 0.058691477)
(-0.56352167 -0.098998409 0.071451662)
(-0.58873897 -0.1040378 0.028789356)
(-0.60516594 -0.10437262 -0.01478519)
(-0.60357731 -0.10163529 -0.051870895)
(-0.60298513 -0.097843626 -0.082758242)
(-0.57384674 -0.090308835 -0.099380178)
(-0.42720706 -0.069957894 -0.086026187)
(-0.3751819 -0.060756705 0.059679826)
(-0.56588612 -0.092705351 0.073273726)
(-0.59216843 -0.097280756 0.030783701)
(-0.60910556 -0.097649968 -0.013183131)
(-0.60807404 -0.095279314 -0.050748708)
(-0.60748482 -0.091819405 -0.081951527)
(-0.57792919 -0.084941749 -0.09874316)
(-0.4300054 -0.066154591 -0.085586346)
(-0.3783613 -0.057491919 0.060383868)
(-0.57039554 -0.08707977 0.074045822)
(-0.59724702 -0.091214438 0.031350323)
(-0.61436489 -0.091598612 -0.013054763)
(-0.61351646 -0.089539925 -0.051007432)
(-0.61293637 -0.086416416 -0.082482158)
(-0.58296113 -0.080133569 -0.099477194)
(-0.43391013 -0.062695766 -0.08674395)
(-0.38231528 -0.053430646 0.06099321)
(-0.57576944 -0.080830423 0.074237332)
(-0.60285354 -0.084721096 0.0311014)
(-0.61987867 -0.085168813 -0.013718155)
(-0.61893198 -0.083392163 -0.05198356)
(-0.61835991 -0.080613094 -0.083647675)
(-0.58808125 -0.07486183 -0.10062453)
(-0.43740654 -0.058631436 -0.08755942)
(-0.38544705 -0.048215171 0.061501042)
(-0.57996018 -0.07341145 0.074331672)
(-0.60715633 -0.077333227 0.030810503)
(-0.62407024 -0.077924278 -0.014342955)
(-0.62304791 -0.076419904 -0.052841214)
(-0.62261754 -0.073983264 -0.084689172)
(-0.59208691 -0.068728195 -0.10176815)
(-0.44042916 -0.053644608 -0.088875368)
(-0.38589103 -0.042219809 0.061950193)
(-0.58076846 -0.065191976 0.074789507)
(-0.60819096 -0.069380319 0.031263109)
(-0.6251052 -0.070157801 -0.014024581)
(-0.62428588 -0.068916402 -0.052708486)
(-0.62407802 -0.066766889 -0.084678588)
(-0.5935013 -0.061910293 -0.10176667)
(-0.44114546 -0.047953748 -0.088772404)
(-0.38272878 -0.036541423 0.062175833)
(-0.57666243 -0.057404667 0.075834581)
(-0.60464865 -0.061901809 0.032911739)
(-0.62192857 -0.062852035 -0.012304999)
(-0.62184769 -0.061827261 -0.051129361)
(-0.6220328 -0.059889947 -0.083218461)
(-0.59156034 -0.055375686 -0.10051718)
(-0.43971948 -0.042469544 -0.088205128)
(-0.37615478 -0.032746353 0.062000131)
(-0.56771671 -0.051815588 0.077275798)
(-0.5966669 -0.056328209 0.035578216)
(-0.61467537 -0.057304927 -0.0093521362)
(-0.61585342 -0.05640833 -0.048289706)
(-0.61650114 -0.054574046 -0.080432374)
(-0.58637643 -0.050313982 -0.097873583)
(-0.43555752 -0.038374208 -0.086103979)
(-0.36918071 -0.032122611 0.061191591)
(-0.55732289 -0.049928849 0.078294019)
(-0.58729826 -0.053818416 0.038056249)
(-0.60620052 -0.05457097 -0.0064759551)
(-0.60884048 -0.053675585 -0.045481396)
(-0.60992065 -0.051825112 -0.077619208)
(-0.58021782 -0.047779672 -0.09523801)
(-0.43093016 -0.036657525 -0.084394864)
(-0.36624409 -0.034447943 0.059964822)
(-0.55172157 -0.051653815 0.078143644)
(-0.5822182 -0.054240735 0.038798918)
(-0.60158392 -0.054538768 -0.0054902909)
(-0.6050985 -0.053499285 -0.044527312)
(-0.60631727 -0.051528227 -0.076574072)
(-0.57692831 -0.047659953 -0.09413086)
(-0.42809758 -0.037195506 -0.083488343)
(-0.37035929 -0.037624507 0.058965404)
(-0.55571257 -0.054706176 0.076771272)
(-0.5858775 -0.055748539 0.0371165)
(-0.60509495 -0.055512065 -0.0073247233)
(-0.60842686 -0.054205775 -0.046403297)
(-0.60941319 -0.052097568 -0.078396952)
(-0.57984964 -0.048399998 -0.095856293)
(-0.43005078 -0.038389587 -0.085023344)
(-0.37982958 -0.039069908 0.058801687)
(-0.56814117 -0.055964585 0.074909311)
(-0.59733458 -0.055827748 0.033900813)
(-0.61597782 -0.055121541 -0.011000629)
(-0.61819216 -0.053508877 -0.050168973)
(-0.61872331 -0.051336352 -0.082198334)
(-0.58854492 -0.047839429 -0.099402099)
(-0.43609257 -0.038252509 -0.087584969)
(-0.3904278 -0.037604507 0.059553004)
(-0.58351607 -0.053694607 0.073656042)
(-0.61171455 -0.053019315 0.030907363)
(-0.62979234 -0.052000855 -0.014648809)
(-0.63068691 -0.050144713 -0.054009855)
(-0.63083888 -0.048020558 -0.086174402)
(-0.5997755 -0.044811086 -0.10322898)
(-0.44422614 -0.035789227 -0.090682909)
(-0.3990217 -0.033828394 0.061031649)
(-0.59717303 -0.048269338 0.073683932)
(-0.62484684 -0.047470098 0.029351548)
(-0.64261326 -0.046290085 -0.016916876)
(-0.6424991 -0.044324434 -0.056550103)
(-0.64244424 -0.042364352 -0.088938766)
(-0.61048468 -0.03957135 -0.10591062)
(-0.45189379 -0.031471329 -0.092740697)
(-0.40571947 -0.028999859 0.062754082)
(-0.60841892 -0.040975359 0.074541105)
(-0.63598578 -0.040039525 0.028920068)
(-0.65363621 -0.038791546 -0.018042295)
(-0.65291853 -0.036899975 -0.058006828)
(-0.65280996 -0.035231342 -0.090656384)
(-0.61997006 -0.033021315 -0.10770316)
(-0.45884887 -0.026265945 -0.09441026)
(-0.41244078 -0.023691039 0.064442665)
(-0.61937443 -0.032504895 0.075376175)
(-0.64691108 -0.031178553 0.02845739)
(-0.66436863 -0.029946406 -0.019230024)
(-0.66307638 -0.028320324 -0.059539472)
(-0.66296496 -0.027071393 -0.092449889)
(-0.62929928 -0.025622365 -0.10952381)
(-0.46560869 -0.020639375 -0.095949761)
(-0.42115846 -0.017318177 0.066103232)
(-0.63252054 -0.022229208 0.075504725)
(-0.65969274 -0.020334731 0.026910562)
(-0.67662167 -0.019269185 -0.021533489)
(-0.67438482 -0.018077291 -0.062125044)
(-0.67426734 -0.017299117 -0.095252135)
(-0.6397121 -0.0167327 -0.11228162)
(-0.47324829 -0.013994283 -0.098312944)
(-0.43263853 -0.0084038251 0.067693096)
(-0.64908671 -0.0086491088 0.074303413)
(-0.67529402 -0.006355806 0.02354959)
(-0.6910651 -0.0057910449 -0.025566532)
(-0.68708966 -0.0051415794 -0.066244023)
(-0.6868812 -0.0047540604 -0.099486617)
(-0.65146658 -0.0051252924 -0.11628321)
(-0.48180726 -0.0052957256 -0.10143289)
(-0.44509017 0.0052320116 0.069097927)
(-0.66640579 0.011031435 0.072197793)
(-0.69074668 0.013328533 0.019159783)
(-0.7048339 0.013044685 -0.030416606)
(-0.70035546 0.012867185 -0.071464069)
(-0.69967639 0.012842125 -0.10493189)
(-0.66373137 0.011496799 -0.12139793)
(-0.49089292 0.0075720981 -0.10537195)
(-0.45656915 0.024503703 0.069934575)
(-0.68166121 0.038088912 0.069197956)
(-0.70376524 0.03932156 0.013980481)
(-0.7157259 0.037844956 -0.03566229)
(-0.71046393 0.036443498 -0.076854873)
(-0.70906015 0.035608021 -0.11042042)
(-0.67297962 0.033554439 -0.12645072)
(-0.49782743 0.025846758 -0.10901834)
(-0.46137782 0.052148946 0.068042718)
(-0.68645187 0.074619924 0.064671176)
(-0.70647551 0.072170056 0.0094739183)
(-0.71696598 0.06885038 -0.039361952)
(-0.71049547 0.065702975 -0.080138045)
(-0.7078246 0.063672953 -0.11351798)
(-0.67140968 0.062127251 -0.12928294)
(-0.49704042 0.052370486 -0.11110188)
(-0.43305475 0.083153472 0.064897465)
(-0.64362773 0.10913353 0.069602248)
(-0.66412037 0.097317431 0.020966906)
(-0.67729734 0.090923799 -0.024420906)
(-0.67094726 0.085515465 -0.063457671)
(-0.66495302 0.083494441 -0.095727888)
(-0.62850374 0.085090247 -0.11290752)
(-0.4663571 0.076584773 -0.099398208)
(-0.26807475 0.064227181 0.049192785)
(-0.39458912 0.079452083 0.09140965)
(-0.41400538 0.066602002 0.077959241)
(-0.43927497 0.062894456 0.050743537)
(-0.45659186 0.062263564 0.018286983)
(-0.47451316 0.064725809 -0.016083617)
(-0.458262 0.067502244 -0.041356454)
(-0.33746506 0.06036214 -0.045351791)
(-0.29124185 -0.076646973 0.091210249)
(-0.4163296 -0.069556734 0.10372217)
(-0.43142095 -0.073131124 0.076409143)
(-0.45668487 -0.076974173 0.04658701)
(-0.43587226 -0.07459572 0.018373551)
(-0.31811847 -0.050676587 -0.0014642501)
(-0.19590511 -0.076294958 0.075501738)
(-0.27163768 -0.079719482 0.10588483)
(-0.31267195 -0.062842186 0.10585012)
(-0.42693454 -0.059876667 0.084275523)
(-0.52617243 -0.057741541 0.078488905)
(-0.54053797 -0.073824385 0.044502859)
(-0.54934899 -0.083292592 0.01585462)
(-0.5344472 -0.086931697 -0.0092416328)
(-0.47517506 -0.08174684 -0.033528459)
(-0.41536856 -0.07673076 -0.048809354)
(-0.38003275 -0.074040923 -0.054618592)
(-0.27851285 -0.052201111 -0.048138996)
(-0.2113694 -0.047663542 0.073137033)
(-0.33243832 -0.083299701 0.08950211)
(-0.41300426 -0.066405115 0.071157144)
(-0.47354189 -0.065679482 0.035070319)
(-0.54833666 -0.071481568 0.053844884)
(-0.58143137 -0.065451728 0.079726996)
(-0.57114143 -0.070355604 0.049750809)
(-0.5729558 -0.071945154 0.013619944)
(-0.56376705 -0.073589439 -0.022462383)
(-0.53061325 -0.080520113 -0.048065883)
(-0.46884032 -0.08868674 -0.078858467)
(-0.45107455 -0.084395724 -0.099083138)
(-0.39977296 -0.078421113 -0.10165236)
(-0.29066815 -0.055834114 -0.079123539)
(-0.19874447 -0.030560829 0.071450397)
(-0.29817884 -0.078530072 0.10366169)
(-0.38510037 -0.076562866 0.12017521)
(-0.4383724 -0.082633225 0.11431005)
(-0.51354089 -0.11159589 0.11537858)
(-0.60528864 -0.11999813 0.076819046)
(-0.63334852 -0.06200897 0.06647738)
(-0.63124966 -0.05800879 0.025414253)
(-0.62780857 -0.055206275 -0.014936881)
(-0.61803199 -0.05804767 -0.053695997)
(-0.57995623 -0.074096928 -0.082717036)
(-0.52591582 -0.095324144 -0.10198797)
(-0.47444982 -0.080756643 -0.14710708)
(-0.45946277 -0.080161893 -0.15475017)
(-0.40572699 -0.079145016 -0.14992791)
(-0.31131638 -0.070995446 -0.12278826)
(-0.27664183 -0.029044569 0.077163197)
(-0.40291328 -0.063609452 0.12584017)
(-0.4518732 -0.060087827 0.12014786)
(-0.52941342 -0.057946198 0.10579846)
(-0.60978004 -0.06098039 0.10653697)
(-0.68996256 -0.074001124 0.087486641)
(-0.67136306 -0.057667853 0.04442917)
(-0.67042442 -0.053577214 0.0012364901)
(-0.67113632 -0.050257096 -0.044562114)
(-0.66982455 -0.049338433 -0.087389244)
(-0.65036423 -0.05605826 -0.12192222)
(-0.58171139 -0.072815363 -0.14723359)
(-0.5134203 -0.064886531 -0.19354554)
(-0.50325632 -0.062427769 -0.2070133)
(-0.46826929 -0.05713902 -0.20835399)
(-0.35134124 -0.050618091 -0.16447565)
(-0.28138862 -0.0049481706 0.08301005)
(-0.42194402 -0.033473362 0.13841655)
(-0.46780012 -0.044253997 0.13030037)
(-0.54599496 -0.053575414 0.11315272)
(-0.62423324 -0.056936804 0.10600498)
(-0.70856407 -0.063818305 0.087869293)
(-0.68664024 -0.05319496 0.039590161)
(-0.69094539 -0.051290661 -0.0062781145)
(-0.69137787 -0.048692573 -0.053682154)
(-0.69115985 -0.047729648 -0.098075926)
(-0.67507984 -0.049561249 -0.13428202)
(-0.60507928 -0.051098655 -0.15972065)
(-0.5294258 -0.042685446 -0.2005471)
(-0.5202679 -0.038030375 -0.21503581)
(-0.48459973 -0.030429341 -0.21535701)
(-0.36181754 -0.01921447 -0.16606788)
(-0.24762935 0.015917842 0.081503097)
(-0.38806063 -0.0027942771 0.14592871)
(-0.43458144 -0.019509317 0.14520619)
(-0.51519821 -0.034206643 0.13153719)
(-0.59709414 -0.042157921 0.11276373)
(-0.69365991 -0.056115405 0.10199931)
(-0.67334173 -0.052451485 0.053065363)
(-0.67763584 -0.050373776 0.0074241987)
(-0.67881559 -0.047695826 -0.040113454)
(-0.6799276 -0.045544948 -0.084656586)
(-0.66364586 -0.042373006 -0.12026123)
(-0.59404825 -0.032496131 -0.14545919)
(-0.5141576 -0.021798874 -0.1753445)
(-0.50431855 -0.013964376 -0.19190569)
(-0.46726058 -0.0048199594 -0.19377588)
(-0.35051016 0.0059404128 -0.14960548)
(-0.18547201 0.012413106 0.069693979)
(-0.30910446 0.00032974815 0.14355742)
(-0.35552075 -0.01633331 0.15590942)
(-0.43767932 -0.030339374 0.15043513)
(-0.52815204 -0.038143505 0.12406206)
(-0.64358314 -0.053766715 0.13021996)
(-0.6311867 -0.053063163 0.084551219)
(-0.63474138 -0.050522003 0.04091838)
(-0.63488016 -0.047724112 -0.0049985227)
(-0.63682725 -0.044913924 -0.048498194)
(-0.61884577 -0.039288368 -0.082935433)
(-0.54964271 -0.025200055 -0.10876011)
(-0.46656095 -0.014049717 -0.12600188)
(-0.45566116 -0.0054741951 -0.14546213)
(-0.41816302 0.0029663634 -0.15119039)
(-0.3155692 0.012160309 -0.118266)
(-0.14448303 -0.023221884 0.051657042)
(-0.23754925 -0.032996692 0.12700343)
(-0.27938164 -0.043113124 0.1485372)
(-0.35762309 -0.052386873 0.15269851)
(-0.45520876 -0.056419155 0.13129111)
(-0.58138508 -0.064311984 0.15569751)
(-0.5805521 -0.059700394 0.11673695)
(-0.58459357 -0.055214171 0.076638138)
(-0.58202655 -0.052072333 0.03379389)
(-0.58020536 -0.050133805 -0.0073684366)
(-0.55848118 -0.047331871 -0.039673275)
(-0.48549476 -0.039608704 -0.065115392)
(-0.39935177 -0.031779635 -0.072911531)
(-0.38666845 -0.026524766 -0.092823477)
(-0.34987764 -0.020508713 -0.10142997)
(-0.26349877 -0.012026723 -0.080600645)
(-0.1900174 -0.065927476 0.05481365)
(-0.26964245 -0.087008375 0.12082316)
(-0.30448018 -0.091228058 0.13497505)
(-0.37646197 -0.096187459 0.1371723)
(-0.47387126 -0.095207283 0.12804025)
(-0.58541315 -0.093730678 0.15376223)
(-0.5833177 -0.080095529 0.11782671)
(-0.58478146 -0.073522233 0.079280977)
(-0.57976055 -0.070149183 0.037908035)
(-0.57411733 -0.069593109 -0.0025343095)
(-0.55034917 -0.073449782 -0.034960975)
(-0.47323291 -0.08048862 -0.060258409)
(-0.38821763 -0.077240992 -0.074372281)
(-0.37488386 -0.078207349 -0.093650962)
(-0.33872049 -0.073759064 -0.10160352)
(-0.25332501 -0.062514172 -0.081410563)
(-0.24702613 -0.079880076 0.06969413)
(-0.3470276 -0.11717381 0.13065084)
(-0.38568078 -0.12208493 0.13425918)
(-0.46221778 -0.12617633 0.12811936)
(-0.55672178 -0.12211567 0.12483943)
(-0.65535837 -0.11828245 0.13657206)
(-0.64334082 -0.098163721 0.095385784)
(-0.64143409 -0.090946109 0.053819347)
(-0.63507856 -0.088176642 0.0099263287)
(-0.63076464 -0.08980383 -0.03286561)
(-0.60775392 -0.098311953 -0.06755565)
(-0.52836304 -0.11469234 -0.093721921)
(-0.44541592 -0.11259698 -0.12153507)
(-0.43292372 -0.11658293 -0.13960585)
(-0.39597358 -0.11151885 -0.14540654)
(-0.29530632 -0.094381581 -0.11553791)
(-0.27429193 -0.076575564 0.079278294)
(-0.39846629 -0.12076691 0.14124161)
(-0.44404654 -0.12862154 0.14032291)
(-0.52798305 -0.13418677 0.12865122)
(-0.62117358 -0.12991442 0.12478234)
(-0.71799194 -0.12685828 0.123227)
(-0.69797171 -0.10590801 0.075430221)
(-0.69601506 -0.09975169 0.029762036)
(-0.69162788 -0.098249824 -0.018126068)
(-0.69090407 -0.10135653 -0.064311499)
(-0.6683529 -0.11081839 -0.10074214)
(-0.58713628 -0.12786588 -0.12674467)
(-0.50239258 -0.12499787 -0.16199288)
(-0.49028573 -0.12879581 -0.17839552)
(-0.45251334 -0.12174312 -0.18217672)
(-0.33684161 -0.099057373 -0.14291959)
(-0.28103428 -0.06807188 0.084271877)
(-0.42059324 -0.11164123 0.15007285)
(-0.47080821 -0.12227619 0.14864862)
(-0.55972477 -0.13014295 0.13427608)
(-0.65350598 -0.12732621 0.12616259)
(-0.75360514 -0.12587356 0.11764061)
(-0.73025999 -0.10727422 0.065147117)
(-0.73029546 -0.10266684 0.016108161)
(-0.72881637 -0.101982 -0.034853337)
(-0.72784213 -0.10517265 -0.082366657)
(-0.70591467 -0.11373824 -0.11964864)
(-0.62317627 -0.12762919 -0.14493807)
(-0.53496988 -0.12394423 -0.18005593)
(-0.52311116 -0.1265499 -0.1955806)
(-0.48373373 -0.11768841 -0.19774518)
(-0.35925106 -0.091903665 -0.15373305)
(-0.28026077 -0.059292434 0.086618028)
(-0.42768904 -0.098945449 0.15642075)
(-0.48053206 -0.11114744 0.15654878)
(-0.57233099 -0.12071603 0.14156345)
(-0.66732059 -0.11935908 0.12869407)
(-0.77142406 -0.11944702 0.11783209)
(-0.74670821 -0.10347851 0.062415236)
(-0.74776035 -0.099880748 0.011337799)
(-0.74728463 -0.099902611 -0.04124589)
(-0.74621337 -0.10312815 -0.089488658)
(-0.72447321 -0.11026725 -0.12708419)
(-0.64135721 -0.12081267 -0.15152797)
(-0.55054546 -0.1167824 -0.18384572)
(-0.5382955 -0.11818551 -0.19914019)
(-0.49741235 -0.1085698 -0.20075064)
(-0.3694981 -0.082687303 -0.15573388)
(-0.27714135 -0.051874628 0.087623175)
(-0.42809733 -0.0869717 0.16066609)
(-0.48245196 -0.099612663 0.16304984)
(-0.57619235 -0.1098116 0.14835358)
(-0.67280291 -0.1094465 0.13162582)
(-0.7807965 -0.11064651 0.12115943)
(-0.75571193 -0.096939263 0.063847717)
(-0.75676362 -0.093947555 0.011635946)
(-0.75623192 -0.094350228 -0.041832107)
(-0.75524166 -0.097430083 -0.090779888)
(-0.73358971 -0.10341009 -0.12862273)
(-0.65074468 -0.11166018 -0.15324969)
(-0.557954 -0.10758013 -0.18225066)
(-0.54540415 -0.10834655 -0.19810604)
(-0.50310986 -0.099025427 -0.19965258)
(-0.37420843 -0.074776333 -0.15498642)
(-0.27394843 -0.046656233 0.087834844)
(-0.42605714 -0.077701599 0.16333106)
(-0.48167733 -0.089956107 0.16794823)
(-0.57680349 -0.099986792 0.15405572)
(-0.67514721 -0.10020755 0.13472589)
(-0.78686746 -0.10199654 0.12551492)
(-0.76193463 -0.08991371 0.067031737)
(-0.76262161 -0.08717092 0.014100077)
(-0.76165807 -0.087650323 -0.03997622)
(-0.76072112 -0.090509881 -0.089590996)
(-0.73883395 -0.095696935 -0.12786999)
(-0.65640847 -0.10268885 -0.15282442)
(-0.5622745 -0.098887426 -0.17984009)
(-0.54914682 -0.099465191 -0.1962032)
(-0.50586405 -0.09095629 -0.19802897)
(-0.37660857 -0.068798848 -0.15401091)
(-0.27228768 -0.043532156 0.087828399)
(-0.42463307 -0.071373163 0.16503394)
(-0.48121027 -0.082715725 0.17141481)
(-0.57747857 -0.092089337 0.15831072)
(-0.67760001 -0.092586917 0.13738682)
(-0.79219773 -0.094432836 0.12952662)
(-0.76762076 -0.083385252 0.070322924)
(-0.7678846 -0.080709254 0.01688034)
(-0.76641872 -0.081091124 -0.037733853)
(-0.76553218 -0.083707397 -0.088020537)
(-0.74345152 -0.088467375 -0.12680819)
(-0.66116595 -0.094998024 -0.15259671)
(-0.56574611 -0.091678498 -0.1780732)
(-0.55237582 -0.092349676 -0.19509626)
(-0.50816666 -0.084772221 -0.19703583)
(-0.37849328 -0.064480424 -0.15345254)
(-0.27302964 -0.041636485 0.088154925)
(-0.42548712 -0.067050618 0.16637191)
(-0.48282824 -0.077260058 0.17378359)
(-0.57991768 -0.085830269 0.16123926)
(-0.68141413 -0.086388696 0.13947203)
(-0.79796788 -0.087972776 0.1323208)
(-0.77364425 -0.07762586 0.072625561)
(-0.77353993 -0.074959847 0.018721559)
(-0.77169312 -0.075207572 -0.036400022)
(-0.77077629 -0.077618112 -0.087298418)
(-0.74833207 -0.082156246 -0.12658633)
(-0.66598623 -0.088637038 -0.15286727)
(-0.56968568 -0.085903628 -0.17785712)
(-0.55590016 -0.086786542 -0.19513515)
(-0.51112413 -0.080090842 -0.19716639)
(-0.38073958 -0.061312757 -0.15374064)
(-0.27581244 -0.039853879 0.088910518)
(-0.42868128 -0.063323652 0.16761577)
(-0.48652811 -0.072469653 0.17538238)
(-0.58436995 -0.080269174 0.16298859)
(-0.68683649 -0.080833797 0.14079737)
(-0.80429781 -0.082148402 0.1337165)
(-0.78003907 -0.072416516 0.073506867)
(-0.77966894 -0.069783111 0.019180962)
(-0.77763369 -0.069911308 -0.036413896)
(-0.77665874 -0.072117083 -0.087810114)
(-0.75403396 -0.076479362 -0.12751875)
(-0.67140095 -0.082961047 -0.15448503)
(-0.5742162 -0.080763961 -0.17906846)
(-0.56038339 -0.081911738 -0.19670142)
(-0.51506846 -0.07596836 -0.19856418)
(-0.3836285 -0.058432847 -0.15495612)
(-0.27946496 -0.037337483 0.089902127)
(-0.43298078 -0.059022217 0.16873163)
(-0.49120919 -0.067334529 0.17642277)
(-0.58955897 -0.074529113 0.1639997)
(-0.69262317 -0.075143451 0.14158459)
(-0.81045748 -0.076401382 0.13403829)
(-0.78614576 -0.067415314 0.073381088)
(-0.78563954 -0.064853442 0.018663124)
(-0.78358726 -0.064864535 -0.037350306)
(-0.78250733 -0.066826421 -0.089137187)
(-0.75957281 -0.070907672 -0.12915813)
(-0.67663557 -0.077156288 -0.15644987)
(-0.57896016 -0.075374877 -0.18121095)
(-0.5649293 -0.076671305 -0.19885212)
(-0.51933281 -0.071358491 -0.20063868)
(-0.38675246 -0.055003612 -0.156652)
(-0.28241478 -0.033803589 0.090680698)
(-0.4364261 -0.053652443 0.16949438)
(-0.49481037 -0.061419491 0.17705819)
(-0.59365067 -0.068226991 0.16457338)
(-0.69723171 -0.06902257 0.14197134)
(-0.81527309 -0.07054474 0.13399931)
(-0.79104884 -0.062501593 0.073054176)
(-0.79048026 -0.060032015 0.018044077)
(-0.78847908 -0.059914297 -0.038288581)
(-0.78729395 -0.06158148 -0.090331204)
(-0.76417133 -0.065201923 -0.13059493)
(-0.68084346 -0.070862298 -0.15836682)
(-0.58259162 -0.069290286 -0.18292738)
(-0.56865122 -0.070577625 -0.20078724)
(-0.52274224 -0.065794059 -0.20238219)
(-0.38919925 -0.050642125 -0.15805407)
(-0.28338817 -0.02963238 0.090886924)
(-0.43715274 -0.047540054 0.16965606)
(-0.49560589 -0.055001434 0.17731057)
(-0.59468003 -0.061601486 0.16504136)
(-0.69888466 -0.062683232 0.14224833)
(-0.81755271 -0.064724274 0.13425136)
(-0.79378459 -0.057760189 0.073344742)
(-0.7932234 -0.055373277 0.018188456)
(-0.79124484 -0.055119409 -0.038361762)
(-0.78993812 -0.05645417 -0.090570897)
(-0.76637257 -0.059467537 -0.13092377)
(-0.68265099 -0.064220568 -0.1588489)
(-0.58408635 -0.062739936 -0.18329492)
(-0.57000924 -0.063857873 -0.20118016)
(-0.52405551 -0.059510356 -0.20286986)
(-0.39012652 -0.045576345 -0.15853108)
(-0.28169243 -0.025763142 0.090227613)
(-0.4339257 -0.041761908 0.1689492)
(-0.49212937 -0.048989512 0.17713698)
(-0.59133303 -0.055391759 0.16542224)
(-0.69660747 -0.056741576 0.14257035)
(-0.81651808 -0.059290968 0.13538655)
(-0.79387022 -0.053348131 0.074851205)
(-0.79333839 -0.051010781 0.019698942)
(-0.79124067 -0.050617075 -0.036912968)
(-0.78983316 -0.051653591 -0.08916491)
(-0.76577616 -0.054052859 -0.1295361)
(-0.68148925 -0.057889203 -0.15772005)
(-0.58245785 -0.056424657 -0.18142902)
(-0.56841581 -0.057337995 -0.19957302)
(-0.52242796 -0.053370525 -0.20139822)
(-0.38881957 -0.040624876 -0.15759119)
(-0.27781564 -0.023463197 0.088721783)
(-0.42703326 -0.037881323 0.16733092)
(-0.48476891 -0.044686466 0.17634537)
(-0.58378996 -0.050656233 0.16559)
(-0.69060808 -0.052010329 0.14314608)
(-0.81238455 -0.054638041 0.13753804)
(-0.79152618 -0.049331923 0.077731402)
(-0.79104833 -0.046993041 0.022618716)
(-0.78867532 -0.046515058 -0.033943462)
(-0.78715395 -0.047374202 -0.086140537)
(-0.7622856 -0.049404953 -0.12645221)
(-0.67726881 -0.052710609 -0.15458131)
(-0.57797505 -0.051381928 -0.17774056)
(-0.56371827 -0.0521862 -0.19593492)
(-0.5179657 -0.048582428 -0.19817226)
(-0.38538752 -0.036909536 -0.15535418)
(-0.273994 -0.023601318 0.086892207)
(-0.41947683 -0.03710376 0.16514056)
(-0.47647385 -0.043073045 0.17479324)
(-0.57516412 -0.048250252 0.16502466)
(-0.68377104 -0.049141688 0.14382975)
(-0.80723338 -0.051031546 0.14007466)
(-0.78840664 -0.045675659 0.081071704)
(-0.78798673 -0.043307557 0.026020772)
(-0.78527539 -0.042831917 -0.030381248)
(-0.78364282 -0.043731135 -0.082489209)
(-0.7580005 -0.045837357 -0.12271392)
(-0.671978 -0.049418267 -0.15095706)
(-0.57237012 -0.048391505 -0.17362243)
(-0.5580775 -0.049325169 -0.19198)
(-0.51256126 -0.046083643 -0.1945356)
(-0.38116025 -0.035307779 -0.15279359)
(-0.27342367 -0.025795907 0.085747956)
(-0.41625538 -0.039224793 0.16330914)
(-0.4725548 -0.043984634 0.17299013)
(-0.57092383 -0.048097565 0.16386278)
(-0.68086402 -0.048054594 0.14450805)
(-0.80494833 -0.048399385 0.14186439)
(-0.78751665 -0.042275882 0.083260916)
(-0.78712269 -0.039880894 0.028286955)
(-0.78419285 -0.03950493 -0.028057243)
(-0.78244122 -0.040671748 -0.080180741)
(-0.75605863 -0.043333497 -0.12036816)
(-0.66896543 -0.04797327 -0.1486636)
(-0.56933958 -0.047457713 -0.17182095)
(-0.55489458 -0.048707183 -0.19003003)
(-0.50972196 -0.045770254 -0.19283737)
(-0.37882063 -0.035629154 -0.15170276)
(-0.27756483 -0.028232598 0.086072736)
(-0.42074979 -0.042188335 0.1629604)
(-0.47672823 -0.045760699 0.17194163)
(-0.57526132 -0.048775918 0.16260778)
(-0.68561708 -0.047654431 0.14496065)
(-0.8088874 -0.046130709 0.14194842)
(-0.79144169 -0.038927343 0.083209713)
(-0.7910585 -0.036584702 0.028090627)
(-0.78813523 -0.036371233 -0.028460041)
(-0.78628155 -0.037922973 -0.080769433)
(-0.75962671 -0.041367705 -0.12115824)
(-0.67164351 -0.047319929 -0.14973472)
(-0.57179379 -0.047269312 -0.17389203)
(-0.55738095 -0.048886272 -0.19198357)
(-0.51220517 -0.046142765 -0.19465337)
(-0.38035331 -0.036400975 -0.15319663)
(-0.28452445 -0.02892931 0.087751763)
(-0.43126779 -0.043286431 0.16445052)
(-0.48777958 -0.04608458 0.17235692)
(-0.58710616 -0.048298612 0.16212283)
(-0.69703036 -0.046371561 0.14537794)
(-0.81885169 -0.043341339 0.14055532)
(-0.80002095 -0.03536311 0.081204051)
(-0.7996807 -0.033163332 0.025587925)
(-0.79701096 -0.033135256 -0.031475682)
(-0.79507992 -0.035005373 -0.084172466)
(-0.76843514 -0.039058263 -0.12493497)
(-0.67995286 -0.045836994 -0.15365206)
(-0.57974583 -0.046132833 -0.17921845)
(-0.56523726 -0.047903629 -0.19698655)
(-0.51972776 -0.045245359 -0.19931082)
(-0.38569236 -0.035822194 -0.15669999)
(-0.29122799 -0.027301259 0.090055808)
(-0.44306741 -0.041263646 0.16735019)
(-0.5007265 -0.043734503 0.17445488)
(-0.60143486 -0.045502651 0.16318347)
(-0.71074707 -0.043256285 0.14619447)
(-0.8314771 -0.039412994 0.13908093)
(-0.81071465 -0.031356518 0.078636032)
(-0.81046559 -0.02935912 0.022316792)
(-0.80816165 -0.029485043 -0.03543869)
(-0.8061966 -0.031483971 -0.088612111)
(-0.77982613 -0.035712224 -0.12981496)
(-0.69109603 -0.042521569 -0.15888589)
(-0.59016651 -0.042971772 -0.18521607)
(-0.57566277 -0.044652831 -0.202822)
(-0.5294643 -0.042075555 -0.20464482)
(-0.39279898 -0.033143736 -0.16067059)
(-0.29603777 -0.024130682 0.092349055)
(-0.452686 -0.036717962 0.17089037)
(-0.51180087 -0.038946046 0.17763041)
(-0.61413775 -0.040479168 0.16559691)
(-0.72308475 -0.038251354 0.14749592)
(-0.84366076 -0.034171349 0.13843794)
(-0.82110018 -0.026695676 0.076688295)
(-0.82088578 -0.024954978 0.019616447)
(-0.81889378 -0.025182972 -0.038864707)
(-0.81695044 -0.02713642 -0.092503606)
(-0.79079531 -0.031164199 -0.13405825)
(-0.70203203 -0.037371381 -0.16343665)
(-0.60030012 -0.037886728 -0.18996013)
(-0.58563236 -0.03935078 -0.20742896)
(-0.53863536 -0.036985178 -0.20892167)
(-0.39960172 -0.028908581 -0.16389617)