/*--------------------------------*- C++ -*----------------------------------*\
| =========                 |                                                 |
| \\      /  F ield         | OpenFOAM: The Open Source CFD Toolbox           |
|  \\    /   O peration     | Version:  4.x                                   |
|   \\  /    A nd           | Web:      www.OpenFOAM.org                      |
|    \\/     M anipulation  |                                                 |
\*---------------------------------------------------------------------------*/
FoamFile
{
    version     2.0;
    format      ascii;
    class       volScalarField;
    location    "1.03";
    object      T;
}
// * * * * * * * * * * * * * * * * * * * * * * * * * * * * * * * * * * * * * //

dimensions      [0 0 0 1 0 0 0];

internalField   nonuniform List<scalar> 
25344
(
300.0000004
300.0000003
300.0000003
300.0000004
300.0000005
300.0000006
300.0000003
300.0000006
300.0000007
300.0000009
300.000001
300.0000011
300.0000003
300.0000007
300.0000007
300.0000009
300.0000011
300.0000011
300.0000004
300.0000007
300.0000008
300.000001
300.0000012
300.0000013
300.0000004
300.0000008
300.0000009
300.0000011
300.0000012
300.0000013
300.0000004
300.0000009
300.0000009
300.0000011
300.0000013
300.0000014
300.0000015
300.0000029
300.0000031
300.0000033
300.0000034
300.0000036
300.0000029
300.0000048
300.0000052
300.0000054
300.0000057
300.0000059
300.000003
300.0000051
300.0000054
300.0000056
300.0000059
300.0000062
300.0000031
300.0000052
300.0000055
300.0000058
300.000006
300.0000062
300.0000032
300.0000053
300.0000056
300.0000059
300.0000061
300.0000063
300.0000033
300.0000055
300.0000058
300.0000061
300.0000063
300.0000065
300.0000019
300.0000038
300.000004
300.0000041
300.0000042
300.0000043
300.0000038
300.0000067
300.000007
300.0000072
300.0000074
300.0000077
300.000004
300.0000069
300.0000073
300.0000074
300.0000077
300.0000079
300.000004
300.000007
300.0000073
300.0000075
300.0000077
300.0000079
300.0000041
300.0000072
300.0000075
300.0000077
300.0000079
300.0000081
300.0000042
300.0000074
300.0000078
300.0000079
300.0000081
300.0000084
300.0000019
300.0000037
300.0000037
300.0000037
300.0000037
300.0000038
300.0000037
300.0000067
300.0000069
300.0000069
300.000007
300.0000071
300.0000038
300.0000069
300.0000072
300.0000072
300.0000073
300.0000075
300.0000038
300.0000069
300.0000072
300.0000072
300.0000073
300.0000075
300.0000039
300.0000071
300.0000074
300.0000074
300.0000075
300.0000077
300.000004
300.0000074
300.0000077
300.0000077
300.0000078
300.000008
300.0000015
300.0000028
300.0000026
300.0000025
300.0000024
300.0000025
300.0000029
300.000005
300.000005
300.0000046
300.0000044
300.0000044
300.0000027
300.0000052
300.0000053
300.0000049
300.0000046
300.0000046
300.0000027
300.0000052
300.0000053
300.0000049
300.0000047
300.0000047
300.0000028
300.0000054
300.0000056
300.0000052
300.0000051
300.0000052
300.0000029
300.0000057
300.000006
300.0000058
300.0000057
300.0000058
300.0000012
300.0000018
300.0000014
300.0000012
300.0000012
300.0000013
300.0000018
300.0000021
300.0000016
300.0000012
300.0000009
300.000001
300.0000014
300.0000018
300.0000014
300.0000009
300.0000007
300.0000007
300.0000013
300.0000019
300.0000016
300.0000012
300.000001
300.0000011
300.0000014
300.0000021
300.0000021
300.0000019
300.0000018
300.0000021
300.0000015
300.0000024
300.0000025
300.0000025
300.0000026
300.0000031
300.0000011
300.0000011
300.0000005
300.0000003
300.0000005
300.0000009
300.000001
299.9999996
299.9999982
299.9999978
299.9999978
299.9999982
300.0000003
299.9999982
299.9999969
299.9999966
299.9999967
299.9999969
300
299.999998
299.9999971
299.999997
299.9999971
299.9999974
300.0000001
299.9999982
299.9999977
299.9999979
299.9999983
299.9999989
300.0000002
299.9999984
299.999998
299.9999984
299.9999993
300.0000003
300.0000014
300.0000014
300.0000008
300.0000006
300.0000009
300.0000023
300.0000012
299.9999991
299.999997
299.9999962
299.9999965
299.999998
300.0000003
299.9999965
299.9999937
299.9999929
299.9999933
299.9999955
299.9999997
299.9999952
299.9999926
299.9999923
299.9999932
299.9999957
299.9999995
299.9999949
299.9999926
299.9999929
299.9999943
299.9999976
299.9999996
299.999995
299.9999928
299.9999933
299.9999949
299.9999975
300.0000026
300.0000039
300.0000038
300.0000036
300.0000036
300.0000037
300.0000036
300.0000029
299.9999999
299.9999982
299.999998
299.9999989
300.0000027
299.9999989
299.9999943
299.9999922
299.9999922
299.9999936
300.0000016
299.999996
299.999991
299.999989
299.9999893
299.9999919
300.0000011
299.9999948
299.9999896
299.9999879
299.9999891
299.9999934
300.000001
299.9999945
299.9999892
299.9999877
299.9999892
299.9999926
300.0000049
300.0000102
300.0000121
300.0000122
300.0000117
300.0000095
300.0000097
300.0000172
300.0000141
300.00001
300.0000079
300.0000065
300.0000103
300.0000119
300.0000035
299.9999977
299.9999957
299.999995
300.0000088
300.0000051
299.9999953
299.9999901
299.9999887
299.9999879
300.0000073
300.0000012
299.9999913
299.9999866
299.9999853
299.999985
300.0000067
300
299.99999
299.9999853
299.9999845
299.999986
300.0000077
300.0000191
300.0000257
300.0000274
300.0000264
300.0000213
300.0000186
300.000044
300.0000487
300.0000436
300.0000384
300.0000331
300.0000236
300.000045
300.0000354
300.000022
300.0000147
300.0000095
300.0000231
300.0000347
300.000017
300.0000022
299.9999956
299.9999906
300.000021
300.0000256
300.000006
299.9999924
299.9999871
299.9999811
300.0000192
300.0000217
300.0000019
299.999989
299.9999847
299.9999836
300.00001
300.0000277
300.0000406
300.0000456
300.0000447
300.0000358
300.0000273
300.000074
300.0000961
300.0000982
300.0000927
300.0000831
300.0000388
300.0000925
300.0001003
300.0000846
300.0000695
300.0000575
300.0000417
300.0000884
300.0000766
300.0000469
300.0000281
300.000015
300.00004
300.0000779
300.0000541
300.0000219
300.0000045
299.9999895
300.0000368
300.0000698
300.0000432
300.0000117
299.999996
299.9999896
300.0000113
300.0000339
300.000053
300.0000623
300.0000621
300.00005
300.0000336
300.0000993
300.0001418
300.0001566
300.0001543
300.0001403
300.0000516
300.0001389
300.0001779
300.0001768
300.0001626
300.000144
300.000059
300.0001481
300.0001693
300.0001473
300.0001172
300.0000915
300.0000586
300.0001414
300.0001468
300.0001073
300.0000673
300.0000348
300.0000542
300.0001299
300.0001286
300.0000843
300.0000443
300.0000237
300.0000117
300.0000373
300.000061
300.0000741
300.0000756
300.0000625
300.000037
300.0001153
300.0001755
300.0002048
300.0002087
300.0001927
300.0000597
300.000173
300.0002457
300.0002696
300.0002643
300.0002438
300.0000712
300.0001977
300.0002629
300.0002669
300.0002457
300.0002157
300.0000725
300.0001975
300.0002509
300.0002376
300.0002011
300.0001562
300.0000674
300.0001847
300.0002298
300.0002081
300.0001638
300.0001184
300.0000005
300.0000009
300.000001
300.0000012
300.0000013
300.0000014
300.0000005
300.000001
300.0000011
300.0000013
300.0000014
300.0000015
300.0000005
300.0000011
300.0000011
300.0000013
300.0000015
300.0000015
300.0000006
300.0000011
300.0000012
300.0000014
300.0000015
300.0000016
300.0000006
300.0000012
300.0000012
300.0000014
300.0000015
300.0000016
300.0000006
300.0000012
300.0000012
300.0000014
300.0000015
300.0000016
300.0000007
300.0000012
300.0000012
300.0000014
300.0000015
300.0000015
300.0000007
300.0000011
300.0000012
300.0000013
300.0000014
300.0000015
300.0000006
300.0000011
300.0000012
300.0000013
300.0000014
300.0000015
300.0000006
300.0000011
300.0000011
300.0000013
300.0000014
300.0000015
300.0000006
300.000001
300.000001
300.0000012
300.0000013
300.0000014
300.0000005
300.0000008
300.0000009
300.0000011
300.0000012
300.0000013
300.0000034
300.0000057
300.000006
300.0000063
300.0000065
300.0000067
300.0000035
300.0000059
300.0000063
300.0000065
300.0000068
300.0000069
300.0000037
300.0000061
300.0000065
300.0000068
300.000007
300.0000071
300.0000038
300.0000063
300.0000067
300.0000069
300.0000071
300.0000072
300.0000039
300.0000064
300.0000068
300.000007
300.0000072
300.0000073
300.0000039
300.0000065
300.0000068
300.000007
300.0000072
300.0000074
300.0000039
300.0000065
300.0000068
300.0000071
300.0000073
300.0000075
300.0000039
300.0000065
300.0000068
300.0000071
300.0000073
300.0000075
300.0000039
300.0000065
300.0000068
300.000007
300.0000073
300.0000075
300.0000038
300.0000064
300.0000067
300.000007
300.0000072
300.0000074
300.0000038
300.0000062
300.0000066
300.0000068
300.0000071
300.0000073
300.0000036
300.000006
300.0000063
300.0000066
300.0000069
300.0000072
300.0000044
300.0000078
300.0000082
300.0000083
300.0000085
300.0000087
300.0000045
300.0000081
300.0000085
300.0000086
300.0000088
300.0000089
300.0000046
300.0000083
300.0000088
300.0000089
300.000009
300.0000091
300.0000047
300.0000085
300.000009
300.0000091
300.0000092
300.0000093
300.0000048
300.0000086
300.0000091
300.0000092
300.0000093
300.0000094
300.0000048
300.0000087
300.0000092
300.0000093
300.0000095
300.0000096
300.0000048
300.0000087
300.0000092
300.0000094
300.0000096
300.0000097
300.0000048
300.0000086
300.0000092
300.0000094
300.0000097
300.0000099
300.0000048
300.0000086
300.0000092
300.0000095
300.0000097
300.00001
300.0000048
300.0000086
300.0000092
300.0000095
300.0000097
300.00001
300.0000048
300.0000086
300.0000091
300.0000094
300.0000097
300.00001
300.0000047
300.0000084
300.000009
300.0000093
300.0000097
300.00001
300.0000042
300.0000077
300.0000081
300.0000081
300.0000082
300.0000084
300.0000043
300.000008
300.0000084
300.0000085
300.0000085
300.0000086
300.0000043
300.0000082
300.0000087
300.0000087
300.0000087
300.0000087
300.0000043
300.0000083
300.0000088
300.0000088
300.0000088
300.0000088
300.0000043
300.0000083
300.0000089
300.0000089
300.0000089
300.0000088
300.0000042
300.0000083
300.0000089
300.0000089
300.000009
300.000009
300.0000042
300.0000082
300.0000089
300.000009
300.0000091
300.0000092
300.0000041
300.0000081
300.0000088
300.000009
300.0000092
300.0000094
300.000004
300.0000081
300.0000089
300.0000091
300.0000094
300.0000096
300.000004
300.0000081
300.0000089
300.0000092
300.0000094
300.0000097
300.000004
300.0000081
300.0000089
300.0000092
300.0000095
300.0000098
300.0000042
300.0000082
300.0000091
300.0000093
300.0000097
300.00001
300.000003
300.0000059
300.0000063
300.0000062
300.0000061
300.0000063
300.000003
300.000006
300.0000065
300.0000064
300.0000063
300.0000063
300.0000028
300.0000058
300.0000064
300.0000063
300.0000062
300.0000061
300.0000026
300.0000055
300.0000061
300.0000061
300.0000059
300.0000056
300.0000024
300.0000052
300.0000058
300.0000058
300.0000055
300.0000052
300.0000022
300.0000048
300.0000055
300.0000055
300.0000053
300.000005
300.000002
300.0000044
300.0000052
300.0000053
300.0000052
300.0000051
300.0000018
300.000004
300.0000049
300.0000052
300.0000053
300.0000054
300.0000016
300.0000037
300.0000048
300.0000052
300.0000055
300.0000057
300.0000015
300.0000037
300.0000049
300.0000054
300.0000058
300.0000061
300.0000017
300.0000042
300.0000054
300.0000059
300.0000064
300.0000067
300.0000021
300.0000051
300.0000063
300.0000068
300.0000072
300.0000075
300.0000016
300.0000023
300.0000025
300.0000027
300.000003
300.0000035
300.0000014
300.0000019
300.0000021
300.0000023
300.0000027
300.0000032
300.0000011
300.0000011
300.0000013
300.0000015
300.0000019
300.0000022
300.0000007
300.0000003
300.0000003
300.0000005
300.0000008
300.0000009
300.0000004
299.9999995
299.9999992
299.9999994
299.9999996
299.9999996
300.0000001
299.9999986
299.9999982
299.9999982
299.9999984
299.9999984
299.9999997
299.9999977
299.999997
299.9999971
299.9999974
299.9999976
299.9999994
299.9999968
299.999996
299.9999962
299.9999966
299.999997
299.9999992
299.9999961
299.9999954
299.9999957
299.9999963
299.9999969
299.999999
299.999996
299.9999954
299.999996
299.9999966
299.9999972
299.9999992
299.9999967
299.9999965
299.9999971
299.9999978
299.9999981
299.9999997
299.9999982
299.9999985
299.9999992
299.9999996
299.9999997
300.0000003
299.9999982
299.9999977
299.9999984
299.9999994
300.0000007
300.0000001
299.9999976
299.9999968
299.9999975
299.9999987
300
299.9999998
299.9999965
299.9999954
299.999996
299.9999971
299.9999983
299.9999992
299.9999953
299.9999937
299.9999942
299.9999952
299.9999962
299.9999987
299.9999939
299.999992
299.9999923
299.9999931
299.9999939
299.9999983
299.9999927
299.9999903
299.9999902
299.9999909
299.9999916
299.999998
299.9999915
299.9999884
299.999988
299.9999886
299.9999893
299.9999977
299.9999903
299.9999865
299.999986
299.9999866
299.9999872
299.9999975
299.9999894
299.9999853
299.9999848
299.9999853
299.9999858
299.9999975
299.9999892
299.9999852
299.9999847
299.9999851
299.9999853
299.9999976
299.9999898
299.9999862
299.9999858
299.9999861
299.999986
299.999998
299.9999913
299.9999885
299.9999883
299.9999883
299.9999876
299.9999998
299.999995
299.9999925
299.9999931
299.9999948
299.9999972
299.9999998
299.9999946
299.9999915
299.9999919
299.9999935
299.9999959
299.9999994
299.9999934
299.9999898
299.9999899
299.9999913
299.9999934
299.9999986
299.9999917
299.9999877
299.9999875
299.9999887
299.9999903
299.9999979
299.9999899
299.9999854
299.9999849
299.9999858
299.999987
299.9999973
299.9999883
299.9999831
299.999982
299.9999826
299.9999834
299.9999971
299.999987
299.9999807
299.999979
299.9999792
299.9999796
299.9999971
299.9999861
299.9999786
299.9999762
299.999976
299.9999761
299.9999972
299.9999855
299.9999772
299.9999743
299.9999738
299.9999735
299.9999973
299.9999854
299.9999768
299.9999737
299.9999729
299.9999722
299.9999974
299.9999857
299.9999774
299.9999744
299.9999734
299.9999723
299.9999975
299.9999866
299.9999792
299.9999766
299.9999753
299.9999737
300.0000012
299.9999947
299.999989
299.9999874
299.9999888
299.9999919
300.0000011
299.9999945
299.9999885
299.9999864
299.9999874
299.9999899
300.0000006
299.9999934
299.9999868
299.9999842
299.9999849
299.9999868
299.9999994
299.9999912
299.9999841
299.9999813
299.9999815
299.9999827
299.9999981
299.9999886
299.999981
299.999978
299.9999777
299.9999782
299.9999974
299.9999866
299.9999783
299.9999746
299.9999737
299.9999735
299.9999973
299.9999857
299.9999761
299.9999714
299.9999697
299.9999688
299.9999979
299.9999855
299.9999746
299.9999686
299.9999661
299.9999646
299.9999986
299.9999857
299.9999736
299.9999666
299.9999633
299.9999612
299.9999991
299.9999858
299.9999731
299.9999655
299.9999617
299.9999592
299.9999992
299.9999858
299.9999731
299.9999653
299.9999613
299.9999585
299.999999
299.9999861
299.9999737
299.9999663
299.9999623
299.9999593
300.0000066
300.0000002
299.9999899
299.999985
299.9999839
299.9999855
300.0000062
300.0000001
299.9999896
299.9999842
299.9999826
299.9999836
300.0000049
299.9999985
299.9999879
299.9999821
299.9999798
299.9999801
300.0000026
299.9999949
299.9999845
299.9999784
299.9999756
299.999975
300.0000002
299.9999909
299.9999806
299.9999742
299.9999707
299.9999693
299.999999
299.9999884
299.9999775
299.9999704
299.9999661
299.9999637
299.9999994
299.9999882
299.9999759
299.9999677
299.9999623
299.9999588
300.0000011
299.9999898
299.9999755
299.9999658
299.9999592
299.9999546
300.0000031
299.9999919
299.9999754
299.9999644
299.9999567
299.9999512
300.0000044
299.999993
299.9999751
299.9999631
299.9999546
299.9999485
300.0000047
299.9999927
299.9999746
299.999962
299.999953
299.9999467
300.0000041
299.9999918
299.9999743
299.9999616
299.9999526
299.9999465
300.0000179
300.0000209
300.0000013
299.9999882
299.9999838
299.9999832
300.0000161
300.0000199
300.000001
299.9999876
299.9999825
299.9999812
300.0000128
300.0000159
299.9999983
299.9999852
299.9999796
299.9999773
300.0000084
300.0000084
299.9999925
299.9999805
299.9999744
299.9999707
300.0000045
300.0000008
299.9999861
299.9999751
299.9999683
299.9999633
300.0000027
299.9999969
299.9999822
299.9999709
299.9999632
299.999957
300.0000038
299.9999984
299.9999821
299.999969
299.9999601
299.9999527
300.0000069
300.0000039
299.9999849
299.9999687
299.9999583
299.9999498
300.0000104
300.0000102
299.999988
299.9999686
299.9999565
299.9999472
300.0000128
300.0000137
299.9999891
299.9999677
299.9999543
299.9999443
300.0000136
300.0000138
299.9999879
299.9999658
299.9999519
299.9999418
300.0000131
300.0000115
299.9999856
299.9999643
299.9999506
299.9999408
300.000033
300.0000645
300.00004
300.000009
299.9999933
299.9999877
300.0000281
300.0000577
300.0000376
300.0000076
299.9999914
299.9999851
300.0000217
300.0000465
300.0000307
300.0000034
299.9999873
299.99998
300.0000148
300.0000318
300.0000182
299.9999945
299.9999797
299.9999719
300.0000094
300.0000188
300.0000057
299.9999851
299.9999716
299.9999631
300.0000073
300.000013
299.9999995
299.9999795
299.9999657
299.9999561
300.0000092
300.0000163
300.0000024
299.99998
299.9999639
299.9999528
300.0000136
300.0000261
300.0000119
299.9999848
299.9999648
299.9999514
300.0000184
300.0000371
300.0000218
299.9999896
299.9999655
299.99995
300.000022
300.0000444
300.0000268
299.9999907
299.9999642
299.9999478
300.0000237
300.0000466
300.000026
299.9999877
299.999961
299.9999451
300.000024
300.0000457
300.000022
299.999984
299.9999587
299.999944
300.0000472
300.0001165
300.0001168
300.0000751
300.0000353
300.0000154
300.0000385
300.0000997
300.000104
300.0000686
300.0000296
300.0000086
300.0000287
300.0000783
300.0000845
300.0000561
300.00002
299.9999988
300.0000195
300.0000554
300.0000594
300.0000357
300.000004
299.9999843
300.0000133
300.0000376
300.0000375
300.0000165
299.9999885
299.9999704
300.0000117
300.0000307
300.0000277
300.0000071
299.9999802
299.9999619
300.0000147
300.000036
300.0000334
300.0000121
299.9999823
299.9999611
300.0000203
300.0000496
300.0000497
300.0000269
299.9999915
299.999965
300.0000262
300.0000648
300.0000675
300.0000419
300.0000005
299.9999685
300.000031
300.0000762
300.0000789
300.0000489
300.0000031
299.9999695
300.000034
300.0000823
300.0000823
300.0000476
300.0000001
299.9999683
300.0000358
300.0000853
300.0000819
300.0000432
299.9999972
299.9999686
300.0000575
300.0001625
300.0002058
300.0001857
300.000142
300.0000986
300.0000451
300.0001342
300.0001766
300.0001621
300.0001236
300.0000805
300.0000324
300.0001022
300.0001399
300.0001304
300.0000983
300.0000568
300.0000218
300.0000723
300.0001008
300.0000923
300.0000644
300.000026
300.0000158
300.0000521
300.0000704
300.0000605
300.0000335
299.9999981
300.0000155
300.0000467
300.0000583
300.0000467
300.0000192
299.999986
300.0000202
300.0000557
300.0000674
300.0000551
300.000027
299.9999917
300.0000273
300.0000735
300.0000902
300.000078
300.0000487
300.0000099
300.0000344
300.0000926
300.0001151
300.0001027
300.0000707
300.0000303
300.0000402
300.0001082
300.0001338
300.0001191
300.0000831
300.0000408
300.0000447
300.0001193
300.0001448
300.0001261
300.0000863
300.0000458
300.000048
300.0001277
300.000152
300.0001298
300.000088
300.0000507
300.0000005
300.0000007
300.0000008
300.000001
300.0000012
300.0000013
300.0000004
300.0000006
300.0000007
300.0000009
300.0000011
300.0000012
300.0000003
300.0000005
300.0000006
300.0000008
300.000001
300.0000012
300.0000003
300.0000003
300.0000004
300.0000006
300.0000009
300.000001
300.0000002
300.0000002
300.0000004
300.0000006
300.0000008
300.000001
300.0000001
300.0000002
300.0000003
300.0000005
300.0000007
300.0000008
300.0000035
300.0000056
300.000006
300.0000063
300.0000067
300.000007
300.0000032
300.0000053
300.0000057
300.000006
300.0000064
300.0000068
300.000003
300.0000049
300.0000053
300.0000057
300.0000061
300.0000065
300.0000028
300.0000045
300.0000048
300.0000052
300.0000057
300.0000061
300.0000025
300.000004
300.0000044
300.0000048
300.0000053
300.0000056
300.0000017
300.0000028
300.0000031
300.0000033
300.0000035
300.0000037
300.0000046
300.0000083
300.0000089
300.0000092
300.0000096
300.0000099
300.0000045
300.0000081
300.0000087
300.000009
300.0000094
300.0000097
300.0000044
300.0000078
300.0000084
300.0000088
300.0000092
300.0000094
300.0000042
300.0000074
300.000008
300.0000083
300.0000087
300.0000089
300.0000038
300.0000067
300.0000072
300.0000075
300.0000078
300.0000079
300.0000023
300.0000041
300.0000043
300.0000044
300.0000045
300.0000046
300.0000043
300.0000084
300.0000092
300.0000095
300.0000099
300.0000102
300.0000045
300.0000086
300.0000094
300.0000097
300.00001
300.0000102
300.0000046
300.0000086
300.0000093
300.0000096
300.0000098
300.0000099
300.0000046
300.0000084
300.000009
300.0000092
300.0000093
300.0000093
300.0000042
300.0000076
300.0000081
300.0000082
300.0000081
300.000008
300.0000026
300.0000043
300.0000045
300.0000045
300.0000044
300.0000043
300.0000027
300.0000062
300.0000074
300.0000078
300.0000081
300.0000082
300.0000033
300.0000072
300.0000083
300.0000086
300.0000087
300.0000086
300.0000038
300.0000078
300.0000087
300.0000089
300.0000088
300.0000083
300.000004
300.0000078
300.0000085
300.0000085
300.0000082
300.0000076
300.0000038
300.000007
300.0000074
300.0000072
300.0000067
300.0000059
300.0000024
300.0000038
300.0000038
300.0000035
300.0000031
300.0000027
300.0000005
300.0000003
300.0000011
300.0000018
300.0000018
300.0000013
300.0000013
300.0000024
300.0000036
300.000004
300.0000036
300.0000024
300.000002
300.000004
300.000005
300.000005
300.0000041
300.0000023
300.0000024
300.0000045
300.0000051
300.0000047
300.0000034
300.0000013
300.0000026
300.0000041
300.0000039
300.0000032
300.0000018
300
300.000002
300.0000025
300.000002
300.0000014
300.0000008
300.0000002
299.9999986
299.9999935
299.9999917
299.9999915
299.999991
299.9999897
299.9999994
299.9999958
299.9999947
299.9999944
299.9999934
299.9999913
300.0000001
299.9999976
299.9999967
299.999996
299.9999943
299.9999918
300.0000007
299.9999989
299.9999975
299.9999963
299.9999943
299.9999917
300.0000015
300.0000003
299.9999982
299.9999966
299.9999949
299.999993
300.0000016
300.0000012
300.0000001
299.9999993
299.9999986
299.999998
299.9999978
299.9999882
299.999982
299.9999797
299.9999781
299.999976
299.9999984
299.9999902
299.999985
299.9999827
299.9999807
299.9999781
299.9999991
299.9999924
299.9999876
299.9999849
299.9999825
299.9999796
300
299.9999951
299.9999902
299.999987
299.9999843
299.9999817
300.0000012
299.9999984
299.9999944
299.9999914
299.9999892
299.9999875
300.0000014
300.0000008
299.9999994
299.9999983
299.9999975
299.9999971
299.9999989
299.9999869
299.9999754
299.9999686
299.9999645
299.9999613
299.9999992
299.9999886
299.9999782
299.9999717
299.9999675
299.9999641
299.9999999
299.9999914
299.9999822
299.9999756
299.9999712
299.9999679
300.0000011
299.9999954
299.9999878
299.9999818
299.9999776
299.9999749
300.0000023
300.0000001
299.9999952
299.999991
299.9999883
299.9999868
300.0000017
300.0000019
300.0000008
299.9999996
299.9999989
299.9999988
300.0000034
299.9999916
299.9999752
299.9999629
299.9999542
299.9999485
300.0000034
299.999993
299.9999781
299.9999665
299.9999583
299.9999531
300.0000042
299.9999968
299.9999836
299.9999733
299.9999661
299.9999617
300.0000057
300.0000032
299.9999928
299.9999838
299.9999782
299.9999752
300.0000059
300.000009
300.0000042
299.9999983
299.9999948
299.9999938
300.0000025
300.0000055
300.0000062
300.0000056
300.0000052
300.0000058
300.0000124
300.0000098
299.9999852
299.999965
299.9999518
299.9999431
300.0000124
300.0000112
299.9999888
299.9999697
299.9999577
299.9999505
300.0000133
300.0000173
299.9999987
299.9999807
299.9999698
299.9999643
300.0000139
300.0000256
300.0000154
300.0000009
299.9999918
299.9999883
300.0000112
300.0000271
300.0000293
300.0000239
300.0000198
300.0000195
300.0000036
300.0000112
300.0000161
300.0000177
300.0000184
300.0000197
300.0000241
300.0000451
300.0000205
299.9999841
299.9999605
299.9999477
300.0000247
300.0000478
300.0000264
299.9999927
299.9999707
299.9999599
300.0000253
300.0000544
300.0000431
300.0000149
299.9999951
299.9999866
300.0000238
300.0000586
300.0000635
300.0000503
300.0000376
300.0000333
300.0000169
300.0000483
300.0000652
300.0000685
300.0000682
300.0000695
300.0000046
300.0000173
300.0000275
300.0000328
300.0000356
300.0000375
300.0000372
300.0000882
300.0000838
300.0000445
300.000002
299.9999779
300.0000383
300.0000931
300.0000939
300.0000605
300.0000239
300.0000045
300.000038
300.0000977
300.0001118
300.0000939
300.0000699
300.0000581
300.0000334
300.0000935
300.0001228
300.0001243
300.0001179
300.0001161
300.0000218
300.0000682
300.0001018
300.0001179
300.0001247
300.0001289
300.0000055
300.0000226
300.0000379
300.0000473
300.0000526
300.0000553
300.0000504
300.0001348
300.0001609
300.0001391
300.0000999
300.0000672
300.0000512
300.00014
300.0001746
300.0001617
300.0001334
300.0001126
300.0000487
300.000139
300.0001864
300.0001913
300.000181
300.0001738
300.0000401
300.000122
300.0001791
300.0002035
300.0002106
300.0002134
300.0000242
300.0000814
300.0001307
300.0001613
300.0001777
300.0001855
300.0000059
300.0000255
300.0000447
300.0000583
300.0000665
300.0000703
300.0000006
300.0000007
300.0000009
300.0000016
300.0000014
300.0000008
300.0000007
300.0000007
300.0000008
300.0000007
300.0000007
300.0000006
300.0000012
300.0000013
300.0000015
300.0000022
300.0000021
300.0000014
300.0000013
300.0000014
300.0000013
300.0000012
300.0000011
300.000001
300.0000012
300.0000013
300.0000015
300.0000025
300.0000021
300.0000014
300.0000014
300.0000013
300.0000013
300.0000012
300.0000011
300.000001
300.0000013
300.0000014
300.0000016
300.0000026
300.0000023
300.0000015
300.0000014
300.0000014
300.0000014
300.0000012
300.0000011
300.000001
300.0000014
300.0000014
300.0000016
300.0000026
300.0000024
300.0000016
300.0000015
300.0000014
300.0000014
300.0000012
300.0000011
300.000001
300.0000014
300.0000015
300.0000017
300.0000026
300.0000024
300.0000016
300.0000015
300.0000014
300.0000013
300.0000012
300.0000011
300.000001
300.0000037
300.0000039
300.0000045
300.0000064
300.0000062
300.0000044
300.000004
300.000004
300.0000039
300.0000038
300.0000036
300.0000035
300.0000062
300.0000064
300.0000071
300.0000094
300.0000095
300.000007
300.0000065
300.0000064
300.0000062
300.000006
300.0000057
300.0000056
300.0000064
300.0000066
300.0000074
300.0000097
300.0000099
300.0000074
300.0000067
300.0000066
300.0000064
300.0000061
300.0000059
300.0000057
300.0000064
300.0000066
300.0000074
300.0000099
300.0000099
300.0000075
300.0000068
300.0000067
300.0000064
300.0000061
300.0000059
300.0000057
300.0000065
300.0000067
300.0000075
300.0000101
300.00001
300.0000076
300.0000069
300.0000067
300.0000065
300.0000062
300.0000059
300.0000058
300.0000067
300.0000069
300.0000077
300.0000102
300.0000102
300.0000077
300.000007
300.0000068
300.0000067
300.0000064
300.0000061
300.0000059
300.0000045
300.0000048
300.0000059
300.0000097
300.0000082
300.0000056
300.000005
300.000005
300.0000049
300.0000047
300.0000046
300.0000045
300.0000079
300.0000084
300.0000096
300.0000141
300.0000131
300.0000095
300.0000087
300.0000085
300.0000083
300.000008
300.0000078
300.0000077
300.0000082
300.0000087
300.0000099
300.0000147
300.0000139
300.0000101
300.0000092
300.0000089
300.0000087
300.0000083
300.0000081
300.000008
300.0000082
300.0000087
300.0000099
300.000015
300.0000142
300.0000103
300.0000093
300.0000091
300.0000088
300.0000085
300.0000083
300.0000082
300.0000084
300.0000089
300.00001
300.0000155
300.0000146
300.0000107
300.0000096
300.0000093
300.0000091
300.0000088
300.0000086
300.0000085
300.0000086
300.0000091
300.0000103
300.000016
300.000015
300.000011
300.00001
300.0000097
300.0000094
300.0000092
300.0000089
300.0000088
300.000004
300.0000047
300.0000074
300.0000096
300.0000069
300.0000052
300.0000048
300.0000048
300.0000048
300.0000047
300.0000046
300.0000046
300.0000075
300.0000083
300.0000111
300.0000151
300.0000124
300.0000094
300.0000087
300.0000086
300.0000084
300.0000082
300.0000081
300.0000081
300.0000078
300.0000087
300.0000115
300.0000157
300.0000134
300.0000101
300.0000093
300.0000091
300.0000088
300.0000086
300.0000085
300.0000086
300.0000079
300.0000088
300.0000118
300.0000162
300.0000139
300.0000105
300.0000096
300.0000094
300.0000091
300.000009
300.0000089
300.000009
300.0000081
300.000009
300.0000125
300.000017
300.0000145
300.0000112
300.0000103
300.0000101
300.0000098
300.0000096
300.0000096
300.0000096
300.0000084
300.0000094
300.0000133
300.0000178
300.0000151
300.0000119
300.0000109
300.0000106
300.0000104
300.0000102
300.0000102
300.0000102
300.0000027
300.0000036
300.0000069
300.0000067
300.0000048
300.0000042
300.0000043
300.0000045
300.0000046
300.0000047
300.0000047
300.0000047
300.0000048
300.0000062
300.00001
300.0000125
300.0000089
300.0000077
300.0000077
300.0000078
300.0000079
300.000008
300.0000081
300.0000083
300.0000051
300.0000067
300.0000105
300.0000138
300.0000103
300.0000086
300.0000084
300.0000084
300.0000084
300.0000084
300.0000087
300.0000088
300.0000053
300.0000071
300.0000112
300.0000146
300.0000113
300.0000096
300.0000092
300.0000091
300.000009
300.000009
300.0000092
300.0000095
300.0000059
300.0000078
300.0000121
300.0000161
300.0000128
300.000011
300.0000105
300.0000103
300.0000101
300.0000101
300.0000103
300.0000106
300.0000066
300.0000086
300.0000134
300.0000172
300.0000141
300.0000122
300.0000116
300.0000112
300.0000109
300.000011
300.0000113
300.0000118
300.0000016
300.0000025
300.0000067
300.0000047
300.0000037
300.0000038
300.0000042
300.0000045
300.0000047
300.0000049
300.000005
300.0000051
300.0000013
300.0000025
300.0000081
300.0000079
300.000006
300.0000061
300.0000068
300.0000074
300.0000079
300.0000082
300.0000086
300.0000089
300.0000011
300.0000025
300.0000088
300.0000097
300.0000072
300.000007
300.0000076
300.000008
300.0000083
300.0000087
300.0000092
300.0000096
300.0000016
300.0000034
300.0000105
300.0000115
300.0000092
300.0000087
300.0000089
300.0000091
300.0000092
300.0000096
300.0000101
300.0000107
300.0000028
300.000005
300.0000123
300.0000143
300.0000118
300.000011
300.000011
300.0000109
300.0000108
300.0000111
300.0000118
300.0000126
300.0000043
300.0000066
300.0000141
300.0000162
300.0000136
300.0000127
300.0000124
300.0000121
300.000012
300.0000124
300.0000132
300.000014
300.0000021
300.0000044
300.0000037
300.0000034
300.0000034