/*--------------------------------*- C++ -*----------------------------------*\
  =========                 |
  \\      /  F ield         | OpenFOAM: The Open Source CFD Toolbox
   \\    /   O peration     | Website:  https://openfoam.org
    \\  /    A nd           | Version:  7
     \\/     M anipulation  |
\*---------------------------------------------------------------------------*/
FoamFile
{
    version     2.0;
    format      ascii;
    class       volScalarField;
    location    "0.00193";
    object      T;
}
// * * * * * * * * * * * * * * * * * * * * * * * * * * * * * * * * * * * * * //

dimensions      [0 0 0 1 0 0 0];

internalField   nonuniform List<scalar> 
5000
(
285.38463
285.38463
285.38463
285.38464
285.38464
285.38464
285.38464
285.38464
285.38464
285.38464
285.38464
285.38465
285.38465
285.38465
285.38466
285.38466
285.38466
285.38467
285.38467
285.38469
285.38472
285.38475
285.38478
285.38486
285.38502
285.3854
285.38599
285.38674
285.38782
285.3895
285.39208
285.3958
285.40078
285.407
285.41443
285.42311
285.43325
285.44514
285.45904
285.47505
285.49301
285.51243
285.53255
285.55251
285.57144
285.58861
285.60356
285.61606
285.62614
285.634
285.63994
285.64433
285.64749
285.64974
285.65132
285.65243
285.65319
285.65373
285.6541
285.65436
285.65455
285.65468
285.65477
285.65483
285.65487
285.6549
285.65492
285.65494
285.65494
285.65495
285.65496
285.65496
285.65497
285.65497
285.65497
285.65497
285.65497
285.65497
285.65497
285.65497
285.65497
285.65498
285.65498
285.65498
285.65498
285.65498
285.65498
285.65498
285.65499
285.65499
285.65499
285.65499
285.65499
285.65499
285.65499
285.65499
285.65499
285.65499
285.65499
285.65499
285.655
285.655
285.655
285.655
285.655
285.655
285.655
285.65501
285.65501
285.65501
285.65501
285.65501
285.65501
285.65501
285.65501
285.65501
285.65501
285.65502
285.65502
285.65502
285.65502
285.65502
285.65502
285.65502
285.65502
285.65502
285.65503
285.65503
285.65503
285.65503
285.65503
285.65503
285.65503
285.65503
285.65504
285.65504
285.65504
285.65504
285.65504
285.65504
285.65504
285.65504
285.65504
285.65504
285.65504
285.65505
285.65505
285.65505
285.65505
285.65505
285.65505
285.65505
285.65505
285.65505
285.65505
285.65506
285.65506
285.65506
285.65506
285.65506
285.65506
285.65506
285.65506
285.65506
285.65507
285.65507
285.65507
285.65507
285.65507
285.65507
285.65507
285.65507
285.65507
285.65507
285.65508
285.65508
285.65508
285.65508
285.65508
285.65508
285.65508
285.65508
285.65508
285.65508
285.65508
285.65509
285.65509
285.65509
285.65509
285.65509
285.65509
285.65509
285.65509
285.65509
285.65509
285.6551
285.6551
285.6551
285.6551
285.6551
285.6551
285.6551
285.6551
285.6551
285.6551
285.6551
285.65511
285.65511
285.65511
285.65511
285.65511
285.65511
285.65511
285.65511
285.65511
285.65511
285.65511
285.65511
285.65512
285.65512
285.65512
285.65512
285.65512
285.65512
285.65512
285.65512
285.65512
285.65512
285.65512
285.65512
285.65513
285.65513
285.65513
285.65513
285.65513
285.65513
285.65513
285.65513
285.65513
285.65513
285.65513
285.65513
285.65513
285.65513
285.65514
285.65514
285.65514
285.65514
285.65514
285.65514
285.65514
285.65514
285.65514
285.65514
285.65514
285.65514
285.65514
285.65514
285.65514
285.65514
285.65514
285.65514
285.65515
285.65515
285.65515
285.65515
285.65515
285.65515
285.65515
285.65515
285.65515
285.65515
285.65515
285.65515
285.65515
285.65515
285.65515
285.65515
285.65516
285.65516
285.65516
285.65516
285.65516
285.65516
285.65516
285.65516
285.65516
285.65516
285.65516
285.65517
285.65517
285.65517
285.65517
285.65517
285.65517
285.65517
285.65517
285.65517
285.65517
285.65517
285.65517
285.65517
285.65517
285.65517
285.65518
285.65518
285.65518
285.65518
285.65518
285.65518
285.65518
285.65518
285.65518
285.65518
285.65518
285.65518
285.65518
285.65519
285.65519
285.65519
285.65519
285.65519
285.65519
285.65519
285.65519
285.65519
285.65519
285.65519
285.65519
285.65519
285.65519
285.65519
285.65519
285.65519
285.65519
285.65519
285.65519
285.65519
285.65519
285.65519
285.65519
285.65519
285.65519
285.65519
285.65519
285.65519
285.65519
285.65519
285.65518
285.65518
285.65518
285.65518
285.65518
285.65518
285.65518
285.65518
285.65518
285.65517
285.65517
285.65517
285.65517
285.65517
285.65516
285.65516
285.65516
285.65515
285.65515
285.65515
285.65515
285.65514
285.65514
285.65514
285.65513
285.65513
285.65512
285.65512
285.65511
285.65511
285.65511
285.6551
285.65509
285.65509
285.65508
285.65508
285.65507
285.65507
285.65506
285.65505
285.65505
285.65504
285.65503
285.65502
285.65502
285.65501
285.655
285.65499
285.65498
285.65497
285.65496
285.65495
285.65494
285.65493
285.65492
285.65491
285.6549
285.65489
285.65488
285.65487
285.65485
285.65484
285.65482
285.65481
285.65479
285.65478
285.65476
285.65475
285.65473
285.65471
285.65469
285.65467
285.65466
285.65464
285.65461
285.65459
285.65457
285.65455
285.65452
285.6545
285.65447
285.65445
285.65442
285.65439
285.65436
285.65433
285.6543
285.65427
285.65424
285.65421
285.65417
285.65414
285.6541
285.65406
285.65402
285.65398
285.65394
285.6539
285.65385
285.65381
285.65376
285.65371
285.65366
285.65361
285.65355
285.6535
285.65344
285.65339
285.65333
285.65326
285.6532
285.65313
285.65307
285.653
285.65293
285.65286
285.65279
285.65271
285.65263
285.65256
285.65247
285.65239
285.65231
285.65222
285.65213
285.65204
285.65195
285.65185
285.65175
285.65165
285.65155
285.65144
285.65133
285.65122
285.65111
285.651
285.65088
285.65076
285.65064
285.65052
285.65039
285.65026
285.65013
285.64999
285.64985
285.64971
285.64957
285.64942
285.64927
285.64912
285.64896
285.64881
285.64865
285.64848
285.64832
285.64815
285.64797
285.6478
285.64762
285.64743
285.64725
285.64706
285.64686
285.64667
285.64647
285.64627
285.64606
285.64585
285.64564
285.64542
285.6452
285.64498
285.64475
285.64452
285.64429
285.64405
285.64381
285.64356
285.64331
285.64306
285.64281
285.64255
285.64228
285.64201
285.64174
285.64147
285.64119
285.6409
285.64062
285.64033
285.64003
285.63973
285.63943
285.63912
285.63881
285.63849
285.63817
285.63785
285.63752
285.63719
285.63686
285.63652
285.63618
285.63583
285.63547
285.63512
285.63476
285.63439
285.63402
285.63365
285.63327
285.63289
285.6325
285.63211
285.63172
285.63132
285.63092
285.63051
285.6301
285.62969
285.62927
285.62884
285.62841
285.62798
285.62754
285.6271
285.62666
285.62621
285.62576
285.6253
285.62484
285.62437
285.6239
285.62343
285.62295
285.62247
285.62198
285.62149
285.62099
285.6205
285.61999
285.61949
285.61898
285.61846
285.61794
285.61742
285.61689
285.61636
285.61583
285.61529
285.61475
285.6142
285.61365
285.6131
285.61254
285.61198
285.61141
285.61085
285.61027
285.6097
285.60912
285.60854
285.60795
285.60736
285.60676
285.60617
285.60557
285.60496
285.60436
285.60375
285.60313
285.60252
285.6019
285.60127
285.60065
285.60002
285.59938
285.59875
285.59811
285.59747
285.59682
285.59618
285.59553
285.59487
285.59422
285.59356
285.5929
285.59223
285.59157
285.5909
285.59022
285.58955
285.58887
285.58819
285.58751
285.58683
285.58614
285.58545
285.58476
285.58407
285.58337
285.58267
285.58198
285.58127
285.58057
285.57987
285.57916
285.57845
285.57774
285.57702
285.57631
285.57559
285.57487
285.57415
285.57343
285.57271
285.57199
285.57126
285.57053
285.56981
285.56908
285.56835
285.56761
285.56688
285.56615
285.56541
285.56467
285.56394
285.5632
285.56246
285.56172
285.56098
285.56024
285.55949
285.55875
285.55801
285.55726
285.55652
285.55577
285.55503
285.55428
285.55353
285.55279
285.55204
285.55129
285.55054
285.5498
285.54905
285.5483
285.54755
285.54681
285.54606
285.54531
285.54456
285.54382
285.54307
285.54232
285.54158
285.54083
285.54009
285.53934
285.5386
285.53785
285.53711
285.53637
285.53563
285.53489
285.53415
285.53341
285.53267
285.53193
285.53119
285.53046
285.52972
285.52899
285.52826
285.52753
285.5268
285.52607
285.52534
285.52461
285.52389
285.52317
285.52244
285.52172
285.521
285.52028
285.51957
285.51885
285.51814
285.51743
285.51672
285.51601
285.51531
285.5146
285.5139
285.5132
285.5125
285.5118
285.51111
285.51041
285.50972
285.50903
285.50835
285.50766
285.50698
285.5063
285.50562
285.50494
285.50427
285.5036
285.50293
285.50226
285.50159
285.50093
285.50027
285.49961
285.49896
285.49831
285.49766
285.49701
285.49636
285.49572
285.49508
285.49444
285.49381
285.49317
285.49254
285.49192
285.49129
285.49067
285.49005
285.48943
285.48882
285.48821
285.4876
285.48699
285.48639
285.48579
285.48519
285.48459
285.484
285.48341
285.48282
285.48224
285.48166
285.48108
285.48051
285.47993
285.47936
285.4788
285.47823
285.47767
285.47711
285.47656
285.47601
285.47546
285.47491
285.47437
285.47382
285.47329
285.47275
285.47222
285.47169
285.47116
285.47064
285.47011
285.4696
285.46908
285.46857
285.46806
285.46755
285.46705
285.46655
285.46605
285.46555
285.46506
285.46457
285.46408
285.4636
285.46312
285.46264
285.46216
285.46169
285.46122
285.46075
285.46029
285.45982
285.45936
285.45891
285.45845
285.458
285.45756
285.45711
285.45667
285.45623
285.45579
285.45535
285.45492
285.45449
285.45406
285.45364
285.45322
285.4528
285.45238
285.45196
285.45155
285.45114
285.45074
285.45033
285.44993
285.44953
285.44913
285.44874
285.44835
285.44796
285.44757
285.44718
285.4468
285.44642
285.44605
285.44567
285.4453
285.44493
285.44456
285.44419
285.44383
285.44347
285.44311
285.44275
285.4424
285.44205
285.4417
285.44135
285.441
285.44066
285.44032
285.43998
285.43964
285.43931
285.43897
285.43864
285.43832
285.43799
285.43767
285.43734
285.43702
285.43671
285.43639
285.43608
285.43577
285.43546
285.43515
285.43485
285.43454
285.43424
285.43394
285.43364
285.43335
285.43306
285.43276
285.43247
285.43219
285.4319
285.43162
285.43134
285.43106
285.43078
285.43051
285.43023
285.42996
285.42969
285.42942
285.42916
285.42889
285.42863
285.42837
285.42811
285.42786
285.4276
285.42735
285.4271
285.42685
285.4266
285.42635
285.42611
285.42587
285.42563
285.42539
285.42516
285.42493
285.42469
285.42446
285.42424
285.42401
285.42378
285.42356
285.42334
285.42312
285.4229
285.42268
285.42247
285.42226
285.42205
285.42184
285.42163
285.42142
285.42122
285.42102
285.42082
285.42062
285.42042
285.42023
285.42004
285.41985
285.41966
285.41947
285.41928
285.4191
285.41892
285.41874
285.41856
285.41838
285.4182
285.41803
285.41786
285.41769
285.41752
285.41735
285.41719
285.41702
285.41686
285.4167
285.41654
285.41639
285.41623
285.41608
285.41593
285.41578
285.41563
285.41548
285.41533
285.41519
285.41505
285.41491
285.41477
285.41463
285.4145
285.41436
285.41423
285.4141
285.41397
285.41384
285.41371
285.41359
285.41347
285.41334
285.41322
285.4131
285.41299
285.41287
285.41276
285.41265
285.41253
285.41242
285.41232
285.41221
285.4121
285.412
285.4119
285.4118
285.4117
285.4116
285.4115
285.41141
285.41131
285.41122
285.41113
285.41104
285.41095
285.41086
285.41077
285.41069
285.41061
285.41052
285.41044
285.41036
285.41028
285.41021
285.41013
285.41006
285.40998
285.40991
285.40984
285.40977
285.4097
285.40963
285.40956
285.4095
285.40943
285.40937
285.40931
285.40924
285.40918
285.40913
285.40907
285.40901
285.40895
285.4089
285.40884
285.40879
285.40874
285.40869
285.40864
285.40859
285.40854
285.40849
285.40845
285.4084
285.40836
285.40831
285.40827
285.40823
285.40818
285.40814
285.4081
285.40806
285.40802
285.40799
285.40795
285.40791
285.40788
285.40784
285.40781
285.40778
285.40774
285.40771
285.40768
285.40765
285.40762
285.40759
285.40756
285.40753
285.40751
285.40748
285.40745
285.40743
285.4074
285.40738
285.40736
285.40733
285.40731
285.40729
285.40727
285.40725
285.40722
285.4072
285.40718
285.40717
285.40715
285.40713
285.40711
285.40709
285.40708
285.40706
285.40704
285.40703
285.40701
285.407
285.40698
285.40697
285.40696
285.40694
285.40693
285.40692
285.4069
285.40689
285.40688
285.40687
285.40686
285.40685
285.40684
285.40683
285.40682
285.40681
285.4068
285.40679
285.40678
285.40677
285.40677
285.40676
285.40675
285.40674
285.40674
285.40673
285.40672
285.40672
285.40671
285.40671
285.4067
285.4067
285.40669
285.40669
285.40668
285.40668
285.40667
285.40667
285.40666
285.40666
285.40665
285.40665
285.40665
285.40664
285.40664
285.40664
285.40663
285.40663
285.40663
285.40663
285.40662
285.40662
285.40662
285.40662
285.40662
285.40661
285.40661
285.40661
285.40661
285.40661
285.40661
285.40661
285.4066
285.4066
285.4066
285.4066
285.4066
285.4066
285.4066
285.4066
285.4066
285.4066
285.4066
285.4066
285.4066
285.4066
285.4066
285.4066
285.4066
285.4066
285.4066
285.4066
285.4066
285.4066
285.4066
285.4066
285.4066
285.4066
285.40661
285.40661
285.40661
285.40661
285.40661
285.40661
285.40661
285.40661
285.40661
285.40661
285.40662
285.40662
285.40662
285.40662
285.40662
285.40662
285.40662
285.40662
285.40662
285.40663
285.40663
285.40663
285.40663
285.40663
285.40663
285.40663
285.40663
285.40664
285.40664
285.40664
285.40664
285.40664
285.40664
285.40664
285.40665
285.40665
285.40665
285.40665
285.40665
285.40665
285.40666
285.40666
285.40666
285.40666
285.40666
285.40666
285.40667
285.40667
285.40667
285.40667
285.40667
285.40667
285.40668
285.40668
285.40668
285.40668
285.40668
285.40669
285.40669
285.40669
285.40669
285.40669
285.40669
285.40669
285.4067
285.4067
285.4067
285.4067
285.4067
285.4067
285.40671
285.40671
285.40671
285.40671
285.40671
285.40672
285.40672
285.40672
285.40672
285.40672
285.40673
285.40673
285.40673
285.40673
285.40673
285.40673
285.40673
285.40674
285.40674
285.40674
285.40674
285.40674
285.40674
285.40675
285.40675
285.40675
285.40675
285.40676
285.40676
285.40676
285.40676
285.40676
285.40676
285.40676
285.40677
285.40677
285.40677
285.40677
285.40677
285.40677
285.40677
285.40678
285.40678
285.40678
285.40678
285.40678
285.40679
285.40679
285.40679
285.40679
285.40679
285.4068
285.4068
285.4068
285.4068
285.4068
285.4068
285.4068
285.40681
285.40681
285.40681
285.40681
285.40681
285.40681
285.40682
285.40682
285.40682
285.40682
285.40682
285.40683
285.40683
285.40683
285.40683
285.40683
285.40683
285.40684
285.40684
285.40684
285.40684
285.40684
285.40684
285.40685
285.40685
285.40685
285.40685
285.40685
285.40685
285.40685
285.40686
285.40686
285.40686
285.40686
285.40686
285.40686
285.40687
285.40687
285.40687
285.40687
285.40687
285.40688
285.40688
285.40688
285.40688
285.40688
285.40688
285.40689
285.40689
285.40689
285.40689
285.40689
285.40689
285.4069
285.4069
285.4069
285.4069
285.4069
285.4069
285.40691
285.40691
285.40691
285.40691
285.40691
285.40692
285.40692
285.40692
285.40692
285.40692
285.40692
285.40693
285.40693
285.40693
285.40693
285.40693
285.40694
285.40694
285.40694
285.40694
285.40694
285.40695
285.40695
285.40695
285.40695
285.40695
285.40696
285.40696
285.40696
285.40696
285.40696
285.40697
285.40697
285.40697
285.40697
285.40697
285.40697
285.40698
285.40698
285.40698
285.40698
285.40698
285.40699
285.40699
285.40699
285.40699
285.40699
285.407
285.407
285.407
285.407
285.407
285.40701
285.40701
285.40701
285.40701
285.40701
285.40702
285.40702
285.40702
285.40702
285.40703
285.40703
285.40703
285.40703
285.40704
285.40704
285.40704
285.40704
285.40704
285.40705
285.40705
285.40705
285.40705
285.40705
285.40706
285.40706
285.40706
285.40706
285.40706
285.40707
285.40707
285.40707
285.40707
285.40707
285.40708
285.40708
285.40708
285.40708
285.40708
285.40709
285.40709
285.40709
285.40709
285.4071
285.4071
285.4071
285.4071
285.40711
285.40711
285.40711
285.40711
285.40711
285.40712
285.40712
285.40712
285.40712
285.40712
285.40713
285.40713
285.40713
285.40713
285.40714
285.40714
285.40714
285.40714
285.40714
285.40715
285.40715
285.40715
285.40715
285.40715
285.40716
285.40716
285.40716
285.40716
285.40716
285.40717
285.40717
285.40717
285.40717
285.40718
285.40718
285.40718
285.40718
285.40719
285.40719
285.40719
285.40719
285.40719
285.4072
285.4072
285.4072
285.4072
285.4072
285.40721
285.40721
285.40721
285.40721
285.40721
285.40722
285.40722
285.40722
285.40722
285.40723
285.40723
285.40723
285.40723
285.40724
285.40724
285.40724
285.40724
285.40725
285.40725
285.40725
285.40725
285.40726
285.40726
285.40726
285.40726
285.40726
285.40727
285.40727
285.40727
285.40727
285.40727
285.40728
285.40728
285.40728
285.40728
285.40729
285.40729
285.40729
285.40729
285.4073
285.4073
285.4073
285.4073
285.40731
285.40731
285.40731
285.40731
285.40731
285.40732
285.40732
285.40732
285.40732
285.40733
285.40733
285.40733
285.40733
285.40734
285.40734
285.40734
285.40734
285.40735
285.40735
285.40735
285.40735
285.40736
285.40736
285.40736
285.40736
285.40736
285.40737
285.40737
285.40737
285.40738
285.40738
285.40738
285.40738
285.40739
285.40739
285.40739
285.40739
285.4074
285.4074
285.4074
285.4074
285.40741
285.40741
285.40741
285.40741
285.40742
285.40742
285.40742
285.40742
285.40743
285.40743
285.40743
285.40743
285.40744
285.40744
285.40744
285.40744
285.40745
285.40745
285.40745
285.40745
285.40746
285.40746
285.40746
285.40746
285.40747
285.40747
285.40747
285.40747
285.40748
285.40748
285.40748
285.40748
285.40749
285.40749
285.40749
285.4075
285.4075
285.4075
285.4075
285.40751
285.40751
285.40751
285.40751
285.40752
285.40752
285.40752
285.40752
285.40753
285.40753
285.40753
285.40753
285.40754
285.40754
285.40754
285.40754
285.40755
285.40755
285.40755
285.40756
285.40756
285.40756
285.40756
285.40757
285.40757
285.40757
285.40757
285.40758
285.40758
285.40758
285.40759
285.40759
285.40759
285.40759
285.4076
285.4076
285.4076
285.4076
285.40761
285.40761
285.40761
285.40761
285.40762
285.40762
285.40762
285.40763
285.40763
285.40763
285.40764
285.40764
285.40764
285.40765
285.40765
285.40765
285.40765
285.40766
285.40766
285.40766
285.40766
285.40767
285.40767
285.40767
285.40767
285.40768
285.40768
285.40768
285.40769
285.40769
285.40769
285.40769
285.4077
285.4077
285.4077
285.40771
285.40771
285.40771
285.40772
285.40772
285.40772
285.40773
285.40773
285.40773
285.40773
285.40774
285.40774
285.40774
285.40774
285.40775
285.40775
285.40775
285.40776
285.40776
285.40776
285.40777
285.40777
285.40777
285.40777
285.40778
285.40778
285.40778
285.40779
285.40779
285.40779
285.40779
285.4078
285.4078
285.4078
285.40781
285.40781
285.40781
285.40782
285.40782
285.40782
285.40783
285.40783
285.40783
285.40784
285.40784
285.40784
285.40785
285.40785
285.40785
285.40786
285.40786
285.40786
285.40787
285.40787
285.40787
285.40787
285.40788
285.40788
285.40788
285.40789
285.40789
285.40789
285.4079
285.4079
285.4079
285.40791
285.40791
285.40791
285.40792
285.40792
285.40792
285.40793
285.40793
285.40794
285.40794
285.40794
285.40795
285.40795
285.40795
285.40796
285.40796
285.40796
285.40797
285.40797
285.40797
285.40798
285.40798
285.40798
285.40799
285.40799
285.40799
285.408
285.408
285.408
285.40801
285.40801
285.40801
285.40802
285.40802
285.40802
285.40803
285.40803
285.40803
285.40804
285.40804
285.40805
285.40805
285.40805
285.40806
285.40806
285.40806
285.40807
285.40807
285.40807
285.40808
285.40808
285.40809
285.40809
285.40809
285.4081
285.4081
285.4081
285.40811
285.40811
285.40811
285.40812
285.40812
285.40813
285.40813
285.40813
285.40813
285.40814
285.40814
285.40814
285.40815
285.40815
285.40816
285.40816
285.40816
285.40817
285.40817
285.40818
285.40818
285.40818
285.40819
285.40819
285.40819
285.4082
285.4082
285.4082
285.40821
285.40821
285.40822
285.40822
285.40822
285.40823
285.40823
285.40823
285.40824
285.40824
285.40824
285.40825
285.40825
285.40825
285.40826
285.40826
285.40827
285.40827
285.40827
285.40828
285.40828
285.40829
285.40829
285.4083
285.4083
285.4083
285.40831
285.40831
285.40832
285.40832
285.40832
285.40833
285.40833
285.40834
285.40834
285.40834
285.40835
285.40835
285.40836
285.40836
285.40836
285.40837
285.40837
285.40837
285.40838
285.40838
285.40839
285.40839
285.40839
285.4084
285.4084
285.40841
285.40841
285.40842
285.40842
285.40842
285.40843
285.40843
285.40844
285.40844
285.40845
285.40845
285.40845
285.40846
285.40846
285.40847
285.40847
285.40848
285.40848
285.40848
285.40849
285.40849
285.4085
285.4085
285.40851
285.40851
285.40851
285.40852
285.40852
285.40853
285.40853
285.40854
285.40854
285.40855
285.40855
285.40855
285.40856
285.40856
285.40857
285.40857
285.40858
285.40858
285.40859
285.40859
285.4086
285.4086
285.4086
285.40861
285.40861
285.40862
285.40862
285.40863
285.40863
285.40864
285.40864
285.40865
285.40865
285.40865
285.40866
285.40866
285.40867
285.40867
285.40868
285.40868
285.40869
285.40869
285.4087
285.4087
285.40871
285.40871
285.40872
285.40872
285.40873
285.40873
285.40874
285.40874
285.40875
285.40875
285.40876
285.40876
285.40877
285.40877
285.40878
285.40878
285.40879
285.40879
285.4088
285.4088
285.40881
285.40881
285.40882
285.40882
285.40883
285.40883
285.40884
285.40884
285.40885
285.40885
285.40886
285.40886
285.40887
285.40887
285.40888
285.40888
285.40889
285.40889
285.4089
285.4089
285.40891
285.40891
285.40892
285.40892
285.40893
285.40894
285.40894
285.40895
285.40895
285.40896
285.40896
285.40897
285.40897
285.40898
285.40898
285.40899
285.40899
285.409
285.409
285.40901
285.40901
285.40902
285.40903
285.40903
285.40904
285.40904
285.40905
285.40905
285.40906
285.40907
285.40907
285.40908
285.40908
285.40909
285.40909
285.4091
285.40911
285.40911
285.40912
285.40912
285.40913
285.40913
285.40914
285.40914
285.40915
285.40916
285.40916
285.40917
285.40917
285.40918
285.40918
285.40919
285.4092
285.4092
285.40921
285.40921
285.40922
285.40923
285.40923
285.40924
285.40924
285.40925
285.40926
285.40926
285.40927
285.40927
285.40928
285.40929
285.40929
285.4093
285.4093
285.40931
285.40932
285.40932
285.40933
285.40934
285.40934
285.40935
285.40936
285.40936
285.40937
285.40938
285.40938
285.40939
285.4094
285.4094
285.40941
285.40941
285.40942
285.40943
285.40943
285.40944
285.40945
285.40945
285.40946
285.40947
285.40947
285.40948
285.40949
285.4095
285.4095
285.40951
285.40952
285.40952
285.40953
285.40953
285.40954
285.40955
285.40955
285.40956
285.40957
285.40957
285.40958
285.40959
285.4096
285.4096
285.40961
285.40962
285.40962
285.40963
285.40964
285.40965
285.40965
285.40966
285.40967
285.40967
285.40968
285.40969
285.40969
285.4097
285.40971
285.40972
285.40972
285.40973
285.40974
285.40975
285.40975
285.40976
285.40977
285.40978
285.40978
285.40979
285.4098
285.40981
285.40981
285.40982
285.40983
285.40984
285.40984
285.40985
285.40986
285.40987
285.40988
285.40988
285.40989
285.4099
285.40991
285.40991
285.40992
285.40993
285.40994
285.40995
285.40996
285.40996
285.40997
285.40998
285.40999
285.41
285.41001
285.41001
285.41002
285.41003
285.41004
285.41005
285.41005
285.41006
285.41007
285.41008
285.41009
285.4101
285.4101
285.41011
285.41012
285.41013
285.41014
285.41015
285.41016
285.41017
285.41017
285.41018
285.41019
285.4102
285.41021
285.41022
285.41022
285.41024
285.41024
285.41025
285.41026
285.41027
285.41028
285.41029
285.4103
285.41031
285.41032
285.41033
285.41034
285.41034
285.41035
285.41036
285.41037
285.41038
285.41039
285.4104
285.41041
285.41042
285.41043
285.41044
285.41045
285.41046
285.41047
285.41048
285.41049
285.41049
285.4105
285.41051
285.41052
285.41053
285.41055
285.41056
285.41057
285.41058
285.41059
285.4106
285.41061
285.41062
285.41063
285.41064
285.41065
285.41066
285.41067
285.41068
285.41069
285.4107
285.41071
285.41072
285.41073
285.41074
285.41075
285.41076
285.41078
285.41079
285.4108
285.41081
285.41082
285.41083
285.41084
285.41085
285.41086
285.41087
285.41088
285.41089
285.4109
285.41091
285.41093
285.41094
285.41095
285.41096
285.41097
285.41099
285.411
285.41101
285.41102
285.41103
285.41105
285.41106
285.41107
285.41108
285.41109
285.4111
285.41112
285.41113
285.41114
285.41115
285.41116
285.41117
285.41119
285.4112
285.41121
285.41122
285.41124
285.41125
285.41126
285.41128
285.41129
285.4113
285.41131
285.41133
285.41134
285.41135
285.41137
285.41138
285.41139
285.41141
285.41142
285.41143
285.41145
285.41146
285.41147
285.41149
285.4115
285.41151
285.41153
285.41154
285.41156
285.41157
285.41158
285.4116
285.41161
285.41163
285.41164
285.41166
285.41167
285.41168
285.4117
285.41171
285.41173
285.41174
285.41176
285.41177
285.41179
285.4118
285.41182
285.41183
285.41185
285.41186
285.41188
285.41189
285.41191
285.41192
285.41194
285.41196
285.41197
285.41199
285.412
285.41202
285.41204
285.41205
285.41207
285.41208
285.4121
285.41212
285.41213
285.41215
285.41217
285.41218
285.4122
285.41222
285.41224
285.41225
285.41227
285.41229
285.41231
285.41232
285.41234
285.41236
285.41238
285.4124
285.41241
285.41243
285.41245
285.41247
285.41248
285.4125
285.41252
285.41254
285.41256
285.41258
285.41259
285.41261
285.41263
285.41265
285.41267
285.41269
285.41271
285.41273
285.41275
285.41277
285.41279
285.41281
285.41283
285.41285
285.41287
285.41289
285.41291
285.41294
285.41296
285.41298
285.413
285.41302
285.41304
285.41306
285.41309
285.41311
285.41313
285.41315
285.41317
285.4132
285.41322
285.41324
285.41326
285.41328
285.4133
285.41333
285.41335
285.41337
285.4134
285.41342
285.41345
285.41347
285.4135
285.41352
285.41355
285.41357
285.4136
285.41362
285.41365
285.41367
285.4137
285.41372
285.41375
285.41378
285.4138
285.41383
285.41385
285.41388
285.41391
285.41393
285.41396
285.41399
285.41402
285.41404
285.41407
285.4141
285.41413
285.41416
285.41419
285.41422
285.41425
285.41428
285.41431
285.41434
285.41437
285.4144
285.41443
285.41446
285.41449
285.41452
285.41455
285.41458
285.41461
285.41464
285.41468
285.41471
285.41474
285.41477
285.4148
285.41484
285.41487
285.4149
285.41494
285.41497
285.41501
285.41504
285.41508
285.41511
285.41515
285.41519
285.41523
285.41526
285.4153
285.41534
285.41538
285.41542
285.41546
285.41549
285.41553
285.41557
285.41561
285.41565
285.41569
285.41573
285.41577
285.41582
285.41586
285.4159
285.41595
285.41599
285.41603
285.41608
285.41612
285.41617
285.41621
285.41626
285.4163
285.41635
285.4164
285.41644
285.41649
285.41654
285.41659
285.41664
285.41669
285.41674
285.41679
285.41684
285.41689
285.41695
285.417
285.41706
285.41711
285.41717
285.41723
285.41728
285.41734
285.4174
285.41746
285.41752
285.41757
285.41763
285.41769
285.41776
285.41782
285.41788
285.41794
285.418
285.41807
285.41813
285.4182
285.41826
285.41833
285.4184
285.41847
285.41854
285.41862
285.41869
285.41877
285.41884
285.41892
285.419
285.41908
285.41916
285.41924
285.41932
285.4194
285.41949
285.41957
285.41966
285.41974
285.41983
285.41992
285.42001
285.42011
285.4202
285.4203
285.42039
285.42049
285.42059
285.42069
285.4208
285.4209
285.42101
285.42111
285.42122
285.42133
285.42144
285.42155
285.42166
285.42177
285.42189
285.422
285.42212
285.42223
285.42235
285.42247
285.42259
285.4227
285.42282
285.42293
285.42305
285.42316
285.42327
285.42337
285.42348
285.42358
285.42367
285.42376
285.42384
285.42392
285.42399
285.42405
285.42411
285.42416
285.4242
285.42423
285.42425
285.42427
285.42428
285.42428
285.42428
285.42428
285.42428
285.42426
285.42424
285.42421
285.42418
285.42416
285.42415
285.42414
285.42413
285.42413
285.42413
285.42413
285.42414
285.42418
285.42427
285.42438
285.42452
285.42467
285.42484
285.42503
285.42524
285.42546
285.4257
285.42595
285.4262
285.42647
285.42674
285.42701
285.42728
285.42754
285.4278
285.42805
285.42828
285.4285
285.42871
285.4289
285.42907
285.42921
285.42933
285.42942
285.42949
285.42953
285.42956
285.42959
285.42965
285.42978
285.43006
285.43071
285.43228
285.43613
285.44563
285.46912
285.52752
285.67132
286.00655
286.50149
287.11363
287.83418
288.64804
289.53576
290.47515
291.44281
292.41562
293.37201
294.29302
295.16299
295.96996
296.70576
297.36583
297.94884
298.45622
298.89154
299.25998
299.56773
299.82152
300.02825
300.19462
300.32693
300.43093
300.51173
300.57377
300.62085
300.65614
300.68224
300.70128
300.71496
300.7246
300.73125
300.73572
300.7386
300.74036
300.74134
300.74179
300.74192
300.7419
300.74175
300.74127
300.74066
300.74008
300.73953
300.73902
300.73854
300.73809
300.73766
300.73726
300.73687
300.7365
300.73614
300.73578
300.73543
300.73507
300.73471
300.73434
300.73396
300.73356
300.73315
300.73272
300.73228
300.73183
300.73136
300.73088
300.73039
300.72989
300.72939
300.72889
300.72839
300.7279
300.72742
300.72694
300.72648
300.72603
300.7256
300.72518
300.72478
300.7244
300.72404
300.72369
300.72337
300.72305
300.72276
300.72247
300.7222
300.72195
300.72171
300.72147
300.72125
300.72104
300.72084
300.72064
300.72046
300.72027
300.7201
300.71993
300.71976
300.71961
300.71945
300.7193
300.71915
300.71901
300.71887
300.71873
300.7186
300.71847
300.71834
300.71822
300.71809
300.71797
300.71785
300.71774
300.71762
300.71751
300.7174
300.71729
300.71718
300.71708
300.71697
300.71687
300.71677
300.71667
300.71658
300.71648
300.71639
300.71629
300.7162
300.71611
300.71602
300.71593
300.71584
300.71576
300.71567
300.71559
300.71551
300.71542
300.71534
300.71527
300.71519
300.71511
300.71504
300.71496
300.71489
300.71482
300.71474
300.71467
300.7146
300.71454
300.71447
300.7144
300.71433
300.71427
300.7142
300.71414
300.71408
300.71401
300.71395
300.71389
300.71383
300.71377
300.71371
300.71365
300.71359
300.71353
300.71347
300.71341
300.71336
300.7133
300.71325
300.71319
300.71314
300.71309
300.71304
300.71298
300.71293
300.71288
300.71283
300.71278
300.71273
300.71268
300.71263
300.71258
300.71254
300.71249
300.71244
300.71239
300.71235
300.7123
300.71226
300.71221
300.71217
300.71212
300.71208
300.71203
300.71199
300.71195
300.71191
300.71187
300.71183
300.71179
300.71175
300.71171
300.71167
300.71163
300.71159
300.71155
300.71151
300.71147
300.71143
300.71139
300.71136
300.71132
300.71128
300.71125
300.71121
300.71117
300.71114
300.7111
300.71107
300.71103
300.711
300.71097
300.71093
300.7109
300.71087
300.71083
300.7108
300.71077
300.71073
300.7107
300.71067
300.71064
300.7106
300.71057
300.71054
300.71051
300.71048
300.71045
300.71042
300.71039
300.71036
300.71033
300.7103
300.71027
300.71024
300.71021
300.71019
300.71016
300.71013
300.7101
300.71008
300.71005
300.71002
300.70999
300.70997
300.70994
300.70991