/*--------------------------------*- C++ -*----------------------------------*\
  =========                 |
  \\      /  F ield         | OpenFOAM: The Open Source CFD Toolbox
   \\    /   O peration     | Website:  https://openfoam.org
    \\  /    A nd           | Version:  7
     \\/     M anipulation  |
\*---------------------------------------------------------------------------*/
FoamFile
{
    version     2.0;
    format      ascii;
    class       volScalarField;
    location    "0.00324";
    object      Uy;
}
// * * * * * * * * * * * * * * * * * * * * * * * * * * * * * * * * * * * * * //

dimensions      [0 1 -1 0 0 0 0];

internalField   nonuniform List<scalar> 
5000
(
1.1961155e-21
2.1631316e-21
0
0
-7.6300099e-22
6.098789e-37
5.2397581e-22
0
0
-5.7957048e-22
-1.1698817e-21
5.7488374e-22
5.6743597e-22
-5.6777389e-22
0
-5.6924673e-22
-2.0070839e-51
5.6453329e-22
0
5.602891e-22
-5.5819593e-22
-5.5611522e-22
1.1080881e-21
-5.5199347e-22
-5.4997466e-22
-4.516641e-36
5.4601514e-22
5.4407138e-22
-1.0843094e-21
9.3667319e-36
-9.41096e-36
5.3656349e-22
1.0694819e-21
-1.0658737e-21
9.2086773e-36
-4.6040135e-35
-1.8294754e-35
1.0517165e-21
-1.0482099e-21
-1.0447113e-21
1.0412288e-21
-3.5689276e-35
-1.0343528e-21
5.1548994e-22
1.5415017e-21
-5.1221756e-22
-5.1064646e-22
-3.4873359e-35
-1.0153451e-21
0
5.0095936e-22
6.9568137e-38
-4.843796e-22
9.7678794e-22
-1.7020619e-35
-9.6895648e-22
4.8799537e-22
-1.685961e-35
-4.8647337e-22
0
4.8580829e-22
1.6570856e-35
1.3795207e-37
4.8489061e-22
-4.8331298e-22
1.6804114e-35
4.8107213e-22
-4.84843e-22
-4.8452997e-22
4.8284965e-22
4.8213089e-22
-4.7903543e-22
-4.7751965e-22
9.5031024e-22
4.7431457e-22
-4.7999976e-22
0
4.7563355e-22
-6.7822195e-38
-4.7957082e-22
4.7768288e-22
-1.3460362e-37
1.3365169e-37
4.7078786e-22
4.7509699e-22
1.6726355e-35
-4.7845931e-22
0
-4.7855928e-22
-4.9969612e-35
-1.6891281e-35
4.8506116e-22
4.8404443e-22
-9.5693024e-22
-3.287572e-35
4.796106e-22
0
0
-4.7570563e-22
-3.3433013e-35
9.6070939e-22
-4.7686174e-22
-9.6298808e-22
0
4.7814392e-22
4.8277906e-22
-4.8262315e-22
-4.7949713e-22
0
0
4.7880686e-22
4.8112264e-22
0
-4.8682593e-22
1.6823025e-35
4.8371457e-22
-4.9070064e-22
1.3915721e-37
-1.6921874e-35
4.2713992e-52
9.8763706e-22
-2.1094682e-37
-4.9437762e-22
0
-4.9406426e-22
4.9255612e-22
4.9396172e-22
-9.9937768e-22
-4.9952316e-22
9.8845807e-22
4.9693106e-22
-5.0446132e-22
-5.0350201e-22
-5.001165e-22
0
5.0646762e-22
5.0670957e-22
-5.0788e-22
-1.7613221e-35
5.1168701e-22
-5.1186644e-22
-5.0703131e-22
0
5.1717614e-22
5.1641305e-22
-5.1328312e-22
5.1822932e-22
-2.9505029e-37
-5.1698897e-22
5.2240286e-22
-5.2291345e-22
3.6214317e-35
5.2532581e-22
-5.2615651e-22
5.2077292e-22
5.2332953e-22
-5.3116396e-22
0
0
-5.3282968e-22
-5.3340754e-22
5.3052364e-22
5.3593483e-22
-5.3677032e-22
-3.6835924e-35
5.3358699e-22
-5.4144971e-22
-5.4095199e-22
0
5.3731541e-22
5.4524764e-22
0
-5.3877805e-22
-5.4104066e-22
0
5.4824036e-22
1.1336891e-34
-5.5022962e-22
5.5066378e-22
5.475137e-22
-5.5274929e-22
-3.8203053e-35
3.782787e-35
2.3651458e-37
5.5701957e-22
-5.5581294e-22
-7.695783e-35
3.7833992e-35
-3.7568143e-35
5.4681946e-22
0
0
-5.6264846e-22
-5.6161521e-22
0
0
5.6302755e-22
-6.2805359e-53
-5.6440005e-22
0
5.6084671e-22
-5.656482e-22
-1.5682112e-34
1.1190318e-21
-5.6112898e-22
-1.1802172e-34
-8.0594782e-38
-5.6315293e-22
5.6784196e-22
-8.0672227e-38
-7.8050588e-35
3.9341609e-35
-5.6848259e-22
0
5.6318724e-22
3.9468321e-35
1.57862e-34
5.6472157e-22
0
-5.6864942e-22
-5.6433008e-22
0
0
0
5.6720326e-22
3.9381551e-35
-5.6819196e-22
0
0
5.6311844e-22
5.6316516e-22
-5.6796298e-22
-5.6927023e-22
0
5.6805559e-22
5.669432e-22
-5.656016e-22
-5.6126856e-22
0
5.6551625e-22
-1.566106e-34
-3.8577144e-35
5.5706808e-22
-5.6358328e-22
-5.6451772e-22
0
5.6327322e-22
-7.8080837e-35
5.6003794e-22
7.7051008e-35
-1.1085134e-21
5.5918976e-22
-7.7273131e-35
-1.9173619e-34
-3.8481947e-35
-5.551789e-22
5.4765619e-22
5.4824493e-22
0
-5.521047e-22
-5.4653109e-22
0
5.4976098e-22
5.4868783e-22
-1.0968834e-21
-5.4603094e-22
5.4208845e-22
5.4124908e-22
1.5135456e-34
-5.437876e-22
5.3592811e-22
-3.7194199e-35
-5.4239825e-22
5.3966026e-22
-3.7130413e-35
3.7450542e-35
-1.5243356e-37
-3.6684735e-35
5.3457402e-22
0
0
-5.3113259e-22
-5.2902673e-22
0
0
0
0
5.2451658e-22
3.5797668e-35
-1.038023e-21
2.2281356e-37
5.2001239e-22
5.1780915e-22
-7.1676181e-35
-7.0941987e-35
-7.2854938e-38
-5.0985136e-22
-5.0450489e-22
-5.0716063e-22
1.0077598e-21
1.4912501e-21
-5.0038939e-22
-1.0051542e-21
0
5.0002727e-22
4.9521453e-22
-4.885893e-22
1.3831446e-37
-2.0902684e-37
1.3840463e-37
4.8070607e-22
4.8336216e-22
-4.8121605e-22
-9.4431659e-22
4.7152017e-22
-1.8755999e-52
4.7279711e-22
1.2919301e-34
-9.376128e-22
0
0
9.2170986e-22
-2.5606795e-34
-9.1778656e-22
0
4.5339255e-22
4.4727626e-22
-4.4483342e-22
6.3689884e-38
-6.1728034e-35
6.224756e-38
4.4051054e-22
-4.4037276e-22
-4.3671592e-22
0
4.2732672e-22
-5.9012336e-35
-4.2902123e-22
8.4720051e-22
-1.1528108e-34
-4.1884908e-22
-1.1680436e-34
-8.3758022e-22
8.3383148e-22
4.1302494e-22
-4.1293261e-22
-5.8530703e-38
-4.0878661e-22
0
0
3.9871964e-22
-5.5987463e-35
-8.0128169e-22
5.5892741e-38
1.1803669e-21
-3.9122746e-22
-3.8830291e-22
7.864495e-22
-3.9163676e-22
3.8578538e-22
7.7823418e-22
-3.8793265e-22
-3.7938392e-22
-3.7960588e-22
3.8626276e-22
1.072031e-51
-3.7771159e-22
3.8167053e-22
-3.8030234e-22
3.7494521e-22
1.0502086e-34
1.0734444e-37
3.7241044e-22
-7.5315334e-22
3.7578183e-22
1.0203525e-34
-1.0216048e-34
-3.7536918e-22
-7.5088571e-22
1.1185258e-21
1.0299788e-34
-2.0308342e-34
1.0133052e-34
-7.4449262e-22
7.4129722e-22
-1.0051547e-34
-7.2679907e-22
0
0
3.6406118e-22
-5.1132687e-35
-3.7052567e-22
-3.691885e-22
3.6870874e-22
1.1015162e-21
-3.704557e-22
-3.6910443e-22
-1.0350798e-37
-3.6824138e-22
0
7.2527487e-22
7.3540307e-22
-3.6724777e-22
-7.2522002e-22
-3.6773692e-22
7.3468413e-22
7.2547797e-22
-7.3581249e-22
-7.3571395e-22
0
7.2226646e-22
-3.6972281e-22
-7.3645257e-22
3.6347253e-22
3.6867251e-22
-5.2761458e-38
5.141797e-35
3.6991348e-22
-3.6809663e-22
-3.7107602e-22
3.693162e-22
-5.057764e-35
-5.2634633e-38
-5.1421739e-35
-3.6524567e-22
3.6886176e-22
-1.5560629e-34
-5.2106616e-35
-1.0414135e-34
-3.7343952e-22
3.7371603e-22
-5.2430944e-35
-1.0643523e-34
-5.5271096e-38
-7.8743681e-22
-3.988024e-22
4.0246938e-22
8.1087443e-22
-5.6658624e-35
-8.2065925e-22
-4.1216335e-22
8.2686183e-22
4.1453982e-22
-4.1570868e-22
-4.1680347e-22
-1.1601327e-34
4.1928873e-22
0
0
4.2362783e-22
0
-4.2690932e-22
4.2869939e-22
6.1199935e-38
-1.2009327e-34
0
-4.365136e-22
4.3808902e-22
4.3972244e-22
-8.8302347e-22
-4.4332553e-22
4.4489675e-22
0
0
-4.4766635e-22
1.2455667e-34
4.4890313e-22
0
0
-4.5125093e-22
1.8845196e-34
4.5361439e-22
0
0
0
0
0
0
0
0
9.3432199e-22
2.6075167e-34
-4.7403455e-22
4.776365e-22
-4.7824023e-22
4.7804492e-22
-1.3333164e-34
-4.8229909e-22
-1.344342e-34
-4.8928533e-22
0
0
5.0022816e-22
1.3913056e-34
-5.0416895e-22
0
0
0
0
0
0
0
1.031134e-21
-4.3317808e-34
-1.0354066e-21
5.1752456e-22
7.3237559e-38
5.1026659e-22
-2.8469561e-34
-1.0397243e-21
-5.248736e-22
9.3381979e-53
1.5977105e-21
0
-1.0649124e-21
0
0
1.0512285e-21
-1.4645289e-34
-1.6034272e-21
5.3965478e-22
5.3847397e-22
-5.3261335e-22
5.3666207e-22
-5.4749126e-22
-1.5522346e-34
5.657624e-22
-5.5947557e-22
0
-5.5312642e-22
5.4894187e-22
1.0965937e-21
-5.5266194e-22
-5.5752427e-22
-5.6167554e-22
-5.6076335e-22
1.1150778e-21
5.576003e-22
-5.5605291e-22
0
5.5755925e-22
-5.5829061e-22
-5.5991626e-22
1.7070568e-21
1.638064e-37
-1.1566498e-21
5.8471606e-22
8.1718999e-35
5.8727773e-22
-1.6692946e-37
-1.1688793e-21
5.8268441e-22
0
-1.6502051e-34
-8.5072904e-38
-5.995807e-22
5.9893197e-22
-1.6629714e-34
-8.3003788e-35
-8.5149356e-38
-6.012183e-22
6.0377561e-22
4.0464036e-52
-1.6561268e-34
-8.5424688e-38
-1.2223994e-21
-8.5878206e-35
6.2133642e-22
0
0
-6.2072086e-22
-2.5820732e-34
6.2100599e-22
-6.2574039e-22
8.7898505e-35
-9.621799e-52
-8.8935484e-35
6.4038522e-22
6.4140728e-22
8.9079008e-35
-6.4395153e-22
0
0
6.5943265e-22
-6.6352858e-22
5.4989953e-34
6.6048991e-22
-6.6121108e-22
0
6.615744e-22
6.6345959e-22
-6.6845072e-22
-6.7254508e-22
0
6.7233426e-22
6.6882486e-22
-1.351515e-21
-6.8396849e-22
6.8735109e-22
6.8682803e-22
9.5145186e-35
6.8683383e-22
1.9086135e-34
-1.396e-21
0
0
0
7.2604986e-22
7.236857e-22
0
-7.2079527e-22
-9.8730146e-35
7.0528832e-22
0
0
-7.2704538e-22
-1.010366e-34
1.0088364e-34
-7.294533e-22
7.3112376e-22
-3.0509357e-34
-7.3660435e-22
0
-7.4984858e-22
-1.0447732e-34
7.5117617e-22
-7.4719397e-22
7.4451792e-22
7.4750254e-22
-7.5547541e-22
0
7.6485906e-22
7.6457329e-22
-7.6552668e-22
-7.6636732e-22
0
-7.5859e-22
7.5425316e-22
7.5968051e-22
-7.674538e-22
-1.5510928e-21
4.361119e-34
2.3873018e-21
1.0713099e-53
-7.9985313e-22
-1.6036371e-21
4.4625992e-34
1.6096815e-21
-8.0329095e-22
8.0020649e-22
-8.0586815e-22
-8.1476656e-22
1.638477e-21
0
0
-1.6529065e-21
1.199099e-51
1.6677258e-21
0
0
-1.6763273e-21
6.3426099e-52
1.6957025e-21
0
0
-1.7167574e-21
-8.5626058e-22
1.6839633e-21
8.3425076e-22
0
-1.6936932e-21
4.7166873e-34
1.7128892e-21
-8.6539027e-22
0
8.7656904e-22
-8.7928384e-22
1.2509067e-37
8.8298661e-22
-8.8924758e-22
8.9864128e-22
9.0441765e-22
-9.0480798e-22
-9.044517e-22
2.5090419e-34
9.0243585e-22
-9.023733e-22
-2.5299629e-34
9.2818284e-22
-9.3823989e-22
9.3940544e-22
9.39074e-22
-9.3774991e-22
-9.3517548e-22
2.5994441e-34
9.3552475e-22
-9.2735306e-22
1.3158184e-37
9.2967048e-22
-9.3147456e-22
9.3461796e-22
9.3304144e-22
-9.3134938e-22
-1.8711958e-21
5.2215891e-34
1.8825713e-21
-9.4079507e-22
1.3352932e-37
1.8925766e-21
2.7208938e-37
-9.5845392e-22
0
9.6831609e-22
0
-9.580304e-22
0
0
0
-9.4777514e-22
-1.4103876e-52
9.4335953e-22
0
9.5535937e-22
-2.6821331e-34
-9.7398995e-22
0
0
0
-9.8517484e-22
2.7342305e-34
9.826332e-22
0
9.8283519e-22
2.7356441e-34
-9.883468e-22
0
9.9940815e-22
-9.9141053e-22
5.4918862e-34
9.9004882e-22
-9.9029814e-22
0
-9.9101497e-22
-2.7515295e-34
9.9207948e-22
0
9.9761977e-22
-9.9769061e-22
-5.5286634e-34
9.8747333e-22
-5.43715e-34
-1.3956969e-37
2.7419496e-34
-1.4077052e-37
-9.9925944e-22
0
1.0151175e-21
-2.8324122e-34
-2.8367166e-34
-6.2399528e-53
-2.8408757e-34
0
-2.0422921e-21
-2.8190204e-34
1.0142146e-21
-1.0161455e-21
2.8165998e-34
1.0126729e-21
1.012582e-21
2.822373e-34
-2.8390599e-34
1.0244563e-21
-1.0261206e-21
-1.036433e-21
0
-1.0442524e-21
2.8609519e-34
1.0233773e-21
0
0
0
-2.0591714e-21
1.1466381e-33
2.0721097e-21
0
0
0
0
0
0
0
-2.0970329e-21
5.8266125e-34
2.0918415e-21
1.047128e-21
-1.0489792e-21
-1.0486635e-21
2.8970575e-34
5.7696597e-34
1.0400157e-21
-1.0371124e-21
1.0278732e-21
1.0185605e-21
-1.0210957e-21
-1.0256233e-21
5.7076323e-34
1.0357598e-21
1.0430099e-21
-2.9063843e-34
-1.0512122e-21
-1.0521188e-21
1.0522293e-21
1.0531201e-21
-1.0567926e-21
1.0644964e-21
0
-1.0697025e-21
-1.0673264e-21
2.9464305e-34
1.0590481e-21
-1.0549757e-21
1.0499945e-21
1.0521247e-21
-1.0539177e-21
1.0537396e-21
2.9356086e-34
-1.0624671e-21
-1.0638649e-21
-1.5045466e-37
2.1141262e-21
5.8756906e-34
-1.0575201e-21
-1.0572295e-21
0
1.0511262e-21
0
0
0
1.0844529e-21
1.0770267e-21
-1.0615736e-21
-1.0541377e-21
0
1.0576904e-21
-2.9378945e-34
-1.0554818e-21
0
0
1.0509611e-21
-5.9543131e-34
-1.0790044e-21
0
0
1.0640169e-21
-5.8965145e-34
-1.0633562e-21
0
1.0643514e-21
-2.9621877e-34
2.9738092e-34
-2.9834873e-34
-1.0734499e-21
0
-1.0702551e-21
5.9381228e-34
1.0686493e-21
0
1.0629635e-21
-1.0627874e-21
-1.06078e-21
2.1127351e-21
2.9170783e-34
-2.1205713e-21
3.0009016e-34
1.0799242e-21
0
0
1.0720167e-21
-2.9758997e-34
-1.0739028e-21
0
1.0773208e-21
-1.0768687e-21
-1.0754283e-21
1.0714552e-21
0
-1.0847675e-21
1.0895759e-21
6.0444622e-34
-6.0383244e-34
1.0851913e-21
-9.0164151e-34
1.0897712e-21
-1.0950918e-21
3.022589e-34
-6.0284243e-34
-2.172015e-21
3.0089894e-34
1.0838694e-21
0
0
0
-2.1814838e-21
-1.0905679e-21
2.1812948e-21
1.0905317e-21
0
0
1.0943686e-21
-4.1710258e-52
-1.1123776e-21
0
-2.2235326e-21
-1.1147196e-21
2.2312797e-21
1.1108966e-21
0
-2.2215228e-21
-3.1550379e-37
3.3257847e-21
-3.0651005e-34
-2.2234674e-21
1.1256013e-21
6.4363319e-37
-1.1310872e-21
3.138257e-34
6.2459791e-34
1.1189269e-21
0
1.1295256e-21
-6.2972034e-34
-2.2689151e-21
1.1347413e-21
-1.8962841e-33
-1.1457997e-21
2.2968217e-21
-1.6261315e-37
-1.1435736e-21
0
0
0
-1.1437482e-21
1.1473949e-21
2.3033717e-21
-1.1525803e-21
-3.2025539e-34
-3.2120523e-34
-1.1668023e-21
0
1.164101e-21
-1.6472934e-37
-2.3225006e-21
1.1626334e-21
6.4552787e-34
-1.1653595e-21
-1.1695335e-21
6.5281504e-34
2.3535361e-21
0
1.1825688e-21
1.1905882e-21
0
-1.1895902e-21
-1.1886127e-21
1.1911473e-21
0
-1.1910665e-21
0
0
1.2064456e-21
-1.0044113e-33
-1.2066102e-21
0
0
1.2228732e-21
1.2269107e-21
-1.2258436e-21
-1.2245052e-21
1.2235683e-21
1.2245115e-21
-2.4592308e-21
-1.2334269e-21
3.4231862e-34
1.2316477e-21
-6.8308835e-34
-6.8237932e-34
1.2319543e-21
-1.227565e-21
1.2215233e-21
-1.2285578e-21
-1.0570694e-36
1.2467311e-21
-2.4989546e-21
-1.248894e-21
-1.2491132e-21
2.5033509e-21
2.5130291e-21
-1.261948e-21
1.2623978e-21
-1.2619474e-21
7.002525e-34
2.5140148e-21
-1.2607627e-21
3.5264218e-34
-3.5498807e-34
-1.2798311e-21
0
0
1.2759976e-21
1.2725142e-21
0
-1.2890174e-21
-1.2946342e-21
0
-1.296156e-21
3.6125612e-34
1.3097151e-21
-1.3139862e-21
3.6326366e-34
1.3078537e-21
0
1.3079493e-21
7.2592525e-34
-1.3094715e-21
1.3144184e-21
-3.6588228e-34
-1.3191943e-21
-1.3180784e-21
-3.6552e-34
1.3128988e-21
0
-1.3248211e-21
1.3304927e-21
-3.7821292e-37
7.389204e-34
1.3321248e-21
-1.333385e-21
0
-2.7225553e-21
3.0445374e-33
1.3743563e-21
7.6335024e-34
2.7336696e-21
-2.6995024e-21
-2.6830697e-21
2.6876039e-21
2.6950534e-21
1.3461936e-21
0
-1.3552252e-21
-2.7311987e-21
1.9394327e-37
-1.3573139e-21
1.3527996e-21
1.3521397e-21
-1.3522684e-21
2.7108765e-21
-2.7182288e-21
-2.2634902e-33
2.7178779e-21
-2.7241602e-21
7.5875784e-34
-1.3664229e-21
1.3612795e-21
1.3623788e-21
-1.3650181e-21
-3.7810522e-34
-2.7229211e-21
2.7241595e-21
2.7327314e-21
-2.742223e-21
-3.8018233e-34
-1.36801e-21
7.5842064e-34
1.3593337e-21
3.7750684e-34
-9.5945445e-52
1.3712043e-21
2.742827e-21
-1.3713922e-21
1.9468115e-51
-1.3800594e-21
-2.2987531e-33
1.3741937e-21
-2.7485263e-21
7.6302145e-34
2.7449371e-21
4.0880045e-52
-1.3618653e-21
0
0
-1.3841366e-21
1.3834511e-21
2.7634242e-21
0
0
0
-1.3711463e-21
-1.3750344e-21
0
1.3909267e-21
-1.3906965e-21
-2.3135492e-33
2.7697057e-21
0
0
0
-1.3692193e-21
-1.373271e-21
1.372936e-21
-1.3724218e-21
-7.6220536e-34
2.7427738e-21
0
0
-2.802575e-21
3.9840879e-37
1.4004654e-21
-1.394429e-21
1.3833804e-21
-1.3777146e-21
7.6221112e-34
2.7278342e-21
0
0
-1.3624716e-21
-1.3599436e-21
0
0
1.3712966e-21
1.3770871e-21
0
-1.376418e-21
-1.3724916e-21
1.3613635e-21
-1.3555639e-21
-1.3607994e-21
1.3656855e-21
1.3706678e-21
-7.5919955e-34
-1.3511306e-21
1.3449145e-21
3.7158868e-34
-1.3257044e-21
0
-1.3339077e-21
7.4221214e-34
1.3351516e-21
-1.3325175e-21
7.36423e-34
1.3148715e-21
0
-1.3189787e-21
3.668504e-34
1.8755203e-37
-1.3159245e-21
1.3113365e-21
1.3078798e-21
0
-2.6194253e-21
1.4538258e-33
1.3075957e-21
1.8593377e-37
2.6217742e-21
-2.6168738e-21
-2.5957052e-21
2.5839942e-21
1.2895107e-21
0
-2.5587541e-21
2.1096437e-33
2.5296752e-21
0
-2.5459328e-21
-7.0577574e-34
1.2681782e-21
3.5051903e-34
2.500009e-21
-2.4924066e-21
-3.1229238e-33
2.5054449e-21
-2.5028842e-21
6.9346345e-34
2.4911386e-21
1.2360078e-21
-2.4712684e-21
-1.2352533e-21
2.449579e-21
-2.4416674e-21
-3.0457306e-33
2.4255393e-21
-2.4112756e-21
3.3331891e-34
-1.1986792e-21
1.3287099e-33
3.5804109e-21
-6.5907257e-34
-2.3611584e-21
1.1750533e-21
2.3457809e-21
-1.1716539e-21
6.4824988e-34
-1.1610926e-21
-1.281777e-33
1.1481962e-21
-2.2895185e-21
9.5167914e-34
-1.2550729e-33
6.1784193e-34
1.1130797e-21
0
1.1149384e-21
1.1097716e-21
0
0
0
0
0
-1.0812371e-21
-1.0784584e-21
0
1.0726085e-21
-1.0634386e-21
-1.7451697e-33
2.078566e-21
0
0
0
-1.0273372e-21
-1.0180269e-21
1.0017032e-21
9.927132e-22
-1.9801869e-21
-1.643579e-33
1.9662865e-21
0
-1.9382456e-21
-1.5860161e-33
9.424705e-22
-9.3931056e-22
9.3499442e-22
-9.3067008e-22
-5.1358601e-34
1.8283251e-21
0
0
-8.9525698e-22
-8.8576297e-22
0
-8.6061097e-22
-2.4284217e-37
-8.4970382e-22
8.336184e-22
2.4423472e-21
0
1.6618017e-21
1.6554071e-21
0
-2.400958e-21
-1.5735932e-21
1.5357385e-21
-7.4606568e-22
-7.3881652e-22
2.218968e-21
7.3888383e-22
1.0443104e-37
7.187827e-22
-7.0563779e-22
-6.9620271e-22
-6.7826768e-22
1.6905943e-52
-6.6988101e-22
-6.6763796e-22
6.5998005e-22
0
1.2032522e-21
1.192958e-21
0
-5.7832035e-22
-1.1681205e-21
-3.2665807e-34
-5.6656215e-22
-1.1022275e-21
1.095188e-21
1.0756976e-21
5.2841019e-22
5.1089141e-22
0
-4.9386215e-22
-1.5242389e-21
5.0525947e-22
6.848027e-50
-1.4348396e-21
9.2768354e-22
4.4293158e-22
4.1822853e-22
8.1781673e-22
-8.1733156e-22
-4.0551532e-22
4.0300287e-22
3.947071e-22
3.8095484e-22
-1.0811783e-21
-3.3460412e-22
9.6848009e-22
3.204342e-22
-3.1559832e-22
-6.1996603e-22
3.0100533e-22
-2.8279795e-22
4.3096371e-34
-4.13577e-34
-7.4145318e-22
2.4370227e-22
2.4006228e-22
4.603071e-22
2.0838267e-22
-3.6547345e-22
-4.8968801e-38
-1.7126107e-22
1.6785071e-22
4.9322607e-22
-4.5567253e-22
-1.2436756e-22
2.9500967e-22
0
-2.7366272e-22
-8.7181893e-23
2.5745e-22
-7.0972788e-23
-8.859873e-23
-2.1055373e-35
4.1127221e-35
8.7663559e-24
0
-2.5912458e-23
-5.4861719e-23
4.8258445e-23
4.1131846e-23
7.2564397e-23
-6.0123901e-23
-7.3059272e-23
1.4101358e-22
0
-2.2987954e-22
-2.1924443e-22
1.0463455e-22
2.5675199e-22
-7.872522e-35
-1.3866285e-22
3.1470164e-22
-1.8383645e-22
6.2620843e-34
3.7455404e-22
-1.9120847e-22
0
-4.4311497e-22
0
5.0085657e-34
2.3293969e-22
5.1159355e-22
-8.3636307e-22
8.1098661e-38
5.7880308e-22
0
-5.7556622e-22
-2.9899386e-22
6.6857411e-22
-3.9724697e-34
-3.5480596e-22
7.1266152e-22
-3.5919502e-22
5.8731186e-34
7.2954469e-22
-3.9970399e-22
4.2092483e-22
-8.1353619e-22
-1.1806167e-21
0
1.3326526e-21
8.9599738e-22
-1.3458094e-21
-9.0205586e-22
4.5509703e-22
9.6603691e-22
-5.0750422e-22
-4.9497354e-22
9.5197358e-22
-4.77422e-22
-9.7572427e-22
5.0528478e-22
-7.6162655e-38
1.1068343e-21
1.0702687e-21
-1.5369073e-21
5.1220155e-22
8.7578916e-34
-1.6494235e-21
0
1.7836357e-21
1.1689501e-21
-5.8264215e-22
-5.8203847e-22
-5.7633503e-22
0
-6.1372821e-22
3.3276508e-34
1.1743664e-21
-3.3614964e-34
-6.1518485e-22
0
-6.3383148e-22
1.2960471e-21
1.911811e-21
-1.2664755e-21
-1.8899328e-21
-6.2191886e-22
6.37912e-22
1.3083197e-21
-6.4509855e-22
6.3921401e-22
6.3373946e-22
-1.2415619e-21
1.2577093e-21
6.5560097e-22
-1.9886049e-21
-1.2700702e-21
6.1558623e-22
1.8898403e-21
-1.4114282e-33
1.3998778e-33
6.4513764e-22
7.220748e-34
6.306409e-22
-6.2154329e-22
-6.1586152e-22
-5.9780499e-22
5.9739594e-22
6.182361e-22
-1.8585006e-21
5.8297544e-22
1.1130339e-21
-1.7011511e-21
-1.6154333e-37
5.5660539e-22
-1.1279191e-21
-5.7282146e-22
0
5.174088e-22
4.887704e-22
9.4055798e-22
-4.5514304e-22
1.5311885e-33
1.413105e-21
-4.654224e-22
-4.4901922e-22
-4.2074019e-22
3.7160184e-22
3.316199e-22
-9.8493369e-22
3.2141662e-22
5.4798093e-22
3.6558901e-34
1.9541674e-22
-3.9406009e-22
-5.6602727e-22
-7.8426174e-35
4.6021513e-35
6.3747087e-39
2.2360063e-23
2.4728186e-23
1.2834123e-24
1.1881266e-22
-1.2644544e-34
-3.7378845e-22
0
0
2.9116291e-22
-1.7445515e-34
1.9805672e-34
4.1261996e-22
-9.6498324e-22
-5.7559541e-22
-7.3841961e-34
7.211526e-22
2.2760914e-21
8.0942821e-22
0
0
0
-3.6191028e-21
-2.5889287e-21
4.0711843e-21
-1.5828826e-33
-3.0387729e-21
0
0
3.878583e-21
-4.5785581e-33
-2.3966358e-33
4.5281544e-21
-2.4081448e-21
-5.1686393e-21
-5.5169256e-21
2.9277088e-21
9.2847783e-21
3.2447977e-21
0
0
0
-1.218922e-20
-8.5244995e-21
1.3486456e-20
-1.055141e-32
-5.0246533e-21
7.5397495e-37
-5.5698137e-21
1.1664381e-20
-6.7998817e-33
-6.4432512e-21
1.3538164e-20
0
-4.1309523e-33
-1.5616417e-20
-1.6403163e-20
2.5822005e-20
1.8040168e-20
-9.444379e-21
-5.4847761e-33
1.0344034e-20
-3.2501224e-20
-2.2696615e-20
1.1878099e-20
1.2423938e-20
-1.2991571e-20
-1.3583345e-20
1.4203585e-20
1.4856864e-20
-8.6253172e-33
9.0148837e-33
1.6977387e-20
0
1.8534637e-20
-3.8729587e-20
-6.0703067e-20
4.2283153e-20
4.4168056e-20
2.3063159e-20
-2.6731475e-32
-5.0289923e-20
2.625476e-20
-2.7412092e-20
-2.8616184e-20
5.9736346e-20
-6.234234e-20
-3.2529458e-20
3.3946798e-20
7.0848476e-20
3.6961831e-20
-7.712305e-20
2.2317298e-32
-4.1959798e-20
-4.3765809e-20
1.3694492e-19
-4.7609065e-20
-4.9649553e-20
1.553185e-19
-7.6714309e-36
-1.6885066e-19
-5.8679085e-20
1.8352155e-19
-6.3771304e-20
1.4336101e-47
-1.1536065e-31
-1.4443162e-19
1.5052583e-19
1.5686889e-19
-8.1735719e-20
9.4553545e-32
1.7749464e-19
-9.2467726e-20
-2.8901583e-19
-1.0036626e-19
1.0455731e-19
0
1.1345573e-19
2.3635244e-19
-1.749168e-35
-3.8458424e-19
-1.3350815e-19
2.7807075e-19
-2.0575193e-35
-3.0153142e-19
3.1397235e-19
-2.722373e-31
-3.4036714e-19
5.31541e-19
3.6891306e-19
0
0
-2.0807248e-19
-6.4973782e-19
-2.2542403e-19
7.0385953e-19
-2.7107721e-31
-5.0823875e-19
5.2890352e-19
5.5038536e-19
-2.8635801e-19
-5.9592801e-19
3.1002747e-19
3.2256597e-19
-1.0067929e-18
-3.4914128e-19
-6.0494194e-31
2.0962498e-31
3.9304519e-19
-4.0884092e-19
8.5050839e-19
1.3269252e-18
0
-1.4353163e-18
-9.951329e-19
1.5523146e-18
-1.5293217e-34
-5.5952755e-19
1.1636088e-18
-6.0494435e-19
-6.2898015e-19
-7.2597874e-31
6.7987483e-19
1.4136095e-18
-7.3477252e-19
-1.527634e-18
-1.5879573e-18
9.1644221e-31
8.5782225e-19
-8.915923e-19
1.8533117e-18
2.8891832e-18
0
-3.1202926e-18
-2.1616681e-18
3.3693682e-18
-1.2959024e-30
-1.2125885e-18
1.2598866e-18
1.3089792e-18
-7.5447933e-31
-2.8256293e-18
8.146832e-31
3.0493041e-18
-1.7579855e-30
-1.8260652e-30
-3.4174625e-18
-5.3243012e-18
3.6865678e-18
-2.125788e-30
-6.620798e-30
2.0646399e-18
2.1440168e-18
4.4527188e-18
-6.9353251e-18
-2.4003747e-18
4.9845467e-18
-5.1751797e-18
-1.5270684e-33
8.3669185e-18
2.8952984e-18
-3.0055601e-18
-9.3596964e-18
1.0786469e-29
6.7227895e-18
3.4888585e-18
-7.242025e-18
-1.1274071e-17
1.1700191e-17
4.0473113e-18
4.6613893e-30
4.3581706e-18
-9.0443384e-18
2.6044993e-30
-4.8683205e-18
5.0509004e-18
-1.7454944e-29
-1.630857e-17
1.6918112e-17
1.7549708e-17
0
0
0
-6.7707874e-18
-2.1066264e-17
-7.2824101e-18
-8.3839424e-30
-7.831384e-18
2.436209e-17
8.4203544e-18
-8.7307199e-18
-9.0521708e-18
-9.3851012e-18
1.9459849e-17
-1.0087078e-17
1.0457036e-17
-3.6103305e-29
-2.2475668e-17
3.495985e-17
2.416219e-17
0
-2.5948088e-17
-1.4927345e-29
1.393362e-17
-4.3312086e-17
-1.4958662e-17
1.5497997e-17
0
0
1.7227732e-17
3.5688178e-17
-4.1034432e-29
-3.8281112e-17
-1.9822156e-17
2.0526964e-17
-2.1255637e-17
2.2008913e-17
-4.1182328e-45
-3.9293448e-29
7.3272334e-17
0
0
-5.4178421e-17
-5.6074185e-17
-2.9016213e-17
3.3330804e-29
9.3215615e-17
-3.570091e-29
-6.6527841e-17
0
7.1201083e-17
3.6825736e-17
-7.6180667e-17
3.9395464e-17
4.0742289e-17
-1.2639597e-16
4.3565766e-17
-1.5001987e-28
-9.3140947e-17
1.4443176e-16
9.953295e-17
0
0
0
-1.7032325e-16
-1.1732536e-16
1.8182482e-16
1.2522527e-16
0
-1.3360713e-16
7.6592833e-29
7.1247394e-17
-1.4713594e-16
7.595636e-17
-7.8414149e-17
-8.0942918e-17
2.5063266e-16
-1.7243937e-16
-1.7794183e-16
9.1799455e-17
-9.4706996e-17
1.9539029e-16
3.0229608e-16
0
-3.2147709e-16
-2.2097085e-16
1.1390029e-16
1.1740536e-16
-1.3433058e-28
1.2469164e-16
-4.2795656e-28
-1.3235629e-16
-7.5695116e-29
7.9750831e-46
1.4458726e-16
0
1.5324593e-16
-3.1546055e-16
-4.8695827e-16
5.0104321e-16
5.1544827e-16
0
-3.6348583e-16
-3.7373884e-16
3.8421083e-16
-1.9745132e-16
-2.0290741e-16
6.2542168e-16
-4.2830156e-16
-4.3987591e-16
2.2583518e-16
4.6368404e-16
2.3795788e-16
-7.3254606e-16
-2.5051346e-16
-4.278821e-28
5.2698708e-16
1.5355639e-31
-8.3065956e-16
5.6746671e-16
8.7203235e-16
2.9771644e-16
-9.1454299e-16
-6.24136e-16
9.5812329e-16
-7.2560709e-28
-6.6846227e-16
-3.4177379e-16
1.9393636e-28
7.1413158e-16
-4.0499033e-28
3.7260314e-16
3.8044975e-16
-1.1650243e-15
-3.9627287e-16
-4.4876373e-28
8.2445116e-16
-1.399573e-27
-1.2847675e-15
8.7256373e-16
-4.9349911e-28
-5.0252773e-28
-1.0221646e-27
-4.6828003e-16
1.4286357e-15
-4.8409963e-16
-8.1904299e-28
-1.6642514e-27
-1.5222235e-15
5.1502816e-16
1.0451163e-15
-5.8836764e-28
5.3730914e-16
5.4451068e-16
-1.1031668e-15
-1.1170351e-15
6.2749229e-28
1.715794e-15
-6.4193841e-28
-5.8467538e-16
1.1815456e-15
-5.9667482e-16
-6.0237256e-16
3.3723423e-28
-3.4032841e-28
6.1815382e-16
-1.2458992e-15
6.2749997e-16
-2.1045344e-27
-2.1176258e-27
1.9188274e-15
-1.28622e-15
1.8369899e-31
1.2985473e-15
-6.5192705e-16
-1.9628658e-15
-6.5635423e-16
1.9743689e-15
-7.3224551e-28
-6.6075281e-16
1.3232258e-15
-1.3243314e-15
-3.3096313e-27
6.6230301e-16
-6.6192389e-16
6.612132e-16
-1.3204201e-15
6.5891228e-16
1.9719129e-15
0
0
-1.3014922e-15
-1.8417017e-31
1.2899189e-15
-6.4165387e-16
-1.9142586e-15
-6.3425939e-16
1.8905386e-15
1.7787921e-31
6.8973325e-28
1.2330115e-15
-1.8344842e-15
-3.0289049e-27
6.0084019e-16
-5.9521459e-16
-5.8940114e-16
6.4800468e-28
5.7724787e-16
-1.1418513e-15
1.1289048e-15
-1.8578499e-27
-1.1021751e-15
1.6326449e-15
1.0744539e-15
-5.3013342e-16
-1.5688301e-15
-5.1566465e-16
5.0830725e-16
0
-4.9338897e-16
4.8584531e-16
1.4347693e-15
2.6123504e-28
-9.2594507e-16
4.5529342e-16
4.476008e-16
-8.7980302e-16
4.3219704e-16
-4.2449776e-16
-8.3363406e-16
1.22746e-15
-1.3372089e-27
8.7469002e-28
7.726605e-16
-7.5759589e-16
-3.7131064e-16
-3.638747e-16
-3.9606552e-28
3.4917115e-16
-6.8382585e-16
6.6944323e-16
9.8280362e-16
0
-3.1358548e-16
1.7023963e-28
8.523365e-32
-8.7950181e-16
-2.8653248e-16
8.3996052e-16
-2.7353214e-16
-3.2486862e-44
7.8270627e-16
-2.5472938e-16
-7.4595933e-16
-2.4267421e-16
4.7358699e-16
-2.3101159e-16
2.2532899e-16
-7.3185452e-28
-4.2852602e-16
6.2663999e-16
2.2613935e-28
-8.8119112e-28
3.8666092e-16
-3.7669273e-16
-2.0366982e-28
1.786745e-16
-3.4797126e-16
-1.6939394e-16
0
0
3.1238837e-16
-3.3744892e-28
-8.4051601e-32
-1.5968299e-28
-1.3990322e-16
-1.3605726e-16
1.3230008e-16
1.286303e-16
-2.5009224e-16
2.4309263e-16
-1.3114289e-28
-2.2959652e-16
2.2309433e-16
3.6093621e-28
-1.1687508e-28
1.022593e-16
-1.986342e-16
9.64507e-17
-2.0794806e-28
-1.8186919e-16
0
1.7139147e-16
8.3179402e-17
-1.6145994e-16
-7.8345198e-17
7.6023264e-17
-1.2285297e-28
-7.1562949e-17
0
0
1.3062863e-16
1.2668862e-16
0
-1.1913198e-16
-5.7755184e-17
5.5994984e-17
-5.4284186e-17
5.2621607e-17
0
-9.8872952e-17
0
0
4.4991995e-17
-4.8397055e-29
-4.2238443e-17
0
3.9642686e-17
2.1315728e-29
-3.7196694e-17
0
6.9785507e-17
6.7583474e-17
-3.2723488e-17
-3.5173019e-29
3.0681783e-17
-5.9413252e-17
-5.7521665e-17
5.5687198e-17
7.6608278e-33
5.7938907e-29
7.1780467e-33
-4.8889686e-17
2.3658984e-17
-2.5419406e-29
2.2158905e-17
-2.1443346e-17
-6.2249721e-17
6.0233859e-17
1.9426864e-17
-1.8796038e-17
-2.0185406e-29
-1.7592846e-17
3.4038704e-17
3.2927732e-17
-3.1851723e-17
-5.1300704e-29
-1.4900243e-17
-1.4411635e-17
2.7877057e-17
-1.3480472e-17
1.4471201e-29
-7.0017922e-30
1.2192017e-17
2.3579432e-17
-2.2800822e-17
-2.2047331e-17
0
1.0305799e-17
1.1061614e-29
-1.9267358e-17
-1.0340332e-29
2.7015682e-17
1.7411184e-17
0
-1.6270408e-17
-1.746024e-29
-7.6034229e-18
-7.3496316e-18
2.1310853e-17
-3.8103793e-30
-1.3276265e-17
6.4176925e-18
1.2407005e-17
-5.9952567e-18
-1.1587846e-17
-5.6003918e-18
0
1.0468595e-17
-5.0588641e-18
-1.4663575e-17
4.7225161e-18
4.5642586e-18
8.8263135e-18
4.2676872e-18
-8.2522899e-18
-3.9881724e-18
-3.8546901e-18
4.136966e-30
3.603187e-18
3.4836107e-18
6.7338871e-18
3.2535038e-18
0
0
0
-5.6891264e-18
-5.5015097e-18
5.3200597e-18
2.8568729e-30
2.7648686e-30
-2.6742823e-30
-5.1721784e-30
4.5010947e-18
0
-4.2139732e-18
-2.0416318e-18
1.9771622e-18
-1.9123453e-18
-1.8485729e-18
0
0
3.3551811e-18
-5.4126196e-30
-3.4939539e-30
3.0470208e-18
-2.9510866e-18
-2.8597589e-18
0
2.687995e-18
-1.4466453e-30
-2.5292246e-18
2.4548024e-18
1.3229236e-30
-2.3120864e-18
0
2.1761087e-18
1.056278e-18
-2.052421e-18
9.9746185e-19
2.1531718e-30
-1.8843723e-18
1.8315155e-18
1.7813831e-18
0
0
0
-1.6030539e-18
-1.5608e-18
1.5204317e-18
0
-1.4479399e-18
0
-6.9138504e-19
1.3507299e-18
6.5952086e-19
-6.4421695e-19
1.2596046e-18
6.1642416e-19
-1.2080127e-18
-5.9233549e-19
-6.4527871e-31
5.7037605e-19
-1.2431233e-30
3.1251277e-34
1.0802972e-18
0
-5.225309e-19
-1.0288386e-18
-5.0660651e-19
0
0
0
-4.7866987e-19
9.4587006e-19
4.6763538e-19
-4.6260911e-19
-4.5773082e-19
4.5297546e-19
4.4841712e-19
-8.8834451e-19
0
8.7387482e-19
8.6791349e-19
0
0
-8.5369484e-19
-4.7168783e-31
-4.2307902e-19
-4.2142941e-19
4.1994965e-19
-4.1865313e-19
4.1754816e-19
8.3327313e-19
4.1591581e-19
0
-8.3006466e-19
-4.604444e-31
4.1487415e-19
-4.1505914e-19
-4.1541124e-19
-8.3181676e-19
8.3307238e-19
4.1729845e-19
-1.1885842e-34
4.1922404e-19
-8.4076044e-19
4.2166242e-19
-4.2306805e-19
3.6661494e-48
4.2623902e-19
-8.5599786e-19
8.5974312e-19
8.6370864e-19
0
-4.3614026e-19
-8.7687766e-19
2.4469841e-31
4.4333439e-19
4.459265e-19
-8.9722272e-19
-9.027735e-19
4.5425054e-19
9.1440092e-19
9.2046897e-19
-4.6335047e-19
-9.330922e-19
4.6981939e-19
-4.7316825e-19
7.9349631e-31
4.8008413e-19
-9.6729432e-19
9.7455483e-19
5.4491533e-31
-2.7462829e-30
9.9710745e-19
-1.0048696e-18
-2.2486091e-30
5.1036989e-19
-1.0288409e-18
5.1852431e-19
-1.4855455e-34
2.3396927e-30
5.3114063e-19
-1.0708864e-18
1.1985022e-30
-3.0198735e-31
5.486248e-19
-1.5720236e-34
-1.115262e-18
1.1243946e-18
3.2219103e-34
-2.5375929e-30
1.1522777e-18
-1.161731e-18
-1.3002784e-30
1.1808678e-18
-5.9527467e-19
-6.0015297e-19
-6.0506836e-19
6.1002013e-19
-6.8275213e-31
-1.2400625e-18
0
0
1.2706327e-18
1.8203636e-34
-1.2913747e-18
6.5092863e-19
-7.2830377e-31
6.6152485e-19
1.4806769e-30
-1.3445483e-18
0
-6.8317544e-19
1.3773624e-18
6.9422182e-19
-1.5539572e-30
7.0539946e-19
-1.4220635e-18
7.1668949e-19
-8.0173483e-31
-1.4561383e-18
0
0
7.4522861e-19
-4.1682567e-31
7.5664036e-19
-7.623669e-19
-2.3041322e-18
2.3204643e-18
7.7860532e-19
-1.5670923e-18
7.885045e-19
1.3213266e-30
7.9874597e-19
-4.5711121e-34
-2.6970959e-30
8.1550903e-19
-1.6427664e-18
-8.2735968e-19
0
-8.395449e-19
8.4570302e-19
8.5190559e-19
8.5816303e-19
-1.9193854e-30
9.6651514e-31
-9.7371718e-31
-1.767712e-18
8.9016724e-19
1.4922399e-30
-1.8044812e-18
1.2911053e-34
9.1498683e-19
1.843162e-18
1.8565682e-18
-1.8699074e-18
-1.0457968e-30
-9.4813733e-19
-9.5483393e-19
1.9233219e-18
-1.9371823e-18
-9.7560353e-19