/*--------------------------------*- C++ -*----------------------------------*\
| =========                 |                                                 |
| \\      /  F ield         | OpenFOAM: The Open Source CFD Toolbox           |
|  \\    /   O peration     | Version:  4.x                                   |
|   \\  /    A nd           | Web:      www.OpenFOAM.org                      |
|    \\/     M anipulation  |                                                 |
\*---------------------------------------------------------------------------*/
FoamFile
{
    version     2.0;
    format      ascii;
    class       surfaceScalarField;
    location    "0.2";
    object      phi;
}
// * * * * * * * * * * * * * * * * * * * * * * * * * * * * * * * * * * * * * //

dimensions      [1 0 -1 0 0 0 0];

internalField   nonuniform List<scalar> 
17861
(
2.291803033e-08
2.291802546e-08
1.277750677e-07
1.814729091e-08
2.76510047e-08
1.50730851e-07
1.167930438e-08
2.806556466e-08
1.520135408e-07
7.682451822e-09
2.815232701e-08
1.494556403e-07
5.178086931e-09
2.810412186e-08
1.480113496e-07
2.809118855e-08
1.470667766e-07
3.6312138e-09
2.765100752e-08
1.814728332e-08
1.507308525e-07
2.246915301e-08
2.246915264e-08
1.839748247e-07
1.425748271e-08
2.276191306e-08
1.87126432e-07
9.173651247e-09
2.269937726e-08
1.841478843e-07
6.097417281e-09
2.258706689e-08
1.822043726e-07
2.25508979e-08
1.809801099e-07
4.268677005e-09
2.806556559e-08
1.167928998e-08
1.520135435e-07
2.276191112e-08
1.42574788e-08
1.871264308e-07
1.432074938e-08
1.432074402e-08
1.904934277e-07
9.174221147e-09
1.416870824e-08
1.872882973e-07
6.0612245e-09
1.404872319e-08
1.852624241e-07
1.399329133e-08
1.84018461e-07
4.211441286e-09
2.815232474e-08
7.682429137e-09
1.494556494e-07
2.269937714e-08
9.173640675e-09
1.841478947e-07
1.41687152e-08
9.174206441e-09
1.872883067e-07
9.006198135e-09
9.006185197e-09
1.839361488e-07
5.913443427e-09
8.90635509e-09
1.818462157e-07
8.841507067e-09
1.805842795e-07
4.092031079e-09
2.81041196e-08
5.178055877e-09
1.480113615e-07
2.258707178e-08
6.097400043e-09
1.822043941e-07
1.40487357e-08
6.061205166e-09
1.852624452e-07
8.906370646e-09
5.91343123e-09
1.818462305e-07
5.844551759e-09
5.844537904e-09
1.797347317e-07
5.792136881e-09
1.784530361e-07
4.051970861e-09
2.809119007e-08
1.470667904e-07
3.631174625e-09
2.255090985e-08
1.809801374e-07
4.268653078e-09
1.399331242e-08
1.840184892e-07
4.211416597e-09
8.841524767e-09
1.805843053e-07
4.092015615e-09
5.792150652e-09
1.784530457e-07
4.051955128e-09
1.771599281e-07
4.017714787e-09
4.017727595e-09
1.825284217e-08
1.825283302e-08
9.126939682e-08
1.902283353e-08
2.499783841e-08
1.249630236e-07
1.526742131e-08
2.598136341e-08
1.297875723e-07
1.178206039e-08
2.611578018e-08
1.268251858e-07
9.125554242e-09
2.612774871e-08
1.245400499e-07
2.619648389e-08
1.228721145e-07
7.12364458e-09
2.4997863e-08
1.902280499e-08
1.249630255e-07
2.68200651e-08
2.681999322e-08
1.803304623e-07
2.196015934e-08
2.815719906e-08
1.898104707e-07
1.709609459e-08
2.827242177e-08
1.868552498e-07
1.327273787e-08
2.831422621e-08
1.838411507e-07
2.837968106e-08
1.816766798e-07
1.039285066e-08
2.598137909e-08
1.526737637e-08
1.297875828e-07
2.815723458e-08
2.196006076e-08
1.89810493e-07
2.306626678e-08
2.306624237e-08
2.006753084e-07
1.765506653e-08
2.32131756e-08
1.977586748e-07
1.349715003e-08
2.329624751e-08
1.944382035e-07
2.33574328e-08
1.920974092e-07
1.044031812e-08
2.611579088e-08
1.178200101e-08
1.268252107e-07
2.827243689e-08
1.709598557e-08
1.868552992e-07
2.321317467e-08
1.765505133e-08
1.977587231e-07
1.779832009e-08
1.77983409e-08
1.947657572e-07
1.360895498e-08
1.788723129e-08
1.914444684e-07
1.792853507e-08
1.891049006e-07
1.05170965e-08
2.612776217e-08
9.125496805e-09
1.245400996e-07
2.831423609e-08
1.327263337e-08
1.838412495e-07
2.329624064e-08
1.349714957e-08
1.944383075e-07
1.788720047e-08
1.360899827e-08
1.914445309e-07
1.36943256e-08
1.369438445e-08
1.881203396e-07
1.372963074e-08
1.857563295e-07
1.058982055e-08
2.619650475e-08
1.228721769e-07
7.12358277e-09
2.837970417e-08
1.816768023e-07
1.039274136e-08
2.335743739e-08
1.920975371e-07
1.044031319e-08
1.792850737e-08
1.891049997e-07
1.05171357e-08
1.372956571e-08
1.857563776e-07
1.058987585e-08
1.833812469e-07
1.061891908e-08
1.061884847e-08
1.357923314e-08
1.35791992e-08
6.411094345e-08
1.627397631e-08
2.048956347e-08
1.017786938e-07
1.46925883e-08
2.120540169e-08
1.101635105e-07
1.240153349e-08
2.112942645e-08
1.079867188e-07
1.024986131e-08
2.106334137e-08
1.056282618e-07
2.108021284e-08
1.036721016e-07
8.369514655e-09
2.048961056e-08
1.627389682e-08
1.017786982e-07
2.533925803e-08
2.533913761e-08
1.706311825e-07
2.290701336e-08
2.676316512e-08
1.86684852e-07
1.916258149e-08
2.693331595e-08
1.847956133e-07
1.5501631e-08
2.697318613e-08
1.815920144e-07
2.69142902e-08
1.788980316e-07
1.244593518e-08
2.120545305e-08
1.469247284e-08
1.10163532e-07
2.676329956e-08
2.290683629e-08
1.866848959e-07
2.466690886e-08
2.466671002e-08
2.048680257e-07
2.102532491e-08
2.496727846e-08
2.033660953e-07
1.72360142e-08
2.502619611e-08
2.00174242e-07
2.493229032e-08
1.973611351e-07
1.395400258e-08
2.112947678e-08
1.240140275e-08
1.079867626e-07
2.693341958e-08
1.916239906e-08
1.847957232e-07
2.496742303e-08
2.102513681e-08
2.033661658e-07
2.130912406e-08
2.130897319e-08
2.020821477e-07
1.754198293e-08
2.134128534e-08
1.988962688e-07
2.128458659e-08
1.960297881e-07
1.426454896e-08
2.106340144e-08
1.024972576e-08
1.05628334e-07
2.697330201e-08
1.550145983e-08
1.815921899e-07
2.502634851e-08
1.723584302e-08
2.001743944e-07
2.134143684e-08
1.754183075e-08
1.988963524e-07
1.758874342e-08
1.758859146e-08
1.956254837e-07
1.75640418e-08
1.927388981e-07
1.432648828e-08
2.108027886e-08
1.03672177e-07
8.369361532e-09
2.691441693e-08
1.788982201e-07
1.244575495e-08
2.493244986e-08
1.973613145e-07
1.395381312e-08
2.128473309e-08
1.960299108e-07
1.426437147e-08
1.756416968e-08
1.927389642e-07
1.432631292e-08
1.89849636e-07
1.432972872e-08
1.432986769e-08
7.41246439e-09
7.412424142e-09
4.928603897e-08
1.044625773e-08
1.286900589e-08
8.5875867e-08
1.106023328e-08
1.380141178e-08
9.574806983e-08
1.031802606e-08
1.354535935e-08
9.518347282e-08
9.223974182e-09
1.313427118e-08
9.358794248e-08
1.293458378e-08
9.199872909e-08
7.962663071e-09
1.286910135e-08
1.044614203e-08
8.587585446e-08
1.870346181e-08
1.870321161e-08
1.589625448e-07
1.934572833e-08
2.04787327e-08
1.793651395e-07
1.773078004e-08
2.019593951e-08
1.797597999e-07
1.546710034e-08
1.964399329e-08
1.773457778e-07
1.93510058e-08
1.748346842e-07
1.311384738e-08
1.380153847e-08
1.106004322e-08
9.574805099e-08
2.047904266e-08
1.934535217e-08
1.793651577e-07
2.14006462e-08
2.140019225e-08
2.030247912e-07
1.975952893e-08
2.127284549e-08
2.039301099e-07
1.730068701e-08
2.084172936e-08
2.014351542e-07
2.059743654e-08
1.987291693e-07
1.468604796e-08
1.354550987e-08
1.03177938e-08
9.518345447e-08
2.019629239e-08
1.77303256e-08
1.797598519e-07
2.127335346e-08
1.97589783e-08
2.039301527e-07
1.985091894e-08
1.985032272e-08
2.049269119e-07
1.753509963e-08
1.963007281e-08
2.024235703e-07
1.946808915e-08
1.997227693e-07
1.497131964e-08
1.313444077e-08
9.22370995e-09
9.358792265e-08
1.964437324e-08
1.546658875e-08
1.773458582e-07
2.084226518e-08
1.730005211e-08
2.014352351e-07
1.96307117e-08
1.753442367e-08
2.024235985e-07
1.746174715e-08
1.746101845e-08
1.99963329e-07
1.738482962e-08
1.972973276e-07
1.49864268e-08
1.293475456e-08
9.199869095e-08
7.962371039e-09
1.935138555e-08
1.748347305e-07
1.311329581e-08
2.059796482e-08
1.98729213e-07
1.468536371e-08
1.946871717e-08
1.997227758e-07
1.497059544e-08
1.73855398e-08
1.972973402e-07
1.498564632e-08
1.946735176e-07
1.497279258e-08
1.497356002e-08
4.166610874e-09
4.166609376e-09
4.095279822e-08
6.420595712e-09
7.379125071e-09
7.624272035e-08
7.575609566e-09
7.893793674e-09
8.669919998e-08
7.761036776e-09
7.613345923e-09
8.738461688e-08
7.501188238e-09
7.305816807e-09
8.654190552e-08
7.161029309e-09
8.547406654e-08
6.864764865e-09
7.379182751e-09
6.420554788e-09
7.624269774e-08
1.209226287e-08
1.209206542e-08
1.495364328e-07
1.41120681e-08
1.335525334e-08
1.718837494e-07
1.423694308e-08
1.308354014e-08
1.741645939e-07
1.342468064e-08
1.267772209e-08
1.72786029e-07
1.245906425e-08
1.709109684e-07
1.205028115e-08
7.893892217e-09
7.57552187e-09
8.669915176e-08
1.33555393e-08
1.411174152e-08
1.718837351e-07
1.580490202e-08
1.580444951e-08
1.9812609e-07
1.603624415e-08
1.575583444e-08
2.01026354e-07
1.513319827e-08
1.544655313e-08
1.995692879e-07
1.5260865e-08
1.975006215e-07
1.355989276e-08
7.613469108e-09
7.760913002e-09
8.738454113e-08
1.308386641e-08
1.423652661e-08
1.741645551e-07
1.575633307e-08
1.603567248e-08
2.010263326e-07
1.617484213e-08
1.617422817e-08
2.040898872e-07
1.537738309e-08
1.600241046e-08
2.026650881e-07
1.588891493e-08
2.006229143e-07
1.384914143e-08
7.305952363e-09
7.501042227e-09
8.654179086e-08
1.267806629e-08
1.342421893e-08
1.727859412e-07
1.544707329e-08
1.513255249e-08
1.995692229e-07
1.600305165e-08
1.537668902e-08
2.026650336e-07
1.532819643e-08
1.532747379e-08
2.013130305e-07
1.529346083e-08
1.993396687e-07
1.38812434e-08
7.161166741e-09
8.547391308e-08
6.864605125e-09
1.245940627e-08
1.709108062e-07
1.204980585e-08
1.526136601e-08
1.975004724e-07
1.355922838e-08
1.588951227e-08
2.00622775e-07
1.384843895e-08
1.529411065e-08
1.993396098e-07
1.388052699e-08
1.974385749e-07
1.391091507e-08
1.391154975e-08
2.331094223e-09
2.331124164e-09
3.629055616e-08
4.019449309e-09
4.170530712e-09
7.038378672e-08
5.298032238e-09
4.448094704e-09
8.097245285e-08
5.915098132e-09
4.279514917e-09
8.248796526e-08
6.125868254e-09
4.098407036e-09
8.223268184e-08
4.029606724e-09
8.166041511e-08
5.909892775e-09
4.170506717e-09
4.019494117e-09
7.038376975e-08
7.709292413e-09
7.709299306e-09
1.424587559e-07
1.010364547e-08
8.568947069e-09
1.653684141e-07
1.110628161e-08
8.445037404e-09
1.689963163e-07
1.121401824e-08
8.22249171e-09
1.685541394e-07
8.122886396e-09
1.674289393e-07
1.060275799e-08
4.448094156e-09
5.298088287e-09
8.097241469e-08
8.568993501e-09
1.010361927e-08
1.653684003e-07
1.142253241e-08
1.142242166e-08
1.924189447e-07
1.261207362e-08
1.147090053e-08
1.968108457e-07
1.271924367e-08
1.132679222e-08
1.963577668e-07
1.125953037e-08
1.950949076e-07
1.198830655e-08
4.279528613e-09
5.915152217e-09
8.248788957e-08
8.445107362e-09
1.110623011e-08
1.689962498e-07
1.147103648e-08
1.261191255e-08
1.968107969e-07
1.280733931e-08
1.280715757e-08
2.014172152e-07
1.300049036e-08
1.276039532e-08
2.010382614e-07
1.275064881e-08
1.998279707e-07
1.230428554e-08
4.098431542e-09
6.125916766e-09
8.223254488e-08
8.222574091e-09
1.121396728e-08
1.68553964e-07
1.132693496e-08
1.271906529e-08
1.963576076e-07
1.276058366e-08
1.300029504e-08
2.010381444e-07
1.303865155e-08
1.303845389e-08
2.007568237e-07
1.309688274e-08
1.996354167e-07
1.239662545e-08
4.029630571e-09
8.166022726e-08
5.909931092e-09
8.122972874e-09
1.674286613e-07
1.060270547e-08
1.12596567e-08
1.950946478e-07
1.198814659e-08
1.275078407e-08
1.998277467e-07
1.230413302e-08
1.309698448e-08
1.996353224e-07
1.239648977e-08
1.985660404e-07
1.253315725e-08
1.253322137e-08
1.442125288e-09
1.44214246e-09
3.34062545e-08
2.816692333e-09
2.535392963e-09
6.647376552e-08
4.067106096e-09
2.706836275e-09
7.701513873e-08
4.872373859e-09
2.635701125e-09
7.904692735e-08
5.324595119e-09
2.556653294e-09
7.922376597e-08
2.557029714e-09
7.90697118e-08
5.358242697e-09
2.53534626e-09
2.816749609e-09
6.647376367e-08
5.30334535e-09
5.303461702e-09
1.369225811e-07
7.655335732e-09
5.92165353e-09
1.598014962e-07
9.047175524e-09
5.927990608e-09
1.643120965e-07
9.665853421e-09
5.873400537e-09
1.646186787e-07
5.902992e-09
1.641967394e-07
9.552127776e-09
2.706774581e-09
4.067200174e-09
7.70151264e-08
5.921524966e-09
7.655504452e-09
1.59801496e-07
8.691764469e-09
8.691930254e-09
1.86878307e-07
1.030611363e-08
8.848463319e-09
1.922759356e-07
1.098870831e-08
8.878202457e-09
1.926703282e-07
8.964255933e-09
1.921980465e-07
1.082432213e-08
2.635648342e-09
4.87249344e-09
7.904688257e-08
5.927872978e-09
9.047378061e-09
1.643120449e-07
8.848306652e-09
1.030628957e-08
1.922758908e-07
1.058783312e-08
1.058800688e-08
1.979380409e-07
1.13508308e-08
1.07104132e-08
1.984429888e-07
1.086374499e-08
1.980535658e-07
1.122572188e-08
2.556602238e-09
5.324707651e-09
7.922366548e-08
5.873284655e-09
9.666064789e-09
1.646185062e-07
8.878049058e-09
1.098888323e-08
1.926701589e-07
1.071024543e-08
1.135100336e-08
1.984428559e-07
1.155518332e-08
1.155533782e-08
1.990669028e-07
1.176726318e-08
1.987884279e-07
1.14986224e-08
2.556967205e-09
7.906958521e-08
5.358337024e-09
5.90286405e-09
1.641964832e-07
9.552316124e-09
8.964081026e-09
1.921977795e-07
1.082450731e-08
1.086353457e-08
1.980533273e-07
1.122592836e-08
1.176706168e-08
1.98788328e-07
1.149877675e-08
1.98601392e-07
1.174959112e-08
1.174937195e-08
1.057578224e-09
1.057574077e-09
3.129107096e-08
2.32859261e-09
1.812926037e-09
6.338978257e-08
3.573733226e-09
1.957485707e-09
7.381245579e-08
4.491140457e-09
1.968024581e-09
7.616143139e-08
5.077951339e-09
1.980438263e-09
7.665647904e-08
2.043171615e-09
7.684335137e-08
1.812898933e-09
2.328611334e-09
6.338978131e-08
4.227990297e-09
4.228094111e-09
1.3209221e-07
6.494585836e-09
4.742372727e-09
1.547499123e-07
8.078488109e-09
4.860326443e-09
1.598358205e-07
8.983820684e-09
4.951275514e-09
1.607424937e-07
5.108867607e-09
1.609325228e-07
1.957434482e-09
3.573792252e-09
7.381245014e-08
4.742229663e-09
6.49477377e-09
1.547499103e-07
7.37785755e-09
7.378074894e-09
1.816068767e-07
9.194571515e-09
7.64435872e-09
1.876751168e-07
1.020496981e-08
7.84398076e-09
1.887671965e-07
8.104741887e-09
1.890023612e-07
1.96796831e-09
4.491228507e-09
7.616140707e-08
4.860172229e-09
8.078719047e-09
1.598357794e-07
7.64413844e-09
9.194819074e-09
1.876750855e-07
9.584467995e-09
9.58472193e-09
1.940572595e-07
1.068174321e-08
9.88949762e-09
1.95300141e-07
1.02526208e-08
1.956592631e-07
1.980373447e-09
5.078018902e-09
7.665642938e-08
4.951105762e-09
8.984026468e-09
1.607423724e-07
7.843755544e-09
1.020519438e-08
1.887670722e-07
9.889250257e-09
1.068197212e-08
1.953000444e-07
1.107593187e-08
1.107612733e-08
1.966935429e-07
1.152359522e-08
1.972102225e-07
2.043080761e-09
7.684331039e-08
5.261172233e-09
5.108680698e-09
1.609323908e-07
9.182487588e-09
8.104496375e-09
1.890021793e-07
1.040497362e-08
1.025234228e-08
1.956590989e-07
1.092833872e-08
1.15233744e-08
1.972101686e-07
1.138323775e-08
1.979725745e-07
1.183797182e-08
1.183779695e-08
9.323835704e-10
9.323604085e-10
2.942630141e-08
2.250431783e-09
1.573916118e-09
6.049777183e-08
3.566345821e-09
1.735181595e-09
7.076129559e-08
4.607078621e-09
1.807262349e-09
7.331338938e-08
5.30777559e-09
1.890011094e-09
7.406574526e-08
2.009632597e-09
7.454197725e-08
1.573903225e-09
2.250413537e-09
6.049777985e-08
3.94794251e-09
3.948001254e-09
1.273439858e-07
6.259216115e-09
4.454117139e-09
1.497196309e-07
8.02140296e-09
4.677320999e-09
1.552035208e-07
9.141827666e-09
4.90065001e-09
1.566114e-07
5.182159526e-09
1.573462041e-07
1.73515307e-09
3.566351603e-09
7.07612949e-08
4.454024843e-09
6.259323838e-09
1.497196212e-07
7.108113495e-09
7.108253433e-09
1.762985775e-07
9.110402113e-09
7.494619141e-09
1.828554802e-07
1.036443061e-08
7.859662319e-09
1.845541382e-07
8.289443048e-09
1.8544701e-07
1.807213609e-09
4.607093242e-09
7.331338025e-08
4.677205697e-09
8.021522921e-09
1.552034856e-07
7.494469039e-09
9.110552643e-09
1.828554542e-07
9.629235539e-09
9.629397274e-09
1.897876635e-07
1.097252827e-08
1.011584099e-08
1.917006385e-07
1.066574028e-08
1.927957856e-07
1.889956375e-09
5.307759523e-09
7.406573758e-08
4.900528664e-09
9.141917467e-09
1.566113327e-07
7.859512625e-09
1.036454805e-08
1.84554052e-07
1.011568942e-08
1.097265434e-08
1.917005739e-07
1.154509015e-08
1.154517718e-08
1.938347709e-07
1.218203689e-08
1.951803349e-07
2.009585245e-09
7.454202261e-08
5.599423343e-09
5.182046464e-09
1.573461856e-07
9.55564667e-09
8.289280327e-09
1.854469152e-07
1.081259434e-08
1.066556269e-08
1.927957139e-07
1.145977376e-08
1.218193227e-08
1.951803569e-07
1.205861645e-08
1.968473945e-07
1.274456434e-08
1.274450149e-08
9.457240315e-10
9.456878204e-10
2.753487203e-08
2.420541256e-09
1.5895524e-09
5.74333447e-08
3.901777571e-09
1.78436607e-09
6.749564396e-08
5.115514707e-09
1.915925704e-09
7.01836876e-08
5.959119415e-09
2.07076013e-09
7.1151324e-08
2.262442384e-09
7.188387715e-08
1.589569766e-09
2.420498361e-09
5.743334505e-08
4.167723137e-09
4.167719047e-09
1.221875911e-07
6.700723712e-09
4.735771289e-09
1.442351664e-07
8.723198424e-09
5.080662069e-09
1.500162472e-07
1.008410602e-08
5.457639124e-09
1.518635688e-07
5.904305147e-09
1.531025921e-07
1.784359004e-09
3.901738989e-09
6.74956386e-08
4.735738749e-09
6.700729644e-09
1.442351557e-07
7.627696943e-09
7.627737839e-09
1.705145933e-07
9.919650726e-09
8.180296834e-09
1.774638568e-07
1.145087259e-08
8.764463515e-09
1.797160909e-07
9.441767189e-09
1.812402112e-07
1.915900654e-09
5.115477645e-09
7.018367562e-08
5.080614966e-09
8.723209171e-09
1.500162126e-07
8.180247002e-09
9.919687058e-09
1.774638329e-07
1.064135052e-08
1.064139669e-08
1.848654446e-07
1.229204014e-08
1.139859191e-08
1.874158146e-07
1.226890924e-08
1.892407262e-07
2.070747336e-09
5.959088173e-09
7.115132402e-08
5.4576024e-09
1.008411441e-08
1.518635206e-07
8.764418481e-09
1.145088159e-08
1.797160277e-07
1.139855762e-08
1.229205269e-08
1.874157772e-07
1.31770234e-08
1.317698283e-08
1.902779012e-07
1.419303283e-08
1.924616412e-07
2.262445584e-09
7.188393103e-08
6.354709164e-09
5.904279239e-09
1.531026076e-07
1.068585788e-08
9.441713613e-09
1.812401635e-07
1.212022607e-08
1.226885221e-08
1.892407204e-07
1.301992935e-08
1.419307556e-08
1.924617276e-07
1.397139427e-08
1.950499657e-07
1.509169945e-08
1.509176856e-08
1.040372555e-09
1.04033854e-09
2.545412037e-08
2.758375512e-09
1.749886895e-09
5.396542029e-08
4.499914972e-09
1.994291983e-09
6.375978284e-08
5.957824738e-09
2.189190403e-09
6.653653553e-08
6.993854158e-09
2.425632079e-09
6.768959433e-08
2.709708066e-09
6.865474709e-08
1.749909586e-09
2.75832425e-09
5.396542082e-08
4.723801785e-09
4.72377547e-09
1.162397819e-07
7.672445204e-09
5.41226076e-09
1.378684925e-07
1.008670993e-08
5.906488046e-09
1.438846152e-07
1.176552871e-08
6.474534812e-09
1.461358045e-07
7.142535918e-09
1.478573644e-07
1.99427526e-09
4.49986511e-09
6.375979872e-08
5.412235138e-09
7.672419572e-09
1.378685083e-07
8.783231764e-09
8.783244408e-09
1.637725682e-07
1.152680221e-08
9.562017486e-09
1.710647322e-07
1.342935667e-08
1.043751809e-08
1.738505581e-07
1.145731641e-08
1.760054279e-07
2.189175317e-09
5.957787859e-09
6.653654181e-08
5.906463474e-09
1.008669536e-08
1.438846124e-07
9.562007326e-09
1.152680131e-08
1.710647213e-07
1.2541481e-08
1.25414783e-08
1.789065208e-07
1.461920483e-08
1.367673834e-08
1.82098882e-07
1.499655591e-08
1.846812564e-07
2.425638749e-09
6.99384436e-09
6.76896032e-08
6.474526624e-09
1.17655307e-08
1.461357898e-07
1.043751394e-08
1.342933467e-08
1.738505297e-07
1.367675801e-08
1.46191731e-08
1.820988684e-07
1.595455483e-08
1.595445949e-08
1.857223975e-07
1.751147013e-08
1.887999449e-07
2.709722715e-09
6.865477603e-08
7.513268564e-09
7.14253865e-09
1.478573873e-07
1.257796611e-08
1.145729845e-08
1.760054137e-07
1.434937547e-08
1.499654025e-08
1.846812772e-07
1.563941544e-08
1.751155779e-08
1.888000275e-07
1.710116828e-08
1.924385176e-07
1.881721043e-08
1.88172398e-08
1.178544468e-09
1.178513831e-09
2.309704569e-08
3.218099517e-09
1.999443874e-09
4.992643167e-08
5.314253613e-09
2.309557066e-09
5.935403296e-08
7.099919903e-09
2.57994479e-09
6.217084938e-08
8.39353444e-09
2.919466208e-09
6.347644867e-08
3.329162132e-09
6.464543064e-08
1.999465659e-09
3.218038461e-09
4.992644403e-08
5.542623996e-09
5.54257996e-09
1.091534669e-07
9.104711517e-09
6.414585763e-09
1.302012977e-07
1.207405245e-08
7.106119716e-09
1.363890199e-07
1.418862729e-08
7.930736421e-09
1.390099184e-07
8.909748201e-09
1.411921098e-07
2.309549637e-09
5.314202075e-09
5.935407065e-08
6.41458422e-09
9.104683105e-09
1.302013558e-07
1.051437514e-08
1.051437509e-08
1.55572961e-07
1.391668097e-08
1.161084871e-08
1.63157678e-07
1.634089096e-08
1.289620469e-08
1.664608824e-07
1.441408504e-08
1.692498694e-07
2.57995326e-09
7.09989732e-09
6.217087967e-08
7.106127261e-09
1.207406294e-08
1.363890769e-07
1.16108617e-08
1.391669877e-08
1.631576936e-07
1.535955883e-08
1.535956876e-08
1.714091408e-07
1.80533376e-08
1.704908198e-08
1.752522687e-07
1.904484888e-08
1.786313873e-07
2.919490439e-09
8.393538072e-09
6.347647517e-08
7.930752929e-09
1.418867115e-08
1.390099652e-07
1.289622005e-08
1.634091928e-08
1.664609014e-07
1.704907806e-08
1.80533591e-08
1.752522727e-07
2.007210244e-08
2.007209569e-08
1.79676423e-07
2.246566229e-08
1.837379019e-07
3.329194279e-09
6.464544988e-08
9.073676191e-09
8.909780727e-09
1.411921308e-07
1.527338258e-08
1.441411112e-08
1.692498486e-07
1.75921977e-08
1.904486043e-08
1.786313673e-07
1.947256648e-08
2.246573344e-08
1.83737876e-07
2.171344411e-08
1.886205915e-07
2.437467351e-08
2.43747191e-08
1.334737054e-09
1.334705415e-09
2.042761385e-08
3.759793875e-09
2.296032423e-09
4.520531676e-08
6.299304553e-09
2.682129934e-09
5.413231009e-08
8.499310576e-09
3.037707059e-09
5.693304196e-08
1.01221426e-08
3.498842449e-09
5.835471159e-08
4.062789905e-09
5.969569219e-08
2.296078115e-09
3.759729927e-09
4.520532159e-08
6.562381525e-09
6.562307675e-09
1.006208026e-07
1.093202668e-08
7.673884395e-09
1.208398031e-07
1.463337849e-08
8.608205904e-09
1.271170896e-07
1.73220155e-08
9.750699857e-09
1.30069377e-07
1.112360197e-08
1.326890529e-07
2.68216305e-09
6.299250947e-09
5.413234895e-08
7.673932992e-09
1.093197684e-08
1.208398919e-07
1.275181881e-08
1.275178063e-08
1.454171545e-07
1.703756684e-08
1.425479577e-08
1.532253159e-07
2.01583046e-08
1.605789914e-08
1.570329393e-07
1.821223323e-08
1.604704972e-07
3.037759185e-09
8.499280214e-09
5.693308466e-08
8.608265872e-09
1.463336708e-08
1.271171996e-07
1.425485326e-08
1.703755112e-08
1.532253581e-07
1.903806821e-08
1.903803293e-08
1.618427035e-07
2.255681815e-08
2.142921499e-08
1.663622122e-07
2.428753742e-08
1.706071186e-07
3.498893405e-09
1.012212946e-08
5.835473851e-08
9.75075223e-09
1.732203059e-08
1.300694676e-07
1.60579484e-08
2.015828609e-08
1.570329932e-07
2.142925614e-08
2.255677377e-08
1.66362237e-07
2.543022022e-08
2.543013124e-08
1.716745756e-07
2.888490824e-08
1.768800242e-07
4.062838018e-09
5.969567712e-08
1.100905686e-08
1.11236485e-08
1.326890583e-07
1.876429205e-08
1.821226105e-08
1.604704702e-07
2.184905079e-08
2.428752204e-08
1.706070861e-07
2.450580896e-08
2.888492679e-08
1.768799262e-07
2.769073029e-08
1.833207135e-07
3.15349385e-08
3.153486601e-08
1.489199828e-09
1.489175566e-09
1.744921782e-08
4.350735691e-09
2.608370732e-09
3.973531195e-08
7.417947662e-09
3.080159352e-09
4.798484283e-08
1.012355866e-08
3.535439928e-09
5.069191657e-08
1.215679021e-08
4.148690411e-09
5.217274667e-08
4.914183383e-09
5.362972808e-08
2.608410189e-09
4.350687256e-09
3.973532049e-08
7.737839166e-09
7.737788477e-09
9.036185853e-08
1.311718484e-08
9.15302943e-09
1.093875177e-07
1.775354622e-08
1.039632462e-08
1.156197779e-07
2.118977402e-08
1.195740395e-08
1.188243577e-07
1.38660965e-08
1.218155372e-07
3.080183393e-09
7.417909835e-09
4.798489798e-08
9.153054323e-09
1.311715996e-08
1.093876305e-07
1.548430497e-08
1.548429433e-08
1.327546165e-07
2.092967455e-08
1.753015979e-08
1.406460783e-07
2.498718918e-08
2.004429633e-08
1.44888481e-07
2.309958721e-08
1.489312457e-07
3.535477879e-09
1.012352662e-08
5.069197801e-08
1.03963647e-08
1.775353993e-08
1.156199335e-07
1.753020184e-08
2.092967139e-08
1.406461466e-07
2.37009868e-08
2.3700963e-08
1.495011023e-07
2.836177108e-08
2.709797551e-08
1.546477157e-07
3.12219584e-08
1.59763594e-07
4.148717832e-09
1.215676815e-08
5.217276917e-08
1.195743507e-08
2.118979754e-08
1.188244801e-07
2.004434385e-08
2.498719169e-08
1.44888557e-07
2.70980001e-08
2.836175101e-08
1.546477811e-07
3.252993446e-08
3.252988727e-08
1.608107292e-07
3.76217224e-08
1.67195378e-07
4.914216252e-09
1.330851937e-08
5.362967231e-08
1.386614463e-08
2.311135043e-08
1.218155192e-07
2.309965671e-08
2.729292358e-08
1.489311779e-07
3.122200004e-08
3.108294071e-08
1.597635553e-07
3.762184825e-08
3.581489241e-08
1.671951044e-07
4.161673589e-08
1.753307919e-07
2.80708858e-08
2.605919961e-09
1.465654827e-07
2.253491033e-08
3.073966809e-09
1.803417714e-07
1.396679248e-08
3.005342105e-09
1.83385307e-07
8.806132427e-09
2.912342749e-09
1.799514438e-07
5.76339736e-09
2.893352372e-09
1.77812435e-07
2.875839332e-09
1.765158415e-07
4.000519156e-09
2.806685945e-08
1.875304888e-09
1.462748748e-07
2.253836572e-08
2.228240965e-09
1.799853363e-07
1.396018199e-08
2.158237228e-09
1.830364046e-07
8.787892724e-09
2.088746714e-09
1.796069922e-07
5.746844739e-09
2.0826562e-09
1.774628369e-07
2.077027219e-09
1.761658849e-07
3.990858331e-09
2.806485838e-08
1.308669516e-09
1.461128771e-07
2.25472171e-08
1.565382852e-09
1.797916166e-07
1.39621903e-08
1.504580912e-09
1.828497915e-07
8.780990191e-09
1.45549259e-09
1.794255552e-07
5.740385238e-09
1.455893405e-09
1.772784579e-07
1.456811896e-09
1.759828738e-07
3.988820361e-09
2.806577967e-08
8.33374446e-10
1.460206253e-07
2.255613013e-08
1.002213222e-09
1.796839439e-07
1.39666256e-08
9.578370046e-10
1.827473538e-07
8.779237996e-09
9.266097975e-10
1.793273757e-07
5.738829597e-09
9.290769838e-10
1.771783222e-07
9.322039093e-10
1.758841002e-07
3.990444958e-09
2.806699515e-08
4.062576175e-10
1.459712445e-07
2.256279475e-08
4.901834306e-10
1.796273477e-07
1.397079587e-08
4.668569594e-10
1.826940844e-07
8.779742479e-09
4.516880548e-10
1.79277085e-07
5.739520594e-09
4.535499284e-10
1.77126845e-07
4.55882611e-10
1.758336733e-07
3.993279731e-09
2.806779631e-08
-4.714508312e-14
1.459496234e-07
2.256628039e-08
-6.319512701e-14
1.796028673e-07
1.397317609e-08
-7.217420222e-14
1.826711421e-07
8.780422929e-09
-7.850433099e-14
1.792556281e-07
5.740332499e-09
-8.345760074e-14
1.771048284e-07
-8.159732969e-14
1.758122127e-07
3.995201619e-09
2.806778968e-08
-4.063582962e-10
1.459496218e-07
2.256627334e-08
-4.903080656e-10
1.796028665e-07
1.397316631e-08
-4.669971318e-10
1.82671139e-07
8.780414077e-09
-4.518367908e-10
1.79255621e-07
5.740332244e-09
-4.537024557e-10
1.771048222e-07
-4.560319294e-10
1.758122042e-07
3.995204427e-09
2.80669823e-08
-8.3348457e-10
1.459712422e-07
2.256277695e-08
-1.002334967e-09
1.796273424e-07
1.39707753e-08
-9.579663638e-10
1.826940728e-07
8.779726295e-09
-9.267403085e-10
1.792770654e-07
5.739521476e-09
-9.292028469e-10
1.771268285e-07
-9.323305725e-10
1.758336526e-07
3.993286866e-09
2.806577065e-08
-1.308777952e-09
1.460206263e-07
2.255610777e-08
-1.565504336e-09
1.796839399e-07
1.396660071e-08
-1.50469786e-09
1.827473409e-07
8.779222302e-09
-1.455604941e-09
1.793273543e-07
5.738827983e-09
-1.456000686e-09
1.771783077e-07
-1.456920915e-09
1.758840862e-07
3.990446915e-09
2.806485013e-08
-1.875398774e-09
1.461128778e-07
2.25471996e-08
-2.228352347e-09
1.797916115e-07
1.396216916e-08
-2.158337272e-09
1.828497793e-07
8.780977559e-09
-2.088838436e-09
1.794255401e-07
5.740379733e-09
-2.082743325e-09
1.772784546e-07
-2.077115197e-09
1.759828747e-07
3.988813003e-09
2.806684803e-08
-2.606010387e-09
1.462748684e-07
2.253835682e-08
-3.074069071e-09
1.799853282e-07
1.396016836e-08
-3.005431679e-09
1.830363931e-07
8.787883388e-09
-2.912422089e-09
1.796069825e-07
5.746837967e-09
-2.893427075e-09
1.774628414e-07
-2.875913717e-09
1.761658929e-07
3.990846974e-09
2.807087717e-08
1.465654725e-07
-3.631252925e-09
2.253491003e-08
1.803417598e-07
-4.268739221e-09
1.396678872e-08
1.833852974e-07
-4.211495081e-09
8.806127521e-09
1.799514384e-07
-4.092085819e-09
5.763391582e-09
1.778124465e-07
-4.052021694e-09
1.765158589e-07
-4.0177828e-09
4.000507739e-09
2.621949418e-08
5.537378418e-09
1.21932169e-07
2.841743021e-08
8.084555733e-09
1.804519796e-07
2.339310368e-08
8.049719902e-09
1.908001589e-07
1.794963177e-08
8.103005414e-09
1.878089439e-07
1.37454265e-08
8.163463071e-09
1.844429396e-07
8.188691731e-09
1.82060105e-07
1.063129376e-08
2.625097899e-08
4.210652793e-09
1.21350582e-07
2.844968208e-08
6.155245996e-09
1.797158853e-07
2.341833881e-08
6.089258214e-09
1.900281317e-07
1.796195031e-08
6.124039557e-09
1.870422504e-07
1.375219047e-08
6.171364676e-09
1.836646011e-07
6.192588178e-09
1.81279118e-07
1.063499156e-08
2.626905161e-08
3.048937152e-09
1.210054984e-07
2.847435123e-08
4.459347483e-09
1.792821587e-07
2.343665771e-08
4.392482567e-09
1.895841961e-07
1.797131673e-08
4.414514178e-09
1.866003541e-07
1.375685893e-08
4.449737441e-09
1.832144869e-07
4.466709876e-09
1.808291647e-07
1.063643041e-08
2.628274159e-08
1.986570258e-09
1.208002207e-07
2.84932949e-08
2.90663105e-09
1.790260654e-07
2.345070103e-08
2.854889251e-09
1.893275012e-07
1.797880169e-08
2.867833974e-09
1.863459166e-07
1.376063066e-08
2.891274022e-09
1.829549411e-07
2.903144883e-09
1.805714279e-07
1.063690182e-08
2.629111598e-08
9.805665304e-10
1.206861081e-07
2.850610086e-08
1.43501642e-09
1.788839514e-07
2.346054003e-08
1.407161368e-09
1.891873552e-07
1.798434417e-08
1.413140185e-09
1.862079586e-07
1.376350221e-08
1.424867914e-09
1.828141169e-07
1.430956724e-09
1.804325804e-07
1.063684917e-08
2.629513168e-08
-7.733665132e-14
1.206351076e-07
2.851260732e-08
-9.371269232e-14
1.788204829e-07
2.346567164e-08
-1.240544326e-13
1.891253564e-07
1.79872996e-08
-1.5183784e-13
1.861472919e-07
1.376501265e-08
-1.601256422e-13
1.827521837e-07
-1.779470263e-13
1.80371857e-07
1.063656463e-08
2.629512836e-08
-9.807236577e-10
1.206351105e-07
2.851260043e-08
-1.43520782e-09
1.78820482e-07
2.346566058e-08
-1.40740417e-09
1.891253435e-07
1.798728704e-08
-1.413435671e-09
1.861472627e-07
1.376500153e-08
-1.425180635e-09
1.827521417e-07
-1.431300444e-09
1.803718036e-07
1.063655575e-08
2.62911e-08
-1.986729671e-09
1.206861124e-07
2.850607486e-08
-2.906832872e-09
1.788839464e-07
2.346050141e-08
-2.855118871e-09
1.891873174e-07
1.798430781e-08
-2.868102365e-09
1.86207886e-07
1.376347914e-08