/*--------------------------------*- C++ -*----------------------------------*\
| =========                 |                                                 |
| \\      /  F ield         | OpenFOAM: The Open Source CFD Toolbox           |
|  \\    /   O peration     | Version:  4.x                                   |
|   \\  /    A nd           | Web:      www.OpenFOAM.org                      |
|    \\/     M anipulation  |                                                 |
\*---------------------------------------------------------------------------*/
FoamFile
{
    version     2.0;
    format      ascii;
    class       volScalarField;
    location    "0.2";
    object      T;
}
// * * * * * * * * * * * * * * * * * * * * * * * * * * * * * * * * * * * * * //

dimensions      [0 0 0 1 0 0 0];

internalField   nonuniform List<scalar> 
6398
(
299.999993
299.9999888
299.9999923
299.9999951
299.9999984
300.000001
299.999989
299.9999883
299.9999924
299.9999972
300.000001
300.0000044
299.9999911
299.99999
299.9999931
299.9999969
300.0000009
300.0000038
299.9999925
299.9999911
299.9999934
299.9999968
300.0000012
300.000004
299.9999931
299.999992
299.9999931
299.999996
300.000001
300.0000034
299.9999947
299.9999936
299.9999923
299.9999957
300.0000013
300.0000031
299.9999928
299.9999963
300.0000106
300.0000288
300.0000515
300.0000713
299.9999948
300.0000028
300.0000227
300.0000486
300.0000849
300.0001141
299.9999988
300.0000071
300.0000265
300.000055
300.0000996
300.0001273
300.0000008
300.0000077
300.000025
300.0000574
300.0001042
300.0001278
300.0000065
300.0000165
300.0000373
300.0000688
300.0001078
300.0001201
300.0000186
300.0000342
300.0000534
300.0000806
300.000113
300.0001161
300.0000242
300.0000546
300.0001018
300.0001667
300.0002313
300.0002757
300.0000421
300.0000842
300.0001609
300.000271
300.0004059
300.0004924
300.0000525
300.0000942
300.0001871
300.0003096
300.0004638
300.0005476
300.0000614
300.0001013
300.0001915
300.0003274
300.0004697
300.0005289
300.0000868
300.0001515
300.0002496
300.000373
300.0004761
300.0004959
300.0001288
300.0002353
300.0003304
300.0004271
300.000496
300.0004827
300.0000667
300.0001382
300.0002145
300.0002988
300.0003637
300.0003959
300.0001191
300.0002501
300.0003859
300.0005592
300.0007166
300.0007963
300.0001429
300.000282
300.0004462
300.0006257
300.0007859
300.0008681
300.0001665
300.0003235
300.0004796
300.0006556
300.0007771
300.0008314
300.0001992
300.0004087
300.000561
300.0007085
300.0007817
300.0008046
300.0002429
300.0005132
300.0006699
300.000782
300.0008053
300.0007744
300.0001004
300.0002156
300.0003029
300.0003721
300.0003984
300.0004007
300.0001984
300.0004193
300.0005824
300.0007401
300.0008305
300.0008597
300.0002341
300.0004799
300.0006588
300.0008109
300.0009049
300.0009508
300.0002549
300.0005236
300.0006851
300.0008337
300.0009008
300.0009412
300.0002685
300.0005821
300.0007504
300.0008832
300.0009175
300.000942
300.0002926
300.0006539
300.0008387
300.000943
300.0009292
300.0008909
300.0001342
300.0002986
300.0003769
300.0004078
300.0003904
300.0003548
300.0002807
300.000595
300.0007539
300.0008441
300.0008425
300.000811
300.0003209
300.0006623
300.0008362
300.0009294
300.0009398
300.0009323
300.0003213
300.0006737
300.000847
300.0009646
300.0009736
300.0009689
300.0003147
300.00069
300.0008822
300.0010078
300.0010069
300.0009881
300.0003122
300.0007055
300.0009047
300.0010095
300.0009796
300.000918
300.0001634
300.0003538
300.0004192
300.0004203
300.0003714
300.0003141
300.0003441
300.000734
300.0008766
300.0009012
300.0008244
300.0007171
300.0003865
300.0008103
300.0009846
300.0010323
300.0009705
300.0008824
300.0003843
300.0008164
300.001003
300.0010946
300.0010536
300.0009852
300.0003692
300.000797
300.0009969
300.0011087
300.0010743
300.0010139
300.0003256
300.0007213
300.0009176
300.0010275
300.000997
300.0009251
300.00017
300.0003681
300.00043
300.0004164
300.0003591
300.0002985
300.0003667
300.0008019
300.0009274
300.0009085
300.0007972
300.0006817
300.0004312
300.0009247
300.0010887
300.0010911
300.0009904
300.000873
300.0004449
300.0009448
300.0011198
300.0011768
300.0011193
300.0010269
300.0004141
300.0008807
300.0010657
300.0011584
300.0011307
300.0010824
300.0003262
300.0007128
300.0008992
300.0010134
300.0010076
300.0009606
300.0001604
300.0003681
300.0004231
300.0003986
300.00035
300.0003177
300.0003748
300.000824
300.0009381
300.0008949
300.0007721
300.0006701
300.0004549
300.0009871
300.0011341
300.0011025
300.0009873
300.0008661
300.0004704
300.00101
300.0011697
300.001197
300.0011481
300.0010901
300.0004241
300.0009105
300.001079
300.0011599
300.0011771
300.0012099
300.0003139
300.0006808
300.0008404
300.0009597
300.0010285
300.0010911
300.000161
300.0003638
300.0004165
300.0003991
300.0003537
300.0003069
300.0003723
300.0008206
300.0009382
300.0008908
300.0007605
300.0006381
300.0004505
300.0009932
300.0011404
300.0010988
300.0009679
300.0008379
300.000461
300.0010125
300.0011712
300.0011893
300.0011457
300.0011171
300.0004083
300.0009
300.0010657
300.0011399
300.0011895
300.001307
300.0002842
300.0006342
300.000789
300.0009155
300.0010443
300.0012321
300.0001552
300.0003354
300.0004063
300.0004099
300.0003563
300.000283
300.0003367
300.0007786
300.0009253
300.0009017
300.0007663
300.0006161
300.0004068
300.0009502
300.0011209
300.0010903
300.0009561
300.0008125
300.0004115
300.0009618
300.0011382
300.0011548
300.0011163
300.0010954
300.0003564
300.0008382
300.0010148
300.0010881
300.0011628
300.0013004
300.0002381
300.0005635
300.0007269
300.0008665
300.0010275
300.0012499
300.0001224
300.0002912
300.0003955
300.0004216
300.0003659
300.000273
300.000275
300.0006913
300.0008906
300.0009106
300.0007804
300.0005956
300.0003335
300.000829
300.0010484
300.0010572
300.0009321
300.0007608
300.0003205
300.0008076
300.0010195
300.0010539
300.0010113
300.0009684
300.0002665
300.0006782
300.0008765
300.000961
300.0010251
300.0011283
300.0001872
300.0004695
300.0006398
300.0007723
300.0009189
300.0011298
300.0001124
300.0002952
300.0004022
300.0004377
300.000396
300.0002916
300.0002641
300.0006474
300.0008548
300.0009165
300.0008146
300.00061
300.000285
300.0007045
300.0009473
300.0010228
300.0009319
300.0007372
300.0002509
300.0006478
300.0008893
300.0009829
300.0009435
300.0008308
300.0002189
300.0005631
300.000779
300.0008818
300.0008947
300.0008733
300.000188
300.0004532
300.0006218
300.0007248
300.00078
300.0008699
300.0001313
300.0003157
300.000409
300.0004517
300.0004314
300.0003369
300.0002743
300.0006277
300.0008416
300.0009437
300.0008895
300.0006827
300.0002682
300.0006509
300.0009191
300.0010414
300.0009889
300.0007934
300.0002392
300.0006058
300.0008699
300.0009961
300.0009728
300.0008466
300.0002319
300.0005659
300.0007888
300.0008956
300.0008964
300.0008417
300.0002381
300.0005226
300.0006801
300.0007462
300.0007594
300.0007962
299.9999951
299.9999947
299.9999931
299.9999977
300.0000028
300.0000037
299.9999981
299.999996
299.9999962
299.9999998
300.0000035
300.000003
299.999998
299.9999962
299.9999968
299.9999987
300.0000018
300
299.9999962
299.9999968
299.9999945
299.9999951
299.9999979
299.9999967
299.9999968
299.999997
299.9999919
299.9999935
299.9999967
299.999994
299.9999979
299.9999953
299.9999899
299.9999938
299.9999937
299.9999912
299.9999975
299.9999943
299.9999903
299.9999878
299.999988
299.9999876
299.9999975
299.9999961
299.999994
299.9999921
299.9999913
299.9999878
299.999998
299.9999979
299.9999962
299.9999954
299.9999945
299.9999894
299.9999989
299.9999985
299.9999975
299.9999972
299.9999962
299.9999915
299.9999988
299.9999989
299.9999986
299.9999989
299.9999987
299.9999951
299.9999983
299.9999996
299.9999993
300.0000002
300.0000009
299.9999985
300.0000323
300.0000576
300.0000722
300.0000923
300.0001144
300.0001071
300.0000452
300.0000708
300.0000791
300.000086
300.0000949
300.0000756
300.0000488
300.0000685
300.0000647
300.0000559
300.0000502
300.0000174
300.000043
300.0000547
300.0000399
300.0000206
300.0000005
299.999955
300.0000346
300.0000359
300.0000151
299.9999854
299.999952
299.9999172
300.0000239
300.0000197
299.9999977
299.9999571
299.9999308
299.9999135
300.000021
300.0000217
300.0000068
299.9999826
299.9999648
299.9999486
300.0000322
300.0000452
300.000039
300.0000219
300.0000093
299.9999886
300.0000495
300.0000772
300.0000758
300.0000577
300.0000374
300.0000043
300.0000659
300.0001021
300.0001
300.0000797
300.0000565
300.0000184
300.000072
300.0001081
300.0001062
300.000091
300.0000724
300.0000352
300.000066
300.0001004
300.0001024
300.0000948
300.0000803
300.0000475
300.0001754
300.0003231
300.000397
300.0004573
300.0004796
300.0004224
300.0002029
300.0003555
300.0004003
300.0004069
300.0003744
300.0002706
300.0002024
300.0003331
300.0003341
300.0002805
300.0001964
300.0000756
300.0001735
300.0002681
300.0002304
300.0001326
300.0000245
299.9999219
300.0001306
300.0001794
300.0001196
300.0000048
299.9999063
299.9998388
300.0000919
300.0001141
300.0000539
299.9999591
299.9998934
299.9998635
300.0000936
300.0001382
300.0001023
300.0000286
299.9999865
299.9999548
300.0001418
300.0002469
300.0002439
300.0001863
300.0001178
300.0000333
300.0002039
300.0003745
300.0003906
300.0003239
300.0002167
300.0000794
300.0002486
300.000455
300.0004723
300.0004005
300.0002848
300.000129
300.0002579
300.0004644
300.0004857
300.0004311
300.0003352
300.0001849
300.0002467
300.0004429
300.0004711
300.0004334
300.0003558
300.0002319
300.0002853
300.0005938
300.0007249
300.0007877
300.0007468
300.0006427
300.000298
300.0005993
300.0006892
300.0006766
300.0005567
300.0004031
300.0002768
300.0005392
300.0005663
300.000471
300.0002928
300.0001387
300.000225
300.0004203
300.0003873
300.0002366
300.0000587
299.9999396
300.0001592
300.0002716
300.0002047
300.0000444
299.9999138
299.9998484
300.0001073
300.0001775
300.0001197
299.9999965
299.9999129
299.9998887
300.0001163
300.0002321
300.000222
300.0001512
300.0000654
300.000021
300.000185
300.0004005
300.0004426
300.0003895
300.0002686
300.0001603
300.0002606
300.00057
300.0006391
300.0005728
300.0004131
300.000248
300.0003084
300.0006661
300.0007396
300.0006717
300.0005132
300.0003159
300.0003206
300.000682
300.0007568
300.0007074
300.0005796
300.0003825
300.0003205
300.0006695
300.0007381
300.0007013
300.0006068
300.0004496
300.0003089
300.0006847
300.000846
300.0009073
300.0008319
300.0007213
300.0002976
300.0006504
300.0007653
300.0007538
300.0006129
300.0004761
300.0002605
300.0005617
300.0006101
300.0005261
300.0003493
300.0002336
300.0002032
300.0004259
300.0004108
300.0002899
300.0001267
300.0000361
300.000138
300.0002691
300.0002235
300.0001163
299.9999916
299.9999526
300.0000891
300.0001751
300.000147
300.0000876
300.0000116
300.0000163
300.0001
300.0002337
300.0002604
300.0002451
300.0001825
300.0001864
300.0001638
300.0004013
300.0004799
300.0004717
300.0003858
300.0003494
300.000227
300.0005635
300.0006683
300.0006414
300.0005338
300.0004373
300.000268
300.0006592
300.0007659
300.0007324
300.0006256
300.0004792
300.0002898
300.0006863
300.0007862
300.0007652
300.0006818
300.0005179
300.0003023
300.0006834
300.0007684
300.0007616
300.0007192
300.0005901
300.0002893
300.0006742
300.0008464
300.0009169
300.0008425
300.0007393
300.0002381
300.0005952
300.0007298
300.0007414
300.0006206
300.0005167
300.00018
300.0004784
300.0005604
300.0005191
300.0003991
300.0003184
300.0001351
300.0003467
300.0003739
300.0003212
300.0002259
300.0001558
300.0001
300.0002201
300.0002188
300.0001908
300.0001156
300.0000745
300.0000745
300.0001523
300.0001589
300.0001631
300.0001184
300.0001341
300.0000878
300.0002074
300.0002611
300.0002912
300.0002637
300.0003071
300.0001331
300.0003364
300.0004438
300.0004841
300.0004537
300.0004746
300.0001717
300.0004506
300.0005885
300.0006234
300.0005833
300.0005483
300.0001998
300.0005259
300.0006607
300.0006927
300.0006512
300.0005645
300.0002232
300.0005645
300.0006794
300.0007203
300.0006986
300.0005923
300.0002351
300.0005693
300.000667
300.0007272
300.0007556
300.0006793
300.0002429
300.0005878
300.0007726
300.0008742
300.0008252
300.0007428
300.00015
300.000421
300.0005821
300.0006598
300.0006027
300.000537
300.0000925
300.000292
300.0004092
300.0004597
300.0004126
300.0003618
300.0000826
300.0002287
300.0002893
300.0003142
300.0002771
300.00021
300.0000894
300.0001849
300.0002051
300.0002175
300.0001675
300.0001144
300.0000875
300.0001578
300.0001728
300.0001955
300.0001578
300.0001723
300.0001058
300.0002135
300.000267
300.0003146
300.0003027
300.0003607
300.0001452
300.0003192
300.0004225
300.0004947
300.0004929
300.0005334
300.000173
300.0003924
300.0005201
300.0006065
300.0006072
300.0005933
300.0001866
300.0004272
300.0005478
300.0006423
300.0006565
300.0005988
300.0001948
300.0004411
300.0005496
300.0006618
300.0007029
300.000633
300.0001952
300.0004354
300.0005474
300.0006905
300.0007814
300.0007465
300.0001978
300.0004643
300.0006294
300.0007674
300.0007994
300.0007639
300.0000792
300.0002366
300.0003808
300.0005233
300.0005859
300.0005712
300.0000293
300.000131
300.0002388
300.0003597
300.000418
300.0003947
300.0000503
300.0001412
300.0002014
300.0002801
300.0002924
300.0002312
300.0000875
300.0001681
300.0001902
300.0002157
300.0001776
300.0001224
300.0001141
300.0001939
300.0002055
300.0002167
300.0001755
300.0001902
300.0001541
300.0002693
300.0003137
300.0003592
300.0003486
300.0004129
300.0001999
300.0003663
300.0004632
300.0005437
300.0005564
300.0006028
300.0002155
300.0004158
300.0005404
300.0006389
300.0006547
300.000649
300.0002039
300.0004199
300.0005436
300.0006563
300.0006818
300.000643
300.0001919
300.0004089
300.000533
300.0006716
300.0007306
300.000684
300.0001879
300.0004053
300.0005426
300.0007162
300.0008381
300.0008121
300.0001553
300.0003563
300.0004976
300.0006696
300.0008024
300.0008534
300.0000261
300.0000967
300.0002269
300.0004344
300.0005989
300.0006527
299.999982
300.0000069
300.0001125
300.0003021
300.000445
300.0004669
300.0000147
300.000058
300.0001247
300.0002419
300.0003126
300.0002717
300.0000694
300.000143
300.0001749
300.0002019
300.0001866
300.0001414
300.000115
300.000235
300.0002683
300.000259
300.0002123
300.0002297
300.0001925
300.0004015
300.0004683
300.0004875
300.0004678
300.0005374
300.0002701
300.0005418
300.0006592
300.0007286
300.0007313
300.0007784
300.0002852
300.0005614
300.0007077
300.0008097
300.0008145
300.0008114
300.0002451
300.0004918
300.0006474
300.0007802
300.0008054
300.0007792
300.0002093
300.000445
300.0006081
300.0007772
300.0008493
300.0008134
300.000211
300.0004541
300.0006391
300.0008486
300.0009744
300.0009288
300.0001233
300.000286
300.0004263
300.0006312
300.0008396
300.0010044
300.0000003
300.0000274
300.0001638
300.0004218
300.0006738
300.0008206
299.9999545
299.9999373
300.0000604
300.0003015
300.0005355
300.0006395
299.9999732
299.9999798
300.0000716
300.0002342
300.0003722
300.0003927
300.0000212
300.0000828
300.0001405
300.0001934
300.000226
300.0002213
300.0000915
300.0002379
300.0002971
300.0003039
300.0002958
300.0003267
300.0002068
300.0004965
300.0006071
300.0006191
300.0006038
300.0006556
300.0003215
300.0007172
300.0008767
300.0009136
300.0008881
300.0009137
300.0003488
300.0007489
300.0009316
300.0009917
300.0009659
300.0009569
300.0003017
300.0006441
300.0008313
300.0009277
300.0009377
300.0009198
300.0002598
300.0005684
300.0007684
300.0009085
300.0009693
300.0009427
300.0002804
300.0006124
300.0008237
300.0009933
300.0010869
300.0010426
300.0001022
300.000248
300.0003969
300.0006205
300.0008584
300.0010717
299.9999983
300.0000163
300.0001623
300.0004502
300.0007729
300.0009838
299.999953
299.9999243
300.0000618
300.0003421
300.000672
300.0008664
299.9999561
299.9999389
300.0000514
300.0002509
300.0004941
300.000622
299.9999833
300.000009
300.0000907
300.0001905
300.0003136
300.0003829
300.0000558
300.0001976
300.0002804
300.0003072
300.0003525
300.0004084
300.0001953
300.0004981
300.0006227
300.0006357
300.0006286
300.0006706
300.0003238
300.0007495
300.0009136
300.0009299
300.0008941
300.0009103
300.000358
300.0007935
300.0009731
300.0010034
300.0009689
300.0009605
300.0003194
300.0007021
300.0008755
300.0009408
300.0009471
300.000938
300.0002953
300.0006572
300.000829
300.0009319
300.0009865
300.0009713
300.0003306
300.0007269
300.0009053
300.0010302
300.0011031
300.0010617
300.0001025
300.0002459
300.0003957
300.0006019
300.0008268
300.0010375
300.0000261
300.0000519
300.0002015
300.00049
300.0008006
300.0010313
299.999985
299.9999622
300.0001081
300.0004081
300.0007523
300.0009924
299.9999733
299.9999507
300.0000664
300.0002911
300.0005858
300.0007845
299.9999803
299.9999788
300.0000588
300.0001862
300.0003703
300.0005005
300.0000295
300.0001186
300.0002085
300.0002673
300.0003482
300.000429
300.0001527
300.0004314
300.0005507
300.000562
300.0005644
300.0006001
300.0002726
300.0006798
300.0008237
300.0008147
300.0007721
300.0007821
300.0003107
300.0007329
300.000887
300.0008848
300.0008506
300.0008586
300.0002927
300.0006741
300.0008249
300.0008629
300.0008758
300.0008827
300.0002931
300.0006635
300.0008164
300.0008995
300.0009465
300.0009278
300.0003329
300.0007382
300.000895
300.0009918
300.0010384
300.0009852
300.0001472
300.0003046
300.0004404
300.0006012
300.0007454
300.0009041
300.0001178
300.0001967
300.0003293
300.0005432
300.0007869
300.0009966
300.00009
300.000127
300.0002575
300.0004833
300.0007681
300.0010002
300.0000549
300.0000621
300.000157
300.0003512
300.0006241
300.000842
300.0000208
300.0000148
300.0000696
300.0001892
300.0003915
300.0005539
300.0000266
300.0000688
300.0001127
300.000177
300.0003038
300.0004334
300.000087
300.0002585
300.0003236
300.0003405
300.0003904
300.0004984
300.0001549
300.0004354
300.0005132
300.0005007
300.0005225
300.0006232
300.0001992
300.0005161
300.0006114
300.0006133
300.0006475
300.0007235
300.0002314
300.0005611
300.0006682
300.0007032
300.0007393
300.0007483
300.0002825
300.0006361
300.0007444
300.0007859
300.0007934
300.0007411
300.0003123
300.000681
300.0007781
300.0007977
300.0007661
300.0006721
300.0002417
300.0004797
300.0005809
300.0006342
300.0006888
300.000737
300.0002247
300.0004177
300.0004961
300.0005795
300.0007142
300.000815
300.000186
300.0003323
300.0004005
300.0005086
300.0007191
300.0009018
300.0001322
300.000226
300.0002712
300.0003792
300.0006089
300.0008336
300.0000748
300.0001061
300.0001226
300.0002048
300.0004021
300.0006371
300.0000364
300.0000506
300.0000646
300.0001281
300.0002868
300.000489
300.0000344
300.0000882
300.0001095
300.0001577
300.0002917
300.0004927
300.0000643
300.0001797
300.0002196
300.0002663
300.0004022
300.0005876
300.0001249
300.0003145
300.0003829
300.0004439
300.0005799
300.0007125
300.0002123
300.0004786
300.0005518
300.0006003
300.0006752
300.0007116
300.0002814
300.000576
300.0006257
300.0006388
300.000636
300.0005858
300.0002718
300.0005123
300.0005069
300.0004688
300.0004353
300.0004018
299.9999988
299.9999994
299.9999994
300.0000001
300.0000009
299.9999986
299.9999988
299.9999982
299.9999976
299.9999983
299.999999
299.999997
299.9999972
299.9999959
299.9999954
299.999997
299.9999979
299.9999965
299.9999958
299.9999943
299.999996
299.9999981
299.9999978
299.9999953
299.9999951
299.9999947
299.9999973
299.9999988
299.9999967
299.9999934
299.9999949
299.9999962
299.9999976
299.9999967
299.9999941
299.999993
300.0000621
300.0000949
300.0000982
300.0000907
300.0000761
300.0000534
300.0000595
300.0000845
300.0000815
300.000071
300.000062
300.0000577
300.0000468
300.00006
300.0000518
300.000047
300.0000514
300.0000602
300.0000292
300.0000384
300.0000341
300.0000376
300.0000508
300.0000664
300.0000152
300.0000268
300.00003
300.0000392
300.0000564
300.0000745
300.0000033
300.0000148
300.0000221
300.0000291
300.0000394
300.0000501
300.0002426
300.0004312
300.0004505
300.0004077
300.0003455
300.0002752
300.0002299
300.0003914
300.0003875
300.0003412
300.0003148
300.0003184
300.0001877
300.0003032
300.0002848
300.0002673
300.000298
300.0003537
300.0001355
300.000221
300.000212
300.0002343
300.0003147
300.0003907
300.0000894
300.0001689
300.0001889
300.000243
300.000337
300.0004062
300.0000365
300.0000942
300.0001294
300.0001701
300.0002143
300.0002355
300.0003226
300.0006513
300.0006973
300.0006579
300.000608
300.0005374
300.0003027
300.0005914
300.0006237
300.0006032
300.0006176
300.0006384
300.0002553
300.0005019
300.0005465
300.0005822
300.000667
300.0007299
300.0002076
300.0004288
300.0004975
300.0005863
300.0007129
300.0007757
300.0001642
300.0003664
300.0004644
300.000577
300.000693
300.0007275
300.0000726
300.0001831
300.0002565
300.0003234
300.0003702
300.0003704
300.0003021
300.00066
300.0007263
300.0007397
300.0007618
300.0007195
300.0002765
300.0006009
300.0006747
300.0007326
300.000823
300.0008532
300.0002411
300.0005387
300.000649
300.0007589
300.0008887
300.0009405
300.0002127
300.0004995
300.0006449
300.0007912
300.0009348
300.0009746
300.0001808
300.0004471
300.0006131
300.0007631
300.0008786
300.0008878
300.000078
300.0002056
300.0003028
300.0003883
300.0004426
300.0004428
300.0002257
300.0005409
300.0006418
300.0007409
300.0008501
300.000853
300.0002064
300.0005059
300.0006353
300.0007775
300.0009392
300.0009943
300.0001935
300.0004861
300.0006456
300.0008164
300.0009852
300.0010499
300.0001795
300.0004684
300.0006581
300.0008487
300.0010149
300.0010624
300.0001511
300.0004227
300.0006258
300.0008074
300.0009413
300.0009615
300.0000598
300.0001817
300.0002976
300.0004009
300.0004683
300.0004763
300.0001871
300.0004243
300.0005639
300.0007471
300.0009141
300.0009515
300.0001843
300.0004365
300.0006111
300.0008161
300.0010153
300.0010877
300.0001814
300.0004432
300.0006395
300.000848
300.0010375
300.0011151
300.000161
300.0004212
300.0006464
300.0008634
300.0010405
300.0010915
300.0001259
300.0003677
300.0006004
300.0008068
300.0009505
300.0009724
300.0000508
300.0001662
300.0002906
300.0004003
300.0004678
300.0004752
300.0001921
300.0004215
300.0005866
300.0008089
300.001007
300.0010198
300.0002084
300.0004638
300.0006601
300.0009083
300.0011168
300.0011471
300.0002161
300.000482
300.0006892
300.0009236
300.0011198
300.0011578
300.0001914
300.0004507
300.0006785
300.0009052
300.0010776
300.0010962
300.000147
300.0003838
300.0006151
300.0008249
300.0009621
300.0009611
300.0000633
300.0001836
300.000306
300.0004117
300.0004707
300.0004665
300.0002476
300.0005259
300.0007477
300.0009953
300.0011509
300.0011097
300.0003061
300.0006441
300.0008784
300.0011225
300.0012601
300.0012171
300.0003318
300.0006865
300.0009075
300.0011217
300.0012457
300.0012055
300.0002916
300.0006184
300.0008422
300.0010449
300.0011614
300.0011134
300.0002077
300.0004827
300.0007057
300.0008996
300.0010002
300.000961
300.0000807
300.0002158
300.0003358
300.000435
300.0004803
300.0004629
300.0003493
300.0007551
300.0009765
300.0011581
300.0012481
300.0011815
300.0004135
300.000889
300.0011115
300.0012738
300.0013349
300.0012519
300.0004172
300.0008901
300.0010978
300.0012413
300.0012963
300.0012194
300.0003382
300.0007404
300.0009563
300.0011202
300.0011936
300.0011231
300.0002181
300.0005216
300.0007428
300.0009255
300.0010093
300.0009574
300.0000759
300.0002105
300.0003305
300.0004288
300.0004691
300.0004439
300.0003885
300.0008545
300.0010479
300.001182
300.0012429
300.0011711
300.0004264
300.0009419
300.0011428
300.0012681
300.0013041
300.0012176
300.0004025
300.0008902
300.0010862
300.0012068
300.0012497
300.0011809
300.0002977
300.0006971
300.0009085
300.001068
300.0011491
300.0010997
300.0001641
300.0004467
300.0006653
300.0008561
300.0009585
300.0009272
300.000044
300.0001504
300.0002664
300.0003716
300.0004235
300.0004147
300.0003648
300.0008217
300.0009858
300.0010793
300.0011022
300.0010216
300.0003594
300.0008363
300.0009984
300.0010751
300.001081
300.0010075
300.0002819
300.0006906
300.0008483
300.0009479
300.0010091
300.0010005
300.0001543
300.0004378
300.0006268
300.000813
300.0009573
300.000998
300.0000509
300.0002134
300.0004113
300.0006443
300.0008185
300.0008682
300.0000048
300.0000619
300.0001672
300.0002878
300.0003699
300.0003953
300.0002811
300.0006307
300.0006984
300.000697
300.0006666
300.0006018
300.0002063
300.0004853
300.0005455
300.0005744
300.0006076
300.0006291
300.000109
300.0002802
300.0003748
300.0005048
300.0006584
300.000777
300.0000176
300.0001055
300.0002553
300.000488
300.0007264
300.000886
299.999969
300.0000067
300.0001761
300.0004382
300.0006792
300.0008189
299.9999784
299.9999971
300.0000876
300.0002094
300.0003131
300.0003752
300.0001702
300.0002922
300.0002543
300.0002427
300.0002829
300.0003421
300.0000569
300.0000881
300.0000831
300.0001531
300.0003004
300.0004599
299.9999769
299.9999532
300.0000189
300.0002046
300.0004619
300.0006908
299.9999298
299.9998834
300.0000084
300.000281
300.0005851
300.0008257
299.9999175
299.9998772
300.0000209
300.0002893
300.0005625
300.0007583
299.9999589
299.9999487
300.0000183
300.0001321
300.0002462
300.0003369
300.0000022
300.0000028
300.0000022
300.0000113
300.0000052
300.0000037
300.0000059
300.0000125
300.0000036
300.0000018
300.0000031
300.0000095
300.0000031
300.0000007
300.0000026
300.0000119
300.0000015
299.9999983
300.0000013
300.0000145
300.0000003
299.999997
299.9999994
300.0000138
300.000079
300.0000789
300.0000914
300.0001137
300.0001199
300.0001074
300.0001162
300.0001496
300.0001259
300.0001064
300.0001015
300.0001232
300.0001204
300.0000959
300.0000853
300.000107
300.000101
300.0000702
300.0000601
300.0000826
300.0000864
300.0000497
300.000034
300.0000508
300.0002875
300.0002695
300.0002617
300.0003154
300.0005083
300.0004586
300.0004205
300.000494
300.0005476
300.000485
300.0004428
300.000509
300.0005159
300.0004442
300.0004108
300.0004572
300.0004533
300.000356
300.0003075
300.000317
300.0003999
300.0002712
300.0001887
300.0001696
300.0004041
300.0003905
300.0003918
300.0008172
300.0007622
300.0007164
300.0008843
300.0008221
300.0007861
300.0008428
300.0007686
300.0007023
300.0007899
300.0006752
300.0005434
300.0007011
300.0005465
300.0003838
300.0004076
300.0004232
300.0004786
300.0008798
300.0008763
300.000922
300.0009748
300.0009498
300.0009616
300.00097
300.0009046
300.0008219
300.0009478
300.0008349
300.0006706
300.0008369
300.0006961
300.0005027
300.0003521
300.0003962
300.000473
300.0008147
300.0008549
300.0009424
300.0009464
300.000941
300.0009685
300.0009821
300.0009228
300.0008613
300.0009782
300.0009005
300.0008108
300.0008629
300.0007664
300.0006427
300.0002852
300.0002931
300.0006954
300.0007053
300.0008632
300.0008355
300.000983
300.0009491
300.0010182
300.0010329
300.0008831
300.000851
300.000975
300.0010294
300.0012176
300.0012901
300.0014283
300.0014756
300.0014568
300.0014941
300.0012802
300.0013619
300.0009467
300.0011419
299.9999998
299.9999945
299.9999935
300.0000065
299.9999966
299.9999886
299.9999871
299.9999967
299.9999938
299.9999883
299.9999869
299.9999931
299.9999911
299.9999877
299.9999886
299.9999921
299.9999891
299.9999876
299.9999905
299.9999981
299.9999871
299.9999848
299.9999905
300.0000048
299.9999836
299.999982
299.9999904
299.9999984
299.9999832
299.9999833
299.9999896
299.9999869
299.9999823
299.9999828
299.9999902
299.9999871
299.9999891
299.9999945
299.9999786
299.9999824
299.9999877
299.9999788
299.9999788
299.9999835
299.9999831
299.9999911
299.9999966
299.9999972
299.9999959
299.9999859
299.9999828
299.9999865
299.9999834
299.9999793
299.9999794
299.9999861
299.9999831
299.9999892
299.9999968
299.9999978
299.9999977
299.9999956
299.9999937
299.9999927
299.9999911
299.9999876
299.9999867
299.9999902
299.9999881
299.9999947
299.9999984
299.9999985
299.999999
299.999999
299.9999988
299.9999983
299.9999988
299.9999978
299.999998
300.0000664
300.0000264
300.0000071
300.0000185
300.000026
299.9999903
299.9999697
299.9999719
299.9999669
299.9999403
299.9999414
299.9999468
299.9999148
299.9999126
299.9999384
299.9999594
299.9998974
299.9999151
299.9999693
300.0000086
299.9999089
299.9999388
300.0000008
300.0000552
299.9999428
299.9999699
300.000015
300.0000625
299.9999689
299.9999813
300.0000108
300.0000405
299.9999762
299.9999816
300.000012
300.0000186
300.0000552
300.0000593
300.0000011
299.9999166
299.9998624
299.9997765
299.9997215
299.999983
299.9999776
300.000011
300.0000387
300.0000493
300.0000534
300.0000252
299.9999962
299.9999774
299.9999449
299.9998789
299.9998901
299.9999929
299.9999784
300.0000056
300.0000451
300.0000736
300.0000832
300.0000656
300.0000436
300.0000455
300.0000691
300.00007
300.0000569
300.0000099
300.0000028
300.0000321
300.0000728
300.0001034
300.0001091
300.0000887
300.0000711
300.0000907
300.0001368
300.0001572
300.0001489
300.0003042
300.0001738
300.0000848
300.0000442
300.0001416
300.0000427
299.9999638
299.9998933
299.9999822
299.9999385
299.9998817
299.9997934
299.9998723
299.9998805
299.9999019
299.9998805
299.9998377
299.9998931
299.9999844
300.0000599
299.999882
299.9999499
300.0000721
300.0002195
299.9999553
300.0000139
300.0001465
300.0003224
299.9999986
300.0000369
300.0001545
300.0003005
300.0000096
300.0000314
300.000149
300.0002157
300.0003805
300.000387
300.0001549
299.9999159
299.9996969
299.9995245
299.9994328
300.0000194
300.0000113
300.0001171
300.00024
300.0003119
300.0003241
300.0002091
300.0001
300.0000273
299.9999922
299.999901
299.9999244
300.0000454
300.000011
300.0000921
300.0002403
300.0003467
300.000369
300.0002991
300.0002486
300.0002955
300.000419
300.0004282
300.0003721
300.0001119
300.0000945
300.000182
300.0003144
300.0004025
300.0004012
300.0003432
300.0003342
300.0004611
300.000647
300.0007063
300.0006513
300.0005255
300.0003698
300.0001937
300.0002888
300.0001638
299.9999678
300.0000511
299.9999865
299.9998603
299.9996506
299.9999004
299.9999066
299.9999091
299.9998246
299.999867
299.9999433
300.0000787
300.0001679
299.9999376
300.0000618
300.0002909
300.0004831
300.0000596
300.0002036
300.0004747
300.0007381
300.0001392
300.0002555
300.0005156
300.000781
300.0001512
300.0002191
300.0004449
300.0005797
300.0008085
300.0007087
300.0003081
299.9999397
299.9996754
299.9995171
299.9994447
300.0001482
300.0001375
300.0003068
300.0004797
300.0005751
300.0005471
300.0003373