/*--------------------------------*- C++ -*----------------------------------*\
  =========                 |
  \\      /  F ield         | OpenFOAM: The Open Source CFD Toolbox
   \\    /   O peration     | Website:  https://openfoam.org
    \\  /    A nd           | Version:  7
     \\/     M anipulation  |
\*---------------------------------------------------------------------------*/
FoamFile
{
    version     2.0;
    format      ascii;
    class       volScalarField;
    location    "0.00345";
    object      T;
}
// * * * * * * * * * * * * * * * * * * * * * * * * * * * * * * * * * * * * * //

dimensions      [0 0 0 1 0 0 0];

internalField   nonuniform List<scalar> 
5000
(
277.93656
277.93656
277.93653
277.93646
277.9364
277.93636
277.93633
277.9363
277.93628
277.93627
277.93627
277.93626
277.93626
277.93625
277.93625
277.93625
277.93625
277.93625
277.93625
277.93625
277.93625
277.93625
277.93625
277.93625
277.93625
277.93625
277.93625
277.93625
277.93625
277.93626
277.93626
277.93626
277.93626
277.93626
277.93626
277.93626
277.93626
277.93626
277.93626
277.93626
277.93626
277.93626
277.93626
277.93626
277.93626
277.93626
277.93626
277.93626
277.93627
277.93627
277.93627
277.93627
277.93627
277.93627
277.93627
277.93627
277.93627
277.93627
277.93627
277.93627
277.93627
277.93627
277.93627
277.93628
277.93628
277.93628
277.93628
277.93628
277.93628
277.93628
277.93628
277.93628
277.93628
277.93628
277.93628
277.93628
277.93629
277.93629
277.93629
277.93629
277.93629
277.93629
277.93629
277.93629
277.93629
277.93629
277.93629
277.93629
277.9363
277.9363
277.9363
277.9363
277.9363
277.9363
277.9363
277.9363
277.9363
277.9363
277.9363
277.9363
277.93631
277.93631
277.93631
277.93631
277.93631
277.93631
277.93631
277.93631
277.93631
277.93631
277.93631
277.93632
277.93632
277.93632
277.93632
277.93632
277.93632
277.93632
277.93632
277.93632
277.93632
277.93632
277.93632
277.93632
277.93633
277.93633
277.93633
277.93633
277.93633
277.93633
277.93633
277.93633
277.93633
277.93633
277.93633
277.93633
277.93633
277.93634
277.93634
277.93634
277.93634
277.93634
277.93634
277.93634
277.93634
277.93634
277.93634
277.93634
277.93634
277.93634
277.93634
277.93635
277.93635
277.93635
277.93635
277.93635
277.93635
277.93635
277.93635
277.93635
277.93635
277.93635
277.93635
277.93635
277.93635
277.93635
277.93636
277.93636
277.93636
277.93636
277.93636
277.93636
277.93636
277.93636
277.93636
277.93636
277.93636
277.93636
277.93636
277.93636
277.93636
277.93636
277.93636
277.93636
277.93636
277.93636
277.93637
277.93637
277.93637
277.93637
277.93637
277.93637
277.93637
277.93637
277.93637
277.93637
277.93637
277.93637
277.93637
277.93637
277.93637
277.93637
277.93637
277.93637
277.93637
277.93637
277.93637
277.93637
277.93637
277.93637
277.93637
277.93637
277.93637
277.93638
277.93638
277.93638
277.93638
277.93638
277.93638
277.93638
277.93638
277.93638
277.93638
277.93638
277.93638
277.93638
277.93638
277.93638
277.93638
277.93638
277.93638
277.93638
277.93638
277.93638
277.93638
277.93638
277.93638
277.93638
277.93638
277.93638
277.93638
277.93638
277.93638
277.93638
277.93638
277.93638
277.93638
277.93638
277.93638
277.93638
277.93638
277.93638
277.93638
277.93638
277.93638
277.93638
277.93639
277.93639
277.93639
277.93639
277.93639
277.93639
277.93639
277.93639
277.93639
277.93639
277.93639
277.93639
277.93639
277.93639
277.93639
277.93639
277.93639
277.93639
277.93639
277.93639
277.93639
277.93639
277.93639
277.93639
277.93639
277.93639
277.93639
277.93639
277.93639
277.93639
277.93639
277.93639
277.93639
277.93639
277.93639
277.93639
277.93639
277.93639
277.93639
277.93639
277.93639
277.93639
277.93639
277.93639
277.93639
277.93639
277.93639
277.93639
277.93639
277.93639
277.93639
277.93639
277.93639
277.93639
277.93639
277.93639
277.93639
277.93639
277.93639
277.93639
277.93639
277.93639
277.93639
277.93639
277.93639
277.93639
277.9364
277.9364
277.9364
277.9364
277.9364
277.9364
277.9364
277.9364
277.9364
277.9364
277.9364
277.9364
277.9364
277.9364
277.9364
277.9364
277.9364
277.9364
277.9364
277.9364
277.9364
277.9364
277.9364
277.9364
277.9364
277.9364
277.9364
277.9364
277.9364
277.9364
277.9364
277.9364
277.9364
277.9364
277.9364
277.9364
277.9364
277.9364
277.9364
277.9364
277.9364
277.9364
277.9364
277.9364
277.9364
277.9364
277.9364
277.9364
277.9364
277.9364
277.9364
277.9364
277.9364
277.9364
277.9364
277.9364
277.9364
277.9364
277.9364
277.9364
277.9364
277.93641
277.93641
277.93641
277.93641
277.93641
277.93641
277.93641
277.93641
277.93641
277.93641
277.93641
277.93641
277.93641
277.93641
277.93641
277.93641
277.93641
277.93641
277.93641
277.93641
277.93641
277.93641
277.93641
277.93641
277.93641
277.93641
277.93641
277.93641
277.93641
277.93641
277.93641
277.93641
277.93641
277.93641
277.93641
277.93641
277.93641
277.93641
277.93641
277.93641
277.93641
277.93641
277.93641
277.93641
277.93641
277.93641
277.93641
277.93641
277.93642
277.93642
277.93642
277.93642
277.93642
277.93642
277.93642
277.93642
277.93642
277.93642
277.93642
277.93642
277.93642
277.93642
277.93642
277.93642
277.93642
277.93642
277.93642
277.93642
277.93642
277.93642
277.93642
277.93642
277.93642
277.93642
277.93642
277.93642
277.93642
277.93642
277.93642
277.93642
277.93642
277.93643
277.93643
277.93643
277.93643
277.93643
277.93643
277.93643
277.93643
277.93643
277.93643
277.93643
277.93643
277.93643
277.93643
277.93643
277.93643
277.93643
277.93643
277.93643
277.93643
277.93643
277.93643
277.93643
277.93643
277.93643
277.93643
277.93643
277.93643
277.93643
277.93643
277.93643
277.93643
277.93644
277.93644
277.93644
277.93644
277.93644
277.93644
277.93644
277.93644
277.93644
277.93644
277.93644
277.93644
277.93644
277.93644
277.93644
277.93644
277.93644
277.93644
277.93644
277.93644
277.93644
277.93644
277.93644
277.93644
277.93644
277.93644
277.93644
277.93644
277.93644
277.93644
277.93645
277.93645
277.93645
277.93645
277.93645
277.93645
277.93645
277.93645
277.93645
277.93645
277.93645
277.93645
277.93645
277.93645
277.93645
277.93645
277.93645
277.93645
277.93645
277.93645
277.93645
277.93645
277.93645
277.93645
277.93646
277.93646
277.93646
277.93646
277.93646
277.93646
277.93646
277.93646
277.93646
277.93646
277.93646
277.93646
277.93646
277.93646
277.93646
277.93646
277.93646
277.93646
277.93646
277.93646
277.93646
277.93646
277.93646
277.93646
277.93646
277.93646
277.93646
277.93646
277.93647
277.93647
277.93647
277.93647
277.93647
277.93647
277.93647
277.93647
277.93647
277.93647
277.93647
277.93647
277.93647
277.93647
277.93647
277.93647
277.93647
277.93647
277.93647
277.93647
277.93647
277.93647
277.93647
277.93647
277.93648
277.93648
277.93648
277.93648
277.93648
277.93648
277.93648
277.93648
277.93648
277.93648
277.93648
277.93648
277.93648
277.93648
277.93648
277.93648
277.93648
277.93648
277.93648
277.93648
277.93648
277.93648
277.93648
277.93648
277.93648
277.93648
277.93648
277.93648
277.93648
277.93648
277.93648
277.93648
277.93648
277.93649
277.93649
277.93649
277.93649
277.93649
277.93649
277.93649
277.93649
277.93649
277.93649
277.93649
277.93649
277.93649
277.93649
277.93649
277.93649
277.93649
277.93649
277.93649
277.93649
277.93649
277.9365
277.9365
277.9365
277.9365
277.9365
277.9365
277.9365
277.9365
277.9365
277.9365
277.9365
277.9365
277.9365
277.9365
277.9365
277.9365
277.9365
277.9365
277.9365
277.9365
277.9365
277.9365
277.93651
277.93651
277.93651
277.93651
277.93651
277.93651
277.93651
277.93651
277.93651
277.93651
277.93651
277.93651
277.93651
277.93651
277.93651
277.93651
277.93651
277.93651
277.93651
277.93651
277.93651
277.93651
277.93651
277.93652
277.93652
277.93652
277.93652
277.93652
277.93652
277.93652
277.93652
277.93652
277.93652
277.93652
277.93652
277.93652
277.93652
277.93652
277.93652
277.93652
277.93652
277.93652
277.93653
277.93653
277.93653
277.93653
277.93653
277.93653
277.93653
277.93653
277.93653
277.93653
277.93653
277.93653
277.93653
277.93653
277.93653
277.93653
277.93653
277.93653
277.93653
277.93653
277.93653
277.93653
277.93653
277.93654
277.93654
277.93654
277.93654
277.93654
277.93654
277.93654
277.93654
277.93654
277.93654
277.93654
277.93654
277.93654
277.93654
277.93654
277.93654
277.93654
277.93654
277.93654
277.93654
277.93654
277.93654
277.93654
277.93654
277.93654
277.93655
277.93655
277.93655
277.93655
277.93655
277.93655
277.93655
277.93655
277.93655
277.93655
277.93655
277.93655
277.93655
277.93655
277.93655
277.93655
277.93655
277.93655
277.93656
277.93656
277.93656
277.93656
277.93656
277.93656
277.93656
277.93656
277.93656
277.93656
277.93656
277.93656
277.93656
277.93656
277.93656
277.93656
277.93656
277.93656
277.93656
277.93656
277.93656
277.93656
277.93656
277.93657
277.93657
277.93657
277.93657
277.93657
277.93657
277.93657
277.93657
277.93657
277.93657
277.93657
277.93657
277.93657
277.93657
277.93657
277.93657
277.93657
277.93657
277.93657
277.93658
277.93658
277.93658
277.93658
277.93658
277.93658
277.93658
277.93658
277.93658
277.93658
277.93658
277.93658
277.93658
277.93658
277.93658
277.93658
277.93658
277.93659
277.93659
277.93659
277.93659
277.93659
277.93659
277.93659
277.93659
277.93659
277.93659
277.93659
277.93659
277.93659
277.93659
277.93659
277.93659
277.93659
277.93659
277.93659
277.93659
277.93659
277.9366
277.9366
277.9366
277.9366
277.9366
277.9366
277.9366
277.9366
277.9366
277.9366
277.9366
277.9366
277.9366
277.9366
277.9366
277.93661
277.93661
277.93661
277.93661
277.93661
277.93661
277.93661
277.93661
277.93661
277.93661
277.93661
277.93661
277.93661
277.93661
277.93661
277.93661
277.93661
277.93661
277.93661
277.93661
277.93661
277.93661
277.93662
277.93662
277.93662
277.93662
277.93662
277.93662
277.93662
277.93662
277.93662
277.93662
277.93662
277.93662
277.93662
277.93662
277.93662
277.93662
277.93662
277.93663
277.93663
277.93663
277.93663
277.93663
277.93663
277.93663
277.93663
277.93663
277.93663
277.93663
277.93663
277.93663
277.93663
277.93663
277.93663
277.93663
277.93664
277.93664
277.93664
277.93664
277.93664
277.93664
277.93664
277.93664
277.93664
277.93664
277.93664
277.93664
277.93664
277.93664
277.93664
277.93664
277.93664
277.93664
277.93664
277.93664
277.93665
277.93665
277.93665
277.93665
277.93665
277.93665
277.93665
277.93665
277.93665
277.93665
277.93665
277.93665
277.93665
277.93665
277.93665
277.93665
277.93665
277.93665
277.93665
277.93666
277.93666
277.93666
277.93666
277.93666
277.93666
277.93666
277.93666
277.93666
277.93666
277.93666
277.93666
277.93666
277.93666
277.93666
277.93666
277.93666
277.93666
277.93667
277.93667
277.93667
277.93667
277.93667
277.93667
277.93667
277.93667
277.93667
277.93667
277.93667
277.93667
277.93667
277.93667
277.93667
277.93667
277.93667
277.93668
277.93668
277.93668
277.93668
277.93668
277.93668
277.93668
277.93668
277.93668
277.93668
277.93668
277.93668
277.93668
277.93668
277.93668
277.93668
277.93668
277.93669
277.93669
277.93669
277.93669
277.93669
277.93669
277.93669
277.93669
277.93669
277.93669
277.93669
277.93669
277.93669
277.93669
277.93669
277.93669
277.93669
277.93669
277.93669
277.9367
277.9367
277.9367
277.9367
277.9367
277.9367
277.9367
277.9367
277.9367
277.9367
277.9367
277.9367
277.9367
277.9367
277.9367
277.9367
277.9367
277.9367
277.9367
277.9367
277.93671
277.93671
277.93671
277.93671
277.93671
277.93671
277.93671
277.93671
277.93671
277.93671
277.93671
277.93671
277.93671
277.93671
277.93671
277.93672
277.93672
277.93672
277.93672
277.93672
277.93672
277.93672
277.93672
277.93672
277.93672
277.93672
277.93672
277.93672
277.93673
277.93673
277.93673
277.93673
277.93673
277.93673
277.93673
277.93673
277.93673
277.93673
277.93673
277.93673
277.93673
277.93673
277.93673
277.93673
277.93673
277.93674
277.93674
277.93674
277.93674
277.93674
277.93674
277.93674
277.93674
277.93674
277.93674
277.93674
277.93674
277.93675
277.93675
277.93675
277.93675
277.93675
277.93675
277.93675
277.93675
277.93675
277.93676
277.93676
277.93676
277.93676
277.93676
277.93676
277.93676
277.93676
277.93676
277.93676
277.93676
277.93677
277.93677
277.93677
277.93677
277.93677
277.93677
277.93677
277.93678
277.93678
277.93678
277.93678
277.93678
277.93678
277.93679
277.93679
277.93679
277.93679
277.93679
277.93679
277.93679
277.9368
277.9368
277.9368
277.9368
277.93681
277.93681
277.93681
277.93681
277.93682
277.93682
277.93682
277.93682
277.93683
277.93683
277.93683
277.93684
277.93684
277.93684
277.93684
277.93685
277.93685
277.93685
277.93686
277.93686
277.93687
277.93687
277.93688
277.93688
277.93689
277.93689
277.9369
277.9369
277.93691
277.93691
277.93692
277.93692
277.93693
277.93694
277.93694
277.93695
277.93696
277.93696
277.93697
277.93698
277.93699
277.937
277.93701
277.93702
277.93703
277.93704
277.93705
277.93706
277.93707
277.93708
277.93709
277.93711
277.93712
277.93713
277.93715
277.93716
277.93718
277.93719
277.93721
277.93723
277.93724
277.93726
277.93728
277.9373
277.93732
277.93734
277.93737
277.93739
277.93741
277.93744
277.93746
277.93749
277.93752
277.93755
277.93758
277.93761
277.93764
277.93767
277.93771
277.93775
277.93778
277.93782
277.93786
277.9379
277.93795
277.93799
277.93804
277.93809
277.93814
277.93819
277.93825
277.93831
277.93837
277.93843
277.93849
277.93856
277.93863
277.9387
277.93877
277.93885
277.93893
277.93901
277.9391
277.93919
277.93928
277.93938
277.93948
277.93958
277.93969
277.9398
277.93992
277.94004
277.94016
277.94029
277.94043
277.94056
277.94071
277.94086
277.94102
277.94118
277.94135
277.94152
277.9417
277.94189
277.94208
277.94228
277.94249
277.94271
277.94294
277.94317
277.94341
277.94366
277.94392
277.94419
277.94447
277.94476
277.94507
277.94538
277.9457
277.94604
277.94639
277.94675
277.94712
277.94751
277.94791
277.94833
277.94876
277.94921
277.94967
277.95015
277.95065
277.95117
277.95171
277.95226
277.95284
277.95343
277.95405
277.95469
277.95536
277.95604
277.95675
277.95749
277.95825
277.95905
277.95987
277.96071
277.96159
277.9625
277.96344
277.96442
277.96543
277.96648
277.96756
277.96868
277.96985
277.97105
277.97229
277.97358
277.97492
277.9763
277.97773
277.97921
277.98074
277.98232
277.98396
277.98566
277.98741
277.98923
277.9911
277.99304
277.99505
277.99713
277.99928
278.0015
278.0038
278.00617
278.00863
278.01117
278.0138
278.01651
278.01932
278.02222
278.02522
278.02832
278.03152
278.03483
278.03825
278.04178
278.04543
278.0492
278.05309
278.05712
278.06127
278.06556
278.06999
278.07457
278.07929
278.08417
278.0892
278.0944
278.09976
278.1053
278.11101
278.11691
278.12299
278.12926
278.13573
278.14241
278.14929
278.15639
278.16371
278.17126
278.17904
278.18706
278.19533
278.20385
278.21263
278.22168
278.231
278.2406
278.25048
278.26066
278.27115
278.28194
278.29306
278.30449
278.31627
278.32838
278.34084
278.35366
278.36685
278.38041
278.39436
278.40869
278.42343
278.43857
278.45414
278.47013
278.48655
278.50342
278.52074
278.53853
278.55678
278.57552
278.59474
278.61446
278.63469
278.65543
278.6767
278.69849
278.72083
278.74372
278.76716
278.79117
278.81575
278.84092
278.86667
278.89301
278.91996
278.94752
278.97569
279.00448
279.0339
279.06396
279.09465
279.12598
279.15796
279.19058
279.22386
279.2578
279.29239
279.32765
279.36356
279.40014
279.43738
279.47527
279.51383
279.55305
279.59292
279.63344
279.67461
279.71642
279.75887
279.80195
279.84566
279.88998
279.93491
279.98044
280.02656
280.07326
280.12053
280.16834
280.2167
280.26559
280.31499
280.36489
280.41527
280.46612
280.51741
280.56913
280.62127
280.67379
280.72669
280.77993
280.83351
280.8874
280.94157
280.996
281.05068
281.10557
281.16066
281.21592
281.27132
281.32684
281.38246
281.43816
281.4939
281.54966
281.60542
281.66116
281.71684
281.77245
281.82795
281.88333
281.93857
281.99363
282.04849
282.10314
282.15755
282.21169
282.26555
282.31911
282.37234
282.42522
282.47774
282.52987
282.5816
282.63292
282.68379
282.73422
282.78417
282.83364
282.88262
282.93108
282.97902
283.02642
283.07328
283.11958
283.16531
283.21047
283.25504
283.29902
283.3424
283.38518
283.42734
283.46889
283.50982
283.55012
283.5898
283.62885
283.66726
283.70505
283.7422
283.77872
283.81461
283.84986
283.88448
283.91848
283.95185
283.9846
284.01673
284.04824
284.07913
284.10942
284.13911
284.1682
284.1967
284.2246
284.25193
284.27868
284.30486
284.33048
284.35554
284.38006
284.40403
284.42747
284.45037
284.47276
284.49464
284.51601
284.53689
284.55727
284.57718
284.59661
284.61558
284.63408
284.65214
284.66976
284.68695
284.7037
284.72005
284.73598
284.75151
284.76665
284.7814
284.79577
284.80977
284.82341
284.83669
284.84963
284.86223
284.87449
284.88643
284.89805
284.90936
284.92036
284.93107
284.94149
284.95162
284.96148
284.97106
284.98038
284.98944
284.99825
285.00682
285.01514
285.02323
285.0311
285.03874
285.04616
285.05338
285.06038
285.06719
285.0738
285.08022
285.08646
285.09251
285.09839
285.1041
285.10964
285.11501
285.12023
285.1253
285.13022
285.13499
285.13962
285.14411
285.14846
285.15269
285.15679
285.16077
285.16462
285.16836
285.17199
285.17551
285.17892
285.18223
285.18543
285.18854
285.19155
285.19447
285.1973
285.20005
285.20271
285.20528
285.20778
285.2102
285.21254
285.21481
285.21701
285.21915
285.22121
285.22321
285.22515
285.22702
285.22884
285.2306
285.23231
285.23396
285.23556
285.2371
285.2386
285.24005
285.24146
285.24282
285.24414
285.24541
285.24665
285.24784
285.249
285.25012
285.2512
285.25225
285.25326
285.25425
285.2552
285.25612
285.25701
285.25787
285.2587
285.25951
285.26029
285.26105
285.26178
285.26248
285.26317
285.26383
285.26447
285.26509
285.26569
285.26627
285.26683
285.26738
285.2679
285.26841
285.2689
285.26938
285.26984
285.27028
285.27071
285.27113
285.27154
285.27193
285.2723
285.27267
285.27302
285.27336
285.2737
285.27402
285.27433
285.27463
285.27492
285.2752
285.27547
285.27573
285.27599
285.27624
285.27648
285.27671
285.27693
285.27715
285.27736
285.27757
285.27776
285.27796
285.27814
285.27832
285.2785
285.27866
285.27883
285.27899
285.27914
285.27929
285.27944
285.27958
285.27971
285.27984
285.27997
285.2801
285.28022
285.28034
285.28045
285.28056
285.28067
285.28078
285.28088
285.28098
285.28107
285.28117
285.28126
285.28135
285.28144
285.28152
285.2816
285.28169
285.28176
285.28184
285.28192
285.28199
285.28206
285.28213
285.2822
285.28227
285.28234
285.2824
285.28246
285.28253
285.28259
285.28265
285.28271
285.28277
285.28282
285.28288
285.28293
285.28299
285.28304
285.28309
285.28315
285.2832
285.28325
285.2833
285.28335
285.2834
285.28345
285.28349
285.28354
285.28359
285.28363
285.28368
285.28373
285.28377
285.28382
285.28386
285.28391
285.28395
285.284
285.28404
285.28409
285.28413
285.28417
285.28422
285.28426
285.2843
285.28435
285.28439
285.28443
285.28448
285.28452
285.28456
285.28461
285.28465
285.2847
285.28474
285.28478
285.28483
285.28487
285.28492
285.28496
285.28501
285.28505
285.2851
285.28514
285.28519
285.28523
285.28528
285.28532
285.28537
285.28541
285.28546
285.28551
285.28555
285.2856
285.28565
285.2857
285.28574
285.28579
285.28584
285.28589
285.28594
285.28599
285.28603
285.28608
285.28613
285.28618
285.28624
285.28629
285.28634
285.28639
285.28644
285.28649
285.28655
285.2866
285.28665
285.28671
285.28676
285.28681
285.28687
285.28692
285.28698
285.28704
285.28709
285.28715
285.28721
285.28726
285.28732
285.28738
285.28744
285.2875
285.28756
285.28762
285.28768
285.28774
285.2878
285.28786
285.28792
285.28798
285.28804
285.28811
285.28817
285.28823
285.2883
285.28836
285.28843
285.28849
285.28856
285.28862
285.28869
285.28876
285.28883
285.28889
285.28896
285.28903
285.2891
285.28917
285.28924
285.28931
285.28938
285.28945
285.28953
285.2896
285.28967
285.28974
285.28982
285.28989
285.28997
285.29004
285.29012
285.29019
285.29027
285.29035
285.29043
285.2905
285.29058
285.29066
285.29074
285.29082
285.2909
285.29098
285.29106
285.29114
285.29123
285.29131
285.29139
285.29147
285.29156
285.29164
285.29173
285.29181
285.2919
285.29198
285.29207
285.29216
285.29225
285.29233
285.29242
285.29251
285.2926
285.29269
285.29278
285.29287
285.29296
285.29306
285.29315
285.29324
285.29334
285.29343
285.29352
285.29362
285.29371
285.29381
285.29391
285.294
285.2941
285.2942
285.29429
285.29439
285.29449
285.29459
285.29469
285.29479
285.29489
285.29499
285.2951
285.2952
285.2953
285.29541
285.29551
285.29561
285.29572
285.29582
285.29593
285.29604
285.29614
285.29625
285.29636
285.29647
285.29657
285.29668
285.29679
285.2969
285.29701
285.29712
285.29723
285.29735
285.29746
285.29757
285.29768
285.2978
285.29791
285.29802
285.29814
285.29825
285.29837
285.29849
285.2986
285.29872
285.29884
285.29895
285.29907
285.29919
285.29931
285.29943
285.29955
285.29967
285.29979
285.29991
285.30003
285.30015
285.30028
285.3004
285.30052
285.30065
285.30077
285.30089
285.30102
285.30114
285.30127
285.3014
285.30152
285.30165
285.30177
285.3019
285.30203
285.30216
285.30228
285.30241
285.30254
285.30267
285.3028
285.30293
285.30306
285.30319
285.30332
285.30346
285.30359
285.30372
285.30385
285.30398
285.30412
285.30425
285.30438
285.30452
285.30465
285.30479
285.30492
285.30506
285.30519
285.30533
285.30546
285.3056
285.30573
285.30587
285.30601
285.30614
285.30628
285.30642
285.30655
285.30669
285.30683
285.30697
285.3071
285.30724
285.30738
285.30752
285.30766
285.3078
285.30793
285.30807
285.30821
285.30835
285.30849
285.30863
285.30877
285.30891
285.30905
285.30919
285.30933
285.30947
285.30961
285.30975
285.30989
285.31003
285.31017
285.3103
285.31044
285.31058
285.31072
285.31086
285.311
285.31114
285.31128
285.31142
285.31156
285.3117
285.31184
285.31198
285.31212
285.31226
285.3124
285.31254
285.31268
285.31282
285.31296
285.3131
285.31324
285.31338
285.31352
285.31366
285.3138
285.31394
285.31408
285.31422
285.31436
285.3145
285.31464
285.31478
285.31493
285.31507
285.31521
285.31535
285.31549
285.31564
285.31578
285.31592
285.31607
285.31621
285.31636
285.3165
285.31665
285.31679
285.31694
285.31709
285.31724
285.31739
285.31754
285.31769
285.31784
285.318
285.31815
285.31831
285.31846
285.31862
285.31878
285.31894
285.3191
285.31926
285.31942
285.31958
285.31975
285.31991
285.32008
285.32025
285.32042
285.32059
285.32076
285.32093
285.32111
285.32128
285.32146
285.32164
285.32182
285.322
285.32218
285.32236
285.32255
285.32274
285.32292
285.32311
285.3233
285.32349
285.32368
285.32388
285.32407
285.32426
285.32446
285.32466
285.32486
285.32506
285.32526
285.32546
285.32566
285.32586
285.32606
285.32627
285.32647
285.32668
285.32689
285.32709
285.3273
285.32751
285.32772
285.32792
285.32813
285.32834
285.32855
285.32876
285.32897
285.32918
285.32939
285.3296
285.32981
285.33002
285.33023
285.33044
285.33065
285.33086
285.33108
285.33129
285.3315
285.33171
285.33192
285.33213
285.33234
285.33255
285.33276
285.33297
285.33318
285.33339
285.33359
285.3338
285.33401
285.33422
285.33442
285.33463
285.33484
285.33504
285.33525
285.33546
285.33566
285.33586
285.33607
285.33627
285.33648
285.33668
285.33688
285.33708
285.33728
285.33749
285.33769
285.33789
285.33809
285.33829
285.33849
285.33869
285.33888
285.33908
285.33928
285.33948
285.33967
285.33987
285.34007
285.34026
285.34046
285.34065
285.34085
285.34104
285.34124
285.34143
285.34162
285.34181
285.34201
285.3422
285.34239
285.34258
285.34277
285.34296
285.34315
285.34334
285.34353
285.34372
285.34391
285.3441
285.34429
285.34447
285.34466
285.34485
285.34503
285.34522
285.34541
285.34559
285.34578
285.34597
285.34615
285.34634
285.34652
285.34671
285.34689
285.34707
285.34726
285.34744
285.34762
285.34781
285.34799
285.34817
285.34836
285.34854
285.34872
285.3489
285.34909
285.34927
285.34945
285.34963
285.34981
285.35
285.35018
285.35036
285.35054
285.35072
285.3509
285.35108
285.35126
285.35144
285.35162
285.3518
285.35198
285.35216
285.35234
285.35252
285.3527
285.35288
285.35306
285.35324
285.35342
285.3536
285.35378
285.35396
285.35414
285.35432
285.3545
285.35468
285.35486
285.35504
285.35522
285.3554
285.35557
285.35575
285.35593
285.35611
285.35629
285.35647
285.35665
285.35683
285.35701
285.35719
285.35737
285.35755
285.35773
285.35791
285.35809
285.35827
285.35846
285.35864
285.35882
285.359
285.35918
285.35936
285.35955
285.35973
285.35991
285.36009
285.36027
285.36046
285.36064
285.36082
285.36101
285.36119
285.36137
285.36156
285.36174
285.36193
285.36211
285.36229
285.36248
285.36266
285.36284
285.36303
285.36321
285.3634
285.36358
285.36377
285.36395
285.36414
285.36432
285.36451
285.36469
285.36488
285.36506
285.36525
285.36543
285.36561
285.3658
285.36598
285.36616
285.36635
285.36653
285.36671
285.36689
285.36707
285.36725
285.36743
285.36761
285.36779
285.36797
285.36814
285.36832
285.36849
285.36867
285.36884
285.36901
285.36918
285.36935
285.36952
285.36969
285.36986
285.37003
285.37019
285.37036
285.37052
285.37068
285.37084
285.371
285.37116
285.37132
285.37147
285.37162
285.37178
285.37193
285.37208
285.37222
285.37237
285.37251
285.37266
285.3728
285.37294
285.37308
285.37322
285.37336
285.3735
285.37363
285.37377
285.3739
285.37403
285.37416
285.37429
285.37442
285.37455
285.37468
285.3748
285.37493
285.37505
285.37518
285.3753
285.37542
285.37554
285.37566
285.37578
285.3759
285.37602
285.37613
285.37625
285.37637
285.37648
285.3766
285.37671
285.37683
285.37694
285.37706
285.37717
285.37728
285.37739
285.3775
285.37761
285.37772
285.37783
285.37794
285.37804
285.37815
285.37826
285.37836
285.37847
285.37857
285.37868
285.37878
285.37888
285.37898
285.37908
285.37918
285.37928
285.37938
285.37948
285.37957
285.37967
285.37976
285.37986
285.37995
285.38004
285.38013
285.38023
285.38032
285.3804
285.38049
285.38058
285.38067
285.38075
285.38084
285.38092
285.381
285.38109
285.38117
285.38125
285.38133
285.38141
285.38149
285.38157
285.38165
285.38173
285.38181
285.38189
285.38196
285.38204
285.38212
285.38219
285.38227
285.38234
285.38241
285.38249
285.38256
285.38263
285.38271
285.38278
285.38285
285.38293
285.383
285.38307
285.38315
285.38322
285.38329
285.38337
285.38344
285.38351
285.38359
285.38366
285.38373
285.38381
285.38388
285.38395
285.38403
285.3841
285.38417
285.38425
285.38432
285.38439
285.38447
285.38454
285.38461
285.38469
285.38476
285.38484
285.38491
285.38499
285.38507
285.38515
285.38522
285.3853
285.38538
285.38546
285.38554
285.38562
285.3857
285.38578
285.38586
285.38594
285.38602
285.3861
285.38618
285.38626
285.38635
285.38643
285.38651
285.38659
285.38668
285.38676
285.38685
285.38693
285.38702
285.3871
285.38718
285.38727
285.38735
285.38744
285.38753
285.38762
285.3877
285.38779
285.38788
285.38796
285.38805
285.38814
285.38823
285.38832
285.38841
285.3885
285.38859
285.38868
285.38877
285.38887
285.38896
285.38905
285.38914
285.38924
285.38933
285.38943
285.38952
285.38962
285.38971
285.38981
285.38991
285.39001
285.39011
285.39021
285.39031
285.39041
285.39051
285.39061
285.39072
285.39082
285.39093
285.39103
285.39114
285.39124
285.39135
285.39146
285.39157
285.39168
285.39179
285.3919
285.39202
285.39213
285.39225
285.39236
285.39248
285.3926
285.39271
285.39283
285.39296
285.39308
285.39321
285.39333
285.39346
285.39359
285.39371
285.39384
285.39398
285.39411
285.39425
285.39439
285.39452
285.39466
285.3948
285.39494
285.39508
285.39523
285.39537
285.39551
285.39566
285.3958
285.39595
285.3961
285.39625
285.39639
285.39654
285.39669
285.39683
285.39697
285.39712
285.39726
285.3974
285.39753
285.39766
285.39779
285.39791
285.39803
285.39815
285.39825
285.39835
285.39845
285.39853
285.39862
285.3987
285.39876
285.39883
285.39888
285.39893
285.39898
285.39903
285.39907
285.39911
285.39915
285.39918
285.39922
285.39926
285.3993
285.39935
285.3994
285.39946
285.39952
285.3996
285.39969
285.3998
285.39992
285.40007
285.40024
285.40043
285.40065
285.40088
285.40112
285.40139
285.40166
285.40195
285.40225
285.40256
285.40287
285.40319
285.40351
285.40384
285.40415
285.40446
285.40477
285.40506
285.40535
285.40562
285.40588
285.40616
285.40646
285.40685
285.40742
285.40837
285.41002
285.41293
285.41805
285.4269
285.44182
285.46631
285.5054
285.56591
285.65666
285.78832
285.97289
286.22262
286.54839
286.95788
287.45379
288.03273
288.6853
289.39753
290.1533
290.93701
291.73524
292.53694
293.3321
294.11025
294.86001
295.57034
296.2327
296.8424
297.39802
297.89952
298.34681
298.74015
299.08154
299.37515
299.62605
299.83847
300.01584
300.16202
300.28176
300.37954
300.45853
300.52119
300.57041
300.60922
300.63967
300.66289
300.68031
300.69361
300.70381
300.71119
300.71636
300.72029
300.72332
300.72522
300.72638
300.72753
300.7281
300.72838
300.72881
300.72901
300.72907
300.7292
300.72924
300.72925
300.72934
300.72935
300.72942
300.72959
300.72962
300.72972
300.72994
300.73
300.73011
300.73029
300.73036
300.73055
300.73061
300.73081
300.73088
300.73109
300.73116
300.73139
300.73147
300.73174
300.73184
300.73212
300.7323
300.73258
300.73284
300.73314
300.73346
300.73382
300.7342
300.73461
300.73505
300.73552
300.73602
300.73655
300.73711
300.7377
300.73832
300.73896
300.73964
300.74034
300.74107
300.74183
300.74261
300.74341
300.74425
300.7451
300.74598
300.74689
300.74781
300.74876
300.74974
300.75074
300.75176
300.7528
300.75387
300.75496
300.75607
300.75721
300.75837
300.75955
300.76076
300.76199
300.76324
300.76452
300.76582
300.76714
300.76849
300.76986
300.77126
300.77268
300.77413
300.7756
300.7771
300.77862
300.78017
300.78174
300.78334
300.78497
300.78662
300.7883
300.79
300.79174
300.79349
300.79528
300.79709
300.79894
300.8008
300.8027
300.80463
300.80658
300.80857
300.81058
300.81262
300.81469
300.81679
300.81892
300.82108
300.82327
300.82549
300.82774
300.83002
300.83233
300.83467
300.83705
300.83945
300.84189
300.84436
300.84686
300.8494
300.85196
300.85456
300.85719
300.85986
300.86255
300.86528
300.86805
300.87084
300.87367
300.87654
300.87944
300.88237
300.88534
300.88834
300.89138
300.89446
300.89756
300.90071
300.90389
300.9071
300.91035
300.91364
300.91696
300.92032
300.92372
300.92715
300.93062
300.93412
300.93767
300.94125
300.94486
300.94852
300.95221
300.95594
300.95971
300.96351
300.96736
300.97124
300.97516
300.97912
300.98312
300.98715
300.99122
300.99534
300.99949
301.00368