/*--------------------------------*- C++ -*----------------------------------*\
  =========                 |
  \\      /  F ield         | OpenFOAM: The Open Source CFD Toolbox
   \\    /   O peration     | Website:  https://openfoam.org
    \\  /    A nd           | Version:  7
     \\/     M anipulation  |
\*---------------------------------------------------------------------------*/
FoamFile
{
    version     2.0;
    format      ascii;
    class       volScalarField;
    location    "0.0011";
    object      p;
}
// * * * * * * * * * * * * * * * * * * * * * * * * * * * * * * * * * * * * * //

dimensions      [1 -1 -2 0 0 0 0];

internalField   nonuniform List<scalar> 
5000
(
120000
120000
120000
120000
120000
120000
120000
120000
120000
120000
120000
120000
120000
120000
120000
120000
120000
120000
120000
120000
120000
120000
120000
120000
120000
120000
120000
120000
120000
120000
120000
120000
120000
120000
120000
120000
120000
120000
120000
120000
120000
120000
120000
120000
120000
120000
120000
120000
120000
120000
120000
120000
120000
120000
120000
120000
120000
120000
120000
120000
120000
120000
120000
120000
120000
120000
120000
120000
120000
120000
120000
120000
120000
120000
120000
120000
120000
120000
120000
120000
120000
120000
120000
120000
120000
120000
120000
120000
120000
120000
120000
120000
120000
120000
120000
120000
120000
120000
120000
120000
120000
120000
120000
120000
120000
120000
120000
120000
120000
120000
120000
120000
120000
120000
120000
120000
120000
120000
120000
120000
120000
120000
120000
120000
120000
120000
120000
120000
120000
120000
120000
120000
120000
120000
120000
120000
120000
120000
120000
120000
120000
120000
120000
120000
120000
120000
120000
120000
120000
120000
120000
120000
120000
120000
120000
120000
120000
120000
120000
120000
120000
120000
120000
120000
120000
120000
120000
120000
120000
120000
120000
120000
120000
120000
120000
120000
120000
120000
120000
120000
120000
120000
120000
120000
120000
120000
120000
120000
120000
120000
120000
120000
120000
120000
120000
120000
120000
120000
120000
120000
120000
120000
120000
120000
120000
120000
120000
120000
120000
120000
120000
120000
120000
120000
120000
120000
120000
120000
120000
120000
120000
120000
120000
120000
120000
120000
120000
120000
120000
120000
120000
120000
120000
120000
120000
120000
120000
120000
120000
120000
120000
120000
120000
120000
120000
120000
120000
120000
120000
120000
120000
120000
120000
120000
120000
120000
120000
120000
120000
120000
120000
120000
120000
120000
120000
120000
120000
120000
120000
119999.99
119999.99
119999.99
119999.99
119999.99
119999.99
119999.99
119999.99
119999.99
119999.99
119999.99
119999.99
119999.99
119999.99
119999.99
119999.99
119999.99
119999.98
119999.98
119999.98
119999.98
119999.98
119999.98
119999.98
119999.98
119999.97
119999.97
119999.97
119999.97
119999.97
119999.96
119999.96
119999.96
119999.96
119999.95
119999.95
119999.95
119999.95
119999.94
119999.94
119999.93
119999.93
119999.93
119999.92
119999.92
119999.91
119999.91
119999.9
119999.9
119999.89
119999.88
119999.88
119999.87
119999.86
119999.85
119999.84
119999.83
119999.82
119999.81
119999.8
119999.79
119999.78
119999.77
119999.75
119999.74
119999.72
119999.71
119999.69
119999.67
119999.66
119999.64
119999.62
119999.6
119999.57
119999.55
119999.52
119999.5
119999.47
119999.44
119999.41
119999.38
119999.34
119999.31
119999.27
119999.23
119999.19
119999.14
119999.1
119999.05
119999
119998.95
119998.89
119998.83
119998.77
119998.71
119998.64
119998.57
119998.5
119998.42
119998.34
119998.25
119998.16
119998.07
119997.97
119997.87
119997.76
119997.65
119997.53
119997.41
119997.28
119997.14
119997
119996.86
119996.7
119996.54
119996.37
119996.2
119996.01
119995.82
119995.62
119995.41
119995.2
119994.97
119994.73
119994.48
119994.23
119993.96
119993.68
119993.38
119993.08
119992.76
119992.43
119992.08
119991.72
119991.35
119990.96
119990.55
119990.13
119989.69
119989.24
119988.76
119988.27
119987.75
119987.22
119986.66
119986.09
119985.49
119984.87
119984.22
119983.55
119982.85
119982.13
119981.38
119980.6
119979.79
119978.95
119978.09
119977.18
119976.25
119975.28
119974.28
119973.24
119972.17
119971.05
119969.9
119968.71
119967.47
119966.2
119964.87
119963.51
119962.09
119960.63
119959.12
119957.56
119955.94
119954.27
119952.55
119950.77
119948.94
119947.04
119945.08
119943.06
119940.98
119938.83
119936.61
119934.33
119931.97
119929.54
119927.04
119924.46
119921.8
119919.07
119916.25
119913.35
119910.36
119907.29
119904.13
119900.88
119897.53
119894.09
119890.55
119886.92
119883.18
119879.34
119875.4
119871.35
119867.18
119862.91
119858.53
119854.03
119849.41
119844.67
119839.81
119834.82
119829.71
119824.47
119819.1
119813.59
119807.95
119802.17
119796.26
119790.19
119783.99
119777.64
119771.14
119764.49
119757.68
119750.72
119743.6
119736.32
119728.88
119721.27
119713.5
119705.56
119697.44
119689.15
119680.69
119672.05
119663.23
119654.22
119645.04
119635.66
119626.1
119616.35
119606.4
119596.26
119585.92
119575.39
119564.65
119553.71
119542.57
119531.22
119519.66
119507.89
119495.92
119483.72
119471.32
119458.69
119445.85
119432.79
119419.5
119406
119392.27
119378.31
119364.12
119349.71
119335.07
119320.19
119305.08
119289.74
119274.17
119258.35
119242.3
119226.02
119209.49
119192.72
119175.71
119158.46
119140.97
119123.24
119105.26
119087.03
119068.56
119049.84
119030.88
119011.67
118992.21
118972.51
118952.56
118932.36
118911.91
118891.21
118870.26
118849.07
118827.63
118805.93
118783.99
118761.8
118739.37
118716.68
118693.75
118670.56
118647.14
118623.46
118599.54
118575.37
118550.96
118526.3
118501.4
118476.26
118450.87
118425.24
118399.37
118373.26
118346.91
118320.33
118293.5
118266.44
118239.15
118211.62
118183.86
118155.86
118127.64
118099.18
118070.5
118041.59
118012.46
117983.11
117953.53
117923.73
117893.71
117863.47
117833.02
117802.35
117771.47
117740.38
117709.08
117677.58
117645.86
117613.94
117581.82
117549.5
117516.98
117484.27
117451.36
117418.25
117384.96
117351.48
117317.81
117283.95
117249.91
117215.7
117181.3
117146.73
117111.98
117077.06
117041.97
117006.72
116971.3
116935.71
116899.97
116864.06
116828
116791.79
116755.42
116718.91
116682.25
116645.44
116608.49
116571.41
116534.18
116496.82
116459.33
116421.71
116383.96
116346.08
116308.08
116269.97
116231.73
116193.38
116154.92
116116.35
116077.67
116038.88
116000
115961.01
115921.93
115882.75
115843.48
115804.12
115764.68
115725.15
115685.53
115645.84
115606.08
115566.24
115526.33
115486.35
115446.31
115406.2
115366.03
115325.81
115285.53
115245.2
115204.82
115164.39
115123.92
115083.41
115042.86
115002.28
114961.66
114921.01
114880.34
114839.64
114798.91
114758.17
114717.41
114676.64
114635.86
114595.07
114554.28
114513.48
114472.68
114431.89
114391.1
114350.32
114309.56
114268.8
114228.07
114187.36
114146.66
114106
114065.36
114024.76
113984.19
113943.65
113903.16
113862.71
113822.31
113781.95
113741.65
113701.4
113661.21
113621.08
113581.01
113541.01
113501.08
113461.22
113421.44
113381.73
113342.1
113302.56
113263.1
113223.74
113184.46
113145.29
113106.21
113067.23
113028.35
112989.59
112950.93
112912.38
112873.95
112835.64
112797.46
112759.39
112721.46
112683.65
112645.98
112608.44
112571.05
112533.79
112496.68
112459.72
112422.91
112386.25
112349.75
112313.41
112277.23
112241.21
112205.37
112169.69
112134.19
112098.86
112063.71
112028.75
111993.97
111959.37
111924.97
111890.76
111856.74
111822.93
111789.31
111755.9
111722.69
111689.7
111656.91
111624.34
111591.98
111559.84
111527.93
111496.23
111464.77
111433.53
111402.52
111371.75
111341.21
111310.91
111280.85
111251.03
111221.45
111192.12
111163.04
111134.21
111105.64
111077.31
111049.25
111021.44
110993.89
110966.6
110939.57
110912.81
110886.32
110860.09
110834.14
110808.45
110783.04
110757.89
110733.03
110708.44
110684.12
110660.09
110636.33
110612.85
110589.65
110566.74
110544.1
110521.75
110499.69
110477.9
110456.4
110435.18
110414.25
110393.61
110373.25
110353.17
110333.38
110313.87
110294.65
110275.71
110257.06
110238.69
110220.61
110202.8
110185.28
110168.04
110151.08
110134.4
110118
110101.88
110086.03
110070.46
110055.16
110040.14
110025.38
110010.9
109996.68
109982.73
109969.05
109955.63
109942.46
109929.56
109916.92
109904.53
109892.4
109880.51
109868.88
109857.49
109846.34
109835.44
109824.78
109814.35
109804.16
109794.2
109784.47
109774.96
109765.68
109756.62
109747.77
109739.14
109730.73
109722.52
109714.52
109706.72
109699.12
109691.72
109684.52
109677.5
109670.67
109664.03
109657.57
109651.29
109645.18
109639.25
109633.48
109627.89
109622.45
109617.17
109612.05
109607.09
109602.27
109597.6
109593.08
109588.69
109584.44
109580.33
109576.35
109572.5
109568.78
109565.17
109561.69
109558.32
109555.07
109551.93
109548.9
109545.97
109543.15
109540.42
109537.79
109535.26
109532.82
109530.47
109528.21
109526.03
109523.93
109521.91
109519.97
109518.1
109516.31
109514.58
109512.93
109511.34
109509.81
109508.35
109506.94
109505.59
109504.3
109503.06
109501.88
109500.74
109499.66
109498.62
109497.62
109496.67
109495.76
109494.89
109494.06
109493.27
109492.51
109491.79
109491.1
109490.44
109489.81
109489.22
109488.65
109488.11
109487.59
109487.1
109486.63
109486.19
109485.76
109485.36
109484.98
109484.62
109484.28
109483.95
109483.64
109483.35
109483.07
109482.8
109482.56
109482.32
109482.09
109481.88
109481.68
109481.49
109481.31
109481.15
109480.99
109480.83
109480.69
109480.56
109480.43
109480.31
109480.2
109480.09
109479.99
109479.9
109479.81
109479.73
109479.65
109479.58
109479.51
109479.45
109479.39
109479.33
109479.28
109479.23
109479.18
109479.14
109479.1
109479.06
109479.02
109478.99
109478.96
109478.93
109478.91
109478.88
109478.86
109478.84
109478.82
109478.8
109478.78
109478.77
109478.76
109478.74
109478.73
109478.72
109478.71
109478.7
109478.69
109478.69
109478.68
109478.67
109478.66
109478.66
109478.65
109478.64
109478.63
109478.62
109478.61
109478.6
109478.59
109478.58
109478.57
109478.56
109478.55
109478.53
109478.52
109478.51
109478.5
109478.49
109478.48
109478.47
109478.46
109478.45
109478.44
109478.43
109478.43
109478.42
109478.41
109478.4
109478.4
109478.39
109478.39
109478.38
109478.38
109478.38
109478.38
109478.37
109478.37
109478.36
109478.36
109478.35
109478.34
109478.34
109478.33
109478.33
109478.32
109478.31
109478.3
109478.3
109478.29
109478.28
109478.27
109478.26
109478.25
109478.25
109478.24
109478.23
109478.22
109478.22
109478.21
109478.2
109478.2
109478.19
109478.18
109478.18
109478.17
109478.16
109478.16
109478.15
109478.15
109478.14
109478.14
109478.13
109478.13
109478.13
109478.12
109478.12
109478.12
109478.11
109478.11
109478.1
109478.1
109478.1
109478.09
109478.09
109478.08
109478.08
109478.07
109478.07
109478.06
109478.06
109478.05
109478.05
109478.04
109478.04
109478.03
109478.03
109478.02
109478.02
109478.01
109478.01
109478
109477.99
109477.99
109477.98
109477.98
109477.98
109477.97
109477.97
109477.97
109477.96
109477.96
109477.96
109477.95
109477.95
109477.94
109477.94
109477.94
109477.93
109477.93
109477.92
109477.92
109477.92
109477.91
109477.91
109477.91
109477.9
109477.9
109477.9
109477.89
109477.89
109477.89
109477.88
109477.88
109477.88
109477.87
109477.87
109477.87
109477.86
109477.86
109477.85
109477.85
109477.85
109477.84
109477.84
109477.83
109477.83
109477.83
109477.82
109477.82
109477.82
109477.82
109477.81
109477.81
109477.81
109477.8
109477.8
109477.8
109477.8
109477.8
109477.79
109477.79
109477.79
109477.79
109477.79
109477.79
109477.78
109477.78
109477.78
109477.78
109477.78
109477.78
109477.77
109477.77
109477.77
109477.77
109477.76
109477.76
109477.76
109477.76
109477.75
109477.75
109477.74
109477.74
109477.74
109477.73
109477.73
109477.72
109477.72
109477.72
109477.71
109477.71
109477.71
109477.7
109477.7
109477.69
109477.69
109477.69
109477.69
109477.69
109477.68
109477.68
109477.68
109477.68
109477.68
109477.68
109477.69
109477.69
109477.69
109477.69
109477.69
109477.69
109477.69
109477.7
109477.7
109477.7
109477.7
109477.7
109477.7
109477.7
109477.7
109477.7
109477.71
109477.71
109477.71
109477.71
109477.71
109477.71
109477.71
109477.71
109477.71
109477.71
109477.71
109477.7
109477.7
109477.7
109477.7
109477.7
109477.7
109477.7
109477.7
109477.7
109477.7
109477.7
109477.7
109477.7
109477.7
109477.7
109477.69
109477.69
109477.69
109477.69
109477.69
109477.69
109477.69
109477.69
109477.69
109477.69
109477.69
109477.69
109477.69
109477.69
109477.69
109477.69
109477.69
109477.7
109477.7
109477.7
109477.7
109477.7
109477.7
109477.7
109477.7
109477.71
109477.71
109477.71
109477.71
109477.71
109477.71
109477.71
109477.71
109477.71
109477.72
109477.72
109477.72
109477.72
109477.72
109477.72
109477.72
109477.72
109477.72
109477.73
109477.73
109477.73
109477.73
109477.73
109477.73
109477.73
109477.74
109477.74
109477.74
109477.74
109477.74
109477.74
109477.74
109477.74
109477.75
109477.75
109477.75
109477.75
109477.75
109477.75
109477.75
109477.76
109477.76
109477.76
109477.76
109477.76
109477.76
109477.76
109477.76
109477.76
109477.76
109477.77
109477.77
109477.77
109477.77
109477.77
109477.77
109477.77
109477.77
109477.77
109477.77
109477.77
109477.77
109477.77
109477.77
109477.77
109477.78
109477.78
109477.78
109477.78
109477.78
109477.78
109477.78
109477.78
109477.78
109477.78
109477.78
109477.78
109477.78
109477.78
109477.78
109477.79
109477.79
109477.79
109477.79
109477.79
109477.79
109477.79
109477.79
109477.79
109477.79
109477.79
109477.79
109477.79
109477.79
109477.79
109477.8
109477.8
109477.8
109477.8
109477.8
109477.8
109477.8
109477.8
109477.8
109477.8
109477.8
109477.8
109477.8
109477.8
109477.8
109477.81
109477.81
109477.81
109477.81
109477.81
109477.81
109477.81
109477.81
109477.81
109477.81
109477.81
109477.81
109477.82
109477.82
109477.82
109477.82
109477.82
109477.82
109477.82
109477.82
109477.82
109477.82
109477.83
109477.83
109477.83
109477.83
109477.83
109477.83
109477.83
109477.83
109477.83
109477.83
109477.84
109477.84
109477.84
109477.84
109477.84
109477.84
109477.84
109477.84
109477.84
109477.84
109477.84
109477.84
109477.85
109477.85
109477.85
109477.85
109477.85
109477.85
109477.85
109477.85
109477.85
109477.85
109477.85
109477.85
109477.85
109477.85
109477.85
109477.86
109477.86
109477.86
109477.86
109477.86
109477.86
109477.86
109477.86
109477.86
109477.86
109477.86
109477.86
109477.86
109477.86
109477.87
109477.87
109477.87
109477.87
109477.87
109477.87
109477.87
109477.87
109477.87
109477.87
109477.87
109477.87
109477.87
109477.87
109477.88
109477.88
109477.88
109477.88
109477.88
109477.88
109477.88
109477.88
109477.88
109477.88
109477.88
109477.88
109477.88
109477.88
109477.89
109477.89
109477.89
109477.89
109477.89
109477.89
109477.89
109477.89
109477.89
109477.89
109477.89
109477.89
109477.89
109477.89
109477.89
109477.89
109477.89
109477.89
109477.9
109477.9
109477.9
109477.9
109477.9
109477.9
109477.9
109477.9
109477.9
109477.9
109477.9
109477.9
109477.9
109477.9
109477.9
109477.9
109477.9
109477.9
109477.91
109477.91
109477.91
109477.91
109477.91
109477.91
109477.91
109477.91
109477.91
109477.91
109477.91
109477.91
109477.91
109477.91
109477.92
109477.92
109477.92
109477.92
109477.92
109477.92
109477.92
109477.92
109477.92
109477.92
109477.92
109477.92
109477.92
109477.93
109477.93
109477.93
109477.93
109477.93
109477.93
109477.93
109477.93
109477.93
109477.93
109477.93
109477.93
109477.93
109477.93
109477.94
109477.94
109477.94
109477.94
109477.94
109477.94
109477.94
109477.94
109477.94
109477.94
109477.94
109477.94
109477.94
109477.94
109477.94
109477.94
109477.95
109477.95
109477.95
109477.95
109477.95
109477.95
109477.95
109477.95
109477.95
109477.95
109477.95
109477.95
109477.95
109477.95
109477.95
109477.95
109477.96
109477.96
109477.96
109477.96
109477.96
109477.96
109477.96
109477.96
109477.96
109477.96
109477.96
109477.96
109477.96
109477.96
109477.96
109477.96
109477.96
109477.96
109477.96
109477.96
109477.96
109477.96
109477.96
109477.96
109477.96
109477.96
109477.97
109477.97
109477.97
109477.97
109477.97
109477.97
109477.97
109477.97
109477.97
109477.97
109477.97
109477.97
109477.97
109477.97
109477.97
109477.97
109477.97
109477.97
109477.97
109477.97
109477.97
109477.97
109477.97
109477.97
109477.97
109477.97
109477.97
109477.97
109477.97
109477.97
109477.97
109477.97
109477.97
109477.97
109477.97
109477.97
109477.97
109477.97
109477.97
109477.97
109477.97
109477.97
109477.97
109477.97
109477.98
109477.98
109477.98
109477.98
109477.98
109477.98
109477.98
109477.98
109477.98
109477.98
109477.98
109477.98
109477.98
109477.98
109477.98
109477.98
109477.98
109477.98
109477.99
109477.99
109477.99
109477.99
109477.99
109477.99
109477.99
109477.99
109477.99
109477.99
109477.99
109477.99
109477.99
109477.99
109477.99
109477.99
109477.99
109477.99
109477.99
109477.99
109478
109478
109478
109478
109478
109478
109478
109478
109478
109478
109478
109478
109478
109478
109478
109478
109478
109478
109478
109478
109478
109478
109478
109478
109478
109478
109478.01
109478.01
109478.01
109478.01
109478.01
109478.01
109478.01
109478.01
109478.01
109478.01
109478.01
109478.01
109478.01
109478.01
109478.01
109478.01
109478.01
109478.01
109478.01
109478.01
109478.01
109478.01
109478.01
109478.01
109478.01
109478.01
109478.01
109478.01
109478.01
109478.01
109478.02
109478.02
109478.02
109478.02
109478.02
109478.02
109478.02
109478.02
109478.02
109478.02
109478.02
109478.02
109478.02
109478.02
109478.02
109478.02
109478.02
109478.02
109478.02
109478.02
109478.02
109478.02
109478.02
109478.02
109478.02
109478.02
109478.02
109478.02
109478.02
109478.03
109478.03
109478.03
109478.03
109478.03
109478.03
109478.03
109478.03
109478.03
109478.03
109478.03
109478.03
109478.03
109478.03
109478.03
109478.03
109478.03
109478.03
109478.03
109478.03
109478.03
109478.03
109478.03
109478.03
109478.03
109478.03
109478.03
109478.03
109478.03
109478.03
109478.03
109478.04
109478.04
109478.04
109478.04
109478.04
109478.04
109478.04
109478.04
109478.04
109478.04
109478.04
109478.04
109478.04
109478.04
109478.04
109478.04
109478.04
109478.04
109478.04
109478.04
109478.04
109478.04
109478.04
109478.04
109478.04
109478.04
109478.04
109478.04
109478.04
109478.04
109478.04
109478.04
109478.04
109478.04
109478.04
109478.05
109478.05
109478.05
109478.05
109478.05
109478.05
109478.05
109478.05
109478.05
109478.05
109478.05
109478.05
109478.05
109478.05
109478.05
109478.05
109478.05
109478.05
109478.05
109478.05
109478.05
109478.05
109478.05
109478.05
109478.05
109478.05
109478.05
109478.05
109478.05
109478.05
109478.05
109478.05
109478.05
109478.05
109478.05
109478.05
109478.05
109478.05
109478.05
109478.05
109478.06
109478.06
109478.06
109478.06
109478.06
109478.06
109478.06
109478.06
109478.06
109478.06
109478.06
109478.06
109478.06
109478.06
109478.06
109478.06
109478.06
109478.06
109478.06
109478.06
109478.06
109478.06
109478.06
109478.06
109478.06
109478.06
109478.06
109478.06
109478.06
109478.06
109478.06
109478.06
109478.06
109478.06
109478.06
109478.06
109478.06
109478.06
109478.06
109478.06
109478.06
109478.06
109478.07
109478.07
109478.07
109478.07
109478.07
109478.07
109478.07
109478.07
109478.07
109478.07
109478.07
109478.07
109478.07
109478.07
109478.07
109478.07
109478.07
109478.07
109478.07
109478.07
109478.07
109478.07
109478.07
109478.07
109478.07
109478.08
109478.08
109478.08
109478.08
109478.08
109478.08
109478.08
109478.08
109478.08
109478.08
109478.08
109478.08
109478.08
109478.08
109478.08
109478.08
109478.08
109478.08
109478.08
109478.08
109478.08
109478.08
109478.08
109478.08
109478.08
109478.08
109478.08
109478.08
109478.08
109478.08
109478.08
109478.08
109478.08
109478.08
109478.08
109478.08
109478.08
109478.08
109478.08
109478.08
109478.08
109478.08
109478.08
109478.08
109478.08
109478.08
109478.08
109478.08
109478.08
109478.08
109478.08
109478.08
109478.08
109478.08
109478.08
109478.08
109478.08
109478.08
109478.08
109478.08
109478.08
109478.08
109478.08
109478.08
109478.08
109478.08
109478.08
109478.08
109478.08
109478.08
109478.08
109478.08
109478.08
109478.08
109478.08
109478.08
109478.08
109478.08
109478.08
109478.08
109478.08
109478.08
109478.08
109478.09
109478.09
109478.09
109478.09
109478.09
109478.09
109478.09
109478.09
109478.09
109478.09
109478.09
109478.09
109478.09
109478.09
109478.09
109478.09
109478.09
109478.09
109478.09
109478.09
109478.09
109478.09
109478.09
109478.09
109478.09
109478.09
109478.09
109478.09
109478.09
109478.09
109478.09
109478.09
109478.09
109478.09
109478.09
109478.09
109478.09
109478.09
109478.09
109478.09
109478.09
109478.09
109478.09
109478.09
109478.09
109478.09
109478.09
109478.09
109478.09
109478.09
109478.09
109478.09
109478.09
109478.1
109478.1
109478.1
109478.1
109478.1
109478.1
109478.1
109478.1
109478.1
109478.1
109478.1
109478.1
109478.1
109478.1
109478.1
109478.1
109478.1
109478.1
109478.1
109478.1
109478.1
109478.1
109478.1
109478.1
109478.1
109478.1
109478.1
109478.1
109478.1
109478.1
109478.1
109478.1
109478.1
109478.1
109478.1
109478.1
109478.1
109478.1
109478.1
109478.1
109478.1
109478.1
109478.1
109478.1
109478.1
109478.1
109478.1
109478.1
109478.1
109478.1
109478.1
109478.1
109478.1
109478.1
109478.1
109478.1
109478.1
109478.1
109478.1
109478.1
109478.1
109478.1
109478.1
109478.1
109478.1
109478.1
109478.1
109478.1
109478.1
109478.1
109478.1
109478.1
109478.1
109478.1
109478.1
109478.1
109478.1
109478.1
109478.1
109478.1
109478.1
109478.1
109478.1
109478.1
109478.1
109478.1
109478.1
109478.11
109478.11
109478.11
109478.11
109478.11
109478.11
109478.11
109478.11
109478.11
109478.11
109478.11
109478.11
109478.11
109478.11
109478.11
109478.11
109478.11
109478.11
109478.11
109478.11
109478.11
109478.11
109478.11
109478.11
109478.11
109478.11
109478.11
109478.11
109478.11
109478.11
109478.11
109478.11
109478.11
109478.11
109478.11
109478.11
109478.11
109478.11
109478.11
109478.11
109478.11
109478.11
109478.11
109478.11
109478.11
109478.11
109478.11
109478.11
109478.11
109478.11
109478.11
109478.11
109478.11
109478.11
109478.11
109478.11
109478.11
109478.11
109478.11
109478.11
109478.11
109478.11
109478.11
109478.11
109478.11
109478.11
109478.11
109478.11
109478.11
109478.11
109478.11
109478.12
109478.12
109478.12
109478.12
109478.12
109478.12
109478.12
109478.12
109478.12
109478.12
109478.12
109478.12
109478.12
109478.12
109478.12
109478.12
109478.12
109478.12
109478.12
109478.12
109478.12
109478.12
109478.12
109478.12
109478.12
109478.12
109478.12
109478.12
109478.12
109478.12
109478.12
109478.12
109478.12
109478.12
109478.12
109478.12
109478.12
109478.12
109478.12
109478.12
109478.12
109478.12
109478.13
109478.13
109478.13
109478.13
109478.13
109478.13
109478.13
109478.13
109478.13
109478.13
109478.13
109478.13
109478.13
109478.13
109478.13
109478.13
109478.13
109478.13
109478.13
109478.13
109478.13
109478.13
109478.13
109478.13
109478.13
109478.13
109478.13
109478.13
109478.13
109478.13
109478.13
109478.13
109478.13
109478.13
109478.13
109478.13
109478.13
109478.13
109478.13
109478.13
109478.13
109478.13
109478.13
109478.13
109478.13
109478.13
109478.13
109478.13
109478.13
109478.13
109478.13
109478.13
109478.13
109478.13
109478.13
109478.13
109478.13
109478.13
109478.13
109478.13
109478.13
109478.13
109478.13
109478.13
109478.13
109478.13
109478.13
109478.13
109478.13
109478.13
109478.13
109478.13
109478.13
109478.13
109478.13
109478.13
109478.13
109478.13
109478.13
109478.13
109478.13
109478.13
109478.13
109478.13
109478.13
109478.13
109478.13
109478.13
109478.13
109478.13
109478.13
109478.13
109478.13
109478.13
109478.13
109478.13
109478.13
109478.13
109478.13
109478.13
109478.13
109478.13
109478.13
109478.13
109478.13
109478.13
109478.13
109478.13
109478.13
109478.13
109478.13
109478.13
109478.13
109478.13
109478.13
109478.13
109478.13
109478.13
109478.13
109478.13
109478.13
109478.13
109478.13
109478.13
109478.13
109478.13
109478.13
109478.13
109478.13
109478.13
109478.13
109478.13
109478.13
109478.13
109478.13
109478.13
109478.13
109478.13
109478.13
109478.13
109478.13
109478.13
109478.13
109478.13
109478.13
109478.13
109478.13
109478.13
109478.13
109478.13
109478.13
109478.13
109478.13
109478.13
109478.13
109478.13
109478.13
109478.13
109478.13
109478.13
109478.13
109478.13
109478.13
109478.13
109478.13
109478.13
109478.13
109478.13
109478.13
109478.13
109478.13
109478.13
109478.13
109478.13
109478.13
109478.13
109478.13
109478.13
109478.13
109478.13
109478.13
109478.13
109478.13
109478.13
109478.13
109478.13
109478.13
109478.13
109478.13
109478.13
109478.13
109478.13
109478.13
109478.13
109478.13
109478.13
109478.13
109478.13
109478.13
109478.13
109478.13
109478.13
109478.13
109478.13
109478.13
109478.13
109478.13
109478.13
109478.13
109478.13
109478.13
109478.13
109478.13
109478.13
109478.13
109478.13
109478.13
109478.13
109478.13
109478.13
109478.13
109478.13
109478.13
109478.13
109478.13
109478.13
109478.13
109478.13
109478.13
109478.13
109478.13
109478.13
109478.13
109478.13
109478.13
109478.13
109478.13
109478.13
109478.13
109478.13
109478.13
109478.13
109478.13
109478.13
109478.13
109478.13
109478.13
109478.13
109478.13
109478.13
109478.13
109478.13
109478.14
109478.14
109478.14
109478.14
109478.14
109478.14
109478.14
109478.14
109478.14
109478.14
109478.14
109478.14
109478.14
109478.14
109478.14
109478.14
109478.14
109478.14
109478.14
109478.14
109478.14
109478.14
109478.14
109478.14
109478.14
109478.14
109478.14
109478.14
109478.14
109478.14
109478.14
109478.14
109478.14
109478.14
109478.14
109478.14
109478.14
109478.14
109478.14
109478.14
109478.14
109478.14
109478.14
109478.14
109478.14
109478.14
109478.14
109478.14
109478.14
109478.14
109478.14
109478.14
109478.14
109478.13
109478.13
109478.13
109478.13
109478.14
109478.14
109478.15
109478.16
109478.17
109478.18
109478.18
109478.18
109478.17
109478.18
109478.05
109478.11
109478.14
109478.13
109478.12
109478.12
109478.13
109478.13
109478.14
109478.14
109478.14
109478.14
109478.15
109478.15
109478.15
109478.15
109478.15
109478.14
109478.14
109478.14
109478.14
109478.14
109478.14
109478.14
109478.14
109478.14
109478.14
109478.14
109478.14
109478.14
109478.14
109478.14
109478.14
109478.14
109478.14
109478.14
109478.14
109478.14
109478.14
109478.14
109478.14
109478.14
109478.14
109478.14
109478.14
109478.14
109478.14
109478.14
109478.14
109478.14
109478.14
109478.14
109478.14
109478.14
109478.14
109478.14
109478.14
109478.14
109478.14
109478.14
109478.14
109478.14
109478.14
109478.14
109478.14
109478.14
109478.14
109478.14
109478.14
109478.14
109478.14
109478.14
109478.14
109478.14
109478.14
109478.14
109478.14
109478.14
109478.14
109478.14
109478.14
109478.14
109478.14
109478.14
109478.14
109478.14
109478.14
109478.14
109478.14
109478.14
109478.14
109478.14
109478.14
109478.14
109478.14
109478.14
109478.14
109478.14
109478.14
109478.14
109478.14
109478.14
109478.14
109478.14
109478.14
109478.14
109478.14
109478.14
109478.14
109478.14
109478.14
109478.14
109478.14
109478.14
109478.14
109478.14
109478.14
109478.14
109478.14
109478.14
109478.14
109478.14
109478.14
109478.14
109478.14
109478.14
109478.14
109478.14
109478.14
109478.14
109478.14
109478.14
109478.14
109478.14
109478.14
109478.14
109478.14
109478.14
109478.14
109478.14
109478.14
109478.14
109478.14
109478.14
109478.14
109478.14
109478.14
109478.14
109478.14
109478.14
109478.14
109478.14
109478.14
109478.14
109478.14
109478.14
109478.14
109478.14
109478.14
109478.14
109478.14
109478.14
109478.14
109478.14
109478.14
109478.14
109478.14
109478.14
109478.14
109478.14
109478.14
109478.14
109478.14
109478.14
109478.14
109478.14
109478.14
109478.14
109478.14
109478.14
109478.14
109478.14
109478.14
109478.14
109478.14
109478.14
109478.14
109478.14
109478.14
109478.14
109478.14
109478.14
109478.14
109478.14
109478.14
109478.14
109478.14
109478.14
109478.14
109478.14
109478.14
109478.14
109478.14
109478.14
109478.14
109478.14
109478.14
109478.14
109478.14
109478.14
109478.14
109478.14
109478.14
109478.14
109478.14
109478.14
109478.14
109478.14
109478.14
109478.14
109478.14
109478.14
109478.14
109478.14
109478.14
109478.14
109478.14
109478.14
109478.14
109478.14
109478.14
109478.14
109478.14
109478.14
109478.14
109478.13
109478.13
109478.13
109478.13
109478.13
109478.13
109478.13
109478.13
109478.13
109478.13
109478.13
109478.13
109478.13
109478.13
109478.13
109478.13
109478.13
109478.13
109478.13
109478.13
109478.13
109478.13
109478.13
109478.13
109478.13
109478.13
109478.13
109478.13
109478.13
109478.13
109478.13
109478.13
109478.13
109478.13
109478.13
109478.13
109478.13
109478.13
109478.13
109478.13
109478.13
109478.13
109478.13
109478.13
109478.13
109478.13
109478.13
109478.13
109478.13
109478.13
109478.13
109478.13
109478.13
109478.13
109478.13
109478.13
109478.13
109478.13
109478.13
109478.13
109478.13
109478.13
109478.13
109478.13
109478.13
109478.13
109478.13
109478.13
109478.13
109478.13
109478.13
109478.13
109478.13
109478.13
109478.13
109478.13
109478.13
109478.13
109478.13
109478.13
109478.13
109478.13
109478.13
109478.13
109478.13
109478.13
109478.13
109478.13
109478.13
109478.13
109478.13
109478.13
109478.13
109478.13
109478.13
109478.13
109478.13
109478.13
109478.13
109478.13
109478.13
109478.13
109478.13
109478.13
109478.13
109478.13
109478.13
109478.13
109478.13
109478.13
109478.13
109478.13
109478.13
109478.13
109478.13
109478.13
109478.13
109478.13
109478.13
109478.13
109478.13
109478.13
109478.13
109478.13
109478.13
109478.13
109478.13
109478.13
109478.13
109478.13
109478.13
109478.13
109478.13
109478.13
109478.13
109478.13
109478.13
109478.13
109478.13
109478.13
109478.13
109478.13
109478.13
109478.13
109478.13
109478.13
109478.13
109478.13
109478.13
109478.13
109478.13
109478.13
109478.12
109478.12
109478.12
109478.12
109478.12
109478.12
109478.12
109478.12
109478.12
109478.12
109478.12
109478.12
109478.12
109478.12
109478.12
109478.12
109478.12
109478.12
109478.12
109478.12
109478.12
109478.12
109478.12
109478.12
109478.12
109478.12
109478.12
109478.12
109478.12
109478.12
109478.12
109478.12
109478.12
109478.12
109478.12
109478.12
109478.12
109478.12
109478.12
109478.12
109478.12
109478.12