/*--------------------------------*- C++ -*----------------------------------*\
  =========                 |
  \\      /  F ield         | OpenFOAM: The Open Source CFD Toolbox
   \\    /   O peration     | Website:  https://openfoam.org
    \\  /    A nd           | Version:  7
     \\/     M anipulation  |
\*---------------------------------------------------------------------------*/
FoamFile
{
    version     2.0;
    format      ascii;
    class       volScalarField;
    location    "0.00053";
    object      Uy;
}
// * * * * * * * * * * * * * * * * * * * * * * * * * * * * * * * * * * * * * //

dimensions      [0 1 -1 0 0 0 0];

internalField   nonuniform List<scalar> 
5000
(
1.5845488e-16
1.754877e-16
0
0
-9.0676803e-17
1.0329078e-31
9.1012719e-17
0
0
-9.112505e-17
-1.822554e-16
9.1118634e-17
9.1106259e-17
-9.1090555e-17
0
-9.1054759e-17
-8.2470842e-48
9.1017833e-17
0
9.0981091e-17
-9.0961693e-17
-9.0944267e-17
1.8185009e-16
-9.0907563e-17
-9.0888258e-17
-7.4898501e-31
9.0851567e-17
9.0834197e-17
-1.8163e-16
1.5741762e-30
-1.5867494e-30
9.0760588e-17
1.8148401e-16
-1.8144777e-16
1.5725831e-30
-7.8871116e-30
-3.1439001e-30
1.8130149e-16
-1.8126498e-16
-1.8122853e-16
1.8119208e-16
-6.2299915e-30
-1.8111925e-16
9.0541429e-17
2.7156973e-16
-9.050507e-17
-9.0486905e-17
-6.1967763e-30
-1.8090121e-16
0
9.0414339e-17
1.2846076e-32
-9.0378114e-17
1.8072003e-16
-3.1582366e-30
-1.806477e-16
9.0305784e-17
-3.1178498e-30
-9.0269679e-17
0
9.0233614e-17
3.0768978e-30
2.5635697e-32
9.0179592e-17
-9.0161604e-17
3.1513042e-30
9.0125659e-17
-9.0107701e-17
-9.0089754e-17
9.0071816e-17
9.0053887e-17
-9.0035969e-17
-9.001806e-17
1.8000032e-16
8.9982271e-17
-8.9964391e-17
0
8.9928659e-17
-1.2777094e-32
-8.9892964e-17
8.9875131e-17
-2.5538983e-32
2.5533919e-32
8.9821686e-17
8.980389e-17
3.1260463e-30
-8.9768325e-17
0
-8.9732796e-17
-9.3069707e-30
-3.1357014e-30
8.9679573e-17
8.9661851e-17
-1.7928827e-16
-6.2027643e-30
8.9608739e-17
0
0
-8.9555713e-17
-6.2093721e-30
1.7904082e-16
-8.9502775e-17
-1.789703e-16
0
8.9449926e-17
8.943233e-17
-8.9414744e-17
-8.9397169e-17
0
0
8.9344509e-17
8.9326978e-17
0
-8.9291949e-17
3.120919e-30
8.9256967e-17
-8.9239493e-17
2.5358427e-32
-3.1184765e-30
-5.0477244e-49
1.7833944e-16
-3.8007915e-32
-8.913491e-17
0
-8.9100149e-17
8.9082789e-17
8.9065441e-17
-1.7809621e-16
-8.9030784e-17
1.7802695e-16
8.8996178e-17
-8.8978894e-17
-8.8961622e-17
-8.8944363e-17
0
8.8909879e-17
8.8892655e-17
-8.8875441e-17
-3.0811137e-30
8.8841044e-17
-8.8823859e-17
-8.8806684e-17
0
8.8772355e-17
8.8755201e-17
-8.8738053e-17
8.8720909e-17
-5.0422255e-32
-8.8686632e-17
8.8669496e-17
-8.8652362e-17
6.1719534e-30
8.861809e-17
-8.8600952e-17
8.8583809e-17
8.8566662e-17
-8.8549509e-17
0
0
-8.8498003e-17
-8.8480816e-17
8.8463618e-17
8.8446408e-17
-8.8429186e-17
-6.1312779e-30
8.8394703e-17
-8.8377441e-17
-8.8360165e-17
0
8.8325572e-17
8.8308256e-17
0
-8.8273587e-17
-8.8256236e-17
0
8.8221509e-17
1.8350598e-29
-8.8186761e-17
8.8169385e-17
8.8152011e-17
-8.8134642e-17
-6.0857984e-30
6.0595608e-30
3.7551873e-32
8.8065295e-17
-8.804801e-17
-1.2209685e-29
6.0536184e-30
-6.0524368e-30
8.7979228e-17
0
0
-8.7928165e-17
-8.7911275e-17
0
0
8.7861082e-17
4.7144922e-49
-8.7828077e-17
0
8.7795492e-17
-8.7779371e-17
-2.4320254e-29
1.7549499e-16
-8.7731753e-17
-1.8211677e-29
-1.2463015e-32
-8.7685345e-17
8.7670162e-17
-1.2456543e-32
-1.2130612e-29
6.0642861e-30
-8.7610919e-17
0
8.7582211e-17
6.0603124e-30
2.4299593e-29
8.7540289e-17
0
-8.7513087e-17
-8.7499702e-17
0
0
0
8.7447533e-17
6.051089e-30
-8.7422211e-17
0
0
8.7385072e-17
8.7372896e-17
-8.7360812e-17
-8.7348814e-17
0
8.7325055e-17
8.7313281e-17
-8.730157e-17
-8.7289917e-17
0
8.7266759e-17
-2.4229045e-29
-6.0502652e-30
8.7232314e-17
-8.7220891e-17
-8.7209488e-17
0
8.7186729e-17
-1.211582e-29
8.7164006e-17
1.2087893e-29
-1.7428258e-16
8.7129928e-17
-1.2083165e-29
-3.0241103e-29
-6.0276266e-30
-8.7084392e-17
8.7072977e-17
8.7061546e-17
0
-8.7038634e-17
-8.7027151e-17
0
8.7004129e-17
8.6992589e-17
-1.7396206e-16
-8.6969453e-17
8.6957857e-17
8.6946243e-17
2.4115303e-29
-8.6922964e-17
8.69113e-17
-6.0263993e-30
-8.6887929e-17
8.6876224e-17
-6.0363084e-30
6.0478359e-30
-2.4681709e-32
-5.9968442e-30
8.6817549e-17
0
0
-8.6782277e-17
-8.6770517e-17
0
0
0
0
8.671178e-17
5.9755973e-30
-1.7337669e-16
3.6952479e-32
8.6664972e-17
8.6653311e-17
-1.2029334e-29
-1.2003099e-29
-1.2309223e-32
-8.660689e-17
-8.659535e-17
-8.6583841e-17
1.7314473e-16
2.5968277e-16
-8.6549516e-17
-1.730763e-16
0
8.6515535e-17
8.6504292e-17
-8.6493096e-17
2.4579647e-32
-3.6864738e-32
2.4573351e-32
8.6448794e-17
8.6437846e-17
-8.6426953e-17
-1.7283223e-16
8.6405329e-17
2.0337786e-49
8.6383927e-17
2.3935052e-29
-1.727255e-16
0
0
1.726628e-16
-4.7939282e-29
-1.7262155e-16
0
8.6290349e-17
8.6280209e-17
-8.6270114e-17
1.2258292e-32
-1.1974961e-29
1.2255451e-32
8.6230131e-17
-8.6220218e-17
-8.6210332e-17
0
8.6190621e-17
-1.1965345e-29
-8.6170964e-17
1.7232229e-16
-2.3898022e-29
-8.6141492e-17
-2.3917046e-29
-1.7224359e-16
1.7222382e-16
8.6102002e-17
-8.6092057e-17
-1.2232998e-32
-8.607204e-17
0
0
8.6041607e-17
-1.1932368e-29
-1.7204196e-16
1.2222834e-32
2.5800008e-16
-8.5989415e-17
-8.5978706e-17
1.7193579e-16
-8.5956977e-17
8.5945947e-17
1.718696e-16
-8.5923535e-17
-8.5912145e-17
-8.5900627e-17
8.5888978e-17
5.240893e-49
-8.5865275e-17
8.5853217e-17
-8.5841016e-17
8.5828673e-17
2.3780666e-29
2.4386836e-32
8.579077e-17
-1.7155569e-16
8.5764768e-17
2.3811498e-29
-2.3783417e-29
-8.5724661e-17
-1.71422e-16
2.5709159e-16
2.3768181e-29
-4.7528546e-29
2.3735983e-29
-1.7128115e-16
1.7125216e-16
-2.3748266e-29
-1.7119341e-16
0
0
8.5551711e-17
-1.1863734e-29
-8.5521139e-17
-8.5505691e-17
8.549014e-17
2.5642347e-16
-8.5458748e-17
-8.5442914e-17
-2.4279812e-32
-8.5410992e-17
0
1.7075752e-16
1.7072507e-16
-8.5346246e-17
-1.7065979e-16
-8.531349e-17
1.7059406e-16
1.7056104e-16
-1.7052793e-16
-1.7049474e-16
0
1.7042813e-16
-8.5197367e-17
-1.7036128e-16
8.5163888e-17
8.5147115e-17
-1.2097747e-32
1.1817165e-29
8.5096697e-17
-8.5079867e-17
-8.5063029e-17
8.5046186e-17
-1.1793394e-29
-1.2081002e-32
-1.1788721e-29
-8.4978801e-17
8.4961962e-17
-3.5381358e-29
-1.179145e-29
-2.3566163e-29
-8.4894677e-17
8.4877881e-17
-1.1782119e-29
-2.352341e-29
-1.2054723e-32
-1.6962165e-16
-8.47941e-17
8.4777389e-17
1.6952139e-16
-1.1765863e-29
-1.6945471e-16
-8.4710712e-17
1.6938817e-16
8.4677478e-17
-8.4660888e-17
-8.4644316e-17
-2.3487419e-29
8.4611226e-17
0
0
8.4561725e-17
0
-8.4528812e-17
8.4512381e-17
1.2007599e-32
-2.344629e-29
0
-8.4446823e-17
8.4430474e-17
8.441414e-17
-1.6879564e-16
-8.4381517e-17
8.4365228e-17
0
0
-8.4316445e-17
2.3420471e-29
8.428399e-17
0
0
-8.4235403e-17
3.5090975e-29
8.4203071e-17
0
0
0
0
0
0
0
0
1.6811623e-16
4.6649728e-29
-8.4026011e-17
8.4009973e-17
-8.3993943e-17
8.3977922e-17
-2.3338415e-29
-8.3945906e-17
-2.3305666e-29
-8.3913923e-17
0
0
8.3866008e-17
2.3283491e-29
-8.3834104e-17
0
0
0
0
0
0
0
1.6741355e-16
-6.9670314e-29
-1.6735003e-16
8.3659145e-17
1.1886425e-32
8.3627425e-17
-4.6363249e-29
-1.6719146e-16
-8.3579893e-17
-4.7184015e-49
2.5064471e-16
0
-1.6703322e-16
0
0
1.6693842e-16
-2.3149636e-29
-2.5031293e-16
8.342187e-17
8.3406102e-17
-8.339034e-17
8.3374585e-17
-8.3358835e-17
-2.3119031e-29
8.3327354e-17
-8.3311623e-17
0
-8.3280178e-17
8.3264464e-17
1.6649751e-16
-8.3233055e-17
-8.3217359e-17
-8.3201669e-17
-8.3185984e-17
1.6634061e-16
8.3154633e-17
-8.3138966e-17
0
8.3107649e-17
-8.3092e-17
-8.3076355e-17
2.4918215e-16
2.3602832e-32
-1.6605891e-16
8.3013834e-17
1.1523477e-29
8.2982607e-17
-2.358064e-32
-1.659028e-16
8.2935807e-17
0
-2.3020967e-29
-1.1779243e-32
-8.2873483e-17
8.2857915e-17
-2.3003673e-29
-1.1487906e-29
-1.1768185e-32
-8.2795695e-17
8.2780153e-17
4.6365667e-49
-2.2977774e-29
-1.1757146e-32
-1.6543607e-16
-1.1470669e-29
8.2687007e-17
0
0
-8.2640501e-17
-3.4379756e-29
8.260952e-17
-8.2594037e-17
1.1465211e-29
1.8484475e-48
-1.1460915e-29
8.2532152e-17
8.2516692e-17
1.1442752e-29
-8.2485785e-17
0
0
8.2439458e-17
-8.2424025e-17
6.8602838e-29
8.239317e-17
-8.237775e-17
0
8.234692e-17
8.2331512e-17
-8.2316107e-17
-8.2300706e-17
0
8.2269917e-17
8.2254528e-17
-1.6447829e-16
-8.2223761e-17
8.2208384e-17
8.219301e-17
1.1397869e-29
8.2162272e-17
2.2810562e-29
-1.642631e-16
0
0
0
8.2070144e-17
8.2054801e-17
0
-8.2024124e-17
-1.1362796e-29
8.199346e-17
0
0
-8.1947486e-17
-1.1363823e-29
1.1350058e-29
-8.1901539e-17
8.1886228e-17
-3.4065985e-29
-8.1855616e-17
0
-8.1825013e-17
-1.1358465e-29
8.1794421e-17
-8.1779128e-17
8.1763838e-17
8.174855e-17
-8.1733264e-17
0
8.17027e-17
8.1687421e-17
-8.1672144e-17
-8.1656868e-17
0
-8.1626324e-17
8.1611055e-17
8.1595788e-17
-8.1580522e-17
-1.6313052e-16
4.5289622e-29
2.4460421e-16
4.5946571e-49
-8.150422e-17
-1.6297793e-16
4.5200944e-29
1.6291691e-16
-8.1443206e-17
8.1427956e-17
-8.1412708e-17
-8.139746e-17
1.6276443e-16
0
0
-1.6267297e-16
-3.680542e-48
1.6261201e-16
0
0
-1.6252058e-16
-3.6829623e-48
1.6245964e-16
0
0
-1.6236824e-16
-8.1168887e-17
1.6230731e-16
8.1138427e-17
0
-1.6221594e-16
4.5035682e-29
1.6215503e-16
-8.1062291e-17
0
8.1031843e-17
-8.101662e-17
1.1510991e-32
8.0986178e-17
-8.0970958e-17
8.0955739e-17
8.094052e-17
-8.0925303e-17
-8.0910087e-17
2.2462896e-29
8.0879659e-17
-8.0864447e-17
-2.2450224e-29
8.0834026e-17
-8.0818818e-17
8.0803611e-17
8.0788406e-17
-8.0773202e-17
-8.0758001e-17
2.2420669e-29
8.0727603e-17
-8.0712408e-17
1.1467764e-32
8.0682024e-17
-8.0666836e-17
8.065165e-17
8.0636468e-17
-8.0621288e-17
-1.6121222e-16
4.4779905e-29
1.6115154e-16
-8.0560603e-17
1.1446196e-32
1.6106057e-16
2.2883776e-32
-8.049998e-17
0
8.0469695e-17
0
-8.043943e-17
0
0
0
-8.0378962e-17
-4.6021366e-49
8.034876e-17
0
8.0318581e-17
-2.2298684e-29
-8.0288424e-17
0
0
0
-8.0228168e-17
2.2273586e-29
8.0198063e-17
0
8.0167969e-17
2.2245481e-29
-8.0137877e-17
0
8.0107779e-17
-8.0092725e-17
4.4494707e-29
8.0062595e-17
-8.0047515e-17
0
-8.0017316e-17
-2.2215016e-29
7.9987043e-17
0
7.9956667e-17
-7.9941431e-17
-4.4387807e-29
7.9910839e-17
-4.4359411e-29
-1.1351638e-32
2.2188149e-29
-1.1347226e-32
-7.9833374e-17
0
7.9801841e-17
-2.2143624e-29
-2.2139174e-29
5.1874881e-49
-2.2141494e-29
0
-1.5940868e-16
-2.2127642e-29
7.9670527e-17
-7.9653306e-17
2.2101974e-29
7.9618141e-17
7.9600156e-17
2.2098303e-29
-2.2093137e-29
7.9544322e-17
-7.9525001e-17
-7.950528e-17
0
-7.9464517e-17
2.2059854e-29
7.9421776e-17
0
0
0
-1.5865838e-16
8.8084928e-29
1.5855735e-16
0
0
0
0
0
0
0
-1.5807836e-16
4.3898163e-29
1.5793512e-16
7.8929618e-17
-7.8890153e-17
-7.8849085e-17
2.189415e-29
4.3696408e-29
7.8715444e-17
-7.8667127e-17
7.8616772e-17
7.8564284e-17
-7.8509565e-17
-7.8452515e-17
4.3514088e-29
7.8331002e-17
7.8266323e-17
-2.1692048e-29
-7.8128564e-17
-7.8055253e-17
7.7978829e-17
7.7899171e-17
-7.7816155e-17
7.7729655e-17
0
-7.7545686e-17
-7.7447955e-17
2.1455522e-29
7.724033e-17
-7.7130163e-17
7.7015575e-17
7.6896427e-17
-7.6772577e-17
7.6643883e-17
2.1245361e-29
-7.6371395e-17
-7.6227312e-17
-1.0811308e-32
1.5184551e-16
4.2064427e-29
-7.5595378e-17
-7.5422777e-17
0
7.5059039e-17
0
0
0
7.4253549e-17
7.4035137e-17
-7.3809648e-17
-7.3576958e-17
0
7.3089485e-17
-2.0235033e-29
-7.2571784e-17
0
0
7.1736666e-17
-3.9655894e-29
-7.113974e-17
0
0
7.018239e-17
-3.8770096e-29
-6.9502036e-17
0
6.8787469e-17
-1.899811e-29
1.8883233e-29
-1.8785283e-29
-6.7254541e-17
0
-6.6435903e-17
3.6633151e-29
6.558251e-17
0
6.4694548e-17
-6.42377e-17
-6.3772342e-17
1.2659707e-16
1.7460706e-29
-1.2465176e-16
1.7168183e-29
6.1320409e-17
0
0
5.9752511e-17
-1.643426e-29
-5.8668912e-17
0
5.7555997e-17
-5.6988951e-17
-5.6415079e-17
5.5834566e-17
0
-5.4654396e-17
5.4055146e-17
2.9668852e-29
-2.9329881e-29
5.2223351e-17
-4.2972019e-29
5.0976091e-17
-5.0345369e-17
1.3796485e-29
-2.7252087e-29
-9.6855804e-17
1.3254307e-29
4.7131165e-17
0
0
0
-8.9006858e-17
-4.3841023e-17
8.6354023e-17
4.2511688e-17
0
0
4.0510815e-17
3.20801e-47
-3.917579e-17
0
-7.5685309e-17
-3.7177535e-17
7.3027545e-17
3.5851659e-17
0
-6.9067054e-17
-9.6287288e-33
9.9676237e-17
-9.0363944e-30
-6.3859057e-17
3.1286847e-17
1.7421383e-32
-3.0013308e-17
8.1632382e-30
1.5954266e-29
2.8136315e-17
0
2.6909975e-17
-1.4604999e-29
-5.141142e-17
2.5112379e-17
-4.0833048e-29
-2.3944306e-17
4.6739866e-17
-3.2403926e-33
-2.224138e-17
0
0
0
-2.0069387e-17
1.9544927e-17
3.805625e-17
-1.8519088e-17
-5.0032162e-30
-4.8612775e-30
-1.7039504e-17
0
1.6093512e-17
-2.2215586e-33
-3.0360841e-17
1.4736327e-17
7.9338443e-30
-1.3873204e-17
-1.3454216e-17
7.247616e-30
2.5282852e-17
0
1.1862194e-17
1.1485124e-17
0
-1.0755944e-17
-1.0403761e-17
1.0059791e-17
0
-9.3962726e-18
0
0
8.4611127e-18
-6.799567e-30
-7.8768983e-18
0
0
7.0577231e-18
6.7995286e-18
-6.5485991e-18
-6.3048295e-18
6.0681119e-18
5.8383356e-18
-1.1230775e-17
-5.3991522e-18
1.4417618e-30
4.9863484e-18
-2.6571973e-30
-2.5514675e-30
4.4144982e-18
-4.2360174e-18
4.0633964e-18
-3.8965094e-18
-3.1848488e-33
3.579432e-18
-6.8579766e-18
-3.2837725e-18
-3.1436583e-18
6.017039e-18
5.7564617e-18
-2.7526675e-18
2.6317053e-18
-2.5152213e-18
1.3345824e-30
4.5904014e-18
-2.1914235e-18
5.8051054e-31
-5.5446197e-31
-1.9036092e-18
0
0
1.6486663e-18
1.5704715e-18
0
-1.4236186e-18
-1.3547531e-18
0
-1.2256405e-18
3.2355232e-31
1.1073716e-18
-1.0520685e-18
2.7717361e-31
9.4867398e-19
0
8.5431814e-19
4.4990519e-31
-7.6833913e-19
7.2829352e-19
-1.9133546e-31
-6.5371396e-19
-6.1903592e-19
-1.6263906e-31
5.5455882e-19
0
-4.9615163e-19
4.6906857e-19
-1.2599916e-34
2.3261229e-31
3.9560144e-19
-3.7352311e-19
0
-6.6534403e-19
6.967359e-31
2.959072e-19
1.5483465e-31
5.2573455e-19
-4.952769e-19
-4.6643436e-19
4.3913098e-19
4.1329377e-19
1.9442632e-19
0
-1.7194611e-19
-3.2324645e-19
2.1582287e-35
-1.4266355e-19
1.3397112e-19
1.2576852e-19
-1.1803083e-19
2.2146848e-19
-2.0771195e-19
-1.6217807e-31
1.8253688e-19
-1.7103719e-19
4.446484e-32
-7.501222e-20
7.0220497e-20
6.5714335e-20
-6.1478159e-20
-1.5949472e-32
-1.0751439e-19
1.0048979e-19
9.3895013e-20
-8.7705842e-20
-1.1365082e-32
-3.8226759e-20
1.9811874e-32
3.3281297e-20
8.6146664e-33
3.9109971e-49
2.6974118e-20
5.0268168e-20
-2.34124e-20
-6.7448514e-49
-2.0296144e-20
-3.146448e-32
1.7573228e-20
-3.2689056e-20
8.4355581e-33
2.8251969e-20
4.6463353e-50
-1.2193802e-20
0
0
-9.7574624e-21
9.0533248e-21
1.6794958e-20
0
0
0
-6.1974397e-21
-5.7398966e-21
0
4.9192622e-21
-4.5520237e-21
-7.0133929e-33
7.7885689e-21
0
0
0
-2.8401122e-21
-2.622666e-21
2.4211576e-21
-2.2344774e-21
-1.1449238e-33
3.8030391e-21
0
0
-2.9789858e-21
3.9001577e-37
1.2638618e-21
-1.1637009e-21
1.0711683e-21
-9.8570859e-22
5.0360375e-34
1.667957e-21
0
0
-6.4763272e-22
-5.9493723e-22
0
0
4.6042108e-22
4.2247652e-22
0
-3.554076e-22
-3.2584039e-22
2.9864855e-22
-2.736484e-22
-2.5067014e-22
2.2955684e-22
2.101628e-22
-1.0682534e-34
-1.7600354e-22
1.6099833e-22
4.0862255e-35
-1.3460425e-22
0
-1.1241164e-22
5.7012646e-35
9.3774128e-23
-8.5612703e-23
4.3384722e-35
7.1299672e-23
0
-5.9314431e-23
1.5016224e-35
7.0044243e-39
-4.491299e-23
4.0914025e-23
3.7260644e-23
0
-6.1756418e-23
3.120906e-35
2.5561456e-23
3.3036609e-39
4.2274524e-23
-3.8427148e-23
-3.4920239e-23
3.172431e-23
1.4406913e-23
0
-2.3749585e-23
1.7942238e-35
1.9554446e-23
0
-1.6083712e-23
-4.0487401e-36
6.6069808e-24
1.6623292e-36
1.084559e-23
-9.821656e-24
-1.1104469e-35
8.0477836e-24
-7.2823413e-24
1.8279049e-36
5.9574594e-24
2.6930315e-24
-4.869283e-24
-2.2003679e-24
3.975659e-24
-3.5905059e-24
-4.048814e-36
2.927001e-24
-2.6416574e-24
3.3089298e-37
-1.0746996e-24
1.0753134e-36
2.6212902e-24
-4.3714015e-37
-1.4195236e-24
6.3923652e-25
1.1512033e-24
-5.1845187e-25
2.5910504e-37
-4.1975704e-25
-4.1946875e-37
3.3965615e-25
-6.104083e-25
2.2825513e-37
-2.7316319e-37
1.2255244e-37
1.9825097e-25
0
1.5908716e-25
1.4241847e-25
0
0
0
0
0
-7.1437227e-26
-6.328021e-26
0
4.89421e-26
-4.2507683e-26
-6.1272276e-38
6.2216251e-26
0
0
0
-1.2666175e-26
-8.106352e-27
3.7998525e-27
-4.053176e-28
9.2209754e-27
1.4434362e-38
-2.6345644e-26
0
4.5091583e-26
4.5996405e-38
-3.3286708e-26
3.9569131e-26
-4.6003547e-26
5.3197935e-26
3.3972292e-38
-1.3942925e-25
0
0
1.0254535e-25
1.1592083e-25
0
1.4642098e-25
4.6842464e-41
1.8523014e-25
-2.0833325e-25
-7.0510063e-25
0
-5.9216901e-25
-6.6350491e-25
0
1.2472636e-24
9.306092e-25
-1.0417676e-24
5.8284671e-25
6.5164937e-25
-2.1868911e-24
-8.1504302e-25
-1.2944677e-40
-1.0174992e-24
1.1361559e-24
1.2688467e-24
1.416585e-24
-8.3574411e-54
1.7642968e-24
1.9678169e-24
-2.1944401e-24
0
-5.4545616e-24
-6.07794e-24
0
3.7707709e-24
8.396762e-24
2.5937165e-36
5.2016941e-24
1.157506e-23
-1.2875724e-23
-1.4318553e-23
-7.9591203e-24
-8.8462592e-24
0
1.0920421e-23
3.6384043e-23
-1.3465208e-23
8.0955063e-51
4.9759372e-23
-3.6802737e-23
-2.0409464e-23
-2.2630604e-23
-5.0173556e-23
5.5604609e-23
3.0803175e-23
-3.4118926e-23
-3.7781832e-23
-4.1826547e-23
1.3887549e-22
5.1219884e-23
-1.6997151e-22
-6.2654805e-23
6.9268778e-23
1.5311997e-22
-8.4595761e-23
9.3449417e-23
-1.7182471e-34
1.8976938e-34
3.7728568e-22
-1.3877218e-22
-1.5308678e-22
-3.3766188e-22
-1.8614287e-22
4.1034607e-22
6.4257608e-38
2.490625e-22
-2.7429737e-22
-9.0601509e-22
9.9725639e-22
3.6579326e-22
-1.207218e-21
0
1.4597481e-21
5.3483466e-22
-1.7631179e-21
6.4562179e-22
1.4180883e-21
4.3211338e-34
-9.4846405e-34
-9.3760373e-22
0
-2.2559456e-21
-2.4733294e-21
1.355442e-21
1.4852014e-21
3.2538293e-21
-1.7816366e-21
-1.9505097e-21
4.2695447e-21
0
-5.1098809e-21
-5.5877382e-21
3.0542514e-21
6.6758516e-21
-2.0242961e-33
-3.9832662e-21
8.6988034e-21
-4.747795e-21
1.7255603e-32
1.1304796e-20
-6.1646793e-21
0
-1.4652431e-20
0
1.931079e-32
9.4703e-21
2.0620324e-20
-3.3663424e-20
3.4699908e-36
2.6559414e-20
0
-3.1393954e-20
-1.7058179e-20
3.7063599e-20
-2.2346449e-32
-2.1851997e-20
4.7436128e-20
-2.5735615e-20
4.6478957e-32
6.0544647e-20
-3.2817169e-20
3.5564983e-20
-7.7061948e-20
-1.2519421e-19
0
1.4671887e-19
1.0583832e-19
-1.7173029e-19
-1.2380341e-19
6.6918096e-20
1.446366e-19
-7.8129722e-20
-8.4381547e-20
1.8220972e-19
-9.8332752e-20
-2.1220085e-19
1.1444533e-19
-1.7537229e-35
2.6605712e-19
2.8670823e-19
-4.6329494e-19
1.6631178e-19
2.98207e-31
-5.7809376e-19
0
6.6894606e-19
4.7949608e-19
-2.5769091e-19
-2.7688643e-19
-2.9741471e-19
0
-3.4281315e-19
2.0419427e-31
7.8924489e-19
-2.3483909e-31
-4.5366256e-19
0
-5.2084501e-19
1.115603e-18
1.7915432e-18
-1.2782543e-18
-2.0513714e-18
-7.3132946e-19
7.8191049e-19
1.6714163e-18
-8.929056e-19
9.5369489e-19
1.0182773e-18
-2.173727e-18
2.3193486e-18
1.2369404e-18
-3.95671e-18
-2.8116305e-18
1.4979396e-18
4.7866549e-18
-3.772159e-30
4.0151939e-30
1.924244e-18
2.272259e-30
2.1764042e-18
-2.3134082e-18
-2.4581775e-18
-2.6110919e-18
2.7725456e-18
2.9429477e-18
-9.3681676e-18
3.3123097e-18
7.024329e-18
-1.1168275e-17
-1.1211166e-33
4.1781283e-18
-8.8478573e-18
-4.6825164e-18
0
5.2402865e-18
5.5406278e-18
1.1712149e-17
-6.1872484e-18
2.1763829e-29
2.0698064e-17
-7.281617e-18
-7.6822679e-18
-8.1020148e-18
8.5415821e-18
9.0017105e-18
-2.8449471e-17
9.9866943e-18
2.1026222e-17
1.8425911e-29
1.163781e-17
-2.4475486e-17
-3.8591563e-17
-7.5010428e-30
7.8810018e-30
2.1185409e-33
1.5647437e-17
3.283511e-17
1.7219171e-17
-5.4159618e-17
2.1004727e-29
3.9644494e-17
0
0
-2.2742295e-17
1.3205524e-29
-1.3805454e-29
-2.6004767e-17
5.4345508e-17
2.8382551e-17
3.2891029e-29
-3.0931287e-17
-9.681618e-17
-3.3658308e-17
0
0
0
1.190268e-16
8.2604484e-17
-1.2893832e-16
4.9645344e-29
9.2977151e-17
0
0
-1.0429996e-16
1.2022024e-28
6.2371361e-29
-1.1660865e-16
6.0468011e-17
1.2537731e-16
1.299334e-16
-6.7302543e-17
-2.0908962e-16
-7.2149e-17
0
0
0
2.4764385e-16
1.7059129e-16
-2.6430783e-16
2.0197837e-28
9.3894096e-17
-1.3767241e-32
9.9921331e-17
-2.0604553e-16
1.1787851e-28
1.0939959e-16
-2.2534824e-16
0
6.6289075e-29
2.456717e-16
2.5266738e-16
-3.8965685e-16
-2.6698164e-16
1.3714842e-16
7.8166601e-29
-1.4461707e-16
4.4527822e-16
3.0456683e-16
-1.5618793e-16
-1.6013843e-16
1.6413362e-16
1.6817221e-16
-1.7225281e-16
-1.7637402e-16
1.002103e-28
-1.0251424e-28
-1.8896641e-16
0
-1.9753632e-16
4.0373769e-16
6.1869245e-16
-4.2124094e-16
-4.3007206e-16
-2.1947567e-16
2.4857288e-28
4.5683953e-16
-2.3292044e-16
2.3743765e-16
2.4196942e-16
-4.9302761e-16
5.0213762e-16
2.5563243e-16
-2.6020264e-16
-5.2955485e-16
-2.6935474e-16
5.4786507e-16
-1.5451437e-28
2.8308136e-16
2.8764827e-16
-8.7662229e-16
2.9675679e-16
3.0129428e-16
-9.1745357e-16
4.4099902e-32
9.4444529e-16
3.1928469e-16
-9.7119673e-16
3.2815574e-16
-2.2312608e-44
5.6095725e-28
6.8252421e-16
-6.9113927e-16
-6.9968663e-16
3.5408123e-16
-3.9774691e-28
-7.2488449e-16
3.6656163e-16
1.1119135e-15
3.7466904e-16
-3.7865349e-16
0
-3.864751e-16
-7.8061766e-16
5.6003406e-32
1.1934413e-15
4.0148169e-16
-8.1018221e-16
5.80713e-32
8.2425633e-16
-8.3110548e-16
6.9770417e-28
8.4441303e-16
-1.2762984e-15
-8.5718031e-16
0
0
4.3763472e-16
1.321508e-15
4.4329496e-16
-1.3380312e-15
4.9806716e-28
9.0241151e-16
-9.073666e-16
-9.1215841e-16
4.5839235e-16
9.2124324e-16
-4.6276595e-16
-4.6482428e-16
1.4003868e-15
4.6867886e-16
7.8357869e-28
-2.6196013e-28
-4.7379075e-16
4.753123e-16
-9.5348229e-16
-1.4342292e-15
0
1.4413887e-15
9.6302503e-16
-1.447396e-15
1.3736798e-31
4.8407765e-16
-9.6947145e-16
4.8529417e-16
4.8575235e-16
5.3965557e-28
-4.8636543e-16
-9.7303838e-16
4.865699e-16
9.7302759e-16
9.7269909e-16
-5.3976057e-28
-4.8570518e-16
4.8522542e-16
-9.6928036e-16
-1.4518473e-15
0
1.4467447e-15
9.6247601e-16
-1.4403629e-15
5.3178456e-28
4.7756598e-16
-4.7612785e-16
-4.7458259e-16
2.623778e-28
9.4234168e-16
-2.6049968e-28
-9.3466299e-16
5.1643424e-28
5.1400799e-28
9.2154888e-16
1.3751316e-15
-9.1174983e-16
5.0332524e-28
1.5004328e-27
-4.4774296e-16
-4.4482607e-16
-8.8361461e-16
1.3160624e-15
4.3546752e-16
-8.6429682e-16
8.5746241e-16
2.4170791e-31
-1.2648215e-15
-4.1790285e-16
4.1410547e-16
1.2306495e-15
-1.3530716e-27
-8.0434019e-16
-3.98016e-16
7.8755407e-16
1.1683653e-15
-1.1551565e-15
-3.8057033e-16
-4.1732332e-28
-3.7137869e-16
7.3334699e-16
-2.0088123e-28
3.5705656e-16
-3.5214995e-16
1.15647e-27
1.0264619e-15
-1.0112108e-15
-9.9579995e-16
0
0
0
3.1091506e-16
9.1667697e-16
3.00169e-16
3.2721567e-28
2.8930114e-16
-8.5149105e-16
-2.7833978e-16
2.7283309e-16
2.6731398e-16
2.6178615e-16
-5.1250671e-16
2.5071937e-16
-2.4518798e-16
7.9818695e-28
4.6829623e-16
-6.8594165e-16
-4.4632806e-16
0
4.2453154e-16
2.2964393e-28
-2.0148295e-16
5.884317e-16
1.908445e-16
-1.8558822e-16
0
0
-1.7011172e-16
-3.3012228e-16
3.5540371e-28
3.1028157e-16
1.5027681e-16
-1.4548062e-16
1.4075485e-16
-1.3610195e-16
-2.3687023e-44
2.1156011e-28
-3.6781e-16
0
0
2.1967372e-16
2.1150411e-16
1.0175497e-16
-1.0861088e-28
-2.8208552e-16
1.0027356e-28
1.7333033e-16
0
-1.5934041e-16
-7.6311851e-17
1.4609297e-16
-6.987409e-17
-6.6794529e-17
1.9142254e-16
-6.0912641e-17
1.9353062e-28
1.1079394e-16
-1.583242e-16
-1.0048342e-16
0
0
0
1.2294043e-16
7.7752167e-17
-1.1056123e-16
-6.9823128e-17
0
6.2522402e-17
-3.280456e-29
-2.7911393e-17
5.2689434e-17
-2.4847736e-17
2.3418548e-17
2.2055255e-17
-6.2267718e-17
3.9037125e-17
3.6682537e-17
-1.7222053e-17
1.6158968e-17
-3.0300093e-17
-4.2580092e-17
0
3.7286923e-17
2.323496e-17
-1.0850615e-17
-1.0126556e-17
1.0483707e-29
-8.7996601e-18
2.7292178e-29
7.622793e-18
3.9345072e-30
9.3987932e-47
-6.1097085e-18
0
-5.2508406e-18
9.723893e-18
1.3494605e-17
-1.2474879e-17
-1.1522761e-17
0
6.5377733e-18
6.0237887e-18
-5.5455636e-18
2.5504787e-18
2.3440023e-18
-6.4571511e-18
3.9494333e-18
3.6202506e-18
-1.6577859e-18
-3.0338487e-18
-1.3867738e-18
3.7999371e-18
1.1558631e-18
1.7548188e-30
-1.919725e-18
-4.9651583e-34
2.3824216e-18
-1.4426518e-18
-1.9637436e-18
-5.9345843e-19
1.6126437e-18
9.7293464e-19
-1.3195119e-18
8.8231563e-31
7.1723886e-19
3.2340013e-19
-1.6174093e-31
-5.2461041e-19
2.6190698e-31
-2.1196688e-19
-1.9023431e-19
5.11478e-19
1.5254086e-19
1.5117894e-31
-2.4243055e-19
3.580369e-31
2.8475813e-19
-1.6699346e-19
8.1336135e-32
7.660065e-32
1.6376946e-31
7.612999e-20
-1.9810264e-19
6.5423716e-20
1.3818232e-31
2.9123327e-31
2.0177168e-19
-6.4703993e-20
-1.771055e-19
1.0560061e-31
-6.9329968e-20
-6.5286378e-20
1.9542615e-19
2.2436313e-19
-9.3669134e-32
-2.1208398e-19
1.0182533e-31
1.0686803e-19
-1.8432775e-19
8.1528974e-20
9.5721488e-20
-5.9891678e-32
5.4171726e-32
-8.7417179e-20
1.9093994e-19
-1.0347589e-19
3.1653321e-31
2.875081e-31
-2.8545689e-19
2.1289983e-19
-2.8514079e-35
-1.6992439e-19
8.1730204e-20
2.6295707e-19
8.6397713e-20
-2.2791407e-19
7.7673611e-32
7.2698455e-20
-1.4750362e-19
1.3261157e-19
3.1032276e-31
-7.1797752e-20
7.9228994e-20
-6.9214434e-20
1.1371639e-19
-6.2790316e-20
-2.2989729e-19
0
0
1.0780524e-19
1.96085e-35
-1.5099927e-19
6.2037625e-20
1.6255696e-19
6.4668064e-20
-2.2054597e-19
-1.8822834e-35
-6.2284306e-32
-1.217553e-19
2.186897e-19
3.6947351e-31
-6.1468425e-20
5.2474838e-20
5.8597414e-20
-7.5871656e-32
-6.3679738e-20
9.3761318e-20
-7.843933e-20
1.4694436e-31
9.6618208e-20
-1.3113842e-19
-7.1766147e-20
3.4331147e-20
1.1100348e-19
3.7157601e-20
-3.483349e-20
0
3.6320571e-20
-4.0478791e-20
-1.2913951e-19
-2.3276926e-32
8.0428032e-20
-4.0134089e-20
-4.0703038e-20
8.2298226e-20
-4.1970385e-20
4.3329417e-20
8.708277e-20
-1.3141277e-19
1.472755e-31
-1.0421299e-31
-1.0670853e-19
1.2604467e-19
6.7030796e-20
6.214304e-20
6.3587272e-32
-6.0001242e-20
1.2877723e-19
-1.3527785e-19
-2.1189703e-19
0
5.4311258e-20
-2.3888799e-32
-1.0570971e-35
7.224133e-20
9.9827641e-21
-1.5985736e-20
6.8014257e-21
6.6087594e-48
-1.2756267e-20
1.5790068e-22
1.6756601e-21
2.5366004e-21
-1.0214833e-20
9.8909564e-21
-1.4055992e-20
5.0931045e-32
3.2694077e-20
-6.0650025e-20
-2.7856499e-32
1.2013027e-31
-5.2676415e-20
5.2907187e-20
2.9932161e-32
-2.5293195e-20
4.6310679e-20
2.2185087e-20
0
0
-3.2837248e-20
4.1601209e-32
1.1680051e-35
2.0992868e-32
1.5308032e-20
1.5626587e-20
-2.155472e-20
-2.8293433e-20
5.8935166e-20
-5.6107668e-20
2.9966102e-32
5.6134263e-20
-5.6300275e-20
-8.0620296e-32
2.3359012e-32
-2.1643456e-20
4.9415575e-20
-2.4032209e-20
4.1021032e-32
2.1956171e-20
0
-6.251881e-21
-7.7286631e-22
-4.6726275e-21
-4.0476704e-21
5.7021182e-21
-1.2275997e-32
-7.2992075e-21
0
0
1.4698824e-20
1.3222486e-20
0
-9.6850284e-21
-3.7314015e-21
6.7209775e-22
9.9227453e-22
-4.7960607e-22
0
7.008532e-21
0
0
-3.6833883e-21
3.1204522e-33
6.4909437e-22
0
1.021608e-21
8.8319271e-34
-1.7585811e-21
0
7.7039947e-21
9.7408565e-21
-3.7154633e-21
-1.9483607e-33
1.6018104e-21
-6.256244e-21
-8.6365609e-21
4.5521412e-21
1.2818031e-39
1.4368185e-33
5.677628e-37
-1.365786e-21
-9.9320336e-22
2.6927253e-34
1.5921389e-21
-1.9462972e-21
2.4391347e-22
-2.7091537e-21
8.44381e-22
-3.2532123e-21
-4.8546049e-33
-4.4943145e-21
9.5859398e-21
1.0774592e-20
-1.2640749e-20
-2.4437529e-32
-8.0703611e-21
-9.1574849e-21
2.1906455e-20
-1.2779656e-20
1.463284e-32
-6.4519506e-33
1.2013611e-20
2.6208748e-20
-2.721579e-20
-3.0874126e-20
0
1.7648169e-20
1.898293e-32
-3.3909249e-20
-1.8794246e-32
4.7192917e-20
2.9945557e-20
0
-2.6658168e-20
-2.5646178e-32
-1.2023815e-20
-1.2834574e-20
3.9153876e-20
-6.8666227e-33
-2.2371133e-20
1.0906828e-20
2.2316475e-20
-1.0408281e-20
-1.5954577e-20
-6.8720822e-21
0
1.9177914e-20
-9.9143439e-21
-2.8591764e-20
9.6318255e-21
1.0363538e-20
2.2148055e-20
1.1480304e-20
-2.3300789e-20
-1.1569809e-20
-1.212637e-20
1.4587043e-32
1.354296e-20
1.2237801e-20
2.3181978e-20
1.3031606e-20
0
0
0
-2.8831198e-20
-2.6406559e-20
2.8017927e-20
1.6779577e-32
1.762015e-32
-1.7920484e-32
-3.5352622e-32
3.0659688e-20
0
-2.6746495e-20
-1.3557778e-20
1.3708962e-20
-1.3302866e-20
-1.2242558e-20
0
0
2.2479779e-20
-3.385996e-32
-2.0835779e-32
1.8337689e-20
-1.7642103e-20
-1.6137965e-20
0
1.4989311e-20
-8.0451946e-33
-1.3454739e-20
1.2403433e-20
6.8124588e-33
-1.2681416e-20
0
1.2115653e-20
6.101933e-21
-1.2741719e-20
6.6112749e-21
1.4461404e-32
-1.2594939e-20
1.3184966e-20
1.4562248e-20
0
0
0
-1.7647597e-20
-1.8728949e-20
1.9617711e-20
0
-1.9291363e-20
0
-1.0766312e-20
2.2910502e-20
1.183734e-20
-1.1835275e-20
2.2661582e-20
1.111659e-20
-2.3181016e-20
-1.2265403e-20
-1.3792377e-32
1.2031835e-20
-2.5889361e-32
6.5753446e-36
2.3534693e-20
0
-1.1038678e-20
-2.1292078e-20
-1.0654895e-20
0
0
0
-9.2391414e-21
1.849431e-20
9.0079437e-21
-8.5038306e-21
-7.8967667e-21
7.5908543e-21
7.6068792e-21
-1.4732757e-20
0
1.3162791e-20
1.291732e-20
0
0
-1.1154719e-20
-6.1553121e-33
-5.6784649e-21
-5.6128442e-21
5.1468545e-21
-4.5646077e-21
4.5560347e-21
9.9622477e-21
5.3202419e-21
0
-1.0984469e-20
-6.0112516e-33
5.2038256e-21
-4.9866502e-21
-5.06443e-21
-1.0918376e-20
1.1724841e-20
6.051909e-21
-1.7059158e-36
5.890315e-21
-1.203138e-20
6.3835396e-21
-6.7848948e-21
7.9184167e-50
7.0314674e-21
-1.4185558e-20
1.4354118e-20
1.4552275e-20
0
-7.7223545e-21
-1.5819683e-20
4.4272839e-33
7.9050925e-21
8.0127266e-21
-1.6531086e-20
-1.6901e-20
8.3633488e-21
1.576572e-20
1.5769574e-20
-8.4429369e-21
-1.7769308e-20
9.0993089e-21
-9.1367324e-21
1.4970904e-32
8.5648416e-21
-1.5273327e-20
1.4621403e-20
8.754297e-33
-4.6715118e-32
1.7261896e-20
-1.7141703e-20
-3.6996157e-32
8.0754089e-21
-1.5558446e-20
7.6244407e-21
-2.1891161e-36
3.4300068e-32
7.532675e-21
-1.4440827e-20
1.5248448e-32
-3.7559212e-33
6.8919173e-21
-1.9666691e-36
-1.3448897e-20
1.2850592e-20
3.5607011e-36
-2.7769281e-32
1.2577294e-20
-1.245426e-20
-1.3536861e-32
1.2017443e-20
-5.9798196e-21
-5.9012081e-21
-5.7669352e-21
5.7241221e-21
-6.4134127e-33
-1.1695011e-20
0
0
1.1475016e-20
1.6569815e-36
-1.1906889e-20
6.0511809e-21
-6.7593036e-33
6.0986043e-21
1.3449e-32
-1.1941576e-20
0
-6.1796728e-21
1.2705951e-20
6.3804456e-21
-1.3917576e-32
6.0610599e-21
-1.2130762e-20
6.3139967e-21
-7.2690416e-33
-1.3210312e-20
0
0
6.2154719e-21
-3.3994686e-33
6.1306365e-21
-6.1682848e-21
-1.8402021e-20
1.7704689e-20
5.5240417e-21
-1.0584856e-20
5.3295222e-21
9.0946742e-33
5.4213197e-21
-2.9333384e-36
-1.5774208e-32
4.2536066e-21
-8.1125908e-21
-4.1320674e-21
0
-4.0736331e-21
3.8172752e-21
3.4371461e-21
3.0605237e-21
-6.3387074e-33
3.1242005e-33
-3.1097803e-33
-5.3450131e-21
2.3874437e-21
3.4265318e-33
-3.6453928e-21
2.4499175e-37
1.6913741e-21
3.2709339e-21
3.0724833e-21
-2.8060204e-21
-1.3841798e-33
-1.0877273e-21
-9.9264567e-22
2.0111541e-21
-2.144148e-21
-1.086975e-21
2.9776383e-21
1.709397e-21
-8.1508682e-22
-1.8298144e-21
-1.0562171e-21