/*--------------------------------*- C++ -*----------------------------------*\
  =========                 |
  \\      /  F ield         | OpenFOAM: The Open Source CFD Toolbox
   \\    /   O peration     | Website:  https://openfoam.org
    \\  /    A nd           | Version:  7
     \\/     M anipulation  |
\*---------------------------------------------------------------------------*/
FoamFile
{
    version     2.0;
    format      ascii;
    class       volScalarField;
    location    "0.00279";
    object      mag(U);
}
// * * * * * * * * * * * * * * * * * * * * * * * * * * * * * * * * * * * * * //

dimensions      [0 1 -1 0 0 0 0];

internalField   nonuniform List<scalar> 
5000
(
0.075477655
0.076191506
0.074308036
0.076213089
0.075224213
0.075454367
0.075431653
0.07542763
0.075484611
0.075478925
0.075460654
0.07546064
0.075461165
0.075459096
0.075455976
0.07545391
0.075452701
0.075451612
0.075450542
0.075449491
0.075448465
0.07544745
0.075446438
0.075445459
0.075444508
0.075443569
0.075442644
0.075441737
0.075440849
0.075439978
0.075439123
0.075438279
0.075437447
0.075436633
0.075435835
0.075435051
0.075434281
0.075433523
0.075432774
0.075432038
0.075431316
0.075430608
0.075429914
0.075429228
0.075428551
0.075427886
0.075427225
0.075426572
0.075425937
0.075425314
0.075424696
0.075424087
0.075423486
0.075422895
0.075422317
0.075421879
0.075421794
0.075421881
0.075421889
0.075421911
0.07542196
0.075421994
0.075422103
0.075422256
0.075422627
0.07542367
0.075423353
0.075421064
0.07541992
0.075420017
0.07542014
0.07542051
0.075419495
0.075418211
0.075418313
0.075418458
0.075418839
0.075418846
0.075419008
0.075419483
0.075418053
0.07541495
0.075414908
0.075417415
0.075417166
0.075414505
0.075414304
0.075415099
0.07541319
0.075412432
0.075414747
0.075414592
0.075411599
0.075411099
0.075412418
0.075411054
0.0754102
0.075412169
0.075411985
0.075409127
0.075408666
0.075409825
0.075408221
0.075407727
0.075408853
0.075407256
0.075406756
0.07540787
0.075406302
0.075405638
0.075407778
0.075407625
0.075404928
0.075404437
0.075406613
0.075406446
0.075403699
0.075403188
0.075405324
0.075405142
0.075402589
0.075401159
0.075401262
0.075401377
0.075401799
0.075402647
0.075402464
0.075400484
0.075400026
0.075401973
0.075401797
0.075399336
0.075398963
0.075399868
0.07539861
0.075397466
0.075397534
0.075397627
0.0753979
0.075397118
0.075397061
0.075398634
0.075398379
0.075396131
0.075395767
0.075396995
0.075396487
0.075395672
0.075395684
0.07539482
0.075394701
0.075395126
0.07539392
0.075393606
0.075395152
0.075394987
0.075393
0.075392712
0.075393435
0.075392375
0.075392042
0.075392692
0.075391667
0.075391318
0.075392646
0.075392478
0.075390729
0.075390364
0.075391562
0.075391399
0.075389829
0.075389531
0.075390637
0.075390488
0.07538894
0.075388698
0.075389226
0.07538834
0.075388072
0.075388574
0.075387717
0.075387476
0.075387965
0.075387114
0.075386423
0.07538673
0.075387219
0.075387185
0.075386087
0.075385829
0.075386924
0.075386769
0.075385298
0.075385091
0.075385587
0.075384742
0.075384514
0.07538501
0.075384173
0.075383929
0.075384411
0.0753836
0.075383368
0.075384467
0.075384317
0.075382854
0.075382628
0.07538311
0.075382316
0.075382104
0.075382583
0.075381785
0.075381541
0.0753826
0.075382452
0.075381031
0.075380817
0.075381417
0.075380784
0.075380207
0.075380377
0.0753799
0.075379786
0.07538003
0.075379314
0.075378699
0.075378739
0.075378789
0.075378974
0.075379366
0.075379225
0.075378146
0.075377418
0.07537743
0.075377445
0.0753775
0.075377609
0.07537797
0.075377827
0.075376849
0.075376478
0.075377114
0.07537702
0.075375904
0.075375274
0.075375293
0.075375316
0.075375399
0.075375563
0.075376109
0.07537592
0.07537452
0.075374309
0.075374855
0.075373962
0.075373691
0.075374884
0.075374735
0.075373165
0.075372938
0.075373475
0.075372657
0.075371897
0.075371948
0.075372011
0.075372244
0.07537273
0.075372597
0.075371333
0.075371105
0.075372383
0.075372229
0.075370559
0.075370331
0.075370931
0.075370027
0.075369793
0.07537037
0.075369464
0.075369239
0.075369827
0.075368946
0.075368198
0.07536836
0.075368296
0.075368279
0.075368322
0.075368446
0.075368662
0.075367961
0.075366545
0.075366214
0.075366331
0.075366458
0.075366859
0.075366379
0.075366346
0.075366733
0.075365752
0.075364899
0.075364909
0.075364922
0.075364969
0.075365059
0.075365351
0.075365291
0.075365299
0.075365152
0.075363916
0.075363731
0.075364343
0.075363421
0.07536317
0.075364488
0.07536434
0.075362657
0.075362394
0.07536296
0.075362125
0.07536174
0.075362116
0.075361522
0.075361011
0.075361054
0.075361107
0.075361305
0.07536172
0.075361536
0.075360336
0.07535997
0.075360352
0.075359758
0.075359298
0.075359401
0.075359552
0.075360062
0.075359974
0.0753587
0.075357513
0.075357226
0.075357297
0.075357463
0.075357453
0.075357555
0.075357683
0.075357131
0.07535678
0.07535692
0.075357127
0.075357828
0.075357705
0.075356339
0.075356137
0.0753569
0.075356198
0.075355025
0.075355033
0.075355047
0.075355123
0.075355292
0.075354624
0.075354563
0.075355605
0.075355463
0.075354081
0.075353877
0.075354342
0.075353599
0.075353411
0.075353863
0.075353108
0.07535289
0.075353325
0.075352608
0.075352416
0.075353392
0.075353255
0.075351992
0.075351448
0.075351569
0.075351745
0.075352339
0.075352219
0.075351026
0.075350825
0.075351789
0.075351659
0.075350403
0.075350201
0.075350602
0.07534996
0.075349475
0.075349714
0.075350091
0.075350087
0.07534922
0.075349066
0.075349473
0.075348816
0.075348648
0.075349037
0.075348396
0.075348207
0.075348567
0.075347976
0.075347794
0.075348119
0.07534758
0.075347354
0.075347904
0.075347825
0.075347128
0.075346909
0.075347036
0.075346843
0.075346677
0.075346682
0.075346686
0.075346704
0.075346729
0.075346814
0.075346964
0.07534721
0.075347584
0.075348068
0.075348657
0.075349341
0.075350108
0.075350947
0.075351849
0.075352804
0.075353805
0.075354842
0.075355906
0.075356988
0.075358076
0.075359174
0.075360294
0.075361422
0.07536256
0.075363652
0.075364624
0.075365604
0.075366627
0.075367661
0.075368738
0.075369864
0.075371084
0.075372403
0.07537382
0.075375324
0.075376893
0.075378578
0.075380412
0.075382385
0.075384444
0.075386474
0.075388532
0.07539073
0.075393087
0.075395521
0.075397802
0.075399892
0.075401954
0.075404074
0.075406249
0.075408451
0.075410631
0.075412683
0.075414481
0.075416032
0.075417571
0.075419351
0.075421446
0.075423555
0.07542534
0.07542708
0.075429213
0.075431876
0.075434548
0.075436609
0.075438317
0.075440098
0.075442168
0.075444277
0.075445946
0.075447345
0.075448733
0.075450152
0.075451482
0.075452601
0.075453626
0.075454694
0.075455751
0.07545647
0.075456582
0.075456179
0.075456215
0.075457312
0.075458267
0.075457784
0.075456792
0.075456846
0.07545881
0.075461433
0.075462418
0.075462085
0.075461783
0.07546283
0.075465196
0.075466671
0.075466475
0.075466073
0.075467079
0.075469294
0.075470695
0.075470546
0.075470033
0.075470731
0.075472749
0.075474319
0.075474312
0.075473718
0.075474212
0.07547609
0.075477959
0.07547899
0.07547972
0.075480302
0.07548052
0.075480258
0.075479892
0.075480521
0.075482306
0.075483866
0.075484475
0.075484632
0.075485016
0.07548562
0.075485678
0.075485376
0.075485032
0.075484299
0.075484611
0.075487148
0.075490072
0.075491542
0.075492371
0.07549312
0.07549357
0.075493389
0.075493009
0.075493784
0.075495528
0.075496328
0.075496201
0.075496171
0.075496081
0.075495946
0.075495786
0.07549539
0.075494927
0.075493987
0.07549325
0.075495017
0.075498866
0.075501178
0.075501196
0.075500625
0.075500887
0.07550158
0.075501247
0.075500188
0.075500512
0.0755025
0.075503626
0.075503489
0.075503455
0.075503342
0.075503217
0.075502879
0.075502448
0.075501528
0.075500326
0.075501819
0.075505115
0.075505426
0.075504668
0.075504394
0.075503555
0.075502033
0.075501836
0.075503905
0.075505183
0.07550408
0.0755025
0.075502778
0.075505449
0.075506812
0.075506373
0.075506025
0.075504869
0.075502797
0.075502774
0.075506245
0.075509321
0.075509111
0.075508965
0.075508793
0.075508333
0.075508058
0.075507191
0.075506195
0.075507669
0.075510724
0.075511231
0.075510656
0.075510589
0.075510366
0.075510085
0.075509575
0.075508334
0.075507902
0.075509582
0.075510785
0.075510342
0.075509839
0.075508827
0.075509991
0.075513118
0.075513571
0.075512891
0.075512818
0.07551256
0.075512272
0.075511342
0.075510023
0.075510943
0.07551312
0.075513032
0.075512861
0.075512281
0.075510375
0.075511101
0.075514302
0.075515134
0.075514438
0.075514152
0.075513053
0.075512455
0.075514429
0.075516818
0.075516682
0.075516521
0.075516124
0.075514867
0.075514696
0.075516491
0.075517848
0.075516885
0.075515443
0.075515332
0.075517655
0.075520013
0.07551982
0.075519624
0.075518984
0.075517624
0.075518628
0.075521074
0.075521085
0.075520315
0.075519541
0.075519217
0.07552076
0.07552177
0.075521369
0.075521092
0.075520025
0.075519733
0.075521912
0.075523952
0.0755238
0.075523646
0.075523249
0.075522214
0.075521895
0.075523878
0.075526499
0.075526459
0.075525873
0.075525695
0.075525025
0.07552386
0.075523738
0.07552584
0.075527695
0.075527594
0.075527491
0.075527208
0.07552652
0.075525661
0.075526473
0.075528792
0.075528968
0.075528377
0.075527904
0.075527195
0.075528433
0.075530134
0.075529902
0.075529687
0.075528864
0.075528654
0.075530466
0.075531318
0.075530933
0.0755305
0.075529738
0.075530834
0.075532946
0.075532871
0.07553273
0.075532403
0.075531444
0.075532871
0.075535557
0.075535648
0.075534823
0.075533938
0.075533889
0.07553555
0.075536217
0.075535521
0.075534621
0.075534464
0.075536883
0.075539724
0.075539782
0.075539319
0.075539217
0.075538864
0.075538277
0.075537022
0.075537127
0.075539327
0.075540263
0.075539865
0.075539427
0.075538867
0.075540026
0.075541904
0.075541814
0.075541685
0.075541282
0.075540296
0.075541623
0.075544302
0.075544497
0.075543985
0.075543598
0.075542551
0.075543459
0.075545973
0.075546396
0.075545965
0.075545585
0.075544517
0.075545218
0.075547883
0.075549013
0.075548335
0.075547359
0.075547371
0.075548786
0.075549225
0.075548058
0.075548007
0.075549912
0.07555143
0.075551161
0.075550891
0.075550243
0.075550026
0.075551933
0.075553602
0.075553368
0.075553171
0.075552597
0.075552293
0.075554076
0.075555954
0.075555828
0.075555691
0.075555317
0.075554398
0.075555385
0.075557672
0.075558034
0.07555754
0.075557106
0.075556599
0.075557933
0.075560023
0.075559966
0.075559553
0.075559159
0.075558714
0.075560279
0.075562416
0.075562319
0.075561981
0.075561656
0.07556124
0.0755626
0.075564327
0.075564199
0.075564044
0.075563659
0.075562932
0.075564318
0.075566995
0.075567633
0.075567178
0.075567032
0.075566458
0.075565914
0.07556724
0.075570104
0.075571712
0.075571669
0.075571453
0.075571334
0.07557085
0.075569876
0.075569894
0.075571958
0.075573711
0.075573548
0.075573207
0.075572815
0.075573227
0.07557496
0.075575614
0.075574957
0.075574097
0.075574018
0.075576096
0.075578466
0.075578466
0.075577676
0.07557687
0.075576782
0.075578795
0.075580792
0.075580602
0.07558002
0.075579304
0.07557926
0.075581356
0.075583313
0.07558314
0.075582855
0.075582497
0.075582061
0.075583505
0.075585963
0.07558663
0.075586272
0.075586023
0.075585307
0.075585107
0.075586968
0.075589378
0.075589913
0.075589559
0.075589226
0.075588396
0.075588369
0.075590487
0.075592753
0.075592977
0.075592593
0.07559226
0.075591339
0.075591511
0.075593947
0.075596236
0.075596449
0.075596081
0.075595741
0.075594882
0.075594942
0.075597089
0.075599562
0.075600664
0.075601069
0.075601194
0.075601135
0.075601529
0.075602413
0.07560309
0.07560349
0.075603711
0.07560356
0.075603099
0.075602437
0.07560263
0.07560458
0.075606468
0.075606504
0.075605951
0.075605411
0.07560518
0.075606569
0.075609031
0.075610427
0.075610493
0.075610243
0.075609956
0.075609434
0.075609854
0.075611882
0.075613708
0.07561405
0.075613822
0.075613534
0.075613057
0.075613533
0.07561553
0.075617152
0.075617237
0.07561668
0.075615986
0.075616045
0.07561779
0.075619976
0.075620784
0.075620649
0.075620344
0.07561998
0.075620573
0.075622519
0.075624019
0.075624143
0.075623664
0.075623047
0.075623253
0.07562505
0.075627141
0.075627984
0.075627949
0.07562761
0.07562723
0.0756278
0.075629626
0.075631191
0.075631594
0.075631336
0.075630839
0.07563085
0.075632155
0.075634076
0.075635269
0.075635624
0.075635459
0.07563515
0.075635642
0.075637178
0.075638647
0.075639344
0.075639416
0.075639222
0.075639634
0.075640932
0.075642205
0.075642884
0.075643038
0.075642957
0.075643448
0.075644697
0.075645846
0.075646458
0.07564671
0.075647004
0.075647763
0.07564876
0.075649339
0.075649462
0.075649869
0.075650922
0.075651914
0.075652295
0.075652156
0.075652012
0.075652818
0.075654503
0.075655841
0.075656494
0.075656765
0.075656684
0.075656656
0.075657535
0.075659147
0.075660406
0.075661143
0.075661745
0.075662174
0.075662257
0.075662475
0.075663458
0.075664795
0.075665765
0.075666426
0.075666872
0.075667026
0.075667368
0.075668395
0.075669648
0.07567054
0.075671162
0.075671487
0.075671539
0.075672069
0.07567337
0.07567463
0.075675428
0.075675989
0.075676256
0.075676396
0.075677132
0.075678491
0.075679668
0.07568045
0.075681095
0.075681594
0.07568195
0.075682563
0.075683633
0.075684722
0.075685543
0.075686221
0.07568682
0.075687434
0.075688237
0.075689157
0.075689978
0.07569063
0.075691201
0.075691931
0.075692884
0.075693802
0.075694537
0.075695065
0.075695519
0.075696302
0.07569744
0.075698472
0.075699249
0.075699819
0.075700215
0.075700843
0.075701974
0.075703167
0.075704057
0.075704762
0.075705315
0.075705816
0.075706637
0.075707803
0.075708882
0.075709724
0.075710422
0.075710993
0.075711654
0.075712651
0.075713773
0.075714706
0.075715486
0.075716139
0.075716681
0.075717432
0.075718576
0.075719758
0.075720692
0.075721495
0.075722224
0.075722846
0.07572354
0.075724538
0.075725697
0.075726732
0.075727637
0.075728506
0.075729358
0.075730167
0.075730889
0.075731609
0.075732548
0.075733688
0.075734762
0.075735681
0.075736532
0.075737312
0.075738019
0.07573885
0.075739956
0.075741124
0.075742128
0.075743028
0.075743884
0.075744662
0.075745419
0.07574637
0.07574755
0.075748693
0.075749665
0.075750543
0.075751335
0.075752074
0.075753001
0.075754212
0.07575543
0.075756459
0.075757391
0.075758274
0.075759096
0.075759962
0.075761027
0.075762231
0.075763366
0.075764383
0.07576535
0.075766282
0.075767177
0.075768123
0.075769218
0.075770391
0.0757715
0.075772529
0.075773521
0.075774483
0.075775448
0.075776497
0.075777647
0.075778792
0.075779864
0.075780886
0.075781874
0.075782868
0.075783958
0.075785143
0.075786302
0.075787378
0.075788386
0.075789357
0.075790411
0.075791631
0.075792881
0.075794021
0.075795077
0.07579608
0.075797081
0.075798214
0.075799494
0.075800757
0.07580191
0.075802997
0.075804047
0.075805104
0.075806267
0.075807547
0.075808818
0.075810005
0.07581114
0.075812248
0.075813356
0.075814535
0.075815812
0.075817104
0.075818338
0.075819524
0.075820684
0.075821838
0.075823034
0.075824302
0.075825594
0.075826851
0.075828068
0.075829268
0.075830495
0.075831785
0.075833105
0.075834395
0.07583564
0.07583686
0.075838096
0.075839395
0.075840745
0.075842079
0.07584337
0.075844643
0.07584594
0.075847284
0.075848642
0.075849967
0.075851258
0.075852556
0.075853913
0.075855327
0.075856727
0.075858072
0.075859376
0.075860686
0.075862069
0.075863537
0.075865005
0.075866407
0.075867761
0.075869095
0.075870463
0.075871917
0.075873434
0.075874928
0.075876365
0.075877764
0.075879153
0.075880579
0.075882079
0.075883628
0.075885155
0.075886636
0.075888082
0.075889522
0.075890999
0.07589255
0.075894147
0.075895723
0.075897251
0.075898743
0.075900223
0.075901738
0.075903328
0.075904983
0.075906634
0.075908244
0.075909817
0.075911372
0.075912928
0.075914512
0.075916147
0.075917825
0.075919517
0.075921199
0.075922863
0.075924513
0.075926157
0.075927806
0.075929484
0.075931211
0.075932973
0.075934734
0.07593647
0.075938184
0.075939887
0.075941596
0.07594334
0.075945142
0.075946992
0.075948848
0.075950676
0.075952472
0.075954251
0.075956033
0.075957848
0.075959718
0.075961631
0.075963557
0.075965473
0.075967377
0.075969271
0.075971159
0.075973052
0.075974973
0.075976942
0.075978953
0.075980978
0.075982992
0.07598499
0.075986978
0.075988966
0.075990976
0.07599303
0.07599513
0.075997255
0.075999375
0.076001476
0.076003571
0.076005674
0.076007804
0.07600997
0.076012171
0.076014388
0.076016605
0.076018814
0.076021026
0.076023256
0.076025518
0.076027811
0.076030128
0.076032454
0.076034778
0.076037104
0.076039446
0.07604182
0.076044229
0.076046662
0.076049099
0.076051533
0.076053972
0.076056437
0.076058941
0.07606148
0.076064034
0.076066589
0.076069143
0.076071716
0.076074326
0.076076975
0.076079649
0.076082325
0.076084999
0.076087684
0.076090404
0.076093174
0.076095982
0.076098804
0.076101622
0.076104436
0.076107265
0.076110131
0.076113044
0.076115998
0.076118976
0.076121964
0.076124963
0.07612798
0.076131024
0.076134098
0.076137199
0.076140323
0.07614347
0.076146644
0.076149847
0.076153079
0.076156337
0.076159621
0.076162934
0.076166278
0.076169649
0.07617304
0.076176448
0.07617988
0.076183349
0.076186863
0.076190419
0.076194005
0.076197607
0.076201225
0.076204868
0.076208547
0.076212267
0.076216025
0.076219816
0.076223637
0.076227491
0.076231377
0.076235292
0.076239233
0.076243202
0.076247209
0.076251264
0.076255369
0.076259512
0.076263677
0.076267857
0.076272061
0.076276309
0.076280612
0.07628497
0.076289369
0.076293793
0.076298238
0.076302712
0.076307231
0.076311801
0.076316421
0.07632108
0.076325771
0.076330493
0.076335254
0.076340063
0.076344924
0.076349831
0.076354773
0.076359744
0.076364751
0.076369807
0.076374922
0.076380092
0.076385304
0.076390545
0.076395816
0.07640113
0.076406503
0.07641194
0.076417431
0.076422958
0.076428515
0.076434105
0.076439747
0.076445453
0.076451224
0.076457049
0.076462913
0.076468808
0.076474741
0.076480727
0.07648678
0.076492899
0.076499074
0.076505291
0.076511543
0.076517838
0.076524189
0.076530608
0.076537092
0.076543634
0.07655022
0.076556846
0.076563518
0.076570249
0.076577049
0.076583918
0.076590848
0.076597825
0.076604846
0.076611914
0.076619043
0.076626238
0.076633503
0.076640829
0.076648211
0.076655645
0.076663136
0.076670688
0.076678305
0.076685983
0.076693719
0.076701516
0.076709378
0.076717311
0.07672531
0.076733368
0.076741478
0.076749643
0.076757875
0.076766185
0.076774574
0.076783033
0.076791548
0.076800111
0.076808731
0.076817422
0.076826195
0.076835053
0.076843984
0.076852976
0.076862022
0.076871127
0.076880303
0.07688956
0.076898901
0.076908319
0.076917804
0.076927351
0.07693696
0.076946641
0.076956402
0.076966247
0.076976173
0.076986172
0.076996239
0.077006373
0.077016582
0.077026876
0.077037257
0.077047721
0.077058257
0.07706886
0.077079532
0.077090284
0.077101128
0.077112069
0.0771231
0.077134209
0.077145387
0.077156635
0.077167962
0.077179379
0.07719089
0.077202494
0.077214187
0.077225964
0.077237823
0.077249767
0.077261795
0.077273911
0.077286118
0.077298422
0.077310825
0.077323324
0.077335914
0.077348587
0.077361344
0.077374194
0.077387147
0.07740021
0.077413378
0.077426643
0.077439994
0.077453432
0.07746697
0.077480619
0.077494385
0.077508263
0.077522244
0.077536319
0.07755049
0.077564765
0.077579156
0.077593666
0.077608294
0.077623034
0.077637882
0.077652842
0.07766792
0.07768312
0.077698443
0.077713883
0.077729437
0.077745111
0.077760915
0.077776857
0.077792938
0.07780915
0.077825483
0.077841937
0.077858521
0.07787525
0.077892135
0.077909174
0.077926358
0.07794368
0.077961137
0.077978737
0.077996494
0.078014418
0.078032513
0.078050777
0.078069201
0.078087785
0.078106531
0.07812545
0.078144553
0.078163846
0.078183327
0.078202992
0.078222842
0.07824288
0.07826312
0.078283574
0.07830425
0.078325146
0.078346254
0.07836757
0.0783891
0.07841086
0.078432865
0.078455129
0.078477654
0.078500438
0.078523478
0.078546779
0.078570347
0.078594196
0.078618336
0.078642777
0.078667528
0.078692598
0.078717993
0.078743718
0.078769777
0.078796176
0.078822928
0.078850046
0.078877549
0.078905449
0.078933754
0.078962467
0.078991596
0.079021155
0.079051164
0.079081642
0.079112601
0.079144049
0.079175993
0.079208447
0.079241435
0.079274984
0.079309113
0.079343835
0.079379153
0.079415076
0.079451625
0.079488834
0.079526737
0.079565362
0.079604726
0.079644839
0.079685712
0.079727365
0.079769829
0.07981314
0.079857334
0.079902441
0.079948487
0.079995495
0.08004349
0.080092503
0.080142568
0.080193722
0.080246001
0.080299444
0.080354089
0.080409974
0.080467137
0.080525618
0.080585455
0.080646692
0.080709374
0.080773553
0.08083928
0.080906609
0.080975586
0.081046256
0.081118667
0.081192874
0.081268943
0.081346942
0.081426935
0.081508983
0.08159314
0.081679466
0.081768028
0.081858904
0.081952177
0.082047926
0.082146228
0.082247153
0.082350775
0.082457172
0.082566434
0.082678657
0.08279394
0.08291238
0.083034074
0.083159117
0.083287602
0.083419629
0.083555305
0.083694742
0.083838063
0.083985387
0.08413684
0.084292541
0.084452615
0.084617185
0.084786381
0.084960335
0.085139187
0.085323085
0.085512184
0.085706643
0.085906618
0.086112263
0.086323728
0.086541175
0.086764773
0.086994705
0.087231155
0.087474317
0.087724375
0.087981523
0.088245947
0.088517848
0.088797429
0.089084908
0.089380502
0.089684438
0.089996946
0.090318256
0.090648599
0.090988209
0.091337329
0.091696216
0.09206514
0.092444374
0.092834192
0.093234863
0.093646657
0.094069849
0.094504734
0.094951619
0.095410824
0.095882668
0.096367471
0.096865547
0.097377218
0.097902818
0.098442694
0.098997203
0.099566711
0.10015159
0.1007522
0.10136894
0.10200217
0.10265229
0.1033197
0.10400481
0.10470804
0.10542981
0.10617055
0.10693072
0.10771074
0.10851109
0.1093322
0.11017455
0.11103861
0.11192488
0.11283386
0.11376604
0.11472192
0.11570204
0.11670691
0.11773707
0.11879307
0.11987545
0.12098477
0.12212159
0.12328648
0.12448003
0.12570285
0.12695556
0.12823875
0.12955303
0.13089902
0.13227734
0.13368863
0.13513358
0.13661284
0.1381271
0.13967702
0.14126329
0.14288658
0.1445476
0.14624706
0.14798568
0.14976421
0.15158338
0.15344395
0.15534665
0.15729225
0.1592815
0.16131517
0.16339407
0.16551899
0.16769076
0.16991018
0.17217806
0.1744952
0.17686243
0.17928059
0.18175054
0.18427316
0.18684933
0.18947989
0.19216572
0.19490768
0.19770665
0.20056354
0.20347927
0.20645476
0.20949094
0.21258872
0.21574901
0.21897275
0.22226086
0.2256143
0.22903403
0.23252103
0.23607625
0.23970066
0.24339523
0.24716091
0.25099869
0.25490955
0.2588945
0.26295455
0.26709068
0.27130391
0.27559521
0.2799656
0.28441606
0.28894764
0.29356136
0.29825823
0.30303929
0.30790555
0.31285801
0.3178977
0.32302565
0.32824289
0.33355046
0.33894939
0.34444072
0.35002545
0.35570461
0.36147923
0.36735033
0.37331896
0.37938615
0.38555293
0.3918203
0.39818928
0.40466089
0.41123614
0.41791605
0.42470165
0.43159394
0.43859392
0.44570258
0.45292092
0.46024994
0.46769062
0.47524397
0.48291095
0.49069254
0.49858968
0.50660336
0.51473451
0.52298412
0.53135313
0.53984248
0.54845308
0.55718586
0.56604172
0.57502158
0.58412636
0.59335695
0.60271425
0.61219912
0.62181242
0.63155501
0.64142774
0.65143145
0.66156699
0.67183519
0.68223685
0.69277278
0.70344375
0.71425055
0.72519395
0.73627472
0.74749362
0.75885138
0.77034872
0.78198637
0.79376501
0.80568534
0.81774805
0.8299538
0.84230327
0.85479709
0.86743588
0.88022026
0.89315083
0.90622819
0.91945293
0.93282563
0.94634682
0.96001705
0.97383682
0.98780667
1.0019271
1.0161985
1.0306216
1.0451966
1.059924
1.0748043
1.0898379
1.1050251
1.1203664
1.1358622
1.1515128
1.1673185
1.1832797
1.1993967
1.2156697
1.2320992
1.2486853
1.2654284
1.2823286
1.2993861
1.3166013
1.3339743
1.3515053
1.3691945
1.387042
1.4050479
1.4232124
1.4415357
1.4600177
1.4786587
1.4974586
1.5164176
1.5355357
1.5548128
1.574249
1.5938444
1.6135989
1.6335126
1.6535852
1.6738169
1.6942075
1.7147569
1.7354651
1.756332
1.7773574
1.7985413
1.8198834
1.8413836
1.8630417
1.8848577
1.9068312
1.928962
1.95125
1.9736949
1.9962965
2.0190545
2.0419687
2.0650387
2.0882643
2.1116452
2.1351811
2.1588716
2.1827164
2.2067152
2.2308676
2.2551733
2.2796318
2.3042429
2.3290059
2.3539207
2.3789868
2.4042037
2.429571
2.4550883
2.4807551
2.5065709
2.5325353
2.5586478
2.5849079
2.6113151
2.6378689
2.6645688
2.6914143
2.7184048
2.7455397
2.7728186
2.800241
2.8278061
2.8555135
2.8833627
2.9113529
2.9394836
2.9677542
2.9961642
3.0247129
3.0533998
3.0822241
3.1111852
3.1402826
3.1695155
3.1988834
3.2283856
3.2580215
3.2877903
3.3176915
3.3477243
3.3778881
3.4081822
3.438606
3.4691587
3.4998396
3.5306481
3.5615834
3.5926449
3.6238319
3.6551436
3.6865793
3.7181384
3.7498201
3.7816236
3.8135483
3.8455934
3.8777583
3.9100421
3.9424441
3.9749637
4.0075999
4.0403522
4.0732198
4.1062019
4.1392978
4.1725068
4.205828
4.2392608
4.2728043
4.3064578
4.3402206
4.3740919
4.4080709
4.442157
4.4763494
4.5106472
4.5450497
4.5795561
4.6141657
4.6488778
4.6836914
4.7186061
4.7536208
4.7887349
4.8239477
4.8592582
4.8946659
4.9301698
4.9657693
5.0014635
5.0372518
5.0731333
5.1091073
5.1451731
5.1813299
5.2175768
5.2539132
5.2903382
5.3268512
5.3634513
5.4001378
5.43691
5.4737671
5.5107084
5.547733
5.5848402
5.6220293
5.6592996
5.6966502
5.7340804
5.7715896
5.8091769
5.8468415
5.8845828
5.9224
5.9602924
5.9982591
6.0362996
6.0744131
6.1125987
6.1508558
6.1891837
6.2275816
6.2660487
6.3045844
6.343188
6.3818587
6.4205958
6.4593986
6.4982662
6.5371982
6.5761936
6.6152518
6.6543722
6.6935539
6.7327963
6.7720987
6.8114603
6.8508805
6.8903586
6.9298938
6.9694855
7.0091329
7.0488355
7.0885924
7.128403
7.1682666
7.2081825
7.2481501
7.2881686
7.3282374
7.3683558
7.4085231
7.4487386
7.4890017
7.5293118
7.569668
7.6100698
7.6505165
7.6910074
7.7315419
7.7721193
7.812739
7.8534003
7.8941025
7.9348449
7.9756271
8.0164482
8.0573076
8.0982048
8.139139
8.1801096
8.221116
8.2621575
8.3032335
8.3443433
8.3854864
8.4266621
8.4678698
8.5091088
8.5503785
8.5916783
8.6330075
8.6743656
8.7157519
8.7571658
8.7986067
8.8400739
8.881567
8.9230851
8.9646278
9.0061944
9.0477843
9.0893969
9.1310316
9.1726879
9.214365
9.2560625
9.2977796
9.3395158
9.3812705
9.4230431
9.4648331
9.5066398
9.5484626
9.5903009
9.6321542
9.6740218
9.7159033
9.7577979
9.7997051
9.8416244
9.8835551
9.9254967
9.9674485
10.00941
10.051381
10.09336
10.135347
10.177342
10.219343
10.261351
10.303364
10.345383
10.387406
10.429433
10.471463
10.513497
10.555532
10.597569
10.639608
10.681647
10.723686
10.765724
10.807762
10.849797
10.891831
10.933861
10.975889
11.017912
11.059931
11.101945
11.143953
11.185955
11.227951
11.269939
11.31192
11.353892
11.395855
11.437809
11.479752
11.521685
11.563607
11.605518
11.647416
11.689301
11.731173
11.773031
11.814875
11.856704
11.898517
11.940314
11.982095
12.023858
12.065604
12.107331
12.14904
12.190729
12.232398
12.274047
12.315675
12.357281
12.398865
12.440427
12.481965
12.52348
12.56497
12.606435
12.647875
12.689289
12.730677
12.772037
12.81337
12.854675
12.895951
12.937198
12.978415
13.019601
13.060757
13.101882
13.142974
13.184034
13.225061
13.266054
13.307013
13.347937
13.388826
13.429679
13.470495
13.511275
13.552017
13.592721
13.633387
13.674013
13.7146
13.755146
13.795652
13.836116
13.876538
13.916918
13.957255
13.997548
14.037797
14.078001
14.11816
14.158273
14.19834
14.238359
14.278332
14.318256
14.358131
14.397957
14.437734
14.47746
14.517135
14.556759
14.596331
14.63585
14.675317
14.714729
14.754087
14.79339
14.832638
14.87183
14.910965
14.950044
14.989064
15.028027
15.06693
15.105774
15.144558
15.183282
15.221944
15.260545
15.299084
15.337559
15.375972
15.41432
15.452604
15.490823
15.528976
15.567062
15.605082
15.643035
15.680919
15.718735
15.756482
15.794159
15.831765
15.869301
15.906766
15.944158
15.981477
16.018724
16.055896
16.092994
16.130018
16.166965
16.203837
16.240632
16.277349
16.313989
16.35055
16.387032
16.423434
16.459757
16.495998
16.532158
16.568236
16.604231
16.640144
16.675972
16.711717
16.747376
16.78295
16.818437
16.853838
16.889152
16.924378
16.959515
16.994563
17.029522
17.06439
17.099168
17.133854
17.168448
17.20295
17.237358
17.271673
17.305893
17.340018
17.374047
17.407981
17.441818
17.475557
17.509198
17.542741
17.576185
17.609528
17.642772
17.675914
17.708955
17.741894
17.77473
17.807463
17.840092
17.872616
17.905035
17.937348
17.969555
18.001655
18.033647
18.065531
18.097306
18.128972
18.160528
18.191973
18.223306
18.254528
18.285637
18.316633
18.347515
18.378283
18.408936
18.439473
18.469893
18.500197
18.530383
18.560451
18.590399
18.620229
18.649938
18.679526
18.708992
18.738336
18.767557
18.796655
18.825628
18.854476
18.883199
18.911795
18.940264
18.968605
18.996818
19.024901
19.052854
19.080676
19.108367
19.135925
19.16335
19.190642
19.217798
19.244819
19.271703
19.298451
19.32506
19.35153
19.37786
19.40405
19.430098
19.456003
19.481765
19.507382
19.532854
19.55818
19.583357
19.608386
19.633266
19.657995
19.682571
19.706995
19.731265
19.755379
19.779336
19.803136
19.826776
19.850256
19.873574
19.896728
19.919718
19.942541
19.965197
19.987683
20.009999
20.032141
20.05411
20.075902
20.097517
20.118951
20.140204
20.161273
20.182157
20.202852
20.223358
20.243671
20.26379
20.283712
20.303434
20.322954
20.34227
20.361378
20.380275
20.39896
20.417429
20.435678
20.453704
20.471505
20.489076
20.506415
20.523517
20.540378
20.556995
20.573364
20.58948
20.605339
20.620936
20.636267
20.651326
20.66611
20.680612
20.694827
20.70875
20.722375
20.735695
20.748705
20.761398
20.773768
20.785808
20.79751
20.808868
20.819873
20.830518
20.840795
20.850695
20.860209
20.869329
20.878045
20.886348
20.894227
20.901672
20.908672
20.915217
20.921295
20.926894
20.932003
20.936607
20.940696
20.944254
20.947268
20.949724
20.951608
20.952903
20.953616
20.953691
20.95316
20.951951
20.950054
20.947482
20.944198
20.940184
20.935415
20.929874
20.923544
20.916405
20.908432
20.899597
20.889877
20.879247
20.867685
20.855168
20.841669
20.827157
20.811602
20.794979
20.777259
20.758411
20.738403
20.717205
20.694784
20.671109
20.646144
20.619857
20.592212
20.563175
20.532708
20.500775
20.467339
20.432362
20.395803
20.357626
20.31779
20.276256
20.232984
20.187931
20.141058
20.092322
20.041682
19.989098
19.934526
19.877926
19.819254
19.75847
19.695532
19.6304
19.563032
19.493388
19.421429
19.347116
19.270412
19.191278
19.10968
19.025582
18.938951
18.849755
18.757964