/*--------------------------------*- C++ -*----------------------------------*\
  =========                 |
  \\      /  F ield         | OpenFOAM: The Open Source CFD Toolbox
   \\    /   O peration     | Website:  https://openfoam.org
    \\  /    A nd           | Version:  7
     \\/     M anipulation  |
\*---------------------------------------------------------------------------*/
FoamFile
{
    version     2.0;
    format      ascii;
    class       volScalarField;
    location    "0.0009";
    object      p;
}
// * * * * * * * * * * * * * * * * * * * * * * * * * * * * * * * * * * * * * //

dimensions      [1 -1 -2 0 0 0 0];

internalField   nonuniform List<scalar> 
5000
(
120000
120000
120000
120000
120000
120000
120000
120000
120000
120000
120000
120000
120000
120000
120000
120000
120000
120000
120000
120000
120000
120000
120000
120000
120000
120000
120000
120000
120000
120000
120000
120000
120000
120000
120000
120000
120000
120000
120000
120000
120000
120000
120000
120000
120000
120000
120000
120000
120000
120000
120000
120000
120000
120000
120000
120000
120000
120000
120000
120000
120000
120000
120000
120000
120000
120000
120000
120000
120000
120000
120000
120000
120000
120000
120000
120000
120000
120000
120000
120000
120000
120000
120000
120000
120000
120000
120000
120000
120000
120000
120000
120000
120000
120000
120000
120000
120000
120000
120000
120000
120000
120000
120000
120000
120000
120000
120000
120000
120000
120000
120000
120000
120000
120000
120000
120000
120000
120000
120000
120000
120000
120000
120000
120000
120000
120000
120000
120000
120000
120000
120000
120000
120000
120000
120000
120000
120000
120000
120000
120000
120000
120000
120000
120000
120000
120000
120000
120000
120000
120000
120000
120000
120000
120000
120000
120000
120000
120000
120000
120000
120000
120000
120000
120000
120000
120000
120000
120000
120000
120000
120000
120000
120000
120000
120000
120000
120000
120000
120000
120000
120000
120000
120000
120000
120000
120000
120000
120000
120000
120000
120000
120000
120000
120000
120000
120000
120000
120000
120000
120000
120000
120000
120000
120000
120000
120000
120000
120000
120000
120000
120000
120000
120000
120000
120000
120000
120000
120000
120000
120000
120000
120000
120000
120000
120000
120000
120000
120000
120000
120000
120000
120000
120000
120000
120000
120000
120000
120000
120000
120000
120000
120000
120000
120000
120000
120000
120000
120000
120000
120000
120000
120000
120000
120000
120000
120000
120000
120000
120000
120000
120000
120000
120000
120000
120000
120000
120000
120000
120000
120000
120000
120000
120000
120000
120000
120000
120000
120000
120000
120000
120000
120000
120000
120000
120000
120000
120000
120000
120000
120000
120000
120000
120000
120000
120000
120000
120000
120000
120000
120000
120000
120000
120000
120000
120000
120000
120000
120000
120000
120000
120000
120000
120000
120000
120000
120000
120000
120000
120000
120000
120000
120000
120000
120000
120000
120000
120000
120000
120000
120000
120000
120000
120000
120000
120000
120000
120000
120000
120000
120000
120000
120000
120000
120000
120000
120000
120000
120000
120000
120000
120000
120000
120000
120000
120000
120000
120000
120000
120000
120000
120000
120000
120000
120000
120000
120000
120000
120000
120000
120000
120000
120000
120000
120000
120000
120000
120000
120000
120000
120000
120000
120000
120000
120000
120000
120000
120000
120000
120000
120000
120000
120000
120000
120000
120000
120000
120000
120000
120000
120000
120000
120000
120000
120000
120000
120000
120000
120000
120000
120000
120000
120000
120000
120000
120000
120000
120000
120000
120000
120000
120000
120000
120000
120000
120000
120000
120000
120000
120000
120000
120000
120000
120000
120000
120000
120000
120000
120000
120000
120000
120000
120000
120000
120000
120000
120000
120000
120000
120000
120000
120000
120000
120000
120000
120000
120000
120000
120000
120000
120000
120000
120000
120000
120000
120000
120000
120000
120000
120000
120000
120000
120000
120000
120000
120000
120000
120000
120000
120000
120000
120000
120000
120000
120000
120000
120000
120000
120000
120000
120000
120000
120000
120000
120000
120000
120000
120000
120000
120000
120000
120000
120000
120000
120000
120000
120000
120000
120000
120000
120000
120000
120000
120000
120000
120000
120000
120000
120000
120000
120000
120000
120000
120000
120000
120000
120000
120000
120000
120000
120000
120000
120000
120000
120000
120000
120000
120000
120000
120000
120000
120000
120000
120000
120000
120000
120000
120000
120000
120000
120000
120000
120000
120000
120000
120000
120000
120000
120000
120000
120000
120000
120000
120000
120000
120000
120000
120000
120000
120000
120000
120000
120000
120000
120000
120000
120000
120000
120000
120000
120000
120000
120000
120000
120000
120000
120000
120000
120000
120000
120000
120000
120000
120000
120000
120000
120000
120000
120000
120000
120000
120000
120000
120000
120000
120000
120000
120000
120000
120000
120000
120000
120000
120000
120000
120000
120000
120000
120000
120000
120000
120000
120000
120000
120000
120000
120000
120000
120000
120000
120000
120000
120000
120000
120000
120000
120000
120000
120000
120000
120000
120000
120000
120000
119999.99
119999.99
119999.99
119999.99
119999.99
119999.99
119999.99
119999.99
119999.99
119999.99
119999.99
119999.99
119999.99
119999.99
119999.99
119999.99
119999.98
119999.98
119999.98
119999.98
119999.98
119999.98
119999.98
119999.97
119999.97
119999.97
119999.97
119999.97
119999.96
119999.96
119999.96
119999.96
119999.95
119999.95
119999.95
119999.94
119999.94
119999.93
119999.93
119999.92
119999.92
119999.91
119999.91
119999.9
119999.9
119999.89
119999.88
119999.87
119999.87
119999.86
119999.85
119999.84
119999.83
119999.82
119999.8
119999.79
119999.78
119999.76
119999.75
119999.73
119999.72
119999.7
119999.68
119999.66
119999.64
119999.62
119999.59
119999.57
119999.54
119999.51
119999.48
119999.45
119999.42
119999.38
119999.35
119999.31
119999.27
119999.22
119999.18
119999.13
119999.08
119999.02
119998.96
119998.9
119998.84
119998.77
119998.7
119998.63
119998.55
119998.47
119998.38
119998.29
119998.19
119998.09
119997.98
119997.87
119997.75
119997.62
119997.49
119997.36
119997.21
119997.06
119996.9
119996.73
119996.55
119996.37
119996.17
119995.97
119995.76
119995.53
119995.3
119995.05
119994.79
119994.52
119994.24
119993.94
119993.63
119993.3
119992.96
119992.6
119992.23
119991.84
119991.43
119991
119990.55
119990.09
119989.6
119989.09
119988.56
119988
119987.42
119986.81
119986.18
119985.52
119984.83
119984.12
119983.37
119982.59
119981.78
119980.93
119980.05
119979.13
119978.18
119977.18
119976.15
119975.07
119973.95
119972.79
119971.58
119970.32
119969.01
119967.65
119966.24
119964.77
119963.25
119961.67
119960.03
119958.33
119956.57
119954.74
119952.84
119950.88
119948.84
119946.73
119944.54
119942.28
119939.94
119937.51
119935
119932.4
119929.72
119926.94
119924.07
119921.1
119918.03
119914.86
119911.59
119908.21
119904.72
119901.12
119897.4
119893.56
119889.61
119885.53
119881.32
119876.98
119872.52
119867.91
119863.17
119858.29
119853.26
119848.09
119842.76
119837.28
119831.65
119825.85
119819.9
119813.77
119807.48
119801.01
119794.37
119787.55
119780.54
119773.35
119765.98
119758.4
119750.64
119742.67
119734.51
119726.14
119717.56
119708.77
119699.76
119690.53
119681.09
119671.42
119661.52
119651.39
119641.03
119630.43
119619.59
119608.51
119597.18
119585.61
119573.78
119561.7
119549.35
119536.75
119523.89
119510.76
119497.36
119483.68
119469.74
119455.52
119441.02
119426.23
119411.17
119395.81
119380.17
119364.24
119348.01
119331.49
119314.68
119297.56
119280.14
119262.42
119244.4
119226.07
119207.43
119188.48
119169.22
119149.65
119129.76
119109.56
119089.04
119068.21
119047.06
119025.58
119003.79
118981.68
118959.25
118936.49
118913.41
118890.01
118866.28
118842.23
118817.86
118793.16
118768.13
118742.79
118717.11
118691.12
118664.8
118638.15
118611.19
118583.9
118556.28
118528.35
118500.09
118471.52
118442.63
118413.41
118383.88
118354.04
118323.88
118293.4
118262.62
118231.52
118200.11
118168.4
118136.38
118104.05
118071.42
118038.49
118005.26
117971.74
117937.92
117903.8
117869.39
117834.7
117799.72
117764.45
117728.9
117693.08
117656.97
117620.59
117583.94
117547.02
117509.83
117472.38
117434.67
117396.69
117358.47
117319.99
117281.26
117242.29
117203.07
117163.61
117123.91
117083.98
117043.82
117003.43
116962.82
116921.99
116880.94
116839.67
116798.2
116756.52
116714.63
116672.55
116630.27
116587.79
116545.13
116502.28
116459.25
116416.04
116372.66
116329.11
116285.39
116241.5
116197.46
116153.27
116108.92
116064.42
116019.79
115975.01
115930.1
115885.05
115839.88
115794.59
115749.18
115703.65
115658.01
115612.26
115566.42
115520.47
115474.43
115428.3
115382.08
115335.78
115289.4
115242.95
115196.44
115149.85
115103.21
115056.51
115009.76
114962.96
114916.12
114869.24
114822.32
114775.38
114728.41
114681.42
114634.41
114587.39
114540.36
114493.33
114446.3
114399.27
114352.26
114305.26
114258.27
114211.32
114164.39
114117.49
114070.63
114023.81
113977.03
113930.31
113883.64
113837.03
113790.49
113744.01
113697.61
113651.29
113605.05
113558.89
113512.83
113466.86
113421
113375.24
113329.59
113284.05
113238.64
113193.34
113148.18
113103.15
113058.26
113013.51
112968.9
112924.45
112880.15
112836.02
112792.05
112748.25
112704.62
112661.17
112617.9
112574.83
112531.94
112489.25
112446.77
112404.48
112362.41
112320.55
112278.92
112237.5
112196.31
112155.36
112114.64
112074.16
112033.92
111993.94
111954.2
111914.73
111875.51
111836.56
111797.88
111759.47
111721.34
111683.5
111645.93
111608.66
111571.67
111534.99
111498.6
111462.52
111426.74
111391.27
111356.12
111321.28
111286.77
111252.57
111218.71
111185.17
111151.96
111119.09
111086.56
111054.37
111022.52
110991.02
110959.87
110929.06
110898.61
110868.52
110838.78
110809.4
110780.38
110751.72
110723.43
110695.5
110667.94
110640.75
110613.93
110587.48
110561.4
110535.69
110510.35
110485.39
110460.8
110436.59
110412.75
110389.28
110366.19
110343.47
110321.13
110299.16
110277.56
110256.33
110235.48
110215
110194.88
110175.13
110155.75
110136.74
110118.09
110099.8
110081.87
110064.29
110047.08
110030.21
110013.7
109997.54
109981.72
109966.24
109951.11
109936.31
109921.85
109907.72
109893.92
109880.44
109867.29
109854.45
109841.93
109829.71
109817.81
109806.2
109794.9
109783.89
109773.17
109762.74
109752.59
109742.72
109733.13
109723.8
109714.74
109705.94
109697.4
109689.1
109681.06
109673.26
109665.69
109658.36
109651.26
109644.38
109637.73
109631.28
109625.05
109619.03
109613.2
109607.57
109602.14
109596.89
109591.82
109586.93
109582.22
109577.68
109573.3
109569.08
109565.02
109561.11
109557.34
109553.73
109550.25
109546.91
109543.7
109540.61
109537.65
109534.81
109532.09
109529.48
109526.98
109524.58
109522.28
109520.09
109517.98
109515.97
109514.05
109512.22
109510.46
109508.79
109507.19
109505.66
109504.21
109502.82
109501.5
109500.25
109499.05
109497.91
109496.83
109495.8
109494.82
109493.89
109493
109492.17
109491.37
109490.62
109489.9
109489.22
109488.58
109487.98
109487.4
109486.86
109486.34
109485.86
109485.4
109484.97
109484.56
109484.17
109483.81
109483.47
109483.14
109482.84
109482.55
109482.28
109482.03
109481.79
109481.57
109481.36
109481.16
109480.98
109480.81
109480.64
109480.49
109480.35
109480.22
109480.09
109479.98
109479.87
109479.77
109479.67
109479.59
109479.5
109479.43
109479.36
109479.29
109479.23
109479.17
109479.12
109479.07
109479.02
109478.98
109478.94
109478.9
109478.87
109478.84
109478.81
109478.78
109478.75
109478.73
109478.71
109478.69
109478.67
109478.65
109478.64
109478.62
109478.61
109478.59
109478.58
109478.57
109478.56
109478.55
109478.55
109478.54
109478.54
109478.53
109478.53
109478.53
109478.52
109478.51
109478.5
109478.49
109478.49
109478.49
109478.48
109478.47
109478.46
109478.46
109478.45
109478.44
109478.42
109478.42
109478.41
109478.4
109478.38
109478.37
109478.37
109478.35
109478.34
109478.33
109478.32
109478.31
109478.3
109478.29
109478.28
109478.27
109478.26
109478.25
109478.24
109478.23
109478.23
109478.22
109478.21
109478.2
109478.19
109478.18
109478.17
109478.17
109478.16
109478.15
109478.15
109478.14
109478.13
109478.13
109478.12
109478.12
109478.11
109478.1
109478.1
109478.09
109478.09
109478.08
109478.07
109478.07
109478.06
109478.06
109478.05
109478.04
109478.03
109478.03
109478.02
109478.01
109478.01
109478
109477.99
109477.98
109477.98
109477.97
109477.97
109477.96
109477.95
109477.95
109477.94
109477.94
109477.93
109477.93
109477.92
109477.92
109477.92
109477.91
109477.91
109477.9
109477.89
109477.89
109477.88
109477.88
109477.87
109477.87
109477.86
109477.86
109477.85
109477.85
109477.84
109477.84
109477.84
109477.83
109477.83
109477.82
109477.82
109477.82
109477.81
109477.81
109477.8
109477.8
109477.79
109477.79
109477.79
109477.78
109477.77
109477.77
109477.76
109477.75
109477.75
109477.74
109477.73
109477.73
109477.72
109477.72
109477.72
109477.72
109477.72
109477.71
109477.71
109477.72
109477.72
109477.72
109477.72
109477.71
109477.71
109477.71
109477.71
109477.71
109477.71
109477.71
109477.71
109477.7
109477.7
109477.69
109477.69
109477.69
109477.68
109477.68
109477.67
109477.67
109477.66
109477.66
109477.65
109477.65
109477.65
109477.65
109477.65
109477.64
109477.64
109477.64
109477.64
109477.64
109477.64
109477.64
109477.64
109477.64
109477.64
109477.64
109477.64
109477.64
109477.63
109477.63
109477.63
109477.63
109477.63
109477.62
109477.62
109477.62
109477.61
109477.61
109477.61
109477.61
109477.6
109477.6
109477.6
109477.6
109477.59
109477.59
109477.59
109477.59
109477.59
109477.59
109477.59
109477.59
109477.59
109477.59
109477.59
109477.59
109477.59
109477.59
109477.59
109477.59
109477.59
109477.59
109477.59
109477.59
109477.59
109477.59
109477.59
109477.59
109477.59
109477.59
109477.59
109477.59
109477.59
109477.59
109477.59
109477.59
109477.59
109477.59
109477.59
109477.59
109477.59
109477.59
109477.59
109477.59
109477.59
109477.59
109477.59
109477.59
109477.6
109477.6
109477.6
109477.6
109477.6
109477.6
109477.6
109477.6
109477.6
109477.6
109477.6
109477.6
109477.6
109477.6
109477.6
109477.6
109477.6
109477.6
109477.6
109477.6
109477.6
109477.6
109477.6
109477.6
109477.6
109477.6
109477.6
109477.6
109477.6
109477.6
109477.6
109477.61
109477.61
109477.61
109477.61
109477.61
109477.61
109477.61
109477.61
109477.61
109477.61
109477.61
109477.61
109477.61
109477.62
109477.62
109477.62
109477.62
109477.62
109477.62
109477.62
109477.63
109477.63
109477.63
109477.63
109477.63
109477.64
109477.64
109477.64
109477.64
109477.64
109477.65
109477.65
109477.65
109477.65
109477.65
109477.66
109477.66
109477.66
109477.66
109477.66
109477.67
109477.67
109477.67
109477.67
109477.67
109477.68
109477.68
109477.68
109477.68
109477.68
109477.68
109477.69
109477.69
109477.69
109477.69
109477.69
109477.69
109477.7
109477.7
109477.7
109477.7
109477.7
109477.7
109477.7
109477.7
109477.7
109477.7
109477.71
109477.71
109477.71
109477.71
109477.71
109477.71
109477.71
109477.71
109477.71
109477.71
109477.71
109477.71
109477.71
109477.71
109477.71
109477.71
109477.71
109477.71
109477.71
109477.71
109477.71
109477.71
109477.71
109477.71
109477.71
109477.71
109477.71
109477.71
109477.72
109477.72
109477.72
109477.72
109477.72
109477.72
109477.72
109477.72
109477.72
109477.72
109477.72
109477.72
109477.72
109477.72
109477.72
109477.72
109477.72
109477.72
109477.72
109477.72
109477.73
109477.73
109477.73
109477.73
109477.73
109477.73
109477.73
109477.73
109477.73
109477.73
109477.74
109477.74
109477.74
109477.74
109477.74
109477.74
109477.74
109477.74
109477.75
109477.75
109477.75
109477.75
109477.75
109477.75
109477.75
109477.75
109477.75
109477.76
109477.76
109477.76
109477.76
109477.76
109477.76
109477.76
109477.76
109477.76
109477.76
109477.77
109477.77
109477.77
109477.77
109477.77
109477.77
109477.77
109477.77
109477.77
109477.77
109477.77
109477.77
109477.77
109477.78
109477.78
109477.78
109477.78
109477.78
109477.78
109477.78
109477.78
109477.78
109477.78
109477.78
109477.78
109477.78
109477.79
109477.79
109477.79
109477.79
109477.79
109477.79
109477.79
109477.79
109477.79
109477.79
109477.79
109477.79
109477.79
109477.79
109477.8
109477.8
109477.8
109477.8
109477.8
109477.8
109477.8
109477.8
109477.8
109477.8
109477.8
109477.8
109477.8
109477.8
109477.81
109477.81
109477.81
109477.81
109477.81
109477.81
109477.81
109477.81
109477.81
109477.81
109477.81
109477.81
109477.81
109477.81
109477.81
109477.81
109477.81
109477.81
109477.82
109477.82
109477.82
109477.82
109477.82
109477.82
109477.82
109477.82
109477.82
109477.82
109477.82
109477.82
109477.82
109477.82
109477.82
109477.82
109477.82
109477.82
109477.82
109477.83
109477.83
109477.83
109477.83
109477.83
109477.83
109477.83
109477.83
109477.83
109477.83
109477.83
109477.83
109477.83
109477.83
109477.83
109477.84
109477.84
109477.84
109477.84
109477.84
109477.84
109477.84
109477.84
109477.84
109477.84
109477.84
109477.84
109477.84
109477.84
109477.84
109477.84
109477.85
109477.85
109477.85
109477.85
109477.85
109477.85
109477.85
109477.85
109477.85
109477.85
109477.85
109477.85
109477.85
109477.85
109477.85
109477.85
109477.85
109477.85
109477.85
109477.85
109477.86
109477.86
109477.86
109477.86
109477.86
109477.86
109477.86
109477.86
109477.86
109477.86
109477.86
109477.86
109477.86
109477.86
109477.86
109477.86
109477.86
109477.86
109477.86
109477.86
109477.86
109477.87
109477.87
109477.87
109477.87
109477.87
109477.87
109477.87
109477.87
109477.87
109477.87
109477.87
109477.87
109477.87
109477.87
109477.87
109477.87
109477.88
109477.88
109477.88
109477.88
109477.88
109477.88
109477.88
109477.88
109477.88
109477.88
109477.88
109477.88
109477.88
109477.88
109477.89
109477.89
109477.89
109477.89
109477.89
109477.89
109477.89
109477.89
109477.89
109477.89
109477.89
109477.89
109477.89
109477.89
109477.9
109477.9
109477.9
109477.9
109477.9
109477.9
109477.9
109477.9
109477.9
109477.9
109477.9
109477.9
109477.9
109477.9
109477.91
109477.91
109477.91
109477.91
109477.91
109477.91
109477.91
109477.91
109477.91
109477.91
109477.91
109477.91
109477.91
109477.91
109477.91
109477.91
109477.92
109477.92
109477.92
109477.92
109477.92
109477.92
109477.92
109477.92
109477.92
109477.92
109477.92
109477.92
109477.92
109477.92
109477.92
109477.92
109477.92
109477.92
109477.92
109477.92
109477.92
109477.92
109477.92
109477.92
109477.92
109477.92
109477.92
109477.93
109477.93
109477.93
109477.93
109477.93
109477.93
109477.93
109477.93
109477.93
109477.93
109477.93
109477.93
109477.93
109477.93
109477.93
109477.93
109477.93
109477.93
109477.93
109477.93
109477.93
109477.93
109477.93
109477.93
109477.93
109477.93
109477.93
109477.93
109477.93
109477.93
109477.93
109477.93
109477.93
109477.93
109477.93
109477.93
109477.93
109477.93
109477.93
109477.93
109477.93
109477.93
109477.93
109477.93
109477.93
109477.93
109477.93
109477.93
109477.93
109477.93
109477.93
109477.93
109477.93
109477.93
109477.93
109477.93
109477.93
109477.93
109477.93
109477.93
109477.93
109477.93
109477.93
109477.93
109477.93
109477.93
109477.93
109477.93
109477.93
109477.94
109477.94
109477.94
109477.94
109477.94
109477.94
109477.94
109477.94
109477.94
109477.94
109477.94
109477.94
109477.94
109477.94
109477.94
109477.94
109477.94
109477.94
109477.94
109477.94
109477.94
109477.94
109477.94
109477.94
109477.94
109477.94
109477.94
109477.94
109477.94
109477.94
109477.94
109477.94
109477.94
109477.94
109477.94
109477.94
109477.95
109477.95
109477.95
109477.95
109477.95
109477.95
109477.95
109477.95
109477.95
109477.95
109477.95
109477.95
109477.95
109477.95
109477.95
109477.95
109477.95
109477.95
109477.95
109477.95
109477.95
109477.95
109477.95
109477.95
109477.95
109477.95
109477.96
109477.96
109477.96
109477.96
109477.96
109477.96
109477.96
109477.96
109477.96
109477.96
109477.96
109477.96
109477.96
109477.96
109477.96
109477.96
109477.96
109477.96
109477.96
109477.96
109477.96
109477.96
109477.96
109477.96
109477.96
109477.96
109477.96
109477.96
109477.96
109477.96
109477.97
109477.97
109477.97
109477.97
109477.97
109477.97
109477.97
109477.97
109477.97
109477.97
109477.97
109477.97
109477.97
109477.97
109477.97
109477.97
109477.97
109477.97
109477.97
109477.97
109477.97
109477.97
109477.97
109477.97
109477.97
109477.97
109477.97
109477.97
109477.97
109477.97
109477.97
109477.97
109477.97
109477.97
109477.97
109477.97
109477.97
109477.97
109477.97
109477.97
109477.97
109477.97
109477.97
109477.97
109477.98
109477.98
109477.98
109477.98
109477.98
109477.98
109477.98
109477.98
109477.98
109477.98
109477.98
109477.98
109477.98
109477.98
109477.98
109477.98
109477.98
109477.98
109477.98
109477.98
109477.98
109477.98
109477.98
109477.98
109477.98
109477.98
109477.98
109477.98
109477.98
109477.98
109477.98
109477.98
109477.99
109477.99
109477.99
109477.99
109477.99
109477.99
109477.99
109477.99
109477.99
109477.99
109477.99
109477.99
109477.99
109477.99
109477.99
109477.99
109477.99
109477.99
109477.99
109477.99
109477.99
109477.99
109477.99
109477.99
109477.99
109477.99
109477.99
109477.99
109477.99
109477.99
109477.99
109477.99
109477.99
109477.99
109478
109478
109478
109478
109478
109478
109478
109478
109478
109478
109478
109478
109478
109478
109478
109478
109478
109478
109478
109478
109478
109478
109478
109478
109478
109478
109478
109478
109478
109478
109478
109478
109478
109478
109478
109478
109478
109478
109478
109478
109478
109478
109478
109478
109478
109478
109478
109478
109478
109478
109478
109478
109478
109478
109478
109478
109478
109478
109478
109478
109478
109478
109478
109478
109478
109478
109478
109478
109478
109478
109478
109478
109478
109478
109478
109478
109478
109478
109478
109478
109478
109478
109478
109478
109478
109478
109478
109478
109478
109478
109478
109478
109478
109478
109478
109478
109478
109478
109478
109478
109478
109478
109478
109478
109478
109478
109478
109478
109478
109478
109478
109478
109478
109478
109478
109478
109478
109478
109478
109478
109478
109478
109478
109478
109478
109478
109478
109478
109478
109478.01
109478.01
109478.01
109478.01
109478.01
109478.01
109478.01
109478.01
109478.01
109478.01
109478.01
109478.01
109478.01
109478.01
109478.01
109478.01
109478.01
109478.01
109478.01
109478.01
109478.01
109478.01
109478.01
109478.01
109478.01
109478.01
109478.01
109478.01
109478.01
109478.01
109478.01
109478.01
109478.01
109478.01
109478.01
109478.01
109478.01
109478.01
109478.01
109478.01
109478.01
109478.01
109478.01
109478.01
109478.01
109478.01
109478.01
109478.01
109478.01
109478.01
109478.01
109478.01
109478.01
109478.01
109478.01
109478.01
109478.01
109478.01
109478.01
109478.01
109478.01
109478.01
109478.01
109478.01
109478.01
109478.01
109478.01
109478.01
109478.01
109478.01
109478.01
109478.01
109478.01
109478.01
109478.01
109478.01
109478.01
109478.01
109478.01
109478.01
109478.01
109478.01
109478.01
109478.01
109478.01
109478.01
109478.01
109478.01
109478.01
109478.01
109478.01
109478.01
109478.01
109478.01
109478.01
109478.02
109478.02
109478.02
109478.02
109478.02
109478.02
109478.02
109478.02
109478.02
109478.02
109478.02
109478.02
109478.02
109478.02
109478.02
109478.02
109478.02
109478.02
109478.02
109478.02
109478.02
109478.02
109478.02
109478.02
109478.02
109478.02
109478.02
109478.02
109478.02
109478.02
109478.02
109478.02
109478.02
109478.02
109478.02
109478.02
109478.02
109478.02
109478.02
109478.02
109478.02
109478.02
109478.02
109478.02
109478.02
109478.02
109478.02
109478.02
109478.02
109478.02
109478.02
109478.02
109478.02
109478.02
109478.02
109478.02
109478.02
109478.02
109478.02
109478.02
109478.02
109478.02
109478.02
109478.02
109478.02
109478.02
109478.02
109478.02
109478.02
109478.02
109478.02
109478.02
109478.02
109478.02
109478.02
109478.02
109478.02
109478.02
109478.02
109478.02
109478.02
109478.02
109478.02
109478.02
109478.02
109478.02
109478.02
109478.02
109478.02
109478.02
109478.02
109478.02
109478.02
109478.02
109478.02
109478.02
109478.02
109478.02
109478.02
109478.02
109478.02
109478.02
109478.02
109478.01
109478.01
109478.01
109478.02
109478.02
109478.02
109478.02
109478.02
109478.03
109478.03
109478.03
109478.03
109478.03
109478.02
109478.01
109478
109477.98
109477.97
109477.95
109477.95
109477.96
109478.01
109478.05
109478.09
109478.08
109478.06
109478.05
109478.05
109478.04
109478.03
109478.02
109478.02
109478.02
109478.02
109478.02
109478.02
109478.02
109478.02
109478.02
109478.02
109478.02
109478.02
109478.02
109478.02
109478.02
109478.02
109478.02
109478.02
109478.02
109478.02
109478.02
109478.02
109478.02
109478.02
109478.02
109478.02
109478.02
109478.02
109478.02
109478.02
109478.02
109478.02
109478.02
109478.02
109478.02
109478.02
109478.02
109478.02
109478.02
109478.02
109478.02
109478.02
109478.02
109478.02
109478.02
109478.02
109478.02
109478.02
109478.02
109478.02
109478.02
109478.02
109478.02
109478.02
109478.02
109478.02
109478.02
109478.02
109478.02
109478.02
109478.02
109478.02
109478.02
109478.02
109478.02
109478.02
109478.02
109478.02
109478.02
109478.02
109478.02
109478.02
109478.02
109478.02
109478.02
109478.02
109478.02
109478.02
109478.02
109478.02
109478.02
109478.02
109478.02
109478.02
109478.02
109478.02
109478.02
109478.02
109478.02
109478.02
109478.02
109478.02
109478.02
109478.02
109478.02
109478.02
109478.02
109478.02
109478.02
109478.02
109478.02
109478.02
109478.02
109478.02
109478.02
109478.02
109478.02
109478.02
109478.02
109478.02
109478.02
109478.02
109478.02
109478.02
109478.02
109478.02
109478.02
109478.02
109478.02
109478.02
109478.02
109478.02
109478.02
109478.02
109478.02
109478.02
109478.02
109478.02
109478.02
109478.02
109478.02
109478.02
109478.02
109478.02
109478.02
109478.02
109478.02
109478.02
109478.02
109478.02
109478.02
109478.02
109478.02
109478.02
109478.02
109478.02
109478.02
109478.02
109478.02
109478.02
109478.02
109478.02
109478.02
109478.02
109478.02
109478.02
109478.02
109478.02
109478.02
109478.02
109478.02
109478.02
109478.02
109478.02
109478.02
109478.02
109478.02
109478.02
109478.02
109478.02
109478.02
109478.02
109478.02
109478.02
109478.02
109478.02
109478.02
109478.02
109478.02
109478.02
109478.02
109478.02
109478.02
109478.02
109478.02
109478.02
109478.02
109478.02
109478.02
109478.02
109478.02
109478.02
109478.02
109478.02
109478.02
109478.02
109478.02
109478.02
109478.02
109478.02
109478.02
109478.02
109478.02
109478.02
109478.02
109478.02
109478.02
109478.02
109478.02
109478.02
109478.02
109478.02
109478.02
109478.02
109478.02
109478.02
109478.02
109478.02
109478.02
109478.02
109478.02
109478.02
109478.02
109478.02
109478.02
109478.02
109478.02
109478.02
109478.02
109478.02
109478.02
109478.02
109478.02
109478.02
109478.02
109478.01
109478.01
109478.01
109478.01
109478.01
109478.01
109478.01
109478.01
109478.01
109478.01
109478.01
109478.01
109478.01
109478.01
109478.01
109478.01
109478.01
109478.01
109478.01
109478.01
109478.01
109478.01
109478.01
109478.01
109478.01
109478.01
109478.01
109478.01
109478.01
109478.01
109478.01
109478.01
109478.01
109478.01
109478.01
109478.01
109478.01
109478.01
109478.01
109478.01
109478.01
109478.01
109478.01
109478.01
109478.01
109478.01
109478.01
109478.01
109478.01
109478.01
109478.01
109478.01
109478.01
109478.01
109478.01
109478.01
109478.01
109478.01
109478.01
109478.01
109478.01
109478.01
109478.01
109478.01
109478.01
109478.01
109478.01
109478.01
109478.01
109478.01
109478.01
109478.01
109478.01
109478.01
109478.01
109478.01
109478.01
109478.01
109478.01
109478.01
109478.01
109478.01
109478.02
109478.02
109478.02
109478.02
109478.02
109478.02
109478.02
109478.02
109478.02
109478.02
109478.02
109478.02
109478.02
109478.02
109478.02
109478.02
109478.02
109478.02
109478.02
109478.02
109478.02
109478.02
109478.02
109478.02
109478.02
109478.02
109478.02
109478.02
109478.02
109478.02
109478.02
109478.02
109478.02
109478.01
109478.01
109478.01
109478.01
109478.01
109478.01
109478.01
109478.01
109478.01
109478.01
109478.01
109478.01
109478.01
109478.01
109478.01
109478.01
109478.01
109478.01
109478.01
109478.01
109478.01
109478.01
109478.01
109478.01
109478.01
109478.01
109478.01
109478.01
109478.01
109478
109478
109478
109478
109478
109478
109478
109478
109478
109478
109478
109478
109478
109478
109478
109478
109478
109478
109478
109478
109478
109478
109478
109478
109478
109478
109478
109478
109478
109478
109478
109478
109478
109478
109478
109478
109478
109478
109478
109478
109478
109478
109477.99
109477.99
109477.99
109477.99
109477.99
109477.99
109477.99
109477.99
109477.99
109477.99
109477.99
109477.99
109477.99
109477.99
109477.99
109477.99
109477.99
109477.99
109477.99
109477.99
109477.99
109477.99
109477.99
109477.99
109477.99
109477.99
109477.99
109477.99
109477.99
109477.99
109477.99
109477.99
109477.99
109477.99
109477.99
109477.99
109477.99
109477.99
109477.99
109477.99
109477.99
109477.99
109477.99
109477.99
109477.99
109477.99
109477.99
109477.99
109477.99
109477.99
109477.98
109477.98
109477.98
109477.98
109477.98
109477.98
109477.98
109477.98
109477.98
109477.98
109477.98
109477.98
109477.98
109477.98
109477.98
109477.98
109477.98
109477.98
109477.98
109477.98
109477.98
109477.98
109477.98
109477.98
109477.98
109477.98
109477.98
109477.98
109477.98
109477.98
109477.98
109477.98
109477.98
109477.98
109477.98
109477.98
109477.98
109477.98
109477.97
109477.97
109477.97
109477.97
109477.97
109477.97
109477.97
109477.97
109477.97
109477.97
109477.97
109477.97
109477.97
109477.97
109477.97
109477.97
109477.97
109477.97
109477.97
109477.97
109477.97
109477.97
109477.97
109477.97
109477.97
109477.97
109477.97
109477.97
109477.97
109477.97
109477.97
109477.97
109477.97
109477.97
109477.97
109477.97
109477.97
109477.97
109477.97
109477.97
109477.96
109477.96
109477.96
109477.96
109477.96
109477.96
109477.96
109477.96
109477.96
109477.96
109477.96
109477.96
109477.96
109477.96
109477.96
109477.96
109477.96
109477.96
109477.96
109477.96
109477.96
109477.96
109477.96
109477.96
109477.96
109477.96
109477.96
109477.96
109477.96
109477.96
109477.96
109477.96
109477.96
109477.96
109477.96
109477.96
109477.96
109477.95
109477.95