/*--------------------------------*- C++ -*----------------------------------*\
  =========                 |
  \\      /  F ield         | OpenFOAM: The Open Source CFD Toolbox
   \\    /   O peration     | Website:  https://openfoam.org
    \\  /    A nd           | Version:  7
     \\/     M anipulation  |
\*---------------------------------------------------------------------------*/
FoamFile
{
    version     2.0;
    format      ascii;
    class       volVectorField;
    location    "0.0009";
    object      U;
}
// * * * * * * * * * * * * * * * * * * * * * * * * * * * * * * * * * * * * * //

dimensions      [0 1 -1 0 0 0 0];

internalField   nonuniform List<vector> 
5000
(
(1.7489179e-13 -2.026588e-28 0)
(3.7993539e-13 -7.093058e-28 0)
(5.6009317e-13 0 0)
(4.2783437e-13 0 0)
(-1.9751331e-13 -3.039882e-28 0)
(-2.8442851e-13 2.8799547e-43 -2.533235e-28)
(8.3927709e-14 1.120648e-43 -9.9952625e-57)
(2.2264728e-13 0 3.039882e-28)
(3.9817738e-14 0 3.546529e-28)
(-2.1588685e-13 -2.026588e-28 -4.053176e-28)
(-1.1733418e-13 1.013294e-28 1.013294e-28)
(-2.3423644e-13 -2.026588e-28 -2.026588e-28)
(-7.7773761e-14 -4.559823e-28 3.8879389e-42)
(-3.0127601e-13 4.559823e-28 4.0175369e-42)
(-4.5155574e-13 0 -1.013294e-28)
(-3.623739e-14 -2.533235e-28 -5.06647e-28)
(-1.9001248e-13 7.806133e-56 3.9030665e-56)
(-2.8519043e-13 3.039882e-28 -2.6783579e-42)
(-2.5152104e-13 0 -2.026588e-28)
(-1.5746404e-14 1.8746333e-44 3.7492666e-44)
(-4.3385601e-13 1.013294e-28 -1.013294e-28)
(-5.8275794e-13 -2.026588e-28 0)
(-6.7212422e-13 6.079764e-28 0)
(-7.9568673e-13 3.8428297e-42 3.8428297e-42)
(-8.1973864e-13 1.013294e-28 -8.6398642e-43)
(-9.6937049e-13 1.6703738e-42 1.6703738e-42)
(-8.5852855e-13 5.06647e-29 -5.06647e-29)
(-1.0901529e-12 3.039882e-28 3.039882e-28)
(-8.4812932e-13 -1.013294e-28 5.06647e-29)
(-9.1272655e-13 1.7567724e-42 -1.013294e-28)
(-8.4906414e-13 -2.6567583e-42 2.6567583e-42)
(-3.9948291e-13 1.519941e-28 -1.2959796e-42)
(-3.8604703e-13 5.06647e-28 -2.533235e-28)
(-6.9660661e-13 -1.1146234e-27 5.573117e-28)
(-7.5442411e-13 8.783862e-42 5.06647e-28)
(-4.5343792e-13 -1.3218992e-41 0)
(-2.553611e-13 1.7567724e-42 0)
(3.5720913e-13 -1.013294e-27 5.06647e-28)
(7.4242431e-13 1.3172822e-27 6.586411e-28)
(4.1817527e-13 3.039882e-28 -1.519941e-28)
(1.1443349e-13 6.079764e-28 -5.0975199e-42)
(3.6555719e-13 -6.9694905e-42 -1.013294e-28)
(6.74002e-13 5.06647e-28 -2.533235e-28)
(9.0172866e-13 -2.533235e-28 4.2839327e-42)
(6.0699339e-13 4.559823e-28 -1.519941e-28)
(3.2974279e-13 -4.053176e-28 4.053176e-28)
(5.3272601e-13 -2.533235e-28 -8.7118631e-42)
(5.562839e-13 -1.0411036e-41 5.2055182e-42)
(3.4776532e-13 -1.1146234e-27 -1.9166099e-41)
(3.7158493e-13 0 9.5038507e-42)
(6.4466227e-13 -1.013294e-28 -1.013294e-28)
(3.1073318e-13 -4.3199321e-44 0)
(4.1053414e-13 3.546529e-28 0)
(7.9370127e-13 -3.039882e-28 0)
(6.5201341e-13 -8.8558609e-42 0)
(7.6265232e-13 -1.013294e-27 0)
(4.2207018e-13 3.039882e-28 0)
(6.1887179e-13 -1.0497435e-41 0)
(6.3477675e-13 -2.533235e-28 0)
(5.5155289e-13 0 0)
(8.1935538e-13 7.0560988e-43 0)
(9.4684088e-13 -1.7279728e-42 0)
(8.8644683e-13 -1.4399774e-44 0)
(1.2521528e-12 -5.06647e-29 5.06647e-29)
(1.3686811e-12 3.039882e-28 3.039882e-28)
(1.3258535e-12 -1.7711722e-42 -5.06647e-29)
(1.1131238e-12 2.026588e-28 -3.4847452e-42)
(7.6218592e-13 1.013294e-28 -9.7576662e-57)
(7.22684e-13 3.039882e-28 -3.039882e-28)
(7.5158062e-13 -4.053176e-28 0)
(8.4715427e-13 -3.039882e-28 0)
(6.206993e-13 2.533235e-28 2.533235e-28)
(3.314213e-13 5.06647e-29 5.06647e-29)
(3.1440516e-13 2.026588e-28 0)
(6.1837114e-13 -3.546529e-28 -3.546529e-28)
(2.5781693e-13 5.06647e-29 -1.7495725e-42)
(8.0613659e-14 0 -3.039882e-28)
(5.9320189e-14 2.533235e-28 -2.533235e-28)
(-1.8541678e-13 -7.1998869e-44 5.06647e-28)
(1.5037019e-13 -3.039882e-28 6.079764e-28)
(9.1358228e-14 5.06647e-29 -1.013294e-28)
(2.9518794e-13 -7.1998869e-44 1.4399774e-43)
(8.8948203e-13 1.0079842e-43 1.0639587e-27)
(9.0278365e-13 1.519941e-28 -3.039882e-28)
(1.1439867e-12 -5.06647e-29 5.2703172e-42)
(1.298278e-12 7.0558891e-42 4.053176e-28)
(1.188781e-12 -3.546529e-28 -1.0639587e-27)
(1.393193e-12 0 -2.026588e-28)
(1.2175755e-12 3.039882e-28 -3.039882e-28)
(1.3706024e-12 3.1535505e-41 3.039882e-28)
(1.2782153e-12 5.3135165e-42 -1.519941e-28)
(1.1155199e-12 2.533235e-28 2.533235e-28)
(1.2181483e-12 5.06647e-28 1.7639723e-41)
(1.1844132e-12 -1.013294e-27 -1.013294e-27)
(1.3875696e-12 -1.402538e-41 -1.402538e-41)
(1.7843459e-12 2.026588e-28 -2.026588e-28)
(1.8812297e-12 0 -1.013294e-28)
(1.9969637e-12 0 8.8918603e-42)
(1.8983519e-12 2.533235e-28 -1.7639723e-41)
(1.6583737e-12 4.6279429e-55 -1.332652e-41)
(1.9343644e-12 7.093058e-28 3.546529e-28)
(1.497447e-12 -5.06647e-28 -5.06647e-28)
(1.7235103e-12 -4.053176e-28 2.8799547e-44)
(2.013769e-12 0 -3.546529e-28)
(1.9475048e-12 -7.093058e-28 0)
(2.0889498e-12 -3.039882e-28 3.039882e-28)
(1.5813396e-12 -5.06647e-29 -1.7639723e-42)
(1.2712503e-12 5.06647e-29 -5.06647e-29)
(1.3026125e-12 0 -2.026588e-28)
(1.2070701e-12 0 -4.559823e-28)
(1.6996111e-12 1.519941e-28 3.039882e-28)
(1.9244628e-12 1.519941e-28 1.519941e-28)
(1.9924956e-12 0 -1.519941e-28)
(2.09198e-12 1.519941e-28 1.519941e-28)
(2.1940781e-12 -7.1759145e-56 -6.1580499e-42)
(2.1138592e-12 1.013294e-28 -1.013294e-28)
(2.3158717e-12 -4.053176e-28 -4.053176e-28)
(2.0276164e-12 1.1519819e-43 -2.3039638e-43)
(1.981003e-12 -5.3135165e-42 -1.519941e-28)
(2.3256042e-12 -2.4394166e-56 -4.559823e-28)
(2.3040854e-12 -1.013294e-27 3.5423443e-41)
(2.2611785e-12 1.7279728e-43 8.106352e-28)
(2.0636964e-12 -1.519941e-28 3.039882e-28)
(1.8375938e-12 0 3.039882e-28)
(2.1754722e-12 1.013294e-28 1.013294e-28)
(2.2981782e-12 -4.053176e-28 -4.053176e-28)
(2.2241572e-12 -3.039882e-28 3.039882e-28)
(2.541951e-12 7.0423879e-42 7.006999e-42)
(2.3530824e-12 2.7824057e-42 -2.7824057e-42)
(2.1209146e-12 3.039882e-28 5.2487175e-42)
(1.7066875e-12 2.533235e-28 2.533235e-28)
(2.0570073e-12 -1.519941e-28 3.039882e-28)
(1.9414775e-12 -1.013294e-28 -1.013294e-28)
(1.9868306e-12 -1.519941e-28 -1.519941e-28)
(2.241556e-12 0 -2.533235e-28)
(2.2784175e-12 1.013294e-28 -3.5279446e-42)
(2.2650973e-12 -2.907968e-42 1.0083229e-55)
(1.9780119e-12 -5.06647e-29 1.7639723e-42)
(1.9890027e-12 -7.0270896e-42 4.053176e-28)
(1.6092266e-12 6.586411e-28 6.586411e-28)
(1.7633358e-12 -7.093058e-28 -7.093058e-28)
(2.267219e-12 -2.533235e-28 -5.06647e-28)
(2.2086373e-12 0 -1.013294e-28)
(2.1992358e-12 -1.013294e-28 1.013294e-28)
(2.3882785e-12 -5.06647e-28 -3.5135448e-41)
(2.3212848e-12 4.559823e-28 -9.119646e-28)
(1.9944003e-12 -4.559823e-28 1.2959796e-43)
(2.1787652e-12 3.1679502e-43 -1.5839751e-43)
(1.7762177e-12 1.519941e-28 -2.1954749e-55)
(1.6483787e-12 4.559823e-28 4.559823e-28)
(1.6198619e-12 -7.599705e-28 -5.2703172e-41)
(1.4660989e-12 2.1167667e-41 4.2335335e-41)
(1.5890473e-12 -3.546529e-28 -3.546529e-28)
(1.5912585e-12 3.039882e-28 3.039882e-28)
(1.4214817e-12 -5.06647e-29 -5.06647e-29)
(1.1583735e-12 -4.053176e-28 -1.4054179e-41)
(1.2041271e-12 6.079764e-28 6.079764e-28)
(1.1998409e-12 0 -4.053176e-28)
(1.5901673e-12 0 5.7599095e-44)
(1.8721863e-12 1.519941e-28 1.519941e-28)
(2.094625e-12 1.519941e-28 0)
(1.9365437e-12 -4.559823e-28 -4.559823e-28)
(1.8490729e-12 -2.026588e-28 -1.402538e-41)
(1.5699248e-12 -3.039882e-28 -6.079764e-28)
(1.3049413e-12 -2.8108358e-41 4.053176e-28)
(1.1901111e-12 3.7308182e-43 3.8923473e-56)
(1.2734661e-12 1.519941e-28 1.519941e-28)
(1.3837664e-12 2.533235e-28 -2.533235e-28)
(1.0556706e-12 0 2.533235e-28)
(9.8122752e-13 3.039882e-28 3.039882e-28)
(1.2338064e-12 4.559823e-28 -1.8999061e-40)
(1.4159183e-12 0 -5.6216717e-41)
(1.3986156e-12 5.3948596e-42 -5.4066559e-42)
(1.086854e-12 -1.013294e-28 -2.026588e-28)
(8.135593e-13 0 0)
(9.4343154e-13 4.053176e-28 -2.8108358e-41)
(7.5818717e-13 1.0540634e-40 -1.0540634e-40)
(1.1325398e-12 1.6069745e-42 -1.6069745e-42)
(1.2810016e-12 -1.013294e-28 -1.013294e-28)
(1.2760043e-12 -5.06647e-28 -3.4919451e-41)
(1.2935082e-12 7.599705e-28 7.599705e-28)
(1.1112112e-12 3.1492305e-41 -4.559823e-28)
(1.0879703e-12 -2.7877962e-41 -2.7877962e-41)
(6.0981591e-13 -8.6398642e-44 -8.6398642e-44)
(7.4909798e-13 -1.013294e-28 -1.4039779e-41)
(5.4564713e-13 3.039882e-28 6.079764e-28)
(4.6150639e-13 7.7297985e-41 -5.573117e-28)
(3.6121525e-13 -2.7877962e-41 -4.053176e-28)
(-4.3370617e-14 -2.4393217e-41 -2.4393217e-41)
(-3.3015327e-13 6.079764e-28 4.1903342e-41)
(-6.7499329e-13 0 -7.3734041e-41)
(-3.125361e-13 0 -6.99829e-42)
(-9.3388233e-14 5.06647e-29 5.06647e-29)
(-5.4175136e-13 -4.053176e-28 0)
(-7.2300375e-13 0 0)
(-7.556675e-13 0 0)
(-4.683075e-13 -3.546529e-28 0)
(-4.8900802e-13 -2.9272999e-56 1.9243906e-43)
(-2.6441869e-13 -2.533235e-28 5.281117e-41)
(-3.9239445e-13 0 2.533235e-28)
(-5.7257582e-13 -5.06647e-29 -5.06647e-29)
(-3.5077996e-13 2.026588e-28 2.026588e-28)
(-5.8543739e-13 8.4238676e-41 3.039882e-28)
(-3.7470152e-13 -7.093058e-28 -7.093058e-28)
(-4.1829105e-13 -5.06647e-29 3.5063449e-42)
(-2.7677669e-13 -6.3114208e-41 -6.3114208e-41)
(-2.6966676e-13 -6.4798982e-44 -4.559823e-28)
(-2.4171422e-13 -3.546529e-28 -3.546529e-28)
(1.0537922e-13 1.013294e-28 1.013294e-28)
(2.849574e-13 1.4399774e-44 0)
(2.8643151e-13 3.5063449e-41 -2.533235e-28)
(4.713233e-13 -3.5063449e-41 -3.5063449e-41)
(1.1352564e-13 5.06647e-28 5.06647e-28)
(-8.1687241e-15 0 1.519941e-28)
(-2.3025345e-13 5.06647e-29 7.0558891e-42)
(-5.0237e-14 -3.5063449e-42 -5.06647e-29)
(6.8208378e-14 -9.8429653e-41 7.093058e-28)
(1.8168991e-14 -4.053176e-28 -4.053176e-28)
(7.8472967e-15 0 -2.026588e-28)
(4.9059588e-14 5.06647e-29 5.06647e-29)
(-1.1953073e-14 -2.026588e-28 2.026588e-28)
(-7.1146351e-14 0 0)
(1.6509755e-13 0 0)
(1.5808883e-13 0 0)
(2.0449626e-13 -2.533235e-28 -2.533235e-28)
(1.7430085e-13 -1.402538e-41 2.026588e-28)
(3.2018198e-13 1.519941e-28 3.039882e-28)
(3.19961e-13 0 -3.039882e-28)
(2.0033021e-13 0 2.4645213e-41)
(1.701234e-13 -3.546529e-28 -3.546529e-28)
(-5.2491425e-14 -1.013294e-28 -1.013294e-28)
(-1.4318057e-13 -3.546529e-28 -7.093058e-28)
(-3.5290484e-14 -1.013294e-28 2.8799547e-44)
(-1.086804e-13 0 1.2959796e-43)
(6.3024974e-14 -3.546529e-28 -3.546529e-28)
(8.8466939e-15 1.013294e-28 1.013294e-28)
(1.9775084e-13 -1.013294e-28 -2.026588e-28)
(3.023279e-13 2.026588e-28 -2.8799547e-44)
(4.2747682e-13 0 1.0555034e-41)
(2.4818989e-13 5.06647e-29 5.06647e-29)
(3.7983439e-13 -1.4068579e-41 -2.8137158e-41)
(3.649101e-13 -3.5135448e-42 -7.0270896e-42)
(4.3844574e-13 -2.026588e-28 -2.026588e-28)
(3.0354036e-13 1.519941e-28 1.519941e-28)
(6.3767249e-14 4.0081897e-42 0)
(9.7132436e-14 0 -1.519941e-28)
(1.4198508e-13 1.013294e-28 1.013294e-28)
(1.7517433e-13 -3.5207447e-41 2.533235e-28)
(3.2729278e-13 2.026588e-28 -2.026588e-28)
(2.2838637e-13 -2.1081269e-41 0)
(1.732144e-13 7.093058e-28 3.546529e-28)
(1.036741e-13 -2.026588e-28 -2.026588e-28)
(1.4505198e-13 -4.2162538e-41 3.039882e-28)
(5.9439092e-15 -1.2312527e-40 -1.2312527e-40)
(-1.0006056e-13 -3.1557104e-41 -9.119646e-28)
(-8.5323252e-14 -4.053176e-28 -8.106352e-28)
(1.2389039e-13 2.026588e-28 6.079764e-28)
(6.2856431e-14 2.026588e-28 4.053176e-28)
(-1.1870064e-13 0 0)
(-1.9597179e-13 1.013294e-28 2.026588e-28)
(-2.9518018e-13 -2.026588e-28 -2.026588e-28)
(-1.5081773e-13 0 1.519941e-28)
(-2.6362471e-13 5.06647e-29 5.06647e-29)
(-2.5776954e-13 4.559823e-28 4.559823e-28)
(-3.192126e-13 -4.053176e-28 -4.053176e-28)
(-7.0576984e-14 2.026588e-28 4.053176e-28)
(-3.8092916e-13 2.533235e-28 2.533235e-28)
(-3.4568537e-13 2.533235e-28 5.06647e-28)
(-2.2902553e-13 -1.4054179e-41 -1.4054179e-41)
(-1.6968872e-13 -4.2764235e-44 -8.5528471e-44)
(-1.5965036e-13 2.533235e-28 2.533235e-28)
(-2.7092411e-13 -3.5135448e-41 -7.0270896e-41)
(-1.2700309e-13 -2.533235e-28 -2.533235e-28)
(1.699394e-13 -1.519941e-28 -3.039882e-28)
(2.5033652e-13 2.1124468e-41 3.039882e-28)
(4.0461879e-13 -3.5279446e-42 -7.0558891e-42)
(2.5712482e-13 -5.7599095e-44 2.026588e-28)
(2.3400478e-13 -5.1472029e-55 -7.1662597e-42)
(2.1111214e-13 -1.519941e-28 -1.519941e-28)
(3.1120029e-13 0 -1.013294e-28)
(2.8379892e-13 0 4.2277736e-41)
(2.9284168e-13 -5.06647e-29 1.013294e-28)
(3.1769637e-14 -3.039882e-28 -6.079764e-28)
(2.4763029e-14 0 -2.8050759e-41)
(1.4442017e-13 0 4.053176e-28)
(4.6957292e-13 0 0)
(7.0663384e-13 0 0)
(7.0052777e-13 1.013294e-28 1.013294e-28)
(9.6351994e-13 -3.1427506e-41 4.559823e-28)
(1.1987593e-12 4.053176e-28 4.053176e-28)
(1.2666975e-12 -8.6398642e-44 -2.026588e-28)
(1.0153616e-12 -2.533235e-28 7.1998869e-44)
(8.7668811e-13 -1.519941e-28 -1.519941e-28)
(6.5245659e-13 1.4068579e-41 -1.013294e-28)
(7.1683616e-13 1.4039779e-41 1.013294e-28)
(3.2054495e-13 -5.7599095e-44 0)
(1.3213177e-13 -7.093058e-28 -7.093058e-28)
(4.5406283e-13 -2.533235e-28 -2.533235e-28)
(4.1149328e-13 -1.519941e-28 0)
(3.7295963e-13 4.053176e-28 4.053176e-28)
(6.0148015e-13 4.559823e-28 1.519941e-28)
(3.7419928e-13 -3.546529e-28 -7.093058e-28)
(5.0067381e-13 -1.013294e-28 3.5063449e-42)
(2.5989557e-13 0 2.8799547e-44)
(6.7410893e-14 1.013294e-28 1.013294e-28)
(2.1190286e-13 -5.06647e-29 -5.06647e-29)
(8.3681847e-14 1.013294e-28 1.013294e-28)
(3.0115258e-13 0 0)
(2.0302708e-13 8.6398642e-44 2.026588e-28)
(-5.2380612e-14 -8.6398642e-44 -1.7279728e-43)
(-1.96476e-13 5.06647e-29 1.013294e-28)
(-4.2124165e-13 5.06647e-28 -5.06647e-28)
(-5.1566251e-13 -5.06647e-28 -5.06647e-28)
(-6.041338e-13 -7.093058e-28 -3.546529e-28)
(-3.709927e-13 4.053176e-28 -5.6216717e-41)
(-3.2669941e-13 4.3909498e-56 -5.06647e-29)
(-5.5051898e-13 -6.586411e-28 0)
(-6.9173874e-13 -2.2463647e-40 0)
(-6.2045224e-13 7.093058e-28 3.546529e-28)
(-8.5245617e-13 0 1.4068579e-41)
(-7.946651e-13 0 -5.6245516e-41)
(-1.0063335e-12 1.1146234e-27 -7.7456383e-41)
(-1.0844608e-12 -1.6882295e-40 3.039882e-28)
(-1.2039089e-12 1.013294e-28 5.06647e-29)
(-1.2651592e-12 0 3.5999434e-44)
(-1.3064173e-12 5.06647e-29 5.06647e-29)
(-1.2587055e-12 -3.546529e-28 0)
(-1.1889699e-12 3.039882e-28 0)
(-1.5708207e-12 7.1998869e-45 0)
(-1.4810412e-12 1.4068579e-41 0)
(-1.0972447e-12 -2.8799547e-44 0)
(-8.3318509e-13 5.06647e-29 0)
(-1.1327774e-12 2.0313012e-43 0)
(-1.2545858e-12 1.519941e-28 1.519941e-28)
(-1.2009082e-12 0 0)
(-1.2596419e-12 1.519941e-28 1.519941e-28)
(-1.4899493e-12 2.8137158e-41 0)
(-1.3447386e-12 3.546529e-28 3.546529e-28)
(-1.1069625e-12 -2.026588e-28 2.8108358e-41)
(-9.3123279e-13 3.9546479e-54 -1.4092151e-41)
(-7.7902889e-13 3.546529e-28 0)
(-5.1620246e-13 7.0342895e-41 0)
(-6.4567071e-13 2.026588e-28 1.013294e-28)
(-3.6779323e-13 -4.053176e-28 2.8137158e-41)
(-4.3761023e-13 -1.4959232e-41 -1.4959232e-41)
(-1.073463e-12 -4.053176e-28 0)
(-1.005757e-12 -5.7599095e-44 0)
(-1.0185258e-12 -5.06647e-28 -5.06647e-28)
(-9.9015751e-13 0 -6.079764e-28)
(-1.1449477e-12 0 3.039882e-28)
(-1.504161e-12 2.026588e-28 2.026588e-28)
(-1.8358815e-12 -2.8108358e-41 0)
(-1.3407122e-12 1.013294e-28 5.06647e-29)
(-7.0868145e-13 -6.4798982e-44 -6.4798982e-44)
(-8.6840893e-13 -1.0639587e-27 -3.546529e-28)
(-8.8733869e-13 -1.519941e-28 -1.519941e-28)
(-1.0409534e-12 -4.053176e-28 -4.053176e-28)
(-1.1896381e-12 6.079764e-28 3.039882e-28)
(-1.4856524e-12 -3.546529e-28 3.546529e-28)
(-1.5719258e-12 4.053176e-28 0)
(-1.4900906e-12 1.2458349e-40 -6.231534e-41)
(-1.2372176e-12 4.559823e-28 4.559823e-28)
(-1.0504854e-12 1.013294e-28 -1.013294e-28)
(-1.4004821e-12 -1.519941e-28 1.519941e-28)
(-1.1068667e-12 -5.06647e-29 0)
(-7.1024195e-13 4.8788331e-56 2.533235e-28)
(-1.2309437e-12 5.573117e-28 5.573117e-28)
(-9.1415964e-13 -6.079764e-28 -6.079764e-28)
(-9.7728553e-13 7.093058e-28 -7.093058e-28)
(-1.1727247e-12 -5.06647e-28 0)
(-1.1714134e-12 -5.6159118e-41 0)
(-1.1072861e-12 -2.8799547e-44 0)
(-9.941728e-13 1.519941e-28 0)
(-1.0989394e-12 -6.079764e-28 0)
(-8.6033147e-13 3.546529e-28 0)
(-7.0068186e-13 8.4411474e-41 0)
(-6.9022332e-13 -5.6216717e-41 0)
(-7.9373557e-13 -5.06647e-29 -5.06647e-29)
(-6.7523433e-13 -2.026588e-28 3.1224532e-55)
(-7.1270102e-13 7.599705e-28 2.533235e-28)
(-7.4214332e-13 4.2162538e-41 0)
(-8.2963396e-13 -1.1243343e-40 0)
(-8.6802062e-13 5.6159118e-41 0)
(-5.4739532e-13 4.053176e-28 2.026588e-28)
(-6.613122e-15 -1.4186116e-27 9.8379254e-41)
(-1.1028336e-13 1.2648761e-40 -4.559823e-28)
(-6.7428505e-13 -3.039882e-28 -1.519941e-28)
(-8.4597632e-13 0 4.2205737e-41)
(-9.2803054e-13 0 -7.1998869e-44)
(-1.2093082e-12 3.546529e-28 -4.9240026e-41)
(-1.2047879e-12 -3.5135448e-41 2.533235e-28)
(-1.2283046e-12 -1.013294e-28 -1.013294e-28)
(-9.3620865e-13 2.533235e-28 -2.533235e-28)
(-8.3925386e-13 1.013294e-28 -5.6303115e-41)
(-9.5437318e-13 1.2159528e-27 -4.053176e-28)
(-7.780856e-13 -2.7823017e-41 2.7823017e-41)
(-7.0039139e-13 3.546529e-28 0)
(-8.6035972e-13 8.6398642e-44 0)
(-7.8585408e-13 5.06647e-29 5.06647e-29)
(-5.9277497e-13 0 -2.8137158e-41)
(-5.1833176e-13 3.039882e-28 1.519941e-28)
(-9.8512007e-13 -3.039882e-28 1.519941e-28)
(-7.7178264e-13 3.546529e-28 3.546529e-28)
(-9.9746745e-13 6.079764e-28 0)
(-1.4951611e-12 5.06647e-29 -5.06647e-29)
(-1.7552036e-12 1.2191235e-40 6.096797e-41)
(-1.5292581e-12 -7.093058e-28 3.546529e-28)
(-1.413043e-12 2.026588e-28 2.8122758e-41)
(-1.8985765e-12 -5.06647e-28 1.9515332e-56)
(-1.7398361e-12 0 2.1102868e-41)
(-1.5146359e-12 -9.119646e-28 -4.559823e-28)
(-1.6835933e-12 5.06647e-29 5.06647e-29)
(-1.610234e-12 1.013294e-28 -5.4642931e-55)
(-1.4198265e-12 -5.06647e-28 7.0342895e-41)
(-1.7780632e-12 -2.533235e-28 2.533235e-28)
(-1.8745401e-12 -3.5999434e-44 0)
(-1.8118371e-12 4.9240026e-41 0)
(-1.9152552e-12 3.546529e-28 3.546529e-28)
(-1.8632093e-12 -3.546529e-28 5.0399208e-44)
(-1.4920243e-12 -5.06647e-29 -2.1081269e-41)
(-1.0354451e-12 -5.573117e-28 -5.573117e-28)
(-9.0014965e-13 1.1243343e-40 0)
(-6.9801446e-13 8.6398642e-44 0)
(-6.4973365e-13 4.9189627e-41 3.546529e-28)
(-4.9130033e-13 1.013294e-28 -2.8093959e-41)
(-6.9427998e-13 1.013294e-28 1.013294e-28)
(-1.0553994e-12 1.7062369e-53 0)
(-7.4588631e-13 2.1102868e-41 0)
(-8.9699731e-13 5.6245516e-41 0)
(-8.1441379e-13 -5.06647e-29 -5.06647e-29)
(-1.2679876e-12 1.519941e-28 2.1599661e-44)
(-1.4912179e-12 3.5171447e-41 -2.533235e-28)
(-1.6229614e-12 1.4046979e-41 5.06647e-29)
(-1.5805545e-12 1.4399774e-44 -1.013294e-28)
(-1.4133299e-12 1.1146234e-27 1.5491277e-40)
(-1.2488489e-12 4.053176e-28 8.106352e-28)
(-1.2605885e-12 -2.533235e-28 -2.533235e-28)
(-8.9055272e-13 -7.093058e-28 -1.4772008e-40)
(-9.2105629e-13 3.5171447e-41 -3.5171447e-41)
(-1.1193762e-12 -1.5526964e-41 -1.0785854e-54)
(-8.0383371e-13 -2.533235e-28 -2.533235e-28)
(-8.5235401e-13 2.026588e-28 0)
(-7.1074225e-13 -2.7534358e-41 0)
(-6.4397767e-13 -3.0592001e-41 3.0592001e-41)
(-7.965518e-13 3.546529e-28 -4.9240026e-41)
(-2.4090152e-13 1.9685931e-40 1.9685931e-40)
(-1.9539227e-13 -6.079764e-28 -2.9272999e-56)
(-2.2714189e-13 0 3.546529e-28)
(8.7538507e-14 0 -3.039882e-28)
(-1.3371668e-13 -3.039882e-28 -3.039882e-28)
(7.2722539e-14 0 0)
(8.0753133e-14 5.573117e-28 5.573117e-28)
(-5.6415118e-13 -7.093058e-28 9.8480053e-41)
(-5.3003083e-13 -5.0399208e-44 -3.546529e-28)
(-8.3136037e-14 1.5467517e-40 0)
(-4.3603289e-13 0 0)
(-4.7228501e-13 6.079764e-28 6.079764e-28)
(-6.7510755e-13 -2.533235e-28 -7.1998869e-44)
(-5.9639864e-13 -2.533235e-28 1.4636499e-56)
(-3.644418e-13 4.053176e-28 2.026588e-28)
(-2.8004702e-13 2.026588e-28 -2.026588e-28)
(1.5829953e-13 -6.586411e-28 9.1258566e-41)
(5.2066394e-13 0 -1.4068579e-40)
(4.8536672e-13 0 2.671662e-40)
(1.9101114e-13 7.093058e-28 7.093058e-28)
(4.6529703e-13 -1.2668201e-40 -4.559823e-28)
(3.232531e-13 -2.533235e-28 7.0342895e-41)
(3.7342854e-13 0 -1.4075779e-41)
(5.6988481e-13 0 4.2227337e-41)
(1.0828568e-12 3.546529e-28 3.546529e-28)
(1.648162e-12 -3.5887116e-40 -8.612999e-28)
(2.0347809e-12 -1.2159528e-27 3.3764589e-40)
(2.5972827e-12 0 -1.8326592e-40)
(2.4865822e-12 0 0)
(2.9293909e-12 0 1.2159528e-27)
(3.7230463e-12 0 -1.0639587e-27)
(4.3510726e-12 0 2.1102868e-40)
(5.1565721e-12 0 -2.8799547e-43)
(5.6965878e-12 0 2.9544016e-40)
(6.3449296e-12 0 -3.3799149e-40)
(7.0932758e-12 -5.2691288e-27 -2.6345644e-27)
(8.2426065e-12 -1.5186289e-39 2.7358938e-27)
(9.1473101e-12 3.1412114e-27 3.1412114e-27)
(9.9580482e-12 -3.7491878e-27 -3.7491878e-27)
(1.1288442e-11 4.2558348e-27 -4.2558348e-27)
(1.23019e-11 -4.3064995e-27 0)
(1.2963109e-11 1.1829702e-39 4.2558348e-27)
(1.4215568e-11 4.559823e-27 4.559823e-27)
(1.5959387e-11 1.4631322e-39 0)
(1.752543e-11 5.7757758e-27 -5.7757758e-27)
(1.9733964e-11 0 8.7928618e-40)
(2.1640647e-11 0 -1.0367837e-42)
(2.407491e-11 -8.4610049e-27 -1.173524e-39)
(2.6801828e-11 -2.6589614e-39 9.5756283e-27)
(2.9352039e-11 1.0436928e-26 -1.0436928e-26)
(3.2748354e-11 0 -1.6232577e-39)
(3.6433985e-11 0 3.6296934e-39)
(4.0145707e-11 0 1.4135451e-26)
(4.4620327e-11 0 1.519941e-26)
(4.8971953e-11 0 -3.374269e-26)
(5.474229e-11 0 2.7143574e-42)
(6.0490319e-11 0 -2.8881338e-39)
(6.6575528e-11 -4.4787595e-26 -2.2393797e-26)
(7.3789529e-11 2.0287107e-38 2.4369721e-26)
(8.1323309e-11 5.3197935e-26 -3.693002e-39)
(8.9548004e-11 -2.9284196e-26 -2.9284196e-26)
(9.872942e-11 -4.6151275e-42 0)
(1.0885355e-10 -3.6022602e-26 0)
(1.1982006e-10 2.1941382e-38 0)
(1.3191926e-10 8.6332648e-26 4.3166324e-26)
(1.4573475e-10 4.7624818e-26 4.7624818e-26)
(1.6066393e-10 -1.9515332e-55 -5.2184641e-26)
(1.757817e-10 -1.7144934e-25 -5.7149781e-26)
(1.9337642e-10 0 0)
(2.1313715e-10 1.3871995e-25 6.9359974e-26)
(2.3421445e-10 0 7.5946385e-26)
(2.5782245e-10 0 -8.2938113e-26)
(2.8372806e-10 -1.8279824e-25 -9.1399118e-26)
(3.1141616e-10 2.7813221e-38 0)
(3.4197713e-10 3.3013118e-25 1.1004373e-25)
(3.7569308e-10 -1.2083531e-25 1.2083531e-25)
(4.1244342e-10 -1.3203221e-25 -1.3203221e-25)
(4.5260873e-10 1.4419174e-25 -4.0039176e-38)
(4.9739071e-10 -1.5771921e-25 1.5771921e-25)
(5.4687921e-10 1.7281729e-25 0)
(6.0034835e-10 5.2618847e-38 0)
(6.5877438e-10 -2.0807992e-25 0)
(7.2295467e-10 2.2773783e-25 0)
(7.9302419e-10 0 -2.4937165e-25)
(8.7031518e-10 2.7318406e-25 7.5780134e-38)
(9.5437988e-10 -2.988204e-25 2.988204e-25)
(1.0457993e-09 -6.5357463e-25 -3.2678731e-25)
(1.1468808e-09 3.5764212e-25 -4.9655049e-38)
(1.2575846e-09 3.9128348e-25 5.4381422e-38)
(1.3779605e-09 4.2791405e-25 1.8441989e-54)
(1.5092995e-09 4.678885e-25 -4.678885e-25)
(1.6534571e-09 -1.0233256e-24 -5.116628e-25)
(1.8115656e-09 -5.5954094e-25 1.1190819e-24)
(1.9837245e-09 6.1172558e-25 8.4932011e-38)
(2.1716857e-09 0 -9.2694339e-38)
(2.377277e-09 -7.2992633e-25 7.2992633e-25)
(2.6020396e-09 7.975637e-25 0)
(2.8473097e-09 8.7112885e-25 -8.7112885e-25)
(3.1148294e-09 -2.8527772e-24 -9.5092575e-25)
(3.4072522e-09 -2.9506576e-40 1.0381704e-24)
(3.7272185e-09 2.2679546e-24 3.1456064e-37)
(4.0765394e-09 -1.2381439e-24 -1.2381439e-24)
(4.4568486e-09 -1.8755526e-37 0)
(4.8716713e-09 -1.4735828e-24 0)
(5.3248068e-09 4.5686162e-40 1.6074389e-24)
(5.8190545e-09 3.5061999e-24 -2.4315135e-37)
(6.3576393e-09 -1.9116805e-24 -1.9116805e-24)
(6.9453384e-09 0 0)
(7.5864868e-09 6.3113052e-37 2.2728691e-24)
(8.2852328e-09 3.5210327e-40 -3.5210327e-40)
(9.0457369e-09 2.6999218e-24 7.4971457e-37)
(9.8748249e-09 -2.9411365e-24 4.0792958e-37)
(1.0778747e-08 8.8975321e-37 -3.2042383e-24)
(1.1762406e-08 4.840962e-37 3.4902912e-24)
(1.2834002e-08 5.4007791e-40 -5.4007791e-40)
(1.4001441e-08 4.137786e-24 1.1489808e-36)
(1.5271941e-08 -4.5050544e-24 4.5050544e-24)
(1.665582e-08 1.9998337e-53 -4.9041909e-24)
(1.8161655e-08 1.4819841e-36 -1.4819841e-36)
(1.9799792e-08 8.2520783e-40 -8.2520783e-40)
(2.158251e-08 1.263456e-23 8.7709149e-37)
(2.3521674e-08 9.5305605e-37 6.8714506e-24)
(2.5631276e-08 -7.4730432e-24 -7.4730432e-24)
(2.7924123e-08 0 0)
(3.0417172e-08 0 4.9040081e-36)
(3.3127451e-08 9.6009606e-24 1.3316335e-36)
(3.6072767e-08 4.341603e-36 4.341603e-36)
(3.927416e-08 -1.1336835e-23 1.6110611e-39)
(4.2751923e-08 1.2315525e-23 1.2315525e-23)
(4.6528815e-08 -1.8572072e-36 -1.3376595e-23)
(5.0631339e-08 2.3057365e-52 2.3057365e-52)
(5.5086561e-08 2.1899994e-36 2.1899994e-36)
(5.9923394e-08 -1.7123402e-23 -4.754828e-36)
(6.5173204e-08 -1.8585737e-23 2.5804447e-36)
(7.0870503e-08 -2.7974352e-36 -4.0338525e-23)
(7.7053002e-08 2.1883857e-23 2.1883857e-23)
(8.3761366e-08 0 2.3740414e-23)
(9.1037923e-08 0 3.5751143e-36)
(9.892839e-08 -2.7924052e-23 -3.8769768e-36)
(1.0748535e-07 3.0276819e-23 -6.0553639e-23)
(1.1676163e-07 -2.7323021e-35 3.2821555e-23)
(1.2681673e-07 -3.5573003e-23 3.5573003e-23)
(1.3771406e-07 3.8548946e-23 1.4890199e-52)
(1.4952131e-07 0 0)
(1.6231308e-07 -4.524459e-23 1.7394992e-52)
(1.7616877e-07 -4.9003404e-23 4.9003404e-23)
(1.9117482e-07 5.3064889e-23 -5.3064889e-23)
(2.0742309e-07 5.7452604e-23 2.1942552e-52)
(2.2501265e-07 0 8.6258649e-36)
(2.4405141e-07 -6.7309675e-23 9.5652801e-39)
(2.6465572e-07 -7.2836332e-23 7.2836332e-23)
(2.8694916e-07 1.5760471e-22 -1.5760471e-22)
(3.1106571e-07 8.5241381e-23 -2.3669835e-35)
(3.3715009e-07 -9.2189741e-23 9.2189741e-23)
(3.6535839e-07 -9.9686445e-23 -1.3826305e-35)
(3.9585806e-07 -1.4947948e-35 1.4947948e-35)
(4.2882869e-07 -1.1649481e-22 -1.1649481e-22)
(4.6446329e-07 -3.4959603e-35 1.2589884e-22)
(5.0297086e-07 2.7207501e-22 -2.0259452e-51)
(5.4457546e-07 0 6.1235178e-35)
(5.8951893e-07 0 -4.4102526e-35)
(6.3805862e-07 0 4.7579404e-35)
(6.9047297e-07 -1.8510384e-22 5.1399652e-35)
(7.4706209e-07 -1.99827e-22 7.3516697e-52)
(8.0814539e-07 0 0)
(8.7406951e-07 2.3275287e-22 -2.3275287e-22)
(9.4520437e-07 3.4795277e-35 0)
(1.0219476e-06 -2.7090461e-22 0)
(1.1047264e-06 0 2.9218474e-22)
(1.1939991e-06 0 8.7490748e-35)
(1.2902566e-06 3.3970134e-22 -3.3970134e-22)
(1.3940262e-06 5.0788719e-35 0)
(1.505874e-06 -5.4681599e-35 0)
(1.626407e-06 4.2526029e-22 8.5052058e-22)
(1.7562756e-06 -4.5815531e-22 3.8140141e-34)
(1.8961755e-06 2.0534372e-34 -9.8700682e-22)
(2.046853e-06 5.3147969e-22 5.3147969e-22)
(2.20911e-06 0 -8.132471e-38)
(2.3838034e-06 6.1607991e-22 8.5536567e-35)
(2.5718506e-06 9.2067257e-35 6.6311743e-22)
(2.7742353e-06 -7.1361316e-22 0)
(2.9920103e-06 7.6781051e-22 0)
(3.2262998e-06 -8.2596827e-22 0)
(3.4783106e-06 -8.8836438e-22 8.8836438e-22)
(3.7493333e-06 9.5529513e-22 2.6499494e-34)
(4.0407457e-06 0 -1.0270755e-21)
(4.3540223e-06 -1.1040418e-21 0)
(4.6907413e-06 -1.1865515e-21 0)
(5.0525895e-06 1.2749868e-21 1.2749868e-21)
(5.4413674e-06 1.3697547e-21 -1.9465385e-37)
(5.8590001e-06 0 -1.4712879e-21)
(6.307545e-06 1.5800476e-21 0)
(6.7891986e-06 -1.6965255e-21 0)
(7.306306e-06 -1.8212441e-21 1.8212441e-21)
(7.8613727e-06 1.9547595e-21 5.4224223e-34)
(8.4570704e-06 4.1953276e-21 5.827776e-34)
(9.0962511e-06 -1.2498861e-33 -6.2494303e-34)
(9.7819602e-06 -7.2425865e-21 -2.4141955e-21)
(1.0517444e-05 8.7096638e-51 2.5892043e-21)
(1.1306162e-05 2.7763693e-21 -7.7054796e-34)
(1.2151808e-05 5.9529858e-21 8.2608987e-34)
(1.3058318e-05 -1.7700242e-33 -8.8501208e-34)
(1.4029885e-05 -6.8381741e-21 -3.4190871e-21)
(1.5070976e-05 3.6634279e-21 0)
(1.6186353e-05 -3.9244751e-21 0)
(1.7381087e-05 4.2033139e-21 4.2033139e-21)
(1.8660577e-05 4.5010961e-21 -3.7020051e-49)
(2.0030572e-05 -9.6380869e-21 -4.8190435e-21)
(2.1497189e-05 0 0)
(2.3066939e-05 0 0)
(2.474675e-05 1.1814469e-20 5.9072347e-21)
(2.6543989e-05 -1.639701e-49 -3.2794019e-49)
(2.8466491e-05 -1.3518913e-20 -6.7594567e-21)
(3.0522587e-05 0 0)
(3.2721132e-05 0 0)
(3.5071536e-05 1.6523381e-20 8.2616903e-21)
(3.75838e-05 -2.2578797e-49 -4.5157593e-49)
(4.0268545e-05 -1.8870337e-20 -9.4351685e-21)
(4.3137051e-05 0 0)
(4.6201295e-05 0 0)
(4.9473992e-05 2.2996551e-20 1.1498276e-20)
(5.2968634e-05 1.227693e-20 -1.7446567e-36)
(5.6699541e-05 -2.6211469e-20 -1.3105735e-20)
(6.06819e-05 -1.3987734e-20 1.3987734e-20)
(6.4931822e-05 0 -4.1468148e-33)
(6.9466387e-05 3.1848734e-20 4.4241429e-33)
(7.4303703e-05 -9.4333407e-33 -4.7166703e-33)
(7.9462962e-05 -3.6229583e-20 -1.8114791e-20)
(8.4964498e-05 1.9314779e-20 0)
(9.0829857e-05 0 0)
(9.7081858e-05 -2.1945412e-20 0)
(0.00010374466 2.3385199e-20 0)
(0.00011084383 -3.5405605e-36 0)
(0.00011840646 -2.653847e-20 2.653847e-20)
(0.00012646119 2.8262667e-20 -7.843964e-33)
(0.00013503831 -3.0092861e-20 -3.0092861e-20)
(0.00014416989 -3.2035151e-20 0)
(0.00015388981 3.4095961e-20 0)
(0.00016423391 3.628205e-20 0)
(0.00017524005 -1.0718601e-32 0)
(0.00018694825 -4.1058904e-20 0)
(0.00019940078 4.366503e-20 0)
(0.00021264229 1.2891908e-32 0)
(0.00022671991 -4.9354107e-20 4.9354107e-20)
(0.00024168342 5.2454916e-20 -2.9116464e-32)
(0.00025758534 -5.5739238e-20 -5.5739238e-20)
(0.0002744811 -5.9217172e-20 0)
(0.00029242915 6.2899326e-20 0)
(0.00031149116 6.6796837e-20 0)
(0.00033173214 -1.969346e-32 0)
(0.00035322063 -7.5285262e-20 0)
(0.00037602885 7.9901308e-20 0)
(0.00040023291 -1.2048393e-35 0)
(0.00042591296 -8.9944564e-20 8.9944564e-20)
(0.00045315342 9.5400749e-20 -2.6477332e-32)
(0.00048204319 -1.0116712e-19 -1.0116712e-19)
(0.00051267581 -1.0725996e-19 0)
(0.00054514974 1.136963e-19 0)
(0.00057956856 2.4098802e-19 1.2049401e-19)
(0.00061604122 -7.0940095e-32 -3.5470048e-32)
(0.00065468229 -2.7049815e-19 -1.3524907e-19)
(0.0006956122 1.4324643e-19 0)
(0.00073895755 -2.1555763e-35 0)
(0.00078485135 -3.2117545e-19 0)
(0.00083343332 -4.8310478e-35 1.6997738e-19)
(0.00088485023 1.7987858e-19 4.9974265e-32)
(0.00093925615 0 -1.9031681e-19)
(0.00099681283 -2.0131871e-19 0)
(0.00105769 0 0)
(0.0011220658 2.2512585e-19 0)
(0.0011901269 0 0)
(0.0012620692 0 0)
(0.0013380982 0 0)
(0.001418429 2.8081064e-19 0)
(0.0015032871 -7.7992275e-49 2.9660733e-19)
(0.0015929087 -3.1322648e-19 -4.4512159e-35)
(0.0016875413 0 -3.3070684e-19)
(0.0017874439 -3.4908879e-19 0)
(0.0018928876 1.0230132e-31 0)
(0.0020041561 3.8872712e-19 0)
(0.0021215462 0 0)
(0.0022453684 0 0)
(0.0023759473 0 0)
(0.0025136221 4.8078743e-19 0)
(0.0026587475 -1.4071585e-31 5.0675525e-19)
(0.0028116939 -5.3401121e-19 7.5887557e-35)
(0.0029728482 0 -5.6261245e-19)
(0.0031426144 -5.9261824e-19 0)
(0.0033214145 -1.732087e-31 0)
(0.0035096885 6.570917e-19 0)
(0.0037078957 0 6.9168924e-19)
(0.0039165151 -7.2795117e-19 -4.0417166e-31)
(0.0041360463 7.6594844e-19 -7.6594844e-19)
(0.00436701 -4.4771301e-31 0)
(0.0046099489 -8.4744551e-19 8.4744551e-19)
(0.0048654284 8.9110007e-19 2.4756739e-31)
(0.0051340376 0 -9.3679963e-19)
(0.0054163896 9.8462839e-19 0)
(0.0057131231 2.8730821e-31 0)
(0.0060249024 -1.0870245e-18 1.0870245e-18)