/*--------------------------------*- C++ -*----------------------------------*\
  =========                 |
  \\      /  F ield         | OpenFOAM: The Open Source CFD Toolbox
   \\    /   O peration     | Website:  https://openfoam.org
    \\  /    A nd           | Version:  7
     \\/     M anipulation  |
\*---------------------------------------------------------------------------*/
FoamFile
{
    version     2.0;
    format      ascii;
    class       volScalarField;
    location    "0.0005";
    object      rho;
}
// * * * * * * * * * * * * * * * * * * * * * * * * * * * * * * * * * * * * * //

dimensions      [1 -3 0 0 0 0 0];

internalField   nonuniform List<scalar> 
5000
(
1.4235637
1.4235637
1.4235637
1.4235637
1.4235637
1.4235637
1.4235637
1.4235637
1.4235637
1.4235637
1.4235637
1.4235637
1.4235637
1.4235637
1.4235637
1.4235637
1.4235637
1.4235637
1.4235637
1.4235637
1.4235637
1.4235637
1.4235637
1.4235637
1.4235637
1.4235637
1.4235637
1.4235637
1.4235637
1.4235637
1.4235637
1.4235637
1.4235637
1.4235637
1.4235637
1.4235637
1.4235637
1.4235637
1.4235637
1.4235637
1.4235637
1.4235637
1.4235637
1.4235637
1.4235637
1.4235637
1.4235637
1.4235637
1.4235637
1.4235637
1.4235637
1.4235637
1.4235637
1.4235637
1.4235637
1.4235637
1.4235637
1.4235637
1.4235637
1.4235637
1.4235637
1.4235637
1.4235637
1.4235637
1.4235637
1.4235637
1.4235637
1.4235637
1.4235637
1.4235637
1.4235637
1.4235637
1.4235637
1.4235637
1.4235637
1.4235637
1.4235637
1.4235637
1.4235637
1.4235637
1.4235637
1.4235637
1.4235637
1.4235637
1.4235637
1.4235637
1.4235637
1.4235637
1.4235637
1.4235637
1.4235637
1.4235637
1.4235637
1.4235637
1.4235637
1.4235637
1.4235637
1.4235637
1.4235637
1.4235637
1.4235637
1.4235637
1.4235637
1.4235637
1.4235637
1.4235637
1.4235637
1.4235637
1.4235637
1.4235637
1.4235637
1.4235637
1.4235637
1.4235637
1.4235637
1.4235637
1.4235637
1.4235637
1.4235637
1.4235637
1.4235637
1.4235637
1.4235637
1.4235637
1.4235637
1.4235637
1.4235637
1.4235637
1.4235637
1.4235637
1.4235637
1.4235637
1.4235637
1.4235637
1.4235637
1.4235637
1.4235637
1.4235637
1.4235637
1.4235637
1.4235637
1.4235637
1.4235637
1.4235637
1.4235637
1.4235637
1.4235637
1.4235637
1.4235637
1.4235637
1.4235637
1.4235637
1.4235637
1.4235637
1.4235637
1.4235637
1.4235637
1.4235637
1.4235637
1.4235637
1.4235637
1.4235637
1.4235637
1.4235637
1.4235637
1.4235637
1.4235637
1.4235637
1.4235637
1.4235637
1.4235637
1.4235637
1.4235637
1.4235637
1.4235637
1.4235637
1.4235637
1.4235637
1.4235637
1.4235637
1.4235637
1.4235637
1.4235637
1.4235637
1.4235637
1.4235637
1.4235637
1.4235637
1.4235637
1.4235637
1.4235637
1.4235637
1.4235637
1.4235637
1.4235637
1.4235637
1.4235637
1.4235637
1.4235637
1.4235637
1.4235637
1.4235637
1.4235637
1.4235637
1.4235637
1.4235637
1.4235637
1.4235637
1.4235637
1.4235637
1.4235637
1.4235637
1.4235637
1.4235637
1.4235637
1.4235637
1.4235637
1.4235637
1.4235637
1.4235637
1.4235637
1.4235637
1.4235637
1.4235637
1.4235637
1.4235637
1.4235637
1.4235637
1.4235637
1.4235637
1.4235637
1.4235637
1.4235637
1.4235637
1.4235637
1.4235637
1.4235637
1.4235637
1.4235637
1.4235637
1.4235637
1.4235637
1.4235637
1.4235637
1.4235637
1.4235637
1.4235637
1.4235637
1.4235637
1.4235637
1.4235637
1.4235637
1.4235637
1.4235637
1.4235637
1.4235637
1.4235637
1.4235637
1.4235637
1.4235637
1.4235637
1.4235637
1.4235637
1.4235637
1.4235637
1.4235637
1.4235637
1.4235637
1.4235637
1.4235637
1.4235637
1.4235637
1.4235637
1.4235637
1.4235637
1.4235637
1.4235637
1.4235637
1.4235637
1.4235637
1.4235637
1.4235637
1.4235637
1.4235637
1.4235637
1.4235637
1.4235637
1.4235637
1.4235637
1.4235637
1.4235637
1.4235637
1.4235637
1.4235637
1.4235637
1.4235637
1.4235637
1.4235637
1.4235637
1.4235637
1.4235637
1.4235637
1.4235637
1.4235637
1.4235637
1.4235637
1.4235637
1.4235637
1.4235637
1.4235637
1.4235637
1.4235637
1.4235637
1.4235637
1.4235637
1.4235637
1.4235637
1.4235637
1.4235637
1.4235637
1.4235637
1.4235637
1.4235637
1.4235637
1.4235637
1.4235637
1.4235637
1.4235637
1.4235637
1.4235637
1.4235637
1.4235637
1.4235637
1.4235637
1.4235637
1.4235637
1.4235637
1.4235637
1.4235637
1.4235637
1.4235637
1.4235637
1.4235637
1.4235637
1.4235637
1.4235637
1.4235637
1.4235637
1.4235637
1.4235637
1.4235637
1.4235637
1.4235637
1.4235637
1.4235637
1.4235637
1.4235637
1.4235637
1.4235637
1.4235637
1.4235637
1.4235637
1.4235637
1.4235637
1.4235637
1.4235637
1.4235637
1.4235637
1.4235637
1.4235637
1.4235637
1.4235637
1.4235637
1.4235637
1.4235637
1.4235637
1.4235637
1.4235637
1.4235637
1.4235637
1.4235637
1.4235637
1.4235637
1.4235637
1.4235637
1.4235637
1.4235637
1.4235637
1.4235637
1.4235637
1.4235637
1.4235637
1.4235637
1.4235637
1.4235637
1.4235637
1.4235637
1.4235637
1.4235637
1.4235637
1.4235637
1.4235637
1.4235637
1.4235637
1.4235637
1.4235637
1.4235637
1.4235637
1.4235637
1.4235637
1.4235637
1.4235637
1.4235637
1.4235637
1.4235637
1.4235637
1.4235637
1.4235637
1.4235637
1.4235637
1.4235637
1.4235637
1.4235637
1.4235637
1.4235637
1.4235637
1.4235637
1.4235637
1.4235637
1.4235637
1.4235637
1.4235637
1.4235637
1.4235637
1.4235637
1.4235637
1.4235637
1.4235637
1.4235637
1.4235637
1.4235637
1.4235637
1.4235637
1.4235637
1.4235637
1.4235637
1.4235637
1.4235637
1.4235637
1.4235637
1.4235637
1.4235637
1.4235637
1.4235637
1.4235637
1.4235637
1.4235637
1.4235637
1.4235637
1.4235637
1.4235637
1.4235637
1.4235637
1.4235637
1.4235637
1.4235637
1.4235637
1.4235637
1.4235637
1.4235637
1.4235637
1.4235637
1.4235637
1.4235637
1.4235637
1.4235637
1.4235637
1.4235637
1.4235637
1.4235637
1.4235637
1.4235637
1.4235637
1.4235637
1.4235637
1.4235637
1.4235637
1.4235637
1.4235637
1.4235637
1.4235637
1.4235637
1.4235637
1.4235637
1.4235637
1.4235637
1.4235637
1.4235637
1.4235637
1.4235637
1.4235637
1.4235637
1.4235637
1.4235637
1.4235637
1.4235637
1.4235637
1.4235637
1.4235637
1.4235637
1.4235637
1.4235637
1.4235637
1.4235637
1.4235637
1.4235637
1.4235637
1.4235637
1.4235637
1.4235637
1.4235637
1.4235637
1.4235637
1.4235637
1.4235637
1.4235637
1.4235637
1.4235637
1.4235637
1.4235637
1.4235637
1.4235637
1.4235637
1.4235637
1.4235637
1.4235637
1.4235637
1.4235637
1.4235637
1.4235637
1.4235637
1.4235637
1.4235637
1.4235637
1.4235637
1.4235637
1.4235637
1.4235637
1.4235637
1.4235637
1.4235637
1.4235637
1.4235637
1.4235637
1.4235637
1.4235637
1.4235637
1.4235637
1.4235637
1.4235637
1.4235637
1.4235637
1.4235637
1.4235637
1.4235637
1.4235637
1.4235637
1.4235637
1.4235637
1.4235637
1.4235637
1.4235637
1.4235637
1.4235637
1.4235637
1.4235637
1.4235637
1.4235637
1.4235637
1.4235637
1.4235637
1.4235637
1.4235637
1.4235637
1.4235637
1.4235637
1.4235637
1.4235637
1.4235637
1.4235637
1.4235637
1.4235637
1.4235637
1.4235637
1.4235637
1.4235637
1.4235637
1.4235637
1.4235637
1.4235637
1.4235637
1.4235637
1.4235637
1.4235637
1.4235637
1.4235637
1.4235637
1.4235637
1.4235637
1.4235637
1.4235637
1.4235637
1.4235637
1.4235637
1.4235637
1.4235637
1.4235637
1.4235637
1.4235637
1.4235637
1.4235637
1.4235637
1.4235637
1.4235637
1.4235637
1.4235637
1.4235637
1.4235637
1.4235637
1.4235637
1.4235637
1.4235637
1.4235637
1.4235637
1.4235637
1.4235637
1.4235637
1.4235637
1.4235637
1.4235637
1.4235637
1.4235637
1.4235637
1.4235637
1.4235637
1.4235637
1.4235637
1.4235637
1.4235637
1.4235637
1.4235637
1.4235637
1.4235637
1.4235637
1.4235637
1.4235637
1.4235637
1.4235637
1.4235637
1.4235637
1.4235637
1.4235637
1.4235637
1.4235637
1.4235637
1.4235637
1.4235637
1.4235637
1.4235637
1.4235637
1.4235637
1.4235637
1.4235637
1.4235637
1.4235637
1.4235637
1.4235637
1.4235637
1.4235637
1.4235637
1.4235637
1.4235637
1.4235637
1.4235637
1.4235637
1.4235637
1.4235637
1.4235637
1.4235637
1.4235637
1.4235637
1.4235637
1.4235637
1.4235637
1.4235637
1.4235637
1.4235637
1.4235637
1.4235637
1.4235637
1.4235637
1.4235637
1.4235637
1.4235637
1.4235637
1.4235637
1.4235637
1.4235637
1.4235637
1.4235637
1.4235637
1.4235637
1.4235637
1.4235637
1.4235637
1.4235637
1.4235637
1.4235637
1.4235637
1.4235637
1.4235637
1.4235637
1.4235637
1.4235637
1.4235637
1.4235637
1.4235637
1.4235637
1.4235637
1.4235637
1.4235637
1.4235637
1.4235637
1.4235637
1.4235637
1.4235637
1.4235637
1.4235637
1.4235637
1.4235637
1.4235637
1.4235637
1.4235637
1.4235637
1.4235637
1.4235637
1.4235637
1.4235637
1.4235637
1.4235637
1.4235637
1.4235637
1.4235637
1.4235637
1.4235637
1.4235637
1.4235637
1.4235637
1.4235637
1.4235637
1.4235637
1.4235637
1.4235637
1.4235637
1.4235637
1.4235637
1.4235637
1.4235637
1.4235637
1.4235637
1.4235637
1.4235637
1.4235637
1.4235637
1.4235637
1.4235637
1.4235637
1.4235637
1.4235637
1.4235637
1.4235637
1.4235637
1.4235637
1.4235637
1.4235637
1.4235637
1.4235637
1.4235637
1.4235637
1.4235637
1.4235637
1.4235637
1.4235637
1.4235637
1.4235637
1.4235637
1.4235637
1.4235637
1.4235637
1.4235637
1.4235637
1.4235637
1.4235637
1.4235637
1.4235637
1.4235637
1.4235637
1.4235637
1.4235637
1.4235637
1.4235637
1.4235637
1.4235637
1.4235637
1.4235637
1.4235637
1.4235637
1.4235637
1.4235637
1.4235637
1.4235637
1.4235637
1.4235637
1.4235637
1.4235637
1.4235637
1.4235637
1.4235637
1.4235637
1.4235637
1.4235637
1.4235637
1.4235637
1.4235637
1.4235637
1.4235637
1.4235637
1.4235637
1.4235637
1.4235637
1.4235637
1.4235637
1.4235637
1.4235637
1.4235637
1.4235637
1.4235637
1.4235637
1.4235637
1.4235637
1.4235637
1.4235637
1.4235637
1.4235637
1.4235637
1.4235637
1.4235637
1.4235637
1.4235637
1.4235637
1.4235637
1.4235637
1.4235637
1.4235637
1.4235637
1.4235637
1.4235637
1.4235637
1.4235637
1.4235637
1.4235637
1.4235637
1.4235637
1.4235637
1.4235637
1.4235637
1.4235637
1.4235637
1.4235637
1.4235637
1.4235637
1.4235637
1.4235637
1.4235637
1.4235637
1.4235637
1.4235637
1.4235637
1.4235637
1.4235637
1.4235637
1.4235637
1.4235637
1.4235637
1.4235637
1.4235637
1.4235637
1.4235637
1.4235637
1.4235637
1.4235637
1.4235637
1.4235637
1.4235637
1.4235637
1.4235637
1.4235637
1.4235637
1.4235637
1.4235637
1.4235637
1.4235637
1.4235637
1.4235637
1.4235637
1.4235637
1.4235637
1.4235637
1.4235637
1.4235637
1.4235637
1.4235637
1.4235637
1.4235637
1.4235637
1.4235637
1.4235637
1.4235637
1.4235637
1.4235637
1.4235637
1.4235637
1.4235637
1.4235637
1.4235637
1.4235637
1.4235637
1.4235637
1.4235637
1.4235637
1.4235637
1.4235637
1.4235637
1.4235637
1.4235637
1.4235637
1.4235637
1.4235637
1.4235637
1.4235637
1.4235637
1.4235637
1.4235637
1.4235637
1.4235637
1.4235637
1.4235637
1.4235637
1.4235637
1.4235637
1.4235637
1.4235637
1.4235637
1.4235637
1.4235637
1.4235637
1.4235637
1.4235637
1.4235637
1.4235637
1.4235637
1.4235637
1.4235637
1.4235637
1.4235637
1.4235637
1.4235637
1.4235637
1.4235637
1.4235637
1.4235637
1.4235637
1.4235637
1.4235637
1.4235637
1.4235637
1.4235637
1.4235637
1.4235637
1.4235637
1.4235637
1.4235637
1.4235637
1.4235637
1.4235637
1.4235637
1.4235637
1.4235637
1.4235637
1.4235637
1.4235637
1.4235637
1.4235637
1.4235637
1.4235637
1.4235637
1.4235637
1.4235637
1.4235637
1.4235637
1.4235637
1.4235637
1.4235637
1.4235637
1.4235637
1.4235637
1.4235637
1.4235637
1.4235637
1.4235637
1.4235637
1.4235637
1.4235637
1.4235637
1.4235637
1.4235637
1.4235637
1.4235637
1.4235637
1.4235637
1.4235637
1.4235637
1.4235637
1.4235637
1.4235637
1.4235637
1.4235637
1.4235637
1.4235637
1.4235637
1.4235637
1.4235637
1.4235637
1.4235637
1.4235637
1.4235637
1.4235637
1.4235637
1.4235637
1.4235637
1.4235637
1.4235637
1.4235637
1.4235637
1.4235637
1.4235637
1.4235637
1.4235637
1.4235637
1.4235637
1.4235637
1.4235637
1.4235637
1.4235637
1.4235637
1.4235637
1.4235637
1.4235637
1.4235637
1.4235637
1.4235637
1.4235637
1.4235637
1.4235637
1.4235637
1.4235637
1.4235637
1.4235637
1.4235637
1.4235637
1.4235637
1.4235637
1.4235637
1.4235637
1.4235637
1.4235637
1.4235637
1.4235637
1.4235637
1.4235637
1.4235637
1.4235637
1.4235637
1.4235637
1.4235637
1.4235637
1.4235637
1.4235637
1.4235637
1.4235637
1.4235637
1.4235637
1.4235637
1.4235637
1.4235637
1.4235637
1.4235637
1.4235637
1.4235637
1.4235637
1.4235637
1.4235637
1.4235637
1.4235637
1.4235637
1.4235637
1.4235637
1.4235637
1.4235637
1.4235637
1.4235637
1.4235637
1.4235637
1.4235637
1.4235637
1.4235637
1.4235637
1.4235637
1.4235637
1.4235637
1.4235637
1.4235637
1.4235637
1.4235637
1.4235637
1.4235637
1.4235637
1.4235637
1.4235637
1.4235637
1.4235637
1.4235637
1.4235637
1.4235637
1.4235637
1.4235637
1.4235637
1.4235637
1.4235637
1.4235637
1.4235637
1.4235637
1.4235637
1.4235637
1.4235637
1.4235637
1.4235637
1.4235637
1.4235637
1.4235637
1.4235637
1.4235637
1.4235637
1.4235637
1.4235637
1.4235637
1.4235637
1.4235637
1.4235637
1.4235637
1.4235637
1.4235637
1.4235637
1.4235637
1.4235637
1.4235637
1.4235637
1.4235637
1.4235637
1.4235637
1.4235637
1.4235637
1.4235637
1.4235637
1.4235637
1.4235637
1.4235637
1.4235637
1.4235637
1.4235637
1.4235637
1.4235637
1.4235637
1.4235637
1.4235637
1.4235637
1.4235637
1.4235637
1.4235637
1.4235637
1.4235637
1.4235637
1.4235637
1.4235637
1.4235637
1.4235637
1.4235637
1.4235637
1.4235637
1.4235637
1.4235637
1.4235637
1.4235637
1.4235637
1.4235637
1.4235637
1.4235637
1.4235637
1.4235637
1.4235637
1.4235637
1.4235637
1.4235637
1.4235637
1.4235637
1.4235637
1.4235637
1.4235637
1.4235637
1.4235637
1.4235637
1.4235637
1.4235637
1.4235637
1.4235637
1.4235637
1.4235637
1.4235637
1.4235637
1.4235637
1.4235637
1.4235637
1.4235637
1.4235637
1.4235637
1.4235637
1.4235637
1.4235637
1.4235637
1.4235637
1.4235637
1.4235637
1.4235637
1.4235637
1.4235637
1.4235637
1.4235637
1.4235637
1.4235637
1.4235637
1.4235637
1.4235637
1.4235637
1.4235637
1.4235637
1.4235637
1.4235637
1.4235637
1.4235637
1.4235637
1.4235637
1.4235637
1.4235637
1.4235637
1.4235637
1.4235637
1.4235637
1.4235637
1.4235637
1.4235637
1.4235637
1.4235637
1.4235637
1.4235637
1.4235637
1.4235637
1.4235637
1.4235637
1.4235637
1.4235637
1.4235637
1.4235637
1.4235637
1.4235637
1.4235637
1.4235637
1.4235637
1.4235637
1.4235637
1.4235637
1.4235637
1.4235637
1.4235637
1.4235637
1.4235637
1.4235637
1.4235637
1.4235637
1.4235637
1.4235637
1.4235637
1.4235637
1.4235637
1.4235637
1.4235637
1.4235637
1.4235637
1.4235637
1.4235637
1.4235637
1.4235637
1.4235637
1.4235637
1.4235637
1.4235637
1.4235637
1.4235637
1.4235637
1.4235637
1.4235637
1.4235637
1.4235637
1.4235637
1.4235637
1.4235637
1.4235637
1.4235637
1.4235637
1.4235637
1.4235637
1.4235637
1.4235637
1.4235637
1.4235637
1.4235637
1.4235637
1.4235637
1.4235637
1.4235637
1.4235637
1.4235637
1.4235637
1.4235637
1.4235637
1.4235637
1.4235637
1.4235637
1.4235637
1.4235637
1.4235637
1.4235637
1.4235636
1.4235636
1.4235636
1.4235636
1.4235636
1.4235636
1.4235636
1.4235636
1.4235636
1.4235636
1.4235636
1.4235636
1.4235636
1.4235636
1.4235636
1.4235636
1.4235636
1.4235636
1.4235636
1.4235636
1.4235636
1.4235636
1.4235636
1.4235636
1.4235636
1.4235635
1.4235635
1.4235635
1.4235635
1.4235635
1.4235635
1.4235635
1.4235635
1.4235634
1.4235634
1.4235634
1.4235634
1.4235634
1.4235633
1.4235633
1.4235633
1.4235632
1.4235632
1.4235632
1.4235631
1.4235631
1.423563
1.423563
1.4235629
1.4235629
1.4235628
1.4235628
1.4235627
1.4235626
1.4235625
1.4235625
1.4235624
1.4235623
1.4235622
1.4235621
1.4235619
1.4235618
1.4235617
1.4235615
1.4235614
1.4235612
1.423561
1.4235608
1.4235606
1.4235604
1.4235602
1.4235599
1.4235596
1.4235594
1.423559
1.4235587
1.4235584
1.423558
1.4235576
1.4235572
1.4235567
1.4235563
1.4235557
1.4235552
1.4235546
1.423554
1.4235533
1.4235527
1.4235519
1.4235511
1.4235503
1.4235494
1.4235485
1.4235474
1.4235464
1.4235453
1.4235441
1.4235428
1.4235414
1.42354
1.4235385
1.4235369
1.4235352
1.4235334
1.4235315
1.4235294
1.4235273
1.4235251
1.4235227
1.4235201
1.4235175
1.4235146
1.4235117
1.4235085
1.4235052
1.4235017
1.423498
1.4234941
1.4234899
1.4234856
1.423481
1.4234762
1.4234711
1.4234658
1.4234601
1.4234542
1.423448
1.4234414
1.4234345
1.4234273
1.4234196
1.4234116
1.4234032
1.4233944
1.4233851
1.4233754
1.4233652
1.4233545
1.4233433
1.4233315
1.4233192
1.4233063
1.4232927
1.4232786
1.4232638
1.4232483
1.4232321
1.4232151
1.4231974
1.4231789
1.4231595
1.4231393
1.4231182
1.4230962
1.4230733
1.4230493
1.4230243
1.4229983
1.4229711
1.4229428
1.4229134
1.4228827
1.4228508
1.4228176
1.422783
1.4227471
1.4227097
1.4226709
1.4226305
1.4225886
1.4225451
1.4224999
1.4224531
1.4224045
1.422354
1.4223018
1.4222476
1.4221914
1.4221333
1.4220731
1.4220108
1.4219463
1.4218795
1.4218105
1.4217392
1.4216654
1.4215892
1.4215105
1.4214293
1.4213454
1.4212588
1.4211695
1.4210773
1.4209823
1.4208844
1.4207835
1.4206796
1.4205726
1.4204624
1.420349
1.4202323
1.4201123
1.4199889
1.419862
1.4197317
1.4195978
1.4194602
1.419319
1.419174
1.4190252
1.4188726
1.4187161
1.4185557
1.4183912
1.4182227
1.4180501
1.4178733
1.4176923
1.4175071
1.4173176
1.4171237
1.4169255
1.4167228
1.4165156
1.416304
1.4160878
1.415867
1.4156416
1.4154115
1.4151768
1.4149373
1.4146931
1.4144441
1.4141904
1.4139318
1.4136683
1.4134
1.4131268
1.4128487
1.4125657
1.4122778
1.4119849
1.4116871
1.4113844
1.4110766
1.4107639
1.4104463
1.4101237
1.4097961
1.4094636
1.4091261
1.4087837
1.4084364
1.4080841
1.407727
1.407365
1.4069981
1.4066263
1.4062498
1.4058685
1.4054824
1.4050915
1.404696
1.4042958
1.403891
1.4034816
1.4030676
1.4026491
1.4022261
1.4017987
1.401367
1.4009309
1.4004905
1.4000459
1.3995971
1.3991442
1.3986873
1.3982263
1.3977615
1.3972927
1.3968202
1.3963439
1.3958639
1.3953804
1.3948933
1.3944027
1.3939088
1.3934115
1.392911
1.3924074
1.3919007
1.3913911
1.3908785
1.3903631
1.3898449
1.3893241
1.3888008
1.388275
1.3877468
1.3872163
1.3866836
1.3861489
1.3856121
1.3850734
1.3845329
1.3839907
1.3834469
1.3829016
1.3823548
1.3818068
1.3812576
1.3807072
1.3801559
1.3796036
1.3790506
1.3784969
1.3779427
1.377388
1.3768329
1.3762776
1.3757221
1.3751667
1.3746113
1.3740561
1.3735013
1.3729469
1.372393
1.3718398
1.3712873
1.3707357
1.3701851
1.3696356
1.3690874
1.3685405
1.367995
1.3674511
1.3669089
1.3663684
1.3658299
1.3652934
1.364759
1.3642269
1.3636971
1.3631698
1.362645
1.362123
1.3616038
1.3610874
1.3605741
1.360064
1.359557
1.3590534
1.3585533
1.3580567
1.3575637
1.3570745
1.3565892
1.3561078
1.3556305
1.3551573
1.3546883
1.3542237
1.3537636
1.3533079
1.3528568
1.3524105
1.3519689
1.3515321
1.3511003
1.3506735
1.3502517
1.3498352
1.3494238
1.3490177
1.348617
1.3482217
1.3478319
1.3474476
1.3470689
1.3466958
1.3463283
1.3459666
1.3456107
1.3452605
1.3449162
1.3445777
1.3442452
1.3439185
1.3435977
1.3432829
1.3429741
1.3426712
1.3423743
1.3420834
1.3417984
1.3415194
1.3412463
1.3409792
1.340718
1.3404628
1.3402134
1.3399698
1.3397321
1.3395002
1.3392741
1.3390536
1.3388388
1.3386297
1.3384261
1.3382281
1.3380355
1.3378483
1.3376665
1.3374899
1.3373186
1.3371524
1.3369912
1.3368351
1.3366839
1.3365375
1.3363959
1.336259
1.3361267
1.3359989
1.3358755
1.3357564
1.3356416
1.335531
1.3354244
1.3353218
1.3352231
1.3351282
1.3350369
1.3349493
1.3348652
1.3347845
1.3347071
1.3346329
1.3345619
1.3344939
1.3344289
1.3343668
1.3343074
1.3342507
1.3341966
1.334145
1.3340958
1.334049
1.3340044
1.333962
1.3339216
1.3338833
1.333847
1.3338125
1.3337797
1.3337487
1.3337194
1.3336916
1.3336653
1.3336404
1.333617
1.3335948
1.3335739
1.3335542
1.3335356
1.3335182
1.3335017
1.3334863
1.3334717
1.3334581
1.3334453
1.3334333
1.3334221
1.3334116
1.3334017
1.3333925
1.3333839
1.3333759
1.3333684
1.3333614
1.3333549
1.3333488
1.3333432
1.3333379
1.333333
1.3333285
1.3333243
1.3333204
1.3333168
1.3333135
1.3333104
1.3333076
1.3333049
1.3333025
1.3333003
1.3332982
1.3332963
1.3332945
1.3332929
1.3332915
1.3332901
1.3332889
1.3332877
1.3332867
1.3332857
1.3332849
1.3332841
1.3332833
1.3332827
1.3332821
1.3332815
1.333281
1.3332806
1.3332802
1.3332798
1.3332795
1.3332792
1.3332789
1.3332787
1.3332784
1.3332782
1.3332781
1.3332779
1.3332778
1.3332776
1.3332775
1.3332774
1.3332773
1.3332772
1.3332771
1.3332771
1.333277
1.3332768
1.3332767
1.3332766
1.3332765
1.3332763
1.3332762
1.3332761
1.3332759
1.3332758
1.3332756
1.3332755
1.3332754
1.3332753
1.3332751
1.333275
1.3332749
1.3332748
1.3332746
1.3332745
1.3332744
1.3332743
1.3332741
1.333274
1.333274
1.3332739
1.3332737
1.3332736
1.3332735
1.3332735
1.3332733
1.3332732
1.3332731
1.3332731
1.333273
1.3332729
1.3332728
1.3332728
1.3332727
1.3332726
1.3332725
1.3332724
1.3332723
1.3332722
1.3332722
1.3332721
1.333272
1.3332718
1.3332717
1.3332716
1.3332716
1.3332715
1.3332714
1.3332713
1.3332712
1.3332712
1.3332711
1.3332711
1.333271
1.3332709
1.3332709
1.3332708
1.3332707
1.3332706
1.3332705
1.3332704
1.3332703
1.3332703
1.3332702
1.3332701
1.33327
1.33327
1.3332699
1.3332699
1.3332698
1.3332698
1.3332697
1.3332696
1.3332696
1.3332696
1.3332695
1.3332695
1.3332694
1.3332694
1.3332694
1.3332693
1.3332693
1.3332693
1.3332692
1.3332692
1.3332692
1.3332691
1.3332691
1.333269
1.333269
1.3332689
1.3332688
1.3332688
1.3332687
1.3332687
1.3332686
1.3332686
1.3332685
1.3332685
1.3332684
1.3332683
1.3332683
1.3332683
1.3332683
1.3332683
1.3332682
1.3332682
1.3332681
1.3332681
1.333268
1.333268
1.3332679
1.3332679
1.3332679
1.3332678
1.3332678
1.3332678
1.3332677
1.3332677
1.3332677
1.3332677
1.3332676
1.3332676
1.3332676
1.3332675
1.3332674
1.3332674
1.3332674
1.3332673
1.3332673
1.3332673
1.3332673
1.3332673
1.3332672
1.3332672
1.3332672
1.3332671
1.3332671
1.333267
1.333267
1.333267
1.333267
1.333267
1.333267
1.3332669
1.3332669
1.3332669
1.3332669
1.3332669
1.3332668
1.3332668
1.3332668
1.3332668
1.3332668
1.3332668
1.3332668
1.3332668
1.3332667
1.3332667
1.3332667
1.3332666
1.3332666
1.3332666
1.3332666
1.3332665
1.3332665
1.3332665
1.3332665
1.3332664
1.3332664
1.3332663
1.3332663
1.3332663
1.3332663
1.3332663
1.3332663
1.3332662
1.3332662
1.3332661
1.3332661
1.3332661
1.3332661
1.333266
1.333266
1.3332659
1.3332659
1.3332659
1.3332659
1.3332658
1.3332658
1.3332658
1.3332657
1.3332657
1.3332657
1.3332657
1.3332656
1.3332656
1.3332656
1.3332655
1.3332655
1.3332655
1.3332655
1.3332654
1.3332654
1.3332653
1.3332653
1.3332652
1.3332652
1.3332651
1.3332651
1.3332651
1.3332651
1.3332651
1.3332651
1.333265
1.333265
1.3332649
1.3332649
1.3332648
1.3332648
1.3332648
1.3332648
1.3332647
1.3332647
1.3332646
1.3332646
1.3332645
1.3332645
1.3332644
1.3332644
1.3332644
1.3332643
1.3332643
1.3332643
1.3332642
1.3332642
1.3332641
1.3332641
1.333264
1.333264
1.3332639
1.3332639
1.3332638
1.3332638
1.3332638
1.3332637
1.3332637
1.3332636
1.3332636
1.3332635
1.3332635
1.3332635
1.3332634
1.3332634
1.3332633
1.3332633
1.3332633
1.3332632
1.3332632
1.3332631
1.333263
1.333263
1.3332629
1.3332629
1.3332629
1.3332628
1.3332628
1.3332627
1.3332627
1.3332626
1.3332626
1.3332625
1.3332625
1.3332624
1.3332623
1.3332623
1.3332623
1.3332622
1.3332622
1.3332621
1.3332621
1.333262
1.3332619
1.3332619
1.3332618
1.3332618
1.3332618
1.3332617
1.3332617
1.3332616
1.3332615
1.3332615
1.3332614
1.3332613
1.3332612
1.3332612
1.3332611
1.333261
1.333261
1.3332609
1.3332609
1.3332608
1.3332608
1.3332607
1.3332606
1.3332606
1.3332605
1.3332604
1.3332604
1.3332603
1.3332602
1.3332601
1.3332601
1.33326
1.3332599
1.3332599
1.3332598
1.3332598
1.3332597
1.3332596
1.3332596
1.3332595
1.3332594
1.3332594
1.3332593
1.3332592
1.3332591
1.333259
1.3332589
1.3332589
1.3332588
1.3332587
1.3332586
1.3332586
1.3332585
1.3332584
1.3332584
1.3332583
1.3332582
1.3332582
1.3332581
1.333258
1.3332579
1.3332578
1.3332577
1.3332576
1.3332575
1.3332575
1.3332574
1.3332573
1.3332573
1.3332572
1.3332571
1.333257
1.333257
1.3332569
1.3332568
1.3332567
1.3332566
1.3332565
1.3332564
1.3332563
1.3332562
1.3332561
1.333256
1.3332559
1.3332559
1.3332558
1.3332557
1.3332557
1.3332556
1.3332555
1.3332554
1.3332553
1.3332552
1.3332551
1.333255
1.3332549
1.3332548
1.3332547
1.3332546
1.3332545
1.3332544
1.3332543
1.3332542
1.3332541
1.3332539
1.3332538
1.3332537
1.3332536
1.3332535
1.3332534
1.3332533
1.3332532
1.3332531
1.333253
1.3332529
1.3332528
1.3332527
1.3332526
1.3332525
1.3332523
1.3332522
1.3332521
1.3332519
1.3332518
1.3332517
1.3332516
1.3332515
1.3332514
1.3332513
1.3332511
1.333251
1.3332509
1.3332508
1.3332507
1.3332506
1.3332504
1.3332503
1.3332502
1.33325
1.3332499
1.3332497
1.3332496
1.3332495
1.3332494
1.3332492
1.3332491
1.333249
1.3332489
1.3332487
1.3332486
1.3332484
1.3332482
1.3332481
1.3332479
1.3332477
1.3332476
1.3332474
1.3332473
1.3332472
1.3332471
1.3332469
1.3332468
1.3332467
1.3332465
1.3332463
1.3332462
1.333246
1.3332459
1.3332457
1.3332455
1.3332453
1.3332452
1.333245
1.3332448
1.3332447
1.3332445
1.3332443
1.3332441
1.333244
1.3332438
1.3332436
1.3332434
1.3332432
1.3332431
1.3332428
1.3332427
1.3332425
1.3332423
1.3332421
1.3332419
1.3332418
1.3332416
1.3332414
1.3332412
1.3332409
1.3332407
1.3332405
1.3332403
1.3332401
1.3332399
1.3332397
1.3332394
1.3332392
1.333239
1.3332388
1.3332386
1.3332383
1.3332381
1.3332378
1.3332376
1.3332374
1.3332372
1.333237
1.3332367
1.3332365
1.3332363
1.333236
1.3332358
1.3332355
1.3332352
1.333235
1.3332347
1.3332344
1.3332341
1.3332338
1.3332336
1.3332333
1.3332331
1.3332329
1.3332326
1.3332323
1.333232
1.3332318
1.3332314
1.3332312
1.3332308
1.3332305
1.3332301
1.3332299
1.3332295
1.3332293
1.3332289
1.3332286
1.3332283
1.333228
1.3332276
1.3332273
1.333227
1.3332266
1.3332263
1.3332259
1.3332255
1.3332252
1.3332248
1.3332245
1.3332241
1.3332238
1.3332234
1.3332231
1.3332227
1.3332223
1.3332219
1.3332215
1.3332211
1.3332206
1.3332202
1.3332198
1.3332193
1.333219
1.3332186
1.3332182
1.3332177
1.3332173
1.3332169
1.3332164
1.333216
1.3332156
1.3332151
1.3332146
1.3332141
1.3332136
1.333213
1.3332125
1.333212
1.3332115
1.3332109
1.3332104
1.3332098
1.3332092
1.3332086
1.3332079
1.3332072
1.3332066
1.3332059
1.3332052
1.3332044
1.3332037
1.3332029
1.3332021
1.3332012
1.3332004
1.3331995
1.3331987
1.3331978
1.3331969
1.3331959
1.333195
1.3331939
1.3331929
1.3331918
1.3331907
1.3331896
1.3331885
1.3331874
1.3331862
1.333185
1.3331837
1.3331825
1.3331812
1.3331799
1.3331785
1.3331771
1.3331756
1.3331742
1.3331726
1.3331711
1.3331694
1.3331678
1.333166
1.3331643
1.3331626
1.3331609
1.3331593
1.3331576
1.333156
1.3331544
1.3331529
1.3331513
1.3331498
1.3331483
1.3331468
1.3331455
1.3331444
1.3331434
1.3331426
1.3331421
1.3331418
1.3331416
1.3331416
1.3331416
1.3331418
1.3331425
1.3331443
1.3331468
1.3331489
1.3331507
1.3331529
1.3331566
1.3331626
1.3331708
1.3331799
1.333188
1.3331932
1.3331951
1.333195
1.3331923
1.3331812
1.3331466
1.3330502
1.332797
1.3321409
1.3305165
1.3265147
1.3203165
1.3131881
1.3056736
1.2982879
1.2914405
1.2854033
1.2803114
1.2761847
1.27296
1.2705242
1.268742
1.2674774
1.2666064
1.2660242
1.265647
1.2654109
1.2652693
1.265189
1.2651474
1.2651295
1.2651249
1.2651257
1.265132
1.2651472
1.2651632
1.2651784
1.2651928
1.2652066
1.2652196
1.2652318
1.2652433
1.265254
1.2652638
1.2652729
1.2652812
1.2652887
1.2652955
1.2653017
1.2653073
1.2653123
1.2653169
1.2653211
1.2653249
1.2653284
1.2653315
1.2653344
1.2653371
1.2653396
1.2653419
1.2653441
1.2653461
1.265348
1.2653499
1.2653516
1.2653533
1.2653549
1.2653565
1.265358
1.2653594
1.2653608
1.2653621
1.2653634
1.2653646
1.2653658
1.2653669
1.265368
1.2653691
1.2653701
1.2653711
1.2653721
1.265373
1.2653739
1.2653748
1.2653757
1.2653765
1.2653773
1.2653781
1.2653788
1.2653796
1.2653803
1.2653811
1.2653818
1.2653825
1.2653831
1.2653838
1.2653845
1.2653851
1.2653858
1.2653864
1.265387
1.2653877
1.2653883
1.2653889
1.2653896
1.2653902
1.2653908
1.2653914
1.265392
1.2653926
1.2653932
1.2653938
1.2653944
1.265395
1.2653956
1.2653962
1.2653968
1.2653973
1.2653979
1.2653984
1.2653989
1.2653994
1.2653999
1.2654004
1.2654009
1.2654014
1.2654019
1.2654024
1.2654029
1.2654033
1.2654038
1.2654042
1.2654046
1.265405
1.2654054
1.2654058
1.2654062
1.2654066
1.265407
1.2654074
1.2654078
1.2654081
1.2654085
1.2654089
1.2654092
1.2654095
1.2654099
1.2654102
1.2654105
1.2654108
1.2654111
1.2654114
1.2654118
1.2654121
1.2654124
1.2654127
1.265413
1.2654133
1.2654136
1.2654139
1.2654142
1.2654144
1.2654147
1.265415
1.2654153
1.2654155
1.2654158
1.2654161
1.2654163
1.2654166
1.2654168
1.2654171
1.2654173
1.2654176
1.2654179
1.2654181
1.2654183
1.2654186
1.2654188
1.265419
1.2654192
1.2654194
1.2654197
1.2654199
1.2654201
1.2654204
1.2654206
1.2654208
1.265421
1.2654212
1.2654214
1.2654216
1.2654218
1.265422
1.2654223
1.2654225
1.2654227
1.2654228
1.265423
1.2654232
1.2654234
1.2654236
1.2654238
1.265424
1.2654242
1.2654244
1.2654245
1.2654247
1.2654249
1.2654251
1.2654253
1.2654254
1.2654256
1.2654258
1.2654259
1.2654261
1.2654263
1.2654265
1.2654266
1.2654268
1.265427
1.2654271
1.2654273
1.2654274
1.2654276
1.2654277
1.2654279
1.265428
1.2654282
1.2654283
1.2654285
1.2654286
1.2654288
1.2654289
1.2654291
1.2654292
1.2654294
1.2654295
1.2654297
1.2654298
1.26543
1.2654301
1.2654302
1.2654304
1.2654305
1.2654306
1.2654307
1.2654309
1.265431
1.2654311
1.2654313
1.2654314
1.2654315
1.2654316
1.2654318
1.2654319
1.265432
1.2654321
1.2654323
1.2654324
1.2654325
1.2654326
1.2654328
1.2654329
1.265433
1.2654331
1.2654332
1.2654333
1.2654334
1.2654335
1.2654336
1.2654338
1.2654339
1.265434
1.2654341
1.2654342
1.2654344
1.2654345
1.2654346
1.2654347
1.2654348
1.2654349
1.265435
1.2654351
1.2654352
1.2654353
1.2654353
1.2654354
1.2654355
1.2654356
1.2654357
1.2654358
1.2654359
1.265436
1.2654361
1.2654362
1.2654363
1.2654364
1.2654365
1.2654366
1.2654367
1.2654368
1.2654369
1.2654369
1.265437
1.2654371
1.2654372
1.2654374
1.2654374
1.2654375
1.2654376
1.2654377
1.2654378
1.2654379
1.2654379
1.265438
1.2654381
1.2654382
1.2654383
1.2654384
1.2654385
1.2654385
1.2654386
1.2654387
1.2654388
1.2654389
1.265439
1.2654391
1.2654392
1.2654392
1.2654393
1.2654393
1.2654394
1.2654395
1.2654395
1.2654396
1.2654397
1.2654398
1.2654399
1.26544
1.2654401
1.2654401
1.2654402
1.2654402
1.2654403
1.2654404
1.2654404
1.2654405
1.2654406
1.2654407
1.2654407
1.2654408
1.2654409
1.265441
1.265441
1.2654411
1.2654412
1.2654412
1.2654413
1.2654414
1.2654414
1.2654415
1.2654415
1.2654416
1.2654416
1.2654417
1.2654418
1.2654418
1.2654419
1.265442
1.265442
1.2654421
1.2654422
1.2654422
1.2654423
1.2654424
1.2654424
1.2654425
1.2654426
1.2654426
1.2654427
1.2654427
1.2654428
1.2654428
1.2654429
1.2654429
1.265443
1.265443
1.2654431
1.2654432
1.2654432
1.2654433
1.2654433
1.2654434
1.2654434
1.2654435
1.2654435
1.2654436
1.2654437
1.2654437
1.2654438
1.2654438
1.2654439
1.2654439
1.2654439