/*--------------------------------*- C++ -*----------------------------------*\
| =========                 |                                                 |
| \\      /  F ield         | OpenFOAM: The Open Source CFD Toolbox           |
|  \\    /   O peration     | Version:  4.x                                   |
|   \\  /    A nd           | Web:      www.OpenFOAM.org                      |
|    \\/     M anipulation  |                                                 |
\*---------------------------------------------------------------------------*/
FoamFile
{
    version     2.0;
    format      ascii;
    class       volScalarField;
    location    "0.38";
    object      T;
}
// * * * * * * * * * * * * * * * * * * * * * * * * * * * * * * * * * * * * * //

dimensions      [0 0 0 1 0 0 0];

internalField   nonuniform List<scalar> 
6394
(
300.0000125
300.0000018
300.000001
300.0000008
300.0000008
299.9999991
299.9999983
299.9999987
300.0000157
300.0000051
300.0000039
300.0000036
300.0000023
300.0000008
300.0000007
300.0000005
300.0000092
300.000002
300.0000018
300.000002
300.0000014
300.0000008
300.0000003
300
300.0000028
300
300.0000007
300.0000019
300.0000016
300.000001
300.0000006
300.0000001
299.9999997
299.9999992
300.0000011
300.000002
300.0000021
300.0000015
300.0000009
300.0000001
299.9999998
300.0000003
300.0000015
300.0000029
300.0000029
300.000002
300.0000008
300
300.0000268
300.0000105
300.0000088
300.0000063
300.0000047
300.0000008
299.9999977
299.9999972
300.0000291
300.0000138
300.0000112
300.0000106
300.0000069
300.0000016
299.9999992
299.9999987
300.0000163
300.000008
300.0000076
300.0000078
300.0000045
299.9999995
299.9999982
299.9999979
300.0000048
300.0000029
300.0000051
300.0000064
300.0000032
299.9999994
299.9999978
299.9999974
300.0000014
300.0000013
300.0000058
300.0000063
300.0000032
299.9999998
299.9999976
299.999997
300.0000046
300.0000052
300.0000085
300.0000088
300.0000043
300
299.9999969
299.9999962
300.0000405
300.0000285
300.000028
300.0000242
300.000018
300.0000064
299.9999962
299.9999906
300.0000451
300.0000331
300.0000319
300.0000305
300.0000198
300.0000046
299.9999909
299.9999866
300.0000291
300.0000248
300.0000256
300.000024
300.0000133
299.9999981
299.9999852
299.9999828
300.0000143
300.000017
300.0000211
300.000019
300.0000073
299.9999901
299.9999817
299.9999791
300.0000121
300.0000137
300.0000187
300.0000153
300.0000018
299.9999869
299.999977
299.9999744
300.0000171
300.0000173
300.0000193
300.0000124
299.9999964
299.9999813
299.9999707
299.9999684
300.0001016
300.0000925
300.0000906
300.0000952
300.000087
300.0000635
300.0000288
300.0000017
299.9999906
300.0001254
300.0001155
300.0001119
300.000119
300.0001111
300.0000752
300.0000273
299.9999915
299.9999729
300.0001012
300.0000916
300.0000942
300.000101
300.0000924
300.0000571
300.0000102
299.9999698
299.9999524
300.000077
300.0000715
300.0000778
300.0000854
300.0000732
300.0000346
299.9999858
299.9999414
299.9999306
300.0000626
300.0000555
300.0000616
300.000068
300.0000503
300.0000056
299.9999464
299.9999087
299.9999021
300.0000524
300.0000473
300.0000502
300.0000507
300.0000247
299.999968
299.9999113
299.9998763
299.9998723
300.0001913
300.0001952
300.0002036
300.0002057
300.0001825
300.0001304
300.000068
300.0000201
300.000001
300.000336
300.00033
300.0003471
300.0003591
300.0003183
300.0002159
300.0000938
300.0000077
299.9999767
300.000319
300.0003018
300.000321
300.0003371
300.000296
300.0001879
300.0000593
299.9999734
299.9999447
300.0002751
300.0002533
300.0002729
300.000289
300.0002412
300.0001257
300
299.9999218
299.9999052
300.0002153
300.0001829
300.0002056
300.0002184
300.0001592
300.0000379
299.9999182
299.999845
299.9998447
300.0001496
300.0001225
300.0001409
300.0001432
300.000073
299.9999585
299.9998311
299.9997681
299.9997804
300.0002588
300.0002775
300.0002954
300.0002932
300.0002568
300.0001875
300.0001112
300.0000546
300.0000318
300.0005662
300.0005897
300.0006263
300.0006206
300.0005292
300.0003626
300.0001822
300.0000528
300.0000085
300.0006102
300.000621
300.000658
300.0006541
300.0005448
300.0003462
300.0001373
300.0000014
299.9999637
300.0005517
300.0005446
300.0005827
300.0005811
300.0004627
300.0002518
300.0000422
299.9999316
299.9999151
300.0004402
300.0004126
300.0004517
300.0004475
300.0003182
300.0001072
299.9999239
299.9998339
299.999843
300.0003091
300.0002844
300.0003198
300.0003079
300.0001734
299.9999744
299.9998053
299.9997299
299.9997629
300.0002662
300.0002815
300.0003071
300.0003331
300.0003384
300.0003031
300.0002336
300.0001584
300.0001054
300.0000859
300.0006505
300.0006911
300.0007446
300.0008
300.0007917
300.0006799
300.0004903
300.0002933
300.000156
300.0001088
300.000771
300.0008149
300.0008573
300.0009129
300.0008941
300.0007427
300.0004977
300.0002527
300.0000918
300.0000547
300.0007507
300.0007713
300.0007956
300.0008457
300.0008213
300.0006535
300.000391
300.0001372
299.9999965
299.9999917
300.0006632
300.000646
300.0006494
300.0006897
300.0006555
300.0004748
300.0002095
299.999971
299.9998697
299.9999023
300.0005115
300.0004687
300.0004709
300.0005095
300.0004716
300.0002904
300.0000308
299.9998228
299.9997456
299.9998043
300.0002534
300.000244
300.0002464
300.0002618
300.0002939
300.0003318
300.0003476
300.0003238
300.0002678
300.0002045
300.0001601
300.000143
300.0006463
300.0006376
300.0006574
300.000702
300.0007739
300.0008523
300.0008658
300.000775
300.0006053
300.0004247
300.0003025
300.0002642
300.0008334
300.0008172
300.000827
300.0008794
300.0009546
300.0010381
300.0010325
300.0008876
300.0006475
300.0004073
300.0002621
300.000238
300.0008881
300.0008603
300.0008475
300.0008857
300.0009416
300.0010073
300.000978
300.0008021
300.0005363
300.0002832
300.0001505
300.0001644
300.0008798
300.0008317
300.0007843
300.0007916
300.0008207
300.0008594
300.0008048
300.0006071
300.000331
300.0000857
299.9999836
300.0000466
300.0006298
300.0005968
300.0006172
300.0006498
300.0005915
300.0003939
300.0001221
299.9998944
299.99982
299.9999183
300.0002354
300.0002092
300.0002032
300.0002146
300.0002533
300.0003037
300.0003314
300.0003205
300.0002793
300.0002304
300.000194
300.0001768
300.0006275
300.0005943
300.000593
300.0006366
300.0007311
300.000834
300.0008704
300.0008141
300.000686
300.0005378
300.0004326
300.000395
300.0008443
300.0008101
300.0008061
300.0008573
300.0009535
300.0010595
300.0010828
300.0009795
300.0007796
300.0005669
300.0004372
300.0004134
300.0009435
300.0009022
300.0008744
300.0009085
300.0009836
300.0010651
300.001055
300.0009086
300.0006707
300.000437
300.0003178
300.0003303
300.0009606
300.000914
300.0008576
300.0008589
300.0008974
300.00094
300.0008877
300.0007035
300.0004407
300.0002054
300.0001113
300.0001746
300.0007102
300.0006735
300.0006925
300.000717
300.0006527
300.0004617
300.000198
299.9999783
299.9999105
300.0000161
300.0002069
300.0001782
300.000169
300.0001726
300.0002028
300.0002491
300.0002854
300.0002905
300.0002633
300.0002247
300.0001948
300.0001786
300.0005762
300.00052
300.0004951
300.0005221
300.0006195
300.0007508
300.0008276
300.0008016
300.0007012
300.0005829
300.0004946
300.0004543
300.0008315
300.0007657
300.0007275
300.0007656
300.0008879
300.001024
300.0010735
300.0010056
300.0008583
300.0006886
300.0005732
300.0005371
300.0009853
300.0009222
300.0008662
300.0008848
300.0009678
300.0010603
300.0010698
300.0009717
300.000787
300.0005897
300.0004788
300.0004691
300.0010447
300.0009893
300.0009
300.0008708
300.0009065
300.0009542
300.0009243
300.0007829
300.0005652
300.0003598
300.0002712
300.0003043
300.0007688
300.000707
300.0007124
300.0007309
300.0006778
300.000518
300.0002921
300.0001062
300.0000513
300.0001317
300.0001881
300.0001639
300.0001523
300.000147
300.0001587
300.0001861
300.0002138
300.0002236
300.0002094
300.0001858
300.0001678
300.0001572
300.0005308
300.0004718
300.0004389
300.0004411
300.0005023
300.0006072
300.0006983
300.0007175
300.0006548
300.0005622
300.0004892
300.0004507
300.0008018
300.0007241
300.0006672
300.0006758
300.0007677
300.000906
300.0009982
300.0009747
300.0008624
300.0007314
300.0006326
300.0005837
300.0010024
300.0009277
300.000846
300.0008304
300.0009004
300.0010032
300.0010434
300.0009836
300.0008614
300.0007123
300.0006042
300.0005625
300.0011207
300.0010521
300.0009268
300.0008612
300.0008811
300.0009319
300.0009279
300.000853
300.0007073
300.0005509
300.0004554
300.0004379
300.0008237
300.0007212
300.0007071
300.0007218
300.0006941
300.0005975
300.000451
300.0003191
300.000262
300.0002846
300.0001799
300.0001589
300.0001461
300.0001331
300.000127
300.0001328
300.0001434
300.000147
300.0001412
300.0001358
300.0001356
300.0001364
300.0004979
300.0004433
300.0004121
300.0003909
300.0004035
300.0004537
300.0005092
300.00053
300.0005078
300.0004657
300.0004305
300.0004072
300.0007667
300.0006931
300.0006368
300.0006157
300.0006516
300.0007362
300.000818
300.0008446
300.000796
300.0007069
300.0006265
300.0005765
300.0009945
300.0009214
300.0008329
300.0007867
300.0008114
300.0008841
300.0009483
300.000949
300.0008713
300.0007686
300.0006679
300.0006041
300.0011411
300.0010733
300.0009398
300.0008432
300.000828
300.0008681
300.0009031
300.0008855
300.0008153
300.0007044
300.0005969
300.0005397
300.0008835
300.0007387
300.0006981
300.0007132
300.0007243
300.0007065
300.0006446
300.0005508
300.0004638
300.0004327
300.0001741
300.0001572
300.0001458
300.0001301
300.0001128
300.000104
300.0001026
300.0001025
300.0001059
300.0001172
300.0001319
300.0001403
300.0004722
300.0004293
300.000403
300.0003681
300.0003422
300.0003429
300.0003591
300.0003691
300.0003698
300.0003754
300.0003855
300.0003867
300.000715
300.0006593
300.0006188
300.0005806
300.0005645
300.0005876
300.000629
300.000654
300.0006494
300.0006241
300.0005878
300.0005544
300.0009488
300.0008888
300.0008147
300.0007568
300.0007373
300.0007642
300.0008127
300.0008472
300.0008343
300.0007638
300.0006759
300.0006135
300.0011098
300.0010527
300.0009356
300.0008319
300.0007887
300.0008051
300.0008507
300.0008768
300.00085
300.0007666
300.0006569
300.0005911
300.000921
300.0007635
300.0007017
300.0007126
300.0007571
300.0007929
300.0007765
300.0006935
300.0005802
300.0005275
300.0001739
300.0001639
300.0001552
300.0001406
300.0001197
300.0001057
300.0001001
300.0001008
300.0001118
300.0001332
300.0001567
300.0001689
300.000464
300.0004327
300.0004102
300.0003724
300.0003325
300.0003063
300.0002981
300.0003032
300.0003246
300.0003631
300.0003976
300.0004103
300.0006717
300.0006381
300.0006157
300.0005752
300.0005301
300.0005073
300.0005105
300.0005269
300.0005513
300.0005745
300.0005773
300.00056
300.0008452
300.0008185
300.0007921
300.0007472
300.0007001
300.0006803
300.0006955
300.0007265
300.0007424
300.000722
300.0006656
300.0006187
300.0009852
300.0009627
300.0009068
300.000831
300.0007747
300.000759
300.000793
300.0008373
300.0008312
300.000761
300.0006602
300.0006071
300.0010607
300.0010474
300.0009433
300.0008061
300.0007309
300.0007231
300.0007645
300.0008088
300.0008029
300.0007205
300.0006076
300.0005608
300.0000018
300.0000013
300.0000025
300.000004
300.000004
300.0000027
300.0000009
299.9999999
300.0000041
300.0000019
300.0000037
300.0000054
300.0000055
300.0000034
300.0000008
299.9999996
300.0000062
300.0000033
300.0000055
300.0000068
300.0000057
300.0000029
300.0000002
299.9999993
300.0000067
300.0000043
300.0000062
300.0000064
300.0000044
300.0000019
299.9999998
299.9999993
300.0000055
300.0000038
300.0000054
300.0000053
300.0000036
300.0000017
299.9999999
299.9999998
300.0000035
300.000003
300.0000048
300.0000055
300.0000048
300.0000034
300.0000022
300.0000015
300.0000014
300.0000026
300.0000062
300.0000081
300.0000074
300.0000057
300.0000037
300.0000017
299.9999993
300.0000056
300.0000137
300.0000167
300.000015
300.0000117
300.0000085
300.0000001
300.0000082
300.0000107
300.0000104
300.0000122
300.0000116
300.0000057
300.0000006
299.9999969
299.9999961
300.000017
300.0000135
300.0000158
300.0000148
300.0000078
300.0000016
299.9999973
299.9999962
300.0000204
300.0000169
300.0000187
300.0000163
300.000009
300.0000021
299.9999979
299.9999963
300.0000208
300.0000181
300.0000191
300.000016
300.0000089
300.0000029
299.9999979
299.9999952
300.0000192
300.0000172
300.0000183
300.0000156
300.0000096
300.0000048
300.0000009
299.9999969
300.000018
300.0000163
300.0000178
300.0000159
300.0000114
300.0000073
300.0000031
299.999998
300.0000152
300.0000165
300.0000189
300.0000174
300.0000129
300.0000071
300.000002
299.9999967
300.0000143
300.0000242
300.0000314
300.0000297
300.0000209
300.0000121
300.0000044
299.9999932
299.9999997
300.0000237
300.0000206
300.0000196
300.0000102
299.9999943
299.9999787
299.9999683
299.9999663
300.0000275
300.0000231
300.0000226
300.0000145
299.9999981
299.9999827
299.9999723
299.9999695
300.0000286
300.0000283
300.0000304
300.0000248
300.0000094
299.9999926
299.9999825
299.9999778
300.0000331
300.000036
300.0000396
300.0000351
300.0000216
300.0000091
299.9999989
299.9999908
300.0000406
300.0000428
300.0000454
300.0000405
300.0000285
300.0000178
300.0000074
299.9999976
300.0000479
300.0000472
300.0000453
300.0000378
300.0000268
300.0000159
300.0000039
299.999991
300.0000497
300.0000481
300.0000404
300.0000277
300.0000155
300.0000016
299.9999863
299.9999738
300.0000485
300.0000543
300.0000446
300.0000241
300.0000063
299.9999892
299.9999729
299.9999601
299.999958
300.000038
300.0000399
300.000041
300.0000368
300.0000089
299.9999512
299.9998967
299.9998644
299.9998613
300.0000183
300.0000323
300.0000398
300.0000398
300.0000181
299.9999685
299.9999194
299.9998892
299.9998839
300.0000375
300.0000553
300.0000647
300.0000546
300.0000225
299.999986
299.9999539
299.9999419
300.0000617
300.0000882
300.0001054
300.0001029
300.000078
300.0000463
300.0000165
299.9999969
300.0001005
300.0001253
300.0001385
300.0001338
300.0001095
300.0000767
300.0000418
300.0000142
300.000137
300.0001482
300.00014
300.0001205
300.0000935
300.0000599
300.000024
299.999998
300.0001553
300.0001496
300.0001118
300.0000683
300.000033
300.0000014
299.99997
299.9999542
300.0001478
300.0001438
300.00009
300.0000263
299.9999684
299.9999294
299.9999067
299.9999081
299.9998997
300.0000804
300.0000773
300.0000939
300.0000906
300.000026
299.9999163
299.9997996
299.9997441
299.999759
300.0000154
300.0000465
300.0000847
300.0000954
300.0000475
299.9999605
299.9998573
299.9998052
299.9998121
300.0000623
300.0001329
300.0001693
300.0001498
300.0000804
299.9999983
299.999947
299.9999339
300.0001375
300.0002331
300.0002889
300.0002863
300.0002273
300.0001453
300.0000746
300.0000324
300.0002599
300.0003462
300.0003838
300.0003666
300.0002996
300.0002116
300.0001321
300.0000759
300.0003783
300.0004195
300.0003935
300.0003301
300.0002468
300.0001589
300.0000844
300.0000365
300.0004441
300.0004298
300.0003195
300.0001921
300.0000902
300.0000144
299.9999688
299.9999552
300.0004229
300.0003936
300.0002371
300.000067
299.9999488
299.9998786
299.9998558
299.9998846
299.9998862
300.000161
300.0001668
300.0002137
300.0002083
300.0000887
299.9999179
299.9997606
299.9996954
299.9997355
300.000027
300.0000888
300.0001792
300.0002056
300.0001247
299.9999761
299.9998389
299.9997761
299.9998042
300.0001038
300.0002383
300.0003056
300.0002724
300.0001576
300.0000284
299.9999566
299.9999552
300.0002147
300.0003811
300.0004693
300.0004525
300.0003477
300.0002183
300.0001348
300.0001099
300.0004067
300.0005466
300.0005964
300.000551
300.0004307
300.0002948
300.0002035
300.0001667
300.0005923
300.0006563
300.0006083
300.0004905
300.0003428
300.0002122
300.0001341
300.0001062
300.0007002
300.0006781
300.0005069
300.000294
300.0001202
300.0000153
299.9999719
299.9999758
300.0006696
300.0006076
300.0003667
300.0001029
299.9999289
299.9998425
299.9998305
299.9998888
299.9999039
300.0003072
300.0002485
300.0002785
300.0003439
300.0003304
300.0001793
299.999951
299.9997665
299.9997018
299.9997693
300.0000901
300.0000424
300.0001352
300.0002589
300.0002959
300.0001998
300.0000157
299.9998467
299.9997853
299.9998461
299.9999655
299.999956
300.0001153
300.0002937
300.0003788
300.0003344
300.0001931
300.0000453
299.9999834
300.0000282
299.9999855
300.0000305
300.0002357
300.0004358
300.0005371
300.0005081
300.0003783
300.0002328
300.000162
300.0001874
300.0001289
300.0002425
300.0004569
300.0006123
300.000663
300.0005994
300.0004534
300.0003032
300.0002246
300.0002332
300.0003174
300.0004778
300.0006624
300.0007267
300.0006673
300.0005229
300.0003491
300.0002102
300.0001476
300.0001622
300.0004578
300.0006303
300.00078
300.0007405
300.0005456
300.0003004
300.0001035
299.9999948
299.999973
300.0000183
300.0004814
300.0006346
300.0007444
300.0006494
300.0003792
300.0000904
299.9998904
299.9998053
299.9998282
299.9999175
299.9999566
300.0003599
300.0003073
300.0003614
300.0004322
300.0004081
300.0002458
300.0000058
299.9998067
299.9997503
299.9998653
300.0000841
300.0000309
300.0001463
300.00029
300.0003285
300.0002268
300.0000362
299.9998677
299.9998219
299.9999375
299.9999387
299.9999075
300.0000916
300.000293
300.0003828
300.0003324
300.000184
300.0000401
300.0000008
300.0001032
299.9999716
299.9999976
300.0002062
300.0004198
300.0005223
300.0004857
300.0003465
300.0002052
300.0001575
300.000234
300.0001358
300.0002278
300.0004278
300.0005853
300.0006321
300.0005583
300.0004016
300.0002587
300.0002106
300.0002662
300.000345
300.0004703
300.0006272
300.0006838
300.0006194
300.0004658
300.000282
300.0001573
300.0001383
300.0002016
300.000504
300.000628
300.0007316
300.0006752
300.0004777
300.0002272
300.0000208
299.9999408
299.9999788
300.0000755
300.0005391
300.0006346
300.0006897
300.0005696
300.0002992
300.000009
299.9998101
299.9997788
299.9998468
299.9999838
300.000036
300.0003849
300.0003352
300.000393
300.0004589
300.0004299
300.0002737
300.0000437
299.9998586
299.999815
299.9999467
300.000034
299.9999842
300.0001271
300.0002782
300.0003138
300.0002122
300.0000337
299.9998882
299.999864
300.0000054
299.9998418
299.9997929
299.9999983
300.0002335
300.0003255
300.0002651
300.0001207
300.0000138
300.000011
300.0001436
299.9998913
299.9998742
300.0000749
300.0003049
300.0004008
300.0003511
300.0002205
300.0001295
300.0001385
300.000249
300.0000902
300.0001207
300.0002703
300.0004191
300.0004541
300.0003727
300.0002395
300.0001639
300.0001835
300.0002773
300.0003186
300.0003664
300.0004354
300.0004609
300.000395
300.0002568
300.0001243
300.0000852
300.0001377
300.0002416
300.0004931
300.0005252
300.0004991
300.0003934
300.0002144
300.0000168
299.9999019
299.9999195
300.0000128
300.0001655
300.0005419
300.0005424
300.000449
300.0002655
300.0000264
299.9998159
299.9997362
299.9997908
299.9999165
300.000115
300.0001892
300.0004158
300.0003496
300.0003922
300.0004491
300.0004235
300.0002934
300.0000965
299.9999455
299.9999246
300.0000475
300.0000064
299.9999498
300.0000739
300.0002159
300.00025
300.0001766
300.0000408
299.9999339
299.9999372
300.0000795
299.9997503
299.9997006
299.9998859
300.000103
300.0001928
300.0001622
300.0000773
300.0000166
300.0000385
300.000175
299.9997689
299.9997397
299.9999161
300.0001243
300.0002139
300.000194
300.0001345
300.0001068
300.0001432
300.000258
299.999976
299.9999666
300.0000731
300.0001956
300.00023
300.0001908
300.0001412
300.0001369
300.0001885
300.0002922
300.0002464
300.000225
300.0002164
300.0002044
300.0001527
300.0000815
300.0000478
300.0000817
300.0001688
300.0002979
300.0004748
300.0004129
300.000267
300.0001071
299.9999595
299.9998613
299.9998612
299.9999489
300.0001112
300.0003043
300.0005522
300.0004623
300.0002321
299.9999813
299.9997798
299.9996881
299.9997326
299.9998659
300.0000908
300.000332
300.0004437
300.0004698
300.0003711
300.000387
300.0004288
300.0004251
300.0003385
300.0002139
300.0001348
300.0001294
300.0001963
300.0000214
299.9999533
300.0000523
300.0001702
300.0002186
300.0001836
300.0000969
300.0000555
300.0000974
300.0001947
299.999735
299.9996814
299.99984
300.00003
300.0001272
300.0001382
300.0000969
300.0000781
300.0001283
300.0002363
299.9997194
299.9996919
299.9998421
300.0000275
300.0001258
300.0001489
300.0001365
300.0001413
300.0001948
300.000287
299.9999075
299.9998959
299.9999763
300.0000822
300.0001318
300.0001408
300.0001411
300.0001714
300.000243
300.0003327
300.0002127
300.0001734
300.000123
300.0000867
300.0000535
300.0000382
300.0000579
300.0001399
300.0002723
300.000398
300.0004908
300.0003962
300.000187
299.999984
299.9998538
299.999825
299.9998902
300.0000678
300.0003118
300.0004962
300.0006139
300.0004703
300.0001747
299.9998732
299.9996901
299.9996724
299.9997892
300.0000634
300.0003784
300.0006025
300.000731
300.0005846
300.000425
300.0003999
300.0004345
300.0004532
300.0004515
300.0004334
300.0003958
300.0003573
300.0003593
300.000107
300.0000045
300.0000676
300.000173
300.000234
300.0002521
300.0002762
300.0003074
300.000319
300.0003405
299.9997841
299.9997174
299.9998489
300.0000243
300.00013
300.0001782
300.0002188
300.0002823
300.0003269
300.0003509
299.9997384
299.999707
299.9998395
300.0000135
300.0001227
300.0001798
300.0002323
300.0003066
300.0003588
300.0003751
299.999907
299.9998948
299.9999645
300.0000654
300.0001305
300.0001735
300.0002371
300.0003386
300.0004134
300.0004398
300.0002205
300.0001822
300.0001206
300.0000745
300.0000545
300.0000769
300.0001768
300.000343
300.0004943
300.0005699
300.0005548
300.0004384
300.0001983
299.999975
299.9998531
299.9998692
300.0000448
300.0003271
300.0005817
300.0007233
300.0007323
300.000553
300.0002031
299.999877
299.9997022
299.9997352
299.9999861
300.0003605
300.0006871
300.0008553
300.0009463
300.0007235
300.0005164
300.0004478
300.0004725
300.0005374
300.0006121
300.0006376
300.0005968
300.0005139
300.0004816
300.0003308
300.0001524
300.0001439
300.0002218
300.0003221
300.0004475
300.0005394
300.0005573
300.0005089
300.0004838
299.9999875
299.9998666
299.9999304
300.0000723
300.0002079
300.0003619
300.0005123
300.0005743
300.000559
300.0005188
299.999864
299.9998065
299.999898
300.0000525
300.0001875
300.0003389
300.0005087
300.0006077
300.0006229
300.0005741
299.9999632
299.9999482
300.0000041
300.0000983
300.0001889
300.0003105
300.000477
300.0006178
300.0006784
300.000666
300.0002601
300.000243
300.0001678
300.0001092
300.0001078
300.0001909
300.0003704
300.0005967
300.0007564
300.0008058
300.0006217
300.0005361
300.0002673
300.0000159
299.9999047
299.9999778
300.0002281
300.0005807
300.000851
300.0009519
300.0008098
300.0006687
300.0003013
299.999943
299.999783
299.9998805
300.0002078
300.000635
300.0009362
300.0010453
300.0010491
300.0010059
300.0010046
300.0008838
300.0007109
300.0006046
300.0005989
300.0006587
300.0007198
300.0007262
300.0006461
300.0005508
300.0005267
300.0008879
300.0008564
300.0006958
300.0004966
300.0003846
300.0004004
300.0005014
300.0006164
300.0006668
300.000624
300.0005492
300.000534
300.000746
300.0006557
300.000449
300.0002657
300.000195
300.0002515
300.0003968
300.0005696
300.0006692
300.0006696
300.0006136
300.000594
300.0005681
300.0004443
300.0002464
300.000122
300.0001144
300.0002064
300.0003766
300.0005857
300.0007319
300.0007717
300.0007388
300.0006983
300.0004056
300.0002852
300.0001732
300.0001381
300.0001558
300.0002303
300.0003722
300.0005716
300.0007535
300.0008508
300.000868
300.000835
300.0004115
300.0003418
300.000329
300.0003384
300.0002925
300.0002297
300.0002712
300.0004421
300.000683
300.0008956
300.0009823
300.0009816
300.0005997
300.000603
300.0006471
300.0006203
300.0004224
300.0001462
300.0000599
300.0002342
300.0005739
300.0009111
300.0010678
300.0010893
300.0007921
300.0008171
300.0008399
300.0007574
300.0004809
300.0001325
300.0000098
300.0001945
300.0005575
300.0009134
300.0010853
300.0011142
300.0010366
299.9999988
299.9999983
299.9999977
299.9999975
299.9999968
299.9999967
299.9999999
299.9999995
299.9999992
299.999998
299.9999964
299.9999965
299.9999996
299.9999996
299.9999992
299.9999977
299.9999965
299.999997
299.9999999
300.0000001
300
299.9999989
299.9999979
299.9999983
300.0000002
300.0000008
300.0000009
300.0000002
299.9999998
299.9999996
300.0000004
300.0000014
300.0000016
300.0000013
300.0000011
300.0000001
299.999997
299.9999965
299.9999975
299.999997
299.9999951
299.9999957
299.9999984
299.9999981
299.999998
299.999996
299.9999943
299.9999965
299.9999978
299.9999977
299.9999968
299.9999958
299.9999953
299.9999975
299.9999979
299.9999985
299.9999981
299.9999979
299.9999984
299.9999997
299.9999981
299.9999992
299.9999994
299.9999998
300.0000013
300.0000013
299.9999979
299.9999993
299.9999999
300.0000007
300.0000024
300.000001
299.9999914
299.999997
300.0000015
300.0000025
300.0000014
300.0000009
299.9999882
299.9999957
300.0000015
300.0000024
300.000003
300.0000046
299.9999843
299.9999907
299.9999984
300.0000004
300.0000024
300.0000051
299.9999814
299.9999875
299.9999972
300.0000009
300.0000042
300.0000063
299.9999774
299.9999826
299.9999924
300.0000005
300.0000057
300.0000064
299.9999723
299.9999776
299.9999858
299.9999974
300.0000041
300.0000045
299.9999932
300.0000047
300.0000182
300.0000257
300.0000258
300.0000146
299.99998
300.0000018
300.0000217
300.0000348
300.0000423
300.0000304
299.9999648
299.9999922
300.0000131
300.0000268
300.0000363
300.000032
299.9999491
299.9999833
300.0000061
300.0000201
300.0000311
300.0000304
299.9999242
299.999964
299.9999947
300.0000128
300.0000263
300.0000275
299.9998964
299.9999381
299.999979
300.0000042
300.0000211
300.0000253
300.0000057
300.0000261
300.0000476
300.0000563
300.0000508
300.0000249
299.9999883
300.0000287
300.0000794
300.0001077
300.000107
300.0000555
299.9999664
300.0000136
300.000066
300.0001032
300.0001152
300.0000662
299.9999438
299.9999978
300.0000467
300.0000845
300.0001077
300.0000706
299.9999026
299.9999706
300.000023
300.0000639
300.0000963
300.0000717
299.9998523
299.9999356
299.9999981
300.0000486
300.0000902
300.0000729
300.0000388
300.0000601
300.0000744
300.0000758
300.0000647
300.000031
300.0000298
300.0000948
300.0001508
300.0001694
300.0001505
300.0000714
300.0000013
300.0000847
300.0001674
300.0002009
300.0001875
300.0000921
299.9999726
300.0000656
300.0001582
300.0002077
300.0002075
300.0001055
299.9999248
300.0000309
300.0001305
300.0001988
300.0002171
300.0001125
299.9998659
299.9999858
300.0000977
300.0001881
300.000224
300.0001168
300.0000916
300.0001021
300.0001021
300.0000946
300.0000808
300.0000391
300.0001405
300.0001956
300.0002206
300.0002153
300.000185
300.0000904
300.0001217
300.0002226
300.0002761
300.0002794
300.000241
300.0001176
300.0000952
300.0002316
300.0003117
300.0003274
300.0002842
300.0001329
300.0000435
300.0002103
300.0003196
300.0003546
300.0003122
300.0001386
299.9999716
300.0001659
300.0003082
300.000365
300.000328
300.0001412
300.0001436
300.0001456
300.0001396
300.0001302
300.0001135
300.0000523
300.0002873
300.0003135
300.0003079
300.0002842
300.0002505
300.0001243
300.0003051
300.0003727
300.0003876
300.000363
300.0003159
300.0001559
300.0002832
300.0003994
300.0004444
300.0004251
300.0003557
300.0001633
300.00022
300.0003856
300.0004658
300.0004612
300.0003731
300.0001578
300.0001335
300.0003462
300.0004631
300.0004754
300.0003793
300.0001522
300.0001726
300.0001728
300.0001724
300.000169
300.0001449
300.0000602
300.0004028
300.0004143
300.0004084
300.0003927
300.0003451
300.0001542
300.0004617
300.0005047
300.0005086
300.0004864
300.0004257
300.0001923
300.0004311
300.0005202
300.0005489
300.0005249
300.0004417
300.0001923
300.0003385
300.0004854
300.0005482
300.0005285
300.0004232
300.0001747
300.0002327
300.0004341
300.0005318
300.00052
300.0004003
300.000159
300.0001726
300.0001728
300.0001769
300.0001775
300.000148
300.0000568
300.0004476
300.0004539
300.0004621
300.0004591
300.0003878
300.0001566
300.0005539
300.0005804
300.0005947
300.0005865
300.0004958
300.0002015
300.0005262
300.0005886
300.0006208
300.0006101
300.0005057
300.0002033
300.0004176
300.0005336
300.0005925
300.0005803
300.0004648
300.0001843
300.0002998
300.0004692
300.0005538
300.0005377
300.000415
300.000165
300.0001518
300.0001523
300.0001597
300.0001614
300.0001296
300.0000459
300.0004389
300.0004439
300.0004589
300.0004582
300.0003737
300.0001387
300.0005757
300.0005922
300.0006158
300.0006127
300.0004991
300.0001895
300.0005734
300.0006151
300.0006556
300.0006504
300.0005206
300.0001981
300.0004851
300.0005661
300.0006269
300.0006193
300.0004843
300.000184
300.0003771
300.0004987
300.0005729
300.0005589
300.0004322
300.0001691
300.0001341
300.0001324
300.0001368
300.0001378
300.0001117
300.0000415
300.0003938
300.000395
300.0004129
300.0004122
300.0003284
300.0001264
300.0005581
300.0005677
300.0005951
300.0005896
300.0004664
300.0001776
300.0005898
300.0006189
300.0006591
300.0006492
300.0005067
300.0001901
300.0005453
300.0006031
300.0006547
300.0006343
300.0004836
300.0001803
300.0004707
300.0005571
300.0006133
300.0005876
300.0004465
300.0001709
300.0001389
300.0001344
300.0001361
300.0001385
300.0001178
300.0000477
300.0003773
300.0003726
300.0003847
300.0003892
300.0003259
300.0001362
300.000535
300.0005377
300.000561
300.0005585
300.0004543
300.0001838
300.0005947
300.0006172
300.0006499
300.0006335
300.0004962
300.0001923
300.000586
300.0006319
300.0006665
300.0006333
300.00048
300.0001802
300.0005467
300.0006111
300.0006447
300.000604
300.0004532
300.0001707
300.0001654
300.0001566
300.0001562
300.0001603
300.0001396
300.0000558
300.000401
300.0003912
300.0004016
300.0004138
300.0003639
300.0001546
300.0005426
300.0005421
300.0005643
300.0005687
300.0004804
300.0002006
300.0006039
300.000621
300.0006487
300.0006346
300.0005079
300.0002017
300.000606
300.0006423
300.0006654
300.0006305
300.0004831
300.0001819
300.0005818
300.00063
300.0006482
300.0006032
300.0004526
300.0001671
300.0000007
300.0000016
300.0000015
300.0000011
300.0000009
299.9999996
300.0000003
300.0000009
300.0000003
299.9999997
299.9999994
299.9999982
299.9999999
299.9999998
299.9999991
299.9999979
299.9999967
299.9999964
299.9999995
299.9999989
299.9999973
299.999995
299.9999937
299.9999945
299.9999996
299.9999982
299.9999955
299.9999927
299.9999915
299.9999932
300.0000002
299.9999982
299.999995