/*--------------------------------*- C++ -*----------------------------------*\
  =========                 |
  \\      /  F ield         | OpenFOAM: The Open Source CFD Toolbox
   \\    /   O peration     | Website:  https://openfoam.org
    \\  /    A nd           | Version:  7
     \\/     M anipulation  |
\*---------------------------------------------------------------------------*/
FoamFile
{
    version     2.0;
    format      ascii;
    class       volScalarField;
    location    "0.00236";
    object      T;
}
// * * * * * * * * * * * * * * * * * * * * * * * * * * * * * * * * * * * * * //

dimensions      [0 0 0 1 0 0 0];

internalField   nonuniform List<scalar> 
5000
(
285.38484
285.38484
285.38484
285.38484
285.38484
285.38484
285.38484
285.38484
285.38484
285.38484
285.38484
285.38484
285.38484
285.38484
285.38484
285.38484
285.38484
285.38484
285.38484
285.38484
285.38484
285.38484
285.38484
285.38484
285.38484
285.38484
285.38484
285.38484
285.38484
285.38484
285.38484
285.38484
285.38484
285.38484
285.38484
285.38483
285.38483
285.38483
285.38483
285.38483
285.38483
285.38483
285.38483
285.38483
285.38483
285.38483
285.38483
285.38483
285.38483
285.38483
285.38483
285.38483
285.38483
285.38484
285.38484
285.38484
285.38484
285.38484
285.38484
285.38485
285.38485
285.38485
285.38486
285.38486
285.38486
285.38486
285.38487
285.38488
285.3849
285.38492
285.38493
285.38496
285.38501
285.3851
285.38531
285.38578
285.38677
285.38826
285.39032
285.39303
285.39653
285.40098
285.40658
285.41356
285.42212
285.43243
285.44454
285.45837
285.47371
285.49022
285.50746
285.52492
285.54212
285.5586
285.57397
285.58796
285.60038
285.61116
285.62032
285.62794
285.63417
285.63917
285.64312
285.64619
285.64854
285.65032
285.65165
285.65263
285.65335
285.65388
285.65426
285.65453
285.65472
285.65486
285.65495
285.65502
285.65507
285.6551
285.65513
285.65514
285.65516
285.65516
285.65517
285.65517
285.65518
285.65518
285.65518
285.65518
285.65518
285.65519
285.65519
285.65519
285.65519
285.65519
285.65519
285.65519
285.65519
285.65519
285.65519
285.65519
285.65519
285.65519
285.6552
285.6552
285.6552
285.6552
285.6552
285.6552
285.6552
285.6552
285.6552
285.6552
285.65521
285.65521
285.65521
285.65521
285.65521
285.65521
285.65521
285.65521
285.65521
285.65521
285.65521
285.65521
285.65521
285.65521
285.65522
285.65522
285.65522
285.65522
285.65522
285.65522
285.65522
285.65522
285.65522
285.65522
285.65522
285.65522
285.65522
285.65523
285.65523
285.65523
285.65523
285.65523
285.65523
285.65523
285.65523
285.65523
285.65523
285.65523
285.65523
285.65523
285.65524
285.65524
285.65524
285.65524
285.65524
285.65524
285.65524
285.65524
285.65524
285.65524
285.65524
285.65524
285.65525
285.65525
285.65525
285.65525
285.65525
285.65525
285.65525
285.65525
285.65525
285.65525
285.65525
285.65525
285.65525
285.65526
285.65526
285.65526
285.65526
285.65526
285.65526
285.65526
285.65526
285.65526
285.65526
285.65526
285.65526
285.65527
285.65527
285.65527
285.65527
285.65527
285.65527
285.65527
285.65527
285.65527
285.65527
285.65527
285.65527
285.65528
285.65528
285.65528
285.65528
285.65528
285.65528
285.65528
285.65528
285.65528
285.65528
285.65528
285.65528
285.65528
285.65529
285.65529
285.65529
285.65529
285.65529
285.65529
285.65529
285.65529
285.65529
285.65529
285.65529
285.65529
285.65529
285.6553
285.6553
285.6553
285.6553
285.6553
285.6553
285.6553
285.6553
285.6553
285.6553
285.6553
285.65531
285.65531
285.65531
285.65531
285.65531
285.65531
285.65531
285.65531
285.65531
285.65531
285.65531
285.65531
285.65532
285.65532
285.65532
285.65532
285.65532
285.65532
285.65532
285.65532
285.65532
285.65532
285.65532
285.65532
285.65532
285.65533
285.65533
285.65533
285.65533
285.65533
285.65533
285.65533
285.65533
285.65533
285.65533
285.65533
285.65534
285.65534
285.65534
285.65534
285.65534
285.65534
285.65534
285.65534
285.65534
285.65534
285.65534
285.65534
285.65535
285.65535
285.65535
285.65535
285.65535
285.65535
285.65535
285.65535
285.65535
285.65535
285.65535
285.65536
285.65536
285.65536
285.65536
285.65536
285.65536
285.65536
285.65536
285.65536
285.65536
285.65536
285.65536
285.65536
285.65537
285.65537
285.65537
285.65537
285.65537
285.65537
285.65537
285.65537
285.65537
285.65537
285.65537
285.65538
285.65538
285.65538
285.65538
285.65538
285.65538
285.65538
285.65538
285.65538
285.65538
285.65538
285.65538
285.65539
285.65539
285.65539
285.65539
285.65539
285.65539
285.65539
285.65539
285.65539
285.65539
285.65539
285.6554
285.6554
285.6554
285.6554
285.6554
285.6554
285.6554
285.6554
285.6554
285.6554
285.6554
285.65541
285.65541
285.65541
285.65541
285.65541
285.65541
285.65541
285.65541
285.65541
285.65541
285.65541
285.65541
285.65542
285.65542
285.65542
285.65542
285.65542
285.65542
285.65542
285.65542
285.65542
285.65542
285.65542
285.65543
285.65543
285.65543
285.65543
285.65543
285.65543
285.65543
285.65543
285.65543
285.65543
285.65543
285.65543
285.65543
285.65544
285.65544
285.65544
285.65544
285.65544
285.65544
285.65544
285.65544
285.65544
285.65544
285.65545
285.65545
285.65545
285.65545
285.65545
285.65545
285.65545
285.65545
285.65545
285.65545
285.65545
285.65546
285.65546
285.65546
285.65546
285.65546
285.65546
285.65546
285.65546
285.65546
285.65546
285.65546
285.65547
285.65547
285.65547
285.65547
285.65547
285.65547
285.65547
285.65547
285.65547
285.65547
285.65547
285.65547
285.65547
285.65547
285.65547
285.65548
285.65548
285.65548
285.65548
285.65548
285.65548
285.65548
285.65548
285.65548
285.65549
285.65549
285.65549
285.65549
285.65549
285.65549
285.65549
285.65549
285.6555
285.6555
285.6555
285.6555
285.6555
285.6555
285.6555
285.6555
285.6555
285.6555
285.6555
285.6555
285.6555
285.6555
285.65551
285.65551
285.65551
285.65551
285.65551
285.65551
285.65551
285.65551
285.65551
285.65552
285.65552
285.65552
285.65552
285.65552
285.65552
285.65552
285.65552
285.65552
285.65552
285.65552
285.65552
285.65553
285.65553
285.65553
285.65553
285.65553
285.65553
285.65553
285.65553
285.65553
285.65553
285.65554
285.65554
285.65554
285.65554
285.65554
285.65554
285.65554
285.65554
285.65554
285.65554
285.65555
285.65555
285.65555
285.65555
285.65555
285.65555
285.65555
285.65555
285.65555
285.65555
285.65555
285.65555
285.65555
285.65556
285.65556
285.65556
285.65556
285.65556
285.65556
285.65556
285.65556
285.65556
285.65557
285.65557
285.65557
285.65557
285.65557
285.65557
285.65557
285.65557
285.65557
285.65557
285.65558
285.65558
285.65558
285.65558
285.65558
285.65558
285.65558
285.65558
285.65558
285.65558
285.65558
285.65559
285.65559
285.65559
285.65559
285.65559
285.65559
285.65559
285.65559
285.65559
285.6556
285.6556
285.6556
285.6556
285.6556
285.6556
285.6556
285.6556
285.6556
285.6556
285.6556
285.6556
285.65561
285.65561
285.65561
285.65561
285.65561
285.65561
285.65561
285.65561
285.65561
285.65561
285.65562
285.65562
285.65562
285.65562
285.65562
285.65562
285.65562
285.65562
285.65562
285.65562
285.65563
285.65563
285.65563
285.65563
285.65563
285.65563
285.65563
285.65563
285.65563
285.65563
285.65564
285.65564
285.65564
285.65564
285.65564
285.65564
285.65564
285.65564
285.65564
285.65564
285.65565
285.65565
285.65565
285.65565
285.65565
285.65565
285.65565
285.65565
285.65565
285.65565
285.65566
285.65566
285.65566
285.65566
285.65566
285.65566
285.65566
285.65566
285.65566
285.65566
285.65567
285.65567
285.65567
285.65567
285.65567
285.65567
285.65567
285.65567
285.65567
285.65568
285.65568
285.65568
285.65568
285.65568
285.65568
285.65568
285.65568
285.65568
285.65568
285.65568
285.65569
285.65569
285.65569
285.65569
285.65569
285.65569
285.65569
285.65569
285.65569
285.6557
285.6557
285.6557
285.6557
285.6557
285.6557
285.6557
285.6557
285.6557
285.6557
285.6557
285.65571
285.65571
285.65571
285.65571
285.65571
285.65571
285.65571
285.65571
285.65571
285.65572
285.65572
285.65572
285.65572
285.65572
285.65572
285.65572
285.65572
285.65572
285.65572
285.65573
285.65573
285.65573
285.65573
285.65573
285.65573
285.65573
285.65573
285.65573
285.65573
285.65573
285.65574
285.65574
285.65574
285.65574
285.65574
285.65574
285.65574
285.65574
285.65574
285.65575
285.65575
285.65575
285.65575
285.65575
285.65575
285.65575
285.65575
285.65575
285.65575
285.65576
285.65576
285.65576
285.65576
285.65576
285.65576
285.65576
285.65576
285.65577
285.65577
285.65577
285.65577
285.65577
285.65577
285.65577
285.65577
285.65577
285.65577
285.65578
285.65578
285.65578
285.65578
285.65578
285.65578
285.65578
285.65578
285.65578
285.65578
285.65579
285.65579
285.65579
285.65579
285.65579
285.65579
285.65579
285.65579
285.65579
285.65579
285.6558
285.6558
285.6558
285.6558
285.6558
285.6558
285.6558
285.6558
285.6558
285.6558
285.65581
285.65581
285.65581
285.65581
285.65581
285.65581
285.65581
285.65581
285.65581
285.65582
285.65582
285.65582
285.65582
285.65582
285.65582
285.65582
285.65582
285.65582
285.65583
285.65583
285.65583
285.65583
285.65583
285.65583
285.65583
285.65583
285.65583
285.65583
285.65583
285.65584
285.65584
285.65584
285.65584
285.65584
285.65584
285.65584
285.65584
285.65584
285.65585
285.65585
285.65585
285.65585
285.65585
285.65585
285.65585
285.65585
285.65585
285.65586
285.65586
285.65586
285.65586
285.65586
285.65586
285.65586
285.65586
285.65586
285.65586
285.65587
285.65587
285.65587
285.65587
285.65587
285.65587
285.65587
285.65587
285.65587
285.65587
285.65588
285.65588
285.65588
285.65588
285.65588
285.65588
285.65588
285.65588
285.65588
285.65588
285.65589
285.65589
285.65589
285.65589
285.65589
285.65589
285.65589
285.65589
285.6559
285.6559
285.6559
285.6559
285.6559
285.6559
285.6559
285.6559
285.6559
285.6559
285.65591
285.65591
285.65591
285.65591
285.65591
285.65591
285.65591
285.65591
285.65591
285.65591
285.65592
285.65592
285.65592
285.65592
285.65592
285.65592
285.65592
285.65592
285.65592
285.65593
285.65593
285.65593
285.65593
285.65593
285.65593
285.65593
285.65593
285.65593
285.65593
285.65593
285.65594
285.65594
285.65594
285.65594
285.65594
285.65594
285.65594
285.65594
285.65595
285.65595
285.65595
285.65595
285.65595
285.65595
285.65595
285.65595
285.65595
285.65595
285.65596
285.65596
285.65596
285.65596
285.65596
285.65596
285.65596
285.65596
285.65596
285.65596
285.65597
285.65597
285.65597
285.65597
285.65597
285.65597
285.65597
285.65597
285.65597
285.65597
285.65598
285.65598
285.65598
285.65598
285.65598
285.65598
285.65598
285.65598
285.65598
285.65598
285.65599
285.65599
285.65599
285.65599
285.65599
285.65599
285.656
285.656
285.656
285.656
285.656
285.656
285.656
285.656
285.656
285.656
285.656
285.656
285.656
285.65601
285.65601
285.65601
285.65601
285.65601
285.65601
285.65601
285.65601
285.65601
285.65601
285.65602
285.65602
285.65602
285.65602
285.65602
285.65602
285.65602
285.65602
285.65602
285.65603
285.65603
285.65603
285.65603
285.65603
285.65603
285.65603
285.65603
285.65603
285.65603
285.65604
285.65604
285.65604
285.65604
285.65604
285.65604
285.65604
285.65604
285.65604
285.65604
285.65604
285.65605
285.65605
285.65605
285.65605
285.65605
285.65605
285.65605
285.65605
285.65605
285.65605
285.65605
285.65605
285.65605
285.65605
285.65605
285.65606
285.65606
285.65606
285.65606
285.65606
285.65606
285.65606
285.65606
285.65606
285.65606
285.65606
285.65606
285.65606
285.65606
285.65606
285.65606
285.65607
285.65607
285.65607
285.65607
285.65607
285.65607
285.65607
285.65607
285.65607
285.65607
285.65607
285.65607
285.65607
285.65607
285.65607
285.65607
285.65607
285.65607
285.65607
285.65606
285.65606
285.65606
285.65606
285.65606
285.65606
285.65606
285.65606
285.65606
285.65606
285.65606
285.65606
285.65606
285.65605
285.65605
285.65605
285.65605
285.65605
285.65605
285.65605
285.65604
285.65604
285.65604
285.65604
285.65604
285.65603
285.65603
285.65603
285.65602
285.65602
285.65602
285.65601
285.65601
285.65601
285.656
285.656
285.656
285.65599
285.65599
285.65598
285.65598
285.65597
285.65597
285.65596
285.65596
285.65595
285.65594
285.65594
285.65593
285.65592
285.65592
285.65591
285.6559
285.6559
285.65589
285.65588
285.65587
285.65586
285.65585
285.65584
285.65583
285.65582
285.65581
285.6558
285.65579
285.65578
285.65577
285.65575
285.65574
285.65573
285.65571
285.6557
285.65569
285.65567
285.65565
285.65564
285.65562
285.65561
285.65559
285.65557
285.65555
285.65553
285.65551
285.65549
285.65547
285.65545
285.65543
285.6554
285.65538
285.65536
285.65533
285.65531
285.65528
285.65526
285.65523
285.6552
285.65517
285.65514
285.65511
285.65508
285.65505
285.65502
285.65498
285.65495
285.65491
285.65488
285.65484
285.6548
285.65476
285.65472
285.65468
285.65463
285.65459
285.65455
285.6545
285.65445
285.6544
285.65435
285.6543
285.65425
285.6542
285.65415
285.65409
285.65403
285.65398
285.65392
285.65386
285.65379
285.65373
285.65367
285.6536
285.65353
285.65346
285.65339
285.65332
285.65325
285.65317
285.65309
285.65301
285.65293
285.65285
285.65277
285.65268
285.6526
285.65251
285.65242
285.65232
285.65223
285.65213
285.65203
285.65193
285.65183
285.65173
285.65162
285.65151
285.6514
285.65129
285.65117
285.65106
285.65094
285.65082
285.65069
285.65057
285.65044
285.65031
285.65018
285.65004
285.64991
285.64977
285.64963
285.64948
285.64933
285.64918
285.64903
285.64888
285.64872
285.64856
285.6484
285.64823
285.64807
285.6479
285.64772
285.64755
285.64737
285.64719
285.647
285.64682
285.64663
285.64643
285.64624
285.64604
285.64584
285.64563
285.64543
285.64522
285.645
285.64479
285.64457
285.64434
285.64412
285.64389
285.64366
285.64342
285.64318
285.64294
285.6427
285.64245
285.6422
285.64194
285.64168
285.64142
285.64116
285.64089
285.64062
285.64034
285.64006
285.63978
285.6395
285.63921
285.63892
285.63862
285.63832
285.63802
285.63771
285.6374
285.63709
285.63677
285.63645
285.63613
285.6358
285.63547
285.63514
285.6348
285.63446
285.63411
285.63376
285.63341
285.63305
285.63269
285.63233
285.63196
285.63159
285.63122
285.63084
285.63046
285.63007
285.62968
285.62929
285.62889
285.62849
285.62809
285.62768
285.62727
285.62685
285.62643
285.62601
285.62559
285.62516
285.62472
285.62429
285.62385
285.6234
285.62295
285.6225
285.62205
285.62159
285.62112
285.62066
285.62019
285.61971
285.61924
285.61876
285.61827
285.61779
285.6173
285.6168
285.61631
285.6158
285.6153
285.61479
285.61428
285.61377
285.61325
285.61273
285.6122
285.61167
285.61114
285.6106
285.61007
285.60952
285.60898
285.60843
285.60788
285.60733
285.60677
285.60621
285.60564
285.60508
285.60451
285.60394
285.60336
285.60278
285.6022
285.60161
285.60103
285.60044
285.59984
285.59925
285.59865
285.59805
285.59744
285.59683
285.59622
285.59561
285.59499
285.59438
285.59376
285.59313
285.59251
285.59188
285.59125
285.59062
285.58998
285.58934
285.5887
285.58806
285.58742
285.58677
285.58612
285.58547
285.58482
285.58416
285.58351
285.58285
285.58219
285.58153
285.58086
285.58019
285.57953
285.57886
285.57818
285.57751
285.57683
285.57616
285.57548
285.5748
285.57412
285.57343
285.57275
285.57206
285.57138
285.57069
285.57
285.56931
285.56861
285.56792
285.56723
285.56653
285.56583
285.56514
285.56444
285.56374
285.56304
285.56234
285.56164
285.56093
285.56023
285.55952
285.55882
285.55811
285.55741
285.5567
285.55599
285.55529
285.55458
285.55387
285.55316
285.55245
285.55174
285.55103
285.55032
285.54961
285.5489
285.54819
285.54748
285.54677
285.54606
285.54535
285.54464
285.54393
285.54322
285.54251
285.5418
285.5411
285.54039
285.53968
285.53897
285.53826
285.53756
285.53685
285.53615
285.53544
285.53474
285.53403
285.53333
285.53263
285.53193
285.53123
285.53053
285.52983
285.52913
285.52844
285.52774
285.52705
285.52635
285.52566
285.52497
285.52428
285.52359
285.5229
285.52221
285.52153
285.52084
285.52016
285.51948
285.5188
285.51812
285.51744
285.51677
285.51609
285.51542
285.51475
285.51408
285.51341
285.51274
285.51208
285.51141
285.51075
285.51009
285.50944
285.50878
285.50813
285.50747
285.50682
285.50618
285.50553
285.50488
285.50424
285.5036
285.50296
285.50232
285.50169
285.50106
285.50043
285.4998
285.49917
285.49855
285.49792
285.4973
285.49669
285.49607
285.49546
285.49485
285.49424
285.49363
285.49303
285.49242
285.49182
285.49123
285.49063
285.49004
285.48945
285.48886
285.48827
285.48769
285.48711
285.48653
285.48595
285.48538
285.48481
285.48424
285.48367
285.48311
285.48255
285.48199
285.48143
285.48088
285.48033
285.47978
285.47923
285.47869
285.47815
285.47761
285.47707
285.47654
285.47601
285.47548
285.47495
285.47443
285.47391
285.47339
285.47287
285.47236
285.47185
285.47134
285.47084
285.47033
285.46983
285.46933
285.46884
285.46835
285.46786
285.46737
285.46688
285.4664
285.46592
285.46544
285.46497
285.46449
285.46402
285.46356
285.46309
285.46263
285.46217
285.46171
285.46126
285.46081
285.46036
285.45991
285.45947
285.45902
285.45859
285.45815
285.45771
285.45728
285.45685
285.45643
285.456
285.45558
285.45516
285.45474
285.45433
285.45392
285.45351
285.4531
285.45269
285.45229
285.45189
285.45149
285.4511
285.4507
285.45031
285.44993
285.44954
285.44916
285.44878
285.4484
285.44802
285.44765
285.44728
285.44691
285.44654
285.44617
285.44581
285.44545
285.44509
285.44474
285.44439
285.44404
285.44369
285.44334
285.443
285.44266
285.44232
285.44198
285.44164
285.44131
285.44098
285.44065
285.44032
285.44
285.43968
285.43936
285.43904
285.43872
285.43841
285.4381
285.43779
285.43748
285.43718
285.43687
285.43657
285.43627
285.43598
285.43568
285.43539
285.4351
285.43481
285.43452
285.43424
285.43396
285.43368
285.4334
285.43312
285.43285
285.43258
285.43231
285.43204
285.43177
285.43151
285.43124
285.43098
285.43073
285.43047
285.43021
285.42996
285.42971
285.42946
285.42921
285.42897
285.42873
285.42849
285.42825
285.42801
285.42777
285.42754
285.42731
285.42708
285.42685
285.42662
285.4264
285.42618
285.42596
285.42574
285.42552
285.42531
285.42509
285.42488
285.42467
285.42446
285.42426
285.42405
285.42385
285.42365
285.42345
285.42325
285.42306
285.42286
285.42267
285.42248
285.42229
285.4221
285.42192
285.42173
285.42155
285.42137
285.42119
285.42102
285.42084
285.42067
285.4205
285.42033
285.42016
285.41999
285.41983
285.41966
285.4195
285.41934
285.41918
285.41902
285.41887
285.41871
285.41856
285.41841
285.41826
285.41811
285.41797
285.41782
285.41768
285.41754
285.4174
285.41726
285.41712
285.41698
285.41685
285.41672
285.41659
285.41646
285.41633
285.4162
285.41608
285.41595
285.41583
285.41571
285.41559
285.41547
285.41536
285.41524
285.41513
285.41501
285.4149
285.41479
285.41468
285.41457
285.41447
285.41436
285.41426
285.41416
285.41406
285.41396
285.41386
285.41376
285.41367
285.41357
285.41348
285.41339
285.4133
285.41321
285.41312
285.41303
285.41295
285.41286
285.41278
285.4127
285.41261
285.41253
285.41246
285.41238
285.4123
285.41223
285.41215
285.41208
285.41201
285.41194
285.41187
285.4118
285.41173
285.41166
285.4116
285.41153
285.41147
285.4114
285.41134
285.41128
285.41122
285.41116
285.4111
285.41104
285.41099
285.41093
285.41088
285.41082
285.41077
285.41072
285.41067
285.41062
285.41057
285.41052
285.41047
285.41043
285.41038
285.41034
285.41029
285.41025
285.41021
285.41016
285.41012
285.41008
285.41004
285.41
285.40997
285.40993
285.40989
285.40986
285.40982
285.40979
285.40975
285.40972
285.40969
285.40965
285.40962
285.40959
285.40956
285.40953
285.4095
285.40947
285.40945
285.40942
285.40939
285.40937
285.40934
285.40932
285.40929
285.40927
285.40924
285.40922
285.4092
285.40918
285.40916
285.40914
285.40912
285.4091
285.40908
285.40906
285.40904
285.40902
285.409
285.40899
285.40897
285.40895
285.40894
285.40892
285.40891
285.40889
285.40888
285.40886
285.40885
285.40884
285.40882
285.40881
285.4088
285.40879
285.40878
285.40877
285.40876
285.40874
285.40874
285.40873
285.40872
285.40871
285.4087
285.40869
285.40868
285.40867
285.40867
285.40866
285.40865
285.40864
285.40864
285.40863
285.40863
285.40862
285.40861
285.40861
285.4086
285.4086
285.40859
285.40859
285.40858
285.40858
285.40857
285.40857
285.40857
285.40856
285.40856
285.40856
285.40856
285.40855
285.40855
285.40855
285.40855
285.40855
285.40854
285.40854
285.40854
285.40854
285.40854
285.40854
285.40854
285.40854
285.40854
285.40854
285.40854
285.40854
285.40854
285.40854
285.40854
285.40854
285.40854
285.40854
285.40854
285.40854
285.40854
285.40854
285.40854
285.40854
285.40854
285.40854
285.40854
285.40855
285.40855
285.40855
285.40855
285.40855
285.40855
285.40856
285.40856
285.40856
285.40856
285.40857
285.40857
285.40857
285.40857
285.40858
285.40858
285.40858
285.40858
285.40859
285.40859
285.40859
285.4086
285.4086
285.4086
285.4086
285.40861
285.40861
285.40861
285.40862
285.40862
285.40862
285.40863
285.40863
285.40864
285.40864
285.40864
285.40865
285.40865
285.40865
285.40866
285.40866
285.40866
285.40867
285.40867
285.40868
285.40868
285.40868
285.40869
285.40869
285.4087
285.4087
285.4087
285.40871
285.40871
285.40872
285.40872
285.40872
285.40873
285.40873
285.40874
285.40874
285.40875
285.40875
285.40876
285.40876
285.40877
285.40877
285.40877
285.40878
285.40878
285.40879
285.40879
285.4088
285.4088
285.40881
285.40881
285.40882
285.40882
285.40883
285.40883
285.40884
285.40884
285.40885
285.40885
285.40885
285.40886
285.40886
285.40887
285.40887
285.40888
285.40888
285.40889
285.40889
285.4089
285.4089
285.40891
285.40891
285.40892
285.40892
285.40893
285.40893
285.40894
285.40894
285.40895
285.40895
285.40896
285.40896
285.40897
285.40897
285.40898
285.40898
285.40899
285.40899
285.409
285.409
285.40901
285.40902
285.40902
285.40903
285.40903
285.40904
285.40904
285.40905
285.40905
285.40906
285.40906
285.40907
285.40907
285.40908
285.40908
285.40909
285.4091
285.4091
285.40911
285.40911
285.40912
285.40912
285.40913
285.40914
285.40914
285.40915
285.40915
285.40916
285.40916
285.40917
285.40917
285.40918
285.40918
285.40919
285.4092
285.4092
285.40921
285.40921
285.40922
285.40922
285.40923
285.40924
285.40924
285.40925
285.40925
285.40926
285.40927
285.40927
285.40928
285.40928
285.40929
285.40929
285.4093
285.40931
285.40931
285.40932
285.40932
285.40933
285.40934
285.40934
285.40935
285.40935
285.40936
285.40937
285.40937
285.40938
285.40939
285.40939
285.4094
285.4094
285.40941
285.40942
285.40942
285.40943
285.40944
285.40944
285.40945
285.40946
285.40946
285.40947
285.40947
285.40948
285.40949
285.4095
285.4095
285.40951
285.40951
285.40952
285.40953
285.40954
285.40954
285.40955
285.40955
285.40956
285.40957
285.40958
285.40958
285.40959
285.40959
285.4096
285.40961
285.40961
285.40962
285.40963
285.40964
285.40964
285.40965
285.40966
285.40966
285.40967
285.40968
285.40968
285.40969
285.4097
285.40971
285.40971
285.40972
285.40973
285.40973
285.40974
285.40975
285.40976
285.40976
285.40977
285.40978
285.40978
285.40979
285.4098
285.40981
285.40981
285.40982
285.40983
285.40984
285.40984
285.40985
285.40986
285.40987
285.40987
285.40988
285.40989
285.4099
285.4099
285.40991
285.40992
285.40993
285.40994
285.40994
285.40995
285.40996
285.40997
285.40998
285.40998
285.40999
285.41
285.41001
285.41002
285.41002
285.41003
285.41004
285.41005
285.41006
285.41007
285.41007
285.41008
285.41009
285.4101
285.41011
285.41012
285.41012
285.41013
285.41014
285.41015
285.41016
285.41017
285.41017
285.41018
285.41019
285.4102
285.41021
285.41022
285.41023
285.41023
285.41024
285.41025
285.41026
285.41027
285.41028
285.41029
285.4103
285.41031
285.41031
285.41032
285.41033
285.41034
285.41035
285.41036
285.41037
285.41038
285.41039
285.4104
285.41041
285.41042
285.41043
285.41044
285.41045
285.41046
285.41046
285.41047
285.41048
285.41049
285.4105
285.41051
285.41052
285.41053
285.41054
285.41055
285.41056
285.41057
285.41058
285.41059
285.4106
285.41061
285.41062
285.41063
285.41064
285.41065
285.41066
285.41067
285.41068
285.41069
285.4107
285.41071
285.41072
285.41073
285.41074
285.41075
285.41076
285.41078
285.41079
285.4108
285.41081
285.41082
285.41083
285.41084
285.41085
285.41086
285.41087
285.41088
285.41089
285.4109
285.41091
285.41092
285.41093
285.41095
285.41096
285.41097
285.41098
285.41099
285.411
285.41102
285.41103
285.41104
285.41105
285.41106
285.41108
285.41109
285.4111
285.41111
285.41112
285.41114
285.41115
285.41116
285.41117
285.41118
285.41119
285.41121
285.41122
285.41123
285.41124
285.41125
285.41127
285.41128
285.41129
285.41131
285.41132
285.41133
285.41134
285.41136
285.41137
285.41138
285.4114
285.41141
285.41142
285.41144
285.41145
285.41146
285.41148
285.41149
285.4115
285.41152
285.41153
285.41154
285.41156
285.41157
285.41158
285.4116
285.41161
285.41163
285.41164
285.41165
285.41167
285.41168
285.4117
285.41171
285.41173
285.41174
285.41175
285.41177
285.41178
285.4118
285.41181
285.41183
285.41184
285.41186
285.41187
285.41189
285.4119
285.41192
285.41193
285.41195
285.41197
285.41198
285.412
285.41201
285.41203
285.41204
285.41206
285.41208
285.41209
285.41211
285.41212
285.41214
285.41216
285.41217
285.41219
285.41221
285.41222
285.41224
285.41226
285.41227
285.41229
285.41231
285.41233
285.41234
285.41236
285.41238
285.4124
285.41242
285.41243
285.41245
285.41247
285.41249
285.4125
285.41252
285.41254
285.41256
285.41258
285.41259
285.41261
285.41263
285.41265
285.41267
285.41269
285.41271
285.41273
285.41275
285.41276
285.41278
285.4128
285.41282
285.41284
285.41286
285.41289
285.41291
285.41293
285.41295
285.41297
285.41299
285.41301
285.41303
285.41305
285.41307
285.4131
285.41312
285.41314
285.41316
285.41318
285.4132
285.41323
285.41325
285.41327
285.41329
285.41331
285.41334
285.41336
285.41338
285.4134
285.41343
285.41345
285.41348
285.4135
285.41352
285.41355
285.41357
285.4136
285.41362
285.41365
285.41367
285.4137
285.41373
285.41375
285.41378
285.4138
285.41383
285.41385
285.41388
285.41391
285.41393
285.41396
285.41399
285.41401
285.41404
285.41407
285.4141
285.41412
285.41415
285.41418
285.41421
285.41424
285.41427
285.4143
285.41433
285.41436
285.41439
285.41442
285.41445
285.41448
285.41451
285.41454
285.41457
285.41461
285.41464
285.41467
285.4147
285.41473
285.41476
285.41479
285.41483
285.41486
285.41489
285.41492
285.41496
285.41499
285.41503
285.41506
285.4151
285.41513
285.41517
285.41521
285.41524
285.41528
285.41532
285.41536
285.41539
285.41543
285.41547
285.41551
285.41555
285.41559
285.41563
285.41567
285.41571
285.41575
285.41579
285.41583
285.41587
285.41591
285.41596
285.416
285.41604
285.41609
285.41613
285.41618
285.41622
285.41627
285.41631
285.41636
285.4164
285.41645
285.4165
285.41655
285.41659
285.41664
285.41669
285.41674
285.41679
285.41684
285.4169
285.41695
285.417
285.41706
285.41711
285.41717
285.41722
285.41728
285.41734
285.41739
285.41745
285.41751
285.41757
285.41763
285.41769
285.41775
285.41781
285.41787
285.41793
285.418
285.41806
285.41812
285.41819
285.41825
285.41832
285.41839
285.41846
285.41853
285.4186
285.41867
285.41875
285.41882
285.4189
285.41898
285.41905
285.41913
285.41921
285.41929
285.41937
285.41946
285.41954
285.41963
285.41971
285.4198
285.41989
285.41998
285.42007
285.42016
285.42026
285.42035
285.42045
285.42055
285.42065
285.42075
285.42085
285.42095
285.42106
285.42117
285.42127
285.42138
285.42149
285.4216
285.42171
285.42183
285.42194
285.42205
285.42217
285.42228
285.4224
285.42252
285.42263
285.42275
285.42286
285.42298
285.42309
285.4232
285.42331
285.42341
285.42351
285.42361
285.4237
285.42379
285.42387
285.42395
285.42401
285.42408
285.42413
285.42418
285.42422
285.42425
285.42427
285.42429
285.4243
285.42431
285.42431
285.42431
285.4243
285.42429
285.42428
285.42426
285.42424
285.42423
285.42422
285.42421
285.42421
285.42421
285.42421
285.42422
285.42424
285.4243
285.42439
285.42451
285.42464
285.42479
285.42496
285.42514
285.42535
285.42556
285.4258
285.42604
285.42629
285.42654
285.4268
285.42706
285.42732
285.42757
285.42782
285.42806
285.42829
285.4285
285.4287
285.42888
285.42904
285.42917
285.42927
285.42934
285.42939
285.42942
285.42946
285.42952
285.42966
285.42995
285.43063
285.43227
285.43626
285.44606
285.47024
285.52973
285.67643
285.98379
286.39939
286.91345
287.52094
288.2128
288.97644
289.79662
290.65634
291.53786
292.42363
293.29712
294.14351
294.95022
295.70719
296.40702
297.04493
297.61857
298.12777
298.57415
298.96079
299.29181
299.57203
299.80668
300.00107
300.16045
300.28979
300.39369
300.47634
300.54142
300.59215
300.63129
300.66117
300.68373
300.70057
300.71296
300.72195
300.72837
300.73285
300.73589
300.73787
300.7391
300.73979
300.74011
300.7402
300.74019
300.74007
300.7397
300.73921
300.73874
300.73829
300.73785
300.73744
300.73704
300.73665
300.73628
300.7359
300.73553
300.73516
300.73478
300.7344
300.73401
300.7336
300.73319
300.73276
300.73231
300.73186
300.73139
300.73092
300.73044
300.72995
300.72946
300.72897
300.72848
300.728
300.72753
300.72706
300.72661
300.72617
300.72574
300.72533
300.72493
300.72455
300.72419
300.72384
300.72351
300.7232
300.7229
300.72261
300.72234
300.72208
300.72183
300.7216
300.72137
300.72115
300.72095
300.72075
300.72056
300.72037
300.72019
300.72002
300.71986
300.71969
300.71954
300.71938
300.71924
300.71909
300.71895
300.71881
300.71868
300.71855
300.71842
300.71829
300.71817
300.71805
300.71793
300.71781
300.7177
300.71758
300.71747
300.71736
300.71725
300.71715
300.71704
300.71694
300.71684
300.71674
300.71664
300.71655
300.71645
300.71636
300.71627
300.71618
300.71609
300.716
300.71591
300.71582
300.71574
300.71566
300.71557
300.71549
300.71541
300.71533
300.71525
300.71518
300.7151
300.71503
300.71495
300.71488
300.71481
300.71474
300.71467
300.7146
300.71453
300.71447
300.7144
300.71433
300.71427
300.7142
300.71414
300.71408
300.71401
300.71395
300.71389
300.71383
300.71377
300.71371
300.71365
300.71359
300.71354
300.71348
300.71342
300.71337
300.71331
300.71326
300.7132
300.71315
300.7131
300.71305
300.713
300.71294
300.71289
300.71284
300.71279
300.71274
300.7127
300.71265
300.7126
300.71255
300.7125
300.71246
300.71241
300.71236
300.71232
300.71227
300.71223
300.71218
300.71214
300.7121
300.71206
300.71201
300.71197
300.71193
300.71189
300.71185
300.71181
300.71177
300.71173
300.71169
300.71165
300.71161
300.71157