/*--------------------------------*- C++ -*----------------------------------*\
  =========                 |
  \\      /  F ield         | OpenFOAM: The Open Source CFD Toolbox
   \\    /   O peration     | Website:  https://openfoam.org
    \\  /    A nd           | Version:  7
     \\/     M anipulation  |
\*---------------------------------------------------------------------------*/
FoamFile
{
    version     2.0;
    format      ascii;
    class       surfaceScalarField;
    location    "0.00256";
    object      phi;
}
// * * * * * * * * * * * * * * * * * * * * * * * * * * * * * * * * * * * * * //

dimensions      [1 0 -1 0 0 0 0];

internalField   nonuniform List<scalar> 
4999
(
-3.081487
-3.0806308
-3.0797745
-3.0789183
-3.078062
-3.0772058
-3.0763495
-3.0754932
-3.0746369
-3.0737807
-3.0729244
-3.0720681
-3.0712118
-3.0703555
-3.0694992
-3.0686429
-3.0677865
-3.0669302
-3.0660739
-3.0652175
-3.0643612
-3.0635048
-3.0626484
-3.0617921
-3.0609357
-3.0600793
-3.0592229
-3.0583665
-3.05751
-3.0566535
-3.055797
-3.0549404
-3.0540838
-3.0532272
-3.0523706
-3.0515141
-3.0506578
-3.0498017
-3.0489459
-3.0480903
-3.047235
-3.0463798
-3.0455246
-3.0446694
-3.043814
-3.0429584
-3.0421024
-3.0412461
-3.0403894
-3.0395324
-3.038675
-3.0378174
-3.0369597
-3.0361018
-3.0352438
-3.0343859
-3.0335278
-3.0326698
-3.0318117
-3.0309536
-3.0300955
-3.0292375
-3.0283794
-3.0275213
-3.0266631
-3.025805
-3.0249469
-3.0240888
-3.0232306
-3.0223725
-3.0215143
-3.0206561
-3.019798
-3.0189398
-3.0180816
-3.0172234
-3.0163652
-3.015507
-3.0146488
-3.0137905
-3.0129323
-3.0120741
-3.0112158
-3.0103576
-3.0094993
-3.008641
-3.0077828
-3.0069245
-3.0060662
-3.0052079
-3.0043496
-3.0034913
-3.0026329
-3.0017746
-3.0009163
-3.0000579
-2.9991995
-2.9983412
-2.9974828
-2.9966244
-2.9957661
-2.9949077
-2.9940493
-2.9931909
-2.9923324
-2.991474
-2.9906156
-2.9897571
-2.9888987
-2.9880402
-2.9871818
-2.9863233
-2.9854648
-2.9846063
-2.9837478
-2.9828893
-2.9820308
-2.9811723
-2.9803138
-2.9794552
-2.9785967
-2.9777381
-2.9768796
-2.976021
-2.9751624
-2.9743039
-2.9734453
-2.9725867
-2.9717281
-2.9708694
-2.9700108
-2.9691522
-2.9682935
-2.9674349
-2.9665762
-2.9657176
-2.9648589
-2.9640002
-2.9631416
-2.9622829
-2.9614242
-2.9605655
-2.9597067
-2.958848
-2.9579893
-2.9571305
-2.9562718
-2.955413
-2.9545543
-2.9536955
-2.9528367
-2.9519779
-2.9511191
-2.9502603
-2.9494015
-2.9485427
-2.9476839
-2.9468251
-2.9459662
-2.9451074
-2.9442485
-2.9433897
-2.9425308
-2.941672
-2.9408131
-2.9399543
-2.9390954
-2.9382366
-2.9373778
-2.9365189
-2.9356601
-2.9348013
-2.9339425
-2.9330837
-2.9322249
-2.9313661
-2.9305072
-2.9296484
-2.9287896
-2.9279307
-2.9270718
-2.9262128
-2.9253538
-2.9244947
-2.9236355
-2.9227762
-2.9219168
-2.9210574
-2.9201978
-2.9193381
-2.9184784
-2.9176185
-2.9167585
-2.9158985
-2.9150383
-2.9141781
-2.9133178
-2.9124574
-2.911597
-2.9107365
-2.909876
-2.9090154
-2.9081548
-2.9072942
-2.9064335
-2.9055729
-2.9047121
-2.9038514
-2.9029907
-2.9021299
-2.9012692
-2.9004084
-2.8995476
-2.8986868
-2.897826
-2.8969652
-2.8961043
-2.8952435
-2.8943826
-2.8935218
-2.8926609
-2.8918
-2.8909391
-2.8900782
-2.8892173
-2.8883564
-2.8874954
-2.8866345
-2.8857735
-2.8849126
-2.8840516
-2.8831906
-2.8823296
-2.8814686
-2.8806076
-2.8797466
-2.8788855
-2.8780245
-2.8771634
-2.8763024
-2.8754413
-2.8745802
-2.8737191
-2.872858
-2.8719969
-2.8711358
-2.8702746
-2.8694135
-2.8685523
-2.8676912
-2.86683
-2.8659688
-2.8651076
-2.8642464
-2.8633852
-2.8625239
-2.8616627
-2.8608014
-2.8599402
-2.859079
-2.8582176
-2.8573565
-2.8564949
-2.8556338
-2.8547723
-2.8539111
-2.8530497
-2.8521883
-2.8513272
-2.8504653
-2.8496046
-2.8487424
-2.8478819
-2.8470194
-2.8461592
-2.8452965
-2.8444363
-2.8435736
-2.8427132
-2.8418507
-2.8409902
-2.8401278
-2.839267
-2.8384049
-2.8375438
-2.8366819
-2.8358206
-2.8349588
-2.8340974
-2.8332357
-2.8323742
-2.8315125
-2.8306509
-2.8297892
-2.8289276
-2.8280659
-2.8272042
-2.8263425
-2.8254808
-2.8246191
-2.8237574
-2.8228956
-2.8220339
-2.8211721
-2.8203104
-2.8194486
-2.8185868
-2.817725
-2.8168632
-2.8160014
-2.8151396
-2.8142777
-2.8134159
-2.8125541
-2.8116922
-2.8108304
-2.8099685
-2.8091067
-2.8082448
-2.807383
-2.8065211
-2.8056592
-2.8047973
-2.8039355
-2.8030735
-2.8022117
-2.8013497
-2.8004879
-2.7996259
-2.798764
-2.7979019
-2.7970399
-2.7961778
-2.7953157
-2.7944535
-2.7935913
-2.792729
-2.7918667
-2.7910043
-2.7901418
-2.7892792
-2.7884166
-2.7875539
-2.7866911
-2.7858282
-2.7849652
-2.7841022
-2.783239
-2.7823758
-2.7815125
-2.7806491
-2.7797857
-2.7789222
-2.7780586
-2.777195
-2.7763313
-2.7754675
-2.7746037
-2.7737398
-2.7728759
-2.772012
-2.771148
-2.7702839
-2.7694198
-2.7685557
-2.7676915
-2.7668273
-2.7659631
-2.7650988
-2.7642345
-2.7633702
-2.7625058
-2.7616414
-2.760777
-2.7599125
-2.759048
-2.7581834
-2.7573188
-2.7564542
-2.7555895
-2.7547248
-2.75386
-2.7529952
-2.7521304
-2.7512655
-2.7504006
-2.7495356
-2.7486706
-2.7478055
-2.7469404
-2.7460752
-2.7452099
-2.7443446
-2.7434793
-2.7426139
-2.7417484
-2.7408828
-2.7400172
-2.7391515
-2.7382857
-2.7374199
-2.736554
-2.735688
-2.7348219
-2.7339558
-2.7330895
-2.7322232
-2.7313567
-2.7304902
-2.7296236
-2.7287568
-2.72789
-2.7270231
-2.726156
-2.7252888
-2.7244215
-2.7235541
-2.7226866
-2.7218189
-2.7209511
-2.7200831
-2.719215
-2.7183468
-2.7174784
-2.7166098
-2.7157411
-2.7148722
-2.7140031
-2.7131339
-2.7122645
-2.7113948
-2.710525
-2.709655
-2.7087848
-2.7079143
-2.7070437
-2.7061728
-2.7053017
-2.7044303
-2.7035587
-2.7026869
-2.7018147
-2.7009423
-2.7000697
-2.6991967
-2.6983235
-2.69745
-2.6965761
-2.695702
-2.6948275
-2.6939527
-2.6930775
-2.692202
-2.6913261
-2.6904499
-2.6895732
-2.6886962
-2.6878188
-2.686941
-2.6860627
-2.685184
-2.6843049
-2.6834253
-2.6825452
-2.6816647
-2.6807836
-2.6799021
-2.67902
-2.6781374
-2.6772543
-2.6763705
-2.6754862
-2.6746013
-2.6737158
-2.6728297
-2.6719429
-2.6710555
-2.6701673
-2.6692785
-2.6683889
-2.6674987
-2.6666076
-2.6657158
-2.6648232
-2.6639298
-2.6630355
-2.6621404
-2.6612444
-2.6603475
-2.6594497
-2.658551
-2.6576513
-2.6567507
-2.655849
-2.6549464
-2.6540427
-2.6531379
-2.6522321
-2.6513252
-2.6504172
-2.6495081
-2.6485978
-2.6476863
-2.6467737
-2.6458598
-2.6449447
-2.6440283
-2.6431107
-2.6421918
-2.6412715
-2.64035
-2.639427
-2.6385027
-2.637577
-2.6366498
-2.6357212
-2.6347911
-2.6338595
-2.6329264
-2.6319918
-2.6310555
-2.6301177
-2.6291783
-2.6282372
-2.6272944
-2.6263499
-2.6254037
-2.6244558
-2.623506
-2.6225545
-2.6216011
-2.6206459
-2.6196887
-2.6187297
-2.6177687
-2.6168057
-2.6158408
-2.6148738
-2.6139047
-2.6129336
-2.6119604
-2.610985
-2.6100074
-2.6090277
-2.6080457
-2.6070614
-2.6060749
-2.6050861
-2.6040949
-2.6031013
-2.6021054
-2.601107
-2.6001062
-2.5991029
-2.5980971
-2.5970887
-2.5960778
-2.5950643
-2.5940481
-2.5930293
-2.5920078
-2.5909836
-2.5899567
-2.588927
-2.5878946
-2.5868593
-2.5858212
-2.5847802
-2.5837363
-2.5826895
-2.5816397
-2.580587
-2.5795312
-2.5784725
-2.5774107
-2.5763458
-2.5752778
-2.5742067
-2.5731325
-2.5720551
-2.5709745
-2.5698907
-2.5688036
-2.5677133
-2.5666197
-2.5655228
-2.5644226
-2.5633191
-2.5622121
-2.5611018
-2.5599881
-2.558871
-2.5577504
-2.5566263
-2.5554988
-2.5543678
-2.5532333
-2.5520952
-2.5509536
-2.5498084
-2.5486597
-2.5475073
-2.5463514
-2.5451918
-2.5440286
-2.5428618
-2.5416912
-2.5405171
-2.5393392
-2.5381576
-2.5369724
-2.5357834
-2.5345907
-2.5333942
-2.532194
-2.5309901
-2.5297824
-2.5285709
-2.5273556
-2.5261366
-2.5249138
-2.5236871
-2.5224567
-2.5212225
-2.5199844
-2.5187425
-2.5174969
-2.5162473
-2.514994
-2.5137368
-2.5124758
-2.5112109
-2.5099423
-2.5086697
-2.5073934
-2.5061132
-2.5048291
-2.5035413
-2.5022496
-2.500954
-2.4996547
-2.4983515
-2.4970445
-2.4957337
-2.494419
-2.4931006
-2.4917784
-2.4904524
-2.4891226
-2.4877891
-2.4864517
-2.4851107
-2.4837659
-2.4824173
-2.4810651
-2.4797092
-2.4783495
-2.4769862
-2.4756192
-2.4742486
-2.4728743
-2.4714965
-2.470115
-2.4687299
-2.4673413
-2.4659491
-2.4645533
-2.4631541
-2.4617513
-2.4603451
-2.4589354
-2.4575222
-2.4561056
-2.4546856
-2.4532622
-2.4518355
-2.4504054
-2.4489719
-2.4475352
-2.4460951
-2.4446518
-2.4432052
-2.4417554
-2.4403024
-2.4388462
-2.4373869
-2.4359243
-2.4344587
-2.43299
-2.4315182
-2.4300433
-2.4285654
-2.4270845
-2.4256006
-2.4241138
-2.4226239
-2.4211312
-2.4196356
-2.4181371
-2.4166358
-2.4151316
-2.4136246
-2.4121149
-2.4106024
-2.4090871
-2.4075692
-2.4060485
-2.4045253
-2.4029993
-2.4014708
-2.3999397
-2.398406
-2.3968698
-2.3953311
-2.3937898
-2.3922462
-2.3907
-2.3891515
-2.3876006
-2.3860473
-2.3844916
-2.3829337
-2.3813735
-2.379811
-2.3782462
-2.3766792
-2.3751101
-2.3735387
-2.3719653
-2.3703897
-2.368812
-2.3672322
-2.3656504
-2.3640665
-2.3624807
-2.3608929
-2.3593031
-2.3577114
-2.3561178
-2.3545223
-2.3529249
-2.3513258
-2.3497248
-2.348122
-2.3465174
-2.3449111
-2.3433031
-2.3416934
-2.340082
-2.338469
-2.3368543
-2.335238
-2.3336202
-2.3320008
-2.3303798
-2.3287573
-2.3271333
-2.3255079
-2.3238809
-2.3222526
-2.3206228
-2.3189917
-2.3173591
-2.3157252
-2.31409
-2.3124535
-2.3108157
-2.3091765
-2.3075362
-2.3058946
-2.3042518
-2.3026078
-2.3009626
-2.2993162
-2.2976687
-2.2960201
-2.2943704
-2.2927196
-2.2910676
-2.2894147
-2.2877607
-2.2861056
-2.2844496
-2.2827926
-2.2811346
-2.2794756
-2.2778156
-2.2761548
-2.274493
-2.2728303
-2.2711667
-2.2695023
-2.2678369
-2.2661708
-2.2645038
-2.2628359
-2.2611673
-2.2594979
-2.2578277
-2.2561567
-2.254485
-2.2528125
-2.2511393
-2.2494653
-2.2477907
-2.2461154
-2.2444394
-2.2427627
-2.2410854
-2.2394074
-2.2377288
-2.2360496
-2.2343698
-2.2326894
-2.2310084
-2.2293269
-2.2276447
-2.2259621
-2.2242789
-2.2225951
-2.2209109
-2.2192262
-2.2175409
-2.2158552
-2.2141691
-2.2124824
-2.2107953
-2.2091078
-2.2074199
-2.2057315
-2.2040427
-2.2023536
-2.200664
-2.1989741
-2.1972838
-2.1955931
-2.1939021
-2.1922107
-2.190519
-2.188827
-2.1871346
-2.1854419
-2.183749
-2.1820557
-2.1803621
-2.1786683
-2.1769742
-2.1752798
-2.1735851
-2.1718902
-2.1701951
-2.1684997
-2.166804
-2.1651081
-2.163412
-2.1617157
-2.1600192
-2.1583224
-2.1566255
-2.1549283
-2.153231
-2.1515334
-2.1498357
-2.1481378
-2.1464397
-2.1447415
-2.1430431
-2.1413445
-2.1396458
-2.1379469
-2.1362478
-2.1345486
-2.1328493
-2.1311498
-2.1294502
-2.1277505
-2.1260506
-2.1243506
-2.1226505
-2.1209502
-2.1192498
-2.1175494
-2.1158488
-2.1141481
-2.1124473
-2.1107464
-2.1090454
-2.1073443
-2.1056431
-2.1039418
-2.1022404
-2.100539
-2.0988374
-2.0971358
-2.0954341
-2.0937323
-2.0920304
-2.0903284
-2.0886264
-2.0869243
-2.0852222
-2.0835199
-2.0818176
-2.0801153
-2.0784128
-2.0767104
-2.0750078
-2.0733052
-2.0716025
-2.0698998
-2.0681971
-2.0664942
-2.0647914
-2.0630884
-2.0613855
-2.0596824
-2.0579794
-2.0562763
-2.0545731
-2.0528699
-2.0511666
-2.0494634
-2.04776
-2.0460567
-2.0443533
-2.0426498
-2.0409463
-2.0392428
-2.0375392
-2.0358356
-2.034132
-2.0324283
-2.0307246
-2.0290209
-2.0273171
-2.0256133
-2.0239094
-2.0222055
-2.0205016
-2.0187977
-2.0170937
-2.0153896
-2.0136855
-2.0119814
-2.0102773
-2.0085731
-2.0068689
-2.0051646
-2.0034603
-2.0017559
-2.0000515
-1.9983471
-1.9966426
-1.994938
-1.9932334
-1.9915288
-1.9898241
-1.9881194
-1.9864146
-1.9847098
-1.9830049
-1.9812999
-1.9795949
-1.9778899
-1.9761848
-1.9744796
-1.9727744
-1.9710692
-1.9693638
-1.9676584
-1.965953
-1.9642475
-1.962542
-1.9608364
-1.9591307
-1.957425
-1.9557192
-1.9540134
-1.9523075
-1.9506016
-1.9488956
-1.9471895
-1.9454835
-1.9437773
-1.9420711
-1.9403649
-1.9386586
-1.9369522
-1.9352458
-1.9335394
-1.9318329
-1.9301263
-1.9284197
-1.9267131
-1.9250064
-1.9232997
-1.9215929
-1.9198861
-1.9181793
-1.9164724
-1.9147655
-1.9130585
-1.9113515
-1.9096445
-1.9079374
-1.9062303
-1.9045231
-1.9028159
-1.9011087
-1.8994015
-1.8976942
-1.8959868
-1.8942795
-1.8925721
-1.8908646
-1.8891572
-1.8874497
-1.8857421
-1.8840346
-1.882327
-1.8806193
-1.8789117
-1.877204
-1.8754962
-1.8737885
-1.8720807
-1.8703729
-1.868665
-1.8669571
-1.8652492
-1.8635412
-1.8618332
-1.8601252
-1.8584172
-1.8567091
-1.855001
-1.8532928
-1.8515846
-1.8498764
-1.8481682
-1.8464599
-1.8447516
-1.8430432
-1.8413349
-1.8396265
-1.837918
-1.8362095
-1.834501
-1.8327925
-1.8310839
-1.8293753
-1.8276666
-1.825958
-1.8242493
-1.8225405
-1.8208317
-1.8191229
-1.8174141
-1.8157052
-1.8139963
-1.8122874
-1.8105784
-1.8088694
-1.8071603
-1.8054512
-1.8037421
-1.802033
-1.8003238
-1.7986146
-1.7969053
-1.795196
-1.7934867
-1.7917773
-1.7900679
-1.7883585
-1.786649
-1.7849395
-1.78323
-1.7815204
-1.7798108
-1.7781012
-1.7763915
-1.7746818
-1.772972
-1.7712622
-1.7695524
-1.7678425
-1.7661326
-1.7644226
-1.7627126
-1.7610026
-1.7592925
-1.7575824
-1.7558722
-1.754162
-1.7524517
-1.7507414
-1.7490311
-1.7473207
-1.7456102
-1.7438998
-1.7421892
-1.7404786
-1.738768
-1.7370573
-1.7353465
-1.7336357
-1.7319249
-1.730214
-1.728503
-1.726792
-1.7250809
-1.7233698
-1.7216586
-1.7199473
-1.718236
-1.7165246
-1.7148132
-1.7131017
-1.7113902
-1.7096785
-1.7079669
-1.7062551
-1.7045433
-1.7028314
-1.7011195
-1.6994075
-1.6976954
-1.6959833
-1.6942711
-1.6925588
-1.6908465
-1.6891341
-1.6874216
-1.6857091
-1.6839965
-1.6822838
-1.6805711
-1.6788584
-1.6771455
-1.6754326
-1.6737197
-1.6720066
-1.6702936
-1.6685804
-1.6668672
-1.665154
-1.6634406
-1.6617273
-1.6600138
-1.6583004
-1.6565868
-1.6548732
-1.6531596
-1.6514459
-1.6497321
-1.6480183
-1.6463044
-1.6445905
-1.6428766
-1.6411626
-1.6394485
-1.6377344
-1.6360203
-1.6343061
-1.6325918
-1.6308775
-1.6291632
-1.6274488
-1.6257344
-1.6240199
-1.6223054
-1.6205908
-1.6188762
-1.6171615
-1.6154468
-1.6137321
-1.6120173
-1.6103025
-1.6085877
-1.6068727
-1.6051578
-1.6034428
-1.6017278
-1.6000127
-1.5982976
-1.5965825
-1.5948673
-1.5931521
-1.5914368
-1.5897215
-1.5880061
-1.5862907
-1.5845753
-1.5828598
-1.5811443
-1.5794288
-1.5777132
-1.5759976
-1.5742819
-1.5725662
-1.5708505
-1.5691347
-1.5674189
-1.565703
-1.5639871
-1.5622711
-1.5605552
-1.5588391
-1.5571231
-1.555407
-1.5536909
-1.5519747
-1.5502585
-1.5485422
-1.5468259
-1.5451096
-1.5433932
-1.5416768
-1.5399604
-1.5382439
-1.5365273
-1.5348108
-1.5330942
-1.5313775
-1.5296608
-1.5279441
-1.5262274
-1.5245106
-1.5227937
-1.5210768
-1.5193599
-1.517643
-1.515926
-1.5142089
-1.5124919
-1.5107747
-1.5090576
-1.5073404
-1.5056232
-1.5039059
-1.5021886
-1.5004713
-1.4987539
-1.4970364
-1.495319
-1.4936015
-1.4918839
-1.4901664
-1.4884488
-1.4867311
-1.4850134
-1.4832957
-1.4815779
-1.4798601
-1.4781422
-1.4764243
-1.4747064
-1.4729884
-1.4712704
-1.4695523
-1.4678342
-1.4661161
-1.4643979
-1.4626797
-1.4609614
-1.4592431
-1.4575247
-1.4558063
-1.4540879
-1.4523694
-1.4506509
-1.4489323
-1.4472137
-1.445495
-1.4437763
-1.4420576
-1.4403387
-1.4386199
-1.436901
-1.4351821
-1.4334631
-1.431744
-1.4300249
-1.4283058
-1.4265866
-1.4248674
-1.4231481
-1.4214288
-1.4197094
-1.41799
-1.4162705
-1.414551
-1.4128314
-1.4111118
-1.4093922
-1.4076724
-1.4059527
-1.4042329
-1.402513
-1.4007932
-1.3990732
-1.3973533
-1.3956332
-1.3939132
-1.3921931
-1.390473
-1.3887528
-1.3870326
-1.3853123
-1.3835921
-1.3818718
-1.3801514
-1.3784311
-1.3767107
-1.3749903
-1.3732699
-1.3715494
-1.3698289
-1.3681085
-1.366388
-1.3646675
-1.3629469
-1.3612264
-1.3595059
-1.3577854
-1.3560648
-1.3543443
-1.3526238
-1.3509033
-1.3491828
-1.3474623
-1.3457419
-1.3440214
-1.342301
-1.3405806
-1.3388603
-1.33714
-1.3354197
-1.3336995
-1.3319793
-1.3302591
-1.328539
-1.326819
-1.325099
-1.3233791
-1.3216592
-1.3199394
-1.3182197
-1.3165001
-1.3147805
-1.313061
-1.3113417
-1.3096224
-1.3079032
-1.3061841
-1.3044651
-1.3027462
-1.3010274
-1.2993087
-1.2975902
-1.2958717
-1.2941534
-1.2924353
-1.2907172
-1.2889993
-1.2872816
-1.285564
-1.2838465
-1.2821292
-1.2804121
-1.2786951
-1.2769783
-1.2752616
-1.2735452
-1.2718289
-1.2701128
-1.2683969
-1.2666812
-1.2649657
-1.2632504
-1.2615353
-1.2598204
-1.2581057
-1.2563912
-1.254677
-1.252963
-1.2512492
-1.2495357
-1.2478224
-1.2461094
-1.2443966
-1.242684
-1.2409717
-1.2392597
-1.2375479
-1.2358365
-1.2341252
-1.2324143
-1.2307037
-1.2289933
-1.2272832
-1.2255735
-1.223864
-1.2221548
-1.220446
-1.2187374
-1.2170292
-1.2153213
-1.2136137
-1.2119064
-1.2101995
-1.2084929
-1.2067867
-1.2050808
-1.2033752
-1.20167
-1.1999651
-1.1982606
-1.1965565
-1.1948527
-1.1931493
-1.1914463
-1.1897436
-1.1880413
-1.1863394
-1.1846379
-1.1829368
-1.181236
-1.1795357
-1.1778357
-1.1761362
-1.174437
-1.1727383
-1.17104
-1.1693421
-1.1676445
-1.1659475
-1.1642508
-1.1625545
-1.1608587
-1.1591633
-1.1574683
-1.1557738
-1.1540797
-1.152386
-1.1506927
-1.1489999
-1.1473076
-1.1456156
-1.1439241
-1.1422331
-1.1405425
-1.1388523
-1.1371626
-1.1354734
-1.1337845
-1.1320962
-1.1304083
-1.1287208
-1.1270338
-1.1253472
-1.1236611
-1.1219755
-1.1202903
-1.1186055
-1.1169212
-1.1152373
-1.1135539
-1.111871
-1.1101885
-1.1085064
-1.1068248
-1.1051437
-1.103463
-1.1017827
-1.1001029
-1.0984235
-1.0967446
-1.0950661
-1.0933881
-1.0917104
-1.0900333
-1.0883565
-1.0866802
-1.0850043
-1.0833289
-1.0816538
-1.0799792
-1.0783051
-1.0766313
-1.0749579
-1.073285
-1.0716125
-1.0699404
-1.0682687
-1.0665974
-1.0649265
-1.063256
-1.0615858
-1.0599161
-1.0582468
-1.0565779
-1.0549093
-1.0532411
-1.0515733
-1.0499059
-1.0482388
-1.0465721
-1.0449058
-1.0432398
-1.0415742
-1.0399089
-1.038244
-1.0365794
-1.0349152
-1.0332513
-1.0315877
-1.0299245
-1.0282616
-1.026599
-1.0249367
-1.0232748
-1.0216132
-1.0199518
-1.0182908
-1.0166301
-1.0149697
-1.0133096
-1.0116497
-1.0099902
-1.0083309
-1.0066719
-1.0050132
-1.0033547
-1.0016966
-1.0000386
-0.99838097
-0.99672356
-0.9950664
-0.99340949
-0.99175282
-0.99009639
-0.98844019
-0.98678422
-0.98512848
-0.98347296
-0.98181766
-0.98016257
-0.9785077
-0.97685303
-0.97519855
-0.97354428
-0.9718902
-0.97023631
-0.9685826
-0.96692907
-0.96527573
-0.96362255
-0.96196955
-0.9603167
-0.95866402
-0.9570115
-0.95535913
-0.95370691
-0.95205483
-0.95040289
-0.94875109
-0.94709941
-0.94544787
-0.94379644
-0.94214514
-0.94049395
-0.93884288
-0.93719191
-0.93554105
-0.93389028
-0.93223962
-0.93058904
-0.92893855
-0.92728814
-0.92563781
-0.92398756
-0.92233737
-0.92068726
-0.91903721
-0.91738722
-0.91573728
-0.91408739
-0.91243755
-0.91078775
-0.90913798
-0.90748825
-0.90583855
-0.90418887
-0.90253921
-0.90088957
-0.89923995
-0.89759034
-0.89594073
-0.89429113
-0.89264152
-0.89099191
-0.88934228
-0.88769264
-0.88604298
-0.8843933
-0.88274359
-0.88109385
-0.87944407
-0.87779424
-0.87614437
-0.87449445
-0.87284447
-0.87119444
-0.86954434
-0.86789417
-0.86624392
-0.8645936
-0.8629432
-0.8612927
-0.85964211
-0.85799142
-0.85634063
-0.85468973
-0.85303871
-0.85138757
-0.84973632
-0.84808493
-0.8464334
-0.84478173
-0.84312992
-0.84147795
-0.83982582
-0.83817353
-0.83652106
-0.83486842
-0.83321559
-0.83156258
-0.82990938
-0.82825597
-0.82660236
-0.82494853
-0.82329448
-0.82164021
-0.8199857
-0.81833094
-0.81667594
-0.81502068
-0.81336516
-0.81170937
-0.81005331
-0.80839696
-0.80674033
-0.8050834
-0.80342617
-0.80176863
-0.80011077
-0.79845259
-0.79679408
-0.79513524
-0.79347604
-0.7918165
-0.79015659
-0.78849632
-0.78683567
-0.78517464
-0.78351322
-0.78185141
-0.7801892
-0.77852657
-0.77686354
-0.77520008
-0.77353618
-0.77187186
-0.77020709
-0.76854186
-0.76687618
-0.76521004
-0.76354343
-0.76187634
-0.76020876
-0.7585407
-0.75687213
-0.75520306
-0.75353348
-0.75186339
-0.75019277
-0.74852162
-0.74684994
-0.74517772
-0.74350495
-0.74183163
-0.74015776
-0.73848332
-0.7368083
-0.73513272
-0.73345655
-0.73177979
-0.73010245
-0.7284245
-0.72674596
-0.72506681
-0.72338705
-0.72170667
-0.72002568
-0.71834406
-0.71666181
-0.71497893
-0.7132954
-0.71161124
-0.70992642
-0.70824096
-0.70655484
-0.70486806
-0.70318062
-0.70149251
-0.69980374
-0.6981143
-0.69642418
-0.69473339
-0.69304191
-0.69134975
-0.6896569
-0.68796336
-0.68626912
-0.68457419
-0.68287857
-0.68118224
-0.67948521
-0.67778747
-0.67608903
-0.67438988
-0.67269003
-0.67098946
-0.66928818
-0.66758618
-0.66588347
-0.66418005
-0.6624759
-0.66077104
-0.65906546
-0.65735916
-0.65565214
-0.6539444
-0.65223593
-0.65052675
-0.64881684
-0.64710621
-0.64539486
-0.64368278
-0.64196999
-0.64025647
-0.63854224
-0.63682729
-0.63511162
-0.63339523
-0.63167813
-0.62996031
-0.62824178
-0.62652254
-0.62480259
-0.62308192
-0.62136056
-0.61963849
-0.61791571
-0.61619224
-0.61446806
-0.6127432
-0.61101764
-0.60929139
-0.60756445
-0.60583683
-0.60410853
-0.60237955
-0.6006499
-0.59891958
-0.59718859
-0.59545693
-0.59372461
-0.59199164
-0.59025802
-0.58852375
-0.58678883
-0.58505328
-0.58331709
-0.58158027
-0.57984283
-0.57810476
-0.57636608
-0.57462678
-0.57288688
-0.57114638
-0.56940528
-0.56766359
-0.56592131
-0.56417845
-0.56243501
-0.56069101
-0.55894643
-0.5572013
-0.55545561
-0.55370937
-0.55196259
-0.55021527
-0.54846742
-0.54671904
-0.54497014
-0.54322073
-0.5414708
-0.53972037
-0.53796944
-0.53621802
-0.53446612
-0.53271373
-0.53096087
-0.52920754
-0.52745374
-0.52569949
-0.52394478
-0.52218963
-0.52043404
-0.51867802
-0.51692156
-0.51516469
-0.51340739
-0.51164969
-0.50989157
-0.50813306
-0.50637415
-0.50461485
-0.50285517
-0.50109511
-0.49933468
-0.49757388
-0.49581272
-0.49405121
-0.49228934
-0.49052713
-0.48876458
-0.4870017
-0.48523848
-0.48347494
-0.48171109
-0.47994691
-0.47818243
-0.47641764
-0.47465256
-0.47288718
-0.47112151
-0.46935555
-0.46758931
-0.4658228
-0.46405602
-0.46228897
-0.46052166
-0.45875409
-0.45698627
-0.4552182
-0.45344989
-0.45168134
-0.44991255
-0.44814353
-0.44637429
-0.44460482
-0.44283514
-0.44106524
-0.43929512
-0.43752481
-0.43575428
-0.43398356
-0.43221264
-0.43044153
-0.42867023
-0.42689874
-0.42512707
-0.42335522
-0.4215832
-0.419811
-0.41803864
-0.41626611
-0.41449342
-0.41272057
-0.41094756
-0.40917441
-0.4074011
-0.40562764
-0.40385405
-0.40208031
-0.40030643
-0.39853241
-0.39675826
-0.39498398
-0.39320957
-0.39143503
-0.38966036
-0.38788557
-0.38611066
-0.38433564
-0.38256049
-0.38078523
-0.37900986
-0.37723438
-0.37545879
-0.37368308
-0.37190728
-0.37013137
-0.36835535
-0.36657924
-0.36480303
-0.36302671
-0.3612503
-0.3594738
-0.35769721
-0.35592052
-0.35414374
-0.35236687
-0.35058992
-0.34881288
-0.34703575
-0.34525854
-0.34348124
-0.34170386
-0.3399264
-0.33814886
-0.33637124
-0.33459354
-0.33281576
-0.3310379
-0.32925998
-0.32748197
-0.32570389
-0.32392574
-0.32214752
-0.32036923
-0.31859087
-0.31681244
-0.31503394
-0.31325538
-0.31147675
-0.30969805
-0.30791929
-0.30614046
-0.30436158
-0.30258262
-0.30080361
-0.29902453
-0.29724539
-0.29546618
-0.29368692
-0.29190759
-0.2901282
-0.28834876
-0.28656925
-0.28478968
-0.28301006
-0.28123037
-0.27945063
-0.27767084
-0.27589098
-0.27411108
-0.27233111
-0.2705511
-0.26877103
-0.2669909
-0.26521073
-0.2634305
-0.26165022
-0.25986989
-0.25808951
-0.25630907
-0.25452858
-0.25274805
-0.25096746
-0.24918682
-0.24740613
-0.24562538
-0.24384459
-0.24206375
-0.24028286
-0.23850192
-0.23672094
-0.2349399
-0.23315882
-0.2313777
-0.22959653
-0.22781532
-0.22603406
-0.22425276
-0.22247142
-0.22069004
-0.21890862
-0.21712716
-0.21534565
-0.21356411
-0.21178252
-0.2100009
-0.20821923
-0.20643752
-0.20465577
-0.20287398
-0.20109214
-0.19931027
-0.19752835
-0.1957464
-0.1939644
-0.19218237
-0.1904003
-0.1886182
-0.18683606
-0.18505388
-0.18327168
-0.18148944
-0.17970718
-0.17792488
-0.17614256
-0.17436021
-0.17257784
-0.17079544
-0.16901301
-0.16723056
-0.16544808
-0.16366558
-0.16188305
-0.16010049
-0.15831791
-0.1565353
-0.15475267
-0.15297001
-0.15118733
-0.14940463
-0.1476219
-0.14583915
-0.14405638
-0.1422736
-0.14049079
-0.13870797
-0.13692514
-0.13514229
-0.13335943
-0.13157656
-0.12979368
-0.12801078
-0.12622788
-0.12444497
-0.12266205
-0.12087912
-0.11909619
-0.11731324
-0.11553028
-0.11374731
-0.11196433
-0.11018134
-0.10839834
-0.10661533
-0.10483231
-0.10304928
-0.10126624
-0.099483192
-0.097700137
-0.095917074
-0.094134005
-0.092350931
-0.090567852
-0.088784772
-0.087001692
-0.085218613
-0.083435538
-0.081652468
-0.079869401
-0.078086339
-0.076303278
-0.074520216
-0.072737151
-0.07095408
-0.069171002
-0.067387916
-0.065604822
-0.06382172
-0.062038611
-0.060255497
-0.058472379
-0.056689255
-0.054906127
-0.053122994
-0.051339855
-0.049556709
-0.047773555
-0.045990394
-0.044207224
-0.042424049
-0.04064087
-0.038857693
-0.037074524
-0.035291366
-0.033508223
-0.031725089
-0.029941959
-0.028158821
-0.026375667
-0.024592494
-0.022809304
-0.021026102
-0.01924289
-0.01745967
-0.015676442
-0.013893207
-0.012109962
-0.010326709
-0.0085434473
-0.0067601754
-0.0049768932
-0.0031936
-0.0014102951
0.00037302334
0.0021563351
0.0039396597
0.0057229975
0.0075063488
0.0092897141
0.011073094
0.012856488
0.014639898
0.016423324
0.018206767
0.019990229
0.021773715
0.023557229
0.025340776
0.027124351
0.028907949
0.030691559
0.032475176
0.034258796
0.036042423
0.037826061
0.039609718
0.041393399
0.043177108
0.044960847
0.046744618
0.048528421
0.050312257
0.052096124
0.053880025
0.055663959
0.057447928
0.059231933
0.061015977
0.062800059
0.064584182
0.066368345
0.068152547
0.069936786
0.071721062
0.07350537
0.075289712
0.077074086
0.078858492
0.080642933
0.08242741
0.084211925
0.085996482
0.087781083
0.089565728
0.09135042
0.093135161
0.09491995
0.096704789
0.098489678
0.10027462
0.10205961
0.10384465
0.10562975
0.10741489
0.10920009
0.11098533
0.11277063
0.11455597
0.11634137
0.11812681
0.1199123
0.12169784
0.12348342
0.12526906
0.12705475
0.12884048
0.13062627
0.13241211
0.13419801
0.13598396
0.13776996
0.13955602
0.14134213
0.1431283
0.14491453
0.14670081
0.14848714
0.15027353
0.15205998
0.15384647
0.15563302
0.15741962
0.15920626
0.16099296
0.1627797
0.1645665
0.16635334
0.16814023
0.16992717
0.17171416
0.1735012
0.17528828
0.17707542
0.17886261
0.18064985
0.18243713
0.18422447
0.18601186
0.1877993
0.18958678
0.19137432
0.1931619
0.19494953
0.1967372
0.19852491
0.20031267
0.20210047
0.20388831
0.20567619
0.20746411
0.20925206
0.21104006
0.21282809
0.21461616
0.21640427
0.21819241
0.21998059
0.22176881
0.22355706
0.22534535
0.22713367
0.22892203
0.23071041
0.23249884
0.23428729
0.23607577
0.23786429
0.23965283
0.2414414
0.24322999
0.24501861
0.24680726
0.24859593
0.25038462
0.25217334
0.25396208
0.25575084
0.25753961
0.25932841
0.26111723
0.26290607
0.26469492
0.2664838
0.26827268
0.27006159
0.2718505
0.27363944
0.27542838
0.27721734
0.2790063
0.28079528
0.28258427
0.28437326
0.28616227
0.28795128
0.28974029
0.29152931
0.29331834
0.29510737
0.2968964
0.29868544
0.30047448
0.30226352
0.30405257
0.30584162
0.30763067
0.30941972
0.31120878
0.31299784
0.31478689
0.31657595
0.31836501
0.32015407
0.32194313
0.32373219
0.32552124
0.3273103
0.32909936
0.33088842
0.33267748
0.33446653
0.33625559
0.33804464
0.33983369
0.34162275
0.3434118
0.34520085
0.34698991
0.34877896
0.35056802
0.35235708
0.35414614
0.3559352
0.35772426
0.35951332
0.36130239
0.36309145
0.36488053
0.3666696
0.36845868
0.37024776
0.37203685
0.37382594
0.37561504
0.37740414
0.37919325
0.38098237
0.3827715
0.38456063
0.38634977
0.38813893
0.38992809
0.39171726
0.39350645
0.39529565
0.39708486
0.39887408
0.40066332
0.40245258
0.40424185
0.40603114
0.40782045
0.40960978
0.41139912
0.41318849
0.41497788
0.41676729
0.41855672
0.42034617
0.42213564
0.42392514
0.42571466
0.4275042
0.42929377
0.43108337
0.43287299
0.43466264
0.43645232
0.43824202
0.44003175
0.44182152
0.44361131
0.44540113
0.44719098
0.44898086
0.45077077
0.45256071
0.45435069
0.45614069
0.45793073
0.45972079
0.4615109
0.46330103
0.4650912
0.46688141
0.46867164
0.47046192
0.47225222
0.47404257
0.47583294
0.47762336
0.4794138
0.48120429
0.4829948
0.48478536
0.48657595
0.48836658
0.49015724
0.49194794
0.49373868
0.49552945
0.49732027
0.49911111
0.500902
0.50269292
0.50448388
0.50627487
0.5080659
0.50985697
0.51164807
0.51343921
0.51523038
0.51702159
0.51881284
0.52060412
0.52239544
0.52418679
0.52597818
0.5277696
0.52956105
0.53135254
0.53314405
0.5349356
0.53672718
0.5385188
0.54031044
0.54210211
0.54389381
0.54568554
0.5474773
0.54926908
0.55106089
0.55285272
0.55464459
0.55643647
0.55822838
0.56002031
0.56181226
0.56360424
0.56539623
0.56718825
0.56898028
0.57077233
0.57256439
0.57435648
0.57614857
0.57794068
0.57973281
0.58152494
0.58331708
0.58510923
0.5869014
0.58869356
0.59048574
0.59227792
0.5940701
0.59586229
0.59765447
0.59944666
0.60123885
0.60303104
0.60482322
0.60661541
0.60840759
0.61019976
0.61199193
0.61378409
0.61557625
0.61736839
0.61916053
0.62095265
0.62274477
0.62453687
0.62632896
0.62812103
0.62991309
0.63170513
0.63349715
0.63528916
0.63708115
0.63887312
0.64066507
0.642457
0.64424892
0.64604081
0.64783268
0.64962453
0.65141635
0.65320816
0.65499994
0.6567917
0.65858343
0.66037515
0.66216684
0.6639585
0.66575014
0.66754175
0.66933334
0.67112491
0.67291645
0.67470796
0.67649945
0.67829092
0.68008236
0.68187377
0.68366517
0.68545654
0.68724788
0.6890392
0.6908305
0.69262177
0.69441302
0.69620425
0.69799546
0.69978665
0.70157782
0.70336896
0.70516009
0.7069512
0.70874229
0.71053336
0.71232442
0.71411546
0.71590649
0.7176975
0.7194885
0.7212795
0.72307048
0.72486145
0.72665241
0.72844337
0.73023431
0.73202525
0.73381618
0.73560711
0.73739803
0.73918895
0.74097986
0.74277077
0.74456168
0.74635259
0.7481435
0.74993442
0.75172533
0.75351626
0.75530718
0.75709812
0.75888906
0.76068001
0.76247096
0.76426193
0.7660529
0.76784389
0.76963488
0.77142589
0.77321691
0.77500794
0.776799
0.77859005
0.78038114
0.78217224
0.78396336
0.7857545
0.78754565
0.78933683
0.79112802
0.79291924
0.79471048
0.79650174
0.79829303
0.80008433
0.80187566
0.80366701
0.80545838
0.80724978
0.80904119
0.81083263
0.81262409
0.81441557
0.81620708
0.81799861
0.81979015
0.82158173
0.82337332
0.82516493
0.82695658
0.82874823
0.83053991
0.83233162
0.83412333
0.83591507
0.83770683
0.8394986
0.84129039
0.84308221
0.84487403
0.84666587
0.84845774
0.85024961
0.85204149
0.8538334
0.85562532
0.85741725
0.8592092
0.86100115
0.86279312
0.8645851
0.86637709
0.86816908
0.86996109
0.87175311
0.87354512
0.87533715
0.87712919
0.87892122
0.88071326
0.88250531
0.88429735
0.88608939
0.88788144
0.88967349
0.89146553
0.89325757
0.89504961
0.89684163
0.89863364
0.90042565
0.90221765
0.90400962
0.90580159
0.90759355
0.9093855
0.91117742
0.91296933