/*--------------------------------*- C++ -*----------------------------------*\
  =========                 |
  \\      /  F ield         | OpenFOAM: The Open Source CFD Toolbox
   \\    /   O peration     | Website:  https://openfoam.org
    \\  /    A nd           | Version:  7
     \\/     M anipulation  |
\*---------------------------------------------------------------------------*/
FoamFile
{
    version     2.0;
    format      ascii;
    class       volScalarField;
    location    "0.00256";
    object      rho;
}
// * * * * * * * * * * * * * * * * * * * * * * * * * * * * * * * * * * * * * //

dimensions      [1 -3 0 0 0 0 0];

internalField   nonuniform List<scalar> 
5000
(
0.98117174
0.98123458
0.98133229
0.98141149
0.98150916
0.98158884
0.98168653
0.98176624
0.98186398
0.98194371
0.98204147
0.98212122
0.982219
0.98229876
0.98239656
0.98247631
0.98257412
0.98265385
0.98275168
0.98283138
0.98292921
0.98300889
0.98310672
0.98318637
0.98328419
0.98336382
0.98346163
0.98354123
0.98363903
0.98371861
0.98381641
0.98389596
0.98399375
0.98407328
0.98417105
0.98425054
0.98434828
0.9844277
0.98452538
0.98460471
0.98470232
0.98478157
0.98487913
0.98495834
0.9850559
0.98513511
0.98523271
0.98531194
0.9854096
0.98548888
0.98558659
0.9856659
0.98576364
0.98584296
0.98594071
0.98602
0.98611775
0.98619701
0.98629475
0.98637397
0.98647171
0.98655089
0.98664862
0.98672777
0.98682548
0.98690459
0.98700229
0.98708138
0.98717906
0.98725811
0.98735578
0.9874348
0.98753245
0.98761144
0.98770908
0.98778803
0.98788566
0.98796457
0.98806219
0.98814107
0.98823868
0.98831753
0.98841512
0.98849393
0.98859151
0.98867029
0.98876786
0.9888466
0.98894415
0.98902287
0.98912041
0.98919909
0.98929662
0.98937527
0.98947278
0.9895514
0.98964889
0.98972748
0.98982497
0.98990351
0.99000099
0.9900795
0.99017697
0.99025544
0.9903529
0.99043133
0.99052878
0.99060718
0.99070462
0.99078299
0.99088041
0.99095875
0.99105616
0.99113446
0.99123186
0.99131013
0.99140752
0.99148575
0.99158313
0.99166132
0.99175869
0.99183685
0.99193421
0.99201234
0.99210968
0.99218778
0.99228511
0.99236318
0.99246049
0.99253852
0.99263583
0.99271382
0.99281112
0.99288908
0.99298637
0.99306429
0.99316157
0.99323946
0.99333673
0.99341458
0.99351184
0.99358965
0.9936869
0.99376469
0.99386192
0.99393967
0.9940369
0.99411461
0.99421183
0.99428951
0.99438672
0.99446436
0.99456156
0.99463917
0.99473635
0.99481393
0.9949111
0.99498864
0.9950858
0.99516331
0.99526046
0.99533794
0.99543508
0.99551251
0.99560964
0.99568704
0.99578416
0.99586152
0.99595863
0.99603595
0.99613305
0.99621033
0.99630742
0.99638466
0.99648174
0.99655894
0.99665601
0.99673318
0.99683024
0.99690737
0.99700443
0.99708154
0.99717859
0.99725567
0.99735273
0.99742979
0.99752685
0.9976039
0.99770097
0.99777801
0.99787508
0.9979521
0.99804919
0.99812619
0.99822329
0.99830026
0.99839737
0.99847432
0.99857143
0.99864836
0.99874547
0.99882237
0.99891948
0.99899635
0.99909346
0.99917029
0.9992674
0.9993442
0.99944129
0.99951806
0.99961515
0.99969189
0.99978897
0.99986567
0.99996274
1.0000394
1.0001365
1.0002131
1.0003102
1.0003868
1.0004838
1.0005604
1.0006574
1.0007339
1.000831
1.0009074
1.0010045
1.0010809
1.001178
1.0012544
1.0013514
1.0014277
1.0015248
1.0016011
1.0016981
1.0017744
1.0018714
1.0019477
1.0020447
1.0021209
1.0022179
1.0022941
1.0023911
1.0024672
1.0025642
1.0026403
1.0027373
1.0028134
1.0029103
1.0029864
1.0030834
1.0031593
1.0032563
1.0033322
1.0034292
1.0035052
1.003602
1.0036781
1.0037748
1.0038509
1.0039476
1.0040235
1.0041205
1.0041961
1.0042934
1.0043686
1.0044661
1.0045413
1.0046386
1.0047141
1.0048109
1.0048871
1.0049828
1.0050603
1.0051545
1.0052336
1.0053261
1.0054069
1.0054977
1.0055801
1.0056693
1.005753
1.005841
1.0059258
1.0060129
1.0060984
1.0061849
1.0062709
1.0063569
1.0064432
1.0065289
1.0066154
1.006701
1.0067875
1.0068731
1.0069596
1.0070451
1.0071316
1.0072171
1.0073035
1.007389
1.0074755
1.0075609
1.0076473
1.0077328
1.0078192
1.0079046
1.007991
1.0080764
1.0081627
1.0082481
1.0083344
1.0084198
1.0085061
1.0085914
1.0086777
1.008763
1.0088493
1.0089346
1.0090208
1.0091061
1.0091923
1.0092776
1.0093637
1.009449
1.0095351
1.0096205
1.0097064
1.0097918
1.0098776
1.0099632
1.0100489
1.0101345
1.0102201
1.0103057
1.0103913
1.010477
1.0105624
1.0106482
1.0107336
1.0108193
1.0109047
1.0109905
1.0110759
1.0111616
1.011247
1.0113327
1.0114181
1.0115038
1.0115892
1.0116749
1.0117602
1.011846
1.0119313
1.012017
1.0121023
1.012188
1.0122733
1.012359
1.0124443
1.0125299
1.0126152
1.0127008
1.0127861
1.0128717
1.0129569
1.0130426
1.0131278
1.0132134
1.0132985
1.0133841
1.0134693
1.0135548
1.01364
1.0137255
1.0138106
1.0138961
1.0139812
1.0140667
1.0141518
1.0142372
1.0143223
1.0144077
1.0144927
1.0145781
1.0146631
1.0147485
1.0148335
1.0149189
1.0150038
1.0150892
1.0151741
1.0152594
1.0153443
1.0154296
1.0155144
1.0155997
1.0156846
1.0157698
1.0158546
1.0159398
1.0160246
1.0161098
1.0161946
1.0162797
1.0163644
1.0164496
1.0165343
1.0166194
1.016704
1.0167891
1.0168737
1.0169588
1.0170434
1.0171284
1.0172129
1.0172979
1.0173825
1.0174674
1.0175519
1.0176368
1.0177213
1.0178061
1.0178906
1.0179754
1.0180598
1.0181445
1.0182289
1.0183136
1.018398
1.0184827
1.0185669
1.0186516
1.0187358
1.0188204
1.0189046
1.0189892
1.0190733
1.0191578
1.0192419
1.0193264
1.0194104
1.0194948
1.0195788
1.0196632
1.0197471
1.0198314
1.0199153
1.0199996
1.0200834
1.0201676
1.0202513
1.0203354
1.0204191
1.0205032
1.0205868
1.0206708
1.0207543
1.0208383
1.0209217
1.0210056
1.021089
1.0211728
1.0212561
1.0213398
1.021423
1.0215067
1.0215898
1.0216733
1.0217564
1.0218399
1.0219228
1.0220062
1.022089
1.0221723
1.0222551
1.0223383
1.022421
1.022504
1.0225866
1.0226696
1.0227521
1.0228349
1.0229173
1.023
1.0230823
1.0231649
1.0232471
1.0233295
1.0234117
1.0234939
1.023576
1.0236581
1.02374
1.023822
1.0239038
1.0239856
1.0240673
1.024149
1.0242306
1.0243121
1.0243935
1.0244748
1.0245561
1.0246373
1.0247184
1.0247994
1.0248803
1.0249612
1.0250419
1.0251226
1.0252032
1.0252836
1.025364
1.0254443
1.0255245
1.0256046
1.0256846
1.0257644
1.0258442
1.0259238
1.0260034
1.0260828
1.0261621
1.0262413
1.0263204
1.0263994
1.0264782
1.026557
1.0266356
1.026714
1.0267924
1.0268706
1.0269487
1.0270266
1.0271044
1.0271821
1.0272596
1.027337
1.0274142
1.0274913
1.0275683
1.0276451
1.0277217
1.0277982
1.0278746
1.0279508
1.0280268
1.0281026
1.0281784
1.0282539
1.0283293
1.0284045
1.0284795
1.0285544
1.0286291
1.0287036
1.0287779
1.0288521
1.028926
1.0289998
1.0290734
1.0291469
1.0292201
1.0292931
1.029366
1.0294386
1.0295111
1.0295834
1.0296554
1.0297273
1.029799
1.0298704
1.0299417
1.0300127
1.0300835
1.0301542
1.0302246
1.0302948
1.0303648
1.0304345
1.0305041
1.0305734
1.0306425
1.0307114
1.03078
1.0308485
1.0309167
1.0309846
1.0310524
1.0311199
1.0311871
1.0312542
1.031321
1.0313876
1.0314539
1.03152
1.0315858
1.0316514
1.0317168
1.0317819
1.0318468
1.0319114
1.0319758
1.03204
1.0321038
1.0321675
1.0322309
1.032294
1.0323569
1.0324195
1.0324819
1.032544
1.0326059
1.0326675
1.0327288
1.0327899
1.0328508
1.0329113
1.0329717
1.0330317
1.0330915
1.0331511
1.0332104
1.0332694
1.0333282
1.0333867
1.0334449
1.0335029
1.0335606
1.0336181
1.0336753
1.0337323
1.033789
1.0338454
1.0339016
1.0339575
1.0340131
1.0340685
1.0341237
1.0341786
1.0342332
1.0342875
1.0343417
1.0343955
1.0344491
1.0345025
1.0345555
1.0346084
1.034661
1.0347133
1.0347654
1.0348172
1.0348688
1.0349201
1.0349711
1.035022
1.0350725
1.0351229
1.0351729
1.0352227
1.0352723
1.0353217
1.0353707
1.0354196
1.0354682
1.0355165
1.0355647
1.0356125
1.0356602
1.0357075
1.0357547
1.0358016
1.0358483
1.0358947
1.0359409
1.0359869
1.0360327
1.0360782
1.0361234
1.0361685
1.0362133
1.0362579
1.0363023
1.0363464
1.0363904
1.0364341
1.0364775
1.0365208
1.0365639
1.0366067
1.0366493
1.0366917
1.0367339
1.0367759
1.0368176
1.0368592
1.0369005
1.0369417
1.0369826
1.0370234
1.0370639
1.0371043
1.0371444
1.0371844
1.0372241
1.0372637
1.037303
1.0373422
1.0373812
1.03742
1.0374586
1.0374971
1.0375353
1.0375734
1.0376113
1.037649
1.0376865
1.0377239
1.0377611
1.0377981
1.037835
1.0378716
1.0379082
1.0379445
1.0379807
1.0380167
1.0380526
1.0380883
1.0381238
1.0381592
1.0381945
1.0382295
1.0382645
1.0382993
1.0383339
1.0383684
1.0384027
1.0384369
1.038471
1.0385049
1.0385387
1.0385723
1.0386058
1.0386392
1.0386724
1.0387055
1.0387385
1.0387713
1.0388041
1.0388366
1.0388691
1.0389015
1.0389337
1.0389658
1.0389978
1.0390296
1.0390614
1.039093
1.0391245
1.0391559
1.0391872
1.0392184
1.0392495
1.0392805
1.0393113
1.0393421
1.0393728
1.0394033
1.0394338
1.0394641
1.0394944
1.0395246
1.0395546
1.0395846
1.0396145
1.0396443
1.039674
1.0397036
1.0397331
1.0397626
1.0397919
1.0398212
1.0398504
1.0398795
1.0399085
1.0399374
1.0399663
1.0399951
1.0400238
1.0400524
1.040081
1.0401095
1.0401379
1.0401663
1.0401946
1.0402228
1.0402509
1.040279
1.040307
1.040335
1.0403629
1.0403907
1.0404185
1.0404462
1.0404738
1.0405014
1.040529
1.0405564
1.0405839
1.0406112
1.0406385
1.0406658
1.040693
1.0407201
1.0407472
1.0407743
1.0408013
1.0408282
1.0408551
1.040882
1.0409088
1.0409355
1.0409622
1.0409889
1.0410155
1.0410421
1.0410686
1.0410951
1.0411215
1.0411479
1.0411742
1.0412005
1.0412268
1.041253
1.0412792
1.0413054
1.0413314
1.0413575
1.0413835
1.0414095
1.0414355
1.0414614
1.0414872
1.0415131
1.0415389
1.0415646
1.0415903
1.041616
1.0416417
1.0416673
1.0416929
1.0417184
1.0417439
1.0417694
1.0417949
1.0418203
1.0418456
1.041871
1.0418963
1.0419216
1.0419468
1.0419721
1.0419973
1.0420224
1.0420476
1.0420727
1.0420978
1.0421228
1.0421478
1.0421728
1.0421977
1.0422227
1.0422475
1.0422724
1.0422973
1.0423221
1.0423469
1.0423716
1.0423964
1.0424211
1.0424458
1.0424705
1.0424951
1.0425197
1.0425443
1.0425689
1.0425934
1.0426179
1.0426424
1.0426669
1.0426913
1.0427157
1.0427401
1.0427645
1.0427888
1.0428131
1.0428374
1.0428617
1.0428859
1.0429101
1.0429343
1.0429585
1.0429826
1.0430068
1.0430309
1.0430549
1.043079
1.043103
1.043127
1.043151
1.043175
1.0431989
1.0432228
1.0432467
1.0432706
1.0432945
1.0433183
1.0433421
1.0433659
1.0433897
1.0434134
1.0434371
1.0434608
1.0434845
1.0435082
1.0435318
1.0435555
1.0435791
1.0436026
1.0436262
1.0436497
1.0436732
1.0436967
1.0437202
1.0437436
1.0437671
1.0437905
1.0438138
1.0438372
1.0438606
1.0438839
1.0439072
1.0439305
1.0439537
1.043977
1.0440002
1.0440234
1.0440466
1.0440698
1.0440929
1.0441161
1.0441392
1.0441623
1.0441854
1.0442084
1.0442315
1.0442545
1.0442775
1.0443005
1.0443234
1.0443464
1.0443693
1.0443922
1.0444151
1.044438
1.0444609
1.0444837
1.0445065
1.0445293
1.0445521
1.0445749
1.0445976
1.0446204
1.0446431
1.0446658
1.0446885
1.0447111
1.0447338
1.0447564
1.044779
1.0448016
1.0448242
1.0448468
1.0448693
1.0448919
1.0449144
1.0449368
1.0449593
1.0449818
1.0450042
1.0450266
1.045049
1.0450714
1.0450938
1.0451161
1.0451384
1.0451607
1.045183
1.0452053
1.0452275
1.0452498
1.045272
1.0452942
1.0453163
1.0453385
1.0453606
1.0453827
1.0454048
1.0454269
1.0454489
1.045471
1.045493
1.045515
1.0455369
1.0455589
1.0455808
1.0456027
1.0456246
1.0456465
1.0456683
1.0456902
1.045712
1.0457338
1.0457556
1.0457773
1.0457991
1.0458208
1.0458424
1.0458641
1.0458858
1.0459074
1.045929
1.0459506
1.0459722
1.0459937
1.0460152
1.0460367
1.0460582
1.0460797
1.0461012
1.0461226
1.046144
1.0461654
1.0461867
1.0462081
1.0462294
1.0462507
1.046272
1.0462932
1.0463145
1.0463357
1.0463569
1.0463781
1.0463993
1.0464204
1.0464415
1.0464626
1.0464837
1.0465048
1.0465258
1.0465468
1.0465678
1.0465888
1.0466097
1.0466307
1.0466516
1.0466725
1.0466934
1.0467142
1.046735
1.0467558
1.0467766
1.0467974
1.0468181
1.0468389
1.0468596
1.0468803
1.0469009
1.0469216
1.0469422
1.0469628
1.0469834
1.047004
1.0470245
1.0470451
1.0470656
1.0470861
1.0471065
1.047127
1.0471474
1.0471678
1.0471882
1.0472085
1.0472288
1.0472491
1.0472694
1.0472897
1.04731
1.0473302
1.0473505
1.0473707
1.0473909
1.047411
1.0474312
1.0474513
1.0474714
1.0474915
1.0475115
1.0475316
1.0475516
1.0475717
1.0475917
1.0476116
1.0476316
1.0476515
1.0476714
1.0476913
1.0477111
1.047731
1.0477508
1.0477707
1.0477905
1.0478103
1.04783
1.0478498
1.0478695
1.0478892
1.0479089
1.0479286
1.0479482
1.0479679
1.0479875
1.0480071
1.0480267
1.0480463
1.0480658
1.0480853
1.0481049
1.0481244
1.0481438
1.0481633
1.0481827
1.0482022
1.0482216
1.0482409
1.0482603
1.0482796
1.0482989
1.0483182
1.0483375
1.0483568
1.048376
1.0483952
1.0484144
1.0484336
1.0484528
1.0484719
1.048491
1.0485102
1.0485292
1.0485483
1.0485673
1.0485864
1.0486054
1.0486244
1.0486433
1.0486623
1.0486812
1.0487001
1.048719
1.0487379
1.0487568
1.0487756
1.0487944
1.0488132
1.0488319
1.0488507
1.0488694
1.0488881
1.0489068
1.0489255
1.0489442
1.0489628
1.0489814
1.049
1.0490185
1.0490371
1.0490556
1.0490741
1.0490926
1.049111
1.0491295
1.0491479
1.0491663
1.0491847
1.0492031
1.0492214
1.0492398
1.0492581
1.0492764
1.0492946
1.0493128
1.0493311
1.0493493
1.0493675
1.0493856
1.0494038
1.0494219
1.04944
1.0494581
1.0494761
1.0494942
1.0495122
1.0495302
1.0495482
1.0495661
1.049584
1.049602
1.0496199
1.0496377
1.0496556
1.0496734
1.0496913
1.0497091
1.0497269
1.0497446
1.0497624
1.0497801
1.0497978
1.0498154
1.0498331
1.0498507
1.0498683
1.0498859
1.0499035
1.0499211
1.0499386
1.0499561
1.0499736
1.0499911
1.0500086
1.050026
1.0500434
1.0500608
1.0500782
1.0500955
1.0501129
1.0501302
1.0501475
1.0501648
1.050182
1.0501992
1.0502165
1.0502337
1.0502508
1.050268
1.0502851
1.0503022
1.0503193
1.0503364
1.0503535
1.0503705
1.0503875
1.0504045
1.0504215
1.0504385
1.0504554
1.0504723
1.0504892
1.0505061
1.050523
1.0505398
1.0505566
1.0505735
1.0505902
1.050607
1.0506238
1.0506405
1.0506572
1.0506739
1.0506906
1.0507072
1.0507239
1.0507405
1.0507571
1.0507736
1.0507902
1.0508067
1.0508233
1.0508398
1.0508562
1.0508727
1.0508892
1.0509056
1.050922
1.0509384
1.0509548
1.0509711
1.0509875
1.0510038
1.0510201
1.0510364
1.0510526
1.0510689
1.0510851
1.0511013
1.0511175
1.0511336
1.0511498
1.0511659
1.051182
1.0511981
1.0512141
1.0512302
1.0512462
1.0512622
1.0512782
1.0512942
1.0513101
1.051326
1.0513419
1.0513578
1.0513737
1.0513895
1.0514053
1.0514211
1.0514369
1.0514527
1.0514684
1.0514841
1.0514998
1.0515154
1.0515311
1.0515467
1.0515623
1.0515778
1.0515934
1.0516089
1.0516244
1.0516398
1.0516553
1.0516707
1.0516861
1.0517015
1.0517168
1.0517321
1.0517474
1.0517626
1.0517779
1.0517931
1.0518082
1.0518234
1.0518385
1.0518536
1.0518687
1.0518837
1.0518987
1.0519137
1.0519286
1.0519435
1.0519584
1.0519733
1.0519881
1.0520028
1.0520176
1.0520323
1.052047
1.0520617
1.0520763
1.0520909
1.0521054
1.05212
1.0521345
1.0521489
1.0521633
1.0521777
1.0521921
1.0522064
1.0522207
1.0522349
1.0522491
1.0522633
1.0522774
1.0522915
1.0523056
1.0523196
1.0523335
1.0523475
1.0523614
1.0523752
1.0523891
1.0524028
1.0524166
1.0524303
1.0524439
1.0524575
1.0524711
1.0524846
1.0524981
1.0525116
1.052525
1.0525383
1.0525516
1.0525649
1.0525781
1.0525913
1.0526045
1.0526175
1.0526306
1.0526436
1.0526566
1.0526694
1.0526823
1.0526951
1.0527079
1.0527206
1.0527333
1.0527459
1.0527585
1.052771
1.0527835
1.0527959
1.0528083
1.0528206
1.0528329
1.0528451
1.0528573
1.0528694
1.0528815
1.0528936
1.0529055
1.0529175
1.0529293
1.0529412
1.0529529
1.0529647
1.0529763
1.0529879
1.0529995
1.053011
1.0530225
1.0530339
1.0530452
1.0530565
1.0530677
1.0530789
1.0530901
1.0531012
1.0531122
1.0531231
1.0531341
1.0531449
1.0531557
1.0531665
1.0531772
1.0531878
1.0531984
1.053209
1.0532194
1.0532299
1.0532402
1.0532506
1.0532608
1.053271
1.0532812
1.0532913
1.0533013
1.0533113
1.0533212
1.0533311
1.053341
1.0533507
1.0533604
1.0533701
1.0533797
1.0533892
1.0533987
1.0534082
1.0534176
1.0534269
1.0534362
1.0534454
1.0534546
1.0534637
1.0534728
1.0534818
1.0534908
1.0534997
1.0535086
1.0535174
1.0535261
1.0535348
1.0535435
1.0535521
1.0535606
1.0535691
1.0535776
1.053586
1.0535944
1.0536027
1.0536109
1.0536191
1.0536272
1.0536353
1.0536434
1.0536514
1.0536594
1.0536673
1.0536751
1.053683
1.0536907
1.0536984
1.0537061
1.0537138
1.0537213
1.0537289
1.0537364
1.0537438
1.0537512
1.0537586
1.0537659
1.0537732
1.0537804
1.0537876
1.0537947
1.0538018
1.0538089
1.0538159
1.0538229
1.0538298
1.0538367
1.0538435
1.0538503
1.0538571
1.0538638
1.0538705
1.0538772
1.0538838
1.0538904
1.0538969
1.0539034
1.0539099
1.0539163
1.0539227
1.053929
1.0539354
1.0539416
1.0539479
1.0539541
1.0539603
1.0539664
1.0539725
1.0539786
1.0539846
1.0539906
1.0539966
1.0540026
1.0540085
1.0540143
1.0540202
1.054026
1.0540318
1.0540375
1.0540433
1.054049
1.0540546
1.0540603
1.0540659
1.0540715
1.054077
1.0540825
1.054088
1.0540935
1.0540989
1.0541043
1.0541097
1.0541151
1.0541204
1.0541257
1.054131
1.0541363
1.0541415
1.0541467
1.0541519
1.0541571
1.0541623
1.0541674
1.0541725
1.0541776
1.0541826
1.0541877
1.0541927
1.0541977
1.0542027
1.0542076
1.0542125
1.0542174
1.0542223
1.0542272
1.0542321
1.0542369
1.0542417
1.0542466
1.0542513
1.0542561
1.0542609
1.0542656
1.0542704
1.0542751
1.0542798
1.0542845
1.0542891
1.0542938
1.0542984
1.054303
1.0543077
1.0543123
1.0543168
1.0543214
1.054326
1.0543305
1.0543351
1.0543396
1.0543441
1.0543487
1.0543532
1.0543577
1.0543622
1.0543666
1.0543711
1.0543756
1.0543801
1.0543845
1.054389
1.0543934
1.0543978
1.0544023
1.0544067
1.0544111
1.0544156
1.05442
1.0544244
1.0544289
1.0544333
1.0544377
1.0544422
1.0544466
1.054451
1.0544555
1.0544599
1.0544643
1.0544688
1.0544732
1.0544777
1.0544821
1.0544866
1.054491
1.0544955
1.0545
1.0545045
1.054509
1.0545135
1.054518
1.0545226
1.0545271
1.0545317
1.0545362
1.0545408
1.0545454
1.05455
1.0545546
1.0545593
1.0545639
1.0545686
1.0545733
1.054578
1.0545827
1.0545875
1.0545922
1.054597
1.0546018
1.0546066
1.0546115
1.0546163
1.0546212
1.0546261
1.054631
1.054636
1.054641
1.054646
1.054651
1.054656
1.0546611
1.0546662
1.0546714
1.0546765
1.0546817
1.0546869
1.0546921
1.0546974
1.0547027
1.054708
1.0547134
1.0547188
1.0547242
1.0547296
1.0547351
1.0547406
1.0547462
1.0547517
1.0547573
1.054763
1.0547686
1.0547743
1.0547801
1.0547858
1.0547916
1.0547975
1.0548034
1.0548093
1.0548152
1.0548212
1.0548272
1.0548333
1.0548393
1.0548455
1.0548516
1.0548578
1.054864
1.0548703
1.0548766
1.0548829
1.0548893
1.0548957
1.0549022
1.0549087
1.0549152
1.0549218
1.0549284
1.054935
1.0549417
1.0549484
1.0549552
1.0549619
1.0549688
1.0549756
1.0549825
1.0549895
1.0549965
1.0550035
1.0550105
1.0550176
1.0550247
1.0550319
1.0550391
1.0550463
1.0550536
1.0550609
1.0550683
1.0550757
1.0550831
1.0550905
1.055098
1.0551056
1.0551131
1.0551207
1.0551284
1.055136
1.0551438
1.0551515
1.0551593
1.0551671
1.0551749
1.0551828
1.0551907
1.0551987
1.0552066
1.0552146
1.0552227
1.0552308
1.0552389
1.055247
1.0552552
1.0552634
1.0552716
1.0552798
1.0552881
1.0552964
1.0553048
1.0553132
1.0553216
1.05533
1.0553384
1.0553469
1.0553554
1.0553639
1.0553725
1.0553811
1.0553897
1.0553983
1.055407
1.0554156
1.0554243
1.0554331
1.0554418
1.0554506
1.0554593
1.0554681
1.055477
1.0554858
1.0554947
1.0555035
1.0555124
1.0555213
1.0555303
1.0555392
1.0555482
1.0555572
1.0555661
1.0555751
1.0555842
1.0555932
1.0556022
1.0556113
1.0556204
1.0556294
1.0556385
1.0556476
1.0556567
1.0556659
1.055675
1.0556841
1.0556933
1.0557024
1.0557116
1.0557207
1.0557299
1.0557391
1.0557483
1.0557575
1.0557667
1.0557759
1.0557851
1.0557943
1.0558035
1.0558127
1.055822
1.0558312
1.0558404
1.0558496
1.0558588
1.055868
1.0558773
1.0558865
1.0558957
1.0559049
1.0559141
1.0559233
1.0559326
1.0559418
1.055951
1.0559602
1.0559694
1.0559786
1.0559878
1.0559969
1.0560061
1.0560153
1.0560245
1.0560336
1.0560428
1.056052
1.0560611
1.0560702
1.0560794
1.0560885
1.0560976
1.0561067
1.0561158
1.0561249
1.0561339
1.056143
1.0561521
1.0561611
1.0561702
1.0561792
1.0561882
1.0561972
1.0562062
1.0562152
1.0562242
1.0562332
1.0562421
1.0562511
1.05626
1.0562689
1.0562778
1.0562867
1.0562956
1.0563045
1.0563133
1.0563222
1.056331
1.0563398
1.0563486
1.0563574
1.0563662
1.056375
1.0563837
1.0563924
1.0564012
1.0564099
1.0564186
1.0564272
1.0564359
1.0564445
1.0564532
1.0564618
1.0564704
1.056479
1.0564876
1.0564961
1.0565047
1.0565132
1.0565217
1.0565302
1.0565387
1.0565471
1.0565556
1.056564
1.0565724
1.0565808
1.0565892
1.0565976
1.0566059
1.0566143
1.0566226
1.0566309
1.0566392
1.0566474
1.0566557
1.0566639
1.0566722
1.0566804
1.0566885
1.0566967
1.0567049
1.056713
1.0567211
1.0567292
1.0567373
1.0567454
1.0567534
1.0567615
1.0567695
1.0567775
1.0567855
1.0567935
1.0568014
1.0568093
1.0568173
1.0568252
1.056833
1.0568409
1.0568488
1.0568566
1.0568644
1.0568722
1.05688
1.0568877
1.0568955
1.0569032
1.0569109
1.0569186
1.0569263
1.056934
1.0569416
1.0569492
1.0569568
1.0569644
1.056972
1.0569795
1.0569871
1.0569946
1.0570021
1.0570096
1.0570171
1.0570245
1.057032
1.0570394
1.0570468
1.0570542
1.0570615
1.0570689
1.0570762
1.0570835
1.0570908
1.0570981
1.0571054
1.0571126
1.0571198
1.0571271
1.0571343
1.0571414
1.0571486
1.0571557
1.0571629
1.05717
1.0571771
1.0571841
1.0571912
1.0571983
1.0572053
1.0572123
1.0572193
1.0572263
1.0572332
1.0572402
1.0572471
1.057254
1.0572609
1.0572678
1.0572746
1.0572814
1.0572883
1.0572951
1.0573019
1.0573086
1.0573154
1.0573221
1.0573288
1.0573355
1.0573422
1.0573489
1.0573556
1.0573622
1.0573688
1.0573754
1.057382
1.0573886
1.0573951
1.0574017
1.0574082
1.0574147
1.0574212
1.0574277
1.0574341
1.0574406
1.057447
1.0574534
1.0574598
1.0574662
1.0574725
1.0574789
1.0574852
1.0574915
1.0574978
1.0575041
1.0575103
1.0575166
1.0575228
1.057529
1.0575352
1.0575414
1.0575476
1.0575537
1.0575599
1.057566
1.0575721
1.0575782
1.0575843
1.0575903
1.0575964
1.0576024
1.0576084
1.0576144
1.0576204
1.0576264
1.0576324
1.0576383
1.0576442
1.0576501
1.057656
1.0576619
1.0576678
1.0576736
1.0576794
1.0576853
1.0576911
1.0576969
1.0577026
1.0577084
1.0577142
1.0577199
1.0577256
1.0577313
1.057737
1.0577427
1.0577484
1.057754
1.0577597
1.0577653
1.0577709
1.0577765
1.057782
1.0577876
1.0577931
1.0577987
1.0578042
1.0578097
1.0578152
1.0578207
1.0578261
1.0578315
1.057837
1.0578424
1.0578478
1.0578532
1.0578585
1.0578639
1.0578692
1.0578745
1.0578799
1.0578851
1.0578904
1.0578957
1.0579009
1.0579061
1.0579114
1.0579166
1.0579218
1.0579269
1.0579321
1.0579372
1.0579423
1.0579474
1.0579525
1.0579576
1.0579626
1.0579677
1.0579727
1.0579777
1.0579827
1.0579877
1.0579926
1.0579976
1.0580025
1.0580074
1.0580123
1.0580171
1.058022
1.0580268
1.0580317
1.0580365
1.0580413
1.058046
1.0580508
1.0580555
1.0580603
1.058065
1.0580696
1.0580743
1.058079
1.0580836
1.0580882
1.0580928
1.0580974
1.058102
1.0581065
1.058111
1.0581155
1.05812
1.0581245
1.058129
1.0581334
1.0581379
1.0581423
1.0581466
1.058151
1.0581554
1.0581597
1.058164
1.0581683
1.0581726
1.0581769
1.0581811
1.0581854
1.0581896
1.0581938
1.0581979
1.0582021
1.0582062
1.0582103
1.0582144
1.0582185
1.0582226
1.0582266
1.0582307
1.0582347
1.0582387
1.0582426
1.0582466
1.0582505
1.0582545
1.0582584
1.0582622
1.0582661
1.05827
1.0582738
1.0582776
1.0582814
1.0582852
1.058289
1.0582927
1.0582965
1.0583002
1.0583039
1.0583075
1.0583112
1.0583148
1.0583184
1.058322
1.0583256
1.0583292
1.0583327
1.0583362
1.0583397
1.0583432
1.0583467
1.0583502
1.0583536
1.0583571
1.0583605
1.0583639
1.0583673
1.0583706
1.058374
1.0583773
1.0583806
1.0583839
1.0583872
1.0583904
1.0583937
1.0583969
1.0584001
1.0584033
1.0584065
1.0584096
1.0584127
1.0584159
1.058419
1.0584221
1.0584251
1.0584282
1.0584312
1.0584342
1.0584373
1.0584403
1.0584432
1.0584462
1.0584491
1.0584521
1.058455
1.0584579
1.0584608
1.0584636
1.0584665
1.0584693
1.0584721
1.0584749
1.0584777
1.0584805
1.0584832
1.058486
1.0584887
1.0584914
1.0584941
1.0584967
1.0584994
1.058502
1.0585046
1.0585072
1.0585098
1.0585124
1.058515
1.0585175
1.0585201
1.0585226
1.0585251
1.0585276
1.05853
1.0585325
1.0585349
1.0585373
1.0585397
1.0585421
1.0585445
1.0585469
1.0585492
1.0585516
1.0585539
1.0585562
1.0585584
1.0585607
1.058563
1.0585652
1.0585674
1.0585696
1.0585718
1.058574
1.0585762
1.0585783
1.0585804
1.0585826
1.0585847
1.0585867
1.0585888
1.0585909
1.0585929
1.0585949
1.0585969
1.0585989
1.0586009
1.0586029
1.0586048
1.0586068
1.0586087
1.0586106
1.0586125
1.0586143
1.0586162
1.058618
1.0586198
1.0586216
1.0586234
1.0586252
1.058627
1.0586287
1.0586304
1.0586321
1.0586338
1.0586355
1.0586372
1.0586388
1.0586405
1.0586421
1.0586437
1.0586453
1.0586469
1.0586484
1.05865
1.0586515
1.058653
1.0586545
1.058656
1.0586574
1.0586589
1.0586603
1.0586617
1.0586631
1.0586645
1.0586658
1.0586672
1.0586685
1.0586698
1.0586711
1.0586724
1.0586737
1.0586749
1.0586761
1.0586774
1.0586786
1.0586797
1.0586809
1.058682
1.0586832
1.0586843
1.0586854
1.0586865
1.0586876
1.0586886
1.0586896
1.0586907
1.0586917
1.0586926
1.0586936
1.0586945
1.0586955
1.0586964
1.0586973
1.0586982
1.0586991
1.0586999
1.0587007
1.0587016
1.0587024
1.0587031
1.0587039
1.0587046
1.0587054
1.0587061
1.0587068
1.0587075
1.0587081
1.0587088
1.0587094
1.05871
1.0587106
1.0587112
1.0587117
1.0587123
1.0587128
1.0587133
1.0587138
1.0587143
1.0587148
1.0587152
1.0587156
1.0587161
1.0587164
1.0587168
1.0587172
1.0587175
1.0587179
1.0587182
1.0587185
1.0587187
1.058719
1.0587192
1.0587195
1.0587197
1.0587199
1.0587201
1.0587202
1.0587204
1.0587205
1.0587206
1.0587207
1.0587208
1.0587208
1.0587209
1.0587209
1.0587209
1.0587209
1.0587209
1.0587209
1.0587208
1.0587207
1.0587206
1.0587205
1.0587204
1.0587203
1.0587201
1.0587199
1.0587198
1.0587196
1.0587193
1.0587191
1.0587189
1.0587186
1.0587183
1.058718
1.0587177
1.0587174
1.058717
1.0587166
1.0587162
1.0587159
1.0587154
1.058715
1.0587145
1.0587141
1.0587136
1.0587131
1.0587126
1.058712
1.0587115
1.0587109
1.0587103
1.0587098
1.0587091
1.0587085
1.0587079
1.0587072
1.0587065
1.0587058
1.0587051
1.0587044
1.0587037
1.0587029
1.0587021
1.0587013
1.0587005
1.0586997
1.0586988
1.058698
1.0586971
1.0586962
1.0586953
1.0586944
1.0586934
1.0586924
1.0586915
1.0586905
1.0586894
1.0586884
1.0586873
1.0586863
1.0586852
1.0586841
1.058683
1.0586818
1.0586807
1.0586795
1.0586783
1.0586771
1.0586758
1.0586746
1.0586734
1.0586721
1.0586708
1.0586695
1.0586682
1.0586668
1.0586655
1.0586641
1.0586627
1.0586613
1.0586599
1.0586585
1.058657
1.0586555
1.058654
1.0586525
1.058651
1.0586494
1.0586478
1.0586463
1.0586446
1.058643
1.0586414
1.0586397
1.058638
1.0586364
1.0586346
1.0586329
1.0586311
1.0586294
1.0586276
1.0586258
1.058624
1.0586221
1.0586203
1.0586184
1.0586165
1.0586146
1.0586126
1.0586107
1.0586087
1.0586068
1.0586048
1.0586027
1.0586007
1.0585986
1.0585966
1.0585945
1.0585923
1.0585902
1.0585881
1.0585859
1.0585837
1.0585814
1.0585792
1.058577
1.0585747
1.0585724
1.0585701
1.0585677
1.0585654
1.0585631
1.0585607
1.0585583
1.0585559
1.0585534
1.058551
1.0585485
1.058546
1.0585435
1.0585409
1.0585384
1.0585358
1.0585332
1.0585306
1.058528
1.0585253
1.0585227
1.05852
1.0585173
1.0585145
1.0585118
1.058509
1.0585062
1.0585034
1.0585006
1.0584977
1.0584949
1.058492
1.0584891
1.0584861
1.0584832
1.0584802
1.0584773
1.0584743
1.0584713
1.0584682
1.0584652
1.0584621
1.058459
1.0584559
1.0584527
1.0584496
1.0584464
1.0584432
1.0584399
1.0584367
1.0584334
1.0584302
1.0584269
1.0584236
1.0584202
1.0584169
1.0584135
1.0584101
1.0584067
1.0584032
1.0583998
1.0583963
1.0583928
1.0583893
1.0583857
1.0583822
1.0583786
1.058375
1.0583714
1.0583678
1.0583641
1.0583605
1.0583568
1.0583531
1.0583494
1.0583456
1.0583419
1.0583381
1.0583343
1.0583305
1.0583267
1.0583228
1.058319
1.0583151
1.0583112
1.0583073
1.0583033
1.0582994
1.0582954
1.0582914
1.0582874
1.0582833
1.0582793
1.0582752
1.058271
1.0582669
1.0582628
1.0582586
1.0582544
1.0582501
1.0582459
1.0582417
1.0582374
1.058233
1.0582287
1.0582243
1.05822
1.0582156
1.0582111
1.0582067
1.0582022
1.0581977
1.0581932
1.0581887
1.0581841
1.0581795
1.058175
1.0581704
1.0581657
1.0581611
1.0581564
1.0581517
1.058147
1.0581423
1.0581376
1.0581328
1.0581279
1.0581232
1.0581184
1.0581135
1.0581087
1.0581038
1.0580989
1.058094
1.0580891
1.0580842
1.0580792
1.0580742
1.0580692
1.0580643
1.0580593
1.0580544
1.0580494
1.0580444
1.0580394
1.0580344
1.0580295
1.0580245
1.0580195
1.0580145
1.0580094
1.0580044
1.0579994
1.0579944
1.0579895
1.0579846
1.0579796
1.0579746
1.0579695
1.0579645
1.0579595
1.0579546
1.0579496
1.0579446
1.0579395
1.0579344
1.0579293
1.0579243
1.0579194
1.0579145
1.0579095
1.0579043
1.057899
1.0578936
1.0578882
1.0578828
1.0578775
1.0578722
1.0578668
1.0578612
1.0578553
1.0578494
1.0578433
1.0578372
1.0578313
1.0578254
1.0578195
1.0578136
1.0578075
1.0578012
1.0577947
1.0577881
1.0577814
1.0577748
1.0577683
1.057762
1.0577558
1.0577496
1.0577434
1.0577372
1.0577308
1.0577242
1.0577175
1.0577107
1.0577038
1.0576971
1.0576906
1.0576844
1.0576786
1.0576731
1.0576678
1.0576626
1.0576573
1.0576518
1.0576459
1.0576396
1.0576328
1.0576257
1.0576184
1.0576108
1.057603
1.0575952
1.0575872
1.0575789
1.0575698
1.0575586
1.0575426
1.0575133
1.0574466
1.0572729
1.0567925
1.0554334
1.0529302
1.0501645
1.0472307
1.0441847
1.0410791
1.0379636
1.0348842
1.0318818
1.028991
1.0262399
1.0236504
1.0212383
1.0190133
1.0169803
1.0151394
1.0134869
1.012016
1.0107173
1.0095796
1.0085906
1.007737
1.0070055
1.0063829
1.0058564
1.005414
1.0050445
1.0047376
1.0044843
1.0042762
1.0041063
1.0039683
1.0038567
1.0037668
1.0036948
1.0036372
1.0035913
1.0035547
1.0035256
1.0035022
1.0034834
1.0034681
1.0034554
1.0034446
1.0034349
1.003426
1.0034174
1.0034094
1.0034032
1.0033993
1.0033953
1.003391
1.0033866
1.003382
1.0033773
1.0033724
1.0033674
1.0033623
1.0033572
1.0033519
1.0033466
1.0033411
1.0033357
1.0033302
1.0033246
1.003319
1.0033134
1.0033078
1.0033021
1.0032965
1.0032908
1.0032852
1.0032796
1.003274
1.0032684
1.0032629
1.0032574
1.0032519
1.0032464
1.0032409
1.0032355
1.00323
1.0032246
1.0032192
1.0032137
1.0032083
1.0032028
1.0031973
1.0031918
1.0031863
1.0031807
1.0031751
1.0031694
1.0031637
1.003158
1.0031522
1.0031463
1.0031404
1.0031345
1.0031284
1.0031224
1.0031163
1.0031101
1.0031039
1.0030976
1.0030913
1.0030849
1.0030785
1.003072
1.0030655
1.003059
1.0030524
1.0030458
1.0030392
1.0030325
1.0030258
1.003019
1.0030123
1.0030055
1.0029987
1.0029918
1.0029849
1.002978
1.0029711
1.0029641
1.0029572
1.0029501
1.0029431
1.0029361
1.002929
1.0029219
1.0029148