-1.25 	306.266661678207 	0.0002331426543657215 	101325.0106814149
-1.247497497497497 	299.9872712099013 	0.0001790966633697751 	101325.0278835027
-1.244994994994995 	300.0010872797918 	0.0001344761273519018 	101325.0134932105
-1.242492492492492 	300.000029279157 	0.0001709144688188914 	101325.0263494158
-1.23998998998999 	300.0000122067639 	0.0003089351217531996 	101325.0144087499
-1.237487487487487 	300.0000210693627 	0.0004234591172724202 	101325.0249045692
-1.234984984984985 	300.0000121477594 	0.0005205600165983669 	101325.0143656403
-1.232482482482482 	300.0000189768919 	0.0006034591657221513 	101325.0224234674
-1.22997997997998 	300.0000119475006 	0.0006785675572604143 	101325.0141341098
-1.227477477477477 	300.0000180056491 	0.0007384828552877268 	101325.0212736598
-1.224974974974975 	300.000011156817 	0.0007890066311096894 	101325.0132025916
-1.222472472472472 	300.0000179595516 	0.0008182243716115906 	101325.0212214313
-1.21996996996997 	300.0000156304723 	0.0008230627453220576 	101325.0184957217
-1.217467467467467 	300.0000176777679 	0.000798543201539583 	101325.0208856277
-1.214964964964965 	300.0000151296967 	0.0007705823784424701 	101325.0179010126
-1.212462462462462 	300.0000164662289 	0.0007369239616736687 	101325.0194500821
-1.20995995995996 	300.000014555653 	0.0007025091031542828 	101325.0172214486
-1.207457457457457 	300.0000159252514 	0.000659558616056159 	101325.0188143058
-1.204954954954955 	300.0000151364687 	0.0006217164473272755 	101325.017912609
-1.202452452452452 	300.0000162973183 	0.0005760924618913698 	101325.0192523813
-1.19994994994995 	300.0000147566503 	0.0005366242403403366 	101325.0174606161
-1.197447447447447 	300.000015833695 	0.000491347188460626 	101325.0187004501
-1.194944944944945 	300.0000143834321 	0.0004510816056637874 	101325.0170161277
-1.192442442442442 	300.0000152334974 	0.0004030483467496449 	101325.0179925708
-1.18993993993994 	300.0000148301851 	0.0003632715814698065 	101325.017552104
-1.187437437437437 	300.0000156039222 	0.0003139735159497966 	101325.0184351919
-1.184934934934935 	300.0000152759166 	0.0002760333715530633 	101325.0180792637
-1.182432432432432 	300.0000159144416 	0.000229322001126733 	101325.0187976801
-1.17992992992993 	300.0000150041718 	0.0001931760500920644 	101325.0177529945
-1.177427427427427 	300.0000154631783 	0.0001496855049144063 	101325.0182617072
-1.174924924924925 	300.0000143579169 	0.0001155648155308403 	101325.0169898139
-1.172422422422422 	300.0000146588623 	7.417780340733872e-05 	101325.017311739
-1.16991991991992 	300.0000139547903 	4.270533291163074e-05 	101325.0165141518
-1.167417417417417 	300.000014150876 	5.749146926056641e-05 	101325.0167155352
-1.164914914914915 	300.0000139880299 	2.49180330593664e-05 	101325.0165528702
-1.162412412412412 	300.0000141356401 	6.232365934500835e-05 	101325.0166939374
-1.15990990990991 	300.0000141985506 	8.574387645079773e-05 	101325.0168004198
-1.157407407407407 	300.0000142187563 	0.0001193936294681389 	101325.0167937839
-1.154904904904904 	300.0000143094061 	0.0001382904764389129 	101325.0169313246
-1.152402402402403 	300.0000141490648 	0.0001672831123325382 	101325.0167137391
-1.1498998998999 	300.0000141878435 	0.0001814701290193167 	101325.0167879818
-1.147397397397397 	300.000013816976 	0.0002052443084275338 	101325.0163235547
-1.144894894894895 	300.000013889058 	0.0002140479834050731 	101325.0164327136
-1.142392392392392 	300.0000134182012 	0.0002320100201565768 	101325.0158504553
-1.13988988988989 	300.0000135418033 	0.0002338668895173778 	101325.0160188896
-1.137387387387387 	300.0000131517376 	0.0002418000560225513 	101325.0155368092
-1.134884884884885 	300.0000131595424 	0.0002311958839701215 	101325.0155644593
-1.132382382382382 	300.0000129302059 	0.0002318944494923767 	101325.0152763779
-1.12987987987988 	300.0000129643921 	0.0002179687152141043 	101325.0153388146
-1.127377377377377 	300.0000128399381 	0.0002175369958590713 	101325.0151711571
-1.124874874874875 	300.0000129605357 	0.000202036554596099 	101325.0153295809
-1.122372372372372 	300.0000129221147 	0.0002014653438518233 	101325.0152701575
-1.11986986986987 	300.0000130860238 	0.0001850058001153239 	101325.0154772923
-1.117367367367367 	300.0000130727249 	0.0001846031818330227 	101325.015447494
-1.114864864864865 	300.000013218369 	0.0001676585459931901 	101325.0156329714
-1.112362362362362 	300.0000131766996 	0.0001675356436691766 	101325.0155727414
-1.10985985985986 	300.0000132722284 	0.0001504463300680624 	101325.0156969108
-1.107357357357357 	300.0000131778456 	0.0001506429629468371 	101325.015574558
-1.104854854854855 	300.0000132038277 	0.0001336840467623429 	101325.0156138494
-1.102352352352353 	300.0000130393613 	0.0001341835728305221 	101325.0154098829
-1.09984984984985 	300.0000129875511 	0.0001175789819694929 	101325.0153561952
-1.097347347347347 	300.0000127601774 	0.0001183808645649598 	101325.0150795383
-1.094844844844845 	300.0000126540656 	0.0001022312380172894 	101325.0149614167
-1.092342342342342 	300.0000124056429 	0.0001034340121139358 	101325.0146627757
-1.08983983983984 	300.0000122928972 	8.77019667685522e-05 	101325.0145364265
-1.087337337337337 	300.0000120759313 	8.94740253385307e-05 	101325.0142751374
-1.084834834834835 	300.0000119944979 	7.40797776228266e-05 	101325.0141827944
-1.082332332332332 	300.0000118319666 	7.656440320899394e-05 	101325.0139862373
-1.07982982982983 	300.0000117859863 	6.147220053385929e-05 	101325.0139342884
-1.077327327327327 	300.0000116691636 	6.473580045161684e-05 	101325.013792798
-1.074824824824825 	300.0000116393558 	4.997661074801219e-05 	101325.0137600354
-1.072322322322323 	300.000011542 	5.400352676239271e-05 	101325.0136430643
-1.06981981981982 	300.0000115028417 	3.966068520767749e-05 	101325.0135988063
-1.067317317317317 	300.0000114004191 	4.438403241443331e-05 	101325.0134760417
-1.064814814814815 	300.0000113354135 	3.054221743852584e-05 	101325.0134003868
-1.062312312312312 	300.0000112183479 	3.590416732238406e-05 	101325.0132609284
-1.05980980980981 	300.0000111291162 	2.985791182509854e-05 	101325.0131566876
-1.057307307307307 	300.0000110054183 	3.390897225937737e-05 	101325.0130103081
-1.054804804804805 	300.0000109056427 	2.989008359323939e-05 	101325.0128930594
-1.052302302302302 	300.0000107871044 	3.265684542262402e-05 	101325.0127521735
-1.0497997997998 	300.000010686044 	2.981476925180827e-05 	101325.01263299
-1.047297297297297 	300.0000105753948 	3.154168407851731e-05 	101325.0125022756
-1.044794794794795 	300.0000104767009 	2.965305867337598e-05 	101325.0123857803
-1.042292292292292 	300.0000103750781 	3.057319750316833e-05 	101325.0122654962
-1.03978978978979 	300.0000102805096 	2.941569932939277e-05 	101325.0121536104
-1.037287287287287 	300.0000101870933 	2.975171052009256e-05 	101325.0120427064
-1.034784784784785 	300.0000100977222 	2.911418499398165e-05 	101325.0119367443
-1.032282282282283 	300.0000100104978 	2.9061092702799e-05 	101325.0118339157
-1.02977977977978 	300.0000099248701 	2.874830986370787e-05 	101325.0117328416
-1.027277277277277 	300.0000098404927 	2.846688276441174e-05 	101325.011633078
-1.024774774774775 	300.0000097547543 	2.831481693591078e-05 	101325.0115314746
-1.022272272272272 	300.0000096683549 	2.793638496231363e-05 	101325.0114293
-1.01976976976977 	300.0000095802225 	2.781518677575586e-05 	101325.0113255718
-1.017267267267267 	300.0000094926843 	2.745658316336503e-05 	101325.011222914
-1.014764764764765 	300.000009406935 	2.726518582200962e-05 	101325.0111219563
-1.012262262262262 	300.0000093247897 	2.70105673214327e-05 	101325.0110244539
-1.00975975975976 	300.0000092465982 	2.678560815283569e-05 	101325.0109310767
-1.007257257257257 	300.000009171552 	2.656511270985809e-05 	101325.0108415853
-1.004754754754755 	300.0000090973064 	2.634910648443516e-05 	101325.0107538442
-1.002252252252252 	300.0000090207639 	2.612867570165823e-05 	101325.0106642365
-0.9997497497497498 	300.0000089392952 	2.589278304990385e-05 	101325.0105686698
-0.9972472472472473 	300.0000088506526 	2.563649199813791e-05 	101325.0104636247
-0.9947447447447449 	300.0000087530499 	2.535135275169383e-05 	101325.0103471117
-0.9922422422422421 	300.0000086455215 	2.503567526080035e-05 	101325.0102188498
-0.9897397397397399 	300.0000085284106 	2.46968807245229e-05 	101325.01008048
-0.9872372372372376 	300.0000084050583 	2.434331882823873e-05 	101325.0099360237
-0.9847347347347346 	300.0000082816242 	2.399336070765894e-05 	101325.0097917677
-0.9822322322322323 	300.0000081659547 	2.366420997631531e-05 	101325.0096555593
-0.9797297297297296 	300.0000080648806 	2.336920989192796e-05 	101325.0095351203
-0.9772272272272275 	300.0000079821547 	2.312590092411728e-05 	101325.0094356961
-0.9747247247247248 	300.0000079178573 	2.293582201044148e-05 	101325.0093585971
-0.9722222222222224 	300.0000078682667 	2.278932594003543e-05 	101325.0093003109
-0.9697197197197196 	300.0000078267308 	2.266987039679969e-05 	101325.0092524654
-0.9672172172172175 	300.000007784014 	2.254526150272639e-05 	101325.0092033704
-0.9647147147147147 	300.0000077299999 	2.238630793653774e-05 	101325.0091402139
-0.9622122122122124 	300.0000076559025 	2.217037014921215e-05 	101325.009052373
-0.9597097097097099 	300.0000075573449 	2.188311750975447e-05 	101325.008934917
-0.9572072072072073 	300.0000074357862 	2.153235615855463e-05 	101325.0087900629
-0.9547047047047047 	300.0000072983802 	2.113588128309235e-05 	101325.0086265036
-0.9522022022022023 	300.0000071554792 	2.072146879496227e-05 	101325.0084570282
-0.9496996996996998 	300.0000070186826 	2.032784107499027e-05 	101325.0082951333
-0.9471971971971973 	300.0000068980019 	1.998057270046254e-05 	101325.0081523531
-0.9446946946946947 	300.0000067994843 	1.969557051397109e-05 	101325.0080359171
-0.9421921921921923 	300.0000067242725 	1.947757314267602e-05 	101325.0079468547
-0.93968968968969 	300.0000066678837 	1.930985872726542e-05 	101325.0078800169
-0.9371871871871872 	300.0000066213894 	1.917089661789225e-05 	101325.0078250677
-0.9346846846846848 	300.000006573799 	1.903120719911768e-05 	101325.0077690946
-0.9321821821821823 	300.0000065154689 	1.886003646682329e-05 	101325.0077005213
-0.9296796796796799 	300.0000064399976 	1.86429049254628e-05 	101325.007611675
-0.9271771771771771 	300.0000063452824 	1.8370988391525e-05 	101325.0075001605
-0.9246746746746748 	300.0000062345364 	1.805197162589866e-05 	101325.0073695497
-0.9221721721721724 	300.0000061149727 	1.771072626558265e-05 	101325.0072283495
-0.9196696696696698 	300.0000059959053 	1.737059564060325e-05 	101325.0070877251
-0.9171671671671672 	300.0000058863627 	1.705519050793166e-05 	101325.0069582407
-0.9146646646646649 	300.0000057917804 	1.678061500426127e-05 	101325.0068461508
-0.9121621621621623 	300.0000057124008 	1.654681348591087e-05 	101325.0067520688
-0.9096596596596597 	300.0000056440937 	1.634656739908035e-05 	101325.0066713092
-0.9071571571571573 	300.0000055801282 	1.616029951220534e-05 	101325.0065956068
-0.9046546546546547 	300.0000055130919 	1.596392610337694e-05 	101325.0065163568
-0.9021521521521524 	300.0000054372267 	1.574456235151669e-05 	101325.0064269076
-0.8996496496496498 	300.0000053498698 	1.549167523451552e-05 	101325.0063237825
-0.8971471471471473 	300.000005251411 	1.520677432956671e-05 	101325.0062074555
-0.894644644644645 	300.0000051451921 	1.490260146223688e-05 	101325.0060820376
-0.892142142142142 	300.0000050364753 	1.45899103657241e-05 	101325.0059537187
-0.8896396396396397 	300.0000049302114 	1.428336839469343e-05 	101325.0058282841
-0.8871371371371374 	300.000004828894 	1.399124692087614e-05 	101325.0057087791
-0.8846346346346349 	300.0000047337895 	1.371522988008335e-05 	101325.0055963617
-0.8821321321321324 	300.0000046449893 	1.345929522112557e-05 	101325.005491235
-0.8796296296296297 	300.0000045611721 	1.321700482710178e-05 	101325.0053920691
-0.8771271271271271 	300.0000044808252 	1.298224974676205e-05 	101325.0052971067
-0.8746246246246248 	300.0000044026288 	1.275375713755044e-05 	101325.0052046367
-0.8721221221221224 	300.0000043242194 	1.252401096436012e-05 	101325.0051119069
-0.8696196196196196 	300.0000042428662 	1.228797122217483e-05 	101325.0050156658
-0.8671171171171175 	300.0000041572362 	1.204127252677036e-05 	101325.0049143465
-0.8646146146146148 	300.0000040679227 	1.17831357976073e-05 	101325.0048089741
-0.8621121121121121 	300.0000039770674 	1.152077294947763e-05 	101325.0047017472
-0.8596096096096097 	300.0000038848714 	1.125357492601096e-05 	101325.0045927814
-0.857107107107107 	300.0000037899738 	1.097792723869378e-05 	101325.0044805614
-0.8546046046046049 	300.0000036919107 	1.069350215226742e-05 	101325.0043643952
-0.8521021021021022 	300.0000035899475 	1.039669492762433e-05 	101325.0042437283
-0.8495995995995997 	300.0000034829013 	1.008598584378509e-05 	101325.0041173643
-0.8470970970970974 	300.0000033700042 	9.760678660553439e-06 	101325.0039842888
-0.8445945945945946 	300.0000032532099 	9.424682467901514e-06 	101325.0038462663
-0.8420920920920922 	300.000003138633 	9.097209482801534e-06 	101325.0037104162
-0.8395895895895897 	300.0000030349362 	8.799480529863249e-06 	101325.0035874155
-0.8370870870870872 	300.0000029490565 	8.549431363248705e-06 	101325.0034856314
-0.8345845845845846 	300.0000028837042 	8.359312972281565e-06 	101325.0034084275
-0.8320820820820823 	300.0000028371973 	8.223591667547088e-06 	101325.0033538946
-0.8295795795795798 	300.0000028043803 	8.12694345513377e-06 	101325.0033156036
-0.8270770770770772 	300.0000027759535 	8.040447095386463e-06 	101325.0032821859
-0.8245745745745746 	300.0000027373401 	7.921538034818418e-06 	101325.0032365793
-0.8220720720720721 	300.0000026734245 	7.733527252010405e-06 	101325.0031607963
-0.8195695695695699 	300.0000025761 	7.452854846281357e-06 	101325.0030454593
-0.817067067067067 	300.0000024493874 	7.08952020477093e-06 	101325.0028955959
-0.8145645645645651 	300.0000023076771 	6.686078268804999e-06 	101325.0027281018
-0.8120620620620621 	300.0000021686078 	6.286466498789255e-06 	101325.0025636159
-0.8095595595595597 	300.0000020434031 	5.924769483959045e-06 	101325.0024156681
-0.8070570570570572 	300.0000019360127 	5.614924745956653e-06 	101325.0022889756
-0.8045545545545546 	300.0000018466666 	5.35627656139703e-06 	101325.0021833992
-0.8020520520520523 	300.0000017748728 	5.149459117957082e-06 	101325.002098086
-0.7995495495495494 	300.0000017205089 	4.990072819924327e-06 	101325.0020331958
-0.7970470470470474 	300.000001680616 	4.868483483618528e-06 	101325.00198568
-0.7945445445445446 	300.0000016465913 	4.765327837250055e-06 	101325.0019455538
-0.7920420420420423 	300.0000016049584 	4.641332005128199e-06 	101325.0018970931
-0.7895395395395397 	300.0000015413699 	4.455322240333128e-06 	101325.0018230578
-0.7870370370370371 	300.0000014454547 	4.178597155277924e-06 	101325.0017105282
-0.7845345345345348 	300.0000013162571 	3.806571328221807e-06 	101325.0015578165
-0.7820320320320323 	300.0000011633675 	3.368351949171428e-06 	101325.0013760739
-0.7795295295295296 	300.0000010039218 	2.911582185084382e-06 	101325.0011862159
-0.7770270270270272 	300.0000008574509 	2.49013042731241e-06 	101325.0010118254
-0.7745245245245247 	300.0000007394702 	2.150955338846816e-06 	101325.0008719163
-0.7720220220220222 	300.0000006579724 	1.916261427026834e-06 	101325.0007760115
-0.7695195195195199 	300.00000061209 	1.78244171004053e-06 	101325.0007228818
-0.767017017017017 	300.0000005908716 	1.717766750512339e-06 	101325.0006988528
-0.7645145145145147 	300.0000005767399 	1.671777689594516e-06 	101325.0006827188
-0.7620120120120122 	300.0000005517966 	1.594754896438076e-06 	101325.0006535006
-0.7595095095095097 	300.0000005019483 	1.448445174718336e-06 	101325.0005950568
-0.7570070070070072 	300.0000004209716 	1.214549912551482e-06 	101325.0005000838
-0.7545045045045048 	300.0000003096755 	8.965114070207754e-07 	101325.0003695239
-0.7520020020020022 	300.000000175223 	5.132293628328374e-07 	101325.0002116721
-0.7494994994994997 	300.0000000295132 	1.398546491194423e-07 	101325.0000397607
-0.7469969969969972 	299.9999998853082 	3.192455467563602e-07 	101324.9998685394
-0.7444944944944945 	299.9999997556253 	6.933002510257577e-07 	101324.9997138541
-0.7419919919919924 	299.999999651982 	9.93799032714427e-07 	101324.9995897349
-0.7394894894894897 	299.9999995804256 	1.203037195173558e-06 	101324.9995041064
-0.7369869869869872 	299.9999995394799 	1.326297286932352e-06 	101324.9994551779
-0.7344844844844846 	299.9999995182174 	1.393384011503218e-06 	101324.9994302235
-0.7319819819819822 	299.999999500271 	1.45002399690623e-06 	101324.9994094972
-0.7294794794794797 	299.9999994693794 	1.541772958504624e-06 	101324.9993737778
-0.7269769769769773 	299.9999994147803 	1.699660289732059e-06 	101324.9993100514
-0.7244744744744747 	299.9999993332876 	1.933095180958009e-06 	101324.9992143858
-0.721971971971972 	299.99999922978 	2.228911334789527e-06 	101324.999092249
-0.7194694694694695 	299.9999991144854 	2.561251363329969e-06 	101324.9989551027
-0.7169669669669674 	299.9999989971378 	2.902726362201726e-06 	101324.9988147997
-0.7144644644644647 	299.9999988847068 	3.23247706187494e-06 	101324.9986796819
-0.711961961961962 	299.9999987802791 	3.53900633438456e-06 	101324.9985543241
-0.7094594594594597 	299.9999986858811 	3.813114361291761e-06 	101324.9984418196
-0.7069569569569573 	299.9999986048961 	4.045290511415729e-06 	101324.9983462163
-0.7044544544544545 	299.9999985420943 	4.223596650799791e-06 	101324.9982728632
-0.7019519519519523 	299.9999985014745 	4.338110159023249e-06 	101324.9982260189
-0.6994494494494495 	299.9999984826474 	4.392562281412823e-06 	101324.998204908
-0.6969469469469471 	299.9999984783869 	4.408172374985911e-06 	101324.9982005339
-0.6944444444444446 	299.9999984740444 	4.425961660857022e-06 	101324.9981958925
-0.6919419419419421 	299.9999984521041 	4.494905464828958e-06 	101324.998170337
-0.6894394394394396 	299.9999983973408 	4.654674580334312e-06 	101324.9981062676
-0.6869369369369374 	299.9999983038347 	4.922588518250555e-06 	101324.9979962843
-0.6844344344344344 	299.9999981781486 	5.278507615891097e-06 	101324.99784814
-0.6819319319319321 	299.9999980386877 	5.672853678569377e-06 	101324.997683603
-0.6794294294294296 	299.9999979093203 	6.041072581959183e-06 	101324.9975304836
-0.6769269269269272 	299.9999978100915 	6.325410377739785e-06 	101324.9974126606
-0.6744244244244245 	299.999997751369 	6.498865676296421e-06 	101324.9973422719
-0.6719219219219222 	299.9999977300472 	6.56664122314331e-06 	101324.997316306
-0.6694194194194195 	299.99999773301 	6.565853358605856e-06 	101324.9973192147
-0.6669169169169172 	299.9999977422813 	6.545557559542159e-06 	101324.9973301753
-0.6644144144144146 	299.9999977422364 	6.547752408488543e-06 	101324.9973307401
-0.661911911911912 	299.9999977233726 	6.602709773092904e-06 	101324.9973091331
-0.6594094094094097 	299.9999976818359 	6.721407040799445e-06 	101324.9972605175
-0.656906906906907 	299.9999976178643 	6.905484711878563e-06 	101324.9971850217
-0.6544044044044046 	299.9999975343434 	7.147063359634198e-06 	101324.9970860072
-0.6519019019019021 	299.9999974365247 	7.428417713446461e-06 	101324.9969698617
-0.6493993993993996 	299.9999973329209 	7.72532850235508e-06 	101324.9968469516
-0.6468968968968971 	299.9999972358111 	8.001439647313681e-06 	101324.9967319296
-0.6443943943943946 	299.999997159534 	8.218422851012175e-06 	101324.9966415389
-0.6418918918918921 	299.9999971161586 	8.34382775095739e-06 	101324.9965897317
-0.6393893893893897 	299.9999971101403 	8.36506368484045e-06 	101324.9965818565
-0.6368868868868871 	299.999997134998 	8.300844720086589e-06 	101324.9966105863
-0.6343843843843846 	299.9999971738771 	8.196560404244075e-06 	101324.9966563756
-0.6318818818818821 	299.9999972044561 	8.114011848875834e-06 	101324.9966932105
-0.6293793793793795 	299.9999972068848 	8.109009925159374e-06 	101324.9966971066
-0.6268768768768773 	299.9999971696629 	8.213808115538055e-06 	101324.9966542119
-0.6243743743743745 	299.9999970944695 	8.42563949147011e-06 	101324.996565863
-0.6218718718718721 	299.9999969949623 	8.706723424082021e-06 	101324.9964480485
-0.6193693693693696 	299.9999968910927 	9.000810265631756e-06 	101324.9963250987
-0.6168668668668671 	299.9999968035683 	9.249871731102736e-06 	101324.9962211516
-0.6143643643643645 	299.9999967464199 	9.413154067425419e-06 	101324.9961535045
-0.6118618618618621 	299.9999967255295 	9.473805555645949e-06 	101324.9961292627
-0.6093593593593596 	299.9999967384478 	9.438648412820307e-06 	101324.9961450061
-0.6068568568568571 	299.9999967753636 	9.336578847719919e-06 	101324.996188807
-0.6043543543543546 	299.9999968223552 	9.206008792654672e-06 	101324.9962439552
-0.6018518518518521 	299.9999968648245 	9.089117689820729e-06 	101324.9962932765
-0.5993493493493496 	299.9999968901442 	9.021338662709174e-06 	101324.9963223588
-0.5968468468468471 	299.9999968896915 	9.025127290436274e-06 	101324.9963214287
-0.5943443443443446 	299.9999968600828 	9.110326676059959e-06 	101324.9962865807
-0.591841841841842 	299.9999968038148 	9.268282603979399e-06 	101324.9962208189
-0.5893393393393397 	299.9999967302347 	9.474111757742896e-06 	101324.9961346511
-0.5868368368368371 	299.9999966539103 	9.688410704958955e-06 	101324.9960449048
-0.5843343343343346 	299.999996591096 	9.864734980467264e-06 	101324.9959708804
-0.5818318318318321 	299.9999965559525 	9.96350981777227e-06 	101324.9959293322
-0.5793293293293297 	299.9999965565142 	9.960955538601544e-06 	101324.995930101
-0.5768268268268271 	299.9999965931675 	9.857397212364458e-06 	101324.9959733437
-0.5743243243243245 	299.9999966575218 	9.677055134765239e-06 	101324.9960491771
-0.5718218218218221 	299.9999967344568 	9.462646072388061e-06 	101324.9961396546
-0.5693193193193196 	299.9999968054752 	9.265986342727453e-06 	101324.9962227411
-0.5668168168168171 	299.999996852938 	9.13465536104151e-06 	101324.9962779582
-0.5643143143143147 	299.9999968658021 	9.100264592168424e-06 	101324.9962922458
-0.5618118118118121 	299.9999968423397 	9.16781761879332e-06 	101324.9962636203
-0.5593093093093094 	299.9999967903234 	9.313875421175463e-06 	101324.9962018152
-0.5568068068068072 	299.9999967253326 	9.494663878887742e-06 	101324.9961253502
-0.5543043043043046 	299.9999966658048 	9.658292353004369e-06 	101324.9960558523
-0.551801801801802 	299.9999966283447 	9.758524175500331e-06 	101324.9960129374
-0.5492992992992995 	299.9999966253204 	9.763197746988424e-06 	101324.9960104708
-0.5467967967967969 	299.9999966608869 	9.659498760116758e-06 	101324.9960534233
-0.5442942942942947 	299.999996731283 	9.457513360618464e-06 	101324.9961372379
-0.5417917917917919 	299.9999968258905 	9.18725881597443e-06 	101324.9962494861
-0.5392892892892895 	299.9999969300054 	8.891056640367227e-06 	101324.9963726782
-0.536786786786787 	299.9999970283836 	8.611075045437906e-06 	101324.9964889231
-0.5342842842842846 	299.99999710904 	8.380701572760628e-06 	101324.9965842162
-0.531781781781782 	299.999997164873 	8.220010599193468e-06 	101324.9966500884
-0.5292792792792794 	299.9999971944159 	8.133651232190336e-06 	101324.996684562
-0.526776776776777 	299.9999972006593 	8.115586892350845e-06 	101324.9966912642
-0.5242742742742745 	299.9999971893023 	8.149222453354075e-06 	101324.9966767784
-0.521771771771772 	299.9999971670215 	8.212621928710392e-06 	101324.9966493072
-0.5192692692692695 	299.9999971417343 	8.284395068515891e-06 	101324.9966184965
-0.516766766766767 	299.9999971218838 	8.340274136072017e-06 	101324.9965940496
-0.5142642642642645 	299.999997115144 	8.359191092112732e-06 	101324.9965854774
-0.511761761761762 	299.9999971282353 	8.322337017440472e-06 	101324.9966006186
-0.5092592592592596 	299.9999971640041 	8.219376575846397e-06 	101324.9966428963
-0.506756756756757 	299.9999972200806 	8.057201743810171e-06 	101324.9967097862
-0.5042542542542544 	299.9999972906082 	7.853948379025698e-06 	101324.9967939553
-0.5017517517517521 	299.9999973663498 	7.635685238806715e-06 	101324.9968845895
-0.4992492492492494 	299.9999974395441 	7.421943109403765e-06 	101324.9969723267
-0.496746746746747 	299.999997506663 	7.223258092487511e-06 	101324.9970528765
-0.4942442442442445 	299.999997568087 	7.041979755863537e-06 	101324.9971264709
-0.4917417417417421 	299.9999976262988 	6.869165069907109e-06 	101324.9971960224
-0.4892392392392395 	299.999997685448 	6.69657919495404e-06 	101324.9972663831
-0.486736736736737 	299.9999977482709 	6.513643168945413e-06 	101324.9973409345
-0.4842342342342345 	299.9999978159463 	6.316058560417278e-06 	101324.9974210741
-0.481731731731732 	299.9999978885704 	6.108591089878887e-06 	101324.9975065973
-0.4792292292292296 	299.9999979625437 	5.896764222612986e-06 	101324.997593819
-0.4767267267267268 	299.9999980341399 	5.690345803687889e-06 	101324.9976782828
-0.4742242242242246 	299.999998101946 	5.493297520757088e-06 	101324.9977579898
-0.471721721721722 	299.9999981659224 	5.30815488855574e-06 	101324.9978333774
-0.4692192192192195 	299.9999982276071 	5.13057106617368e-06 	101324.9979059631
-0.4667167167167169 	299.9999982895424 	4.951322993435566e-06 	101324.9979790371
-0.4642142142142145 	299.9999983534321 	4.766866148231411e-06 	101324.9980541419
-0.461711711711712 	299.9999984203725 	4.570732983428627e-06 	101324.998133068
-0.4592092092092094 	299.9999984916115 	4.364142735790682e-06 	101324.9982171486
-0.456706706706707 	299.999998568136 	4.145429571253589e-06 	101324.9983074583
-0.4542042042042045 	299.9999986485093 	3.912475243984507e-06 	101324.9984026454
-0.451701701701702 	299.9999987318852 	3.672267837355451e-06 	101324.9985011554
-0.4491991991991995 	299.9999988154613 	3.431097122724259e-06 	101324.9985998913
-0.4466966966966969 	299.9999988967882 	3.196281485920816e-06 	101324.9986959486
-0.4441941941941945 	299.9999989754631 	2.968975571471102e-06 	101324.9987887077
-0.441691691691692 	299.9999990521367 	2.746325872085123e-06 	101324.998879323
-0.4391891891891895 	299.9999991288734 	2.523457570253483e-06 	101324.9989699068
-0.436686686686687 	299.9999992069011 	2.296031973205017e-06 	101324.9990622442
-0.4341841841841846 	299.9999992875854 	2.063435512856268e-06 	101324.9991576832
-0.431681681681682 	299.9999993703359 	1.821076518539715e-06 	101324.9992557791
-0.4291791791791794 	299.9999994571822 	1.568818949816546e-06 	101324.9993586251
-0.426676676676677 	299.9999995483862 	1.305531903065474e-06 	101324.9994665681
-0.4241741741741744 	299.999999643871 	1.030495097832569e-06 	101324.9995793061
-0.421671671671672 	299.9999997405882 	7.520757870038013e-07 	101324.999693446
-0.4191691691691694 	299.9999998357968 	4.775335932683754e-07 	101324.9998057301
-0.4166666666666669 	299.9999999279101 	2.106994857510547e-07 	101324.999914403
-0.4141641641641645 	300.0000000175594 	1.046835437521712e-07 	101325.0000204729
-0.411661661661662 	300.0000001067995 	3.08012091636453e-07 	101325.0001257471
-0.4091591591591594 	300.0000001967396 	5.686501517290587e-07 	101325.0002320721
-0.406656656656657 	300.0000002877837 	8.328067994318488e-07 	101325.0003398579
-0.4041541541541545 	300.0000003804029 	1.101313479695655e-06 	101325.0004492743
-0.401651651651652 	300.0000004749954 	1.376709020303991e-06 	101325.0005614876
-0.3991491491491494 	300.0000005732024 	1.661167252819299e-06 	101325.0006776748
-0.396646646646647 	300.0000006737823 	1.952484995432713e-06 	101325.0007969724
-0.3941441441441444 	300.0000007743685 	2.243556359667234e-06 	101325.0009161782
-0.3916416416416419 	300.0000008720972 	2.527742666150382e-06 	101325.0010321622
-0.3891391391391395 	300.0000009672193 	2.804950791960113e-06 	101325.0011448375
-0.3866366366366368 	300.0000010624881 	3.082563985511619e-06 	101325.0012575973
-0.3841341341341344 	300.0000011613882 	3.369099406837612e-06 	101325.0013744048
-0.381631631631632 	300.000001264488 	3.666496972144057e-06 	101325.0014961749
-0.3791291291291294 	300.0000013694728 	3.968025612945125e-06 	101325.0016198214
-0.3766266266266269 	300.0000014722125 	4.263729459064092e-06 	101325.001740812
-0.3741241241241244 	300.0000015706497 	4.548040940373915e-06 	101325.0018566963
-0.371621621621622 	300.0000016655301 	4.822898105555157e-06 	101325.0019684706
-0.3691191191191194 	300.0000017594051 	5.094888761827785e-06 	101325.0020791068
-0.366616616616617 	300.0000018545789 	5.370639056256895e-06 	101325.0021914015
-0.3641141141141143 	300.0000019526306 	5.655239939798931e-06 	101325.0023073311
-0.3616116116116119 	300.0000020551277 	5.952525727017267e-06 	101325.002428526
-0.3591091091091095 	300.0000021627358 	6.263902981099803e-06 	101325.0025558103
-0.356606606606607 	300.0000022737737 	6.584512907657686e-06 	101325.0026873383
-0.3541041041041044 	300.0000023838343 	6.901920352036353e-06 	101325.0028177118
-0.3516016016016019 	300.0000024874953 	7.202020345009601e-06 	101325.0029405275
-0.3490990990990994 	300.0000025825699 	7.479455327766931e-06 	101325.0030532353
-0.346596596596597 	300.0000026725513 	7.742923181760825e-06 	101325.0031597681
-0.3440940940940944 	300.0000027635806 	8.008534691048406e-06 	101325.0032675544
-0.3415915915915919 	300.0000028595712 	8.286513347679766e-06 	101325.003381207
-0.3390890890890895 	300.0000029592856 	8.574094139132958e-06 	101325.0034991825
-0.3365865865865869 	300.0000030590089 	8.862222158309753e-06 	101325.0036169435
-0.3340840840840844 	300.0000031573582 	9.148391946428954e-06 	101325.0037331752
-0.3315815815815819 	300.000003257911 	9.440976017786405e-06 	101325.003851938
-0.3290790790790794 	300.0000033644483 	9.748989825248286e-06 	101325.0039778416
-0.3265765765765769 	300.0000034754161 	1.00679180945923e-05 	101325.0041091727
-0.3240740740740744 	300.0000035836649 	1.037813124797646e-05 	101325.0042369668
-0.3215715715715718 	300.000003681226 	1.066053111688723e-05 	101325.0043522415
-0.3190690690690695 	300.0000037679212 	1.09151593871727e-05 	101325.004454843
-0.3165665665665668 	300.0000038524908 	1.116341485918238e-05 	101325.0045546545