/*--------------------------------*- C++ -*----------------------------------*\
  =========                 |
  \\      /  F ield         | OpenFOAM: The Open Source CFD Toolbox
   \\    /   O peration     | Website:  https://openfoam.org
    \\  /    A nd           | Version:  7
     \\/     M anipulation  |
\*---------------------------------------------------------------------------*/
FoamFile
{
    version     2.0;
    format      ascii;
    class       volScalarField;
    location    "0.00317";
    object      Ux;
}
// * * * * * * * * * * * * * * * * * * * * * * * * * * * * * * * * * * * * * //

dimensions      [0 1 -1 0 0 0 0];

internalField   nonuniform List<scalar> 
5000
(
23.099932
23.099932
23.099931
23.099931
23.099931
23.09993
23.09993
23.09993
23.09993
23.09993
23.09993
23.09993
23.099929
23.099929
23.099929
23.099929
23.099929
23.099928
23.099928
23.099928
23.099928
23.099928
23.099928
23.099927
23.099927
23.099927
23.099927
23.099927
23.099926
23.099926
23.099926
23.099926
23.099926
23.099925
23.099925
23.099925
23.099925
23.099925
23.099925
23.099924
23.099924
23.099924
23.099924
23.099924
23.099923
23.099923
23.099923
23.099923
23.099923
23.099923
23.099922
23.099922
23.099922
23.099922
23.099922
23.099922
23.099921
23.099921
23.099921
23.099921
23.099921
23.09992
23.09992
23.09992
23.09992
23.09992
23.09992
23.099919
23.099919
23.099919
23.099919
23.099919
23.099919
23.099918
23.099918
23.099918
23.099918
23.099918
23.099918
23.099917
23.099917
23.099917
23.099917
23.099917
23.099916
23.099916
23.099916
23.099916
23.099916
23.099916
23.099915
23.099915
23.099915
23.099915
23.099915
23.099915
23.099914
23.099914
23.099914
23.099914
23.099914
23.099913
23.099913
23.099913
23.099913
23.099913
23.099913
23.099912
23.099912
23.099912
23.099912
23.099912
23.099912
23.099911
23.099911
23.099911
23.099911
23.099911
23.09991
23.09991
23.09991
23.09991
23.09991
23.09991
23.099909
23.099909
23.099909
23.099909
23.099909
23.099909
23.099908
23.099908
23.099908
23.099908
23.099908
23.099908
23.099907
23.099907
23.099907
23.099907
23.099907
23.099906
23.099906
23.099906
23.099906
23.099906
23.099906
23.099905
23.099905
23.099905
23.099905
23.099905
23.099905
23.099904
23.099904
23.099904
23.099904
23.099904
23.099904
23.099903
23.099903
23.099903
23.099903
23.099903
23.099903
23.099903
23.099904
23.099904
23.099902
23.099901
23.099902
23.099901
23.099901
23.099901
23.099901
23.099901
23.0999
23.0999
23.0999
23.0999
23.0999
23.0999
23.099899
23.099899
23.099899
23.099899
23.099899
23.099899
23.099898
23.099898
23.099898
23.099898
23.099898
23.099898
23.099897
23.099897
23.099897
23.099897
23.099897
23.099897
23.099896
23.099896
23.099896
23.099896
23.099896
23.099896
23.099895
23.099895
23.099895
23.099895
23.099895
23.099895
23.099894
23.099894
23.099894
23.099894
23.099894
23.099894
23.099893
23.099893
23.099893
23.099893
23.099893
23.099893
23.099892
23.099892
23.099892
23.099892
23.099892
23.099892
23.099891
23.099891
23.099891
23.099891
23.099891
23.099891
23.099891
23.09989
23.09989
23.09989
23.09989
23.09989
23.09989
23.099889
23.099889
23.099889
23.099889
23.099889
23.099889
23.099888
23.099888
23.099888
23.099888
23.099888
23.099888
23.099887
23.099887
23.099887
23.099887
23.099887
23.099887
23.099886
23.099886
23.099886
23.099886
23.099886
23.099886
23.099886
23.099885
23.099885
23.099885
23.099885
23.099885
23.099885
23.099884
23.099884
23.099884
23.099884
23.099884
23.099884
23.099884
23.099883
23.099883
23.099883
23.099883
23.099883
23.099883
23.099882
23.099882
23.099882
23.099882
23.099882
23.099882
23.099881
23.099881
23.099881
23.099881
23.099881
23.099881
23.099881
23.09988
23.09988
23.09988
23.09988
23.09988
23.09988
23.099879
23.099879
23.099879
23.099879
23.099879
23.099879
23.099879
23.099878
23.099878
23.099878
23.099878
23.099878
23.099878
23.099877
23.099877
23.099877
23.099877
23.099877
23.099877
23.099877
23.099876
23.099876
23.099876
23.099876
23.099876
23.099876
23.099875
23.099875
23.099875
23.099875
23.099875
23.099875
23.099875
23.099874
23.099874
23.099874
23.099874
23.099874
23.099874
23.099873
23.099873
23.099873
23.099873
23.099873
23.099873
23.099873
23.099872
23.099872
23.099872
23.099872
23.099872
23.099872
23.099872
23.099871
23.099871
23.099871
23.099871
23.099871
23.099871
23.09987
23.09987
23.09987
23.09987
23.09987
23.09987
23.09987
23.099869
23.099869
23.099869
23.099869
23.099869
23.099869
23.099869
23.099868
23.099868
23.099868
23.099868
23.099868
23.099868
23.099868
23.099867
23.099867
23.099867
23.099867
23.099867
23.099867
23.099866
23.099866
23.099866
23.099866
23.099866
23.099866
23.099866
23.099865
23.099865
23.099865
23.099865
23.099865
23.099865
23.099865
23.099864
23.099864
23.099864
23.099864
23.099864
23.099864
23.099864
23.099863
23.099863
23.099863
23.099863
23.099863
23.099863
23.099863
23.099862
23.099862
23.099862
23.099862
23.099862
23.099862
23.099862
23.099861
23.099861
23.099861
23.099861
23.099861
23.099861
23.099861
23.09986
23.09986
23.09986
23.09986
23.09986
23.09986
23.09986
23.09986
23.099859
23.099859
23.099859
23.099859
23.099859
23.099859
23.099859
23.099858
23.099858
23.099858
23.099858
23.099858
23.099858
23.099858
23.099858
23.099857
23.099857
23.099857
23.099857
23.099857
23.099857
23.099857
23.099856
23.099856
23.099856
23.099856
23.099856
23.099856
23.099856
23.099856
23.099855
23.099855
23.099855
23.099855
23.099855
23.099855
23.099855
23.099854
23.099854
23.099854
23.099854
23.099854
23.099854
23.099854
23.099854
23.099853
23.099853
23.099853
23.099853
23.099853
23.099853
23.099853
23.099853
23.099852
23.099852
23.099852
23.099852
23.099852
23.099852
23.099852
23.099852
23.099852
23.099851
23.099851
23.099851
23.099851
23.099851
23.099851
23.099851
23.099851
23.09985
23.09985
23.09985
23.09985
23.09985
23.09985
23.09985
23.09985
23.099849
23.099849
23.099849
23.099849
23.099849
23.099849
23.099849
23.099849
23.099848
23.099848
23.099848
23.099848
23.099848
23.099848
23.099848
23.099848
23.099848
23.099847
23.099847
23.099847
23.099847
23.099847
23.099847
23.099847
23.099847
23.099846
23.099846
23.099846
23.099846
23.099846
23.099846
23.099846
23.099846
23.099845
23.099845
23.099845
23.099845
23.099845
23.099845
23.099845
23.099845
23.099845
23.099844
23.099844
23.099844
23.099844
23.099844
23.099844
23.099844
23.099844
23.099843
23.099843
23.099843
23.099843
23.099843
23.099843
23.099843
23.099843
23.099842
23.099842
23.099842
23.099842
23.099842
23.099842
23.099842
23.099842
23.099842
23.099841
23.099841
23.099841
23.099841
23.099841
23.099841
23.099841
23.099841
23.09984
23.09984
23.09984
23.09984
23.09984
23.09984
23.09984
23.09984
23.099839
23.099839
23.099839
23.099839
23.099839
23.099839
23.099839
23.099839
23.099838
23.099838
23.099838
23.099838
23.099838
23.099838
23.099838
23.099838
23.099838
23.099837
23.099837
23.099837
23.099837
23.099837
23.099837
23.099837
23.099837
23.099836
23.099836
23.099836
23.099836
23.099836
23.099836
23.099836
23.099836
23.099835
23.099835
23.099835
23.099835
23.099835
23.099835
23.099835
23.099835
23.099835
23.099834
23.099834
23.099834
23.099834
23.099834
23.099834
23.099834
23.099834
23.099833
23.099833
23.099833
23.099833
23.099833
23.099833
23.099833
23.099833
23.099832
23.099832
23.099832
23.099832
23.099832
23.099832
23.099832
23.099832
23.099831
23.099831
23.099831
23.099831
23.099831
23.099831
23.099831
23.099831
23.099831
23.09983
23.09983
23.09983
23.09983
23.09983
23.09983
23.09983
23.09983
23.099829
23.099829
23.099829
23.099829
23.099829
23.099829
23.099829
23.099829
23.099829
23.099828
23.099828
23.099828
23.099828
23.099828
23.099828
23.099828
23.099828
23.099828
23.099828
23.099827
23.099827
23.099827
23.099827
23.099827
23.099827
23.099827
23.099827
23.099827
23.099826
23.099826
23.099826
23.099826
23.099826
23.099826
23.099826
23.099826
23.099826
23.099825
23.099825
23.099825
23.099825
23.099825
23.099825
23.099825
23.099825
23.099825
23.099825
23.099824
23.099824
23.099824
23.099824
23.099824
23.099824
23.099824
23.099824
23.099824
23.099824
23.099823
23.099823
23.099823
23.099823
23.099823
23.099823
23.099823
23.099823
23.099823
23.099823
23.099822
23.099822
23.099822
23.099822
23.099822
23.099822
23.099822
23.099822
23.099822
23.099822
23.099822
23.099821
23.099821
23.099821
23.099821
23.099821
23.099821
23.099821
23.099821
23.099821
23.099821
23.09982
23.09982
23.09982
23.09982
23.09982
23.09982
23.09982
23.09982
23.09982
23.099819
23.099819
23.099819
23.099819
23.099819
23.099819
23.099819
23.099819
23.099819
23.099819
23.099818
23.099818
23.099818
23.099818
23.099818
23.099818
23.099818
23.099818
23.099818
23.099818
23.099817
23.099817
23.099817
23.099817
23.099817
23.099817
23.099817
23.099817
23.099817
23.099816
23.099816
23.099816
23.099816
23.099816
23.099816
23.099816
23.099816
23.099816
23.099816
23.099815
23.099815
23.099815
23.099815
23.099815
23.099815
23.099815
23.099815
23.099815
23.099815
23.099814
23.099814
23.099814
23.099814
23.099814
23.099814
23.099814
23.099814
23.099814
23.099813
23.099813
23.099813
23.099813
23.099813
23.099813
23.099813
23.099813
23.099813
23.099812
23.099812
23.099812
23.099812
23.099812
23.099812
23.099812
23.099812
23.099812
23.099812
23.099811
23.099811
23.099811
23.099811
23.099811
23.099811
23.099811
23.099811
23.099811
23.09981
23.09981
23.09981
23.09981
23.09981
23.09981
23.09981
23.09981
23.09981
23.099809
23.099809
23.099809
23.099809
23.099809
23.099809
23.099809
23.099809
23.099809
23.099808
23.099808
23.099808
23.099808
23.099808
23.099808
23.099808
23.099808
23.099808
23.099807
23.099807
23.099807
23.099807
23.099807
23.099807
23.099807
23.099807
23.099807
23.099806
23.099806
23.099806
23.099806
23.099806
23.099806
23.099806
23.099806
23.099806
23.099806
23.099805
23.099805
23.099805
23.099805
23.099805
23.099805
23.099805
23.099805
23.099805
23.099804
23.099804
23.099804
23.099804
23.099804
23.099804
23.099804
23.099804
23.099804
23.099804
23.099803
23.099803
23.099803
23.099803
23.099803
23.099803
23.099803
23.099803
23.099803
23.099802
23.099802
23.099802
23.099802
23.099802
23.099802
23.099802
23.099802
23.099802
23.099802
23.099801
23.099801
23.099801
23.099801
23.099801
23.099801
23.099801
23.099801
23.099801
23.0998
23.0998
23.0998
23.0998
23.0998
23.0998
23.0998
23.0998
23.0998
23.0998
23.099799
23.099799
23.099799
23.099799
23.099799
23.099799
23.099799
23.099799
23.099799
23.099798
23.099798
23.099798
23.099798
23.099798
23.099798
23.099798
23.099798
23.099798
23.099798
23.099797
23.099797
23.099797
23.099797
23.099797
23.099797
23.099797
23.099797
23.099797
23.099796
23.099796
23.099796
23.099796
23.099796
23.099796
23.099796
23.099796
23.099796
23.099796
23.099795
23.099795
23.099795
23.099795
23.099795
23.099795
23.099795
23.099795
23.099795
23.099794
23.099794
23.099794
23.099794
23.099794
23.099794
23.099794
23.099794
23.099794
23.099794
23.099793
23.099793
23.099793
23.099793
23.099793
23.099793
23.099793
23.099793
23.099793
23.099792
23.099792
23.099792
23.099792
23.099792
23.099792
23.099792
23.099792
23.099792
23.099792
23.099791
23.099791
23.099791
23.099791
23.099791
23.099791
23.099791
23.099791
23.099791
23.099791
23.09979
23.09979
23.09979
23.09979
23.09979
23.09979
23.09979
23.09979
23.09979
23.09979
23.099789
23.099789
23.099789
23.099789
23.099789
23.099789
23.099789
23.099789
23.099789
23.099789
23.099789
23.099788
23.099788
23.099788
23.099788
23.099788
23.099788
23.099788
23.099788
23.099788
23.099788
23.099788
23.099788
23.099787
23.099787
23.099787
23.099787
23.099787
23.099787
23.099787
23.099787
23.099787
23.099787
23.099787
23.099787
23.099786
23.099786
23.099786
23.099786
23.099786
23.099786
23.099786
23.099786
23.099786
23.099786
23.099786
23.099786
23.099786
23.099785
23.099785
23.099785
23.099785
23.099785
23.099785
23.099785
23.099785
23.099785
23.099785
23.099785
23.099785
23.099785
23.099785
23.099785
23.099784
23.099784
23.099784
23.099784
23.099784
23.099784
23.099784
23.099784
23.099784
23.099784
23.099784
23.099784
23.099784
23.099784
23.099784
23.099784
23.099783
23.099783
23.099783
23.099783
23.099783
23.099783
23.099783
23.099783
23.099783
23.099783
23.099783
23.099783
23.099783
23.099783
23.099783
23.099783
23.099783
23.099783
23.099782
23.099782
23.099782
23.099782
23.099782
23.099782
23.099782
23.099782
23.099782
23.099782
23.099782
23.099782
23.099782
23.099782
23.099782
23.099782
23.099782
23.099782
23.099781
23.099781
23.099781
23.099781
23.099781
23.099781
23.099781
23.099781
23.099781
23.099781
23.099781
23.099781
23.099781
23.099781
23.099781
23.099781
23.099781
23.09978
23.09978
23.09978
23.09978
23.09978
23.09978
23.09978
23.09978
23.09978
23.09978
23.09978
23.09978
23.09978
23.09978
23.09978
23.09978
23.099779
23.099779
23.099779
23.099779
23.099779
23.099779
23.099779
23.099779
23.099779
23.099779
23.099779
23.099779
23.099779
23.099779
23.099779
23.099778
23.099778
23.099778
23.099778
23.099778
23.099778
23.099778
23.099778
23.099778
23.099778
23.099778
23.099778
23.099778
23.099778
23.099777
23.099777
23.099777
23.099777
23.099777
23.099777
23.099777
23.099777
23.099777
23.099777
23.099777
23.099777
23.099777
23.099776
23.099776
23.099776
23.099776
23.099776
23.099776
23.099776
23.099776
23.099776
23.099776
23.099776
23.099776
23.099775
23.099775
23.099775
23.099775
23.099775
23.099775
23.099775
23.099775
23.099775
23.099775
23.099775
23.099774
23.099774
23.099774
23.099774
23.099774
23.099774
23.099774
23.099774
23.099774
23.099774
23.099774
23.099773
23.099773
23.099773
23.099773
23.099773
23.099773
23.099773
23.099773
23.099773
23.099773
23.099773
23.099772
23.099772
23.099772
23.099772
23.099772
23.099772
23.099772
23.099772
23.099772
23.099772
23.099772
23.099771
23.099771
23.099771
23.099771
23.099771
23.099771
23.099771
23.099771
23.099771
23.099771
23.099771
23.099771
23.09977
23.09977
23.09977
23.09977
23.09977
23.09977
23.09977
23.09977
23.09977
23.09977
23.09977
23.099769
23.099769
23.099769
23.099769
23.099769
23.099769
23.099769
23.099769
23.099769
23.099769
23.099769
23.099769
23.099768
23.099768
23.099768
23.099768
23.099768
23.099768
23.099768
23.099768
23.099768
23.099768
23.099768
23.099768
23.099767
23.099767
23.099767
23.099767
23.099767
23.099767
23.099767
23.099767
23.099767
23.099767
23.099767
23.099767
23.099767
23.099766
23.099766
23.099766
23.099766
23.099766
23.099766
23.099766
23.099766
23.099766
23.099766
23.099766
23.099766
23.099766
23.099766
23.099765
23.099765
23.099765
23.099765
23.099765
23.099765
23.099765
23.099765
23.099765
23.099765
23.099765
23.099765
23.099765
23.099765
23.099765
23.099765
23.099764
23.099764
23.099764
23.099764
23.099764
23.099764
23.099764
23.099764
23.099764
23.099764
23.099764
23.099764
23.099764
23.099764
23.099764
23.099764
23.099764
23.099764
23.099763
23.099763
23.099763
23.099763
23.099763
23.099763
23.099763
23.099763
23.099763
23.099763
23.099763
23.099763
23.099763
23.099763
23.099763
23.099763
23.099763
23.099763
23.099763
23.099763
23.099763
23.099762
23.099762
23.099762
23.099762
23.099762
23.099762
23.099762
23.099762
23.099762
23.099762
23.099762
23.099762
23.099762
23.099762
23.099762
23.099762
23.099762
23.099762
23.099762
23.099762
23.099762
23.099762
23.099762
23.099761
23.099761
23.099761
23.099761
23.099761
23.099761
23.099761
23.099761
23.099761
23.099761
23.099761
23.099761
23.099761
23.099761
23.099761
23.099761
23.099761
23.099761
23.099761
23.099761
23.099761
23.099761
23.099761
23.099761
23.099761
23.09976
23.09976
23.09976
23.09976
23.09976
23.09976
23.09976
23.09976
23.09976
23.09976
23.09976
23.09976
23.09976
23.09976
23.09976
23.09976
23.09976
23.09976
23.09976
23.09976
23.09976
23.09976
23.09976
23.09976
23.09976
23.099759
23.099759
23.099759
23.099759
23.099759
23.099759
23.099759
23.099759
23.099759
23.099759
23.099759
23.099759
23.099759
23.099759
23.099759
23.099759
23.099759
23.099759
23.099759
23.099759
23.099759
23.099759
23.099759
23.099759
23.099759
23.099759
23.099758
23.099758
23.099758
23.099758
23.099758
23.099758
23.099758
23.099758
23.099758
23.099758
23.099758
23.099758
23.099758
23.099758
23.099758
23.099758
23.099758
23.099758
23.099758
23.099758
23.099758
23.099758
23.099758
23.099758
23.099758
23.099758
23.099757
23.099757
23.099757
23.099757
23.099757
23.099757
23.099757
23.099757
23.099757
23.099757
23.099757
23.099757
23.099757
23.099757
23.099757
23.099757
23.099757
23.099757
23.099757
23.099757
23.099757
23.099757
23.099757
23.099757
23.099756
23.099756
23.099756
23.099756
23.099756
23.099756
23.099756
23.099756
23.099756
23.099756
23.099756
23.099756
23.099756
23.099756
23.099756
23.099756
23.099756
23.099756
23.099756
23.099756
23.099756
23.099756
23.099756
23.099756
23.099756
23.099756
23.099755
23.099755
23.099755
23.099755
23.099755
23.099755
23.099755
23.099755
23.099755
23.099755
23.099755
23.099755
23.099755
23.099755
23.099755
23.099755
23.099755
23.099755
23.099755
23.099755
23.099755
23.099755
23.099755
23.099755
23.099755
23.099755
23.099755
23.099755
23.099755
23.099755
23.099755
23.099755
23.099755
23.099755
23.099755
23.099755
23.099755
23.099755
23.099755
23.099755
23.099755
23.099755
23.099755
23.099755
23.099755
23.099755
23.099755
23.099755
23.099755
23.099755
23.099755
23.099755
23.099755
23.099755
23.099755
23.099755
23.099755
23.099755
23.099755
23.099755
23.099755
23.099755
23.099755
23.099755
23.099755
23.099755
23.099755
23.099755
23.099756
23.099756
23.099756
23.099756
23.099756
23.099756
23.099756
23.099756
23.099756
23.099757
23.099757
23.099757
23.099757
23.099757
23.099757
23.099758
23.099758
23.099758
23.099758
23.099759
23.099759
23.099759
23.099759
23.09976
23.09976
23.09976
23.099761
23.099761
23.099761
23.099762
23.099762
23.099762
23.099763
23.099763
23.099764
23.099764
23.099765
23.099765
23.099766
23.099767
23.099767
23.099768
23.099769
23.099769
23.09977
23.099771
23.099772
23.099772
23.099773
23.099774
23.099775
23.099776
23.099777
23.099778
23.099779
23.099781
23.099782
23.099783
23.099784
23.099786
23.099787
23.099789
23.09979
23.099792
23.099793
23.099795
23.099797
23.099799
23.099801
23.099803
23.099805
23.099807
23.09981
23.099812
23.099814
23.099817
23.09982
23.099822
23.099825
23.099828
23.099831
23.099835
23.099838
23.099842
23.099845
23.099849
23.099853
23.099857
23.099861
23.099866
23.09987
23.099875
23.09988
23.099885
23.09989
23.099896
23.099901
23.099907
23.099913
23.09992
23.099926
23.099933
23.09994
23.099948
23.099955
23.099963
23.099971
23.09998
23.099988
23.099998
23.100007
23.100017
23.100027
23.100037
23.100048
23.10006
23.100071
23.100083
23.100096
23.100109
23.100122
23.100136
23.10015
23.100165
23.100181
23.100196
23.100213
23.10023
23.100248
23.100266
23.100285
23.100304
23.100324
23.100345
23.100367
23.100389
23.100412
23.100436
23.100461
23.100486
23.100512
23.10054
23.100568
23.100597
23.100627
23.100658
23.10069
23.100723
23.100757
23.100792
23.100829
23.100866
23.100905
23.100945
23.100986
23.101029
23.101073
23.101118
23.101165
23.101213
23.101263
23.101314
23.101367
23.101422
23.101479
23.101537
23.101597
23.101658
23.101722
23.101788
23.101855
23.101925
23.101997
23.102071
23.102147
23.102225
23.102306
23.102389
23.102475
23.102563
23.102654
23.102748
23.102844
23.102943
23.103045
23.10315
23.103258
23.103369
23.103483
23.103601
23.103722
23.103846
23.103974
23.104106
23.104241
23.10438
23.104523
23.10467
23.104821
23.104976
23.105136
23.1053
23.105468
23.105641
23.105818
23.106001
23.106188
23.10638
23.106578
23.106781
23.106989
23.107202
23.107422
23.107647
23.107877
23.108114
23.108357
23.108607
23.108862
23.109124
23.109393
23.109669
23.109952
23.110242
23.110539
23.110843
23.111155
23.111475
23.111803
23.112139
23.112483
23.112835
23.113196
23.113565
23.113944
23.114331
23.114728
23.115134
23.11555
23.115975
23.116411
23.116856
23.117312
23.117779
23.118256
23.118744
23.119243
23.119753
23.120275
23.120809
23.121354
23.121912
23.122482
23.123064
23.123659
23.124267
23.124889
23.125523
23.126172
23.126834
23.12751
23.1282
23.128905
23.129625
23.130359
23.131109
23.131874
23.132655
23.133452
23.134265
23.135094
23.13594
23.136802
23.137682
23.138579
23.139494
23.140426
23.141376
23.142345
23.143332
23.144338
23.145363
23.146407
23.147471
23.148555
23.149658
23.150782
23.151926
23.153091
23.154277
23.155484
23.156713
23.157963
23.159235
23.16053
23.161847
23.163186
23.164549
23.165934
23.167343
23.168776
23.170233
23.171713
23.173218
23.174748
23.176302
23.177882
23.179486
23.181116
23.182772
23.184454
23.186162
23.187896
23.189656
23.191444
23.193258
23.1951
23.196968
23.198865
23.200789
23.202741
23.204721
23.206729
23.208766
23.210831
23.212925
23.215049
23.217201
23.219382
23.221593
23.223834
23.226104
23.228404
23.230734
23.233094
23.235484
23.237904
23.240355
23.242836
23.245348
23.247891
23.250464
23.253069
23.255704
23.25837
23.261067
23.263796
23.266555
23.269346
23.272168
23.275021
23.277905
23.280821
23.283768
23.286746
23.289756
23.292796
23.295868
23.298971
23.302105
23.305271
23.308467
23.311694
23.314952
23.318241
23.321561
23.324911
23.328292
23.331703
23.335144
23.338616
23.342118
23.345649
23.34921
23.352801
23.356421
23.36007
23.363749
23.367456
23.371191
23.374955
23.378748
23.382568
23.386416
23.390291
23.394194
23.398123
23.402079
23.406062
23.41007
23.414105
23.418165
23.42225
23.426359
23.430494
23.434653
23.438835
23.443041
23.44727
23.451522
23.455796
23.460093
23.464411
23.46875
23.47311
23.47749
23.48189
23.48631
23.490749
23.495207
23.499683
23.504177
23.508688
23.513216
23.51776
23.52232
23.526896
23.531487
23.536092
23.540711
23.545343
23.549989
23.554646
23.559316
23.563997
23.568689
23.573392
23.578104
23.582825
23.587555
23.592293
23.597039
23.601791
23.606551
23.611316
23.616086
23.620862
23.625641
23.630424
23.635211
23.639999
23.64479
23.649582
23.654375
23.659168
23.663961
23.668752
23.673542
23.67833
23.683115
23.687897
23.692675
23.697449
23.702217
23.70698
23.711737
23.716487
23.72123
23.725964
23.730691
23.735408
23.740115
23.744813
23.749499
23.754175
23.758838
23.763489
23.768128
23.772752
23.777363
23.781959
23.786541
23.791106
23.795656
23.800188
23.804704
23.809202
23.813682
23.818144
23.822586
23.827008
23.831411
23.835793
23.840154
23.844493
23.848811
23.853107
23.857379
23.861628
23.865854
23.870056
23.874233
23.878386
23.882513
23.886615
23.89069
23.89474
23.898762
23.902758
23.906726
23.910666
23.914579
23.918463
23.922318
23.926145
23.929942
23.93371
23.937448
23.941156
23.944833
23.94848
23.952096
23.955682
23.959236
23.962758
23.966249
23.969708
23.973136
23.976531
23.979893
23.983224
23.986521
23.989786
23.993018
23.996218
23.999384
24.002517
24.005616
24.008683
24.011716
24.014715
24.017681
24.020614
24.023513
24.026378
24.02921
24.032008
24.034772
24.037503
24.040201
24.042865
24.045495
24.048092
24.050656
24.053186
24.055683
24.058147
24.060577
24.062975
24.06534
24.067672
24.069971
24.072238
24.074473
24.076675
24.078845
24.080983
24.083089
24.085163
24.087206
24.089218
24.091198
24.093148
24.095067
24.096955
24.098813
24.100641
24.102438
24.104206
24.105945
24.107654
24.109334
24.110985
24.112608
24.114203
24.115769
24.117308
24.118818
24.120302
24.121759
24.123188
24.124592
24.125969
24.12732
24.128645
24.129945
24.13122
24.132469
24.133695
24.134896
24.136073
24.137226
24.138356
24.139462
24.140546
24.141607
24.142646
24.143663
24.144658
24.145632
24.146585
24.147517
24.148428
24.14932
24.150191
24.151043
24.151875
24.152688
24.153483
24.154259
24.155018
24.155758
24.15648
24.157186
24.157874
24.158545
24.1592
24.159839
24.160463
24.16107
24.161663
24.16224
24.162802
24.16335
24.163884
24.164403
24.164909
24.165402
24.165882
24.166348
24.166802
24.167244
24.167673
24.16809
24.168496
24.16889
24.169274
24.169646
24.170008
24.170359
24.1707
24.17103
24.171351
24.171663
24.171965
24.172258
24.172542
24.172817
24.173084
24.173343
24.173593
24.173835
24.17407
24.174297
24.174517
24.17473
24.174935
24.175134
24.175326
24.175512
24.175691
24.175865
24.176033
24.176194
24.17635
24.1765
24.176645
24.176785
24.17692
24.177051
24.177176
24.177296
24.177412
24.177523
24.177631
24.177734
24.177834
24.17793
24.178021
24.178109
24.178194
24.178275
24.178353
24.178428
24.178499
24.178568
24.178633
24.178696
24.178757
24.178815
24.17887
24.178922
24.178972
24.17902
24.179066
24.17911
24.179151
24.179191
24.179228
24.179264
24.179299
24.179331
24.179362
24.179391
24.179418
24.179445
24.17947
24.179494
24.179516
24.179537
24.179556
24.179575
24.179593
24.17961
24.179625
24.17964
24.179654
24.179667
24.179678
24.179689
24.1797
24.179709
24.179719
24.179727
24.179735
24.179742
24.179749
24.179755
24.17976
24.179766
24.17977
24.179775
24.179778
24.179781
24.179784
24.179787
24.17979
24.179792
24.179794
24.179795
24.179797
24.179798
24.179799
24.179799
24.1798
24.1798
24.179801
24.179801
24.179801
24.179801
24.179801
24.1798
24.1798
24.1798
24.1798
24.179799
24.179798
24.179798
24.179797
24.179796
24.179796
24.179795
24.179795
24.179793
24.179792
24.179792
24.179791
24.17979
24.179789
24.179788
24.179788
24.179787
24.179787
24.179786
24.179786
24.179786
24.179785
24.179784
24.179783
24.179783
24.179783
24.179783
24.179782
24.179783
24.179783
24.179783
24.179783
24.179783
24.179782
24.179783
24.179783
24.179784
24.179784
24.179784
24.179785
24.179785
24.179786
24.179786
24.179787
24.179787
24.179788
24.179789
24.17979
24.17979
24.179791
24.179792
24.179793
24.179794
24.179795
24.179796
24.179796
24.179797
24.179798
24.179799
24.1798
24.179801
24.179802
24.179803
24.179804
24.179805
24.179806
24.179806
24.179807
24.179808
24.179808
24.179809
24.17981
24.17981
24.179811
24.179811
24.179811
24.179812
24.179812
24.179812
24.179812
24.179812
24.179811
24.179811
24.179811
24.17981
24.17981
24.179809
24.179808
24.179807
24.179805
24.179804
24.179802
24.1798
24.179799
24.179797
24.179794
24.179792
24.179789
24.179786
24.179783
24.17978
24.179776
24.179772
24.179768
24.179764
24.179759
24.179754
24.179749
24.179743
24.179737
24.179731
24.179725
24.179718
24.17971
24.179703
24.179695
24.179686
24.179678
24.179669
24.179659
24.179649
24.179639
24.179628
24.179616
24.179604
24.179592
24.179579
24.179565
24.179551
24.179537
24.179522
24.179506
24.17949
24.179473
24.179455
24.179437
24.179418
24.179399
24.179379
24.179358
24.179336
24.179313
24.17929
24.179266
24.179241
24.179216
24.179189
24.179162
24.179134
24.179105
24.179075
24.179044
24.179012
24.178979
24.178945
24.17891
24.178874
24.178837
24.178799
24.17876
24.178719
24.178678
24.178635
24.178591
24.178546
24.1785
24.178452
24.178403
24.178352
24.178301
24.178247
24.178193
24.178137
24.178079
24.17802
24.177959
24.177897
24.177833
24.177768
24.177701
24.177633
24.177562
24.17749
24.177416
24.17734
24.177262
24.177183
24.177101
24.177018
24.176933
24.176845
24.176756
24.176664
24.176571
24.176475
24.176377
24.176276
24.176174
24.176069
24.175962
24.175853
24.175741
24.175626
24.175509
24.17539
24.175268
24.175143
24.175016
24.174886
24.174753
24.174618
24.174479
24.174338
24.174194
24.174046
24.173896
24.173743
24.173587
24.173427
24.173265
24.173099
24.17293
24.172757
24.172582
24.172403
24.17222
24.172034
24.171844
24.171651
24.171454
24.171253
24.171049
24.170841
24.170629
24.170413
24.170193
24.16997
24.169742
24.16951
24.169274
24.169034
24.168789
24.168541
24.168288
24.16803
24.167768
24.167502
24.167231
24.166956
24.166676
24.166391
24.166101
24.165807
24.165508
24.165203
24.164894
24.16458
24.164261
24.163937
24.163608
24.163273
24.162933
24.162588
24.162237
24.161881
24.16152
24.161152
24.16078
24.160401
24.160017
24.159628
24.159232
24.158831
24.158423
24.15801
24.157591
24.157166
24.156734
24.156297
24.155853
24.155403
24.154947
24.154484
24.154015
24.153539
24.153057
24.152568
24.152073
24.151571
24.151062
24.150547
24.150024
24.149495
24.148959
24.148416
24.147866
24.147309
24.146745
24.146173
24.145595
24.145009
24.144416
24.143816
24.143208
24.142593
24.14197
24.14134
24.140702
24.140057
24.139404
24.138743
24.138075
24.137399
24.136715
24.136023
24.135324
24.134617
24.133901
24.133178
24.132446
24.131707
24.130959
24.130203
24.12944
24.128668
24.127887
24.127099
24.126302
24.125497
24.124683
24.123862
24.123031
24.122193
24.121346
24.12049
24.119625
24.118752
24.11787
24.116979
24.116079
24.115169
24.114251
24.113323
24.112386
24.11144
24.110485
24.109522
24.108551
24.107573
24.106586
24.105591
24.104587
24.103572
24.102545
24.101504
24.100451
24.099385
24.098311
24.097233
24.096153
24.095079
24.094008
24.092934
24.091849
24.090751
24.089636
24.088509
24.087372
24.086228
24.085078
24.083918
24.082744
24.081553
24.080344
24.079124
24.077898
24.076673
24.075445
24.074206
24.072952
24.071684
24.070407
24.069128
24.067848
24.066563
24.065268
24.063962
24.062644
24.061318
24.059983
24.05864
24.057289
24.055928
24.054559
24.053182
24.051797
24.050406
24.049015
24.047638
24.046287
24.045024
24.04405
24.042603
24.040443
24.038887
24.037558
24.036106
24.034576
24.033079
24.031585
24.030075
24.028551
24.027024
24.025491
24.023951
24.022403
24.020848
24.019287
24.017719
24.016144
24.014562
24.012973
24.011377
24.009774
24.008165
24.006548
24.004925
24.003296
24.00166
24.000018
23.99837
23.996715
23.995054
23.993387
23.991714
23.990035
23.988351
23.986661
23.984965
23.983263
23.981555
23.979842
23.978124
23.9764
23.97467
23.972935
23.971195
23.96945
23.9677
23.965944
23.964184
23.962417
23.960643
23.958866
23.957092
23.955312
23.953521
23.951727
23.949929
23.948128
23.946321
23.944511
23.942696
23.940878
23.939055
23.937229
23.935399
23.933565
23.931727
23.929886
23.928042
23.926194
23.924343
23.922488
23.92063
23.91877
23.916906
23.91504
23.91317
23.911298
23.909424
23.907546
23.905667
23.903785
23.9019
23.900013
23.898125
23.896234
23.894341
23.892446
23.890549
23.888651
23.886751
23.884849
23.882946
23.881042
23.879136
23.877229
23.875321
23.873412
23.871502
23.869591
23.867679
23.865766
23.863853
23.861939
23.860025
23.85811
23.856195
23.85428
23.852364
23.850449
23.848533
23.846618
23.844703
23.842788
23.840873
23.838959
23.837045
23.835132
23.83322
23.831308
23.829397