/*--------------------------------*- C++ -*----------------------------------*\
  =========                 |
  \\      /  F ield         | OpenFOAM: The Open Source CFD Toolbox
   \\    /   O peration     | Website:  https://openfoam.org
    \\  /    A nd           | Version:  7
     \\/     M anipulation  |
\*---------------------------------------------------------------------------*/
FoamFile
{
    version     2.0;
    format      ascii;
    class       volScalarField;
    location    "0.00029";
    object      T;
}
// * * * * * * * * * * * * * * * * * * * * * * * * * * * * * * * * * * * * * //

dimensions      [0 0 0 1 0 0 0];

internalField   nonuniform List<scalar> 
5000
(
288.77526
288.78945
288.79526
288.80724
288.8133
288.825
288.83088
288.84279
288.84922
288.85982
288.86772
288.87713
288.88578
288.89477
288.90362
288.91252
288.9214
288.93028
288.93916
288.94804
288.95691
288.96578
288.97465
288.98351
288.99238
289.00124
289.0101
289.01896
289.02782
289.03667
289.04553
289.05438
289.06323
289.07208
289.08092
289.08977
289.09861
289.10745
289.11629
289.12513
289.13396
289.14279
289.15162
289.16045
289.16928
289.1781
289.18693
289.19575
289.20457
289.21338
289.2222
289.23101
289.23982
289.24863
289.25743
289.26624
289.27504
289.28384
289.29263
289.30143
289.31022
289.31901
289.3278
289.33659
289.34538
289.35416
289.36294
289.37172
289.3805
289.38927
289.39805
289.40682
289.41559
289.42436
289.43312
289.44189
289.45065
289.45941
289.46817
289.47693
289.48568
289.49444
289.50319
289.51194
289.52069
289.52943
289.53818
289.54692
289.55566
289.5644
289.57314
289.58187
289.59061
289.59934
289.60807
289.6168
289.62552
289.63425
289.64297
289.65169
289.66041
289.66913
289.67784
289.68656
289.69527
289.70398
289.71269
289.7214
289.7301
289.7388
289.7475
289.7562
289.7649
289.7736
289.78229
289.79099
289.79968
289.80837
289.81705
289.82574
289.83442
289.8431
289.85178
289.86046
289.86914
289.87781
289.88649
289.89516
289.90383
289.9125
289.92116
289.92983
289.93849
289.94715
289.95581
289.96447
289.97312
289.98178
289.99043
289.99908
290.00773
290.01637
290.02502
290.03366
290.0423
290.05094
290.05958
290.06822
290.07685
290.08549
290.09412
290.10275
290.11137
290.12
290.12862
290.13725
290.14587
290.15448
290.1631
290.17172
290.18033
290.18894
290.19755
290.20616
290.21477
290.22337
290.23198
290.24058
290.24918
290.25777
290.26637
290.27497
290.28356
290.29215
290.30074
290.30933
290.31791
290.3265
290.33508
290.34366
290.35224
290.36082
290.36939
290.37796
290.38654
290.39511
290.40368
290.41224
290.42081
290.42937
290.43793
290.44649
290.45505
290.46361
290.47216
290.48071
290.48927
290.49782
290.50636
290.51491
290.52345
290.532
290.54054
290.54908
290.55761
290.56615
290.57468
290.58322
290.59175
290.60028
290.6088
290.61733
290.62585
290.63438
290.6429
290.65141
290.65993
290.66845
290.67696
290.68547
290.69398
290.70249
290.711
290.7195
290.72801
290.73651
290.74501
290.75351
290.762
290.7705
290.77899
290.78748
290.79597
290.80446
290.81295
290.82143
290.82991
290.83839
290.84687
290.85535
290.86383
290.8723
290.88077
290.88925
290.89772
290.90618
290.91465
290.92311
290.93158
290.94004
290.94849
290.95695
290.96541
290.97386
290.98231
290.99076
290.99921
291.00766
291.01611
291.02455
291.03299
291.04143
291.04987
291.05831
291.06674
291.07518
291.08361
291.09204
291.10047
291.10889
291.11732
291.12574
291.13416
291.14258
291.151
291.15942
291.16783
291.17624
291.18466
291.19307
291.20147
291.20988
291.21828
291.22669
291.23509
291.24349
291.25189
291.26028
291.26868
291.27707
291.28546
291.29385
291.30224
291.31062
291.31901
291.32739
291.33577
291.34415
291.35253
291.3609
291.36928
291.37765
291.38602
291.39439
291.40276
291.41112
291.41948
291.42785
291.43621
291.44457
291.45292
291.46128
291.46963
291.47798
291.48633
291.49468
291.50303
291.51137
291.51972
291.52806
291.5364
291.54474
291.55307
291.56141
291.56974
291.57807
291.5864
291.59473
291.60306
291.61138
291.61971
291.62803
291.63635
291.64466
291.65298
291.66129
291.66961
291.67792
291.68623
291.69454
291.70284
291.71115
291.71945
291.72775
291.73605
291.74435
291.75264
291.76094
291.76923
291.77752
291.78581
291.7941
291.80238
291.81067
291.81895
291.82723
291.83551
291.84379
291.85207
291.86034
291.86861
291.87688
291.88515
291.89342
291.90169
291.90995
291.91822
291.92648
291.93474
291.943
291.95126
291.95951
291.96777
291.97602
291.98427
291.99252
292.00077
292.00901
292.01726
292.0255
292.03375
292.04199
292.05023
292.05846
292.0667
292.07494
292.08317
292.0914
292.09963
292.10786
292.11609
292.12432
292.13254
292.14076
292.14898
292.1572
292.16542
292.17364
292.18185
292.19007
292.19828
292.20649
292.21469
292.2229
292.2311
292.2393
292.2475
292.25569
292.26389
292.27208
292.28026
292.28844
292.29662
292.3048
292.31297
292.32113
292.32929
292.33745
292.3456
292.35374
292.36188
292.37001
292.37814
292.38625
292.39436
292.40246
292.41055
292.41863
292.42669
292.43475
292.44279
292.45082
292.45884
292.46684
292.47483
292.48279
292.49075
292.49868
292.50659
292.51448
292.52235
292.53019
292.53802
292.54581
292.55358
292.56132
292.56902
292.5767
292.58435
292.59196
292.59953
292.60707
292.61456
292.62202
292.62943
292.6368
292.64412
292.6514
292.65863
292.6658
292.67293
292.67999
292.68701
292.69396
292.70085
292.70769
292.71445
292.72116
292.7278
292.73437
292.74086
292.74729
292.75364
292.75992
292.76612
292.77225
292.77829
292.78426
292.79014
292.79594
292.80165
292.80728
292.81282
292.81827
292.82363
292.8289
292.83408
292.83917
292.84417
292.84907
292.85388
292.8586
292.86322
292.86775
292.87218
292.87651
292.88076
292.8849
292.88895
292.8929
292.89676
292.90053
292.9042
292.90778
292.91126
292.91465
292.91795
292.92116
292.92428
292.92731
292.93025
292.9331
292.93586
292.93855
292.94114
292.94366
292.94609
292.94844
292.95072
292.95291
292.95503
292.95708
292.95905
292.96095
292.96278
292.96455
292.96624
292.96787
292.96944
292.97095
292.97239
292.97378
292.97511
292.97638
292.9776
292.97877
292.97988
292.98095
292.98197
292.98295
292.98388
292.98476
292.98561
292.98641
292.98718
292.98791
292.9886
292.98926
292.98989
292.99049
292.99105
292.99158
292.99209
292.99257
292.99303
292.99346
292.99386
292.99425
292.99461
292.99496
292.99528
292.99558
292.99587
292.99614
292.9964
292.99664
292.99686
292.99707
292.99727
292.99746
292.99763
292.9978
292.99795
292.9981
292.99823
292.99836
292.99847
292.99858
292.99869
292.99878
292.99887
292.99896
292.99903
292.99911
292.99917
292.99924
292.99929
292.99935
292.9994
292.99945
292.99949
292.99953
292.99957
292.9996
292.99963
292.99966
292.99969
292.99972
292.99974
292.99976
292.99978
292.9998
292.99982
292.99983
292.99984
292.99986
292.99987
292.99988
292.99989
292.9999
292.99991
292.99992
292.99992
292.99993
292.99994
292.99994
292.99995
292.99995
292.99996
292.99996
292.99996
292.99997
292.99997
292.99997
292.99998
292.99998
292.99998
292.99998
292.99998
292.99999
292.99999
292.99999
292.99999
292.99999
292.99999
292.99999
292.99999
292.99999
292.99999
292.99999
293
293
293
293
293
293
293
293
293
293
293
293
293
293
293
293
293
293
293
293
293
293
293
293
293
293
293
293
293
293
293
293
293
293
293
293
293
293
293
293
293
293
293
293
293
293
293
293
293
293
293
293
293
293
293
293
293
293
293
293
293
293
293
293
293
293
293
293
293
293
293
293
293
293
293
293
293
293
293
293
293
293
293
293
293
293
293
293
293
293
293
293
293
293
293
293
293
293
293
293
293
293
293
293
293
293
293
293
293
293
293
293
293
293
293
293
293
293
293
293
293
293
293
293
293
293
293
293
293
293
293
293
293
293
293
293
293
293
293
293
293
293
293
293
293
293
293
293
293
293
293
293
293
293
293
293
293
293
293
293
293
293
293
293
293
293
293
293
293
293
293
293
293
293
293
293
293
293
293
293
293
293
293
293
293
293
293
293
293
293
293
293
293
293
293
293
293
293
293
293
293
293
293
293
293
293
293
293
293
293
293
293
293
293
293
293
293
293
293
293
293
293
293
293
293
293
293
293
293
293
293
293
293
293
293
293
293
293
293
293
293
293
293
293
293
293
293
293
293
293
293
293
293
293
293
293
293
293
293
293
293
293
293
293
293
293
293
293
293
293
293
293
293
293
293
293
293
293
293
293
293
293
293
293
293
293
293
293
293
293
293
293
293
293
293
293
293
293
293
293
293
293
293
293
293
293
293
293
293
293
293
293
293
293
293
293
293
293
293
293
293
293
293
293
293
293
293
293
293
293
293
293
293
293
293
293
293
293
293
293
293
293
293
293
293
293
293
293
293
293
293
293
293
293
293
293
293
293
293
293
293
293
293
293
293
293
293
293
293
293
293
293
293
293
293
293
293
293
293
293
293
293
293
293
293
293
293
293
293
293
293
293
293
293
293
293
293
293
293
293
293
293
293
293
293
293
293
293
293
293
293
293
293
293
293
293
293
293
293
293
293
293
293
293
293
293
293
293
293
293
293
293
293
293
293
293
293
293
293
293
293
293
293
293
293
293
293
293
293
293
293
293
293
293
293
293
293
293
293
293
293
293
293
293
293
293
293
293
293
293
293
293
293
293
293
293
293
293
293
293
293
293
293
293
293
293
293
293
293
293
293
293
293
293
293
293
293
293
293
293
293
293
293
293
293
293
293
293
293
293
293
293
293
293
293
293
293
293
293
293
293
293
293
293
293
293
293
293
293
293
293
293
293
293
293
293
293
293
293
293
293
293
293
293
293
293
293
293
293
293
293
293
293
293
293
293
293
293
293
293
293
293
293
293
293
293
293
293
293
293
293
293
293
293
293
293
293
293
293
293
293
293
293
293
293
293
293
293
293
293
293
293
293
293
293
293
293
293
293
293
293
293
293
293
293
293
293
293
293
293
293
293
293
293
293
293
293
293
293
293
293
293
293
293
293
293
293
293
293
293
293
293
293
293
293
293
293
293
293
293
293
293
293
293
293
293
293
293
293
293
293
293
293
293
293
293
293
293
293
293
293
293
293
293
293
293
293
293
293
293
293
293
293
293
293
293
293
293
293
293
293
293
293
293
293
293
293
293
293
293
293
293
293
293
293
293
293
293
293
293
293
293
293
293
293
293
293
293
293
293
293
293
293
293
293
293
293
293
293
293
293
293
293
293
293
293
293
293
293
293
293
293
293
293
293
293
293
293
293
293
293
293
293
293
293
293
293
293
293
293
293
293
293
293
293
293
293
293
293
293
293
293
293
293
293
293
293
293
293
293
293
293
293
293
293
293
293
293
293
293
293
293
293
293
293
293
293
293
293
293
293
293
293
293
293
293
293
293
293
293
293
293
293
293
293
293
293
293
293
293
293
293
293
293
293
293
293
293
293
293
293
293
293
293
293
293
293
293
293
293
293
293
293
293
293
293
293
293
293
293
293
293
293
293
293
293
293
293
293
293
293
293
293
293
293
293
293
293
293
293
293
293
293
293
293
293
293
293
293
293
293
293
293
293
293
293
293
293
293
293
293
293
293
293
293
293
293
293
293
293
293
293
293
293
293
293
293
293
293
293
293
293
293
293
293
293
293
293
293
293
293
293
293
293
293
293
293
293
293
293
293
293
293
293
293
293
293
293
293
293
293
293
293
293
293
293
293
293
293
293
293
293
293
293
293
293
293
293
293
293
293
293
293
293
293
293
293
293
293
293
293
293
293
293
293
293
293
293
293
293
293
293
293
293
293
293
293
293
293
293
293
293
293
293
293
293
293
293
293
293
293
293
293
293
293
293
293
293
293
293
293
293
293
293
293
293
293
293
293
293
293
293
293
293
293
293
293
293
293
293
293
293
293
293
293
293
293
293
293
293
293
293
293
293
293
293
293
293
293
293
293
293
293
293
293
293
293
293
293
293
293
293
293
293
293
293
293
293
293
293
293
293
293
293
293
293
293
293
293
293
293
293
293
293
293
293
293
293
293
293
293
293
293
293
293
293
293
293
293
293
293
293
293
293
293
293
293
293
293
293
293
293
293
293
293
293
293
293
293
293
293
293
293
293
293
293
293
293
293
293
293
293
293
293
293
293
293
293
293
293
293
293
293
293
293
293
293
293
293
293
293
293
293
293
293
293
293
293
293
293
293
293
293
293
293
293
293
293
293
293
293
293
293
293
293
293
293
293
293
293
293
293
293
293
293
293
293
293
293
293
293
293
292.99999
292.99999
292.99999
292.99999
292.99999
292.99999
292.99999
292.99999
292.99999
292.99998
292.99998
292.99998
292.99998
292.99998
292.99997
292.99997
292.99997
292.99996
292.99996
292.99995
292.99995
292.99994
292.99993
292.99993
292.99992
292.99991
292.9999
292.99989
292.99988
292.99986
292.99985
292.99983
292.99981
292.99979
292.99977
292.99975
292.99972
292.99969
292.99966
292.99962
292.99958
292.99954
292.99949
292.99944
292.99938
292.99932
292.99925
292.99917
292.99909
292.999
292.9989
292.9988
292.99868
292.99855
292.99841
292.99826
292.99809
292.99791
292.99771
292.9975
292.99727
292.99701
292.99674
292.99644
292.99612
292.99577
292.99539
292.99498
292.99453
292.99405
292.99353
292.99297
292.99237
292.99171
292.99101
292.99025
292.98943
292.98855
292.98761
292.98659
292.9855
292.98432
292.98306
292.98171
292.98027
292.97872
292.97706
292.97528
292.97338
292.97136
292.96919
292.96688
292.96442
292.9618
292.959
292.95603
292.95286
292.9495
292.94592
292.94213
292.9381
292.93383
292.92931
292.92452
292.91945
292.91408
292.90842
292.90243
292.89611
292.88944
292.88242
292.87501
292.86722
292.85902
292.85039
292.84133
292.83181
292.82182
292.81135
292.80037
292.78887
292.77683
292.76423
292.75107
292.73731
292.72295
292.70796
292.69234
292.67605
292.65909
292.64144
292.62307
292.60399
292.58416
292.56357
292.54222
292.52007
292.49712
292.47335
292.44875
292.4233
292.39699
292.36981
292.34175
292.31279
292.28293
292.25215
292.22044
292.1878
292.15422
292.11968
292.08419
292.04773
292.01031
291.97191
291.93254
291.89219
291.85087
291.80856
291.76527
291.72101
291.67576
291.62955
291.58236
291.53421
291.48511
291.43505
291.38404
291.33211
291.27924
291.22547
291.17079
291.11522
291.05877
291.00146
290.94331
290.88432
290.82452
290.76392
290.70255
290.64042
290.57756
290.51398
290.44971
290.38477
290.31919
290.25298
290.18619
290.11882
290.05091
289.98249
289.91358
289.84422
289.77443
289.70424
289.63369
289.5628
289.49162
289.42016
289.34847
289.27657
289.20451
289.13231
289.06001
288.98765
288.91526
288.84288
288.77055
288.69829
288.62615
288.55417
288.48237
288.41081
288.33951
288.26851
288.19785
288.12757
288.0577
287.98829
287.91936
287.85095
287.7831
287.71585
287.64923
287.58327
287.51802
287.45349
287.38974
287.32678
287.26465
287.20338
287.143
287.08354
287.02502
286.96748
286.91094
286.85543
286.80096
286.74755
286.69524
286.64404
286.59396
286.54502
286.49724
286.45062
286.40519
286.36094
286.3179
286.27605
286.23542
286.19599
286.15778
286.12077
286.08498
286.05038
286.01698
285.98477
285.95374
285.92388
285.89518
285.86761
285.84117
285.81583
285.79159
285.76841
285.74628
285.72518
285.70508
285.68595
285.66778
285.65053
285.63418
285.61871
285.60408
285.59026
285.57723
285.56496
285.55342
285.54259
285.53242
285.52289
285.51399
285.50566
285.4979
285.49067
285.48394
285.47769
285.47189
285.46652
285.46156
285.45697
285.45274
285.44885
285.44527
285.44198
285.43896
285.43621
285.43369
285.43139
285.42929
285.42739
285.42566
285.42409
285.42267
285.42138
285.42023
285.41918
285.41825
285.4174
285.41665
285.41598
285.41537
285.41484
285.41436
285.41394
285.41356
285.41323
285.41294
285.41268
285.41246
285.41226
285.41209
285.41194
285.41181
285.41169
285.4116
285.41151
285.41144
285.41138
285.41133
285.41129
285.41125
285.41122
285.4112
285.41118
285.41116
285.41115
285.41114
285.41114
285.41113
285.41113
285.41114
285.41114
285.41114
285.41115
285.41115
285.41116
285.41116
285.41116
285.41116
285.41117
285.41117
285.41118
285.41118
285.41117
285.41117
285.41118
285.41117
285.41117
285.41117
285.41117
285.41117
285.41118
285.41118
285.41118
285.41118
285.41119
285.41119
285.41118
285.41117
285.41116
285.41116
285.41117
285.41118
285.41119
285.41119
285.41121
285.41122
285.41122
285.41123
285.41124
285.41125
285.41125
285.41125
285.41126
285.41127
285.41128
285.41129
285.41129
285.41129
285.4113
285.41131
285.41132
285.41132
285.41132
285.41133
285.41134
285.41136
285.41137
285.41139
285.41139
285.41139
285.4114
285.41142
285.41143
285.41143
285.41144
285.41144
285.41144
285.41145
285.41147
285.41149
285.4115
285.41151
285.41152
285.41153
285.41155
285.41157
285.41159
285.41161
285.41163
285.41165
285.41166
285.41167
285.41169
285.41171
285.41174
285.41176
285.41178
285.41179
285.41179
285.4118
285.41181
285.41183
285.41184
285.41186
285.41188
285.41189
285.4119
285.41191
285.41193
285.41195
285.41198
285.412
285.41202
285.41203
285.41204
285.41207
285.4121
285.41212
285.41214
285.41215
285.41217
285.41219
285.41222
285.41225
285.41227
285.4123
285.41233
285.41235
285.41236
285.41238
285.41241
285.41244
285.41246
285.41249
285.41251
285.41254
285.41257
285.4126
285.41262
285.41264
285.41267
285.41272
285.41275
285.41277
285.4128
285.41283
285.41286
285.41289
285.41291
285.41292
285.41293
285.41296
285.41301
285.41305
285.41307
285.41309
285.41311
285.41314
285.41317
285.41321
285.41326
285.41329
285.41332
285.41335
285.41337
285.4134
285.41343
285.41347
285.41349
285.41353
285.41357
285.41361
285.41365
285.4137
285.41373
285.41377
285.4138
285.41383
285.41386
285.41389
285.41393
285.41397
285.41401
285.41405
285.41409
285.41413
285.41417
285.41421
285.41425
285.4143
285.41435
285.41439
285.41443
285.41446
285.4145
285.41454
285.41458
285.41462
285.41467
285.41472
285.41477
285.41481
285.41485
285.4149
285.41495
285.41499
285.41504
285.41509
285.41516
285.41522
285.41527
285.4153
285.41534
285.41538
285.41543
285.41548
285.41555
285.41562
285.41567
285.41571
285.41575
285.41579
285.41585
285.41592
285.41598
285.41603
285.41608
285.41613
285.41619
285.41626
285.41632
285.41638
285.41645
285.41652
285.41659
285.41664
285.4167
285.41675
285.41682
285.41688
285.41694
285.41701
285.41707
285.41714
285.41721
285.41729
285.41739
285.41747
285.41754
285.4176
285.41766
285.41773
285.41781
285.41789
285.41796
285.41804
285.41815
285.41824
285.41833
285.4184
285.41848
285.41856
285.41864
285.41872
285.4188
285.4189
285.41899
285.41909
285.41919
285.41928
285.41937
285.41946
285.41957
285.41968
285.41979
285.4199
285.42001
285.42013
285.42025
285.42037
285.42049
285.4206
285.42071
285.42081
285.42093
285.42104
285.42115
285.42127
285.42139
285.4215
285.42163
285.42176
285.42188
285.42201
285.42212
285.42222
285.42233
285.42244
285.42256
285.42269
285.4228
285.4229
285.42297
285.42302
285.42307
285.42311
285.42317
285.42322
285.42328
285.42332
285.42334
285.42335
285.42336
285.42336
285.42335
285.42333
285.4233
285.42325
285.4232
285.42314
285.42309
285.42303
285.42298
285.42293
285.42289
285.42287
285.42286
285.42286
285.42287
285.42289
285.42295
285.42309
285.42327
285.42348
285.4237
285.42394
285.42421
285.42451
285.42485
285.42518
285.42549
285.42576
285.42601
285.42626
285.42651
285.42677
285.42704
285.42733
285.42764
285.42795
285.42825
285.4285
285.4287
285.42883
285.42889
285.4289
285.42889
285.42884
285.42879
285.42879
285.42881
285.4289
285.42916
285.42944
285.42961
285.42971
285.42981
285.43002
285.43065
285.43266
285.439
285.45823
285.51427
285.67353
286.10918
287.29585
289.46891
291.79886
294.00294
295.90749
297.4342
298.58102
299.39413
299.94118
300.29167
300.50589
300.63077
300.69995
300.73602
300.75336
300.76066
300.76297
300.76318
300.7626
300.76096
300.75934
300.7579
300.75646
300.75494
300.7533
300.75158
300.74981
300.74807
300.74642
300.74489
300.74352
300.74233
300.74132
300.74049
300.73983
300.7393
300.73886
300.73847
300.73809
300.73771
300.73733
300.73694
300.73655
300.73616
300.73578
300.7354
300.73504
300.7347
300.73436
300.73404
300.73374
300.73344
300.73315
300.73285
300.73253
300.73218
300.7318
300.73139
300.73095
300.73048
300.72998
300.72944
300.72888
300.7283
300.72772
300.72715
300.72658
300.72604
300.7255
300.72498
300.7245
300.72404
300.72362
300.72322
300.72286
300.72251
300.72218
300.72187
300.72157
300.72127
300.721
300.72075
300.72051
300.72029
300.7201
300.71991
300.71973
300.71955
300.71937
300.71918
300.719
300.71884
300.71868
300.71853
300.71837
300.71822
300.71806
300.71791
300.71777
300.71764
300.71751
300.71738
300.71726
300.71713
300.717
300.71688
300.71677
300.71665
300.71654
300.71642
300.71631
300.7162
300.7161
300.71599
300.71587
300.71576
300.71566
300.71554
300.71545
300.71537
300.71528
300.71519
300.7151
300.715
300.7149
300.71482
300.71474
300.71466
300.71458
300.7145
300.71442
300.71433
300.71425
300.71417
300.71407
300.71399
300.71392
300.71384
300.71376
300.71369
300.71361
300.71354
300.71346
300.7134
300.71334
300.71328
300.71321
300.71315
300.71307
300.71301
300.71294
300.71288
300.71281
300.71275
300.71269
300.71263
300.71257
300.71251
300.71245
300.71239
300.71233
300.71227
300.71222
300.71217
300.71212
300.71206
300.712
300.71194
300.71188
300.71183
300.71178
300.71173
300.71169
300.71164
300.71158
300.71153
300.71148
300.71143
300.71138
300.71135
300.7113
300.71125
300.7112
300.71115
300.7111
300.71106
300.71103
300.71099
300.71095
300.7109
300.71085
300.7108
300.71075
300.71071
300.71067
300.71064
300.7106
300.71057
300.71053
300.71049
300.71044
300.7104
300.71036
300.71032
300.71028
300.71024
300.71021
300.71017
300.71013
300.7101
300.71007
300.71003
300.70999
300.70995
300.70991
300.70987
300.70983
300.70979
300.70975
300.70972
300.70969
300.70966
300.70963
300.70959
300.70955
300.70951
300.70947
300.70943
300.7094
300.70938
300.70935
300.70931
300.70928
300.70925
300.70921
300.70918
300.70916
300.70912
300.70909
300.70905
300.70902
300.70898
300.70895
300.70892
300.70888
300.70885
300.70883
300.7088
300.70877
300.70874
300.70871
300.70868
300.70865
300.70862
300.70859
300.70856
300.70852
300.70848
300.70845
300.70843
300.70841
300.70839
300.70836
300.70834
300.70831
300.70828
300.70824
300.70821
300.70819
300.70816
300.70814
300.70811
300.70808
300.70805
300.70802
300.708
300.70797
300.70795
300.70792
300.70789
300.70787
300.70785
300.70782
300.70781
300.70778
300.70775
300.70772
300.70768
300.70766
300.70763
300.70761
300.70758
300.70755
300.70753
300.70751
300.70748
300.70747
300.70745
300.70743
300.70741
300.70738
300.70736
300.70733
300.7073
300.70728
300.70726
300.70724
300.70721
300.70719
300.70718
300.70716
300.70715
300.70713
300.7071
300.70708
300.70706
300.70703
300.70701
300.70698
300.70697
300.70695
300.70694
300.70692
300.70691
300.7069
300.70688
300.70687
300.70684
300.70683
300.70681
300.70679
300.70678
300.70678
300.70677
300.70676
300.70674
300.70672
300.70672
300.70671
300.7067
300.70669
300.70668
300.70666
300.70666
300.70666
300.70665
300.70664
300.70664
300.70664
300.70663
300.70662
300.70661
300.7066
300.7066
300.70662
300.70664
300.70664
300.70664
300.70663
300.70661
300.7066
300.70659
300.70659
300.70659
300.70658
300.70657
300.70655
300.70653
300.70651
300.70648
300.70645
300.70642
300.70637
300.70632
300.70626
300.7062
300.70612
300.70604
300.70595
300.70585
300.70574
300.70562
300.70548
300.70533
300.70516
300.70497
300.70476
300.70452
300.70426
300.70396
300.70363
300.70327
300.70287
300.70242
300.70192
300.70136
300.70074
300.70006
300.69931
300.69847
300.69755
300.69653
300.6954
300.69416
300.6928
300.6913
300.68965
300.68784
300.68585
300.68367
300.68128
300.67868
300.67583
300.67272
300.66933
300.66564
300.66162
300.65725
300.6525
300.64736
300.64178
300.63574
300.62921
300.62215
300.61453
300.60631
300.59745
300.58792
300.57767
300.56667
300.55485
300.54219
300.52863
300.51411
300.4986
300.48203
300.46436
300.44553
300.42548
300.40415
300.38149
300.35743
300.33192
300.3049
300.27629
300.24606
300.21412
300.18042
300.14491
300.10751
300.06818
300.02685
299.98348
299.938
299.89036
299.84053
299.78845
299.73408
299.67738
299.61833
299.55689
299.49305
299.42677
299.35806
299.28691
299.21331
299.13728
299.05883
298.97798
298.89478
298.80925
298.72144
298.63141
298.53923
298.44497
298.3487
298.25053
298.15054
298.04884
297.94556
297.8408
297.7347
297.62739
297.51901
297.40971
297.29964
297.18895
297.07781
296.96637
296.85479
296.74324
296.63187
296.52086
296.41037
296.30054
296.19154
296.08351
295.9766
295.87096
295.76671
295.66398
295.56289
295.46355
295.36607
295.27055
295.17706
295.0857
294.99653
294.9096
294.82498
294.74271
294.66282
294.58533
294.51028
294.43766
294.36748
294.29974
294.23442
294.17152
294.111
294.05284
293.99701
293.94347
293.89218
293.84308
293.79614
293.75131
293.70852
293.66772
293.62886
293.59188
293.55671
293.5233
293.49158
293.4615
293.433
293.406
293.38046
293.35631
293.33349
293.31195
293.29164
293.27248
293.25444
293.23746
293.22149
293.20647
293.19237
293.17913
293.16671
293.15506
293.14415
293.13394
293.12438
293.11544
293.10709
293.09929
293.09201
293.08522
293.07888
293.07299
293.06749
293.06238
293.05763
293.05321
293.0491
293.04529
293.04175
293.03847
293.03543
293.03262
293.03001
293.02759
293.02536
293.0233
293.0214
293.01964
293.01801
293.01651
293.01513
293.01386
293.01269
293.01161
293.01062
293.00971
293.00887
293.0081
293.0074
293.00675
293.00615
293.00561
293.00511
293.00465
293.00424
293.00385
293.00351
293.00319
293.00289
293.00263
293.00239
293.00216
293.00196
293.00178
293.00161
293.00146
293.00132
293.00119
293.00108
293.00098
293.00088
293.0008
293.00072
293.00065
293.00058
293.00053
293.00047
293.00043
293.00038
293.00035
293.00031
293.00028
293.00025
293.00023
293.0002
293.00018
293.00016
293.00015
293.00013
293.00012
293.00011
293.00009
293.00008
293.00008
293.00007
293.00006
293.00005
293.00005
293.00004
293.00004
293.00003
293.00003
293.00003
293.00002
293.00002
293.00002
293.00002
293.00001
293.00001
293.00001
293.00001
293.00001
293.00001
293.00001
293.00001
293.00001
293.00001
293
293
293
293
293
293
293
293
293
293
293
293
293
293
293
293
293
293
293
293
293
293
293
293
293
293
293
293
293
293
293
293
293
293
293
293
293
293
293
293
293
293
293
293
293
293
293
293
293
293
293
293
293
293
293
293
293
293
293
293
293
293
293
293
293
293
293
293
293
293
293
293
293
293
293
293
293
293
293
293
293
293
293
293
293
293
293
293
293
293
293
293
293
293
293
293
293
293
293
293
293
293
293
293
293
293
293
293
293
293
293
293
293
293
293
293
293
293
293
293
293
293
293
293
293
293
293
293
293
293
293
293
293
293
293
293
293
293
293
293
293
293
293
293
293
293
293
293
293
293
293
293
293
293
293
293
293
293
293
293
293
293
293
293
293
293
293
293
293
293
293
293
293
293
293
293
293
293
293
293
293
293
293
293
293
293
293
293
293
293
293
293
293
293
293
293
293
293
293
293
293
293
293
293
293
293
293
293
293
293
293
293
293
293
293
293
293
293
293
293
293
293
293
293
293
293
293
293
293
293
293
293
293
293
293
293
293
293
293
293
293
293
293
293
293
293
293
293
293
293
293
293
293
293
293
293
293
293
293
293
293
293
293
293
293
293
293
293
293
293
293
293
293
293
293
293
293
293
293
293
293
293
293
293
293
293
293
293
293
293
293
293
293
293
293
293
293
293
293
293
293
293
293
293
293
293
293
293
293
293
293
293
293
293
293
293
293
293
293
293
293
293
293
293
293
293
293
293
293
293
293
293
293
293
293
293
293
293
293
293
293
293
293
293
293
293
293
293
293
293
293
293
293
293
293
293
293
293
293
293
293
293
293
293
293
293
293
293
293
293
293
293
293
293
293
293
293
293
293
293
293
293
293
293
293
293
293
293
293
293
293
293
293
293
293
293
293
293
293
293
293
293
293
293
293
293
293
293
293
293
293
293
293
293
293
293
293
293
293
293
293
293
293
293
293
293
293
293
293
293
293
293
293
293
293
293
293
293
293
293
293
293
293
293
293
293
293
293
293
293
293
293
293
293
293
293
293
293
293
293
293
293
293
293
293
293
293
293
293
293
293
293
293
293
293
293
293
293
293
293
293
293
293
293
293
293
293
293
293
293
293
293
293
293
293
293
293
293
293
293
293
293
293
293
293
293
293
293
293
293
293
293
293
293
293
293
293
293
293
293
293
293
293
293
293
293
293
293
293
293
293
293
293
293
293
293
293
293
293
293
293
293
293
293
293
293
293
293
293
293
293
293
293
293
293
293
293
293
293
293
293
293
293
293
293
293
293
293
293
293
293
293
293
293
293
293
293
293
293
293
293
293
293
293
293
293
293
293
293
293
293
293
293
293
293
293
293
293
293
293
293
293
293
293
293
293
293
293
293
293
293
293
293
293
293
293
293
293
293
293
293
293
293
293
293
293
293
293
293
293
293
293
293
293
293
293
293
293
293
293
293
293
293
293
293
293
293
293
293
293
293
293
293
293
293
293
293
293
293
293
293
293
293
293
293
293
293
293
293
293
293
293
293
293
293
293
293
293
293
293
293
293
293
293
293
293
293
293
293
293
293
293
293
293
293
293
293
293
293
293
293
293
293
293
293
293
293
293
293
293
293
293
293
293
293
293
293
293
293
293
293
293
293
293
293
293
293
293
293
293
293
293
293
293
293
293
293
293
293
293
293
293
293
293
293
293
293
293
293
293
293
293
293
293
293
293
293
293
293
293
293
293
293
293
293
293
293
293
293
293
293
293
293
293
293
293
293
293
293
293
293
293
293
293
293
293
293
293
293
293
293
293
293
293
293
293
293
293
293
293
293
293
293
293
293
293
293
293
293
293
293
293
293
293
293
293
293
293
293
293
293
293
293
293
293
293
293
293
293
293
293
293
293
293
293
293
293
293
293
293
293
293
293
293
293
293
293
293
293
293
293
293
293
293
293
293
293
293
293
293
293
293
293
293
293
293
293
293
293
293
293
293
293
293
293
293
293
293
293
293
293
293
293
293
293
293
293
293
293
293
293
293
293
293
293
293
293
293
293
293
293
293
293
293
293
293
293
293
293
293
293
293
293
293
293
293
293
293
293
293
293
293
293
293
293
293
293
293
293
293
293
293
293
293
293
293
293
293
293
293
293
293
293
293
293
293
293
293
293
293
293
293
293
293
293
293
293
293
293
293
293
293
293
293
293
293
293
293
293
293
293
293
293
293
293
293
293
293
293
293
293
293
293
293
293
293
293
293
293
293
293
293
293
293
293
293
293
293
293
293
293
293
293
293
293
293
293
293
293
293
293
293
293
293
293
293
293
293
293
293
293
293
293
293
293
293
293
293
293
293
293
293
293
293
293
293
293
293
293
293
293
293
293
293
293
293
293
293
293
293
293
293
293
293
293
293
293
293
293
293
293
293
293
293
293
293
293
293
293
293
293
293
293
293
293
293
293
293
293
293
293
293
293
293
293
293
293
293
293
293
293
293
293
293
293
293
293
293
293
293
293
293
293
293
293
293
293
293
293
293
293
293
293
293
293
293
293
293
293
293
293
293
293
293
293
293
293
293
293
293
293
293
293
293
293
293
293
293
293
293
293
293
293
293
293
293
293
293
293
293
293
293
293
293
293
293
293
293
293
293
293
293
293
293
293
293
293
293
293
293
293
293
293
293
293
292.99999
292.99999
292.99999
292.99999
292.99999
292.99999