/*--------------------------------*- C++ -*----------------------------------*\
  =========                 |
  \\      /  F ield         | OpenFOAM: The Open Source CFD Toolbox
   \\    /   O peration     | Website:  https://openfoam.org
    \\  /    A nd           | Version:  7
     \\/     M anipulation  |
\*---------------------------------------------------------------------------*/
FoamFile
{
    version     2.0;
    format      ascii;
    class       volScalarField;
    location    "0.0032";
    object      T;
}
// * * * * * * * * * * * * * * * * * * * * * * * * * * * * * * * * * * * * * //

dimensions      [0 0 0 1 0 0 0];

internalField   nonuniform List<scalar> 
5000
(
242.55205
242.55704
242.56228
242.56483
242.57003
242.5726
242.57775
242.58032
242.58546
242.58803
242.59317
242.59573
242.60087
242.60343
242.60856
242.61112
242.61625
242.61881
242.62393
242.62649
242.63161
242.63417
242.63928
242.64184
242.64694
242.6495
242.6546
242.65715
242.66225
242.6648
242.66989
242.67244
242.67753
242.68007
242.68516
242.6877
242.69277
242.69531
242.70039
242.70292
242.70799
242.71052
242.71558
242.71811
242.72317
242.72569
242.73075
242.73327
242.73831
242.74084
242.74588
242.74839
242.75343
242.75594
242.76097
242.76349
242.76851
242.77102
242.77604
242.77854
242.78355
242.78606
242.79106
242.79357
242.79857
242.80107
242.80606
242.80856
242.81355
242.81604
242.82102
242.82352
242.82849
242.83098
242.83595
242.83844
242.84341
242.84589
242.85085
242.85333
242.85829
242.86076
242.86572
242.86819
242.87313
242.87561
242.88055
242.88301
242.88795
242.89041
242.89534
242.89781
242.90273
242.90519
242.91011
242.91256
242.91747
242.91993
242.92484
242.92729
242.93219
242.93464
242.93953
242.94198
242.94687
242.94932
242.95419
242.95666
242.96148
242.96401
242.96876
242.97136
242.97602
242.97871
242.98326
242.98605
242.9905
242.9934
242.99771
243.00074
243.00492
243.00808
243.01211
243.01542
243.01928
243.02275
243.02644
243.03009
243.03358
243.03743
243.04071
243.04476
243.04783
243.05209
243.05495
243.05939
243.06206
243.06668
243.0692
243.07392
243.07636
243.08113
243.08353
243.08831
243.0907
243.09548
243.09787
243.10265
243.10503
243.1098
243.11219
243.11695
243.11933
243.12409
243.12647
243.13122
243.1336
243.13834
243.14072
243.14546
243.14783
243.15257
243.15493
243.15967
243.16203
243.16676
243.16912
243.17384
243.1762
243.18092
243.18327
243.18798
243.19034
243.19504
243.1974
243.2021
243.20445
243.20914
243.21149
243.21618
243.21852
243.22321
243.22555
243.23023
243.23257
243.23724
243.23958
243.24425
243.24658
243.25124
243.25357
243.25823
243.26056
243.26521
243.26754
243.27219
243.27451
243.27915
243.28148
243.28611
243.28843
243.29306
243.29538
243.30001
243.30232
243.30694
243.30925
243.31387
243.31618
243.32079
243.3231
243.3277
243.33001
243.33461
243.33691
243.34151
243.3438
243.3484
243.35069
243.35528
243.35757
243.36215
243.36444
243.36902
243.37131
243.37588
243.37817
243.38274
243.38502
243.38958
243.39186
243.39642
243.3987
243.40325
243.40553
243.41007
243.41235
243.41689
243.41916
243.4237
243.42597
243.4305
243.43277
243.4373
243.43956
243.44409
243.44635
243.45087
243.45313
243.45764
243.4599
243.46441
243.46667
243.47117
243.47343
243.47793
243.48018
243.48468
243.48692
243.49142
243.49366
243.49815
243.50039
243.50488
243.50712
243.5116
243.51384
243.51832
243.52055
243.52503
243.52726
243.53173
243.53396
243.53843
243.54066
243.54512
243.54735
243.5518
243.55403
243.55848
243.56071
243.56516
243.56738
243.57183
243.57405
243.57849
243.58071
243.58515
243.58736
243.5918
243.59402
243.59845
243.60066
243.60509
243.6073
243.61173
243.61394
243.61836
243.62057
243.62499
243.6272
243.63161
243.63382
243.63824
243.64044
243.64485
243.64706
243.65146
243.65367
243.65807
243.66027
243.66468
243.66688
243.67128
243.67348
243.67788
243.68008
243.68447
243.68667
243.69106
243.69326
243.69765
243.69985
243.70424
243.70643
243.71082
243.71302
243.7174
243.7196
243.72398
243.72618
243.73056
243.73275
243.73714
243.73933
243.74371
243.7459
243.75028
243.75247
243.75685
243.75904
243.76342
243.76561
243.76999
243.77217
243.77655
243.77874
243.78312
243.78531
243.78968
243.79187
243.79625
243.79843
243.80281
243.805
243.80937
243.81156
243.81594
243.81812
243.8225
243.82468
243.82906
243.83125
243.83562
243.83781
243.84218
243.84437
243.84874
243.85093
243.85531
243.85749
243.86187
243.86405
243.86843
243.87062
243.87499
243.87718
243.88155
243.88374
243.88811
243.8903
243.89468
243.89686
243.90124
243.90342
243.9078
243.90999
243.91436
243.91655
243.92092
243.92311
243.92748
243.92967
243.93404
243.93623
243.9406
243.94279
243.94716
243.94935
243.95372
243.95591
243.96028
243.96246
243.96684
243.96902
243.97339
243.97558
243.97995
243.98213
243.9865
243.98868
243.99305
243.99523
243.9996
244.00178
244.00615
244.00833
244.01269
244.01488
244.01924
244.02142
244.02578
244.02796
244.03232
244.0345
244.03885
244.04103
244.04539
244.04756
244.05192
244.05409
244.05844
244.06062
244.06497
244.06714
244.07148
244.07366
244.078
244.08017
244.08451
244.08668
244.09102
244.09318
244.09752
244.09968
244.10401
244.10618
244.11051
244.11267
244.11699
244.11915
244.12347
244.12563
244.12995
244.13211
244.13642
244.13857
244.14288
244.14503
244.14934
244.15149
244.15579
244.15794
244.16223
244.16438
244.16867
244.17082
244.1751
244.17725
244.18153
244.18367
244.18794
244.19008
244.19435
244.19649
244.20076
244.20289
244.20715
244.20928
244.21354
244.21566
244.21992
244.22204
244.22629
244.22841
244.23265
244.23477
244.23901
244.24112
244.24535
244.24747
244.25169
244.2538
244.25802
244.26013
244.26435
244.26645
244.27066
244.27276
244.27696
244.27907
244.28327
244.28536
244.28954
244.29168
244.29576
244.29803
244.30195
244.30438
244.30813
244.31073
244.3143
244.31706
244.32047
244.32337
244.32664
244.32966
244.33282
244.33592
244.33901
244.34216
244.3452
244.34838
244.35139
244.35459
244.35757
244.36078
244.36375
244.36696
244.36992
244.37314
244.37608
244.3793
244.38224
244.38545
244.38838
244.39159
244.39452
244.39773
244.40065
244.40385
244.40677
244.40996
244.41289
244.41605
244.419
244.42214
244.4251
244.42822
244.4312
244.43429
244.43728
244.44035
244.44336
244.4464
244.44942
244.45244
244.45547
244.45848
244.46152
244.4645
244.46755
244.47052
244.47357
244.47654
244.47958
244.48254
244.48559
244.48853
244.49158
244.49452
244.49756
244.5005
244.50354
244.50647
244.5095
244.51243
244.51546
244.51838
244.5214
244.52432
244.52734
244.53025
244.53327
244.53617
244.53919
244.54209
244.5451
244.54799
244.551
244.55389
244.55689
244.55978
244.56277
244.56565
244.56865
244.57152
244.57451
244.57738
244.58037
244.58323
244.58621
244.58908
244.59205
244.59491
244.59788
244.60073
244.6037
244.60655
244.60951
244.61235
244.61531
244.61815
244.6211
244.62394
244.62688
244.62971
244.63266
244.63548
244.63842
244.64124
244.64418
244.647
244.64992
244.65274
244.65566
244.65847
244.66139
244.66419
244.66711
244.66991
244.67282
244.67562
244.67852
244.68131
244.68421
244.687
244.6899
244.69268
244.69557
244.69835
244.70124
244.70401
244.70689
244.70966
244.71254
244.7153
244.71818
244.72094
244.72381
244.72656
244.72943
244.73218
244.73504
244.73779
244.74065
244.74338
244.74624
244.74897
244.75182
244.75455
244.7574
244.76012
244.76297
244.76569
244.76853
244.77124
244.77407
244.77678
244.77962
244.78232
244.78515
244.78784
244.79067
244.79336
244.79618
244.79887
244.80169
244.80437
244.80718
244.80986
244.81266
244.81535
244.81814
244.82082
244.8236
244.82629
244.82906
244.83175
244.83451
244.8372
244.83994
244.84264
244.84537
244.84807
244.8508
244.85349
244.85621
244.85891
244.86161
244.86431
244.86701
244.8697
244.8724
244.87509
244.87778
244.88046
244.88315
244.88583
244.88851
244.89119
244.89387
244.89654
244.89921
244.90188
244.90455
244.90721
244.90987
244.91253
244.91519
244.91785
244.9205
244.92315
244.9258
244.92845
244.93109
244.93374
244.93638
244.93901
244.94165
244.94428
244.94692
244.94955
244.95217
244.9548
244.95742
244.96004
244.96266
244.96528
244.96789
244.9705
244.97311
244.97572
244.97833
244.98093
244.98353
244.98613
244.98873
244.99132
244.99392
244.99651
244.99909
245.00168
245.00426
245.00685
245.00943
245.012
245.01458
245.01715
245.01972
245.02229
245.02486
245.02742
245.02999
245.03255
245.0351
245.03766
245.04021
245.04277
245.04531
245.04786
245.05041
245.05295
245.05549
245.05803
245.06057
245.0631
245.06563
245.06816
245.07069
245.07322
245.07574
245.07826
245.08078
245.0833
245.08581
245.08833
245.09084
245.09335
245.09585
245.09836
245.10086
245.10336
245.10586
245.10835
245.11085
245.11334
245.11583
245.11832
245.1208
245.12328
245.12576
245.12824
245.13072
245.13319
245.13567
245.13814
245.1406
245.14307
245.14553
245.148
245.15045
245.15291
245.15537
245.15782
245.16027
245.16272
245.16517
245.16761
245.17005
245.17249
245.17493
245.17737
245.1798
245.18223
245.18466
245.18709
245.18952
245.19194
245.19436
245.19678
245.1992
245.20162
245.20403
245.20644
245.20885
245.21126
245.21366
245.21607
245.21847
245.22087
245.22327
245.22567
245.22806
245.23046
245.23285
245.23524
245.23763
245.24001
245.2424
245.24478
245.24716
245.24954
245.25191
245.25429
245.25666
245.25904
245.26141
245.26377
245.26614
245.2685
245.27087
245.27323
245.27559
245.27794
245.2803
245.28265
245.285
245.28735
245.2897
245.29204
245.29439
245.29673
245.29907
245.30141
245.30374
245.30608
245.30841
245.31074
245.31307
245.3154
245.31772
245.32004
245.32236
245.32468
245.327
245.32931
245.33163
245.33394
245.33624
245.33855
245.34085
245.34316
245.34546
245.34775
245.35005
245.35234
245.35463
245.35692
245.35921
245.3615
245.36378
245.36606
245.36834
245.37062
245.37289
245.37517
245.37744
245.37971
245.38197
245.38424
245.3865
245.38876
245.39102
245.39328
245.39553
245.39778
245.40004
245.40228
245.40453
245.40678
245.40902
245.41126
245.4135
245.41574
245.41797
245.42021
245.42244
245.42467
245.42689
245.42912
245.43134
245.43356
245.43578
245.438
245.44021
245.44243
245.44464
245.44685
245.44905
245.45126
245.45346
245.45566
245.45786
245.46006
245.46226
245.46445
245.46664
245.46883
245.47102
245.47321
245.47539
245.47757
245.47975
245.48193
245.48411
245.48628
245.48846
245.49063
245.4928
245.49496
245.49713
245.49929
245.50145
245.50361
245.50577
245.50793
245.51008
245.51223
245.51438
245.51653
245.51868
245.52082
245.52296
245.5251
245.52724
245.52938
245.53152
245.53365
245.53578
245.53791
245.54004
245.54216
245.54429
245.54641
245.54853
245.55065
245.55277
245.55489
245.557
245.55911
245.56123
245.56333
245.56544
245.56755
245.56965
245.57175
245.57386
245.57596
245.57805
245.58015
245.58224
245.58434
245.58643
245.58852
245.59061
245.59269
245.59478
245.59686
245.59894
245.60102
245.6031
245.60518
245.60725
245.60933
245.6114
245.61347
245.61554
245.61761
245.61967
245.62174
245.6238
245.62586
245.62792
245.62997
245.63203
245.63408
245.63614
245.63819
245.64024
245.64228
245.64433
245.64637
245.64841
245.65045
245.65249
245.65453
245.65656
245.6586
245.66063
245.66266
245.66468
245.66671
245.66873
245.67076
245.67278
245.6748
245.67681
245.67883
245.68084
245.68285
245.68486
245.68687
245.68887
245.69088
245.69288
245.69488
245.69688
245.69887
245.70086
245.70286
245.70485
245.70683
245.70882
245.71081
245.71279
245.71477
245.71675
245.71872
245.7207
245.72267
245.72464
245.72661
245.72857
245.73054
245.7325
245.73446
245.73642
245.73838
245.74033
245.74229
245.74424
245.74619
245.74814
245.75008
245.75202
245.75396
245.7559
245.75784
245.75978
245.76171
245.76364
245.76557
245.76749
245.76942
245.77134
245.77326
245.77518
245.7771
245.77901
245.78093
245.78284
245.78475
245.78666
245.78856
245.79047
245.79237
245.79427
245.79616
245.79806
245.79995
245.80184
245.80373
245.80562
245.8075
245.80939
245.81127
245.81315
245.81502
245.8169
245.81877
245.82064
245.82251
245.82438
245.82624
245.82811
245.82997
245.83183
245.83368
245.83554
245.83739
245.83924
245.84109
245.84294
245.84479
245.84663
245.84847
245.85031
245.85215
245.85398
245.85582
245.85765
245.85948
245.86131
245.86313
245.86495
245.86678
245.8686
245.87041
245.87223
245.87404
245.87585
245.87766
245.87947
245.88128
245.88308
245.88488
245.88668
245.88848
245.89028
245.89207
245.89387
245.89566
245.89745
245.89924
245.90102
245.90281
245.90459
245.90637
245.90815
245.90992
245.9117
245.91347
245.91525
245.91702
245.91879
245.92055
245.92232
245.92408
245.92585
245.92761
245.92936
245.93112
245.93288
245.93463
245.93638
245.93813
245.93988
245.94163
245.94337
245.94512
245.94686
245.9486
245.95034
245.95208
245.95382
245.95555
245.95728
245.95901
245.96074
245.96247
245.9642
245.96592
245.96764
245.96937
245.97109
245.9728
245.97452
245.97623
245.97795
245.97966
245.98137
245.98307
245.98478
245.98648
245.98819
245.98989
245.99159
245.99329
245.99498
245.99668
245.99837
246.00006
246.00175
246.00344
246.00512
246.0068
246.00849
246.01017
246.01185
246.01352
246.0152
246.01687
246.01854
246.02021
246.02188
246.02355
246.02521
246.02688
246.02854
246.0302
246.03185
246.03351
246.03516
246.03682
246.03847
246.04012
246.04176
246.04341
246.04505
246.04669
246.04833
246.04997
246.05161
246.05324
246.05487
246.05651
246.05814
246.05976
246.06139
246.06301
246.06463
246.06625
246.06787
246.06949
246.0711
246.07272
246.07433
246.07594
246.07754
246.07915
246.08075
246.08236
246.08396
246.08556
246.08715
246.08875
246.09034
246.09193
246.09352
246.09511
246.09669
246.09828
246.09986
246.10144
246.10302
246.10459
246.10617
246.10774
246.10931
246.11088
246.11245
246.11401
246.11558
246.11714
246.1187
246.12025
246.12181
246.12336
246.12492
246.12646
246.12802
246.12956
246.13111
246.13265
246.13419
246.13573
246.13727
246.1388
246.14033
246.14187
246.14339
246.14492
246.14645
246.14797
246.14949
246.15102
246.15253
246.15405
246.15556
246.15708
246.15859
246.1601
246.1616
246.16311
246.16461
246.16611
246.16761
246.16911
246.17061
246.1721
246.17359
246.17508
246.17657
246.17806
246.17954
246.18102
246.18251
246.18399
246.18547
246.18694
246.18842
246.18989
246.19136
246.19283
246.19429
246.19576
246.19722
246.19869
246.20015
246.20161
246.20306
246.20452
246.20597
246.20742
246.20887
246.21032
246.21177
246.21321
246.21465
246.21609
246.21753
246.21897
246.22041
246.22184
246.22327
246.2247
246.22613
246.22756
246.22899
246.23041
246.23183
246.23325
246.23467
246.23609
246.23751
246.23892
246.24033
246.24174
246.24315
246.24456
246.24596
246.24736
246.24876
246.25016
246.25156
246.25296
246.25435
246.25575
246.25713
246.25853
246.25991
246.2613
246.26268
246.26406
246.26544
246.26682
246.2682
246.26958
246.27095
246.27232
246.27369
246.27506
246.27643
246.27779
246.27915
246.28051
246.28187
246.28323
246.28459
246.28594
246.2873
246.28865
246.29
246.29134
246.29269
246.29403
246.29538
246.29672
246.29806
246.29939
246.30073
246.30206
246.30339
246.30473
246.30605
246.30738
246.30871
246.31003
246.31136
246.31268
246.31399
246.31531
246.31663
246.31794
246.31925
246.32056
246.32187
246.32318
246.32449
246.32579
246.32709
246.32839
246.32969
246.33099
246.33228
246.33358
246.33487
246.33616
246.33745
246.33874
246.34002
246.34131
246.34259
246.34387
246.34515
246.34643
246.3477
246.34898
246.35025
246.35152
246.35279
246.35406
246.35533
246.35659
246.35785
246.35911
246.36037
246.36163
246.36288
246.36414
246.36539
246.36664
246.36789
246.36914
246.37039
246.37163
246.37287
246.37411
246.37535
246.37659
246.37782
246.37906
246.38029
246.38153
246.38275
246.38398
246.3852
246.38643
246.38765
246.38887
246.39009
246.39131
246.39252
246.39374
246.39495
246.39617
246.39737
246.39858
246.39978
246.40099
246.40219
246.4034
246.40459
246.40579
246.40698
246.40818
246.40937
246.41056
246.41175
246.41294
246.41412
246.41531
246.41649
246.41767
246.41885
246.42003
246.4212
246.42238
246.42355
246.42472
246.42589
246.42706
246.42823
246.42939
246.43056
246.43172
246.43288
246.43404
246.43519
246.43635
246.4375
246.43865
246.4398
246.44095
246.44209
246.44324
246.44438
246.44552
246.44666
246.4478
246.44894
246.45007
246.4512
246.45233
246.45346
246.45459
246.45572
246.45684
246.45797
246.45909
246.46021
246.46133
246.46244
246.46356
246.46467
246.46578
246.46689
246.468
246.46911
246.47021
246.47131
246.47241
246.47351
246.47461
246.47571
246.4768
246.47789
246.47898
246.48007
246.48116
246.48224
246.48333
246.48441
246.48549
246.48657
246.48764
246.48872
246.48979
246.49086
246.49193
246.49299
246.49406
246.49512
246.49619
246.49725
246.49831
246.49937
246.50042
246.50148
246.50253
246.50358
246.50463
246.50568
246.50672
246.50777
246.50881
246.50985
246.51088
246.51192
246.51295
246.51399
246.51502
246.51605
246.51707
246.5181
246.51913
246.52015
246.52117
246.52219
246.52321
246.52422
246.52524
246.52625
246.52726
246.52827
246.52927
246.53028
246.53128
246.53228
246.53328
246.53428
246.53528
246.53627
246.53726
246.53826
246.53925
246.54023
246.54122
246.54221
246.54319
246.54417
246.54515
246.54613
246.54711
246.54808
246.54905
246.55002
246.55099
246.55196
246.55293
246.55389
246.55486
246.55582
246.55678
246.55774
246.55869
246.55965
246.5606
246.56155
246.5625
246.56345
246.5644
246.56534
246.56629
246.56723
246.56817
246.56911
246.57005
246.57098
246.57192
246.57285
246.57378
246.57471
246.57564
246.57656
246.57749
246.57841
246.57933
246.58025
246.58117
246.58208
246.583
246.58391
246.58482
246.58573
246.58664
246.58755
246.58846
246.58936
246.59026
246.59116
246.59206
246.59296
246.59386
246.59475
246.59564
246.59653
246.59742
246.59831
246.5992
246.60008
246.60097
246.60185
246.60273
246.60361
246.60448
246.60536
246.60623
246.60711
246.60798
246.60885
246.60972
246.61059
246.61145
246.61232
246.61318
246.61404
246.6149
246.61575
246.61661
246.61747
246.61832
246.61917
246.62002
246.62087
246.62172
246.62256
246.62341
246.62425
246.62509
246.62593
246.62677
246.6276
246.62844
246.62927
246.6301
246.63093
246.63176
246.63259
246.63341
246.63424
246.63506
246.63588
246.6367
246.63752
246.63833
246.63915
246.63996
246.64077
246.64158
246.64239
246.6432
246.644
246.64481
246.64561
246.64641
246.64721
246.648
246.6488
246.64959
246.65038
246.65117
246.65196
246.65275
246.65354
246.65432
246.6551
246.65589
246.65667
246.65744
246.65822
246.65899
246.65977
246.66054
246.66131
246.66208
246.66284
246.66361
246.66437
246.66513
246.66589
246.66665
246.66741
246.66816
246.66892
246.66967
246.67042
246.67117
246.67191
246.67266
246.6734
246.67414
246.67489
246.67563
246.67636
246.6771
246.67783
246.67857
246.6793
246.68003
246.68076
246.68148
246.68221
246.68293
246.68366
246.68438
246.68509
246.68581
246.68653
246.68724
246.68795
246.68866
246.68937
246.69008
246.69078
246.69149
246.69219
246.69289
246.69359
246.69429
246.69499
246.69568
246.69638
246.69707
246.69776
246.69845
246.69913
246.69982
246.7005
246.70119
246.70187
246.70255
246.70323
246.7039
246.70458
246.70525
246.70593
246.7066
246.70727
246.70793
246.7086
246.70926
246.70992
246.71058
246.71124
246.7119
246.71256
246.71321
246.71387
246.71452
246.71517
246.71582
246.71647
246.71712
246.71776
246.71841
246.71905
246.71969
246.72033
246.72097
246.7216
246.72224
246.72287
246.7235
246.72413
246.72476
246.72539
246.72601
246.72663
246.72726
246.72788
246.7285
246.72912
246.72973
246.73035
246.73096
246.73158
246.73219
246.7328
246.73341
246.73401
246.73462
246.73522
246.73582
246.73642
246.73702
246.73762
246.73822
246.73881
246.73941
246.74
246.74059
246.74118
246.74177
246.74235
246.74294
246.74352
246.74411
246.74469
246.74527
246.74585
246.74642
246.747
246.74757
246.74815
246.74872
246.74929
246.74986
246.75043
246.75099
246.75156
246.75212
246.75268
246.75324
246.7538
246.75436
246.75492
246.75547
246.75602
246.75658
246.75713
246.75768
246.75822
246.75877
246.75932
246.75986
246.7604
246.76094
246.76148
246.76202
246.76256
246.76309
246.76363
246.76416
246.76469
246.76522
246.76575
246.76627
246.7668
246.76732
246.76784
246.76836
246.76888
246.7694
246.76992
246.77043
246.77095
246.77146
246.77197
246.77248
246.77299
246.77349
246.774
246.7745
246.775
246.7755
246.776
246.7765
246.77699
246.77748
246.77798
246.77847
246.77896
246.77945
246.77993
246.78042
246.7809
246.78139
246.78187
246.78235
246.78282
246.7833
246.78377
246.78425
246.78472
246.78519
246.78566
246.78612
246.78659
246.78705
246.78751
246.78797
246.78843
246.78889
246.78935
246.7898
246.79026
246.79071
246.79116
246.79161
246.79205
246.7925
246.79294
246.79339
246.79383
246.79427
246.7947
246.79514
246.79557
246.79601
246.79644
246.79687
246.7973
246.79772
246.79815
246.79857
246.799
246.79942
246.79984
246.80025
246.80067
246.80109
246.8015
246.80191
246.80232
246.80273
246.80314
246.80354
246.80395
246.80435
246.80475
246.80515
246.80555
246.80595
246.80635
246.80674
246.80713
246.80752
246.80791
246.8083
246.80869
246.80907
246.80946
246.80984
246.81022
246.8106
246.81098
246.81135
246.81173
246.8121
246.81247
246.81284
246.81321
246.81358
246.81394
246.81431
246.81467
246.81503
246.81539
246.81575
246.81611
246.81646
246.81682
246.81717
246.81752
246.81787
246.81822
246.81857
246.81891
246.81926
246.8196
246.81995
246.82029
246.82063
246.82097
246.8213
246.82164
246.82197
246.8223
246.82263
246.82296
246.82329
246.82361
246.82394
246.82426
246.82458
246.8249
246.82522
246.82554
246.82586
246.82617
246.82648
246.8268
246.82711
246.82742
246.82773
246.82804
246.82834
246.82865
246.82895
246.82925
246.82955
246.82985
246.83015
246.83045
246.83074
246.83104
246.83133
246.83162
246.83191
246.8322
246.83248
246.83277
246.83305
246.83333
246.83361
246.83389
246.83417
246.83445
246.83472
246.835
246.83527
246.83554
246.83581
246.83608
246.83635
246.83661
246.83688
246.83714
246.8374
246.83766
246.83792
246.83818
246.83844
246.83869
246.83895
246.8392
246.83945
246.8397
246.83995
246.8402
246.84044
246.84068
246.84093
246.84117
246.84141
246.84164
246.84188
246.84212
246.84235
246.84258
246.84281
246.84304
246.84327
246.8435
246.84372
246.84394
246.84417
246.84439
246.84461
246.84482
246.84504
246.84525
246.84547
246.84568
246.84589
246.8461
246.84631
246.84651
246.84672
246.84692
246.84712
246.84732
246.84752
246.84772
246.84792
246.84811
246.84831
246.8485
246.84869
246.84887
246.84906
246.84925
246.84943
246.84961
246.84979
246.84997
246.85015
246.85033
246.8505
246.85068
246.85085
246.85102
246.85119
246.85136
246.85152
246.85169
246.85185
246.85201
246.85217
246.85233
246.85249
246.85264
246.8528
246.85295
246.8531
246.85325
246.8534
246.85355
246.85369
246.85384
246.85398
246.85412
246.85426
246.8544
246.85453
246.85467
246.8548
246.85493
246.85506
246.85519
246.85532
246.85545
246.85557
246.85569
246.85582
246.85594
246.85605
246.85617
246.85629
246.8564
246.85651
246.85663
246.85674
246.85685
246.85695
246.85706
246.85716
246.85726
246.85736
246.85746
246.85756
246.85765
246.85774
246.85783
246.85792
246.85801
246.8581
246.85819
246.85827
246.85836
246.85844
246.85852
246.8586
246.85868
246.85876
246.85883
246.85891
246.85898
246.85905
246.85912
246.85919
246.85926
246.85932
246.85939
246.85945
246.85951
246.85957
246.85962
246.85968
246.85973
246.85979
246.85984
246.85988
246.85993
246.85998
246.86002
246.86007
246.86011
246.86015
246.86019
246.86023
246.86027
246.8603
246.86034
246.86037
246.8604
246.86043
246.86046
246.86049
246.86051
246.86054
246.86056
246.86058
246.8606
246.86062
246.86063
246.86064
246.86066
246.86067
246.86067
246.86068
246.86069
246.86069
246.86069
246.86069
246.86069
246.86069
246.86069
246.86068
246.86068
246.86067
246.86066
246.86064
246.86063
246.86061
246.8606
246.86058
246.86056
246.86053
246.86051
246.86048
246.86045
246.86042
246.86039
246.86035
246.86032
246.86028
246.86023
246.86019
246.86014
246.8601
246.86005
246.85999
246.85994
246.85988
246.85982
246.85976
246.8597
246.85963
246.85956
246.85949
246.85941
246.85934
246.85926
246.85917
246.85909
246.859
246.85891
246.85881
246.85872
246.85862
246.85851
246.8584
246.85829
246.85818
246.85806
246.85794
246.85782
246.85769
246.85756
246.85742
246.85728
246.85714
246.85699
246.85684
246.85669
246.85653
246.85636
246.85619
246.85602
246.85584
246.85566
246.85547
246.85527
246.85507
246.85487
246.85466
246.85445
246.85423
246.854
246.85377
246.85353
246.85329
246.85304
246.85278
246.85252
246.85225
246.85197
246.85169
246.8514
246.8511
246.85079
246.85048
246.85015
246.84982
246.84948
246.84913
246.84877
246.84841
246.84803
246.84764
246.84725
246.84684
246.84643
246.84601
246.84557
246.84513
246.84467
246.8442
246.84372
246.84323
246.84273
246.84221
246.84168
246.84114
246.84059
246.84002
246.83944
246.83884
246.83824
246.83761
246.83698
246.83633
246.83566
246.83498
246.83428
246.83356
246.83283
246.83209
246.83132
246.83054
246.82974
246.82892
246.82809
246.82723
246.82636
246.82547
246.82456
246.82363
246.82268
246.82171
246.82072
246.81971
246.81868
246.81763
246.81656
246.81546
246.81434
246.8132
246.81204
246.81086
246.80965
246.80842
246.80716
246.80589
246.80459
246.80326
246.80191
246.80054
246.79914
246.79772
246.79627
246.7948
246.7933
246.79178
246.79023
246.78866
246.78706
246.78543
246.78378
246.78211
246.7804
246.77867
246.77692
246.77514
246.77333
246.7715
246.76964
246.76776
246.76585
246.76391
246.76195
246.75997
246.75795
246.75592
246.75385
246.75176
246.74965
246.74751
246.74535
246.74316
246.74095
246.73872
246.73646
246.73418
246.73187
246.72955
246.72719
246.72482
246.72243
246.72001
246.71758
246.71512
246.71264
246.71014
246.70763
246.70509
246.70254
246.69996
246.69738
246.69476
246.69215
246.6895
246.68685
246.68417
246.68149
246.67879
246.67608
246.67335
246.67061
246.66786
246.66509
246.66233
246.65954
246.65674
246.65395
246.65113
246.64832
246.64549
246.64266
246.63982
246.63698
246.63413
246.63128
246.62843
246.62557
246.62271
246.61985
246.61699
246.61413
246.61127
246.60841
246.60555
246.6027
246.59984
246.59699
246.59415
246.5913
246.58847
246.58564
246.58281
246.57999
246.57718
246.57437
246.57158
246.56879
246.56601
246.56325
246.56049
246.55774
246.55501
246.55228
246.54957
246.54687
246.54418
246.54151
246.53885
246.5362
246.53357
246.53095
246.52835
246.52576
246.52319
246.52063
246.51809
246.51557
246.51306
246.51056
246.50809
246.50563
246.50319
246.50077
246.49836
246.49597
246.4936
246.49125
246.48891
246.48659
246.48429
246.482
246.47973
246.47748
246.47525
246.47303
246.47083
246.46865
246.46649
246.46434
246.46221
246.4601
246.45801
246.45593
246.45388
246.45183
246.44981
246.4478
246.44581
246.44383
246.44187
246.43992
246.43799
246.43608
246.43418
246.43229
246.43042
246.42857
246.42673
246.4249
246.42309
246.4213
246.41951
246.41774
246.41598
246.41424
246.41251
246.41079
246.40908
246.40738
246.4057
246.40403
246.40237
246.40072
246.39908
246.39745
246.39583
246.39422
246.39262
246.39103
246.38945
246.38788
246.38632
246.38476
246.38322
246.38168
246.38015
246.37863
246.37712
246.37561
246.37411
246.37262
246.37114
246.36966
246.36819
246.36672
246.36526
246.36381
246.36236
246.36092
246.35949
246.35805
246.35663
246.35521
246.35379
246.35238
246.35098
246.34958
246.34818
246.34679
246.3454
246.34402
246.34264
246.34127
246.3399
246.33853
246.33717
246.33581
246.33445
246.3331
246.33175
246.3304
246.32906
246.32772
246.32638
246.32504
246.32371
246.32238
246.32105
246.31972
246.3184
246.31707
246.31575
246.31444
246.31312
246.31181
246.31049
246.30918
246.30787
246.30657
246.30526
246.30396
246.30266
246.30136
246.30006
246.29876
246.29747
246.29618
246.29489
246.2936
246.29232
246.29103
246.28975
246.28847
246.28719
246.28591
246.28463
246.28336
246.28209
246.28081
246.27954
246.27828
246.27701
246.27574
246.27448
246.27322
246.27196
246.2707
246.26944
246.26819
246.26694
246.26568
246.26443
246.26319
246.26194
246.2607
246.25945
246.25821
246.25697
246.25574
246.2545
246.25327
246.25204
246.25081
246.24958
246.24835
246.24713
246.24591
246.24469
246.24347
246.24225
246.24104
246.23983
246.23862
246.23741
246.2362
246.235
246.2338
246.2326
246.2314
246.2302
246.22901
246.22781
246.22663
246.22544
246.22425
246.22307
246.22188
246.2207
246.21953
246.21836
246.21718
246.21601
246.21484
246.21368
246.21252
246.21136
246.21021
246.20905
246.2079
246.20675
246.20561
246.20447
246.20333
246.20219
246.20106
246.19992
246.19879
246.19766
246.19654
246.19542
246.1943
246.19318
246.19207
246.19095
246.18984
246.18873
246.18762
246.18652
246.18543
246.18433
246.18323
246.18214
246.18104
246.17995
246.17887
246.17779
246.17671
246.17563
246.17455
246.17347
246.17239
246.17132
246.17025
246.16919
246.16813
246.16706
246.16599
246.16492
246.16384
246.16277
246.1617
246.16064
246.15958
246.15852
246.15745
246.15638
246.15531
246.15423
246.15316
246.1521
246.15103
246.14997
246.1489
246.14781
246.14672
246.14563
246.14454
246.14345
246.14237
246.1413
246.14024
246.13917
246.13808
246.137
246.1359
246.13479
246.13369
246.13259
246.13149
246.13042
246.12933
246.12826
246.12717
246.12609
246.12499
246.12389
246.12282
246.12174
246.12068
246.11966
246.11864
246.11765
246.11665
246.11567
246.11468
246.11367
246.11271
246.11171
246.11072
246.10979
246.10884
246.1079
246.10704
246.10617
246.10527
246.10443
246.10361
246.1027
246.10179
246.10095
246.10008
246.09911
246.09819
246.09738
246.09653
246.09561
246.09472
246.09394
246.0932
246.09239
246.09146
246.09055
246.08979
246.08907
246.08815
246.08699
246.08584
246.08488
246.08403
246.08307
246.08187
246.08055
246.07933
246.07835
246.07758
246.07685
246.07603
246.07508
246.07406
246.07307
246.0722
246.07152
246.07103
246.0707
246.07051
246.07042
246.0704
246.07055
246.07128
246.07374
246.081
246.10175
246.16054
246.32744
246.72281
247.21226
247.74267
248.30647
248.89586
249.50311
250.1208
250.74189
251.35981
251.96866
252.56319
253.13877
253.69139
254.2178
254.71553
255.18285
255.6186
256.02215
256.39342
256.73286
257.04138
257.32019
257.5707
257.79445
257.99316
258.1687
258.32302
258.45803
258.57555
258.6773
258.76489
258.83988
258.90377
258.95796
259.00374
259.04222
259.0744
259.10109
259.12304
259.1409
259.15529
259.16679
259.17592
259.18312
259.18875
259.19308
259.19631
259.19864
259.20022
259.20119
259.20169
259.20188
259.2019
259.20186
259.20166
259.20096
259.1996