/*--------------------------------*- C++ -*----------------------------------*\
  =========                 |
  \\      /  F ield         | OpenFOAM: The Open Source CFD Toolbox
   \\    /   O peration     | Website:  https://openfoam.org
    \\  /    A nd           | Version:  7
     \\/     M anipulation  |
\*---------------------------------------------------------------------------*/
FoamFile
{
    version     2.0;
    format      ascii;
    class       volScalarField;
    location    "0.0032";
    object      Uy;
}
// * * * * * * * * * * * * * * * * * * * * * * * * * * * * * * * * * * * * * //

dimensions      [0 1 -1 0 0 0 0];

internalField   nonuniform List<scalar> 
5000
(
1.6543195e-17
1.5806186e-17
0
0
-8.4210026e-18
9.5654795e-33
8.4078589e-18
0
0
-8.3935828e-18
-1.6780207e-17
8.3869429e-18
8.3841293e-18
-8.3813689e-18
0
-8.3760184e-18
-2.0147548e-48
8.3703983e-18
0
8.3642731e-18
-8.3610394e-18
-8.3575724e-18
1.6708115e-17
-8.3503286e-18
-8.3465706e-18
-6.8762389e-32
8.3386836e-18
8.3345829e-18
-1.6661021e-17
1.4435497e-31
-1.4546514e-31
8.3177978e-18
1.6627054e-17
-1.6618263e-17
1.4398215e-31
-7.2188344e-31
-2.8765732e-31
1.6582865e-17
-1.6573995e-17
-1.6564922e-17
1.6555997e-17
-5.6905156e-31
-1.6537913e-17
8.2643807e-18
2.4779655e-17
-8.2552981e-18
-8.250793e-18
-5.6483427e-31
-1.6483375e-17
0
8.232574e-18
1.1692652e-33
-8.2234561e-18
1.6437708e-17
-2.8716257e-31
-1.6419471e-17
8.2052191e-18
-2.8318685e-31
-8.1961039e-18
0
8.1869937e-18
2.7906932e-31
2.3242963e-33
8.1733001e-18
-8.168796e-18
2.8541018e-31
8.1597094e-18
-8.1551266e-18
-8.150629e-18
8.1460489e-18
8.1415538e-18
-8.136977e-18
-8.1324861e-18
1.625583e-17
8.1234304e-18
-8.1188672e-18
0
8.1098358e-18
-1.1518419e-33
-8.1008178e-18
8.0963533e-18
-2.2998298e-33
2.2985616e-33
8.0828029e-18
8.0783446e-18
2.8110244e-31
-8.0693555e-18
0
-8.0603723e-18
-8.3570707e-31
-2.8146653e-31
8.0468625e-18
8.0423954e-18
-1.6075739e-17
-5.5596874e-31
8.0288738e-18
0
0
-8.0155244e-18
-5.5554865e-31
1.6012868e-17
-8.0020596e-18
-1.5995441e-17
0
7.9885114e-18
7.9841473e-18
-7.9796834e-18
-7.9752031e-18
0
0
7.9619127e-18
7.9574357e-18
0
-7.9485664e-18
2.7771777e-31
7.9397066e-18
-7.9353083e-18
2.2540846e-33
-2.7709864e-31
-1.9559555e-49
1.5835222e-17
-3.3735882e-33
-7.9087707e-18
0
-7.8999352e-18
7.8955108e-18
7.8911044e-18
-1.5773378e-17
-7.8822816e-18
1.5755754e-17
7.8734692e-18
-7.8690792e-18
-7.864673e-18
-7.8602963e-18
0
7.8515288e-18
7.8471216e-18
-7.8427678e-18
-2.7179104e-31
7.8340225e-18
-7.8296168e-18
-7.825283e-18
0
7.8165715e-18
7.8121486e-18
-7.8078203e-18
7.8034181e-18
-4.4332734e-33
-7.7947036e-18
7.7903895e-18
-7.7860019e-18
5.4186415e-31
7.7773128e-18
-7.7730113e-18
7.7686368e-18
7.7643416e-18
-7.7599736e-18
0
0
-7.7470414e-18
-7.7426871e-18
7.7384116e-18
7.734064e-18
-7.7297949e-18
-5.3575224e-31
7.7211895e-18
-7.7168529e-18
-7.7125932e-18
0
7.7040037e-18
7.6996739e-18
0
-7.6910937e-18
-7.6868438e-18
0
7.678277e-18
1.5965439e-30
-7.6697232e-18
7.6654149e-18
7.6611847e-18
-7.6568846e-18
-5.2852924e-31
5.2605902e-31
3.2588996e-33
7.6398713e-18
-7.6356639e-18
-1.0584576e-30
5.2460198e-31
-5.243083e-31
7.6187239e-18
0
0
-7.6060247e-18
-7.6018491e-18
0
0
7.5892049e-18
1.9505641e-49
-7.5808231e-18
0
7.57246e-18
-7.5683215e-18
-2.0961047e-30
1.5119974e-17
-7.5557912e-18
-1.5678827e-30
-1.0725624e-33
-7.5433792e-18
7.5392057e-18
-1.0708035e-33
-1.0423867e-30
5.2091082e-31
-7.5227194e-18
0
7.5145168e-18
5.1977547e-31
2.0832952e-30
7.502302e-18
0
-7.494174e-18
-7.4900872e-18
0
0
0
7.4739721e-18
5.1697548e-31
-7.4659745e-18
0
0
7.4540921e-18
7.4501052e-18
-7.4461982e-18
-7.4422316e-18
0
7.4343993e-18
7.430534e-18
-7.4266102e-18
-7.4227665e-18
0
7.4150412e-18
-2.0579315e-30
-5.1369258e-31
7.4034959e-18
-7.3997148e-18
-7.3958765e-18
0
7.388307e-18
-1.0263245e-30
7.3807929e-18
1.0231875e-30
-1.4746677e-17
7.3696686e-18
-1.0216416e-30
-2.5559816e-30
-5.0926707e-31
-7.355018e-18
7.3513651e-18
7.3477986e-18
0
-7.3406552e-18
-7.3370796e-18
0
7.3300591e-18
7.3266152e-18
-1.4646252e-17
-7.3197271e-18
7.3162837e-18
7.3129305e-18
2.0276344e-30
-7.306226e-18
7.3028752e-18
-5.0622079e-31
-7.2963121e-18
7.2931012e-18
-5.0657949e-31
5.073955e-31
-2.0700933e-33
-5.028184e-31
7.2772512e-18
0
0
-7.2681461e-18
-7.2651281e-18
0
0
0
0
7.2507076e-18
4.9954309e-31
-1.4490305e-17
3.0876179e-33
7.2397347e-18
7.2370463e-18
-1.0044328e-30
-1.0020144e-30
-1.0273503e-33
-7.2267959e-18
-7.224361e-18
-7.2218985e-18
1.4439081e-17
2.1651467e-17
-7.2148736e-18
-1.4425133e-17
0
7.2081169e-18
7.2059762e-18
-7.2038083e-18
2.0468591e-33
-3.0693987e-33
2.0457028e-33
7.1956722e-18
7.1937749e-18
-7.1918548e-18
-1.4380083e-17
7.1882051e-18
7.8205944e-50
7.1847233e-18
1.990516e-30
-1.4362843e-17
0
0
1.4353659e-17
-3.984898e-30
-1.4347911e-17
0
7.1712465e-18
7.1699212e-18
-7.1687011e-18
1.0185569e-33
-9.9497201e-31
1.0182299e-33
7.1640988e-18
-7.1630182e-18
-7.1620431e-18
0
7.1601517e-18
-9.939886e-31
-7.158424e-18
1.4315177e-17
-1.9852828e-30
-7.1561013e-18
-1.9869256e-30
-1.4309538e-17
1.4308382e-17
7.1535856e-18
-7.1530801e-18
-1.0164378e-33
-7.1521093e-18
0
0
7.1508699e-18
-9.9176838e-31
-1.4300445e-17
1.0160727e-33
2.144908e-17
-7.149503e-18
-7.1492749e-18
1.4298272e-17
-7.148957e-18
7.1488643e-18
1.4297456e-17
-7.1486753e-18
-7.1485759e-18
-7.1485567e-18
7.148488e-18
-9.4647849e-51
-7.1484535e-18
7.1484851e-18
-7.1484617e-18
7.1485105e-18
1.9809332e-30
2.0317434e-33
7.1485603e-18
-1.429725e-17
7.1486247e-18
1.985048e-30
-1.9830146e-30
-7.1487337e-18
-1.4297432e-17
2.1446262e-17
1.9830252e-30
-3.9660608e-30
1.9809828e-30
-1.4297351e-17
1.4297184e-17
-1.9829806e-30
-1.4296887e-17
0
0
7.1481182e-18
-9.9140263e-31
-7.1477755e-18
-7.147537e-18
7.1473377e-18
2.1441145e-17
-7.1467957e-18
-7.1464506e-18
-2.0310552e-33
-7.1457351e-18
0
1.4289783e-17
1.4288902e-17
-7.1439101e-18
-1.4286792e-17
-7.1427798e-18
1.4284376e-17
1.4282982e-17
-1.4281633e-17
-1.4280069e-17
0
1.4276806e-17
-7.1375512e-18
-1.4273178e-17
7.1356433e-18
7.1345858e-18
-1.0137375e-33
9.9026105e-31
7.1312455e-18
-7.129989e-18
-7.1287452e-18
7.1273859e-18
-9.8836682e-31
-1.0124629e-33
-9.8796216e-31
-7.1215499e-18
7.1199889e-18
-2.9649195e-30
-9.8807466e-31
-1.9746416e-30
-7.1130719e-18
7.1111736e-18
-9.8705334e-31
-1.9705191e-30
-1.0097206e-33
-1.4206319e-17
-7.1010514e-18
7.0988251e-18
1.4193214e-17
-9.8496888e-31
-1.4183883e-17
-7.0894925e-18
1.4174096e-17
7.0844779e-18
-7.0819077e-18
-7.0792166e-18
-1.9640071e-30
7.0737352e-18
0
0
7.0651453e-18
0
-7.0591383e-18
7.0560274e-18
1.0022815e-33
-1.9565645e-30
0
-7.0432099e-18
7.0399139e-18
7.0365077e-18
-1.4066233e-17
-7.0296173e-18
7.026135e-18
0
0
-7.0153059e-18
1.9479933e-30
7.0079006e-18
0
0
-6.9965243e-18
2.9135579e-30
6.9887249e-18
0
0
0
0
0
0
0
0
1.3903826e-17
3.8565019e-30
-6.9433987e-18
6.9391282e-18
-6.9347631e-18
6.9304266e-18
-1.9251841e-30
-6.9216364e-18
-1.9207584e-30
-6.9127252e-18
0
0
6.8992334e-18
1.9145244e-30
-6.8901891e-18
0
0
0
0
0
0
0
1.3706232e-17
-5.7011038e-30
-1.3687157e-17
6.8388547e-18
9.7118331e-34
6.8293787e-18
-3.7842829e-30
-1.3639625e-17
-6.8149897e-18
-2.2325405e-49
2.0416115e-17
0
-1.3591432e-17
0
0
1.3562328e-17
-1.8797161e-30
-2.031426e-17
6.7665371e-18
6.7616469e-18
-6.7567521e-18
6.7518477e-18
-6.7469414e-18
-1.8702097e-30
6.737106e-18
-6.7321763e-18
0
-6.7223073e-18
6.7173691e-18
1.3424839e-17
-6.7074734e-18
-6.7025166e-18
-6.6975642e-18
-6.6926016e-18
1.3375289e-17
6.6826773e-18
-6.6777161e-18
0
6.6677805e-18
-6.6628063e-18
-6.6578381e-18
1.9958582e-17
1.8894436e-33
-1.3285817e-17
6.6379324e-18
9.2091894e-31
6.6279688e-18
-1.8823648e-33
-1.3235998e-17
6.6130106e-18
0
-1.8335315e-30
-9.3763898e-34
-6.5930591e-18
6.5880717e-18
-1.8279916e-30
-9.1236863e-31
-9.3409545e-34
-6.5681266e-18
6.5631425e-18
2.3009012e-49
-1.8196859e-30
-9.3055352e-34
-1.308641e-17
-9.0683753e-31
6.5332355e-18
0
0
-6.5182792e-18
-2.7101421e-30
6.5083093e-18
-6.5033261e-18
9.0222992e-31
9.2296713e-49
-9.0084616e-31
6.4833934e-18
6.4784111e-18
8.9785182e-31
-6.4684531e-18
0
0
6.4535278e-18
-6.4485534e-18
5.3641017e-30
6.4386111e-18
-6.4336433e-18
0
6.4237084e-18
6.4187414e-18
-6.4137786e-18
-6.4088141e-18
0
6.3988916e-18
6.3939335e-18
-1.2777947e-17
-6.3840174e-18
6.3790594e-18
6.3741055e-18
8.8338797e-31
6.3641983e-18
1.7658359e-30
-1.2708593e-17
0
0
0
6.3345097e-18
6.3295649e-18
0
-6.3196816e-18
-8.7494448e-31
6.3098027e-18
0
0
-6.2949948e-18
-8.7241834e-31
8.708413e-31
-6.2801974e-18
6.2752702e-18
-2.6090506e-30
-6.2654183e-18
0
-6.2555728e-18
-8.6784065e-31
6.2457324e-18
-6.2408124e-18
6.235896e-18
6.2309777e-18
-6.2260631e-18
0
6.2162346e-18
6.2113211e-18
-6.2064121e-18
-6.2015022e-18
0
-6.1916914e-18
6.1867906e-18
6.181889e-18
-6.1769922e-18
-1.2344189e-17
3.4250178e-30
1.8486917e-17
2.2732175e-49
-6.1525216e-18
-1.2295265e-17
3.4079422e-30
1.2275707e-17
-6.1329639e-18
6.128078e-18
-6.1231903e-18
-6.1183065e-18
1.2226842e-17
0
0
-1.219756e-17
-1.8088125e-48
1.2178056e-17
0
0
-1.2148826e-17
-1.8107827e-48
1.2129361e-17
0
0
-1.2100193e-17
-6.0452364e-18
1.2080762e-17
6.0355236e-18
0
-1.2051633e-17
3.343805e-30
1.2032228e-17
-6.0112664e-18
0
6.0015709e-18
-5.9967231e-18
8.5149734e-34
5.9870346e-18
-5.9821939e-18
5.9773511e-18
5.9725127e-18
-5.9676723e-18
-5.962836e-18
1.6544176e-30
5.9531649e-18
-5.9483307e-18
-1.6503918e-30
5.9386697e-18
-5.9338422e-18
5.9290141e-18
5.9241887e-18
-5.9193633e-18
-5.9145406e-18
1.6410112e-30
5.9048985e-18
-5.9000792e-18
8.3776706e-34
5.8904443e-18
-5.8856287e-18
5.8808141e-18
5.8760017e-18
-5.871191e-18
-1.1732765e-17
3.2569515e-30
1.1713538e-17
-5.8519629e-18
8.3093106e-34
1.1684706e-17
1.6591316e-33
-5.83275e-18
0
5.8231561e-18
0
-5.8135673e-18
0
0
0
-5.7944004e-18
-2.228584e-49
5.7848298e-18
0
5.775264e-18
-1.6023477e-30
-5.7656971e-18
0
0
0
-5.7465831e-18
1.5943869e-30
5.7370418e-18
0
5.7274997e-18
1.5882744e-30
-5.7179568e-18
0
5.7084247e-18
-5.7036648e-18
3.1665662e-30
5.6941513e-18
-5.6893943e-18
0
-5.6798764e-18
-1.5758674e-30
5.6703629e-18
0
5.6608655e-18
-5.6561221e-18
-3.1385513e-30
5.6466358e-18
-3.1324792e-30
-8.0108597e-34
1.5648037e-30
-7.9973643e-34
-5.6229011e-18
0
5.613429e-18
-1.5566272e-30
-1.5553151e-30
2.2065017e-49
-1.5534847e-30
0
-1.1170082e-17
-1.5495397e-30
5.5755735e-18
-5.570849e-18
1.5448133e-30
5.5614228e-18
5.5567156e-18
1.5416815e-30
-1.5403717e-30
5.542563e-18
-5.5378304e-18
-5.5330966e-18
0
-5.523653e-18
1.532503e-30
5.5142618e-18
0
0
0
-1.0990932e-17
6.0986722e-30
1.0972003e-17
0
0
0
0
0
0
0
-1.0896953e-17
3.0247931e-30
1.0878036e-17
5.4342701e-18
-5.4295259e-18
-5.424799e-18
1.5058237e-30
3.0044335e-30
5.4107733e-18
-5.4061278e-18
5.4014717e-18
5.3967887e-18
-5.3920677e-18
-5.3873075e-18
2.9877068e-30
5.3777225e-18
5.3729471e-18
-1.4891216e-30
-5.3635502e-18
-5.3589418e-18
5.354373e-18
5.3498107e-18
-5.345218e-18
5.3405671e-18
0
-5.3310843e-18
-5.3262976e-18
1.4761698e-30
5.3168121e-18
-5.3121851e-18
5.3076649e-18
5.303246e-18
-5.2989e-18
5.2945851e-18
1.4689987e-30
-5.2858704e-18
-5.2814061e-18
-7.4988779e-34
1.0544569e-17
2.9247293e-30
-5.263203e-18
-5.2587962e-18
0
5.2503786e-18
0
0
0
5.2346757e-18
5.2307154e-18
-5.226688e-18
-5.222592e-18
0
5.2142641e-18
-1.4474771e-30
-5.2059283e-18
0
0
5.1938359e-18
-2.8808257e-30
-5.1861684e-18
0
0
5.175111e-18
-2.8705485e-30
-5.1677385e-18
0
5.1600051e-18
-1.4317054e-30
1.4298162e-30
-1.4293672e-30
-5.1432296e-18
0
-5.1346232e-18
2.847015e-30
5.1261601e-18
0
5.1179045e-18
-5.1138594e-18
-5.1098598e-18
1.0211784e-17
1.4181589e-30
-1.0196012e-17
1.4145159e-30
5.0900582e-18
0
0
5.0778025e-18
-1.4081229e-30
-5.0694045e-18
0
5.0608774e-18
-5.0565678e-18
-5.0522213e-18
5.0478304e-18
0
-5.0388921e-18
5.0343448e-18
2.7918982e-30
-2.7893419e-30
5.0205521e-18
-4.1770838e-30
5.0114327e-18
-5.0069235e-18
1.388366e-30
-2.7756642e-30
-9.9869179e-18
1.3839127e-30
4.9844122e-18
0
0
0
-9.9328147e-18
-4.9619856e-18
9.9151444e-18
4.9531402e-18
0
0
4.9396403e-18
2.0907753e-49
-4.9307743e-18
0
-9.8448343e-18
-4.9184029e-18
9.8288179e-18
4.9103557e-18
0
-9.8038222e-18
-1.3919561e-33
1.4679111e-17
-1.3560648e-30
-9.768246e-18
4.8797816e-18
2.7714199e-33
-4.8713456e-18
1.3522049e-30
2.6979024e-30
4.8585532e-18
0
4.8495404e-18
-2.6900275e-30
-9.6810268e-18
4.8361517e-18
-8.0448648e-30
-4.8277632e-18
9.6472729e-18
-6.8488809e-34
-4.8152329e-18
0
0
0
-4.7980271e-18
4.7938607e-18
9.5795085e-18
-4.7856596e-18
-1.3277333e-30
-1.3252037e-30
-4.7730007e-18
0
4.7643557e-18
-6.7645889e-34
-9.5122277e-18
4.7522371e-18
2.6344156e-30
-4.7447234e-18
-4.7408739e-18
2.6320203e-30
9.4654409e-18
0
4.7239748e-18
4.7194966e-18
0
-4.7106845e-18
-4.706447e-18
4.7023287e-18
0
-4.6942829e-18
0
0
4.6820784e-18
-3.8956172e-30
-4.6739309e-18
0
0
4.662184e-18
4.6583182e-18
-4.6544111e-18
-4.6504432e-18
4.6464234e-18
4.6423858e-18
-9.2767551e-18
-4.6344424e-18
1.2864849e-30
4.6268619e-18
-2.5649049e-30
-2.5628769e-30
4.6158511e-18
-4.61212e-18
4.6083292e-18
-4.6044969e-18
-3.9227587e-33
4.5968633e-18
-9.1862914e-18
-4.5895289e-18
-4.5860103e-18
9.1651255e-18
9.1582835e-18
-4.5756976e-18
4.5721895e-18
-4.5685971e-18
2.535178e-30
9.1224041e-18
-4.5574669e-18
1.2638416e-30
-1.2641225e-30
-4.5465385e-18
0
0
4.5361591e-18
4.5327421e-18
0
-4.5258717e-18
-4.5224217e-18
0
-4.5155463e-18
1.2529257e-30
4.5086691e-18
-4.5051565e-18
1.2487104e-30
4.4978248e-18
0
4.4901627e-18
2.4908982e-30
-4.4826058e-18
4.4789752e-18
-1.2408304e-30
-4.4719391e-18
-4.4684409e-18
-1.2391683e-30
4.4611374e-18
0
-4.4532016e-18
4.4490432e-18
-1.2633009e-33
2.4661802e-30
4.4366302e-18
-4.4327098e-18
0
-8.8504823e-18
9.8173606e-30
4.4180196e-18
2.4502953e-30
8.8210569e-18
-8.8130491e-18
-8.8046232e-18
8.7958391e-18
8.786864e-18
4.3889676e-18
0
-4.3805156e-18
-8.7531834e-18
6.2141446e-34
-4.3690856e-18
4.3652736e-18
4.3612836e-18
-4.3570725e-18
8.7053079e-18
-8.6962047e-18
-7.2341996e-30
8.6780869e-18
-8.6694491e-18
2.4038082e-30
-4.3266144e-18
4.3226831e-18
4.3186435e-18
-4.3143778e-18
-1.1955334e-30
-8.6101945e-18
8.6005577e-18
8.5911609e-18
-8.5823239e-18
-1.1898344e-30
-4.2833817e-18
2.376848e-30
4.2762571e-18
1.185786e-30
7.8004411e-49
4.264248e-18
8.5195348e-18
-4.2551437e-18
-1.9956741e-48
-4.2458138e-18
-7.0650724e-30
4.2368267e-18
-8.4650148e-18
2.3469996e-30
8.4479558e-18
2.0838237e-49
-4.2151198e-18
0
0
-4.2009462e-18
4.1962413e-18
8.3834091e-18
0
0
0
-4.1758188e-18
-4.1720975e-18
0
4.1642225e-18
-4.1599597e-18
-6.9209991e-30
8.3016307e-18
0
0
0
-4.1314439e-18
-4.1267079e-18
4.1221135e-18
-4.1176946e-18
-2.2844532e-30
8.2188043e-18
0
0
-8.1948211e-18
1.1633508e-33
4.0887734e-18
-4.0842196e-18
4.0795549e-18
-4.0748373e-18
2.2603916e-30
8.1310372e-18
0
0
-4.052513e-18
-4.0484209e-18
0
0
4.0362221e-18
4.0320711e-18
0
-4.0236704e-18
-4.0194506e-18
4.0152125e-18
-4.0109329e-18
-4.0065849e-18
4.0021528e-18
3.9976421e-18
-2.2175978e-30
-3.9885072e-18
3.9839604e-18
1.1044523e-30
-3.9750239e-18
0
-3.9663057e-18
2.1997839e-30
3.9577684e-18
-3.9535453e-18
2.1927384e-30
3.9450909e-18
0
-3.9364792e-18
1.0918731e-30
5.5817679e-34
-3.9236492e-18
3.919672e-18
3.9158816e-18
0
-7.8170209e-18
4.3370564e-30
3.9008166e-18
5.5377089e-34
7.7855395e-18
-7.7774389e-18
-7.7693739e-18
7.7613412e-18
3.8766639e-18
0
-7.7375884e-18
6.4351276e-30
7.7231586e-18
0
-7.7101704e-18
-2.139126e-30
3.8482297e-18
1.0675095e-30
7.6805876e-18
-7.6721117e-18
-9.5707311e-30
7.655434e-18
-7.6476698e-18
2.1199475e-30
7.6334001e-18
3.8133269e-18
-7.6200821e-18
-3.8068569e-18
7.6075349e-18
-7.6014103e-18
-9.4851248e-30
7.5883218e-18
-7.5809704e-18
1.0514404e-30
-3.782347e-18
4.1921678e-30
1.1322286e-17
-2.0928148e-30
-7.5337119e-18
3.7636441e-18
7.5211132e-18
-3.757455e-18
2.0844196e-30
-3.7508201e-18
-4.1620604e-30
3.7432824e-18
-7.4783278e-18
3.1102497e-30
-4.1420472e-30
2.0673915e-30
3.7225545e-18
0
3.7158469e-18
3.7128245e-18
0
0
0
0
0
-3.6907877e-18
-3.6866738e-18
0
3.6786661e-18
-3.6747971e-18
-6.1151867e-30
7.3347386e-18
0
0
0
-3.6532272e-18
-3.6495271e-18
3.6457011e-18
3.6417639e-18
-7.2755123e-18
-6.0540889e-30
7.2594661e-18
0
-7.2437465e-18
-6.026843e-30
3.6141428e-18
-3.6103247e-18
3.6065513e-18
-3.6028226e-18
-1.9977873e-30
7.1908616e-18
0
0
-3.5840935e-18
-3.58015e-18
0
-3.5720583e-18
-1.0140885e-33
-3.5640199e-18
3.5601214e-18
1.0668908e-17
0
7.0975393e-18
7.0899639e-18
0
-1.0611796e-17
-7.0666734e-18
7.0587567e-18
-3.5254112e-18
-3.5214581e-18
1.0552613e-17
3.5136597e-18
4.9877589e-34
3.5060188e-18
-3.5022307e-18
-3.4984402e-18
-3.4946293e-18
-1.8338061e-49
-3.4868919e-18
-3.4829565e-18
3.4789849e-18
0
6.9419818e-18
6.9339934e-18
0
-3.4590427e-18
-6.9101523e-18
-1.9151366e-30
-3.4471321e-18
-6.8862952e-18
6.8783062e-18
6.8702967e-18
3.4311343e-18
3.4271202e-18
0
-3.4191691e-18
-1.0245795e-17
3.4114052e-18
1.9633253e-47
-1.0211198e-17
6.7997372e-18
3.3959549e-18
3.3919782e-18
6.7758723e-18
-6.7676797e-18
-3.3797097e-18
3.3755716e-18
3.3714494e-18
3.3673615e-18
-1.0089953e-17
-3.3593195e-18
1.0066086e-17
3.3514366e-18
-3.3475314e-18
-6.6872698e-18
3.3397363e-18
-3.3358271e-18
5.5474288e-30
-5.5427549e-30
-9.9719935e-18
3.3200241e-18
3.3160411e-18
6.6241039e-18
3.3080589e-18
-6.6081267e-18
-9.3793562e-34
-3.2960757e-18
3.2920948e-18
9.8643985e-18
-9.8525936e-18
-3.2802939e-18
9.8292614e-18
0
-9.8062175e-18
-3.2649135e-18
9.7832662e-18
-3.2572631e-18
-6.5068781e-18
-1.8037871e-30
3.6028887e-30
3.2420264e-18
0
6.4689635e-18
6.4614363e-18
-3.2269546e-18
-3.223189e-18
-6.4388453e-18
3.2156578e-18
3.2118981e-18
-6.4162945e-18
0
6.4013841e-18
6.3939929e-18
-3.1933238e-18
-6.3793405e-18
1.7684879e-30
3.1823912e-18
-6.3575067e-18
3.1751139e-18
-1.0562457e-29
-6.3356784e-18
3.16421e-18
0
6.3139492e-18
0
-6.9942976e-30
-3.1461255e-18
-6.2849693e-18
9.4164817e-18
-8.9106629e-34
-6.2629993e-18
0
6.2484939e-18
3.1206624e-18
-6.2342e-18
3.4569613e-30
3.1100151e-18
-6.2129252e-18
3.1028836e-18
-5.160117e-30
-6.1912726e-18
3.0919745e-18
-3.0882917e-18
6.1691766e-18
9.2425898e-18
0
-9.2200668e-18
-6.1391759e-18
9.1974757e-18
6.1241495e-18
-3.0583376e-18
-6.1092185e-18
3.0508839e-18
3.0471588e-18
-6.086872e-18
3.0397197e-18
6.0720222e-18
-3.0323052e-18
4.3038872e-34
-6.0497194e-18
-6.0422121e-18
9.0520078e-18
-3.0135613e-18
-5.0128495e-30
9.0181258e-18
0
-8.9956759e-18
-5.9896107e-18
2.9910344e-18
2.9872504e-18
2.9834671e-18
0
2.9759581e-18
-1.6498167e-30
-5.9370369e-18
1.6452619e-30
2.9610378e-18
0
2.9534825e-18
-5.8994026e-18
-8.8377948e-18
5.8843485e-18
8.8152622e-18
2.9346592e-18
-2.9308859e-18
-5.8542246e-18
2.9233593e-18
-2.919643e-18
-2.9159635e-18
5.8246122e-18
-5.8173024e-18
-2.904985e-18
8.7039143e-18
5.7952329e-18
-2.8939269e-18
-8.6707068e-18
6.4089749e-30
-6.4006795e-30
-2.8790171e-18
-3.1919154e-30
-2.8713844e-18
2.8675828e-18
2.8638215e-18
2.8601031e-18
-2.8564106e-18
-2.8527146e-18
8.5469542e-18
-2.8452017e-18
-5.6827385e-18
8.5125513e-18
8.0538441e-34
-2.8299502e-18
5.6526162e-18
2.8227549e-18
0
-2.8156807e-18
-2.8120412e-18
-5.6165865e-18
2.8044377e-18
-9.3269855e-30
-8.3897758e-18
2.7927552e-18
2.7890603e-18
2.7855223e-18
-2.7820939e-18
-2.7786666e-18
8.3254039e-18
-2.7714531e-18
-5.5352609e-18
-4.602992e-30
-2.759754e-18
5.5116578e-18
8.2559524e-18
1.5250891e-30
-1.5234388e-30
-3.8950637e-34
-2.7372481e-18
-5.467159e-18
-2.7299172e-18
8.1788477e-18
-3.022597e-30
-5.4382324e-18
0
0
2.7080939e-18
-1.5010422e-30
1.4984465e-30
2.6961882e-18
-5.3843402e-18
-2.6882397e-18
-2.9793747e-30
2.6807832e-18
8.0317055e-18
2.6737318e-18
0
0
0
-7.9774613e-18
-5.3107355e-18
7.9547281e-18
-2.940211e-30
-5.2880729e-18
0
0
5.2653955e-18
-5.8368985e-30
-2.9134608e-30
5.2425366e-18
-2.6175529e-18
-5.2278418e-18
-5.220724e-18
2.6068412e-18
7.809969e-18
2.5997869e-18
0
0
0
-7.7558498e-18
-5.1631803e-18
7.7336278e-18
-5.7153703e-30
-2.5703816e-18
3.6473832e-34
-2.5628684e-18
5.1183106e-18
-2.8369881e-30
-2.5518974e-18
5.0967234e-18
0
-1.4110142e-30
-5.0757168e-18
-5.068647e-18
7.5922738e-18
5.0543285e-18
-2.5235476e-18
-1.3983845e-30
2.5162625e-18
-7.5378187e-18
-5.0179001e-18
2.5052952e-18
2.5016361e-18
-2.4979669e-18
-2.4942908e-18
2.4906211e-18
2.4869717e-18
-1.3784462e-30
1.3760937e-30
2.4761594e-18
0
2.468994e-18
-4.9307551e-18
-7.3852027e-18
4.9161478e-18
4.9088103e-18
2.450725e-18
-2.7162169e-30
-4.8865638e-18
2.4395148e-18
-2.4357412e-18
-2.431987e-18
4.8565329e-18
-4.8491579e-18
-2.4209098e-18
2.4172302e-18
4.8270318e-18
2.4097662e-18
-4.8119968e-18
1.332739e-30
-2.3984816e-18
-2.3947425e-18
7.1730059e-18
-2.3872422e-18
-2.383451e-18
7.1388792e-18
-3.3761819e-34
-7.1157505e-18
-2.368062e-18
7.0926744e-18
-2.3604117e-18
-1.9528045e-47
-3.9173531e-30
-4.6981292e-18
4.6905216e-18
4.6828335e-18
-2.3375321e-18
2.5906783e-30
4.6594546e-18
-2.325873e-18
-6.9662403e-18
-2.3183412e-18
2.314613e-18
0
2.3069943e-18
4.6061744e-18
-3.2672877e-34
-6.8856864e-18
-2.2913695e-18
4.5751864e-18
-3.2456038e-34
-4.5604314e-18
4.5530159e-18
-3.7852638e-30
-4.5377689e-18
6.7949303e-18
4.5220779e-18
0
0
-2.249415e-18
-6.7370635e-18
-2.2420248e-18
6.7151413e-18
-2.4808628e-30
-4.4619485e-18
4.4543852e-18
4.4467699e-18
-2.2195823e-18
-4.4316203e-18
2.2120741e-18
2.2083572e-18
-6.6138874e-18
-2.2008607e-18
-3.6591912e-30
1.2167483e-30
2.1892654e-18
-2.1853913e-18
4.3631716e-18
6.533626e-18
0
-6.5120414e-18
-4.3342172e-18
6.4905094e-18
-6.1386922e-34
-2.1561991e-18
4.3050789e-18
-2.1488891e-18
-2.1452415e-18
-2.3774799e-30
2.1378901e-18
4.2683238e-18
-2.1304025e-18
-4.2532723e-18
-4.2458002e-18
2.353268e-30
2.1156337e-18
-2.1120989e-18
4.2171809e-18
6.3152199e-18
0
-6.2938538e-18
-4.1887317e-18
6.2723572e-18
-2.3177261e-30
-2.0836708e-18
2.0801217e-18
2.0765588e-18
-1.1500681e-30
-4.1387256e-18
1.1466433e-30
4.1242554e-18
-2.2850034e-30
-2.2810662e-30
-4.1029553e-18
-6.1439057e-18
4.0889044e-18
-2.2663114e-30
-6.7847973e-30
2.0338163e-18
2.0302733e-18
4.0535242e-18
-6.0698595e-18
-2.0198307e-18
4.0327472e-18
-4.0258011e-18
-1.1422153e-33
6.017688e-18
2.0023837e-18
-1.9988905e-18
-5.9862978e-18
6.6348638e-30
3.9772005e-18
1.9851846e-18
-3.9634956e-18
-5.9348628e-18
5.9244424e-18
1.971347e-18
2.1841176e-30
1.9645103e-18
-3.922292e-18
1.0867217e-30
-1.9544162e-18
1.9510152e-18
-6.4874625e-30
-5.8324555e-18
5.8222001e-18
5.8120634e-18
0
0
0
-1.9240632e-18
-5.7620561e-18
-1.9172814e-18
-2.1246973e-30
-1.9105093e-18
5.7215578e-18
1.9039067e-18
-1.9006451e-18
-1.8973615e-18
-1.8940311e-18
3.7813105e-18
-1.8872591e-18
1.8838795e-18
-6.2630735e-30
-3.7545351e-18
5.6220865e-18
3.7415684e-18
0
-3.7282706e-18
-2.0656971e-30
1.8573272e-18
-5.5618781e-18
-1.8506526e-18
1.8474033e-18
0
0
1.8375567e-18
3.6682796e-18
-4.0646891e-30
-3.6545218e-18
-1.8238926e-18
1.8206031e-18
-1.8173637e-18
1.8141022e-18
1.7546202e-47
-3.0101163e-30
5.4114579e-18
0
0
-3.5870189e-18
-3.5804653e-18
-1.7869664e-18
1.9798419e-30
5.3405244e-18
-1.9728353e-30
-3.5460982e-18
0
3.5321143e-18
1.7627222e-18
-3.5188881e-18
1.756115e-18
1.7526659e-18
-5.2472802e-18
1.7454458e-18
-5.8010129e-30
-3.4765213e-18
5.2045699e-18
3.4631345e-18
0
0
0
-5.1527069e-18
-3.427682e-18
5.1306068e-18
3.4134633e-18
0
-3.4003404e-18
1.8837004e-30
1.6932363e-18
-3.3790404e-18
1.6857355e-18
-1.6820172e-18
-1.6784778e-18
5.0254448e-18
-3.343835e-18
-3.3371961e-18
1.6650965e-18
-1.6614223e-18
3.3152893e-18
4.9616391e-18
0
-4.9404656e-18
-3.2871797e-18
1.6403857e-18
1.6370242e-18
-1.8133572e-30
1.6296458e-18
-5.4155884e-30
-1.622088e-18
-8.9869524e-31
-5.9195817e-49
1.6123117e-18
0
1.6054542e-18
-3.2034369e-18
-4.7937835e-18
4.7827409e-18
4.772357e-18
0
-3.1687348e-18
-3.1621689e-18
3.155243e-18
-1.5740013e-18
-1.5702976e-18
4.6998981e-18
-3.1262537e-18
-3.1196842e-18
1.5566918e-18
3.1069563e-18
1.550085e-18
-4.639549e-18
-1.5428486e-18
-2.5631389e-30
3.0714663e-18
8.7110862e-34
-4.5879908e-18
3.0522482e-18
4.5682724e-18
1.5192438e-18
-4.5469434e-18
-3.024133e-18
4.525754e-18
-3.3425311e-30
-3.0040819e-18
-1.4989012e-18
8.3023314e-31
2.9847476e-18
-1.6528776e-30
1.4852745e-18
1.4816813e-18
-4.4346383e-18
-1.4749431e-18
-1.6339475e-30
2.9373671e-18
-4.8804517e-30
-4.3859239e-18
2.916963e-18
-1.6161342e-30
-1.6128635e-30
-3.2166043e-30
-1.4453786e-18
4.3263067e-18
-1.4386891e-18
-2.3895337e-30
-4.7683251e-30
-4.2850927e-18
1.4251366e-18
2.8440174e-18
-1.5751752e-30
1.4156814e-18
1.412375e-18
-2.8179492e-18
-2.8110554e-18
1.556354e-30
4.1963837e-18
-1.5489682e-30
-1.3925787e-18
2.7789909e-18
-1.3862776e-18
-1.3829149e-18
7.6531656e-31
-7.6380714e-31
1.3727517e-18
-2.7392974e-18
1.3666296e-18
-4.5418942e-30
-4.530196e-30
4.070529e-18
-2.7068924e-18
3.8373953e-34
2.6941434e-18
-1.3441131e-18
-4.0233584e-18
-1.3379895e-18
4.0041938e-18
-1.4780613e-30
-1.3280922e-18
2.6497351e-18
-2.6435354e-18
-6.5893064e-30
1.3158219e-18
-1.3128261e-18
1.3097217e-18
-2.6129878e-18
1.3031884e-18
3.8996864e-18
0
0
-2.5816979e-18
-3.6605033e-34
2.5696796e-18
-1.2816063e-18
-3.8349694e-18
-1.2751244e-18
3.816321e-18
3.6074615e-34
1.4059362e-30
2.5269212e-18
-3.780964e-18
-6.2804154e-30
1.2538883e-18
-1.2507898e-18
-1.2478416e-18
1.3828315e-30
1.2421144e-18
-2.4783395e-18
2.472261e-18
-4.1064152e-30
-2.4595642e-18
3.6797557e-18
2.4469635e-18
-1.2205307e-18
-3.6530658e-18
-1.2148075e-18
1.2117819e-18
0
-1.2053867e-18
1.2022135e-18
3.5975174e-18
6.6401242e-31
-2.3867268e-18
1.1903892e-18
1.1873065e-18
-2.368285e-18
1.1809431e-18
-1.1777715e-18
-2.3493596e-18
3.5150707e-18
-3.8925108e-30
2.5887534e-30
2.3254311e-18
-2.3190142e-18
-1.1562149e-18
-1.1529214e-18
-1.2773258e-30
1.1465978e-18
-2.2871493e-18
2.281093e-18
3.4123592e-18
0
-1.1310279e-18
6.2596674e-31
3.195757e-34
-3.3635712e-18
-1.1181152e-18
3.3453507e-18
-1.1120442e-18
-1.7094067e-47
3.3164339e-18
-1.1020773e-18
-3.2961181e-18
-1.0954132e-18
2.1843784e-18
-1.0889865e-18
1.0857732e-18
-3.6054219e-30
-2.1587133e-18
3.2283953e-18
1.1916409e-30
-4.7498817e-30
2.1322218e-18
-2.1253964e-18
-1.176013e-30
1.0560328e-18
-2.1056385e-18
-1.0496361e-18
0
0
2.0795885e-18
-2.3011379e-30
-5.8718649e-34
-1.1429697e-30
-1.0261483e-18
-1.0227805e-18
1.019485e-18
1.0162468e-18
-2.0259921e-18
2.0193593e-18
-1.1171523e-30
-2.0058294e-18
1.9991059e-18
3.3179736e-30
-1.1023683e-30
9.8969923e-19
-1.9727057e-18
9.8295601e-19
-2.1748532e-30
-1.9522146e-18
0
1.9388099e-18
9.6612854e-19
-1.9256751e-18
-9.5949681e-19
9.561194e-19
-1.586807e-30
-9.494089e-19
0
0
1.8790732e-18
1.8723377e-18
0
-1.8587689e-18
-9.2606177e-19
9.2283167e-19
-9.1963917e-19
9.163777e-19
0
-1.8191126e-18
0
0
8.9941764e-19
-9.9498842e-31
-8.9311883e-19
0
8.8652376e-19
4.9019591e-31
-8.7970629e-19
0
1.7461899e-18
1.7398277e-18
-8.6674647e-19
-9.5852437e-31
8.6023852e-19
-1.7137963e-18
-1.7070883e-18
1.7004282e-18
2.4071183e-34
1.8734838e-30
2.3887706e-34
-1.674565e-18
8.340982e-19
-9.2239546e-31
8.2758557e-19
-8.2426821e-19
-2.462944e-18
2.4533347e-18
8.1464397e-19
-8.1149471e-19
-8.9720325e-31
-8.0504046e-19
1.6036107e-18
1.5971971e-18
-1.59083e-18
-2.6382782e-30
-7.890455e-19
-7.8585088e-19
1.5653316e-18
-7.7950083e-19
8.6175428e-31
-4.2939912e-31
7.700209e-19
1.5337012e-18
-1.5273972e-18
-1.5211719e-18
0
7.5445137e-19
8.3411211e-31
-1.4964204e-18
-8.2713083e-31
2.2257804e-18
1.4776443e-18
0
-1.4653976e-18
-1.6198397e-30
-7.2658489e-19
-7.2350443e-19
2.1612892e-18
-3.9809721e-31
-1.4287043e-18
7.1133229e-19
1.4165901e-18
-7.0524657e-19
-1.4044037e-18
-6.9916428e-19
0
1.3862242e-18
-6.9010132e-19
-2.0613055e-18
6.8411139e-19
6.8112302e-19
1.3562506e-18
6.7511334e-19
-1.3441942e-18
-6.6909057e-19
-6.6609897e-19
7.3616326e-31
6.6014813e-19
6.5717844e-19
1.3083916e-18
6.5119237e-19
0
0
0
-1.278536e-18
-1.2725702e-18
1.2665545e-18
6.9969904e-31
6.9638443e-31
-6.9290693e-31
-1.3797351e-30
1.2366866e-18
0
-1.2246659e-18
-6.0934022e-19
6.0634586e-19
-6.0333781e-19
-6.0032518e-19
0
0
1.1825745e-18
-1.95922e-30
-1.2994281e-30
1.1644242e-18
-1.1583592e-18
-1.152298e-18
0
1.1401109e-18
-6.2929549e-31
-1.1279066e-18
1.1218085e-18
6.1944806e-31
-1.1095519e-18
0
1.097274e-18
5.4555495e-19
-1.0849358e-18
5.3937828e-19
1.191011e-30
-1.0663576e-18
1.0601555e-18
1.0539446e-18
0
0
0
-1.0289984e-18
-1.0227323e-18
1.0164812e-18
0
-1.0040275e-18
0
-4.9572908e-19
9.8516347e-19
4.8942962e-19
-4.8627118e-19
9.6621237e-19
4.7993608e-19
-9.5352544e-19
-4.7358732e-19
-5.2229359e-31
4.6723078e-19
-1.0303293e-30
2.6197071e-34
9.1535109e-19
0
-4.5128974e-19
-8.9618472e-19
-4.4489213e-19
0
0
0
-4.3206455e-19
8.5770263e-19
4.2563565e-19
-4.224176e-19
-4.1919717e-19
4.1597441e-19
4.1274933e-19
-8.1904392e-19
0
8.0612095e-19
7.9965277e-19
0
0
-7.80222e-19
-4.2948253e-31
-3.8362332e-19
-3.8037624e-19
3.7712697e-19
-3.7387553e-19
3.7062194e-19
7.3473252e-19
3.6410855e-19
0
-7.151741e-19
-3.9325193e-31
3.5105735e-19
-3.4778948e-19
-3.4451967e-19
-6.8249602e-19
6.7594909e-19
3.3469926e-19
-9.419583e-35
3.2814297e-19
-6.4972362e-19
3.2157852e-19
-3.1829313e-19
-7.5993042e-48
3.1171606e-19
-6.1684916e-19
6.1026266e-19
6.0367303e-19
0
-2.9524288e-19
-5.8388882e-19
1.6021994e-31
2.8534493e-19
2.8204416e-19
-5.5748573e-19
-5.5088217e-19
2.7213887e-19
5.3767245e-19
5.3106645e-19
-2.6222999e-19
-5.1785319e-19
2.556232e-19
-2.5231987e-19
4.145989e-31
2.4571394e-19
-4.8482314e-19
4.7821962e-19
2.6171658e-31
-1.2906663e-30
4.584196e-19
-4.518242e-19
-9.8854902e-31
2.193207e-19
-4.3205456e-19
2.1273559e-19
-5.9528082e-35
9.1546714e-31
2.0287251e-19
-3.9917818e-19
4.3586327e-31
-1.0711837e-31
1.8975269e-19
-5.3000501e-35
-3.6641583e-19
3.5987943e-19
1.0042767e-34
-7.7005232e-31
3.4030267e-19
-3.3378797e-19
-3.6332931e-31
3.2077577e-19
-1.5713921e-19
-1.5389333e-19
-1.5065003e-19
1.4740909e-19
-1.6005113e-31
-2.818681e-19
0
0
2.6247525e-19
3.6382368e-35
-2.4956352e-19
1.2155544e-19
-1.3133058e-31
1.1510511e-19
2.484094e-31
-2.1731344e-19
0
-1.0220744e-19
1.9796257e-19
9.5753603e-20
-2.0545794e-31
8.9292484e-20
-1.7211668e-19
8.2821099e-20
-8.8323378e-32
-1.5266926e-19
0
0
6.6565364e-20
-3.5134221e-32
6.0019802e-20
-5.6735331e-20
-1.6032585e-19
1.5041621e-19
4.6824801e-20
-8.6998785e-20
4.0161903e-20
6.1294594e-32
3.3447908e-20
-1.7092617e-35
-8.8849999e-32
2.3265086e-20
-3.9673405e-20
-1.6389784e-20
0
-9.4363595e-21
5.9277064e-21
2.3964677e-21
-1.1190426e-21
1.0412953e-32
-9.2529089e-33
1.3297255e-32
3.1283186e-20
-1.9332456e-20
-3.8389573e-32
5.3622026e-20
-4.3486069e-36
-3.4425602e-20
-7.6574242e-20
-8.4372976e-20
9.2250617e-20
5.565295e-32
5.4127988e-20