/*--------------------------------*- C++ -*----------------------------------*\
  =========                 |
  \\      /  F ield         | OpenFOAM: The Open Source CFD Toolbox
   \\    /   O peration     | Website:  https://openfoam.org
    \\  /    A nd           | Version:  7
     \\/     M anipulation  |
\*---------------------------------------------------------------------------*/
FoamFile
{
    version     2.0;
    format      ascii;
    class       volScalarField;
    location    "0.00275";
    object      Uy;
}
// * * * * * * * * * * * * * * * * * * * * * * * * * * * * * * * * * * * * * //

dimensions      [0 1 -1 0 0 0 0];

internalField   nonuniform List<scalar> 
5000
(
2.2390908e-21
3.1565604e-21
0
0
-1.5183532e-21
1.6488584e-36
1.3112498e-21
0
0
-1.5067321e-21
-3.0647667e-21
1.5379876e-21
1.5372482e-21
-1.5335926e-21
0
-1.5194138e-21
-6.8316923e-51
1.5020156e-21
0
1.4880979e-21
-1.479151e-21
-1.4701755e-21
2.9440075e-21
-1.4821988e-21
-1.4934847e-21
-1.2382607e-35
1.5059149e-21
1.5044813e-21
-2.9979649e-21
2.5832118e-35
-2.5893341e-35
1.4730151e-21
2.9284169e-21
-2.9229621e-21
2.5453577e-35
-1.2864779e-34
-5.1579426e-35
2.9808598e-21
-2.9708024e-21
-2.9470449e-21
2.92669e-21
-9.981043e-35
-2.8813035e-21
1.4440042e-21
4.3745111e-21
-1.4764437e-21
-1.4832652e-21
-1.0080556e-34
-2.9065903e-21
0
1.4124252e-21
2.0098556e-37
-1.4373266e-21
2.9258323e-21
-5.1585e-35
-2.934082e-21
1.4473659e-21
-4.9329948e-35
-1.4085688e-21
0
1.4236178e-21
4.9328009e-35
4.1531414e-37
1.4610769e-21
-1.4478772e-21
5.0162137e-35
1.4208794e-21
-1.4102619e-21
-1.414908e-21
1.4300894e-21
1.4456322e-21
-1.4513584e-21
-1.4446864e-21
2.868828e-21
1.4249752e-21
-1.4161183e-21
0
1.4228207e-21
-2.0401737e-37
-1.4414023e-21
1.4360617e-21
-4.0565613e-37
4.0311913e-37
1.4102199e-21
1.4091756e-21
4.9359831e-35
-1.4281701e-21
0
-1.4275492e-21
-1.4743191e-34
-4.9448751e-35
1.4095527e-21
1.4133684e-21
-2.8361754e-21
-9.8178003e-35
1.414955e-21
0
0
-1.3986725e-21
-9.7803514e-35
2.8278631e-21
-1.4116139e-21
-2.8142917e-21
0
1.3857164e-21
1.3885202e-21
-1.4045579e-21
-1.4188891e-21
0
0
1.4194882e-21
1.4104628e-21
0
-1.3849159e-21
4.4680711e-35
1.076049e-21
-1.1513812e-21
4.0179641e-37
-4.9816844e-35
7.9956288e-52
2.6903597e-21
-5.9559985e-37
-1.4101691e-21
0
-1.3943258e-21
1.3841673e-21
1.3732696e-21
-2.746282e-21
-1.3847269e-21
2.7972407e-21
1.4016896e-21
-1.3903176e-21
-1.3775674e-21
-1.3621524e-21
0
1.3632335e-21
1.3837821e-21
-1.3964188e-21
-4.8305646e-35
1.3814644e-21
-1.3697274e-21
-1.3573479e-21
0
1.3649497e-21
1.3822783e-21
-1.390146e-21
1.3850443e-21
-7.8183384e-37
-1.3635655e-21
1.3529904e-21
-1.3532335e-21
9.5126737e-35
1.3792037e-21
-1.3825708e-21
1.3753922e-21
1.3665882e-21
-1.356012e-21
0
0
-1.3700545e-21
-1.3761031e-21
1.3735458e-21
1.3669374e-21
-1.3608286e-21
-9.4267114e-35
1.3620797e-21
-1.365546e-21
-1.3648991e-21
0
1.3477246e-21
1.3496015e-21
0
-1.3710673e-21
-1.3631595e-21
0
1.3332297e-21
2.7511899e-34
-1.3345985e-21
1.3581791e-21
1.3688546e-21
-1.3609857e-21
-9.3084003e-35
9.1406552e-35
5.6087617e-37
1.3227352e-21
-1.3431069e-21
-1.888154e-34
9.3887317e-35
-9.3179916e-35
1.343812e-21
0
0
-1.3285407e-21
-1.3435216e-21
0
0
1.3470456e-21
1.8732601e-52
-1.3285137e-21
0
1.3323961e-21
-1.3454208e-21
-3.7434663e-34
2.6898563e-21
-1.3368279e-21
-2.7560348e-34
-1.876655e-37
-1.3258116e-21
1.3382781e-21
-1.9127526e-37
-1.8579532e-34
9.2393191e-35
-1.3277684e-21
0
1.3254856e-21
9.2163789e-35
3.7068109e-34
1.3348314e-21
0
-1.3260362e-21
-1.3267322e-21
0
0
0
1.3242858e-21
9.1364583e-35
-1.3228247e-21
0
0
1.3216593e-21
1.3131294e-21
-1.3062822e-21
-1.3096398e-21
0
1.3263252e-21
1.3211416e-21
-1.3126646e-21
-1.302311e-21
0
1.3021932e-21
-3.6511272e-34
-9.1633372e-35
1.3171442e-21
-1.3101148e-21
-1.3028213e-21
0
1.3018818e-21
-1.8191204e-34
1.3124351e-21
1.8188452e-34
-2.6153381e-21
1.3050678e-21
-1.8094506e-34
-4.5357092e-34
-9.0426902e-35
-1.3035764e-21
1.3002767e-21
1.2996219e-21
0
-1.3019794e-21
-1.3001317e-21
0
1.2887089e-21
1.2876523e-21
-2.5877223e-21
-1.299804e-21
1.297439e-21
1.2915312e-21
3.5624681e-34
-1.2787821e-21
1.2832277e-21
-8.9472452e-35
-1.29259e-21
1.2886663e-21
-8.8986254e-35
8.8614095e-35
-3.6122108e-37
-8.8363962e-35
1.2868821e-21
0
0
-1.2768373e-21
-1.2712802e-21
0
0
0
0
1.2793883e-21
8.7997377e-35
-2.5504222e-21
5.4373193e-37
1.2758605e-21
1.2753313e-21
-1.7697293e-34
-1.7655806e-34
-1.8104131e-37
-1.2719569e-21
-1.268212e-21
-1.263675e-21
2.5227339e-21
3.7961078e-21
-1.2689604e-21
-2.5362445e-21
0
1.2591149e-21
1.254432e-21
-1.2567193e-21
3.5853989e-37
-5.3897271e-37
3.5890351e-37
1.2572348e-21
1.2524676e-21
-1.2528331e-21
-2.5128338e-21
1.2594165e-21
2.3080995e-52
1.2532352e-21
3.45925e-34
-2.4976232e-21
0
0
2.5086659e-21
-6.9293543e-34
-2.481842e-21
0
1.2474088e-21
1.2534116e-21
-1.2517759e-21
1.7722267e-37
-1.7201274e-34
1.7518515e-37
1.2361399e-21
-1.2452e-21
-1.251201e-21
0
1.2433455e-21
-1.717624e-34
-1.2328831e-21
2.4746735e-21
-3.4501396e-34
-1.2461867e-21
-3.456893e-34
-2.483445e-21
2.4797728e-21
1.2396789e-21
-1.2409745e-21
-1.7639026e-37
-1.2378534e-21
0
0
1.237998e-21
-1.7177142e-34
-2.4730558e-21
1.7477907e-37
3.6720388e-21
-1.2253174e-21
-1.2329549e-21
2.4779846e-21
-1.2366665e-21
1.230828e-21
2.4465306e-21
-1.2182366e-21
-1.2246166e-21
-1.2318202e-21
1.2336805e-21
6.2145905e-52
-1.2232093e-21
1.2168136e-21
-1.2187594e-21
1.2262571e-21
3.4139873e-34
3.4959619e-37
1.2226267e-21
-2.4285403e-21
1.2114657e-21
3.3899553e-34
-3.4060131e-34
-1.2268121e-21
-2.4439394e-21
3.6308614e-21
3.3325176e-34
-6.6927637e-34
3.3858994e-34
-2.4632848e-21
2.4509519e-21
-3.369147e-34
-2.3998851e-21
0
0
1.2198174e-21
-1.7048092e-34
-1.2221622e-21
-1.2113502e-21
1.195179e-21
3.5522385e-21
-1.1920767e-21
-1.2110855e-21
-3.4780592e-37
-1.2230386e-21
0
2.4056772e-21
2.3825525e-21
-1.1888871e-21
-2.4016731e-21
-1.2162146e-21
2.4447936e-21
2.4327323e-21
-2.4163521e-21
-2.397943e-21
0
2.3906455e-21
-1.2068172e-21
-2.428182e-21
1.2129396e-21
1.2080017e-21
-1.7061144e-37
1.6578976e-34
1.1944e-21
-1.2025702e-21
-1.2086326e-21
1.2080961e-21
-1.670844e-34
-1.7034972e-37
-1.6560276e-34
-1.1957611e-21
1.200501e-21
-5.0148615e-34
-1.6702133e-34
-3.3238249e-34
-1.1929558e-21
1.1926424e-21
-1.6606112e-34
-3.3257699e-34
-1.7035661e-37
-2.3874063e-21
-1.1885399e-21
1.1875365e-21
2.3827257e-21
-1.6599633e-34
-2.3894504e-21
-1.1891621e-21
2.3662839e-21
1.1813094e-21
-1.1866056e-21
-1.1922999e-21
-3.3039708e-34
1.1845558e-21
0
0
1.1779098e-21
0
-1.1855164e-21
1.1814087e-21
1.6653426e-37
-3.2288829e-34
0
-1.1746891e-21
1.1818662e-21
1.1805225e-21
-2.3508996e-21
-1.1669635e-21
1.1601264e-21
0
0
-1.1764396e-21
3.2651698e-34
1.1705226e-21
0
0
-1.1638628e-21
4.8699452e-34
1.1687691e-21
0
0
0
0
0
0
0
0
2.2923423e-21
6.3905805e-34
-1.1559366e-21
1.1546564e-21
-1.150576e-21
1.1416536e-21
-3.1538155e-34
-1.1380348e-21
-3.1834133e-34
-1.1511354e-21
0
0
1.129808e-21
3.125055e-34
-1.133483e-21
0
0
0
0
0
0
0
2.272071e-21
-9.4435394e-34
-2.2590514e-21
1.1207245e-21
1.5825572e-37
1.1157064e-21
-6.2332775e-34
-2.2600485e-21
-1.1273883e-21
-1.9677957e-52
3.3417185e-21
0
-2.2260063e-21
0
0
2.2333605e-21
-3.0761988e-34
-3.3071191e-21
1.1036995e-21
1.1099192e-21
-1.1141919e-21
1.111515e-21
-1.1042e-21
-3.0395017e-34
1.092076e-21
-1.0995204e-21
0
-1.1053769e-21
1.1012687e-21
2.1843164e-21
-1.0846207e-21
-1.0862662e-21
-1.0942677e-21
-1.1009689e-21
2.1979862e-21
1.0923772e-21
-1.0836583e-21
0
1.0831601e-21
-1.0901352e-21
-1.0920237e-21
3.2659977e-21
3.0689312e-37
-2.1430064e-21
1.0714372e-21
1.5009316e-34
1.0877216e-21
-3.0839505e-37
-2.1583756e-21
1.0696386e-21
0
-2.9613993e-34
-1.5299262e-37
-1.0824078e-21
1.0780196e-21
-2.974322e-34
-1.4747759e-34
-1.5021775e-37
-1.0624941e-21
1.0706973e-21
3.1641384e-52
-2.9727141e-34
-1.5097214e-37
-2.1080796e-21
-1.4597197e-34
1.061171e-21
0
0
-1.0611198e-21
-4.3740503e-34
1.0434445e-21
-1.0484703e-21
1.4698875e-34
1.5500227e-51
-1.4691821e-34
1.0468913e-21
1.0324101e-21
1.4243776e-34
-1.0400228e-21
0
0
1.0543262e-21
-1.0429326e-21
8.5382922e-34
1.0145724e-21
-1.0263781e-21
0
1.0581429e-21
1.0533211e-21
-1.0405297e-21
-1.0201059e-21
0
1.0037287e-21
1.0250385e-21
-2.0944923e-21
-1.0578713e-21
1.0507411e-21
1.0339477e-21
1.4036042e-34
9.8909127e-22
2.7486883e-34
-2.028539e-21
0
0
0
1.0440381e-21
1.0354126e-21
0
-1.0194607e-21
-1.3991008e-34
1.0087241e-21
0
0
-1.0373084e-21
-1.4392042e-34
1.4338582e-34
-1.0310275e-21
1.0280629e-21
-4.2771951e-34
-1.0301823e-21
0
-1.0249801e-21
-1.4130953e-34
1.0127684e-21
-1.0179202e-21
1.0269021e-21
1.0301008e-21
-1.0228838e-21
0
9.938156e-22
9.8690222e-22
-1.001982e-21
-1.0235437e-21
0
-1.0239386e-21
1.0111558e-21
9.8817653e-22
-9.7065319e-22
-1.9581388e-21
5.5588586e-34
3.0579634e-21
7.3966326e-53
-1.0339219e-21
-2.0418372e-21
5.5621129e-34
1.9505578e-21
-9.4736036e-22
9.5271457e-22
-9.8473022e-22
-1.0099653e-21
2.0427464e-21
0
0
-2.0354827e-21
-3.0262845e-52
2.0330387e-21
0
0
-1.9938005e-21
2.203048e-51
1.9621768e-21
0
0
-2.0350962e-21
-1.0153923e-21
2.010687e-21
9.9700093e-22
0
-1.9511523e-21
5.4714229e-34
2.0022072e-21
-1.0120406e-21
0
1.0051075e-21
-9.9880081e-22
1.4060196e-37
9.8248137e-22
-9.8891283e-22
1.0011676e-21
1.0074035e-21
-1.0036176e-21
-9.9778202e-22
2.749171e-34
9.8446359e-22
-9.8921713e-22
-2.7728764e-34
1.0042303e-21
-1.0036694e-21
1.0013437e-21
9.9890176e-22
-9.9696022e-22
-9.9781928e-22
2.7778034e-34
1.0025698e-21
-1.0035196e-21
1.4260656e-37
1.0033044e-21
-1.0035137e-21
1.0039907e-21
1.0040306e-21
-1.0033097e-21
-2.0046035e-21
5.5654549e-34
2.0025247e-21
-1.0008262e-21
1.4211087e-37
1.9977665e-21
2.8363356e-37
-9.9692806e-22
0
9.9692527e-22
0
-9.9671524e-22
0
0
0
-9.8998144e-22
5.4770891e-53
9.967637e-22
0
9.9881195e-22
-2.7716556e-34
-9.974798e-22
0
0
0
-1.0001322e-21
2.7778666e-34
1.0004053e-21
0
9.9992328e-22
2.7742606e-34
-9.9942106e-22
0
9.9904578e-22
-9.99336e-22
5.5557612e-34
1.0003845e-21
-1.0007786e-21
0
-1.001451e-21
-2.7817392e-34
1.0020798e-21
0
1.0025924e-21
-1.0028225e-21
-5.570554e-34
1.003297e-21
-5.5720052e-34
-1.4266024e-37
2.7899847e-34
-1.4276524e-37
-1.0050377e-21
0
1.0059429e-21
-2.7932127e-34
-2.7946002e-34
-1.8767248e-53
-2.7989904e-34
0
-2.0177645e-21
-2.8017042e-34
1.0087348e-21
-1.0083589e-21
2.7963946e-34
1.006602e-21
1.0055062e-21
2.7889773e-34
-2.786314e-34
1.0028214e-21
-1.0020925e-21
-1.0011233e-21
0
-1.0024988e-21
2.7890772e-34
1.0058354e-21
0
0
0
-2.0130172e-21
1.1183428e-33
2.0149568e-21
0
0
0
0
0
0
0
-2.0234398e-21
5.6221556e-34
2.0233081e-21
1.0113333e-21
-1.0108658e-21
-1.0104988e-21
2.8066726e-34
5.6038665e-34
1.0102726e-21
-1.0107235e-21
1.0111077e-21
1.011342e-21
-1.0114994e-21
-1.0115963e-21
5.61511e-34
1.0114917e-21
1.0113502e-21
-2.8051845e-34
-1.0112366e-21
-1.0112509e-21
1.011282e-21
1.0112553e-21
-1.0111672e-21
1.0111062e-21
0
-1.0109803e-21
-1.0110397e-21
2.8048082e-34
1.0111805e-21
-1.0112364e-21
1.0112993e-21
1.0113576e-21
-1.0114031e-21
1.0114354e-21
2.8086107e-34
-1.0114639e-21
-1.0114603e-21
-1.4373516e-37
2.0228487e-21
5.6154515e-34
-1.0113619e-21
-1.0113244e-21
0
1.0112417e-21
0
0
0
1.0110337e-21
1.0109677e-21
-1.0108941e-21
-1.0108104e-21
0
1.0106016e-21
-2.8073027e-34
-1.0103203e-21
0
0
1.0094175e-21
-5.6001365e-34
-1.0082143e-21
0
0
1.0058024e-21
-5.5795456e-34
-1.0046829e-21
0
1.0040913e-21
-2.7876981e-34
2.785583e-34
-2.7862144e-34
-1.0031077e-21
0
-1.0024932e-21
5.5611834e-34
1.0017336e-21
0
1.0008072e-21
-1.000232e-21
-9.9959749e-22
1.9978912e-21
2.7750398e-34
-1.9955813e-21
2.7692466e-34
9.9686652e-22
0
0
9.9567304e-22
-2.7622507e-34
-9.9486941e-22
0
9.9404938e-22
-9.9363208e-22
-9.9320712e-22
9.927717e-22
0
-9.9186187e-22
9.9138462e-22
5.5001841e-34
-5.4973208e-34
9.898251e-22
-8.2380061e-34
9.8862655e-22
-9.8794785e-22
2.7398644e-34
-5.4779076e-34
-1.9709019e-21
2.7309309e-34
9.8351954e-22
0
0
0
-1.9602931e-21
-9.7918152e-22
1.9562265e-21
9.7699412e-22
0
0
9.7395245e-22
3.8557482e-53
-9.7237807e-22
0
-1.9412161e-21
-9.6974008e-22
1.9377591e-21
9.680288e-22
0
-1.9327174e-21
-2.7441196e-37
2.8939325e-21
-2.6734943e-34
-1.925824e-21
9.6203189e-22
5.4634607e-37
-9.6024115e-22
2.6652238e-34
5.3171197e-34
9.5745667e-22
0
9.5550825e-22
-5.2996058e-34
-1.9069862e-21
9.5245686e-22
-1.5840213e-33
-9.5030926e-22
1.8983583e-21
-1.3471968e-37
-9.4681338e-22
0
0
0
-9.4190273e-22
9.4060149e-22
1.8785256e-21
-9.3789562e-22
-2.6005944e-34
-2.5943445e-34
-9.3403722e-22
0
9.3174942e-22
-1.3224839e-37
-1.8589237e-21
9.2830175e-22
5.1436843e-34
-9.2596853e-22
-9.2479441e-22
5.1320211e-34
1.8448671e-21
0
9.2005413e-22
9.1885557e-22
0
-9.1643315e-22
-9.1521035e-22
9.1398649e-22
0
-9.1154454e-22
0
0
9.0787729e-22
-7.550221e-34
-9.0543144e-22
0
0
9.0175921e-22
9.0053616e-22
-8.9931556e-22
-8.9809875e-22
8.9688779e-22
8.9568426e-22
-1.7889808e-21
-8.9330672e-22
2.4785409e-34
8.9096564e-22
-4.9365679e-34
-4.9301469e-34
8.8749091e-22
-8.8633246e-22
8.8517281e-22
-8.8401323e-22
-7.5276731e-37
8.8170041e-22
-1.7611081e-21
-8.7942015e-22
-8.7830495e-22
1.7544309e-21
1.7523142e-21
-8.7513331e-22
8.7414453e-22
-8.731878e-22
4.844168e-34
1.7426905e-21
-8.704475e-22
2.4133617e-34
-2.413401e-34
-8.6782203e-22
0
0
8.6529636e-22
8.6447467e-22
0
-8.628672e-22
-8.6208638e-22
0
-8.6059304e-22
2.3877497e-34
8.5922796e-22
-8.5859246e-22
2.3800009e-34
8.574008e-22
0
8.5630023e-22
4.7512752e-34
-8.5521444e-22
8.5469943e-22
-2.3683094e-34
-8.5371834e-22
-8.5324363e-22
-2.366793e-34
8.5233727e-22
0
-8.5151811e-22
8.5115351e-22
-2.4181908e-37
4.7235361e-34
8.5028317e-22
-8.5005962e-22
0
-1.6993823e-21
1.8862285e-33
8.4940188e-22
4.7142195e-34
1.6984139e-21
-1.6982816e-21
-1.698183e-21
1.698118e-21
1.6980874e-21
8.4904486e-22
0
-8.4909807e-22
-1.6983061e-21
1.2068287e-37
-8.4933361e-22
8.4946715e-22
8.4963544e-22
-8.498256e-22
1.7000711e-21
-1.7005668e-21
-1.4166245e-33
1.7017337e-21
-1.7023833e-21
4.7266883e-34
-8.5190961e-22
8.5230178e-22
8.527146e-22
-8.531476e-22
-2.3678484e-34
-1.7081356e-21
1.7091073e-21
1.7101073e-21
-1.7111372e-21
-2.3759981e-34
-8.566288e-22
4.7603363e-34
8.5770831e-22
2.3820165e-34
-1.1174928e-52
8.5942737e-22
1.7200629e-21
-8.6065263e-22
2.8062819e-52
-8.6194766e-22
-1.4369512e-33
8.6331162e-22
-1.7280402e-21
4.7999736e-34
1.7309478e-21
-3.725413e-53
-8.6699059e-22
0
0
-8.6937506e-22
8.7019445e-22
1.74205e-21
0
0
0
-8.7444151e-22
-8.7531555e-22
0
8.7708205e-22
-8.7797332e-22
-1.4637692e-33
1.7595454e-21
0
0
0
-8.834286e-22
-8.8435447e-22
8.8528333e-22
-8.8621481e-22
-4.9268723e-34
1.7761704e-21
0
0
-1.7818063e-21
2.5347672e-37
8.9277827e-22
-8.9371064e-22
8.9463729e-22
-8.9555637e-22
4.97862e-34
1.7947348e-21
0
0
-9.0000071e-22
-9.0085716e-22
0
0
9.0340105e-22
9.0425655e-22
0
-9.0600765e-22
-9.0690741e-22
9.0782096e-22
-9.0874042e-22
-9.0965731e-22
9.1056833e-22
9.1147338e-22
-5.0669535e-34
-9.1326547e-22
9.1415201e-22
2.5395621e-34
-9.1590544e-22
0
-9.1762815e-22
5.0995517e-34
9.1931724e-22
-9.2014711e-22
5.1133665e-34
9.217699e-22
0
-9.2331972e-22
2.5659224e-34
1.3141752e-37
-9.2545658e-22
9.2612478e-22
9.2677811e-22
0
-1.8561387e-21
1.0315485e-33
9.2937666e-22
1.321656e-37
1.8613575e-21
-1.8626177e-21
-1.8638506e-21
1.8650696e-21
9.3314243e-22
0
-1.8686902e-21
1.5566115e-33
1.8710236e-21
0
-1.8732928e-21
-5.2048771e-34
9.3776609e-22
2.6055321e-34
1.8777433e-21
-1.8788246e-21
-2.3476904e-33
1.880917e-21
-1.8819316e-21
5.2244956e-34
1.8838977e-21
9.424235e-22
-1.8857738e-21
-9.4333881e-22
1.887556e-21
-1.8884066e-21
-2.3593622e-33
1.8900214e-21
-1.8907879e-21
2.6261996e-34
-9.4612241e-22
1.050185e-33
2.8404009e-21
-5.2572414e-34
-1.8948615e-21
9.4772948e-22
1.8960355e-21
-9.4829694e-22
5.2666204e-34
-9.4883085e-22
-1.0541698e-33
9.493356e-22
-1.8991561e-21
7.9096358e-34
-1.0548285e-33
5.2720103e-34
9.5048665e-22
0
9.5090817e-22
9.5111179e-22
0
0
0
0
0
-9.5224251e-22
-9.5241766e-22
0
9.5275828e-22
-9.5292412e-22
-1.587649e-33
1.9064945e-21
0
0
0
-9.5386445e-22
-9.5401418e-22
9.5416264e-22
9.5430953e-22
-1.9089106e-21
-1.5904412e-33
1.9094898e-21
0
-1.910066e-21
-1.5911309e-33
9.5532239e-22
-9.5546802e-22
9.5561447e-22
-9.5576193e-22
-5.3060304e-34
1.9121231e-21
0
0
-9.5652936e-22
-9.5669168e-22
0
-9.5702909e-22
-2.7205401e-37
-9.5738614e-22
-9.5757326e-22
9.5776674e-22
0
1.9163495e-21
1.9167791e-21
0
-2.8765233e-21
-1.9181569e-21
1.9186469e-21
-9.5957636e-22
-9.5983696e-22
2.8803144e-21
9.6038018e-22
1.3651845e-37
9.6095407e-22
-9.6125257e-22
-9.6155868e-22
-9.6187285e-22
1.566019e-53
-9.6252374e-22
-9.6286083e-22
9.6320579e-22
0
1.927839e-21
1.9285754e-21
0
-9.6504688e-22
-1.930875e-21
-5.3597527e-34
-9.6624319e-22
-1.9333149e-21
1.9341585e-21
1.9350166e-21
9.6794444e-22
9.6838768e-22
0
-9.6929293e-22
-2.9092618e-21
9.7022033e-22
-2.4593595e-51
-2.9134984e-21
1.9432892e-21
9.7212601e-22
9.7261005e-22
1.9461936e-21
-1.9471704e-21
-9.7407507e-22
9.7456642e-22
9.7505826e-22
9.7555011e-22
-2.928126e-21
-9.7653329e-22
2.9310686e-21
9.7751063e-22
-9.7799592e-22
-1.9569563e-21
9.789567e-22
-9.7943098e-22
1.6314788e-33
-1.6328078e-33
-2.9424653e-21
9.8127339e-22
9.8171814e-22
1.9643113e-21
9.8258548e-22
-1.9660151e-21
-2.7950512e-37
-9.8382599e-22
9.8422107e-22
2.9538184e-21
-2.9549426e-21
-9.8534453e-22
2.9570894e-21
0
-2.9590899e-21
-9.8667684e-22
2.96093e-21
-9.872615e-22
-1.9750614e-21
-5.4829494e-34
1.0967115e-33
9.8823833e-22
0
1.9772376e-21
1.9775591e-21
-9.8891939e-22
-9.8903789e-22
-1.9782672e-21
9.8920638e-22
9.8925555e-22
-1.9785598e-21
0
1.9785041e-21
1.9783974e-21
-9.8911845e-22
-1.9780207e-21
5.4890013e-34
9.8870866e-22
-1.9770275e-21
9.8828899e-22
-3.290605e-33
-1.9754985e-21
9.87433e-22
0
1.9734125e-21
0
-2.1891708e-33
-9.8537538e-22
-1.9697332e-21
2.9529742e-21
-2.7959833e-37
-1.9662794e-21
0
1.9636371e-21
9.8110631e-22
-1.9607182e-21
1.0876178e-33
9.7875812e-22
-1.9558079e-21
9.7701384e-22
-1.6251307e-33
-1.950248e-21
9.7412337e-22
-9.7308568e-22
1.9440212e-21
2.912693e-21
0
-2.9056744e-21
-1.9346635e-21
2.8981996e-21
1.9295254e-21
-9.6342097e-22
-1.9240813e-21
9.6062174e-22
9.5916429e-22
-1.9153352e-21
9.5613185e-22
1.9091152e-21
-9.5294472e-22
1.3518681e-37
-1.8992026e-21
-1.8957416e-21
2.8383019e-21
-9.4429106e-22
-1.5696496e-33
2.8216668e-21
0
-2.8099966e-21
-1.8693252e-21
9.3261773e-22
9.3052548e-22
9.2838984e-22
0
9.2399743e-22
-5.1163669e-34
-1.8388943e-21
5.0893785e-34
9.1474574e-22
0
9.0990009e-22
-1.8148494e-21
-2.7147499e-21
1.8047505e-21
2.6994017e-21
8.9719369e-22
-8.9455407e-22
-1.7837642e-21
8.8917827e-22
-8.8644129e-22
-8.8367119e-22
1.7617377e-21
-1.7560691e-21
-8.7516845e-22
2.616814e-21
1.7386852e-21
-8.6638152e-22
-2.5901685e-21
1.9102736e-33
-1.9034871e-33
-8.5422065e-22
-9.4484988e-34
-8.4794597e-22
8.4476013e-22
8.4154096e-22
8.382877e-22
-8.3500026e-22
-8.316786e-22
2.4849651e-21
-8.2493072e-22
-1.6430146e-21
2.4541554e-21
2.3151343e-37
-8.1104881e-22
1.6150028e-21
8.0392346e-22
0
-7.966758e-22
-7.9300826e-22
-1.5786289e-21
7.8559601e-22
-2.6039333e-33
-2.3342796e-21
7.7431013e-22
7.7050534e-22
7.666778e-22
-7.6282547e-22
-7.5894828e-22
2.2651405e-21
-7.5112192e-22
-1.4943497e-21
-1.2378195e-33
-7.3921688e-22
1.4704066e-21
2.1934837e-21
4.0348404e-34
-4.0130239e-34
-1.0214889e-37
-7.1460597e-22
-1.4207265e-21
-7.060879e-22
2.1053573e-21
-7.7428522e-34
-1.3862085e-21
0
0
6.7979329e-22
-3.7481672e-34
3.7217385e-34
6.6603619e-22
-1.3227624e-21
-6.5670415e-22
-7.2363691e-34
6.4726997e-22
1.9274955e-21
6.3768358e-22
0
0
0
-1.8540187e-21
-1.2259938e-21
1.8238501e-21
-6.6943979e-34
-1.1954592e-21
0
0
1.1641187e-21
-1.2805412e-33
-6.3414509e-34
1.1318765e-21
-5.6044106e-22
-1.1097537e-21
-1.0984986e-21
5.4356621e-22
1.6135078e-21
5.3206453e-22
0
0
0
-1.5256521e-21
-1.0051079e-21
1.4895266e-21
-1.0888659e-33
-4.8425956e-22
6.7933168e-38
-4.7173505e-22
9.3069353e-22
-5.094191e-34
-4.5232632e-22
8.9144838e-22
0
-2.4008442e-34
-8.5142907e-22
-8.3793642e-22
1.2364607e-21
8.1049421e-22
-3.9823138e-22
-2.1703459e-34
3.8385992e-22
-1.1295997e-21
-7.3829926e-22
3.6173542e-22
3.5430247e-22
-3.4683935e-22
-3.3931116e-22
3.3167389e-22
3.2389364e-22
-1.753822e-34
1.7086298e-34
2.9975325e-22
0
2.8337989e-22
-5.5030908e-22
-8.0055151e-22
5.1682721e-22
4.9962949e-22
2.4106189e-22
-2.5773488e-34
-4.4650623e-22
2.1428445e-22
-2.052877e-22
-1.9623062e-22
3.7413395e-22
-3.5549294e-22
-1.6823793e-22
1.5854925e-22
2.9743009e-22
1.3878248e-22
-2.5759634e-22
6.5895279e-35
-1.0867615e-22
-9.8456082e-23
2.6425876e-22
-7.7557692e-23
-6.6903774e-23
1.6851265e-22
-6.4458578e-39
-1.0323067e-22
-2.3194433e-23
3.4871895e-23
2.0334769e-25
-6.3013293e-50
4.048342e-35
7.2454436e-23
-9.5866853e-23
-1.1938226e-22
7.1773603e-23
-9.3688378e-35
-1.9516357e-22
1.1115984e-22
3.7442164e-22
1.3824685e-22
-1.5143258e-22
0
-1.7814472e-22
-3.8474318e-22
2.946589e-38
6.685409e-22
2.3844768e-22
-5.0751968e-22
3.8180892e-38
5.6689589e-22
-5.9710528e-22
5.2365852e-34
6.6242763e-22
-1.0465038e-21
-7.3378823e-22
0
0
4.1981786e-22
1.311351e-21
4.5494646e-22
-1.4209847e-21
5.4764287e-34
1.0272214e-21
-1.0683539e-21
-1.1094611e-21
5.7535023e-22
1.1928858e-21
-6.1843992e-22
-6.4141806e-22
1.9947806e-21
6.8821277e-22
1.183828e-33
-4.0662685e-34
-7.5566316e-22
7.8014655e-22
-1.6141264e-21
-2.5083517e-21
0
2.6851733e-21
1.8446337e-21
-2.8438675e-21
2.7679463e-37
1.0021588e-21
-2.0674813e-21
1.0682415e-21
1.1041725e-21
1.2650851e-33
-1.1730896e-21
-2.4102457e-21
1.237481e-21
2.5442299e-21
2.6199027e-21
-1.4997705e-33
-1.392773e-21
1.4348438e-21
-2.9518001e-21
-4.548914e-21
0
4.8026735e-21
3.2947444e-21
-5.0900164e-21
1.940717e-33
1.7990466e-21
-1.8496907e-21
-1.8997681e-21
1.082177e-33
4.0080213e-21
-1.1442196e-33
-4.2458452e-21
2.4280906e-33
2.5004471e-33
4.6325407e-21
7.1338612e-21
-4.8794938e-21
2.7815789e-33
8.578671e-33
-2.6534411e-21
-2.735133e-21
-5.6350484e-21
8.6924337e-21
2.9747443e-21
-6.10487e-21
6.269537e-21
1.8327961e-36
-9.9620536e-21
-3.4212728e-21
3.5225567e-21
1.0867112e-20
-1.2395024e-32
-7.6453251e-21
-3.9292697e-21
8.0850518e-21
1.2484608e-20
-1.2852405e-20
-4.4083704e-21
-5.0318708e-33
-4.6615366e-21
9.5874602e-21
-2.7374854e-33
5.0754676e-21
-5.2236061e-21
1.7902824e-32
1.6583251e-20
-1.7052354e-20
-1.753731e-20
0
0
0
6.5620004e-21
2.0255435e-20
6.9440237e-21
7.9273239e-33
7.3449518e-21
-2.2675685e-20
-7.7814034e-21
8.0113581e-21
8.2458023e-21
8.4834954e-21
-1.7451218e-20
8.9750315e-21
-9.234488e-21
3.1655727e-32
1.9570265e-20
-3.0218245e-20
-2.0731833e-20
0
2.1940406e-20
1.252841e-32
-1.1611649e-20
3.5849161e-20
1.2298846e-20
-1.2657886e-20
0
0
-1.3789341e-20
-2.837207e-20
3.2402886e-32
3.0027786e-20
1.5447095e-20
-1.5893943e-20
1.6354118e-20
-1.6827206e-20
2.5578754e-48
2.966295e-32
-5.495886e-20
0
0
3.9868922e-20
4.1012395e-20
2.1095098e-20
-2.4087294e-32
-6.6958674e-20
2.5488109e-32
4.7204854e-20
0
-4.9913262e-20
-2.5665144e-20
5.2788976e-20
-2.7142691e-20
-2.7909011e-20
8.6075047e-20
-2.9495313e-20
1.0097874e-31
6.2339239e-20
-9.6132295e-20
-6.587741e-20
0
0
0
1.1028113e-19
7.5550056e-20
-1.164555e-19
-7.9779936e-20
0
8.4236509e-20
-4.8040045e-32
-4.4455689e-20
9.1334003e-20
-4.6910276e-20
4.8187837e-20
4.949988e-20
-1.5253343e-19
1.0443869e-19
1.0724834e-19
-5.5061676e-20
5.6536327e-20
-1.1610326e-19
-1.7882407e-19
0
1.8850133e-19
1.2899898e-19
-6.6202843e-20
-6.7948303e-20
7.7421239e-32
-7.1576375e-20
2.4468857e-31
7.5380386e-20
4.2943481e-32
-3.9181724e-49
-8.141339e-20
0
-8.5684582e-20
1.757907e-19
2.7046239e-19
-2.7738523e-19
-2.8446404e-19
0
1.9942007e-19
2.0448266e-19
-2.0965843e-19
1.0747289e-19
1.1017333e-19
-3.3879925e-19
2.315098e-19
2.3728106e-19
-1.2159056e-19
-2.4921056e-19
-1.2768546e-19
3.9249731e-19
1.3404747e-19
2.2868775e-31
-2.8136801e-19
-8.1915329e-35
4.4280738e-19
-3.0234709e-19
-4.6446741e-19
-1.5854949e-19
4.8705986e-19
3.3246579e-19
-5.1056895e-19
3.8688741e-31
3.5670162e-19
1.8256223e-19
-1.0372204e-31
-3.82489e-19
2.1726947e-31
-2.0026407e-19
-2.0490754e-19
6.2894171e-19
2.144855e-19
2.4359039e-31
-4.4889951e-19
7.6457625e-31
7.0436154e-19
-4.8020751e-19
2.7271092e-31
2.7892497e-31
5.7001016e-31
2.6243375e-19
-8.0483153e-19
2.7422675e-19
4.6666364e-31
9.5405964e-31
8.7827804e-19
-2.9916804e-19
-6.1137721e-19
3.4672451e-31
-3.1907213e-19
-3.2594696e-19
6.6590184e-19
6.8016745e-19
-3.8555174e-31
-1.0641523e-18
4.0200879e-31
3.6983401e-19
-7.5517828e-19
3.8548627e-19
3.9352694e-19
-2.2286333e-31
2.2759058e-31
-4.1845514e-19
8.5404755e-19
-4.3573187e-19
1.4809388e-30
1.5107039e-30
-1.3883108e-18
9.4417187e-19
-1.3686285e-34
-9.8228069e-19
5.0088104e-19
1.5323211e-18
5.2082655e-19
-1.5931325e-18
6.0106508e-31
5.5196779e-19
-1.1253306e-18
1.1470335e-18
2.9205988e-30
-5.9569454e-19
6.0703265e-19
-6.1854322e-19
1.2604542e-18
-6.4208242e-19
-1.9623195e-18
0
0
1.382387e-18
2.0006171e-34
-1.4335903e-18
7.2986583e-19
2.2293487e-18
7.5654632e-19
-2.3104713e-18
-2.2281208e-34
-8.8582079e-31
-1.624179e-18
2.4793108e-18
4.2014634e-30
-8.556931e-19
8.7060575e-19
8.8570986e-19
-1.0007648e-30
-9.1649083e-19
1.8643344e-18
-1.8960727e-18
3.2108983e-30
1.9607315e-18
-2.9904855e-18
-2.0269755e-18
1.0303415e-18
3.14217e-18
1.0646367e-18
-1.0820861e-18
0
1.1175998e-18
-1.1356599e-18
-3.461755e-18
-6.5075761e-31
2.3820716e-18
-1.2099027e-18
-1.228978e-18
2.4965201e-18
-1.2677455e-18
1.287433e-18
2.6146488e-18
-3.9822707e-18
4.4885647e-30
-3.0383223e-30
-2.7779497e-18
2.8198021e-18
1.4310305e-18
1.4523675e-18
1.6375284e-30
-1.4956794e-18
3.0353023e-18
-3.0796515e-18
-4.6865988e-18
0
1.6075572e-18
-9.050811e-31
-4.7002812e-34
5.0315541e-18
1.7008064e-18
-5.1738732e-18
1.74864e-18
-1.263568e-46
-5.391866e-18
1.8219296e-18
5.5403325e-18
1.8718248e-18
-3.7941324e-18
1.9225016e-18
-1.9481356e-18
6.5742309e-30
4.0000321e-18
-6.0787809e-18
-2.2799753e-30
9.234666e-30
-4.2122944e-18
4.2663154e-18
2.3983325e-30
-2.1877673e-18
4.4307274e-18
2.2431476e-18
0
0
-4.6551917e-18
5.2312953e-30
1.3556163e-33
2.6795928e-30
2.4427856e-18
2.472026e-18
-2.5014379e-18
-2.5310247e-18
5.121579e-18
-5.1814634e-18
2.9095371e-30
5.3022484e-18
-5.3631232e-18
-9.0327221e-30
3.0450542e-30
-2.7738412e-18
5.609861e-18
-2.8361783e-18
6.366891e-30
5.7982379e-18
0
-5.9252825e-18
-2.9946278e-18
6.0535283e-18
3.0590434e-18
-3.0914569e-18
5.203058e-30
3.1566688e-18
0
0
-6.5109549e-18
-6.5773467e-18
0
6.7108167e-18
3.3889398e-18
-3.4225839e-18
3.4563442e-18
-3.4902202e-18
0
7.1165779e-18
0
0
-3.6610769e-18
4.1025909e-30
3.7300614e-18
0
-3.7994029e-18
-2.1282651e-30
3.869038e-18
0
-7.8778784e-18
-7.9479863e-18
4.0091147e-18
4.4892108e-30
-4.0795353e-18
8.2296387e-18
8.3002924e-18
-8.37103e-18
-1.1996593e-33
-9.4516644e-30
-1.2198229e-33
8.6547913e-18
-4.3629481e-18
4.8830274e-30
-4.4341112e-18
4.4697143e-18
1.3515989e-17
-1.3622872e-17
-4.5765956e-18
4.6122407e-18
5.1591998e-30
4.683525e-18
-9.4383001e-18
-9.5095169e-18
9.5807004e-18
1.6071162e-29
4.8614839e-18
4.8970184e-18
-9.8650428e-18
4.9679856e-18
-5.5538314e-30
2.7983411e-30
-5.0741214e-18
-1.0218825e-17
1.0289308e-17
1.0359677e-17
0
-5.2500106e-18
-5.8671442e-30
1.0639805e-17
5.9445761e-30
-1.6168508e-17
-1.0848364e-17
0
1.098654e-17
1.2271541e-29
5.5619764e-18
5.5961812e-18
-1.6890846e-17
3.1432965e-30
1.1396291e-17
-5.7318978e-18
-1.1531056e-17
5.7990371e-18
1.1664849e-17
5.8656854e-18
0
-1.1863584e-17
5.9646213e-18
1.7991895e-17
-6.0298266e-18
-6.0622086e-18
-1.2188885e-17
-6.1265194e-18
1.2316859e-17
6.1901636e-18
6.2217183e-18
-6.9418853e-30
-6.2842948e-18
-6.3153191e-18
-1.2692329e-17
-6.3768241e-18
0
0
0
1.2994958e-17
1.3054253e-17
-1.3113132e-17
-7.3112374e-30
-7.3434591e-30
7.3735561e-30
1.4816264e-29
-1.3401169e-17
0
1.3513186e-17
6.7842444e-18
-6.8116643e-18
6.8388514e-18
6.8658002e-18
0
0
-1.3890296e-17
2.3216887e-29
1.5534936e-29
-1.4044359e-17
1.4094677e-17
1.4144471e-17
0
-1.4242451e-17
7.9303482e-30
1.4338229e-17
-1.438528e-17
-8.0127819e-30
1.4477707e-17
0
-1.4567855e-17
-7.3060261e-18
1.4655662e-17
-7.3493455e-18
-1.6369093e-29
1.4782994e-17
-1.4824241e-17
-1.4864866e-17
0
0
0
1.5021232e-17
1.5058808e-17
-1.5095747e-17
0
1.5167652e-17
0
7.6184921e-18
-1.5270724e-17
-7.6519195e-18
7.6681517e-18
-1.5368092e-17
-7.6995966e-18
1.5429616e-17
7.7296924e-18
8.5984037e-30
-7.7585047e-18
1.7257145e-29
-4.4258321e-33
-1.5598479e-17
0
7.824657e-18
1.5673718e-17
7.8487348e-18
0
0
0
7.8928772e-18
-1.5806061e-17
-7.9128331e-18
7.9222975e-18
7.9314311e-18
-7.9402337e-18
-7.9486979e-18
1.5913625e-17
0
-1.5943913e-17
-1.5957989e-17
0
0
1.5996178e-17
8.8854132e-30
8.0091236e-18
8.0141063e-18
-8.0187278e-18
8.0229965e-18
-8.0269255e-18
-1.6061041e-17
-8.0337768e-18
0
1.6078551e-17
8.9249987e-30
-8.0433651e-18
8.0448831e-18
8.0460614e-18
1.6093812e-17
-1.6094835e-17
-8.0475884e-18
2.287205e-33
-8.0468164e-18
1.6091807e-17
-8.0446506e-18
8.0430606e-18
4.9441318e-48
-8.038881e-18
1.6072593e-17
-1.6066768e-17
-1.6060282e-17
0
8.0226625e-18
1.6036861e-17
-4.4483092e-30
-8.0089974e-18
-8.003802e-18
1.5996577e-17
1.5984909e-17
-7.9863007e-18
-1.5959656e-17
-1.5946082e-17
7.9659426e-18
1.5917073e-17
-7.9508244e-18
7.9428059e-18
-1.3210463e-29
-7.9258475e-18
1.5833823e-17
-1.5815352e-17
-8.7658961e-30
4.3788415e-29
-1.5756409e-17
1.5735592e-17
3.4890281e-29
-7.8461051e-18
1.5669657e-17
-7.8232694e-18
2.2201424e-33
-3.4633711e-29
-7.7869275e-18
1.5548523e-17
-1.7232492e-29
4.2996885e-30
-7.7346311e-18
2.1944087e-33
1.5413775e-17
-1.5385255e-17
-4.3644995e-33
3.4029855e-29
-1.5296604e-17
1.5266041e-17
1.691315e-29
-1.5203447e-17
7.5857133e-18
7.5694633e-18
7.552974e-18
-7.5362483e-18
8.3475546e-30
1.5004207e-17
0
0
-1.4898415e-17
-2.1120556e-33
1.4825689e-17
-7.3943409e-18
8.1859722e-30
-7.3567113e-18
-1.6291684e-29
1.4636542e-17
0
7.2790301e-18
-1.4518235e-17
-7.2390161e-18
1.6029828e-29
-7.1982637e-18
1.4355229e-17
-7.1567848e-18
7.9197686e-30
1.422919e-17
0
0
-7.0500585e-18
3.9011986e-30
-7.0062301e-18
6.9840775e-18
2.0885312e-17
-2.0817944e-17
-6.9167156e-18
1.3787954e-17
-6.8711003e-18
-1.1402649e-29
-6.8249326e-18
3.8662882e-33
2.2576522e-29
-6.7546889e-18
1.3462056e-17
6.70725e-18
0
6.6593458e-18
-6.6352228e-18
-6.6109898e-18
-6.5866509e-18
1.4570102e-29
-7.2559528e-30
7.2286138e-30
1.2976627e-17
-6.4634938e-18
-1.0720795e-29
1.2827174e-17
-9.0786154e-34
-6.3633503e-18
-1.2676236e-17
-1.2625623e-17
1.2574863e-17
6.9553096e-30
6.2364613e-18
6.210878e-18
-1.237047e-17
1.2319073e-17
6.1337831e-18
-1.8323927e-17
-1.2164231e-17