/*--------------------------------*- C++ -*----------------------------------*\
  =========                 |
  \\      /  F ield         | OpenFOAM: The Open Source CFD Toolbox
   \\    /   O peration     | Website:  https://openfoam.org
    \\  /    A nd           | Version:  7
     \\/     M anipulation  |
\*---------------------------------------------------------------------------*/
FoamFile
{
    version     2.0;
    format      ascii;
    class       surfaceScalarField;
    location    "0.00067";
    object      phi;
}
// * * * * * * * * * * * * * * * * * * * * * * * * * * * * * * * * * * * * * //

dimensions      [1 0 -1 0 0 0 0];

internalField   nonuniform List<scalar> 
4999
(
1.4210855e-14
7.1054274e-15
-1.9552537e-29
7.1054274e-15
4.8640713e-29
1.4210855e-14
1.4210855e-14
-7.1054274e-15
7.1054274e-15
-7.1054274e-15
-7.1054274e-15
-1.4210855e-14
-2.8421709e-14
-1.4210855e-14
-1.4210855e-14
-2.1316282e-14
-1.4210855e-14
-2.1316282e-14
-5.6843419e-14
-4.2632564e-14
-7.1054274e-15
-1.4210855e-14
-7.1054274e-15
-2.8421709e-14
-1.4210855e-14
-2.8421709e-14
-2.1316282e-14
-2.1316282e-14
-2.8421709e-14
-2.8421709e-14
-2.8421709e-14
-2.1316282e-14
-4.2632564e-14
-4.2632564e-14
-4.2632564e-14
-4.9737992e-14
-2.1316282e-14
-2.8421709e-14
-3.5527137e-14
-4.9737992e-14
-4.2632564e-14
-3.5527137e-14
-6.3948846e-14
-4.9737992e-14
-5.6843419e-14
-6.3948846e-14
-4.9737992e-14
-4.9737992e-14
-4.2632564e-14
-3.5527137e-14
-3.5527137e-14
-4.2632564e-14
-3.5527137e-14
-4.2632564e-14
-4.2632564e-14
-2.1316282e-14
-2.8421709e-14
-2.8421709e-14
-3.5527137e-14
-3.5527137e-14
-4.9737992e-14
-2.8421709e-14
-2.1316282e-14
-4.9737992e-14
-4.2632564e-14
-4.9737992e-14
-5.6843419e-14
-6.3948846e-14
-8.5265128e-14
-9.2370556e-14
-9.2370556e-14
-9.2370556e-14
-1.1368684e-13
-1.1368684e-13
-1.2789769e-13
-1.1368684e-13
-1.0658141e-13
-7.8159701e-14
-1.0658141e-13
-7.8159701e-14
-9.2370556e-14
-8.5265128e-14
-9.2370556e-14
-8.5265128e-14
-8.5265128e-14
-8.5265128e-14
-7.8159701e-14
-7.8159701e-14
-7.8159701e-14
-4.9737992e-14
-4.2632564e-14
-4.9737992e-14
-6.3948846e-14
-5.6843419e-14
-4.9737992e-14
-7.1054274e-14
-6.3948846e-14
-1.0658141e-13
-7.8159701e-14
-8.5265128e-14
-9.2370556e-14
-7.1054274e-14
-1.2079227e-13
-1.2079227e-13
-9.2370556e-14
-8.5265128e-14
-7.8159701e-14
-9.9475983e-14
-1.1368684e-13
-9.9475983e-14
-8.5265128e-14
-1.1368684e-13
-8.5265128e-14
-9.2370556e-14
-7.1054274e-14
-7.8159701e-14
-7.8159701e-14
-8.5265128e-14
-9.9475983e-14
-9.2370556e-14
-7.1054274e-14
-6.3948846e-14
-8.5265128e-14
-7.1054274e-14
-1.0658141e-13
-8.5265128e-14
-7.8159701e-14
-4.2632564e-14
-5.6843419e-14
-4.2632564e-14
-4.2632564e-14
-2.1316282e-14
-7.1054274e-15
-1.4210855e-14
-1.4210855e-14
-1.4210855e-14
2.8421709e-14
-4.5753933e-29
2.1316282e-14
1.4210855e-14
1.4210855e-14
2.8421709e-14
3.5527137e-14
3.5527137e-14
4.9737992e-14
2.8421709e-14
1.4210855e-14
-1.4210855e-14
-1.4199496e-29
-1.2621774e-29
-1.5777218e-30
-7.1054274e-15
-7.1054274e-15
-3.1554436e-30
-2.1316282e-14
-7.1054274e-15
-1.4210855e-14
-2.8421709e-14
-2.1316282e-14
-1.4210855e-14
-5.6843419e-14
-3.5527137e-14
-2.1316282e-14
-4.9737992e-14
-4.9737992e-14
-7.1054274e-14
-4.9737992e-14
-7.1054274e-14
-5.6843419e-14
-4.2632564e-14
-3.5527137e-14
-5.6843419e-14
-3.5527137e-14
-2.1316282e-14
-7.1054274e-15
1.4210855e-14
2.1316282e-14
7.1054274e-15
7.1054274e-15
7.1054274e-15
1.5777218e-29
6.3108872e-30
2.8421709e-14
2.8421709e-14
2.8421709e-14
2.8421709e-14
2.8421709e-14
3.5527137e-14
-1.8932662e-29
2.8421709e-14
2.1316282e-14
-3.6287602e-29
7.1054274e-15
1.4210855e-14
0
4.2632564e-14
2.8421709e-14
2.8421709e-14
1.4210855e-14
-7.8886091e-30
-2.7610132e-30
7.1054274e-15
7.1054274e-15
-7.1054274e-15
2.8421709e-14
1.4210855e-14
2.1316282e-14
1.4210855e-14
2.1316282e-14
4.2632564e-14
2.1316282e-14
7.1054274e-15
-7.1054274e-15
-2.8421709e-14
7.1054274e-15
-8.5431382e-30
-2.8421709e-14
-2.1316282e-14
-2.1316282e-14
-2.1316282e-14
-1.4210855e-14
-3.5527137e-14
-1.4210855e-14
-4.2632564e-14
-3.5527137e-14
-5.6843419e-14
-7.8159701e-14
-1.0658141e-13
-9.2370556e-14
-1.2079227e-13
-9.9475983e-14
-1.2079227e-13
-9.2370556e-14
-8.5265128e-14
-7.1054274e-14
-6.3948846e-14
-7.1054274e-14
-4.2632564e-14
-7.8159701e-14
-7.8159701e-14
-6.3948846e-14
-7.8159701e-14
-9.2370556e-14
-7.8159701e-14
-5.6843419e-14
-6.3948846e-14
-6.3948846e-14
-7.8159701e-14
-9.2370556e-14
-9.2370556e-14
-8.5265128e-14
-7.8159701e-14
-8.5265128e-14
-7.8159701e-14
-7.1054274e-14
-6.3948846e-14
-7.1054274e-14
-7.8159701e-14
-8.5265128e-14
-9.9475983e-14
-9.9475983e-14
-9.2370556e-14
-9.9475983e-14
-1.1368684e-13
-1.1368684e-13
-8.5265128e-14
-7.8159701e-14
-9.9475983e-14
-1.0658141e-13
-1.2789769e-13
-1.4210855e-13
-1.3500312e-13
-1.3500312e-13
-1.2789769e-13
-9.9475983e-14
-9.9475983e-14
-1.1368684e-13
-9.9475983e-14
-9.2370556e-14
-9.2370556e-14
-1.0658141e-13
-8.5265128e-14
-7.8159701e-14
-1.0658141e-13
-8.5265128e-14
-9.2370556e-14
-7.8159701e-14
-8.5265128e-14
-9.2370556e-14
-8.5265128e-14
-7.1054274e-14
-7.1054274e-14
-6.3948846e-14
-7.1054274e-14
-6.3948846e-14
-7.1054274e-14
-9.2370556e-14
-6.3948846e-14
-7.1054274e-14
-5.6843419e-14
-4.9737992e-14
-8.5265128e-14
-7.1054274e-14
-6.3948846e-14
-6.3948846e-14
-6.3948846e-14
-2.8421709e-14
-4.2632564e-14
-3.5527137e-14
-5.6843419e-14
-5.6843419e-14
-2.8421709e-14
-6.3948846e-14
-7.8159701e-14
-9.2370556e-14
-8.5265128e-14
-4.9737992e-14
-3.5527137e-14
-4.9737992e-14
-6.3948846e-14
-7.1054274e-14
-4.2632564e-14
-4.2632564e-14
-1.4210855e-14
-4.2632564e-14
-4.9737992e-14
-6.3948846e-14
-4.2632564e-14
-2.8421709e-14
-2.1316282e-14
-2.8421709e-14
-2.8421709e-14
-2.1316282e-14
-7.1054274e-15
3.5527137e-14
2.1316282e-14
2.1316282e-14
3.5527137e-14
4.2632564e-14
3.5527137e-14
2.1316282e-14
1.4210855e-14
3.5527137e-14
4.9737992e-14
2.8421709e-14
2.1316282e-14
2.8421709e-14
2.8421709e-14
2.8421709e-14
2.1316282e-14
7.1054274e-15
3.1554436e-30
1.4210855e-14
4.2632564e-14
3.5527137e-14
1.4210855e-14
1.4210855e-14
4.9737992e-14
5.6843419e-14
4.9737992e-14
4.2632564e-14
5.6843419e-14
7.8159701e-14
7.1054274e-14
4.9737992e-14
4.2632564e-14
5.6843419e-14
3.5527137e-14
3.5527137e-14
3.5527137e-14
4.2632564e-14
1.4210855e-14
2.1316282e-14
2.8421709e-14
7.1054274e-15
-3.9443045e-30
-7.1054274e-15
1.4210855e-14
7.1054274e-15
-7.1054274e-15
-9.4663309e-30
7.1054274e-15
-1.774937e-30
7.1054274e-15
2.8421709e-14
7.1054274e-15
2.8421709e-14
4.2632564e-14
4.2632564e-14
6.3948846e-14
5.6843419e-14
2.1316282e-14
4.9737992e-14
4.2632564e-14
3.5527137e-14
2.8421709e-14
3.5527137e-14
7.1054274e-15
3.5527137e-14
4.2632564e-14
4.9737992e-14
2.8421709e-14
2.8421709e-14
4.2632564e-14
5.6843419e-14
3.5527137e-14
2.8421709e-14
1.4210855e-14
1.4210855e-14
7.1054274e-15
-7.1054274e-15
-1.4210855e-14
-2.8421709e-14
-2.1316282e-14
-2.1316282e-14
-2.8421709e-14
-2.1316282e-14
-2.1316282e-14
-3.5527137e-14
-4.2632564e-14
-3.5527137e-14
-1.5777218e-29
-1.4210855e-14
-2.1316282e-14
-3.5527137e-14
-2.1316282e-14
-2.1316282e-14
-1.4210855e-14
-2.8421709e-14
-7.1054274e-15
-2.1316282e-14
-7.1054274e-15
-7.1054274e-15
3.1554436e-30
-1.5777218e-30
-7.1054274e-15
-1.4210855e-14
-7.1054274e-15
-2.1316282e-14
-1.4210855e-14
-2.8421709e-14
-5.6843419e-14
-4.9737992e-14
-4.2632564e-14
-4.2632564e-14
-1.4210855e-14
-2.8421709e-14
-2.1316282e-14
-2.8421709e-14
-6.3948846e-14
-4.2632564e-14
-7.1054274e-15
-7.1054274e-15
-3.1554436e-30
-2.1316282e-14
-1.4210855e-14
1.5777218e-30
9.4663309e-30
-7.1054274e-15
-1.5777218e-30
-7.1054274e-15
1.4210855e-14
1.4210855e-14
2.8421709e-14
2.8421709e-14
7.1054274e-15
2.8421709e-14
5.6843419e-14
4.9737992e-14
2.8421709e-14
4.2632564e-14
4.2632564e-14
2.1316282e-14
1.4210855e-14
-1.4210855e-14
-1.4210855e-14
-7.1054274e-15
-1.2621774e-29
-7.1054274e-15
-3.5527137e-14
-2.8421709e-14
-1.4210855e-14
-2.1316282e-14
-1.4210855e-14
1.4210855e-14
1.5777218e-30
-7.1054274e-15
-4.7331654e-30
2.1316282e-14
-1.5777218e-30
-1.4210855e-14
-2.8421709e-14
-2.1316282e-14
-3.5527137e-14
-2.8421709e-14
-3.5527137e-14
-1.4210855e-14
-2.8421709e-14
-2.8421709e-14
-1.4210855e-14
-2.8421709e-14
-1.4210855e-14
-2.1316282e-14
-2.8421709e-14
1.4210855e-14
3.5498741e-30
8.8746852e-31
-2.1316282e-14
1.7706546e-30
2.1316282e-14
2.1316282e-14
7.1054274e-15
-5.5030937e-30
1.4210855e-14
-7.1054274e-15
1.4210855e-14
2.8421709e-14
1.4210855e-14
2.8421709e-14
2.1316282e-14
-1.4210855e-14
-1.4210855e-14
7.1054274e-15
3.5527137e-14
2.8421709e-14
7.1054274e-15
1.4210855e-14
3.5527137e-14
7.1054274e-15
-3.5114678e-29
-1.5777218e-29
1.4210855e-14
-1.5777218e-30
2.1316282e-14
2.1316282e-14
-6.6067101e-30
1.4210855e-14
7.1054274e-15
-1.4210855e-14
-1.4210855e-14
2.1316282e-14
2.1316282e-14
7.1054274e-15
-7.1054274e-15
-7.1054274e-15
-2.1316282e-14
-1.0007264e-30
-2.1316282e-14
5.769954e-31
-7.1054274e-15
-7.1054274e-15
-7.1054274e-15
-2.1316282e-14
-2.1316282e-14
-2.8421709e-14
-1.4210855e-14
-2.1316282e-14
-4.2632564e-14
-4.2632564e-14
-3.5527137e-14
-3.5527137e-14
-4.9737992e-14
-3.5527137e-14
-4.2632564e-14
-5.6843419e-14
-6.3948846e-14
-7.1054274e-14
-7.8159701e-14
-7.8159701e-14
-6.3948846e-14
-7.8159701e-14
-5.6843419e-14
-7.1054274e-14
-7.8159701e-14
-8.5265128e-14
-9.2370556e-14
-8.5265128e-14
-7.1054274e-14
-8.5265128e-14
-7.8159701e-14
-7.8159701e-14
-6.3948846e-14
-6.3948846e-14
-6.3948846e-14
-5.6843419e-14
-6.3948846e-14
-4.2632564e-14
-7.1054274e-15
-3.5527137e-14
-5.6843419e-14
-4.9737992e-14
-4.9737992e-14
-7.8159701e-14
-7.8159701e-14
-7.1054274e-14
-6.3948846e-14
-6.3948846e-14
-7.8159701e-14
-6.3948846e-14
-5.6843419e-14
-7.8159701e-14
-6.3948846e-14
-6.3948846e-14
-6.3948846e-14
-4.2632564e-14
-4.2632564e-14
-6.3948846e-14
-4.2632564e-14
-5.6843419e-14
-5.6843419e-14
-4.2632564e-14
-2.8421709e-14
-1.4210855e-14
-2.8421709e-14
-5.6843419e-14
-4.9737992e-14
-3.5527137e-14
-2.1316282e-14
-1.4210855e-14
-7.1054274e-15
1.4210855e-14
3.5527137e-14
1.4210855e-14
7.1054274e-15
2.8421709e-14
1.4210855e-14
3.5527137e-14
4.2632564e-14
4.9737992e-14
4.2632564e-14
2.8421709e-14
2.1316282e-14
2.1316282e-14
3.5527137e-14
3.5527137e-14
6.3948846e-14
5.6843419e-14
5.6843419e-14
7.8159701e-14
6.3948846e-14
4.9737992e-14
4.2632564e-14
2.8421709e-14
4.9737992e-14
4.9737992e-14
7.1054274e-14
6.3948846e-14
8.5265128e-14
1.0658141e-13
8.5265128e-14
8.5265128e-14
7.8159701e-14
7.1054274e-14
7.8159701e-14
8.5265128e-14
7.1054274e-14
9.2370556e-14
9.9475983e-14
1.0658141e-13
1.1368684e-13
1.2789769e-13
1.2789769e-13
1.2789769e-13
1.2789769e-13
1.0658141e-13
7.1054274e-14
6.3948846e-14
7.8159701e-14
8.5265128e-14
5.6843419e-14
7.8159701e-14
9.9475983e-14
7.8159701e-14
6.3948846e-14
6.3948846e-14
5.6843419e-14
4.9737992e-14
6.3948846e-14
2.8421709e-14
3.5527137e-14
3.5527137e-14
3.5527137e-14
2.8421709e-14
3.5527137e-14
5.6843419e-14
3.5527137e-14
3.5527137e-14
3.5527137e-14
6.3948846e-14
2.8421709e-14
3.5527137e-14
1.4210855e-14
-1.5777218e-29
1.4210855e-14
-2.1316282e-14
-2.1316282e-14
-2.1316282e-14
-2.1316282e-14
-2.1316282e-14
-7.1054274e-15
-3.5527137e-14
-2.1316282e-14
-2.1316282e-14
-3.5527137e-14
-2.1316282e-14
-3.5527137e-14
-4.2632564e-14
-5.6843419e-14
-2.8421709e-14
-7.1054274e-14
-4.9737992e-14
-5.6843419e-14
-7.8159701e-14
-7.1054274e-14
-5.6843419e-14
-5.6843419e-14
-6.3948846e-14
-4.9737992e-14
-5.6843419e-14
-7.1054274e-14
-4.9737992e-14
-4.2632564e-14
-7.8159701e-14
-5.6843419e-14
-6.3948846e-14
-6.3948846e-14
-4.2632564e-14
-3.5527137e-14
-2.8421709e-14
-3.5527137e-14
-3.5527137e-14
-5.6843419e-14
-6.3948846e-14
-7.1054274e-14
-7.8159701e-14
-7.1054274e-14
-7.1054274e-14
-8.5265128e-14
-6.3948846e-14
-8.5265128e-14
-8.5265128e-14
-8.5265128e-14
-8.5265128e-14
-7.1054274e-14
-8.5265128e-14
-6.3948846e-14
-6.3948846e-14
-5.6843419e-14
-7.8159701e-14
-6.3948846e-14
-5.6843419e-14
-6.3948846e-14
-5.6843419e-14
-4.2632564e-14
-6.3948846e-14
-4.9737992e-14
-4.2632564e-14
-4.9737992e-14
-2.8421709e-14
-4.9737992e-14
-5.6843419e-14
-2.8421709e-14
-4.2632564e-14
-4.2632564e-14
-2.1316282e-14
-4.2632564e-14
-3.5527137e-14
-4.9737992e-14
-3.5527137e-14
-5.6843419e-14
-7.1054274e-14
-8.5265128e-14
-1.0658141e-13
-9.2370556e-14
-7.1054274e-14
-6.3948846e-14
-8.5265128e-14
-7.8159701e-14
-9.9475983e-14
-9.9475983e-14
-1.0658141e-13
-9.2370556e-14
-8.5265128e-14
-9.2370556e-14
-1.0658141e-13
-1.2079227e-13
-1.3500312e-13
-1.2079227e-13
-1.2079227e-13
-1.3500312e-13
-1.2079227e-13
-1.2079227e-13
-9.9475983e-14
-8.5265128e-14
-7.8159701e-14
-7.8159701e-14
-8.5265128e-14
-6.3948846e-14
-7.8159701e-14
-4.9737992e-14
-6.3948846e-14
-5.6843419e-14
-4.9737992e-14
-3.5527137e-14
-4.2632564e-14
-2.8421709e-14
-4.2632564e-14
-3.5527137e-14
-1.4210855e-14
-7.1054274e-15
-2.8421709e-14
-2.1316282e-14
-2.1316282e-14
-4.2632564e-14
-4.2632564e-14
-3.5527137e-14
-4.9737992e-14
-6.3948846e-14
-4.9737992e-14
-5.6843419e-14
-2.1316282e-14
-2.8421709e-14
-2.8421709e-14
-3.5527137e-14
-3.5527137e-14
-2.1316282e-14
-3.5527137e-14
-1.4210855e-14
-7.1054274e-15
-2.1316282e-14
-4.9737992e-14
-2.8421709e-14
-2.1316282e-14
-4.2632564e-14
-2.8421709e-14
-3.5527137e-14
-4.2632564e-14
-4.9737992e-14
-4.2632564e-14
-3.5527137e-14
-2.8421709e-14
-4.2632564e-14
-4.9737992e-14
-3.5527137e-14
-2.8421709e-14
-2.8421709e-14
-1.4210855e-14
-7.1054274e-15
-1.4210855e-14
-1.4210855e-14
-1.4210855e-14
-2.1316282e-14
-9.4663309e-30
-2.1316282e-14
9.3723719e-30
-7.1054274e-15
-2.1316282e-14
1.8932662e-29
-7.1054274e-15
-2.8421709e-14
-7.1054274e-15
-1.4210855e-14
-2.1316282e-14
-1.4210855e-14
-2.1316282e-14
2.8398993e-29
-1.4210855e-14
5.6797985e-29
-4.9737992e-14
-3.5527137e-14
-1.4210855e-14
-2.8421709e-14
-2.8421709e-14
-3.5527137e-14
-2.1316282e-14
-1.4210855e-14
-3.5527137e-14
-7.1054274e-15
-7.1054274e-15
-2.1316282e-14
-2.1316282e-14
-3.5527137e-14
-2.1316282e-14
-2.1316282e-14
-2.8421709e-14
-2.1316282e-14
7.1054274e-15
-7.1054274e-15
1.4210855e-14
-9.2319265e-31
1.4210855e-14
2.1316282e-14
2.1316282e-14
1.4210855e-14
2.8421709e-14
3.5527137e-14
2.8421709e-14
4.9737992e-14
5.6843419e-14
7.8159701e-14
4.2632564e-14
4.2632564e-14
5.6843419e-14
4.2632564e-14
7.1054274e-14
7.8159701e-14
9.2370556e-14
7.8159701e-14
9.9475983e-14
1.0658141e-13
7.8159701e-14
9.2370556e-14
1.0658141e-13
1.0658141e-13
1.0658141e-13
1.2079227e-13
1.3500312e-13
1.2079227e-13
1.3500312e-13
1.3500312e-13
1.4921397e-13
1.7763568e-13
2.0605739e-13
1.9895197e-13
2.2026825e-13
2.344791e-13
2.4158453e-13
2.6290081e-13
2.7000624e-13
2.7000624e-13
3.2684966e-13
3.4816594e-13
3.6948222e-13
4.1922021e-13
4.405365e-13
5.0448534e-13
5.6132876e-13
6.4659389e-13
7.1054274e-13
7.9580786e-13
8.9528385e-13
9.7344355e-13
1.1013412e-12
1.2008172e-12
1.3429258e-12
1.4850343e-12
1.6768809e-12
1.8758328e-12
2.0961011e-12
2.2879476e-12
2.5863756e-12
2.8990144e-12
3.2542857e-12
3.6095571e-12
4.0358827e-12
4.4906301e-12
5.0164317e-12
5.5848659e-12
6.2314598e-12
6.949108e-12
7.7235995e-12
8.6046725e-12
9.5639052e-12
1.0651036e-11
1.1830537e-11
1.3166357e-11
1.4608759e-11
1.6250112e-11
1.8047785e-11
2.0044411e-11
2.2289726e-11
2.4805047e-11
2.7554847e-11
3.0588865e-11
3.3978154e-11
3.7736925e-11
4.1900705e-11
4.655476e-11
5.1635141e-11
5.7333693e-11
6.3614891e-11
7.0571105e-11
7.831602e-11
8.6835428e-11
9.6257224e-11
1.066951e-10
1.1828405e-10
1.3107382e-10
1.4520651e-10
1.6085266e-10
1.7811175e-10
1.9722535e-10
2.1832136e-10
2.4161295e-10
2.6735592e-10
2.9575631e-10
3.2715519e-10
3.6177283e-10
3.9997161e-10
4.4209969e-10
4.8862603e-10
5.3989169e-10
5.9639405e-10
6.5870154e-10
7.273826e-10
8.0301987e-10
8.8633811e-10
9.7808339e-10
1.0790941e-09
1.1903367e-09
1.3127206e-09
1.4473827e-09
1.5955521e-09
1.7584938e-09
1.93765e-09
2.1346267e-09
2.3510793e-09
2.5889548e-09
2.8502782e-09
3.1373162e-09
3.45252e-09
3.7985757e-09
4.1783892e-09
4.5951936e-09
5.0524989e-09
5.5541136e-09
6.1042016e-09
6.7073458e-09
7.3684703e-09
8.0929823e-09
8.8867935e-09
9.7563415e-09
1.0708682e-08
1.1751354e-08
1.2892762e-08
1.4141889e-08
1.5508682e-08
1.7003842e-08
1.8639035e-08
2.0426938e-08
2.2381407e-08
2.451749e-08
2.685146e-08
2.9401079e-08
3.218571e-08
3.5226194e-08
3.8545302e-08
4.2167756e-08
4.612037e-08
5.0432213e-08
5.5134798e-08
6.0262394e-08
6.5852099e-08
7.19441e-08
7.8581976e-08
8.5812985e-08
9.3688207e-08
1.0226309e-07
1.1159755e-07
1.2175645e-07
1.3281004e-07
1.4483427e-07
1.5791119e-07
1.7212967e-07
1.8758564e-07
2.0438279e-07
2.2263315e-07
2.4245776e-07
2.639872e-07
2.8736248e-07
3.1273579e-07
3.4027128e-07
3.7014601e-07
4.0255085e-07
4.3769168e-07
4.7579025e-07
5.170855e-07
5.6183482e-07
6.1031535e-07
6.6282541e-07
7.1968608e-07
7.8124275e-07
8.4786712e-07
9.1995867e-07
9.979469e-07
1.0822935e-06
1.1734944e-06
1.2720824e-06
1.3786296e-06
1.4937501e-06
1.6181029e-06
1.7523954e-06
1.8973859e-06
2.0538879e-06
2.2227733e-06
2.4049766e-06
2.6014989e-06
2.8134126e-06
3.0418659e-06
3.288088e-06
3.5533942e-06
3.8391919e-06
4.1469863e-06
4.4783866e-06
4.8351132e-06
5.2190043e-06
5.6320238e-06
6.0762689e-06
6.5539791e-06
7.0675441e-06
7.6195143e-06
8.21261e-06
8.8497322e-06
9.5339735e-06
1.026863e-05
1.1057213e-05
1.1903463e-05
1.2811362e-05
1.378515e-05
1.4829338e-05
1.5948724e-05
1.7148413e-05
1.8433831e-05
1.9810743e-05
2.1285278e-05
2.2863943e-05
2.4553649e-05
2.6361732e-05
2.8295975e-05
3.0364636e-05
3.2576473e-05
3.494077e-05
3.7467365e-05
4.0166685e-05
4.3049769e-05
4.6128308e-05
4.9414677e-05
5.2921968e-05
5.6664031e-05
6.065551e-05
6.4911886e-05
6.9449517e-05
7.4285685e-05
7.9438639e-05
8.4927645e-05
9.0773033e-05
9.6996254e-05
0.00010361993
0.0001106679
0.00011816531
0.00012613863
0.00013461575
0.00014362603
0.00015320037
0.00016337128
0.00017417296
0.00018564135
0.00019781423
0.0002107313
0.00022443425
0.00023896684
0.000254375
0.00027070693
0.00028801317
0.0003063467
0.00032576305
0.00034632039
0.00036807964
0.00039110456
0.00041546189
0.00044122143
0.00046845618
0.00049724244
0.00052765993
0.00055979191
0.00059372534
0.00062955094
0.00066736338
0.00070726138
0.00074934788
0.00079373011
0.00084051978
0.00088983323
0.00094179154
0.00099652065
0.0010541516
0.0011148206
0.0011786691
0.0012458441
0.0013164984
0.0013907903
0.0014688841
0.0015509504
0.0016371658
0.0017277133
0.0018227827
0.0019225701
0.0020272786
0.0021371185
0.002252307
0.0023730685
0.002499635
0.0026322459
0.0027711485
0.0029165978
0.0030688567
0.0032281961
0.0033948955
0.0035692422
0.0037515322
0.0039420701
0.004141169
0.0043491507
0.0045663458
0.004793094
0.0050297438
0.0052766526
0.005534187
0.0058027229
0.0060826451
0.0063743477
0.006678234
0.0069947165
0.007324217
0.0076671664
0.0080240046
0.0083951811
0.0087811541
0.0091823908
0.0095993676
0.01003257
0.010482491
0.010949633
0.011434509
0.011937636
0.012459542
0.013000764
0.013561845
0.014143335
0.014745793
0.015369785
0.016015884
0.016684669
0.017376725
0.018092645
0.018833026
0.019598472
0.02038959
0.021206995
0.022051303
0.022923137
0.023823122
0.024751886
0.025710062
0.026698283
0.027717185
0.028767407
0.029849587
0.030964365
0.03211238
0.033294272
0.034510679
0.035762239
0.037049588
0.038373358
0.03973418
0.041132681
0.042569485
0.04404521
0.045560471
0.047115875
0.048712026
0.050349518
0.052028942
0.053750879
0.055515902
0.057324575
0.059177454
0.061075085
0.063018003
0.065006734
0.067041792
0.069123679
0.071252884
0.073429886
0.075655149
0.077929124
0.080252248
0.082624944
0.085047621
0.08752067
0.090044469
0.09261938
0.095245748
0.097923901
0.10065415
0.1034368
0.10627211
0.10916035
0.11210176
0.11509656
0.11814496
0.12124715
0.12440328
0.12761352
0.13087798
0.13419677
0.13757
0.14099772
0.14447999
0.14801683
0.15160827
0.1552543
0.15895487
0.16270996
0.16651948
0.17038335
0.17430147
0.17827371
0.18229992
0.18637994
0.19051358
0.19470063
0.19894088
0.20323409
0.20757998
0.21197829
0.21642871
0.22093093
0.22548462
0.23008941
0.23474495
0.23945085
0.24420669
0.24901206
0.25386653
0.25876963
0.2637209
0.26871985
0.27376598
0.27885877
0.28399769
0.28918219
0.29441171
0.29968568
0.3050035
0.31036457
0.31576827
0.32121397
0.32670104
0.33222881
0.33779662
0.34340378
0.34904961
0.3547334
0.36045445
0.36621202
0.37200537
0.37783378
0.38369647
0.38959269
0.39552166
0.40148259
0.4074747
0.41349719
0.41954923
0.42563003
0.43173874
0.43787454
0.44403659
0.45022404
0.45643603
0.4626717
0.46893019
0.47521061
0.4815121
0.48783376
0.4941747
0.50053402
0.50691082
0.5133042
0.51971323
0.52613701
0.53257461
0.5390251
0.54548755
0.55196103
0.5584446
0.56493732
0.57143824
0.57794641
0.58446088
0.59098069
0.59750489
0.60403251
0.6105626
0.61709418
0.62362628
0.63015794
0.63668819
0.64321605
0.64974054
0.65626069
0.66277551
0.66928402
0.67578524
0.68227819
0.68876188
0.69523534
0.70169757
0.70814761
0.71458445
0.72100713
0.72741465
0.73380604
0.74018032
0.7465365
0.7528736
0.75919066
0.76548669
0.77176072
0.77801179
0.78423891
0.79044114
0.79661749
0.80276702
0.80888877
0.81498179
0.82104513
0.82707785
0.833079
0.83904767
0.84498291
0.85088381
0.85674946
0.86257894
0.86837136
0.87412583
0.87984145
0.88551735
0.89115267
0.89674654
0.90229811
0.90780656
0.91327104
0.91869075
0.92406488
0.92939263
0.93467323
0.93990591
0.94508992
0.95022452
0.95530898
0.9603426
0.96532469
0.97025457
0.97513158
0.97995509
0.98472447
0.98943912
0.99409845
0.99870191
1.0032489
1.007739
1.0121717
1.0165464
1.0208628
1.0251204
1.0293187
1.0334575
1.0375363
1.0415548
1.0455127
1.0494098
1.0532458
1.0570203
1.0607334
1.0643847
1.0679742
1.0715017
1.0749672
1.0783705
1.0817117
1.0849907
1.0882077
1.0913626
1.0944556
1.0974867
1.1004562
1.1033642
1.1062109
1.1089966
1.1117215
1.1143859
1.1169902
1.1195347
1.1220198
1.124446
1.1268136
1.1291232
1.1313752
1.1335701
1.1357085
1.1377911
1.1398182
1.1417907
1.1437091
1.1455741
1.1473864
1.1491466
1.1508556
1.152514
1.1541226
1.1556822
1.1571936
1.1586576
1.160075
1.1614467
1.1627734
1.164056
1.1652955
1.1664927
1.1676484
1.1687635
1.169839
1.1708757
1.1718746
1.1728364
1.1737622
1.1746528
1.1755091
1.176332
1.1771224
1.1778813
1.1786094
1.1793076
1.1799769
1.180618
1.1812319
1.1818194
1.1823813
1.1829184
1.1834316
1.1839217
1.1843893
1.1848354
1.1852607
1.1856659
1.1860518
1.186419
1.1867684
1.1871005
1.187416
1.1877156
1.188
1.1882697
1.1885254
1.1887677
1.1889971
1.1892142
1.1894195
1.1896136
1.189797
1.1899701
1.1901334
1.1902875
1.1904327
1.1905694
1.1906982
1.1908193
1.1909332
1.1910402
1.1911407
1.191235
1.1913235
1.1914064
1.1914841
1.1915568
1.1916249
1.1916885
1.191748
1.1918036
1.1918554
1.1919038
1.1919488
1.1919908
1.1920299
1.1920663
1.1921001
1.1921315
1.1921606
1.1921877
1.1922128
1.192236
1.1922575
1.1922775
1.1922959
1.1923129
1.1923286
1.192343
1.1923564
1.1923687
1.19238
1.1923904
1.1924
1.1924087
1.1924168
1.1924242
1.1924309
1.1924371
1.1924428
1.1924479
1.1924527
1.192457
1.1924609
1.1924645
1.1924677
1.1924707
1.1924734
1.1924758
1.192478
1.19248
1.1924818
1.1924834
1.1924849
1.1924862
1.1924873
1.1924883
1.1924892
1.19249
1.1924908
1.1924915
1.192492
1.1924925
1.1924933
1.1924941
1.1924947
1.1924953
1.1924963
1.1924973
1.1924981
1.1924989
1.1924999
1.1925009
1.1925017
1.1925026
1.1925037
1.1925049
1.192506
1.1925071
1.1925082
1.1925094
1.1925106
1.1925118
1.192513
1.1925142
1.1925154
1.1925165
1.1925176
1.1925188
1.1925201
1.1925212
1.1925224
1.1925235
1.1925246
1.1925257
1.1925267
1.1925277
1.1925286
1.1925295
1.1925303
1.1925311
1.1925319
1.1925326
1.1925333
1.1925339
1.1925345
1.1925352
1.1925358
1.1925363
1.1925368
1.1925375
1.1925381
1.1925387
1.1925392
1.1925398
1.1925404
1.1925409
1.1925414
1.1925421
1.1925428
1.1925434
1.192544
1.1925447
1.1925455
1.1925462
1.1925469
1.1925475
1.1925482
1.1925489
1.1925495
1.19255
1.1925507
1.1925512
1.1925517
1.1925522
1.1925528
1.1925534
1.192554
1.1925546
1.1925551
1.1925557
1.1925562
1.1925567
1.1925574
1.192558
1.1925585
1.192559
1.1925594
1.19256
1.1925606
1.1925612
1.1925617
1.1925622
1.1925627
1.1925632
1.1925637
1.1925642
1.1925646
1.192565
1.1925654
1.1925657
1.1925661
1.1925664
1.1925666
1.1925668
1.192567
1.192567
1.192567
1.1925669
1.1925667
1.1925665
1.1925664
1.1925663
1.1925664
1.1925664
1.1925665
1.1925667
1.192567
1.1925675
1.1925682
1.1925687
1.1925691
1.1925696
1.1925703
1.1925709
1.1925715
1.1925721
1.1925726
1.192573
1.1925734
1.1925738
1.1925741
1.1925744
1.1925747
1.1925749
1.1925752
1.1925754
1.1925756
1.1925758
1.192576
1.1925761
1.1925763
1.1925764
1.1925765
1.1925766
1.1925767
1.1925767
1.1925767
1.1925766
1.1925765
1.1925764
1.1925762
1.1925761
1.1925759
1.1925757
1.1925755
1.1925754
1.1925754
1.1925752
1.1925751
1.192575
1.1925749
1.1925748
1.1925748
1.1925749
1.1925749
1.192575
1.1925752
1.1925754
1.1925756
1.1925758
1.192576
1.1925763
1.1925765
1.1925767
1.1925768
1.192577
1.1925772
1.1925773
1.1925774
1.1925776
1.1925777
1.1925777
1.1925778
1.1925778
1.1925778
1.1925778
1.1925778
1.1925777
1.1925776
1.1925775
1.1925773
1.1925772
1.192577
1.1925768
1.1925766
1.1925765
1.1925763
1.1925761
1.1925759
1.1925757
1.1925756
1.1925754
1.1925753
1.1925751
1.192575
1.1925748
1.1925747
1.1925745
1.1925743
1.1925742
1.192574
1.1925739
1.1925737
1.1925735
1.1925733
1.1925731
1.1925729
1.1925727
1.1925724
1.1925722
1.192572
1.1925718
1.1925716
1.1925713
1.1925711
1.1925709
1.1925706
1.1925704
1.1925701
1.1925699
1.1925697
1.1925694
1.1925692
1.192569
1.1925688
1.1925686
1.1925683
1.1925681
1.1925678
1.1925676
1.1925674
1.1925671
1.1925668
1.1925666
1.1925663
1.192566
1.1925657
1.1925654
1.1925652
1.1925649
1.1925646
1.1925643
1.192564
1.1925637
1.1925634
1.1925631
1.1925629
1.1925626
1.1925624
1.1925621
1.1925619
1.1925616
1.1925614
1.1925612
1.192561
1.1925607
1.1925605
1.1925603
1.1925602
1.19256
1.1925598
1.1925596
1.1925595
1.1925593
1.1925591
1.192559
1.1925589
1.1925587
1.1925586
1.1925584
1.1925582
1.1925581
1.1925579
1.1925577
1.1925576
1.1925574
1.1925572
1.1925571
1.1925569
1.1925567
1.1925565
1.1925563
1.1925561
1.1925559
1.1925557
1.1925555
1.1925553
1.1925551
1.1925549
1.1925547
1.1925544
1.1925542
1.192554
1.1925538
1.1925536
1.1925534
1.1925532
1.192553
1.1925528
1.1925526
1.1925524
1.1925521
1.1925519
1.1925517
1.1925515
1.1925513
1.1925511
1.1925509
1.1925507
1.1925505
1.1925503
1.1925501
1.1925499
1.1925497
1.1925495
1.1925493
1.1925491
1.1925489
1.1925487
1.1925485
1.1925483
1.1925481
1.1925479
1.1925477
1.1925475
1.1925474
1.1925472
1.192547
1.1925468
1.1925466
1.1925464
1.1925463
1.1925461
1.1925459
1.1925457
1.1925456
1.1925454
1.1925452
1.192545
1.1925449
1.1925447
1.1925445
1.1925444
1.1925442
1.192544
1.1925439
1.1925437
1.1925435
1.1925433
1.1925432
1.192543
1.1925428
1.1925426
1.1925425
1.1925423
1.1925422
1.192542
1.1925418
1.1925416
1.1925415
1.1925413
1.1925411
1.192541
1.1925408
1.1925406
1.1925405
1.1925403
1.1925402
1.19254
1.1925399
1.1925397
1.1925396
1.1925394
1.1925393
1.1925391
1.192539
1.1925389
1.1925387
1.1925386
1.1925384
1.1925383
1.1925382
1.192538
1.1925379
1.1925378
1.1925377
1.1925375
1.1925374
1.1925373
1.1925372
1.192537
1.1925369
1.1925367
1.1925366
1.1925365
1.1925363
1.1925362
1.192536
1.1925359
1.1925357
1.1925356
1.1925354
1.1925353
1.1925351
1.192535
1.1925348
1.1925347
1.1925345
1.1925343
1.1925341
1.1925339
1.1925337
1.1925336
1.1925334
1.1925332
1.192533
1.1925329
1.1925327
1.1925325
1.1925323
1.1925321
1.1925319
1.1925317
1.1925315
1.1925313
1.1925312
1.192531
1.1925308
1.1925306
1.1925304
1.1925303
1.1925301
1.1925299
1.1925297
1.1925296
1.1925294
1.1925293
1.1925291
1.192529
1.1925288
1.1925287
1.1925285
1.1925284
1.1925282
1.1925281
1.1925279
1.1925278
1.1925277
1.1925275
1.1925274
1.1925272
1.1925271
1.192527
1.1925269
1.1925267
1.1925266
1.1925265
1.1925263
1.1925262
1.1925261
1.1925259
1.1925258
1.1925257
1.1925255
1.1925254
1.1925253
1.1925251
1.192525
1.1925249
1.1925247
1.1925246
1.1925245
1.1925243
1.1925242
1.192524
1.1925238
1.1925237
1.1925235
1.1925233
1.1925232
1.192523
1.1925229
1.1925227
1.1925225
1.1925223
1.1925222
1.192522
1.1925218
1.1925217
1.1925215
1.1925213
1.1925211
1.1925209
1.1925208
1.1925206
1.1925204
1.1925202
1.19252
1.1925198
1.1925196
1.1925194
1.1925193
1.1925191
1.1925189
1.1925187
1.1925185
1.1925184
1.1925182
1.192518
1.1925178
1.1925177
1.1925175
1.1925173
1.1925172
1.192517
1.1925169
1.1925167
1.1925166
1.1925164
1.1925163
1.1925161
1.192516
1.1925158
1.1925157
1.1925155
1.1925154
1.1925152
1.1925151
1.192515
1.1925149
1.1925147
1.1925146
1.1925145
1.1925144
1.1925143
1.1925141
1.192514
1.1925139
1.1925138
1.1925136
1.1925135
1.1925134
1.1925133
1.1925131
1.192513
1.1925129
1.1925128
1.1925127
1.1925125
1.1925124
1.1925123
1.1925121
1.192512
1.1925119
1.1925117
1.1925116
1.1925114
1.1925113
1.1925112
1.192511
1.1925109
1.1925107
1.1925106
1.1925104
1.1925102
1.1925101
1.1925099
1.1925097
1.1925096
1.1925094
1.1925092
1.1925091
1.1925089
1.1925087
1.1925085
1.1925084
1.1925082
1.192508
1.1925078
1.1925076
1.1925075
1.1925073
1.1925071
1.1925069
1.1925067
1.1925065
1.1925063
1.1925061
1.192506
1.1925058
1.1925056
1.1925054
1.1925052
1.1925051
1.1925049
1.1925047
1.1925045
1.1925043
1.1925041
1.192504
1.1925038
1.1925036
1.1925034
1.1925033
1.1925031
1.192503
1.1925028
1.1925026
1.1925025
1.1925023
1.1925022
1.192502
1.1925019
1.1925017
1.1925016
1.1925014
1.1925013
1.1925011
1.1925009
1.1925008
1.1925006
1.1925005
1.1925003
1.1925002
1.1925
1.1924999
1.1924997
1.1924996
1.1924995
1.1924993
1.1924992
1.192499
1.1924989
1.1924987
1.1924986
1.1924984
1.1924982
1.1924981
1.1924979
1.1924978
1.1924976
1.1924975
1.1924973
1.1924971
1.1924969
1.1924968
1.1924966
1.1924965
1.1924963
1.1924961
1.192496
1.1924958
1.1924956
1.1924954
1.1924952
1.192495
1.1924949
1.1924947
1.1924945
1.1924943
1.1924941
1.192494
1.1924938
1.1924936
1.1924934
1.1924932
1.1924931
1.1924929
1.1924927
1.1924925
1.1924923
1.1924921
1.192492
1.1924918
1.1924916
1.1924914
1.1924912
1.192491
1.1924908
1.1924906
1.1924904
1.1924902
1.1924901
1.1924899
1.1924897
1.1924895
1.1924893
1.1924891
1.1924889
1.1924887
1.1924885
1.1924883
1.1924881
1.1924879
1.1924877
1.1924875
1.1924873
1.1924871
1.1924869
1.1924867
1.1924866
1.1924864
1.1924862
1.192486
1.1924858
1.1924856
1.1924854
1.1924852
1.192485
1.1924848
1.1924845
1.1924843
1.1924841
1.1924839
1.1924837
1.1924835
1.1924833
1.1924831
1.1924828
1.1924826
1.1924824
1.1924822
1.192482
1.1924817
1.1924816
1.1924814