/*--------------------------------*- C++ -*----------------------------------*\
  =========                 |
  \\      /  F ield         | OpenFOAM: The Open Source CFD Toolbox
   \\    /   O peration     | Website:  https://openfoam.org
    \\  /    A nd           | Version:  7
     \\/     M anipulation  |
\*---------------------------------------------------------------------------*/
FoamFile
{
    version     2.0;
    format      ascii;
    class       volVectorField;
    location    "0.00324";
    object      U;
}
// * * * * * * * * * * * * * * * * * * * * * * * * * * * * * * * * * * * * * //

dimensions      [0 1 -1 0 0 0 0];

internalField   nonuniform List<vector> 
5000
(
(-89.67041 1.6435402e-17 0)
(-89.59563 1.5694215e-17 0)
(-89.553226 0 0)
(-89.508713 0 0)
(-89.46483 -8.3629633e-18 0)
(-89.420932 9.4996675e-33 -8.3559959e-18)
(-89.377052 8.3500306e-18 -1.7799161e-32)
(-89.333182 0 2.5033568e-17)
(-89.289317 0 8.3397725e-18)
(-89.245455 -8.3355577e-18 -1.6671115e-17)
(-89.201594 -1.6663922e-17 -1.6663922e-17)
(-89.157728 8.328687e-18 8.328687e-18)
(-89.113859 8.3257793e-18 -7.0989864e-32)
(-89.069983 -8.3229451e-18 -7.3331222e-32)
(-89.026101 0 1.6640533e-17)
(-88.982211 -8.3174969e-18 -1.6634994e-17)
(-88.938316 -2.0289424e-48 -1.0144712e-48)
(-88.894413 8.3118481e-18 -7.3233448e-32)
(-88.850507 0 -8.3089121e-18)
(-88.806594 8.3057587e-18 1.6611517e-17)
(-88.762679 -8.3025549e-18 8.3025549e-18)
(-88.718758 -8.2991249e-18 0)
(-88.674837 1.6591297e-17 0)
(-88.630912 -8.2919655e-18 -8.2919655e-18)
(-88.586987 -8.2882615e-18 7.0669968e-32)
(-88.543061 -6.8282329e-32 -6.8282329e-32)
(-88.499134 8.2805116e-18 -8.2805116e-18)
(-88.455207 8.2764822e-18 8.2764822e-18)
(-88.411281 -1.6544965e-17 8.2724826e-18)
(-88.367355 1.4335028e-31 -8.2683437e-18)
(-88.323431 -1.444536e-31 1.444536e-31)
(-88.279507 8.2600106e-18 -7.0429086e-32)
(-88.235585 1.6511649e-17 -8.2558244e-18)
(-88.191664 -1.6503032e-17 8.2515159e-18)
(-88.147745 1.4298478e-31 8.2472618e-18)
(-88.103828 -7.1688804e-31 0)
(-88.059913 -2.8566881e-31 0)
(-88.016 1.6468353e-17 -8.2341767e-18)
(-87.97209 -1.6459667e-17 -8.2298336e-18)
(-87.928182 -1.6450781e-17 8.2253904e-18)
(-87.884277 1.6442042e-17 -1.3785673e-31)
(-87.840374 -5.6513913e-31 -8.216556e-18)
(-87.796474 -1.6424337e-17 8.2121684e-18)
(-87.752576 8.207689e-18 -1.3879955e-31)
(-87.708681 2.4609869e-17 -8.2032895e-18)
(-87.664789 -8.1988009e-18 8.1988009e-18)
(-87.6209 -8.1943942e-18 -2.8180742e-31)
(-87.577014 -5.6097802e-31 2.8048901e-31)
(-87.533131 -1.6370979e-17 -2.8150118e-31)
(-87.48925 0 1.3951068e-31)
(-87.445373 8.1765808e-18 8.1765808e-18)
(-87.401498 1.161323e-33 0)
(-87.357626 -8.1676719e-18 0)
(-87.313758 1.6326352e-17 0)
(-87.269892 -2.8521987e-31 0)
(-87.226029 -1.6308545e-17 0)
(-87.18217 8.1498653e-18 0)
(-87.138313 -2.8127919e-31 0)
(-87.094459 -8.1409726e-18 0)
(-87.050608 0 0)
(-87.006761 8.1320902e-18 0)
(-86.962916 2.7720074e-31 0)
(-86.919074 2.3087579e-33 0)
(-86.875236 8.1187472e-18 -8.1187472e-18)
(-86.8314 -8.1143611e-18 -8.1143611e-18)
(-86.787567 2.8351139e-31 8.1098945e-18)
(-86.743738 8.1055139e-18 -1.393754e-31)
(-86.699911 -8.1010528e-18 -1.9108583e-49)
(-86.656087 -8.0966776e-18 8.0966776e-18)
(-86.612267 8.0922223e-18 0)
(-86.568449 8.0878529e-18 0)
(-86.524635 -8.0834044e-18 -8.0834044e-18)
(-86.480823 -8.0790424e-18 -8.0790424e-18)
(-86.437015 1.6149204e-17 0)
(-86.393209 8.0702485e-18 8.0702485e-18)
(-86.349406 -8.0658171e-18 2.7853184e-31)
(-86.305607 0 -8.0614725e-18)
(-86.26181 8.05705e-18 -8.05705e-18)
(-86.218017 -1.1443594e-33 8.0527136e-18)
(-86.174226 -8.048299e-18 1.6096598e-17)
(-86.130438 8.0439698e-18 -1.608794e-17)
(-86.086654 -2.284981e-33 4.569962e-33)
(-86.042872 2.2837524e-33 2.4105719e-17)
(-85.999093 8.0308382e-18 -1.6061676e-17)
(-85.955317 8.0265214e-18 -8.349465e-31)
(-85.911544 2.7930309e-31 1.6044251e-17)
(-85.867774 -8.0178136e-18 -2.4053441e-17)
(-85.824008 0 8.0134219e-18)
(-85.780244 -8.0091128e-18 8.0091128e-18)
(-85.736483 -8.3040395e-31 -8.0047237e-18)
(-85.692725 -2.7968418e-31 8.0004163e-18)
(-85.64897 7.9960286e-18 7.9960286e-18)
(-85.605218 7.9917227e-18 2.7824456e-31)
(-85.561469 -1.5974676e-17 -1.5974676e-17)
(-85.517723 -5.5248086e-31 -5.5248086e-31)
(-85.47398 7.9786553e-18 -7.9786553e-18)
(-85.43024 0 -7.9743585e-18)
(-85.386504 0 -2.7975294e-31)
(-85.34277 -7.9656939e-18 5.5467666e-31)
(-85.29904 -5.521097e-31 1.592265e-17)
(-85.255312 1.5914081e-17 7.9570405e-18)
(-85.211587 -7.9526781e-18 -7.9526781e-18)
(-85.167866 -1.5896791e-17 1.129535e-33)
(-85.124148 0 7.944039e-18)
(-85.080432 7.9397712e-18 0)
(-85.03672 7.9354249e-18 -7.9354249e-18)
(-84.99301 -7.9311578e-18 -2.761359e-31)
(-84.949304 -7.926827e-18 7.926827e-18)
(-84.905601 0 -7.9225904e-18)
(-84.8619 0 -7.9182601e-18)
(-84.818203 7.914001e-18 1.5828002e-17)
(-84.774509 7.9096956e-18 7.9096956e-18)
(-84.730817 0 -2.3716439e-17)
(-84.687129 -7.9011337e-18 -7.9011337e-18)
(-84.643443 2.7606396e-31 2.3690578e-17)
(-84.599761 7.8925819e-18 -7.8925819e-18)
(-84.556081 -7.8883911e-18 -7.8883911e-18)
(-84.512405 2.2407744e-33 -4.4815489e-33)
(-84.468731 -2.7546726e-31 -7.8797909e-18)
(-84.42506 -1.7778593e-49 2.3626834e-17)
(-84.381393 1.5742756e-17 -5.5034633e-31)
(-84.337728 -3.3538898e-33 -1.5733934e-17)
(-84.294067 -7.862732e-18 1.5725464e-17)
(-84.250408 0 7.8584787e-18)
(-84.206753 -7.8542977e-18 -7.8542977e-18)
(-84.1631 7.8500077e-18 7.8500077e-18)
(-84.11945 7.8457887e-18 -7.8457887e-18)
(-84.075804 -1.5683005e-17 -1.5683005e-17)
(-84.03216 -7.8372954e-18 7.8372954e-18)
(-83.98852 1.5666037e-17 2.7049275e-31)
(-83.944882 7.8288128e-18 7.8288128e-18)
(-83.901248 -7.8245451e-18 1.564909e-17)
(-83.857617 -7.8203438e-18 -7.8203438e-18)
(-83.813988 -7.816087e-18 -7.816087e-18)
(-83.770363 0 -7.8118893e-18)
(-83.72674 7.8076429e-18 -2.7183553e-31)
(-83.683121 7.8034472e-18 -2.7058052e-31)
(-83.639504 -7.79921e-18 2.7154193e-31)
(-83.595891 -2.7028811e-31 1.5590029e-17)
(-83.55228 7.7907851e-18 7.7907851e-18)
(-83.508672 -7.7865879e-18 -7.7865879e-18)
(-83.465068 -7.7823664e-18 -1.5564733e-17)
(-83.421466 0 -7.778167e-18)
(-83.377868 7.7739541e-18 -7.7739541e-18)
(-83.334272 7.7697525e-18 5.3882434e-31)
(-83.290679 -7.7655487e-18 1.5531097e-17)
(-83.24709 7.7613449e-18 -2.2059069e-33)
(-83.203503 -4.4094303e-33 2.2047152e-33)
(-83.15992 -7.7529448e-18 1.6696335e-48)
(-83.116339 7.7487611e-18 7.7487611e-18)
(-83.072761 -7.7445516e-18 -5.3707668e-31)
(-83.029187 5.389874e-31 1.0779748e-30)
(-82.985615 7.7361679e-18 7.7361679e-18)
(-82.942046 -7.7320062e-18 -7.7320062e-18)
(-82.898481 7.727795e-18 7.727795e-18)
(-82.854918 7.7236484e-18 2.6781353e-31)
(-82.811358 -7.7194313e-18 -7.7194313e-18)
(-82.767802 0 7.7152922e-18)
(-82.724248 0 -1.0958146e-33)
(-82.680697 -7.7069805e-18 -7.7069805e-18)
(-82.637149 -7.7027484e-18 0)
(-82.593604 7.6986113e-18 7.6986113e-18)
(-82.550062 7.69441e-18 5.3250598e-31)
(-82.506523 -7.690284e-18 -1.5380568e-17)
(-82.462987 -5.3302199e-31 7.6860836e-18)
(-82.419454 7.6819592e-18 -2.1833441e-33)
(-82.375924 -7.6777614e-18 -7.6777614e-18)
(-82.332397 -7.6736385e-18 7.6736385e-18)
(-82.288873 0 -7.6694411e-18)
(-82.245351 7.6653181e-18 7.6653181e-18)
(-82.201833 7.6611208e-18 -3.1920999e-30)
(-82.158318 0 -2.1240196e-30)
(-82.114805 -7.6528007e-18 7.6528007e-18)
(-82.071296 -7.6486782e-18 -1.5297356e-17)
(-82.02779 0 0)
(-81.984286 7.6403618e-18 -5.2985123e-31)
(-81.940786 1.5886813e-30 -1.5886813e-30)
(-81.897289 -7.632051e-18 7.632051e-18)
(-81.853794 7.6278613e-18 7.6278613e-18)
(-81.810303 7.6237469e-18 5.254488e-31)
(-81.766815 -7.6195608e-18 -7.6195608e-18)
(-81.723329 -5.2595915e-31 7.6154496e-18)
(-81.679847 5.2350701e-31 5.2350701e-31)
(-81.636367 3.2431266e-33 3.2431266e-33)
(-81.592891 7.6029778e-18 1.0534369e-30)
(-81.549417 -7.5988715e-18 -1.5197743e-17)
(-81.505947 -1.0533683e-30 7.5946933e-18)
(-81.462479 5.2208478e-31 7.5905889e-18)
(-81.419015 -5.2179755e-31 -5.2179755e-31)
(-81.375553 7.5823106e-18 5.2259291e-31)
(-81.332094 0 -1.5755311e-30)
(-81.288639 0 5.2309901e-31)
(-81.245186 -7.5698663e-18 -7.5698663e-18)
(-81.201736 -7.565769e-18 0)
(-81.158289 0 0)
(-81.114845 0 0)
(-81.071404 7.5533398e-18 0)
(-81.027966 1.920925e-49 -7.549247e-18)
(-80.984531 -7.5450833e-18 1.5729479e-30)
(-80.941099 0 7.5409922e-18)
(-80.89767 7.5368302e-18 7.5368302e-18)
(-80.854243 -7.5327405e-18 -7.5327405e-18)
(-80.81082 -2.0862573e-30 -7.5285798e-18)
(-80.767399 1.5048982e-17 1.5048982e-17)
(-80.723982 -7.5203317e-18 5.2045856e-31)
(-80.680567 -1.5605271e-30 -1.5605271e-30)
(-80.637155 -1.0675317e-33 -7.5120867e-18)
(-80.593747 -7.5080011e-18 -7.5080011e-18)
(-80.550341 7.5038454e-18 7.5038454e-18)
(-80.506938 -1.0657803e-33 0)
(-80.463538 -1.0374951e-30 7.4956083e-18)
(-80.420141 5.1846504e-31 5.1846504e-31)
(-80.376746 -7.4873748e-18 -7.4873748e-18)
(-80.333355 0 -7.4832946e-18)
(-80.289967 7.4791444e-18 1.0415933e-30)
(-80.246581 5.1732584e-31 7.4750656e-18)
(-80.203199 2.0734633e-30 -1.4941834e-17)
(-80.159819 7.4668391e-18 7.4668391e-18)
(-80.116442 0 7.4626915e-18)
(-80.073068 -7.4586148e-18 -7.4586148e-18)
(-80.029697 -7.4544685e-18 7.4544685e-18)
(-79.986329 0 0)
(-79.942964 0 0)
(-79.899601 0 0)
(-79.856242 7.4380343e-18 7.4380343e-18)
(-79.812885 5.1448134e-31 -7.4339642e-18)
(-79.769532 -7.4298257e-18 -1.4859651e-17)
(-79.726181 0 7.4257582e-18)
(-79.682833 0 -5.1573654e-31)
(-79.639488 7.4175568e-18 7.4175568e-18)
(-79.596145 7.4134231e-18 7.4134231e-18)
(-79.552806 -7.4093599e-18 -1.481872e-17)
(-79.509469 -7.4052289e-18 2.1046926e-33)
(-79.466136 0 -2.1035386e-33)
(-79.422805 7.397041e-18 7.397041e-18)
(-79.379477 7.392984e-18 7.392984e-18)
(-79.336152 -7.3888596e-18 -1.4777719e-17)
(-79.292829 -7.3848054e-18 1.049444e-33)
(-79.24951 0 -1.5376261e-30)
(-79.206193 7.376631e-18 7.376631e-18)
(-79.162879 -2.0471996e-30 -4.0943991e-30)
(-79.119568 -5.1099513e-31 -1.0219903e-30)
(-79.076259 7.3643421e-18 7.3643421e-18)
(-79.032954 -7.360294e-18 -7.360294e-18)
(-78.989651 -7.3561795e-18 0)
(-78.946351 0 -7.3521354e-18)
(-78.903054 7.3480258e-18 7.3480258e-18)
(-78.85976 -1.0206832e-30 7.343987e-18)
(-78.816469 7.3398833e-18 -7.3398833e-18)
(-78.77318 1.0174674e-30 0)
(-78.729894 -1.4663507e-17 -7.3317533e-18)
(-78.686611 7.3277272e-18 7.3277272e-18)
(-78.64333 -1.0157734e-30 7.3236368e-18)
(-78.600053 -2.5411603e-30 -2.5411603e-30)
(-78.556778 -5.062852e-31 -1.4631069e-17)
(-78.513505 -7.311523e-18 -1.4623046e-17)
(-78.470236 7.3074479e-18 2.1922344e-17)
(-78.426969 7.3034444e-18 1.4606889e-17)
(-78.383705 0 0)
(-78.340444 -7.2953839e-18 -1.4590768e-17)
(-78.297185 -7.2913277e-18 -7.2913277e-18)
(-78.253929 0 7.2873441e-18)
(-78.210675 7.2832993e-18 7.2832993e-18)
(-78.167424 7.2793274e-18 7.2793274e-18)
(-78.124176 -1.4550589e-17 -1.4550589e-17)
(-78.08093 -7.2713348e-18 -1.454267e-17)
(-78.037687 7.2673142e-18 7.2673142e-18)
(-77.994447 7.2633661e-18 1.4526732e-17)
(-77.951209 2.0137158e-30 2.0137158e-30)
(-77.907973 -7.2554201e-18 -1.451084e-17)
(-77.86474 7.2514225e-18 7.2514225e-18)
(-77.82151 -5.0260646e-31 -1.0052129e-30)
(-77.778282 -7.2435117e-18 -7.2435117e-18)
(-77.735057 7.2395991e-18 1.4479198e-17)
(-77.691834 -5.0281158e-31 -7.2356277e-18)
(-77.648614 5.0356842e-31 1.0071368e-30)
(-77.605396 -2.0542571e-33 7.2277745e-18)
(-77.56218 -4.9891642e-31 -7.2238934e-18)
(-77.518968 7.2199552e-18 7.2199552e-18)
(-77.475757 0 -1.4432183e-17)
(-77.432549 0 3.0091393e-30)
(-77.389343 -7.2083255e-18 1.4416651e-17)
(-77.34614 -7.2044227e-18 -1.4408845e-17)
(-77.302939 0 -4.983305e-31)
(-77.25974 0 7.1967076e-18)
(-77.216544 0 0)
(-77.17335 0 0)
(-77.130158 7.1852288e-18 7.1852288e-18)
(-77.086968 4.9495944e-31 -7.1813761e-18)
(-77.043781 -1.4355195e-17 -1.4355195e-17)
(-77.000596 3.0583594e-33 7.1737636e-18)
(-76.957413 7.1700049e-18 -2.037838e-33)
(-76.914232 7.1661924e-18 7.1661924e-18)
(-76.871054 -9.9443578e-31 7.1624562e-18)
(-76.827878 -9.9187513e-31 -7.1586674e-18)
(-76.784704 -1.0167804e-33 0)
(-76.741532 -7.1511928e-18 -7.1511928e-18)
(-76.698362 -7.1475073e-18 -7.1475073e-18)
(-76.655194 -7.1437709e-18 0)
(-76.612028 1.4280225e-17 1.4280225e-17)
(-76.568864 2.140921e-17 7.1364034e-18)
(-76.525702 -7.1327728e-18 -1.4265546e-17)
(-76.482542 -1.4258185e-17 4.9338212e-31)
(-76.439384 0 -2.0251864e-33)
(-76.396228 7.121841e-18 7.121841e-18)
(-76.353074 7.1182708e-18 7.1182708e-18)
(-76.309921 -7.1146531e-18 -7.1146531e-18)
(-76.266771 2.0211008e-33 7.1111164e-18)
(-76.223622 -3.0301238e-33 -7.1075335e-18)
(-76.180475 2.0190875e-33 4.0381751e-33)
(-76.13733 7.1004872e-18 1.4200974e-17)
(-76.094187 7.0970247e-18 -7.0970247e-18)
(-76.051045 -7.093519e-18 -7.093519e-18)
(-76.007904 -1.4180195e-17 -7.0900975e-18)
(-75.964766 7.0866341e-18 -9.8290157e-31)
(-75.921629 1.5821838e-49 7.083256e-18)
(-75.878493 7.0798373e-18 0)
(-75.835359 1.960982e-30 0)
(-75.792226 -1.4146265e-17 -7.0731323e-18)
(-75.749095 0 9.8157786e-31)
(-75.705965 0 -1.9612283e-30)
(-75.662837 1.4126568e-17 -9.8167045e-31)
(-75.619709 -3.9208471e-30 7.0600073e-18)
(-75.576583 -1.4113635e-17 -7.0568176e-18)
(-75.533458 0 1.0023754e-33)
(-75.490335 7.0504486e-18 7.0504486e-18)
(-75.447212 7.0472701e-18 0)
(-75.40409 -7.0441794e-18 0)
(-75.36097 1.0005937e-33 0)
(-75.31785 -9.7715825e-31 0)
(-75.274732 9.9972528e-34 0)
(-75.231614 7.0319589e-18 0)
(-75.188498 -7.0289435e-18 0)
(-75.145382 -7.0260204e-18 -7.0260204e-18)
(-75.102267 0 0)
(-75.059153 7.0202054e-18 7.0202054e-18)
(-75.016039 -9.7428438e-31 0)
(-74.972926 -7.0145196e-18 -7.0145196e-18)
(-74.929814 1.4023391e-17 -1.9450155e-30)
(-74.886702 -1.9442586e-30 7.0089672e-18)
(-74.843591 -7.0062112e-18 0)
(-74.80048 -1.944747e-30 0)
(-74.757369 -1.4001731e-17 -7.0008653e-18)
(-74.714259 1.3996553e-17 -9.7164108e-31)
(-74.671149 6.9956642e-18 6.9956642e-18)
(-74.628039 -6.9931496e-18 0)
(-74.584929 -9.9342555e-34 0)
(-74.54182 -6.9881665e-18 -6.9881665e-18)
(-74.49871 0 -6.985691e-18)
(-74.4556 0 6.9833105e-18)
(-74.41249 6.9809031e-18 6.9809031e-18)
(-74.36938 -9.679164e-31 0)
(-74.32627 -1.3952513e-17 -6.9762564e-18)
(-74.28316 9.9106769e-34 9.9106769e-34)
(-74.240048 2.0915274e-17 6.9717579e-18)
(-74.196937 -6.9695961e-18 -6.9695961e-18)
(-74.153825 -6.9674114e-18 -6.9674114e-18)
(-74.110713 1.3930651e-17 6.9653255e-18)
(-74.0676 -6.9632163e-18 6.9632163e-18)
(-74.024487 6.9612078e-18 0)
(-73.981373 1.3918354e-17 -6.9591769e-18)
(-73.938258 -6.9572496e-18 -6.9572496e-18)
(-73.895142 -6.9553017e-18 6.9553017e-18)
(-73.852025 -6.9534526e-18 6.9534526e-18)
(-73.808907 6.9515823e-18 0)
(-73.765789 1.6120211e-49 -6.9498128e-18)
(-73.722669 -6.948023e-18 -6.948023e-18)
(-73.679548 6.9463347e-18 6.9463347e-18)
(-73.636426 -6.9446266e-18 6.9446266e-18)
(-73.593303 6.9430202e-18 0)
(-73.550178 1.9235413e-30 0)
(-73.507052 1.9724295e-33 0)
(-73.463924 6.9383248e-18 0)
(-73.420795 -1.3873762e-17 0)
(-73.377664 6.9354169e-18 0)
(-73.334532 1.9254485e-30 0)
(-73.291398 -1.9230936e-30 0)
(-73.248262 -6.9313829e-18 -6.9313829e-18)
(-73.205124 -1.3860153e-17 -7.0028529e-49)
(-73.161985 2.0786609e-17 6.9288697e-18)
(-73.118842 1.9216992e-30 0)
(-73.075699 -3.8427721e-30 0)
(-73.032553 1.9190986e-30 0)
(-72.989406 -1.3848621e-17 -6.9243103e-18)
(-72.946255 1.3846473e-17 -9.6023867e-31)
(-72.903103 -1.9202068e-30 6.9222613e-18)
(-72.859948 -1.3842526e-17 -6.9212631e-18)
(-72.816791 0 9.6082348e-31)
(-72.773631 0 -9.833113e-34)
(-72.73047 6.9186102e-18 -9.6058019e-31)
(-72.687305 -9.5947874e-31 6.9177575e-18)
(-72.644138 -6.9170003e-18 -6.9170003e-18)
(-72.600968 -6.9162173e-18 6.9162173e-18)
(-72.557795 6.9155287e-18 -3.8425749e-30)
(-72.51462 2.074444e-17 -6.9148133e-18)
(-72.471442 -6.9141912e-18 6.9141912e-18)
(-72.42826 -6.9135411e-18 0)
(-72.385077 -1.9647879e-33 0)
(-72.341889 -6.9123952e-18 -6.9123952e-18)
(-72.2987 0 -9.5964822e-31)
(-72.255506 1.3822738e-17 6.9113689e-18)
(-72.21231 1.3821856e-17 -6.9109281e-18)
(-72.16911 -6.910454e-18 -6.910454e-18)
(-72.125908 -1.3820131e-17 0)
(-72.082702 -6.9096416e-18 6.9096416e-18)
(-72.039493 1.3818602e-17 6.9093009e-18)
(-71.99628 1.3817844e-17 -6.908922e-18)
(-71.953064 -1.3817248e-17 -1.9174056e-30)
(-71.909844 -1.3816571e-17 -8.9608829e-51)
(-71.866622 0 -9.5911058e-31)
(-71.823395 1.3815444e-17 6.907722e-18)
(-71.780166 -6.9074946e-18 -6.9074946e-18)
(-71.736932 -1.3814443e-17 8.411029e-50)
(-71.693696 6.9070215e-18 -9.5897122e-31)
(-71.650455 6.9067732e-18 -6.9067732e-18)
(-71.607212 -9.8148625e-34 0)
(-71.563964 9.5888031e-31 0)
(-71.520713 6.9062057e-18 6.9062057e-18)
(-71.477458 -6.905991e-18 9.8140035e-34)
(-71.4342 -6.9058413e-18 -2.8734779e-30)
(-71.390938 6.9056349e-18 6.9056349e-18)
(-71.347672 -9.5777734e-31 0)
(-71.304403 -9.8130029e-34 0)
(-71.26113 -9.5772904e-31 -6.9051424e-18)
(-71.217853 -6.9049355e-18 1.9144194e-30)
(-71.174573 6.9047849e-18 6.9047849e-18)
(-71.131289 -2.8758922e-30 0)
(-71.088001 -9.5860824e-31 0)
(-71.04471 -1.9161715e-30 0)
(-71.001415 -6.9039988e-18 -6.9039988e-18)
(-70.958116 6.90375e-18 9.8108189e-34)
(-70.914814 -9.5848924e-31 6.9035501e-18)
(-70.871508 -1.9139598e-30 -6.9032777e-18)
(-70.828199 -9.8098267e-34 6.9030518e-18)
(-70.784886 -1.3805503e-17 -1.9187186e-30)
(-70.741569 -6.9024949e-18 -1.380499e-17)
(-70.698249 6.9021616e-18 6.9021616e-18)
(-70.654925 1.380374e-17 2.8747679e-30)
(-70.611598 -9.5820446e-31 9.5820446e-31)
(-70.568268 -1.3802334e-17 -9.581584e-31)
(-70.524933 -6.9007535e-18 -6.9007535e-18)
(-70.481596 1.3800753e-17 0)
(-70.438255 6.8999151e-18 0)
(-70.394911 -6.8994878e-18 6.8994878e-18)
(-70.351563 -6.8989734e-18 9.5785382e-31)
(-70.308213 -1.9145933e-30 -1.9145933e-30)
(-70.264858 6.8979185e-18 1.0276739e-50)
(-70.221501 0 -6.8973756e-18)
(-70.178141 0 6.8967412e-18)
(-70.134777 6.8961338e-18 6.8961338e-18)
(-70.091411 0 0)
(-70.048041 -6.8947571e-18 -6.8947571e-18)
(-70.004668 6.8939858e-18 -9.5716134e-31)
(-69.961293 9.79588e-34 6.8932377e-18)
(-69.917915 -1.9129007e-30 0)
(-69.874534 0 0)
(-69.83115 -6.8906435e-18 -6.8906435e-18)
(-69.787763 6.889738e-18 1.9581813e-33)
(-69.744374 6.8887306e-18 3.1592639e-50)
(-69.700982 -1.3775479e-17 -6.8877396e-18)
(-69.657588 -6.8866446e-18 6.8866446e-18)
(-69.614191 6.8855643e-18 -9.540351e-31)
(-69.570792 0 9.5582746e-31)
(-69.527391 0 -1.9103512e-30)
(-69.483987 -6.8819278e-18 -6.8819278e-18)
(-69.440581 1.9116008e-30 6.8806622e-18)
(-69.397173 6.8792899e-18 -1.9102419e-30)
(-69.353763 0 1.9108416e-30)
(-69.310351 0 -1.9104339e-30)
(-69.266937 -6.8750055e-18 -6.8750055e-18)
(-69.223521 2.8639031e-30 6.8734401e-18)
(-69.180104 6.8718841e-18 -1.9081855e-30)
(-69.136684 0 9.5581399e-31)
(-69.093264 0 0)
(-69.049841 0 -6.8667887e-18)
(-69.006417 0 6.8650254e-18)
(-68.962992 0 -9.5288013e-31)
(-68.919565 0 9.7504683e-34)
(-68.876137 0 -9.5234593e-31)
(-68.832708 0 9.5304663e-31)
(-68.789277 1.3710496e-17 6.8552482e-18)
(-68.745846 3.8040318e-30 -6.853173e-18)
(-68.702414 -6.8509868e-18 -6.8509868e-18)
(-68.65898 6.848807e-18 6.848807e-18)
(-68.615546 -6.8465148e-18 6.8465148e-18)
(-68.572112 6.8442276e-18 0)
(-68.528676 -1.9017838e-30 -6.8418271e-18)
(-68.48524 -6.8394303e-18 -6.8394303e-18)
(-68.441804 -1.8984765e-30 0)
(-68.398367 -6.8344143e-18 6.8344143e-18)
(-68.354929 0 -9.4852718e-31)
(-68.311492 0 9.7048597e-34)
(-68.268054 6.8264682e-18 9.4681709e-31)
(-68.224616 1.8948209e-30 -6.8237548e-18)
(-68.181178 -6.8209259e-18 6.8209259e-18)
(-68.13774 0 9.4565623e-31)
(-68.094302 0 -1.8924356e-30)
(-68.050864 0 -6.8122434e-18)
(-68.007427 0 -6.8092063e-18)
(-67.96399 0 1.3612338e-17)
(-67.920553 0 -9.6676935e-34)
(-67.877117 0 9.4313425e-31)
(-67.833681 1.3593329e-17 6.7966647e-18)
(-67.790246 -5.6553259e-30 -6.7934138e-18)
(-67.746812 -1.3580195e-17 9.4273747e-31)
(-67.703378 6.7868051e-18 6.7868051e-18)
(-67.659945 9.6397312e-34 0)
(-67.616512 6.7799275e-18 0)
(-67.573081 -3.7576157e-30 0)
(-67.529651 -1.3546128e-17 -6.7730641e-18)
(-67.486222 -6.7693723e-18 -6.7693723e-18)
(-67.442794 -1.613656e-49 6.7657891e-18)
(-67.399367 2.0286687e-17 6.7622288e-18)
(-67.355941 0 0)
(-67.312517 -1.3509556e-17 -6.754778e-18)
(-67.269094 0 -6.7510053e-18)
(-67.225672 0 6.7471683e-18)
(-67.182251 1.348669e-17 6.7433452e-18)
(-67.138833 -1.8695007e-30 0)
(-67.095415 -2.0206872e-17 -6.735624e-18)
(-67.051999 6.7316693e-18 -6.7316693e-18)
(-67.008585 6.7277105e-18 6.7277105e-18)
(-66.965172 -6.7236652e-18 1.867028e-30)
(-66.921762 6.7196378e-18 -6.7196378e-18)
(-66.878353 -6.7155466e-18 0)
(-66.834945 -1.8617307e-30 0)
(-66.79154 6.7073062e-18 0)
(-66.748136 -6.7031456e-18 0)
(-66.704735 0 6.698936e-18)
(-66.661335 -6.6947135e-18 -1.857086e-30)
(-66.617938 6.6904524e-18 -6.6904524e-18)
(-66.574543 1.3372344e-17 6.6861721e-18)
(-66.531149 -6.6818602e-18 9.2770981e-31)
(-66.487758 -6.6775253e-18 -9.2805689e-31)
(-66.44437 -6.6731656e-18 2.0076047e-49)
(-66.400983 -6.6687812e-18 6.6687812e-18)
(-66.357599 1.3328753e-17 6.6643767e-18)
(-66.314216 6.6599463e-18 -1.3319893e-17)
(-66.270837 -6.655499e-18 -9.2404982e-31)
(-66.227459 0 9.2248357e-31)
(-66.184084 6.6465379e-18 -6.6465379e-18)
(-66.140712 -6.6420242e-18 0)
(-66.097341 -6.6374978e-18 6.6374978e-18)
(-66.053974 1.9898838e-17 6.6329459e-18)
(-66.010608 1.8838996e-33 -6.6283826e-18)
(-65.967246 -1.3247589e-17 -1.8374133e-30)
(-65.923885 6.619196e-18 6.619196e-18)
(-65.880528 9.1836769e-31 0)
(-65.837173 6.6099417e-18 0)
(-65.79382 -1.8773354e-33 -6.6052867e-18)
(-65.75047 -1.3201249e-17 9.1549301e-31)
(-65.707123 6.5959397e-18 6.5959397e-18)
(-65.663779 0 0)
(-65.620437 -1.8289505e-30 -6.586538e-18)
(-65.577098 -9.3533322e-34 9.3533322e-34)
(-65.533761 -6.5770876e-18 -1.8263264e-30)
(-65.490428 6.5723494e-18 -9.1157134e-31)
(-65.447097 -1.8236901e-30 6.5675937e-18)
(-65.403769 -9.1025168e-31 -6.5628348e-18)
(-65.360444 -9.3195637e-34 9.3195637e-34)
(-65.317121 -6.5532817e-18 -1.8197159e-30)
(-65.273801 6.548489e-18 -6.548489e-18)
(-65.230484 2.2189865e-49 6.5436923e-18)
(-65.18717 -1.8157176e-30 1.8157176e-30)
(-65.143859 -9.2854697e-34 9.2854697e-34)
(-65.100551 -1.3058486e-17 -9.0652041e-31)
(-65.057245 -9.0492253e-31 -6.5244121e-18)
(-65.013942 6.5195717e-18 6.5195717e-18)
(-64.970642 0 0)
(-64.927345 0 -3.6143984e-30)
(-64.884051 -6.5050112e-18 -9.0223167e-31)
(-64.84076 -2.7046701e-30 -2.7046701e-30)
(-64.797472 6.4952719e-18 -9.2303366e-34)
(-64.754187 -6.4903944e-18 -6.4903944e-18)
(-64.710905 9.0044863e-31 6.4855107e-18)
(-64.667625 9.0464402e-49 9.0464402e-49)
(-64.624349 -8.9909079e-31 -8.9909079e-31)
(-64.581075 6.4708359e-18 1.7968224e-30)
(-64.537805 6.4659354e-18 -8.977308e-31)
(-64.494538 8.9613212e-31 1.2922068e-17)
(-64.451273 -6.4561273e-18 -6.4561273e-18)
(-64.408012 0 -6.4512203e-18)
(-64.364753 0 -8.9500576e-31)
(-64.321497 6.4413964e-18 8.943238e-31)
(-64.278245 -6.4364797e-18 1.2872959e-17)
(-64.234995 5.3540958e-30 -6.4315636e-18)
(-64.191749 6.4266429e-18 -6.4266429e-18)
(-64.148505 -6.4217232e-18 2.2796248e-49)
(-64.105264 0 0)
(-64.062027 6.4118765e-18 2.2813058e-49)
(-64.018792 6.4069497e-18 -6.4069497e-18)
(-63.97556 -6.4020246e-18 6.4020246e-18)
(-63.932332 -6.3970955e-18 2.2773017e-49)
(-63.889106 0 -8.8658059e-31)
(-63.845883 6.3872372e-18 -9.07681e-34)
(-63.802663 6.3823081e-18 -6.3823081e-18)
(-63.759446 -1.275475e-17 1.275475e-17)
(-63.716233 -6.3724445e-18 1.769501e-30)
(-63.673022 6.3675103e-18 -6.3675103e-18)
(-63.629814 6.3625785e-18 8.8247654e-31)
(-63.586609 8.8179208e-31 -8.8179208e-31)
(-63.543407 6.3527114e-18 6.3527114e-18)
(-63.500208 1.7626512e-30 -6.3477763e-18)
(-63.457012 -1.2685689e-17 -9.1502422e-49)
(-63.41382 0 -2.6407677e-30)
(-63.37063 0 1.7594419e-30)
(-63.327443 0 -1.7562725e-30)
(-63.284259 6.3231126e-18 -1.7558025e-30)
(-63.241078 6.3181788e-18 2.2815045e-49)
(-63.1979 0 0)
(-63.154725 -6.3083149e-18 6.3083149e-18)
(-63.111553 -8.7337073e-31 0)
(-63.068384 6.2984522e-18 0)
(-63.025217 0 -6.2935229e-18)
(-62.982054 0 -1.7462167e-30)
(-62.938894 -6.2836634e-18 6.2836634e-18)
(-62.895737 -8.7084743e-31 0)
(-62.852583 8.6927265e-31 0)
(-62.809432 -6.2688801e-18 -1.253776e-17)
(-62.766283 6.2639566e-18 -5.2145676e-30)
(-62.723138 -2.6043443e-30 1.2518063e-17)
(-62.679996 -6.2541104e-18 -6.2541104e-18)
(-62.636856 0 8.8806297e-34)
(-62.59372 -6.2442686e-18 -8.6695456e-31)
(-62.550586 -8.6627133e-31 -6.2393476e-18)
(-62.507456 6.2344301e-18 0)
(-62.464328 -6.2295105e-18 0)
(-62.421203 6.2245942e-18 0)
(-62.378081 6.2196758e-18 -6.2196758e-18)
(-62.334963 -6.214761e-18 -1.7239491e-30)
(-62.291847 0 6.2098443e-18)
(-62.248734 6.2049315e-18 0)
(-62.205624 6.2000173e-18 0)
(-62.162517 -6.1951075e-18 -6.1951075e-18)
(-62.119413 -6.1901966e-18 8.7967985e-34)
(-62.076312 0 6.1852904e-18)
(-62.033213 -6.1803833e-18 0)
(-61.990118 6.175481e-18 0)
(-61.947026 6.1705777e-18 -6.1705777e-18)
(-61.903936 -6.1656789e-18 -1.710334e-30)
(-61.860849 -1.2321558e-17 -1.7116012e-30)
(-61.817766 3.4187325e-30 1.7093662e-30)
(-61.774685 1.8452957e-17 6.1509857e-18)
(-61.731607 2.2743335e-49 -6.1460921e-18)
(-61.688532 -6.1411968e-18 1.7044154e-30)
(-61.64546 -1.227261e-17 -1.7030578e-30)
(-61.60239 3.4016565e-30 1.7008283e-30)
(-61.559324 1.2253042e-17 6.1265212e-18)
(-61.51626 -6.1216292e-18 0)
(-61.4732 6.1167409e-18 0)
(-61.430142 -6.1118508e-18 -6.1118508e-18)
(-61.387087 -6.1069647e-18 -5.679661e-48)
(-61.344035 1.2204154e-17 6.1020772e-18)
(-61.300986 0 0)
(-61.25794 0 0)
(-61.214897 -1.217486e-17 -6.0874299e-18)
(-61.171857 -1.8096856e-48 -3.6193712e-48)
(-61.128819 1.2155347e-17 6.0776735e-18)
(-61.085784 0 0)
(-61.042753 0 0)
(-60.999724 -1.2126106e-17 -6.0630529e-18)
(-60.956698 -1.8113635e-48 -3.622727e-48)
(-60.913675 1.2106634e-17 6.0533171e-18)
(-60.870654 0 0)
(-60.827637 0 0)
(-60.784622 -1.2077457e-17 -6.0387286e-18)
(-60.74161 -6.0338673e-18 8.5746412e-34)
(-60.698601 1.2058021e-17 6.0290106e-18)
(-60.655595 6.0241526e-18 -6.0241526e-18)
(-60.612591 0 1.6722949e-30)
(-60.569591 -1.2028888e-17 -1.6709461e-30)
(-60.526593 3.3374889e-30 1.6687444e-30)
(-60.483598 1.2009481e-17 6.0047407e-18)
(-60.440606 -5.9998925e-18 0)
(-60.397616 0 0)
(-60.35463 5.9901973e-18 0)
(-60.311646 -5.9853503e-18 0)
(-60.268665 8.4988126e-34 0)
(-60.225687 5.9756634e-18 -5.9756634e-18)
(-60.182711 -5.9708234e-18 1.6571304e-30)
(-60.139739 5.9659817e-18 5.9659817e-18)
(-60.096769 5.9611443e-18 0)
(-60.053802 -5.9563054e-18 0)
(-60.010838 -5.9514713e-18 0)
(-59.967876 1.6512624e-30 0)
(-59.924917 5.9418053e-18 0)
(-59.881962 -5.9369733e-18 0)
(-59.839009 -1.647239e-30 0)
(-59.796058 5.9273173e-18 -5.9273173e-18)
(-59.753111 -5.9224932e-18 3.2874337e-30)
(-59.710166 5.9176674e-18 5.9176674e-18)
(-59.667224 5.9128467e-18 0)
(-59.624285 -5.9080245e-18 0)
(-59.581348 -5.9032072e-18 0)
(-59.538415 1.6378651e-30 0)
(-59.495484 5.8935737e-18 0)
(-59.452556 -5.8887574e-18 0)
(-59.40963 8.3615889e-34 0)
(-59.366707 5.8791319e-18 -5.8791319e-18)
(-59.323787 -5.874323e-18 1.6303478e-30)
(-59.28087 5.8695142e-18 5.8695142e-18)
(-59.237956 5.8647095e-18 0)
(-59.195044 -5.8599048e-18 0)
(-59.152135 -1.1710206e-17 -5.855103e-18)
(-59.109229 3.2506869e-30 1.6253435e-30)
(-59.066325 1.1691001e-17 5.8455004e-18)
(-59.023425 -5.8407003e-18 0)
(-58.980527 8.2933167e-34 0)
(-58.937631 1.1662214e-17 0)
(-58.894739 1.655938e-33 -5.8263139e-18)
(-58.851849 -5.8215227e-18 -1.6173483e-30)
(-58.808962 0 5.8167335e-18)
(-58.766077 5.8119451e-18 0)
(-58.723195 0 0)
(-58.680316 -5.8023715e-18 0)
(-58.63744 0 0)
(-58.594566 0 0)
(-58.551696 0 0)
(-58.508827 -5.7832487e-18 0)
(-58.465962 -2.2234365e-49 -5.7784737e-18)
(-58.423099 5.7736995e-18 8.2049205e-34)
(-58.380239 0 5.7689255e-18)
(-58.337381 5.7641516e-18 0)
(-58.294526 -1.5992648e-30 0)
(-58.251674 -5.7546074e-18 0)
(-58.208825 0 0)
(-58.165978 0 0)
(-58.123134 0 0)
(-58.080293 -5.7355527e-18 0)
(-58.037454 1.5913274e-30 -5.7307936e-18)
(-57.994618 5.7260344e-18 -8.1371843e-34)
(-57.951785 0 5.7212751e-18)
(-57.908954 5.7165167e-18 0)
(-57.866126 1.5852306e-30 0)
(-57.823301 -5.707008e-18 0)
(-57.780478 0 -5.7022594e-18)
(-57.737658 5.6975143e-18 3.163363e-30)
(-57.694841 -5.6927714e-18 5.6927714e-18)
(-57.652026 3.1605217e-30 0)
(-57.609214 5.6832869e-18 -5.6832869e-18)
(-57.566404 -5.6785443e-18 -1.5776257e-30)
(-57.523597 0 5.6738023e-18)
(-57.480793 -5.6690627e-18 0)
(-57.437992 -1.5728708e-30 0)
(-57.395193 5.6595952e-18 -5.6595952e-18)
(-57.352397 0 -5.6548677e-18)
(-57.309603 5.6501431e-18 5.6501431e-18)
(-57.266812 -5.6454197e-18 5.6454197e-18)
(-57.224024 -3.132618e-30 0)
(-57.181238 5.6359708e-18 0)
(-57.138455 -3.1265689e-30 0)
(-57.095674 -7.9957643e-34 0)
(-57.052896 1.5618596e-30 5.6217953e-18)
(-57.010121 -7.9823448e-34 -7.9823448e-34)
(-56.967349 -5.6123617e-18 -1.1224723e-17)
(-56.924579 0 -5.6076531e-18)
(-56.881812 5.6029489e-18 1.1205898e-17)
(-56.839047 -1.5537262e-30 1.1196494e-17)
(-56.796285 -1.5524212e-30 -5.5935449e-18)
(-56.753525 2.1949708e-49 -5.5888407e-18)
(-56.710768 -1.550603e-30 0)
(-56.668014 0 0)
(-56.625262 -1.1149443e-17 0)
(-56.582513 -1.5466843e-30 0)
(-56.539767 5.5653309e-18 -5.5653309e-18)
(-56.497023 -5.5606486e-18 -1.5448717e-30)
(-56.454282 1.5419936e-30 5.5559731e-18)
(-56.411543 5.5513003e-18 0)
(-56.368807 5.546625e-18 0)
(-56.326073 1.5388874e-30 0)
(-56.283342 -1.5375855e-30 0)
(-56.240614 5.5325619e-18 0)
(-56.197889 -5.5278705e-18 0)
(-56.155166 -5.5231871e-18 0)
(-56.112445 0 0)
(-56.069728 -5.5138608e-18 0)
(-56.027013 1.5297995e-30 0)
(-55.9843 5.5045743e-18 0)
(-55.94159 0 0)
(-55.898882 0 0)
(-55.856177 0 0)
(-55.813474 -1.0971875e-17 -5.4859377e-18)
(-55.770775 6.0881508e-30 3.0440754e-30)
(-55.728078 1.0953191e-17 5.4765955e-18)
(-55.685384 0 0)
(-55.642692 0 0)
(-55.600003 0 5.4626915e-18)
(-55.557317 0 -1.5156026e-30)
(-55.514632 0 7.7498751e-34)
(-55.471951 0 -5.448885e-18)
(-55.429271 0 -5.4442662e-18)
(-55.386594 -1.087926e-17 -3.0201809e-30)
(-55.34392 3.0199157e-30 1.5099578e-30)
(-55.301249 1.0860643e-17 5.4303215e-18)
(-55.25858 5.4256695e-18 0)
(-55.215915 -5.4210353e-18 0)
(-55.173252 -5.4164281e-18 0)
(-55.130592 1.5035325e-30 0)
(-55.087934 2.9999257e-30 0)
(-55.045278 5.4027636e-18 -5.4027636e-18)
(-55.002625 -5.3982244e-18 2.9971919e-30)
(-54.959973 5.3936649e-18 5.3936649e-18)
(-54.917324 5.3890715e-18 0)