/*--------------------------------*- C++ -*----------------------------------*\
  =========                 |
  \\      /  F ield         | OpenFOAM: The Open Source CFD Toolbox
   \\    /   O peration     | Website:  https://openfoam.org
    \\  /    A nd           | Version:  7
     \\/     M anipulation  |
\*---------------------------------------------------------------------------*/
FoamFile
{
    version     2.0;
    format      ascii;
    class       volScalarField;
    location    "0.00066";
    object      T;
}
// * * * * * * * * * * * * * * * * * * * * * * * * * * * * * * * * * * * * * //

dimensions      [0 0 0 1 0 0 0];

internalField   nonuniform List<scalar> 
5000
(
293
293
293
293
293
293
293
293
293
293
293
293
293
293
293
293
293
293
293
293
293
293
293
293
293
293
293
293
293
293
293
293
293
293
293
293
293
293
293
293
293
293
293
293
293
293
293
293
293
293
293
293
293
293
293
293
293
293
293
293
293
293
293
293
293
293
293
293
293
293
293
293
293
293
293
293
293
293
293
293
293
293
293
293
293
293
293
293
293
293
293
293
293
293
293
293
293
293
293
293
293
293
293
293
293
293
293
293
293
293
293
293
293
293
293
293
293
293
293
293
293
293
293
293
293
293
293
293
293
293
293
293
293
293
293
293
293
293
293
293
293
293
293
293
293
293
293
293
293
293
293
293
293
293
293
293
293
293
293
293
293
293
293
293
293
293
293
293
293
293
293
293
293
293
293
293
293
293
293
293
293
293
293
293
293
293
293
293
293
293
293
293
293
293
293
293
293
293
293
293
293
293
293
293
293
293
293
293
293
293
293
293
293
293
293
293
293
293
293
293
293
293
293
293
293
293
293
293
293
293
293
293
293
293
293
293
293
293
293
293
293
293
293
293
293
293
293
293
293
293
293
293
293
293
293
293
293
293
293
293
293
293
293
293
293
293
293
293
293
293
293
293
293
293
293
293
293
293
293
293
293
293
293
293
293
293
293
293
293
293
293
293
293
293
293
293
293
293
293
293
293
293
293
293
293
293
293
293
293
293
293
293
293
293
293
293
293
293
293
293
293
293
293
293
293
293
293
293
293
293
293
293
293
293
293
293
293
293
293
293
293
293
293
293
293
293
293
293
293
293
293
293
293
293
293
293
293
293
293
293
293
293
293
293
293
293
293
293
293
293
293
293
293
293
293
293
293
293
293
293
293
293
293
293
293
293
293
293
293
293
293
293
293
293
293
293
293
293
293
293
293
293
293
293
293
293
293
293
293
293
293
293
293
293
293
293
293
293
293
293
293
293
293
293
293
293
293
293
293
293
293
293
293
293
293
293
293
293
293
293
293
293
293
293
293
293
293
293
293
293
293
293
293
293
293
293
293
293
293
293
293
293
293
293
293
293
293
293
293
293
293
293
293
293
293
293
293
293
293
293
293
293
293
293
293
293
293
293
293
293
293
293
293
293
293
293
293
293
293
293
293
293
293
293
293
293
293
293
293
293
293
293
293
293
293
293
293
293
293
293
293
293
293
293
293
293
293
293
293
293
293
293
293
293
293
293
293
293
293
293
293
293
293
293
293
293
293
293
293
293
293
293
293
293
293
293
293
293
293
293
293
293
293
293
293
293
293
293
293
293
293
293
293
293
293
293
293
293
293
293
293
293
293
293
293
293
293
293
293
293
293
293
293
293
293
293
293
293
293
293
293
293
293
293
293
293
293
293
293
293
293
293
293
293
293
293
293
293
293
293
293
293
293
293
293
293
293
293
293
293
293
293
293
293
293
293
293
293
293
293
293
293
293
293
293
293
293
293
293
293
293
293
293
293
293
293
293
293
293
293
293
293
293
293
293
293
293
293
293
293
293
293
293
293
293
293
293
293
293
293
293
293
293
293
293
293
293
293
293
293
293
293
293
293
293
293
293
293
293
293
293
293
293
293
293
293
293
293
293
293
293
293
293
293
293
293
293
293
293
293
293
293
293
293
293
293
293
293
293
293
293
293
293
293
293
293
293
293
293
293
293
293
293
293
293
293
293
293
293
293
293
293
293
293
293
293
293
293
293
293
293
293
293
293
293
293
293
293
293
293
293
293
293
293
293
293
293
293
293
293
293
293
293
293
293
293
293
293
293
293
293
293
293
293
293
293
293
293
293
293
293
293
293
293
293
293
293
293
293
293
293
293
293
293
293
293
293
293
293
293
293
293
293
293
293
293
293
293
293
293
293
293
293
293
293
293
293
293
293
293
293
293
293
293
293
293
293
293
293
293
293
293
293
293
293
293
293
293
293
293
293
293
293
293
293
293
293
293
293
293
293
293
293
293
293
293
293
293
293
293
293
293
293
293
293
293
293
293
293
293
293
293
293
293
293
293
293
293
293
293
293
293
293
293
293
293
293
293
293
293
293
293
293
293
293
293
293
293
293
293
293
293
293
293
293
293
293
293
293
293
293
293
293
293
293
293
293
293
293
293
293
293
293
293
293
293
293
293
293
293
293
293
293
293
293
293
293
293
293
293
293
293
293
293
293
293
293
293
293
293
293
293
293
293
293
293
293
293
293
293
293
293
293
293
293
293
293
293
293
293
293
293
293
293
293
293
293
293
293
293
293
293
293
293
293
293
293
293
293
293
293
293
293
293
293
293
293
293
293
293
293
293
293
293
293
293
293
293
293
293
293
293
293
293
293
293
293
293
293
293
293
293
293
293
293
293
293
293
293
293
293
293
293
293
293
293
293
293
293
293
293
293
293
293
293
293
293
293
293
293
293
293
293
293
293
293
293
293
293
293
293
293
293
293
293
293
293
293
293
293
293
293
293
293
293
293
293
293
293
293
293
293
292.99999
292.99999
292.99999
292.99999
292.99999
292.99999
292.99999
292.99999
292.99999
292.99999
292.99999
292.99999
292.99999
292.99999
292.99998
292.99998
292.99998
292.99998
292.99998
292.99998
292.99997
292.99997
292.99997
292.99997
292.99997
292.99996
292.99996
292.99996
292.99995
292.99995
292.99994
292.99994
292.99994
292.99993
292.99993
292.99992
292.99991
292.99991
292.9999
292.99989
292.99988
292.99988
292.99987
292.99986
292.99985
292.99984
292.99982
292.99981
292.9998
292.99978
292.99977
292.99975
292.99973
292.99971
292.99969
292.99967
292.99964
292.99962
292.99959
292.99956
292.99953
292.9995
292.99947
292.99943
292.99939
292.99935
292.9993
292.99926
292.9992
292.99915
292.99909
292.99903
292.99897
292.9989
292.99883
292.99875
292.99867
292.99858
292.99849
292.99839
292.99829
292.99818
292.99806
292.99794
292.99781
292.99767
292.99752
292.99737
292.99721
292.99703
292.99685
292.99666
292.99645
292.99624
292.99601
292.99577
292.99551
292.99525
292.99496
292.99467
292.99435
292.99402
292.99367
292.99331
292.99292
292.99251
292.99208
292.99163
292.99116
292.99066
292.99014
292.98959
292.98901
292.98841
292.98777
292.98711
292.98641
292.98567
292.9849
292.9841
292.98325
292.98236
292.98144
292.98047
292.97945
292.97839
292.97728
292.97611
292.9749
292.97363
292.9723
292.97092
292.96947
292.96796
292.96639
292.96475
292.96304
292.96125
292.95939
292.95746
292.95544
292.95334
292.95115
292.94888
292.94651
292.94405
292.9415
292.93884
292.93608
292.93321
292.93024
292.92715
292.92394
292.92062
292.91717
292.9136
292.9099
292.90606
292.90209
292.89797
292.89372
292.88931
292.88475
292.88004
292.87517
292.87014
292.86494
292.85957
292.85402
292.8483
292.84239
292.8363
292.83001
292.82353
292.81686
292.80998
292.80289
292.7956
292.78809
292.78036
292.77241
292.76423
292.75582
292.74718
292.7383
292.72917
292.7198
292.71018
292.70031
292.69018
292.67979
292.66913
292.6582
292.647
292.63553
292.62377
292.61174
292.59941
292.5868
292.57389
292.56069
292.54719
292.53339
292.51928
292.50486
292.49014
292.4751
292.45974
292.44407
292.42807
292.41176
292.39511
292.37814
292.36084
292.34321
292.32524
292.30694
292.28831
292.26933
292.25002
292.23037
292.21037
292.19003
292.16935
292.14832
292.12695
292.10523
292.08317
292.06076
292.038
292.0149
291.99145
291.96766
291.94351
291.91903
291.89419
291.86901
291.84349
291.81763
291.79142
291.76487
291.73798
291.71076
291.68319
291.6553
291.62706
291.5985
291.56961
291.54039
291.51084
291.48097
291.45077
291.42026
291.38943
291.35829
291.32684
291.29508
291.26302
291.23065
291.19798
291.16502
291.13176
291.09822
291.06439
291.03028
290.99589
290.96123
290.92629
290.89109
290.85563
290.81991
290.78393
290.7477
290.71123
290.67451
290.63756
290.60038
290.56297
290.52533
290.48748
290.44941
290.41113
290.37265
290.33397
290.2951
290.25604
290.21679
290.17737
290.13777
290.098
290.05807
290.01799
289.97775
289.93737
289.89685
289.85619
289.8154
289.77449
289.73347
289.69233
289.65108
289.60973
289.56829
289.52677
289.48516
289.44347
289.40171
289.35989
289.31802
289.27609
289.23411
289.1921
289.15005
289.10798
289.06589
289.02378
288.98167
288.93956
288.89745
288.85535
288.81328
288.77122
288.7292
288.68722
288.64529
288.6034
288.56158
288.51982
288.47813
288.43652
288.395
288.35356
288.31223
288.271
288.22988
288.18888
288.14801
288.10727
288.06667
288.02621
287.98591
287.94576
287.90579
287.86598
287.82635
287.78691
287.74766
287.70861
287.66977
287.63114
287.59273
287.55454
287.51658
287.47886
287.44139
287.40417
287.3672
287.3305
287.29407
287.25791
287.22203
287.18644
287.15114
287.11614
287.08145
287.04707
287.013
286.97925
286.94583
286.91274
286.87999
286.84758
286.81551
286.7838
286.75244
286.72144
286.69081
286.66055
286.63065
286.60114
286.572
286.54325
286.51489
286.48691
286.45933
286.43215
286.40537
286.37898
286.353
286.32743
286.30226
286.27751
286.25316
286.22923
286.20571
286.18261
286.15992
286.13765
286.11579
286.09435
286.07333
286.05272
286.03252
286.01274
285.99338
285.97442
285.95588
285.93774
285.92001
285.90269
285.88577
285.86924
285.85312
285.83739
285.82205
285.8071
285.79253
285.77835
285.76454
285.7511
285.73803
285.72533
285.71299
285.701
285.68936
285.67806
285.66711
285.65649
285.6462
285.63624
285.62659
285.61726
285.60824
285.59951
285.59108
285.58294
285.57509
285.56751
285.56021
285.55317
285.54638
285.53986
285.53357
285.52753
285.52173
285.51615
285.5108
285.50566
285.50073
285.496
285.49148
285.48714
285.48299
285.47902
285.47523
285.47161
285.46815
285.46484
285.46169
285.45869
285.45583
285.4531
285.45051
285.44804
285.4457
285.44347
285.44135
285.43935
285.43744
285.43564
285.43393
285.43231
285.43078
285.42933
285.42797
285.42667
285.42545
285.4243
285.42322
285.4222
285.42123
285.42033
285.41948
285.41868
285.41792
285.41722
285.41656
285.41594
285.41535
285.41481
285.4143
285.41382
285.41338
285.41296
285.41258
285.41221
285.41188
285.41156
285.41127
285.411
285.41075
285.41051
285.4103
285.41009
285.40991
285.40973
285.40957
285.40943
285.40929
285.40916
285.40905
285.40894
285.40884
285.40875
285.40867
285.40859
285.40852
285.40846
285.4084
285.40835
285.4083
285.40826
285.40822
285.40818
285.40815
285.40812
285.40809
285.40807
285.40805
285.40803
285.40801
285.40799
285.40798
285.40797
285.40796
285.40795
285.40794
285.40793
285.40792
285.40792
285.40791
285.40791
285.40791
285.4079
285.4079
285.40789
285.40789
285.40789
285.40788
285.40787
285.40787
285.40787
285.40787
285.40786
285.40785
285.40785
285.40785
285.40784
285.40784
285.40784
285.40783
285.40783
285.40782
285.40782
285.40781
285.40781
285.4078
285.4078
285.40779
285.40779
285.40778
285.40778
285.40777
285.40777
285.40776
285.40775
285.40775
285.40774
285.40774
285.40773
285.40773
285.40772
285.40772
285.40772
285.40771
285.40771
285.40771
285.4077
285.4077
285.4077
285.4077
285.4077
285.40769
285.40769
285.40769
285.40768
285.40768
285.40769
285.40769
285.40768
285.40768
285.40767
285.40768
285.40767
285.40767
285.40767
285.40767
285.40767
285.40766
285.40766
285.40766
285.40766
285.40766
285.40766
285.40766
285.40766
285.40766
285.40765
285.40765
285.40765
285.40765
285.40765
285.40765
285.40765
285.40765
285.40764
285.40763
285.40763
285.40764
285.40763
285.40763
285.40763
285.40763
285.40763
285.40763
285.40763
285.40763
285.40763
285.40763
285.40763
285.40763
285.40764
285.40764
285.40764
285.40763
285.40763
285.40763
285.40763
285.40764
285.40764
285.40764
285.40764
285.40764
285.40764
285.40765
285.40765
285.40765
285.40765
285.40765
285.40765
285.40765
285.40766
285.40766
285.40766
285.40766
285.40766
285.40766
285.40766
285.40766
285.40766
285.40766
285.40766
285.40766
285.40766
285.40765
285.40765
285.40765
285.40766
285.40766
285.40767
285.40767
285.40767
285.40767
285.40767
285.40768
285.40768
285.40769
285.40769
285.4077
285.40771
285.40771
285.40771
285.40771
285.40772
285.40772
285.40773
285.40773
285.40774
285.40774
285.40774
285.40774
285.40774
285.40775
285.40775
285.40776
285.40776
285.40776
285.40776
285.40777
285.40777
285.40777
285.40777
285.40778
285.40778
285.40779
285.40779
285.40779
285.40779
285.40779
285.40779
285.4078
285.40781
285.40782
285.40782
285.40783
285.40783
285.40784
285.40785
285.40785
285.40786
285.40786
285.40786
285.40786
285.40786
285.40786
285.40787
285.40788
285.40788
285.40789
285.40789
285.40789
285.4079
285.4079
285.40791
285.40791
285.40792
285.40793
285.40793
285.40794
285.40794
285.40795
285.40795
285.40795
285.40796
285.40796
285.40797
285.40798
285.40798
285.40799
285.408
285.408
285.40801
285.40801
285.40801
285.40801
285.40802
285.40803
285.40803
285.40804
285.40804
285.40805
285.40805
285.40806
285.40806
285.40807
285.40808
285.40809
285.40809
285.4081
285.4081
285.40811
285.40812
285.40812
285.40813
285.40814
285.40814
285.40815
285.40815
285.40816
285.40816
285.40817
285.40818
285.40819
285.40819
285.4082
285.40821
285.40821
285.40822
285.40823
285.40824
285.40824
285.40825
285.40826
285.40826
285.40826
285.40827
285.40827
285.40828
285.40829
285.40829
285.4083
285.40831
285.40832
285.40832
285.40833
285.40833
285.40834
285.40835
285.40835
285.40836
285.40836
285.40837
285.40838
285.40839
285.40839
285.4084
285.4084
285.40841
285.40842
285.40843
285.40843
285.40844
285.40845
285.40845
285.40846
285.40846
285.40846
285.40847
285.40848
285.40849
285.4085
285.4085
285.40851
285.40852
285.40852
285.40853
285.40853
285.40854
285.40854
285.40855
285.40856
285.40857
285.40858
285.40859
285.40859
285.4086
285.40861
285.40861
285.40862
285.40862
285.40863
285.40864
285.40865
285.40865
285.40866
285.40867
285.40867
285.40868
285.40869
285.40869
285.4087
285.40871
285.40871
285.40872
285.40873
285.40874
285.40875
285.40876
285.40876
285.40877
285.40877
285.40878
285.40879
285.40879
285.4088
285.40881
285.40881
285.40882
285.40883
285.40884
285.40885
285.40886
285.40886
285.40887
285.40887
285.40888
285.40889
285.40889
285.4089
285.40891
285.40892
285.40893
285.40894
285.40895
285.40895
285.40896
285.40897
285.40898
285.40898
285.40899
285.409
285.40901
285.40901
285.40902
285.40903
285.40904
285.40904
285.40905
285.40906
285.40907
285.40908
285.40908
285.40909
285.4091
285.4091
285.40911
285.40912
285.40913
285.40914
285.40914
285.40915
285.40916
285.40917
285.40918
285.40919
285.4092
285.40921
285.40922
285.40922
285.40923
285.40924
285.40924
285.40925
285.40926
285.40926
285.40927
285.40928
285.40928
285.4093
285.40931
285.40932
285.40933
285.40934
285.40934
285.40935
285.40935
285.40936
285.40937
285.40939
285.40939
285.4094
285.40941
285.40942
285.40942
285.40944
285.40945
285.40945
285.40946
285.40947
285.40948
285.40949
285.4095
285.40951
285.40952
285.40952
285.40953
285.40954
285.40955
285.40956
285.40957
285.40958
285.40959
285.4096
285.4096
285.40961
285.40962
285.40963
285.40964
285.40965
285.40966
285.40967
285.40968
285.40969
285.4097
285.40971
285.40972
285.40973
285.40974
285.40975
285.40976
285.40977
285.40978
285.40979
285.4098
285.40981
285.40981
285.40982
285.40983
285.40984
285.40985
285.40986
285.40987
285.40988
285.40989
285.4099
285.40991
285.40992
285.40993
285.40994
285.40995
285.40996
285.40997
285.40998
285.40999
285.41
285.41001
285.41002
285.41003
285.41004
285.41005
285.41006
285.41007
285.41008
285.41009
285.4101
285.41012
285.41013
285.41014
285.41015
285.41016
285.41017
285.41018
285.41019
285.4102
285.41021
285.41023
285.41024
285.41025
285.41026
285.41028
285.41029
285.4103
285.41031
285.41032
285.41033
285.41034
285.41035
285.41036
285.41037
285.41038
285.41039
285.41041
285.41042
285.41044
285.41045
285.41046
285.41047
285.41048
285.4105
285.41051
285.41052
285.41053
285.41055
285.41056
285.41057
285.41058
285.41059
285.4106
285.41062
285.41063
285.41065
285.41066
285.41068
285.41069
285.4107
285.41071
285.41072
285.41073
285.41074
285.41076
285.41077
285.41079
285.4108
285.41081
285.41083
285.41084
285.41085
285.41087
285.41088
285.41089
285.41091
285.41092
285.41093
285.41095
285.41096
285.41098
285.41099
285.41101
285.41102
285.41103
285.41104
285.41106
285.41107
285.41108
285.4111
285.41112
285.41113
285.41114
285.41116
285.41117
285.41118
285.4112
285.41122
285.41123
285.41125
285.41126
285.41128
285.41129
285.41131
285.41132
285.41134
285.41135
285.41137
285.41139
285.4114
285.41142
285.41144
285.41145
285.41147
285.41149
285.41151
285.41152
285.41154
285.41156
285.41157
285.41158
285.4116
285.41161
285.41163
285.41165
285.41166
285.41168
285.4117
285.41171
285.41173
285.41175
285.41177
285.41179
285.41181
285.41183
285.41185
285.41187
285.41189
285.4119
285.41192
285.41194
285.41195
285.41197
285.41199
285.412
285.41202
285.41204
285.41206
285.41208
285.4121
285.41212
285.41214
285.41216
285.41217
285.41219
285.41221
285.41224
285.41226
285.41229
285.41231
285.41232
285.41234
285.41236
285.41238
285.4124
285.41242
285.41244
285.41247
285.41249
285.41251
285.41253
285.41256
285.41258
285.4126
285.41262
285.41264
285.41266
285.41268
285.4127
285.41273
285.41275
285.41277
285.41279
285.41281
285.41284
285.41286
285.41288
285.41291
285.41293
285.41296
285.41298
285.41301
285.41304
285.41306
285.41309
285.41311
285.41313
285.41315
285.41318
285.4132
285.41323
285.41325
285.41328
285.4133
285.41333
285.41336
285.41339
285.41342
285.41345
285.41349
285.41351
285.41354
285.41357
285.41359
285.41362
285.41364
285.41366
285.41369
285.41371
285.41374
285.41378
285.41381
285.41384
285.41388
285.41391
285.41394
285.41397
285.414
285.41403
285.41406
285.41409
285.41413
285.41417
285.4142
285.41424
285.41427
285.4143
285.41433
285.41436
285.41439
285.41441
285.41444
285.41447
285.41451
285.41454
285.41458
285.41461
285.41465
285.41468
285.41473
285.41476
285.4148
285.41484
285.41487
285.41491
285.41495
285.41499
285.41503
285.41508
285.41512
285.41516
285.4152
285.41524
285.41528
285.41532
285.41536
285.41541
285.41545
285.4155
285.41554
285.41559
285.41563
285.41568
285.41572
285.41577
285.41581
285.41585
285.4159
285.41594
285.41599
285.41604
285.41608
285.41614
285.41619
285.41624
285.4163
285.41635
285.4164
285.41645
285.4165
285.41655
285.41661
285.41666
285.41672
285.41678
285.41683
285.41688
285.41693
285.41699
285.41704
285.4171
285.41717
285.41723
285.41729
285.41736
285.41742
285.41748
285.41755
285.41761
285.41768
285.41775
285.41782
285.41789
285.41796
285.41803
285.41809
285.41816
285.41823
285.4183
285.41838
285.41846
285.41854
285.41862
285.4187
285.41879
285.41887
285.41895
285.41903
285.41911
285.4192
285.41928
285.41937
285.41947
285.41956
285.41965
285.41974
285.41983
285.41992
285.42001
285.42011
285.42021
285.42031
285.42042
285.42053
285.42065
285.42076
285.42088
285.42099
285.4211
285.42122
285.42133
285.42144
285.42155
285.42166
285.42177
285.42189
285.422
285.42212
285.42224
285.42235
285.42247
285.42259
285.42271
285.42283
285.42296
285.42307
285.42318
285.42328
285.42337
285.42345
285.42353
285.42361
285.42368
285.42374
285.4238
285.42384
285.42389
285.42392
285.42394
285.42395
285.42395
285.42395
285.42395
285.42394
285.42391
285.42386
285.42381
285.42376
285.42371
285.42366
285.42362
285.42359
285.42357
285.42356
285.42356
285.42356
285.42357
285.42359
285.42364
285.42377
285.42393
285.42412
285.42434
285.42458
285.42484
285.42511
285.42539
285.42566
285.42593
285.4262
285.42647
285.42674
285.42702
285.42732
285.42762
285.42792
285.42821
285.42848
285.42872
285.42892
285.42908
285.42919
285.42927
285.42932
285.42937
285.42942
285.42948
285.42954
285.42959
285.42962
285.42965
285.4297
285.42981
285.43007
285.43069
285.43226
285.43632
285.44681
285.47404
285.54457
285.72693
286.19391
287.25169
288.64103
290.18419
291.78237
293.34367
294.79456
296.08473
297.18746
298.09655
298.82145
299.38184
299.80261
300.10995
300.32858
300.48018
300.58268
300.65027
300.69367
300.72074
300.73706
300.74645
300.75147
300.7538
300.75457
300.75461
300.75424
300.75294
300.7511
300.74939
300.74781
300.74636
300.74505
300.7439
300.74289
300.74201
300.74125
300.7406
300.74002
300.73951
300.73903
300.73859
300.73816
300.73774
300.73733
300.73694
300.73655
300.73618
300.73583
300.73549
300.73517
300.73486
300.73455
300.73425
300.73393
300.73361
300.73327
300.73291
300.73252
300.7321
300.73164
300.73116
300.73066
300.73014
300.7296
300.72906
300.72852
300.72798
300.72744
300.72691
300.7264
300.7259
300.72541
300.72495
300.72451
300.7241
300.72371
300.72334
300.723
300.72268
300.72238
300.7221
300.72183
300.72157
300.72133
300.7211
300.72087
300.72066
300.72046
300.72027
300.72009
300.71991
300.71974
300.71957
300.71941
300.71925
300.71909
300.71894
300.7188
300.71865
300.71852
300.71838
300.71824
300.71811
300.71798
300.71785
300.71772
300.7176
300.71748
300.71736
300.71725
300.71714
300.71704
300.71693
300.71682
300.71672
300.71661
300.7165
300.7164
300.7163
300.71619
300.7161
300.716
300.7159
300.71581
300.71572
300.71563
300.71554
300.71546
300.71537
300.71529
300.7152
300.71512
300.71504
300.71496
300.71487
300.71479
300.71471
300.71464
300.71456
300.71449
300.71442
300.71435
300.71428
300.71421
300.71414
300.71407
300.714
300.71392
300.71386
300.71379
300.71373
300.71366
300.7136
300.71354
300.71348
300.71341
300.71335
300.71329
300.71323
300.71318
300.71312
300.71306
300.71301
300.71295
300.71289
300.71284
300.71278
300.71272
300.71267
300.71261
300.71256
300.71251
300.71246
300.71241
300.71236
300.71231
300.71226
300.71221
300.71216
300.71211
300.71207
300.71202
300.71197
300.71192
300.71188
300.71183
300.71178
300.71174
300.7117
300.71165
300.71161
300.71157
300.71152
300.71148
300.71144
300.7114
300.71136
300.71132
300.71128
300.71124
300.7112
300.71116
300.71112
300.71108
300.71104
300.711
300.71096
300.71092
300.71089
300.71085
300.71081
300.71077
300.71074
300.7107
300.71067
300.71064
300.7106
300.71057
300.71053
300.7105
300.71047
300.71043
300.7104
300.71036
300.71033
300.71029
300.71026
300.71022
300.71019
300.71016
300.71013
300.7101
300.71007
300.71005
300.71001
300.70998
300.70995
300.70992
300.70989
300.70986
300.70983
300.7098
300.70977
300.70974
300.70972
300.70969
300.70966
300.70963
300.7096
300.70957
300.70954
300.70951
300.70948
300.70946
300.70943
300.70941
300.70938
300.70935
300.70933
300.7093
300.70928
300.70926
300.70923
300.70921
300.70918
300.70916
300.70913
300.7091
300.70907
300.70905
300.70902
300.709
300.70898
300.70895
300.70893
300.70891
300.70888
300.70886
300.70883
300.70881
300.70879
300.70877
300.70875
300.70873
300.7087
300.70868
300.70866
300.70864
300.70861
300.70859
300.70857
300.70854
300.70852
300.7085
300.70848
300.70846
300.70844
300.70842
300.7084
300.70838
300.70836
300.70834
300.70832
300.7083
300.70827
300.70825
300.70823
300.70821
300.7082
300.70818
300.70816
300.70814
300.70812
300.7081
300.70807
300.70805
300.70803
300.70801
300.70799
300.70798
300.70796
300.70794
300.70793
300.70791
300.70789
300.70788
300.70786
300.70784
300.70782
300.70781
300.70779
300.70777
300.70775
300.70773
300.70771
300.70769
300.70768
300.70766
300.70765
300.70763
300.70761
300.7076
300.70758
300.70756
300.70755
300.70753
300.70751
300.7075
300.70748
300.70746
300.70745
300.70743
300.70741
300.7074
300.70738
300.70736
300.70735
300.70733
300.70732
300.7073
300.70729
300.70727
300.70726
300.70724
300.70723
300.70722
300.7072
300.70718
300.70716
300.70715
300.70713
300.70711
300.7071
300.70709
300.70708
300.70707
300.70706
300.70705
300.70703
300.70702
300.707
300.70698
300.70697
300.70695
300.70694
300.70692
300.70691
300.70689
300.70688
300.70686
300.70685
300.70683
300.70682
300.70681
300.7068
300.70679
300.70678
300.70677
300.70676
300.70674
300.70673
300.70671
300.7067
300.70669
300.70667
300.70666
300.70664
300.70663
300.70661
300.7066
300.70659
300.70658
300.70657
300.70656
300.70655
300.70654
300.70653
300.70651
300.7065
300.70648
300.70647
300.70646
300.70645
300.70644
300.70643
300.70642
300.70641
300.70639
300.70638
300.70637
300.70635
300.70634
300.70633
300.70632
300.70631
300.7063
300.70629
300.70628
300.70627
300.70626
300.70625
300.70624
300.70622
300.70621
300.7062
300.70618
300.70617
300.70616
300.70615
300.70614
300.70613
300.70612
300.70611
300.7061
300.70608
300.70607
300.70606
300.70605
300.70604
300.70603
300.70602
300.70601
300.706
300.70599
300.70599
300.70597
300.70596
300.70595
300.70594
300.70593
300.70592
300.70591
300.7059
300.70589
300.70588
300.70587
300.70586
300.70585
300.70583
300.70582
300.70582
300.70581
300.7058
300.70579
300.70578
300.70577
300.70576
300.70575
300.70574
300.70573
300.70572
300.70571
300.7057
300.70569
300.70568
300.70566
300.70565
300.70565
300.70564
300.70563
300.70562
300.70561
300.7056
300.70559
300.70558
300.70557
300.70556
300.70556
300.70555
300.70554
300.70553
300.70552
300.70551
300.7055
300.70549
300.70548
300.70548
300.70547
300.70546
300.70545
300.70543
300.70542
300.70541
300.70541
300.7054
300.70539
300.70538
300.70538
300.70537
300.70536
300.70535
300.70534
300.70533
300.70533
300.70532
300.70531
300.7053
300.70529
300.70528
300.70527
300.70526
300.70525
300.70525
300.70524
300.70524
300.70523
300.70522
300.70521
300.7052
300.70519
300.70518
300.70517
300.70516
300.70516
300.70515
300.70514
300.70514
300.70513
300.70513
300.70512
300.70511
300.7051
300.70509
300.70508
300.70507
300.70506
300.70506
300.70505
300.70504
300.70503
300.70503
300.70502
300.70501
300.70501
300.705
300.70499
300.70498
300.70498
300.70497
300.70496
300.70495
300.70494
300.70493
300.70492
300.70491
300.70491
300.7049
300.7049
300.70489
300.70488
300.70487
300.70487
300.70486
300.70485
300.70484
300.70484
300.70483
300.70482
300.70481
300.70481
300.7048
300.70479
300.70479
300.70478
300.70477
300.70477
300.70476
300.70475
300.70474
300.70473
300.70472
300.70471
300.70471
300.7047
300.7047
300.7047
300.70469
300.70469
300.70468
300.70467
300.70466
300.70465
300.70464
300.70463
300.70463
300.70462
300.70461
300.7046
300.7046
300.70459
300.70459
300.70458
300.70458
300.70457
300.70456
300.70455
300.70455
300.70454
300.70453
300.70452
300.70452
300.70451
300.7045
300.7045
300.70449
300.70449
300.70448
300.70447
300.70447
300.70446
300.70445
300.70445
300.70444
300.70443
300.70443
300.70442
300.70441
300.7044
300.70439
300.70439
300.70438
300.70438
300.70437
300.70436
300.70436
300.70435
300.70435
300.70434
300.70433
300.70432
300.70432
300.70431
300.70431
300.7043
300.70429
300.70429
300.70428
300.70427
300.70426
300.70425
300.70425
300.70424
300.70424
300.70423
300.70423
300.70422
300.70421
300.70421
300.7042
300.70419
300.70419
300.70418
300.70418
300.70417
300.70416
300.70416
300.70415
300.70414
300.70414
300.70413
300.70412
300.70411
300.70411
300.7041
300.7041
300.70409
300.70409
300.70408
300.70407
300.70407
300.70406
300.70406
300.70405
300.70405
300.70404
300.70403
300.70403
300.70402
300.70401
300.704
300.704
300.70399
300.70399
300.70398
300.70398
300.70397
300.70397
300.70396
300.70395
300.70395
300.70394
300.70394
300.70393
300.70393
300.70392
300.70391
300.70391
300.7039
300.70389
300.70389
300.70388
300.70387
300.70387
300.70386
300.70386
300.70385
300.70385
300.70384
300.70383
300.70383
300.70382
300.70382
300.70381
300.7038
300.7038
300.70379
300.70379
300.70379
300.70378
300.70378
300.70377
300.70376
300.70375
300.70375
300.70374
300.70374
300.70373
300.70372
300.70372
300.70371
300.70371
300.70371
300.7037
300.7037
300.70369
300.70368
300.70368
300.70367
300.70367
300.70366
300.70366
300.70365
300.70364
300.70364
300.70363
300.70363
300.70362
300.70362
300.70362
300.70361
300.7036
300.7036
300.70359
300.70359
300.70358
300.70358
300.70358
300.70357
300.70356
300.70355
300.70354
300.70354
300.70353
300.70353
300.70352
300.70352
300.70352
300.70352
300.70351
300.70351
300.70351
300.7035
300.70349
300.70348
300.70347
300.70347
300.70347
300.70346
300.70346
300.70345
300.70344
300.70344
300.70344
300.70343
300.70343
300.70342
300.70342
300.70342
300.70342
300.70341
300.7034
300.70339
300.70339
300.70338
300.70338
300.70337
300.70337
300.70337
300.70337
300.70336
300.70336
300.70335
300.70334
300.70334
300.70333
300.70332
300.70332
300.70331
300.70331
300.70331
300.70331
300.70331
300.70331
300.70331
300.7033
300.7033
300.70329
300.70328
300.70328
300.70327
300.70326
300.70326
300.70326
300.70326
300.70327
300.70327
300.70327
300.70327
300.70326
300.70325
300.70324
300.70324
300.70324
300.70324
300.70324
300.70324
300.70324
300.70324
300.70324
300.70324
300.70324
300.70324
300.70324
300.70324
300.70324
300.70324
300.70324
300.70324
300.70324
300.70325
300.70325
300.70326
300.70326
300.70326
300.70326
300.70327
300.70328
300.70328
300.70329
300.7033
300.7033
300.70331
300.70331
300.70332
300.70332
300.70333
300.70334
300.70335
300.70336
300.70338
300.70339
300.70339
300.7034
300.7034
300.70342
300.70344
300.70345
300.70345
300.70346
300.70347
300.70347
300.70348
300.7035
300.70351
300.70352
300.70353
300.70353
300.70354
300.70354
300.70354
300.70354
300.70355
300.70355
300.70355
300.70354
300.70353
300.70353
300.70351
300.70349
300.70347
300.70345
300.70342
300.70339
300.70336
300.70332
300.70328
300.70324
300.70319
300.70315
300.70309
300.70304
300.70297
300.70291
300.70284
300.70276
300.70267
300.70258
300.70249
300.70238
300.70227
300.70215
300.70202
300.70188
300.70173
300.70157
300.7014
300.70121
300.70101
300.70079
300.70056
300.70032
300.70005
300.69976
300.69946
300.69913
300.69878
300.6984
300.698
300.69757
300.69711
300.69662
300.69609
300.69553
300.69492
300.69428
300.6936
300.69287
300.69209
300.69125
300.69037
300.68942
300.68842
300.68735
300.68621
300.685
300.68371
300.68234
300.68089
300.67934
300.6777
300.67596
300.67411
300.67215
300.67008
300.66788
300.66555
300.66308
300.66046
300.6577
300.65478
300.65168
300.64841
300.64496
300.64132
300.63747
300.6334
300.62912
300.62459
300.61983
300.61481
300.60952
300.60395
300.59808
300.59191
300.58543
300.5786
300.57143
300.5639
300.55599
300.54768
300.53896
300.52982
300.52023
300.51018
300.49964
300.48861
300.47706
300.46497
300.45233
300.4391
300.42528
300.41083
300.39574
300.37998
300.36354
300.34639
300.3285
300.30985
300.29042
300.27019
300.24912