/*--------------------------------*- C++ -*----------------------------------*\
  =========                 |
  \\      /  F ield         | OpenFOAM: The Open Source CFD Toolbox
   \\    /   O peration     | Website:  https://openfoam.org
    \\  /    A nd           | Version:  7
     \\/     M anipulation  |
\*---------------------------------------------------------------------------*/
FoamFile
{
    version     2.0;
    format      ascii;
    class       volScalarField;
    location    "0.00233";
    object      T;
}
// * * * * * * * * * * * * * * * * * * * * * * * * * * * * * * * * * * * * * //

dimensions      [0 0 0 1 0 0 0];

internalField   nonuniform List<scalar> 
5000
(
285.38483
285.38483
285.38483
285.38483
285.38483
285.38483
285.38483
285.38483
285.38483
285.38483
285.38483
285.38483
285.38483
285.38483
285.38483
285.38483
285.38483
285.38483
285.38483
285.38483
285.38483
285.38483
285.38483
285.38483
285.38482
285.38482
285.38482
285.38482
285.38482
285.38482
285.38482
285.38482
285.38482
285.38482
285.38482
285.38482
285.38482
285.38482
285.38482
285.38482
285.38482
285.38482
285.38482
285.38482
285.38482
285.38482
285.38482
285.38482
285.38482
285.38483
285.38483
285.38483
285.38483
285.38483
285.38483
285.38483
285.38484
285.38484
285.38484
285.38485
285.38485
285.38485
285.38486
285.38486
285.38487
285.3849
285.38492
285.38494
285.38497
285.38504
285.38517
285.38546
285.3861
285.38729
285.38901
285.39135
285.39439
285.39829
285.4032
285.40935
285.41695
285.42622
285.43729
285.45017
285.46473
285.48071
285.49771
285.51526
285.53282
285.54991
285.56607
285.58096
285.59434
285.60606
285.61611
285.62455
285.63148
285.63707
285.64151
285.64497
285.64763
285.64964
285.65115
285.65227
285.65309
285.65369
285.65412
285.65443
285.65465
285.6548
285.65491
285.65499
285.65505
285.65508
285.65511
285.65513
285.65514
285.65515
285.65516
285.65516
285.65517
285.65517
285.65517
285.65517
285.65517
285.65518
285.65518
285.65518
285.65518
285.65518
285.65518
285.65518
285.65518
285.65518
285.65519
285.65519
285.65519
285.65519
285.65519
285.65519
285.65519
285.65519
285.65519
285.65519
285.65519
285.65519
285.65519
285.6552
285.6552
285.6552
285.6552
285.6552
285.6552
285.6552
285.6552
285.6552
285.6552
285.6552
285.6552
285.6552
285.6552
285.65521
285.65521
285.65521
285.65521
285.65521
285.65521
285.65521
285.65521
285.65521
285.65521
285.65521
285.65521
285.65522
285.65522
285.65522
285.65522
285.65522
285.65522
285.65522
285.65522
285.65522
285.65522
285.65522
285.65522
285.65523
285.65523
285.65523
285.65523
285.65523
285.65523
285.65523
285.65523
285.65523
285.65523
285.65523
285.65523
285.65523
285.65524
285.65524
285.65524
285.65524
285.65524
285.65524
285.65524
285.65524
285.65524
285.65524
285.65524
285.65524
285.65525
285.65525
285.65525
285.65525
285.65525
285.65525
285.65525
285.65525
285.65525
285.65525
285.65525
285.65525
285.65526
285.65526
285.65526
285.65526
285.65526
285.65526
285.65526
285.65526
285.65526
285.65526
285.65526
285.65526
285.65526
285.65527
285.65527
285.65527
285.65527
285.65527
285.65527
285.65527
285.65527
285.65527
285.65527
285.65527
285.65527
285.65528
285.65528
285.65528
285.65528
285.65528
285.65528
285.65528
285.65528
285.65528
285.65528
285.65528
285.65528
285.65528
285.65529
285.65529
285.65529
285.65529
285.65529
285.65529
285.65529
285.65529
285.65529
285.65529
285.65529
285.6553
285.6553
285.6553
285.6553
285.6553
285.6553
285.6553
285.6553
285.6553
285.6553
285.6553
285.6553
285.6553
285.65531
285.65531
285.65531
285.65531
285.65531
285.65531
285.65531
285.65531
285.65531
285.65531
285.65531
285.65532
285.65532
285.65532
285.65532
285.65532
285.65532
285.65532
285.65532
285.65532
285.65532
285.65532
285.65532
285.65532
285.65533
285.65533
285.65533
285.65533
285.65533
285.65533
285.65533
285.65533
285.65533
285.65533
285.65533
285.65533
285.65534
285.65534
285.65534
285.65534
285.65534
285.65534
285.65534
285.65534
285.65534
285.65534
285.65534
285.65535
285.65535
285.65535
285.65535
285.65535
285.65535
285.65535
285.65535
285.65535
285.65535
285.65535
285.65536
285.65536
285.65536
285.65536
285.65536
285.65536
285.65536
285.65536
285.65536
285.65536
285.65536
285.65536
285.65537
285.65537
285.65537
285.65537
285.65537
285.65537
285.65537
285.65537
285.65537
285.65537
285.65537
285.65537
285.65538
285.65538
285.65538
285.65538
285.65538
285.65538
285.65538
285.65538
285.65538
285.65538
285.65538
285.65539
285.65539
285.65539
285.65539
285.65539
285.65539
285.65539
285.65539
285.65539
285.65539
285.65539
285.6554
285.6554
285.6554
285.6554
285.6554
285.6554
285.6554
285.6554
285.6554
285.6554
285.6554
285.6554
285.65541
285.65541
285.65541
285.65541
285.65541
285.65541
285.65541
285.65541
285.65541
285.65541
285.65541
285.65541
285.65542
285.65542
285.65542
285.65542
285.65542
285.65542
285.65542
285.65542
285.65542
285.65542
285.65542
285.65543
285.65543
285.65543
285.65543
285.65543
285.65543
285.65543
285.65543
285.65543
285.65543
285.65543
285.65543
285.65544
285.65544
285.65544
285.65544
285.65544
285.65544
285.65544
285.65544
285.65544
285.65544
285.65545
285.65545
285.65545
285.65545
285.65545
285.65545
285.65545
285.65545
285.65545
285.65546
285.65546
285.65546
285.65546
285.65546
285.65546
285.65546
285.65546
285.65546
285.65546
285.65546
285.65546
285.65546
285.65547
285.65547
285.65547
285.65547
285.65547
285.65547
285.65547
285.65547
285.65547
285.65547
285.65547
285.65547
285.65547
285.65547
285.65548
285.65548
285.65548
285.65548
285.65548
285.65548
285.65548
285.65549
285.65549
285.65549
285.65549
285.65549
285.65549
285.65549
285.65549
285.65549
285.65549
285.6555
285.6555
285.6555
285.6555
285.6555
285.6555
285.6555
285.6555
285.6555
285.6555
285.6555
285.6555
285.6555
285.6555
285.65551
285.65551
285.65551
285.65551
285.65551
285.65551
285.65551
285.65551
285.65551
285.65552
285.65552
285.65552
285.65552
285.65552
285.65552
285.65552
285.65552
285.65552
285.65552
285.65553
285.65553
285.65553
285.65553
285.65553
285.65553
285.65553
285.65553
285.65553
285.65553
285.65553
285.65553
285.65553
285.65554
285.65554
285.65554
285.65554
285.65554
285.65554
285.65554
285.65554
285.65555
285.65555
285.65555
285.65555
285.65555
285.65555
285.65555
285.65555
285.65555
285.65555
285.65555
285.65555
285.65555
285.65556
285.65556
285.65556
285.65556
285.65556
285.65556
285.65556
285.65556
285.65557
285.65557
285.65557
285.65557
285.65557
285.65557
285.65557
285.65557
285.65557
285.65557
285.65557
285.65558
285.65558
285.65558
285.65558
285.65558
285.65558
285.65558
285.65558
285.65558
285.65558
285.65559
285.65559
285.65559
285.65559
285.65559
285.65559
285.65559
285.65559
285.65559
285.65559
285.65559
285.6556
285.6556
285.6556
285.6556
285.6556
285.6556
285.6556
285.6556
285.6556
285.6556
285.6556
285.65561
285.65561
285.65561
285.65561
285.65561
285.65561
285.65561
285.65561
285.65561
285.65561
285.65562
285.65562
285.65562
285.65562
285.65562
285.65562
285.65562
285.65562
285.65562
285.65563
285.65563
285.65563
285.65563
285.65563
285.65563
285.65563
285.65563
285.65563
285.65563
285.65563
285.65564
285.65564
285.65564
285.65564
285.65564
285.65564
285.65564
285.65564
285.65564
285.65564
285.65565
285.65565
285.65565
285.65565
285.65565
285.65565
285.65565
285.65565
285.65565
285.65566
285.65566
285.65566
285.65566
285.65566
285.65566
285.65566
285.65566
285.65566
285.65566
285.65567
285.65567
285.65567
285.65567
285.65567
285.65567
285.65567
285.65567
285.65567
285.65567
285.65568
285.65568
285.65568
285.65568
285.65568
285.65568
285.65568
285.65568
285.65568
285.65568
285.65569
285.65569
285.65569
285.65569
285.65569
285.65569
285.65569
285.65569
285.65569
285.65569
285.65569
285.6557
285.6557
285.6557
285.6557
285.6557
285.6557
285.6557
285.6557
285.6557
285.65571
285.65571
285.65571
285.65571
285.65571
285.65571
285.65571
285.65571
285.65571
285.65571
285.65572
285.65572
285.65572
285.65572
285.65572
285.65572
285.65572
285.65572
285.65572
285.65572
285.65573
285.65573
285.65573
285.65573
285.65573
285.65573
285.65573
285.65573
285.65573
285.65573
285.65573
285.65574
285.65574
285.65574
285.65574
285.65574
285.65574
285.65574
285.65574
285.65574
285.65575
285.65575
285.65575
285.65575
285.65575
285.65575
285.65575
285.65575
285.65575
285.65575
285.65576
285.65576
285.65576
285.65576
285.65576
285.65576
285.65576
285.65576
285.65577
285.65577
285.65577
285.65577
285.65577
285.65577
285.65577
285.65577
285.65577
285.65577
285.65577
285.65578
285.65578
285.65578
285.65578
285.65578
285.65578
285.65578
285.65578
285.65578
285.65578
285.65579
285.65579
285.65579
285.65579
285.65579
285.65579
285.65579
285.65579
285.65579
285.65579
285.65579
285.6558
285.6558
285.6558
285.6558
285.6558
285.6558
285.6558
285.6558
285.6558
285.65581
285.65581
285.65581
285.65581
285.65581
285.65581
285.65581
285.65581
285.65581
285.65582
285.65582
285.65582
285.65582
285.65582
285.65582
285.65582
285.65582
285.65582
285.65582
285.65582
285.65582
285.65583
285.65583
285.65583
285.65583
285.65583
285.65583
285.65583
285.65583
285.65583
285.65584
285.65584
285.65584
285.65584
285.65584
285.65584
285.65584
285.65584
285.65584
285.65584
285.65585
285.65585
285.65585
285.65585
285.65585
285.65585
285.65585
285.65585
285.65585
285.65585
285.65586
285.65586
285.65586
285.65586
285.65586
285.65586
285.65586
285.65586
285.65586
285.65586
285.65587
285.65587
285.65587
285.65587
285.65587
285.65587
285.65587
285.65587
285.65587
285.65587
285.65588
285.65588
285.65588
285.65588
285.65588
285.65588
285.65588
285.65588
285.65588
285.65589
285.65589
285.65589
285.65589
285.65589
285.65589
285.65589
285.65589
285.65589
285.65589
285.6559
285.6559
285.6559
285.6559
285.6559
285.6559
285.6559
285.6559
285.6559
285.6559
285.65591
285.65591
285.65591
285.65591
285.65591
285.65591
285.65591
285.65591
285.65591
285.65592
285.65592
285.65592
285.65592
285.65592
285.65592
285.65592
285.65592
285.65592
285.65592
285.65592
285.65592
285.65593
285.65593
285.65593
285.65593
285.65593
285.65593
285.65593
285.65593
285.65594
285.65594
285.65594
285.65594
285.65594
285.65594
285.65594
285.65594
285.65594
285.65594
285.65594
285.65595
285.65595
285.65595
285.65595
285.65595
285.65595
285.65595
285.65595
285.65595
285.65595
285.65595
285.65596
285.65596
285.65596
285.65596
285.65596
285.65596
285.65596
285.65596
285.65596
285.65596
285.65596
285.65596
285.65596
285.65597
285.65597
285.65597
285.65597
285.65597
285.65597
285.65597
285.65598
285.65598
285.65598
285.65598
285.65598
285.65598
285.65598
285.65598
285.65598
285.65598
285.65598
285.65598
285.65598
285.65598
285.65598
285.65599
285.65599
285.65599
285.65599
285.65599
285.65599
285.65599
285.65599
285.65599
285.65599
285.65599
285.65599
285.65599
285.65599
285.65599
285.656
285.656
285.656
285.656
285.656
285.656
285.656
285.656
285.656
285.656
285.656
285.656
285.656
285.656
285.656
285.656
285.656
285.656
285.656
285.656
285.656
285.656
285.656
285.656
285.656
285.656
285.656
285.656
285.656
285.656
285.656
285.65599
285.65599
285.65599
285.65599
285.65599
285.65599
285.65599
285.65599
285.65599
285.65598
285.65598
285.65598
285.65598
285.65598
285.65598
285.65597
285.65597
285.65597
285.65597
285.65597
285.65596
285.65596
285.65596
285.65596
285.65595
285.65595
285.65595
285.65594
285.65594
285.65594
285.65593
285.65593
285.65592
285.65592
285.65591
285.65591
285.6559
285.6559
285.65589
285.65589
285.65588
285.65588
285.65587
285.65586
285.65586
285.65585
285.65584
285.65584
285.65583
285.65582
285.65581
285.6558
285.65579
285.65579
285.65578
285.65577
285.65576
285.65575
285.65573
285.65572
285.65571
285.6557
285.65569
285.65568
285.65566
285.65565
285.65564
285.65562
285.65561
285.65559
285.65558
285.65556
285.65554
285.65552
285.65551
285.65549
285.65547
285.65545
285.65543
285.65541
285.65539
285.65536
285.65534
285.65532
285.6553
285.65527
285.65525
285.65522
285.65519
285.65516
285.65514
285.65511
285.65508
285.65505
285.65502
285.65498
285.65495
285.65492
285.65488
285.65485
285.65481
285.65477
285.65473
285.65469
285.65465
285.65461
285.65457
285.65452
285.65448
285.65443
285.65439
285.65434
285.65429
285.65424
285.65419
285.65413
285.65408
285.65402
285.65397
285.65391
285.65385
285.65379
285.65372
285.65366
285.65359
285.65353
285.65346
285.65339
285.65332
285.65325
285.65317
285.65309
285.65302
285.65294
285.65286
285.65277
285.65269
285.6526
285.65252
285.65243
285.65233
285.65224
285.65215
285.65205
285.65195
285.65185
285.65175
285.65164
285.65153
285.65142
285.65131
285.6512
285.65108
285.65096
285.65084
285.65072
285.6506
285.65047
285.65034
285.65021
285.65007
285.64994
285.6498
285.64966
285.64951
285.64937
285.64922
285.64907
285.64891
285.64876
285.6486
285.64844
285.64827
285.64811
285.64794
285.64776
285.64759
285.64741
285.64723
285.64705
285.64686
285.64667
285.64648
285.64629
285.64609
285.64589
285.64568
285.64548
285.64527
285.64505
285.64484
285.64462
285.64439
285.64417
285.64394
285.64371
285.64347
285.64323
285.64299
285.64275
285.6425
285.64225
285.64199
285.64173
285.64147
285.64121
285.64094
285.64067
285.64039
285.64011
285.63983
285.63955
285.63926
285.63897
285.63867
285.63837
285.63807
285.63776
285.63745
285.63714
285.63682
285.6365
285.63617
285.63585
285.63551
285.63518
285.63484
285.6345
285.63415
285.6338
285.63345
285.63309
285.63273
285.63237
285.632
285.63162
285.63125
285.63087
285.63049
285.6301
285.62971
285.62932
285.62892
285.62852
285.62811
285.6277
285.62729
285.62687
285.62645
285.62603
285.6256
285.62517
285.62473
285.6243
285.62385
285.62341
285.62296
285.62251
285.62205
285.62159
285.62112
285.62066
285.62019
285.61971
285.61923
285.61875
285.61826
285.61777
285.61728
285.61678
285.61629
285.61578
285.61528
285.61476
285.61425
285.61373
285.61321
285.61269
285.61216
285.61163
285.6111
285.61056
285.61002
285.60948
285.60893
285.60838
285.60783
285.60727
285.60671
285.60614
285.60558
285.60501
285.60444
285.60386
285.60328
285.6027
285.60212
285.60153
285.60094
285.60034
285.59975
285.59915
285.59855
285.59794
285.59734
285.59673
285.59611
285.5955
285.59488
285.59426
285.59363
285.59301
285.59238
285.59175
285.59111
285.59048
285.58984
285.5892
285.58856
285.58791
285.58727
285.58662
285.58597
285.58531
285.58466
285.584
285.58334
285.58268
285.58201
285.58135
285.58068
285.58001
285.57934
285.57866
285.57799
285.57731
285.57664
285.57596
285.57527
285.57459
285.57391
285.57322
285.57253
285.57185
285.57116
285.57046
285.56977
285.56908
285.56838
285.56769
285.56699
285.56629
285.56559
285.56489
285.56419
285.56349
285.56278
285.56208
285.56137
285.56067
285.55996
285.55925
285.55855
285.55784
285.55713
285.55642
285.55571
285.555
285.55429
285.55358
285.55287
285.55215
285.55144
285.55073
285.55002
285.54931
285.54859
285.54788
285.54717
285.54646
285.54574
285.54503
285.54432
285.54361
285.54289
285.54218
285.54147
285.54076
285.54005
285.53934
285.53863
285.53792
285.53721
285.5365
285.53579
285.53509
285.53438
285.53368
285.53297
285.53227
285.53156
285.53086
285.53016
285.52946
285.52876
285.52806
285.52736
285.52667
285.52597
285.52528
285.52458
285.52389
285.5232
285.52251
285.52182
285.52114
285.52045
285.51976
285.51908
285.5184
285.51772
285.51704
285.51636
285.51569
285.51501
285.51434
285.51367
285.513
285.51233
285.51167
285.511
285.51034
285.50968
285.50902
285.50836
285.50771
285.50705
285.5064
285.50575
285.50511
285.50446
285.50382
285.50317
285.50254
285.5019
285.50126
285.50063
285.5
285.49937
285.49874
285.49812
285.49749
285.49687
285.49626
285.49564
285.49503
285.49441
285.4938
285.4932
285.49259
285.49199
285.49139
285.49079
285.4902
285.4896
285.48901
285.48843
285.48784
285.48726
285.48668
285.4861
285.48552
285.48495
285.48438
285.48381
285.48324
285.48268
285.48211
285.48156
285.481
285.48045
285.47989
285.47935
285.4788
285.47826
285.47772
285.47718
285.47664
285.47611
285.47558
285.47505
285.47452
285.474
285.47348
285.47296
285.47245
285.47193
285.47142
285.47092
285.47041
285.46991
285.46941
285.46891
285.46842
285.46792
285.46744
285.46695
285.46646
285.46598
285.4655
285.46503
285.46455
285.46408
285.46361
285.46314
285.46268
285.46222
285.46176
285.4613
285.46085
285.4604
285.45995
285.4595
285.45906
285.45862
285.45818
285.45775
285.45731
285.45688
285.45645
285.45603
285.4556
285.45518
285.45476
285.45435
285.45393
285.45352
285.45311
285.45271
285.4523
285.4519
285.4515
285.45111
285.45071
285.45032
285.44993
285.44954
285.44916
285.44878
285.4484
285.44802
285.44764
285.44727
285.4469
285.44653
285.44617
285.4458
285.44544
285.44508
285.44473
285.44437
285.44402
285.44367
285.44332
285.44298
285.44263
285.44229
285.44195
285.44162
285.44128
285.44095
285.44062
285.44029
285.43997
285.43964
285.43932
285.439
285.43869
285.43837
285.43806
285.43775
285.43744
285.43713
285.43683
285.43653
285.43623
285.43593
285.43563
285.43534
285.43505
285.43476
285.43447
285.43418
285.4339
285.43362
285.43334
285.43306
285.43279
285.43251
285.43224
285.43197
285.4317
285.43144
285.43118
285.43091
285.43065
285.4304
285.43014
285.42989
285.42964
285.42939
285.42914
285.42889
285.42865
285.42841
285.42817
285.42793
285.42769
285.42746
285.42722
285.42699
285.42676
285.42654
285.42631
285.42609
285.42586
285.42564
285.42543
285.42521
285.42499
285.42478
285.42457
285.42436
285.42415
285.42395
285.42374
285.42354
285.42334
285.42314
285.42295
285.42275
285.42256
285.42237
285.42218
285.42199
285.4218
285.42162
285.42144
285.42125
285.42107
285.4209
285.42072
285.42055
285.42037
285.4202
285.42003
285.41986
285.4197
285.41953
285.41937
285.41921
285.41905
285.41889
285.41873
285.41858
285.41842
285.41827
285.41812
285.41797
285.41783
285.41768
285.41754
285.41739
285.41725
285.41711
285.41698
285.41684
285.4167
285.41657
285.41644
285.41631
285.41618
285.41605
285.41593
285.4158
285.41568
285.41556
285.41544
285.41532
285.4152
285.41508
285.41497
285.41486
285.41474
285.41463
285.41452
285.41442
285.41431
285.4142
285.4141
285.414
285.41389
285.41379
285.4137
285.4136
285.4135
285.41341
285.41331
285.41322
285.41313
285.41304
285.41295
285.41287
285.41278
285.41269
285.41261
285.41253
285.41245
285.41236
285.41228
285.41221
285.41213
285.41205
285.41198
285.4119
285.41183
285.41176
285.41169
285.41162
285.41155
285.41148
285.41142
285.41135
285.41129
285.41122
285.41116
285.4111
285.41104
285.41098
285.41092
285.41087
285.41081
285.41075
285.4107
285.41064
285.41059
285.41054
285.41049
285.41044
285.41039
285.41034
285.41029
285.41024
285.4102
285.41015
285.41011
285.41006
285.41002
285.40998
285.40994
285.4099
285.40986
285.40982
285.40978
285.40974
285.4097
285.40967
285.40963
285.4096
285.40956
285.40953
285.4095
285.40947
285.40943
285.4094
285.40937
285.40934
285.40931
285.40929
285.40926
285.40923
285.4092
285.40918
285.40915
285.40913
285.4091
285.40908
285.40905
285.40903
285.40901
285.40899
285.40896
285.40894
285.40892
285.4089
285.40888
285.40886
285.40885
285.40883
285.40881
285.40879
285.40878
285.40876
285.40874
285.40873
285.40871
285.4087
285.40868
285.40867
285.40866
285.40864
285.40863
285.40862
285.40861
285.40859
285.40858
285.40857
285.40856
285.40855
285.40854
285.40853
285.40852
285.40851
285.4085
285.40849
285.40848
285.40848
285.40847
285.40846
285.40845
285.40845
285.40844
285.40843
285.40843
285.40842
285.40841
285.40841
285.4084
285.4084
285.40839
285.40839
285.40838
285.40838
285.40838
285.40837
285.40837
285.40836
285.40836
285.40836
285.40836
285.40835
285.40835
285.40835
285.40835
285.40834
285.40834
285.40834
285.40834
285.40834
285.40833
285.40833
285.40833
285.40833
285.40833
285.40833
285.40833
285.40833
285.40833
285.40833
285.40833
285.40833
285.40833
285.40833
285.40833
285.40833
285.40833
285.40833
285.40833
285.40833
285.40833
285.40833
285.40833
285.40834
285.40834
285.40834
285.40834
285.40834
285.40834
285.40834
285.40835
285.40835
285.40835
285.40835
285.40835
285.40835
285.40836
285.40836
285.40836
285.40836
285.40836
285.40837
285.40837
285.40837
285.40838
285.40838
285.40838
285.40839
285.40839
285.40839
285.40839
285.4084
285.4084
285.4084
285.40841
285.40841
285.40841
285.40842
285.40842
285.40842
285.40843
285.40843
285.40843
285.40844
285.40844
285.40844
285.40845
285.40845
285.40845
285.40846
285.40846
285.40846
285.40847
285.40847
285.40847
285.40848
285.40848
285.40849
285.40849
285.40849
285.4085
285.4085
285.40851
285.40851
285.40851
285.40852
285.40852
285.40853
285.40853
285.40853
285.40854
285.40854
285.40855
285.40855
285.40855
285.40856
285.40856
285.40857
285.40857
285.40857
285.40858
285.40858
285.40859
285.40859
285.4086
285.4086
285.40861
285.40861
285.40861
285.40862
285.40862
285.40863
285.40863
285.40864
285.40864
285.40864
285.40865
285.40865
285.40866
285.40866
285.40867
285.40867
285.40867
285.40868
285.40868
285.40869
285.40869
285.4087
285.4087
285.40871
285.40871
285.40871
285.40872
285.40872
285.40873
285.40873
285.40874
285.40874
285.40875
285.40875
285.40876
285.40876
285.40877
285.40877
285.40878
285.40878
285.40879
285.40879
285.4088
285.4088
285.40881
285.40881
285.40882
285.40882
285.40883
285.40883
285.40883
285.40884
285.40884
285.40885
285.40885
285.40886
285.40886
285.40887
285.40887
285.40888
285.40888
285.40889
285.40889
285.4089
285.4089
285.40891
285.40891
285.40892
285.40892
285.40893
285.40893
285.40894
285.40894
285.40895
285.40895
285.40896
285.40896
285.40897
285.40897
285.40898
285.40898
285.40899
285.40899
285.409
285.40901
285.40901
285.40902
285.40902
285.40903
285.40903
285.40904
285.40904
285.40905
285.40905
285.40906
285.40906
285.40907
285.40907
285.40908
285.40909
285.40909
285.4091
285.4091
285.40911
285.40911
285.40912
285.40912
285.40913
285.40914
285.40914
285.40915
285.40915
285.40916
285.40916
285.40917
285.40917
285.40918
285.40919
285.40919
285.4092
285.4092
285.40921
285.40921
285.40922
285.40923
285.40923
285.40924
285.40924
285.40925
285.40926
285.40926
285.40927
285.40927
285.40928
285.40928
285.40929
285.4093
285.4093
285.40931
285.40931
285.40932
285.40933
285.40933
285.40934
285.40934
285.40935
285.40936
285.40936
285.40937
285.40938
285.40938
285.40939
285.4094
285.4094
285.40941
285.40942
285.40942
285.40943
285.40943
285.40944
285.40945
285.40945
285.40946
285.40947
285.40947
285.40948
285.40949
285.40949
285.4095
285.40951
285.40951
285.40952
285.40953
285.40953
285.40954
285.40955
285.40956
285.40956
285.40957
285.40957
285.40958
285.40959
285.40959
285.4096
285.40961
285.40961
285.40962
285.40963
285.40964
285.40964
285.40965
285.40966
285.40966
285.40967
285.40968
285.40968
285.40969
285.4097
285.40971
285.40971
285.40972
285.40973
285.40973
285.40974
285.40975
285.40976
285.40976
285.40977
285.40978
285.40979
285.40979
285.4098
285.40981
285.40981
285.40982
285.40983
285.40984
285.40984
285.40985
285.40986
285.40987
285.40987
285.40988
285.40989
285.4099
285.40991
285.40991
285.40992
285.40993
285.40994
285.40994
285.40995
285.40996
285.40997
285.40998
285.40998
285.40999
285.41
285.41001
285.41002
285.41003
285.41003
285.41004
285.41005
285.41006
285.41007
285.41008
285.41008
285.41009
285.4101
285.41011
285.41012
285.41012
285.41013
285.41014
285.41015
285.41016
285.41017
285.41018
285.41018
285.41019
285.4102
285.41021
285.41022
285.41023
285.41024
285.41024
285.41025
285.41026
285.41027
285.41028
285.41029
285.4103
285.41031
285.41031
285.41032
285.41033
285.41034
285.41035
285.41036
285.41037
285.41038
285.41039
285.4104
285.41041
285.41042
285.41043
285.41044
285.41045
285.41046
285.41047
285.41047
285.41048
285.41049
285.4105
285.41051
285.41052
285.41053
285.41054
285.41055
285.41056
285.41057
285.41058
285.41059
285.4106
285.41061
285.41062
285.41063
285.41064
285.41065
285.41066
285.41067
285.41068
285.41069
285.4107
285.41071
285.41072
285.41073
285.41074
285.41075
285.41077
285.41078
285.41079
285.4108
285.41081
285.41082
285.41083
285.41084
285.41085
285.41086
285.41087
285.41088
285.41089
285.4109
285.41091
285.41092
285.41094
285.41095
285.41096
285.41097
285.41098
285.41099
285.411
285.41102
285.41103
285.41104
285.41105
285.41107
285.41108
285.41109
285.4111
285.41111
285.41112
285.41114
285.41115
285.41116
285.41117
285.41118
285.41119
285.41121
285.41122
285.41123
285.41124
285.41126
285.41127
285.41128
285.41129
285.41131
285.41132
285.41133
285.41135
285.41136
285.41137
285.41138
285.4114
285.41141
285.41142
285.41144
285.41145
285.41146
285.41148
285.41149
285.4115
285.41152
285.41153
285.41154
285.41156
285.41157
285.41159
285.4116
285.41161
285.41163
285.41164
285.41166
285.41167
285.41168
285.4117
285.41171
285.41173
285.41174
285.41176
285.41177
285.41179
285.4118
285.41181
285.41183
285.41184
285.41186
285.41187
285.41189
285.41191
285.41192
285.41194
285.41195
285.41197
285.41198
285.412
285.41201
285.41203
285.41205
285.41206
285.41208
285.41209
285.41211
285.41213
285.41214
285.41216
285.41218
285.41219
285.41221
285.41223
285.41224
285.41226
285.41228
285.4123
285.41231
285.41233
285.41235
285.41237
285.41238
285.4124
285.41242
285.41244
285.41245
285.41247
285.41249
285.41251
285.41252
285.41254
285.41256
285.41258
285.4126
285.41262
285.41263
285.41265
285.41267
285.41269
285.41271
285.41273
285.41275
285.41277
285.41279
285.41281
285.41283
285.41285
285.41287
285.41289
285.41291
285.41293
285.41295
285.41297
285.41299
285.41302
285.41304
285.41306
285.41308
285.4131
285.41312
285.41314
285.41317
285.41319
285.41321
285.41323
285.41325
285.41327
285.4133
285.41332
285.41334
285.41336
285.41339
285.41341
285.41343
285.41346
285.41348
285.41351
285.41353
285.41356
285.41358
285.41361
285.41363
285.41366
285.41368
285.41371
285.41373
285.41376
285.41378
285.41381
285.41384
285.41386
285.41389
285.41391
285.41394
285.41397
285.41399
285.41402
285.41405
285.41408
285.4141
285.41413
285.41416
285.41419
285.41422
285.41425
285.41428
285.41431
285.41434
285.41437
285.4144
285.41443
285.41446
285.41449
285.41452
285.41455
285.41458
285.41461
285.41464
285.41468
285.41471
285.41474
285.41477
285.4148
285.41483
285.41487
285.4149
285.41493
285.41497
285.415
285.41504
285.41507
285.41511
285.41514
285.41518
285.41522
285.41525
285.41529
285.41533
285.41537
285.4154
285.41544
285.41548
285.41552
285.41556
285.4156
285.41564
285.41568
285.41572
285.41576
285.4158
285.41584
285.41588
285.41593
285.41597
285.41601
285.41606
285.4161
285.41614
285.41619
285.41623
285.41628
285.41632
285.41637
285.41642
285.41646
285.41651
285.41656
285.41661
285.41666
285.41671
285.41676
285.41681
285.41686
285.41691
285.41696
285.41702
285.41707
285.41713
285.41718
285.41724
285.4173
285.41735
285.41741
285.41747
285.41753
285.41759
285.41765
285.41771
285.41777
285.41783
285.41789
285.41795
285.41801
285.41808
285.41814
285.4182
285.41827
285.41834
285.41841
285.41848
285.41855
285.41862
285.41869
285.41877
285.41884
285.41892
285.419
285.41908
285.41916
285.41924
285.41932
285.4194
285.41948
285.41957
285.41965
285.41974
285.41983
285.41991
285.42
285.4201
285.42019
285.42028
285.42038
285.42048
285.42058
285.42068
285.42078
285.42088
285.42099
285.42109
285.4212
285.42131
285.42142
285.42152
285.42164
285.42175
285.42186
285.42197
285.42209
285.4222
285.42232
285.42244
285.42255
285.42267
285.42279
285.4229
285.42301
285.42312
285.42323
285.42334
285.42344
285.42354
285.42364
285.42373
285.42382
285.4239
285.42397
285.42404
285.42409
285.42415
285.42419
285.42423
285.42426
285.42428
285.42429
285.4243
285.4243
285.42431
285.4243
285.4243
285.42429
285.42427
285.42425
285.42423
285.42422
285.42421
285.42421
285.4242
285.4242
285.42421
285.42422
285.42425
285.42432
285.42442
285.42454
285.42468
285.42484
285.42501
285.42521
285.42542
285.42564
285.42587
285.42612
285.42637
285.42663
285.42689
285.42715
285.4274
285.42766
285.4279
285.42814
285.42836
285.42857
285.42877
285.42894
285.42909
285.42921
285.4293
285.42937
285.42941
285.42945
285.42949
285.42957
285.42973
285.43011
285.43097
285.43307
285.43819
285.45077
285.48191
285.55823
285.74725
286.09343
286.54208
287.0893
287.72864
288.44962
289.23847
290.07894
290.95336
291.84363
292.73217
293.60271
294.44095
295.235
295.97562
296.65632
297.27321
297.82479
298.31166
298.73609
299.10169
299.41298
299.67507
299.89334
300.07319
300.21984
300.3382
300.43276
300.50755
300.56611
300.61149
300.64628
300.67267
300.69246
300.70711
300.71781
300.7255
300.73091
300.73464
300.73712
300.7387
300.73962
300.7401
300.74028
300.7403
300.74025
300.74001
300.73952
300.73904
300.73857
300.73812
300.7377
300.73729
300.73689
300.73651
300.73614
300.73577
300.7354
300.73503
300.73465
300.73426
300.73387
300.73346
300.73304
300.7326
300.73216
300.7317
300.73123
300.73075
300.73027
300.72978
300.72929
300.7288
300.72831
300.72783
300.72736
300.7269
300.72644
300.72601
300.72559
300.72518
300.72479
300.72441
300.72406
300.72372
300.72339
300.72308
300.72279
300.7225
300.72224
300.72198
300.72174
300.72151
300.72129
300.72107
300.72087
300.72067
300.72048
300.7203
300.72013
300.71996
300.71979
300.71963
300.71948
300.71933
300.71918
300.71904
300.7189
300.71876
300.71863
300.7185
300.71837
300.71824
300.71812
300.718
300.71788
300.71777
300.71765
300.71754
300.71743
300.71732
300.71721
300.71711
300.717
300.7169
300.7168
300.7167
300.71661
300.71651
300.71642
300.71632
300.71623
300.71614
300.71605
300.71596
300.71588
300.71579
300.71571
300.71562
300.71554
300.71546
300.71538
300.7153
300.71522
300.71515
300.71507
300.715
300.71492
300.71485
300.71478
300.71471
300.71464
300.71457
300.71451
300.71444
300.71437
300.71431
300.71424
300.71418
300.71412
300.71405
300.71399
300.71393
300.71387
300.71381
300.71375
300.71369
300.71363
300.71357
300.71351
300.71346
300.7134
300.71334
300.71329
300.71324
300.71318
300.71313
300.71308
300.71303
300.71297
300.71292
300.71287
300.71282
300.71277
300.71272
300.71267
300.71263
300.71258
300.71253
300.71248
300.71244
300.71239
300.71234
300.7123
300.71225
300.71221
300.71217
300.71212
300.71208
300.71204
300.712
300.71195
300.71191
300.71187
300.71183
300.71179
300.71175
300.71171
300.71167
300.71163
300.71159
300.71156
300.71152
300.71148
300.71144
300.7114
300.71137
300.71133
300.71129