/*--------------------------------*- C++ -*----------------------------------*\
  =========                 |
  \\      /  F ield         | OpenFOAM: The Open Source CFD Toolbox
   \\    /   O peration     | Website:  https://openfoam.org
    \\  /    A nd           | Version:  7
     \\/     M anipulation  |
\*---------------------------------------------------------------------------*/
FoamFile
{
    version     2.0;
    format      ascii;
    class       volScalarField;
    location    "0.00233";
    object      Uy;
}
// * * * * * * * * * * * * * * * * * * * * * * * * * * * * * * * * * * * * * //

dimensions      [0 1 -1 0 0 0 0];

internalField   nonuniform List<scalar> 
5000
(
3.7017538e-21
5.0293196e-21
0
0
-2.4337143e-21
2.6432865e-36
2.1101016e-21
0
0
-2.3970365e-21
-4.8761097e-21
2.4419097e-21
2.4333532e-21
-2.4236853e-21
0
-2.4018133e-21
-6.4840887e-51
2.3788863e-21
0
2.3738647e-21
-2.3895938e-21
-2.403967e-21
4.8058055e-21
-2.3872791e-21
-2.3721173e-21
-1.9433714e-35
2.3477683e-21
2.3520448e-21
-4.7308731e-21
4.1250291e-35
-4.1671684e-35
2.3757413e-21
4.723189e-21
-4.6959795e-21
4.0523419e-35
-2.0242777e-34
-8.0390859e-35
4.6321229e-21
-4.6434826e-21
-4.658335e-21
4.6646968e-21
-1.6015794e-34
-4.6431822e-21
2.315568e-21
6.9373291e-21
-2.3095305e-21
-2.3087572e-21
-1.5790969e-34
-4.59079e-21
0
2.2775871e-21
3.2349781e-37
-2.2732572e-21
4.5233273e-21
-7.8620237e-35
-4.4725524e-21
2.2289903e-21
-7.7284428e-35
-2.2540512e-21
0
2.2686723e-21
7.7233542e-35
6.4409766e-37
2.2668286e-21
-2.2352385e-21
7.7512212e-35
2.202177e-21
-2.1525768e-21
-2.1024173e-21
2.0792114e-21
1.9879126e-21
-1.8138741e-21
-1.972977e-21
4.6106114e-21
2.2302499e-21
-1.9477083e-21
0
2.1128241e-21
-3.093793e-37
-2.1702489e-21
2.1620487e-21
-6.1083746e-37
6.0449035e-37
2.1206806e-21
2.1478344e-21
7.5452947e-35
-2.1618068e-21
0
-2.1055962e-21
-2.1599062e-34
-7.2985428e-35
2.117436e-21
2.1333985e-21
-4.2537926e-21
-1.4598162e-34
2.0812273e-21
0
0
-2.1049615e-21
-1.4682243e-34
4.2055095e-21
-2.0784678e-21
-4.0781244e-21
0
2.0402824e-21
2.0803084e-21
-2.1041686e-21
-2.0985784e-21
0
0
2.0161798e-21
2.0108099e-21
0
-2.0664211e-21
7.2506419e-35
2.0573237e-21
-2.0371142e-21
5.7241052e-37
-6.9985117e-35
6.2684229e-52
4.0925406e-21
-8.75329e-37
-2.0323516e-21
0
-1.9771365e-21
1.9645353e-21
1.9907924e-21
-4.0464692e-21
-2.0333158e-21
4.0292632e-21
1.9908875e-21
-1.9666616e-21
-1.9533761e-21
-1.9681533e-21
0
2.0058283e-21
1.993533e-21
-1.975229e-21
-6.7806261e-35
1.9429821e-21
-1.9506694e-21
-1.9661158e-21
0
1.9656682e-21
1.948533e-21
-1.9329515e-21
1.9290436e-21
-1.1040195e-36
-1.9541939e-21
1.9467497e-21
-1.9299804e-21
1.3312502e-34
1.9033397e-21
-1.9188165e-21
1.9307571e-21
1.9275087e-21
-1.9143915e-21
0
0
-1.8843339e-21
-1.9044878e-21
1.9163787e-21
1.9077808e-21
-1.8919916e-21
-1.300836e-34
1.8666605e-21
-1.8779419e-21
-1.8897737e-21
0
1.8798458e-21
1.8663852e-21
0
-1.8619725e-21
-1.8726302e-21
0
1.8655383e-21
3.8643656e-34
-1.8535792e-21
1.8549367e-21
1.8519429e-21
-1.8443098e-21
-1.2645152e-34
1.2538679e-34
7.8168939e-37
1.842474e-21
-1.8363513e-21
-2.5292011e-34
1.2405447e-34
-1.2328825e-34
1.80588e-21
0
0
-1.8125717e-21
-1.7919368e-21
0
0
1.7999933e-21
6.5950465e-52
-1.8012698e-21
0
1.7687985e-21
-1.7688861e-21
-4.9414722e-34
3.5895902e-21
-1.7897636e-21
-3.6852044e-34
-2.5023147e-37
-1.7568124e-21
1.7695318e-21
-2.5331032e-37
-2.4618615e-34
1.2224481e-34
-1.7537247e-21
0
1.7541717e-21
1.2217638e-34
4.900925e-34
1.7560415e-21
0
-1.7474307e-21
-1.7511794e-21
0
0
0
1.7257715e-21
1.1980406e-34
-1.741965e-21
0
0
1.733057e-21
1.7273867e-21
-1.7257649e-21
-1.7272933e-21
0
1.7296919e-21
1.7324474e-21
-1.7337263e-21
-1.7268064e-21
0
1.6987296e-21
-4.7123475e-34
-1.189166e-34
1.7280647e-21
-1.7243205e-21
-1.7132638e-21
0
1.6864926e-21
-2.3623259e-34
1.714595e-21
2.3832596e-34
-3.4256009e-21
1.6968781e-21
-2.340216e-34
-5.894611e-34
-1.1829624e-34
-1.7112376e-21
1.7042751e-21
1.6826681e-21
0
-1.6839283e-21
-1.706835e-21
0
1.7088084e-21
1.6872921e-21
-3.3333197e-21
-1.6658224e-21
1.6931609e-21
1.7115773e-21
4.7459878e-34
-1.7002325e-21
1.6775075e-21
-1.1543266e-34
-1.6784649e-21
1.7038424e-21
-1.1940877e-34
1.1908724e-34
-4.8132133e-37
-1.1566471e-34
1.6688781e-21
0
0
-1.7135521e-21
-1.7064148e-21
0
0
0
0
1.7126877e-21
1.1800192e-34
-3.4026929e-21
7.224877e-37
1.7000737e-21
1.7135426e-21
-2.3811248e-34
-2.3596367e-34
-2.4020561e-37
-1.689642e-21
-1.7042521e-21
-1.7184849e-21
3.4245855e-21
5.0641861e-21
-1.6647058e-21
-3.334227e-21
0
1.7259647e-21
1.7258582e-21
-1.6996591e-21
4.6751435e-37
-6.8661752e-37
4.6565444e-37
1.6944605e-21
1.7345994e-21
-1.7485446e-21
-3.4708658e-21
1.709177e-21
4.526568e-52
1.6554356e-21
4.5834105e-34
-3.3770203e-21
0
0
3.4709056e-21
-9.5370349e-34
-3.3894712e-21
0
1.6786703e-21
1.706983e-21
-1.7303576e-21
2.4670808e-37
-2.3948363e-34
2.4242549e-37
1.6883667e-21
-1.6887603e-21
-1.7133875e-21
0
1.7322833e-21
-2.3916038e-34
-1.7025317e-21
3.3785192e-21
-4.7103907e-34
-1.7202377e-21
-4.8213034e-34
-3.4679162e-21
3.4466162e-21
1.7123411e-21
-1.7073025e-21
-2.4421554e-37
-1.7317904e-21
0
0
1.7259358e-21
-2.3896666e-34
-3.4353509e-21
2.4314071e-37
5.1334245e-21
-1.7216817e-21
-1.7326623e-21
3.4563303e-21
-1.7159083e-21
1.6998244e-21
3.3830932e-21
-1.7085513e-21
-1.7226154e-21
-1.7178772e-21
1.7046513e-21
-9.0663217e-52
-1.6649153e-21
1.6888432e-21
-1.7222305e-21
1.7342626e-21
4.7451333e-34
4.7849595e-37
1.6454954e-21
-3.2659459e-21
1.670543e-21
4.7551445e-34
-4.7937327e-34
-1.7151807e-21
-3.3834696e-21
4.9839418e-21
4.5483747e-34
-9.1540199e-34
4.6619477e-34
-3.4103085e-21
3.4143977e-21
-4.6873284e-34
-3.3257866e-21
0
0
1.6691305e-21
-2.3445121e-34
-1.6904796e-21
-1.6727664e-21
1.6395486e-21
4.8472122e-21
-1.626153e-21
-1.6609672e-21
-4.7867998e-37
-1.6823498e-21
0
3.2550049e-21
3.1994211e-21
-1.6021402e-21
-3.2704526e-21
-1.6605793e-21
3.3316854e-21
3.3106626e-21
-3.2802877e-21
-3.2534368e-21
0
3.2654828e-21
-1.6427949e-21
-3.2793769e-21
1.624906e-21
1.6113258e-21
-2.2885786e-37
2.2499914e-34
1.6290765e-21
-1.6218604e-21
-1.5993611e-21
1.5804722e-21
-2.1953646e-34
-2.282731e-37
-2.2516609e-34
-1.612309e-21
1.5897523e-21
-6.5072179e-34
-2.1548741e-34
-4.3816869e-34
-1.6033078e-21
1.6057833e-21
-2.1978555e-34
-4.2765399e-34
-2.1478524e-37
-3.0444217e-21
-1.5635794e-21
1.592232e-21
3.2011156e-21
-2.2073187e-34
-3.1370628e-21
-1.5536766e-21
3.0699296e-21
1.523098e-21
-1.5364407e-21
-1.560694e-21
-4.3693883e-34
1.5710986e-21
0
0
1.5081543e-21
0
-1.5409076e-21
1.5570321e-21
2.2079364e-37
-4.2758261e-34
0
-1.5026116e-21
1.5157825e-21
1.5357157e-21
-3.0921592e-21
-1.540357e-21
1.5214561e-21
0
0
-1.524804e-21
4.25978e-34
1.5270284e-21
0
0
-1.4957512e-21
6.339906e-34
1.5367703e-21
0
0
0
0
0
0
0
0
2.9707397e-21
8.1568856e-34
-1.4833037e-21
1.5086703e-21
-1.5237256e-21
1.5164622e-21
-4.1557781e-34
-1.4745511e-21
-4.0940538e-34
-1.5012187e-21
0
0
1.4957151e-21
4.0719935e-34
-1.4556645e-21
0
0
0
0
0
0
0
2.9785401e-21
-1.2726175e-33
-3.0727696e-21
1.5075259e-21
2.0955208e-37
1.4240474e-21
-7.8051718e-34
-2.9057116e-21
-1.4988857e-21
-1.9619559e-52
4.5583769e-21
0
-2.9479394e-21
0
0
2.9630213e-21
-4.1742219e-34
-4.527426e-21
1.4982621e-21
1.4710148e-21
-1.4515905e-21
1.4628778e-21
-1.491566e-21
-4.1923597e-34
1.5066971e-21
-1.4879039e-21
0
-1.4640446e-21
1.4847813e-21
3.0116134e-21
-1.5066454e-21
-1.4886253e-21
-1.4721753e-21
-1.4752426e-21
2.9772291e-21
1.4983067e-21
-1.4963893e-21
0
1.4543956e-21
-1.4753296e-21
-1.4948364e-21
4.4981506e-21
4.2354354e-37
-2.9007198e-21
1.4315488e-21
2.0288621e-34
1.4962229e-21
-4.2973775e-37
-3.0025563e-21
1.4700877e-21
0
-4.0186401e-34
-2.1107307e-37
-1.5095326e-21
1.5063981e-21
-4.1446718e-34
-2.0297448e-34
-2.0604129e-37
-1.477361e-21
1.4977066e-21
1.2067314e-51
-4.1329762e-34
-2.0543671e-37
-2.8552408e-21
-2.0293504e-34
1.4995582e-21
0
0
-1.4501618e-21
-5.8765309e-34
1.4286181e-21
-1.479827e-21
2.0940691e-34
4.8696955e-51
-2.0703922e-34
1.4375269e-21
1.4049452e-21
1.9889705e-34
-1.4859863e-21
0
0
1.4854909e-21
-1.4264094e-21
1.1646879e-33
1.4398008e-21
-1.4931371e-21
0
1.495301e-21
1.4731891e-21
-1.4086857e-21
-1.391072e-21
0
1.4958838e-21
1.5139208e-21
-3.0313006e-21
-1.5110227e-21
1.5091541e-21
1.5113643e-21
2.0863993e-34
1.4829758e-21
4.031862e-34
-2.826965e-21
0
0
0
1.5063636e-21
1.4904055e-21
0
-1.4261489e-21
-1.9536997e-34
1.447369e-21
0
0
-1.4649349e-21
-1.9492022e-34
1.9016283e-34
-1.4058191e-21
1.4571935e-21
-6.1513952e-34
-1.4710661e-21
0
-1.3978919e-21
-1.9040352e-34
1.4024139e-21
-1.4414941e-21
1.4589612e-21
1.4593647e-21
-1.4535952e-21
0
1.4468882e-21
1.4477954e-21
-1.4500963e-21
-1.4483454e-21
0
-1.4327874e-21
1.4235023e-21
1.4152282e-21
-1.4135972e-21
-2.8363994e-21
7.8976205e-34
4.2676068e-21
1.343419e-52
-1.4181502e-21
-2.8312613e-21
7.8403872e-34
2.8206239e-21
-1.4066246e-21
1.4027191e-21
-1.3988772e-21
-1.3952294e-21
2.783681e-21
0
0
-2.7541502e-21
-9.2311625e-52
2.7298599e-21
0
0
-2.7266267e-21
-2.1242267e-51
2.7094199e-21
0
0
-2.6844408e-21
-1.3360224e-21
2.6500445e-21
1.312016e-21
0
-2.5821478e-21
7.2115385e-34
2.6204342e-21
-1.3134612e-21
0
1.2874796e-21
-1.2707457e-21
1.7847191e-37
1.2522262e-21
-1.2608989e-21
1.2692838e-21
1.2734242e-21
-1.2693248e-21
-1.2567447e-21
3.4501382e-34
1.2289415e-21
-1.2165225e-21
-3.3652731e-34
1.2167949e-21
-1.2221653e-21
1.2243038e-21
1.2191669e-21
-1.2082125e-21
-1.1972113e-21
3.2921526e-34
1.1765297e-21
-1.1742353e-21
1.6718529e-37
1.1757347e-21
-1.1673994e-21
1.1534551e-21
1.1397179e-21
-1.1281433e-21
-2.2453329e-21
6.2465414e-34
2.2492374e-21
-1.1210959e-21
1.585038e-37
2.2185412e-21
3.1355841e-37
-1.0971106e-21
0
1.0824893e-21
0
-1.0663355e-21
0
0
0
-1.0423061e-21
-4.6870205e-52
1.0239517e-21
0
1.0005254e-21
-2.7524239e-34
-9.8580385e-22
0
0
0
-9.6535923e-22
2.6537771e-34
9.4577395e-22
0
9.2998464e-22
2.5659059e-34
-9.1888898e-22
0
8.9526483e-22
-8.8142302e-22
4.828415e-34
8.6089727e-22
-8.5747698e-22
0
-8.4861866e-22
-2.3357535e-34
8.326387e-22
0
8.1427888e-22
-8.04907e-22
-4.4227184e-34
7.8874348e-22
-4.3379331e-34
-1.0993041e-37
2.1268025e-34
-1.076132e-37
-7.4862163e-22
0
7.2899044e-22
-1.9953257e-34
-1.9697659e-34
3.5111313e-52
-1.9268479e-34
0
-1.3553669e-21
-1.8578298e-34
6.6037416e-22
-6.516849e-22
1.7844056e-34
6.341234e-22
6.25086e-22
1.710112e-34
-1.6845059e-34
5.9759669e-22
-5.8899379e-22
-5.8076503e-22
0
-5.6456326e-22
1.5455688e-34
5.4882705e-22
0
0
0
-1.0372494e-21
5.6729317e-34
1.0051163e-21
0
0
0
0
0
0
0
-8.8012072e-22
2.4010919e-34
8.4542241e-22
4.1195914e-22
-4.0188825e-22
-3.9408385e-22
1.0791802e-34
2.1278207e-34
3.7767382e-22
-3.702198e-22
3.6153039e-22
3.5264787e-22
-3.4480017e-22
-3.3843494e-22
1.8464284e-34
3.2628052e-22
3.1905221e-22
-8.6427527e-35
-3.0495502e-22
-2.9981032e-22
2.9532256e-22
2.9028109e-22
-2.8417765e-22
2.7649724e-22
0
-2.5710463e-22
-2.4957896e-22
6.8145794e-35
2.4318002e-22
-2.396552e-22
2.3435525e-22
2.2757955e-22
-2.188896e-22
2.0831651e-22
5.5183862e-35
-1.928386e-22
-1.9004008e-22
-2.6642541e-38
3.6610347e-22
9.8088364e-35
-1.6852883e-22
-1.5936053e-22
0
1.4691019e-22
0
0
0
1.2696493e-22
1.1845475e-22
-1.108247e-22
-1.0566087e-22
0
9.8293337e-23
-2.5812261e-35
-8.6000044e-23
0
0
6.0397429e-23
-3.1016339e-35
-5.2558256e-23
0
0
3.555463e-23
-1.5353584e-35
-1.8963295e-23
0
4.6903269e-24
5.9491195e-38
-1.4712806e-36
3.1804933e-36
1.8512454e-23
0
3.4456494e-23
-2.372364e-35
-5.0104262e-23
0
-6.2607974e-23
6.9257825e-23
7.6420546e-23
-1.6772658e-22
-2.5410184e-35
1.9814438e-22
-2.9706375e-35
-1.1533158e-22
0
0
-1.4367387e-22
4.2318915e-35
1.601423e-22
0
-1.7550078e-22
1.8425412e-22
1.9366916e-22
-2.0348204e-22
0
2.2348178e-22
-2.3348172e-22
-1.350465e-34
1.4027209e-34
-2.6166927e-22
2.2515039e-34
-2.7915091e-22
2.8835526e-22
-8.2760736e-35
1.7148382e-34
6.4029549e-22
-9.215417e-35
-3.451721e-22
0
0
0
7.7613285e-22
3.9590691e-22
-8.1181204e-22
-4.1846702e-22
0
0
-4.6864004e-22
4.9477321e-52
4.8866016e-22
0
1.0167326e-21
5.2254167e-22
-1.077778e-21
-5.5639384e-22
0
1.1727843e-21
1.6998088e-37
-1.8308386e-21
1.7318836e-34
1.2804034e-21
-6.5740495e-22
-3.8366184e-37
6.9133229e-22
-1.9616321e-34
-3.9944622e-34
-7.3437085e-22
0
-7.6755836e-22
4.3637702e-34
1.6086337e-21
-8.2187059e-22
1.3963804e-33
8.5571195e-22
-1.7480481e-21
1.2704821e-37
9.1497155e-22
0
0
0
9.889394e-22
-1.0088926e-21
-2.0636218e-21
1.0569617e-21
3.0058686e-34
3.0674587e-34
1.1263213e-21
0
-1.1684459e-21
1.6973672e-37
2.4462343e-21
-1.2521551e-21
-7.0978815e-34
1.3043652e-21
1.3290045e-21
-7.5336487e-34
-2.7720162e-21
0
-1.4523964e-21
-1.4855276e-21
0
1.5502072e-21
1.5835147e-21
-1.6184597e-21
0
1.6941583e-21
0
0
-1.8202212e-21
1.5517571e-33
1.9070712e-21
0
0
-2.0518637e-21
-2.1051814e-21
2.1592399e-21
2.2136122e-21
-2.2692236e-21
-2.3275077e-21
4.7782687e-21
2.4536022e-21
-7.0011735e-34
-2.5881828e-21
1.4750713e-33
1.516e-33
-2.8094029e-21
2.8885851e-21
-2.969906e-21
3.0544893e-21
2.6807504e-36
-3.2389035e-21
6.6744773e-21
3.4361272e-21
3.5347353e-21
-7.2720234e-21
-7.4897045e-21
3.8640898e-21
-3.9916191e-21
4.1210702e-21
-2.358472e-33
-8.7389273e-21
4.4970338e-21
-1.2873331e-33
1.332821e-33
4.9699073e-21
0
0
-5.4719078e-21
-5.6323959e-21
0
6.0041757e-21
6.2199204e-21
0
6.6716818e-21
-1.9137413e-33
-7.1110167e-21
7.339544e-21
-2.1043297e-33
-7.8520038e-21
0
-8.4204621e-21
-4.836339e-33
9.0038833e-21
-9.3058753e-21
2.6679732e-33
9.9576792e-21
1.030901e-20
2.9621841e-33
-1.10472e-20
0
1.1823642e-20
-1.2230425e-20
3.5960251e-36
-7.2694512e-33
-1.3543507e-20
1.4014979e-20
0
3.0028713e-20
-3.4505196e-32
-1.6082072e-20
-9.2351621e-33
-3.441947e-20
3.560445e-20
3.6835859e-20
-3.8113384e-20
-3.9432371e-20
-2.039471e-20
0
2.1815934e-20
4.5130591e-20
-3.3170666e-36
2.4143153e-20
-2.4967509e-20
-2.5815842e-20
2.6691746e-20
-5.5197011e-20
5.7073032e-20
4.9138689e-32
-6.0996509e-20
6.3043565e-20
-1.8083458e-32
3.3671567e-20
-3.4801871e-20
-3.5966968e-20
3.7165037e-20
1.0651312e-32
7.9337271e-20
-8.1964249e-20
-8.4676485e-20
8.746837e-20
1.2535723e-32
4.6640044e-20
-2.674463e-32
-4.9725741e-20
-1.4251158e-32
3.2618697e-49
-5.4745092e-20
-1.1301882e-19
5.8317099e-20
-8.1904878e-49
6.209134e-20
1.0673495e-31
-6.6125074e-20
1.3647551e-19
-3.9079557e-32
-1.4523759e-19
1.1113351e-49
7.721679e-20
0
0
8.4682971e-20
-8.7320194e-20
-1.8003706e-19
0
0
0
1.015431e-19
1.0464224e-19
0
-1.1108257e-19
1.1442143e-19
1.9627657e-31
-2.4273795e-19
0
0
0
1.3643595e-19
1.4044673e-19
-1.4456212e-19
1.4878598e-19
8.5036166e-32
-3.1511926e-19
0
0
3.4309437e-19
-5.0150256e-35
-1.8147989e-19
1.8663239e-19
-1.9190463e-19
1.9729737e-19
-1.1263647e-31
-4.1694448e-19
0
0
2.2628835e-19
2.3250489e-19
0
0
-2.5201105e-19
-2.588147e-19
0
2.7288402e-19
2.8015345e-19
-2.8758517e-19
2.9518282e-19
3.0294703e-19
-3.1087659e-19
-3.1897179e-19
1.8173422e-31
3.356778e-19
-3.4430065e-19
-9.8000538e-32
3.6209458e-19
0
3.8061433e-19
-2.1662002e-31
-3.9988348e-19
4.0980777e-19
-2.3315093e-31
-4.302427e-19
0
4.5148413e-19
-1.2840353e-31
-6.7295614e-35
4.8488697e-19
-4.9642497e-19
-5.0817235e-19
0
1.0646662e-18
-6.0506836e-31
-5.5739383e-19
-8.1037402e-35
-1.166642e-18
1.1932228e-18
1.2202563e-18
-1.2477549e-18
-6.3786332e-19
0
1.3330989e-18
-1.1342367e-30
-1.3923481e-18
0
1.4534464e-18
4.1227638e-31
-7.5824685e-19
-2.1503286e-31
-1.5815667e-18
1.6148295e-18
2.0588033e-30
-1.6827673e-18
1.7174798e-18
-4.8632213e-31
-1.7884948e-18
-9.1239173e-19
1.8615618e-18
9.4940872e-19
-1.9365604e-18
1.974817e-18
2.5146982e-30
-2.0529486e-18
2.0928141e-18
-2.9617135e-31
1.0870217e-18
-1.2290847e-30
-3.3859043e-18
6.3824803e-31
2.3426293e-18
-1.1930552e-18
-2.4301006e-18
1.2372937e-18
-6.9945704e-31
1.2825414e-18
1.4501146e-30
-1.3288515e-18
2.7048063e-18
-1.1460456e-30
1.5547007e-30
-7.9033471e-31
-1.4491159e-18
0
-1.4990095e-18
-1.5243474e-18
0
0
0
0
0
1.6816149e-18
1.7086867e-18
0
-1.7635447e-18
1.7913386e-18
3.0307256e-30
-3.6953715e-18
0
0
0
1.9631764e-18
1.9925925e-18
-2.0222451e-18
-2.0521407e-18
4.1645465e-18
3.5198094e-30
-4.2863866e-18
0
4.4098686e-18
3.72491e-30
-2.2675006e-18
2.2990942e-18
-2.3308934e-18
2.3628968e-18
1.3294629e-30
-4.8549956e-18
0
0
2.525767e-18
2.558881e-18
0
2.6256641e-18
7.5582405e-34
2.6931336e-18
-2.7270979e-18
-8.2836396e-18
0
-5.6598428e-18
-5.7290265e-18
0
8.8023663e-18
5.9382308e-18
-6.0084618e-18
3.0394747e-18
3.0748518e-18
-9.3310793e-18
-3.1459867e-18
-4.5214924e-34
-3.2175413e-18
3.2534568e-18
3.2894693e-18
3.325583e-18
-1.7423792e-48
3.3980944e-18
3.4344669e-18
-3.4709026e-18
0
-7.0879184e-18
-7.1611721e-18
0
3.6540217e-18
7.3816159e-18
2.0685855e-30
3.7644694e-18
7.6026834e-18
-7.6764871e-18
-7.7503442e-18
-3.9121192e-18
-3.9490743e-18
0
4.0229798e-18
1.2179771e-17
-4.0968578e-18
1.9154935e-46
1.2512019e-17
-8.4150834e-18
-4.2443786e-18
-4.28118e-18
-8.63588e-18
8.7093023e-18
4.3913069e-18
-4.4279034e-18
-4.4644392e-18
-4.5009109e-18
1.3611934e-17
4.57363e-18
-1.3829575e-17
-4.6459914e-18
4.6820289e-18
9.4359408e-18
-4.7538124e-18
4.7895479e-18
-8.0336345e-30
8.0955013e-30
1.4688116e-17
-4.9312755e-18
-4.9663732e-18
-1.0002656e-17
-5.0361383e-18
1.0141604e-17
1.4510176e-33
5.1396671e-18
-5.1738522e-18
-1.5623592e-17
1.5725097e-17
5.2753541e-18
-1.5926467e-17
0
1.6125516e-17
5.4080517e-18
-1.6322216e-17
5.4732277e-18
1.1011009e-17
3.0737614e-30
-6.1820411e-30
-5.6009271e-18
0
-1.1326805e-17
-1.1388618e-17
5.7249735e-18
5.7553776e-18
1.1571023e-17
-5.8153784e-18
-5.8449872e-18
1.1748687e-17
0
-1.1864551e-17
-1.1921657e-17
5.9890924e-18
1.2034127e-17
-3.3552922e-30
-6.0721368e-18
1.2198486e-17
-6.1260577e-18
2.0490864e-29
1.2357541e-17
-6.2046533e-18
0
-1.2510947e-17
0
1.4000925e-29
6.3293626e-18
1.2706674e-17
-1.9130911e-17
1.8190645e-33
1.2846448e-17
0
-1.2936292e-17
-6.4900957e-18
1.3023389e-17
-7.2534827e-30
-6.5538284e-18
1.3148733e-17
-6.5945513e-18
1.1012567e-29
1.3267683e-17
-6.6529404e-18
6.6716739e-18
-1.3380079e-17
-2.0124101e-17
0
2.0228707e-17
1.351956e-17
-2.0328865e-17
-1.3584843e-17
6.8081706e-18
1.3647057e-17
-6.8384965e-18
-6.8530806e-18
1.3734576e-17
-6.8811189e-18
-1.3789132e-17
6.9076193e-18
-9.8343012e-34
1.3865069e-17
1.3888811e-17
-2.0867665e-17
6.9669805e-18
1.1621411e-29
-2.0963952e-17
0
2.1022199e-17
1.4033024e-17
-7.0252308e-18
-7.0335574e-18
-7.041489e-18
0
-7.0561498e-18
3.9204333e-30
1.4138416e-17
-3.9262417e-30
-7.0807109e-18
0
-7.0906243e-18
1.418994e-17
2.1296746e-17
-1.4204949e-17
-2.1316968e-17
-7.1084557e-18
7.1108531e-18
1.4225686e-17
-7.1144333e-18
7.1156301e-18
7.1164475e-18
-1.4233789e-17
1.4233876e-17
7.1165548e-18
-2.1347302e-17
-1.4229183e-17
7.1130311e-18
2.1333272e-17
-1.5783641e-29
1.5777669e-29
7.1030197e-18
7.8816096e-30
7.0957584e-18
-7.0915663e-18
-7.0870061e-18
-7.0820828e-18
7.0767974e-18
7.0711486e-18
-2.1195408e-17
7.0587607e-18
1.4104052e-17
-2.1134815e-17
-2.0001785e-33
7.0297195e-18
-1.4043176e-17
-7.0131088e-18
0
6.9951148e-18
6.985611e-18
1.3951553e-17
-6.965612e-18
2.3163713e-29
2.0832883e-17
-6.9331433e-18
-6.9216698e-18
-6.9098795e-18
6.8977771e-18
6.8853641e-18
-2.0617925e-17
6.8596109e-18
1.3692551e-17
1.1379846e-29
6.8187115e-18
-1.3608982e-17
-2.0369944e-17
-3.7597786e-30
3.7523684e-30
9.584842e-34
6.7290923e-18
1.3426363e-17
6.6970032e-18
-2.0041677e-17
7.3978871e-30
1.3293764e-17
0
0
-6.5944615e-18
3.6504552e-30
-3.639417e-30
-6.5398445e-18
1.3042335e-17
6.5022633e-18
7.195423e-30
-6.4637863e-18
-1.9332652e-17
-6.4244314e-18
0
0
0
1.9029718e-17
1.2644895e-17
-1.8904388e-17
6.9738592e-30
1.2517862e-17
0
0
-1.2387639e-17
1.3703221e-29
6.8252081e-30
-1.2254398e-17
6.1046742e-18
1.2164001e-17
1.2118363e-17
-6.0362205e-18
-1.8039359e-17
-5.9898813e-18
0
0
0
1.7686935e-17
1.1743577e-17
-1.7543456e-17
1.2930471e-29
5.799554e-18
-8.2071495e-34
5.7508859e-18
-1.1452822e-17
6.3299156e-30
5.6771926e-18
-1.1304911e-17
0
3.110749e-30
1.1155586e-17
1.1105532e-17
-1.6583015e-17
-1.1005027e-17
5.4772975e-18
3.0255157e-30
-5.4267126e-18
1.6204048e-17
1.0751881e-17
-5.3504864e-18
-5.3249928e-18
5.2994661e-18
5.2739111e-18
-5.2483301e-18
-5.222724e-18
2.8847813e-30
-2.8698063e-30
-5.1457671e-18
0
-5.0943953e-18
1.01374e-17
1.5128997e-17
-1.0034584e-17
-9.9831662e-18
-4.9658775e-18
5.4836492e-30
9.8289901e-18
-4.8888218e-18
4.8631601e-18
4.8375103e-18
-9.6237517e-18
9.5725257e-18
4.7606756e-18
-4.7351163e-18
-9.4191705e-18
-4.6840814e-18
9.3172096e-18
-2.5704387e-30
4.6077507e-18
4.5823823e-18
-1.3671167e-17
4.5317702e-18
4.5065246e-18
-1.3443958e-17
6.3325823e-34
1.3293143e-17
4.4059896e-18
-1.3142956e-17
4.3560333e-18
1.2944724e-46
7.169714e-30
8.5629664e-18
-8.5134924e-18
-8.4641436e-18
4.2074607e-18
-4.6436674e-30
-8.3168436e-18
4.133991e-18
1.2328867e-17
4.0853204e-18
-4.0610875e-18
0
-4.0128298e-18
-7.9776046e-18
5.6343774e-34
1.1822841e-17
3.9171251e-18
-7.7867532e-18
5.4991776e-34
7.6922021e-18
-7.645142e-18
6.3274662e-30
7.5514487e-18
-1.1257238e-17
-7.4583559e-18
0
0
3.6599262e-18
1.0910962e-17
3.6141231e-18
-1.0774011e-17
3.9617222e-30
7.0920072e-18
-7.0469061e-18
-7.0019491e-18
3.4785668e-18
6.9124661e-18
-3.4339766e-18
-3.4117994e-18
1.0169105e-17
3.3676821e-18
5.5723657e-30
-1.8440521e-30
-3.3020621e-18
3.2803353e-18
-6.5173689e-18
-9.7113286e-18
0
9.5825578e-18
6.3456701e-18
-9.4546694e-18
8.8969903e-34
3.1092165e-18
-6.1763104e-18
3.0671662e-18
3.0462494e-18
3.358659e-30
-3.0046321e-18
-5.967861e-18
2.9632981e-18
5.8854675e-18
5.8444762e-18
-3.2222772e-30
-2.8814569e-18
2.8611728e-18
-5.6819159e-18
-8.4624264e-18
0
8.3421086e-18
5.5214987e-18
-8.2225929e-18
3.0215507e-30
2.7013002e-18
-2.6816154e-18
-2.6619915e-18
1.4659982e-30
5.2458635e-18
-1.44514e-30
-5.1682667e-18
2.8469889e-30
2.8256328e-30
5.0528252e-18
7.5218789e-18
-4.9764707e-18
2.7419346e-30
8.159955e-30
-2.4314422e-18
-2.4126328e-18
-4.7877632e-18
7.1255688e-18
2.3565584e-18
-4.6759795e-18
4.6389677e-18
1.3079887e-33
-6.8479482e-18
-2.2643171e-18
2.2460429e-18
6.6834871e-18
-7.3598611e-30
-4.3831768e-18
-2.1735592e-18
4.3111721e-18
6.413006e-18
-6.3594266e-18
-2.102009e-18
-2.3132652e-30
-2.0665957e-18
4.0979615e-18
-1.127594e-30
2.0139214e-18
-1.9964783e-18
6.5924149e-30
5.8853246e-18
-5.833552e-18
-5.7819616e-18
0
0
0
1.8591192e-18
5.526673e-18
1.8253952e-18
2.0078531e-30
1.791922e-18
-5.3258204e-18
-1.7586854e-18
1.7421601e-18
1.725701e-18
1.7093105e-18
-3.385975e-18
1.6767285e-18
-1.6605313e-18
5.4765912e-30
3.2566541e-18
-4.8369706e-18
-3.1927766e-18
0
3.1294531e-18
1.7196241e-30
-1.5333391e-18
4.5532423e-18
1.5022244e-18
-1.4867707e-18
0
0
-1.4408362e-18
-2.8513432e-18
3.1319162e-30
2.7911208e-18
1.3806134e-18
-1.3657398e-18
1.350941e-18
-1.3362183e-18
-7.5968927e-47
2.1768285e-30
-3.8775281e-18
0
0
2.4989964e-18
2.4706385e-18
1.2212193e-18
-1.3400024e-30
-3.5797743e-18
1.3096482e-30
2.3312501e-18
0
-2.2766444e-18
-1.1247927e-18
2.2226902e-18
-1.0979818e-18
-1.0847062e-18
3.2145572e-18
-1.0584182e-18
3.4816645e-30
2.0649388e-18
-3.0588664e-18
-2.0137241e-18
0
0
0
2.870147e-18
1.8888002e-18
-2.7965244e-18
-1.8400846e-18
0
1.7921046e-18
-9.8158675e-31
-8.7241872e-19
1.7214707e-18
-8.4914503e-19
8.3765182e-19
8.2625574e-19
-2.4448599e-18
1.6074831e-18
1.5852398e-18
-7.8158892e-19
7.7065025e-19
-1.519614e-18
-2.2471833e-18
0
2.1835727e-18
1.4347942e-18
-7.0703007e-19
-6.9675622e-19
7.6220309e-31
-6.7648835e-19
2.2201167e-30
6.5660295e-19
3.5911905e-31
1.8592261e-48
-6.275e-19
0
-6.0856285e-19
1.1984667e-18
1.7700016e-18
-1.7426011e-18
-1.7154927e-18
0
1.1080754e-18
1.0905556e-18
-1.0732174e-18
5.280332e-19
5.1955487e-19
-1.5335234e-18
1.0057778e-18
9.8938951e-19
-4.8659067e-19
-9.5715142e-19
-4.7064993e-19
1.3884486e-18
4.5507747e-19
7.4507914e-31
-8.797647e-19
-2.4580263e-34
1.2751408e-18
-8.3552075e-19
-1.2316813e-18
-4.0344882e-19
1.1892834e-18
7.7899624e-19
-1.147975e-18
8.3473207e-31
7.3847803e-19
3.6265653e-19
-1.9769423e-31
-6.9948232e-19
3.8123856e-31
-3.371687e-19
-3.3101285e-19
9.748225e-19
3.189507e-19
3.4752309e-31
-6.1442055e-19
1.003995e-30
8.8736513e-19
-5.8040169e-19
3.1621678e-31
3.1026914e-31
6.0826435e-31
2.6864808e-19
-7.9035204e-19
2.5832794e-19
4.2169937e-31
8.2699349e-31
7.3025899e-19
-2.3860109e-19
-4.6771026e-19
2.544249e-31
-2.2457558e-19
-2.2004231e-19
4.3116301e-19
4.2238453e-19
-2.2963074e-31
-6.078624e-19
2.2023604e-31
1.943137e-19
-3.8052197e-19
1.8627722e-19
1.823606e-19
-9.9035264e-32
9.6982407e-32
-1.7098878e-19
3.3463697e-19
-1.6371207e-19
5.3353416e-31
5.2186091e-31
-4.5982879e-19
2.998328e-19
-4.166926e-35
-2.8671794e-19
1.4016501e-19
4.1109541e-19
1.3395805e-19
-3.9282215e-19
1.4207433e-31
1.2506476e-19
-2.4440164e-19
2.3877459e-19
5.8273461e-31
-1.1392319e-19
1.1127148e-19
-1.0867019e-19
2.1223458e-19
-1.0360984e-19
-3.0343947e-19
0
0
1.8808275e-19
2.6082314e-35
-1.7908335e-19
8.735748e-20
2.5564122e-19
8.3109719e-20
-2.4314227e-19
-2.2461368e-35
-8.5541345e-32
-1.5024004e-19
2.1967854e-19
3.5656232e-31
-6.9549533e-20
6.7765054e-20
6.6018778e-20
-7.1432178e-32
-6.2642167e-20
1.2201831e-19
-1.188212e-19
1.9264665e-31
1.1261697e-19
-1.6441847e-19
-1.0667739e-19
5.1905549e-20
1.5151595e-19
4.9136413e-20
-4.7796256e-20
0
4.5198208e-20
-4.3943875e-20
-1.281612e-19
-2.305033e-32
8.0723392e-20
-3.922075e-20
-3.810568e-20
7.403764e-20
-3.5953292e-20
3.4912644e-20
6.7800188e-20
-9.8738968e-20
1.0640444e-31
-6.8852402e-32
-6.0172256e-20
5.8378185e-20
2.8315419e-20
2.746428e-20
2.9589688e-32
-2.5820416e-20
5.0053427e-20
-4.8508963e-20
-7.0512369e-20
0
2.2066804e-20
-1.1864475e-32
-5.8819619e-36
6.0093452e-20
1.9385608e-20
-5.6280301e-20
1.8154111e-20
3.0091718e-48
-5.098467e-20
1.6435693e-20
4.7663869e-20
1.5353855e-20
-2.9670755e-20
1.433292e-20
-1.3846271e-20
4.4543801e-32
2.5833909e-20
-3.7414685e-20
-1.336972e-32
5.1575036e-32
-2.2400738e-20
2.1600925e-20
1.1560718e-32
-1.0039653e-20
1.9356692e-20
9.3282773e-21
0
0
-1.665528e-20
1.7792695e-32
4.3831916e-36
8.2367811e-33
7.1388268e-21
6.8668048e-21
-6.6007763e-21
-6.3408257e-21
1.2177836e-20
-1.1692544e-20
6.2313686e-33
1.0778455e-20
-1.0347272e-20
-1.6533013e-32
5.2843366e-33
-4.5621284e-21
8.7430584e-21
-4.1885388e-21
8.910169e-33
7.6877243e-21
0
-7.0410217e-21
-3.3672186e-21
6.4406689e-21
3.0801114e-21
-2.9456824e-21
4.68887e-33
2.6883526e-21
0
0
-4.6759748e-21
-4.4665971e-21
0
4.0716529e-21
1.9401893e-21
-1.8480078e-21
1.7604757e-21
-1.6782401e-21
0
3.0585748e-21
0
0
-1.3224251e-21
1.3981004e-33
1.2007467e-21
0
-1.0966115e-21
-5.813299e-34
9.9859261e-22
0
-1.8164394e-21
-1.7365694e-21
8.3284844e-22
8.8895781e-34
-7.6942603e-22
1.4747046e-21
1.4115115e-21
-1.3532456e-21
-1.8502594e-37
-1.3969613e-33
-1.7362029e-37
1.1886272e-21
-5.7690192e-22
6.1979721e-34
-5.402502e-22
5.2505014e-22
1.5393619e-21
-1.5123701e-21
-4.9719671e-22
4.9028878e-22
5.3525123e-34
4.7382709e-22
-9.3429859e-22
-9.2599711e-22
9.2246856e-22
1.5353797e-33
4.6090954e-22
4.5953954e-22
-9.1504093e-22
4.5677714e-22
-5.0845118e-34
2.5617704e-34
-4.6549874e-22
-9.3812517e-22
9.4319203e-22
9.4853893e-22
0
-4.8419631e-22
-5.4556843e-34
9.9612921e-22
5.577612e-34
-1.5157998e-21
-1.0182431e-21
0
1.0471251e-21
1.1837579e-33
5.4240903e-22
5.4850053e-22
-1.6552857e-21
3.081402e-34
1.1217277e-21
-5.6858542e-22
-1.1547438e-21
5.857833e-22
1.1844915e-21
5.9678123e-22
0
-1.2131597e-21
6.1288251e-22
1.8571579e-21
-6.2363737e-22
-6.2707742e-22
-1.2617726e-21
-6.3531278e-22
1.2807847e-21
6.453781e-22
6.4800447e-22
-7.1976027e-34
-6.4867235e-22
-6.5020829e-22
-1.3064745e-21
-6.5706975e-22
0
0
0
1.3054929e-21
1.3034013e-21
-1.304555e-21
-7.2567365e-34
-7.2552461e-34
7.2084493e-34
1.4272149e-33
-1.2734508e-21
0
1.259816e-21
6.2813395e-22
-6.2495033e-22
6.17882e-22
6.0798339e-22
0
0
-1.1708962e-21
1.9338737e-33
1.2765247e-33
-1.1306162e-21
1.1048485e-21
1.0794279e-21
0
-1.0392346e-21
5.6792247e-34
1.0067253e-21
-9.8341976e-22
-5.2945787e-34
9.2323026e-22
0
-8.7253169e-22
-4.2608463e-22
8.3083285e-22
-4.0100331e-22
-8.5091825e-34
7.3031796e-22
-6.9855734e-22
-6.7148471e-22
0
0
0
5.5944315e-22
5.1750643e-22
-4.7937586e-22
0
4.1889734e-22
0
1.8596261e-22
-3.39816e-22
-1.4964157e-22
1.2850705e-22
-2.1778858e-22
-9.1532557e-23
1.5194933e-22
6.1743632e-23
5.3694423e-35
-3.3989674e-23
3.7553739e-35
1.2933775e-39
4.4051024e-23
0
-5.8041071e-23
-1.458538e-22
-8.5632183e-23
0
0
0
-1.4952827e-22
3.3572358e-22
1.8435837e-22
-1.9810886e-22
-2.0938284e-22
2.2060192e-22
2.3366544e-22
-4.9732505e-22
0
5.6298353e-22
5.9271541e-22
0
0
-6.5766012e-22
-3.7708488e-34
-3.5143573e-22
-3.6416189e-22
3.7757255e-22
-3.9031618e-22
4.0067146e-22
8.1724531e-22
4.1615683e-22
0
-8.6561289e-22
-4.9112874e-34
4.5347408e-22
-4.6364277e-22
-4.7078413e-22
-9.5133808e-22
9.6151559e-22
4.8585582e-22
-1.3962795e-37
4.9879473e-22
-1.0148114e-21
5.138701e-22
-5.170537e-22
6.2680199e-51
5.2179595e-22
-1.0486154e-21
1.0568814e-21
1.0675972e-21
0
-5.3997901e-22
-1.0815388e-21
3.0042633e-34
5.4172966e-22
5.4385838e-22
-1.0923039e-21
-1.0920406e-21
5.4460257e-22
1.0843346e-21
1.0795816e-21
-5.4057579e-22
-1.0869595e-21
5.4404335e-22
-5.4010863e-22
8.90957e-34
5.2927056e-22
-1.0484703e-21
1.0479045e-21
5.8440388e-34
-2.9259929e-33
1.0474303e-21
-1.0365761e-21
-2.2751351e-33
5.0664949e-22
-1.0051413e-21
5.0080748e-22
-1.4182909e-37
2.1996525e-33
4.9036688e-22
-9.6955836e-22
1.0644468e-33
-2.6350238e-34
4.7063384e-22
-1.3227999e-37
-9.1780974e-22
9.0460545e-22
2.5407668e-37
-1.9704968e-33
8.797235e-22
-8.678697e-22
-9.4706238e-34
8.3645129e-22
-4.1086815e-22
-4.063586e-22
-4.0445018e-22
4.0255313e-22
-4.415761e-34
-7.791664e-22
0
0
7.3423506e-22
1.0340518e-37
-7.2400634e-22
3.5967968e-22
-3.9408112e-34
3.481023e-22
7.5649229e-34
-6.6803527e-22
0
-3.2441676e-22
6.4416812e-22
3.2012122e-22
-7.0254548e-34
3.1026988e-22
-6.0738912e-22
2.9776249e-22
-3.2564607e-34
-5.8258186e-22
0
0
2.8435391e-22
-1.5461892e-34
2.7299819e-22
-2.6911375e-22
-8.0195746e-22
8.0135375e-22
2.6610909e-22
-5.2660163e-22
2.5946222e-22
4.2588817e-34
2.534998e-22
-1.4371733e-37
-8.4046456e-34
2.504638e-22
-4.9352665e-22
-2.428898e-22
0
-2.4153451e-22
2.439697e-22
2.4546885e-22
2.4358865e-22
-5.2928807e-34
2.5919373e-34
-2.568049e-34
-4.6574243e-22
2.3735483e-22
4.0227184e-34
-4.8600457e-22
3.4139541e-38
2.3541585e-22
4.6413705e-22
4.6241249e-22
-4.6622593e-22
-2.6338428e-34
-2.4104629e-22
-2.4360519e-22
4.8721493e-22
-4.8260472e-22
-2.3875215e-22
7.121001e-22
4.7547165e-22
-2.4019213e-22
-4.8814315e-22