/*--------------------------------*- C++ -*----------------------------------*\
  =========                 |
  \\      /  F ield         | OpenFOAM: The Open Source CFD Toolbox
   \\    /   O peration     | Website:  https://openfoam.org
    \\  /    A nd           | Version:  7
     \\/     M anipulation  |
\*---------------------------------------------------------------------------*/
FoamFile
{
    version     2.0;
    format      ascii;
    class       surfaceScalarField;
    location    "0.00337";
    object      phi;
}
// * * * * * * * * * * * * * * * * * * * * * * * * * * * * * * * * * * * * * //

dimensions      [1 0 -1 0 0 0 0];

internalField   nonuniform List<scalar> 
4999
(
1.2358247
1.2358247
1.2358247
1.2358247
1.2358247
1.2358247
1.2358247
1.2358247
1.2358247
1.2358247
1.2358247
1.2358247
1.2358247
1.2358246
1.2358246
1.2358246
1.2358246
1.2358246
1.2358246
1.2358246
1.2358246
1.2358246
1.2358246
1.2358246
1.2358246
1.2358246
1.2358245
1.2358245
1.2358245
1.2358245
1.2358245
1.2358245
1.2358245
1.2358245
1.2358245
1.2358245
1.2358245
1.2358245
1.2358245
1.2358245
1.2358244
1.2358244
1.2358244
1.2358244
1.2358244
1.2358244
1.2358244
1.2358244
1.2358244
1.2358244
1.2358244
1.2358244
1.2358244
1.2358244
1.2358243
1.2358243
1.2358243
1.2358243
1.2358243
1.2358243
1.2358243
1.2358243
1.2358243
1.2358243
1.2358243
1.2358243
1.2358243
1.2358243
1.2358242
1.2358242
1.2358242
1.2358242
1.2358242
1.2358242
1.2358242
1.2358242
1.2358242
1.2358242
1.2358242
1.2358242
1.2358242
1.2358242
1.2358242
1.2358241
1.2358241
1.2358241
1.2358241
1.2358241
1.2358241
1.2358241
1.2358241
1.2358241
1.2358241
1.2358241
1.2358241
1.2358241
1.2358241
1.2358241
1.235824
1.235824
1.235824
1.235824
1.235824
1.235824
1.235824
1.235824
1.235824
1.235824
1.235824
1.235824
1.235824
1.235824
1.235824
1.2358239
1.2358239
1.2358239
1.2358239
1.2358239
1.2358239
1.2358239
1.2358239
1.2358239
1.2358239
1.2358239
1.2358239
1.2358239
1.2358239
1.2358239
1.2358239
1.2358239
1.2358238
1.2358238
1.2358238
1.2358238
1.2358238
1.2358238
1.2358238
1.2358238
1.2358238
1.2358238
1.2358238
1.2358238
1.2358238
1.2358238
1.2358238
1.2358238
1.2358238
1.2358238
1.2358237
1.2358237
1.2358237
1.2358237
1.2358237
1.2358237
1.2358237
1.2358237
1.2358237
1.2358237
1.2358237
1.2358237
1.2358237
1.2358237
1.2358237
1.2358237
1.2358237
1.2358237
1.2358236
1.2358236
1.2358236
1.2358236
1.2358236
1.2358236
1.2358236
1.2358236
1.2358236
1.2358235
1.2358235
1.2358235
1.2358235
1.2358235
1.2358235
1.2358234
1.2358234
1.2358234
1.2358234
1.2358233
1.2358232
1.2358228
1.2358221
1.2358205
1.2358172
1.2358122
1.2358051
1.2357952
1.235782
1.2357649
1.2357432
1.2357165
1.2356846
1.2356474
1.2356049
1.2355576
1.2355059
1.2354506
1.2353926
1.2353329
1.2352725
1.2352124
1.2351535
1.2350968
1.235043
1.2349926
1.2349461
1.2349037
1.2348656
1.2348317
1.234802
1.2347762
1.2347541
1.2347353
1.2347195
1.2347063
1.2346955
1.2346866
1.2346795
1.2346737
1.2346692
1.2346656
1.2346627
1.2346605
1.2346588
1.2346576
1.2346566
1.2346558
1.2346552
1.2346548
1.2346545
1.2346543
1.2346541
1.234654
1.2346539
1.2346538
1.2346537
1.2346537
1.2346537
1.2346536
1.2346536
1.2346536
1.2346536
1.2346536
1.2346536
1.2346536
1.2346535
1.2346535
1.2346535
1.2346535
1.2346535
1.2346535
1.2346535
1.2346535
1.2346535
1.2346535
1.2346535
1.2346534
1.2346534
1.2346534
1.2346534
1.2346534
1.2346534
1.2346534
1.2346534
1.2346534
1.2346534
1.2346534
1.2346534
1.2346533
1.2346533
1.2346533
1.2346533
1.2346533
1.2346533
1.2346533
1.2346533
1.2346533
1.2346533
1.2346533
1.2346532
1.2346532
1.2346532
1.2346532
1.2346532
1.2346532
1.2346532
1.2346532
1.2346532
1.2346532
1.2346532
1.2346531
1.2346531
1.2346531
1.2346531
1.2346531
1.2346531
1.2346531
1.2346531
1.2346531
1.2346531
1.2346531
1.234653
1.234653
1.234653
1.234653
1.234653
1.234653
1.234653
1.234653
1.234653
1.234653
1.234653
1.234653
1.2346529
1.2346529
1.2346529
1.2346529
1.2346529
1.2346529
1.2346529
1.2346529
1.2346529
1.2346529
1.2346529
1.2346528
1.2346528
1.2346528
1.2346528
1.2346528
1.2346528
1.2346528
1.2346528
1.2346528
1.2346528
1.2346528
1.2346527
1.2346527
1.2346527
1.2346527
1.2346527
1.2346527
1.2346527
1.2346527
1.2346527
1.2346527
1.2346527
1.2346526
1.2346526
1.2346526
1.2346526
1.2346526
1.2346526
1.2346526
1.2346526
1.2346526
1.2346526
1.2346526
1.2346526
1.2346525
1.2346525
1.2346525
1.2346525
1.2346525
1.2346525
1.2346525
1.2346525
1.2346525
1.2346525
1.2346525
1.2346524
1.2346524
1.2346524
1.2346524
1.2346524
1.2346524
1.2346524
1.2346524
1.2346524
1.2346524
1.2346524
1.2346524
1.2346523
1.2346523
1.2346523
1.2346523
1.2346523
1.2346523
1.2346523
1.2346523
1.2346523
1.2346523
1.2346523
1.2346523
1.2346522
1.2346522
1.2346522
1.2346522
1.2346522
1.2346522
1.2346522
1.2346522
1.2346522
1.2346522
1.2346522
1.2346521
1.2346521
1.2346521
1.2346521
1.2346521
1.2346521
1.2346521
1.2346521
1.2346521
1.2346521
1.2346521
1.2346521
1.234652
1.234652
1.234652
1.234652
1.234652
1.234652
1.234652
1.234652
1.234652
1.234652
1.234652
1.234652
1.2346519
1.2346519
1.2346519
1.2346519
1.2346519
1.2346519
1.2346519
1.2346519
1.2346519
1.2346519
1.2346519
1.2346519
1.2346518
1.2346518
1.2346518
1.2346518
1.2346518
1.2346518
1.2346518
1.2346518
1.2346518
1.2346518
1.2346518
1.2346518
1.2346517
1.2346517
1.2346517
1.2346517
1.2346517
1.2346517
1.2346517
1.2346517
1.2346517
1.2346517
1.2346517
1.2346517
1.2346516
1.2346516
1.2346516
1.2346516
1.2346516
1.2346516
1.2346516
1.2346516
1.2346516
1.2346516
1.2346516
1.2346516
1.2346515
1.2346515
1.2346515
1.2346515
1.2346515
1.2346515
1.2346515
1.2346515
1.2346515
1.2346515
1.2346515
1.2346515
1.2346514
1.2346514
1.2346514
1.2346514
1.2346514
1.2346514
1.2346514
1.2346514
1.2346514
1.2346514
1.2346514
1.2346514
1.2346513
1.2346513
1.2346513
1.2346513
1.2346513
1.2346513
1.2346513
1.2346513
1.2346513
1.2346513
1.2346513
1.2346512
1.2346512
1.2346512
1.2346512
1.2346512
1.2346512
1.2346512
1.2346512
1.2346512
1.2346512
1.2346512
1.2346512
1.2346511
1.2346511
1.2346511
1.2346511
1.2346511
1.2346511
1.2346511
1.2346511
1.2346511
1.2346511
1.2346511
1.234651
1.234651
1.234651
1.234651
1.234651
1.234651
1.234651
1.234651
1.234651
1.234651
1.234651
1.234651
1.2346509
1.2346509
1.2346509
1.2346509
1.2346509
1.2346509
1.2346509
1.2346509
1.2346509
1.2346509
1.2346509
1.2346508
1.2346508
1.2346508
1.2346508
1.2346508
1.2346508
1.2346508
1.2346508
1.2346508
1.2346508
1.2346508
1.2346507
1.2346507
1.2346507
1.2346507
1.2346507
1.2346507
1.2346507
1.2346507
1.2346507
1.2346507
1.2346507
1.2346507
1.2346506
1.2346506
1.2346506
1.2346506
1.2346506
1.2346506
1.2346506
1.2346506
1.2346506
1.2346506
1.2346506
1.2346506
1.2346505
1.2346505
1.2346505
1.2346505
1.2346505
1.2346505
1.2346505
1.2346505
1.2346505
1.2346505
1.2346504
1.2346504
1.2346504
1.2346504
1.2346504
1.2346504
1.2346504
1.2346504
1.2346504
1.2346504
1.2346504
1.2346503
1.2346503
1.2346503
1.2346503
1.2346503
1.2346503
1.2346503
1.2346503
1.2346503
1.2346503
1.2346503
1.2346502
1.2346502
1.2346502
1.2346502
1.2346502
1.2346502
1.2346502
1.2346502
1.2346502
1.2346502
1.2346502
1.2346501
1.2346501
1.2346501
1.2346501
1.2346501
1.2346501
1.2346501
1.2346501
1.2346501
1.2346501
1.2346501
1.2346501
1.23465
1.23465
1.23465
1.23465
1.23465
1.23465
1.23465
1.23465
1.23465
1.23465
1.23465
1.2346499
1.2346499
1.2346499
1.2346499
1.2346499
1.2346499
1.2346499
1.2346499
1.2346499
1.2346499
1.2346499
1.2346498
1.2346498
1.2346498
1.2346498
1.2346498
1.2346498
1.2346498
1.2346498
1.2346498
1.2346498
1.2346498
1.2346497
1.2346497
1.2346497
1.2346497
1.2346497
1.2346497
1.2346497
1.2346497
1.2346497
1.2346497
1.2346497
1.2346496
1.2346496
1.2346496
1.2346496
1.2346496
1.2346496
1.2346496
1.2346496
1.2346496
1.2346496
1.2346496
1.2346495
1.2346495
1.2346495
1.2346495
1.2346495
1.2346495
1.2346495
1.2346495
1.2346495
1.2346495
1.2346495
1.2346494
1.2346494
1.2346494
1.2346494
1.2346494
1.2346494
1.2346494
1.2346494
1.2346494
1.2346494
1.2346494
1.2346493
1.2346493
1.2346493
1.2346493
1.2346493
1.2346493
1.2346493
1.2346493
1.2346493
1.2346493
1.2346493
1.2346493
1.2346492
1.2346492
1.2346492
1.2346492
1.2346492
1.2346492
1.2346492
1.2346492
1.2346492
1.2346492
1.2346492
1.2346491
1.2346491
1.2346491
1.2346491
1.2346491
1.2346491
1.2346491
1.2346491
1.2346491
1.2346491
1.2346491
1.2346491
1.234649
1.234649
1.234649
1.234649
1.234649
1.234649
1.234649
1.234649
1.234649
1.234649
1.234649
1.2346489
1.2346489
1.2346489
1.2346489
1.2346489
1.2346489
1.2346489
1.2346489
1.2346489
1.2346489
1.2346489
1.2346489
1.2346488
1.2346488
1.2346488
1.2346488
1.2346488
1.2346488
1.2346488
1.2346488
1.2346488
1.2346488
1.2346488
1.2346488
1.2346488
1.2346487
1.2346487
1.2346487
1.2346487
1.2346487
1.2346487
1.2346487
1.2346487
1.2346487
1.2346487
1.2346487
1.2346487
1.2346487
1.2346486
1.2346486
1.2346486
1.2346486
1.2346486
1.2346486
1.2346486
1.2346486
1.2346486
1.2346486
1.2346486
1.2346486
1.2346486
1.2346486
1.2346485
1.2346485
1.2346485
1.2346485
1.2346485
1.2346485
1.2346485
1.2346485
1.2346485
1.2346485
1.2346485
1.2346485
1.2346485
1.2346485
1.2346484
1.2346484
1.2346484
1.2346484
1.2346484
1.2346484
1.2346484
1.2346484
1.2346484
1.2346484
1.2346484
1.2346484
1.2346484
1.2346484
1.2346483
1.2346483
1.2346483
1.2346483
1.2346483
1.2346483
1.2346483
1.2346483
1.2346483
1.2346483
1.2346483
1.2346483
1.2346483
1.2346482
1.2346482
1.2346482
1.2346482
1.2346482
1.2346482
1.2346482
1.2346482
1.2346482
1.2346482
1.2346482
1.2346482
1.2346482
1.2346481
1.2346481
1.2346481
1.2346481
1.2346481
1.2346481
1.2346481
1.2346481
1.2346481
1.2346481
1.2346481
1.2346481
1.2346481
1.234648
1.234648
1.234648
1.234648
1.234648
1.234648
1.234648
1.234648
1.234648
1.234648
1.234648
1.234648
1.234648
1.2346479
1.2346479
1.2346479
1.2346479
1.2346479
1.2346479
1.2346479
1.2346479
1.2346479
1.2346479
1.2346479
1.2346479
1.2346479
1.2346478
1.2346478
1.2346478
1.2346478
1.2346478
1.2346478
1.2346478
1.2346478
1.2346478
1.2346478
1.2346478
1.2346478
1.2346477
1.2346477
1.2346477
1.2346477
1.2346477
1.2346477
1.2346477
1.2346477
1.2346477
1.2346477
1.2346477
1.2346476
1.2346476
1.2346476
1.2346476
1.2346476
1.2346476
1.2346476
1.2346476
1.2346476
1.2346476
1.2346476
1.2346476
1.2346475
1.2346475
1.2346475
1.2346475
1.2346475
1.2346475
1.2346475
1.2346475
1.2346475
1.2346475
1.2346475
1.2346474
1.2346474
1.2346474
1.2346474
1.2346474
1.2346474
1.2346474
1.2346474
1.2346474
1.2346474
1.2346474
1.2346473
1.2346473
1.2346473
1.2346473
1.2346473
1.2346473
1.2346473
1.2346473
1.2346473
1.2346473
1.2346473
1.2346472
1.2346472
1.2346472
1.2346472
1.2346472
1.2346472
1.2346472
1.2346472
1.2346472
1.2346472
1.2346472
1.2346471
1.2346471
1.2346471
1.2346471
1.2346471
1.2346471
1.2346471
1.2346471
1.2346471
1.2346471
1.234647
1.234647
1.234647
1.234647
1.234647
1.234647
1.234647
1.234647
1.234647
1.234647
1.234647
1.234647
1.2346469
1.2346469
1.2346469
1.2346469
1.2346469
1.2346469
1.2346469
1.2346469
1.2346469
1.2346469
1.2346468
1.2346468
1.2346468
1.2346468
1.2346468
1.2346468
1.2346468
1.2346468
1.2346468
1.2346468
1.2346468
1.2346468
1.2346467
1.2346467
1.2346467
1.2346467
1.2346467
1.2346467
1.2346467
1.2346467
1.2346467
1.2346467
1.2346467
1.2346466
1.2346466
1.2346466
1.2346466
1.2346466
1.2346466
1.2346466
1.2346466
1.2346466
1.2346466
1.2346466
1.2346465
1.2346465
1.2346465
1.2346465
1.2346465
1.2346465
1.2346465
1.2346465
1.2346465
1.2346465
1.2346465
1.2346465
1.2346464
1.2346464
1.2346464
1.2346464
1.2346464
1.2346464
1.2346464
1.2346464
1.2346464
1.2346464
1.2346464
1.2346464
1.2346464
1.2346463
1.2346463
1.2346463
1.2346463
1.2346463
1.2346463
1.2346463
1.2346463
1.2346463
1.2346463
1.2346463
1.2346462
1.2346462
1.2346462
1.2346462
1.2346462
1.2346462
1.2346462
1.2346462
1.2346462
1.2346462
1.2346462
1.2346462
1.2346462
1.2346461
1.2346461
1.2346461
1.2346461
1.2346461
1.2346461
1.2346461
1.2346461
1.2346461
1.2346461
1.2346461
1.2346461
1.2346461
1.234646
1.234646
1.234646
1.234646
1.234646
1.234646
1.234646
1.234646
1.234646
1.234646
1.234646
1.234646
1.234646
1.2346459
1.2346459
1.2346459
1.2346459
1.2346459
1.2346459
1.2346459
1.2346459
1.2346459
1.2346459
1.2346459
1.2346459
1.2346458
1.2346458
1.2346458
1.2346458
1.2346458
1.2346458
1.2346458
1.2346458
1.2346458
1.2346458
1.2346458
1.2346458
1.2346458
1.2346458
1.2346457
1.2346457
1.2346457
1.2346457
1.2346457
1.2346457
1.2346457
1.2346457
1.2346457
1.2346457
1.2346457
1.2346457
1.2346456
1.2346456
1.2346456
1.2346456
1.2346456
1.2346456
1.2346456
1.2346456
1.2346456
1.2346456
1.2346456
1.2346456
1.2346456
1.2346455
1.2346455
1.2346455
1.2346455
1.2346455
1.2346455
1.2346455
1.2346455
1.2346455
1.2346455
1.2346455
1.2346455
1.2346455
1.2346454
1.2346454
1.2346454
1.2346454
1.2346454
1.2346454
1.2346454
1.2346454
1.2346454
1.2346454
1.2346454
1.2346454
1.2346453
1.2346453
1.2346453
1.2346453
1.2346453
1.2346453
1.2346453
1.2346453
1.2346453
1.2346453
1.2346453
1.2346453
1.2346452
1.2346452
1.2346452
1.2346452
1.2346452
1.2346452
1.2346452
1.2346452
1.2346452
1.2346452
1.2346452
1.2346452
1.2346451
1.2346451
1.2346451
1.2346451
1.2346451
1.2346451
1.2346451
1.2346451
1.2346451
1.2346451
1.2346451
1.2346451
1.2346451
1.234645
1.234645
1.234645
1.234645
1.234645
1.234645
1.234645
1.234645
1.234645
1.234645
1.234645
1.234645
1.2346449
1.2346449
1.2346449
1.2346449
1.2346449
1.2346449
1.2346449
1.2346449
1.2346449
1.2346449
1.2346449
1.2346449
1.2346448
1.2346448
1.2346448
1.2346448
1.2346448
1.2346448
1.2346448
1.2346448
1.2346448
1.2346448
1.2346448
1.2346448
1.2346448
1.2346448
1.2346447
1.2346447
1.2346447
1.2346447
1.2346447
1.2346447
1.2346447
1.2346447
1.2346447
1.2346447
1.2346447
1.2346447
1.2346447
1.2346446
1.2346446
1.2346446
1.2346446
1.2346446
1.2346446
1.2346446
1.2346446
1.2346446
1.2346446
1.2346446
1.2346446
1.2346446
1.2346446
1.2346446
1.2346446
1.2346445
1.2346445
1.2346445
1.2346445
1.2346445
1.2346445
1.2346445
1.2346445
1.2346445
1.2346445
1.2346445
1.2346445
1.2346445
1.2346445
1.2346445
1.2346445
1.2346445
1.2346444
1.2346444
1.2346444
1.2346444
1.2346444
1.2346444
1.2346444
1.2346444
1.2346444
1.2346444
1.2346444
1.2346444
1.2346444
1.2346444
1.2346444
1.2346444
1.2346444
1.2346444
1.2346444
1.2346444
1.2346444
1.2346444
1.2346444
1.2346444
1.2346444
1.2346444
1.2346444
1.2346444
1.2346444
1.2346444
1.2346444
1.2346444
1.2346444
1.2346444
1.2346444
1.2346444
1.2346444
1.2346444
1.2346444
1.2346444
1.2346444
1.2346444
1.2346444
1.2346444
1.2346444
1.2346445
1.2346445
1.2346445
1.2346445
1.2346445
1.2346445
1.2346445
1.2346446
1.2346446
1.2346446
1.2346446
1.2346447
1.2346447
1.2346447
1.2346447
1.2346448
1.2346448
1.2346448
1.2346449
1.2346449
1.2346449
1.234645
1.234645
1.234645
1.2346451
1.2346451
1.2346452
1.2346452
1.2346453
1.2346453
1.2346454
1.2346455
1.2346455
1.2346456
1.2346457
1.2346457
1.2346458
1.2346459
1.234646
1.2346461
1.2346462
1.2346463
1.2346463
1.2346465
1.2346466
1.2346467
1.2346468
1.2346469
1.234647
1.2346472
1.2346473
1.2346474
1.2346476
1.2346477
1.2346479
1.234648
1.2346482
1.2346484
1.2346486
1.2346488
1.234649
1.2346492
1.2346494
1.2346496
1.2346498
1.2346501
1.2346503
1.2346506
1.2346508
1.2346511
1.2346514
1.2346517
1.234652
1.2346523
1.2346527
1.234653
1.2346534
1.2346537
1.2346541
1.2346545
1.2346549
1.2346553
1.2346558
1.2346562
1.2346567
1.2346572
1.2346577
1.2346582
1.2346588
1.2346593
1.2346599
1.2346605
1.2346611
1.2346618
1.2346624
1.2346631
1.2346638
1.2346645
1.2346653
1.2346661
1.2346669
1.2346677
1.2346686
1.2346695
1.2346704
1.2346714
1.2346724
1.2346734
1.2346744
1.2346755
1.2346766
1.2346778
1.234679
1.2346802
1.2346815
1.2346828
1.2346842
1.2346856
1.2346871
1.2346886
1.2346901
1.2346917
1.2346933
1.234695
1.2346968
1.2346986
1.2347004
1.2347024
1.2347043
1.2347064
1.2347085
1.2347106
1.2347129
1.2347152
1.2347176
1.23472
1.2347225
1.2347251
1.2347278
1.2347305
1.2347334
1.2347363
1.2347393
1.2347424
1.2347456
1.2347489
1.2347522
1.2347557
1.2347593
1.234763
1.2347668
1.2347707
1.2347747
1.2347788
1.234783
1.2347874
1.2347919
1.2347965
1.2348013
1.2348061
1.2348112
1.2348163
1.2348216
1.2348271
1.2348327
1.2348384
1.2348443
1.2348504
1.2348566
1.234863
1.2348696
1.2348764
1.2348833
1.2348905
1.2348978
1.2349053
1.234913
1.2349209
1.234929
1.2349374
1.2349459
1.2349547
1.2349637
1.2349729
1.2349824
1.2349921
1.2350021
1.2350123
1.2350228
1.2350335
1.2350445
1.2350558
1.2350674
1.2350793
1.2350914
1.2351039
1.2351166
1.2351297
1.2351431
1.2351568
1.2351708
1.2351852
1.2351999
1.235215
1.2352304
1.2352462
1.2352624
1.235279
1.2352959
1.2353132
1.235331
1.2353491
1.2353677
1.2353867
1.2354061
1.2354259
1.2354462
1.235467
1.2354882
1.2355099
1.2355321
1.2355548
1.235578
1.2356016
1.2356258
1.2356505
1.2356758
1.2357016
1.2357279
1.2357548
1.2357823
1.2358103
1.235839
1.2358682
1.2358981
1.2359285
1.2359596
1.2359913
1.2360237
1.2360567
1.2360904
1.2361248
1.2361598
1.2361955
1.236232
1.2362692
1.236307
1.2363457
1.236385
1.2364252
1.2364661
1.2365077
1.2365502
1.2365935
1.2366375
1.2366824
1.2367282
1.2367747
1.2368221
1.2368704
1.2369196
1.2369696
1.2370205
1.2370724
1.2371251
1.2371788
1.2372334
1.237289
1.2373455
1.237403
1.2374615
1.237521
1.2375814
1.2376429
1.2377054
1.2377689
1.2378335
1.2378992
1.2379659
1.2380336
1.2381025
1.2381724
1.2382435
1.2383157
1.238389
1.2384634
1.238539
1.2386157
1.2386936
1.2387727
1.238853
1.2389344
1.2390171
1.2391009
1.239186
1.2392723
1.2393599
1.2394487
1.2395387
1.23963
1.2397226
1.2398164
1.2399116
1.240008
1.2401058
1.2402048
1.2403052
1.2404068
1.2405098
1.2406142
1.2407199
1.2408269
1.2409353
1.241045
1.2411562
1.2412686
1.2413825
1.2414977
1.2416144
1.2417324
1.2418518
1.2419726
1.2420947
1.2422183
1.2423434
1.2424698
1.2425976
1.2427268
1.2428575
1.2429895
1.243123
1.2432579
1.2433943
1.243532
1.2436712
1.2438118
1.2439538
1.2440972
1.2442421
1.2443883
1.244536
1.2446851
1.2448356
1.2449875
1.2451408
1.2452955
1.2454517
1.2456092
1.2457681
1.2459284
1.24609
1.2462531
1.2464175
1.2465833
1.2467504
1.2469189
1.2470887
1.2472599
1.2474324
1.2476062
1.2477813
1.2479578
1.2481355
1.2483145
1.2484948
1.2486763
1.2488591
1.2490432
1.2492284
1.2494149
1.2496026
1.2497915
1.2499816
1.2501729
1.2503653
1.2505589
1.2507536
1.2509494
1.2511463
1.2513443
1.2515433
1.2517434
1.2519446
1.2521468
1.25235
1.2525542
1.2527593
1.2529654
1.2531725
1.2533804
1.2535893
1.253799
1.2540097
1.2542211
1.2544334
1.2546465
1.2548604
1.255075
1.2552904
1.2555065
1.2557234
1.2559409
1.256159
1.2563779
1.2565973
1.2568173
1.2570379
1.257259
1.2574807
1.2577029
1.2579256
1.2581487
1.2583723
1.2585962
1.2588206
1.2590453
1.2592704
1.2594958
1.2597215
1.2599475
1.2601737
1.2604001
1.2606267
1.2608535
1.2610804
1.2613075
1.2615347
1.2617619
1.2619892
1.2622165
1.2624437
1.262671
1.2628982
1.2631254
1.2633524
1.2635793
1.263806
1.2640326
1.264259
1.2644851
1.264711
1.2649366
1.2651619
1.2653868
1.2656115
1.2658357
1.2660595
1.2662829
1.2665059
1.2667284
1.2669503
1.2671718
1.2673927
1.2676131
1.2678328
1.2680519
1.2682704
1.2684882
1.2687054
1.2689218
1.2691375
1.2693525
1.2695666
1.26978
1.2699926
1.2702043
1.2704151
1.2706251
1.2708342
1.2710423
1.2712496
1.2714558
1.2716611
1.2718653
1.2720686
1.2722708
1.272472
1.272672
1.272871
1.2730689
1.2732656
1.2734613
1.2736557
1.273849
1.2740411
1.2742319
1.2744216
1.27461
1.2747972
1.2749831
1.2751677
1.2753511
1.2755331
1.2757138
1.2758932
1.2760712
1.2762479
1.2764233
1.2765972
1.2767698
1.276941
1.2771107
1.2772791
1.277446
1.2776115
1.2777756
1.2779382
1.2780994
1.2782591
1.2784174
1.2785741
1.2787294
1.2788833
1.2790356
1.2791864
1.2793357
1.2794836
1.2796299
1.2797747
1.279918
1.2800598
1.2802001
1.2803389
1.2804762
1.2806119
1.2807461
1.2808788
1.28101
1.2811397
1.2812678
1.2813944
1.2815196
1.2816432
1.2817653
1.2818858
1.2820049
1.2821225
1.2822386
1.2823532
1.2824663
1.2825779
1.2826881
1.2827967
1.2829039
1.2830096
1.2831139
1.2832167
1.2833181
1.2834181
1.2835166
1.2836137
1.2837093
1.2838036
1.2838964
1.2839879
1.284078
1.2841667
1.284254
1.28434
1.2844246
1.2845079
1.2845899
1.2846706
1.2847499
1.2848279
1.2849047
1.2849802
1.2850544
1.2851273
1.285199
1.2852695
1.2853387
1.2854068
1.2854736
1.2855393
1.2856037
1.2856671
1.2857292
1.2857902
1.2858501
1.2859089
1.2859665
1.2860231
1.2860786
1.286133
1.2861864
1.2862387
1.28629
1.2863403
1.2863896
1.2864379
1.2864852
1.2865315
1.2865769
1.2866213
1.2866649
1.2867075
1.2867492
1.28679
1.2868299
1.286869
1.2869072
1.2869446
1.2869811
1.2870169
1.2870518
1.2870859
1.2871193
1.2871519
1.2871838
1.2872149
1.2872453
1.2872749
1.2873039
1.2873322
1.2873598
1.2873867
1.2874129
1.2874386
1.2874635
1.2874879
1.2875117
1.2875348
1.2875574
1.2875794
1.2876008
1.2876217
1.287642
1.2876618
1.287681
1.2876998
1.287718
1.2877358
1.2877531
1.2877699
1.2877862
1.2878021
1.2878175
1.2878325
1.2878471
1.2878613
1.2878751
1.2878884
1.2879014
1.287914
1.2879262
1.2879381
1.2879496
1.2879607
1.2879716
1.2879821
1.2879922
1.2880021
1.2880116
1.2880209
1.2880298
1.2880385
1.2880469
1.288055
1.2880629
1.2880705
1.2880779
1.288085
1.2880919
1.2880985
1.2881049
1.2881111
1.2881171
1.2881229
1.2881285
1.2881339
1.2881391
1.2881441
1.2881489
1.2881536
1.2881581
1.2881624
1.2881666
1.2881706
1.2881744
1.2881782
1.2881817
1.2881852
1.2881885
1.2881917
1.2881947
1.2881976
1.2882004
1.2882032
1.2882057
1.2882082
1.2882106
1.2882129
1.2882151
1.2882172
1.2882192
1.2882211
1.288223
1.2882247
1.2882264
1.288228
1.2882296
1.2882311
1.2882325
1.2882338
1.2882351
1.2882363
1.2882375
1.2882386
1.2882396
1.2882406
1.2882416
1.2882425
1.2882433
1.2882442
1.2882449
1.2882457
1.2882464
1.288247
1.2882477
1.2882483
1.2882488
1.2882494
1.2882499
1.2882504
1.2882508
1.2882513
1.2882517
1.288252
1.2882524
1.2882527
1.2882531
1.2882534
1.2882537
1.2882539
1.2882542
1.2882544
1.2882547
1.2882549
1.2882551
1.2882553
1.2882555
1.2882557
1.2882558
1.288256
1.2882561
1.2882563
1.2882564
1.2882565
1.2882567
1.2882568
1.2882569
1.288257
1.2882571
1.2882572
1.2882573
1.2882574
1.2882575
1.2882576
1.2882577
1.2882578
1.2882579
1.288258
1.2882581
1.2882582
1.2882583
1.2882584
1.2882585
1.2882586
1.2882587
1.2882589
1.288259
1.2882591
1.2882592
1.2882593
1.2882594
1.2882595
1.2882597
1.2882598
1.2882599
1.2882601
1.2882602
1.2882604
1.2882605
1.2882607
1.2882608
1.288261
1.2882611
1.2882613
1.2882615
1.2882616
1.2882618
1.288262
1.2882622
1.2882624
1.2882626
1.2882628
1.288263
1.2882632
1.2882635
1.2882637
1.2882639
1.2882641
1.2882644
1.2882646
1.2882649
1.2882651
1.2882654
1.2882656
1.2882659
1.2882662
1.2882665
1.2882667
1.288267
1.2882673
1.2882676
1.2882679
1.2882682
1.2882685
1.2882689
1.2882692
1.2882695
1.2882698
1.2882702
1.2882705
1.2882709
1.2882712
1.2882716
1.288272
1.2882723
1.2882727
1.2882731
1.2882735
1.2882738
1.2882742
1.2882746
1.288275
1.2882754
1.2882759
1.2882763
1.2882767
1.2882771
1.2882775
1.288278
1.2882784
1.2882789
1.2882793
1.2882798
1.2882802
1.2882807
1.2882812
1.2882816
1.2882821
1.2882826
1.2882831
1.2882836
1.2882841
1.2882846
1.2882851
1.2882856
1.2882861
1.2882867
1.2882872
1.2882877
1.2882883
1.2882888
1.2882894
1.2882899
1.2882905
1.288291
1.2882916
1.2882922
1.2882927
1.2882933
1.2882939
1.2882945
1.2882951
1.2882957
1.2882963
1.2882969
1.2882975
1.2882981
1.2882987
1.2882994
1.2883
1.2883006
1.2883013
1.2883019
1.2883026
1.2883032
1.2883039
1.2883046
1.2883052
1.2883059
1.2883066
1.2883072
1.2883079
1.2883086
1.2883093
1.28831
1.2883107
1.2883114
1.2883121
1.2883129
1.2883136
1.2883143
1.2883151
1.2883158
1.2883165
1.2883173
1.288318
1.2883188
1.2883195
1.2883203
1.2883211
1.2883218
1.2883226
1.2883234
1.2883242
1.288325
1.2883258
1.2883266
1.2883274
1.2883282
1.288329
1.2883298
1.2883307
1.2883315
1.2883323
1.2883332
1.288334
1.2883348
1.2883357
1.2883365
1.2883374
1.2883383
1.2883391
1.28834
1.2883409
1.2883418
1.2883426
1.2883435
1.2883444
1.2883453
1.2883462
1.2883471
1.288348
1.288349
1.2883499
1.2883508
1.2883517
1.2883527
1.2883536
1.2883545
1.2883555
1.2883564
1.2883574
1.2883583
1.2883593
1.2883602
1.2883612
1.2883622
1.2883632
1.2883641
1.2883651
1.2883661
1.2883671
1.2883681
1.2883691
1.2883701
1.2883711
1.2883721
1.2883731
1.2883741
1.2883751
1.2883762
1.2883772
1.2883782
1.2883793
1.2883803
1.2883813
1.2883824
1.2883834
1.2883845
1.2883855
1.2883866
1.2883876
1.2883887
1.2883898
1.2883908
1.2883919
1.288393
1.2883941
1.2883951
1.2883962
1.2883973
1.2883984
1.2883995
1.2884006
1.2884017
1.2884028
1.2884039
1.288405
1.2884061
1.2884072
1.2884084
1.2884095
1.2884106
1.2884117
1.2884128
1.288414
1.2884151
1.2884162
1.2884174
1.2884185
1.2884196
1.2884208
1.2884219
1.2884231
1.2884242
1.2884254
1.2884265
1.2884277
1.2884288
1.28843
1.2884311
1.2884323
1.2884335
1.2884346
1.2884358
1.288437
1.2884381
1.2884393
1.2884405
1.2884416
1.2884428
1.288444
1.2884452
1.2884463
1.2884475
1.2884487
1.2884499
1.2884511
1.2884523
1.2884534
1.2884546
1.2884558
1.288457
1.2884582
1.2884594
1.2884606
1.2884617
1.2884629
1.2884641
1.2884653
1.2884665
1.2884677
1.2884689
1.2884701
1.2884713
1.2884724
1.2884736
1.2884748
1.288476
1.2884772
1.2884784
1.2884796
1.2884808
1.288482
1.2884831
1.2884843
1.2884855
1.2884867
1.2884879
1.2884891
1.2884903
1.2884914
1.2884926
1.2884938
1.288495
1.2884962
1.2884973
1.2884985
1.2884997
1.2885009
1.288502
1.2885032
1.2885044
1.2885055
1.2885067
1.2885079
1.288509
1.2885102
1.2885114
1.2885125
1.2885137
1.2885148
1.288516
1.2885171
1.2885183
1.2885194
1.2885206
1.2885217
1.2885229
1.288524
1.2885251
1.2885263
1.2885274
1.2885285
1.2885296
1.2885308
1.2885319
1.288533
1.2885341
1.2885352
1.2885363
1.2885374
1.2885385
1.2885396
1.2885407
1.2885418
1.2885429
1.288544
1.288545
1.2885461
1.2885472
1.2885483
1.2885493
1.2885504
1.2885515
1.2885525
1.2885536
1.2885546
1.2885557
1.2885567
1.2885577
1.2885588
1.2885598
1.2885608
1.2885618
1.2885629
1.2885639
1.2885649
1.2885659
1.2885669
1.2885679
1.2885689
1.2885698
1.2885708
1.2885718
1.2885728
1.2885737
1.2885747
1.2885757
1.2885766
1.2885776
1.2885785
1.2885794
1.2885804
1.2885813
1.2885822
1.2885831
1.2885841
1.288585
1.2885859
1.2885868
1.2885877
1.2885886
1.2885894
1.2885903
1.2885912
1.2885921
1.2885929
1.2885938
1.2885946
1.2885955
1.2885963
1.2885971
1.288598
1.2885988
1.2885996
1.2886004
1.2886012
1.288602
1.2886028
1.2886036
1.2886044
1.2886052
1.2886059
1.2886067
1.2886075
1.2886082
1.288609
1.2886097
1.2886105
1.2886112
1.2886119
1.2886127
1.2886134
1.2886141
1.2886148
1.2886155
1.2886162
1.2886169
1.2886175
1.2886182
1.2886189
1.2886195
1.2886202
1.2886208
1.2886215
1.2886221
1.2886227
1.2886234
1.288624
1.2886246
1.2886252
1.2886258
1.2886264
1.288627
1.2886276
1.2886281
1.2886287
1.2886293
1.2886298
1.2886304
1.2886309
1.2886315
1.288632
1.2886326
1.2886331
1.2886336
1.2886341
1.2886346
1.2886351
1.2886356
1.2886361
1.2886366
1.288637
1.2886375
1.288638
1.2886384
1.2886389
1.2886393
1.2886397
1.2886402
1.2886406
1.288641
1.2886414
1.2886418
1.2886422
1.2886426
1.288643
1.2886434
1.2886438
1.2886442
1.2886445
1.2886449
1.2886452
1.2886456
1.2886459
1.2886463
1.2886466
1.2886469
1.2886472
1.2886475
1.2886478
1.2886481
1.2886484
1.2886487
1.288649
1.2886493
1.2886495
1.2886498
1.2886501
1.2886503
1.2886506
1.2886508
1.288651
1.2886513
1.2886515
1.2886517
1.2886519
1.2886522
1.2886524
1.2886526
1.2886527
1.2886529
1.2886531
1.2886533
1.2886535
1.2886536
1.2886538
1.2886539
1.2886541
1.2886542
1.2886544
1.2886545
1.2886546
1.2886547
1.2886549
1.288655
1.2886551
1.2886552
1.2886553
1.2886554
1.2886554
1.2886555
1.2886556
1.2886557
1.2886557
1.2886558
1.2886558
1.2886559
1.2886559
1.288656
1.288656
1.288656
1.2886561
1.2886561
1.2886561
1.2886561
1.2886561
1.2886561
1.2886561
1.2886561
1.2886561
1.2886561
1.288656
1.288656
1.288656
1.2886559
1.2886559
1.2886558
1.2886558
1.2886557
1.2886556
1.2886556
1.2886555
1.2886554
1.2886553
1.2886552
1.2886551
1.288655
1.2886549
1.2886548
1.2886547
1.2886546
1.2886544
1.2886543
1.2886542
1.288654
1.2886539
1.2886537
1.2886536
1.2886534
1.2886532
1.288653
1.2886529
1.2886527
1.2886525
1.2886523
1.2886521
1.2886518
1.2886516
1.2886514
1.2886511
1.2886509
1.2886506
1.2886504
1.2886501
1.2886498
1.2886495
1.2886493
1.288649
1.2886487
1.2886484
1.288648
1.2886477
1.2886474
1.288647
1.2886467
1.2886463
1.288646
1.2886456
1.2886452
1.2886448
1.2886444
1.288644
1.2886436
1.2886432
1.2886428
1.2886423
1.2886419
1.2886414
1.288641
1.2886405
1.28864
1.2886395
1.2886391
1.2886386
1.2886381
1.2886376
1.2886371
1.2886365
1.288636
1.2886355
1.288635
1.2886345
1.288634
1.2886335
1.288633
1.2886325
1.288632
1.2886316
1.2886311
1.2886307
1.2886303
1.2886299
1.2886295
1.2886292
1.2886289
1.2886286
1.2886283
1.2886281
1.2886279
1.2886277
1.2886275
1.2886274
1.2886272
1.2886271
1.2886271
1.288627
1.2886269
1.2886268
1.2886268
1.2886268
1.2886267
1.2886267
1.2886266
1.2886265
1.2886263
1.2886261
1.2886259
1.2886255
1.2886251
1.2886246
1.288624
1.2886234
1.2886226
1.2886218
1.2886209
1.28862
1.2886189
1.2886179
1.2886168
1.2886156
1.2886144
1.2886131
1.2886119
1.2886107
1.2886094
1.2886081
1.2886069
1.2886057
1.2886047
1.2886038
1.2886031
1.2886024
1.2886015
1.2886005
1.2885994
1.2885984
1.2885973
1.2885961
1.288594
1.2885899
1.2885813
1.2885627
1.2885203
1.28842
1.2881853
1.28761
1.2866917
1.2854911
1.2839944
1.2822006
1.2801184
1.2777666
1.2751724
1.2723706
1.269402
1.266311
1.2631439
1.2599472
1.2567654
1.2536401
1.2506084
1.2477021
1.2449472
1.2423641
1.2399669
1.2377642
1.2357596
1.2339522
1.2323371
1.2309063
1.2296497
1.228555
1.227609
1.226798
1.226108
1.2255254
1.2250371
1.224631
1.2242956
1.2240207
1.223797
1.2236163
1.2234712
1.2233556
1.2232641
1.2231923
1.2231363
1.223093
1.2230599
1.2230348
1.2230159
1.2230016
1.222991
1.2229831
1.2229773
1.2229731
1.2229701
1.222968
1.2229665
1.2229652
1.2229645
1.2229646
1.2229648
1.222965
1.2229651
1.2229652
1.2229653
1.2229653
1.2229654
1.2229655
1.2229655
1.2229656
1.2229656
1.2229657
1.2229657
1.2229657
1.2229657
1.2229657
1.2229656
1.2229655
1.2229654
1.2229651
1.2229648
1.2229645
1.222964
1.2229635
1.2229628
1.2229621
1.2229613
1.2229603
1.2229593
1.2229581
1.2229568
1.2229554
1.2229539
1.2229522
1.2229505
1.2229486
1.2229467
1.2229446
1.2229424
1.2229401