/*--------------------------------*- C++ -*----------------------------------*\
  =========                 |
  \\      /  F ield         | OpenFOAM: The Open Source CFD Toolbox
   \\    /   O peration     | Website:  https://openfoam.org
    \\  /    A nd           | Version:  7
     \\/     M anipulation  |
\*---------------------------------------------------------------------------*/
FoamFile
{
    version     2.0;
    format      ascii;
    class       volScalarField;
    location    "0.00127";
    object      Uz;
}
// * * * * * * * * * * * * * * * * * * * * * * * * * * * * * * * * * * * * * //

dimensions      [0 1 -1 0 0 0 0];

internalField   nonuniform List<scalar> 
5000
(
0
0
0
0
0
1.9215571e-20
4.8057632e-35
-7.7780984e-20
-2.9369202e-20
6.5759019e-20
7.2931754e-20
-4.0136391e-20
3.7430773e-34
4.2082601e-34
-1.034716e-19
1.1165337e-19
-1.6499286e-48
5.6739526e-34
6.8897267e-20
-1.4710233e-19
-7.8369697e-20
0
0
9.3914876e-20
-8.483466e-34
8.6785689e-34
1.113203e-19
-1.1758862e-19
-1.2411029e-19
1.3089795e-19
-2.4115314e-33
1.2391036e-33
1.5298887e-19
-1.6097461e-19
-1.6929558e-19
0
0
1.9642417e-19
2.0624291e-19
-2.1647789e-19
3.8089831e-33
2.3826836e-19
-2.4986121e-19
4.429731e-33
2.7454009e-19
-2.8766722e-19
1.0363437e-32
-1.0808875e-32
1.1364604e-32
-5.8992842e-33
-3.6206233e-19
0
0
0
0
0
0
0
0
0
0
0
0
6.4313985e-19
6.7135098e-19
-7.0067886e-19
1.2572441e-32
-1.5546101e-48
-7.9576051e-19
0
0
9.0237144e-19
9.4067744e-19
0
-1.0217253e-18
-3.6761986e-32
1.1090183e-18
1.1551354e-18
-1.2029709e-18
-2.50516e-18
2.6080383e-18
-7.71562e-34
-4.2378617e-18
2.9398057e-18
1.5907842e-31
-3.1814825e-18
4.9632779e-18
-1.7203759e-18
-1.7886589e-18
1.8593446e-18
-1.9325039e-18
-2.0082094e-18
-7.2646042e-32
4.3351126e-18
1.558089e-31
2.3379961e-18
2.4275734e-18
8.8459806e-32
-1.8215009e-31
-5.4294415e-18
-2.8168579e-18
2.9223512e-18
-4.3077223e-34
-3.1437656e-18
0
3.3796991e-18
1.219746e-31
-3.6309111e-18
3.7624905e-18
3.8981855e-18
-8.0761952e-18
-4.1823301e-18
1.2992962e-17
4.4841758e-18
-1.3926008e-17
4.8045764e-18
4.9720076e-18
2.9242571e-33
5.3218888e-18
-1.6513697e-17
3.9800853e-31
1.1771934e-17
-1.2169852e-17
-6.2895475e-18
6.4999518e-18
-6.7162594e-18
6.9385918e-18
1.4334143e-17
-7.4018218e-18
-2.6392982e-31
-7.8906317e-18
-1.6289883e-17
8.4060227e-18
8.6740019e-18
8.9490062e-18
3.2139767e-31
3.3012195e-31
-3.4181009e-31
-2.0243664e-17
-1.0433882e-17
1.0753726e-17
2.2162986e-17
1.1417311e-17
1.1761309e-17
-8.4006667e-31
-2.4948708e-17
3.6503865e-33
-3.7578178e-33
1.6947657e-46
-1.4004194e-17
9.9924934e-31
-2.0643446e-30
-1.5246296e-17
1.5679028e-17
-1.6121309e-17
-5.7466921e-31
1.7034993e-17
-1.7506628e-17
2.5562879e-33
1.8480053e-17
0
-1.9494421e-17
-1.3853295e-30
4.1101179e-17
-2.1094607e-17
6.1531237e-33
2.2215004e-17
-2.2791575e-17
2.3379183e-17
-2.3977917e-17
1.0244835e-29
6.9929013e-30
-2.5841716e-17
5.2971559e-17
0
1.928494e-30
5.9267119e-30
-2.917794e-17
-2.9880278e-17
-2.1086504e-30
3.1320508e-17
-3.2058499e-17
-2.2565838e-30
-1.4311942e-32
-4.7586278e-30
7.0261179e-17
-3.5928807e-17
-3.6739153e-17
2.5835101e-30
-2.6463743e-30
8.1588316e-30
-2.7696416e-30
4.0973256e-17
0
0
0
0
4.5511203e-17
-9.6846416e-30
-4.741099e-17
-4.8378883e-17
4.9358719e-17
5.0350446e-17
-1.0270802e-16
-3.6243185e-30
1.1086193e-29
5.44351e-17
5.5485363e-17
-5.6547112e-17
0
-5.870473e-17
-4.138599e-30
6.0907215e-17
6.2025031e-17
-8.7951943e-30
-6.4293265e-17
1.308869e-16
-6.6604186e-17
-6.7775342e-17
6.8956788e-17
-7.0148387e-17
0
0
0
-7.5013415e-17
7.6253571e-17
1.5500594e-16
-7.8761441e-17
5.5612891e-30
-8.1304929e-17
-8.2589594e-17
1.6776526e-16
-2.4210708e-32
2.4582813e-32
-8.7810122e-17
-8.9134776e-17
1.809337e-16
-1.3046437e-32
1.9406554e-29
-9.4505562e-17
5.3239761e-29
1.3485794e-29
-9.8603676e-17
9.9981925e-17
0
1.0275544e-16
-1.0415026e-16
-1.0555017e-16
1.0695493e-16
0
1.0977812e-16
-1.1119609e-16
-1.12618e-16
3.9592661e-29
2.3094547e-16
2.3381018e-16
-3.5502137e-16
-2.3955721e-16
0
2.4532461e-16
1.2410738e-16
-1.2555431e-16
-1.2700283e-16
-1.2845273e-16
2.5980753e-16
2.6271141e-16
-1.3280831e-16
-2.6852269e-16
-3.7646667e-29
2.7433558e-16
-1.3862074e-16
1.9427863e-29
1.4152492e-16
-2.8595141e-16
1.4442531e-16
-2.0315275e-29
-1.4732009e-16
1.4876482e-16
-1.5020747e-16
3.0329567e-16
-6.3872049e-29
-3.0904164e-16
3.1190603e-16
1.0891918e-29
-1.5880773e-16
0
0
-1.630625e-16
1.6447265e-16
3.3175685e-16
-1.6727961e-16
4.7940608e-32
-1.7006745e-16
-1.7145372e-16
1.7283464e-16
0
1.7557967e-16
1.7694343e-16
0
-3.5930501e-16
-1.8099749e-16
3.6467172e-16
-1.2711049e-29
5.2577925e-32
-1.8630969e-16
-1.8761999e-16
1.8892288e-16
-1.9021818e-16
1.9150576e-16
-1.0958585e-31
-3.8811428e-16
1.9532064e-16
1.9657584e-16
1.9782258e-16
2.7609313e-29
-2.0029015e-16
0
0
2.0392477e-16
-2.8478595e-29
5.7256611e-29
2.8835502e-29
-2.0864109e-16
2.0979618e-16
-2.9976583e-32
-2.1207679e-16
0
0
0
0
0
0
0
2.2078962e-16
0
-2.2286152e-16
0
2.2488948e-16
6.2660059e-29
-2.2687282e-16
0
0
2.2976281e-16
3.203084e-29
-2.3163192e-16
0
0
2.3434788e-16
2.3522954e-16
-2.3609927e-16
-2.36957e-16
0
2.3863624e-16
-3.4028977e-32
-2.402668e-16
2.4106369e-16
2.4184824e-16
-2.4262041e-16
-2.4338014e-16
0
2.4486209e-16
2.4558422e-16
-2.4629371e-16
-2.4699053e-16
0
2.4834597e-16
2.4900449e-16
-2.4965017e-16
-2.5028296e-16
0
0
0
0
0
0
0
0
2.5539138e-16
-3.3742406e-46
-2.5638153e-16
0
0
0
2.5820144e-16
3.587045e-29
-2.5903064e-16
2.5942495e-16
-3.6071432e-29
3.6972775e-32
3.6171475e-29
-2.6086601e-16
2.6119208e-16
-2.6150441e-16
1.4546935e-28
2.620877e-16
-2.623586e-16
0
0
2.6308792e-16
3.6557019e-29
-2.6350433e-16
2.6369149e-16
2.6386459e-16
0
-2.6416844e-16
-2.6429913e-16
2.6441562e-16
7.3413759e-29
3.6821202e-48
3.6748121e-29
-2.6473889e-16
2.6478387e-16
2.9705486e-47
3.6769094e-29
2.6483222e-16
0
0
-2.6474703e-16
-3.7614581e-32
1.1010528e-28
-2.6452916e-16
0
0
2.6417871e-16
-7.3203944e-29
-2.6387096e-16
0
0
0
2.6307635e-16
-3.7351835e-32
-2.6258893e-16
2.6232257e-16
-2.6204107e-16
7.2755602e-29
5.2286502e-16
-2.6110538e-16
-1.0861304e-28
-3.6154681e-29
3.6102888e-29
2.5964381e-16
0
0
-2.5838604e-16
-3.5811826e-29
7.1457745e-29
-2.6315775e-47
2.5649205e-16
-2.5597963e-16
-2.5545158e-16
0
2.5434853e-16
3.5233922e-29
-2.5318271e-16
0
0
2.5131597e-16
-7.1242476e-32
-3.5245702e-47
2.493072e-16
-2.4860599e-16
3.434646e-29
-3.4315162e-29
6.8387403e-29
2.456428e-16
-2.4486239e-16
6.7772311e-29
-6.7581378e-29
6.7351361e-29
2.4158236e-16
-2.4072278e-16
6.660085e-29
-3.3244609e-29
0
2.3712656e-16
-2.3618813e-16
3.2659899e-29
-3.3290942e-32
3.238843e-29
-3.2282452e-29
-2.3126104e-16
2.302289e-16
2.2918128e-16
-2.2811823e-16
-2.2703982e-16
0
2.2483711e-16
2.2371295e-16
0
-2.2141936e-16
3.0579534e-29
-3.1131143e-32
-3.0217705e-29
2.1665337e-16
-2.1542514e-16
-2.9706661e-29
5.9125122e-29
2.1165393e-16
2.1036839e-16
-4.1813763e-16
2.9523809e-32
-2.8631151e-29
-2.050872e-16
2.0373284e-16
-2.8096385e-29
-2.0098425e-16
0
0
0
1.9533223e-16
1.9388799e-16
-1.9243163e-16
-1.9096335e-16
0
1.8799185e-16
1.8648906e-16
-1.8497519e-16
-1.8345049e-16
0
1.8036951e-16
1.7881373e-16
-1.7724808e-16
-4.8780851e-29
1.7408825e-16
0
0
0
0
-1.6603509e-16
4.5604007e-29
1.627585e-16
-1.6110957e-16
-2.2138598e-29
2.193028e-29
-8.148726e-47
-1.5445051e-16
-1.5277158e-16
3.0217533e-16
2.0742582e-29
-2.0486562e-29
1.4600959e-16
0
-1.4260589e-16
-1.4089966e-16
1.39191e-16
3.8136473e-29
-1.3576797e-16
0
0
1.3062494e-16
-1.7879539e-29
-1.271952e-16
0
1.2376837e-16
-1.734535e-32
3.3418153e-29
1.6455213e-29
-1.1693637e-16
1.1523527e-16
-1.6134683e-32
3.1056907e-29
1.1015504e-16
-1.0847069e-16
-2.9653887e-29
-1.4938168e-32
1.4363072e-29
1.017894e-16
-1.0013511e-16
0
5.3772079e-29
1.3206415e-29
3.8943886e-29
1.3071097e-32
9.0374474e-17
-8.8778793e-17
-3.0575325e-46
1.1887128e-29
-2.3339697e-29
1.145409e-29
-1.6191147e-16
7.9424648e-17
7.7905523e-17
1.0607197e-29
-1.0399738e-29
-1.4684625e-16
7.1955017e-17
7.0500414e-17
-6.9243069e-47
0
-6.7846533e-47
6.4822604e-17
-6.3439613e-17
-6.5663211e-47
8.4216129e-30
8.4386905e-33
5.8060654e-17
-1.1351047e-16
-1.5401787e-29
5.4192939e-17
-7.3421707e-30
7.1701982e-30
-5.0473363e-17
4.9267132e-17
2.2778664e-46
1.9543909e-29
-1.2710664e-29
1.238197e-29
1.2077297e-29
-5.2741958e-47
0
-4.0238619e-17
0
0
3.7142377e-17
1.0036933e-29
-3.516665e-17
0
0
6.4671092e-17
2.6162136e-29
-6.1072158e-17
2.9662567e-17
-4.0936421e-33
3.8830276e-30
2.714604e-17
0
0
0
2.4029798e-17
6.4612935e-30
-2.2572076e-17
0
0
2.0507878e-17
-2.8211141e-33
-1.9211503e-17
0
0
1.7383127e-17
4.6613364e-30
4.511694e-30
-4.3567144e-30
-1.5154273e-17
1.4633047e-17
-3.9204458e-30
3.7834853e-30
-3.6484153e-30
-1.2685766e-17
0
0
1.1363663e-17
4.92918e-46
-1.0544768e-17
0
0
9.405601e-18
2.7068089e-46
-8.7029057e-18
0
0
7.7293492e-18
2.3036357e-46
-7.1312752e-18
0
0
6.3060329e-18
-8.5964496e-34
-5.8011545e-18
5.5616335e-18
-1.4809128e-30
1.4189318e-30
-1.3584483e-30
-4.68461e-18
0
0
0
0
0
3.589274e-18
-9.5190897e-31
-3.2764848e-18
0
0
0
0
0
0
0
2.2476281e-18
-1.1885412e-30
-2.039219e-18
0
0
0
0
0
0
0
1.3643538e-18
-3.5958453e-31
-1.2299484e-18
0
0
1.050114e-18
-2.7658147e-31
-9.4346243e-19
0
0
0
7.5829636e-19
1.9928804e-31
-6.7830066e-19
0
0
0
0
0
0
0
4.2713019e-19
-5.7171685e-35
-3.7874343e-19
0
0
0
0
0
0
0
2.2918278e-19
3.0509579e-35
-2.0100915e-19
0
0
0
1.5373378e-19
-7.9753135e-32
-1.3419357e-19
0
1.17137e-19
3.0418635e-32
-1.0240422e-19
0
0
8.4344681e-20
7.9332689e-20
-7.4793274e-20
-7.0707421e-20
0
0
0
0
-5.8404157e-20
8.3485051e-36
1.1596186e-19
5.7871277e-20
-1.2305111e-19
-1.3137417e-19
6.5076983e-20
6.3499904e-20
0
0
0
0
6.617983e-20
1.8871272e-32
-6.5021972e-20
0
0
0
0
0
0
0
0
0
0
0
0
0
0
3.271258e-20
-2.7285742e-32
-4.712866e-20
0
0
-5.3238488e-20
1.6268704e-32
-7.1168662e-36
4.8468674e-20
5.8481009e-20
3.5656824e-32
-1.6456417e-32
-5.5158234e-20
0
0
0
0
0
6.2426297e-20
-3.5212004e-32
-6.1468604e-20
0
0
0
0
0
0
0
5.94617e-20
-3.1042865e-32
-5.3213283e-20
0
0
0
0
0
0
0
3.5310466e-20
-2.6398175e-32
-2.7560672e-20
0
0
0
0
0
0
0
0
2.7731901e-20
-2.9283834e-36
-2.1494875e-20
0
0
0
0
2.4946699e-20
-3.5700814e-20
-3.8177201e-20
6.6548825e-20
8.6396788e-33
-3.2476037e-20
0
0
0
0
3.0888556e-20
-8.6810908e-33
-6.9168447e-20
3.7630228e-20
3.5955275e-20
-3.1303602e-20
0
0
0
2.9927947e-20
7.1676884e-33
-2.5657973e-20
-2.9147853e-20
3.1565516e-20
2.8783426e-20
-2.5206868e-20
0
0
3.2113889e-20
2.6875774e-20
-2.4360577e-20
-2.6419311e-20
-2.7951691e-20
-1.4523108e-32
2.3161817e-20
0
0
0
2.1583133e-20
2.2627256e-20
-2.3129663e-20
-2.2445163e-20
-2.3569218e-20
-7.4753395e-33
2.8878458e-20
0
0
0
2.919998e-20
-7.0156977e-33
-2.7641419e-20
0
0
0
0
0
0
0
2.2699174e-20
-5.4400718e-33
-3.6808591e-20
-5.1061431e-33
1.8031017e-20
0
0
1.683824e-20
-2.3722558e-36
4.8118127e-33
-4.9559794e-33
-1.7723051e-20
-1.836325e-20
5.7072394e-33
2.2255735e-20
0
0
2.7982407e-20
-2.5485748e-32
-8.0240352e-33
3.1640813e-36
-1.4642973e-20
1.3341307e-20
1.7524943e-20
-4.0336704e-20
8.3288995e-33
8.7880907e-21
-6.9074579e-21
0
7.843876e-21
2.2356092e-33
-8.7888421e-21
0
1.0217277e-20
-1.1147398e-20
1.3410375e-32
1.2575673e-20
-1.2741999e-20
0
1.2862142e-20
0
-1.167652e-20
0
1.1820514e-20
-1.1684254e-20
6.7623795e-33
1.3757816e-20
-1.4561919e-20
0
1.5827501e-20
4.9497558e-33
-1.8266055e-20
0
2.1898735e-20
-2.3334209e-20
6.5843838e-36
2.0859562e-20
-2.0049605e-20
0
2.0188117e-20
1.8905818e-20
-1.7934597e-20
-1.7552094e-20
1.6329843e-20
-1.4647214e-20
-1.2980747e-20
9.1621222e-21
0
0
0
0
0
0
-2.1581097e-21
2.6927437e-50
6.1705758e-21
-3.3607331e-21
-3.3485811e-21
3.1263863e-21
0
0
-2.3169364e-21
-1.8174533e-21
1.3011137e-21
7.9873668e-22
0
7.7513043e-23
1.3195911e-34
-8.7878711e-22
0
0
1.940728e-21
2.2269678e-21
-2.4285312e-21
-2.547557e-21
0
2.7441128e-21
-7.5778567e-34
-2.6115076e-21
2.4784822e-21
1.2873173e-33
2.9149844e-37
1.7086099e-21
-1.2524845e-21
-5.8377275e-22
0
0
-3.2626309e-22
1.5930413e-34
8.2238668e-22
0
-1.8787351e-21
-2.074088e-21
1.983829e-21
2.1202472e-21
0
0
0
0
0
0
-2.0487741e-21
5.4207456e-34
2.2294463e-21
0
0
0
0
0
0
-9.5022117e-23
-3.8256716e-50
-1.0095713e-21
-1.1243864e-21
-2.5622837e-34
8.013743e-22
0
0
0
0
1.7632871e-21
6.0165208e-34
-2.6347174e-21
2.3790855e-21
1.7935891e-21
-1.3625745e-21
7.8215598e-34
1.6191982e-33
1.7247903e-33
-3.9882668e-34
4.0513781e-34
-1.5313917e-34
-5.5460255e-22
0
-6.1248588e-22
8.9101883e-34
-1.2332425e-37
-6.1194045e-22
1.1419431e-21
2.1261077e-21
-2.9552881e-21
1.0114282e-33
-3.4993983e-33
-2.417495e-33
-2.3170171e-33
1.0977534e-33
-2.2635644e-33
-4.6416156e-21
4.9817629e-21
4.9188517e-21
-4.8318862e-21
1.3207386e-33
-5.0365794e-33
-1.1089301e-33
1.0857022e-33
1.199765e-33
1.2575803e-33
-4.3602677e-21
0
3.8119955e-21
-1.051466e-33
-5.4313788e-50
3.3930529e-21
0
-3.1344661e-21
3.0265079e-21
2.887975e-21
-2.8186376e-21
0
0
0
0
-3.2099871e-21
9.1122468e-34
-1.8712307e-33
3.6504451e-21
4.0976722e-21
-4.5427054e-21
0
0
0
0
-6.3897784e-21
-9.9253915e-37
7.4360303e-21
0
0
0
0
0
0
0
-1.047945e-20
-1.02053e-20
1.0217036e-20
1.0899667e-20
0
0
0
0
0
0
-1.0745279e-20
-1.0483838e-20
1.1025658e-20
1.152128e-20
0
0
0
0
0
0
-1.0817431e-20
-9.8864281e-21
9.5645323e-21
9.4402986e-21
0
0
0
0
0
0
-8.1164123e-21
4.5112575e-33
7.8389052e-21
0
0
0
0
0
0
-5.4241627e-21
1.3903121e-33
4.8620503e-21
0
0
0
0
-3.6649434e-21
-5.1579644e-37
3.5922035e-21
-3.4417516e-21
-1.7320618e-50
2.8543775e-21
-2.731028e-21
1.548393e-33
2.900367e-21
-2.9449633e-21
-1.6146125e-33
-1.5927666e-33
4.879469e-50
-1.6318064e-33
-8.2814152e-34
3.0317482e-21
-3.1478009e-21
-3.3253044e-21
7.0194404e-21
-1.9989749e-33
-7.3110509e-21
0
4.1482175e-21
-1.2426313e-33
-1.3070834e-33
-4.0398643e-33
-4.1409866e-33
-2.8314855e-33
4.350908e-33
-3.0091306e-33
1.6003954e-33
6.0300195e-21
0
-6.2236128e-21
-8.7712435e-37
-5.2004112e-33
-5.4653956e-33
9.7366023e-37
3.9010101e-33
-1.9576593e-33
-6.9851618e-21
0
6.8124669e-21
-3.9062017e-33
-1.0026214e-36
6.9083114e-21
0
-7.0322535e-21
7.0282601e-21
6.8610364e-21
-6.5728778e-21
0
0
-6.5279276e-21
7.07688e-33
-3.4074015e-33
3.3061789e-33
-1.6413327e-33
5.7898388e-21
5.4675753e-21
-5.2612112e-21
0
0
0
0
-4.8171037e-21
-1.308569e-33
-5.1857789e-33
4.5806698e-21
4.4373511e-21
-4.3085836e-21
0
0
0
0
-4.0546739e-21
-4.029205e-21
4.0629907e-21
4.0863789e-21
0
0
0
0
0
0
-3.9588013e-21
-4.0560189e-21
4.1305282e-21
4.1270814e-21
0
0
0
0
0
0
-4.0274399e-21
3.4351232e-33
8.2972767e-21
-4.0732696e-21
-1.1833213e-20
-3.9219179e-21
0
8.2447984e-21
-4.583521e-33
-1.3500657e-32
-3.9515145e-21
-7.8535652e-21
8.0081597e-21
-4.0850205e-21
-4.1005822e-21
4.0508807e-21
-3.9786233e-21
5.6444434e-37
4.0477088e-21
4.1507347e-21
-4.2097032e-21
-4.2153372e-21
4.2081772e-21
-4.2133938e-21
-6.0200732e-37
4.2967526e-21
0
0
0
8.9285173e-21
-4.4966548e-21
-9.2098384e-21
4.7319343e-21
-4.8047078e-21
-4.8379093e-21
9.7146244e-21
-3.9938167e-50
-5.0042977e-21
5.0958228e-21
1.0304638e-20
5.1680005e-21
-1.5618346e-20
5.2844296e-21
-1.2422408e-49
-1.627162e-20
1.0876339e-20
5.4570479e-21
5.49312e-21
1.1103294e-20
-1.121115e-20
-5.6408245e-21
-5.6422677e-21
5.6189212e-21
5.573557e-21
-1.6675811e-20
5.587178e-21
5.620602e-21
-5.6117896e-21
-5.5144092e-21
-7.7232818e-37
1.6349416e-20
-5.504915e-21
9.1203922e-33
-8.9581503e-33
-1.5743428e-20
5.1671698e-21
5.1699953e-21
1.0355622e-20
-5.1217256e-21
-9.9656059e-21
9.7232585e-21
-4.817092e-21
4.8140737e-21
4.7459369e-21
-1.3861196e-20
4.483018e-21
4.3813896e-21
-8.7048674e-21
-4.3002162e-21
4.1868954e-21
1.2252425e-20
-4.0025577e-21
-1.570519e-20
2.1194771e-33
7.3402887e-21
3.5668154e-21
0
7.0113196e-21
7.6196349e-33
-9.9299743e-21
3.1697339e-21
-6.8286304e-33
3.0437929e-21
3.0224644e-21
-5.9312393e-21
0
0
0
-2.6480339e-21
1.4604415e-33
5.1283332e-21
-2.4461966e-21
-4.6503233e-21
6.8183603e-21
-7.5997933e-33
-4.594781e-21
2.2830972e-21
0
0
0
3.9123333e-21
-1.9409557e-21
-3.9324514e-21
5.9611691e-21
-5.5768885e-37
-3.7617766e-21
0
0
-1.7745095e-21
1.0132177e-33
3.6951045e-21
-1.8170206e-21
-3.5116783e-21
5.1480058e-21
-2.8931178e-33
-3.6071799e-21
1.8701376e-21
-1.9087486e-21
3.8366402e-21
1.9181728e-21
-6.4453736e-33
-1.9773657e-21
-4.0908268e-21
6.4107672e-21
-1.2616354e-36
-2.2755159e-21
1.2894675e-33
-2.3852079e-21
-2.4821895e-21
1.4462835e-33
8.1637183e-21
-7.936624e-37
-8.548783e-21
5.8757286e-21
-3.7929035e-49
-6.4639331e-21
3.3631842e-21
-3.4554032e-21
7.0367727e-21
3.6182564e-21
-8.4080741e-33
-3.9633046e-21
-8.1958362e-21
-4.1862146e-21
-4.2315331e-21
1.287122e-20
0
-4.6380529e-21
-2.6605178e-33
2.7150128e-33
-2.750865e-33
4.9115203e-21
-5.4298784e-33
5.0453152e-21
-1.7485861e-32
-1.6198329e-20
1.0960786e-20
1.6561763e-20
5.5438185e-21
-1.6680633e-20
-1.1223897e-20
1.6963487e-20
-5.5723562e-21
-1.6491369e-20
0
0
5.642272e-21
5.361331e-21
0
-5.2578668e-21
-5.3533471e-21
1.0785697e-20
-1.1898808e-32
-1.5032665e-20
5.3103465e-33
4.8728272e-21
4.9341005e-21
4.9276104e-21
-4.8413757e-21
-4.6267118e-21
4.4177922e-21
1.2973113e-20
-4.2812972e-21
-1.6875211e-20
4.0916074e-21
7.7856537e-21
3.6962519e-21
0
-3.460394e-21
0
-3.2019073e-21
3.0029327e-21
-6.2749514e-33
2.7017605e-21
-8.5875396e-33
-7.2512561e-21
2.2278938e-21
2.0348265e-21
-1.9014207e-21
-1.8226596e-21
1.7191453e-21
4.6626745e-21
-1.3326275e-21
-4.4983914e-21
1.6862664e-33
9.6879863e-22
1.8367118e-21
8.2639286e-22
-1.3833482e-21
-2.9591072e-34
-5.5351713e-38
2.9013519e-22
-5.2801174e-34
-2.057281e-22
4.9010152e-22
-1.0298167e-34
2.499186e-25
0
0
9.6912759e-23
-5.2679159e-35
-2.3214289e-22
1.5190829e-22
3.2418059e-22
1.3050829e-22
-8.9195822e-35
-1.244426e-22
-2.7460587e-23
1.522286e-23
6.0130515e-23
-6.2816523e-38
-6.741695e-34
-2.7894258e-22
-6.697195e-22
1.1933628e-21
-5.4046131e-34
-1.1862809e-21
0
0
1.7617361e-21
-2.1972649e-33
-1.2337635e-33
-3.4864719e-37
-3.9486825e-21
-2.7969112e-21
2.4969664e-33
4.8897934e-21
1.7822356e-21
-1.9133919e-21
3.9966573e-21
2.2758862e-33
-7.0054284e-33
-2.1978494e-21
-4.6781312e-21
7.4786675e-21
-2.6071287e-21
-2.6675846e-21
2.7139167e-21
-2.7663192e-21
5.6657738e-21
-3.2528089e-33
-3.0195943e-21
-4.3683564e-37
-6.2157758e-21
6.2508204e-21
-5.2496693e-33
-6.4333301e-21
3.2866505e-21
0
-3.3131773e-21
-1.8302267e-33
9.887041e-21
-3.3293117e-21
-6.7397344e-21
-3.3738661e-21
-3.3345667e-21
3.2938564e-21
3.2910078e-21
3.3148054e-21
-3.3292087e-21
1.8328008e-33
-1.7899087e-33
3.1576738e-21
-3.50165e-33
3.199525e-21
-1.0755451e-32
-9.6380118e-21
6.3301774e-21
1.2975561e-50
-3.0762085e-21
-3.3785111e-33
1.6857525e-33
9.1209032e-21
-3.0395514e-21
-9.0702963e-21
0
0
2.9548979e-21
2.9464598e-21
5.8802291e-21
-2.9292586e-21
-5.8230909e-21
5.8020058e-21
-2.9047433e-21
-8.7431059e-21
2.9180911e-21
2.915342e-21
2.9101828e-21
2.9147241e-21
-5.8336856e-21
-2.9018308e-21
2.8926757e-21
8.7417796e-21
-2.9490341e-21
-4.6710854e-50
-4.968625e-33
-5.9392555e-21
5.9316046e-21
5.9802141e-21
-3.0374632e-21
-6.1216578e-21
6.1032526e-21
3.041255e-21
-9.1725638e-21
-9.288295e-21
3.1316287e-21
6.275089e-21
3.1066642e-21
-1.7085824e-33
-6.1900636e-21
-3.1493713e-21
3.1960668e-21
6.4076314e-21
-4.5250271e-37
-6.3207058e-21
6.3032439e-21
-5.3017754e-33
-6.3975363e-21
3.1757411e-21
6.2914298e-21
6.2728775e-21
0
-3.1460923e-21
-9.3833973e-21
-3.0787679e-21
3.0374123e-21
0
0
0
0
-2.9125904e-21
1.5903254e-33
8.5843864e-21
-2.8651593e-21
-8.4971845e-21
-2.7691399e-21
4.5036061e-33
5.3181859e-21
2.6351489e-21
-2.6107305e-21
5.1259817e-21
2.487702e-21
-8.0688914e-33
-2.389164e-21
-4.7242964e-21
6.9595897e-21
-6.4146011e-37
-2.1761475e-21
3.0051245e-37
-2.0869503e-21
-2.0621116e-21
2.2406018e-33
5.8589823e-21
-5.3394024e-37
-5.4636335e-21
-3.5718589e-21
9.73594e-34
3.413491e-21
1.6462283e-21
-1.5900499e-21
3.1007811e-21
1.5226885e-21
-4.9486143e-33
-1.4252142e-21
-2.7181945e-21
3.9325408e-21
-1.427108e-33
-1.2739337e-21
-1.2539944e-21
-1.2156178e-21
-6.4795438e-34
6.2503663e-34
2.1939041e-21
5.9677343e-34
-2.1147304e-21
2.0828956e-21
-5.1339851e-33
-3.0320579e-21
1.9710595e-21
-1.0663115e-33
-1.8889966e-21
9.4109084e-22
9.4575093e-22
1.8899469e-21
-9.2975344e-22
-2.7411481e-21
0
0
0
2.8199858e-21
2.808969e-21
-2.8146417e-21
-2.8683289e-21
1.9700869e-21
-2.8563128e-37
1.0036532e-21
-3.3179635e-33
-3.0088154e-21
3.1012357e-21
-5.3972892e-33
-2.2376221e-21
-6.2937317e-34
6.2774807e-34
2.2644824e-21
-1.1563971e-21
1.1996166e-21
-4.1523848e-33
-3.833385e-21
3.864252e-21
1.2967947e-21
-2.9310254e-33
2.7165929e-21
-2.8072076e-21
-1.4372515e-21
-1.4497372e-21
-4.3752646e-21
1.6407269e-33
1.5107562e-21
4.6636655e-21
-1.0585428e-32
-4.7999491e-21
0
1.6166913e-21
3.2828457e-21
-1.6763406e-21
1.7057398e-21
-5.7183052e-33
-3.4350176e-21
5.1845013e-21
-3.9006771e-33
-1.9893688e-33
-2.005689e-33
-1.9864172e-33
1.7576636e-21
-5.2373166e-21
-5.3289537e-21
1.8365009e-21
3.761716e-21
0
-1.8490111e-21
2.0100943e-33
-3.9539418e-33
1.983385e-33
1.8372987e-21
-1.8858499e-21
-1.9069324e-21
5.6575381e-21
3.0591262e-49
-2.9699884e-33
1.7473471e-21
-1.9518275e-33
3.6184753e-21
-3.6938285e-21
-3.7205297e-21
-1.8438106e-21
2.0057821e-33
1.7746833e-21
0
0
0
3.5162871e-21
-1.7730089e-21
-3.5330923e-21
5.2045576e-21
-1.6995877e-21
-5.0023171e-21
4.9549181e-21
-5.5374436e-33
-3.3686781e-21
5.0734177e-21
3.3432668e-21
0
-3.19193e-21
-5.2345605e-33
-1.5708582e-21
-3.1766599e-21
1.6031528e-21
0
3.1673216e-21
4.4091355e-37
1.690386e-33
-1.4999483e-21
-4.4757062e-21
4.5135662e-21
-2.5314363e-33
-4.543657e-21
4.4428879e-21
-7.2135007e-33
-2.8320087e-21
1.4109439e-21
-1.4329764e-21
2.9029683e-21
1.4445158e-21
-6.2592043e-33
-1.3727354e-21
-2.6971298e-21
-1.3465688e-21
-1.3669809e-21
2.7640192e-21
1.3756068e-21
0
-1.3209774e-21
7.2407054e-34
-2.5251594e-51
1.3156009e-21
-3.75499e-37
1.3105085e-21
5.132321e-50
-3.8195649e-21
3.8027001e-21
3.8263903e-21
-2.564975e-21
-2.5561137e-21
0
2.4911938e-21
-1.2415764e-21
-3.7547908e-21
3.7919392e-21
-2.1111815e-33
-2.5220467e-21
1.25287e-21
0
-1.260956e-21
-1.2699382e-21
1.2711713e-21
-2.111276e-33
2.5430485e-21
7.3056708e-37
-3.8909145e-21
0
3.8741083e-21
2.5670419e-21
-3.8800083e-21
-2.6474037e-21
4.0690521e-21
1.3717971e-21
-5.4551556e-21
-1.3522488e-21
2.7084023e-21
2.7539817e-21
-1.5749625e-33
-1.4486172e-21
-1.4554538e-21
-1.4480679e-21
1.439497e-21
-1.6088948e-33
2.9674248e-21
-5.0952616e-33
-4.6752565e-21
0
0
3.108651e-21
-3.4775097e-33
-1.5999653e-21
4.925865e-21
-1.6699003e-21
-2.7860792e-33
-5.5641337e-33
-5.0162375e-21
1.6836844e-21
-9.517116e-34
1.9381323e-33
1.7621327e-21
-1.7638144e-21
2.4995444e-37
-9.772986e-34
1.9742127e-33
1.8078793e-21
0
-1.8316488e-21
3.6477826e-21
1.8176173e-21
-3.6472307e-21
0
1.8758011e-21
-1.8815505e-21
-3.7432827e-21
5.5784162e-21
-6.1600367e-33
-6.1547904e-33
1.862869e-21
-5.6495594e-21
2.685014e-37
1.8785336e-21
1.861815e-21
-1.8398985e-21
-1.8234647e-21
1.8258983e-21
0
-1.8460999e-21
3.6604395e-21
-3.0032328e-33
-1.7762446e-21
-3.9096595e-33
-3.9225589e-33
-5.025684e-37
-3.494968e-21
5.1483512e-21
5.0372939e-21
0
-3.3081162e-21
-4.9575362e-21
-2.3205258e-37
1.5940179e-21
1.543797e-21
-1.50687e-21
-1.4966008e-21
1.502141e-21
0
2.9062962e-21
2.7902587e-21
-3.9988714e-21
-1.2920188e-21
1.28218e-21
-3.6519923e-37
-1.2755107e-21
-2.4910202e-21
-1.1954957e-21
1.8967849e-33
4.3558776e-21
-3.4906166e-33
-3.0591379e-21
1.0012401e-21
9.8239613e-22
9.5308073e-22
-9.0836337e-22
-8.516569e-22
-7.9751322e-22
-2.1600052e-37
7.4033318e-22
-7.2740382e-22
2.1100301e-21
1.3177197e-21
-1.793937e-21
5.4321923e-22
1.0284525e-21
-1.0120367e-21
5.0025141e-22
-4.8035759e-22
-8.7904579e-22
1.1515037e-21
-3.3636665e-22
1.0455596e-33
9.3163937e-22
-6.1949704e-22
-2.9858046e-22
-2.717835e-22
-4.6621584e-22
1.9955228e-22
1.2490632e-77
3.6977712e-22
1.9026178e-22
-2.1054083e-34
-1.7666229e-22
-3.0623901e-22
2.6810644e-22
-1.3148948e-22
-4.2936951e-22
4.7571762e-22
1.6763661e-22
-4.7356114e-50
1.5678431e-22
-4.6843374e-22
-1.7020888e-22
1.9267938e-22
4.2954323e-22
-2.2968518e-22
2.3779551e-22
-8.2767107e-34
-5.3481722e-22
8.7428112e-22
3.5010467e-34
-1.4913531e-33
7.9400321e-34
-7.7018715e-22
8.3319697e-22
-4.4667411e-22
-1.8780878e-21
4.8667029e-22
1.0175931e-21
0
1.1683069e-21
-1.3875516e-33
-3.7237543e-37
-7.4704148e-34
-6.9177344e-22
-7.207977e-22
7.586742e-22
8.0138436e-22
-1.6762071e-21
1.7245745e-21
-9.7999029e-34
-1.8176522e-21
1.8798239e-21
3.2378058e-33
-1.1114157e-33
-1.0247398e-21
-2.0943917e-21
1.0725102e-21
-1.1004894e-21
6.2550898e-34
1.1456559e-21
2.3219327e-21
-1.1777077e-21
-2.3962997e-21
1.2243167e-21
-1.2455831e-21
2.0858267e-33
-1.2539529e-21
-2.7941224e-33
2.5402863e-21
2.5880042e-21
2.9256617e-33
-4.4347801e-33
4.4423218e-33
-1.3318519e-21
-1.3338265e-21
-1.3428828e-21
1.3452662e-21
0
0
-1.2955796e-21
7.1806244e-34
1.8762917e-37
1.4992072e-33
1.3623143e-21
0
-1.3311724e-21
-2.6107636e-21
1.2861222e-21
2.5359828e-21
2.5114713e-21
2.5201447e-21
-3.8226963e-21
-4.2886725e-33
3.8546101e-21
-2.5175521e-21
-2.4384347e-21
0
-1.157674e-21
2.3319659e-21
1.188085e-21
-2.4059065e-21
-1.1953681e-21
1.2914859e-33
3.3748815e-21
-1.0914515e-21
-3.2296864e-21
3.2545325e-21
1.0996691e-21
-3.3160903e-21
1.2129957e-33
1.0631648e-21
2.0676996e-21
1.1237777e-33
-2.0071007e-21
2.0175312e-21
-1.0155117e-21
-3.0359994e-21
0
9.7510146e-22
1.9216769e-21
-5.2942113e-34
9.531758e-22
1.9016952e-21
-1.8778318e-21
-1.8477165e-21
0
-9.0808259e-22
-1.0131621e-33
-1.0164419e-33
-1.009421e-33
2.6849087e-21
1.7625563e-21
0
-1.7535558e-21
-1.9595278e-33
-8.8616663e-22
-2.6511607e-21
8.7881026e-22
-4.8539631e-34
1.2384367e-37
8.683591e-22
1.7307023e-21
-8.6582832e-22
-1.7427984e-21
8.7805802e-22
0
1.7475798e-21
-8.665313e-22
-2.5978607e-21
8.7353091e-22
8.8621137e-22
1.7891226e-21
-8.9219337e-22
-2.6608225e-21
8.8676676e-22
-9.9091408e-34
-1.8035316e-21
9.0765005e-22
9.0760233e-22
1.8112597e-21
2.729671e-21
-1.8434392e-21
-1.8630174e-21
1.8646533e-21
1.0273109e-33
-1.8374115e-21
1.846177e-21
1.0434892e-33
-1.9208223e-21
0
1.9190224e-21
1.8925113e-21
0
-2.845089e-21
-9.6836148e-22
-2.8042958e-37
-9.9166405e-22
-9.8241916e-22
-1.0789816e-33
1.9382161e-21
1.9507103e-21
-3.2989532e-33
-2.0016169e-21
1.999688e-21
3.3065477e-33
-1.9730291e-21
0
0
0
0
1.9857342e-21
1.0888352e-33
-1.9547818e-21
-9.8576798e-22
2.0011663e-21
-3.3512851e-33
-1.9923511e-21
1.9560351e-21
1.0683642e-33
-9.5796161e-22
1.9328774e-21
-3.2635186e-33
-1.9690077e-21
1.9520729e-21
1.9202578e-21
-1.8921094e-21
-1.8781982e-21
0
0
0
0
-9.1857397e-22
9.0896551e-22
9.0458039e-22
-1.0057463e-33
3.0696751e-77
-8.9013534e-22
-1.7392381e-21
-8.5043653e-22
1.6813002e-21
2.5241901e-21
-8.4753623e-22
-1.6959466e-21
2.5066944e-21
1.6264157e-21
-2.3741321e-21
-1.5512302e-21
-7.6542156e-22
-8.4536481e-34
1.524447e-21
0
-7.6262888e-22
7.4808468e-22
-1.5896288e-33
-1.9388412e-37
-2.1961187e-33
-6.5542345e-22
-6.6678512e-22
1.9241927e-37
1.3540436e-21
1.3208848e-21
-2.0950558e-33
-1.1953321e-21
0
0
0
-5.8761722e-22
-5.9170266e-22
5.791687e-22
5.4609507e-22
-5.0666247e-22
9.5864931e-22
1.4324858e-21
0
-1.0170422e-21
-5.6787725e-34
-5.0305709e-22
-1.4530115e-21
4.6078897e-22
-7.3555233e-34
8.6273621e-22
-2.8665031e-33
-8.720027e-22
-2.454593e-34
-6.324437e-38
4.4320664e-22
-4.3502514e-22
8.4327e-22
4.1056183e-22
-8.1444896e-22
8.2569496e-22
1.2068099e-37
-4.8385192e-34
-4.3879192e-22
-1.2941864e-21
8.4529437e-22
-8.1301044e-52
4.3179279e-22
-7.4660895e-34
-9.276828e-22
4.7150787e-22
9.4020266e-22
-5.2113257e-34
-1.43233e-21
1.4030038e-37
5.1472607e-22
-5.3172594e-22
1.081142e-21
5.4657832e-22
-1.1135202e-21
1.1480866e-21
6.6199173e-34
-3.4241593e-33
1.3994371e-33
-1.282985e-21
1.3131475e-21
-6.78224e-22
-1.4118445e-21
7.2959851e-22
-7.434681e-22
1.5073752e-21
-1.2777797e-33
-2.371056e-21
0
0
2.6351296e-21
8.8775581e-22
-1.7920502e-21
1.8231425e-21
5.3328067e-37
-4.3330848e-33
-1.1193201e-33
-2.0543035e-21
2.0711485e-21
2.0860979e-21
-1.0569054e-21
-3.2451206e-21
-1.1166261e-21
1.1449028e-21
0
0
-1.1727893e-21
6.5664597e-34
3.6098534e-21
3.5000018e-37
-2.507336e-21
-1.2601332e-21
1.3992521e-33
3.7846258e-21
2.8119041e-33
-2.5669297e-21
0
-1.3089103e-21
2.6148462e-21
1.2994316e-21
-2.8735488e-33
-1.2988561e-21
-2.6210571e-21
1.3169805e-21
0
0
0
0
-1.2750827e-21
7.0826836e-34
3.7872639e-21
-1.240931e-21
-3.6422005e-21
3.5839206e-21
1.1913906e-21
-2.3813819e-21
-1.1781854e-21
-1.9112726e-33
3.3298113e-21
-6.1327511e-37
-3.5441123e-33
-1.0630749e-21
-2.1085179e-21
-1.0270062e-21
-1.0908283e-33
9.352879e-22
9.0255907e-22
8.9087531e-22
8.8922563e-22
-1.9518395e-33
-1.6973171e-21
0
0
-7.0805756e-22
-1.1474845e-33
-9.7230996e-38
9.5910819e-38
6.5026319e-22
1.2162533e-21
1.1148756e-21
-1.026929e-21
-5.4012139e-34
-4.7350937e-22
-1.392296e-21
0
0
3.8183838e-22
3.4078788e-22
0
-2.8901851e-22
1.5401386e-34
2.6568867e-22
-2.4762069e-22
4.4221012e-22
-6.3144538e-34
-4.8827446e-22
1.4639626e-22
1.372863e-22
2.5745792e-22
-1.1484034e-22
-2.8102276e-22
7.0156793e-23
-2.9796631e-35
9.4444756e-23
4.5411254e-23
-8.3542951e-23
6.1877131e-23
3.0514634e-50
4.0496821e-24
0
0
2.7754725e-24
-1.4726975e-36
2.1968362e-35
1.7699249e-50
7.1884637e-23
2.1332376e-35
-9.6231398e-24
-3.2090924e-24
-2.8510087e-25
9.1123403e-24
1.4384572e-35
1.9485462e-25
-3.9779123e-35
2.4411589e-23
-6.1108275e-23
0
-2.794599e-23
4.0393698e-35
5.3485925e-23
1.4552677e-22
9.6593704e-35
-1.8140732e-22
0
0
-9.725181e-23
6.5447314e-35
4.183127e-22
1.7131059e-34
-3.1891665e-22
0
1.6421256e-22
-1.7705924e-22
-1.9428174e-22
-2.1097553e-22
-2.2302713e-22
4.5866169e-22
6.9870716e-22
-2.3760794e-22
-4.9064033e-22
7.6919024e-22
-5.9646902e-51
-5.700778e-22
0
0
0
0
6.0641018e-22
6.3209313e-22
-3.3297928e-22
-1.0403307e-21
-3.8921332e-34
3.4335926e-22
-6.7305393e-22
-6.7617236e-22
3.4798987e-22
1.447634e-21
7.4334214e-22
-1.1148242e-21
-7.2609599e-22
1.0666812e-21
7.8866192e-34
-7.2282698e-22
0
0
0
7.144663e-22
3.8790368e-34
-7.7535379e-34
3.5413551e-22
-1.0761831e-21
3.5646867e-22
3.4555517e-22
-1.0015048e-21
-6.5620273e-22
3.2860981e-22
6.6363572e-22
6.5850775e-22
-1.0548791e-33
3.3175899e-34
-8.118318e-38
-5.6681227e-22
0
-2.9170098e-22
-2.8743089e-22
2.7348313e-22
2.5585193e-22
-2.4273053e-22
-2.3642631e-22
4.6694452e-22
2.2911761e-22
-2.2081651e-22
2.110498e-22
-2.0348047e-22
-3.9676167e-22
0
0
4.9522868e-22
1.5116804e-22
-2.9154611e-22
-1.4659194e-22
-1.4725549e-22
2.8205028e-22
-1.3947639e-34
-2.1374333e-22
0
9.4136767e-23
2.9321811e-22
2.1934625e-34
-5.0581936e-34
1.476331e-22