/*--------------------------------*- C++ -*----------------------------------*\
| =========                 |                                                 |
| \\      /  F ield         | OpenFOAM: The Open Source CFD Toolbox           |
|  \\    /   O peration     | Version:  4.x                                   |
|   \\  /    A nd           | Web:      www.OpenFOAM.org                      |
|    \\/     M anipulation  |                                                 |
\*---------------------------------------------------------------------------*/
FoamFile
{
    version     2.0;
    format      ascii;
    class       volScalarField;
    location    "0.75";
    object      T;
}
// * * * * * * * * * * * * * * * * * * * * * * * * * * * * * * * * * * * * * //

dimensions      [0 0 0 1 0 0 0];

internalField   nonuniform List<scalar> 
6398
(
299.9999999
299.9999983
299.9999984
299.9999984
299.9999982
299.999998
299.9999983
299.9999967
299.9999967
299.9999965
299.999996
299.9999958
299.9999984
299.999997
299.9999968
299.9999965
299.9999962
299.999996
299.9999986
299.9999972
299.999997
299.9999968
299.9999965
299.9999965
299.9999987
299.9999973
299.9999972
299.9999971
299.9999969
299.9999968
299.9999988
299.9999975
299.9999976
299.9999974
299.9999972
299.9999972
299.999998
299.9999954
299.9999951
299.9999943
299.9999933
299.9999927
299.9999955
299.9999929
299.9999918
299.9999903
299.9999889
299.9999885
299.9999959
299.999993
299.999992
299.9999906
299.9999895
299.9999894
299.9999961
299.9999934
299.9999925
299.9999915
299.9999909
299.999991
299.9999963
299.9999939
299.9999933
299.9999927
299.9999924
299.9999927
299.9999965
299.9999944
299.999994
299.9999935
299.9999934
299.9999939
299.9999973
299.9999944
299.9999938
299.9999928
299.9999919
299.9999915
299.9999946
299.9999913
299.9999901
299.9999883
299.9999869
299.9999865
299.9999948
299.9999916
299.9999905
299.9999888
299.9999878
299.9999877
299.999995
299.999992
299.9999911
299.9999901
299.9999897
299.9999902
299.9999951
299.9999924
299.9999919
299.9999915
299.9999916
299.9999924
299.9999952
299.9999925
299.9999923
299.9999922
299.9999927
299.9999938
299.9999964
299.9999928
299.9999925
299.9999922
299.999992
299.9999918
299.999993
299.9999891
299.9999885
299.9999875
299.9999868
299.9999866
299.9999931
299.9999897
299.9999892
299.9999883
299.9999877
299.9999879
299.9999932
299.9999901
299.99999
299.9999897
299.9999899
299.9999907
299.9999933
299.99999
299.9999903
299.9999908
299.9999917
299.9999932
299.999993
299.999989
299.9999897
299.9999909
299.9999924
299.9999943
299.999996
299.9999921
299.9999923
299.9999928
299.9999933
299.9999939
299.9999919
299.9999868
299.9999867
299.9999874
299.9999876
299.9999881
299.9999918
299.9999864
299.9999866
299.9999874
299.9999882
299.999989
299.9999919
299.9999864
299.999987
299.9999884
299.99999
299.9999916
299.999992
299.999986
299.9999867
299.999989
299.9999915
299.9999936
299.9999919
299.999985
299.9999857
299.9999883
299.9999915
299.9999941
299.9999969
299.9999942
299.9999948
299.9999963
299.9999983
300.0000006
299.9999937
299.9999883
299.999988
299.9999894
299.9999915
299.9999938
299.9999933
299.9999866
299.9999864
299.9999878
299.9999899
299.9999921
299.9999933
299.999986
299.9999855
299.9999875
299.9999905
299.9999932
299.9999934
299.9999856
299.9999852
299.9999877
299.9999913
299.9999944
299.9999939
299.9999851
299.9999846
299.9999869
299.9999908
299.9999941
300.000001
300.0000022
300.0000043
300.0000073
300.0000117
300.0000158
300.0000013
299.9999989
299.9999974
299.9999997
300.0000051
300.0000113
300.000001
299.999994
299.9999912
299.9999924
299.9999968
300.0000026
300.0000006
299.9999916
299.999988
299.9999893
299.9999937
299.9999989
300.0000012
299.9999913
299.9999875
299.9999889
299.999993
299.9999979
300.0000029
299.9999923
299.9999878
299.9999883
299.9999921
299.9999968
300.000008
300.0000185
300.0000249
300.0000303
300.0000362
300.0000377
300.0000172
300.0000304
300.0000296
300.000033
300.0000437
300.0000564
300.0000198
300.0000227
300.0000151
300.000014
300.000022
300.0000334
300.0000194
300.0000161
300.0000044
300.000002
300.0000086
300.0000166
300.0000206
300.0000159
300.0000029
299.9999993
300.0000042
300.0000098
300.0000232
300.0000201
300.0000058
299.9999998
300.0000032
300.0000099
300.0000151
300.0000386
300.0000534
300.0000621
300.0000697
300.0000706
300.0000374
300.0000857
300.0001016
300.0001104
300.0001284
300.0001468
300.0000477
300.0000909
300.0000858
300.0000811
300.0000963
300.0001201
300.0000495
300.0000827
300.000062
300.0000512
300.0000612
300.0000787
300.000051
300.0000824
300.0000576
300.0000426
300.0000478
300.0000584
300.000052
300.0000897
300.0000653
300.0000454
300.0000466
300.0000567
300.0000208
300.0000567
300.000081
300.0000934
300.0001006
300.0000984
300.0000559
300.0001447
300.0001885
300.0002087
300.000229
300.0002429
300.0000764
300.0001787
300.0002066
300.000213
300.0002342
300.0002595
300.0000828
300.0001818
300.0001902
300.0001816
300.000197
300.0002241
300.0000839
300.0001819
300.0001839
300.0001661
300.0001728
300.000191
300.0000812
300.0001835
300.000191
300.00017
300.0001694
300.0001828
300.0000241
300.000069
300.0001017
300.0001172
300.0001224
300.0001151
300.0000686
300.000192
300.0002643
300.000297
300.0003146
300.0003171
300.000099
300.0002583
300.0003314
300.0003584
300.0003807
300.0003969
300.0001108
300.0002781
300.0003387
300.0003536
300.0003725
300.0003931
300.0001114
300.0002784
300.0003351
300.0003424
300.0003541
300.0003673
300.0001044
300.00027
300.0003322
300.0003383
300.0003423
300.000352
300.0000249
300.0000747
300.0001133
300.0001311
300.0001344
300.0001229
300.0000745
300.0002194
300.0003155
300.0003601
300.0003744
300.0003662
300.0001121
300.0003131
300.0004311
300.0004811
300.0005028
300.0005062
300.0001282
300.0003501
300.0004685
300.000513
300.0005346
300.0005436
300.0001283
300.0003513
300.0004691
300.0005095
300.0005267
300.0005314
300.0001169
300.000331
300.0004522
300.0004941
300.0005072
300.0005116
300.0000238
300.0000752
300.0001164
300.0001365
300.0001396
300.0001255
300.0000748
300.0002278
300.0003392
300.0003945
300.0004082
300.0003928
300.0001154
300.0003381
300.0004906
300.0005633
300.000587
300.0005806
300.0001341
300.0003886
300.0005558
300.0006329
300.0006615
300.000661
300.0001338
300.0003906
300.0005612
300.00064
300.0006688
300.0006667
300.0001194
300.0003601
300.0005303
300.0006132
300.0006427
300.0006448
300.0000225
300.0000726
300.0001142
300.000136
300.0001395
300.0001244
300.0000717
300.0002234
300.0003409
300.000403
300.0004174
300.0003977
300.0001123
300.000339
300.0005088
300.000599
300.0006277
300.0006153
300.0001319
300.0003958
300.000592
300.000699
300.0007402
300.0007379
300.0001317
300.0003987
300.0006023
300.0007184
300.000768
300.0007709
300.0001164
300.0003635
300.0005627
300.0006841
300.0007397
300.0007432
299.9999988
299.9999978
299.9999978
299.9999976
299.9999974
299.9999974
299.999999
299.9999979
299.9999979
299.9999978
299.9999976
299.9999975
299.9999991
299.9999978
299.9999979
299.9999978
299.9999976
299.9999975
299.999999
299.9999976
299.9999978
299.9999978
299.9999976
299.9999974
299.9999988
299.9999973
299.9999976
299.9999977
299.9999975
299.9999973
299.9999986
299.9999971
299.9999974
299.9999976
299.9999975
299.9999973
299.9999985
299.999997
299.9999974
299.9999976
299.9999976
299.9999975
299.9999984
299.9999971
299.9999974
299.9999977
299.9999977
299.9999977
299.9999984
299.9999971
299.9999974
299.9999977
299.9999977
299.9999978
299.9999984
299.9999971
299.9999974
299.9999976
299.9999976
299.9999977
299.9999983
299.9999972
299.9999973
299.9999975
299.9999975
299.9999976
299.9999984
299.9999972
299.9999974
299.9999975
299.9999975
299.9999976
299.9999967
299.9999946
299.9999942
299.9999938
299.9999938
299.9999942
299.9999966
299.9999941
299.9999937
299.9999933
299.9999933
299.9999935
299.9999959
299.9999929
299.9999927
299.9999923
299.9999922
299.9999921
299.9999949
299.9999917
299.9999915
299.9999912
299.9999909
299.9999906
299.999994
299.9999904
299.9999902
299.99999
299.9999897
299.9999893
299.9999932
299.9999888
299.9999888
299.9999887
299.9999886
299.9999885
299.9999922
299.9999872
299.9999873
299.9999877
299.9999881
299.9999883
299.9999913
299.9999858
299.9999863
299.9999873
299.9999881
299.9999886
299.9999907
299.9999849
299.9999856
299.999987
299.9999879
299.9999888
299.9999903
299.9999845
299.9999853
299.9999866
299.9999876
299.9999887
299.9999903
299.9999848
299.9999856
299.9999866
299.9999876
299.9999889
299.9999909
299.9999864
299.999987
299.9999878
299.9999888
299.9999901
299.9999948
299.9999918
299.9999917
299.9999919
299.9999926
299.9999936
299.999994
299.99999
299.9999898
299.9999903
299.9999911
299.9999918
299.9999926
299.9999873
299.9999873
299.9999879
299.9999886
299.999989
299.999991
299.9999851
299.999985
299.9999855
299.999986
299.9999861
299.99999
299.9999833
299.9999828
299.999983
299.9999834
299.9999836
299.999989
299.9999811
299.9999802
299.9999803
299.9999809
299.9999815
299.9999876
299.9999783
299.9999771
299.9999775
299.9999787
299.9999799
299.9999861
299.9999754
299.9999744
299.9999754
299.9999772
299.999979
299.9999848
299.9999733
299.9999726
299.999974
299.9999762
299.9999781
299.9999841
299.9999722
299.9999718
299.9999734
299.9999756
299.9999774
299.9999841
299.9999729
299.9999725
299.999974
299.9999759
299.9999774
299.9999853
299.9999755
299.9999754
299.9999766
299.9999777
299.9999785
299.9999923
299.9999874
299.999988
299.9999898
299.9999918
299.9999936
299.9999914
299.9999849
299.9999853
299.9999874
299.9999895
299.999991
299.9999898
299.9999814
299.9999818
299.9999839
299.999986
299.9999871
299.9999879
299.9999784
299.9999786
299.9999806
299.9999823
299.9999832
299.9999866
299.9999763
299.999976
299.9999774
299.9999789
299.9999798
299.9999858
299.9999741
299.9999729
299.9999737
299.9999751
299.9999762
299.9999847
299.9999711
299.9999689
299.9999692
299.9999708
299.9999724
299.9999833
299.999968
299.999965
299.9999653
299.9999672
299.9999688
299.9999823
299.9999657
299.9999622
299.9999627
299.9999646
299.9999659
299.9999818
299.9999645
299.9999611
299.9999616
299.999963
299.9999637
299.9999819
299.9999649
299.9999616
299.999962
299.9999627
299.9999625
299.9999829
299.9999675
299.9999645
299.9999644
299.999964
299.9999627
299.9999913
299.9999837
299.999984
299.9999865
299.9999901
299.9999926
299.9999906
299.9999817
299.9999813
299.9999837
299.9999871
299.9999891
299.9999891
299.9999782
299.9999776
299.9999799
299.9999827
299.9999842
299.9999869
299.9999746
299.9999739
299.999976
299.9999781
299.9999792
299.9999853
299.999972
299.9999709
299.9999725
299.999974
299.9999749
299.9999846
299.9999701
299.999968
299.9999684
299.9999693
299.9999699
299.9999839
299.9999678
299.999964
299.9999632
299.9999637
299.9999639
299.9999832
299.9999654
299.9999599
299.9999583
299.9999586
299.9999582
299.9999828
299.9999636
299.999957
299.9999551
299.999955
299.9999538
299.9999828
299.9999627
299.9999555
299.9999533
299.9999526
299.9999504
299.9999829
299.9999627
299.9999554
299.9999529
299.9999513
299.9999481
299.9999836
299.9999644
299.9999571
299.9999541
299.9999515
299.9999477
299.9999936
299.9999843
299.9999832
299.999985
299.9999889
299.9999917
299.9999933
299.999983
299.9999809
299.9999822
299.9999855
299.9999877
299.9999919
299.9999797
299.9999773
299.9999783
299.9999807
299.9999816
299.9999892
299.9999756
299.999973
299.9999736
299.9999743
299.9999741
299.9999869
299.9999724
299.9999695
299.9999692
299.9999684
299.9999674
299.9999861
299.9999704
299.9999667
299.999965
299.9999628
299.999961
299.999986
299.9999687
299.9999634
299.9999603
299.9999573
299.9999545
299.9999863
299.9999673
299.9999599
299.9999559
299.999953
299.9999492
299.9999873
299.9999666
299.9999572
299.9999529
299.9999501
299.9999454
299.9999883
299.9999662
299.9999558
299.9999511
299.9999478
299.9999422
299.9999886
299.999966
299.9999552
299.9999499
299.9999457
299.9999395
299.9999886
299.9999667
299.9999559
299.9999497
299.9999446
299.9999388
300.0000034
299.9999935
299.9999876
299.9999869
299.9999902
299.9999937
300.0000035
299.9999938
299.9999861
299.9999844
299.9999869
299.9999893
300.0000015
299.9999906
299.9999824
299.9999805
299.9999818
299.9999821
299.9999971
299.9999845
299.9999769
299.9999748
299.9999743
299.999972
299.9999928
299.9999787
299.9999719
299.9999694
299.9999663
299.9999612
299.9999912
299.9999759
299.999969
299.999965
299.9999598
299.9999534
299.9999921
299.999976
299.9999672
299.9999613
299.9999557
299.9999486
299.9999947
299.9999784
299.9999662
299.9999583
299.9999529
299.999946
299.9999984
299.9999818
299.9999658
299.9999564
299.9999509
299.999944
300.0000015
299.9999838
299.9999653
299.9999551
299.999949
299.9999415
300.0000025
299.9999832
299.9999639
299.9999534
299.9999466
299.9999388
300.0000018
299.9999813
299.9999625
299.9999519
299.9999447
299.9999377
300.0000238
300.000026
300.0000098
300.0000008
300.000002
300.0000062
300.0000228
300.0000289
300.0000107
299.9999995
299.9999986
300
300.0000182
300.000024
300.0000059
299.9999945
299.9999914
299.9999889
300.0000098
300.0000112
299.9999951
299.9999849
299.9999798
299.9999745
300.0000022
299.9999982
299.9999846
299.9999755
299.9999687
299.9999607
299.9999992
299.9999927
299.9999803
299.9999703
299.9999615
299.999952
300.000001
299.9999967
299.999983
299.9999697
299.9999591
299.9999491
300.0000064
300.000008
299.9999904
299.9999723
299.9999598
299.999949
300.0000137
300.0000212
299.9999982
299.9999758
299.9999616
299.9999498
300.0000199
300.0000293
300.0000016
299.9999769
299.9999618
299.9999492
300.0000225
300.0000298
299.9999991
299.9999742
299.9999591
299.999947
300.0000219
300.0000241
299.9999926
299.999969
299.9999552
299.9999458
300.0000501
300.0000974
300.0000776
300.0000523
300.0000474
300.000051
300.0000453
300.0000961
300.0000807
300.000053
300.0000425
300.0000391
300.0000358
300.0000806
300.0000692
300.0000432
300.0000269
300.0000155
300.0000227
300.0000537
300.0000433
300.0000204
300.0000024
299.9999877
300.0000119
300.0000291
300.0000188
299.9999985
299.9999811
299.999966
300.0000077
300.0000189
300.0000099
299.9999899
299.9999716
299.9999562
300.0000101
300.0000264
300.00002
299.9999973
299.9999749
299.9999576
300.0000176
300.0000472
300.0000427
300.0000156
299.9999873
299.9999662
300.0000277
300.0000713
300.0000668
300.0000347
300.0000015
299.9999767
300.0000363
300.000088
300.0000804
300.0000441
300.0000091
299.9999833
300.0000407
300.000093
300.0000809
300.0000416
300.0000079
299.9999846
300.0000412
300.0000884
300.0000701
300.0000295
300.0000006
299.9999839
300.0000743
300.000181
300.0001976
300.0001779
300.0001681
300.0001683
300.0000637
300.0001659
300.0001885
300.00017
300.0001525
300.0001385
300.0000488
300.0001339
300.0001556
300.000138
300.0001126
300.0000864
300.0000323
300.000093
300.0001067
300.0000892
300.0000597
300.0000284
300.0000202
300.0000593
300.0000652
300.0000477
300.000017
299.9999873
300.000016
300.0000458
300.0000503
300.0000333
300.0000026
299.9999749
300.0000192
300.0000559
300.0000666
300.0000505
300.0000191
299.9999882
300.0000279
300.0000831
300.0001032
300.0000877
300.0000553
300.0000195
300.0000393
300.0001146
300.0001425
300.0001268
300.0000929
300.0000525
300.0000488
300.0001376
300.0001683
300.0001512
300.0001166
300.0000756
300.0000541
300.0001472
300.000176
300.0001573
300.0001236
300.0000875
300.0000561
300.0001466
300.0001699
300.0001493
300.0001183
300.0000925
300.0000909
300.0002503
300.0003208
300.0003287
300.0003247
300.0003188
300.0000735
300.0002155
300.0002872
300.0002952
300.0002833
300.0002622
300.0000541
300.0001674
300.0002288
300.0002334
300.0002138
300.00018
300.0000364
300.0001176
300.0001609
300.0001594
300.0001347
300.0000956
300.0000256
300.0000812
300.000108
300.0001014
300.0000741
300.0000369
300.0000232
300.0000684
300.0000897
300.0000821
300.0000556
300.0000224
300.0000281
300.0000813
300.0001099
300.000106
300.0000823
300.0000512
300.000038
300.0001119
300.0001553
300.0001579
300.0001362
300.0001023
300.0000494
300.0001461
300.0002045
300.0002132
300.0001919
300.0001536
300.0000586
300.0001717
300.0002394
300.0002517
300.000231
300.0001917
300.0000644
300.0001853
300.0002545
300.0002681
300.0002505
300.0002172
300.0000685
300.0001901
300.0002556
300.0002686
300.0002562
300.0002356
300.0000968
300.0002904
300.0004138
300.0004593
300.0004682
300.0004612
300.0000737
300.0002356
300.0003506
300.0003955
300.0003981
300.0003799
300.0000518
300.0001756
300.0002702
300.0003075
300.0003014
300.0002734
300.0000347
300.0001232
300.0001919
300.0002155
300.0002024
300.0001685
300.0000267
300.0000912
300.0001377
300.0001475
300.0001302
300.0000976
300.0000282
300.0000856
300.0001218
300.0001254
300.0001087
300.000082
300.0000367
300.0001048
300.0001461
300.0001532
300.0001401
300.0001175
300.0000486
300.0001383
300.0001951
300.0002126
300.0002033
300.0001803
300.0000601
300.0001722
300.0002474
300.0002763
300.0002694
300.000244
300.0000688
300.0001974
300.000286
300.000323
300.0003189
300.000293
300.0000755
300.0002144
300.0003078
300.0003488
300.0003507
300.000331
300.0000822
300.0002268
300.0003189
300.0003606
300.0003709
300.0003634
300.0000949
300.000302
300.0004639
300.0005504
300.0005804
300.0005755
300.000068
300.0002336
300.0003744
300.0004568
300.000482
300.0004687
300.0000444
300.0001671
300.0002793
300.0003479
300.0003635
300.0003442
300.0000288
300.0001159
300.0001988
300.0002472
300.0002514
300.0002289
300.0000244
300.0000915
300.000152
300.0001792
300.0001742
300.0001521
300.0000307
300.0000985
300.0001473
300.0001621
300.0001547
300.0001363
300.0000446
300.0001298
300.0001813
300.0001961
300.0001908
300.0001772
300.0000601
300.0001696
300.000235
300.0002601
300.0002594
300.0002469
300.0000731
300.0002043
300.0002877
300.0003261
300.0003304
300.0003136
300.0000823
300.0002297
300.0003276
300.0003766
300.0003873
300.0003703
300.0000902
300.0002509
300.0003568
300.0004123
300.0004309
300.0004199
300.0000988
300.0002716
300.0003818
300.000441
300.0004686
300.0004701
300.0000898
300.0002966
300.0004772
300.0005984
300.000659
300.0006642
300.0000613
300.0002175
300.0003722
300.0004806
300.0005374
300.000538
300.0000375
300.0001457
300.0002694
300.0003571
300.000402
300.0003978
300.0000232
300.0000985
300.0001907
300.0002548
300.0002824
300.0002721
300.0000214
300.0000858
300.0001538
300.0001974
300.0002073
300.0001932
300.0000317
300.0001061
300.0001685
300.0001977
300.000199
300.0001866
300.00005
300.0001517
300.000221
300.0002488
300.0002493
300.0002385
300.000069
300.000201
300.0002861
300.000323
300.0003273
300.0003147
300.0000841
300.0002397
300.0003425
300.0003918
300.0004025
300.0003941
300.0000944
300.0002677
300.0003853
300.0004456
300.0004646
300.000458
300.0001029
300.0002928
300.0004224
300.0004926
300.0005215
300.0005223
300.0001106
300.0003164
300.0004581
300.0005374
300.0005765
300.0005881
299.9999985
299.9999973
299.9999976
299.9999977
299.9999977
299.9999979
299.9999986
299.9999976
299.9999978
299.999998
299.999998
299.9999982
299.9999988
299.999998
299.9999981
299.9999982
299.9999982
299.9999983
299.999999
299.9999982
299.9999983
299.9999983
299.9999982
299.999998
299.9999991
299.9999983
299.9999984
299.9999983
299.999998
299.9999977
299.9999992
299.9999988
299.9999988
299.9999986
299.9999984
299.999998
299.9999923
299.9999891
299.9999896
299.9999903
299.999991
299.9999917
299.9999941
299.9999922
299.9999927
299.9999929
299.9999928
299.9999926
299.9999958
299.9999947
299.9999949
299.9999944
299.9999934
299.9999921
299.9999969
299.999996
299.9999958
299.9999948
299.9999929
299.9999905
299.9999976
299.9999968
299.9999962
299.9999948
299.9999923
299.9999898
299.9999986
299.9999982
299.9999975
299.9999962
299.9999945
299.9999929
299.9999874
299.9999801
299.9999801
299.9999806
299.9999806
299.9999803
299.9999902
299.9999853
299.9999852
299.9999847
299.9999832
299.9999813
299.9999927
299.9999896
299.9999892
299.9999875
299.9999844
299.999981
299.9999947
299.9999924
299.9999912
299.9999886
299.9999844
299.99998
299.9999963
299.9999942
299.9999924
299.9999892
299.999985
299.9999806
299.9999984
299.9999971
299.9999954
299.9999932
299.9999907
299.9999883
299.999985
299.9999721
299.9999695
299.9999684
299.9999666
299.9999642
299.9999879
299.9999778
299.9999751
299.9999728
299.9999696
299.9999661
299.9999908
299.9999828
299.9999798
299.9999765
299.9999722
299.9999678
299.9999933
299.9999867
299.9999831
299.9999791
299.9999742
299.9999693
299.9999956
299.9999902
299.9999862
299.9999819
299.9999773
299.9999729
299.9999982
299.9999952
299.9999926
299.9999902
299.9999879
299.9999858
299.9999852
299.999968
299.9999608
299.999957
299.9999534
299.9999494
299.9999878
299.9999727
299.9999656
299.9999611
299.9999567
299.9999527
299.9999905
299.9999774
299.9999703
299.9999653
299.9999609
299.999957
299.9999928
299.9999814
299.9999744
299.9999693
299.9999651
299.9999618
299.999995
299.999986
299.9999796
299.9999751
299.999972
299.9999696
299.9999975
299.9999934
299.9999905
299.9999886
299.9999874
299.9999862
299.9999892
299.9999691
299.9999582
299.999951
299.9999454
299.9999404
299.9999908
299.9999728
299.9999616
299.9999539
299.9999485
299.9999446
299.9999927
299.9999767
299.9999656
299.9999582
299.9999538
299.9999512
299.9999944
299.9999805
299.9999703
299.9999639
299.999961
299.9999597
299.9999959
299.9999858
299.9999781
299.9999738
299.9999722
299.9999716
299.9999975
299.9999941
299.9999917
299.9999906
299.9999907
299.9999913
300.0000007
299.9999803
299.9999625
299.9999518
299.9999446
299.9999389
300.0000003
299.9999811
299.9999644
299.9999537
299.9999471
299.9999434
300.0000006
299.9999835
299.9999679
299.9999581
299.9999533
299.9999516
300.0000009
299.9999875
299.9999738
299.9999659
299.9999636
299.9999642
300.0000009
299.9999943
299.9999856
299.9999812
299.9999818
299.9999849
299.9999996
300.0000002
299.9999996
300.0000001
300.0000023
300.0000054
300.0000197
300.0000165
299.9999863
299.9999647
299.9999529
299.9999463
300.0000175
300.0000113
299.9999838
299.9999641
299.9999545
299.9999513
300.0000159
300.0000107
299.9999865
299.9999697
299.9999634
299.9999638
300.0000142
300.0000152
299.9999974
299.9999854
299.999984
299.9999891
300.0000109
300.0000215
300.0000163
300.0000127
300.0000165
300.0000258
300.0000034
300.0000122
300.0000168
300.0000206
300.0000255
300.0000312
300.0000393
300.0000789
300.000055
300.0000156
299.9999933
299.9999838
300.0000367
300.0000702
300.0000455
300.0000104
299.9999937
299.9999913
300.0000336
300.000066
300.0000474
300.0000201
300.0000107
300.0000154
300.0000295
300.000066
300.0000634
300.0000521
300.0000531
300.0000662
300.0000218
300.0000594
300.0000755
300.0000835
300.0000955
300.0001119
300.0000069
300.0000247
300.0000379
300.0000477
300.000057
300.0000653
300.0000558
300.0001397
300.0001565
300.0001341
300.0001088
300.0000958
300.0000538
300.0001314
300.000146
300.0001269
300.0001101
300.0001103
300.0000503
300.000125
300.0001458
300.0001389
300.0001367
300.0001492
300.0000444
300.0001183
300.0001525
300.0001649
300.0001797
300.0002009
300.0000322
300.0000957
300.0001378
300.0001652
300.0001894
300.000211
300.0000099
300.0000362
300.000058
300.0000743
300.0000877
300.0000975
300.0000708
300.0001892
300.0002488
300.000261
300.0002564
300.0002517
300.0000707
300.0001856
300.0002426
300.0002579
300.0002637
300.0002748
300.0000677
300.0001808
300.000242
300.0002674
300.0002872
300.0003106
300.0000596
300.0001685
300.0002374
300.000277
300.0003094
300.0003385
300.0000418
300.0001289
300.0001936
300.0002379
300.0002722
300.0002967
300.0000126
300.0000467
300.0000752
300.0000963
300.0001119
300.0001214
300.0000875
300.0002355
300.0003244
300.0003658
300.0003858
300.0003948
300.0000888
300.0002392
300.0003286
300.0003735
300.0004039
300.0004282
300.0000848
300.000236
300.0003305
300.0003832
300.000423
300.0004557
300.0000728
300.0002144
300.0003133
300.0003759
300.0004222
300.0004555
300.000049
300.0001555
300.0002388
300.0002966
300.0003372
300.000361
300.0000149
300.0000544
300.0000878
300.0001119
300.0001282
300.0001365
300.0001047
300.0002877
300.0004031
300.0004659
300.0005028
300.0005218
300.0001046
300.0002934
300.0004157
300.0004855
300.0005322
300.000563
300.0000968
300.0002833
300.000414
300.0004931
300.0005472
300.0005816
300.0000793
300.0002452
300.0003744
300.0004598
300.0005165
300.0005474
300.000051
300.0001673
300.0002661
300.0003366
300.000382
300.0004037
300.0000155
300.0000562
300.0000922
300.000119
300.0001364
300.0001443
300.0001135
300.0003291
300.0004841
300.000575
300.0006261
300.0006484
300.000109
300.000326
300.0004919
300.0005935
300.0006541
300.0006835
300.0000962
300.0003009
300.0004706
300.0005829
300.0006508
300.000684
300.0000749
300.0002469
300.0003995
300.0005093
300.0005771
300.0006071
300.0000457
300.0001594
300.0002658
300.0003461
300.0003976
300.0004203
300.0000133
300.00005
300.0000863
300.0001153
300.0001347
300.0001438
299.9999977
299.9999978
299.9999979
299.9999952
299.9999958
299.9999961
299.9999963
299.9999944
299.9999961
299.9999966
299.9999969
299.9999953
299.9999966
299.9999971
299.9999975
299.9999964
299.999997
299.9999975
299.9999981
299.9999974
299.9999974
299.9999979
299.9999985
299.9999981
299.9999929
299.9999938
299.9999947
299.9999931
299.9999892
299.9999908
299.9999923
299.9999921
299.9999902
299.9999919
299.9999938
299.999994
299.9999921
299.9999938
299.999996
299.999997
299.9999938
299.9999955
299.9999979
300.0000005
299.9999949
299.9999966
299.9999991
300.0000029
299.9999918
299.9999929
299.9999939
299.9999905
299.9999874
299.9999893
299.9999915
299.9999909
299.9999889
299.9999909
299.9999937
299.9999946
299.9999915
299.9999937
299.9999974
300.0000008
299.9999939
299.9999964
300.0000013
300.0000081
299.9999953
299.999998
300.0000035
300.0000109
299.9999922
299.999993
299.9999901
299.9999875
299.9999893
299.9999887
299.9999892
299.9999912
299.9999919
299.9999924
299.9999949
299.999997
299.9999954
299.9999988
300.0000025
299.9999967
300.0000004
300.0000045
299.9999945
299.9999949
299.9999901
299.9999894
299.9999911
299.9999893
299.9999905
299.9999929
299.999993
299.9999935
299.9999969
299.9999994
299.9999961
300.0000003
300.0000038
299.9999966
300.0000007
300.0000041
300.0000016
300.0000011
299.9999915
299.999996
299.9999979
299.9999926
299.9999947
299.9999975
299.999995
299.9999958
299.9999995
299.9999987
299.9999973
300.0000012
299.9999995
299.9999967
299.9999998
299.9999977
300.0000138
300.0000099
300.0000146
300.0000154
300.0000059
300.0000085
300.0000009
300.0000044
299.9999995
300.0000006
299.9999994
299.999999
300.0000103
300.0000058
300.0000561
300.000048
300.0001811
300.0001681
300.000342
300.0003194
300.0004956
300.0004678
300.000615
300.0005818
299.9999976
299.999998
299.9999985
299.9999979
299.9999977
299.9999979
299.999998
299.9999964
299.9999975
299.9999976
299.9999973
299.9999944
299.9999973
299.9999972
299.9999967
299.9999927
299.9999971
299.9999969
299.9999963
299.9999921
299.9999971
299.9999969
299.9999964
299.9999932
299.9999973
299.9999973
299.999997
299.9999952
299.9999976
299.9999977
299.9999978
299.999997
299.9999977
299.9999979
299.9999981
299.9999985
299.9999978
299.9999971
299.9999963
299.9999955
299.9999944
299.9999937
299.9999913
299.9999977
299.9999979
299.9999982
299.9999983
299.9999983
299.9999979
299.9999974
299.999997
299.9999968
299.9999969
299.9999972
299.9999946
299.9999977
299.999998
299.9999983
299.9999983
299.9999981
299.9999976
299.9999971
299.9999967
299.9999965
299.9999967
299.999997
299.999997
299.9999978
299.9999981
299.9999984
299.9999983
299.999998
299.9999975
299.999997
299.9999968
299.9999968
299.9999969
299.999997
299.9999971
299.999995
299.9999964
299.9999985
300.0000012
299.999994
299.9999947
299.9999956
299.9999952
299.9999921
299.9999919
299.999991
299.9999865
299.9999902
299.9999893
299.999987
299.9999798
299.9999888
299.9999875
299.999985
299.9999776
299.9999881
299.9999872
299.9999853
299.99998
299.9999884
299.9999881
299.9999873
299.9999844
299.9999892
299.9999894
299.9999895
299.9999879
299.9999897
299.9999906
299.9999912
299.9999918
299.999989
299.9999851
299.9999814
299.9999798
299.9999802
299.9999826
299.999981
299.99999
299.9999911
299.9999917
299.9999919
299.999991
299.999989
299.9999864
299.9999851
299.9999855
299.9999876
299.9999895
299.999986
299.9999904
299.9999916
299.999992
299.9999919
299.9999912
299.9999896
299.9999874
299.9999863
299.9999865
299.9999875
299.9999886
299.9999888
299.9999914
299.9999921
299.9999924
299.9999921
299.9999913
299.99999
299.9999886
299.999988
299.9999881
299.9999884
299.9999885
299.9999885
299.9999951
299.9999975
300.000002
300.0000064
299.9999929
299.9999944
299.9999964
299.9999956
299.9999894
299.9999897
299.9999891
299.9999848
299.9999861
299.9999854
299.9999826
299.9999742
299.9999834
299.9999821
299.9999786
299.999969
299.9999815
299.99998
299.9999766
299.9999673
299.9999803
299.9999791
299.9999762
299.9999682
299.9999797
299.9999788
299.9999768
299.9999711
299.9999791
299.9999788
299.9999779
299.9999773
299.9999712
299.9999657
299.9999627
299.9999644
299.9999691
299.9999748
299.9999729
299.9999786
299.9999786
299.9999781
299.9999775
299.9999757
299.9999732
299.999972
299.9999731
299.9999763
299.9999805
299.9999835
299.9999791
299.9999785
299.9999788
299.9999784
299.9999776
299.9999766
299.9999754
299.9999748
299.9999755
299.9999772
299.9999794
299.9999812
299.9999818
299.9999791
299.9999792
299.9999786
299.9999778
299.9999772
299.9999767
299.9999765
299.9999768
299.9999776
299.9999784
299.9999788
299.9999788
299.9999955
299.9999988
300.0000013
299.9999924
299.9999945
299.9999947
299.9999881
299.9999891
299.9999896
299.9999822
299.9999838
299.9999836
299.9999812
299.9999719
299.99998
299.9999789
299.9999748
299.9999622
299.9999762
299.9999742
299.9999689
299.9999539
299.9999721
299.9999696
299.9999637
299.999948
299.9999683
299.9999657
299.9999601
299.9999457
299.9999652
299.9999628
299.9999594
299.9999551
299.9999435
299.9999422
299.9999443
299.999951
299.9999604
299.9999682
299.9999658
299.9999627
299.9999605
299.9999578
299.9999556
299.9999535
299.9999543
299.999957
299.9999618