/*--------------------------------*- C++ -*----------------------------------*\
  =========                 |
  \\      /  F ield         | OpenFOAM: The Open Source CFD Toolbox
   \\    /   O peration     | Website:  https://openfoam.org
    \\  /    A nd           | Version:  7
     \\/     M anipulation  |
\*---------------------------------------------------------------------------*/
FoamFile
{
    version     2.0;
    format      ascii;
    class       volScalarField;
    location    "0.00271";
    object      Uy;
}
// * * * * * * * * * * * * * * * * * * * * * * * * * * * * * * * * * * * * * //

dimensions      [0 1 -1 0 0 0 0];

internalField   nonuniform List<scalar> 
5000
(
2.9011576e-21
4.9804994e-21
0
0
-1.9025641e-21
1.4708796e-36
1.3603729e-21
0
0
-1.4417609e-21
-2.8861022e-21
1.4318256e-21
1.4290165e-21
-1.431655e-21
0
-1.434257e-21
-1.4467221e-51
1.4307938e-21
0
1.4274221e-21
-1.425742e-21
-1.4240587e-21
2.8447358e-21
-1.4206824e-21
-1.4190133e-21
-1.168227e-35
1.4157061e-21
1.4140657e-21
-2.8248804e-21
2.4459935e-35
-2.4632601e-35
1.4076617e-21
2.812195e-21
-2.8091049e-21
2.4324677e-35
-1.218917e-34
-4.8546102e-35
2.7971924e-21
-2.7943175e-21
-2.7914868e-21
2.7887119e-21
-9.5811148e-35
-2.783338e-21
1.3903669e-21
4.167274e-21
-1.3878436e-21
-1.3866201e-21
-9.4896388e-35
-2.7685282e-21
0
1.3820545e-21
1.9625134e-37
-1.3799697e-21
2.7579594e-21
-4.8173588e-35
-2.7541744e-21
1.3721723e-21
-4.7073863e-35
-1.3595633e-21
0
1.3596782e-21
4.6384969e-35
3.8613962e-37
1.358309e-21
-1.357879e-21
4.7334381e-35
1.3533507e-21
-1.358464e-21
-1.359442e-21
1.3582618e-21
1.357684e-21
-1.3552792e-21
-1.3560958e-21
2.7125807e-21
1.3589309e-21
-1.3651342e-21
0
1.3510346e-21
-1.9197725e-37
-1.3539395e-21
1.3581816e-21
-3.8729636e-37
3.8590097e-37
1.3493089e-21
1.3508115e-21
4.7300315e-35
-1.3577747e-21
0
-1.3579105e-21
-1.4085475e-34
-4.7228008e-35
1.352524e-21
1.3602887e-21
-2.7186705e-21
-9.3821486e-35
1.3612249e-21
0
0
-1.3560676e-21
-9.4610623e-35
2.7272039e-21
-1.3598214e-21
-2.7309139e-21
0
1.3623865e-21
1.3681046e-21
-1.3686505e-21
-1.3651414e-21
0
0
1.3650199e-21
1.3671023e-21
0
-1.3761647e-21
4.7873966e-35
1.3716037e-21
-1.3806128e-21
3.9241863e-37
-4.8029944e-35
4.7581405e-52
2.7704493e-21
-5.91739e-37
-1.3876659e-21
0
-1.3868428e-21
1.3852025e-21
1.3865522e-21
-2.7881761e-21
-1.3949004e-21
2.7762077e-21
1.3904182e-21
-1.4001757e-21
-1.400397e-21
-1.3969975e-21
0
1.4070837e-21
1.4071204e-21
-1.4078199e-21
-4.8803724e-35
1.4123677e-21
-1.4129297e-21
-1.4061701e-21
0
1.4183612e-21
1.418951e-21
-1.4141062e-21
1.417251e-21
-8.061918e-37
-1.4184196e-21
1.4271549e-21
-1.4288649e-21
9.925609e-35
1.4319059e-21
-1.4335177e-21
1.4264109e-21
1.4287124e-21
-1.4392662e-21
0
0
-1.4434023e-21
-1.4448019e-21
1.4413891e-21
1.4482343e-21
-1.4498641e-21
-1.0003016e-34
1.4446016e-21
-1.4553631e-21
-1.456277e-21
0
1.4505948e-21
1.4615635e-21
0
-1.4547806e-21
-1.4567977e-21
0
1.4686955e-21
3.0479473e-34
-1.4718395e-21
1.4731846e-21
1.4695329e-21
-1.4763258e-21
-1.0205543e-34
1.013842e-34
6.3122723e-37
1.4845975e-21
-1.4824904e-21
-2.0525788e-34
1.0179755e-34
-1.0234909e-34
1.489258e-21
0
0
-1.4938759e-21
-1.4946588e-21
0
0
1.4986298e-21
-7.7294354e-53
-1.5014326e-21
0
1.4987364e-21
-1.505372e-21
-4.1754582e-34
2.9974141e-21
-1.500427e-21
-3.1375748e-34
-2.1484964e-37
-1.5078813e-21
1.5144901e-21
-2.1538867e-37
-2.0924917e-34
1.0507955e-34
-1.5196463e-21
0
1.5130746e-21
1.0546012e-34
4.2311826e-34
1.5199112e-21
0
-1.5254595e-21
-1.5227218e-21
0
0
0
1.533839e-21
1.0647443e-34
-1.5378884e-21
0
0
1.5332408e-21
1.5343276e-21
-1.5427611e-21
-1.5471275e-21
0
1.546548e-21
1.5457765e-21
-1.5445523e-21
-1.5406272e-21
0
1.5524635e-21
-4.3128208e-34
-1.0708579e-34
1.5455349e-21
-1.5565187e-21
-1.5609965e-21
0
1.5604e-21
-2.1674913e-34
1.5584267e-21
2.1565576e-34
-3.113072e-21
1.5661899e-21
-2.1730231e-34
-5.4246885e-34
-1.0858517e-34
-1.5701285e-21
1.5617588e-21
1.5633245e-21
0
-1.5744409e-21
-1.570261e-21
0
1.5812279e-21
1.5805805e-21
-3.1605639e-21
-1.5786526e-21
1.5758841e-21
1.5769647e-21
4.398411e-34
-1.5866263e-21
1.5783475e-21
-1.0957636e-34
-1.590906e-21
1.5913926e-21
-1.102963e-34
1.1098562e-34
-4.5326593e-37
-1.0984166e-34
1.5967373e-21
0
0
-1.5983896e-21
-1.598084e-21
0
0
0
0
1.6040775e-21
1.1051138e-34
-3.216916e-21
6.8897177e-37
1.6156175e-21
1.614556e-21
-2.2406677e-34
-2.2316839e-34
-2.2950291e-37
-1.614474e-21
-1.6095492e-21
-1.6151204e-21
3.2371261e-21
4.8540913e-21
-1.6200931e-21
-3.2398505e-21
0
1.6113758e-21
1.6073778e-21
-1.6073824e-21
4.5865272e-37
-6.9287602e-37
4.6207647e-37
1.6210901e-21
1.6276438e-21
-1.628582e-21
-3.2388581e-21
1.620779e-21
-4.8811046e-52
1.6317824e-21
4.5084443e-34
-3.267241e-21
0
0
3.2721e-21
-9.1142856e-34
-3.2809427e-21
0
1.6376562e-21
1.6338419e-21
-1.6346096e-21
2.335745e-37
-2.282248e-34
2.328779e-37
1.645677e-21
-1.6501188e-21
-1.6485275e-21
0
1.6406681e-21
-2.2787066e-34
-1.657564e-21
3.3495315e-21
-4.6458654e-34
-1.6633636e-21
-4.6063903e-34
-3.3158079e-21
3.3063973e-21
1.6537981e-21
-1.6602701e-21
-2.3615285e-37
-1.6599799e-21
0
0
1.6527158e-21
-2.3070479e-34
-3.3273042e-21
2.3539122e-37
4.9923616e-21
-1.6754218e-21
-1.6735582e-21
3.3440153e-21
-1.6707228e-21
1.6662381e-21
3.3409651e-21
-1.6700826e-21
-1.6598148e-21
-1.6609931e-21
1.673107e-21
1.043599e-51
-1.6681069e-21
1.6753228e-21
-1.6761993e-21
1.6710468e-21
4.6507912e-34
4.7724679e-37
1.6739798e-21
-3.3626932e-21
1.6824941e-21
4.6429151e-34
-4.6420038e-34
-1.6859784e-21
-3.3804164e-21
5.0654718e-21
4.678895e-34
-9.3211058e-34
4.6573418e-34
-3.3844733e-21
3.3859863e-21
-4.6665574e-34
-3.3673363e-21
0
0
1.6918677e-21
-2.3571257e-34
-1.7041782e-21
-1.700996e-21
1.696785e-21
5.0888977e-21
-1.7059907e-21
-1.7070516e-21
-4.837117e-37
-1.709806e-21
0
3.4119387e-21
3.4279255e-21
-1.7152758e-21
-3.4204362e-21
-1.7183815e-21
3.4396234e-21
3.4295486e-21
-3.4459158e-21
-3.4484902e-21
0
3.4283111e-21
-1.7282309e-21
-3.471182e-21
1.7375087e-21
1.7380773e-21
-2.4701636e-37
2.4184739e-34
1.7463929e-21
-1.7527866e-21
-1.7602188e-21
1.7661668e-21
-2.4572073e-34
-2.5248841e-37
-2.4709343e-34
-1.7863037e-21
1.7911567e-21
-7.4810245e-34
-2.5005794e-34
-5.0124935e-34
-1.8110893e-21
1.8161529e-21
-2.528625e-34
-5.063682e-34
-2.6027359e-37
-3.6733006e-21
-1.8415224e-21
1.8459942e-21
3.7009585e-21
-2.5757899e-34
-3.7199852e-21
-1.8645481e-21
3.7372524e-21
1.8722885e-21
-1.876154e-21
-1.8802758e-21
-5.2291456e-34
1.8876426e-21
0
0
1.9005898e-21
0
-1.910019e-21
1.9142245e-21
2.7267486e-37
-5.3395446e-34
0
-1.9339684e-21
1.9380552e-21
1.9420136e-21
-3.8927149e-21
-1.9508232e-21
1.9549567e-21
0
0
-1.965296e-21
5.4687714e-34
1.9714894e-21
0
0
-1.9812899e-21
8.2700992e-34
1.9885838e-21
0
0
0
0
0
0
0
0
4.0576804e-21
1.1294286e-33
-2.0407073e-21
2.0461242e-21
-2.0512259e-21
2.0566005e-21
-5.7319076e-34
-2.0675599e-21
-5.7561315e-34
-2.0781244e-21
0
0
2.0932529e-21
5.8252311e-34
-2.1022013e-21
0
0
0
0
0
0
0
4.3216072e-21
-1.7931732e-33
-4.3030302e-21
2.1604546e-21
3.0830894e-37
2.1743914e-21
-1.2065225e-33
-4.3413972e-21
-2.1663832e-21
6.9440451e-52
6.5704269e-21
0
-4.3875443e-21
0
0
4.4268789e-21
-6.1680877e-34
-6.6503055e-21
2.2091295e-21
2.2154868e-21
-2.2332886e-21
2.2439008e-21
-2.2377532e-21
-6.1865087e-34
2.2312723e-21
-2.235636e-21
0
-2.2437465e-21
2.2528015e-21
4.5403498e-21
-2.2802871e-21
-2.2740591e-21
-2.2668665e-21
-2.2691825e-21
4.5535913e-21
2.2829731e-21
-2.2843224e-21
0
2.3088101e-21
-2.3201213e-21
-2.3269287e-21
6.9948742e-21
6.6033135e-37
-4.6259155e-21
2.3135329e-21
3.219208e-34
2.3235527e-21
-6.6168624e-37
-4.6737465e-21
2.353282e-21
0
-6.5538318e-34
-3.3567778e-37
-2.3780251e-21
2.385475e-21
-6.6236394e-34
-3.3100341e-34
-3.3865609e-37
-2.3826266e-21
2.3836271e-21
5.5395096e-53
-6.6346695e-34
-3.4078231e-37
-4.7862853e-21
-3.3121821e-34
2.3949104e-21
0
0
-2.4233623e-21
-1.0159123e-33
2.4651519e-21
-2.4667329e-21
3.4070173e-34
-6.7609582e-52
-3.4021982e-34
2.4501462e-21
2.449012e-21
3.3941879e-34
-2.4478677e-21
0
0
2.4472848e-21
-2.4558298e-21
2.0452286e-33
2.4632588e-21
-2.4677003e-21
0
2.4733079e-21
2.4802187e-21
-2.4816593e-21
-2.4752891e-21
0
2.4797148e-21
2.4862592e-21
-4.983584e-21
-2.4876978e-21
2.4845005e-21
2.4850854e-21
3.4484135e-34
2.4914917e-21
6.940004e-34
-5.0059266e-21
0
0
0
2.4977969e-21
2.4991067e-21
0
-2.5072767e-21
-3.4694135e-34
2.5058267e-21
0
0
-2.5138337e-21
-3.4930225e-34
3.4879753e-34
-2.51547e-21
2.5120739e-21
-1.0436067e-33
-2.5042813e-21
0
-2.5163213e-21
-3.5036035e-34
2.5182252e-21
-2.5074954e-21
2.5169423e-21
2.5288676e-21
-2.5288021e-21
0
2.5392671e-21
2.5377327e-21
-2.5346774e-21
-2.530963e-21
0
-2.5396156e-21
2.5511128e-21
2.5634885e-21
-2.5642418e-21
-5.109016e-21
1.4204624e-33
7.7165086e-21
6.3163036e-52
-2.5611499e-21
-5.1158183e-21
1.419716e-33
5.1148622e-21
-2.5552449e-21
2.5567742e-21
-2.5661277e-21
-2.5785095e-21
5.1525954e-21
0
0
-5.1499046e-21
1.3857526e-51
5.1639805e-21
0
0
-5.2148217e-21
-1.0123913e-51
5.2111497e-21
0
0
-5.2043761e-21
-2.6086509e-21
5.2553508e-21
2.6265604e-21
0
-5.2405253e-21
1.4585825e-33
5.267577e-21
-2.6414207e-21
0
2.6327539e-21
-2.6337671e-21
3.739281e-37
2.6294362e-21
-2.6320607e-21
2.640417e-21
2.6514791e-21
-2.6515384e-21
-2.647121e-21
7.3635163e-34
2.6536671e-21
-2.6538758e-21
-7.3700205e-34
2.6547972e-21
-2.666794e-21
2.6750694e-21
2.6768602e-21
-2.6845296e-21
-2.695435e-21
7.4954258e-34
2.6936493e-21
-2.6967753e-21
3.8351889e-37
2.6904484e-21
-2.6933803e-21
2.7008086e-21
2.7064791e-21
-2.7097775e-21
-5.4153476e-21
1.5071077e-33
5.4165278e-21
-2.6979473e-21
3.8486698e-37
5.4499475e-21
7.7787639e-37
-2.7416095e-21
0
2.7528638e-21
0
-2.7571112e-21
0
0
0
-2.751291e-21
-1.6660791e-52
2.7629197e-21
0
2.7703471e-21
-7.6660306e-34
-2.7752755e-21
0
0
0
-2.8069091e-21
7.8244473e-34
2.8310968e-21
0
2.8255308e-21
7.8570788e-34
-2.8405421e-21
0
2.838073e-21
-2.8299275e-21
1.5811625e-33
2.8541415e-21
-2.8537613e-21
0
-2.8666488e-21
-7.9939266e-34
2.8878484e-21
0
2.878112e-21
-2.8730283e-21
-1.5896029e-33
2.8709847e-21
-1.6053266e-33
-4.140504e-37
8.1265897e-34
-4.1245575e-37
-2.8813952e-21
0
2.912085e-21
-8.0852176e-34
-8.1104498e-34
9.6119251e-52
-8.0856242e-34
0
-5.8870502e-21
-8.1725466e-34
2.9499699e-21
-2.9470606e-21
8.1528375e-34
2.9542937e-21
2.9711668e-21
8.2517542e-34
-8.2911987e-34
3.0074084e-21
-3.0196184e-21
-3.0204451e-21
0
-3.0151168e-21
8.4347217e-34
3.0419727e-21
0
0
0
-6.1029842e-21
3.3899106e-33
6.1279031e-21
0
0
0
0
0
0
0
-6.1474854e-21
1.7171797e-33
6.1865962e-21
3.0855406e-21
-3.1034724e-21
-3.119968e-21
8.672423e-34
1.739378e-33
3.1416813e-21
-3.1360056e-21
3.1462083e-21
3.1524153e-21
-3.1506487e-21
-3.1647711e-21
1.7642415e-33
3.189173e-21
3.2005762e-21
-8.8494451e-34
-3.1816784e-21
-3.1995417e-21
3.2158566e-21
3.2279613e-21
-3.2391802e-21
3.2274445e-21
0
-3.2343095e-21
-3.2372803e-21
8.9547349e-34
3.243151e-21
-3.2575388e-21
3.2599183e-21
3.2762609e-21
-3.2879027e-21
3.2768601e-21
9.0845367e-34
-3.2875747e-21
-3.2984298e-21
-4.6748816e-37
6.5652972e-21
1.8247477e-33
-3.3032342e-21
-3.3335979e-21
0
3.3701224e-21
0
0
0
3.3649039e-21
3.3794675e-21
-3.3886119e-21
-3.394844e-21
0
3.4051804e-21
-9.512205e-34
-3.4362079e-21
0
0
3.4146863e-21
-1.9058286e-33
-3.4530761e-21
0
0
3.454963e-21
-1.9110918e-33
-3.4616402e-21
0
3.4917237e-21
-9.7201666e-34
9.671868e-34
-9.6438511e-34
-3.4926505e-21
0
-3.5244353e-21
1.961228e-33
3.5229227e-21
0
3.5068299e-21
-3.5363333e-21
-3.5593834e-21
7.1463451e-21
9.9557209e-34
-7.1366565e-21
9.8492292e-34
3.5532726e-21
0
0
3.6281159e-21
-1.0067775e-33
-3.60624e-21
0
3.5859377e-21
-3.6129465e-21
-3.6309548e-21
3.6384615e-21
0
-3.6197343e-21
3.6009198e-21
2.0028559e-33
-2.0219281e-33
3.6783399e-21
-3.0750764e-33
3.6846699e-21
-3.6615855e-21
1.0109869e-33
-2.0221322e-33
-7.2951162e-21
1.0141031e-33
3.6643409e-21
0
0
0
-7.3726962e-21
-3.6893144e-21
7.3811814e-21
3.7048971e-21
0
0
3.7423425e-21
4.3159039e-52
-3.733144e-21
0
-7.6116571e-21
-3.8120199e-21
7.5814325e-21
3.7655588e-21
0
-7.5168054e-21
-1.0695206e-36
1.1335367e-20
-1.0568565e-33
-7.6509669e-21
3.8096641e-21
2.1566149e-36
-3.7941531e-21
1.0554366e-33
2.1150075e-33
3.8391854e-21
0
3.8448514e-21
-2.1286935e-33
-7.6717584e-21
3.8478608e-21
-6.4465041e-33
-3.8924132e-21
7.7813043e-21
-5.5132209e-37
-3.877774e-21
0
0
0
-3.9341743e-21
3.9290403e-21
7.846248e-21
-3.9269418e-21
-1.0938198e-33
-1.0989713e-33
-3.9801515e-21
0
3.9719955e-21
-5.6476626e-37
-7.9627462e-21
3.9939317e-21
2.2276642e-33
-4.0303864e-21
-4.0292237e-21
2.2373019e-33
8.0635349e-21
0
4.060458e-21
4.0794339e-21
0
-4.0839009e-21
-4.086146e-21
4.0937739e-21
0
-4.1232557e-21
0
0
4.1431427e-21
-3.4563386e-33
-4.1625488e-21
0
0
4.1966304e-21
4.201411e-21
-4.2106512e-21
-4.2245188e-21
4.2401686e-21
4.250828e-21
-8.5123388e-21
-4.2627645e-21
1.1872748e-33
4.287424e-21
-2.3859035e-33
-2.3907825e-33
4.3167848e-21
-4.3283099e-21
4.3439228e-21
-4.3571212e-21
-3.7218966e-36
4.372804e-21
-8.7694603e-21
-4.4031148e-21
-4.4231596e-21
8.8679521e-21
8.8743954e-21
-4.4433952e-21
4.4540288e-21
-4.467529e-21
2.4915504e-33
9.011254e-21
-4.5159196e-21
1.2546223e-33
-1.2581494e-33
-4.5404021e-21
0
0
4.5845493e-21
4.6012823e-21
0
-4.6192011e-21
-4.6305132e-21
0
-4.6580495e-21
1.2984469e-33
4.6927066e-21
-4.703373e-21
1.3072544e-33
4.7247542e-21
0
4.7562592e-21
2.6515102e-33
-4.7904829e-21
4.7998165e-21
-1.3335708e-33
-4.8230298e-21
-4.8383325e-21
-1.3481012e-33
4.8768835e-21
0
-4.8996764e-21
4.911346e-21
-1.3999372e-36
2.7439459e-33
4.9581317e-21
-4.9764999e-21
0
-1.0008442e-20
1.1139526e-32
5.0319485e-21
2.8019904e-33
1.0129995e-20
-1.0163365e-20
-1.0193098e-20
1.0221942e-20
1.0253486e-20
5.1442202e-21
0
-5.1781028e-21
-1.038538e-20
7.4009321e-37
-5.2248294e-21
5.2440947e-21
5.2636905e-21
-5.2797046e-21
1.058687e-20
-1.0617179e-20
-8.8697518e-33
1.0689162e-20
-1.0730869e-20
2.9885027e-33
-5.3984955e-21
5.4130027e-21
5.4296358e-21
-5.4478788e-21
-1.5168894e-33
-1.0978104e-20
1.1012712e-20
1.1042916e-20
-1.1075779e-20
-1.5419726e-33
-5.5752462e-21
3.1079211e-33
5.6162706e-21
1.563472e-33
-3.3486645e-51
5.6680408e-21
1.1374693e-20
-5.7083955e-21
9.6863102e-51
-5.7507241e-21
-9.6080857e-33
5.7852562e-21
-1.1608732e-20
3.2328985e-33
1.1690414e-20
-1.115512e-51
-5.8892278e-21
0
0
-5.9465701e-21
5.9674254e-21
1.1976716e-20
0
0
0
-6.0776161e-21
-6.0988053e-21
0
6.1399249e-21
-6.1618912e-21
-1.0300185e-32
1.2416345e-20
0
0
0
-6.2997072e-21
-6.3227142e-21
6.3462815e-21
-6.3704791e-21
-3.5522118e-33
1.2844813e-20
0
0
-1.2986996e-20
1.8526081e-36
6.5439101e-21
-6.5711234e-21
6.5991893e-21
-6.6255903e-21
3.6932314e-33
1.3350483e-20
0
0
-6.7570044e-21
-6.7862813e-21
0
0
6.8701028e-21
6.8982805e-21
0
-6.9569226e-21
-6.9874213e-21
7.0187615e-21
-7.0498217e-21
-7.0800028e-21
7.1102014e-21
7.1412826e-21
-3.9836828e-33
-7.2057408e-21
7.2391604e-21
2.0185024e-33
-7.3061755e-21
0
-7.3728034e-21
4.112659e-33
7.4426339e-21
-7.4789123e-21
4.1727631e-33
7.5516831e-21
0
-7.6242558e-21
2.1275566e-33
1.0943449e-36
-7.7405845e-21
7.7800711e-21
7.8187671e-21
0
-1.5796204e-20
8.8184626e-33
7.9820034e-21
1.1404601e-36
1.6135804e-20
-1.6220118e-20
-1.6305994e-20
1.6394216e-20
8.2422694e-21
0
-1.6670831e-20
1.3955482e-32
1.6856662e-20
0
-1.704761e-20
-4.7611742e-33
8.6234776e-21
2.408739e-33
1.7451177e-20
-1.7553388e-20
-2.2050775e-32
1.7762349e-20
-1.7869864e-20
4.9887072e-33
1.8090679e-20
9.1012352e-21
-1.8314597e-20
-9.2139484e-21
1.8543352e-20
-1.8661324e-20
-2.3454956e-32
1.8902083e-20
-1.9023392e-20
2.6581997e-33
-9.6350743e-21
1.0761305e-32
2.9289151e-20
-5.4554147e-33
-1.9787366e-20
9.9596135e-21
2.005315e-20
-1.0094843e-20
5.6433232e-33
-1.0234042e-20
-1.1445263e-32
1.037545e-20
-2.0895547e-20
8.7617542e-33
-1.1764534e-32
5.9200325e-33
1.0746037e-20
0
1.0900019e-20
1.0979092e-20
0
0
0
0
0
-1.1469341e-20
-1.1554992e-20
0
1.1728187e-20
-1.1815553e-20
-1.9829643e-32
2.3987662e-20
0
0
0
-1.2364241e-20
-1.2458629e-20
1.2554094e-20
1.2650931e-20
-2.5498344e-20
-2.1406769e-32
2.5897593e-20
0
-2.6302421e-20
-2.207827e-32
1.3357898e-20
-1.3463328e-20
1.3570007e-20
-1.3677601e-20
-7.6522193e-33
2.7789917e-20
0
0
-1.4229009e-20
-1.4342928e-20
0
-1.4573925e-20
-4.1753855e-36
-1.4808707e-20
1.4927646e-20
4.5143171e-20
0
3.0582895e-20
3.0830199e-20
0
-4.6997305e-20
-3.1585169e-20
3.1840726e-20
-1.6049225e-20
-1.6179298e-20
4.89319e-20
1.6443216e-20
2.3557314e-36
1.6711841e-20
-1.6847672e-20
-1.6984464e-20
-1.7122316e-20
6.7258402e-51
-1.7401725e-20
-1.754335e-20
1.7686157e-20
0
3.5949852e-20
3.6241731e-20
0
-1.8416202e-20
-3.7131283e-20
-1.0386284e-32
-1.8868079e-20
-3.8042243e-20
3.835063e-20
3.8661147e-20
1.9486885e-20
1.9644318e-20
0
-1.9962777e-20
-6.0371498e-20
2.0286108e-20
-8.5309962e-49
-6.1842416e-20
4.1559545e-20
2.0946509e-20
2.1114441e-20
4.2567246e-20
-4.2908082e-20
-2.1625652e-20
2.1798421e-20
2.197232e-20
2.2147338e-20
-6.6970514e-20
-2.2500878e-20
6.803848e-20
2.2859339e-20
-2.3040376e-20
-4.6445148e-20
2.3405922e-20
-2.3590429e-20
3.9585915e-32
-3.991077e-32
-7.245375e-20
2.4340669e-20
2.4531267e-20
4.9446025e-20
2.4915924e-20
-5.0220116e-20
-7.1922453e-36
-2.5502142e-20
2.5700052e-20
7.7697425e-20
-7.8298208e-20
-2.6300877e-20
7.9510882e-20
0
-8.0739044e-20
-2.7119568e-20
8.1981929e-20
-2.7536263e-20
-5.5492986e-20
-1.5518844e-32
3.1270032e-32
2.8385135e-20
0
5.763441e-20
5.807023e-20
-2.9254341e-20
-2.9474916e-20
-5.9393674e-20
2.9920084e-20
3.0144643e-20
-6.0741034e-20
0
6.165264e-20
6.2112566e-20
-3.1287614e-20
-6.304061e-20
1.7626082e-32
3.1989799e-20
-6.4453298e-20
3.2464927e-20
-1.0892135e-31
-6.5891568e-20
3.318838e-20
0
6.7355978e-20
0
-7.5885339e-32
-3.4423522e-20
-6.9350038e-20
1.0478419e-19
-9.9995219e-36
-7.0877821e-20
0
7.1912235e-20
3.6217114e-20
-7.2959483e-20
4.0796677e-32
3.7009994e-20
-7.4555305e-20
3.7547023e-20
-6.2965065e-32
-7.6182028e-20
3.8365686e-20
-3.8642161e-20
7.7840893e-20
1.1760169e-19
0
-1.1929945e-19
-8.0104762e-20
1.210208e-19
8.1260294e-20
-4.0922028e-20
-8.2431886e-20
4.151195e-20
4.1810109e-20
-8.4220939e-20
4.2413062e-20
8.5435815e-20
-4.3025034e-20
6.1582006e-36
-8.7292625e-20
-8.7921153e-20
1.3283199e-19
-4.4596625e-20
-7.481231e-32
1.3572902e-19
0
-1.377005e-19
-9.2465918e-20
4.6568649e-20
4.690729e-20
4.7248934e-20
0
4.7941531e-20
-2.6806102e-32
-9.7294341e-20
2.7194593e-32
4.9366541e-20
0
5.0100226e-20
-1.0094539e-19
-1.5254725e-19
1.0245902e-19
1.5484223e-19
5.200287e-20
-5.2395996e-20
-1.0558717e-19
5.3195792e-20
-5.3602788e-20
-5.4014726e-20
1.0886349e-19
-1.0970793e-19
-5.5281537e-20
1.6714386e-19
1.1230684e-19
-5.6598146e-20
-1.7114703e-19
1.2768124e-31
-1.2871078e-31
-5.8440276e-20
-6.5407463e-32
-5.9402049e-20
5.9893968e-20
6.0393599e-20
6.0901196e-20
-6.1417006e-20
-6.1941289e-20
1.8742302e-19
-6.301649e-20
-1.2713618e-19
1.923885e-19
1.8389146e-35
-6.5283083e-20
1.3175187e-19
6.6479993e-20
0
-6.7723442e-20
-6.8363746e-20
-1.3803409e-19
6.9683798e-20
-2.3434579e-31
-2.1317877e-19
7.1769674e-20
7.2495289e-20
7.3237012e-20
-7.3995434e-20
-7.4771177e-20
2.2669468e-19
-7.6377263e-20
-1.5441795e-19
-1.300111e-31
-7.8933246e-20
1.5965456e-19
2.4223096e-19
4.53288e-32
-4.5875334e-32
-1.188534e-35
-8.4650221e-20
-1.7138318e-19
-8.6760736e-20
2.6357614e-19
-9.8788708e-32
-1.802914e-19
0
0
9.3821004e-20
-5.2796674e-32
5.3522485e-32
9.7819261e-20
-1.9846031e-19
-1.0068255e-19
-1.1340399e-31
1.0371782e-19
3.1591142e-19
1.0693757e-19
0
0
0
-3.4195937e-19
-2.3177308e-19
3.5353709e-19
-1.3310358e-31
-2.4389951e-19
0
0
2.5720858e-19
-2.9078172e-31
-1.4805709e-31
2.7182887e-19
-1.3850892e-19
-2.8237394e-19
-2.8790297e-19
1.4680541e-19
4.4925519e-19
1.5279356e-19
0
0
0
-4.9794898e-19
-3.3910716e-19
5.197225e-19
-3.9310169e-31
-1.8098085e-19
2.6296008e-35
-1.892354e-19
3.8713261e-19
-2.1985329e-31
-2.0265787e-19
4.1485582e-19
0
-1.2072704e-31
-4.4538721e-19
-4.5623546e-19
7.0115577e-19
4.7900365e-19
-2.4547319e-19
-1.3964276e-31
2.5800386e-19
-7.9372574e-19
-5.4271813e-19
2.7836189e-19
2.8559049e-19
-2.9305176e-19
-3.007527e-19
3.0870045e-19
3.1690235e-19
-1.8060283e-31
1.854029e-31
3.4310975e-19
0
3.6199658e-19
-7.4377913e-19
-1.1462814e-18
7.8523659e-19
8.0694438e-19
4.1466491e-19
-4.730929e-31
-8.7621065e-19
4.5037281e-19
-4.6301875e-19
-4.760537e-19
9.7897687e-19
-1.0066678e-18
-5.1760122e-19
5.3230175e-19
1.0948943e-18
5.6304937e-19
-1.1582414e-18
3.304748e-31
-6.1272074e-19
-6.30275e-19
1.9450485e-18
-6.6695763e-19
-6.8611316e-19
2.1174905e-18
-1.0318828e-34
-2.2410184e-18
-7.684944e-19
2.3718084e-18
-8.1334668e-19
1.2337114e-46
-1.4331897e-30
-1.7710981e-18
1.8219886e-18
1.8743123e-18
-9.6405169e-19
1.1009357e-30
2.0402266e-18
-1.049315e-18
-3.2379651e-18
-1.1101519e-18
1.1418244e-18
0
1.2077728e-18
2.4841755e-18
-1.8151855e-34
-3.9404986e-18
-1.3506374e-18
2.7775155e-18
-2.0291419e-34
-2.9360613e-18
3.0184528e-18
-2.5840271e-30
-3.1896936e-18
4.9179497e-18
3.3698466e-18
0
0
-1.8287987e-18
-5.6375646e-18
-1.9308335e-18
5.9512779e-18
-2.262479e-30
-4.1871039e-18
4.3009391e-18
4.4175376e-18
-2.2684757e-18
-4.6592327e-18
2.3922171e-18
2.4563047e-18
-7.565718e-18
-2.5890483e-18
-4.4265297e-30
1.5135081e-30
2.7999952e-18
-2.8735768e-18
5.8976763e-18
9.0774233e-18
0
-9.5549591e-18
-6.5345059e-18
1.0054029e-17
-9.7693535e-34
-3.5251105e-18
7.2296943e-18
-3.7065253e-18
-3.8001747e-18
-4.324958e-30
3.9935066e-18
8.186498e-18
-4.1950826e-18
-8.5980752e-18
-8.8102889e-18
5.0118798e-30
4.623935e-18
-4.7366794e-18
9.703394e-18
1.4907055e-17
0
-1.563208e-17
-1.0670216e-17
1.6385843e-17
-6.2087185e-30
-5.7230236e-18
5.8573198e-18
5.9941617e-18
-3.4028591e-30
-1.2551203e-17
3.5637314e-30
1.313516e-17
-7.4565967e-30
-7.626137e-30
-1.4051644e-17
-2.1552274e-17
1.4690338e-17
-8.3383585e-30
-2.5561943e-29
7.8455354e-18
8.0181274e-18
1.6387333e-17
-2.5116538e-17
-8.5536923e-18
1.7476463e-17
-1.7851646e-17
-5.1821254e-33
2.7930788e-17
9.5071607e-18
-9.7072099e-18
-2.9731302e-17
3.3696618e-29
2.0652997e-17
1.0539384e-17
-2.1511069e-17
-3.2924914e-17
3.3593144e-17
1.1423786e-17
1.2933514e-29
1.1885986e-17
-2.4244307e-17
6.8616957e-30
-1.2604712e-17
1.2851137e-17
-4.3639799e-29
-4.0063078e-17
4.0833559e-17
4.1614528e-17
0
0
0
-1.4948019e-17
-4.5678023e-17
-1.5507562e-17
-1.7532286e-29
-1.6081401e-17
4.9121106e-17
1.6669599e-17
-1.6969097e-17
-1.7272203e-17
-1.757892e-17
3.5778501e-17
-1.8203199e-17
1.8520765e-17
-6.2752288e-29
-3.8333513e-17
5.8485539e-17
3.965444e-17
0
-4.1004276e-17
-2.3141127e-29
2.1191479e-17
-6.4624632e-17
-2.1895197e-17
2.2252429e-17
0
0
2.3345507e-17
4.7433917e-17
-5.3491421e-29
-4.8940853e-17
-2.4852415e-17
2.5237887e-17
-2.5626826e-17
2.6019214e-17
-2.0705666e-45
-4.4659494e-29
8.1650699e-17
0
0
-5.6889882e-17
-5.7721865e-17
-2.9280206e-17
3.2970332e-29
9.0385508e-17
-3.3932124e-29
-6.1979244e-17
0
6.3726686e-17
3.2304856e-17
-6.5498859e-17
3.3197034e-17
3.3647635e-17
-1.0230361e-16
3.4557701e-17
-1.166229e-28
-7.0958708e-17
1.0783331e-16
7.2824624e-17
0
0
0
-1.1493286e-16
-7.7584411e-17
1.1782805e-16
7.9524682e-17
0
-8.148475e-17
4.5778225e-29
4.1731969e-17
-8.4460482e-17
4.2730772e-17
-4.3233517e-17
-4.3738431e-17
1.327364e-16
-8.9509166e-17
-9.0531456e-17
4.5778856e-17
-4.629392e-17
9.3621745e-17
1.41989e-16
0
-1.4511774e-16
-9.7793208e-17
4.9422273e-17
4.9949537e-17
-5.6038637e-29
5.1008653e-17
-1.7168234e-28
-5.2073551e-17
-2.9208937e-29
1.0381079e-46
5.3680858e-17
0
5.4758442e-17
-1.1059779e-16
-1.6752115e-16
1.6914858e-16
1.7077882e-16
0
-1.1603141e-16
-1.1712324e-16
1.1821652e-16
-5.9655584e-17
-6.0203534e-17
1.8225618e-16
-1.2260223e-16
-1.2370129e-16
6.2400599e-17
1.2590185e-16
6.3501574e-17
-1.9215749e-16
-6.4603639e-17
-1.0849785e-28
1.3141279e-16
3.7663262e-32
-2.0042835e-16
1.3472192e-16
2.037372e-16
6.8463715e-17
-2.0704458e-16
-1.3913158e-16
2.1034935e-16
-1.5692186e-28
-1.4243358e-16
-7.1766371e-17
4.0140597e-29
1.4572826e-16
-8.1498716e-29
7.3959713e-17
7.4506576e-17
-2.2515829e-16
-7.5598226e-17
-8.4530216e-29
1.5337362e-16
-2.5721061e-28
-2.3331598e-16
1.566264e-16
-8.758412e-29
-8.8205603e-29
-1.7749341e-28
-8.0467873e-17
2.4301139e-16
-8.1538546e-17
-1.366454e-28
-2.751102e-28
-2.4940609e-16
8.3665032e-17
1.6838668e-16
-9.405235e-29
8.5245722e-17
8.5769729e-17
-1.7258447e-16
-1.7362641e-16
9.694005e-29
2.635512e-16
-9.8075197e-29
-8.8881057e-17
1.7878771e-16
-8.9904926e-17
-9.041424e-17
5.0442647e-29
-5.0749196e-29
9.1931339e-17
-1.8486666e-16
9.293342e-17
-3.1122288e-28
-3.1282238e-28
2.8326608e-16
-1.8982851e-16
2.7115575e-32
1.9178518e-16
-9.6378658e-17
-2.9058787e-16
-9.7344468e-17
2.934725e-16
-1.0912982e-28
-9.8777039e-17
1.9850034e-16
-1.9944215e-16
-5.0060166e-28
1.0065612e-16
-1.0112023e-16
1.0158203e-16
-2.0408301e-16
1.0249864e-16
3.0886027e-16
0
0
-2.0860696e-16
-2.9771366e-32
2.1038291e-16
-1.0563178e-16
-3.1820893e-16
-1.0650504e-16
3.2081384e-16
3.0515923e-32
1.1967023e-28
2.1644329e-16
-3.259335e-16
-5.4488431e-28
1.0948257e-16
-1.0989777e-16
-1.103104e-16
1.2297947e-28
1.1112792e-16
-2.2306557e-16
2.238701e-16
-3.7412579e-28
-2.2546349e-16
3.3937848e-16
2.270359e-16
-1.139071e-16
-3.4288082e-16
-1.1467747e-16
1.1505868e-16
0
-1.1581313e-16
1.1618636e-16
3.4967078e-16
6.4902159e-29
-2.3458008e-16
1.1765258e-16
1.1801245e-16
-2.3673926e-16
1.1872414e-16
-1.1907595e-16
-2.3885017e-16
3.5931459e-16
-4.0003867e-28
2.6748397e-28
2.4158949e-16
-2.4226089e-16
-1.2146345e-16
-1.2179377e-16
-1.3567745e-28
1.2244635e-16
-2.4553724e-16
2.461764e-16
3.7021531e-16
0
-1.2403086e-16
6.9017997e-29
3.5426501e-32
-3.7484832e-16
-1.252503e-16
3.7664545e-16
-1.2584401e-16
1.5899403e-45
3.7928123e-16
-1.2671463e-16
-3.8099862e-16
-1.272818e-16
2.5512284e-16
-1.278384e-16
1.2811275e-16
-4.2757881e-28
-2.5730712e-16
3.8676011e-16
1.4348719e-28
-5.7488869e-28
2.5940756e-16
-2.5991963e-16
-1.4455651e-28
1.3046411e-16
-2.6142476e-16
-1.3095807e-16
0
0
2.6335938e-16
-2.9289163e-28
-7.5117424e-32
-1.4696002e-28
-1.3260607e-16
-1.3283131e-16
1.3305401e-16
1.332742e-16
-2.6698373e-16
2.6741404e-16
-1.4867119e-28
-2.6825965e-16
2.6867497e-16
4.4808838e-28
-1.4958781e-28
1.3494556e-16
-2.702866e-16
1.3533859e-16
-3.0092094e-28
-2.714436e-16
0
2.7219046e-16
1.362783e-16
-2.7291788e-16
-1.3663717e-16
1.3681299e-16
-2.2815252e-28
-1.3715741e-16
0
0
2.7531224e-16
2.756352e-16
0
-2.7626695e-16
-1.3828788e-16
1.3843993e-16
-1.3858964e-16
1.3873702e-16
0
-2.7804959e-16
0
0
1.394391e-16
-1.5494679e-28
-1.397038e-16
0
1.3995935e-16
7.7757108e-29
-1.4020582e-16
0
2.8088645e-16
2.811171e-16
-1.4067163e-16
-1.5626993e-28
1.4089108e-16
-2.8199493e-16
-2.8220325e-16
2.8240713e-16
4.0160811e-32
3.1399297e-28
4.021562e-32
-2.8317852e-16
1.416802e-16
-1.5738509e-28
1.4185553e-16
-1.4193993e-16
-4.2606646e-16
4.2630665e-16
1.4218012e-16
-1.4225587e-16
-1.5798712e-28
-1.4240093e-16
2.8494047e-16
2.8507482e-16
-2.8520491e-16
-4.7510018e-28
-1.4272617e-16
-1.4278485e-16
2.8568283e-16
-1.4289587e-16
1.5867393e-28
-7.9415654e-29
1.430466e-16
2.8618531e-16
-2.8627325e-16
-2.8635702e-16
0
1.4325603e-16
1.5907554e-28
-2.866505e-16
-1.5914778e-28
4.3015858e-16
2.8682715e-16
0
-2.8692434e-16
-3.1853595e-28
-1.4350256e-16
-1.4351969e-16
4.3060432e-16
-7.9659546e-29
-2.8711765e-16
1.4356779e-16
2.8714947e-16
-1.4357965e-16
-2.8716492e-16
-1.4358318e-16
0
2.8715702e-16
-1.4357315e-16
-4.3069731e-16
1.4355638e-16
1.4354497e-16
2.8706311e-16
1.4351614e-16
-2.8699742e-16
-1.4347928e-16
-1.4345785e-16
1.59234e-28
1.4340899e-16
1.4338156e-16
2.8670426e-16
1.4332071e-16
0
0
0
-2.8635023e-16
-2.8626748e-16
2.8618075e-16
1.5880172e-28
1.5874917e-28
-1.5865379e-28
-3.1731554e-28
2.8568756e-16
0
-2.8546251e-16
-1.4267202e-16
1.426108e-16
-1.425476e-16
-1.4248242e-16
0
0
2.8455e-16
-4.7359715e-28
-3.1556473e-28
2.840995e-16
-2.8394142e-16
-2.8377937e-16
0
2.834434e-16
-1.5719582e-28
-2.8309157e-16
2.8290971e-16
1.5697342e-28
-2.8253411e-16
0
2.8214263e-16
1.4097047e-16
-2.8173528e-16
1.4076282e-16
3.1237907e-28
-2.8109446e-16
2.8087291e-16
2.8064737e-16
0
0
0
-2.7970542e-16
-2.7945997e-16
2.7921053e-16
0
-2.7869967e-16
0
-1.3908641e-16
2.7790339e-16
1.3881498e-16
-1.3867627e-16
2.7707109e-16
1.3839282e-16
-2.7649616e-16
-1.3810133e-16
-1.5316793e-28
1.3780182e-16
-3.056227e-28
7.8156431e-32
2.7467488e-16
0
-1.3701777e-16
-2.7370981e-16
-1.3669002e-16
0
0
0
-1.3601023e-16
2.7167043e-16
1.3565817e-16
-1.3547909e-16
-1.3529797e-16
1.3511482e-16
1.3492964e-16
-2.6948483e-16
0
2.6872369e-16
2.68337e-16
0
0
-2.6715236e-16
-1.4806613e-28
-1.3317107e-16
-1.3296543e-16
1.3275775e-16
-1.3254801e-16
1.3233621e-16
2.6424472e-16
1.3190645e-16
0
-2.6293691e-16
-1.4566611e-28
1.3102221e-16
-1.30796e-16
-1.3056772e-16
-2.6067476e-16
2.6020994e-16
1.298705e-16
-3.6844185e-32
1.2939534e-16
-2.5830932e-16
1.2891191e-16
-1.2866709e-16
-5.3937505e-46
1.2817124e-16
-2.5584042e-16
2.553342e-16
2.5482385e-16
0
-1.2689536e-16
-2.5326793e-16
7.0145231e-29
1.2610497e-16
1.2583736e-16
-2.5113535e-16
-2.5059185e-16
1.2502211e-16
2.4949244e-16
2.4893652e-16
-1.2418823e-16
-2.4781227e-16
1.2362197e-16
-1.2333575e-16
2.048671e-28
1.2275711e-16
-2.4492939e-16
2.4434044e-16
1.3526367e-28
-6.7486873e-28
2.4254892e-16
-2.4194353e-16
-5.3583494e-28
1.2036023e-16
-2.4010279e-16
1.1974051e-16
-3.3943363e-32
5.2893251e-28
1.1879565e-16
-2.3695326e-16
2.6234131e-28
-6.5389251e-29
1.1750741e-16
-3.3304645e-32
-2.3370235e-16
2.3304009e-16
6.6044614e-32
-5.1445233e-28
2.310293e-16
-2.3035105e-16
-2.549673e-28
2.2898265e-16
-1.1414626e-16
-1.1379923e-16
-1.1345023e-16
1.1309927e-16
-1.251656e-28
-2.2478302e-16
0
0
2.2263066e-16
3.1534669e-32
-2.2117654e-16
1.1022188e-16
-1.2192296e-28
1.0948342e-16
2.4226038e-28
-2.1747485e-16
0
-1.0798398e-16
2.1520896e-16
1.0722314e-16
-2.372476e-28
1.06455e-16
-2.1213642e-16
1.0567962e-16
-1.1685713e-28
-2.0979416e-16
0
0
1.0371006e-16
-5.7345402e-29
1.0291003e-16
-1.0250744e-16
-3.0630946e-16
3.0509155e-16
1.0128954e-16
-2.0176049e-16
1.004693e-16
1.6660304e-28
9.964253e-17
-5.6403865e-32
-3.2910823e-28
9.8390376e-17
-1.9593971e-16
-9.7547785e-17
0
-9.6699074e-17
9.6272461e-17
9.5844366e-17
9.5414807e-17
-2.108929e-28
1.0493951e-28
-1.0445799e-28
-1.8736451e-16
9.3245624e-17
1.5453267e-28
-1.8473659e-16
1.3063703e-32
9.1485672e-17
1.8208484e-16
1.8119581e-16
-1.8030428e-16
-9.9637341e-29
-8.9256953e-17
-8.8807569e-17
1.7671404e-16
-1.7581065e-16
-8.7452509e-17
2.6099577e-16