/*--------------------------------*- C++ -*----------------------------------*\
  =========                 |
  \\      /  F ield         | OpenFOAM: The Open Source CFD Toolbox
   \\    /   O peration     | Website:  https://openfoam.org
    \\  /    A nd           | Version:  7
     \\/     M anipulation  |
\*---------------------------------------------------------------------------*/
FoamFile
{
    version     2.0;
    format      ascii;
    class       surfaceScalarField;
    location    "0.0032";
    object      phi;
}
// * * * * * * * * * * * * * * * * * * * * * * * * * * * * * * * * * * * * * //

dimensions      [1 0 -1 0 0 0 0];

internalField   nonuniform List<scalar> 
4999
(
0.0037600699
0.0037600548
0.0037600407
0.0037600265
0.0037600122
0.0037599977
0.003759983
0.0037599683
0.0037599535
0.0037599387
0.0037599238
0.0037599089
0.003759894
0.0037598791
0.0037598642
0.0037598493
0.0037598344
0.0037598195
0.0037598046
0.0037597898
0.003759775
0.0037597601
0.0037597453
0.0037597305
0.0037597158
0.003759701
0.0037596863
0.0037596715
0.0037596568
0.0037596421
0.0037596275
0.0037596128
0.0037595982
0.0037595836
0.003759569
0.0037595544
0.0037595398
0.0037595253
0.0037595108
0.0037594963
0.0037594818
0.0037594673
0.0037594529
0.0037594385
0.0037594241
0.0037594097
0.0037593954
0.0037593811
0.0037593668
0.0037593525
0.0037593382
0.003759324
0.0037593098
0.0037592956
0.0037592814
0.0037592673
0.0037592532
0.0037592391
0.003759225
0.003759211
0.0037591969
0.0037591829
0.003759169
0.003759155
0.0037591411
0.0037591272
0.0037591133
0.0037590995
0.0037590857
0.0037590719
0.0037590581
0.0037590444
0.0037590306
0.003759017
0.0037590033
0.0037589896
0.003758976
0.0037589624
0.0037589489
0.0037589353
0.0037589218
0.0037589083
0.0037588949
0.0037588814
0.003758868
0.0037588546
0.0037588413
0.0037588279
0.0037588146
0.0037588013
0.0037587881
0.0037587749
0.0037587616
0.0037587485
0.0037587353
0.0037587222
0.003758709
0.003758696
0.0037586829
0.0037586699
0.0037586568
0.0037586438
0.0037586309
0.0037586179
0.003758605
0.0037585921
0.0037585792
0.0037585664
0.0037585536
0.0037585407
0.003758528
0.0037585152
0.0037585025
0.0037584897
0.003758477
0.0037584644
0.0037584517
0.0037584391
0.0037584264
0.0037584138
0.0037584013
0.0037583887
0.0037583762
0.0037583637
0.0037583512
0.0037583387
0.0037583262
0.0037583138
0.0037583013
0.0037582889
0.0037582765
0.0037582642
0.0037582518
0.0037582395
0.0037582271
0.0037582148
0.0037582025
0.0037581902
0.003758178
0.0037581657
0.0037581535
0.0037581413
0.003758129
0.0037581168
0.0037581047
0.0037580925
0.0037580803
0.0037580682
0.003758056
0.0037580439
0.0037580318
0.0037580197
0.0037580076
0.0037579955
0.0037579834
0.0037579713
0.0037579593
0.0037579472
0.0037579352
0.0037579231
0.0037579111
0.0037578991
0.003757887
0.003757875
0.003757863
0.003757851
0.003757839
0.0037578271
0.0037578151
0.0037578031
0.0037577911
0.0037577792
0.0037577672
0.0037577553
0.0037577433
0.0037577313
0.0037577194
0.0037577074
0.0037576955
0.0037576835
0.0037576716
0.0037576597
0.0037576477
0.0037576358
0.0037576238
0.0037576119
0.0037576
0.003757588
0.0037575761
0.0037575641
0.0037575522
0.0037575403
0.0037575283
0.0037575164
0.0037575044
0.0037574925
0.0037574805
0.0037574686
0.0037574566
0.0037574447
0.0037574327
0.0037574207
0.0037574087
0.0037573968
0.0037573848
0.0037573728
0.0037573608
0.0037573488
0.0037573368
0.0037573248
0.0037573128
0.0037573008
0.0037572888
0.0037572767
0.0037572647
0.0037572526
0.0037572406
0.0037572285
0.0037572165
0.0037572044
0.0037571923
0.0037571802
0.0037571681
0.003757156
0.0037571438
0.0037571317
0.0037571195
0.0037571074
0.0037570952
0.003757083
0.0037570708
0.0037570586
0.0037570464
0.0037570341
0.0037570219
0.0037570096
0.0037569973
0.003756985
0.0037569727
0.0037569604
0.003756948
0.0037569356
0.0037569232
0.0037569108
0.0037568984
0.0037568859
0.0037568735
0.003756861
0.0037568485
0.0037568359
0.0037568234
0.0037568108
0.0037567982
0.0037567856
0.0037567729
0.0037567603
0.0037567476
0.0037567349
0.0037567222
0.0037567094
0.0037566966
0.0037566838
0.003756671
0.0037566582
0.0037566453
0.0037566324
0.0037566195
0.0037566066
0.0037565936
0.0037565807
0.0037565677
0.0037565547
0.0037565416
0.0037565286
0.0037565155
0.0037565024
0.0037564893
0.0037564762
0.0037564631
0.0037564499
0.0037564368
0.0037564236
0.0037564104
0.0037563972
0.003756384
0.0037563708
0.0037563575
0.0037563443
0.003756331
0.0037563178
0.0037563045
0.0037562912
0.0037562779
0.0037562646
0.0037562513
0.003756238
0.0037562247
0.0037562114
0.0037561981
0.0037561848
0.0037561715
0.0037561582
0.0037561449
0.0037561316
0.0037561182
0.0037561049
0.0037560916
0.0037560783
0.0037560651
0.0037560518
0.0037560385
0.0037560252
0.0037560119
0.0037559987
0.0037559854
0.0037559722
0.0037559589
0.0037559457
0.0037559325
0.0037559193
0.0037559061
0.0037558929
0.0037558797
0.0037558665
0.0037558534
0.0037558402
0.0037558271
0.0037558139
0.0037558008
0.0037557877
0.0037557747
0.0037557616
0.0037557485
0.0037557355
0.0037557224
0.0037557094
0.0037556964
0.0037556834
0.0037556705
0.0037556575
0.0037556445
0.0037556316
0.0037556187
0.0037556058
0.0037555929
0.00375558
0.0037555672
0.0037555543
0.0037555415
0.0037555287
0.0037555159
0.0037555031
0.0037554903
0.0037554775
0.0037554648
0.0037554521
0.0037554394
0.0037554267
0.003755414
0.0037554013
0.0037553886
0.003755376
0.0037553634
0.0037553507
0.0037553381
0.0037553255
0.003755313
0.0037553004
0.0037552878
0.0037552753
0.0037552628
0.0037552503
0.0037552378
0.0037552253
0.0037552128
0.0037552003
0.0037551879
0.0037551754
0.003755163
0.0037551506
0.0037551382
0.0037551258
0.0037551134
0.003755101
0.0037550887
0.0037550763
0.003755064
0.0037550516
0.0037550393
0.003755027
0.0037550147
0.0037550024
0.0037549901
0.0037549778
0.0037549656
0.0037549533
0.003754941
0.0037549288
0.0037549165
0.0037549043
0.0037548921
0.0037548799
0.0037548677
0.0037548555
0.0037548433
0.0037548311
0.0037548189
0.0037548067
0.0037547945
0.0037547824
0.0037547702
0.003754758
0.0037547459
0.0037547337
0.0037547216
0.0037547095
0.0037546973
0.0037546852
0.0037546731
0.0037546609
0.0037546488
0.0037546367
0.0037546246
0.0037546125
0.0037546004
0.0037545883
0.0037545762
0.0037545641
0.003754552
0.0037545399
0.0037545278
0.0037545158
0.0037545037
0.0037544916
0.0037544795
0.0037544675
0.0037544554
0.0037544433
0.0037544313
0.0037544192
0.0037544072
0.0037543951
0.0037543831
0.003754371
0.003754359
0.0037543469
0.0037543349
0.0037543229
0.0037543108
0.0037542988
0.0037542868
0.0037542748
0.0037542627
0.0037542507
0.0037542387
0.0037542267
0.0037542147
0.0037542027
0.0037541907
0.0037541787
0.0037541667
0.0037541547
0.0037541428
0.0037541308
0.0037541188
0.0037541068
0.0037540949
0.0037540829
0.003754071
0.003754059
0.0037540471
0.0037540351
0.0037540232
0.0037540113
0.0037539994
0.0037539875
0.0037539756
0.0037539637
0.0037539518
0.0037539399
0.003753928
0.0037539162
0.0037539043
0.0037538925
0.0037538806
0.0037538688
0.003753857
0.0037538452
0.0037538333
0.0037538216
0.0037538098
0.003753798
0.0037537863
0.0037537745
0.0037537628
0.0037537511
0.0037537394
0.0037537277
0.003753716
0.0037537044
0.0037536928
0.0037536812
0.0037536696
0.003753658
0.0037536465
0.003753635
0.0037536235
0.003753612
0.0037536005
0.0037535891
0.0037535776
0.0037535662
0.0037535548
0.0037535435
0.0037535321
0.0037535208
0.0037535095
0.0037534983
0.003753487
0.0037534758
0.0037534646
0.0037534535
0.0037534424
0.0037534313
0.0037534203
0.0037534093
0.0037533982
0.0037533872
0.0037533761
0.0037533651
0.0037533542
0.0037533433
0.0037533324
0.0037533216
0.0037533108
0.0037533
0.0037532892
0.0037532785
0.0037532678
0.0037532572
0.0037532466
0.003753236
0.0037532254
0.0037532149
0.0037532044
0.0037531939
0.0037531835
0.0037531731
0.0037531627
0.0037531524
0.0037531421
0.0037531319
0.0037531216
0.0037531114
0.0037531013
0.0037530911
0.003753081
0.003753071
0.003753061
0.003753051
0.003753041
0.0037530311
0.0037530212
0.0037530113
0.0037530015
0.0037529917
0.003752982
0.0037529723
0.0037529626
0.0037529529
0.0037529433
0.0037529337
0.0037529242
0.0037529147
0.0037529052
0.0037528958
0.0037528864
0.003752877
0.0037528677
0.0037528584
0.0037528491
0.0037528399
0.0037528307
0.0037528216
0.0037528125
0.0037528034
0.0037527943
0.0037527853
0.0037527764
0.0037527674
0.0037527585
0.0037527497
0.0037527408
0.0037527321
0.0037527233
0.0037527146
0.0037527059
0.0037526972
0.0037526886
0.00375268
0.0037526715
0.003752663
0.0037526545
0.003752646
0.0037526376
0.0037526292
0.0037526209
0.0037526126
0.0037526043
0.003752596
0.0037525878
0.0037525796
0.0037525715
0.0037525634
0.0037525553
0.0037525472
0.0037525392
0.0037525312
0.0037525233
0.0037525154
0.0037525075
0.0037524996
0.0037524918
0.003752484
0.0037524763
0.0037524685
0.0037524608
0.0037524532
0.0037524455
0.0037524379
0.0037524304
0.0037524228
0.0037524153
0.0037524078
0.0037524004
0.0037523929
0.0037523855
0.0037523781
0.0037523708
0.0037523635
0.0037523562
0.0037523489
0.0037523417
0.0037523345
0.0037523274
0.0037523203
0.0037523132
0.0037523061
0.0037522991
0.003752292
0.0037522851
0.0037522781
0.0037522712
0.0037522642
0.0037522573
0.0037522505
0.0037522436
0.0037522368
0.00375223
0.0037522232
0.0037522165
0.0037522097
0.003752203
0.0037521964
0.0037521897
0.0037521831
0.0037521765
0.00375217
0.0037521634
0.0037521569
0.0037521504
0.0037521439
0.0037521375
0.0037521311
0.0037521247
0.0037521184
0.0037521121
0.0037521058
0.0037520995
0.0037520933
0.003752087
0.0037520808
0.0037520746
0.0037520684
0.0037520623
0.0037520561
0.0037520499
0.0037520438
0.0037520377
0.0037520316
0.0037520255
0.0037520194
0.0037520134
0.0037520073
0.0037520013
0.0037519952
0.0037519893
0.0037519834
0.0037519775
0.0037519717
0.0037519659
0.00375196
0.0037519542
0.0037519484
0.0037519426
0.0037519369
0.0037519311
0.0037519254
0.0037519197
0.003751914
0.0037519084
0.0037519027
0.0037518971
0.0037518915
0.0037518858
0.0037518803
0.0037518747
0.0037518691
0.0037518636
0.003751858
0.0037518525
0.003751847
0.0037518416
0.0037518361
0.0037518307
0.0037518253
0.0037518199
0.0037518145
0.0037518091
0.0037518038
0.0037517985
0.0037517931
0.0037517878
0.0037517825
0.0037517772
0.003751772
0.0037517667
0.0037517615
0.0037517563
0.0037517511
0.0037517459
0.0037517407
0.0037517355
0.0037517304
0.0037517253
0.0037517202
0.0037517151
0.00375171
0.003751705
0.0037516999
0.0037516949
0.0037516899
0.0037516849
0.0037516799
0.003751675
0.00375167
0.0037516651
0.0037516602
0.0037516553
0.0037516504
0.0037516455
0.0037516407
0.0037516358
0.003751631
0.0037516262
0.0037516214
0.0037516166
0.0037516118
0.003751607
0.0037516022
0.0037515975
0.0037515927
0.003751588
0.0037515833
0.0037515786
0.0037515739
0.0037515692
0.0037515645
0.0037515599
0.0037515552
0.0037515506
0.003751546
0.0037515413
0.0037515367
0.0037515321
0.0037515276
0.003751523
0.0037515184
0.0037515139
0.0037515093
0.0037515048
0.0037515003
0.0037514958
0.0037514913
0.0037514868
0.0037514823
0.0037514779
0.0037514734
0.003751469
0.0037514645
0.0037514601
0.0037514557
0.0037514513
0.0037514469
0.0037514426
0.0037514382
0.0037514339
0.0037514296
0.0037514253
0.0037514209
0.0037514166
0.0037514124
0.0037514081
0.0037514038
0.0037513996
0.0037513953
0.0037513911
0.0037513869
0.0037513827
0.0037513785
0.0037513744
0.0037513702
0.0037513661
0.0037513619
0.0037513578
0.0037513537
0.0037513496
0.0037513456
0.0037513415
0.0037513375
0.0037513335
0.0037513295
0.0037513255
0.0037513216
0.0037513177
0.0037513138
0.0037513099
0.003751306
0.0037513021
0.0037512981
0.0037512942
0.0037512903
0.0037512864
0.0037512826
0.0037512787
0.0037512749
0.0037512711
0.0037512673
0.0037512636
0.0037512599
0.0037512562
0.0037512525
0.0037512488
0.0037512452
0.0037512416
0.0037512379
0.0037512344
0.0037512308
0.0037512272
0.0037512237
0.0037512202
0.0037512167
0.0037512132
0.0037512097
0.0037512063
0.0037512028
0.0037511994
0.003751196
0.0037511926
0.0037511892
0.0037511859
0.0037511826
0.0037511792
0.003751176
0.0037511727
0.0037511694
0.0037511662
0.003751163
0.0037511598
0.0037511566
0.0037511534
0.0037511503
0.0037511472
0.0037511441
0.003751141
0.0037511379
0.0037511349
0.0037511319
0.0037511289
0.0037511259
0.003751123
0.0037511201
0.0037511172
0.0037511143
0.0037511115
0.0037511086
0.0037511058
0.003751103
0.0037511003
0.0037510975
0.0037510948
0.0037510921
0.0037510895
0.0037510868
0.0037510842
0.0037510816
0.0037510791
0.0037510765
0.003751074
0.0037510715
0.0037510691
0.0037510667
0.0037510643
0.0037510619
0.0037510596
0.0037510572
0.003751055
0.0037510527
0.0037510505
0.0037510483
0.0037510461
0.003751044
0.0037510418
0.0037510398
0.0037510377
0.0037510357
0.0037510337
0.0037510317
0.0037510298
0.0037510279
0.003751026
0.0037510242
0.0037510223
0.0037510205
0.0037510188
0.0037510171
0.0037510154
0.0037510137
0.003751012
0.0037510104
0.0037510089
0.0037510073
0.0037510058
0.0037510043
0.0037510029
0.0037510014
0.003751
0.0037509987
0.0037509973
0.003750996
0.0037509948
0.0037509935
0.0037509923
0.0037509911
0.0037509899
0.0037509887
0.0037509876
0.0037509865
0.0037509855
0.0037509845
0.0037509835
0.0037509825
0.0037509816
0.0037509807
0.0037509798
0.0037509789
0.0037509781
0.0037509773
0.0037509766
0.0037509758
0.0037509751
0.0037509745
0.0037509738
0.0037509732
0.0037509726
0.003750972
0.0037509715
0.0037509709
0.0037509705
0.00375097
0.0037509696
0.0037509691
0.0037509688
0.0037509684
0.0037509681
0.0037509678
0.0037509675
0.0037509673
0.003750967
0.0037509668
0.0037509666
0.0037509665
0.0037509663
0.0037509662
0.0037509661
0.0037509661
0.003750966
0.003750966
0.003750966
0.0037509661
0.0037509661
0.0037509662
0.0037509663
0.0037509665
0.0037509666
0.0037509668
0.0037509671
0.0037509673
0.0037509676
0.003750968
0.0037509683
0.0037509687
0.0037509691
0.0037509695
0.00375097
0.0037509704
0.003750971
0.0037509715
0.0037509721
0.0037509727
0.0037509733
0.003750974
0.0037509747
0.0037509754
0.0037509761
0.0037509768
0.0037509776
0.0037509784
0.0037509792
0.0037509801
0.003750981
0.0037509819
0.0037509828
0.0037509837
0.0037509847
0.0037509857
0.0037509867
0.0037509877
0.0037509888
0.0037509899
0.003750991
0.0037509921
0.0037509932
0.0037509944
0.0037509956
0.0037509968
0.0037509981
0.0037509993
0.0037510006
0.0037510019
0.0037510033
0.0037510046
0.003751006
0.0037510074
0.0037510089
0.0037510103
0.0037510118
0.0037510134
0.0037510149
0.0037510165
0.0037510181
0.0037510197
0.0037510213
0.003751023
0.0037510247
0.0037510264
0.0037510281
0.0037510299
0.0037510317
0.0037510336
0.0037510354
0.0037510373
0.0037510392
0.0037510412
0.0037510432
0.0037510452
0.0037510472
0.0037510493
0.0037510515
0.0037510536
0.0037510558
0.003751058
0.0037510603
0.0037510626
0.0037510649
0.0037510672
0.0037510696
0.0037510721
0.0037510745
0.003751077
0.0037510795
0.0037510821
0.0037510847
0.0037510874
0.00375109
0.0037510928
0.0037510955
0.0037510983
0.0037511012
0.0037511041
0.003751107
0.00375111
0.003751113
0.003751116
0.0037511191
0.0037511222
0.0037511254
0.0037511286
0.0037511319
0.0037511352
0.0037511385
0.003751142
0.0037511454
0.0037511489
0.0037511525
0.003751156
0.0037511597
0.0037511634
0.0037511671
0.0037511709
0.0037511747
0.0037511786
0.0037511826
0.0037511865
0.0037511906
0.0037511947
0.0037511988
0.003751203
0.0037512072
0.0037512115
0.0037512158
0.0037512202
0.0037512247
0.0037512291
0.0037512337
0.0037512382
0.0037512428
0.0037512475
0.0037512522
0.003751257
0.0037512618
0.0037512667
0.0037512716
0.0037512766
0.0037512817
0.0037512868
0.003751292
0.0037512972
0.0037513025
0.0037513079
0.0037513133
0.0037513188
0.0037513243
0.0037513299
0.0037513356
0.0037513413
0.0037513472
0.0037513531
0.003751359
0.003751365
0.0037513711
0.0037513772
0.0037513834
0.0037513897
0.003751396
0.0037514024
0.0037514088
0.0037514153
0.0037514219
0.0037514285
0.0037514352
0.003751442
0.0037514488
0.0037514557
0.0037514626
0.0037514696
0.0037514767
0.0037514839
0.0037514911
0.0037514984
0.0037515058
0.0037515132
0.0037515207
0.0037515283
0.0037515359
0.0037515437
0.0037515515
0.0037515593
0.0037515673
0.0037515753
0.0037515834
0.0037515915
0.0037515998
0.0037516081
0.0037516165
0.003751625
0.0037516336
0.0037516422
0.0037516509
0.0037516597
0.0037516686
0.0037516776
0.0037516866
0.0037516957
0.0037517049
0.0037517142
0.0037517236
0.0037517331
0.0037517426
0.0037517523
0.003751762
0.0037517718
0.0037517817
0.0037517917
0.0037518018
0.003751812
0.0037518223
0.0037518327
0.0037518431
0.0037518537
0.0037518643
0.0037518751
0.0037518859
0.0037518969
0.0037519079
0.0037519191
0.0037519303
0.0037519416
0.0037519531
0.0037519646
0.0037519763
0.003751988
0.0037519999
0.0037520119
0.0037520239
0.0037520361
0.0037520484
0.0037520608
0.0037520733
0.0037520859
0.0037520987
0.0037521115
0.0037521245
0.0037521376
0.0037521508
0.0037521641
0.0037521775
0.003752191
0.0037522046
0.0037522184
0.0037522322
0.0037522462
0.0037522603
0.0037522745
0.0037522888
0.0037523033
0.0037523178
0.0037523325
0.0037523473
0.0037523623
0.0037523773
0.0037523925
0.0037524078
0.0037524233
0.0037524388
0.0037524545
0.0037524703
0.0037524863
0.0037525023
0.0037525185
0.0037525349
0.0037525514
0.003752568
0.0037525848
0.0037526018
0.0037526189
0.0037526361
0.0037526535
0.0037526711
0.0037526887
0.0037527066
0.0037527246
0.0037527427
0.003752761
0.0037527794
0.003752798
0.0037528168
0.0037528357
0.0037528548
0.003752874
0.0037528934
0.003752913
0.0037529327
0.0037529526
0.0037529726
0.0037529928
0.0037530132
0.0037530337
0.0037530544
0.0037530752
0.0037530963
0.0037531175
0.0037531389
0.0037531604
0.0037531821
0.003753204
0.0037532261
0.0037532484
0.0037532708
0.0037532934
0.0037533162
0.0037533392
0.0037533624
0.0037533858
0.0037534093
0.003753433
0.003753457
0.0037534811
0.0037535054
0.0037535299
0.0037535546
0.0037535795
0.0037536046
0.0037536299
0.0037536554
0.0037536811
0.003753707
0.0037537331
0.0037537594
0.0037537859
0.0037538126
0.0037538395
0.0037538666
0.0037538939
0.0037539213
0.003753949
0.0037539769
0.003754005
0.0037540332
0.0037540617
0.0037540903
0.0037541192
0.0037541483
0.0037541776
0.0037542071
0.0037542368
0.0037542668
0.0037542969
0.0037543273
0.0037543579
0.0037543887
0.0037544198
0.0037544511
0.0037544826
0.0037545143
0.0037545462
0.0037545784
0.0037546108
0.0037546435
0.0037546763
0.0037547094
0.0037547427
0.0037547763
0.00375481
0.003754844
0.0037548782
0.0037549127
0.0037549474
0.0037549823
0.0037550174
0.0037550527
0.0037550883
0.0037551241
0.0037551601
0.0037551963
0.0037552328
0.0037552694
0.0037553064
0.0037553435
0.0037553809
0.0037554184
0.0037554563
0.0037554943
0.0037555326
0.0037555711
0.0037556098
0.0037556488
0.003755688
0.0037557274
0.003755767
0.0037558069
0.003755847
0.0037558873
0.0037559279
0.0037559687
0.0037560097
0.003756051
0.0037560925
0.0037561342
0.0037561761
0.0037562183
0.0037562607
0.0037563034
0.0037563462
0.0037563893
0.0037564326
0.0037564761
0.0037565198
0.0037565637
0.0037566079
0.0037566522
0.0037566968
0.0037567416
0.0037567866
0.0037568318
0.0037568773
0.003756923
0.0037569689
0.0037570151
0.0037570614
0.003757108
0.0037571549
0.0037572019
0.0037572492
0.0037572967
0.0037573444
0.0037573923
0.0037574404
0.0037574887
0.0037575373
0.003757586
0.003757635
0.0037576842
0.0037577335
0.0037577831
0.0037578329
0.0037578829
0.0037579331
0.0037579835
0.0037580341
0.0037580848
0.0037581358
0.003758187
0.0037582384
0.0037582899
0.0037583417
0.0037583936
0.0037584458
0.0037584981
0.0037585506
0.0037586033
0.0037586562
0.0037587092
0.0037587625
0.0037588159
0.0037588695
0.0037589233
0.0037589772
0.0037590313
0.0037590856
0.0037591401
0.0037591947
0.0037592495
0.0037593044
0.0037593595
0.0037594148
0.0037594702
0.0037595258
0.0037595815
0.0037596374
0.0037596934
0.0037597496
0.0037598059
0.0037598623
0.0037599189
0.0037599757
0.0037600326
0.0037600896
0.0037601468
0.0037602041
0.0037602615
0.003760319
0.0037603767
0.0037604345
0.0037604924
0.0037605504
0.0037606085
0.0037606668
0.0037607251
0.0037607835
0.0037608421
0.0037609007
0.0037609595
0.0037610183
0.0037610772
0.0037611362
0.0037611953
0.0037612544
0.0037613137
0.0037613729
0.0037614323
0.0037614917
0.0037615511
0.0037616106
0.0037616702
0.0037617298
0.0037617894
0.003761849
0.0037619086
0.0037619683
0.0037620279
0.0037620876
0.0037621472
0.0037622068
0.0037622664
0.003762326
0.0037623855
0.003762445
0.0037625044
0.0037625638
0.0037626231
0.0037626822
0.0037627413
0.0037628003
0.0037628592
0.003762918
0.0037629766
0.0037630351
0.0037630934
0.0037631515
0.0037632094
0.0037632671
0.0037633246
0.0037633819
0.003763439
0.0037634957
0.0037635522
0.0037636084
0.0037636643
0.0037637198
0.0037637749
0.0037638297
0.0037638841
0.0037639381
0.0037639916
0.0037640446
0.0037640972
0.0037641492
0.0037642007
0.0037642516
0.0037643018
0.0037643515
0.0037644004
0.0037644486
0.0037644961
0.0037645428
0.0037645887
0.0037646337
0.0037646779
0.003764721
0.0037647632
0.0037648043
0.0037648444
0.0037648833
0.003764921
0.0037649574
0.0037649925
0.0037650263
0.0037650586
0.0037650895
0.0037651188
0.0037651464
0.0037651723
0.0037651965
0.0037652187
0.0037652391
0.0037652574
0.0037652736
0.0037652875
0.0037652992
0.0037653084
0.0037653151
0.0037653189
0.0037653199
0.0037653179
0.0037653127
0.0037653038
0.0037652913
0.0037652752
0.0037652554
0.0037652318
0.0037652042
0.0037651723
0.0037651361
0.0037650953
0.0037650497
0.0037649989
0.003764943
0.0037648815
0.0037648143
0.0037647412
0.0037646619
0.0037645762
0.0037644837
0.0037643842
0.0037642774
0.0037641629
0.0037640405
0.0037639098
0.0037637704
0.003763622
0.0037634642
0.0037632966
0.0037631187
0.0037629301
0.0037627304
0.0037625192
0.0037622958
0.0037620598
0.0037618107
0.0037615479
0.0037612708
0.0037609788
0.0037606713
0.0037603477
0.0037600073
0.0037596493
0.003759273
0.0037588777
0.0037584625
0.0037580267
0.0037575693
0.0037570895
0.0037565863
0.0037560588
0.003755506
0.0037549267
0.0037543199
0.0037536845
0.0037530193
0.003752323
0.0037515943
0.003750832
0.0037500346
0.0037492007
0.0037483287
0.0037474172
0.0037464645
0.0037454689
0.0037444286
0.0037433419
0.0037422067
0.0037410213
0.0037397834
0.0037384909
0.0037371417
0.0037357335
0.0037342637
0.00373273
0.0037311298
0.0037294602
0.0037277187
0.0037259021
0.0037240076
0.003722032
0.0037199719
0.0037178241
0.0037155849
0.0037132507
0.0037108178
0.003708282
0.0037056394
0.0037028857
0.0037000164
0.0036970269
0.0036939124
0.0036906679
0.0036872884
0.0036837683
0.0036801022
0.0036762842
0.0036723083
0.0036681683
0.0036638577
0.0036593698
0.0036546976
0.0036498337
0.0036447707
0.0036395008
0.0036340157
0.0036283072
0.0036223663
0.0036161841
0.003609751
0.0036030573
0.0035960928
0.0035888469
0.0035813088
0.0035734669
0.0035653096
0.0035568245
0.003547999
0.0035388198
0.0035292734
0.0035193454
0.0035090211
0.0034982853
0.0034871221
0.0034755151
0.0034634471
0.0034509005
0.0034378569
0.0034242972
0.0034102017
0.0033955499
0.0033803206
0.0033644916
0.0033480401
0.0033309425
0.0033131741
0.0032947095
0.0032755221
0.0032555846
0.0032348687
0.0032133447
0.0031909822
0.0031677496
0.003143614
0.0031185413
0.0030924964
0.0030654427
0.0030373422
0.0030081558
0.0029778428
0.0029463609
0.0029136666
0.0028797145
0.0028444578
0.0028078477
0.0027698341
0.0027303647
0.0026893855
0.0026468404
0.0026026716
0.002556819
0.0025092203
0.002459811
0.0024085246
0.0023552918
0.0023000411
0.0022426984
0.0021831869
0.0021214272
0.002057337
0.0019908311
0.0019218214
0.0018502165
0.001775922
0.00169884
0.0016188693
0.001535905
0.0014498387
0.0013605582
0.0012679472
0.0011718856
0.0010722489
0.00096890857
0.00086173142
0.00075057978
0.00063531128
0.00051577866
0.00039182968
0.00026330695
0.00013004769
-8.1164715e-06
-0.00015136007
-0.00029986528
-0.0004538298
-0.00061361288
-0.00077925274
-0.00095095049
-0.0011288337
-0.0013132125
-0.0015043006
-0.0017023145
-0.0019074989
-0.0021201042
-0.0023403871
-0.0025686095
-0.0028050442
-0.0030499728
-0.0033036854
-0.0035664812
-0.0038386694
-0.0041205689
-0.0044125088
-0.0047148285
-0.0050278783
-0.0053520194
-0.0056876242
-0.0060350768
-0.006394773
-0.0067671208
-0.0071525404
-0.0075514649
-0.0079643402
-0.0083916258
-0.0088337944
-0.0092913331
-0.0097647429
-0.01025454
-0.010761254
-0.011285433
-0.011827636
-0.012388443
-0.012968447
-0.013568259
-0.014188505
-0.014829832
-0.015492901
-0.016178394
-0.016887008
-0.017619461
-0.018376489
-0.019158848
-0.019967312
-0.020802677
-0.021665756
-0.022557386
-0.023478423
-0.024429742
-0.025412242
-0.026426841
-0.02747448
-0.028556122
-0.02967275
-0.030825371
-0.032015012
-0.033242725
-0.034509581
-0.035816675
-0.037165125
-0.038556069
-0.03999067
-0.04147011
-0.042995596
-0.044568353
-0.046189631
-0.0478607
-0.049582848
-0.051357387
-0.053185648
-0.055068979
-0.057008749
-0.059006344
-0.061063168
-0.06318064
-0.065360197
-0.067603287
-0.069911375
-0.072285937
-0.074728459
-0.077240439
-0.079823381
-0.082478798
-0.085208208
-0.088013131
-0.090895091
-0.093855609
-0.096896208
-0.1000184
-0.1032237
-0.10651361
-0.10988962
-0.11335319
-0.1169058
-0.12054888
-0.12428385
-0.12811209
-0.13203498
-0.13605384
-0.14016998
-0.14438465
-0.14869906
-0.15311439
-0.15763176
-0.16225224
-0.16697684
-0.17180651
-0.17674214
-0.18178455
-0.18693449
-0.19219263
-0.19755956
-0.20303578
-0.20862173
-0.21431771
-0.22012397
-0.22604064
-0.23206774
-0.23820522
-0.24445286
-0.25081039
-0.25727738
-0.2638533
-0.27053749
-0.27732918
-0.28422746
-0.2912313
-0.29833953
-0.30555085
-0.31286384
-0.32027694
-0.32778845
-0.33539653
-0.34309923
-0.35089444
-0.35877994
-0.36675336
-0.37481221
-0.38295386
-0.39117558
-0.39947449
-0.40784761
-0.41629182
-0.42480391
-0.43338057
-0.44201835
-0.45071374
-0.45946311
-0.46826276
-0.4771089
-0.48599766
-0.49492512
-0.50388728
-0.51288009
-0.52189946
-0.53094123
-0.54000126
-0.54907532
-0.55815919
-0.56724864
-0.57633943
-0.58542733
-0.59450814
-0.60357765
-0.6126317
-0.62166615
-0.63067691
-0.63965993
-0.64861121
-0.65752684
-0.66640295
-0.67523575
-0.68402153
-0.69275668
-0.70143765
-0.71006101
-0.71862342
-0.72712166
-0.73555258
-0.74391318
-0.75220056
-0.76041194
-0.76854464
-0.77659612
-0.78456398
-0.7924459
-0.80023973
-0.80794342
-0.81555505
-0.82307284
-0.83049511
-0.83782034
-0.84504711
-0.85217413
-0.85920024
-0.86612438
-0.87294564
-0.87966321
-0.88627638
-0.89278458
-0.89918734
-0.90548429
-0.91167516
-0.91775981
-0.92373816
-0.92961025
-0.93537621
-0.94103624
-0.94659065
-0.95203981
-0.95738418
-0.9626243
-0.96776076
-0.97279424
-0.97772547
-0.98255525
-0.98728444
-0.99191393
-0.99644469
-1.0008777
-1.0052141
-1.0094549
-1.0136012
-1.0176542
-1.0216151
-1.0254852
-1.0292657
-1.0329578
-1.0365629
-1.0400822
-1.0435172
-1.0468692
-1.0501395
-1.0533294
-1.0564405
-1.059474
-1.0624313
-1.0653139
-1.0681232
-1.0708604
-1.073527
-1.0761245
-1.0786541
-1.0811173
-1.0835153
-1.0858496
-1.0881216
-1.0903324
-1.0924836
-1.0945763
-1.0966119
-1.0985916
-1.1005168
-1.1023886
-1.1042083
-1.1059772
-1.1076964
-1.1093671
-1.1109904
-1.1125676
-1.1140998
-1.115588
-1.1170334
-1.1184371
-1.1198
-1.1211233
-1.1224079
-1.1236548
-1.1248651
-1.1260397
-1.1271795
-1.1282854
-1.1293584
-1.1303993
-1.131409
-1.1323883
-1.1333381
-1.1342592
-1.1351524
-1.1360184
-1.136858
-1.1376719
-1.1384609
-1.1392256
-1.1399668
-1.1406851
-1.1413811
-1.1420556
-1.1427091
-1.1433422
-1.1439556
-1.1445498
-1.1451253
-1.1456827
-1.1462226
-1.1467454
-1.1472517
-1.147742
-1.1482166
-1.1486762
-1.1491212
-1.1495519
-1.1499689
-1.1503725
-1.1507631
-1.1511412
-1.1515072
-1.1518613
-1.152204
-1.1525356
-1.1528564
-1.1531668
-1.1534672
-1.1537577
-1.1540388
-1.1543108
-1.1545738
-1.1548282
-1.1550743
-1.1553123
-1.1555425
-1.1557651
-1.1559804
-1.1561885
-1.1563898
-1.1565845
-1.1567727
-1.1569546
-1.1571305
-1.1573006
-1.157465
-1.157624
-1.1577776
-1.1579262
-1.1580697
-1.1582085
-1.1583426
-1.1584723
-1.1585976
-1.1587186
-1.1588357
-1.1589488
-1.1590581
-1.1591637
-1.1592658
-1.1593644
-1.1594597
-1.1595518
-1.1596407
-1.1597267
-1.1598098
-1.1598901
-1.1599676
-1.1600425
-1.1601149
-1.1601849
-1.1602524
-1.1603177
-1.1603808
-1.1604417
-1.1605006
-1.1605574
-1.1606124
-1.1606655
-1.1607168
-1.1607663
-1.1608142
-1.1608604
-1.1609051
-1.1609483
-1.16099
-1.1610303
-1.1610692
-1.1611068
-1.1611432
-1.1611783
-1.1612123
-1.1612451
-1.1612768
-1.1613074
-1.161337
-1.1613656
-1.1613933
-1.16142
-1.1614458
-1.1614708
-1.161495
-1.1615183
-1.1615409
-1.1615627
-1.1615838
-1.1616043
-1.161624
-1.1616431
-1.1616616
-1.1616795
-1.1616968
-1.1617135
-1.1617297
-1.1617454
-1.1617606
-1.1617753
-1.1617896
-1.1618034
-1.1618167
-1.1618297
-1.1618422
-1.1618544
-1.1618662
-1.1618776
-1.1618887
-1.1618995
-1.1619099
-1.1619201
-1.1619299
-1.1619395
-1.1619487
-1.1619578
-1.1619665
-1.1619751
-1.1619834
-1.1619914
-1.1619993
-1.1620069
-1.1620144
-1.1620217
-1.1620287
-1.1620356
-1.1620424
-1.162049
-1.1620554
-1.1620617
-1.1620678
-1.1620738
-1.1620797
-1.1620855
-1.1620911
-1.1620967
-1.1621021
-1.1621074
-1.1621127
-1.1621178
-1.1621229
-1.1621279
-1.1621328
-1.1621376
-1.1621424
-1.1621471
-1.1621517
-1.1621563
-1.1621608
-1.1621653
-1.1621697
-1.1621741
-1.1621785
-1.1621828
-1.162187
-1.1621913
-1.1621955
-1.1621997
-1.1622038
-1.1622079
-1.1622121
-1.1622161
-1.1622202
-1.1622243
-1.1622283
-1.1622323
-1.1622363
-1.1622403
-1.1622443
-1.1622483
-1.1622523
-1.1622563
-1.1622602
-1.1622642
-1.1622682
-1.1622721
-1.1622761
-1.1622801
-1.1622841
-1.1622881
-1.162292
-1.162296
-1.1623
-1.162304
-1.162308
-1.1623121
-1.1623161
-1.1623201
-1.1623241
-1.1623282
-1.1623322
-1.1623363
-1.1623404
-1.1623445
-1.1623486
-1.1623527
-1.1623568
-1.1623609
-1.162365
-1.1623692
-1.1623733
-1.1623775
-1.1623816
-1.1623858
-1.16239
-1.1623942
-1.1623983
-1.1624025
-1.1624067
-1.1624109
-1.162415
-1.1624192
-1.1624234
-1.1624275
-1.1624317
-1.1624358
-1.16244
-1.1624441
-1.1624482
-1.1624523
-1.1624564
-1.1624604
-1.1624645
-1.1624685
-1.1624725
-1.1624765
-1.1624805
-1.1624844
-1.1624884
-1.1624923
-1.1624962
-1.1625
-1.1625038
-1.1625076
-1.1625113
-1.1625149
-1.1625184
-1.1625218
-1.1625251
-1.1625284
-1.1625316
-1.1625348
-1.1625379
-1.1625408
-1.1625436
-1.1625461
-1.1625485