/*--------------------------------*- C++ -*----------------------------------*\
  =========                 |
  \\      /  F ield         | OpenFOAM: The Open Source CFD Toolbox
   \\    /   O peration     | Website:  https://openfoam.org
    \\  /    A nd           | Version:  7
     \\/     M anipulation  |
\*---------------------------------------------------------------------------*/
FoamFile
{
    version     2.0;
    format      ascii;
    class       volScalarField;
    location    "0.0032";
    object      Ux;
}
// * * * * * * * * * * * * * * * * * * * * * * * * * * * * * * * * * * * * * //

dimensions      [0 1 -1 0 0 0 0];

internalField   nonuniform List<scalar> 
5000
(
0.07532416
0.075826724
0.074501634
0.07583074
0.075153607
0.075288742
0.075293161
0.075281786
0.075327253
0.075325931
0.075308565
0.075307374
0.075308658
0.075306768
0.075303042
0.075300431
0.075299184
0.075298164
0.075297146
0.075296144
0.075295168
0.075294205
0.075293246
0.075292318
0.075291417
0.075290529
0.075289655
0.075288798
0.075287959
0.075287137
0.07528633
0.075285534
0.075284749
0.075283981
0.075283228
0.075282487
0.075281761
0.075281045
0.075280337
0.075279641
0.075278959
0.075278288
0.07527763
0.07527698
0.075276337
0.075275706
0.07527508
0.075274459
0.075273855
0.075273261
0.075272673
0.075272215
0.075272112
0.075272182
0.075272215
0.075272277
0.075272498
0.075272684
0.075272476
0.075272291
0.075272317
0.075272347
0.075272453
0.075272609
0.075273122
0.075274484
0.075274134
0.075271387
0.075269716
0.075269907
0.075270148
0.075270882
0.075270126
0.075268683
0.075268749
0.075268718
0.075268725
0.075268729
0.075269049
0.075269533
0.07526853
0.075266153
0.075266534
0.075268727
0.075268015
0.075264588
0.075264187
0.075265516
0.075263442
0.075262472
0.075265493
0.075265481
0.075261813
0.075261124
0.075262864
0.075261214
0.075260176
0.075262949
0.07526291
0.075259329
0.075258688
0.075260334
0.075258453
0.075257768
0.075259345
0.075257466
0.07525678
0.075258348
0.075256508
0.075255628
0.075258566
0.075258548
0.075255063
0.075254346
0.07525736
0.075257334
0.075253806
0.075253076
0.075256072
0.075256006
0.075252742
0.075250691
0.075250889
0.075251097
0.075251797
0.075253182
0.075253089
0.075250494
0.075249838
0.075252684
0.075252642
0.075249293
0.075248758
0.075250231
0.075248705
0.075247002
0.075247147
0.07524734
0.075247848
0.075246753
0.075246719
0.07524924
0.075249118
0.075245922
0.075245382
0.075247252
0.075246587
0.075245758
0.075246078
0.075244452
0.075244173
0.075245234
0.075243581
0.075243047
0.075245592
0.075245533
0.075242508
0.075242062
0.075243391
0.075241849
0.075241351
0.075242585
0.07524107
0.075240512
0.075242899
0.075242822
0.07523998
0.075239432
0.075241763
0.075241681
0.075238961
0.075238474
0.07524073
0.075240656
0.075237944
0.075237548
0.075238713
0.07523728
0.075236846
0.075237959
0.075236543
0.075236134
0.07523722
0.075235884
0.075234544
0.075234644
0.075234771
0.075235149
0.075234393
0.075234424
0.075236427
0.075236242
0.075233576
0.075233205
0.075234337
0.075232921
0.075232516
0.075233614
0.075232205
0.075231785
0.075232871
0.075231481
0.075231024
0.075233227
0.075233134
0.07523047
0.075230077
0.075231192
0.075229805
0.075229408
0.075230483
0.075229098
0.075228627
0.075230796
0.075230697
0.075228057
0.075227664
0.075228844
0.07522761
0.075226921
0.075227762
0.075226588
0.075226288
0.075227162
0.075225908
0.075224556
0.075224678
0.075224818
0.075225293
0.075226254
0.075226102
0.075224165
0.075222691
0.075222754
0.075222819
0.075223036
0.075223397
0.075224405
0.075224253
0.075222141
0.075221588
0.075223457
0.075223346
0.075220987
0.075219574
0.075219643
0.075219713
0.075219943
0.07522033
0.075221459
0.075221269
0.075218803
0.075218389
0.075219519
0.075218025
0.075217483
0.075219737
0.075219611
0.075216804
0.075216363
0.075217505
0.075216195
0.075214688
0.075214794
0.075214925
0.07521538
0.075216346
0.075216165
0.075213945
0.075213446
0.075215778
0.075215639
0.07521273
0.075212271
0.075213447
0.075211907
0.075211421
0.075212545
0.075210998
0.075210518
0.075211638
0.075210156
0.075209268
0.075210075
0.075209141
0.075208345
0.075208507
0.07520873
0.075209422
0.075208377
0.075205733
0.075205278
0.075205513
0.075205769
0.075206551
0.075205571
0.075205483
0.075206423
0.075204883
0.075203523
0.075203895
0.075203497
0.07520324
0.075203301
0.075203379
0.075203635
0.075204396
0.075204068
0.075201598
0.075201162
0.075202337
0.07520074
0.07520016
0.075202543
0.075202386
0.075199383
0.075198875
0.075200039
0.075198507
0.075197889
0.075198872
0.07519758
0.0751962
0.075196304
0.075196428
0.075196863
0.07519779
0.075197545
0.075195284
0.075194712
0.07519572
0.075194392
0.075193153
0.07519343
0.075193817
0.075195092
0.075194955
0.075192328
0.07519042
0.075190752
0.075190391
0.075190108
0.075190142
0.075190188
0.075190306
0.075189382
0.075188732
0.075189029
0.075189455
0.075190866
0.075190709
0.075188034
0.075187558
0.075189192
0.075188475
0.075187246
0.075187296
0.075186179
0.075185977
0.075186582
0.075185059
0.075184734
0.07518699
0.075186819
0.075183937
0.075183486
0.075184616
0.075183075
0.075182612
0.075183701
0.075182152
0.075181666
0.075182746
0.075181221
0.0751807
0.075182946
0.075182763
0.075180016
0.075178683
0.075178999
0.075179428
0.075180853
0.07518072
0.075178112
0.075177608
0.07517989
0.075179724
0.075176883
0.075176437
0.075177522
0.075176102
0.075174771
0.075174931
0.075175143
0.075175744
0.075175299
0.075175264
0.075175499
0.075173604
0.075173192
0.075174263
0.075172754
0.075172291
0.075173334
0.075171856
0.075171402
0.075172417
0.075170979
0.075170447
0.075172446
0.075172281
0.075169796
0.075169348
0.075170224
0.07516906
0.07516795
0.075167998
0.075168062
0.075168228
0.075167624
0.075167289
0.075167518
0.075167095
0.075166915
0.075167143
0.075166989
0.0751668
0.075166806
0.075166813
0.075166839
0.075166879
0.075166996
0.075167214
0.075167513
0.075167921
0.0751684
0.075168928
0.075169496
0.075170086
0.075170692
0.075171299
0.075171872
0.075172467
0.075173078
0.075173715
0.075174395
0.075175112
0.075175889
0.075176728
0.075177636
0.075178625
0.0751797
0.075180878
0.075182162
0.075183543
0.075185013
0.075186539
0.075188157
0.0751899
0.07519176
0.075193707
0.075195577
0.075197313
0.075199064
0.075200884
0.075202778
0.075204723
0.075206653
0.075208437
0.075209955
0.075211187
0.075212335
0.075213665
0.07521537
0.075217211
0.075218603
0.07521971
0.075221103
0.075223223
0.075225628
0.075227308
0.075228391
0.075229349
0.075230656
0.075232379
0.075233745
0.075234637
0.075235423
0.075236287
0.07523716
0.075237681
0.075237737
0.075237567
0.075237458
0.075237259
0.075236928
0.075236285
0.075235753
0.075236279
0.075236784
0.075236352
0.075235834
0.075234949
0.075235749
0.075238431
0.07523879
0.075237771
0.075236539
0.075236515
0.075238691
0.075240056
0.075239109
0.075237789
0.075238105
0.075240442
0.075241519
0.075240457
0.075238979
0.075238943
0.075241071
0.075242431
0.075241509
0.075240221
0.075239988
0.075242386
0.075245635
0.075245632
0.075244993
0.075244864
0.075244453
0.075243986
0.07524291
0.075242454
0.07524401
0.075245485
0.075245155
0.075244965
0.075244801
0.075244505
0.07524423
0.075243825
0.075243306
0.075242378
0.075241981
0.075244236
0.075248047
0.075248697
0.075248119
0.075247947
0.07524742
0.075246712
0.075245242
0.075244983
0.07524697
0.075248021
0.075247647
0.075247609
0.075247493
0.075247352
0.075247085
0.075246698
0.075246063
0.075244653
0.075242178
0.075242281
0.075245875
0.075248006
0.075247604
0.075247487
0.075247136
0.075246672
0.075245968
0.075244383
0.075243994
0.07524585
0.075247196
0.075246847
0.075246796
0.075246638
0.075246452
0.075246011
0.075245407
0.075243971
0.075241077
0.075241307
0.07524497
0.07524579
0.075245109
0.075244938
0.075244438
0.07524364
0.075242628
0.075243102
0.075243561
0.075242937
0.075242207
0.075241511
0.075242599
0.075243671
0.075243363
0.075243128
0.075242449
0.075241318
0.075240162
0.075240766
0.075242646
0.075242629
0.075242598
0.075242481
0.075242307
0.075241739
0.075240489
0.075238082
0.075238145
0.07524151
0.075242457
0.075241732
0.075241675
0.075241497
0.075241268
0.075240843
0.075239934
0.075238808
0.075239206
0.075239659
0.075239008
0.075238218
0.075235577
0.075235508
0.075239166
0.075240305
0.075239579
0.075239492
0.075239209
0.075238868
0.075238183
0.075237025
0.075236144
0.075235968
0.075235657
0.0752353
0.075234243
0.075231928
0.075232409
0.075236195
0.075237827
0.07523705
0.07523673
0.07523563
0.075233946
0.075233978
0.075235402
0.075235598
0.07523552
0.075235445
0.075235181
0.075234884
0.075235535
0.075236159
0.075235735
0.075235384
0.075234142
0.075233482
0.07523409
0.075234054
0.075234
0.075233666
0.075232832
0.075232292
0.07523223
0.075231658
0.075231722
0.075231718
0.075231708
0.075233515
0.075234777
0.075234247
0.075234025
0.075233191
0.07523232
0.075233
0.075234129
0.075234069
0.075233992
0.075233678
0.075233342
0.075232238
0.075231649
0.075232559
0.075232554
0.075232547
0.075232449
0.075232261
0.075231737
0.075230451
0.075230558
0.075231659
0.07523166
0.075231644
0.075231538
0.075231367
0.075230168
0.075229897
0.0752319
0.075232254
0.07523174
0.075231305
0.075229629
0.075228757
0.075229125
0.075229116
0.075229098
0.075228349
0.0752284
0.075230274
0.075231039
0.075230586
0.075230246
0.075228991
0.075228015
0.075227862
0.075227308
0.075227316
0.075227056
0.075226169
0.075227009
0.075229044
0.075229009
0.075228943
0.075228593
0.07522806
0.075229292
0.075229726
0.075229228
0.075228581
0.075226528
0.07522665
0.075228928
0.075229257
0.075229175
0.075229111
0.075228863
0.075228608
0.075227659
0.075227252
0.07522846
0.075228886
0.075228461
0.075228159
0.075227081
0.075226332
0.075226135
0.075225521
0.075225395
0.075224916
0.075223862
0.075224657
0.075226749
0.075226655
0.075226433
0.075225601
0.075222922
0.07522327
0.075226962
0.075228101
0.075227462
0.07522695
0.075224946
0.075224589
0.07522699
0.075227973
0.075227573
0.075227081
0.075225752
0.075226016
0.075226656
0.075225837
0.075225549
0.075226417
0.075227242
0.075226833
0.07522663
0.075225874
0.075224892
0.075225475
0.075226468
0.075226311
0.075226107
0.075225234
0.075223928
0.075223947
0.075224757
0.075224716
0.075224568
0.075223792
0.075221935
0.075222592
0.075225809
0.07522638
0.075225722
0.075225349
0.075224001
0.075223199
0.075223007
0.075222292
0.075222217
0.075221932
0.075221369
0.075222344
0.075223904
0.075223785
0.075223609
0.07522294
0.075221698
0.075221879
0.075222875
0.075222839
0.075222712
0.075222081
0.075220695
0.075221971
0.075225468
0.075225673
0.075224609
0.075224241
0.07522295
0.075220694
0.075220832
0.075224001
0.07522572
0.075225221
0.075225151
0.075224894
0.0752246
0.075223648
0.075222211
0.075222352
0.075223296
0.075223295
0.075223273
0.075222662
0.07522234
0.075223461
0.075223726
0.075223302
0.075222934
0.075221547
0.075220818
0.075221037
0.075220581
0.075220629
0.075220525
0.075220161
0.075221187
0.075222616
0.075222494
0.075222338
0.075221744
0.075220865
0.075221341
0.075222336
0.075222191
0.075221955
0.075221043
0.075219376
0.075220424
0.075223695
0.075223941
0.075222898
0.075222605
0.075221575
0.075219948
0.075219954
0.07522134
0.07522116
0.075220491
0.075220493
0.075220425
0.075220203
0.075220913
0.075222034
0.075221996
0.075221937
0.075221752
0.075221236
0.075220792
0.075221527
0.075222753
0.075222671
0.075222557
0.075222161
0.075221439
0.075220073
0.075220743
0.075223759
0.075224035
0.075223176
0.075222916
0.075221934
0.075221492
0.075222483
0.075223162
0.075222941
0.07522287
0.075222621
0.075222331
0.075221433
0.075220031
0.07522004
0.075220889
0.075220837
0.07522066
0.075219839
0.075218007
0.075218552
0.075221752
0.07522306
0.075222636
0.075222427
0.075221792
0.075220707
0.07522001
0.07522112
0.075222607
0.075222429
0.075222223
0.075221578
0.07522029
0.075219818
0.075221174
0.075222497
0.075222154
0.075221837
0.075220744
0.075219052
0.075220043
0.075223035
0.075223076
0.0752221
0.075221783
0.07522058
0.075220098
0.075221487
0.075222533
0.075222163
0.075221886
0.075220926
0.075219494
0.07521986
0.075221282
0.075221275
0.075221251
0.075221174
0.075220424
0.075220366
0.075221729
0.07522289
0.07522255
0.075222189
0.075220981
0.075218747
0.075218984
0.075221944
0.075223233
0.075222627
0.07522241
0.075221603
0.075221021
0.075222101
0.075223291
0.075222959
0.075222766
0.075222063
0.075221169
0.075221915
0.075223076
0.075222952
0.075222844
0.075222258
0.075221659
0.07522264
0.075223791
0.075223653
0.075223583
0.075223342
0.075223047
0.075222563
0.075221365
0.07521952
0.075219425
0.075221998
0.075223724
0.075223256
0.075223014
0.075222119
0.075221632
0.075223059
0.075224282
0.075223996
0.075223704
0.075222838
0.075221135
0.075220877
0.075223097
0.075224993
0.07522482
0.075224659
0.075224145
0.075223337
0.075221721
0.075221693
0.075224246
0.075225226
0.075224639
0.075224371
0.075223444
0.075222055
0.075222932
0.075225604
0.075225745
0.075224829
0.075224578
0.075223633
0.075223143
0.075224486
0.075225854
0.075225636
0.075225411
0.075224774
0.075223414
0.07522307
0.075224812
0.07522651
0.075226371
0.075226237
0.075225823
0.075225092
0.075224077
0.075224736
0.075226887
0.075226873
0.075226425
0.075226402
0.075225542
0.075225172
0.0752262
0.075226646
0.075226235
0.075225771
0.075225133
0.07522591
0.075227149
0.075226885
0.075226737
0.075226095
0.075225534
0.075226623
0.07522774
0.075227464
0.075227196
0.075226268
0.075224885
0.075226016
0.075228816
0.075228865
0.075227953
0.075227705
0.075226775
0.075226324
0.075227746
0.075229231
0.075228997
0.075228751
0.075228054
0.075226477
0.075226257
0.075228101
0.075229407
0.075229095
0.075228835
0.075227936
0.075226589
0.075227557
0.075230331
0.075230848
0.075230252
0.075230026
0.075229336
0.075228146
0.075227732
0.075229636
0.075231831
0.075231752
0.075231681
0.075231459
0.075231044
0.075230793
0.07522993
0.075229042
0.07523008
0.075231836
0.075231771
0.075231672
0.075231395
0.075230616
0.075229462
0.075229215
0.075231188
0.075232894
0.075232765
0.075232648
0.075232274
0.075231627
0.07523069
0.075231191
0.07523287
0.075232768
0.075232451
0.075232453
0.075231808
0.075230828
0.075231739
0.075234414
0.075235077
0.075234583
0.075234445
0.075234011
0.075233285
0.075232564
0.0752337
0.075235728
0.075235688
0.075235617
0.075235498
0.075235082
0.075234604
0.075233802
0.075234882
0.075237059
0.075236973
0.075236672
0.075236574
0.075235882
0.075234797
0.075234624
0.075236478
0.075238117
0.07523786
0.075237587
0.075236679
0.075234793
0.075234787
0.075237245
0.075238651
0.075238287
0.075238062
0.075237179
0.075236843
0.07523844
0.075239832
0.075239586
0.075239323
0.075238409
0.075236638
0.075236944
0.075239719
0.075241358
0.075241115
0.075240865
0.075240071
0.075238541
0.075238472
0.075240836
0.07524273
0.07524256
0.075242387
0.075241865
0.075240667
0.075240477
0.075242431
0.075244309
0.075244217
0.075244121
0.07524385
0.075243153
0.075242498
0.075243522
0.075245811
0.075245993
0.075245418
0.07524511
0.075243883
0.075243752
0.075245598
0.075246685
0.075246398
0.075246203
0.075245414
0.075245186
0.075246889
0.075248279
0.075248039
0.075247854
0.075247121
0.075246991
0.075248475
0.075249003
0.075248438
0.075247721
0.075247547
0.075249144
0.075250483
0.075250205
0.07525004
0.075249354
0.075249087
0.075250817
0.075252493
0.075252301
0.075252085
0.075251328
0.07524952
0.075249603
0.0752524
0.075254426
0.075254237
0.07525403
0.075253289
0.075251612
0.075251723
0.075254426
0.075256386
0.075256207
0.075256007
0.075255289
0.075253661
0.075253795
0.075256473
0.075258385
0.075258205
0.075258005
0.075257276
0.075255612
0.075255674
0.075258698
0.075261277
0.075261209
0.07526114
0.075261036
0.075260715
0.075260361
0.075259925
0.07526136
0.07526398
0.075264494
0.07526416
0.075264103
0.075263855
0.075263581
0.075262738
0.075262619
0.075264856
0.075266985
0.075266914
0.075266826
0.075266667
0.075265857
0.075264599
0.075264655
0.075267462
0.075270028
0.07526994
0.075269808
0.075269736
0.075269285
0.075268654
0.075268569
0.075270743
0.075273585
0.075273849
0.075273332
0.075273395
0.075273416
0.075273385
0.075273089
0.075272773
0.075274209
0.075276807
0.075277619
0.07527743
0.075277387
0.075277183
0.075276836
0.075275887
0.075276098
0.075278937
0.07528135
0.075281236
0.075280963
0.075280991
0.075280639
0.075279926
0.075280385
0.075282833
0.075284665
0.075284598
0.07528451
0.075284156
0.075283074
0.075283362
0.07528605
0.075288294
0.075288236
0.075288148
0.075287883
0.075286683
0.075286955
0.075289731
0.075291984
0.075291944
0.075291883
0.075291664
0.075290676
0.07529128
0.0752938
0.075295202
0.07529508
0.07529489
0.075294151
0.075294465
0.075296906
0.075298645
0.075298546
0.075298574
0.075298433
0.075298466
0.0753005
0.075303126
0.075303399
0.075302866
0.075303017
0.075303045
0.075303023
0.075304525
0.075307342
0.07530884
0.075308828
0.075308815
0.075308659
0.075308193
0.075308991
0.075311276
0.075312644
0.07531234
0.075311768
0.075312196
0.075314294
0.075316343
0.075316233
0.075315349
0.075315943
0.075318079
0.075319502
0.075319474
0.075319424
0.075319173
0.075319791
0.075322566
0.075325099
0.075325407
0.075325299
0.075325229
0.075324706
0.075325452
0.07532822
0.075330636
0.075330863
0.075330419
0.075331275
0.075332779
0.075333184
0.075332903
0.075332533
0.07533312
0.075335851
0.075338471
0.075338787
0.075338684
0.075338628
0.075338053
0.07533887
0.075341912
0.075344549
0.075345016
0.075344973
0.075344956
0.075344614
0.075345571
0.075348449
0.075350737
0.075350985
0.07535069
0.075350367
0.075350591
0.075352709
0.075355648
0.075356922
0.075356881
0.075356884
0.075356868
0.075357806
0.075360551
0.075362724
0.075362845
0.075362553
0.075362245
0.075362677
0.075365252
0.075368331
0.075369431
0.07536943
0.075369428
0.075369312
0.075370275
0.075373123
0.075375838
0.075376716
0.075376704
0.075376697
0.075376627
0.075377592
0.075380376
0.075383151
0.075384272
0.075384356
0.075384253
0.075384196
0.0753852
0.075387899
0.075390574
0.075391785
0.075392039
0.07539189
0.075391743
0.075392774
0.07539546
0.075398133
0.075399653
0.075400484
0.075400564
0.075400129
0.075400631
0.075402848
0.075405567
0.075407376
0.075408535
0.07540933
0.075409736
0.075410536
0.07541224
0.075414054
0.075415116
0.075415469
0.075416064
0.075417692
0.075419693
0.075421052
0.075421462
0.075421196
0.075421696
0.075423881
0.075426518
0.075428269
0.075429417
0.075430007
0.075429896
0.075430386
0.075432474
0.075434983
0.075436674
0.075437889
0.075438922
0.075439522
0.075440021
0.075441347
0.07544339
0.07544514
0.075446437
0.075447595
0.075448496
0.075449123
0.075450161
0.075451933
0.075453717
0.075455081
0.075456239
0.075457131
0.075457815
0.075458959
0.075460748
0.075462464
0.075463795
0.075464906
0.07546569
0.075466373
0.075467688
0.075469593
0.075471283
0.075472599
0.075473795
0.075474814
0.075475629
0.075476717
0.075478352
0.075480036
0.075481405
0.075482619
0.075483815
0.075485057
0.075486336
0.075487494
0.075488492
0.075489629
0.075491093
0.075492591
0.075493889
0.075495058
0.07549603
0.075496861
0.075498026
0.075499654
0.075501217
0.075502489
0.075503599
0.075504499
0.075505342
0.075506589
0.075508205
0.07550967
0.075510878
0.075511973
0.075512918
0.075513812
0.075514986
0.07551643
0.075517768
0.075518899
0.075519883
0.075520778
0.075521816
0.075523085
0.075524327
0.075525389
0.075526268
0.075527006
0.075527912
0.075529161
0.075530412
0.075531425
0.075532297
0.075533009
0.075533612
0.075534458
0.075535625
0.075536719
0.075537571
0.07553831
0.07553894
0.075539438
0.075540025
0.075540884
0.075541773
0.075542451
0.075542994
0.075543449
0.075543773
0.075544091
0.075544595
0.075545174
0.075545586
0.075545834
0.075545945
0.075545905
0.075545886
0.075546085
0.075546315
0.075546307
0.075546114
0.075545807
0.075545348
0.075544809
0.075544409
0.07554411
0.07554363
0.075542937
0.075542124
0.075541192
0.075540156
0.075539051
0.075537859
0.075536539
0.075535096
0.075533535
0.075531824
0.075529954
0.075527926
0.075525728
0.075523357
0.075520861
0.07551829
0.075515546
0.075512538
0.075509317
0.075505881
0.07550223
0.075498435
0.07549446
0.075490199
0.075485646
0.075480805
0.075475659
0.075470295
0.075464764
0.075458916
0.075452656
0.07544604
0.075439052
0.075431677
0.075423999
0.075416056
0.075407704
0.075398837
0.075389508
0.075379706
0.075369407
0.075358629
0.075347377
0.075335618
0.075323276
0.075310319
0.07529674
0.075282524
0.07526765
0.075252083
0.075235807
0.075218804
0.075201021
0.075182419
0.07516298
0.075142663
0.075121412
0.075099201
0.075075996
0.07505177
0.075026511
0.075000154
0.074972612
0.074943841
0.074913799
0.074882444
0.074849749
0.074815671
0.074780133
0.074743045
0.074704338
0.074663959
0.07462185
0.074577958
0.074532219
0.074484553
0.074434872
0.074383081
0.074329083
0.074272804
0.074214163
0.074153063
0.074089433
0.074023169
0.07395413
0.073882214
0.073807316
0.073729296
0.073648046
0.073563454
0.073475378
0.073383679
0.073288231
0.073188874
0.07308543
0.072977758
0.07286569
0.072749036
0.072627635
0.072501312
0.072369863
0.072233114
0.072090852
0.071942822
0.071788805
0.071628587
0.071461912
0.071288547
0.071108259
0.070920756
0.070725734
0.070522922
0.070312014
0.070092686
0.06986463
0.069627519
0.069380984
0.069124686
0.068858261
0.068581287
0.06829336
0.067994073
0.067682978
0.067359641
0.067023629
0.066674438
0.066311538
0.065934416
0.065542536
0.065135323
0.064712217
0.06427264
0.063815953
0.063341501
0.062848615
0.062336594
0.06180472
0.061252269
0.060678453
0.060082462
0.05946349
0.058820677
0.058153105
0.057459865
0.056740012
0.055992532
0.055216405
0.054410592
0.05357397
0.052705386
0.051803685
0.050867642
0.049895959
0.048887338
0.047840426
0.046753797
0.045626008
0.044455571
0.043240895
0.041980341
0.040672257
0.039314911
0.037906489
0.03644515
0.034928975
0.033355941
0.031723989
0.030031009
0.028274775
0.026452995
0.024563331
0.02260333
0.020570421
0.018461991
0.016275353
0.01400768
0.011656065
0.0092175322
0.0066889693
0.0040671127
0.0013486054
-0.0014701273
-0.004393417
-0.0074370405
-0.010578868
-0.013824653
-0.017210861
-0.020710697
-0.024330366
-0.028095498
-0.031990495
-0.036022514
-0.040209603
-0.044542391
-0.049029419
-0.053684337
-0.058501696
-0.063491539
-0.068664421
-0.074017755
-0.079563241
-0.085308914
-0.091254525
-0.09741377
-0.10379242
-0.11039223
-0.11722926
-0.12430688
-0.13162862
-0.13921362
-0.14706234
-0.15518005
-0.16358996
-0.17228875
-0.1812832
-0.19060245
-0.20023733
-0.21019619
-0.22051776
-0.23118247
-0.24220018
-0.25362958
-0.26542605
-0.277601
-0.29026433
-0.3033032
-0.31673129
-0.33071271
-0.34511397
-0.35995141
-0.37535161
-0.39124509
-0.40764978
-0.42462663
-0.44215215
-0.46024558
-0.47895028
-0.49825819
-0.51819042
-0.53878215
-0.56003377
-0.58196842
-0.6046166
-0.62798446
-0.65209724
-0.67698233
-0.70265023
-0.72912853
-0.75644218
-0.78460522
-0.81364787
-0.84359298
-0.87445752
-0.90627461
-0.93906494
-0.97284811
-1.0076605
-1.0435202
-1.0804493
-1.1184882
-1.1576512
-1.1979626
-1.2394681
-1.2821768
-1.326115
-1.371336
-1.4178397
-1.465655
-1.5148482
-1.5654013
-1.6173468
-1.6707837
-1.7256433
-1.7819639
-1.8398999
-1.8993243
-1.9602809
-2.0229358
-2.0871831
-2.1530648
-2.2206894
-2.2900093
-2.3610607
-2.4339094
-2.5085391
-2.5849822
-2.6632869
-2.7434485
-2.8254967
-2.9094683
-2.9953637
-3.0832096
-3.173034
-3.2648388
-3.3586477
-3.4544804
-3.5523384
-3.6522419
-3.7542022
-3.8582191
-3.9643089
-4.072474
-4.1827115
-4.2950335
-4.4094327
-4.5259029
-4.6444513
-4.7650604
-4.8877199
-5.0124325
-5.1391686
-5.267914
-5.3986675
-5.5313849
-5.666049
-5.8026555
-5.9411423
-6.081491
-6.2236968
-6.3676724
-6.5134035
-6.6608921
-6.8100047
-6.9607452
-7.1131413
-7.2669713
-7.4222685
-7.5790885
-7.7371677
-7.8965402
-8.0572298
-8.2190344
-8.3819524
-8.5459497
-8.7108855
-8.8767275
-9.0434203
-9.210846
-9.3789576
-9.5476877
-9.7169292
-9.8866266
-10.056705
-10.227063
-10.397641
-10.568359
-10.739123
-10.909866
-11.080507
-11.250959
-11.421152
-11.591006
-11.760439
-11.929382
-12.097754
-12.265481
-12.432495
-12.598718
-12.764083
-12.928522
-13.091966
-13.254351
-13.415615
-13.575693
-13.734529
-13.892065
-14.048243
-14.203015
-14.356326
-14.508128
-14.658379
-14.807029
-14.95404
-15.099375
-15.242992
-15.384859
-15.524947
-15.663222
-15.79966
-15.934235
-16.066921
-16.197708
-16.326575
-16.45349
-16.57845
-16.701449
-16.822465
-16.941502
-17.058556
-17.173608
-17.286662
-17.397727
-17.506799
-17.613885
-17.718988
-17.822115
-17.923273
-18.022473
-18.119724
-18.21504
-18.308433
-18.399917
-18.48951
-18.577226
-18.663083
-18.747101
-18.829299
-18.909696
-18.988314
-19.065174
-19.140298
-19.21371
-19.285432
-19.355488
-19.423902
-19.490699
-19.555905
-19.619543
-19.681639
-19.742219
-19.801308
-19.858933
-19.91512
-19.969894
-20.023281
-20.075308
-20.126
-20.175383
-20.223484
-20.270327
-20.315939
-20.360345
-20.40357
-20.44564
-20.486578
-20.52641
-20.56516
-20.602851
-20.639509
-20.675156
-20.709816
-20.743511
-20.776265
-20.808099
-20.839036
-20.869096
-20.898302
-20.926675
-20.954234
-20.981001
-21.006995
-21.032235
-21.056742
-21.080533
-21.103627
-21.126043
-21.147797
-21.168908
-21.189392
-21.209267
-21.22855
-21.247255
-21.265397
-21.28299
-21.300053
-21.316601
-21.332647
-21.348201
-21.363278
-21.377895
-21.392069
-21.405808
-21.419121
-21.432019
-21.44452
-21.456637
-21.46838
-21.479755
-21.49077
-21.501434
-21.511759
-21.521763
-21.531456
-21.540844
-21.549932
-21.558731
-21.567253
-21.575507
-21.5835
-21.591234
-21.598716
-21.605955
-21.612959
-21.619741
-21.626306
-21.632658
-21.638802
-21.64475
-21.650511
-21.65609
-21.661482
-21.666689
-21.671722
-21.676599
-21.681328
-21.685907
-21.690328
-21.694596
-21.698722
-21.702718
-21.706587
-21.710328
-21.713941
-21.717429
-21.720802
-21.724063
-21.727215
-21.73026
-21.733204
-21.736051
-21.738808
-21.741474
-21.744051
-21.746538
-21.748941
-21.751264
-21.753512
-21.755686
-21.757787
-21.759812
-21.761766
-21.763656
-21.765488
-21.767262
-21.768976
-21.770627
-21.772216
-21.773749
-21.775234
-21.776675
-21.778072
-21.779422
-21.780723
-21.781975
-21.783181
-21.784346
-21.785472
-21.786562
-21.787616
-21.788635
-21.789618
-21.790565
-21.791479
-21.792363
-21.79322
-21.794051
-21.794856
-21.79563
-21.796374
-21.797088
-21.797779
-21.79845
-21.799103
-21.799737
-21.80035
-21.800939
-21.801506
-21.802051
-21.802576
-21.803083
-21.803573
-21.804048
-21.804508
-21.804953
-21.805383
-21.805798
-21.8062
-21.806589
-21.806965
-21.807328
-21.807681
-21.808021
-21.808351
-21.808669
-21.808977
-21.809275
-21.809563
-21.809841
-21.810111
-21.810373
-21.810626
-21.810871
-21.811109
-21.811339
-21.811562
-21.811778
-21.811988
-21.812191
-21.812388
-21.812579
-21.812765
-21.812945
-21.81312
-21.81329
-21.813454
-21.813615
-21.813771
-21.813922
-21.814069
-21.814213
-21.814352
-21.814488
-21.814621
-21.81475
-21.814875
-21.814998
-21.815118
-21.815235
-21.815349
-21.815461
-21.81557
-21.815676
-21.815781
-21.815883
-21.815983
-21.816082
-21.816178
-21.816272
-21.816365
-21.816456
-21.816546
-21.816634
-21.816721
-21.816806
-21.81689
-21.816973
-21.817055
-21.817135
-21.817215
-21.817294
-21.817371
-21.817448
-21.817524
-21.817599
-21.817673
-21.817747
-21.81782
-21.817892
-21.817964
-21.818035
-21.818105
-21.818175
-21.818244
-21.818312
-21.81838
-21.818448
-21.818514
-21.81858
-21.818645
-21.81871
-21.818774
-21.818837
-21.818899
-21.81896
-21.81902
-21.81908
-21.819138
-21.819196
-21.819253
-21.81931
-21.819366
-21.819422
-21.819478
-21.819534
-21.81959
-21.819647
-21.819707
-21.81977
-21.819838
-21.819908
-21.819981
-21.820055
-21.820131
-21.820207
-21.820283
-21.820359
-21.820435
-21.820511
-21.820586
-21.820661
-21.820736
-21.82081
-21.820884
-21.820957
-21.821029
-21.821101
-21.821172
-21.821248
-21.821324
-21.8214
-21.821475
-21.821549
-21.821622
-21.821695
-21.821769
-21.821844
-21.821918
-21.821991
-21.822062
-21.822131
-21.822199
-21.822267
-21.822334
-21.822399
-21.822465
-21.822529
-21.822594
-21.822658
-21.822721
-21.822782
-21.822839
-21.822894
-21.822948
-21.823
-21.823049
-21.823108
-21.823165
-21.823222
-21.823279
-21.82333
-21.823377
-21.823424
-21.823472
-21.823518
-21.823555
-21.823582
-21.823604
-21.823628
-21.823655
-21.823679
-21.823694
-21.823718
-21.823737
-21.823728
-21.823721
-21.823736
-21.823769
-21.823795
-21.823782
-21.823778
-21.823777
-21.823716
-21.82364
-21.823597
-21.823585
-21.82359
-21.823576
-21.823517
-21.82346
-21.823409
-21.823359
-21.823291
-21.823205
-21.823121
-21.823042
-21.822959
-21.822865
-21.822753
-21.822647
-21.822539
-21.822423
-21.822279
-21.82214
-21.821995
-21.821844
-21.821675
-21.821503
-21.821332
-21.821147
-21.820961
-21.820742
-21.82052
-21.820283
-21.820048
-21.819816
-21.819558
-21.819283
-21.818994
-21.818704
-21.818414
-21.818089
-21.81776
-21.817425
-21.817059
-21.816696
-21.816301
-21.815904
-21.815506
-21.815069
-21.814632
-21.814185
-21.813702
-21.813227
-21.812727
-21.812188
-21.811656
-21.811088
-21.810504
-21.809926
-21.809306
-21.808665
-21.808026
-21.807336
-21.806642
-21.805947
-21.805195
-21.804435
-21.803672
-21.802841
-21.802007
-21.80117
-21.800274
-21.799372
-21.798469
-21.797503
-21.796513
-21.79552
-21.794458
-21.793396
-21.792332
-21.791195
-21.790026
-21.788864
-21.787645
-21.786383
-21.785133
-21.783834
-21.782462
-21.781103
-21.779703
-21.778217
-21.77674
-21.775232
-21.773653
-21.772083
-21.770474
-21.76876
-21.767041
-21.765317
-21.763523
-21.761674
-21.759822
-21.7579
-21.75591
-21.753927
-21.7519
-21.749763
-21.747612
-21.745437
-21.743168
-21.740879
-21.738576
-21.736176
-21.733723
-21.731247
-21.728712
-21.726082
-21.723426
-21.720755
-21.717973
-21.715148
-21.712297
-21.709349
-21.706345
-21.703322
-21.700224
-21.697023
-21.693777
-21.690506
-21.687135
-21.683699
-21.680254
-21.6767
-21.67305
-21.669357
-21.665611
-21.661771
-21.657864
-21.653928
-21.649895
-21.645754
-21.641575
-21.637324
-21.632989
-21.628577
-21.624121
-21.619567
-21.614891
-21.610172
-21.60538
-21.600494
-21.595533
-21.590511
-21.585394
-21.580153
-21.574857
-21.569494
-21.564016
-21.558459
-21.55283
-21.547112
-21.541263
-21.535347
-21.529371
-21.523276
-21.517078
-21.510791
-21.50443
-21.497948
-21.491379
-21.484738
-21.477979
-21.471105
-21.464134
-21.457096
-21.449941