/*--------------------------------*- C++ -*----------------------------------*\
  =========                 |
  \\      /  F ield         | OpenFOAM: The Open Source CFD Toolbox
   \\    /   O peration     | Website:  https://openfoam.org
    \\  /    A nd           | Version:  7
     \\/     M anipulation  |
\*---------------------------------------------------------------------------*/
FoamFile
{
    version     2.0;
    format      ascii;
    class       volScalarField;
    location    "0.0026";
    object      Uy;
}
// * * * * * * * * * * * * * * * * * * * * * * * * * * * * * * * * * * * * * //

dimensions      [0 1 -1 0 0 0 0];

internalField   nonuniform List<scalar> 
5000
(
2.3565359e-21
3.2038587e-21
0
0
-1.5454847e-21
1.6831875e-36
1.3522156e-21
0
0
-1.5125522e-21
-3.0818043e-21
1.5483822e-21
1.5460539e-21
-1.5393938e-21
0
-1.5266573e-21
-3.9918486e-51
1.5160401e-21
0
1.5059779e-21
-1.5009432e-21
-1.5000247e-21
3.0074934e-21
-1.5093841e-21
-1.5138175e-21
-1.2491944e-35
1.5129606e-21
1.506488e-21
-2.9989916e-21
2.5892986e-35
-2.5990757e-35
1.4826693e-21
2.9710483e-21
-2.9864746e-21
2.6055996e-35
-1.3073072e-34
-5.1641789e-35
2.9447065e-21
-2.9111456e-21
-2.8848979e-21
2.890036e-21
-1.0052439e-34
-2.9565302e-21
1.4869477e-21
4.4589438e-21
-1.4795558e-21
-1.4709756e-21
-1.003277e-34
-2.9192029e-21
0
1.4538831e-21
2.071024e-37
-1.4620962e-21
2.9232922e-21
-5.0851428e-35
-2.8945989e-21
1.4400484e-21
-4.9558538e-35
-1.438459e-21
0
1.4489343e-21
4.9375747e-35
4.1032157e-37
1.4406576e-21
-1.4402945e-21
5.0358791e-35
1.4394355e-21
-1.4366947e-21
-1.4320209e-21
1.4283231e-21
1.4281385e-21
-1.4312833e-21
-1.4331011e-21
2.8607047e-21
1.4259475e-21
-1.4222335e-21
0
1.4189136e-21
-2.0145449e-37
-1.4187789e-21
1.4196854e-21
-4.0307767e-37
4.0317151e-37
1.4208317e-21
1.4236212e-21
4.9618469e-35
-1.4241756e-21
0
-1.4140693e-21
-1.4564484e-34
-4.8616854e-35
1.3753063e-21
1.3632853e-21
-2.7062842e-21
-9.3021075e-35
1.3440406e-21
0
0
-1.4224565e-21
-1.0433313e-34
3.0262381e-21
-1.6498549e-21
-1.5095349e-21
0
1.6259602e-21
1.2811666e-21
-1.2474225e-21
-1.3498243e-21
0
0
1.3242888e-21
1.3401269e-21
0
-1.3618953e-21
4.7369922e-35
1.3442464e-21
-1.335774e-21
3.8103241e-37
-4.7587763e-35
-2.6631755e-54
2.7623843e-21
-5.841882e-37
-1.3572462e-21
0
-1.3387784e-21
1.3509779e-21
1.3664741e-21
-2.7425215e-21
-1.3620205e-21
2.701373e-21
1.3387193e-21
-1.3323554e-21
-1.3421232e-21
-1.3583526e-21
0
1.3567536e-21
1.3450343e-21
-1.3330156e-21
-4.5984143e-35
1.3343147e-21
-1.3504994e-21
-1.3578099e-21
0
1.3403353e-21
1.3282952e-21
-1.3211056e-21
1.3273058e-21
-7.6274358e-37
-1.3493682e-21
1.345442e-21
-1.3374491e-21
9.2438394e-35
1.321065e-21
-1.3244738e-21
1.3354843e-21
1.3422972e-21
-1.3396149e-21
0
0
-1.322154e-21
-1.3257132e-21
1.3312269e-21
1.3334517e-21
-1.3304993e-21
-9.1769744e-35
1.3176887e-21
-1.3185975e-21
-1.3260953e-21
0
1.3276786e-21
1.3205196e-21
0
-1.3083977e-21
-1.3148654e-21
0
1.3239893e-21
2.7447899e-34
-1.3107056e-21
1.3041025e-21
1.3049565e-21
-1.3142104e-21
-9.1224226e-35
9.062645e-35
5.5880638e-37
1.3032901e-21
-1.2987116e-21
-1.8071618e-34
9.0178819e-35
-9.0484273e-35
1.3128719e-21
0
0
-1.3026482e-21
-1.3038924e-21
0
0
1.3056307e-21
1.9795738e-53
-1.3045211e-21
0
1.2967713e-21
-1.2919386e-21
-3.5764327e-34
2.5919812e-21
-1.3003208e-21
-2.695747e-34
-1.838651e-37
-1.2875425e-21
1.2835756e-21
-1.8294673e-37
-1.7888315e-34
8.9526868e-35
-1.2905037e-21
0
1.2790304e-21
8.8625159e-35
3.5678144e-34
1.2886852e-21
0
-1.2802587e-21
-1.2750021e-21
0
0
0
1.2826926e-21
8.8319435e-35
-1.2698128e-21
0
0
1.2753543e-21
1.2769371e-21
-1.2745292e-21
-1.2701024e-21
0
1.2672404e-21
1.2688304e-21
-1.2686727e-21
-1.2644199e-21
0
1.2615546e-21
-3.5140453e-34
-8.7842898e-35
1.2613733e-21
-1.2538319e-21
-1.2461555e-21
0
1.2492086e-21
-1.7500224e-34
1.2625893e-21
1.7432571e-34
-2.4988396e-21
1.2425912e-21
-1.7163612e-34
-4.2999499e-34
-8.618364e-35
-1.2503032e-21
1.2495128e-21
1.2440139e-21
0
-1.2305872e-21
-1.2291441e-21
0
1.2407117e-21
1.2393903e-21
-2.4698216e-21
-1.2287737e-21
1.2247613e-21
1.2276356e-21
3.4154598e-34
-1.2299689e-21
1.2257934e-21
-8.4520041e-35
-1.2141443e-21
1.2182549e-21
-8.4973078e-35
8.5134113e-35
-3.4616865e-37
-8.3485404e-35
1.202258e-21
0
0
-1.2174661e-21
-1.2131973e-21
0
0
0
0
1.206443e-21
8.3084094e-35
-2.3996192e-21
5.0738108e-37
1.1832254e-21
1.1854236e-21
-1.6593338e-34
-1.6648691e-34
-1.7010457e-37
-1.1885529e-21
-1.1801716e-21
-1.1747644e-21
2.3578309e-21
3.5581141e-21
-1.1891316e-21
-2.3712188e-21
0
1.1731752e-21
1.17169e-21
-1.1750679e-21
3.3505281e-37
-5.0239923e-37
3.3375609e-37
1.1712727e-21
1.1690768e-21
-1.1690327e-21
-2.3337288e-21
1.1591962e-21
-2.3307376e-52
1.1518299e-21
3.2204002e-34
-2.3322471e-21
0
0
2.2581199e-21
-6.2175232e-34
-2.2635216e-21
0
1.1620878e-21
1.1549399e-21
-1.1406239e-21
1.5943556e-37
-1.5399291e-34
1.5843942e-37
1.133012e-21
-1.1492575e-21
-1.1532963e-21
0
1.1328246e-21
-1.5571498e-34
-1.1135899e-21
2.2337762e-21
-3.1304001e-34
-1.1375893e-21
-3.1595617e-34
-2.2606929e-21
2.2430542e-21
1.1126303e-21
-1.109222e-21
-1.587736e-37
-1.1270546e-21
0
0
1.1153198e-21
-1.5348865e-34
-2.2048818e-21
1.5773786e-37
3.3534111e-21
-1.1191612e-21
-1.1142918e-21
2.2105487e-21
-1.097846e-21
1.0982809e-21
2.2156229e-21
-1.1145904e-21
-1.1130184e-21
-1.1059202e-21
1.0964265e-21
-4.577189e-52
-1.0884834e-21
1.0974298e-21
-1.106729e-21
1.1089484e-21
3.0585687e-34
3.1200556e-37
1.0914873e-21
-2.1741692e-21
1.0908095e-21
3.0449596e-34
-3.0471626e-34
-1.0940935e-21
-2.1703728e-21
3.2301247e-21
2.9849369e-34
-6.0292898e-34
3.0301462e-34
-2.1825956e-21
2.1669164e-21
-2.9641073e-34
-2.1166953e-21
0
0
1.0907957e-21
-1.5091955e-34
-1.0785136e-21
-1.0637688e-21
1.0529506e-21
3.1708146e-21
-1.0727412e-21
-1.0847365e-21
-3.085542e-37
-1.0772064e-21
0
2.1111628e-21
2.1061942e-21
-1.0647327e-21
-2.154481e-21
-1.0803965e-21
2.1451946e-21
2.1242114e-21
-2.1009402e-21
-2.092995e-21
0
2.1449131e-21
-1.0770039e-21
-2.1387277e-21
1.0598241e-21
1.0488423e-21
-1.4822188e-37
1.4608404e-34
1.0655726e-21
-1.0715534e-21
-1.0667079e-21
1.0593728e-21
-1.4589676e-34
-1.4882792e-37
-1.4595126e-34
-1.059369e-21
1.0624566e-21
-4.4164765e-34
-1.4639697e-34
-2.9133683e-34
-1.050358e-21
1.054298e-21
-1.4680013e-34
-2.927056e-34
-1.4910607e-37
-2.0870816e-21
-1.0439955e-21
1.0495314e-21
2.1082954e-21
-1.4601109e-34
-2.08632e-21
-1.0346665e-21
2.0671627e-21
1.044462e-21
-1.0502891e-21
-1.0463873e-21
-2.8821031e-34
1.0220687e-21
0
0
1.0413102e-21
0
-1.047366e-21
1.0361594e-21
1.4505806e-37
-2.7999215e-34
0
-1.0280271e-21
1.0433589e-21
1.0482402e-21
-2.0827904e-21
-1.0322414e-21
1.0228032e-21
0
0
-1.0283263e-21
2.8793347e-34
1.0371167e-21
0
0
-1.0159319e-21
4.2262842e-34
1.0227217e-21
0
0
0
0
0
0
0
0
2.0453263e-21
5.6382093e-34
-1.0103382e-21
1.0122632e-21
-1.0176634e-21
1.020939e-21
-2.8301439e-34
-1.0098496e-21
-2.7835169e-34
-1.0025515e-21
0
0
1.0166233e-21
2.8038386e-34
-1.0011685e-21
0
0
0
0
0
0
0
1.9886935e-21
-8.3430532e-34
-2.0162113e-21
1.0054464e-21
1.4169198e-37
9.881229e-22
-5.4659475e-34
-1.9915558e-21
-1.0019269e-21
-5.6556115e-52
2.977062e-21
0
-1.937712e-21
0
0
2.0051602e-21
-2.7604506e-34
-2.9522135e-21
9.6734071e-22
9.5821796e-22
-9.6900308e-22
9.8719502e-22
-9.9612039e-22
-2.753228e-34
9.836851e-22
-9.7173412e-22
0
-9.6464375e-22
9.7679644e-22
1.9724173e-21
-9.8730116e-22
-9.8155146e-22
-9.7352381e-22
-9.6545849e-22
1.926463e-21
9.7125211e-22
-9.7818951e-22
0
9.7485732e-22
-9.6694474e-22
-9.6036627e-22
2.8826859e-21
2.7519385e-37
-1.9490617e-21
9.7305997e-22
1.3438704e-34
9.6233934e-22
-2.7254182e-37
-1.9227996e-21
9.6612916e-22
0
-2.669741e-34
-1.3597088e-37
-9.5655384e-22
9.5842372e-22
-2.6646052e-34
-1.3285776e-34
-1.3506703e-37
-9.446846e-22
9.4734345e-22
2.6421399e-54
-2.6529338e-34
-1.3535044e-37
-1.8868884e-21
-1.2980354e-34
9.3688772e-22
0
0
-9.4941538e-22
-3.9208239e-34
9.3425478e-22
-9.3071164e-22
1.3022825e-34
6.9814239e-52
-1.3098459e-34
9.377262e-22
9.2869727e-22
1.2801394e-34
-9.2945321e-22
0
0
9.3276639e-22
-9.2115841e-22
7.5974415e-34
9.166654e-22
-9.2913213e-22
0
9.3234673e-22
9.2323373e-22
-9.1138439e-22
-9.0477674e-22
0
9.2563022e-22
9.2967955e-22
-1.849052e-21
-9.1330444e-22
9.0200115e-22
9.0064127e-22
1.2659186e-34
9.2911747e-22
2.5930138e-34
-1.839231e-21
0
0
0
8.8693472e-22
9.1039663e-22
0
-9.2482301e-22
-1.2769745e-34
9.1916279e-22
0
0
-9.0734297e-22
-1.2476747e-34
1.2384149e-34
-8.9957787e-22
9.1151664e-22
-3.8190495e-34
-9.128793e-22
0
-8.9448977e-22
-1.2329341e-34
8.9531505e-22
-9.0745523e-22
9.1340789e-22
9.0892403e-22
-9.018174e-22
0
8.8875708e-22
8.9785841e-22
-9.0726655e-22
-9.1062158e-22
0
-9.0762188e-22
9.0651489e-22
9.0752315e-22
-9.0927834e-22
-1.8186095e-21
5.0436299e-34
2.7208194e-21
-8.1030233e-53
-9.0821741e-22
-1.8206764e-21
5.0589152e-34
1.8255283e-21
-9.1347456e-22
9.1423872e-22
-9.1496152e-22
-9.1532492e-22
1.8305704e-21
0
0
-1.8298213e-21
1.9260575e-52
1.8302767e-21
0
0
-1.8341804e-21
4.3419031e-52
1.8384622e-21
0
0
-1.8468388e-21
-9.2321623e-22
1.8442494e-21
9.2074356e-22
0
-1.8381168e-21
5.1000974e-34
1.8377438e-21
-9.2086094e-22
0
9.2598759e-22
-9.2831593e-22
1.3233577e-37
9.3260049e-22
-9.3104689e-22
9.2871211e-22
9.2580452e-22
-9.2259918e-22
-9.2295504e-22
2.5788826e-34
9.3661486e-22
-9.4062934e-22
-2.6072056e-34
9.3592558e-22
-9.3287431e-22
9.3048693e-22
9.3211422e-22
-9.3764069e-22
-9.4323787e-22
2.628643e-34
9.4761184e-22
-9.4742071e-22
1.3463258e-37
9.4767786e-22
-9.4805406e-22
9.489263e-22
9.5044441e-22
-9.5224506e-22
-1.9067917e-21
5.2990704e-34
1.9081143e-21
-9.5425122e-22
1.3565688e-37
1.9119103e-21
2.7225083e-37
-9.5969716e-22
0
9.6261751e-22
0
-9.6547734e-22
0
0
0
-9.7037518e-22
3.7069568e-53
9.7225809e-22
0
9.7325119e-22
-2.7033837e-34
-9.7391969e-22
0
0
0
-9.7660911e-22
2.7148726e-34
9.7867092e-22
0
9.8044484e-22
2.7235035e-34
-9.8192762e-22
0
9.8270984e-22
-9.8264026e-22
5.4585936e-34
9.8209942e-22
-9.819566e-22
0
-9.8203723e-22
-2.7284091e-34
9.8333301e-22
0
9.844982e-22
-9.8503215e-22
-5.4734405e-34
9.8604851e-22
-5.4770756e-34
-1.4023986e-37
2.7426007e-34
-1.4032478e-37
-9.8765548e-22
0
9.8788107e-22
-2.7417686e-34
-2.7415622e-34
7.9006169e-54
-2.7420603e-34
0
-1.9740577e-21
-2.7400409e-34
9.8646436e-22
-9.8613618e-22
2.7359106e-34
9.8539341e-22
9.8498179e-22
2.7338893e-34
-2.7326189e-34
9.8360252e-22
-9.830828e-22
-9.8253759e-22
0
-9.8138224e-22
2.7234025e-34
9.8013358e-22
0
0
0
-1.9545869e-21
1.0846121e-33
1.9512767e-21
0
0
0
0
0
0
0
-1.9340912e-21
5.3661316e-34
1.9287648e-21
9.6291183e-22
-9.6129674e-22
-9.5958649e-22
2.6610641e-34
5.3041271e-34
9.5441223e-22
-9.5292141e-22
9.5153765e-22
9.5022262e-22
-9.488595e-22
-9.4743254e-22
5.250973e-34
9.4454684e-22
9.4308168e-22
-2.6119388e-34
-9.4008284e-22
-9.3855108e-22
9.3698825e-22
9.3539024e-22
-9.3376236e-22
9.321056e-22
0
-9.2869767e-22
-9.2694564e-22
2.5663649e-34
9.2335058e-22
-9.215137e-22
9.1965253e-22
9.1776253e-22
-9.158449e-22
9.1386072e-22
2.5318752e-34
-9.096617e-22
-9.0743344e-22
-1.2863182e-37
1.8059642e-21
5.0022267e-34
-8.9903649e-22
-8.9718052e-22
0
8.9345379e-22
0
0
0
8.8585964e-22
8.83948e-22
-8.8203145e-22
-8.8011064e-22
0
8.7625297e-22
-2.4290447e-34
-8.7237032e-22
0
0
8.664684e-22
-4.7985347e-34
-8.6250754e-22
0
0
8.5673553e-22
-4.7451711e-34
-8.5300785e-22
0
8.4929657e-22
-2.3532395e-34
2.346999e-34
-2.3432028e-34
-8.4206401e-22
0
-8.3853642e-22
4.6436545e-34
8.3506501e-22
0
8.316437e-22
-8.2994921e-22
-8.2826416e-22
1.6531712e-21
2.2929625e-34
-1.646485e-21
2.2813444e-34
8.1990371e-22
0
0
8.1488188e-22
-2.256975e-34
-8.115594e-22
0
8.0836576e-22
-8.0684869e-22
-8.0540001e-22
8.040073e-22
0
-8.0130274e-22
7.999951e-22
4.4335007e-34
-4.4266069e-34
7.9627653e-22
-6.6212784e-34
7.9395689e-22
-7.9283816e-22
2.1974001e-34
-4.3911376e-34
-1.5792873e-21
2.1876266e-34
7.8764045e-22
0
0
0
-1.5677641e-21
-7.829864e-22
1.5642066e-21
7.8122984e-22
0
0
7.7865051e-22
4.0048866e-53
-7.7699256e-22
0
-1.5509501e-21
-7.7479744e-22
1.5483574e-21
7.7360931e-22
0
-1.5451378e-21
-2.1944286e-37
2.3149876e-21
-2.1394721e-34
-1.5418343e-21
7.7060406e-22
4.3787771e-37
-7.7007205e-22
2.1388501e-34
4.2701787e-34
7.6954999e-22
0
7.6936148e-22
-4.2713521e-34
-1.5385743e-21
7.6928971e-22
-1.2808702e-33
-7.6936949e-22
1.5388914e-21
-1.0935893e-37
-7.6966383e-22
0
0
0
-7.7029968e-22
7.7049772e-22
1.5414211e-21
-7.7093904e-22
-2.1414272e-34
-2.1399722e-34
-7.7173839e-22
0
7.7239394e-22
-1.0981648e-37
-1.5463287e-21
7.7359121e-22
4.2943307e-34
-7.7452021e-22
-7.750188e-22
4.3092375e-34
1.5521578e-21
0
7.7721323e-22
7.778052e-22
0
-7.7903247e-22
-7.7966405e-22
7.8030573e-22
0
-7.8161095e-22
0
0
7.8360519e-22
-6.5311157e-34
-7.8495332e-22
0
0
7.8702647e-22
7.8773961e-22
-7.8846728e-22
-7.8921e-22
7.8996697e-22
7.9073685e-22
-1.5830344e-21
-7.9230601e-22
2.2034122e-34
7.9390195e-22
-4.4089691e-34
-4.4134595e-34
7.9633032e-22
-7.9715104e-22
7.9798061e-22
-7.9882103e-22
-6.8184345e-37
8.0054133e-22
-1.602839e-21
-8.023047e-22
-8.0319273e-22
1.6081627e-21
1.60994e-21
-8.0585757e-22
8.0674258e-22
-8.0762429e-22
4.4900945e-34
1.6187441e-21
-8.1023548e-22
2.2510857e-34
-2.2557443e-34
-8.1277607e-22
0
0
8.1524697e-22
8.1606262e-22
0
-8.176883e-22
-8.1849855e-22
0
-8.2011284e-22
2.2795206e-34
8.2171618e-22
-8.2251288e-22
2.2838158e-34
8.2409403e-22
0
8.2565623e-22
4.5884894e-34
-8.2719889e-22
8.2796277e-22
-2.2976619e-34
-8.2947488e-22
-8.3022268e-22
-2.3062408e-34
8.3169798e-22
0
-8.3314116e-22
8.3384777e-22
-2.3719142e-37
4.6385156e-34
8.3589658e-22
-8.3655256e-22
0
-1.6756426e-21
1.8615774e-33
8.390313e-22
4.6604983e-34
1.6803667e-21
-1.6814764e-21
-1.6825586e-21
1.6836112e-21
1.6846341e-21
8.4281347e-22
0
-8.4375802e-22
-1.6884081e-21
1.2002946e-37
-8.4504181e-22
8.4543185e-22
8.4580203e-22
-8.4615191e-22
1.692963e-21
-1.6935805e-21
-1.4108175e-33
1.6946854e-21
-1.6951725e-21
4.705975e-34
-8.4800555e-22
8.4818076e-22
8.4833282e-22
-8.4846058e-22
-2.3538813e-34
-1.6972841e-21
1.6973873e-21
1.6974368e-21
-1.6974314e-21
-2.3554204e-34
-8.4862199e-22
4.7123947e-34
8.4840555e-22
2.3542148e-34
3.9399165e-53
8.4783983e-22
1.6951691e-21
-8.4729558e-22
-1.4712314e-52
-8.4661613e-22
-1.4096377e-33
8.4579801e-22
-1.6906727e-21
4.6894993e-34
1.6886122e-21
2.8275826e-53
-8.4312001e-22
0
0
-8.4102997e-22
8.402499e-22
1.6788541e-21
0
0
0
-8.3570679e-22
-8.3466853e-22
0
8.3245966e-22
-8.3128957e-22
-1.3824992e-33
1.6576294e-21
0
0
0
-8.2331309e-22
-8.2181996e-22
8.2027932e-22
-8.186907e-22
-4.5375929e-34
1.6307386e-21
0
0
-1.6200533e-21
2.2968968e-37
8.0622262e-22
-8.0424665e-22
8.0222027e-22
-8.0014302e-22
4.4318533e-34
1.5916664e-21
0
0
-7.8897264e-22
-7.8658039e-22
0
0
7.7909943e-22
7.7650757e-22
0
-7.7118124e-22
-7.6844704e-22
7.6566549e-22
-7.6283571e-22
-7.5995748e-22
7.5703027e-22
7.5405312e-22
-4.1708993e-34
-7.4794867e-22
7.4482154e-22
2.0583476e-34
-7.3842049e-22
0
-7.3183038e-22
4.0445786e-34
7.2505822e-22
-7.2160608e-22
3.9870781e-34
7.1457113e-22
0
-7.0736385e-22
1.9540199e-34
9.9473418e-38
-6.9622514e-22
6.9242354e-22
6.8857684e-22
0
-1.3614881e-21
7.5168816e-34
6.7272473e-22
9.5020454e-38
1.3290517e-21
-1.3207282e-21
-1.3123272e-21
1.303852e-21
6.4765167e-22
0
-1.2779904e-21
1.056592e-33
1.2603788e-21
0
-1.2424614e-21
-3.4248723e-34
6.1211868e-22
1.6869218e-34
1.2057088e-21
-1.1963306e-21
-1.482235e-33
1.1773577e-21
-1.1677654e-21
3.213362e-34
1.1483804e-21
5.6929545e-22
-1.1287396e-21
-5.5941319e-22
1.1088518e-21
-1.098814e-21
-1.3596364e-33
1.0785394e-21
-1.0682941e-21
1.4688869e-34
-5.2378312e-22
5.7536327e-34
1.5397699e-21
-2.8194227e-34
-1.0051497e-21
4.9717908e-22
9.834968e-22
-4.8628374e-22
2.6694143e-34
-4.752597e-22
-5.2171258e-34
4.6413084e-22
-9.1707204e-22
3.7717428e-34
-4.9662379e-34
2.4501589e-34
4.3595387e-22
0
4.244814e-22
4.1867833e-22
0
0
0
0
0
-3.8318412e-22
-3.7730213e-22
0
3.6560622e-22
-3.5973977e-22
-5.8939546e-34
6.9567059e-22
0
0
0
-3.2331417e-22
-3.1717622e-22
3.1108891e-22
3.0504401e-22
-5.9800932e-22
-4.8803139e-34
5.7351405e-22
0
-5.482639e-22
-4.459316e-34
2.6124306e-22
-2.5482963e-22
2.4850789e-22
-2.4227252e-22
-1.3102986e-34
4.5959481e-22
0
0
-2.1077544e-22
-2.0440227e-22
0
-1.9165892e-22
-5.266132e-38
-1.788961e-22
1.7248335e-22
4.9813579e-22
0
3.0623535e-22
2.9329036e-22
0
-4.0108531e-22
-2.5442356e-22
2.4144448e-22
-1.1422707e-22
-1.0773107e-22
3.0371083e-22
9.4741886e-23
1.2539395e-38
8.1718362e-23
-7.5183749e-23
-6.8642302e-23
-6.2108471e-23
-3.1320273e-52
-4.9097563e-23
-4.261841e-23
3.613324e-23
0
4.6164712e-23
3.3060033e-23
0
-3.3725979e-24
6.3122594e-24
5.412347e-36
1.6425036e-23
4.6111304e-23
-5.9409676e-23
-7.2707503e-23
-4.2986862e-23
-4.9610619e-23
0
6.2901444e-23
2.0876265e-22
-7.6279491e-23
3.4526404e-50
2.6861268e-22
-1.921251e-22
-1.0253971e-22
-1.0901535e-22
-2.3107415e-22
2.44274e-22
1.288225e-22
-1.3557967e-22
-1.4238523e-22
-1.4921523e-22
4.6815136e-22
1.6287597e-22
-5.0903221e-22
-1.764404e-22
1.8315688e-22
3.7966808e-22
-1.9649939e-22
2.0319716e-22
-3.4959761e-34
3.6119792e-34
6.7164328e-22
-2.3097902e-22
-2.380991e-22
-4.9033693e-22
-2.5213739e-22
5.1801165e-22
7.5552876e-38
2.7269007e-22
-2.7967197e-22
-8.6043643e-22
8.8226303e-22
3.0142271e-22
-9.2616647e-22
0
9.6902668e-22
3.3005801e-22
-1.0115119e-21
3.4444421e-22
7.038568e-22
1.9960732e-34
-4.0780111e-34
-3.7515182e-22
0
-7.8056549e-22
-7.9532566e-22
4.0506703e-22
4.1264372e-22
8.4098563e-22
-4.2861633e-22
-4.3690342e-22
8.9033535e-22
0
-9.2212115e-22
-9.3751202e-22
4.7656779e-22
9.6947916e-22
-2.7386624e-34
-5.0241563e-22
1.0231624e-21
-5.205445e-22
1.7620788e-33
1.0745874e-21
-5.4551776e-22
0
-1.1262014e-21
0
1.2926982e-33
5.9170212e-22
1.2022585e-21
-1.8315763e-21
1.7623569e-37
1.2597603e-21
0
-1.2997216e-21
-6.5967465e-22
1.3386642e-21
-7.5394832e-34
-6.8913667e-22
1.3995658e-21
-7.1096759e-22
1.2028259e-33
1.467721e-21
-7.4497578e-22
7.5579329e-22
-1.5331149e-21
-2.3327446e-21
0
2.4028552e-21
1.626249e-21
-2.4762477e-21
-1.6755813e-21
8.503491e-22
1.7264633e-21
-8.7648394e-22
-8.8998552e-22
1.8070158e-21
-9.1687058e-22
-1.8601833e-21
9.4341491e-22
-1.3602437e-37
1.9433463e-21
1.9738606e-21
-3.0083024e-21
1.0188248e-21
1.7233808e-33
-3.1511224e-21
0
3.2448455e-21
2.1960909e-21
-1.1153901e-21
-1.1335789e-21
-1.1522778e-21
0
-1.1897346e-21
6.707303e-34
2.4546344e-21
-6.9200482e-34
-1.267583e-21
0
-1.3107865e-21
2.6658809e-21
4.0662113e-21
-2.7567072e-21
-4.2058898e-21
-1.4262605e-21
1.4511411e-21
2.9530522e-21
-1.5025155e-21
1.5293722e-21
1.5573308e-21
-3.1727603e-21
3.2324169e-21
1.6464057e-21
-5.0304316e-21
-3.4154604e-21
1.7398171e-21
5.3209579e-21
-4.0172614e-33
4.0994222e-33
1.8838543e-21
2.1330374e-33
1.9592381e-21
-1.998367e-21
-2.0397801e-21
-2.0837954e-21
2.1298003e-21
2.1766659e-21
-6.6708389e-21
2.2709114e-21
4.6395372e-21
-7.114336e-21
-6.8960386e-37
2.4836622e-21
-5.0842754e-21
-2.6009474e-21
0
2.7222826e-21
2.7875662e-21
5.713333e-21
-2.9286603e-21
9.9985263e-33
9.2292643e-21
-3.1521298e-21
-3.2308647e-21
-3.3139541e-21
3.4014806e-21
3.4922469e-21
-1.0754177e-20
3.6783547e-21
7.5483245e-21
6.4524237e-33
3.979846e-21
-8.1827427e-21
-1.2621887e-20
-2.4004878e-33
2.4677081e-33
6.4916926e-37
4.6949823e-21
9.6561109e-21
4.9677479e-21
-1.5339318e-20
5.8424643e-33
1.0832255e-20
0
0
-5.9081929e-21
3.3778793e-33
-3.4784967e-33
-6.4560011e-21
1.3297768e-20
6.8484765e-21
7.8317524e-33
-7.273589e-21
-2.2497421e-20
-7.7316937e-21
0
0
0
2.6190164e-20
1.8005169e-20
-2.7855629e-20
1.0634971e-32
1.9757044e-20
0
0
-2.1684557e-20
2.4834236e-32
1.2806508e-32
-2.3807862e-20
1.2281445e-20
2.5344888e-20
2.6153922e-20
-1.3494251e-20
-4.177139e-20
-1.4365801e-20
0
0
0
4.8869455e-20
3.3622907e-20
-5.2041759e-20
3.9741359e-32
1.8464577e-20
-2.7071103e-36
1.9660485e-20
-4.0581526e-20
2.3245628e-32
2.1605649e-20
-4.4579266e-20
0
1.3170507e-32
4.8947206e-20
5.0501245e-20
-7.8153602e-20
-5.3749025e-20
2.7721055e-20
1.5866953e-32
-2.949076e-20
9.1250766e-20
6.2742349e-20
-3.2353394e-20
-3.3363979e-20
3.4404131e-20
3.5475364e-20
-3.6578719e-20
-3.7714431e-20
2.1582681e-32
-2.2243432e-32
-4.1317813e-20
0
-4.3897489e-20
9.0488535e-20
1.3988561e-19
-9.6100178e-20
-9.902043e-20
-5.1011617e-20
5.8338797e-32
1.0829506e-19
-5.5782422e-20
5.7460348e-20
5.918143e-20
-1.2189634e-19
1.2552877e-19
6.4632918e-20
-6.6554107e-20
-1.3705263e-19
-7.0548244e-20
1.4524216e-19
-4.1469898e-32
7.6934998e-20
7.9182453e-20
-2.4447022e-19
8.3855623e-20
8.6278347e-20
-2.6628218e-19
1.2975593e-35
2.8177027e-19
9.6609645e-20
-2.9809424e-19
1.0218647e-19
-1.5207627e-47
1.7986861e-31
2.2213178e-19
-2.2835559e-19
-2.3473856e-19
1.2063845e-19
-1.3764061e-31
-2.5481153e-19
1.3090949e-19
4.0350082e-19
1.381815e-19
-1.4195277e-19
0
-1.4975497e-19
-3.0757159e-19
2.244027e-35
4.8639662e-19
1.6645814e-19
-3.4177314e-19
2.4927842e-35
3.6007652e-19
-3.6952119e-19
3.1575903e-31
3.8904703e-19
-5.9872561e-19
-4.0948359e-19
0
0
2.2090824e-19
6.7957058e-19
2.3226078e-19
-7.1437226e-19
2.7100366e-31
5.0045784e-19
-5.1293534e-19
-5.2566393e-19
2.6932621e-19
5.5191054e-19
-2.827219e-19
-2.8962589e-19
8.8999692e-19
3.0384107e-19
5.1823324e-31
-1.7676489e-31
-3.2622481e-19
3.3398772e-19
-6.8380332e-19
-1.0498884e-18
0
1.0995726e-18
7.5006934e-19
-1.1511262e-18
1.1156968e-34
4.0156056e-19
-8.214669e-19
4.2006594e-19
4.2955843e-19
4.8759648e-31
-4.4904567e-19
-9.1810603e-19
4.6923972e-19
9.5920857e-19
9.8028914e-19
-5.5617337e-31
-5.1175377e-19
5.2282912e-19
-1.0681804e-18
-1.6366183e-18
0
1.7070173e-18
1.162047e-18
-1.7796955e-18
6.725158e-31
6.1822607e-19
-6.310162e-19
-6.4400541e-19
3.6460712e-31
1.3411809e-18
-3.7977595e-31
-1.3959713e-18
7.9030994e-31
8.0607349e-31
1.4811873e-18
2.2656389e-18
-1.5400938e-18
8.7179788e-31
2.665316e-30
-8.1582079e-19
-8.314958e-19
-1.6947664e-18
2.5904663e-18
8.7981637e-19
-1.7927313e-18
1.8262662e-18
5.2870941e-34
-2.8419381e-18
-9.6472856e-19
9.8236796e-19
3.0007009e-18
-3.3917742e-30
-2.0732743e-18
-1.0551691e-18
2.1478422e-18
3.2786914e-18
-3.3363037e-18
-1.1315346e-18
-1.2776741e-30
-1.1710777e-18
2.3823612e-18
-6.7247749e-31
1.2320564e-18
-1.2528383e-18
4.2432303e-30
3.8852764e-18
-3.9496637e-18
-4.0147062e-18
0
0
0
1.4272019e-18
4.3500395e-18
1.4730443e-18
1.661111e-30
1.519756e-18
-4.6303252e-18
-1.5673524e-18
1.5914876e-18
1.6158424e-18
1.6404106e-18
-3.330378e-18
1.6901792e-18
-1.7153861e-18
5.7977021e-30
3.5329192e-18
-5.3769553e-18
-3.636763e-18
0
3.7422107e-18
2.1068155e-30
-1.9246496e-18
5.8552158e-18
1.979034e-18
-2.0065267e-18
0
0
-2.0901348e-18
-4.2367697e-18
4.7666154e-30
4.3509374e-18
2.2042951e-18
-2.233303e-18
2.2624876e-18
-2.2918466e-18
1.5384009e-46
3.9157612e-30
-7.1428908e-18
0
0
4.9432206e-18
5.004305e-18
2.5328514e-18
-2.8457359e-30
-7.7841162e-18
2.9158461e-30
5.3143104e-18
0
-5.4403689e-18
-2.7519065e-18
5.5675225e-18
-2.8157461e-18
-2.8478588e-18
8.6402903e-18
-2.9124564e-18
9.8079715e-30
5.9550504e-18
-9.0306855e-18
-6.0860808e-18
0
0
0
9.5258223e-18
6.4171216e-18
-9.7258125e-18
-6.5508034e-18
0
6.6851265e-18
-3.748144e-30
-3.4099858e-18
6.8875776e-18
-3.4776532e-18
3.5115757e-18
3.5455496e-18
-1.0738703e-17
7.2272501e-18
7.2954413e-18
-3.6818535e-18
3.7160194e-18
-7.50042e-18
-1.1353247e-17
0
1.1558562e-17
7.7741777e-18
-3.921337e-18
-3.9555936e-18
4.4293369e-30
-4.0240853e-18
1.3518292e-29
4.0924862e-18
2.2911912e-30
-6.5604397e-48
-4.1949173e-18
0
-4.2630589e-18
8.5941181e-18
1.2993012e-17
-1.3094673e-17
-1.3196158e-17
0
8.9323831e-18
8.9996575e-18
-9.0667855e-18
4.5668757e-18
4.6002689e-18
-1.3900697e-17
9.3335268e-18
9.3997265e-18
-4.732867e-18
-9.5315445e-18
-4.7985705e-18
1.4493748e-17
4.863798e-18
8.1533089e-30
-9.8569853e-18
-2.8198001e-33
1.4978007e-17
-1.0049121e-17
-1.516892e-17
-5.0878957e-18
1.5357956e-17
1.0301146e-17
-1.5544987e-17
1.1575015e-29
1.0486709e-17
5.2739501e-18
-2.9443266e-30
-1.0669187e-17
5.9555472e-30
-5.3944532e-18
-5.4240841e-18
1.6360554e-17
5.482754e-18
6.1189222e-30
-1.1081224e-17
1.8548034e-29
1.6792792e-17
-1.1251493e-17
6.2796392e-30
6.3120059e-30
1.2676909e-29
5.7360318e-18
-1.7289058e-17
5.7897608e-18
9.6837259e-30
1.9458106e-29
1.7605323e-17
-5.8941473e-18
-1.1839192e-17
6.5996145e-30
-5.9697086e-18
-5.9943598e-18
1.2037462e-17
1.2085635e-17
-6.7340065e-30
-1.8270406e-17
6.7850302e-30
6.1363153e-18
-1.2317943e-17
6.1813299e-18
6.2033857e-18
-3.453654e-30
3.4673265e-30
-6.2677201e-18
1.2577111e-17
-6.3090825e-18
2.108303e-29
2.1145671e-29
-1.9106241e-17
1.2775981e-17
-1.8209548e-33
-1.2851044e-17
6.4438055e-18
1.9385268e-17
6.4793653e-18
-1.9489899e-17
7.2310468e-30
6.5301679e-18
-1.3092887e-17
1.3124771e-17
3.2867123e-29
-6.5932212e-18
6.6081045e-18
-6.622639e-18
1.3273667e-17
-6.6506914e-18
-1.9992624e-17
0
0
1.3405219e-17
1.908428e-33
-1.3452813e-17
6.7377813e-18
2.0246426e-17
6.7594828e-18
-2.0309385e-17
-1.9269172e-33
-7.537166e-30
-1.359704e-17
2.042212e-17
3.4051879e-29
-6.8240164e-18
6.8318028e-18
6.8392229e-18
-7.6042936e-30
-6.852951e-18
1.3718535e-17
-1.3730452e-17
2.2882988e-29
1.3752146e-17
-2.0642876e-17
-1.3770953e-17
6.889625e-18
2.0680224e-17
6.8968327e-18
-6.8999019e-18
0
6.9049807e-18
-6.9069817e-18
-2.0725853e-17
-3.8355153e-30
1.3821616e-17
-6.9113737e-18
-6.9115906e-18
1.3822862e-17
-6.9108908e-18
6.9099934e-18
1.3817488e-17
-2.0721435e-17
2.2997457e-29
-1.5328512e-29
-1.3800547e-17
1.3794601e-17
6.8939876e-18
6.890334e-18
7.6507565e-30
-6.88201e-18
1.3754689e-17
-1.3744697e-17
-2.060107e-17
0
6.8553896e-18
-3.8017615e-30
-1.9447421e-33
2.050651e-17
6.8282363e-18
-2.0461959e-17
6.8127544e-18
4.3732311e-47
-2.0388052e-17
6.7871868e-18
2.0334163e-17
6.7686222e-18
-1.3517781e-17
6.7488588e-18
-6.7385284e-18
2.2406981e-29
1.3433971e-17
-2.0117353e-17
-7.4354991e-30
2.9678347e-29
-1.3341001e-17
1.3316361e-17
7.3776077e-30
-6.632714e-18
1.3239153e-17
6.606176e-18
0
0
-1.3128844e-17
1.4542976e-29
3.7148952e-33
7.2386168e-30
6.5052093e-18
6.4897942e-18
-6.4741428e-18
-6.4582586e-18
1.2884287e-17
-1.28516e-17
7.1152186e-30
1.2784869e-17
-1.2750839e-17
-2.1175668e-29
7.0391944e-30
-6.3231013e-18
1.2610498e-17
-6.2871937e-18
1.3918947e-29
1.2500967e-17
0
-1.2425999e-17
-6.193979e-18
1.2349555e-17
6.1553968e-18
-6.1358391e-18
1.0186452e-29
6.096206e-18
0
0
-1.2071047e-17
-1.2029961e-17
0
1.1946876e-17
5.9524456e-18
-5.9313118e-18
5.9100398e-18
-5.888632e-18
0
1.1690837e-17
0
0
-5.7796599e-18
6.3917069e-30
5.7352397e-18
0
-5.6903761e-18
-3.1460515e-30
5.645095e-18
0
-1.1198863e-17
-1.1152926e-17
5.5534055e-18
6.1386448e-30
-5.5070347e-18
1.096746e-17
1.0920704e-17
-1.0873805e-17
-1.538576e-33
-1.1968517e-29
-1.5251496e-33
1.0684856e-17
-5.318656e-18
5.8780667e-30
-5.2709547e-18
5.2470295e-18
1.5669169e-17
-1.559711e-17
-5.1749737e-18
5.1508716e-18
5.6907266e-30
5.1025673e-18
-1.0156739e-17
-1.0108287e-17
1.0059779e-17
1.6669542e-29
4.9813084e-18
4.9569886e-18
-9.8653084e-18
4.9083072e-18
-5.4212313e-30
2.6988174e-30
-4.8352027e-18
-9.6216374e-18
9.5728641e-18
9.5240919e-18
0
-4.7132831e-18
-5.2054011e-30
9.3290801e-18
5.1513046e-30
-1.3847491e-17
-9.1829904e-18
0
9.0857459e-18
1.0031355e-29
4.4943225e-18
4.4700783e-18
-1.3337575e-17
2.4537315e-30
8.7949966e-18
-4.3733597e-18
-8.6984986e-18
4.3251684e-18
8.6022396e-18
4.2771065e-18
0
-8.458384e-18
4.2052918e-18
1.2544288e-17
-4.1576051e-18
-4.1338215e-18
-8.2201632e-18
-4.086387e-18
8.1254768e-18
4.0391362e-18
4.0155802e-18
-4.4318057e-30
-3.9686106e-18
-3.9452002e-18
-7.8436828e-18
-3.8985345e-18
0
0
0
7.6116731e-18
7.5655999e-18
-7.5196396e-18
-4.1485222e-30
-4.1231354e-30
4.0967636e-30
8.1461543e-30
-7.291553e-18
0
7.2011547e-18
3.5780671e-18
-3.5556162e-18
3.5332267e-18
3.5109002e-18
0
0
-6.8886076e-18
1.1397586e-29
7.549517e-30
-6.7565389e-18
6.7127734e-18
6.6691403e-18
0
-6.5822675e-18
3.628725e-30
6.4959038e-18
-6.4529155e-18
-3.5589821e-30
6.3673424e-18
0
-6.2823067e-18
-3.1199918e-18
6.1977884e-18
-3.0778622e-18
-6.7889795e-30
6.0720025e-18
-6.0303457e-18
-5.9888228e-18
0
0
0
5.8240373e-18
5.7831774e-18
-5.7424541e-18
0
5.6614036e-18
0
2.7904346e-18
-5.5408034e-18
-2.7504377e-18
2.7305429e-18
-5.4214314e-18
-2.6909528e-18
5.3425049e-18
2.6516162e-18
2.9223458e-30
-2.6125454e-18
5.7575003e-30
-1.4630079e-33
-5.1089084e-18
0
2.5160514e-18
4.9938919e-18
2.477907e-18
0
0
0
2.402429e-18
-4.7674512e-18
-2.3650863e-18
2.3465115e-18
2.3280021e-18
-2.3095593e-18
-2.291184e-18
4.5457537e-18
0
-4.4729296e-18
-4.4367124e-18
0
0
4.3288396e-18
2.3830247e-30
2.1287994e-18
2.1110922e-18
-2.0934519e-18
2.0758766e-18
-2.0583661e-18
-4.0818437e-18
-2.0235452e-18
0
3.9779962e-18
2.1884686e-30
-1.9547262e-18
1.9376907e-18
1.9207218e-18
3.8076409e-18
-3.7739756e-18
-1.8702246e-18
5.2680534e-34
-1.8369088e-18
3.6407108e-18
-1.8038703e-18
1.7874533e-18
3.7707215e-47
-1.7548281e-18
3.4772438e-18
-3.4449755e-18
-3.4128511e-18
0
1.6745124e-18
3.317322e-18
-9.1192389e-31
-1.6271739e-18
-1.6115403e-18
3.1919614e-18
3.1609887e-18
-1.5650802e-18
-3.0994766e-18
-3.0689392e-18
1.5192752e-18
3.0083122e-18
-1.4891126e-18
1.4741442e-18
-2.4295697e-30
-1.4444315e-18
2.8593769e-18
-2.8300448e-18
-1.5542963e-30
7.6933147e-30
-2.7429727e-18
2.7142536e-18
5.9630451e-30
-1.3286404e-18
2.6290331e-18
-1.3004734e-18
3.6564799e-34
-5.6512211e-30
-1.2588148e-18
2.4901702e-18
-2.7341609e-30
6.758359e-31
-1.2043823e-18
3.3849664e-34
2.3553134e-18
-2.3288288e-18
-6.5441162e-34
5.0541834e-30
-2.250355e-18
2.2245296e-18
2.441081e-30
-2.1733784e-18
1.0740258e-18
1.061446e-18
1.0489506e-18
-1.0365398e-18
1.1370325e-30
2.0239415e-18
0
0
-1.9515031e-18
-2.7394303e-34
1.9040753e-18
-9.4030894e-19
1.030695e-30
-9.1710513e-19
-2.0107766e-30
1.7884891e-18
0
8.7173759e-19
-1.7212309e-18
-8.4957877e-19
1.8622461e-30
-8.277621e-19
1.6339676e-18
-8.0629373e-19
8.8311378e-31
1.5703614e-18
0
0
-7.5416649e-19
4.129774e-31
-7.3392393e-19
7.2393439e-19
2.1421018e-18
-2.1126675e-18
-6.9449876e-19
1.3697228e-18
-6.7531018e-19
-1.1086896e-30
-6.5646736e-19
3.6787789e-34
2.124936e-30
-6.2886475e-19
1.2396775e-18
6.1089833e-19
0
5.932743e-19
-5.845921e-19
-5.7599764e-19
-5.6749e-19
1.2413003e-30
-6.1123769e-31
6.0207793e-31
1.0686195e-18
-5.2622883e-19
-8.6290368e-31
1.0206458e-18
-7.1408829e-35
-4.9474936e-19
-9.7417287e-19
-9.5901595e-19
9.4403128e-19
5.1604995e-31
4.5728317e-19
4.5003843e-19
-8.8574652e-19
8.7157484e-19
4.2878268e-19
-1.2655847e-18
-8.3004838e-19
4.0826827e-19