/*--------------------------------*- C++ -*----------------------------------*\
  =========                 |
  \\      /  F ield         | OpenFOAM: The Open Source CFD Toolbox
   \\    /   O peration     | Website:  https://openfoam.org
    \\  /    A nd           | Version:  7
     \\/     M anipulation  |
\*---------------------------------------------------------------------------*/
FoamFile
{
    version     2.0;
    format      ascii;
    class       surfaceScalarField;
    location    "0.00315";
    object      phi;
}
// * * * * * * * * * * * * * * * * * * * * * * * * * * * * * * * * * * * * * //

dimensions      [1 0 -1 0 0 0 0];

internalField   nonuniform List<scalar> 
4999
(
0.0037607877
0.0037607734
0.0037607602
0.0037607467
0.0037607332
0.0037607194
0.0037607056
0.0037606916
0.0037606776
0.0037606635
0.0037606494
0.0037606352
0.0037606211
0.0037606069
0.0037605927
0.0037605786
0.0037605644
0.0037605503
0.0037605361
0.003760522
0.0037605078
0.0037604937
0.0037604796
0.0037604655
0.0037604514
0.0037604373
0.0037604232
0.0037604091
0.0037603951
0.003760381
0.0037603669
0.0037603529
0.0037603389
0.0037603248
0.0037603108
0.0037602968
0.0037602828
0.0037602688
0.0037602548
0.0037602408
0.0037602268
0.0037602128
0.0037601988
0.0037601849
0.0037601709
0.0037601569
0.003760143
0.003760129
0.0037601151
0.0037601011
0.0037600872
0.0037600733
0.0037600593
0.0037600454
0.0037600315
0.0037600176
0.0037600037
0.0037599898
0.0037599759
0.003759962
0.0037599481
0.0037599342
0.0037599204
0.0037599065
0.0037598926
0.0037598788
0.0037598649
0.0037598511
0.0037598373
0.0037598234
0.0037598096
0.0037597958
0.0037597821
0.0037597683
0.0037597544
0.0037597406
0.0037597268
0.0037597131
0.0037596993
0.0037596856
0.0037596718
0.0037596581
0.0037596444
0.0037596306
0.0037596169
0.0037596032
0.0037595895
0.0037595758
0.0037595622
0.0037595485
0.0037595348
0.0037595212
0.0037595075
0.0037594939
0.0037594802
0.0037594666
0.003759453
0.0037594394
0.0037594258
0.0037594122
0.0037593986
0.0037593851
0.0037593715
0.003759358
0.0037593444
0.0037593309
0.0037593174
0.0037593038
0.0037592903
0.0037592768
0.0037592634
0.0037592499
0.0037592364
0.003759223
0.0037592095
0.0037591961
0.0037591827
0.0037591693
0.0037591559
0.0037591425
0.0037591292
0.0037591158
0.0037591024
0.0037590891
0.0037590758
0.0037590625
0.0037590492
0.0037590359
0.0037590226
0.0037590094
0.0037589961
0.0037589829
0.0037589697
0.0037589565
0.0037589433
0.0037589301
0.0037589169
0.0037589038
0.0037588906
0.0037588775
0.0037588643
0.0037588512
0.0037588381
0.003758825
0.003758812
0.0037587989
0.0037587858
0.0037587728
0.0037587597
0.0037587467
0.0037587336
0.0037587206
0.0037587076
0.0037586946
0.0037586815
0.0037586685
0.0037586555
0.0037586425
0.0037586295
0.0037586165
0.0037586035
0.0037585905
0.0037585775
0.0037585644
0.0037585514
0.0037585384
0.0037585254
0.0037585123
0.0037584993
0.0037584862
0.0037584732
0.0037584601
0.003758447
0.0037584339
0.0037584208
0.0037584077
0.0037583946
0.0037583815
0.0037583683
0.0037583551
0.003758342
0.0037583288
0.0037583156
0.0037583024
0.0037582891
0.0037582759
0.0037582627
0.0037582494
0.0037582361
0.0037582228
0.0037582095
0.0037581962
0.0037581829
0.0037581696
0.0037581562
0.0037581429
0.0037581295
0.0037581162
0.0037581028
0.0037580894
0.003758076
0.0037580626
0.0037580492
0.0037580358
0.0037580224
0.003758009
0.0037579956
0.0037579822
0.0037579687
0.0037579553
0.0037579419
0.0037579285
0.0037579151
0.0037579016
0.0037578882
0.0037578748
0.0037578614
0.0037578479
0.0037578345
0.0037578211
0.0037578077
0.0037577943
0.0037577809
0.0037577675
0.0037577541
0.0037577407
0.0037577273
0.0037577139
0.0037577006
0.0037576872
0.0037576738
0.0037576605
0.0037576471
0.0037576337
0.0037576204
0.0037576071
0.0037575937
0.0037575804
0.0037575671
0.0037575538
0.0037575405
0.0037575272
0.0037575139
0.0037575006
0.0037574873
0.003757474
0.0037574607
0.0037574475
0.0037574342
0.0037574209
0.0037574077
0.0037573944
0.0037573812
0.0037573679
0.0037573547
0.0037573415
0.0037573282
0.003757315
0.0037573018
0.0037572886
0.0037572753
0.0037572621
0.0037572489
0.0037572357
0.0037572225
0.0037572093
0.0037571961
0.0037571829
0.0037571697
0.0037571565
0.0037571433
0.0037571301
0.0037571169
0.0037571037
0.0037570906
0.0037570774
0.0037570642
0.003757051
0.0037570378
0.0037570246
0.0037570114
0.0037569982
0.003756985
0.0037569718
0.0037569586
0.0037569454
0.0037569322
0.003756919
0.0037569058
0.0037568926
0.0037568794
0.0037568662
0.0037568529
0.0037568397
0.0037568265
0.0037568133
0.0037568001
0.0037567868
0.0037567736
0.0037567604
0.0037567471
0.0037567339
0.0037567207
0.0037567074
0.0037566942
0.0037566809
0.0037566677
0.0037566544
0.0037566411
0.0037566279
0.0037566146
0.0037566013
0.003756588
0.0037565748
0.0037565615
0.0037565482
0.0037565349
0.0037565216
0.0037565083
0.003756495
0.0037564817
0.0037564684
0.0037564551
0.0037564418
0.0037564285
0.0037564152
0.0037564019
0.0037563885
0.0037563752
0.0037563619
0.0037563486
0.0037563352
0.0037563219
0.0037563086
0.0037562952
0.0037562819
0.0037562686
0.0037562552
0.0037562419
0.0037562285
0.0037562152
0.0037562019
0.0037561885
0.0037561752
0.0037561618
0.0037561485
0.0037561351
0.0037561218
0.0037561085
0.0037560951
0.0037560818
0.0037560684
0.0037560551
0.0037560418
0.0037560284
0.0037560151
0.0037560018
0.0037559885
0.0037559751
0.0037559618
0.0037559485
0.0037559352
0.0037559219
0.0037559086
0.0037558953
0.003755882
0.0037558688
0.0037558555
0.0037558422
0.003755829
0.0037558157
0.0037558025
0.0037557892
0.003755776
0.0037557628
0.0037557496
0.0037557364
0.0037557232
0.00375571
0.0037556968
0.0037556836
0.0037556705
0.0037556573
0.0037556442
0.0037556311
0.003755618
0.0037556049
0.0037555918
0.0037555787
0.0037555656
0.0037555526
0.0037555396
0.0037555265
0.0037555135
0.0037555006
0.0037554876
0.0037554746
0.0037554617
0.0037554488
0.0037554359
0.003755423
0.0037554102
0.0037553973
0.0037553845
0.0037553717
0.0037553589
0.0037553462
0.0037553334
0.0037553207
0.0037553081
0.0037552954
0.0037552828
0.0037552702
0.0037552576
0.003755245
0.0037552325
0.00375522
0.0037552076
0.0037551951
0.0037551827
0.0037551703
0.003755158
0.0037551457
0.0037551334
0.0037551211
0.0037551089
0.0037550967
0.0037550846
0.0037550725
0.0037550604
0.0037550483
0.0037550363
0.0037550243
0.0037550124
0.0037550005
0.0037549886
0.0037549768
0.003754965
0.0037549533
0.0037549416
0.0037549299
0.0037549183
0.0037549067
0.0037548951
0.0037548836
0.0037548722
0.0037548607
0.0037548494
0.003754838
0.0037548267
0.0037548155
0.0037548042
0.0037547931
0.0037547819
0.0037547709
0.0037547598
0.0037547488
0.0037547379
0.003754727
0.0037547161
0.0037547053
0.0037546945
0.0037546838
0.0037546731
0.0037546625
0.0037546519
0.0037546414
0.0037546309
0.0037546204
0.00375461
0.0037545996
0.0037545893
0.003754579
0.0037545688
0.0037545586
0.0037545485
0.0037545384
0.0037545283
0.0037545183
0.0037545084
0.0037544984
0.0037544886
0.0037544787
0.003754469
0.0037544592
0.0037544496
0.0037544399
0.0037544303
0.0037544208
0.0037544113
0.0037544018
0.0037543924
0.003754383
0.0037543737
0.0037543645
0.0037543552
0.0037543461
0.0037543369
0.0037543278
0.0037543188
0.0037543098
0.0037543009
0.003754292
0.0037542831
0.0037542743
0.0037542655
0.0037542568
0.0037542481
0.0037542394
0.0037542308
0.0037542223
0.0037542138
0.0037542053
0.0037541968
0.0037541884
0.0037541801
0.0037541718
0.0037541635
0.0037541553
0.0037541471
0.0037541389
0.0037541308
0.0037541228
0.0037541148
0.0037541068
0.0037540988
0.0037540909
0.0037540831
0.0037540752
0.0037540674
0.0037540597
0.003754052
0.0037540443
0.0037540367
0.0037540291
0.0037540216
0.003754014
0.0037540066
0.0037539991
0.0037539917
0.0037539843
0.003753977
0.0037539697
0.0037539624
0.0037539552
0.003753948
0.0037539408
0.0037539337
0.0037539266
0.0037539196
0.0037539125
0.0037539055
0.0037538986
0.0037538917
0.0037538848
0.0037538779
0.0037538711
0.0037538643
0.0037538575
0.0037538507
0.003753844
0.0037538373
0.0037538307
0.0037538241
0.0037538175
0.0037538109
0.0037538043
0.0037537978
0.0037537913
0.0037537848
0.0037537784
0.003753772
0.0037537656
0.0037537592
0.0037537529
0.0037537466
0.0037537403
0.003753734
0.0037537277
0.0037537215
0.0037537153
0.0037537091
0.003753703
0.0037536968
0.0037536907
0.0037536846
0.0037536785
0.0037536724
0.0037536663
0.0037536603
0.0037536542
0.0037536482
0.0037536423
0.0037536363
0.0037536303
0.0037536244
0.0037536184
0.0037536125
0.0037536066
0.0037536007
0.0037535948
0.003753589
0.0037535831
0.0037535773
0.0037535714
0.0037535656
0.0037535598
0.003753554
0.0037535482
0.0037535424
0.0037535366
0.0037535309
0.0037535251
0.0037535194
0.0037535136
0.0037535079
0.0037535022
0.0037534965
0.0037534909
0.0037534852
0.0037534796
0.0037534739
0.0037534683
0.0037534627
0.0037534571
0.0037534514
0.0037534459
0.0037534403
0.0037534347
0.0037534291
0.0037534236
0.003753418
0.0037534124
0.0037534069
0.0037534013
0.0037533958
0.0037533903
0.0037533847
0.0037533792
0.0037533737
0.0037533681
0.0037533626
0.0037533571
0.0037533516
0.0037533461
0.0037533406
0.0037533351
0.0037533296
0.0037533241
0.0037533186
0.0037533132
0.0037533077
0.0037533022
0.0037532967
0.0037532913
0.0037532858
0.0037532803
0.0037532749
0.0037532694
0.003753264
0.0037532585
0.0037532531
0.0037532477
0.0037532422
0.0037532368
0.0037532314
0.003753226
0.0037532206
0.0037532152
0.0037532098
0.0037532044
0.0037531989
0.0037531935
0.0037531881
0.0037531827
0.0037531772
0.0037531718
0.0037531664
0.0037531609
0.0037531554
0.00375315
0.0037531445
0.003753139
0.0037531336
0.0037531281
0.0037531226
0.0037531171
0.0037531116
0.0037531061
0.0037531006
0.0037530951
0.0037530897
0.0037530842
0.0037530787
0.0037530733
0.0037530678
0.0037530623
0.0037530569
0.0037530514
0.0037530459
0.0037530404
0.0037530349
0.0037530294
0.0037530239
0.0037530184
0.0037530129
0.0037530074
0.0037530019
0.0037529964
0.0037529909
0.0037529854
0.00375298
0.0037529746
0.0037529692
0.0037529637
0.0037529582
0.0037529527
0.0037529473
0.0037529418
0.0037529364
0.003752931
0.0037529256
0.0037529202
0.0037529148
0.0037529094
0.003752904
0.0037528987
0.0037528933
0.003752888
0.0037528826
0.0037528773
0.003752872
0.0037528667
0.0037528614
0.003752856
0.0037528507
0.0037528455
0.0037528402
0.0037528349
0.0037528296
0.0037528244
0.0037528191
0.0037528139
0.0037528087
0.0037528035
0.0037527983
0.0037527932
0.003752788
0.0037527829
0.0037527778
0.0037527727
0.0037527676
0.0037527625
0.0037527575
0.0037527525
0.0037527474
0.0037527424
0.0037527375
0.0037527325
0.0037527276
0.0037527227
0.0037527178
0.0037527129
0.0037527081
0.0037527032
0.0037526984
0.0037526936
0.0037526888
0.0037526841
0.0037526793
0.0037526746
0.0037526699
0.0037526652
0.0037526605
0.0037526559
0.0037526513
0.0037526466
0.0037526421
0.0037526375
0.003752633
0.0037526284
0.003752624
0.0037526195
0.003752615
0.0037526106
0.0037526062
0.0037526018
0.0037525975
0.0037525931
0.0037525888
0.0037525845
0.0037525803
0.003752576
0.0037525718
0.0037525676
0.0037525635
0.0037525593
0.0037525552
0.0037525511
0.0037525471
0.003752543
0.003752539
0.003752535
0.0037525311
0.0037525272
0.0037525233
0.0037525194
0.0037525156
0.0037525118
0.003752508
0.0037525042
0.0037525005
0.0037524968
0.0037524931
0.0037524895
0.0037524859
0.0037524823
0.0037524788
0.0037524753
0.0037524718
0.0037524683
0.0037524649
0.0037524615
0.0037524582
0.0037524549
0.0037524516
0.0037524483
0.0037524451
0.0037524419
0.0037524387
0.0037524356
0.0037524325
0.0037524294
0.0037524264
0.0037524234
0.0037524205
0.0037524176
0.0037524147
0.0037524118
0.003752409
0.0037524063
0.0037524035
0.0037524008
0.0037523981
0.0037523955
0.0037523929
0.0037523903
0.0037523878
0.0037523853
0.0037523829
0.0037523804
0.003752378
0.0037523757
0.0037523734
0.0037523711
0.0037523689
0.0037523667
0.0037523646
0.0037523625
0.0037523604
0.0037523584
0.0037523564
0.0037523545
0.0037523526
0.0037523507
0.0037523488
0.003752347
0.0037523453
0.0037523435
0.0037523418
0.0037523402
0.0037523385
0.0037523369
0.0037523353
0.0037523338
0.0037523322
0.0037523308
0.0037523293
0.0037523279
0.0037523265
0.0037523251
0.0037523238
0.0037523225
0.0037523212
0.00375232
0.0037523187
0.0037523176
0.0037523164
0.0037523153
0.0037523143
0.0037523132
0.0037523122
0.0037523113
0.0037523104
0.0037523095
0.0037523086
0.0037523078
0.0037523071
0.0037523063
0.0037523056
0.0037523049
0.0037523043
0.0037523037
0.0037523031
0.0037523026
0.0037523021
0.0037523016
0.0037523012
0.0037523008
0.0037523004
0.0037523
0.0037522997
0.0037522994
0.0037522992
0.003752299
0.0037522988
0.0037522986
0.0037522985
0.0037522984
0.0037522983
0.0037522983
0.0037522982
0.0037522983
0.0037522983
0.0037522984
0.0037522985
0.0037522987
0.0037522989
0.0037522991
0.0037522993
0.0037522996
0.0037522999
0.0037523002
0.0037523006
0.0037523009
0.0037523014
0.0037523018
0.0037523023
0.0037523028
0.0037523033
0.0037523039
0.0037523045
0.0037523052
0.0037523058
0.0037523065
0.0037523073
0.003752308
0.0037523088
0.0037523096
0.0037523105
0.0037523114
0.0037523123
0.0037523132
0.0037523142
0.0037523152
0.0037523162
0.0037523173
0.0037523184
0.0037523195
0.0037523207
0.0037523219
0.0037523231
0.0037523243
0.0037523256
0.0037523269
0.0037523283
0.0037523297
0.0037523311
0.0037523325
0.003752334
0.0037523355
0.0037523371
0.0037523386
0.0037523402
0.0037523419
0.0037523435
0.0037523452
0.0037523469
0.0037523487
0.0037523505
0.0037523523
0.0037523541
0.003752356
0.0037523579
0.0037523599
0.0037523619
0.0037523639
0.0037523659
0.003752368
0.0037523701
0.0037523722
0.0037523744
0.0037523765
0.0037523788
0.003752381
0.0037523833
0.0037523856
0.003752388
0.0037523904
0.0037523928
0.0037523952
0.0037523977
0.0037524002
0.0037524028
0.0037524053
0.0037524079
0.0037524106
0.0037524133
0.003752416
0.0037524187
0.0037524215
0.0037524243
0.0037524272
0.00375243
0.003752433
0.0037524359
0.0037524389
0.0037524419
0.003752445
0.0037524481
0.0037524512
0.0037524544
0.0037524575
0.0037524608
0.003752464
0.0037524673
0.0037524707
0.003752474
0.0037524774
0.0037524809
0.0037524844
0.0037524879
0.0037524914
0.003752495
0.0037524985
0.0037525021
0.0037525058
0.0037525094
0.0037525131
0.0037525168
0.0037525206
0.0037525244
0.0037525282
0.003752532
0.0037525359
0.0037525398
0.0037525437
0.0037525476
0.0037525516
0.0037525556
0.0037525596
0.0037525636
0.0037525677
0.0037525718
0.003752576
0.0037525802
0.0037525844
0.0037525886
0.0037525929
0.0037525972
0.0037526015
0.0037526059
0.0037526103
0.0037526147
0.0037526192
0.0037526237
0.0037526282
0.0037526327
0.0037526373
0.0037526419
0.0037526466
0.0037526512
0.0037526559
0.0037526606
0.0037526654
0.0037526702
0.003752675
0.0037526798
0.0037526847
0.0037526896
0.0037526945
0.0037526995
0.0037527045
0.0037527095
0.0037527145
0.0037527196
0.0037527247
0.0037527298
0.0037527349
0.0037527401
0.0037527453
0.0037527505
0.0037527558
0.0037527611
0.0037527664
0.0037527717
0.0037527771
0.0037527825
0.0037527879
0.0037527934
0.0037527989
0.0037528044
0.00375281
0.0037528156
0.0037528212
0.0037528269
0.0037528325
0.0037528382
0.003752844
0.0037528498
0.0037528556
0.0037528614
0.0037528673
0.0037528732
0.0037528792
0.0037528851
0.0037528911
0.0037528972
0.0037529033
0.0037529094
0.0037529156
0.0037529217
0.003752928
0.0037529342
0.0037529405
0.0037529468
0.0037529532
0.0037529596
0.003752966
0.0037529725
0.003752979
0.0037529855
0.003752992
0.0037529986
0.0037530052
0.0037530118
0.0037530185
0.0037530252
0.0037530319
0.0037530387
0.0037530455
0.0037530523
0.0037530592
0.0037530661
0.003753073
0.0037530799
0.0037530869
0.0037530939
0.003753101
0.0037531081
0.0037531152
0.0037531224
0.0037531296
0.0037531369
0.0037531442
0.0037531515
0.0037531589
0.0037531664
0.0037531738
0.0037531814
0.003753189
0.0037531966
0.0037532043
0.003753212
0.0037532197
0.0037532275
0.0037532353
0.0037532432
0.0037532511
0.0037532591
0.0037532671
0.0037532752
0.0037532833
0.0037532914
0.0037532996
0.0037533078
0.0037533161
0.0037533245
0.0037533329
0.0037533413
0.0037533498
0.0037533584
0.003753367
0.0037533757
0.0037533844
0.0037533932
0.0037534021
0.003753411
0.0037534199
0.0037534289
0.003753438
0.0037534472
0.0037534564
0.0037534656
0.003753475
0.0037534843
0.0037534938
0.0037535033
0.0037535128
0.0037535224
0.0037535321
0.0037535419
0.0037535517
0.0037535615
0.0037535714
0.0037535814
0.0037535915
0.0037536016
0.0037536118
0.003753622
0.0037536324
0.0037536427
0.0037536532
0.0037536637
0.0037536743
0.0037536849
0.0037536957
0.0037537065
0.0037537173
0.0037537282
0.0037537392
0.0037537503
0.0037537614
0.0037537727
0.0037537839
0.0037537953
0.0037538067
0.0037538182
0.0037538298
0.0037538414
0.0037538531
0.0037538649
0.0037538768
0.0037538887
0.0037539007
0.0037539127
0.0037539249
0.0037539371
0.0037539494
0.0037539617
0.0037539741
0.0037539866
0.0037539991
0.0037540117
0.0037540244
0.0037540372
0.00375405
0.0037540629
0.0037540759
0.003754089
0.0037541021
0.0037541153
0.0037541286
0.003754142
0.0037541554
0.003754169
0.0037541826
0.0037541963
0.0037542101
0.003754224
0.003754238
0.003754252
0.0037542662
0.0037542804
0.0037542947
0.0037543091
0.0037543236
0.0037543381
0.0037543528
0.0037543675
0.0037543822
0.0037543971
0.003754412
0.003754427
0.003754442
0.0037544571
0.0037544723
0.0037544875
0.0037545029
0.0037545183
0.0037545338
0.0037545493
0.003754565
0.0037545808
0.0037545966
0.0037546125
0.0037546286
0.0037546447
0.0037546609
0.0037546772
0.0037546936
0.0037547101
0.0037547267
0.0037547434
0.0037547602
0.0037547771
0.0037547941
0.0037548112
0.0037548284
0.0037548457
0.0037548631
0.0037548806
0.0037548983
0.003754916
0.0037549339
0.0037549518
0.0037549699
0.0037549881
0.0037550064
0.0037550249
0.0037550434
0.003755062
0.0037550806
0.0037550994
0.0037551182
0.0037551371
0.0037551562
0.0037551753
0.0037551945
0.0037552138
0.0037552331
0.0037552526
0.0037552721
0.0037552918
0.0037553115
0.0037553314
0.0037553514
0.0037553716
0.0037553918
0.0037554122
0.0037554327
0.0037554533
0.003755474
0.0037554948
0.0037555157
0.0037555368
0.003755558
0.0037555793
0.0037556007
0.0037556222
0.0037556439
0.0037556656
0.0037556875
0.0037557096
0.0037557317
0.003755754
0.0037557764
0.0037557989
0.0037558215
0.0037558443
0.0037558672
0.0037558902
0.0037559134
0.0037559366
0.0037559601
0.0037559837
0.0037560074
0.0037560312
0.0037560552
0.0037560794
0.0037561036
0.0037561281
0.0037561526
0.0037561774
0.0037562022
0.0037562272
0.0037562524
0.0037562777
0.0037563031
0.0037563287
0.0037563544
0.0037563803
0.0037564063
0.0037564324
0.0037564587
0.0037564852
0.0037565118
0.0037565385
0.0037565654
0.0037565925
0.0037566198
0.0037566472
0.0037566747
0.0037567024
0.0037567303
0.0037567583
0.0037567865
0.0037568149
0.0037568434
0.0037568721
0.003756901
0.00375693
0.0037569592
0.0037569885
0.0037570181
0.0037570478
0.0037570777
0.0037571078
0.0037571381
0.0037571686
0.0037571992
0.0037572301
0.0037572611
0.0037572924
0.0037573238
0.0037573554
0.0037573872
0.0037574192
0.0037574515
0.0037574839
0.0037575165
0.0037575493
0.0037575823
0.0037576155
0.003757649
0.0037576826
0.0037577164
0.0037577505
0.0037577847
0.0037578192
0.0037578539
0.0037578887
0.0037579238
0.0037579591
0.0037579947
0.0037580304
0.0037580663
0.0037581025
0.0037581389
0.0037581755
0.0037582124
0.0037582494
0.0037582867
0.0037583243
0.003758362
0.0037584
0.0037584382
0.0037584767
0.0037585154
0.0037585544
0.0037585936
0.003758633
0.0037586725
0.0037587122
0.0037587521
0.0037587922
0.0037588327
0.0037588733
0.0037589142
0.0037589554
0.0037589968
0.0037590384
0.0037590802
0.0037591223
0.0037591647
0.0037592072
0.00375925
0.003759293
0.0037593363
0.0037593798
0.0037594235
0.0037594675
0.0037595117
0.0037595562
0.0037596009
0.0037596458
0.003759691
0.0037597364
0.003759782
0.0037598279
0.0037598741
0.0037599205
0.0037599671
0.003760014
0.0037600612
0.0037601085
0.0037601562
0.003760204
0.0037602522
0.0037603005
0.0037603492
0.003760398
0.0037604471
0.0037604965
0.0037605461
0.0037605959
0.003760646
0.0037606963
0.0037607469
0.0037607977
0.0037608487
0.0037609
0.0037609515
0.0037610033
0.0037610553
0.0037611075
0.00376116
0.0037612127
0.0037612656
0.0037613188
0.0037613723
0.0037614259
0.0037614798
0.003761534
0.0037615884
0.003761643
0.0037616978
0.0037617529
0.0037618083
0.0037618638
0.0037619197
0.0037619757
0.003762032
0.0037620885
0.0037621452
0.0037622022
0.0037622594
0.0037623169
0.0037623746
0.0037624325
0.0037624906
0.003762549
0.0037626076
0.0037626664
0.0037627255
0.0037627848
0.0037628443
0.0037629041
0.0037629641
0.0037630243
0.0037630847
0.0037631454
0.0037632063
0.0037632674
0.0037633287
0.0037633902
0.003763452
0.003763514
0.0037635762
0.0037636387
0.0037637013
0.0037637642
0.0037638273
0.0037638906
0.0037639542
0.0037640179
0.0037640818
0.003764146
0.0037642104
0.003764275
0.0037643397
0.0037644047
0.0037644699
0.0037645353
0.0037646009
0.0037646667
0.0037647327
0.0037647989
0.0037648653
0.0037649319
0.0037649987
0.0037650657
0.0037651328
0.0037652002
0.0037652677
0.0037653354
0.0037654033
0.0037654714
0.0037655396
0.0037656081
0.0037656767
0.0037657454
0.0037658143
0.0037658834
0.0037659527
0.0037660221
0.0037660917
0.0037661614
0.0037662312
0.0037663012
0.0037663714
0.0037664417
0.0037665121
0.0037665826
0.0037666533
0.0037667241
0.003766795
0.003766866
0.0037669372
0.0037670084
0.0037670798
0.0037671512
0.0037672228
0.0037672944
0.0037673661
0.0037674379
0.0037675097
0.0037675817
0.0037676536
0.0037677257
0.0037677977
0.0037678698
0.003767942
0.0037680142
0.0037680863
0.0037681585
0.0037682307
0.0037683029
0.0037683751
0.0037684472
0.0037685193
0.0037685914
0.0037686634
0.0037687354
0.0037688072
0.003768879
0.0037689507
0.0037690223
0.0037690937
0.003769165
0.0037692362
0.0037693071
0.0037693779
0.0037694485
0.0037695189
0.0037695891
0.003769659
0.0037697286
0.003769798
0.003769867
0.0037699357
0.0037700041
0.003770072
0.0037701396
0.0037702068
0.0037702735
0.0037703397
0.0037704055
0.0037704707
0.0037705353
0.0037705994
0.0037706628
0.0037707256
0.0037707876
0.003770849
0.0037709095
0.0037709693
0.0037710281
0.0037710861
0.0037711432
0.0037711992
0.0037712542
0.0037713081
0.0037713608
0.0037714123
0.0037714626
0.0037715115
0.0037715591
0.0037716051
0.0037716497
0.0037716926
0.0037717339
0.0037717734
0.0037718111
0.0037718469
0.0037718806
0.0037719123
0.0037719417
0.0037719689
0.0037719937
0.0037720159
0.0037720356
0.0037720525
0.0037720665
0.0037720776
0.0037720856
0.0037720903
0.0037720917
0.0037720894
0.003772083
0.0037720722
0.003772057
0.0037720375
0.0037720134
0.0037719844
0.0037719505
0.0037719112
0.0037718666
0.0037718162
0.00377176
0.0037716975
0.0037716286
0.0037715529
0.0037714702
0.0037713802
0.0037712825
0.0037711768
0.0037710627
0.00377094
0.0037708082
0.0037706669
0.0037705157
0.0037703543
0.0037701821
0.0037699986
0.0037698035
0.0037695962
0.0037693762
0.0037691429
0.0037688957
0.0037686342
0.0037683576
0.0037680653
0.0037677567
0.003767431
0.0037670876
0.0037667257
0.0037663445
0.0037659431
0.0037655208
0.0037650767
0.0037646098
0.0037641191
0.0037636038
0.0037630627
0.0037624948
0.0037618989
0.0037612739
0.0037606186
0.0037599317
0.0037592118
0.0037584577
0.0037576679
0.0037568409
0.0037559751
0.003755069
0.003754121
0.0037531291
0.0037520918
0.003751007
0.0037498729
0.0037486873
0.0037474483
0.0037461536
0.0037448009
0.0037433878
0.0037419119
0.0037403707
0.0037387614
0.0037370813
0.0037353274
0.0037334969
0.0037315866
0.0037295933
0.0037275135
0.0037253439
0.0037230807
0.0037207202
0.0037182584
0.0037156914
0.0037130148
0.0037102243
0.0037073152
0.0037042829
0.0037011224
0.0036978285
0.0036943959
0.0036908191
0.0036870923
0.0036832096
0.0036791648
0.0036749513
0.0036705626
0.0036659916
0.0036612311
0.0036562737
0.0036511115
0.0036457364
0.0036401401
0.0036343138
0.0036282485
0.0036219347
0.0036153627
0.0036085224
0.0036014032
0.0035939943
0.0035862842
0.0035782612
0.0035699131
0.0035612272
0.0035521904
0.003542789
0.0035330087
0.003522835
0.0035122525
0.0035012454
0.0034897973
0.003477891
0.0034655089
0.0034526327
0.0034392433
0.0034253209
0.003410845
0.0033957943
0.0033801469
0.0033638798
0.0033469692
0.0033293906
0.0033111185
0.0032921263
0.0032723867
0.0032518711
0.00323055
0.0032083928
0.0031853677
0.0031614419
0.0031365813
0.0031107504
0.0030839126
0.0030560299
0.0030270629
0.0029969708
0.0029657112
0.0029332402
0.0028995124
0.0028644807
0.0028280962
0.0027903083
0.0027510646
0.0027103108
0.0026679905
0.0026240455
0.0025784153
0.0025310374
0.0024818468
0.0024307764
0.0023777567
0.0023227155
0.0022655782
0.0022062675
0.0021447034
0.0020808029
0.0020144802
0.0019456464
0.0018742094
0.001800074
0.0017231416
0.00164331
0.0015604736
0.0014745231
0.0013853454
0.0012928235
0.0011968363
0.0010972588
0.00099396156
0.00088681093
0.00077566877
0.00066039237
0.0005408343
0.00041684222
0.00028825869
0.00015492077
1.6659525e-05
-0.00012670099
-0.00027534592
-0.00042947775
-0.0005897969
-0.00075607652
-0.0009285821
-0.0011069246
-0.0012919389
-0.0014837761
-0.0016825725
-0.0018886037
-0.0021021341
-0.0023234312
-0.0025527559
-0.0027903847
-0.0030366055
-0.0032917131
-0.0035560121
-0.0038298173
-0.0041134539
-0.0044072576
-0.0047115747
-0.0050267626
-0.0053531901
-0.0056912376
-0.0060412975
-0.0064037741
-0.0067790846
-0.0071676586
-0.0075699392
-0.0079863828
-0.0084174594
-0.0088636534
-0.0093254633
-0.0098034025
-0.010297999
-0.010809798
-0.011339358
-0.011887255
-0.012454081
-0.013040446
-0.013646976
-0.014274314
-0.014923122
-0.015594079
-0.016287885
-0.017005257
-0.01774693
-0.018513661
-0.019306226
-0.02012542
-0.02097206
-0.021846983
-0.022751048
-0.023685133
-0.024650139
-0.025646989
-0.026676629
-0.027740023
-0.028838163
-0.029972058
-0.031142744
-0.032351278
-0.033598739
-0.03488623
-0.036214875
-0.037585825
-0.039000249
-0.040459341
-0.041964318
-0.043516418
-0.045116901
-0.04676705
-0.048468168
-0.050221582
-0.052028635
-0.053890693
-0.055809142
-0.057785385
-0.059820843
-0.061916957
-0.064075182
-0.066296987
-0.06858386
-0.070937298
-0.073358812
-0.075849923
-0.078412162
-0.081047068
-0.083756184
-0.08654106
-0.089403248
-0.092344299
-0.095365764
-0.098469192
-0.10165612
-0.10492809
-0.10828662
-0.11173322
-0.11526938
-0.11889657
-0.12261626
-0.12642986
-0.13033878
-0.13434438
-0.13844801
-0.14265095
-0.14695445
-0.15135973
-0.15586795
-0.1604802
-0.16519755
-0.17002098
-0.1749514
-0.17998969
-0.18513662
-0.19039289
-0.19575914
-0.2012359
-0.20682362
-0.21252267
-0.21833329
-0.22425567
-0.23028985
-0.23643578
-0.2426933
-0.24906214
-0.25554189
-0.26213206
-0.26883199
-0.27564092
-0.28255795
-0.28958208
-0.29671212
-0.3039468
-0.31128469
-0.31872422
-0.3262637
-0.33390128
-0.341635
-0.34946273
-0.35738223
-0.36539113
-0.3734869
-0.3816669
-0.38992836
-0.39826837
-0.40668391
-0.41517184
-0.42372889
-0.43235171
-0.44103682
-0.44978064
-0.4585795
-0.46742964
-0.47632722
-0.4852683
-0.49424891
-0.50326497
-0.51231238
-0.52138697
-0.53048453
-0.53960082
-0.54873157
-0.55787247
-0.56701922
-0.5761675
-0.58531303
-0.5944515
-0.60357865
-0.61269023
-0.62178204
-0.6308499
-0.6398897
-0.64889738
-0.65786893
-0.66680043
-0.67568802
-0.68452792
-0.69331644
-0.70205
-0.7107251
-0.71933833
-0.72788641
-0.73636617
-0.74477452
-0.75310853
-0.76136537
-0.76954232
-0.77763681
-0.78564639
-0.79356871
-0.80140158
-0.80914293
-0.81679082
-0.82434344
-0.83179909
-0.83915624
-0.84641345
-0.85356942
-0.86062299
-0.86757309
-0.8744188
-0.88115932
-0.88779394
-0.89432209
-0.90074332
-0.90705725
-0.91326365
-0.91936236
-0.92535335
-0.93123666
-0.93701243
-0.9426809
-0.9482424
-0.95369733
-0.95904616
-0.96428946
-0.96942787
-0.97446207
-0.97939284
-0.98422101
-0.98894746
-0.99357314
-0.99809902
-1.0025262
-1.0068556
-1.0110886
-1.0152262
-1.0192696
-1.0232201
-1.0270789
-1.0308473
-1.0345266
-1.0381182
-1.0416235
-1.0450437
-1.0483802
-1.0516346
-1.0548081
-1.0579022
-1.0609183
-1.0638577
-1.0667221
-1.0695127
-1.072231
-1.0748783
-1.0774562
-1.079966
-1.0824091
-1.084787
-1.0871009
-1.0893523
-1.0915424
-1.0936728
-1.0957446
-1.0977593
-1.0997181
-1.1016222
-1.1034731
-1.1052719
-1.1070198
-1.1087181
-1.110368
-1.1119707
-1.1135273
-1.1150389
-1.1165068
-1.117932
-1.1193155
-1.1206585
-1.121962
-1.1232271
-1.1244546
-1.1256457
-1.1268013
-1.1279223
-1.1290097
-1.1300643
-1.1310871
-1.1320789
-1.1330406
-1.133973
-1.1348769
-1.1357532
-1.1366025
-1.1374257
-1.1382234
-1.1389965
-1.1397456
-1.1404713
-1.1411745
-1.1418556
-1.1425155
-1.1431546
-1.1437735
-1.144373
-1.1449535
-1.1455156
-1.1460599
-1.1465868
-1.147097
-1.1475908
-1.1480689
-1.1485316
-1.1489794
-1.1494128
-1.1498323
-1.1502381
-1.1506309
-1.1510108
-1.1513785
-1.1517341
-1.1520782
-1.152411
-1.1527329
-1.1530442
-1.1533453
-1.1536365
-1.1539181
-1.1541904
-1.1544537
-1.1547083
-1.1549543
-1.1551923
-1.1554222
-1.1556445
-1.1558594
-1.156067
-1.1562677
-1.1564616
-1.156649
-1.1568301
-1.157005
-1.1571741
-1.1573373
-1.157495
-1.1576474
-1.1577945
-1.1579366
-1.1580738
-1.1582063
-1.1583342
-1.1584577
-1.1585769
-1.158692
-1.158803
-1.1589102
-1.1590136
-1.1591134
-1.1592097
-1.1593026
-1.1593922
-1.1594786
-1.1595619
-1.1596422
-1.1597197
-1.1597943
-1.1598663
-1.1599356
-1.1600024
-1.1600667
-1.1601286
-1.1601883
-1.1602457
-1.160301
-1.1603541
-1.1604053
-1.1604544
-1.1605017
-1.1605472
-1.1605908
-1.1606327
-1.160673
-1.1607116
-1.1607486
-1.1607841
-1.1608182
-1.1608507
-1.1608819
-1.1609118
-1.1609403
-1.1609675
-1.1609935
-1.1610183
-1.1610418
-1.1610643
-1.1610856
-1.1611059
-1.1611251
-1.1611432
-1.1611604
-1.1611765
-1.1611917
-1.161206
-1.1612193
-1.1612318
-1.1612434
-1.1612541
-1.1612639
-1.161273
-1.1612812
-1.1612886
-1.1612953
-1.1613011
-1.1613062
-1.1613106
-1.1613142
-1.1613171
-1.1613193
-1.1613208
-1.1613217
-1.1613218
-1.1613212
-1.16132
-1.1613181
-1.1613155
-1.1613122
-1.1613082
-1.1613036
-1.1612983
-1.1612924
-1.1612857
-1.1612784
-1.1612705
-1.1612618
-1.1612525
-1.1612426
-1.1612319
-1.1612206
-1.1612086
-1.1611959
-1.1611825
-1.1611684
-1.1611536
-1.1611381
-1.1611218
-1.1611049
-1.1610872
-1.1610688
-1.1610496
-1.1610297
-1.161009
-1.1609875
-1.1609652
-1.1609422
-1.1609183
-1.1608936
-1.160868
-1.1608416
-1.1608144