/*--------------------------------*- C++ -*----------------------------------*\
  =========                 |
  \\      /  F ield         | OpenFOAM: The Open Source CFD Toolbox
   \\    /   O peration     | Website:  https://openfoam.org
    \\  /    A nd           | Version:  7
     \\/     M anipulation  |
\*---------------------------------------------------------------------------*/
FoamFile
{
    version     2.0;
    format      ascii;
    class       volScalarField;
    location    "0.00305";
    object      Uz;
}
// * * * * * * * * * * * * * * * * * * * * * * * * * * * * * * * * * * * * * //

dimensions      [0 1 -1 0 0 0 0];

internalField   nonuniform List<scalar> 
5000
(
0
0
0
0
0
-9.052647e-22
-1.7694568e-36
2.6988491e-21
9.9043483e-22
-2.0866536e-21
-2.1242388e-21
1.0669659e-21
-9.0921695e-36
-9.3741893e-36
2.1222706e-21
-2.1142674e-21
-2.288975e-51
-9.2122477e-36
-1.0390056e-21
2.0660438e-21
1.0282727e-21
0
0
-1.0133944e-21
8.6883603e-36
-8.470441e-36
-1.0350925e-21
1.039804e-21
1.0426423e-21
-1.0423076e-21
1.8148785e-35
-8.8064742e-36
-1.0269453e-21
1.0218409e-21
1.0171055e-21
0
0
-1.0124303e-21
-1.0189235e-21
1.0257238e-21
-1.7253485e-35
-1.0277891e-21
1.0229089e-21
-1.7163077e-35
-1.008195e-21
1.0003297e-21
-3.4168346e-35
3.4092637e-35
-3.4529029e-35
1.7270408e-35
1.0193139e-21
0
0
0
0
0
0
0
0
0
0
0
0
-9.7407763e-22
-9.6671246e-22
9.7605381e-22
-1.7044824e-35
-1.0023689e-52
1.0020459e-21
0
0
-9.6943527e-22
-9.6189526e-22
0
9.8076781e-22
3.4257852e-35
-9.9405834e-22
-9.8677072e-22
9.7821504e-22
1.9401806e-21
-1.9259302e-21
5.4721987e-37
2.9103025e-21
-1.9589189e-21
-1.0242218e-34
1.9633125e-21
-2.9222157e-21
9.6802864e-22
9.6102111e-22
-9.5618685e-22
9.6027998e-22
9.6918359e-22
3.398364e-35
-1.9497998e-21
-6.6960776e-35
-9.6112478e-22
-9.5418544e-22
-3.3314864e-35
6.6315856e-35
1.9213636e-21
9.6618261e-22
-9.65422e-22
1.3657856e-37
9.5630504e-22
0
-9.5047731e-22
-3.322364e-35
9.5686185e-22
-9.5554178e-22
-9.5263512e-22
1.8953024e-21
9.4371157e-22
-2.8345349e-21
-9.5038757e-22
2.8600273e-21
-9.5111361e-22
-9.4704199e-22
-5.3552547e-37
-9.3831908e-22
2.8160911e-21
-6.5936557e-35
-1.8927589e-21
1.892614e-21
9.4430305e-22
-9.4174898e-22
9.3978883e-22
-9.3929891e-22
-1.8799325e-21
9.4017322e-22
3.2424446e-35
9.3734496e-22
1.8717314e-21
-9.3387265e-22
-9.3274553e-22
-9.3356661e-22
-3.2530557e-35
-3.2406076e-35
3.2581776e-35
1.8762235e-21
9.4108103e-22
-9.4410563e-22
-1.8920287e-21
-9.4550289e-22
-9.4175836e-22
6.477879e-35
1.8450353e-21
-2.5769836e-37
2.5400373e-37
-2.1677524e-50
6.9915893e-22
-5.3413612e-35
1.3512108e-34
9.4118162e-22
-8.3098501e-22
8.3581518e-22
3.1293411e-35
-9.1930043e-22
9.1449981e-22
-1.3068987e-37
-9.2780809e-22
0
9.1683464e-22
6.2846934e-35
-1.8038719e-21
9.0592392e-22
-2.6013436e-37
-9.2022703e-22
9.1717316e-22
-9.1060455e-22
9.0353657e-22
-3.738372e-34
-2.4869302e-34
9.0360934e-22
-1.8244261e-21
0
-6.3282426e-35
-1.8886518e-34
9.0340761e-22
9.0032197e-22
6.2178069e-35
-9.0597789e-22
9.0796826e-22
6.2419653e-35
3.8560349e-37
1.2499862e-34
-1.8088203e-21
9.0584084e-22
9.0376962e-22
-6.1941406e-35
6.1626431e-35
-1.8487677e-34
6.1624378e-35
-9.0155254e-22
0
0
0
0
-8.81093e-22
1.8455311e-34
8.9609006e-22
9.0302538e-22
-9.016532e-22
-8.9566262e-22
1.776595e-21
6.1012157e-35
-1.8290161e-34
-8.8853029e-22
-8.9804132e-22
9.0158019e-22
0
8.9168006e-22
6.1305989e-35
-8.8139781e-22
-8.8348295e-22
1.2406558e-34
8.9640713e-22
-1.7920854e-21
8.9161688e-22
8.8637969e-22
-8.8109171e-22
8.7943252e-22
0
0
0
8.9241502e-22
-8.8816387e-22
-1.7676157e-21
8.8061992e-22
-6.1341549e-35
8.8833381e-22
8.9214115e-22
-1.7817296e-21
2.5233834e-37
-2.5150831e-37
8.8285757e-22
8.8441166e-22
-1.7748691e-21
1.263737e-37
-1.8522379e-34
8.8766587e-22
-4.9254231e-34
-1.229533e-34
8.8677659e-22
-8.8664691e-22
0
-8.8252253e-22
8.8276982e-22
8.8611137e-22
-8.8853637e-22
0
-8.8303956e-22
8.7885024e-22
8.7567339e-22
-3.0495866e-34
-1.7698354e-21
-1.7773609e-21
2.6587073e-21
1.7643252e-21
0
-1.7493589e-21
-8.7719607e-22
8.8338858e-22
8.8752223e-22
8.8626507e-22
-1.7663996e-21
-1.7608196e-21
8.7848951e-22
1.7595695e-21
2.4495684e-34
-1.7712726e-21
8.8590684e-22
-1.2276094e-34
-8.8459146e-22
1.7687633e-21
-8.8408961e-22
1.2301095e-34
8.8209343e-22
-8.8153688e-22
8.8305528e-22
-1.7685233e-21
3.6881027e-34
1.7659141e-21
-1.760966e-21
-6.0792286e-35
8.7967361e-22
0
0
8.8334976e-22
-8.8017009e-22
-1.753039e-21
8.7485582e-22
-2.4976179e-37
8.8342004e-22
8.8483788e-22
-8.8269543e-22
0
-8.7503766e-22
-8.7423698e-22
0
1.7672323e-21
8.8478065e-22
-1.7655479e-21
6.0871083e-35
-2.4913626e-37
8.7587734e-22
8.7929662e-22
-8.8368105e-22
8.8536077e-22
-8.8402002e-22
5.0147972e-37
1.7614893e-21
-8.7947873e-22
-8.7946272e-22
-8.8100303e-22
-1.2254798e-34
8.8464009e-22
0
0
-8.7959691e-22
1.2187153e-34
-2.4378196e-34
-1.2250025e-34
8.8394729e-22
-8.8321278e-22
1.2522191e-37
8.7902945e-22
0
0
0
0
0
0
0
-8.7941166e-22
0
8.8091232e-22
0
-8.777495e-22
-2.4298594e-34
8.7755099e-22
0
0
-8.7867265e-22
-1.2151259e-34
8.7212755e-22
0
0
-8.8044428e-22
-8.7899274e-22
8.7598548e-22
8.7192751e-22
0
-8.7037054e-22
1.2444923e-37
8.7970169e-22
-8.7850228e-22
-8.7531816e-22
8.724597e-22
8.7039933e-22
0
-8.7391175e-22
-8.7635052e-22
8.7660292e-22
8.7560192e-22
0
-8.7369094e-22
-8.7300351e-22
8.7145638e-22
8.6964146e-22
0
0
0
0
0
0
0
0
-8.6788431e-22
-2.0719359e-51
8.6875391e-22
0
0
0
-8.6330508e-22
-1.2016501e-34
8.6601975e-22
-8.6390584e-22
1.1941195e-34
-1.2180233e-37
-1.1922941e-34
8.6162023e-22
-8.6276778e-22
8.6106671e-22
-4.7581839e-34
-8.5198596e-22
8.5189964e-22
0
0
-8.5876211e-22
-1.1864696e-34
8.4834096e-22
-8.4370932e-22
-8.4653914e-22
0
8.5899755e-22
8.5518487e-22
-8.4916093e-22
-2.337603e-34
-9.2848221e-52
-1.1671366e-34
8.4947639e-22
-8.5393656e-22
-5.3328331e-51
-1.1740111e-34
-8.3883052e-22
0
0
8.4202555e-22
1.2045263e-37
-3.526157e-34
8.4305347e-22
0
0
-8.3030486e-22
2.3129172e-34
8.4055777e-22
0
0
0
-8.3093958e-22
1.1757102e-37
8.283039e-22
-8.3308499e-22
8.3589966e-22
-2.3185522e-34
-1.6616407e-21
8.2688405e-22
3.4308267e-34
1.1439659e-34
-1.1484509e-34
-8.2960806e-22
0
0
8.2232521e-22
1.1384421e-34
-2.2779321e-34
4.5692189e-53
-8.2216975e-22
8.2070373e-22
8.1789027e-22
0
-8.1543526e-22
-1.1333495e-34
8.1658846e-22
0
0
-8.106698e-22
2.3031628e-37
4.3344108e-53
-8.1037198e-22
8.0920925e-22
-1.1168695e-34
1.1151304e-34
-2.229656e-34
-8.0496906e-22
8.053798e-22
-2.2304802e-34
2.2203849e-34
-2.2086839e-34
-7.9338894e-22
7.9676829e-22
-2.2199309e-34
1.1111056e-34
0
-7.906676e-22
7.8634564e-22
-1.0912087e-34
1.1229438e-37
-1.1012112e-34
1.1009072e-34
7.8925276e-22
-7.8523302e-22
-7.8200181e-22
7.8201704e-22
7.8444345e-22
0
-7.8534632e-22
-7.828669e-22
0
7.7891565e-22
-1.0816787e-34
1.108073e-37
1.0805678e-34
-7.7675542e-22
7.7453102e-22
1.0734492e-34
-2.1497477e-34
-7.7411859e-22
-7.727592e-22
1.539063e-21
-1.0891045e-37
1.0620189e-34
7.6816655e-22
-7.7016882e-22
1.0667086e-34
7.6495949e-22
0
0
0
-7.6269077e-22
-7.6353914e-22
7.6132564e-22
7.5711575e-22
0
-7.5172664e-22
-7.5547845e-22
7.5828414e-22
7.5754613e-22
0
-7.5060914e-22
-7.4693769e-22
7.4728883e-22
2.0868796e-34
-7.5472851e-22
0
0
0
0
7.444063e-22
-2.0730734e-34
-7.4888018e-22
7.4761827e-22
1.0336102e-34
-1.0303329e-34
-8.3426262e-53
7.4308751e-22
7.4587942e-22
-1.489681e-21
-1.0303659e-34
1.0247251e-34
-7.3619928e-22
0
7.4060217e-22
7.4157323e-22
-7.4008725e-22
-2.0429235e-34
7.3302337e-22
0
0
-7.3961353e-22
1.0246471e-34
7.3638559e-22
0
-7.2997639e-22
1.0395951e-37
-2.0410763e-34
-1.0223586e-34
7.3597017e-22
-7.3273368e-22
1.0364054e-37
-2.0221045e-34
-7.3197193e-22
7.3500983e-22
2.0403799e-34
1.0416676e-37
-1.0122518e-34
-7.2589264e-22
7.2728811e-22
0
-4.0866982e-34
-1.0184989e-34
-3.0425072e-34
-1.0333342e-37
-7.2406042e-22
7.2672384e-22
-1.2670436e-52
-1.0203083e-34
2.0367066e-34
-1.0139847e-34
1.4531352e-21
-7.2463399e-22
-7.2850606e-22
-1.0169851e-34
1.0184872e-34
1.4649296e-21
-7.2858984e-22
-7.2528996e-22
-1.5485774e-52
0
1.2212976e-52
-7.3418349e-22
7.3061223e-22
-1.0981614e-52
-1.0005371e-34
-1.0316855e-37
-7.3407361e-22
1.475796e-21
2.0394035e-34
-7.292657e-22
1.0007412e-34
-9.9428775e-35
7.2382054e-22
-7.3622596e-22
-7.3750784e-52
-3.0678259e-34
2.0268462e-34
-1.9930809e-34
-1.9728371e-34
-3.7548725e-52
0
7.4358174e-22
0
0
-7.2897777e-22
-1.9884958e-34
7.0809225e-22
0
0
-1.483399e-21
-6.2162076e-34
1.4915201e-21
-7.4168375e-22
1.048777e-37
-1.0207803e-34
-7.3200519e-22
0
0
0
-7.4407026e-22
-2.0724696e-34
7.4667518e-22
0
0
-7.4218371e-22
1.0539829e-37
7.4285235e-22
0
0
-7.4349144e-22
-2.0582843e-34
-2.0667568e-34
2.0750652e-34
7.4851259e-22
-7.4582283e-22
2.056999e-34
-2.0388036e-34
2.0292697e-34
7.3795575e-22
0
0
-7.4731564e-22
-1.1667519e-50
7.2323657e-22
0
0
-7.4026552e-22
5.3373343e-52
7.5797088e-22
0
0
-7.4305975e-22
5.2603946e-52
7.3145489e-22
0
0
-7.4879361e-22
1.0705413e-37
7.5456989e-22
-7.5407035e-22
2.0931829e-34
-2.0950882e-34
2.0917097e-34
7.5031536e-22
0
0
0
0
0
-7.5445746e-22
2.1011083e-34
7.5246069e-22
0
0
0
0
0
0
0
-7.5139738e-22
4.1555672e-34
7.4551627e-22
0
0
0
0
0
0
0
-7.4874403e-22
2.0777003e-34
7.5000735e-22
0
0
-7.5274302e-22
2.0870814e-34
7.5003901e-22
0
0
0
-7.4722443e-22
-2.073072e-34
7.4548513e-22
0
0
0
0
0
0
0
-7.4288979e-22
1.0558684e-37
7.4304308e-22
0
0
0
0
0
0
0
-7.4165402e-22
-1.0535509e-37
7.4104737e-22
0
0
0
-7.3927386e-22
4.1020404e-34
7.3836366e-22
0
-7.3758136e-22
-2.0483294e-34
7.3697584e-22
0
0
-7.3604555e-22
-7.357468e-22
7.3544812e-22
7.3514924e-22
0
0
0
0
7.3367754e-22
-1.0422105e-37
-1.4662143e-21
-7.3282716e-22
1.4651015e-21
1.4645578e-21
-7.3201238e-22
-7.3175199e-22
0
0
0
0
-7.2990908e-22
-2.0255688e-34
7.2804979e-22
0
0
0
0
0
0
0
0
0
0
0
0
0
0
-7.1814672e-22
3.9875004e-34
7.1785364e-22
0
0
7.1729242e-22
-1.9911959e-34
1.0187197e-37
-7.166226e-22
-7.1637128e-22
-3.975887e-34
1.9886811e-34
7.154792e-22
0
0
0
0
0
-7.1210346e-22
3.9510088e-34
7.1119351e-22
0
0
0
0
0
0
0
-7.086177e-22
3.9311349e-34
7.0781863e-22
0
0
0
0
0
0
0
-7.0552379e-22
5.8732823e-34
7.0504388e-22
0
0
0
0
0
0
0
0
-7.0305588e-22
9.9880233e-38
7.0263396e-22
0
0
0
0
-7.0156559e-22
7.0134482e-22
7.011206e-22
-1.4017854e-21
-1.9455948e-34
7.0042318e-22
0
0
0
0
-6.9907772e-22
1.9392612e-34
1.3966497e-21
-6.9784471e-22
-6.9728155e-22
6.9664095e-22
0
0
0
-6.9406332e-22
-1.9241279e-34
6.9327529e-22
6.9297504e-22
-6.9270786e-22
-6.9240943e-22
6.9208913e-22
0
0
-6.9109492e-22
-6.9073758e-22
6.9035964e-22
6.899637e-22
6.8955238e-22
3.8271701e-34
-6.8871693e-22
0
0
0
-6.8715119e-22
-6.8677057e-22
6.8638373e-22
6.8599681e-22
6.8560952e-22
1.9017442e-34
-6.8482462e-22
0
0
0
-6.8319754e-22
1.8949604e-34
6.8234533e-22
0
0
0
0
0
0
0
-6.7851261e-22
1.8814975e-34
1.3545783e-21
1.8787794e-34
-6.7584931e-22
0
0
-6.7345653e-22
9.5597006e-38
-1.8660347e-34
1.8632746e-34
6.7070769e-22
6.7002255e-22
-1.8585281e-34
-6.6858049e-22
0
0
-6.6668376e-22
5.5472925e-34
1.8472713e-34
-9.4506251e-38
6.6446395e-22
-6.6390307e-22
-6.6333938e-22
1.3255466e-21
-3.6738693e-34
-6.6163962e-22
6.6107124e-22
0
-6.5993409e-22
-1.8318602e-34
6.587942e-22
0
-6.5765318e-22
6.5708125e-22
-7.2901197e-34
-6.5593768e-22
6.5536538e-22
0
-6.5421743e-22
0
6.5305267e-22
0
-6.5183873e-22
6.512066e-22
-3.609219e-34
-6.4988263e-22
6.4919724e-22
0
-6.478336e-22
-1.7970881e-34
6.4655844e-22
0
-6.4544095e-22
6.4493092e-22
-1.8316295e-37
-6.4397928e-22
6.435298e-22
0
-6.426441e-22
-6.4221218e-22
6.4179104e-22
6.413799e-22
-6.4097862e-22
6.4058716e-22
6.4020642e-22
-6.3983665e-22
0
0
0
0
0
0
-6.3754946e-22
-1.3482845e-53
1.2739772e-21
-6.3672285e-22
-6.3646836e-22
6.3622599e-22
0
0
-6.355715e-22
-6.3537805e-22
6.3519789e-22
6.3503076e-22
0
-6.347363e-22
-1.7630867e-34
6.3449667e-22
0
0
-6.3423377e-22
-6.3416944e-22
6.3411478e-22
6.3406854e-22
0
-6.3400012e-22
1.7604311e-34
6.339679e-22
-6.3397332e-22
-3.5209858e-34
-9.0104951e-38
-6.3415135e-22
6.34261e-22
6.3439309e-22
0
0
-6.349333e-22
1.7627495e-34
6.353561e-22
0
-6.3582028e-22
-6.3607439e-22
6.3634486e-22
6.3662679e-22
0
0
0
0
0
0
-6.3891569e-22
1.7742659e-34
6.3966997e-22
0
0
0
0
0
0
-6.4259117e-22
2.1015258e-53
6.4348362e-22
6.4393605e-22
1.7875137e-34
-6.4484508e-22
0
0
0
0
-6.4719303e-22
-1.7975763e-34
6.4818443e-22
-6.486866e-22
-6.4919226e-22
6.4969938e-22
-3.6091425e-34
-5.418859e-34
-5.4212228e-34
1.8106367e-34
-3.6222142e-34
1.8115672e-34
6.5322413e-22
0
-6.5420613e-22
5.4510493e-34
-9.3105527e-38
-6.5564918e-22
6.5612255e-22
6.565913e-22
-6.5705522e-22
1.8248513e-34
-5.4764605e-34
-3.65564e-34
-3.6552797e-34
1.8288427e-34
-3.6619177e-34
-6.6013077e-22
6.6053725e-22
6.6093321e-22
-6.6131807e-22
1.8355041e-34
-7.3497778e-34
-1.8384063e-34
1.8402706e-34
1.8392686e-34
1.8410515e-34
-6.6363867e-22
0
6.6416193e-22
-1.8439544e-34
4.0648035e-53
6.6482033e-22
0
-6.6517714e-22
6.6533117e-22
6.6546936e-22
-6.6559201e-22
0
0
0
0
-6.6596454e-22
1.8483753e-34
-3.6977444e-34
6.6599008e-22
6.6596419e-22
-6.6592075e-22
0
0
0
0
-6.6543552e-22
-9.4542412e-38
6.6511163e-22
0
0
0
0
0
0
0
-6.6303905e-22
-6.6269127e-22
6.6232369e-22
6.6193631e-22
0
0
0
0
0
0
-6.5866263e-22
-6.5811385e-22
6.5754448e-22
6.5695457e-22
0
0
0
0
0
0
-6.5219137e-22
-6.5142221e-22
6.506458e-22
6.4986878e-22
0
0
0
0
0
0
-6.4431546e-22
3.5727438e-34
6.4264474e-22
0
0
0
0
0
0
-6.3651888e-22
1.7649627e-34
6.3469358e-22
0
0
0
0
-6.2999923e-22
-8.9391662e-38
6.2806701e-22
-6.2708539e-22
-4.8228488e-53
6.2508084e-22
-6.2405828e-22
3.460084e-34
6.2202376e-22
-6.2103617e-22
-3.4427383e-34
-3.4374607e-34
-7.2068149e-52
-3.4261853e-34
-1.7096387e-34
6.153956e-22
-6.1448496e-22
-6.1358645e-22
1.2254e-21
-3.3943609e-34
-1.2219304e-21
0
6.0928514e-22
-1.6895909e-34
-1.6882229e-34
-5.0520601e-34
-5.046489e-34
-3.3584034e-34
5.034018e-34
-3.351135e-34
1.6757482e-34
6.0248291e-22
0
-6.0115522e-22
-8.5338771e-38
-4.9939945e-34
-4.9898501e-34
8.5082984e-38
3.3202211e-34
-1.6594537e-34
-5.9709063e-22
0
5.961064e-22
-3.3062846e-34
-8.4583938e-38
5.9479023e-22
0
-5.9402613e-22
5.9367969e-22
5.9335817e-22
-5.9306194e-22
0
0
-5.9232958e-22
6.5744863e-34
-3.2842336e-34
3.2860019e-34
-1.6439604e-34
5.9164988e-22
5.9159632e-22
-5.9157007e-22
0
0
0
0
-5.9184737e-22
-1.6438186e-34
-6.5737054e-34
5.9233321e-22
5.9254471e-22
-5.9278101e-22
0
0
0
0
-5.9436975e-22
-5.9476564e-22
5.951869e-22
5.9563332e-22
0
0
0
0
0
0
-5.9942302e-22
-6.0005354e-22
6.0070442e-22
6.0137511e-22
0
0
0
0
0
0
-6.0656363e-22
5.057886e-34
1.216368e-21
-6.0901394e-22
-6.0985607e-22
6.1070966e-22
0
1.2248984e-21
-6.8106705e-34
-2.0454766e-33
-6.1512627e-22
-1.2320681e-21
1.2338959e-21
-6.1786745e-22
-6.1879194e-22
6.1972037e-22
-6.2065197e-22
8.8332699e-38
6.2252214e-22
6.2345902e-22
-6.2439583e-22
-6.2533232e-22
6.2626763e-22
-6.2720108e-22
-8.9262895e-38
6.2905885e-22
0
0
0
1.2654439e-21
-6.3362262e-22
-1.2690336e-21
6.3540341e-22
-6.3628097e-22
-6.3714959e-22
1.2760187e-21
-3.2409901e-52
-6.3969859e-22
6.4052746e-22
1.2826891e-21
6.4214939e-22
-1.9288263e-21
6.4372206e-22
-3.9251236e-51
-1.9357249e-21
1.291961e-21
6.4670495e-22
6.4741432e-22
1.2962172e-21
-1.2975742e-21
-6.4944984e-22
-6.5009643e-22
6.5072667e-22
6.5134052e-22
-1.9558109e-21
6.5251596e-22
6.5307774e-22
-6.5362216e-22
-6.5414919e-22
-9.3032506e-38
1.9654468e-21
-6.5562177e-22
1.0923297e-33
-1.0934288e-33
-1.9707892e-21
6.5732868e-22
6.5770913e-22
1.3161404e-21
-6.5841222e-22
-1.3174749e-21
1.3180919e-21
-6.5933761e-22
6.5961295e-22
6.5987184e-22
-1.9803425e-21
6.6034094e-22
6.6055212e-22
-1.3214953e-21
-6.6092812e-22
6.6109355e-22
1.9837329e-21
-6.6138034e-22
-2.6460076e-21
3.6724348e-34
1.3234056e-21
6.61782e-22
0
1.3237985e-21
1.4695143e-33
-1.9858873e-21
6.6197364e-22
-1.4697788e-33
6.6195744e-22
6.6192978e-22
-1.3237793e-21
0
0
0
-6.6160822e-22
3.6728165e-34
1.322796e-21
-6.6127653e-22
-1.3222886e-21
1.9830047e-21
-2.2009289e-33
-1.3213741e-21
6.6051561e-22
0
0
0
1.3194823e-21
-6.5952755e-22
-1.3186125e-21
1.9772328e-21
-1.8725417e-37
-1.3171997e-21
0
0
-6.5783546e-22
3.6509435e-34
1.3145957e-21
-6.5702116e-22
-1.3134796e-21
1.9693616e-21
-1.092475e-33
-1.3117364e-21
6.5556919e-22
-6.5526662e-22
1.3099208e-21
6.5465051e-22
-2.1790561e-33
-6.5402137e-22
-1.3074041e-21
1.9601394e-21
-3.7121882e-37
-6.5272775e-22
3.6213043e-34
-6.5206589e-22
-6.5173139e-22
3.6157356e-34
1.9531686e-21
-1.8494458e-37
-1.9511219e-21
1.3000604e-21
7.9953773e-52
-1.2986759e-21
6.4898969e-22
-6.4864027e-22
1.2965788e-21
6.479374e-22
-1.4380181e-33
-6.4723021e-22
-1.2937507e-21
-6.4651979e-22
-6.4616348e-22
1.9374197e-21
0
-6.4509103e-22
-3.5787527e-34
3.5767557e-34
-3.5738424e-34
6.4365184e-22
-7.1414999e-34
6.4292765e-22
-2.1400316e-33
-1.9265987e-21
1.2836677e-21
1.9244002e-21
6.4109798e-22
-1.9221841e-21
-1.2807119e-21
1.9199452e-21
-6.3960549e-22
-1.9176807e-21
0
0
6.3807675e-22
6.3768827e-22
0
-6.3690175e-22
-6.3650389e-22
1.2722058e-21
-1.4114442e-33
-1.9058722e-21
7.0481257e-34
6.3446401e-22
6.3404513e-22
6.336232e-22
-6.3319762e-22
-6.3276862e-22
6.3233573e-22
1.8956979e-21
-6.3145982e-22
-2.524068e-21
6.30571e-22
1.2602442e-21
6.296703e-22
0
-6.287601e-22
0
-6.2784142e-22
6.2737934e-22
-1.391944e-33
6.2645116e-22
-2.084815e-33
-1.8765523e-21
6.2504872e-22
6.2457865e-22
-6.2410768e-22
-6.2363549e-22
6.2316195e-22
1.8680614e-21
-6.2221074e-22
-2.486933e-21
1.0347066e-33
6.2077387e-22
1.2405841e-21
6.198084e-22
-1.2386467e-21
-3.4350133e-34
-8.7872563e-38
6.1785809e-22
-1.370741e-33
-6.1687355e-22
1.8491377e-21
-6.8372411e-34
-1.2307722e-21
0
0
-6.1388867e-22
3.40477e-34
1.2257739e-21
-6.1238551e-22
-1.2237688e-21
-6.1138379e-22
6.7799977e-34
1.8311524e-21
6.0988642e-22
-6.0938967e-22
1.217789e-21
-3.4583623e-37
-2.0247911e-33
-6.0742089e-22
-1.2138677e-21
1.8193471e-21
-6.7288765e-34
-1.2109758e-21
0
0
1.2081377e-21
-1.3401812e-33
-6.6940613e-34
-1.7129255e-37
-1.8066845e-21
-1.2035576e-21
1.0015294e-33
1.8026852e-21
6.0046143e-22
-6.0003396e-22
1.1992263e-21
6.6503131e-34
-1.9940781e-33
-5.983914e-22
-1.1959989e-21
1.7928464e-21
-5.9723931e-22
-5.9687191e-22
5.9651341e-22
-5.9616374e-22
1.1916467e-21
-6.6108724e-34
-5.9517098e-22
-8.4534536e-38
-1.1891144e-21
1.1885314e-21
-9.8895043e-34
-1.1874264e-21
5.9345257e-22
0
-5.9296253e-22
-3.2892777e-34
1.7775451e-21
-5.9230768e-22
-1.1842209e-21
-5.9192366e-22
-5.9174825e-22
5.9158296e-22
5.9142918e-22
5.9128563e-22
-5.9115128e-22
3.2806526e-34
-3.2791802e-34
5.9081233e-22
-6.5595782e-34
5.9063676e-22
-1.9668438e-33
-1.7714981e-21
1.1808894e-21
1.656896e-53
-5.9036424e-22
-6.5527646e-34
3.2775331e-34
1.7709095e-21
-5.9030202e-22
-1.7709244e-21
0
0
5.9035891e-22
5.9039322e-22
1.1808661e-21
-5.9047591e-22
-1.1810443e-21
1.1811505e-21
-5.9063104e-22
-1.7720862e-21
5.9076418e-22
5.9082853e-22
5.9089659e-22
5.9096964e-22
-1.1820874e-21
-5.9111913e-22
5.911923e-22
1.7737858e-21
-5.9133482e-22
3.8082992e-52
-9.8477771e-34
-1.1830815e-21
1.1831995e-21
1.183316e-21
-5.9171278e-22
-1.1835166e-21
1.1835891e-21
5.9182612e-22
-1.7755616e-21
-1.7756195e-21
5.9187982e-22
1.1837507e-21
5.918641e-22
-3.285188e-34
-1.1836221e-21
-5.91762e-22
5.9170229e-22
1.1832654e-21
-8.4064083e-38
-1.1828917e-21
1.1826558e-21
-9.8464666e-34
-1.1821044e-21
5.9088758e-22
1.1814073e-21
1.1810061e-21
0
-5.9004794e-22
-1.7693685e-21
-5.8951044e-22
5.8921092e-22
0
0
0
0
-5.8737875e-22
3.2579759e-34
1.759446e-21
-5.8599757e-22
-1.7564665e-21
-5.8495582e-22
9.7332252e-34
1.1676336e-21
5.8321217e-22
-5.8258455e-22
1.1638684e-21
5.8126271e-22
-1.9337321e-33
-5.7986032e-22
-1.1582627e-21
1.7351577e-21
-1.6417093e-37
-5.7685063e-22
8.1863729e-38
-5.7526863e-22
-5.7446401e-22
6.3684254e-34
1.7185144e-21
-1.6257774e-37
-1.7135993e-21
-1.1407612e-21
3.1598912e-34
1.1374999e-21
5.6794168e-22
-5.6713998e-22
1.1326922e-21
5.655609e-22
-1.8808328e-33
-5.6402105e-22
-1.126536e-21
1.6875813e-21
-6.2384139e-34
-5.6108272e-22
-5.6038003e-22
-5.5968996e-22
-3.1013563e-34
3.0984606e-34
1.1153889e-21
3.0912747e-34
-1.112845e-21
1.1116046e-21
-2.7737196e-33
-1.6637697e-21
1.1079934e-21
-6.1452819e-34
-1.1056672e-21
5.5226218e-22
5.5169737e-22
1.1022788e-21
-5.5058744e-22
-1.6501244e-21
0
0
0
1.6437699e-21
1.642237e-21
-1.64073e-21
-1.63925e-21
1.091867e-21
-1.5502938e-37
5.449999e-22
-1.8139124e-33
-1.6323453e-21
1.6310766e-21
-2.7145312e-33
-1.0857739e-21
-3.0105451e-34
3.0100427e-34
1.0835647e-21
-5.4144084e-22
5.4111177e-22
-1.8014023e-33
-1.6214764e-21
1.6206051e-21
5.3992471e-22
-1.1982162e-33
1.0788331e-21
-1.078365e-21
-5.3895687e-22
-5.3873345e-22
-1.6155235e-21
5.9757561e-34
5.3806111e-22
1.6135193e-21
-3.5810029e-33
-1.612159e-21
0
5.3694608e-22
1.0734623e-21
-5.36506e-22
5.3627271e-22
-1.7852753e-33
-1.0716612e-21
1.6068605e-21
-1.1885972e-33
-5.9441779e-34
-5.9385419e-34
-5.9361224e-34
5.3449923e-22
-1.6027973e-21
-1.6020279e-21
5.3375408e-22
1.0670378e-21
0
-5.3303471e-22
5.9129002e-34
-1.1822821e-33
5.9085338e-34
5.3195123e-22
-5.3164903e-22
-5.3135152e-22
1.5932421e-21
1.3687082e-51
-8.8366511e-34
5.3034146e-22
-5.8823019e-34
1.059841e-21
-1.0593605e-21
-1.0588442e-21
-5.2916866e-22
5.8710461e-34
5.2864268e-22
0
0
0
1.0548998e-21
-5.27126e-22
-1.0535895e-21
1.5793306e-21
-5.2603691e-22
-1.5767351e-21
1.5753324e-21
-1.7472541e-33
-1.0481684e-21
1.5703901e-21
1.0455902e-21
0
-1.0426374e-21
-1.7331133e-33
-5.1938529e-22
-1.036278e-21
5.1714215e-22
0
1.0058732e-21
1.4480172e-37
5.2480275e-34
-4.7247257e-22
-1.4130316e-21
1.4097552e-21
-7.8099159e-34
-1.3281206e-21
1.3720148e-21
-2.2785865e-33
-9.1415208e-22
4.6903447e-22
-4.8263675e-22
9.8257855e-22
4.8987716e-22
-2.1311873e-33
-4.7262095e-22
-9.5610985e-22
-4.8404191e-22
-4.7625098e-22
9.3462234e-22
4.6901714e-22
0
-4.6452446e-22
2.546161e-34
5.009004e-52
4.5917932e-22
-1.2773022e-37
4.4017188e-22
6.2763265e-51
-1.3421841e-21
1.3149979e-21
1.2779338e-21
-8.5120961e-22
-8.5865231e-22
0
8.2563671e-22
-4.0475076e-22
-1.2166699e-21
1.224296e-21
-6.6830825e-34
-7.7670702e-22
3.7889496e-22
0
-3.7749505e-22
-3.733424e-22
3.643546e-22
-5.9543816e-34
7.0905563e-22
1.9763565e-37
-1.0076817e-21
0
9.6352926e-22
6.3921063e-22
-9.3865463e-22
-6.045137e-22
8.7587657e-22
2.844647e-22
-1.1092563e-21
-2.6872022e-22
5.1852222e-22
4.9829882e-22
-2.6426074e-34
-2.2670734e-22
-2.1802766e-22
-2.1062325e-22
1.9994992e-22
-2.0740768e-34
3.4835628e-22
-5.3939575e-34
-4.4505406e-22
0
0
2.1925153e-22
-2.1323041e-34
-7.8393877e-23
1.7838449e-22
-4.377918e-23
-5.3395941e-35
-6.1522785e-35
2.8400067e-24
-2.3788163e-23
2.5527163e-35
-7.2035528e-35
-8.1599398e-23
1.0025148e-22
-1.7535034e-38
8.2997626e-35
-1.9445554e-34
-1.9755046e-22
0
2.4497371e-22
-5.4965877e-22
-3.0592593e-22
6.6861753e-22
0
-3.9170896e-22
4.2686864e-22
9.2572426e-22
-1.4881458e-21
1.7555695e-33
1.8773129e-33
-6.0778439e-22
1.9613852e-21
-9.8541731e-38
-7.2802789e-22
-7.6842225e-22
8.1877869e-22
8.755338e-22
-9.3124575e-22
0
1.0287874e-21
-2.1672289e-21
1.9117757e-33
1.2128215e-21
2.8258478e-33
2.9609735e-33
3.9941191e-37
2.9610496e-21
-4.6429135e-21
-4.8442542e-21
0
3.5760243e-21
5.6293674e-21
2.7778466e-37
-2.0309137e-21
-2.1221464e-21
2.2333495e-21
2.3496481e-21
-2.4593901e-21
0
-5.3097276e-21
-5.5310171e-21
8.6980155e-21
3.0449342e-21
-3.1857153e-21
9.4100222e-37
3.4335297e-21
7.1538784e-21
3.7437699e-21
-6.5164373e-33
-1.625958e-20
1.4041483e-32
1.3176047e-20
-4.5942922e-21
-4.7986606e-21
-4.979808e-21
5.1543589e-21
5.3580171e-21
5.5934594e-21
1.6593776e-36
-6.0596053e-21
6.2646582e-21
-1.9500187e-20
-1.355274e-20
2.1216604e-20
-7.3672349e-21
-1.5276192e-20
1.5788597e-20
-8.1808852e-21
8.5103919e-21
1.7731115e-20
-2.7661182e-20
9.5558976e-21
-3.2926441e-32
-3.0730341e-20
2.1294509e-20
1.1079024e-20
1.1508927e-20
2.3836305e-20
-1.2323752e-20
1.8304557e-75
-2.650229e-20
-1.3764417e-20
1.584513e-32
1.4767506e-20
3.0546469e-20
-3.1643161e-20
1.6415491e-20
5.1107616e-20
-5.2998554e-20
-1.8298806e-20
-3.39015e-48
-1.9579082e-20
6.0778077e-20
2.0982318e-20
-2.1733924e-20
-4.4994729e-20
2.3276076e-20
-2.4088737e-20
8.3076676e-32
5.1662778e-20
-8.0188263e-20
-3.0693595e-32
1.2685213e-31
-6.5570606e-32
6.1107895e-20
-6.3204268e-20
3.2676591e-20
1.3515936e-19
-3.4950488e-20
-7.2295225e-20
0
-7.718918e-20
8.8506248e-32
2.3411228e-35
4.7255085e-32
4.3991383e-20
4.5459686e-20
-4.6974764e-20
-4.8523084e-20
1.002111e-19
-1.0347105e-19
5.9305441e-32
1.1033119e-19
-1.1392349e-19
-1.9585158e-31
6.7394936e-32
6.2671294e-20
1.2938719e-19
-6.6769034e-20
6.889696e-20
-3.9457632e-32
-7.3341214e-20
-1.5133507e-19
7.8064747e-20
1.6106829e-19
-8.3075002e-20
8.5684987e-20
-1.4717033e-31
9.1113718e-20
2.0863245e-31
-1.9370688e-19
-1.9970885e-19
-2.2854425e-31
3.5348631e-31
-3.6435952e-31
1.1273725e-19
1.1616679e-19
1.1969408e-19
-1.2333001e-19
0
0
1.3487877e-19
-7.7116462e-32
-2.0333624e-35
-1.6358367e-31
-1.5173845e-19
0
1.6088662e-19
3.313028e-19
-1.705404e-19
-3.5110542e-19
-3.6138352e-19
-3.7192928e-19
5.7413831e-19
6.5590856e-31
-6.0797088e-19
4.1704454e-19
4.2907536e-19
0
2.2702733e-19
-4.6702155e-19
-2.401604e-19
4.9396427e-19
2.5398166e-19
-2.8992962e-31
-8.0557058e-19
2.7606657e-19
8.5138862e-19
-8.7516117e-19
-2.9984497e-19
9.2451523e-19
-3.5154245e-31
-3.254409e-19
-6.6879056e-19
-3.8131763e-31
7.0593633e-19
-7.2518377e-19
3.7244872e-19
1.1476427e-18
0
-4.0348625e-19
-8.2864961e-19
2.3625767e-31
-4.3676247e-19
-8.9676689e-19
9.2056581e-19
9.4492403e-19
0
4.9766465e-19
5.6695548e-31
5.8183679e-31
5.9691088e-31
-1.6549223e-18
-1.131824e-18
0
1.1908378e-18
1.3556998e-30
6.2626336e-19
1.926611e-18
-6.58495e-19
3.7465933e-31
-9.8360824e-35
-7.0953449e-19
-1.4545889e-18
7.4543827e-19
1.5279437e-18
-7.8290197e-19
0
-1.6439551e-18
8.4213321e-19
2.5881275e-18
-8.8371479e-19
-9.0515979e-19
-1.8541025e-18
9.4939327e-19
2.9165701e-18
-9.9544834e-19
1.1312967e-30
2.0867706e-18
-1.0680796e-18
-1.0932661e-18
-2.2379039e-18
-3.4354361e-18
2.3437091e-18
2.3981731e-18
-2.4536948e-18
-1.3930424e-30
2.5679578e-18
-2.6267284e-18
-1.4912764e-30
2.7476427e-18
0
-2.8731633e-18
-2.937675e-18
0
4.6053963e-18
1.5691914e-18
4.5584781e-34
1.6391804e-18
1.6751221e-18
1.8997632e-30
-3.4978546e-18
-3.5736087e-18
6.0792212e-30
3.7290994e-18
-3.8088735e-18
-6.4777734e-30
3.9725555e-18
0
0
0
0
-4.4063816e-18
-2.497088e-30
4.5900789e-18
2.3420798e-18
-4.7797469e-18
8.1224618e-30
4.975496e-18
-5.0756784e-18
-2.8745938e-30
2.640358e-18
-5.3856003e-18
9.1471264e-30
5.600167e-18
-5.7098714e-18
-5.821205e-18
5.9341798e-18
6.0488055e-18
0
0
0
0
3.3234873e-18
-3.3858504e-18
-3.4490728e-18
3.9001362e-30
2.6045721e-73
3.6439144e-18
7.4212035e-18
3.7781663e-18
-7.6932204e-18
-1.1747809e-17
3.9861481e-18
8.1144976e-18
-1.2387719e-17
-8.4042413e-18
1.2827678e-17
8.7011169e-18
4.4261229e-18
4.9985591e-30
-9.1599195e-18
0
4.7373928e-18
-4.8174496e-18
1.0875943e-29
1.4154743e-33
1.6860714e-29
5.1466768e-18
5.2312334e-18
-1.511092e-33
-1.0806044e-17
-1.0980501e-17
1.8576914e-29
1.1334727e-17
0
0
0
6.0321583e-18
6.1255361e-18
-6.2197735e-18
-6.3148669e-18
6.4108121e-18
-1.3015205e-17
-1.9815692e-17
0
1.3605955e-17
7.661516e-30
7.0040147e-18
2.1317223e-17
-7.2082558e-18
1.2175405e-29
-1.4831272e-17
5.009763e-29
1.5252237e-17
4.2921184e-30
1.1140725e-33
-7.9474098e-18
8.0559478e-18
-1.6330393e-17
-8.2751477e-18
1.6771577e-17
-1.69942e-17
-2.4468421e-33
9.6848358e-30
8.8348573e-18
2.6846039e-17
-1.8126228e-17
1.1082763e-47
-9.293754e-18
1.5672315e-29
1.9053175e-17
-9.6437859e-18
-1.9522983e-17
1.0965147e-29
2.9995057e-17
-2.8755572e-33
-1.023702e-17
1.0356996e-17
-2.095475e-17
-1.059813e-17
2.1438461e-17
-2.1681305e-17
-1.2166795e-29
6.1530076e-29
-2.4885556e-29
2.2658672e-17
-2.2904324e-17
1.1575181e-17
2.3396742e-17
-1.1821722e-17
1.1945225e-17
-2.4137715e-17
2.0306908e-29
3.694919e-17
0
0
-3.806401e-17
-1.2811829e-17
2.5871177e-17
-2.6118551e-17
-7.4936012e-33
5.9088432e-29
1.4909043e-29
2.7105756e-17
-2.7351588e-17
-2.7596942e-17
1.3920902e-17
4.21292e-17
1.4164928e-17
-1.4286449e-17
0
0
1.4648624e-17
-8.1976117e-30
-4.4663394e-17
-4.2651504e-33
3.0250042e-17
1.5242818e-17
-1.7047567e-29
-4.6429584e-17
-3.4619872e-29
3.1415243e-17
0
1.5935995e-17
-3.2098104e-17
-1.6161291e-17
3.6134924e-29
1.6383209e-17
3.2985737e-17
-1.6601655e-17
0
0
0
0
1.7131062e-17
-9.5660909e-30
-5.2006675e-17
1.7436158e-17
5.2606723e-17
-5.2901289e-17
-1.7730716e-17
3.565289e-17
1.7920953e-17
2.9995205e-29
-5.4318478e-17
1.0343653e-32
6.0905754e-29
1.8373779e-17
3.6920447e-17
1.854524e-17
2.0675456e-29
-1.8710725e-17
-1.8791154e-17
-1.8870086e-17
-1.8947529e-17
4.22378e-29
3.8195427e-17
0
0
1.9310622e-17
3.2266504e-29
2.7631876e-33
-2.7723006e-33
-1.9570676e-17
-3.9262586e-17
-3.9380415e-17
3.949474e-17
2.1995255e-29
1.9856123e-17
5.9723025e-17
0
0
-2.0051173e-17
-2.0095133e-17
0
2.017721e-17
-1.1221095e-29
-2.025173e-17
2.0286059e-17
-4.0636693e-17
6.7770044e-29
6.1130295e-17
-2.0402915e-17
-2.0427038e-17
-4.0898309e-17
2.0469289e-17
6.1462304e-17
-2.0503541e-17
1.1391711e-29
-4.1058811e-17
-2.053914e-17
4.1093553e-17
-4.1104597e-17
2.7447511e-48
4.1113299e-17
0
0
-4.1094426e-17
2.2779014e-29
6.8387388e-29
-1.9759135e-47
6.1516338e-17
2.2749787e-29
-2.0472231e-17
-4.0904987e-17
-4.0861313e-17
4.0813487e-17
4.5251561e-29
2.0352851e-17
6.7696149e-29
-2.029099e-17
4.0514045e-17
0
2.018295e-17
-2.2355966e-29
-2.0100943e-17
-4.0114165e-17
-2.2209915e-29
3.9927209e-17
0
0
1.9808737e-17
-1.0964625e-29
-5.9088713e-17
-2.1800395e-29
3.9153089e-17
0
-1.9449475e-17
1.938326e-17
1.9315359e-17
1.9245812e-17
1.9174598e-17
-3.8203352e-17
-5.7081099e-17
1.8950719e-17
3.7745657e-17
-5.6380311e-17
-3.1552251e-47
3.7260246e-17
0
0
0
0
-3.6391004e-17
-3.6208914e-17
1.8011988e-17
5.3754363e-17
1.9796332e-29
-1.7726634e-17
3.5258307e-17
3.5060949e-17
-1.7430554e-17
-6.9317689e-17
-3.4454365e-17
5.1371795e-17
3.4039377e-17
-5.0743246e-17
-3.731431e-29
3.3401586e-17
0
0
0
-3.2525966e-17
-1.7930524e-29
3.5616172e-29
-1.592603e-17
4.7436956e-17
-1.5697942e-17
-1.5582927e-17
4.6401996e-17
3.0702395e-17
-1.5234526e-17
-3.023464e-17
-2.999926e-17
4.9570741e-29
-1.6393444e-29
4.1621443e-33
2.905013e-17
0
1.4285832e-17
1.4165869e-17
-1.4045699e-17
-1.392535e-17
1.3804868e-17
1.3684291e-17
-2.7127287e-17
-1.3442951e-17
1.3322255e-17
-1.3201592e-17
1.308099e-17
2.5920946e-17
0
0
-3.779912e-17
-1.2479801e-17
2.4720291e-17
1.2240791e-17
1.2121759e-17
-2.4006091e-17
1.320053e-29
2.3533251e-17
0
-1.1531852e-17
-3.4245535e-17
-2.5083994e-29
6.208227e-29