/*--------------------------------*- C++ -*----------------------------------*\
  =========                 |
  \\      /  F ield         | OpenFOAM: The Open Source CFD Toolbox
   \\    /   O peration     | Website:  https://openfoam.org
    \\  /    A nd           | Version:  7
     \\/     M anipulation  |
\*---------------------------------------------------------------------------*/
FoamFile
{
    version     2.0;
    format      ascii;
    class       volScalarField;
    location    "0.00177";
    object      Uy;
}
// * * * * * * * * * * * * * * * * * * * * * * * * * * * * * * * * * * * * * //

dimensions      [0 1 -1 0 0 0 0];

internalField   nonuniform List<scalar> 
5000
(
1.960541e-19
4.1100243e-19
0
0
-1.4186745e-19
1.4973678e-34
1.3183927e-19
0
0
-1.4732095e-19
-3.0555682e-19
1.5838017e-19
1.6415461e-19
-1.7009381e-19
0
-1.8254086e-19
5.1227969e-48
1.9584731e-19
0
2.1012561e-19
-2.1766583e-19
-2.2549342e-19
4.672472e-19
-2.4207207e-19
-2.5085499e-19
-2.1429041e-33
2.6949002e-19
2.7937603e-19
-5.7932875e-19
5.2076417e-33
-5.4451806e-33
3.2312624e-19
6.7041809e-19
-6.9557827e-19
6.2567854e-33
-3.2572482e-32
-1.3478688e-32
8.0700029e-19
-8.3776979e-19
-8.6979645e-19
9.031282e-19
-3.2251684e-32
-9.7390516e-19
5.057264e-19
1.5757657e-18
-5.4556647e-19
-5.6668823e-19
-4.0320298e-32
-1.2229573e-18
0
6.598671e-19
9.7413859e-35
-7.1210628e-19
1.4795048e-18
-2.6864438e-32
-1.5965415e-18
8.2921462e-19
-2.9743808e-32
-8.946581e-19
0
9.651016e-19
3.4184464e-32
2.9583287e-34
1.0808555e-18
-1.1223013e-18
4.0735695e-32
1.2097533e-18
-1.2558524e-18
-1.3035974e-18
1.3530374e-18
1.4042225e-18
-1.457204e-18
-1.5120342e-18
3.1375328e-18
1.6274552e-18
-1.6881559e-18
0
1.8158212e-18
-2.6757649e-34
-1.9522282e-18
2.0238603e-18
-5.9624776e-34
6.1797059e-34
2.2532161e-18
2.3347026e-18
8.4214945e-32
-2.5056241e-18
0
-2.6875959e-18
-2.8869596e-31
-1.0072226e-31
2.9825029e-18
3.086947e-18
-6.3891703e-18
-2.2876277e-31
3.4197455e-18
0
0
-3.783353e-18
-2.7127707e-31
8.0878443e-18
-4.1798973e-18
-8.6395503e-18
0
4.6115705e-18
4.7636553e-18
-4.9199774e-18
-5.0806221e-18
0
0
5.5893511e-18
5.7681477e-18
0
-6.1400918e-18
2.2140804e-31
6.5317627e-18
-6.7352164e-18
1.9735652e-33
-2.5022734e-31
1.0692206e-47
1.5203747e-17
-3.3390645e-33
-8.0681499e-18
0
-8.557332e-18
8.8107321e-18
9.0701211e-18
-1.8671171e-17
-9.6072117e-18
1.977017e-17
1.016929e-17
-1.0459911e-17
-1.0757031e-17
-1.1060734e-17
0
1.168821e-17
1.2012144e-17
-1.2342981e-17
-4.3970007e-31
1.3025664e-17
-1.3377661e-17
-1.3736863e-17
0
1.4477166e-17
1.48584e-17
-1.5247115e-17
1.5643375e-17
-9.1218024e-33
-1.6458784e-17
1.6878052e-17
-1.7305106e-17
1.2352929e-30
1.8182794e-17
-1.863353e-17
1.9092261e-17
1.9559032e-17
-2.0033888e-17
0
0
-2.1507358e-17
-2.2014936e-17
2.253078e-17
2.3054915e-17
-2.3587364e-17
-1.6732624e-30
2.4677295e-17
-2.523482e-17
-2.5800735e-17
0
2.6957755e-17
2.7548875e-17
0
-2.8756347e-17
-2.9372687e-17
0
3.063053e-17
6.5060442e-30
-3.1921826e-17
3.2579968e-17
3.3246407e-17
-3.3921114e-17
-2.3899206e-30
2.4276225e-30
1.5345377e-32
3.6701913e-17
-3.7417398e-17
-5.2900645e-30
2.6736622e-30
-2.7245168e-30
4.0358971e-17
0
0
-4.2647112e-17
-4.3425066e-17
0
0
4.5803612e-17
-3.9149424e-47
-4.7425686e-17
0
4.9076023e-17
-4.9911548e-17
-1.4064482e-29
1.032056e-16
-5.2458316e-17
-1.1070388e-29
-7.7006603e-33
-5.5063095e-17
5.5943708e-17
-8.0760705e-33
-7.9896185e-30
4.0569691e-30
-5.9524695e-17
0
6.1348543e-17
4.3093957e-30
1.7538511e-29
6.4122987e-17
0
-6.5996811e-17
-6.694055e-17
0
0
0
7.0757661e-17
4.9636364e-30
-7.2689433e-17
0
0
7.5612715e-17
7.6593356e-17
-7.7576843e-17
-7.8563027e-17
0
8.0542903e-17
8.1536264e-17
-8.2531682e-17
-8.3529013e-17
0
8.5528831e-17
-2.4027935e-29
-6.0704235e-30
8.8539028e-17
-8.95446e-17
-9.0551003e-17
0
9.2565679e-17
-1.3005068e-29
9.4581837e-17
1.3258149e-29
-1.9319653e-16
9.7606196e-17
-1.3677523e-29
-3.4585458e-29
-6.9640873e-30
-1.0163268e-16
1.0263727e-16
1.0364074e-16
0
-1.056438e-16
-1.0664314e-16
0
1.086367e-16
1.0963065e-16
-2.2124511e-16
-1.1161227e-16
1.1259967e-16
1.1358463e-16
3.178042e-29
-1.1554672e-16
1.1652362e-16
-8.1483357e-30
-1.1846847e-16
1.1943621e-16
-8.3667721e-30
8.450805e-30
-3.4765243e-32
-8.5138395e-30
1.2422352e-16
0
0
-1.2705089e-16
-1.2798524e-16
0
0
0
0
1.3259175e-16
9.2011306e-30
-2.688045e-16
5.7681975e-32
1.3619336e-16
1.3708145e-16
-1.915499e-29
-1.9237408e-29
-1.9854682e-32
-1.4058223e-16
-1.4144417e-16
-1.4230066e-16
2.8630327e-16
4.3199116e-16
-1.4483685e-16
-2.9134189e-16
0
1.4732181e-16
1.4813848e-16
-1.4894923e-16
4.256265e-32
-6.418451e-32
4.3014972e-32
1.5213206e-16
1.5291249e-16
-1.5368671e-16
-3.0890939e-16
1.552164e-16
-3.7271144e-47
1.5672083e-16
4.3634966e-29
-3.1639936e-16
0
0
3.2073893e-16
-8.9457242e-29
-3.2356662e-16
0
1.6317078e-16
1.6385456e-16
-1.6453168e-16
2.3476633e-32
-2.3028823e-29
2.3664322e-32
1.6717314e-16
-1.6781666e-16
-1.6845342e-16
0
1.6970662e-16
-2.3647656e-29
-1.7093259e-16
3.4307071e-16
-4.7748515e-29
-1.7272042e-16
-4.8122708e-29
-3.4775623e-16
3.4889338e-16
1.7500842e-16
-1.755633e-16
-2.5026924e-32
-1.7665248e-16
0
0
1.7823484e-16
-2.4792061e-29
-3.5851097e-16
2.5544799e-32
5.4074626e-16
-1.8073512e-16
-1.8121466e-16
3.6337475e-16
-1.8215328e-16
1.8261236e-16
3.6612927e-16
-1.8351011e-16
-1.839488e-16
-1.8438071e-16
1.8480584e-16
-4.2901674e-47
-1.8563583e-16
1.8604071e-16
-1.8643885e-16
1.8683027e-16
5.1879457e-29
5.3317138e-32
1.8796433e-16
-3.7665795e-16
1.8868696e-16
5.2492176e-29
-5.2534067e-29
-1.8972108e-16
-3.801051e-16
5.7113225e-16
5.2898202e-29
-1.0596934e-28
5.3014943e-29
-3.8322234e-16
3.838065e-16
-5.3312386e-29
-3.8493576e-16
0
0
1.932662e-16
-2.6840742e-29
-1.9376617e-16
-1.9400652e-16
1.9424047e-16
5.8340411e-16
-1.9468923e-16
-1.9490406e-16
-5.5454323e-32
-1.9531471e-16
0
3.914002e-16
3.9176671e-16
-1.9606034e-16
-3.9246213e-16
-1.9639555e-16
3.9310759e-16
3.9341165e-16
-3.9370331e-16
-3.9398259e-16
0
3.945041e-16
-1.973732e-16
-3.949764e-16
1.9759708e-16
1.9769985e-16
-2.8108574e-32
2.747465e-29
1.9797155e-16
-1.9804996e-16
-1.9812231e-16
1.9818863e-16
-2.7496717e-29
-2.8180581e-32
-2.7510948e-29
-1.9839386e-16
1.9843023e-16
-8.2662861e-29
-2.7557681e-29
-5.5092284e-29
-1.9851613e-16
1.9852261e-16
-2.7562936e-29
-5.503966e-29
-2.8209354e-32
-3.9697647e-16
-1.9846489e-16
1.9843564e-16
3.9680104e-16
-2.7540256e-29
-3.966257e-16
-1.9826026e-16
3.9640357e-16
1.9813748e-16
-1.980674e-16
-1.9799156e-16
-5.4927512e-29
1.9782237e-16
0
0
1.9752525e-16
0
-1.9729837e-16
1.9717628e-16
2.8002277e-32
-5.46514e-29
0
-1.9663082e-16
1.9648013e-16
1.9632377e-16
-3.9232344e-16
-1.9599397e-16
1.9582052e-16
0
0
-1.9526611e-16
5.4194762e-29
1.9486814e-16
0
0
-1.9422882e-16
8.0834298e-29
1.937743e-16
0
0
0
0
0
0
0
0
3.8290171e-16
1.0611093e-28
-1.9087299e-16
1.9057571e-16
-1.9027281e-16
1.8996435e-16
-5.2716032e-29
-1.8933081e-16
-5.2483119e-29
-1.8867499e-16
0
0
1.8764978e-16
5.2008645e-29
-1.8693862e-16
0
0
0
0
0
0
0
3.6774748e-16
-1.5273024e-28
-3.6610531e-16
1.8263392e-16
2.5893568e-32
1.8178023e-16
-1.0055729e-28
-3.6180953e-16
-1.8045892e-16
-2.0478562e-47
5.3865329e-16
0
-3.5724341e-16
0
0
3.5437495e-16
-4.9015495e-29
-5.286139e-16
1.7570526e-16
1.7520058e-16
-1.7469061e-16
1.7417537e-16
-1.736549e-16
-4.8025328e-29
1.7259827e-16
-1.7206212e-16
0
-1.7097427e-16
1.704226e-16
3.3973157e-16
-1.6930384e-16
-1.6873679e-16
-1.6816465e-16
-1.6758744e-16
3.3401035e-16
1.6641788e-16
-1.6582555e-16
0
1.6462591e-16
-1.6401866e-16
-1.6340648e-16
4.8836816e-16
4.609076e-32
-3.2308136e-16
1.6090909e-16
2.2252268e-29
1.596315e-16
-4.5186424e-32
-3.1667001e-16
1.5767975e-16
0
-4.3416777e-29
-2.2124359e-32
-1.5501276e-16
1.5433466e-16
-4.2666113e-29
-2.121592e-29
-2.1639345e-32
-1.5157733e-16
1.5087693e-16
3.3079742e-47
-4.1502976e-29
-2.1138648e-32
-2.9606515e-16
-2.0431745e-29
1.4658553e-16
0
0
-1.4438446e-16
-5.976893e-29
1.4289752e-16
-1.4214833e-16
1.9631342e-29
1.427492e-46
-1.9420723e-29
1.3911441e-16
1.3834677e-16
1.9081439e-29
-1.3680069e-16
0
0
1.3445586e-16
-1.3366784e-16
1.1061603e-28
1.3208213e-16
-1.3128459e-16
0
1.2968066e-16
1.2887429e-16
-1.2806504e-16
-1.27253e-16
0
1.2562091e-16
1.2480109e-16
-2.4795767e-16
-1.2315412e-16
1.2232698e-16
1.2149748e-16
1.6736089e-29
1.1983181e-16
3.3042771e-29
-2.3631581e-16
0
0
0
1.1478818e-16
1.1394148e-16
0
-1.1224346e-16
-1.5434048e-29
1.1053974e-16
0
0
-1.0797567e-16
-1.4857179e-29
1.4723115e-29
-1.054027e-16
1.0454353e-16
-4.3142172e-29
-1.0282338e-16
0
-1.0110133e-16
-1.3917316e-29
9.9378262e-17
-9.8516361e-17
9.765444e-17
9.6792757e-17
-9.5931375e-17
0
9.4209234e-17
9.334865e-17
-9.2488587e-17
-9.1629157e-17
0
-8.9912676e-17
8.9055762e-17
8.8199713e-17
-8.7344615e-17
-1.7298143e-16
4.7560069e-29
2.5436169e-16
4.058051e-47
-8.3089366e-17
-1.6448518e-16
4.515867e-29
1.611087e-16
-7.9713174e-17
7.8874006e-17
-7.8036892e-17
-7.7201928e-17
1.5273843e-16
0
0
-1.4777078e-16
-3.1467842e-46
1.4448458e-16
0
0
-1.3959759e-16
-3.09263e-46
1.3636962e-16
0
0
-1.3157618e-16
-6.499599e-17
1.2841468e-16
6.3422249e-17
0
-1.2372666e-16
3.3926774e-29
1.2063984e-16
-5.9554107e-17
0
5.8034605e-17
-5.7281136e-17
8.0336763e-33
5.5787173e-17
-5.5046798e-17
5.4310895e-17
5.3579503e-17
-5.2852689e-17
-5.2130543e-17
1.4276408e-29
5.0700544e-17
-4.9992787e-17
-1.3686837e-29
4.8592068e-17
-4.7899182e-17
4.7211326e-17
4.6528589e-17
-4.5851067e-17
-4.5178807e-17
1.2360041e-29
4.3850047e-17
-4.3193603e-17
6.0456634e-33
4.189704e-17
-4.1256999e-17
4.0622431e-17
3.9993364e-17
-3.9369877e-17
-7.7504101e-17
2.1192228e-29
7.5066865e-17
-3.6932607e-17
5.1638665e-33
7.1496251e-17
9.9943784e-33
-3.4586884e-17
0
3.3448855e-17
0
-3.2334186e-17
0
0
0
-3.0175584e-17
-2.5092624e-47
2.9131757e-17
0
2.8111601e-17
-7.6668559e-30
-2.7115123e-17
0
0
0
-2.5193327e-17
6.8663762e-30
2.4267843e-17
0
2.336578e-17
6.3621559e-30
-2.2487193e-17
0
2.16319e-17
-2.1212877e-17
1.1557183e-29
2.0392088e-17
-1.9990323e-17
0
-1.9203812e-17
-5.2256529e-30
1.8439722e-17
0
1.7698025e-17
-1.7335493e-17
-9.4291331e-30
1.6626738e-17
-9.0392132e-30
-2.2651551e-33
4.3351711e-30
-2.170556e-33
-1.4948978e-17
0
1.4314673e-17
-3.8869985e-30
-3.8025517e-30
1.4278715e-47
-3.6397139e-30
0
-2.5068092e-17
-3.4028648e-30
1.1980019e-17
-1.1710205e-17
3.1764674e-30
1.1184853e-17
1.09292e-17
2.9651009e-30
-2.8966372e-30
1.0189513e-17
-9.9519415e-18
-9.7187998e-18
0
-9.2655345e-18
2.5116965e-30
8.8292408e-18
0
0
0
-1.6012442e-17
8.6752234e-30
1.5237115e-17
0
0
0
0
0
0
0
-1.2435674e-17
3.3665243e-30
1.1806142e-17
5.7506728e-18
-5.6015508e-18
-5.4556805e-18
1.4760756e-30
2.8702158e-30
5.0370344e-18
-4.9035713e-18
4.7730824e-18
4.6455426e-18
-4.520915e-18
-4.399133e-18
2.3757895e-30
4.1638045e-18
4.0501695e-18
-1.092717e-30
-3.8308636e-18
-3.7251066e-18
3.6218352e-18
3.5209831e-18
-3.4225208e-18
3.3264293e-18
0
-3.141203e-18
-3.0519832e-18
8.2247224e-31
2.8801219e-18
-2.7973559e-18
2.716634e-18
2.6379328e-18
-2.5612321e-18
2.486494e-18
6.7022587e-31
-2.3426795e-18
-2.273509e-18
-3.1351049e-34
4.2810736e-18
1.1530036e-30
-2.0144619e-18
-1.9538728e-18
0
1.8374642e-18
0
0
0
1.622919e-18
1.5728423e-18
-1.5241499e-18
-1.4768237e-18
0
1.3860676e-18
-3.7298883e-31
-1.3002325e-18
0
0
1.180432e-18
-6.3431306e-31
-1.1061226e-18
0
0
1.0024464e-18
-5.3837682e-31
-9.3833859e-19
0
8.7788433e-19
-2.3574299e-31
2.2783804e-31
-2.2040349e-31
-7.6737286e-19
0
-7.1700346e-19
3.8453226e-31
6.6958728e-19
0
6.2505463e-19
-6.0383836e-19
-5.8326848e-19
1.1266293e-18
1.5120319e-31
-1.0504381e-18
1.4080525e-31
4.8953557e-19
0
0
4.4015706e-19
-1.1787287e-31
-4.0975666e-19
0
3.812987e-19
-3.6776546e-19
-3.5467841e-19
3.4202013e-19
0
-3.1791681e-19
3.0644405e-19
1.6394268e-31
-1.5799732e-31
2.7429697e-19
-2.200925e-31
2.5460938e-19
-2.4523684e-19
6.5551446e-32
-1.263286e-31
-4.3812434e-19
5.8511005e-32
2.0305698e-19
0
0
0
-3.482808e-19
-1.6755792e-19
3.2240559e-19
1.5505362e-19
0
0
1.3780488e-19
2.5136891e-49
-1.2734932e-19
0
-2.3523847e-19
-1.1298773e-19
2.1702744e-19
1.0421044e-19
0
-1.9222663e-19
-2.6226595e-35
2.6568438e-19
-2.3569858e-32
-1.6302173e-19
7.8201559e-20
4.2647925e-35
-7.196263e-20
1.9168369e-32
3.6683934e-32
6.3353534e-20
0
5.8171638e-20
-3.0944984e-32
-1.0675582e-19
5.1094936e-20
-8.1395916e-32
-4.6772266e-20
8.9514059e-20
-6.0862511e-36
-4.0966912e-20
0
0
0
-3.4135818e-20
3.2612993e-20
6.230246e-20
-2.973742e-20
-7.876925e-33
-7.5019275e-33
-2.5781917e-20
0
2.3440442e-20
-3.1743717e-36
-4.2542379e-20
2.0244275e-20
1.0687898e-32
-1.833378e-20
-1.7444064e-20
9.2161348e-33
3.1517495e-20
0
1.422045e-20
1.3510258e-20
0
-1.2170424e-20
-1.1539406e-20
1.0943089e-20
0
-9.845318e-21
0
0
8.3696862e-21
-6.6113555e-33
-7.529802e-21
0
0
6.3577041e-21
6.0393543e-21
-5.7377477e-21
-5.4492501e-21
5.1679758e-21
4.758479e-21
-8.9285824e-21
-4.3551622e-21
1.1649919e-33
3.7172995e-21
-1.8841719e-33
-1.895689e-33
3.3907522e-21
-3.3051746e-21
3.0950015e-21
-2.8340133e-21
-2.3300415e-36
2.7370254e-21
-5.4546305e-21
-2.6783562e-21
-2.6113801e-21
5.0871163e-21
4.8968221e-21
-2.3729207e-21
2.3544901e-21
-2.3509914e-21
1.3015963e-33
4.6419383e-21
-2.2745775e-21
6.2146429e-34
-6.2361856e-34
-2.2838297e-21
0
0
2.3114381e-21
2.2935442e-21
0
-2.3398672e-21
-2.4057854e-21
0
-2.4718823e-21
6.8955868e-34
2.4879758e-21
-2.4981088e-21
7.0542557e-34
2.6085215e-21
0
2.699519e-21
1.5125153e-33
-2.7512101e-21
2.7805021e-21
-7.798602e-34
-2.8431279e-21
-2.8690056e-21
-7.9658018e-34
2.8681534e-21
0
-2.9617716e-21
2.9917183e-21
-8.500389e-37
1.6256407e-33
2.8893106e-21
-2.9588595e-21
0
-6.0812503e-21
6.7772915e-33
2.9187691e-21
1.572369e-33
5.8162893e-21
-5.9810593e-21
-6.0855838e-21
6.0867306e-21
6.0192275e-21
2.8940402e-21
0
-2.8623815e-21
-5.804755e-21
4.1440582e-37
-2.9009536e-21
2.8247021e-21
2.7367193e-21
-2.7057155e-21
5.4449592e-21
-5.4760019e-21
-4.5225783e-33
5.3254117e-21
-5.1626721e-21
1.3938006e-33
-2.4952211e-21
2.4904685e-21
2.4706045e-21
-2.4243705e-21
-6.5369784e-34
-4.5610131e-21
4.4495859e-21
4.4051341e-21
-4.368032e-21
-5.9842161e-34
-2.1230883e-21
1.1544851e-33
2.024789e-21
5.4676741e-34
7.5940655e-51
1.8508873e-21
3.6421698e-21
-1.8035358e-21
-1.8366979e-50
-1.7475094e-21
-2.8210535e-33
1.6417009e-21
-3.1821071e-21
8.5983921e-34
3.0544865e-21
1.0179373e-51
-1.4994897e-21
0
0
-1.3606984e-21
1.3246895e-21
2.6369199e-21
0
0
0
-1.2609712e-21
-1.217319e-21
0
1.1932117e-21
-1.211784e-21
-2.0423358e-33
2.4406651e-21
0
0
0
-1.1402352e-21
-1.1599235e-21
1.1836155e-21
-1.197235e-21
-6.6292804e-34
2.3607813e-21
0
0
-2.363914e-21
3.4091062e-37
1.2203213e-21
-1.2359419e-21
1.2419944e-21
-1.2420411e-21
6.9099047e-34
2.5061192e-21
0
0
-1.31701e-21
-1.3232369e-21
0
0
1.3440613e-21
1.3709256e-21
0
-1.4019215e-21
-1.4007153e-21
1.396308e-21
-1.4045571e-21
-1.4317287e-21
1.4677444e-21
1.489018e-21
-8.2360513e-34
-1.4700971e-21
1.4619809e-21
4.0722761e-34
-1.4938952e-21
0
-1.5421908e-21
8.5168753e-34
1.5195457e-21
-1.5074536e-21
8.3535141e-34
1.5179162e-21
0
-1.5485447e-21
4.2776049e-34
2.1684455e-37
-1.5103425e-21
1.5014913e-21
1.5051708e-21
0
-3.0353505e-21
1.6727958e-33
1.4891836e-21
2.0946883e-37
2.9266515e-21
-2.9211607e-21
-2.9172712e-21
2.8956606e-21
1.4303366e-21
0
-2.8098671e-21
2.3262239e-33
2.7713822e-21
0
-2.6863182e-21
-7.3618832e-34
1.3182768e-21
3.6515679e-34
2.6139694e-21
-2.5845719e-21
-3.1810737e-33
2.5210027e-21
-2.5137199e-21
6.9392783e-34
2.4595294e-21
1.2047298e-21
-2.3675935e-21
-1.1750267e-21
2.3639681e-21
-2.3718158e-21
-2.936221e-33
2.3046661e-21
-2.255671e-21
3.0990256e-34
-1.1202991e-21
1.257856e-33
3.410312e-21
-6.2341403e-34
-2.2013147e-21
1.0806617e-21
2.1496177e-21
-1.085107e-21
6.1210884e-34
-1.1106485e-21
-1.2258758e-33
1.0873772e-21
-2.1461326e-21
8.9077551e-34
-1.1986386e-33
6.0919062e-34
1.108159e-21
0
1.0883973e-21
1.0748833e-21
0
0
0
0
0
-1.1127403e-21
-1.0969284e-21
0
1.1112903e-21
-1.1398637e-21
-1.9366461e-33
2.3436785e-21
0
0
0
-1.1447588e-21
-1.149949e-21
1.1664995e-21
1.187434e-21
-2.4118518e-21
-2.0222836e-33
2.4143356e-21
0
-2.3725279e-21
-1.972299e-33
1.191044e-21
-1.2080911e-21
1.2260918e-21
-1.2336754e-21
-6.816352e-34
2.4386343e-21
0
0
-1.2196949e-21
-1.2339307e-21
0
-1.2512558e-21
-3.5176001e-37
-1.2191092e-21
1.2051465e-21
3.5983003e-21
0
2.4456462e-21
2.474673e-21
0
-3.7423904e-21
-2.466363e-21
2.4253733e-21
-1.1936199e-21
-1.1833708e-21
3.5721415e-21
1.2109026e-21
1.7455442e-37
1.2302895e-21
-1.2142571e-21
-1.1943849e-21
-1.1792978e-21
4.3544024e-52
-1.1787152e-21
-1.1905998e-21
1.1997248e-21
0
2.3794981e-21
2.3545583e-21
0
-1.1611407e-21
-2.322406e-21
-6.4768236e-34
-1.170403e-21
-2.3342553e-21
2.3180212e-21
2.2995729e-21
1.1451473e-21
1.1475669e-21
0
-1.1549252e-21
-3.4424647e-21
1.1374484e-21
-2.6602321e-50
-3.3990693e-21
2.2856031e-21
1.1488225e-21
1.1440083e-21
2.2715177e-21
-2.2589997e-21
-1.1300065e-21
1.140215e-21
1.1494547e-21
1.1509285e-21
-3.4376551e-21
-1.1395285e-21
3.418704e-21
1.1485281e-21
-1.1618249e-21
-2.3390707e-21
1.1664865e-21
-1.1616328e-21
1.9321093e-33
-1.9415417e-33
-3.5426243e-21
1.1959223e-21
1.2035297e-21
2.4091137e-21
1.2058819e-21
-2.4215218e-21
-3.4629467e-37
-1.2288962e-21
1.2386021e-21
3.739337e-21
-3.7641159e-21
-1.2642274e-21
3.8186506e-21
0
-3.8443945e-21
-1.2869152e-21
3.8861422e-21
-1.3095664e-21
-2.6492656e-21
-7.401193e-34
1.4859641e-33
1.344827e-21
0
2.7373658e-21
2.7651472e-21
-1.3872728e-21
-1.3884324e-21
-2.782391e-21
1.3972999e-21
1.4112326e-21
-2.8564488e-21
0
2.8903818e-21
2.9014169e-21
-1.4581381e-21
-2.9276616e-21
8.138113e-34
1.4674073e-21
-2.9264473e-21
1.4616315e-21
-4.9056777e-33
-2.9835762e-21
1.5031637e-21
0
2.9800195e-21
0
-3.2691493e-33
-1.4835635e-21
-3.0047314e-21
4.534294e-21
-4.2739804e-37
-2.9827538e-21
0
2.9332569e-21
1.4691172e-21
-2.954873e-21
1.6443571e-33
1.4738118e-21
-2.9197919e-21
1.4451265e-21
-2.3897283e-33
-2.8661031e-21
1.431158e-21
-1.4194252e-21
2.7966763e-21
4.1295197e-21
0
-4.0984678e-21
-2.726123e-21
4.0421539e-21
2.650067e-21
-1.2949898e-21
-2.5430388e-21
1.2658783e-21
1.2690659e-21
-2.5276835e-21
1.2399767e-21
2.4198294e-21
-1.1800705e-21
1.6449276e-37
-2.3018673e-21
-2.2958824e-21
3.4046411e-21
-1.1067369e-21
-1.7898874e-33
3.1360996e-21
0
-3.0547145e-21
-2.0227978e-21
9.9454054e-22
9.6543214e-22
9.3380431e-22
0
8.8789006e-22
-4.8735933e-34
-1.732566e-21
4.6969739e-34
8.1869973e-22
0
7.6693745e-22
-1.5027793e-21
-2.2205322e-21
1.4495867e-21
2.106154e-21
6.7644214e-22
-6.5287342e-22
-1.269858e-21
6.2207196e-22
-6.0853285e-22
-5.9057733e-22
1.1390268e-21
-1.0986028e-21
-5.3337674e-22
1.5620863e-21
1.0128517e-21
-4.8658987e-22
-1.397924e-21
1.001937e-33
-9.8369398e-34
-4.3751796e-22
-4.7366533e-34
-4.0715693e-22
3.844487e-22
3.6782533e-22
3.6229063e-22
-3.6359622e-22
-3.6395816e-22
1.067963e-21
-3.3800917e-22
-6.3689623e-22
9.2050351e-22
8.6778152e-38
-3.0937895e-22
6.2518024e-22
3.1021408e-22
0
-2.9000323e-22
-2.832042e-22
-5.6622017e-22
2.8775946e-22
-9.7818265e-34
-8.9380556e-22
2.9813953e-22
2.9444329e-22
2.9175337e-22
-2.942439e-22
-3.0202838e-22
9.3800001e-22
-3.2191464e-22
-6.5298307e-22
-5.4516118e-34
-3.306754e-22
6.8148876e-22
1.0672055e-21
2.0624822e-34
-2.1264465e-34
-5.5132429e-38
-3.9279346e-22
-8.072583e-22
-4.2044737e-22
1.3215676e-21
-5.0880612e-34
-9.4006274e-22
0
0
5.0448686e-22
-2.9111296e-34
3.0230372e-34
5.6279962e-22
-1.1591448e-21
-5.9725095e-22
-6.8427943e-34
6.3455103e-22
1.9472872e-21
6.6160656e-22
0
0
0
-2.2456256e-21
-1.5378798e-21
2.3374476e-21
-8.7479852e-34
-1.6036905e-21
0
0
1.7512452e-21
-1.9863266e-33
-1.0033858e-33
1.8251661e-21
-9.2530352e-22
-1.8851015e-21
-1.9300725e-21
9.8680102e-22
3.0062621e-21
1.0112094e-21
0
0
0
-3.1885422e-21
-2.1548229e-21
3.2563964e-21
-2.4231909e-33
-1.0983268e-21
1.573621e-37
-1.1198782e-21
2.2602229e-21
-1.2572824e-33
-1.1323793e-21
2.2655786e-21
0
-6.3774568e-34
-2.3216045e-21
-2.327961e-21
3.4727483e-21
2.3010687e-21
-1.1449331e-21
-6.3425772e-34
1.1490913e-21
-3.4737084e-21
-2.3226115e-21
1.1554834e-21
1.1447424e-21
-1.1348743e-21
-1.1259509e-21
1.1205309e-21
1.1216162e-21
-6.2329433e-34
6.2051422e-34
1.1060935e-21
0
1.079827e-21
-2.1442024e-21
-3.2142723e-21
2.1370558e-21
2.1178183e-21
1.0455776e-21
-1.144314e-33
-2.0396921e-21
1.0152747e-21
-1.0125302e-21
-1.0054349e-21
1.9828178e-21
-1.9510383e-21
-9.6259249e-22
9.5459686e-22
1.9042838e-21
9.4916447e-22
-1.8827309e-21
5.165038e-34
-9.2129955e-22
-9.1280601e-22
2.7140216e-21
-8.9411142e-22
-8.8250067e-22
2.6195928e-21
-1.2351948e-37
-2.6136115e-21
-8.7138524e-22
2.5931041e-21
-8.5087922e-22
-3.3671086e-50
-1.3820357e-33
-1.6623616e-21
1.6774076e-21
1.6850283e-21
-8.3877622e-22
9.2291245e-34
1.6496466e-21
-8.2304879e-22
-2.479888e-21
-8.3144667e-22
8.3258579e-22
0
8.2398619e-22
1.645903e-21
-1.1755897e-37
-2.5111133e-21
-8.4595556e-22
1.6948048e-21
-1.1960196e-37
-1.6737603e-21
1.6713357e-21
-1.3983081e-33
-1.7022661e-21
2.595432e-21
1.7478309e-21
0
0
-8.7072378e-22
-2.619435e-21
-8.7908429e-22
2.6664781e-21
-9.9727442e-34
-1.8093812e-21
1.8166446e-21
1.8225598e-21
-9.1442244e-22
-1.8336831e-21
9.1820229e-22
9.195119e-22
-2.7635067e-21
-9.2512943e-22
-1.5545022e-33
5.2143696e-34
9.4134565e-22
-9.3932163e-22
1.8716854e-21
2.8041888e-21
0
-2.8424337e-21
-1.9064159e-21
2.8522134e-21
-2.6865507e-37
-9.4088203e-22
1.8768298e-21
-9.4004333e-22
-9.4376896e-22
-1.0499825e-33
9.4374091e-22
1.877995e-21
-9.3395673e-22
-1.8579116e-21
-1.8470473e-21
1.0201946e-33
9.1643219e-22
-9.1441395e-22
1.8205176e-21
2.7084369e-21
0
-2.6548415e-21
-1.7579719e-21
2.6283885e-21
-9.6950116e-34
-8.6580985e-22
8.5596777e-22
8.4663617e-22
-4.6481585e-34
-1.6609272e-21
4.5618675e-34
1.6213162e-21
-8.8838526e-34
-8.8095598e-34
-1.5807731e-21
-2.3523657e-21
1.5439151e-21
-8.4109099e-34
-2.4751535e-33
7.3314136e-22
7.2875134e-22
1.453394e-21
-2.167162e-21
-7.1306911e-22
1.4033476e-21
-1.3831932e-21
-3.8785564e-37
2.0173319e-21
6.6196153e-22
-6.5289862e-22
-1.9420983e-21
2.1494505e-33
1.2845816e-21
6.3452005e-22
-1.2434104e-21
-1.8265019e-21
1.8030309e-21
5.9950051e-22
6.6837345e-34
6.0215295e-22
-1.1908723e-21
3.2398045e-34
-5.7294114e-22
5.6785e-22
-1.8948528e-33
-1.7205506e-21
1.7296742e-21
1.7222407e-21
0
0
0
-5.5588671e-22
-1.678513e-21
-5.6371534e-22
-6.2866692e-34
-5.6646897e-22
1.6973396e-21
5.6588866e-22
-5.6626098e-22
-5.6629567e-22
-5.6682469e-22
1.1376279e-21
-5.7293494e-22
5.7908604e-22
-1.9452945e-33
-1.1717227e-21
1.7557848e-21
1.170847e-21
0
-1.1936893e-21
-6.7289896e-34
6.125461e-22
-1.8404088e-21
-6.1341525e-22
6.161472e-22
0
0
6.3871614e-22
1.281377e-21
-1.4233781e-33
-1.2875788e-21
-6.5004032e-22
6.6065666e-22
-6.7045613e-22
6.7441366e-22
2.231395e-50
-1.1173191e-33
2.0190349e-21
0
0
-1.399439e-21
-1.4085921e-21
-7.0629893e-22
7.8701431e-34
2.1363351e-21
-7.934439e-34
-1.4302079e-21
0
1.4327352e-21
7.2235909e-22
-1.4658354e-21
7.3865549e-22
7.355623e-22
-2.1826219e-21
7.1929184e-22
-2.3966978e-33
-1.4627156e-21
2.2432152e-21
1.5134053e-21
0
0
0
-2.1634315e-21
-1.4577318e-21
2.235893e-21
1.5191836e-21
0
-1.5078721e-21
8.2089667e-34
7.2810785e-22
-1.4472449e-21
7.2952168e-22
-7.4253228e-22
-7.5419079e-22
2.273802e-21
-1.5010299e-21
-1.474478e-21
7.264984e-22
-7.2073851e-22
1.4469018e-21
2.2033184e-21
0
-2.2461638e-21
-1.4829528e-21
7.2944679e-22
7.1937935e-22
-7.9397034e-34
7.196385e-22
-2.4328998e-33
-7.401943e-22
-4.1184581e-34
-2.2747552e-51
7.234296e-22
0
7.15963e-22
-1.4458012e-21
-2.1994964e-21
2.2183427e-21
2.2136908e-21
0
-1.4494525e-21
-1.4451405e-21
1.452553e-21
-7.3597412e-22
-7.454428e-22
2.2452931e-21
-1.4880412e-21
-1.478888e-21
7.3781677e-22
1.4815077e-21
7.5026568e-22
-2.28485e-21
-7.6786815e-22
-1.2763205e-33
1.5276842e-21
4.3420697e-37
-2.303285e-21
1.5545884e-21
2.3647235e-21
7.9518945e-22
-2.3889305e-21
-1.5935127e-21
2.3978225e-21
-1.7879351e-33
-1.6332933e-21
-8.2684725e-22
4.6188952e-34
1.6689734e-21
-9.2833695e-34
8.4104729e-22
8.5123514e-22
-2.5970523e-21
-8.76572e-22
-9.7658335e-34
1.7606084e-21
-2.9373909e-33
-2.661021e-21
1.7962546e-21
-1.0144525e-33
-1.0297275e-33
-2.0744608e-33
-9.376343e-22
2.8257598e-21
-9.4778704e-22
-1.588741e-33
-3.2017534e-33
-2.9101557e-21
9.8079689e-22
1.9784357e-21
-1.1027654e-33
9.9621734e-22
9.981357e-22
-2.0019922e-21
-2.0172146e-21
1.1327337e-33
3.0900169e-21
-1.1451071e-33
-1.0307346e-21
2.0574175e-21
-1.0285118e-21
-1.0372211e-21
5.8136575e-34
-5.8474498e-34
1.0520273e-21
-2.0935844e-21
1.0410516e-21
-3.4647545e-33
-3.49213e-33
3.1659188e-21
-2.10928e-21
2.9803278e-37
2.077216e-21
-1.029196e-21
-3.0794762e-21
-1.0313909e-21
3.1019086e-21
-1.141015e-33
-1.0172201e-21
2.0086147e-21
-1.9845669e-21
-4.9311672e-33
9.8335817e-22
-9.7614099e-22
9.6329853e-22
-1.89102e-21
9.2811153e-22
2.74917e-21
0
0
-1.7680435e-21
-2.4508965e-37
1.6767576e-21
-8.1737705e-22
-2.4132896e-21
-7.9551903e-22
2.3426673e-21
2.1522929e-37
8.1055615e-34
1.4050008e-21
-2.0350163e-21
-3.2992457e-33
6.4490417e-22
-6.2452247e-22
-5.96873e-22
6.2905693e-34
5.3636474e-22
-1.0201517e-21
9.7665739e-22
-1.5549677e-33
-8.8228894e-22
1.2284659e-21
7.5272497e-22
-3.4665028e-22
-9.632696e-22
-2.9726688e-22
2.6979246e-22
0
-2.0111567e-22
1.6915867e-22
4.3175276e-22
6.7871765e-35
-1.9665447e-22
6.6902811e-23
2.7540497e-23
2.2613086e-23
-4.1219654e-23
6.1533281e-23
1.5834491e-22
-3.0486383e-22
4.3784255e-34
-3.7402146e-34
-4.1468552e-22
4.761226e-22
2.5757701e-22
2.7275703e-22
3.2302603e-34
-3.142022e-22
6.8645659e-22
-7.5160394e-22
-1.2182708e-21
0
4.4073086e-22
-2.5124001e-34
-1.3307582e-37
1.4644029e-21
5.1230829e-22
-1.6142247e-21
5.5743002e-22
-4.163352e-50
-1.7172332e-21
5.7999573e-22
1.7748224e-21
6.0763268e-22
-1.2521626e-21
6.3989026e-22
-6.4412672e-22
2.1396375e-33
1.2841102e-21
-1.9363645e-21
-7.2537037e-34
2.9451705e-33
-1.3395656e-21
1.335149e-21
7.3151494e-34
-6.508012e-22
1.291882e-21
6.4487803e-22
0
0
-1.2709917e-21
1.3772376e-33
3.4400127e-37
6.5808457e-34
5.8395442e-22
5.7756928e-22
-5.6870159e-22
-5.524849e-22
1.0611432e-21
-1.017143e-21
5.4309963e-34
9.4609577e-22
-9.1890515e-22
-1.4814989e-33
4.7149477e-34
-3.9934782e-22
7.4536111e-22
-3.4724729e-22
7.1917612e-34
6.044205e-22
0
-5.1550254e-22
-2.3286363e-22
4.1131201e-22
1.7686251e-22
-1.4761402e-22
1.9802135e-34
9.1606192e-23
0
0
-3.542561e-23
2.3993379e-23
0
-1.5402758e-22
-1.0682818e-22
1.324311e-22
-1.5593191e-22
1.8178153e-22
0
-4.8660759e-22
0
0
3.2492588e-22
-3.8089725e-34
-3.6492734e-22
0
4.2332427e-22
2.5305195e-34
-4.8678003e-22
0
1.078008e-21
1.1216867e-21
-5.7718609e-22
-6.5419409e-34
6.0370156e-22
-1.24332e-21
-1.2910488e-21
1.351654e-21
2.003205e-37
1.6177745e-33
2.1241575e-37
-1.5266182e-21
7.7788809e-22
-8.7692998e-34
7.9858422e-22
-8.0756346e-22
-2.4448455e-21
2.4798065e-21
8.4932531e-22
-8.7523459e-22
-9.9258208e-34
-9.0059119e-22
1.7973575e-21
1.7923375e-21
-1.7852475e-21
-2.994583e-33
-9.2129797e-22
-9.4317227e-22
1.9163505e-21
-9.6291452e-22
1.0644338e-33
-5.3001218e-34
9.4705042e-22
1.8846439e-21
-1.9009381e-21
-1.9308997e-21
0
9.8180868e-22
1.0815246e-33
-1.9312092e-21
-1.0591548e-33
2.8362866e-21
1.9000265e-21
0
-1.9347054e-21
-2.1406995e-33
-9.5429162e-22
-9.4378933e-22
2.7948765e-21
-5.1205032e-34
-1.8475761e-21
9.2815748e-22
1.8557434e-21
-9.196898e-22
-1.8177818e-21
-8.9751622e-22
0
1.7646922e-21
-8.7920278e-22
-2.6213925e-21
8.6438759e-22
8.514409e-22
1.6780415e-21
8.3110775e-22
-1.657238e-21
-8.2387053e-22
-8.1389621e-22
8.890543e-34
7.8539592e-22
7.7232887e-22
1.5318114e-21
7.6446837e-22
0
0
0
-1.4447924e-21
-1.4187637e-21
1.4014516e-21
7.7370035e-34
7.7048482e-34
-7.6277873e-34
-1.4993062e-33
1.3226899e-21
0
-1.2746724e-21
-6.2972446e-22
6.2520158e-22
-6.2118694e-22
-6.1410286e-22
0
0
1.1575966e-21
-1.8977699e-33
-1.2518354e-33
1.1185146e-21
-1.1075147e-21
-1.0921944e-21
0
1.0570494e-21
-5.7765138e-34
-1.0248695e-21
1.008448e-21
5.5166806e-34
-9.8235158e-22
0
9.6428278e-22
4.7433891e-22
-9.290135e-22
4.5504829e-22
9.9694709e-34
-8.9312756e-22
8.9238849e-22
8.8619724e-22
0
0
0
-8.2641254e-22
-8.2459029e-22
8.2464768e-22
0
-8.0712427e-22
0
-3.9191763e-22
7.7932832e-22
3.8942438e-22
-3.8768362e-22
7.6463559e-22
3.7615429e-22
-7.4389873e-22
-3.7089114e-22
-4.1393089e-34
3.7446106e-22
-8.2537079e-34
2.0683606e-37
7.1271439e-22
0
-3.5414479e-22
-7.1842083e-22
-3.6342935e-22
0
0
0
-3.4747585e-22
6.9655945e-22
3.5198217e-22
-3.5457721e-22
-3.5348668e-22
3.4968861e-22
3.4650737e-22
-6.933264e-22
0
7.0849238e-22
7.084121e-22
0
0
-6.7363124e-22
-3.7770998e-34
-3.4913817e-22
-3.5793756e-22
3.5987199e-22
-3.5201547e-22
3.3918116e-22
6.5951503e-22
3.2972653e-22
0
-7.0013471e-22
-3.9759502e-34
3.5955374e-22
-3.5168346e-22
-3.386921e-22
-6.5780979e-22
6.5264702e-22
3.3202846e-22
-9.7361078e-38
3.5116388e-22
-7.0824729e-22
3.4788561e-22
-3.343646e-22
-1.8033225e-50
3.1763582e-22
-6.41812e-22
6.6120896e-22
6.7751086e-22
0
-3.3596567e-22
-6.4755491e-22
1.7339476e-34
3.0603361e-22
3.0616017e-22
-6.2293068e-22
-6.3379827e-22
3.190143e-22
6.3209574e-22
6.1559865e-22
-2.9755827e-22
-5.7945097e-22
2.8576159e-22
-2.8562929e-22
4.7916074e-34
2.892467e-22
-5.7655094e-22
5.667789e-22
3.0509153e-34
-1.4773027e-33
5.1975707e-22
-5.1420712e-22
-1.1420568e-33
2.5788405e-22
-5.1362444e-22
2.5198411e-22
-6.9233987e-38
1.0456664e-33
2.3033969e-22
-4.572592e-22
5.0901833e-34
-1.2730381e-34
2.2607808e-22
-6.2137513e-38
-4.2101575e-22
4.1039165e-22
1.1572646e-37
-9.0741919e-34
4.0982164e-22
-4.052156e-22
-4.3682496e-34
3.806494e-22
-1.8632959e-22
-1.8513127e-22
-1.8547702e-22
1.8530343e-22
-2.0355899e-34
-3.6030634e-22
0
0
3.5314462e-22
5.0029572e-38
-3.4790697e-22
1.7191417e-22
-1.9065049e-34
1.7362828e-22
3.9141136e-34
-3.5466235e-22
0
-1.7286069e-22
3.4494457e-22
1.7574792e-22
-4.0242935e-34
1.8634221e-22
-3.7651663e-22
1.8636231e-22
-2.0502075e-34
-3.7346391e-22
0
0
2.0608557e-22
-1.1574061e-34
2.0777573e-22
-2.0811829e-22
-6.3700107e-22
6.5938825e-22
2.2847952e-22
-4.7020046e-22
2.3797482e-22
3.9744846e-34
2.4100968e-22
-1.4032659e-37
-8.5021585e-34
2.6424202e-22
-5.4144494e-22
-2.7323805e-22
0
-2.7935812e-22
2.8634675e-22
2.9511179e-22
3.0298126e-22
-6.8326433e-34
3.4391483e-34
-3.4697337e-34
-6.3624386e-22
3.2587942e-22
5.5655031e-34
-6.8023594e-22
4.8617183e-38
3.4362056e-22
6.945108e-22
7.0654446e-22
-7.2261381e-22
-4.0778553e-34
-3.6838965e-22
-3.6753753e-22
7.3603508e-22
-7.4421758e-22
-3.7948488e-22
1.1613145e-21
7.8003104e-22