/*--------------------------------*- C++ -*----------------------------------*\
  =========                 |
  \\      /  F ield         | OpenFOAM: The Open Source CFD Toolbox
   \\    /   O peration     | Website:  https://openfoam.org
    \\  /    A nd           | Version:  7
     \\/     M anipulation  |
\*---------------------------------------------------------------------------*/
FoamFile
{
    version     2.0;
    format      ascii;
    class       volScalarField;
    location    "0.0014";
    object      p;
}
// * * * * * * * * * * * * * * * * * * * * * * * * * * * * * * * * * * * * * //

dimensions      [1 -1 -2 0 0 0 0];

internalField   nonuniform List<scalar> 
5000
(
119508.79
119497.62
119486.43
119475.14
119463.68
119452.06
119440.27
119428.33
119416.22
119403.95
119391.52
119378.92
119366.15
119353.22
119340.12
119326.85
119313.41
119299.8
119286.02
119272.07
119257.95
119243.66
119229.2
119214.56
119199.75
119184.76
119169.6
119154.27
119138.76
119123.08
119107.22
119091.18
119074.97
119058.58
119042.02
119025.28
119008.36
118991.27
118974
118956.55
118938.92
118921.12
118903.14
118884.99
118866.65
118848.14
118829.46
118810.59
118791.55
118772.34
118752.94
118733.38
118713.63
118693.71
118673.62
118653.35
118632.91
118612.29
118591.5
118570.54
118549.41
118528.1
118506.62
118484.97
118463.15
118441.16
118419
118396.67
118374.18
118351.52
118328.69
118305.69
118282.53
118259.2
118235.72
118212.06
118188.25
118164.27
118140.14
118115.84
118091.39
118066.77
118042
118017.08
117992
117966.76
117941.37
117915.83
117890.14
117864.3
117838.3
117812.16
117785.88
117759.44
117732.86
117706.14
117679.28
117652.27
117625.12
117597.83
117570.41
117542.85
117515.15
117487.32
117459.35
117431.25
117403.02
117374.66
117346.17
117317.56
117288.82
117259.95
117230.96
117201.85
117172.61
117143.26
117113.79
117084.2
117054.5
117024.68
116994.75
116964.7
116934.55
116904.29
116873.92
116843.44
116812.86
116782.18
116751.39
116720.51
116689.52
116658.44
116627.26
116595.98
116564.61
116533.15
116501.6
116469.96
116438.23
116406.42
116374.52
116342.54
116310.47
116278.33
116246.1
116213.8
116181.42
116148.97
116116.44
116083.84
116051.18
116018.44
115985.64
115952.77
115919.83
115886.84
115853.78
115820.66
115787.49
115754.25
115720.97
115687.63
115654.23
115620.79
115587.3
115553.75
115520.17
115486.54
115452.86
115419.15
115385.39
115351.59
115317.76
115283.9
115249.99
115216.06
115182.1
115148.1
115114.08
115080.04
115045.96
115011.87
114977.75
114943.62
114909.46
114875.29
114841.1
114806.9
114772.69
114738.47
114704.24
114670
114635.75
114601.5
114567.25
114532.99
114498.74
114464.49
114430.24
114396
114361.76
114327.54
114293.32
114259.11
114224.92
114190.74
114156.58
114122.44
114088.31
114054.21
114020.13
113986.07
113952.04
113918.04
113884.07
113850.13
113816.22
113782.34
113748.5
113714.7
113680.94
113647.21
113613.53
113579.9
113546.31
113512.76
113479.27
113445.82
113412.43
113379.09
113345.81
113312.59
113279.42
113246.31
113213.27
113180.29
113147.37
113114.53
113081.75
113049.04
113016.4
112983.84
112951.36
112918.95
112886.62
112854.37
112822.2
112790.12
112758.12
112726.21
112694.39
112662.66
112631.02
112599.48
112568.03
112536.68
112505.43
112474.28
112443.23
112412.29
112381.45
112350.72
112320.1
112289.59
112259.19
112228.91
112198.75
112168.7
112138.77
112108.96
112079.28
112049.72
112020.28
111990.97
111961.8
111932.75
111903.84
111875.06
111846.41
111817.91
111789.54
111761.31
111733.23
111705.29
111677.49
111649.84
111622.35
111595
111567.8
111540.75
111513.87
111487.13
111460.56
111434.14
111407.88
111381.79
111355.86
111330.1
111304.5
111279.07
111253.81
111228.71
111203.79
111179.05
111154.48
111130.08
111105.86
111081.82
111057.96
111034.28
111010.78
110987.47
110964.34
110941.39
110918.63
110896.06
110873.67
110851.48
110829.48
110807.66
110786.04
110764.62
110743.38
110722.35
110701.5
110680.86
110660.41
110640.16
110620.11
110600.26
110580.6
110561.15
110541.9
110522.85
110504
110485.36
110466.91
110448.67
110430.64
110412.81
110395.18
110377.75
110360.53
110343.52
110326.71
110310.1
110293.7
110277.5
110261.51
110245.72
110230.14
110214.76
110199.58
110184.61
110169.84
110155.27
110140.91
110126.74
110112.78
110099.02
110085.46
110072.1
110058.94
110045.97
110033.21
110020.64
110008.27
109996.09
109984.1
109972.31
109960.71
109949.3
109938.09
109927.06
109916.22
109905.56
109895.09
109884.81
109874.7
109864.78
109855.04
109845.48
109836.1
109826.89
109817.85
109808.99
109800.3
109791.78
109783.43
109775.24
109767.22
109759.36
109751.67
109744.13
109736.75
109729.53
109722.46
109715.54
109708.78
109702.16
109695.69
109689.36
109683.18
109677.14
109671.24
109665.48
109659.85
109654.35
109648.99
109643.76
109638.65
109633.67
109628.81
109624.08
109619.46
109614.96
109610.58
109606.31
109602.15
109598.11
109594.17
109590.33
109586.6
109582.97
109579.45
109576.02
109572.68
109569.44
109566.29
109563.24
109560.27
109557.39
109554.59
109551.87
109549.24
109546.69
109544.21
109541.81
109539.48
109537.23
109535.04
109532.93
109530.88
109528.9
109526.98
109525.12
109523.33
109521.59
109519.92
109518.29
109516.73
109515.21
109513.75
109512.34
109510.98
109509.66
109508.39
109507.17
109505.99
109504.85
109503.76
109502.7
109501.68
109500.7
109499.76
109498.85
109497.98
109497.14
109496.33
109495.55
109494.8
109494.09
109493.4
109492.73
109492.1
109491.48
109490.9
109490.34
109489.8
109489.28
109488.78
109488.31
109487.85
109487.41
109487
109486.6
109486.21
109485.85
109485.5
109485.16
109484.84
109484.53
109484.24
109483.96
109483.69
109483.44
109483.19
109482.96
109482.74
109482.53
109482.33
109482.14
109481.95
109481.78
109481.61
109481.45
109481.3
109481.16
109481.02
109480.9
109480.77
109480.66
109480.54
109480.44
109480.34
109480.24
109480.15
109480.07
109479.99
109479.91
109479.84
109479.77
109479.7
109479.64
109479.58
109479.53
109479.48
109479.43
109479.38
109479.34
109479.3
109479.26
109479.22
109479.19
109479.15
109479.12
109479.09
109479.07
109479.04
109479.02
109478.99
109478.97
109478.95
109478.93
109478.92
109478.9
109478.88
109478.87
109478.85
109478.84
109478.83
109478.82
109478.81
109478.79
109478.78
109478.77
109478.77
109478.76
109478.75
109478.74
109478.73
109478.72
109478.71
109478.71
109478.7
109478.69
109478.68
109478.68
109478.67
109478.66
109478.65
109478.64
109478.64
109478.63
109478.62
109478.61
109478.61
109478.6
109478.6
109478.59
109478.59
109478.58
109478.58
109478.58
109478.57
109478.57
109478.57
109478.56
109478.56
109478.55
109478.54
109478.54
109478.53
109478.53
109478.52
109478.51
109478.51
109478.5
109478.49
109478.48
109478.47
109478.47
109478.46
109478.45
109478.44
109478.43
109478.43
109478.42
109478.41
109478.4
109478.39
109478.39
109478.38
109478.37
109478.36
109478.36
109478.35
109478.34
109478.34
109478.33
109478.32
109478.32
109478.31
109478.3
109478.3
109478.29
109478.29
109478.29
109478.28
109478.28
109478.28
109478.27
109478.27
109478.27
109478.27
109478.27
109478.26
109478.26
109478.26
109478.25
109478.25
109478.24
109478.24
109478.24
109478.23
109478.23
109478.22
109478.22
109478.21
109478.21
109478.2
109478.2
109478.19
109478.19
109478.19
109478.18
109478.18
109478.17
109478.17
109478.16
109478.16
109478.15
109478.15
109478.14
109478.14
109478.14
109478.13
109478.13
109478.12
109478.12
109478.11
109478.11
109478.11
109478.1
109478.1
109478.09
109478.09
109478.09
109478.08
109478.08
109478.08
109478.07
109478.07
109478.06
109478.06
109478.06
109478.05
109478.05
109478.05
109478.04
109478.04
109478.04
109478.03
109478.03
109478.03
109478.03
109478.02
109478.02
109478.02
109478.01
109478.01
109478.01
109478
109478
109478
109477.99
109477.99
109477.99
109477.98
109477.98
109477.97
109477.97
109477.97
109477.96
109477.96
109477.96
109477.96
109477.95
109477.95
109477.95
109477.95
109477.95
109477.95
109477.94
109477.94
109477.94
109477.94
109477.94
109477.94
109477.93
109477.93
109477.93
109477.93
109477.93
109477.92
109477.92
109477.92
109477.92
109477.92
109477.91
109477.91
109477.91
109477.91
109477.9
109477.9
109477.9
109477.9
109477.89
109477.89
109477.89
109477.88
109477.88
109477.87
109477.87
109477.87
109477.86
109477.86
109477.86
109477.86
109477.86
109477.85
109477.85
109477.85
109477.85
109477.85
109477.85
109477.85
109477.85
109477.85
109477.85
109477.85
109477.85
109477.85
109477.85
109477.85
109477.85
109477.85
109477.85
109477.85
109477.85
109477.85
109477.85
109477.85
109477.85
109477.85
109477.85
109477.85
109477.84
109477.84
109477.84
109477.84
109477.84
109477.84
109477.83
109477.83
109477.83
109477.83
109477.83
109477.82
109477.82
109477.82
109477.82
109477.82
109477.82
109477.82
109477.81
109477.81
109477.81
109477.81
109477.81
109477.81
109477.81
109477.81
109477.81
109477.81
109477.81
109477.81
109477.81
109477.81
109477.81
109477.81
109477.81
109477.81
109477.81
109477.81
109477.81
109477.81
109477.81
109477.81
109477.81
109477.81
109477.81
109477.81
109477.81
109477.81
109477.81
109477.81
109477.81
109477.81
109477.81
109477.81
109477.81
109477.81
109477.81
109477.81
109477.81
109477.81
109477.81
109477.82
109477.82
109477.82
109477.82
109477.82
109477.82
109477.82
109477.82
109477.82
109477.82
109477.82
109477.83
109477.83
109477.83
109477.83
109477.83
109477.83
109477.83
109477.83
109477.84
109477.84
109477.84
109477.84
109477.84
109477.84
109477.84
109477.84
109477.85
109477.85
109477.85
109477.85
109477.85
109477.85
109477.85
109477.85
109477.85
109477.86
109477.86
109477.86
109477.86
109477.86
109477.86
109477.86
109477.86
109477.86
109477.86
109477.86
109477.87
109477.87
109477.87
109477.87
109477.87
109477.87
109477.87
109477.87
109477.87
109477.87
109477.87
109477.87
109477.87
109477.88
109477.88
109477.88
109477.88
109477.88
109477.88
109477.88
109477.88
109477.88
109477.88
109477.88
109477.88
109477.88
109477.88
109477.88
109477.89
109477.89
109477.89
109477.89
109477.89
109477.89
109477.89
109477.89
109477.89
109477.89
109477.89
109477.89
109477.89
109477.89
109477.89
109477.89
109477.89
109477.89
109477.89
109477.89
109477.89
109477.89
109477.89
109477.9
109477.9
109477.9
109477.9
109477.9
109477.9
109477.9
109477.9
109477.9
109477.9
109477.9
109477.9
109477.9
109477.9
109477.9
109477.9
109477.9
109477.9
109477.9
109477.9
109477.9
109477.9
109477.9
109477.9
109477.9
109477.9
109477.9
109477.9
109477.9
109477.9
109477.9
109477.9
109477.9
109477.9
109477.9
109477.9
109477.91
109477.91
109477.91
109477.91
109477.91
109477.91
109477.91
109477.91
109477.91
109477.92
109477.92
109477.92
109477.92
109477.92
109477.92
109477.92
109477.93
109477.93
109477.93
109477.93
109477.93
109477.93
109477.93
109477.93
109477.94
109477.94
109477.94
109477.94
109477.94
109477.94
109477.94
109477.94
109477.95
109477.95
109477.95
109477.95
109477.95
109477.95
109477.95
109477.95
109477.95
109477.95
109477.96
109477.96
109477.96
109477.96
109477.96
109477.96
109477.96
109477.96
109477.96
109477.96
109477.96
109477.96
109477.97
109477.97
109477.97
109477.97
109477.97
109477.97
109477.97
109477.97
109477.97
109477.97
109477.97
109477.97
109477.97
109477.97
109477.97
109477.97
109477.98
109477.98
109477.98
109477.98
109477.98
109477.98
109477.98
109477.98
109477.98
109477.98
109477.98
109477.98
109477.98
109477.98
109477.98
109477.98
109477.98
109477.98
109477.98
109477.99
109477.99
109477.99
109477.99
109477.99
109477.99
109477.99
109477.99
109477.99
109477.99
109477.99
109477.99
109477.99
109477.99
109477.99
109477.99
109477.99
109477.99
109477.99
109477.99
109477.99
109477.99
109477.99
109477.99
109477.99
109477.99
109477.99
109477.99
109477.99
109477.99
109478
109478
109478
109478
109478
109478
109478
109478
109478
109478
109478
109478
109478
109478
109478
109478
109478
109478
109478
109478
109478
109478
109478
109478.01
109478.01
109478.01
109478.01
109478.01
109478.01
109478.01
109478.01
109478.01
109478.01
109478.01
109478.01
109478.01
109478.01
109478.01
109478.01
109478.01
109478.01
109478.01
109478.01
109478.02
109478.02
109478.02
109478.02
109478.02
109478.02
109478.02
109478.02
109478.02
109478.02
109478.02
109478.02
109478.02
109478.02
109478.02
109478.02
109478.02
109478.02
109478.02
109478.02
109478.02
109478.02
109478.02
109478.02
109478.03
109478.03
109478.03
109478.03
109478.03
109478.03
109478.03
109478.03
109478.03
109478.03
109478.03
109478.03
109478.03
109478.03
109478.03
109478.03
109478.03
109478.03
109478.04
109478.04
109478.04
109478.04
109478.04
109478.04
109478.04
109478.04
109478.04
109478.04
109478.04
109478.04
109478.04
109478.04
109478.04
109478.04
109478.05
109478.05
109478.05
109478.05
109478.05
109478.05
109478.05
109478.05
109478.05
109478.05
109478.05
109478.05
109478.05
109478.05
109478.05
109478.05
109478.05
109478.05
109478.05
109478.05
109478.05
109478.06
109478.06
109478.06
109478.06
109478.06
109478.06
109478.06
109478.06
109478.06
109478.06
109478.06
109478.06
109478.06
109478.06
109478.06
109478.06
109478.06
109478.06
109478.06
109478.06
109478.06
109478.06
109478.06
109478.06
109478.06
109478.06
109478.06
109478.06
109478.06
109478.06
109478.06
109478.06
109478.06
109478.06
109478.06
109478.07
109478.07
109478.07
109478.07
109478.07
109478.07
109478.07
109478.07
109478.07
109478.07
109478.07
109478.07
109478.07
109478.07
109478.07
109478.07
109478.07
109478.07
109478.07
109478.07
109478.07
109478.08
109478.08
109478.08
109478.08
109478.08
109478.08
109478.08
109478.08
109478.08
109478.08
109478.08
109478.08
109478.08
109478.08
109478.08
109478.08
109478.08
109478.08
109478.08
109478.09
109478.09
109478.09
109478.09
109478.09
109478.09
109478.09
109478.09
109478.09
109478.09
109478.09
109478.09
109478.09
109478.09
109478.09
109478.09
109478.09
109478.09
109478.09
109478.09
109478.1
109478.1
109478.1
109478.1
109478.1
109478.1
109478.1
109478.1
109478.1
109478.1
109478.1
109478.1
109478.1
109478.1
109478.1
109478.1
109478.1
109478.1
109478.1
109478.1
109478.1
109478.1
109478.1
109478.1
109478.1
109478.1
109478.1
109478.1
109478.1
109478.11
109478.11
109478.11
109478.11
109478.11
109478.11
109478.11
109478.11
109478.11
109478.11
109478.11
109478.11
109478.11
109478.11
109478.11
109478.11
109478.11
109478.11
109478.11
109478.11
109478.11
109478.11
109478.11
109478.11
109478.11
109478.11
109478.11
109478.11
109478.11
109478.11
109478.11
109478.11
109478.11
109478.11
109478.11
109478.11
109478.11
109478.11
109478.11
109478.11
109478.11
109478.11
109478.11
109478.11
109478.11
109478.11
109478.11
109478.11
109478.11
109478.11
109478.11
109478.11
109478.11
109478.11
109478.11
109478.11
109478.11
109478.11
109478.11
109478.11
109478.11
109478.11
109478.11
109478.11
109478.11
109478.11
109478.11
109478.11
109478.11
109478.11
109478.11
109478.11
109478.11
109478.11
109478.11
109478.11
109478.11
109478.11
109478.11
109478.11
109478.11
109478.11
109478.11
109478.11
109478.11
109478.11
109478.12
109478.12
109478.12
109478.12
109478.12
109478.12
109478.12
109478.12
109478.12
109478.12
109478.12
109478.12
109478.12
109478.12
109478.12
109478.12
109478.12
109478.12
109478.13
109478.13
109478.13
109478.13
109478.13
109478.13
109478.13
109478.13
109478.13
109478.13
109478.13
109478.13
109478.13
109478.13
109478.13
109478.13
109478.13
109478.13
109478.14
109478.14
109478.14
109478.14
109478.14
109478.14
109478.14
109478.14
109478.14
109478.14
109478.14
109478.14
109478.14
109478.14
109478.14
109478.14
109478.14
109478.14
109478.14
109478.14
109478.14
109478.14
109478.14
109478.14
109478.14
109478.14
109478.14
109478.14
109478.15
109478.15
109478.15
109478.15
109478.15
109478.15
109478.15
109478.15
109478.15
109478.15
109478.15
109478.15
109478.15
109478.15
109478.15
109478.15
109478.15
109478.15
109478.15
109478.15
109478.15
109478.15
109478.15
109478.15
109478.15
109478.15
109478.15
109478.15
109478.15
109478.15
109478.15
109478.15
109478.15
109478.15
109478.15
109478.15
109478.15
109478.15
109478.15
109478.15
109478.15
109478.15
109478.15
109478.15
109478.15
109478.15
109478.15
109478.15
109478.15
109478.15
109478.15
109478.15
109478.15
109478.15
109478.15
109478.15
109478.15
109478.15
109478.15
109478.15
109478.15
109478.15
109478.15
109478.15
109478.15
109478.15
109478.15
109478.15
109478.16
109478.16
109478.16
109478.16
109478.16
109478.16
109478.16
109478.16
109478.16
109478.16
109478.16
109478.16
109478.16
109478.16
109478.16
109478.16
109478.16
109478.16
109478.16
109478.16
109478.16
109478.16
109478.16
109478.16
109478.16
109478.16
109478.16
109478.16
109478.16
109478.16
109478.16
109478.16
109478.16
109478.16
109478.16
109478.16
109478.16
109478.16
109478.16
109478.16
109478.16
109478.16
109478.16
109478.16
109478.16
109478.16
109478.16
109478.16
109478.16
109478.16
109478.17
109478.17
109478.17
109478.17
109478.17
109478.17
109478.17
109478.17
109478.17
109478.17
109478.17
109478.17
109478.17
109478.17
109478.17
109478.17
109478.17
109478.17
109478.17
109478.17
109478.17
109478.17
109478.17
109478.17
109478.17
109478.17
109478.17
109478.17
109478.17
109478.17
109478.17
109478.17
109478.17
109478.17
109478.17
109478.17
109478.17
109478.18
109478.18
109478.18
109478.18
109478.18
109478.18
109478.18
109478.18
109478.18
109478.18
109478.18
109478.18
109478.18
109478.18
109478.18
109478.18
109478.18
109478.18
109478.18
109478.18
109478.18
109478.18
109478.18
109478.18
109478.18
109478.18
109478.18
109478.18
109478.18
109478.18
109478.18
109478.18
109478.18
109478.18
109478.18
109478.18
109478.19
109478.19
109478.19
109478.19
109478.19
109478.19
109478.19
109478.19
109478.19
109478.19
109478.19
109478.19
109478.19
109478.19
109478.19
109478.19
109478.19
109478.19
109478.19
109478.19
109478.19
109478.19
109478.19
109478.19
109478.19
109478.19
109478.19
109478.19
109478.19
109478.19
109478.19
109478.19
109478.19
109478.19
109478.19
109478.19
109478.19
109478.19
109478.19
109478.19
109478.19
109478.19
109478.19
109478.19
109478.19
109478.19
109478.19
109478.19
109478.19
109478.19
109478.19
109478.19
109478.19
109478.19
109478.19
109478.19
109478.19
109478.19
109478.19
109478.19
109478.19
109478.19
109478.19
109478.19
109478.19
109478.19
109478.19
109478.19
109478.19
109478.19
109478.19
109478.19
109478.19
109478.19
109478.19
109478.19
109478.19
109478.19
109478.2
109478.2
109478.2
109478.2
109478.2
109478.2
109478.2
109478.2
109478.2
109478.2
109478.2
109478.2
109478.2
109478.2
109478.2
109478.2
109478.2
109478.2
109478.2
109478.2
109478.2
109478.2
109478.2
109478.2
109478.2
109478.2
109478.2
109478.2
109478.2
109478.2
109478.2
109478.2
109478.2
109478.2
109478.2
109478.2
109478.2
109478.2
109478.2
109478.2
109478.2
109478.2
109478.2
109478.2
109478.2
109478.2
109478.2
109478.2
109478.2
109478.2
109478.2
109478.2
109478.2
109478.2
109478.2
109478.2
109478.2
109478.2
109478.2
109478.2
109478.2
109478.2
109478.2
109478.2
109478.2
109478.2
109478.2
109478.2
109478.2
109478.2
109478.2
109478.2
109478.21
109478.21
109478.21
109478.21
109478.21
109478.21
109478.21
109478.21
109478.21
109478.21
109478.21
109478.21
109478.21
109478.21
109478.21
109478.21
109478.21
109478.21
109478.21
109478.21
109478.21
109478.21
109478.21
109478.21
109478.21
109478.21
109478.21
109478.21
109478.21
109478.21
109478.21
109478.21
109478.21
109478.21
109478.21
109478.21
109478.21
109478.21
109478.21
109478.21
109478.21
109478.21
109478.21
109478.21
109478.21
109478.21
109478.21
109478.21
109478.21
109478.21
109478.21
109478.21
109478.21
109478.21
109478.21
109478.21
109478.21
109478.21
109478.21
109478.21
109478.21
109478.21
109478.21
109478.21
109478.21
109478.21
109478.21
109478.21
109478.21
109478.21
109478.21
109478.21
109478.21
109478.21
109478.21
109478.21
109478.22
109478.22
109478.22
109478.22
109478.22
109478.22
109478.22
109478.22
109478.22
109478.22
109478.22
109478.22
109478.22
109478.22
109478.22
109478.22
109478.22
109478.22
109478.22
109478.22
109478.22
109478.22
109478.22
109478.22
109478.22
109478.22
109478.22
109478.22
109478.22
109478.22
109478.22
109478.22
109478.22
109478.22
109478.22
109478.22
109478.22
109478.22
109478.22
109478.22
109478.22
109478.22
109478.22
109478.22
109478.22
109478.22
109478.22
109478.22
109478.22
109478.22
109478.22
109478.22
109478.22
109478.22
109478.22
109478.22
109478.22
109478.22
109478.22
109478.22
109478.22
109478.22
109478.22
109478.22
109478.22
109478.22
109478.22
109478.22
109478.22
109478.22
109478.22
109478.22
109478.22
109478.22
109478.22
109478.22
109478.22
109478.22
109478.22
109478.22
109478.22
109478.22
109478.22
109478.22
109478.22
109478.22
109478.22
109478.22
109478.22
109478.22
109478.22
109478.22
109478.22
109478.22
109478.22
109478.22
109478.22
109478.22
109478.22
109478.22
109478.22
109478.22
109478.22
109478.22
109478.22
109478.22
109478.22
109478.22
109478.22
109478.22
109478.22
109478.22
109478.22
109478.23
109478.23
109478.23
109478.23
109478.23
109478.23
109478.23
109478.23
109478.23
109478.23
109478.23
109478.23
109478.23
109478.23
109478.23
109478.23
109478.23
109478.23
109478.23
109478.23
109478.23
109478.23
109478.23
109478.23
109478.23
109478.23
109478.23
109478.23
109478.23
109478.23
109478.23
109478.23
109478.23
109478.23
109478.23
109478.23
109478.23
109478.23
109478.23
109478.23
109478.23
109478.23
109478.23
109478.23
109478.23
109478.23
109478.23
109478.23
109478.23
109478.23
109478.23
109478.23
109478.23
109478.23
109478.23
109478.23
109478.23
109478.23
109478.23
109478.23
109478.23
109478.23
109478.23
109478.23
109478.23
109478.23
109478.23
109478.23
109478.23
109478.23
109478.23
109478.24
109478.24
109478.24
109478.24
109478.24
109478.24
109478.24
109478.24
109478.24
109478.24
109478.24
109478.24
109478.24
109478.24
109478.24
109478.24
109478.24
109478.24
109478.24
109478.24
109478.24
109478.24
109478.24
109478.24
109478.24
109478.24
109478.24
109478.24
109478.24
109478.24
109478.24
109478.24
109478.24
109478.24
109478.24
109478.24
109478.24
109478.24
109478.24
109478.24
109478.24
109478.24
109478.24
109478.24
109478.24
109478.24
109478.24
109478.24
109478.24
109478.24
109478.24
109478.24
109478.24
109478.24
109478.24
109478.24
109478.24
109478.25
109478.25
109478.25
109478.25
109478.25
109478.25
109478.25
109478.25
109478.25
109478.25
109478.25
109478.25
109478.25
109478.25
109478.25
109478.25
109478.25
109478.25
109478.25
109478.25
109478.25
109478.25
109478.25
109478.25
109478.25
109478.25
109478.25
109478.25
109478.25
109478.25
109478.25
109478.25
109478.25
109478.25
109478.25
109478.25
109478.25
109478.25
109478.25
109478.25
109478.25
109478.25
109478.25
109478.25
109478.25
109478.25
109478.25
109478.25
109478.25
109478.25
109478.25
109478.25
109478.25
109478.25
109478.25
109478.25
109478.25
109478.25
109478.25
109478.25
109478.25
109478.25
109478.25
109478.25
109478.25
109478.25
109478.25
109478.25
109478.25
109478.25
109478.25
109478.25
109478.25
109478.25
109478.25
109478.25
109478.25
109478.25
109478.25
109478.25
109478.25
109478.25
109478.25
109478.25
109478.25
109478.25
109478.25
109478.25
109478.25
109478.25
109478.25
109478.25
109478.25
109478.25
109478.25
109478.25
109478.25
109478.25
109478.25
109478.25
109478.25
109478.25
109478.25
109478.25
109478.25
109478.25
109478.25
109478.25
109478.25
109478.25
109478.25
109478.25
109478.25
109478.25
109478.25
109478.25
109478.25
109478.25
109478.25
109478.25
109478.25
109478.25
109478.25
109478.25
109478.25
109478.25
109478.25
109478.25
109478.25
109478.25
109478.25
109478.25
109478.25
109478.25
109478.25
109478.25
109478.25
109478.25
109478.25
109478.25
109478.25
109478.25
109478.25
109478.25
109478.25
109478.25
109478.25
109478.25
109478.25
109478.25
109478.25
109478.25
109478.25
109478.25
109478.25
109478.25
109478.25
109478.25
109478.25
109478.25
109478.25
109478.25
109478.25
109478.25
109478.25
109478.25
109478.25
109478.25
109478.25
109478.25
109478.25
109478.25
109478.25
109478.25
109478.25
109478.25
109478.25
109478.25
109478.25
109478.25
109478.25
109478.25
109478.25
109478.25
109478.25
109478.25
109478.25
109478.25
109478.25
109478.25
109478.25
109478.25
109478.25
109478.25
109478.25
109478.25
109478.25
109478.25
109478.25
109478.25
109478.25
109478.25
109478.25
109478.25
109478.25
109478.25
109478.25
109478.25
109478.25
109478.25
109478.25
109478.25
109478.25
109478.25
109478.25
109478.25
109478.25
109478.25
109478.25
109478.25
109478.25
109478.25
109478.25
109478.25
109478.25
109478.25
109478.25
109478.25
109478.25
109478.25
109478.25
109478.25
109478.25
109478.25
109478.25
109478.25
109478.25
109478.25
109478.25
109478.25
109478.25
109478.25
109478.25
109478.25
109478.25
109478.25
109478.25
109478.25
109478.25
109478.26
109478.26
109478.26
109478.26
109478.26
109478.26
109478.26
109478.26
109478.26
109478.26
109478.26
109478.26
109478.26
109478.26
109478.26
109478.26
109478.26
109478.26
109478.26
109478.26
109478.26
109478.26
109478.26
109478.26
109478.26
109478.26
109478.26
109478.26
109478.26
109478.26
109478.26
109478.26
109478.26
109478.26
109478.26
109478.26
109478.26
109478.26
109478.26
109478.26
109478.26
109478.26
109478.26
109478.26
109478.26
109478.26
109478.26
109478.26
109478.26
109478.26
109478.26
109478.26
109478.26
109478.26
109478.26
109478.26
109478.26
109478.26
109478.26
109478.26
109478.26
109478.26
109478.26
109478.26
109478.26
109478.26
109478.26
109478.26
109478.26
109478.26
109478.26
109478.26
109478.26
109478.26
109478.26
109478.26
109478.26
109478.26
109478.26
109478.26
109478.26
109478.26
109478.26
109478.26
109478.26
109478.26
109478.26
109478.26
109478.26
109478.26
109478.26
109478.26
109478.26
109478.26
109478.26
109478.26
109478.26
109478.26
109478.26
109478.26
109478.26
109478.26
109478.26
109478.26
109478.26
109478.26
109478.26
109478.26
109478.26
109478.26
109478.26
109478.26
109478.26
109478.26
109478.26
109478.26
109478.26
109478.26
109478.26
109478.26
109478.26
109478.26
109478.26
109478.26
109478.26
109478.26
109478.26
109478.26
109478.26
109478.26
109478.26
109478.26
109478.26
109478.26
109478.26
109478.26
109478.26
109478.26
109478.26
109478.26
109478.26
109478.26
109478.26
109478.26
109478.26
109478.26
109478.26
109478.26
109478.26
109478.26
109478.26
109478.26
109478.26
109478.26
109478.26
109478.26
109478.26
109478.26
109478.26
109478.26
109478.26
109478.26
109478.26
109478.26
109478.26
109478.26
109478.26
109478.26
109478.26
109478.26
109478.26
109478.26
109478.26
109478.26
109478.26
109478.26
109478.26
109478.26
109478.26
109478.26
109478.26
109478.26
109478.26
109478.26
109478.26
109478.26
109478.26
109478.26
109478.26
109478.26
109478.26
109478.26
109478.26
109478.26
109478.26
109478.26
109478.26
109478.26
109478.26
109478.26
109478.26
109478.26
109478.26
109478.26
109478.26
109478.26
109478.26
109478.26
109478.26
109478.26
109478.26
109478.26
109478.26
109478.26
109478.26
109478.26
109478.26
109478.26
109478.26
109478.26
109478.26
109478.26
109478.26
109478.26
109478.26
109478.26
109478.26
109478.26
109478.26
109478.26
109478.26
109478.27
109478.27
109478.27
109478.27
109478.27
109478.27
109478.26
109478.25
109478.24
109478.23
109478.22
109478.22
109478.22
109478.24
109478.29
109478.31
109478.3
109478.28
109478.28
109478.27
109478.27
109478.26
109478.26
109478.26
109478.26
109478.26
109478.26
109478.26
109478.26
109478.26
109478.26
109478.26
109478.26
109478.26
109478.26
109478.26
109478.26
109478.26
109478.26
109478.26
109478.26
109478.26
109478.26
109478.26
109478.26
109478.26
109478.26
109478.26
109478.26
109478.26
109478.26
109478.26
109478.26
109478.26
109478.26
109478.26
109478.26
109478.26
109478.26
109478.26
109478.26
109478.26
109478.26
109478.26
109478.26
109478.26
109478.26
109478.26
109478.26
109478.26
109478.26
109478.26
109478.26
109478.26
109478.26
109478.26
109478.26
109478.26
109478.26
109478.26
109478.26
109478.26
109478.26
109478.26
109478.26
109478.26
109478.26
109478.26
109478.26
109478.26
109478.26
109478.26
109478.26
109478.26
109478.26
109478.26
109478.26
109478.26
109478.26
109478.26
109478.26
109478.26
109478.26
109478.26
109478.26
109478.26
109478.26
109478.26
109478.26
109478.26
109478.26
109478.26
109478.26
109478.26
109478.26
109478.26
109478.26
109478.26
109478.26
109478.26
109478.26
109478.26
109478.26
109478.26
109478.26
109478.26
109478.26
109478.26
109478.26
109478.26
109478.26
109478.26
109478.26
109478.26
109478.26
109478.26
109478.26
109478.26
109478.26
109478.26
109478.26
109478.26
109478.26
109478.26
109478.26
109478.26
109478.26
109478.26
109478.26
109478.26
109478.26
109478.26
109478.26
109478.26
109478.26
109478.26
109478.26
109478.26
109478.26
109478.26
109478.26
109478.26
109478.26
109478.26
109478.26
109478.26
109478.26
109478.26
109478.26
109478.26
109478.26
109478.26
109478.26
109478.26
109478.26
109478.26
109478.26
109478.26
109478.26
109478.26
109478.26
109478.26
109478.26
109478.26
109478.26
109478.26
109478.26
109478.26
109478.26
109478.26
109478.26
109478.26
109478.26
109478.26
109478.26
109478.26
109478.26
109478.26
109478.26
109478.26
109478.26
109478.26
109478.26
109478.26
109478.26
109478.26
109478.26
109478.26
109478.26
109478.26
109478.26
109478.26
109478.26
109478.26
109478.26
109478.26
109478.26
109478.26
109478.26
109478.26
109478.26
109478.26
109478.26
109478.26
109478.26
109478.26
109478.26
109478.26
109478.26
109478.26
109478.26
109478.26
109478.26
109478.26
109478.26
109478.26
109478.26
109478.26
109478.26
109478.26
109478.26
109478.26
109478.26
109478.26
109478.26
109478.26
109478.26
109478.26
109478.26
109478.26
109478.26
109478.26
109478.26
109478.26
109478.26
109478.26
109478.26
109478.26
109478.26
109478.26
109478.26
109478.26
109478.26
109478.26
109478.26
109478.26
109478.26
109478.26
109478.26
109478.26
109478.26
109478.26
109478.26
109478.26
109478.26
109478.26
109478.26
109478.26
109478.26
109478.26
109478.26
109478.26
109478.26
109478.26
109478.26
109478.26
109478.26
109478.26
109478.26
109478.26
109478.26
109478.26
109478.26
109478.26
109478.26
109478.26
109478.26
109478.26
109478.26
109478.26
109478.26
109478.26
109478.26
109478.26
109478.26
109478.26
109478.26
109478.26
109478.26
109478.26
109478.26
109478.26
109478.26
109478.26
109478.26
109478.26
109478.26
109478.26
109478.26
109478.26
109478.26
109478.26
109478.26
109478.26
109478.26
109478.26
109478.26