/*--------------------------------*- C++ -*----------------------------------*\
  =========                 |
  \\      /  F ield         | OpenFOAM: The Open Source CFD Toolbox
   \\    /   O peration     | Website:  https://openfoam.org
    \\  /    A nd           | Version:  7
     \\/     M anipulation  |
\*---------------------------------------------------------------------------*/
FoamFile
{
    version     2.0;
    format      ascii;
    class       volVectorField;
    location    "0.00068";
    object      U;
}
// * * * * * * * * * * * * * * * * * * * * * * * * * * * * * * * * * * * * * //

dimensions      [0 1 -1 0 0 0 0];

internalField   nonuniform List<vector> 
5000
(
(-29.121068 1.3820283e-16 0)
(-29.095377 1.548643e-16 0)
(-29.075994 0 0)
(-29.050121 0 0)
(-29.025375 -8.0816065e-17 0)
(-28.998904 9.212485e-32 -8.1033875e-17)
(-28.972562 8.1257631e-17 -1.7321106e-31)
(-28.945304 0 2.4429857e-16)
(-28.918079 0 8.1582918e-17)
(-28.890425 -8.1688797e-17 -1.6337759e-16)
(-28.862759 -1.6349708e-16 -1.6349708e-16)
(-28.834951 8.1764875e-17 8.1764875e-17)
(-28.807124 8.1733815e-17 -6.9690442e-31)
(-28.779286 -8.1660186e-17 -7.1948585e-31)
(-28.751459 0 1.6310879e-16)
(-28.723662 -8.142925e-17 -1.628585e-16)
(-28.695903 -1.0490983e-46 -5.2454915e-47)
(-28.668191 8.1141574e-17 -7.149165e-31)
(-28.640526 0 -8.0988378e-17)
(-28.612914 8.0834809e-17 1.6166962e-16)
(-28.585353 -8.067832e-17 8.067832e-17)
(-28.557847 -8.0522522e-17 0)
(-28.530392 1.6072798e-16 0)
(-28.502994 -8.0206263e-17 -8.0206263e-17)
(-28.475648 -8.0047266e-17 6.8252404e-31)
(-28.448357 -6.5849116e-31 -6.5849116e-31)
(-28.421119 7.9739935e-17 -7.9739935e-17)
(-28.393933 7.9597681e-17 7.9597681e-17)
(-28.366793 -1.5893382e-16 7.946691e-17)
(-28.339699 1.3757762e-30 -7.9353807e-17)
(-28.312639 -1.3854143e-30 1.3854143e-30)
(-28.285613 7.9189974e-17 -6.7521433e-31)
(-28.258602 1.582876e-16 -7.9143801e-17)
(-28.231613 -1.5825113e-16 7.9125564e-17)
(-28.204618 1.3718586e-30 7.9127843e-17)
(-28.17763 -6.8844647e-30 0)
(-28.150615 -2.7465587e-30 0)
(-28.123593 1.5856567e-16 -7.9282837e-17)
(-28.096531 -1.5874265e-16 -7.9371323e-17)
(-28.069449 -1.5894943e-16 7.9474715e-17)
(-28.042317 1.5917035e-16 -1.3345486e-30)
(-28.01516 -5.4820239e-30 -7.9703127e-17)
(-27.987953 -1.5964375e-16 7.9821873e-17)
(-27.960714 7.994083e-17 -1.3518727e-30)
(-27.933427 2.4016231e-16 -8.0054104e-17)
(-27.906111 -8.0162716e-17 8.0162716e-17)
(-27.878752 -8.0262179e-17 -2.7602379e-30)
(-27.851368 -5.503946e-30 2.751973e-30)
(-27.823949 -1.6087012e-16 -2.7661833e-30)
(-27.796508 0 1.3728902e-30)
(-27.769042 8.0568825e-17 8.0568825e-17)
(-27.741559 1.1457e-32 0)
(-27.714058 -8.0664847e-17 0)
(-27.686546 1.6140026e-16 0)
(-27.659022 -2.8221355e-30 0)
(-27.631491 -1.6149713e-16 0)
(-27.603954 8.0763357e-17 0)
(-27.576414 -2.7892812e-30 0)
(-27.548871 -8.0777779e-17 0)
(-27.521328 0 0)
(-27.493786 8.0775808e-17 0)
(-27.466245 2.7547613e-30 0)
(-27.438707 2.2954195e-32 0)
(-27.411171 8.0753514e-17 -8.0753514e-17)
(-27.38364 -8.0742646e-17 -8.0742646e-17)
(-27.356113 2.8222361e-30 8.0730574e-17)
(-27.328591 8.0717529e-17 -1.3879487e-30)
(-27.301073 -8.0703708e-17 -3.6129436e-49)
(-27.273561 -8.0689271e-17 8.0689271e-17)
(-27.246054 8.0674347e-17 0)
(-27.218553 8.0659042e-17 0)
(-27.191058 -8.0643441e-17 -8.0643441e-17)
(-27.163568 -8.0627611e-17 -8.0627611e-17)
(-27.136084 1.6122321e-16 0)
(-27.108606 8.0595469e-17 8.0595469e-17)
(-27.081134 -8.0579231e-17 2.7825924e-30)
(-27.053668 0 -8.056292e-17)
(-27.026208 8.0546554e-17 -8.0546554e-17)
(-26.998755 -1.1444023e-32 8.0530149e-17)
(-26.971307 -8.0513718e-17 1.6102744e-16)
(-26.943865 8.0497269e-17 -1.6099454e-16)
(-26.916429 -2.2874022e-32 4.5748043e-32)
(-26.888999 2.2869342e-32 2.4139303e-16)
(-26.861576 8.0447875e-17 -1.6089575e-16)
(-26.834158 8.0431407e-17 -8.366753e-30)
(-26.806746 2.7997744e-30 1.6082989e-16)
(-26.779341 -8.0398484e-17 -2.4119545e-16)
(-26.751941 0 8.0382031e-17)
(-26.724548 -8.0365585e-17 8.0365585e-17)
(-26.697161 -8.3353593e-30 -8.0349146e-17)
(-26.669779 -2.8083275e-30 8.0332716e-17)
(-26.642404 8.0316293e-17 8.0316293e-17)
(-26.615035 8.029988e-17 2.7957683e-30)
(-26.587672 -1.6056695e-16 -1.6056695e-16)
(-26.560315 -5.5550327e-30 -5.5550327e-30)
(-26.532963 8.0250692e-17 -8.0250692e-17)
(-26.505618 0 -8.0234314e-17)
(-26.478279 0 -2.8157149e-30)
(-26.450946 -8.0201586e-17 5.5846921e-30)
(-26.423619 -5.5607635e-30 1.6037047e-16)
(-26.396298 1.6033779e-16 8.0168894e-17)
(-26.368983 -8.0152562e-17 -8.0152562e-17)
(-26.341674 -1.6027248e-16 1.1388044e-32)
(-26.314371 0 8.0119925e-17)
(-26.287074 8.0103621e-17 0)
(-26.259783 8.0087325e-17 -8.0087325e-17)
(-26.232498 -8.0071039e-17 -2.7878009e-30)
(-26.205219 -8.0054762e-17 8.0054762e-17)
(-26.177946 0 -8.0038494e-17)
(-26.150679 0 -8.0022235e-17)
(-26.123418 8.0005986e-17 1.6001197e-16)
(-26.096163 7.9989745e-17 7.9989745e-17)
(-26.068914 0 -2.3992054e-16)
(-26.04167 -7.9957292e-17 -7.9957292e-17)
(-26.014433 2.7946364e-30 2.3982324e-16)
(-25.987202 7.9924874e-17 -7.9924874e-17)
(-25.959977 -7.9908679e-17 -7.9908679e-17)
(-25.932757 2.2706812e-32 -4.5413625e-32)
(-25.905544 -2.7923724e-30 -7.9876317e-17)
(-25.878337 -4.6938363e-49 2.3958045e-16)
(-25.851135 1.5968798e-16 -5.5824846e-30)
(-25.823939 -3.4032655e-32 -1.5965568e-16)
(-25.79675 -7.98117e-17 1.596234e-16)
(-25.769566 0 7.9795569e-17)
(-25.742388 -7.9779446e-17 -7.9779446e-17)
(-25.715217 7.9763333e-17 7.9763333e-17)
(-25.688051 7.9747228e-17 -7.9747228e-17)
(-25.660891 -1.5946227e-16 -1.5946227e-16)
(-25.633737 -7.9715046e-17 7.9715046e-17)
(-25.606589 1.5939794e-16 2.7521948e-30)
(-25.579446 7.96829e-17 7.96829e-17)
(-25.55231 -7.9666841e-17 1.5933368e-16)
(-25.52518 -7.965079e-17 -7.965079e-17)
(-25.498055 -7.9634749e-17 -7.9634749e-17)
(-25.470937 0 -7.9618716e-17)
(-25.443824 7.9602693e-17 -2.7714946e-30)
(-25.416717 7.9586678e-17 -2.7596271e-30)
(-25.389616 -7.9570672e-17 2.7703798e-30)
(-25.362521 -2.7585174e-30 1.5910935e-16)
(-25.335432 7.9538687e-17 7.9538687e-17)
(-25.308349 -7.9522709e-17 -7.9522709e-17)
(-25.281271 -7.9506738e-17 -1.5901348e-16)
(-25.2542 0 -7.9490777e-17)
(-25.227134 7.9474825e-17 -7.9474825e-17)
(-25.200074 7.9458882e-17 5.5103917e-30)
(-25.17302 -7.9442947e-17 1.5888589e-16)
(-25.145972 7.9427022e-17 -2.2574517e-32)
(-25.11893 -4.5139987e-32 2.2569994e-32)
(-25.091894 -7.9395197e-17 4.1466725e-48)
(-25.064863 7.9379298e-17 7.9379298e-17)
(-25.037839 -7.9363408e-17 -5.5037707e-30)
(-25.01082 5.5252213e-30 1.1050443e-29)
(-24.983807 7.9331655e-17 7.9331655e-17)
(-24.9568 -7.9315791e-17 -7.9315791e-17)
(-24.929798 7.9299936e-17 7.9299936e-17)
(-24.902803 7.928409e-17 2.749135e-30)
(-24.875813 -7.9268253e-17 -7.9268253e-17)
(-24.848829 0 7.9252425e-17)
(-24.821851 0 -1.1260199e-32)
(-24.794879 -7.9220794e-17 -7.9220794e-17)
(-24.767913 -7.9204992e-17 0)
(-24.740952 7.9189199e-17 7.9189199e-17)
(-24.713997 7.9173415e-17 5.4793436e-30)
(-24.687048 -7.9157639e-17 -1.5831528e-16)
(-24.660105 -5.4884074e-30 7.9141872e-17)
(-24.633168 7.9126114e-17 -2.2488994e-32)
(-24.606236 -7.9110364e-17 -7.9110364e-17)
(-24.57931 -7.9094623e-17 7.9094623e-17)
(-24.55239 0 -7.9078891e-17)
(-24.525476 7.9063168e-17 7.9063168e-17)
(-24.498568 7.9047453e-17 -3.2936091e-29)
(-24.471665 0 -2.1923081e-29)
(-24.444768 -7.901605e-17 7.901605e-17)
(-24.417877 -7.9000361e-17 -1.5800072e-16)
(-24.390992 0 0)
(-24.364112 7.896901e-17 -5.4764196e-30)
(-24.337238 1.6426e-29 -1.6426e-29)
(-24.31037 -7.8937693e-17 7.8937693e-17)
(-24.283508 7.8922048e-17 7.8922048e-17)
(-24.256651 7.8906411e-17 5.4384386e-30)
(-24.229801 -7.8890783e-17 -7.8890783e-17)
(-24.202955 -5.4474937e-30 7.8875163e-17)
(-24.176116 5.4240023e-30 5.4240023e-30)
(-24.149283 3.3613197e-32 3.3613197e-32)
(-24.122455 7.8828356e-17 1.0922129e-29)
(-24.095633 -7.8812771e-17 -1.5762554e-16)
(-24.068816 -1.0929009e-29 7.8797194e-17)
(-24.042005 5.4186425e-30 7.8781626e-17)
(-24.015201 -5.4175723e-30 -5.4175723e-30)
(-23.988401 7.8750515e-17 5.4276938e-30)
(-23.961608 0 -1.6369379e-29)
(-23.93482 0 5.4367387e-30)
(-23.908038 -7.8703913e-17 -7.8703913e-17)
(-23.881262 -7.8688396e-17 0)
(-23.854491 0 0)
(-23.827726 0 0)
(-23.800967 7.8641896e-17 0)
(-23.774213 4.4663495e-49 -7.8626413e-17)
(-23.747465 -7.8610939e-17 1.6388277e-29)
(-23.720723 0 7.8595473e-17)
(-23.693986 7.8580015e-17 7.8580015e-17)
(-23.667256 -7.8564566e-17 -7.8564566e-17)
(-23.64053 -2.1766879e-29 -7.8549125e-17)
(-23.613811 1.5706739e-16 1.5706739e-16)
(-23.587097 -7.8518269e-17 5.4340031e-30)
(-23.560389 -1.6298809e-29 -1.6298809e-29)
(-23.533686 -1.1153737e-32 -7.8487447e-17)
(-23.50699 -7.8472048e-17 -7.8472048e-17)
(-23.480298 7.8456658e-17 7.8456658e-17)
(-23.453613 -1.1147176e-32 0)
(-23.426933 -1.0855221e-29 7.8425903e-17)
(-23.400259 5.4265473e-30 5.4265473e-30)
(-23.37359 -7.8395181e-17 -7.8395181e-17)
(-23.346927 0 -7.8379833e-17)
(-23.32027 7.8364493e-17 1.0913539e-29)
(-23.293619 5.4222996e-30 7.8349161e-17)
(-23.266973 2.1740616e-29 -1.5666768e-16)
(-23.240332 7.8318523e-17 7.8318523e-17)
(-23.213697 0 7.8303217e-17)
(-23.187068 -7.8287919e-17 -7.8287919e-17)
(-23.160445 -7.8272629e-17 7.8272629e-17)
(-23.133827 0 0)
(-23.107215 0 0)
(-23.080608 0 0)
(-23.054007 7.8211552e-17 7.8211552e-17)
(-23.027412 5.4117208e-30 -7.8196304e-17)
(-23.000822 -7.8181064e-17 -1.5636213e-16)
(-22.974238 0 7.8165832e-17)
(-22.947659 0 -5.4307701e-30)
(-22.921086 7.8135393e-17 7.8135393e-17)
(-22.894519 7.8120185e-17 7.8120185e-17)
(-22.867957 -7.8104987e-17 -1.5620997e-16)
(-22.8414 -7.8089796e-17 2.2194455e-32)
(-22.81485 0 -2.219014e-32)
(-22.788305 7.8059439e-17 7.8059439e-17)
(-22.761765 7.8044273e-17 7.8044273e-17)
(-22.735231 -7.8029115e-17 -1.5605823e-16)
(-22.708703 -7.8013966e-17 1.1086451e-32)
(-22.68218 0 -1.6249583e-29)
(-22.655663 7.7983691e-17 7.7983691e-17)
(-22.629151 -2.1650319e-29 -4.3300639e-29)
(-22.602645 -5.4059915e-30 -1.0811983e-29)
(-22.576144 7.793834e-17 7.793834e-17)
(-22.549649 -7.792324e-17 -7.792324e-17)
(-22.52316 -7.7908147e-17 0)
(-22.496676 0 -7.7893063e-17)
(-22.470198 7.7877987e-17 7.7877987e-17)
(-22.443725 -1.0821557e-29 7.7862919e-17)
(-22.417257 7.7847859e-17 -7.7847859e-17)
(-22.390796 1.079525e-29 0)
(-22.364339 -1.5563553e-16 -7.7817763e-17)
(-22.337889 7.7802727e-17 7.7802727e-17)
(-22.311443 -1.0788994e-29 7.7787699e-17)
(-22.285004 -2.7000433e-29 -2.7000433e-29)
(-22.25857 -5.3813643e-30 -1.5551534e-16)
(-22.232141 -7.7742665e-17 -1.5548533e-16)
(-22.205718 7.772767e-17 2.3318301e-16)
(-22.1793 7.7712682e-17 1.5542536e-16)
(-22.152888 0 0)
(-22.126481 -7.7682731e-17 -1.5536546e-16)
(-22.10008 -7.7667768e-17 -7.7667768e-17)
(-22.073685 0 7.7652813e-17)
(-22.047295 7.7637866e-17 7.7637866e-17)
(-22.02091 7.7622926e-17 7.7622926e-17)
(-21.994531 -1.5521599e-16 -1.5521599e-16)
(-21.968157 -7.7593072e-17 -1.5518614e-16)
(-21.941789 7.7578156e-17 7.7578156e-17)
(-21.915426 7.7563249e-17 1.551265e-16)
(-21.889069 2.1511593e-29 2.1511593e-29)
(-21.862717 -7.7533458e-17 -1.5506692e-16)
(-21.836371 7.7518574e-17 7.7518574e-17)
(-21.81003 -5.3748017e-30 -1.0749603e-29)
(-21.783695 -7.7488831e-17 -7.7488831e-17)
(-21.757365 7.7473971e-17 1.5494794e-16)
(-21.731041 -5.3827178e-30 -7.7459119e-17)
(-21.704722 5.3926918e-30 1.0785384e-29)
(-21.678408 -2.200677e-32 7.7429439e-17)
(-21.6521 -5.346621e-30 -7.7414611e-17)
(-21.625798 7.739979e-17 7.739979e-17)
(-21.599501 0 -1.5476996e-16)
(-21.573209 0 3.2281211e-29)
(-21.546923 -7.7355376e-17 1.5471075e-16)
(-21.520642 -7.7340587e-17 -1.5468117e-16)
(-21.494366 0 -5.3514764e-30)
(-21.468096 0 7.7311032e-17)
(-21.441832 0 0)
(-21.415573 0 0)
(-21.389319 7.7266758e-17 7.7266758e-17)
(-21.363071 5.3244133e-30 -7.7252016e-17)
(-21.336828 -1.5447456e-16 -1.5447456e-16)
(-21.31059 3.2921955e-32 7.7222555e-17)
(-21.284358 7.7207835e-17 -2.1943787e-32)
(-21.258132 7.7193124e-17 7.7193124e-17)
(-21.23191 -1.0715456e-29 7.717842e-17)
(-21.205695 -1.0691484e-29 -7.7163724e-17)
(-21.179484 -1.0963537e-32 0)
(-21.153279 -7.7134356e-17 -7.7134356e-17)
(-21.127079 -7.7119683e-17 -7.7119683e-17)
(-21.100885 -7.7105017e-17 0)
(-21.074696 1.5418072e-16 1.5418072e-16)
(-21.048513 2.3122713e-16 7.707571e-17)
(-21.022335 -7.7061068e-17 -1.5412214e-16)
(-20.996162 -1.5409287e-16 5.3321419e-30)
(-20.969995 0 -2.1893756e-32)
(-20.943833 7.7017187e-17 7.7017187e-17)
(-20.917676 7.7002575e-17 7.7002575e-17)
(-20.891525 -7.6987971e-17 -7.6987971e-17)
(-20.865379 2.1877149e-32 7.6973375e-17)
(-20.839238 -3.2809504e-32 -7.6958786e-17)
(-20.813103 2.1868858e-32 4.3737717e-32)
(-20.786973 7.6929631e-17 1.5385926e-16)
(-20.760849 7.6915065e-17 -7.6915065e-17)
(-20.73473 -7.6900507e-17 -7.6900507e-17)
(-20.708616 -1.5377191e-16 -7.6885956e-17)
(-20.682508 7.6871413e-17 -1.0661907e-29)
(-20.656405 4.1536126e-49 7.6856878e-17)
(-20.630307 7.684235e-17 0)
(-20.604214 2.1289888e-29 0)
(-20.578127 -1.5362663e-16 -7.6813317e-17)
(-20.552046 0 1.0662751e-29)
(-20.525969 0 -2.1310565e-29)
(-20.499898 1.5353965e-16 -1.0669636e-29)
(-20.473832 -4.2626864e-29 7.6755344e-17)
(-20.447772 -1.5348174e-16 -7.674087e-17)
(-20.421717 0 1.0903478e-32)
(-20.395667 7.6711945e-17 7.6711945e-17)
(-20.369622 7.6697495e-17 0)
(-20.343583 -7.6683051e-17 0)
(-20.317549 1.0895266e-32 0)
(-20.291521 -1.0642671e-29 0)
(-20.265497 1.0891166e-32 0)
(-20.239479 7.6625357e-17 0)
(-20.213467 -7.6610953e-17 0)
(-20.187459 -7.6596557e-17 -7.6596557e-17)
(-20.161457 0 0)
(-20.13546 7.6567788e-17 7.6567788e-17)
(-20.109469 -1.062868e-29 0)
(-20.083483 -7.6539051e-17 -7.6539051e-17)
(-20.057501 1.5304939e-16 -2.1227635e-29)
(-20.031526 -2.1223655e-29 7.6510346e-17)
(-20.005555 -7.6496005e-17 0)
(-19.97959 -2.1237438e-29 0)
(-19.95363 -1.5293469e-16 -7.6467347e-17)
(-19.927675 1.5290606e-16 -1.0614743e-29)
(-19.901726 7.6438721e-17 7.6438721e-17)
(-19.875782 -7.642442e-17 0)
(-19.849843 -1.0858532e-32 0)
(-19.823909 -7.6395841e-17 -7.6395841e-17)
(-19.797981 0 -7.6381564e-17)
(-19.772058 0 7.6367294e-17)
(-19.74614 7.6353032e-17 7.6353032e-17)
(-19.720227 -1.0588031e-29 0)
(-19.69432 -1.5264906e-16 -7.6324531e-17)
(-19.668417 1.0844345e-32 1.0844345e-32)
(-19.64252 2.2888818e-16 7.6296061e-17)
(-19.616628 -7.6281837e-17 -7.6281837e-17)
(-19.590742 -7.626762e-17 -7.626762e-17)
(-19.564861 1.5250682e-16 7.6253411e-17)
(-19.538984 -7.6239209e-17 7.6239209e-17)
(-19.513114 7.6225014e-17 0)
(-19.487248 1.5242165e-16 -7.6210827e-17)
(-19.461387 -7.6196646e-17 -7.6196646e-17)
(-19.435532 -7.6182472e-17 7.6182472e-17)
(-19.409682 -7.6168305e-17 7.6168305e-17)
(-19.383837 7.6154144e-17 0)
(-19.357997 8.0547137e-49 -7.613999e-17)
(-19.332163 -7.6125842e-17 -7.6125842e-17)
(-19.306334 7.61117e-17 7.61117e-17)
(-19.28051 -7.6097564e-17 7.6097564e-17)
(-19.254691 7.6083434e-17 0)
(-19.228877 2.1079693e-29 0)
(-19.203068 2.1616185e-32 0)
(-19.177265 7.6041078e-17 0)
(-19.151467 -1.5205394e-16 0)
(-19.125674 7.6012866e-17 0)
(-19.099886 2.1103346e-29 0)
(-19.074104 -2.1077836e-29 0)
(-19.048326 -7.5970586e-17 -7.5970586e-17)
(-19.022554 -1.51913e-16 -6.4137911e-48)
(-18.996787 2.2782726e-16 7.5942421e-17)
(-18.971025 2.106221e-29 0)
(-18.945268 -4.2116614e-29 0)
(-18.919516 2.1032832e-29 0)
(-18.89377 -1.5177228e-16 -7.5886142e-17)
(-18.868029 1.5174416e-16 -1.0523302e-29)
(-18.842293 -2.1042704e-29 7.5858026e-17)
(-18.816562 -1.5168795e-16 -7.5843973e-17)
(-18.790836 0 1.0528231e-29)
(-18.765115 0 -1.0774085e-32)
(-18.7394 7.580184e-17 -1.0524331e-29)
(-18.713689 -1.0511612e-29 7.5787803e-17)
(-18.687984 -7.5773771e-17 -7.5773771e-17)
(-18.662284 -7.5759743e-17 7.5759743e-17)
(-18.636589 7.5745719e-17 -4.2087686e-29)
(-18.610899 2.271951e-16 -7.5731701e-17)
(-18.585215 -7.5717687e-17 7.5717687e-17)
(-18.559535 -7.5703679e-17 0)
(-18.533861 -2.15123e-32 0)
(-18.508192 -7.567568e-17 -7.567568e-17)
(-18.482528 0 -1.0504873e-29)
(-18.456869 1.5129542e-16 7.5647709e-17)
(-18.431215 1.5126747e-16 -7.5633734e-17)
(-18.405567 -7.5619768e-17 -7.5619768e-17)
(-18.379923 -1.5121162e-16 0)
(-18.354285 -7.5591865e-17 7.5591865e-17)
(-18.328651 1.5115586e-16 7.5577929e-17)
(-18.303023 1.5112801e-16 -7.5564004e-17)
(-18.2774 -1.5110018e-16 -2.0968021e-29)
(-18.251782 -1.5107239e-16 1.5802122e-48)
(-18.226169 0 -1.0485521e-29)
(-18.200561 1.5101688e-16 7.550844e-17)
(-18.174959 -7.5494589e-17 -7.5494589e-17)
(-18.149361 -1.5096151e-16 -6.2766703e-48)
(-18.123769 7.546694e-17 -1.0477834e-29)
(-18.098181 7.5453145e-17 -7.5453145e-17)
(-18.072599 -1.072058e-32 0)
(-18.047021 1.0472097e-29 0)
(-18.021449 7.5411898e-17 7.5411898e-17)
(-17.995882 -7.5398199e-17 1.0714729e-32)
(-17.97032 -7.5384528e-17 -3.1367037e-29)
(-17.944763 7.5370886e-17 7.5370886e-17)
(-17.91921 -1.0451899e-29 0)
(-17.893663 -1.0706983e-32 0)
(-17.868121 -1.0448137e-29 -7.533015e-17)
(-17.842584 -7.5316641e-17 2.0881823e-29)
(-17.817051 7.5303169e-17 7.5303169e-17)
(-17.791524 -3.1359692e-29 0)
(-17.766002 -1.0451371e-29 0)
(-17.740484 -2.088834e-29 0)
(-17.714972 -7.5249686e-17 -7.5249686e-17)
(-17.689464 7.5236426e-17 1.0691739e-32)
(-17.663961 -1.0443995e-29 7.5223212e-17)
(-17.638463 -2.085227e-29 -7.5210048e-17)
(-17.61297 -1.0686127e-32 7.5196934e-17)
(-17.587482 -1.5036774e-16 -2.0898434e-29)
(-17.561998 -7.5170864e-17 -1.5034173e-16)
(-17.536519 7.5157911e-17 7.5157911e-17)
(-17.511046 1.5029003e-16 3.1299413e-29)
(-17.485576 -1.0431355e-29 1.0431355e-29)
(-17.460112 -1.5023879e-16 -1.0429581e-29)
(-17.434652 -7.5106679e-17 -7.5106679e-17)
(-17.409197 1.5018804e-16 0)
(-17.383747 7.5081429e-17 0)
(-17.358301 -7.5068899e-17 7.5068899e-17)
(-17.33286 -7.5056435e-17 1.0420839e-29)
(-17.307423 -2.0827571e-29 -2.0827571e-29)
(-17.281991 7.5031705e-17 3.2253725e-49)
(-17.256564 0 -7.501944e-17)
(-17.231141 0 7.5007245e-17)
(-17.205723 7.4995117e-17 7.4995117e-17)
(-17.180309 0 0)
(-17.154899 -7.4971071e-17 -7.4971071e-17)
(-17.129494 7.4959153e-17 -1.0407333e-29)
(-17.104094 1.0650653e-32 7.4947305e-17)
(-17.078697 -2.0797456e-29 0)
(-17.053306 0 0)
(-17.027918 -7.4912181e-17 -7.4912181e-17)
(-17.002535 7.4900613e-17 2.1288035e-32)
(-16.977156 7.4889114e-17 2.8348176e-49)
(-16.951781 -1.4975537e-16 -7.4877685e-17)
(-16.926411 -7.4866324e-17 7.4866324e-17)
(-16.901045 7.4855032e-17 -1.0371601e-29)
(-16.875683 0 1.0391318e-29)
(-16.850325 0 -2.0768903e-29)
(-16.824971 -7.4821555e-17 -7.4821555e-17)
(-16.799622 2.0784026e-29 7.4810527e-17)
(-16.774277 7.4799563e-17 -2.077035e-29)
(-16.748935 0 2.0777951e-29)
(-16.723598 0 -2.077494e-29)
(-16.698265 -7.4767043e-17 -7.4767043e-17)
(-16.672936 3.1148139e-29 7.4756324e-17)
(-16.64761 7.4745662e-17 -2.0755383e-29)
(-16.622289 0 1.039746e-29)
(-16.596972 0 0)
(-16.571659 0 -7.4714009e-17)
(-16.546349 0 7.4703564e-17)
(-16.521044 0 -1.0370404e-29)
(-16.495742 0 1.0613068e-32)
(-16.470445 0 -1.0367538e-29)
(-16.445151 0 1.0376724e-29)
(-16.419861 1.4930414e-16 7.4652069e-17)
(-16.394575 4.1431929e-29 -7.4641905e-17)
(-16.369292 -7.4631781e-17 -7.4631781e-17)
(-16.344014 7.4621697e-17 7.4621697e-17)
(-16.318739 -7.4611651e-17 7.4611651e-17)
(-16.293468 7.4601641e-17 0)
(-16.268201 -2.0733821e-29 -7.4591665e-17)
(-16.242937 -7.4581723e-17 -7.4581723e-17)
(-16.217678 -2.0707108e-29 0)
(-16.192422 -7.4561932e-17 7.4561932e-17)
(-16.16717 0 -1.0350815e-29)
(-16.141921 0 1.0593092e-32)
(-16.116676 7.4532456e-17 1.0337498e-29)
(-16.091435 2.0693466e-29 -7.4522682e-17)
(-16.066197 -7.451293e-17 7.451293e-17)
(-16.040964 0 1.0333441e-29)
(-16.015734 0 -2.068536e-29)
(-15.990507 0 -7.4483803e-17)
(-15.965284 0 -7.4474132e-17)
(-15.940065 0 1.4892896e-16)
(-15.91485 0 -1.0580669e-32)
(-15.889638 0 1.0325399e-29)
(-15.864429 1.4887123e-16 7.4435613e-17)
(-15.839225 -6.1957568e-29 -7.442602e-17)
(-15.814024 -1.4883288e-16 1.0331982e-29)
(-15.788826 7.4406872e-17 7.4406872e-17)
(-15.763633 1.0572495e-32 0)
(-15.738442 7.4387772e-17 0)
(-15.713256 -4.1243294e-29 0)
(-15.688073 -1.4873743e-16 -7.4368714e-17)
(-15.662893 -7.43592e-17 -7.43592e-17)
(-15.637718 -1.9284847e-49 7.4349696e-17)
(-15.612545 2.230206e-16 7.4340202e-17)
(-15.587377 0 0)
(-15.562212 -1.4864248e-16 -7.432124e-17)
(-15.53705 0 -7.4311772e-17)
(-15.511893 0 7.4302313e-17)
(-15.486738 1.4858573e-16 7.4292864e-17)
(-15.461588 -2.0605916e-29 0)
(-15.43644 -2.2282198e-16 -7.4273992e-17)
(-15.411297 7.426457e-17 -7.426457e-17)
(-15.386157 7.4255157e-17 7.4255157e-17)
(-15.36102 -7.4245754e-17 2.0616568e-29)
(-15.335887 7.4236361e-17 -7.4236361e-17)
(-15.310758 -7.4226979e-17 0)
(-15.285632 -2.0587659e-29 0)
(-15.26051 7.4208246e-17 0)
(-15.235391 -7.4198897e-17 0)
(-15.210276 0 7.4189559e-17)
(-15.185164 -7.4180234e-17 -2.0577292e-29)
(-15.160056 7.4170922e-17 -7.4170922e-17)
(-15.134952 1.4832324e-16 7.4161622e-17)
(-15.109851 -7.4152337e-17 1.0295314e-29)
(-15.084753 -7.4143066e-17 -1.0304563e-29)
(-15.059659 -7.4133809e-17 1.8254645e-49)
(-15.034568 -7.4124567e-17 7.4124567e-17)
(-15.009481 1.4823068e-16 7.4115341e-17)
(-14.984398 7.4106131e-17 -1.4821226e-16)
(-14.959317 -7.4096937e-17 -1.0287623e-29)
(-14.934241 0 1.027582e-29)
(-14.909168 7.4078601e-17 -7.4078601e-17)
(-14.884098 -7.4069459e-17 0)
(-14.859032 -7.4060335e-17 7.4060335e-17)
(-14.833969 2.2215369e-16 7.405123e-17)
(-14.80891 2.1044043e-32 -7.4042143e-17)
(-14.783854 -1.4806615e-16 -2.053647e-29)
(-14.758801 7.4024025e-17 7.4024025e-17)
(-14.733752 1.0276246e-29 0)
(-14.708707 7.4005985e-17 0)
(-14.683665 -2.103121e-32 -7.3996993e-17)
(-14.658626 -1.4797604e-16 1.0261986e-29)
(-14.633591 7.3979069e-17 7.3979069e-17)
(-14.608559 0 0)
(-14.58353 -2.0537559e-29 -7.396122e-17)
(-14.558505 -1.0509257e-32 1.0509257e-32)
(-14.533483 -7.3943447e-17 -2.0532624e-29)
(-14.508465 7.3934588e-17 -1.0254575e-29)
(-14.48345 -2.0527709e-29 7.3925746e-17)
(-14.458438 -1.0252125e-29 -7.3916921e-17)
(-14.433429 -1.0502975e-32 1.0502975e-32)
(-14.408424 -7.3899321e-17 -2.0520371e-29)
(-14.383423 7.3890544e-17 -7.3890544e-17)
(-14.358424 1.6077126e-49 7.3881781e-17)
(-14.333429 -2.0513071e-29 2.0513071e-29)
(-14.308438 -1.0496748e-32 1.0496748e-32)
(-14.283449 -1.4771114e-16 -1.0254111e-29)
(-14.258464 -1.0242407e-29 -7.3846854e-17)
(-14.233483 7.3838148e-17 7.3838148e-17)
(-14.208504 0 0)
(-14.183529 0 -4.0986621e-29)
(-14.158557 -7.3812072e-17 -1.0237583e-29)
(-14.133589 -3.0709135e-29 -3.0709135e-29)
(-14.108624 7.379471e-17 -1.0486859e-32)
(-14.083662 -7.378603e-17 -7.378603e-17)
(-14.058703 1.0243251e-29 7.3777349e-17)
(-14.033748 6.327891e-49 6.327891e-49)
(-14.008796 -1.0240839e-29 -1.0240839e-29)
(-13.983847 7.3751283e-17 2.0479264e-29)
(-13.958902 7.374258e-17 -1.0238424e-29)
(-13.93396 1.0226736e-29 1.4746773e-16)
(-13.909021 -7.3725142e-17 -7.3725142e-17)
(-13.884086 0 -7.3716403e-17)
(-13.859153 0 -1.0233573e-29)
(-13.834225 7.3698873e-17 1.0232355e-29)
(-13.809299 -7.3690079e-17 1.4738016e-16)
(-13.784377 6.1337578e-29 -7.3681263e-17)
(-13.759458 7.3672421e-17 -7.3672421e-17)
(-13.734543 -7.3663553e-17 1.6839529e-49)
(-13.709631 0 0)
(-13.684722 7.3645728e-17 1.7151521e-49)
(-13.659817 7.3636767e-17 -7.3636767e-17)
(-13.634915 -7.362777e-17 7.362777e-17)
(-13.610017 -7.3618736e-17 1.7697542e-49)
(-13.585122 0 -1.0209509e-29)
(-13.56023 7.3600546e-17 -1.0459267e-32)
(-13.535342 7.3591386e-17 -7.3591386e-17)
(-13.510458 -1.4716436e-16 1.4716436e-16)
(-13.485577 -7.3572927e-17 2.0429738e-29)
(-13.460699 7.3563623e-17 -7.3563623e-17)
(-13.435825 7.3554268e-17 1.0201826e-29)
(-13.410954 1.0200521e-29 -1.0200521e-29)
(-13.386087 7.3535394e-17 7.3535394e-17)
(-13.361224 2.0416672e-29 -7.3525872e-17)
(-13.336364 -1.4703258e-16 -8.1809922e-49)
(-13.311507 0 -3.0627447e-29)
(-13.286655 0 2.0419084e-29)
(-13.261806 0 -2.0395484e-29)
(-13.236961 7.3477347e-17 -2.0403197e-29)
(-13.212119 7.3467448e-17 2.2036695e-49)
(-13.187281 0 0)
(-13.162447 -7.3447446e-17 7.3447446e-17)
(-13.137616 -1.0175172e-29 0)
(-13.11279 7.3427165e-17 0)
(-13.087967 0 -7.3416917e-17)
(-13.063148 0 -2.0383551e-29)
(-13.038333 -7.3396202e-17 7.3396202e-17)
(-13.013522 -1.017845e-29 0)
(-12.988715 1.0166561e-29 0)
(-12.963911 -7.3364575e-17 -1.4672915e-16)
(-12.939112 7.3353883e-17 -6.1065044e-29)
(-12.914316 -3.0517617e-29 1.4668623e-16)
(-12.889525 -7.3332271e-17 -7.3332271e-17)
(-12.864738 0 1.0419591e-32)
(-12.839954 -7.3310357e-17 -1.0178414e-29)
(-12.815175 -1.0176877e-29 -7.3299287e-17)
(-12.7904 7.3288141e-17 0)
(-12.765629 -7.3276921e-17 0)
(-12.740862 7.3265626e-17 0)
(-12.7161 7.3254257e-17 -7.3254257e-17)
(-12.691341 -7.3242814e-17 -2.0317255e-29)
(-12.666587 0 7.3231299e-17)
(-12.641837 7.3219712e-17 0)
(-12.617092 7.3208054e-17 0)
(-12.59235 -7.3196325e-17 -7.3196325e-17)
(-12.567613 -7.3184527e-17 1.0400147e-32)
(-12.542881 0 7.317266e-17)
(-12.518153 -7.3160726e-17 0)
(-12.493429 7.3148727e-17 0)
(-12.468709 7.3136662e-17 -7.3136662e-17)
(-12.443995 -7.3124533e-17 -2.0284445e-29)
(-12.419284 -1.4622469e-16 -2.0312233e-29)
(-12.394578 4.0596881e-29 2.0298441e-29)
(-12.369877 2.1926334e-16 7.308778e-17)
(-12.34518 3.4216522e-49 -7.3075411e-17)
(-12.320487 -7.3062985e-17 2.0277754e-29)
(-12.295799 -1.4610101e-16 -2.027429e-29)
(-12.271116 4.0520865e-29 2.0260432e-29)
(-12.246437 1.4605077e-16 7.3025384e-17)
(-12.221763 -7.3012747e-17 0)
(-12.197094 7.3000062e-17 0)
(-12.172429 -7.2987329e-17 -7.2987329e-17)
(-12.147769 -7.2974551e-17 -9.0591681e-48)
(-12.123114 1.4592346e-16 7.2961729e-17)
(-12.098463 0 0)
(-12.073817 0 0)
(-12.049176 -1.4584603e-16 -7.2923016e-17)
(-12.024539 -2.979643e-48 -5.959286e-48)
(-11.999907 1.4579404e-16 7.2897019e-17)
(-11.97528 0 0)
(-11.950658 0 0)
(-11.926041 -1.4571554e-16 -7.2857771e-17)
(-11.901428 -3.0447551e-48 -6.0895101e-48)
(-11.87682 1.4566291e-16 7.2831457e-17)
(-11.852217 0 0)
(-11.827619 0 0)
(-11.803025 -1.4558359e-16 -7.2791793e-17)
(-11.778437 -7.2778526e-17 1.0342451e-32)
(-11.753853 1.4553048e-16 7.276524e-17)
(-11.729274 7.2751934e-17 -7.2751934e-17)
(-11.7047 0 2.0208401e-29)
(-11.680131 -1.4545054e-16 -2.0204695e-29)
(-11.655567 4.0381304e-29 2.0190652e-29)
(-11.631007 1.453971e-16 7.2698548e-17)
(-11.606452 -7.2685167e-17 0)
(-11.581903 0 0)
(-11.557358 7.2658373e-17 0)
(-11.532818 -7.2644962e-17 0)
(-11.508283 1.0321563e-32 0)
(-11.483753 7.2618117e-17 -7.2618117e-17)
(-11.459227 -7.2604685e-17 2.0150559e-29)
(-11.434707 7.2591248e-17 7.2591248e-17)
(-11.410191 7.2577807e-17 0)
(-11.385681 -7.2564363e-17 0)
(-11.361175 -7.2550916e-17 0)
(-11.336674 2.0142211e-29 0)
(-11.312178 7.2524019e-17 0)
(-11.287687 -7.251057e-17 0)
(-11.263201 -2.0131008e-29 0)
(-11.23872 7.2483674e-17 -7.2483674e-17)
(-11.214244 -7.2470228e-17 4.0226483e-29)
(-11.189772 7.2456785e-17 7.2456785e-17)
(-11.165306 7.2443345e-17 0)
(-11.140844 -7.2429908e-17 0)
(-11.116387 -7.2416476e-17 0)
(-11.091935 2.0104886e-29 0)
(-11.067488 7.2389624e-17 0)
(-11.043046 -7.2376206e-17 0)
(-11.018609 1.0283371e-32 0)
(-10.994176 7.2349386e-17 -7.2349386e-17)
(-10.969749 -7.2335986e-17 2.0075984e-29)
(-10.945326 7.2322592e-17 7.2322592e-17)
(-10.920909 7.2309205e-17 0)
(-10.896496 -7.2295824e-17 0)
(-10.872088 -1.445649e-16 -7.2282451e-17)
(-10.847685 4.0155914e-29 2.0077957e-29)
(-10.823286 1.4451145e-16 7.2255727e-17)
(-10.798893 -7.2242377e-17 0)
(-10.774504 1.0264363e-32 0)
(-10.750121 1.444314e-16 0)
(-10.725742 2.0521149e-32 -7.2202373e-17)
(-10.701368 -7.2189055e-17 -2.0055723e-29)
(-10.676999 0 7.2175744e-17)
(-10.652634 7.2162442e-17 0)
(-10.628275 0 0)
(-10.60392 -7.2135863e-17 0)
(-10.57957 0 0)
(-10.555225 0 0)
(-10.530885 0 0)
(-10.50655 -7.2082805e-17 0)
(-10.482219 -3.9044317e-49 -7.2069561e-17)
(-10.457894 7.2056326e-17 1.023982e-32)
(-10.433573 0 7.2043098e-17)
(-10.409257 7.2029879e-17 0)
(-10.384945 -1.9997596e-29 0)
(-10.360639 -7.2003465e-17 0)
(-10.336337 0 0)
(-10.31204 0 0)
(-10.287748 0 0)
(-10.263461 -7.1950734e-17 0)
(-10.239179 1.9975632e-29 -7.1937571e-17)
(-10.214901 7.1924415e-17 -1.0221074e-32)
(-10.190628 0 7.1911267e-17)
(-10.16636 7.1898127e-17 0)
(-10.142097 1.9950817e-29 0)
(-10.117838 -7.1871868e-17 0)
(-10.093584 0 -7.185875e-17)
(-10.069335 7.1845639e-17 3.9889999e-29)
(-10.045091 -7.1832535e-17 7.1832535e-17)
(-10.020852 3.990607e-29 0)
(-9.9966168 7.1806348e-17 -7.1806348e-17)
(-9.9723869 -7.1793265e-17 -1.9945764e-29)
(-9.9481617 0 7.1780189e-17)
(-9.9239413 -7.176712e-17 0)
(-9.8997256 -1.9924674e-29 0)
(-9.8755147 7.1741001e-17 -7.1741001e-17)
(-9.8513085 0 -7.1727951e-17)
(-9.8271071 7.1714908e-17 7.1714908e-17)
(-9.8029104 -7.1701871e-17 7.1701871e-17)
(-9.7787184 -3.9813129e-29 0)
(-9.7545312 7.1675816e-17 0)
(-9.7303488 -3.9788482e-29 0)
(-9.706171 -1.0182047e-32 0)
(-9.681998 1.9902288e-29 7.163678e-17)
(-9.6578298 -1.0178351e-32 -1.0178351e-32)
(-9.6336662 -7.1610785e-17 -1.4322157e-16)
(-9.6095074 0 -7.1597797e-17)
(-9.5853534 7.1584814e-17 1.4316963e-16)
(-9.561204 -1.9863904e-29 1.4314367e-16)
(-9.5370594 -1.9860304e-29 -7.1558866e-17)
(-9.5129194 3.8096831e-49 -7.15459e-17)
(-9.4887842 -1.9863274e-29 0)
(-9.4646537 0 0)
(-9.440528 -1.4301407e-16 0)
(-9.4164069 -1.9852487e-29 0)
(-9.3922905 7.1481153e-17 -7.1481153e-17)
(-9.3681789 -7.1468219e-17 -1.9855459e-29)
(-9.3440719 1.9831558e-29 7.1455291e-17)
(-9.3199697 7.1442368e-17 0)
(-9.2958721 7.142945e-17 0)
(-9.2717793 1.9830951e-29 0)
(-9.2476911 -1.9827367e-29 0)
(-9.2236076 7.1390727e-17 0)
(-9.1995289 -7.137783e-17 0)
(-9.1754548 -7.1364937e-17 0)
(-9.1513854 0 0)
(-9.1273207 -7.1339166e-17 0)
(-9.1032607 1.9805891e-29 0)
(-9.0792053 7.1313415e-17 0)
(-9.0551547 0 0)
(-9.0311087 0 0)
(-9.0070674 0 0)
(-8.9830308 -1.4252394e-16 -7.126197e-17)
(-8.9589989 7.9137851e-29 3.9568926e-29)
(-8.9349716 1.4247255e-16 7.1236275e-17)
(-8.910949 0 0)
(-8.886931 0 0)
(-8.8629178 0 7.1197767e-17)
(-8.8389092 0 -1.9766641e-29)
(-8.8149052 0 1.0114166e-32)
(-8.790906 0 -7.11593e-17)
(-8.7669114 0 -7.1146486e-17)
(-8.7429214 -1.4226735e-16 -3.9494704e-29)
(-8.7189361 3.9517916e-29 1.9758958e-29)
(-8.6949555 1.4221614e-16 7.1108071e-17)
(-8.6709795 7.1095275e-17 0)
(-8.6470081 -7.1082483e-17 0)
(-8.6230414 -7.1069696e-17 0)
(-8.5990794 1.9741188e-29 0)
(-8.575122 3.94147e-29 0)
(-8.5511693 7.1031358e-17 -7.1031358e-17)
(-8.5272212 -7.1018587e-17 3.9430805e-29)
(-8.5032777 7.100582e-17 7.100582e-17)