-1.25 	300 	1 	101325
-1.247497497497497 	299.7087654201949 	25.52222837462294 	101353.5868369818
-1.244994994994995 	299.7070153262154 	23.76639671708235 	101312.2391999081
-1.242492492492492 	299.7669312327131 	22.05783835973491 	101345.2000494409
-1.23998998998999 	299.7738353846065 	20.45352356130692 	101305.7681691167
-1.237487487487487 	299.8253436886735 	18.91103232102366 	101336.219091847
-1.234984984984985 	299.8278576931041 	17.47279897165257 	101302.9824754476
-1.232482482482482 	299.8701209815447 	16.10265660463762 	101329.5301868707
-1.22997997997998 	299.8705370334269 	14.8291537107005 	101302.8933717055
-1.227477477477477 	299.9035262987054 	13.62690922292994 	101324.3636196624
-1.224974974974975 	299.9042571267647 	12.51079476564302 	101305.1638640912
-1.222472472472472 	299.9291722124008 	11.46525012703759 	101321.7175659949
-1.21996996996997 	299.931314082508 	10.49216337435231 	101309.5881888847
-1.217467467467467 	299.9497712999172 	9.588830175857591 	101322.0136022153
-1.214964964964965 	299.9532886260742 	8.742067836658963 	101315.5637405598
-1.212462462462462 	299.9674628143649 	7.965576640752532 	101325.5433109852
-1.20995995995996 	299.9719731459554 	7.231575891254045 	101323.2827204607
-1.207457457457457 	299.9832697949332 	6.5697273118131 	101331.8410523391
-1.204954954954955 	299.9881704807327 	5.93845718941721 	101332.2456715099
-1.202452452452452 	299.997535961738 	5.380500320957459 	101340.0061076982
-1.19994994994995 	300.0026512303996 	4.842197400237552 	101342.2709975721
-1.197447447447447 	300.0103797153624 	4.37790780392773 	101349.1870453101
-1.194944944944945 	300.0153238131621 	3.922170880291738 	101352.3915684132
-1.192442442442442 	300.0224258033616 	3.542261598913758 	101359.3544137881
-1.18993993993994 	300.027149281878 	3.161300116761877 	101363.1056547264
-1.187437437437437 	300.0316724537826 	2.852717465983472 	101367.5678975337
-1.184934934934935 	300.0367789204386 	2.531590522147875 	101372.3179886415
-1.182432432432432 	300.0419061116215 	2.284975930267358 	101377.8682279095
-1.17992992992993 	300.043104807888 	2.006267177323587 	101378.3446640686
-1.177427427427427 	300.0493600544509 	1.783257324568493 	101385.4099469273
-1.174924924924925 	300.0469920427292 	1.529690181813176 	101381.9196050669
-1.172422422422422 	300.0533860906368 	1.335764007268727 	101389.2873793985
-1.16991991991992 	300.0491563245548 	1.120469325540953 	101383.8304665879
-1.167417417417417 	300.0545778876283 	0.9703810624456394 	101390.1543205802
-1.164914914914915 	300.0511540439128 	0.7987205166801585 	101385.8294896733
-1.162412412412412 	300.0534895720512 	0.6847695519096813 	101388.5591466883
-1.15990990990991 	300.0499938469695 	0.5514312890674827 	101384.2733715874
-1.157407407407407 	300.0503461061692 	0.4717988575905197 	101384.6819369921
-1.154904904904904 	300.0467715766425 	0.37554009029844 	101380.3746848969
-1.152402402402403 	300.0451960711764 	0.3180379124522486 	101378.5093306257
-1.1498998998999 	300.0419021015431 	0.2462678177717518 	101374.5741707913
-1.147397397397397 	300.0395486929651 	0.2081485762536411 	101371.7913561262
-1.144894894894895 	300.0352838605072 	0.1608500373912872 	101366.7296007847
-1.142392392392392 	300.0314452969669 	0.1322404065240882 	101362.1908016524
-1.13988988988989 	300.0276765666238 	0.1006504581654946 	101357.7262768804
-1.137387387387387 	300.024353658778 	0.0819916470514153 	101353.7977396519
-1.134884884884885 	300.0203892491944 	0.0630995512612369 	101349.1064186373
-1.132382382382382 	300.0163862594044 	0.04638855306899019 	101344.3741102064
-1.12987987987988 	300.0122710817332 	0.03889882879275885 	101339.5072723953
-1.127377377377377 	300.0087291407549 	0.0273058174255003 	101335.3201493673
-1.124874874874875 	300.0072981757698 	0.02449559942215541 	101333.6272495124
-1.122372372372372 	300.0035942281386 	0.01531261816351177 	101329.2490731468
-1.11986986986987 	300.0010043237586 	0.01449390198636847 	101326.1866117241
-1.117367367367367 	299.9996701379577 	0.004803278449438203 	101324.6094117825
-1.114864864864865 	299.9973808652577 	0.006483109711403271 	101321.9029567032
-1.112362362362362 	299.9964126602679 	0.01027807073775507 	101320.7583974753
-1.10985985985986 	299.9962483354751 	0.01066756833312396 	101320.5639823329
-1.107357357357357 	299.9969137747549 	0.00887174975068466 	101321.350614148
-1.104854854854855 	299.9981542928008 	0.005316928046990986 	101322.8171411712
-1.102352352352353 	299.9997651485391 	0.002431158350418587 	101324.721390754
-1.09984984984985 	300.0017096772897 	0.005040836602652986 	101327.0201698417
-1.097347347347347 	300.0040446700306 	0.01182863426273231 	101329.7806391841
-1.094844844844845 	300.0067960009726 	0.01979988382420084 	101333.0333277863
-1.092342342342342 	300.0099454605951 	0.02891353844016122 	101336.7568545907
-1.08983983983984 	300.0134532302042 	0.03905595402389402 	101340.9041284472
-1.087337337337337 	300.0172598208873 	0.05005308562781605 	101345.404739673
-1.084834834834835 	300.0212810080706 	0.06166426074614745 	101350.1593034657
-1.082332332332332 	300.0254144896006 	0.07360053340575905 	101355.0469146437
-1.07982982982983 	300.0295591650623 	0.08557963181148757 	101359.9477880594
-1.077327327327327 	300.0336433926088 	0.09740057140478112 	101364.7773972658
-1.074824824824825 	300.0376387103747 	0.1089665451643867 	101369.5021316006
-1.072322322322323 	300.0415222370651 	0.1201886079443478 	101374.0946821991
-1.06981981981982 	300.045221807034 	0.1308610389634171 	101378.4698646236
-1.067317317317317 	300.0486247352936 	0.1406825990545139 	101382.4944879835
-1.064814814814815 	300.0516405777458 	0.149402380078716 	101386.061297283
-1.062312312312312 	300.0542302029319 	0.1568957648212436 	101389.1240685682
-1.05980980980981 	300.0563780313904 	0.1631058350332855 	101391.6645120511
-1.057307307307307 	300.0580612285842 	0.1679666698357082 	101393.6553584252
-1.054804804804805 	300.0592505233146 	0.1714038116899413 	101395.0620575977
-1.052302302302302 	300.0599361312559 	0.1733968541552779 	101395.8730729807
-1.0497997997998 	300.0601457059002 	0.1740141918427216 	101396.1209238702
-1.047297297297297 	300.0599133563389 	0.1733302623963786 	101395.8461252451
-1.044794794794795 	300.0592193096767 	0.1712865769912124 	101395.0253718501
-1.042292292292292 	300.0579901944554 	0.1677040165211818 	101393.5716374197
-1.03978978978979 	300.0561849320026 	0.1624911827737714 	101391.4364997055
-1.037287287287287 	300.0538619226448 	0.1558045527748093 	101388.6891107357
-1.034784784784785 	300.0511461152808 	0.1479767293601704 	101385.4770843044
-1.032282282282283 	300.0481545410498 	0.1393336809254969 	101381.9390352788
-1.02977977977978 	300.0449593207356 	0.1300824567828864 	101378.1602724941
-1.027277277277277 	300.0415826045991 	0.1202928203245967 	101374.16686409
-1.024774774774775 	300.0380160871432 	0.1099652010309561 	101369.9492108753
-1.022272272272272 	300.0342848329881 	0.09919613216887591 	101365.5368742775
-1.01976976976977 	300.0305049192366 	0.08830822784527859 	101361.067006927
-1.017267267267267 	300.0268465474281 	0.07775382953537234 	101356.7411088093
-1.014764764764765 	300.0234310800835 	0.06786764679173073 	101352.7025321257
-1.012262262262262 	300.020288493548 	0.05875853517902722 	101348.9866294943
-1.00975975975976 	300.0174117749821 	0.05043077934749682 	101345.5852918408
-1.007257257257257 	300.0148210990785 	0.04295001802080427 	101342.5221750756
-1.004754754754755 	300.0125869312815 	0.0365266335743409 	101339.8805666752
-1.002252252252252 	300.0108428714371 	0.03154981254917635 	101337.8185845019
-0.9997497497497498 	300.0097754765662 	0.02852067020027943 	101336.5565064915
-0.9972472472472473 	300.0095115101748 	0.02772559647129295 	101336.2443036556
-0.9947447447447449 	300.0099321078342 	0.02881361713119363 	101336.7416492216
-0.9922422422422421 	300.0106871574783 	0.03090640519385691 	101337.6342524164
-0.9897397397397399 	300.0115397917614 	0.03344640626568898 	101338.6422421032
-0.9872372372372376 	300.0126738949778 	0.03693712776507693 	101339.9831557888
-0.9847347347347346 	300.0145873157604 	0.04263781815552403 	101342.2453121196
-0.9822322322322323 	300.0176034615686 	0.0512854615324941 	101345.8113135589
-0.9797297297297296 	300.021417046817 	0.06205909703226602 	101350.3204910014
-0.9772272272272275 	300.0252998937145 	0.07315010339573869 	101354.9116394597
-0.9747247247247248 	300.0288493575879 	0.08356093260310889 	101359.1087168536
-0.9722222222222224 	300.0323950628944 	0.09410334691036713 	101363.3015091468
-0.9697197197197196 	300.0366162209698 	0.1064480935485362 	101368.2930411287
-0.9672172172172175 	300.0417782831089 	0.1212084697700295 	101374.3975411025
-0.9647147147147147 	300.0473589979486 	0.1370414818650234 	101380.997515779
-0.9622122122122124 	300.0524961044271 	0.151773513619703 	101387.0731071468
-0.9597097097097099 	300.05681784611 	0.164485145694514 	101392.1846577016
-0.9572072072072073 	300.0608347823998 	0.1764947889475532 	101396.9357556192
-0.9547047047047047 	300.0655105926683 	0.1902555745611328 	101402.4662019552
-0.9522022022022023 	300.0713742977256 	0.2070482651755575 	101409.4021984497
-0.9496996996996998 	300.0778831554387 	0.2253473074548456 	101417.101730774
-0.9471971971971973 	300.0835699492374 	0.2412001436754884 	101423.8292571778
-0.9446946946946947 	300.0868615484674 	0.2504192043992723 	101427.7236419712
-0.9421921921921923 	300.0870634996234 	0.2512568586899999 	101427.9623462276
-0.93968968968969 	300.084984439572 	0.2460020332516471 	101425.502954236
-0.9371871871871872 	300.0827239694786 	0.240391402163952 	101422.8290792557
-0.9346846846846848 	300.0827362866667 	0.2411909608526784 	101422.8440227941
-0.9321821821821823 	300.0868512332944 	0.2533959601083429 	101427.7117023864
-0.9296796796796799 	300.0955002502733 	0.278041334645646 	101437.943337536
-0.9271771771771771 	300.1073294191776 	0.311334609106301 	101451.9391014603
-0.9246746746746748 	300.1196336150223 	0.3458563784388546 	101466.4990105677
-0.9221721721721724 	300.1294198944694 	0.3732675724482399 	101478.0807577245
-0.9196696696696698 	300.1343095798418 	0.3868445752521942 	101483.867715877
-0.9171671671671672 	300.1330174267164 	0.3829440897129558 	101482.3373701023
-0.9146646646646649 	300.1255090460568 	0.3614729190187548 	101473.4527970548
-0.9121621621621623 	300.1128899091847 	0.3255132360652624 	101458.521216051
-0.9096596596596597 	300.0970100595246 	0.2802265771410657 	101439.7320638476
-0.9071571571571573 	300.0799251174238 	0.2313672033052593 	101419.5195416942
-0.9046546546546547 	300.0633942340431 	0.1839107932474136 	101399.9651416128
-0.9021521521521524 	300.0485942058384 	0.1412643687274503 	101382.4603822634
-0.8996496496496498 	300.0361119477203 	0.1051818697540525 	101367.6985901402
-0.8971471471471473 	300.0260824422231 	0.07610970764015751 	101355.8385455976
-0.894644644644645 	300.0183476197399 	0.05363397663613757 	101346.6926436683
-0.892142142142142 	300.0125921428942 	0.03687229541368193 	101339.8875432154
-0.8896396396396397 	300.0084439737158 	0.02476643836525735 	101334.9830615003
-0.8871371371371374 	300.0055394864272 	0.01627352032817514 	101331.5491063782
-0.8846346346346349 	300.0035591256614 	0.01047206831160286 	101329.207781137
-0.8821321321321324 	300.0022417433829 	0.00660596262920686 	101327.6502945252
-0.8796296296296297 	300.0013853751228 	0.004088502994383036 	101326.6378526899
-0.8771271271271271 	300.0008406571395 	0.002484560597165251 	101325.9938620256
-0.8746246246246248 	300.0005012323293 	0.001483514033495476 	101325.5925790973
-0.8721221221221224 	300.000293831985 	0.0008708886579109122 	101325.3473814276
-0.8696196196196196 	300.0001694519924 	0.0005029341591891503 	101325.2003339953
-0.8671171171171175 	300.0000961855282 	0.0002858679951893832 	101325.1137151087
-0.8646146146146148 	300.000053764821 	0.000160006142463167 	101325.0635634354
-0.8621121121121121 	300.0000296078923 	8.823073373439684e-05 	101325.0350039551
-0.8596096096096097 	300.0000160701222 	4.795093362319854e-05 	101325.0189989149
-0.857107107107107 	300.0000086000402 	2.569436605665244e-05 	101325.0101674423
-0.8546046046046049 	300.0000045395511 	1.358004887639277e-05 	101325.0053669112
-0.8521021021021022 	300.0000023643163 	7.081683756041746e-06 	101325.0027952181
-0.8495995995995997 	300.0000012153853 	3.644887279451421e-06 	101325.0014368969
-0.8470970970970974 	300.000000616809 	1.852150875012235e-06 	101325.0007292661
-0.8445945945945946 	300.0000003091575 	9.294781616170578e-07 	101325.0003655288
-0.8420920920920922 	300.0000001530968 	4.607768203800087e-07 	101325.0001809878
-0.8395895895895897 	300.000000074901 	2.257087316167178e-07 	101325.0000885483
-0.8370870870870872 	300.0000000362185 	1.092733860145906e-07 	101325.0000428169
-0.8345845845845846 	300.0000000173169 	5.230070581890428e-08 	101325.0000204667
-0.8320820820820823 	300.0000000081603 	2.475205831400816e-08 	101325.0000096729
-0.8295795795795798 	300.0000000037797 	1.158617680937616e-08 	101325.0000045205
-0.8270770770770772 	300.0000000017415 	5.36525482283852e-09 	101325.0000020888
-0.8245745745745746 	300.0000000007689 	2.458191999921395e-09 	101325.0000009537
-0.8220720720720721 	300.0000000003408 	1.115297622025886e-09 	101325.0000004295
-0.8195695695695699 	300.0000000001587 	5.006562045026032e-10 	101325.0000001899
-0.817067067067067 	300.0000000000472 	2.240134684446102e-10 	101325.0000000815
-0.8145645645645651 	299.9999999999879 	9.872342976699233e-11 	101325.000000033
-0.8120620620620621 	300.0000000000041 	4.377792998148768e-11 	101325.0000000115
-0.8095595595595597 	300.0000000000111 	1.993343542161047e-11 	101325.0000000021
-0.8070570570570572 	299.9999999999719 	8.872666638191227e-12 	101324.9999999981
-0.8045545545545546 	299.9999999999662 	5.074125445118053e-12 	101324.9999999966
-0.8020520520520523 	299.9999999999901 	1.815103212882675e-12 	101324.999999996
-0.7995495495495494 	300.0000000000094 	3.287010361488662e-12 	101324.9999999958
-0.7970470470470474 	299.9999999999997 	2.889988616634125e-12 	101324.9999999956
-0.7945445445445446 	300.0000000000032 	4.030901345355676e-12 	101324.9999999957
-0.7920420420420423 	300.000000000008 	3.499627822009151e-12 	101324.9999999958
-0.7895395395395397 	300.0000000000077 	4.305152014185778e-12 	101324.9999999958
-0.7870370370370371 	300.0000000000017 	3.097273984533738e-12 	101324.9999999957
-0.7845345345345348 	299.9999999999816 	3.833545627612353e-12 	101324.9999999957
-0.7820320320320323 	299.9999999999823 	2.868583834375448e-12 	101324.9999999958
-0.7795295295295296 	299.9999999999571 	4.558596526509667e-12 	101324.9999999957
-0.7770270270270272 	299.9999999999484 	3.444197405493686e-12 	101324.9999999957
-0.7745245245245247 	299.9999999999441 	3.980162692934901e-12 	101324.9999999956
-0.7720220220220222 	299.9999999999667 	3.410024216972605e-12 	101324.9999999956
-0.7695195195195199 	299.9999999999716 	3.035373019236878e-12 	101324.9999999955
-0.767017017017017 	299.9999999999895 	4.283257706313844e-12 	101324.9999999957
-0.7645145145145147 	300.0000000000085 	3.385466187459367e-12 	101324.9999999958
-0.7620120120120122 	300.0000000000111 	4.475038244490153e-12 	101324.9999999958
-0.7595095095095097 	299.9999999999589 	5.255905049858218e-12 	101324.9999999959
-0.7570070070070072 	299.9999999999624 	5.364535467786276e-12 	101324.9999999961
-0.7545045045045048 	299.9999999999919 	5.574746692086155e-12 	101324.9999999963
-0.7520020020020022 	299.99999999998 	4.662137283198115e-12 	101324.9999999964
-0.7494994994994997 	299.9999999999756 	3.776207987595649e-12 	101324.9999999963
-0.7469969969969972 	299.9999999999942 	3.002781630598762e-12 	101324.9999999963
-0.7444944944944945 	299.9999999999912 	2.895810066438659e-12 	101324.9999999962
-0.7419919919919924 	299.9999999999919 	1.485660046036052e-12 	101324.9999999961
-0.7394894894894897 	299.999999999972 	1.05478327550908e-12 	101324.9999999959
-0.7369869869869872 	299.9999999999901 	3.938148351637287e-13 	101324.999999996
-0.7344844844844846 	299.9999999999762 	8.399153660833242e-13 	101324.999999996
-0.7319819819819822 	300.0000000000018 	5.556107575552106e-13 	101324.9999999959
-0.7294794794794797 	299.9999999999976 	2.144944927089796e-12 	101324.9999999957
-0.7269769769769773 	300.0000000000054 	1.058714401914398e-12 	101324.9999999956
-0.7244744744744747 	300.0000000000118 	1.659167268477284e-12 	101324.9999999956
-0.721971971971972 	299.9999999999746 	1.815796398679893e-12 	101324.9999999958
-0.7194694694694695 	299.9999999999909 	2.174032993047363e-12 	101324.9999999959
-0.7169669669669674 	299.9999999999609 	2.040268747615693e-12 	101324.9999999958
-0.7144644644644647 	299.9999999999825 	2.000297950416725e-12 	101324.9999999959
-0.711961961961962 	300.0000000000047 	2.055988321260016e-12 	101324.9999999958
-0.7094594594594597 	300.0000000000078 	9.638871984776365e-13 	101324.9999999956
-0.7069569569569573 	300.0000000000144 	1.653999242331595e-12 	101324.9999999955
-0.7044544544544545 	300.0000000000172 	1.070139560402811e-12 	101324.9999999955
-0.7019519519519523 	300.0000000000031 	8.716250705251241e-13 	101324.9999999955
-0.6994494494494495 	299.9999999999582 	2.669959829970635e-13 	101324.9999999956
-0.6969469469469471 	299.9999999999657 	3.422445693843707e-13 	101324.9999999958
-0.6944444444444446 	299.9999999999755 	2.725514471508763e-13 	101324.999999996
-0.6919419419419421 	300.0000000000162 	7.936946942034636e-13 	101324.9999999962
-0.6894394394394396 	299.9999999999978 	1.020791418400236e-12 	101324.9999999963
-0.6869369369369374 	300.0000000000061 	1.757800437086878e-12 	101324.9999999964
-0.6844344344344344 	300.0000000000132 	1.621382282772297e-12 	101324.9999999966
-0.6819319319319321 	299.9999999999774 	2.321890399148444e-12 	101324.9999999968
-0.6794294294294296 	299.9999999999658 	2.304103590116088e-12 	101324.9999999967
-0.6769269269269272 	299.9999999999492 	2.875993028853306e-12 	101324.9999999965
-0.6744244244244245 	299.9999999999796 	2.98951943328312e-12 	101324.9999999962
-0.6719219219219222 	299.9999999999751 	3.124502762276767e-12 	101324.999999996
-0.6694194194194195 	299.9999999999993 	3.504263182668868e-12 	101324.9999999961
-0.6669169169169172 	300.0000000000115 	2.713853553493578e-12 	101324.999999996
-0.6644144144144146 	299.9999999999777 	2.82471031731925e-12 	101324.9999999961
-0.661911911911912 	299.9999999999789 	1.669539724069854e-12 	101324.9999999961
-0.6594094094094097 	299.9999999999843 	1.424061686076469e-12 	101324.9999999959
-0.656906906906907 	299.9999999999648 	4.622947460297978e-13 	101324.999999996
-0.6544044044044046 	299.9999999999695 	1.494250027795839e-12 	101324.9999999958
-0.6519019019019021 	299.9999999999922 	5.552740450529488e-13 	101324.999999996
-0.6493993993993996 	300.0000000000137 	2.596160424849347e-12 	101324.9999999961
-0.6468968968968971 	300.0000000000192 	1.254801680821634e-12 	101324.9999999963
-0.6443943943943946 	299.9999999999973 	2.992403290992341e-12 	101324.9999999964
-0.6418918918918921 	299.9999999999963 	1.055670121769988e-12 	101324.9999999963
-0.6393893893893897 	299.9999999999989 	1.456294733430043e-12 	101324.999999996
-0.6368868868868871 	299.9999999999852 	8.82366583409269e-13 	101324.9999999958
-0.6343843843843846 	299.9999999999966 	9.27438345111116e-13 	101324.9999999958
-0.6318818818818821 	299.9999999999734 	7.359086072049852e-13 	101324.9999999958
-0.6293793793793795 	300.0000000000014 	7.024678895086133e-13 	101324.9999999957
-0.6268768768768773 	300.0000000000093 	1.203814912876615e-12 	101324.9999999957
-0.6243743743743745 	299.9999999999859 	6.31523462087124e-13 	101324.9999999959
-0.6218718718718721 	300.0000000000026 	1.876348334030429e-12 	101324.9999999958
-0.6193693693693696 	299.9999999999621 	1.198229604025959e-12 	101324.9999999958
-0.6168668668668671 	299.9999999999873 	2.257474690598867e-12 	101324.9999999958
-0.6143643643643645 	300.0000000000082 	1.326802981916015e-12 	101324.9999999962
-0.6118618618618621 	299.9999999999935 	1.753902781471726e-12 	101324.9999999964
-0.6093593593593596 	299.9999999999931 	1.255354022201397e-12 	101324.9999999967
-0.6068568568568571 	299.9999999999927 	1.409679568974969e-12 	101324.9999999969
-0.6043543543543546 	299.9999999999768 	8.683237392710557e-13 	101324.9999999968
-0.6018518518518521 	299.9999999999833 	1.293395291856815e-12 	101324.9999999968
-0.5993493493493496 	299.9999999999677 	9.752150433407663e-13 	101324.9999999967
-0.5968468468468471 	299.9999999999753 	1.723027697247889e-12 	101324.9999999966
-0.5943443443443446 	299.9999999999965 	8.99917775508235e-13 	101324.999999996
-0.591841841841842 	299.9999999999754 	2.013714559039184e-12 	101324.9999999959
-0.5893393393393397 	299.9999999999698 	9.407809542891196e-13 	101324.9999999959
-0.5868368368368371 	299.9999999999945 	3.101921488785449e-12 	101324.9999999959
-0.5843343343343346 	300.0000000000025 	1.286559342334976e-12 	101324.999999996
-0.5818318318318321 	300.0000000000192 	2.802371336641514e-12 	101324.9999999961
-0.5793293293293297 	299.999999999993 	1.327211287962076e-12 	101324.9999999961
-0.5768268268268271 	300.0000000000024 	2.004173395641599e-12 	101324.999999996
-0.5743243243243245 	300.0000000000132 	1.110547876316724e-12 	101324.999999996
-0.5718218218218221 	300.0000000000132 	1.374767125757492e-12 	101324.9999999962
-0.5693193193193196 	300.0000000000273 	1.300560583930137e-12 	101324.9999999964
-0.5668168168168171 	299.9999999999938 	4.748921429551569e-13 	101324.9999999964
-0.5643143143143147 	299.999999999969 	7.005037661172839e-13 	101324.9999999963
-0.5618118118118121 	300.0000000000088 	7.941164736039675e-13 	101324.9999999962
-0.5593093093093094 	300.0000000000211 	4.964207536864538e-13 	101324.9999999959
-0.5568068068068072 	300.0000000000101 	1.112522451125899e-12 	101324.9999999958
-0.5543043043043046 	300.0000000000111 	8.065287198071947e-13 	101324.9999999959
-0.551801801801802 	299.999999999974 	1.101079007484314e-12 	101324.9999999959
-0.5492992992992995 	299.9999999999992 	6.058918750867421e-13 	101324.999999996
-0.5467967967967969 	300.0000000000094 	7.468441217508479e-13 	101324.999999996
-0.5442942942942947 	300.0000000000053 	5.390769087186465e-13 	101324.9999999961
-0.5417917917917919 	299.9999999999758 	7.796117696579924e-13 	101324.9999999962
-0.5392892892892895 	299.9999999999616 	8.443713560046314e-13 	101324.999999996
-0.536786786786787 	299.9999999999736 	3.209403690951967e-13 	101324.9999999961
-0.5342842842842846 	299.9999999999774 	1.274798225036473e-12 	101324.999999996
-0.531781781781782 	299.9999999999622 	4.068634295487005e-13 	101324.999999996
-0.5292792792792794 	299.9999999999587 	2.435078007073764e-12 	101324.9999999959
-0.526776776776777 	299.9999999999487 	1.562660882449446e-12 	101324.9999999961
-0.5242742742742745 	299.9999999999863 	3.937245152598714e-12 	101324.999999996
-0.521771771771772 	300.0000000000081 	2.511441770001146e-12 	101324.9999999959
-0.5192692692692695 	299.9999999999767 	4.889252708131236e-12 	101324.9999999959
-0.516766766766767 	300.000000000002 	2.600766649015954e-12 	101324.9999999958
-0.5142642642642645 	299.9999999999816 	4.134848346440808e-12 	101324.9999999957
-0.511761761761762 	299.9999999999714 	2.215100193173078e-12 	101324.9999999957
-0.5092592592592596 	299.9999999999841 	2.633785812870683e-12 	101324.9999999958
-0.506756756756757 	299.9999999999673 	1.423227279759099e-12 	101324.999999996
-0.5042542542542544 	299.9999999999973 	2.574397426036682e-12 	101324.999999996
-0.5017517517517521 	300.0000000000177 	1.061753422859622e-12 	101324.9999999962
-0.4992492492492494 	300.0000000000184 	2.540158036446968e-12 	101324.9999999961
-0.496746746746747 	299.9999999999942 	1.597019074289691e-12 	101324.999999996
-0.4942442442442445 	299.9999999999662 	1.972679468409508e-12 	101324.9999999961
-0.4917417417417421 	299.9999999999666 	9.660730101881102e-13 	101324.9999999962
-0.4892392392392395 	299.9999999999742 	1.640163385837294e-12 	101324.9999999963
-0.486736736736737 	299.9999999999754 	4.015292807965333e-13 	101324.9999999962
-0.4842342342342345 	299.9999999999542 	1.56248100434497e-12 	101324.9999999959
-0.481731731731732 	300.0000000000201 	7.710704958225856e-13 	101324.9999999958
-0.4792292292292296 	300.0000000000117 	1.564865870296288e-12 	101324.9999999955
-0.4767267267267268 	299.9999999999761 	2.03649146568082e-12 	101324.9999999955
-0.4742242242242246 	300.0000000000015 	2.661159742777046e-12 	101324.9999999956
-0.471721721721722 	299.9999999999767 	1.775755858193707e-12 	101324.9999999957
-0.4692192192192195 	299.999999999989 	1.866790182513355e-12 	101324.9999999958
-0.4667167167167169 	299.9999999999495 	1.080627944975813e-12 	101324.9999999959
-0.4642142142142145 	299.9999999999972 	1.56849286382003e-12 	101324.9999999962
-0.461711711711712 	300.0000000000098 	6.699105424755464e-13 	101324.9999999963
-0.4592092092092094 	300.0000000000036 	1.610515809520552e-12 	101324.9999999964
-0.456706706706707 	300.0000000000304 	3.726663820771162e-13 	101324.9999999963
-0.4542042042042045 	299.9999999999661 	8.335041672365069e-13 	101324.9999999961
-0.451701701701702 	299.9999999999729 	6.005894519162866e-13 	101324.9999999962
-0.4491991991991995 	299.9999999999782 	7.845027735837274e-13 	101324.9999999962
-0.4466966966966969 	299.9999999999762 	3.323589882647459e-13 	101324.9999999961
-0.4441941941941945 	299.999999999999 	7.920475335776793e-13 	101324.9999999961
-0.441691691691692 	299.9999999999788 	1.669674807209064e-12 	101324.9999999962
-0.4391891891891895 	299.9999999999937 	1.433492188439473e-12 	101324.9999999962
-0.436686686686687 	299.9999999999843 	2.744670820215256e-12 	101324.9999999961
-0.4341841841841846 	299.9999999999985 	2.288465125041015e-12 	101324.999999996
-0.431681681681682 	299.9999999999731 	1.966595544997966e-12 	101324.9999999958
-0.4291791791791794 	299.9999999999628 	2.1846765196482e-12 	101324.9999999957
-0.426676676676677 	299.9999999999503 	4.882206072982031e-13 	101324.9999999955
-0.4241741741741744 	299.9999999999824 	1.972130364159549e-12 	101324.9999999954
-0.421671671671672 	300.0000000000024 	6.400019975185124e-13 	101324.9999999954
-0.4191691691691694 	300.0000000000269 	1.049514032127075e-12 	101324.9999999953
-0.4166666666666669 	300.0000000000314 	4.43693949066091e-13 	101324.9999999953
-0.4141641641641645 	299.9999999999652 	6.857327838600395e-14 	101324.9999999951
-0.411661661661662 	299.9999999999999 	3.950374811400564e-13 	101324.999999995
-0.4091591591591594 	300.0000000000073 	2.170592589219304e-13 	101324.9999999951
-0.406656656656657 	299.9999999999718 	3.589517003683728e-14 	101324.9999999952
-0.4041541541541545 	300.0000000000084 	5.389693896868817e-13 	101324.9999999955
-0.401651651651652 	299.9999999999588 	1.384710763550765e-12 	101324.9999999957
-0.3991491491491494 	300.0000000000041 	1.280433407895365e-12 	101324.9999999958
-0.396646646646647 	299.999999999974 	2.346357624030009e-12 	101324.9999999957
-0.3941441441441444 	299.9999999999885 	2.157585573622532e-12 	101324.9999999957
-0.3916416416416419 	299.9999999999638 	2.303193091294145e-12 	101324.9999999956
-0.3891391391391395 	299.999999999975 	1.556607769933789e-12 	101324.9999999956
-0.3866366366366368 	299.999999999976 	9.353055004129861e-13 	101324.9999999954
-0.3841341341341344 	299.9999999999997 	1.200833712194024e-12 	101324.9999999956
-0.381631631631632 	299.999999999972 	6.376911167049172e-13 	101324.9999999955
-0.3791291291291294 	299.9999999999988 	6.455037022717197e-13 	101324.9999999954
-0.3766266266266269 	300.0000000000113 	6.859916954587111e-13 	101324.9999999955
-0.3741241241241244 	300.0000000000126 	6.03969038061802e-13 	101324.9999999955
-0.371621621621622 	300.0000000000122 	9.543056130151714e-13 	101324.9999999952
-0.3691191191191194 	300.0000000000037 	2.016334904171504e-12 	101324.9999999954
-0.366616616616617 	300.0000000000029 	1.117674873434658e-12 	101324.9999999954
-0.3641141141141143 	299.9999999999862 	2.38525469404255e-12 	101324.9999999953
-0.3616116116116119 	299.9999999999672 	1.001577161124352e-12 	101324.9999999953
-0.3591091091091095 	299.9999999999873 	1.188880510319541e-12 	101324.9999999953
-0.356606606606607 	299.9999999999916 	5.229164563145839e-13 	101324.9999999953
-0.3541041041041044 	299.9999999999949 	6.166856772278831e-13 	101324.9999999954
-0.3516016016016019 	300.0000000000114 	1.591980867424396e-12 	101324.9999999957
-0.3490990990990994 	299.9999999999969 	9.137681556292531e-13 	101324.999999996
-0.346596596596597 	300.0000000000173 	3.151819570448529e-12 	101324.9999999959
-0.3440940940940944 	300.0000000000203 	1.801445196965312e-12 	101324.9999999957
-0.3415915915915919 	300.000000000016 	3.972728396183522e-12 	101324.9999999954
-0.3390890890890895 	299.9999999999897 	2.385300543918937e-12 	101324.9999999952
-0.3365865865865869 	300.0000000000093 	3.176629693054229e-12 	101324.999999995
-0.3340840840840844 	299.9999999999947 	2.721767451948195e-12 	101324.999999995
-0.3315815815815819 	300.0000000000103 	3.164283185346721e-12 	101324.9999999949
-0.3290790790790794 	300.0000000000117 	3.361899337374884e-12 	101324.9999999953
-0.3265765765765769 	299.9999999999605 	3.460993757565389e-12 	101324.9999999955
-0.3240740740740744 	300.0000000000006 	2.451598408674029e-12 	101324.9999999954
-0.3215715715715718 	300.0000000000076 	3.388693086351948e-12 	101324.9999999954
-0.3190690690690695 	299.9999999999644 	2.732107892726841e-12 	101324.9999999955
-0.3165665665665668 	299.9999999999937 	3.859917216742533e-12 	101324.9999999955
-0.3140640640640644 	299.9999999999989 	2.412789203451601e-12 	101324.9999999955
-0.311561561561562 	299.99999999996 	4.156702886937547e-12 	101324.9999999955
-0.3090590590590593 	299.9999999999993 	1.063613575887183e-12 	101324.9999999955
-0.3065565565565568 	300.0000000000034 	4.928368064667819e-12 	101324.9999999956
-0.3040540540540545 	299.9999999999998 	1.304256244387384e-12 	101324.9999999955