-1.25 	300 	0.04510423221385292 	101343.4062276342
-1.247497497497497 	300.0134114999583 	0.04624092264716569 	101344.0372380526
-1.244994994994995 	300.0165436831464 	0.04825021396111301 	101344.6592701629
-1.242492492492492 	300.0171552089242 	0.04976693008954967 	101345.2815527182
-1.23998998998999 	300.0176774977348 	0.05118576966748409 	101345.8999406485
-1.237487487487487 	300.0181969136653 	0.05271037605577289 	101346.5142833451
-1.234984984984985 	300.0187131071887 	0.05420679589773168 	101347.1246290265
-1.232482482482482 	300.0192258813847 	0.05569291082746946 	101347.7309325783
-1.22997997997998 	300.0197351848835 	0.05717074825594009 	101348.3331341493
-1.227477477477477 	300.0202409137217 	0.05863650099240886 	101348.9311114297
-1.224974974974975 	300.0207429118698 	0.06008764255540645 	101349.5246829186
-1.222472472472472 	300.0212410588996 	0.06152893094594331 	101350.1136976473
-1.21996996996997 	300.0217352824887 	0.0629625236725283 	101350.6980746658
-1.217467467467467 	300.0222254798664 	0.0643865752267382 	101351.2777010223
-1.214964964964965 	300.0227115143801 	0.06579329198118648 	101351.8524067408
-1.212462462462462 	300.023193283937 	0.06718531478603677 	101352.4220666779
-1.20995995995996 	300.0236707470701 	0.06856701850689839 	101352.9866370192
-1.207457457457457 	300.0241439107211 	0.06993969081034403 	101353.5461275984
-1.204954954954955 	300.0246127635534 	0.07130187196987969 	101354.1005218975
-1.202452452452452 	300.0250771762104 	0.07264603414649415 	101354.6496672394
-1.19994994994995 	300.0255369629249 	0.07397459586179636 	101355.1933463761
-1.197447447447447 	300.025992008446 	0.07529131279748544 	101355.7314243362
-1.194944944944945 	300.0264422289661 	0.07659741272499328 	101356.2638001383
-1.192442442442442 	300.0268875148182 	0.07789018867939201 	101356.7903391845
-1.18993993993994 	300.027327757429 	0.07916344994934291 	101357.3109139791
-1.187437437437437 	300.0277628744803 	0.08042154403112937 	101357.8254297186
-1.184934934934935 	300.0281928530782 	0.08166670552986013 	101358.33387018
-1.182432432432432 	300.0286177275275 	0.08289813297101836 	101358.8362768759
-1.17992992992993 	300.0290374563976 	0.08411543908175587 	101359.3326031916
-1.177427427427427 	300.029451921556 	0.08531583971110793 	101359.8227104865
-1.174924924924925 	300.029861020533 	0.08650006961298065 	101360.3064719588
-1.172422422422422 	300.0302646471014 	0.08766860993058777 	101360.7837595627
-1.16991991991992 	300.0306626709155 	0.08882153138907799 	101361.2544235305
-1.167417417417417 	300.0310549554871 	0.0899582818919589 	101361.7183066525
-1.164914914914915 	300.0314413780326 	0.09107744595717807 	101362.1752644317
-1.162412412412412 	300.0318218981712 	0.09217940075126092 	101362.6252440866
-1.15990990990991 	300.0321965456254 	0.09326421148270887 	101363.0682749578
-1.157407407407407 	300.0325653206748 	0.09433262853728641 	101363.5043566078
-1.154904904904904 	300.0329281881946 	0.09538444103471352 	101363.9334517232
-1.152402402402403 	300.0332851153013 	0.09641882974815438 	101364.355527313
-1.1498998998999 	300.0336360456378 	0.09743550189611525 	101364.7705190919
-1.147397397397397 	300.0339808686243 	0.09843347995184094 	101365.1782942155
-1.144894894894895 	300.0343194212484 	0.09941345342202956 	101365.5786547358
-1.142392392392392 	300.0346515353921 	0.1003751242541492 	101365.9713964479
-1.13988988988989 	300.0349771176449 	0.1013183272597204 	101366.3564082072
-1.137387387387387 	300.0352961504083 	0.102242769041113 	101366.7336705428
-1.134884884884885 	300.0356086216819 	0.1031473038610586 	101367.10317215
-1.132382382382382 	300.0359145245999 	0.1040335860024297 	101367.4649076515
-1.12987987987988 	300.0362138901373 	0.1049014573466015 	101367.818914318
-1.127377377377377 	300.0365067485742 	0.1057513114502315 	101368.1652294859
-1.124874874874875 	300.0367930637349 	0.1065817410304792 	101368.5038100141
-1.122372372372372 	300.0370727101338 	0.1073899691617513 	101368.8345071647
-1.11986986986987 	300.0373455268386 	0.1081786135053382 	101369.1571305731
-1.117367367367367 	300.0376114029375 	0.108947483282605 	101369.4715473238
-1.114864864864865 	300.0378702680332 	0.1096985919415755 	101369.7776751703
-1.112362362362362 	300.0381220283354 	0.1104296270828936 	101370.0754020759
-1.10985985985986 	300.0383666036747 	0.1111361226154457 	101370.3646328909
-1.107357357357357 	300.0386040187452 	0.1118237057503127 	101370.6453973267
-1.104854854854855 	300.0388343829862 	0.1124922387081718 	101370.9178232893
-1.102352352352353 	300.0390577669675 	0.1131423333469364 	101371.1819955766
-1.09984984984985 	300.0392741235418 	0.1137714910794253 	101371.4378575186
-1.097347347347347 	300.0394833408644 	0.1143748201865411 	101371.6852764927
-1.094844844844845 	300.0396853574263 	0.1149575339017989 	101371.9241807019
-1.092342342342342 	300.0398801371648 	0.1155200797998422 	101372.1545266474
-1.08983983983984 	300.040067550197 	0.1160629727720311 	101372.3761615885
-1.087337337337337 	300.0402473990343 	0.1165856084999035 	101372.588851849
-1.084834834834835 	300.04041959387 	0.1170842038646847 	101372.7924905922
-1.082332332332332 	300.0405842498033 	0.1175611964741511 	101372.9872135519
-1.07982982982983 	300.0407415460044 	0.1180175274609379 	101373.1732327617
-1.077327327327327 	300.0408914978973 	0.1184530174411354 	101373.3505672479
-1.074824824824825 	300.0410339636654 	0.1188686670898177 	101373.5190491186
-1.072322322322323 	300.0411688837992 	0.1192605748380134 	101373.6786074228
-1.06981981981982 	300.0412963535691 	0.1196269171742328 	101373.8293541711
-1.067317317317317 	300.0414163909672 	0.1199715886618129 	101373.9713114207
-1.064814814814815 	300.0415287903602 	0.120296094036298 	101374.1042366434
-1.062312312312312 	300.0416333122183 	0.1206010537738427 	101374.2278465287
-1.05980980980981 	300.0417299562005 	0.1208832692589938 	101374.3421397623
-1.057307307307307 	300.0418189479602 	0.121139832446325 	101374.4473823019
-1.054804804804805 	300.0419004118192 	0.1213743622702494 	101374.5437223073
-1.052302302302302 	300.0419742110531 	0.1215884037258966 	101374.6309984786
-1.0497997997998 	300.0420402105717 	0.1217813247730461 	101374.7090509902
-1.047297297297297 	300.0420984850269 	0.1219512767621083 	101374.7779675426
-1.044794794794795 	300.0421491531671 	0.1220965155691874 	101374.8378876555
-1.042292292292292 	300.0421921656225 	0.1222189459893641 	101374.8887545208
-1.03978978978979 	300.0422273256609 	0.1223203071767856 	101374.9303357778
-1.037287287287287 	300.0422545291508 	0.1224001210338038 	101374.962507004
-1.034784784784785 	300.0422739218958 	0.1224575564429814 	101374.9854406226
-1.032282282282283 	300.0422856470342 	0.1224913893878222 	101374.9993061859
-1.02977977977978 	300.042289633367 	0.1225019090117617 	101375.004020169
-1.027277277277277 	300.0422857948464 	0.1224907336272929 	101374.9994802559
-1.024774774774775 	300.0422741514363 	0.1224574395235347 	101374.9857095541
-1.022272272272272 	300.0422547612035 	0.1224022376580283 	101374.962777727
-1.01976976976977 	300.0422276985031 	0.122323821386623 	101374.9307732634
-1.017267267267267 	300.0421929116499 	0.122221501353454 	101374.8896339614
-1.014764764764765 	300.0421502564642 	0.122097719039484 	101374.8391872556
-1.012262262262262 	300.0420997664596 	0.1219517198652543 	101374.7794736128
-1.00975975975976 	300.0420415443721 	0.1217849030058077 	101374.710619329
-1.007257257257257 	300.0419755913435 	0.1215948581673726 	101374.6326243834
-1.004754754754755 	300.0419019196092 	0.1213791335275387 	101374.5454986556
-1.002252252252252 	300.0418205089617 	0.1211424532860357 	101374.4492166856
-0.9997497497497498 	300.0417313557703 	0.1208844377717949 	101374.3437776564
-0.9972472472472473 	300.0416346202077 	0.1206068208581562 	101374.2293783383
-0.9947447447447449 	300.041530361409 	0.1203060964591904 	101374.1060863492
-0.9922422422422421 	300.041418475703 	0.1199789943355278 	101373.973770378
-0.9897397397397399 	300.0412989245231 	0.1196315277479237 	101373.8323803916
-0.9872372372372376 	300.0411716557588 	0.1192628626285792 	101373.6818599784
-0.9847347347347346 	300.0410366926722 	0.1188745403644026 	101373.5222494796
-0.9822322322322323 	300.0408942186672 	0.118463265206388 	101373.3537680369
-0.9797297297297296 	300.0407442275568 	0.1180257942164798 	101373.176397807
-0.9772272272272275 	300.0405866511092 	0.1175683423631063 	101372.9900452125
-0.9747247247247248 	300.0404216758679 	0.1170906998079825 	101372.794929282
-0.9722222222222224 	300.040249446265 	0.1165926667554863 	101372.5912345192
-0.9697197197197196 	300.0400698876647 	0.1160731995753568 	101372.3788868207
-0.9672172172172175 	300.03988292594 	0.1155306840265529 	101372.1578008293
-0.9647147147147147 	300.0396885526528 	0.1149671082517457 	101371.9279537474
-0.9622122122122124 	300.0394867833818 	0.1143824815175217 	101371.6893468764
-0.9597097097097099 	300.0392776541998 	0.1137770201550933 	101371.4420166589
-0.9572072072072073 	300.0390612445515 	0.1131507048399765 	101371.1860662197
-0.9547047047047047 	300.038837639923 	0.1125027976510545 	101370.9216148359
-0.9522022022022023 	300.0386068815688 	0.1118338168194191 	101370.6487255972
-0.9496996996996998 	300.0383690125084 	0.1111445131883615 	101370.3674483268
-0.9471971971971973 	300.0381242040236 	0.1104357260642336 	101370.0779706413
-0.9446946946946947 	300.0378725514558 	0.1097081965055812 	101369.7803862767
-0.9421921921921923 	300.037613949693 	0.108959707347566 	101369.4745593493
-0.93968968968969 	300.0373482927104 	0.1081887915017974 	101369.160368917
-0.9371871871871872 	300.0370757173555 	0.1073979299135814 	101368.837993204
-0.9346846846846848 	300.0367963125339 	0.1065883109568993 	101368.5075539145
-0.9321821821821823 	300.036510024116 	0.1057610545742501 	101368.1689973925
-0.9296796796796799 	300.0362168317584 	0.104913268809551 	101367.8223006971
-0.9271771771771771 	300.0359169644634 	0.1040427614935509 	101367.467726696
-0.9246746746746748 	300.0356106398978 	0.1031540228395679 	101367.105520149
-0.9221721721721724 	300.0352978949302 	0.1022482801355429 	101366.7357106572
-0.9196696696696698 	300.0349786166832 	0.1013252388765157 	101366.3581537228
-0.9171671671671672 	300.0346528941024 	0.1003830567026783 	101365.9729516113
-0.9146646646646649 	300.0343208995313 	0.09941961347101426 	101365.5803125106
-0.9121621621621623 	300.0339826667071 	0.09843776005517003 	101365.1802838306
-0.9096596596596597 	300.0336380617339 	0.09743903702836874 	101364.7727150045
-0.9071571571571573 	300.0332870880765 	0.09642250755505188 	101364.3576164288
-0.9046546546546547 	300.0329298596986 	0.09538866011816945 	101363.935126669
-0.9021521521521524 	300.0325665835549 	0.0943362078047805 	101363.5054928972
-0.8996496496496498 	300.0321974032673 	0.09326559293631836 	101363.0688866722
-0.8971471471471473 	300.0318223410156 	0.09217927099710034 	101362.6253341131
-0.894644644644645 	300.0314414065727 	0.09107608801689833 	101362.1748467541
-0.892142142142142 	300.0310546901984 	0.08995795871692841 	101361.7175320691
-0.8896396396396397 	300.0306622934513 	0.08882163581330312 	101361.2535059163
-0.8871371371371374 	300.030264358379 	0.08766575786242445 	101360.7829351197
-0.8846346346346349 	300.0298609589797 	0.08649579377557837 	101360.3059057654
-0.8821321321321324 	300.0294518685153 	0.08531007056823588 	101359.8221489392
-0.8796296296296297 	300.0290369008482 	0.08411046342324696 	101359.3314475016
-0.8771271271271271 	300.0286163391601 	0.08289374114167272 	101358.8341367248
-0.8746246246246248 	300.0281907322031 	0.08165904275219864 	101358.3308635586
-0.8721221221221224 	300.0277604496547 	0.08041298395050386 	101357.8220632161
-0.8696196196196196 	300.0273253138168 	0.07915281434204298 	101357.3075225707
-0.8671171171171175 	300.0268847494007 	0.07787835532442902 	101356.7865625706
-0.8646146146146148 	300.0264386574711 	0.07658664812812145 	101356.2590681756
-0.8621121121121121 	300.0259877654024 	0.07527773302311333 	101355.7259019047
-0.8596096096096097 	300.0255328260361 	0.0739583145124476 	101355.1879546455
-0.857107107107107 	300.0250738528892 	0.07262730146536067 	101354.6452420411
-0.8546046046046049 	300.0246099125155 	0.07128295320112944 	101354.0966586947
-0.8521021021021022 	300.0241399342689 	0.06992291509105958 	101353.5409359974
-0.8495995995995997 	300.0236643379495 	0.06854747401006014 	101352.9785699394
-0.8470970970970974 	300.0231849977558 	0.06716103618039281 	101352.4117767397
-0.8445945945945946 	300.0227032420252 	0.06576567302149929 	101351.8421285923
-0.8420920920920922 	300.0222186991472 	0.06436120136201215 	101351.2691881946
-0.8395895895895897 	300.0217296820564 	0.06294356148521857 	101350.6909618462
-0.8370870870870872 	300.0212346934001 	0.06150947241944899 	101350.1056794244
-0.8345845845845846 	300.0207343358534 	0.06005976308543299 	101349.5140536557
-0.8320820820820823 	300.0202304507808 	0.05859840743511835 	101348.918261453
-0.8295795795795798 	300.0197240032579 	0.05713125311965241 	101348.319441432
-0.8270770770770772 	300.0192152228415 	0.0556593258973913 	101347.7178618622
-0.8245745745745746 	300.0187037341901 	0.05417859515343748 	101347.1130785845
-0.8220720720720721 	300.0181880616922 	0.05268487195753899 	101346.5033482933
-0.8195695695695699 	300.0176674779359 	0.05117638312042742 	101345.8878137121
-0.817067067067067 	300.017142403857 	0.04965481273535195 	101345.2669740038
-0.8145645645645651 	300.0166135730141 	0.04812465396676603 	101344.6416972323
-0.8120620620620621 	300.0160826422285 	0.04658798231081709 	101344.013942303
-0.8095595595595597 	300.0155509157825 	0.04504550445723095 	101343.3852519015
-0.8070570570570572 	300.0150177140594 	0.04349916250735059 	101342.754821583
-0.8045545545545546 	300.0144819287585 	0.04194678940770077 	101342.1213395116
-0.8020520520520523 	300.0139421237484 	0.04038542866227224 	101341.4831070203
-0.7995495495495494 	300.0133976513607 	0.0388105232934367 	101340.8393578264
-0.7970470470470474 	300.0128492916536 	0.0372206412249577 	101340.1910127598
-0.7945445445445446 	300.0122986006643 	0.03562337373692932 	101339.5399139001
-0.7920420420420423 	300.0117462041431 	0.0340232681751758 	101338.8868021559
-0.7895395395395397 	300.0111927430995 	0.03242164424705874 	101338.232435457
-0.7870370370370371 	300.0106383751803 	0.03081734905249296 	101337.576999633
-0.7845345345345348 	300.010083058537 	0.02920721669888497 	101336.9204454037
-0.7820320320320323 	300.0095264936452 	0.0275925415526948 	101336.2624179501
-0.7795295295295296 	300.0089678918001 	0.02597375937821361 	101335.6019851737
-0.7770270270270272 	300.0084067239775 	0.02434876122166332 	101334.9385215634
-0.7745245245245247 	300.0078431499573 	0.02271896562978393 	101334.27221614
-0.7720220220220222 	300.0072775792867 	0.0210809165228971 	101333.603553158
-0.7695195195195199 	300.0067103394608 	0.0194349851963765 	101332.9329205842
-0.767017017017017 	300.0061416787966 	0.01778700078970424 	101332.2606117076
-0.7645145145145147 	300.0055714578534 	0.01613515479935929 	101331.5864611446
-0.7620120120120122 	300.0049994518347 	0.01448147817129252 	101330.9102039365
-0.7595095095095097 	300.0044263055477 	0.01282190087566241 	101330.2326017301
-0.7570070070070072 	300.003852501981 	0.01115617700580171 	101329.5542263232
-0.7545045045045048 	300.0032779294902 	0.009491095883634244 	101328.8749451759
-0.7520020020020022 	300.0027025501084 	0.007824778043113507 	101328.1947129607
-0.7494994994994997 	300.0021270620286 	0.006160020995538746 	101327.5143557038
-0.7469969969969972 	300.0015521939656 	0.004495321172515753 	101326.8347348036
-0.7444944944944945 	300.0009784548435 	0.002830802183984373 	101326.1564528637
-0.7419919919919924 	300.0004058060216 	0.00117126979739906 	101325.4794632911
-0.7394894894894897 	299.9998338582989 	0.0008881525099316048 	101324.8033051935
-0.7369869869869872 	299.9992618999166 	0.002142180401974575 	101324.1271367555
-0.7344844844844846 	299.9986895643484 	0.003800176574589352 	101323.4505249855
-0.7319819819819822 	299.9981168267602 	0.005460403115100909 	101322.7734416375
-0.7294794794794797 	299.9975438585109 	0.007120280747991241 	101322.0960893307
-0.7269769769769773 	299.9969709437233 	0.008780054713894789 	101321.4188037977
-0.7244744744744747 	299.9963983444117 	0.01043829247742362 	101320.7418948123
-0.721971971971972 	299.9958262503856 	0.01209550788229152 	101320.065586069
-0.7194694694694695 	299.9952548316387 	0.0137512214873218 	101319.3900784567
-0.7169669669669674 	299.9946842771516 	0.01540394601413919 	101318.7155953417
-0.7144644644644647 	299.994114754368 	0.01705400895428973 	101318.0423350761
-0.711961961961962 	299.9935463510571 	0.01870033419552127 	101317.3704025737
-0.7094594594594597 	299.9929790940939 	0.02034362151034958 	101316.6998297943
-0.7069569569569573 	299.9924130385893 	0.02198357504962839 	101316.0306805454
-0.7044544544544545 	299.9918483042041 	0.02361956802056332 	101315.3630944285
-0.7019519519519523 	299.9912850261798 	0.02525181203765314 	101314.6972315813
-0.6994494494494495 	299.9907233233615 	0.02687893887304165 	101314.0332337649
-0.6969469469469471 	299.9901633019227 	0.0285012813454791 	101313.37122787
-0.6944444444444446 	299.9896050797461 	0.03011813966673474 	101312.7113541514
-0.6919419419419421 	299.9890488140128 	0.03172935575085852 	101312.053796628
-0.6894394394394396 	299.9884946445255 	0.03333519665869207 	101311.3987198045
-0.6869369369369374 	299.9879426309301 	0.03493422856438765 	101310.7461934229
-0.6844344344344344 	299.9873928219714 	0.03652693365599717 	101310.0962744595
-0.6819319319319321 	299.9868453221737 	0.03811260221897871 	101309.4490869878
-0.6794294294294296 	299.9863002399934 	0.03969172173275008 	101308.804760642
-0.6769269269269272 	299.9857576634802 	0.0412644842268623 	101308.1634012062
-0.6744244244244245 	299.9852176793636 	0.04282897237052735 	101307.5251113549
-0.6719219219219222 	299.9846803730918 	0.04438552530014647 	101306.889991372
-0.6694194194194195 	299.9841458719617 	0.04593287562809192 	101306.2581880366
-0.6669169169169172 	299.9836143298199 	0.04747235726929609 	101305.6298823742
-0.6644144144144146 	299.9830858400874 	0.04900434010163421 	101305.0051869406
-0.661911911911912 	299.982560472864 	0.05052628310005423 	101304.3841838925
-0.6594094094094097 	299.9820383419951 	0.05203885075138883 	101303.7670093725
-0.656906906906907 	299.9815195644211 	0.05353988604707292 	101303.1538035366
-0.6544044044044046 	299.9810042312996 	0.0550327194227056 	101302.5446726904
-0.6519019019019021 	299.9804924034997 	0.05651812619636939 	101301.939689902
-0.6493993993993996 	299.9799841205034 	0.05799134458597524 	101301.3389012314
-0.6468968968968971 	299.9794794705749 	0.0594533307890498 	101300.7424083036
-0.6443943943943946 	299.9789785857735 	0.06090078018495036 	101300.1503673007
-0.6418918918918921 	299.9784815612646 	0.0623394449250575 	101299.5628895407
-0.6393893893893897 	299.9779884807009 	0.06377078241959012 	101298.9800738235
-0.6368868868868871 	299.9774994719673 	0.06518765743617684 	101298.4020711651
-0.6343843843843846 	299.9770146836254 	0.0665919186053074 	101297.8290580296
-0.6318818818818821 	299.9765342484748 	0.06798096652836599 	101297.2611918972
-0.6293793793793795 	299.976058224732 	0.06936008669652476 	101296.6985428915
-0.6268768768768773 	299.9755866037794 	0.07073029643825796 	101296.1411034248
-0.6243743743743745 	299.975119293932 	0.07208488352986446 	101295.5889144492
-0.6218718718718721 	299.9746566265987 	0.07342544184602293 	101295.0420826883
-0.6193693693693696 	299.9741986845193 	0.07475092543124974 	101294.5006962366
-0.6168668668668671 	299.9737453333576 	0.07606330369391384 	101293.964830984
-0.6143643643643645 	299.9732967349651 	0.07736285522102401 	101293.4346219063
-0.6118618618618621 	299.9728531136706 	0.07864729384343051 	101292.910294959
-0.6093593593593596 	299.9724146696846 	0.07991755153380453 	101292.392086987
-0.6068568568568571 	299.9719814828278 	0.08117249417672423 	101291.8800919022
-0.6043543543543546 	299.9715535073806 	0.08241304415090721 	101291.3742555397
-0.6018518518518521 	299.9711307284817 	0.08363887119277005 	101290.8745612933
-0.5993493493493496 	299.9707132359968 	0.08484868970211645 	101290.3811174454
-0.5968468468468471 	299.970301127735 	0.08604304118199875 	101289.8940417597
-0.5943443443443446 	299.9698944268442 	0.08722074106135484 	101289.4133608161
-0.591841841841842 	299.9694931386835 	0.08838246749034147 	101288.9390812683
-0.5893393393393397 	299.969097396572 	0.08952797573538307 	101288.4713606814
-0.5868368368368371 	299.9687074785795 	0.09065696921523295 	101288.0105260199
-0.5843343343343346 	299.9683235813068 	0.09176994017515973 	101287.5568088678
-0.5818318318318321 	299.967945654834 	0.09286540513781909 	101287.1101489006
-0.5793293293293297 	299.9675735675546 	0.09394361442925342 	101286.6703896931
-0.5768268268268271 	299.9672073594269 	0.09500411804503406 	101286.2375789099
-0.5743243243243245 	299.9668472311938 	0.09604725994618754 	101285.8119541472
-0.5718218218218221 	299.9664932987135 	0.09707355347936288 	101285.393652271
-0.5693193193193196 	299.9661454636864 	0.09808140413184749 	101284.9825572587
-0.5668168168168171 	299.965803648304 	0.09907104336961339 	101284.5785779013
-0.5643143143143147 	299.9654680721545 	0.100041874892151 	101284.1819735801
-0.5618118118118121 	299.9651390866204 	0.1009946987093288 	101283.7931592714
-0.5593093093093094 	299.9648167928516 	0.1019297125907483 	101283.4122569934
-0.5568068068068072 	299.9645010374902 	0.1028449032986474 	101283.0390839902
-0.5543043043043046 	299.9641917286769 	0.103740748828974 	101282.6735308789
-0.551801801801802 	299.9638889974606 	0.1046166318656387 	101282.3157524525
-0.5492992992992995 	299.9635930007543 	0.1054742615045998 	101281.9659334652
-0.5467967967967969 	299.9633036804804 	0.106313910363442 	101281.6240061654
-0.5442942942942947 	299.9630209144503 	0.107133040251928 	101281.2898257493
-0.5417917917917919 	299.9627448228667 	0.1079322658599662 	101280.9635344041
-0.5392892892892895 	299.9624757064855 	0.1087099492170998 	101280.6454872098
-0.536786786786787 	299.9622137379584 	0.1094688234599947 	101280.3358877428
-0.5342842842842846 	299.9619588858012 	0.1102091651678865 	101280.0347001277
-0.531781781781782 	299.961711065335 	0.1109272701258683 	101279.7418230981
-0.5292792792792794 	299.9614703039621 	0.111624555252261 	101279.4572889511
-0.526776776776777 	299.9612366965816 	0.1122979044327797 	101279.1812099044
-0.5242742742742745 	299.9610102053999 	0.1129538181758667 	101278.9135409764
-0.521771771771772 	299.9607907215718 	0.1135932825041916 	101278.654155312
-0.5192692692692695 	299.9605783246647 	0.1142088885937587 	101278.4031454649
-0.516766766766767 	299.9603731926061 	0.1148029923568935 	101278.1607210525
-0.5142642642642645 	299.960175451869 	0.115372237487385 	101277.9270323321
-0.511761761761762 	299.9599851969437 	0.1159229580158581 	101277.7021903995
-0.5092592592592596 	299.9598024227964 	0.1164560700723678 	101277.4861910807
-0.506756756756757 	299.9596270832284 	0.1169643264837349 	101277.2789779357
-0.5042542542542544 	299.9594592587174 	0.1174505722583078 	101277.0806455526
-0.5017517517517521 	299.9592989523195 	0.117913827477054 	101276.8911984081
-0.4992492492492494 	299.9591460375631 	0.1183567448380295 	101276.7104868903
-0.496746746746747 	299.9590005355996 	0.1187795564269982 	101276.5385371036
-0.4942442442442445 	299.9588625442059 	0.1191793692932493 	101276.3754633775
-0.4917417417417421 	299.9587321022398 	0.1195572937979058 	101276.2213110188
-0.4892392392392395 	299.958609325764 	0.1199122333273841 	101276.0762176812
-0.486736736736737 	299.9584942555427 	0.1202456060746404 	101275.9402317805
-0.4842342342342345 	299.9583868525709 	0.1205571601015342 	101275.813308225
-0.481731731731732 	299.9582872139651 	0.1208456677296674 	101275.6955601664
-0.4792292292292296 	299.9581953630048 	0.1211121321630626 	101275.5870151508
-0.4767267267267268 	299.9581111847275 	0.1213555980911495 	101275.4875374514
-0.4742242242242246 	299.9580346788571 	0.1215772553786445 	101275.397126634
-0.471721721721722 	299.957965862934 	0.121776888640885 	101275.3158052729
-0.4692192192192195 	299.9579047536822 	0.121953838001909 	101275.2435916557
-0.4667167167167169 	299.957851432161 	0.1221087613196693 	101275.1805809464
-0.4642142142142145 	299.9578058713051 	0.1222405667298279 	101275.1267405044
-0.461711711711712 	299.9577680370946 	0.122349994740783 	101275.0820312744
-0.4592092092092094 	299.9577380339454 	0.1224367339638247 	101275.0465780726
-0.456706706706707 	299.9577159060501 	0.1225007868727643 	101275.0204325237
-0.4542042042042045 	299.9577016060728 	0.1225426756173166 	101275.0035372224
-0.451701701701702 	299.9576951014508 	0.1225613938707444 	101274.9958536248
-0.4491991991991995 	299.9576963572462 	0.1225577726357504 	101274.997340368
-0.4466966966966969 	299.9577053971067 	0.1225313232485185 	101275.0080265888
-0.4441941941941945 	299.9577222763688 	0.1224825931686753 	101275.0279790472
-0.441691691691692 	299.9577469356062 	0.1224119204060029 	101275.0571269044
-0.4391891891891895 	299.9577792989138 	0.1223179037557544 	101275.0953778465
-0.436686686686687 	299.9578194070438 	0.1222014403544146 	101275.1427793222
-0.4341841841841846 	299.9578673186495 	0.1220618231924426 	101275.1994018852
-0.431681681681682 	299.9579230451012 	0.1219001739938277 	101275.2652619408
-0.4291791791791794 	299.9579865666295 	0.121716893598923 	101275.340337103
-0.426676676676677 	299.9580578089153 	0.1215103015431824 	101275.4245371252
-0.4241741741741744 	299.9581367613984 	0.1212815345421907 	101275.5178467174
-0.421671671671672 	299.9582234758785 	0.1210295070833424 	101275.6203258368
-0.4191691691691694 	299.9583179031068 	0.1207563133278575 	101275.7319191487
-0.4166666666666669 	299.958419956583 	0.1204620810191991 	101275.8525282135
-0.4141641641641645 	299.958529636264 	0.1201441207551017 	101275.9821539294
-0.411661661661662 	299.958646941243 	0.1198039818882297 	101276.1207922702
-0.4091591591591594 	299.9587718163698 	0.1194390939833858 	101276.2683740334
-0.406656656656657 	299.9589042163396 	0.1190550230739825 	101276.4248446311
-0.4041541541541545 	299.9590441179957 	0.1186522451045147 	101276.5901789021
-0.401651651651652 	299.9591916664021 	0.1182246718153991 	101276.7645527059
-0.3991491491491494 	299.9593470116136 	0.1177751012767325 	101276.94814587
-0.396646646646647 	299.9595100149962 	0.1173003008668498 	101277.140793077
-0.3941441441441444 	299.9596803096065 	0.116807478681134 	101277.3420559272
-0.3916416416416419 	299.9598577236789 	0.1162974012878634 	101277.5517281197
-0.3891391391391395 	299.9600423505925 	0.1157623727211687 	101277.7699187435
-0.3866366366366368 	299.9602344536145 	0.1152054582168979 	101277.9969448086
-0.3841341341341344 	299.9604340747505 	0.1146248701259095 	101278.2328612889
-0.381631631631632 	299.9606408771564 	0.1140249441964446 	101278.4772727888
-0.3791291291291294 	299.9608546029405 	0.1134065280330866 	101278.7298698383
-0.3766266266266269 	299.9610754997178 	0.1127660835114774 	101278.9909379932
-0.3741241241241244 	299.9613039259303 	0.1121054023455289 	101279.2608968144
-0.371621621621622 	299.9615399247048 	0.1114225557038717 	101279.539799258
-0.3691191191191194 	299.9617831451719 	0.1107191029867099 	101279.827237554
-0.366616616616617 	299.9620330555431 	0.1099955397179082 	101280.1225902278
-0.3641141141141143 	299.962289469723 	0.1092516453759455 	101280.4256391905
-0.3616116116116119 	299.9625525266255 	0.1084895805963824 	101280.7365438976
-0.3591091091091095 	299.9628223066235 	0.1077074022603572 	101281.0553912991
-0.356606606606607 	299.9630989842155 	0.1069047284184397 	101281.3823812982
-0.3541041041041044 	299.9633829835313 	0.1060809511315431 	101281.7180148449
-0.3516016016016019 	299.9636743627989 	0.1052365936785379 	101282.0623678333
-0.3490990990990994 	299.963972631195 	0.1043743624875654 	101282.4148702895
-0.346596596596597 	299.9642769848531 	0.1034940123759212 	101282.7745781656
-0.3440940940940944 	299.9645869136586 	0.1025956786416726 	101283.1408867002
-0.3415915915915919 	299.9649030587858 	0.1016781794863231 	101283.5145445192
-0.3390890890890895 	299.965226489757 	0.1007410281598614 	101283.8968051294
-0.3365865865865869 	299.9655570870263 	0.09978449672700034 	101284.2875221731
-0.3340840840840844 	299.9658939996862 	0.09880835871164471 	101284.6856928607
-0.3315815815815819 	299.9662366135872 	0.0978154418902154 	101285.0906006047
-0.3290790790790794 	299.9665845950586 	0.09680623691206529 	101285.5018627346
-0.3265765765765769 	299.9669384113559 	0.09578081571508487 	101285.9200377942
-0.3240740740740744 	299.9672988522377 	0.09473814111993767 	101286.3460573351
-0.3215715715715718 	299.967665897442 	0.09367465741917565 	101286.7798884117
-0.3190690690690695 	299.9680395837531 	0.09259130496007567 	101287.2215616826
-0.3165665665665668 	299.9684197965426 	0.09149013736547143 	101287.670932701
-0.3140640640640644 	299.9688051358627 	0.09037435238905268 	101288.1263473951
-0.311561561561562 	299.9691947269049 	0.08924597794384488 	101288.586780123
-0.3090590590590593 	299.9695889624645 	0.0881035625614896 	101289.0527070423
-0.3065565565565568 	299.9699884572511 	0.08694530514979788 	101289.5248661058
-0.3040540540540545 	299.9703944568335 	0.08576753279046095 	101290.004733345
-0.3015515515515518 	299.9708077507629 	0.08457107950154524 	101290.4932382647
-0.2990490490490494 	299.9712273331687 	0.08335696095678048 	101290.9891826543
-0.2965465465465469 	299.9716520815447 	0.08212632152791284 	101291.4912267911
-0.2940440440440444 	299.972081011278 	0.08088405508936629 	101291.9981985748
-0.2915415415415418 	299.9725134618996 	0.07962944527604669 	101292.5093145945
-0.2890390390390395 	299.9729497272788 	0.07836516346249303 	101293.0249264395
-0.2865365365365368 	299.973390860625 	0.07708897637914523 	101293.5462884882