/*--------------------------------*- C++ -*----------------------------------*\
  =========                 |
  \\      /  F ield         | OpenFOAM: The Open Source CFD Toolbox
   \\    /   O peration     | Website:  https://openfoam.org
    \\  /    A nd           | Version:  7
     \\/     M anipulation  |
\*---------------------------------------------------------------------------*/
FoamFile
{
    version     2.0;
    format      ascii;
    class       volScalarField;
    location    "0.0018";
    object      Ux;
}
// * * * * * * * * * * * * * * * * * * * * * * * * * * * * * * * * * * * * * //

dimensions      [0 1 -1 0 0 0 0];

internalField   nonuniform List<scalar> 
5000
(
23.173153
23.173188
23.173247
23.17333
23.173406
23.173377
23.173323
23.173252
23.173264
23.173302
23.173359
23.17344
23.173458
23.173436
23.1734
23.173377
23.173389
23.173413
23.173444
23.173478
23.173506
23.173499
23.173483
23.173486
23.173497
23.173512
23.173533
23.173552
23.173551
23.173549
23.17355
23.17355
23.173552
23.173556
23.173558
23.173559
23.173561
23.173567
23.173572
23.173572
23.173573
23.173579
23.173587
23.173591
23.173593
23.173599
23.173607
23.173614
23.173619
23.173624
23.173628
23.173634
23.173643
23.173651
23.173656
23.173664
23.173676
23.17369
23.173705
23.173723
23.173745
23.173769
23.173795
23.173823
23.173829
23.173829
23.173831
23.173835
23.173839
23.173844
23.173847
23.17385
23.173854
23.173859
23.173862
23.17386
23.173855
23.173845
23.173846
23.173847
23.173849
23.173853
23.173861
23.173871
23.173879
23.173877
23.17387
23.17385
23.173838
23.173844
23.17385
23.173858
23.173872
23.17388
23.173876
23.173864
23.173848
23.173853
23.173867
23.173875
23.173871
23.173858
23.173826
23.173817
23.173829
23.173849
23.173847
23.173838
23.173816
23.173816
23.173825
23.173825
23.173815
23.17379
23.173752
23.173706
23.17371
23.173722
23.17374
23.173738
23.173723
23.173682
23.173624
23.173569
23.173576
23.173585
23.173597
23.173598
23.173585
23.173547
23.173486
23.173418
23.173372
23.173378
23.173383
23.173388
23.173383
23.173358
23.173303
23.173226
23.173146
23.173114
23.173126
23.173138
23.173129
23.173097
23.173036
23.172953
23.172859
23.172783
23.172751
23.17274
23.172733
23.172716
23.172673
23.172601
23.172509
23.172412
23.17234
23.172296
23.172262
23.172225
23.172177
23.172105
23.172012
23.171909
23.171828
23.171765
23.171704
23.171635
23.17155
23.17145
23.171345
23.171249
23.171159
23.171064
23.170957
23.17084
23.170721
23.170617
23.17052
23.170421
23.170315
23.170194
23.170053
23.169901
23.169745
23.169602
23.169469
23.169338
23.169203
23.169059
23.1689
23.168728
23.168547
23.168365
23.168185
23.168012
23.167843
23.16767
23.167484
23.167277
23.167054
23.166822
23.166608
23.166407
23.166201
23.165982
23.165742
23.165488
23.165229
23.164987
23.164746
23.164498
23.164233
23.163948
23.163651
23.163353
23.163062
23.162771
23.162476
23.16217
23.161852
23.161523
23.161185
23.160842
23.160497
23.160151
23.159798
23.159435
23.159059
23.158674
23.158283
23.15789
23.15749
23.157082
23.156662
23.156234
23.155799
23.155358
23.154909
23.154451
23.153983
23.153508
23.153024
23.152532
23.152032
23.151523
23.151006
23.15048
23.149947
23.149404
23.148852
23.14829
23.147715
23.147129
23.146533
23.145929
23.14532
23.144705
23.14408
23.143441
23.142783
23.142112
23.141434
23.140757
23.14008
23.139395
23.138691
23.137964
23.13722
23.136469
23.135717
23.134961
23.134193
23.133406
23.132601
23.131784
23.130961
23.130135
23.129304
23.128462
23.127607
23.126736
23.125849
23.124947
23.124031
23.123105
23.122174
23.121238
23.120294
23.119334
23.118355
23.117359
23.116354
23.115345
23.114331
23.113307
23.112266
23.111208
23.110136
23.109052
23.107957
23.106849
23.105728
23.104597
23.103458
23.102311
23.101153
23.099979
23.098791
23.097591
23.09638
23.095159
23.093927
23.092682
23.091425
23.090154
23.088866
23.087562
23.086245
23.084923
23.083601
23.082274
23.080933
23.079571
23.07819
23.076792
23.075381
23.073961
23.072537
23.07111
23.069673
23.068214
23.06673
23.065231
23.063732
23.062236
23.060729
23.059204
23.05766
23.056105
23.054542
23.052967
23.051374
23.049766
23.048162
23.046561
23.044945
23.043299
23.041626
23.039936
23.038277
23.03662
23.034942
23.033226
23.03148
23.029716
23.027984
23.026254
23.024504
23.022721
23.020914
23.019097
23.017344
23.015587
23.013796
23.011952
23.010064
23.008151
23.006279
23.00444
23.002586
23.000693
22.998764
22.996811
22.994887
22.993028
22.991156
22.989243
22.987276
22.985275
22.983254
22.981297
22.979359
22.977399
22.975397
22.973356
22.971295
22.969242
22.967244
22.965244
22.963221
22.961169
22.959094
22.957008
22.954933
22.952855
22.950767
22.948664
22.946552
22.94444
22.942329
22.940212
22.938085
22.935947
22.933803
22.93166
22.929529
22.927391
22.925236
22.923058
22.920867
22.918664
22.916496
22.914344
22.91218
22.909991
22.907773
22.905538
22.903295
22.90108
22.898893
22.896699
22.894484
22.892248
22.889998
22.887751
22.885541
22.883328
22.881097
22.878841
22.87657
22.874292
22.872043
22.869804
22.867559
22.865303
22.863036
22.860763
22.858486
22.856217
22.853952
22.851682
22.849407
22.847125
22.844846
22.842577
22.840307
22.838029
22.835744
22.833455
22.831176
22.828901
22.826623
22.824341
22.822059
22.819778
22.817495
22.815212
22.812935
22.810656
22.808377
22.806097
22.803817
22.801539
22.79926
22.796989
22.794724
22.792457
22.790186
22.787912
22.785639
22.78338
22.781121
22.77886
22.776597
22.774336
22.772086
22.769841
22.767594
22.765344
22.7631
22.760864
22.758629
22.756392
22.754155
22.751928
22.749711
22.747493
22.745274
22.743054
22.740843
22.738645
22.736448
22.734251
22.732054
22.729865
22.727686
22.725509
22.723332
22.721163
22.718998
22.716838
22.714682
22.712531
22.710388
22.708249
22.706112
22.703985
22.701863
22.699745
22.69763
22.69552
22.693423
22.691333
22.689244
22.687154
22.685069
22.682997
22.680939
22.678888
22.676841
22.674793
22.672753
22.670727
22.668701
22.666678
22.664662
22.662655
22.660665
22.658685
22.656704
22.654721
22.652743
22.650775
22.648823
22.646886
22.644952
22.643018
22.641086
22.639163
22.637255
22.635358
22.633467
22.631577
22.629693
22.627821
22.625962
22.624111
22.622263
22.620419
22.618585
22.616765
22.614956
22.613152
22.611353
22.60956
22.607774
22.605998
22.604233
22.602479
22.600731
22.59899
22.597256
22.59553
22.593815
22.592109
22.59041
22.588718
22.587034
22.585361
22.583698
22.582042
22.580394
22.578754
22.577123
22.5755
22.573885
22.572279
22.570684
22.569098
22.567519
22.565949
22.564387
22.562833
22.561287
22.559749
22.55822
22.556702
22.555192
22.55369
22.552196
22.550711
22.549233
22.547765
22.546306
22.544854
22.54341
22.541975
22.54055
22.539134
22.537725
22.536323
22.534929
22.533546
22.532172
22.530807
22.529448
22.528096
22.526752
22.525417
22.524092
22.522775
22.521466
22.520164
22.51887
22.517585
22.516308
22.515039
22.513779
22.512525
22.511279
22.510039
22.508808
22.507585
22.506372
22.505166
22.503967
22.502775
22.50159
22.500412
22.499243
22.49808
22.496926
22.495779
22.494639
22.493505
22.492379
22.49126
22.490149
22.489044
22.487946
22.486854
22.48577
22.484692
22.483622
22.482558
22.481501
22.48045
22.479404
22.478366
22.477334
22.47631
22.475291
22.474277
22.47327
22.47227
22.471276
22.470288
22.469305
22.468328
22.467358
22.466393
22.465434
22.46448
22.463531
22.462589
22.461652
22.460721
22.459796
22.458875
22.45796
22.45705
22.456145
22.455247
22.454353
22.453464
22.45258
22.4517
22.450827
22.449959
22.449095
22.448236
22.447382
22.446533
22.445689
22.444849
22.444014
22.443185
22.44236
22.441539
22.440723
22.439912
22.439106
22.438304
22.437507
22.436714
22.435925
22.435142
22.434363
22.433589
22.432819
22.432053
22.431292
22.430537
22.429785
22.429037
22.428294
22.427555
22.426821
22.426092
22.425368
22.424647
22.42393
22.423218
22.422511
22.421809
22.421111
22.420417
22.419728
22.419043
22.418362
22.417686
22.417015
22.416349
22.415686
22.415028
22.414375
22.413726
22.413082
22.412442
22.411807
22.411176
22.41055
22.409929
22.409312
22.4087
22.408092
22.407488
22.40689
22.406297
22.405708
22.405123
22.404542
22.403967
22.403396
22.402831
22.40227
22.401713
22.40116
22.400612
22.40007
22.399532
22.398999
22.39847
22.397946
22.397426
22.396911
22.396402
22.395897
22.395396
22.394899
22.394408
22.393921
22.39344
22.392963
22.39249
22.392022
22.391558
22.391099
22.390646
22.390196
22.389751
22.389311
22.388875
22.388445
22.388019
22.387597
22.387179
22.386766
22.386358
22.385954
22.385555
22.38516
22.38477
22.384384
22.384003
22.383625
22.383253
22.382885
22.382521
22.382162
22.381806
22.381455
22.381108
22.380766
22.380429
22.380095
22.379765
22.379439
22.379118
22.378801
22.378488
22.378179
22.377874
22.377573
22.377276
22.376983
22.376695
22.37641
22.376129
22.375852
22.375578
22.375308
22.375042
22.374781
22.374523
22.374268
22.374017
22.373769
22.373525
22.373285
22.373049
22.372816
22.372586
22.37236
22.372137
22.371918
22.371702
22.37149
22.37128
22.371074
22.370871
22.370672
22.370475
22.370282
22.370092
22.369904
22.36972
22.369539
22.369361
22.369186
22.369014
22.368844
22.368677
22.368514
22.368353
22.368195
22.368039
22.367886
22.367736
22.367588
22.367443
22.367301
22.367161
22.367024
22.366888
22.366756
22.366625
22.366498
22.366373
22.36625
22.366128
22.366009
22.365893
22.365778
22.365667
22.365557
22.365449
22.365343
22.365239
22.365137
22.365037
22.364939
22.364843
22.364749
22.364657
22.364566
22.364477
22.36439
22.364305
22.364222
22.36414
22.364059
22.363981
22.363903
22.363828
22.363755
22.363682
22.363611
22.363542
22.363474
22.363407
22.363342
22.363279
22.363217
22.363155
22.363096
22.363037
22.36298
22.362924
22.36287
22.362816
22.362764
22.362712
22.362662
22.362613
22.362566
22.362519
22.362473
22.362428
22.362384
22.362342
22.3623
22.362259
22.36222
22.362181
22.362142
22.362105
22.362069
22.362033
22.361999
22.361965
22.361932
22.361899
22.361868
22.361837
22.361808
22.361778
22.361749
22.361721
22.361694
22.361668
22.361642
22.361617
22.361592
22.361568
22.361544
22.361521
22.361499
22.361478
22.361456
22.361435
22.361415
22.361396
22.361377
22.361358
22.36134
22.361322
22.361305
22.361288
22.361272
22.361256
22.36124
22.361225
22.36121
22.361196
22.361182
22.361169
22.361155
22.361142
22.36113
22.361117
22.361106
22.361094
22.361083
22.361072
22.361061
22.361051
22.361041
22.361031
22.361022
22.361013
22.361004
22.360995
22.360986
22.360978
22.36097
22.360962
22.360955
22.360947
22.36094
22.360933
22.360926
22.36092
22.360913
22.360907
22.360901
22.360895
22.36089
22.360884
22.360879
22.360873
22.360868
22.360863
22.360859
22.360854
22.360849
22.360845
22.36084
22.360836
22.360832
22.360829
22.360825
22.360821
22.360817
22.360813
22.36081
22.360807
22.360804
22.360801
22.360797
22.360794
22.360791
22.360789
22.360786
22.360783
22.360781
22.360778
22.360775
22.360773
22.360771
22.360768
22.360766
22.360764
22.360761
22.360759
22.360757
22.360755
22.360753
22.360751
22.360749
22.360748
22.360746
22.360744
22.360743
22.360741
22.360739
22.360737
22.360736
22.360734
22.360733
22.360731
22.36073
22.360728
22.360726
22.360725
22.360724
22.360723
22.360721
22.36072
22.360719
22.360717
22.360716
22.360715
22.360714
22.360712
22.360711
22.36071
22.360709
22.360708
22.360707
22.360705
22.360704
22.360703
22.360702
22.360701
22.3607
22.360699
22.360698
22.360697
22.360696
22.360695
22.360694
22.360693
22.360692
22.360691
22.36069
22.360689
22.360688
22.360687
22.360686
22.360685
22.360685
22.360684
22.360683
22.360682
22.360681
22.36068
22.360679
22.360679
22.360678
22.360677
22.360676
22.360675
22.360674
22.360674
22.360673
22.360672
22.360671
22.36067
22.36067
22.360669
22.360668
22.360667
22.360667
22.360666
22.360665
22.360664
22.360664
22.360663
22.360662
22.360661
22.360661
22.36066
22.360659
22.360658
22.360658
22.360657
22.360656
22.360655
22.360655
22.360654
22.360653
22.360653
22.360652
22.360651
22.36065
22.36065
22.360649
22.360648
22.360648
22.360647
22.360646
22.360645
22.360645
22.360644
22.360643
22.360643
22.360642
22.360642
22.360641
22.36064
22.360639
22.360639
22.360638
22.360637
22.360637
22.360636
22.360635
22.360635
22.360634
22.360633
22.360633
22.360632
22.360631
22.360631
22.36063
22.36063
22.360629
22.360628
22.360628
22.360627
22.360626
22.360626
22.360625
22.360625
22.360624
22.360623
22.360622
22.360622
22.360621
22.360621
22.36062
22.36062
22.360619
22.360618
22.360618
22.360617
22.360617
22.360616
22.360615
22.360615
22.360614
22.360613
22.360613
22.360612
22.360612
22.360611
22.360611
22.36061
22.360609
22.360609
22.360609
22.360608
22.360607
22.360607
22.360606
22.360605
22.360605
22.360605
22.360604
22.360603
22.360603
22.360602
22.360602
22.360601
22.360601
22.3606
22.3606
22.360599
22.360598
22.360598
22.360597
22.360597
22.360596
22.360596
22.360595
22.360595
22.360594
22.360594
22.360593
22.360593
22.360592
22.360592
22.360591
22.360591
22.36059
22.36059
22.360589
22.360588
22.360588
22.360587
22.360587
22.360587
22.360586
22.360585
22.360585
22.360584
22.360584
22.360583
22.360583
22.360582
22.360582
22.360581
22.360581
22.36058
22.36058
22.360579
22.360579
22.360578
22.360578
22.360577
22.360577
22.360576
22.360576
22.360575
22.360575
22.360574
22.360574
22.360573
22.360572
22.360572
22.360571
22.360571
22.36057
22.36057
22.360569
22.360569
22.360568
22.360568
22.360567
22.360567
22.360566
22.360566
22.360565
22.360565
22.360564
22.360564
22.360563
22.360562
22.360562
22.360561
22.360561
22.36056
22.36056
22.360559
22.360559
22.360558
22.360558
22.360557
22.360556
22.360556
22.360555
22.360555
22.360554
22.360554
22.360553
22.360553
22.360552
22.360552
22.360551
22.36055
22.36055
22.360549
22.360549
22.360548
22.360548
22.360547
22.360546
22.360546
22.360545
22.360545
22.360544
22.360544
22.360543
22.360542
22.360542
22.360541
22.360541
22.36054
22.36054
22.360539
22.360538
22.360538
22.360537
22.360537
22.360536
22.360536
22.360535
22.360534
22.360534
22.360533
22.360533
22.360532
22.360532
22.360531
22.36053
22.36053
22.360529
22.360529
22.360528
22.360527
22.360527
22.360526
22.360526
22.360525
22.360525
22.360524
22.360523
22.360523
22.360522
22.360522
22.360521
22.36052
22.36052
22.360519
22.360519
22.360518
22.360517
22.360517
22.360516
22.360516
22.360515
22.360514
22.360514
22.360513
22.360513
22.360512
22.360511
22.360511
22.36051
22.36051
22.360509
22.360508
22.360508
22.360507
22.360507
22.360506
22.360506
22.360505
22.360504
22.360504
22.360503
22.360503
22.360502
22.360501
22.360501
22.3605
22.3605
22.360499
22.360499
22.360498
22.360497
22.360497
22.360496
22.360496
22.360495
22.360495
22.360494
22.360493
22.360493
22.360492
22.360492
22.360491
22.360491
22.36049
22.360489
22.360489
22.360488
22.360488
22.360487
22.360487
22.360486
22.360486
22.360485
22.360484
22.360484
22.360483
22.360483
22.360482
22.360482
22.360481
22.360481
22.36048
22.36048
22.360479
22.360479
22.360478
22.360477
22.360477
22.360477
22.360476
22.360476
22.360475
22.360475
22.360474
22.360474
22.360473
22.360472
22.360472
22.360472
22.360471
22.360471
22.36047
22.36047
22.360469
22.360469
22.360468
22.360468
22.360467
22.360467
22.360466
22.360466
22.360465
22.360465
22.360464
22.360464
22.360464
22.360463
22.360463
22.360462
22.360462
22.360461
22.360461
22.36046
22.36046
22.360459
22.360459
22.360458
22.360458
22.360458
22.360457
22.360457
22.360456
22.360456
22.360455
22.360455
22.360454
22.360454
22.360453
22.360453
22.360453
22.360452
22.360452
22.360451
22.360451
22.36045
22.36045
22.360449
22.360449
22.360448
22.360448
22.360448
22.360447
22.360447
22.360446
22.360446
22.360445
22.360445
22.360444
22.360444
22.360443
22.360443
22.360443
22.360442
22.360442
22.360441
22.360441
22.36044
22.36044
22.360439
22.360439
22.360438
22.360438
22.360437
22.360437
22.360436
22.360436
22.360436
22.360435
22.360435
22.360434
22.360434
22.360433
22.360433
22.360432
22.360432
22.360431
22.360431
22.36043
22.36043
22.36043
22.360429
22.360429
22.360428
22.360428
22.360427
22.360427
22.360426
22.360426
22.360425
22.360425
22.360425
22.360424
22.360424
22.360423
22.360423
22.360422
22.360422
22.360421
22.360421
22.360421
22.36042
22.36042
22.360419
22.360418
22.360418
22.360418
22.360417
22.360417
22.360416
22.360416
22.360415
22.360415
22.360415
22.360414
22.360414
22.360413
22.360413
22.360412
22.360412
22.360411
22.360411
22.360411
22.36041
22.36041
22.360409
22.360409
22.360408
22.360408
22.360407
22.360407
22.360407
22.360406
22.360406
22.360405
22.360405
22.360404
22.360404
22.360403
22.360403
22.360403
22.360402
22.360402
22.360401
22.360401
22.3604
22.3604
22.3604
22.360399
22.360399
22.360398
22.360398
22.360397
22.360397
22.360396
22.360396
22.360396
22.360395
22.360395
22.360394
22.360394
22.360393
22.360393
22.360393
22.360392
22.360392
22.360391
22.360391
22.36039
22.36039
22.36039
22.360389
22.360389
22.360388
22.360388
22.360387
22.360387
22.360387
22.360386
22.360386
22.360385
22.360385
22.360384
22.360384
22.360384
22.360383
22.360383
22.360382
22.360382
22.360381
22.360381
22.360381
22.36038
22.36038
22.360379
22.360379
22.360379
22.360378
22.360378
22.360377
22.360377
22.360377
22.360376
22.360376
22.360375
22.360375
22.360374
22.360374
22.360374
22.360373
22.360373
22.360372
22.360372
22.360372
22.360371
22.360371
22.36037
22.36037
22.36037
22.360369
22.360369
22.360368
22.360368
22.360368
22.360367
22.360367
22.360366
22.360366
22.360366
22.360365
22.360365
22.360364
22.360364
22.360363
22.360363
22.360363
22.360362
22.360362
22.360361
22.360361
22.360361
22.36036
22.36036
22.360359
22.360359
22.360359
22.360358
22.360358
22.360357
22.360357
22.360356
22.360356
22.360356
22.360355
22.360355
22.360354
22.360354
22.360354
22.360353
22.360353
22.360352
22.360352
22.360351
22.360351
22.360351
22.36035
22.36035
22.360349
22.360349
22.360348
22.360348
22.360348
22.360347
22.360347
22.360346
22.360346
22.360345
22.360345
22.360345
22.360344
22.360344
22.360343
22.360343
22.360342
22.360342
22.360342
22.360341
22.360341
22.36034
22.36034
22.360339
22.360339
22.360339
22.360338
22.360338
22.360337
22.360337
22.360336
22.360336
22.360336
22.360335
22.360335
22.360334
22.360334
22.360333
22.360333
22.360332
22.360332
22.360332
22.360331
22.360331
22.36033
22.36033
22.360329
22.360329
22.360329
22.360328
22.360328
22.360327
22.360327
22.360326
22.360326
22.360326
22.360325
22.360325
22.360324
22.360324
22.360323
22.360323
22.360323
22.360322
22.360322
22.360321
22.360321
22.360321
22.36032
22.36032
22.360319
22.360319
22.360318
22.360318
22.360318
22.360317
22.360317
22.360316
22.360316
22.360316
22.360315
22.360315
22.360314
22.360314
22.360313
22.360313
22.360313
22.360312
22.360312
22.360311
22.360311
22.360311
22.36031
22.36031
22.360309
22.360309
22.360309
22.360308
22.360308
22.360307
22.360307
22.360307
22.360306
22.360306
22.360305
22.360305
22.360304
22.360304
22.360304
22.360303
22.360303
22.360303
22.360302
22.360302
22.360301
22.360301
22.360301
22.3603
22.3603
22.360299
22.360299
22.360299
22.360298
22.360298
22.360297
22.360297
22.360296
22.360296
22.360296
22.360295
22.360295
22.360295
22.360294
22.360294
22.360293
22.360293
22.360293
22.360292
22.360292
22.360291
22.360291
22.360291
22.36029
22.36029
22.360289
22.360289
22.360288
22.360288
22.360288
22.360287
22.360287
22.360287
22.360286
22.360286
22.360285
22.360285
22.360285
22.360284
22.360284
22.360283
22.360283
22.360283
22.360282
22.360282
22.360281
22.360281
22.36028
22.36028
22.36028
22.360279
22.360279
22.360279
22.360278
22.360278
22.360277
22.360277
22.360277
22.360276
22.360276
22.360275
22.360275
22.360275
22.360274
22.360274
22.360273
22.360273
22.360273
22.360272
22.360272
22.360271
22.360271
22.360271
22.36027
22.36027
22.360269
22.360269
22.360269
22.360268
22.360268
22.360268
22.360267
22.360267
22.360266
22.360266
22.360266
22.360265
22.360265
22.360264
22.360264
22.360264
22.360263
22.360263
22.360263
22.360262
22.360262
22.360261
22.360261
22.360261
22.36026
22.36026
22.360259
22.360259
22.360259
22.360258
22.360258
22.360257
22.360257
22.360257
22.360256
22.360256
22.360256
22.360255
22.360255
22.360254
22.360254
22.360254
22.360253
22.360253
22.360252
22.360252
22.360252
22.360251
22.360251
22.360251
22.36025
22.36025
22.360249
22.360249
22.360249
22.360248
22.360248
22.360248
22.360247
22.360247
22.360246
22.360246
22.360246
22.360245
22.360245
22.360245
22.360244
22.360244
22.360243
22.360243
22.360243
22.360242
22.360242
22.360242
22.360241
22.360241
22.36024
22.36024
22.36024
22.360239
22.360239
22.360239
22.360238
22.360238
22.360237
22.360237
22.360237
22.360236
22.360236
22.360236
22.360235
22.360235
22.360235
22.360234
22.360234
22.360233
22.360233
22.360233
22.360232
22.360232
22.360232
22.360231
22.360231
22.36023
22.36023
22.36023
22.360229
22.360229
22.360229
22.360228
22.360228
22.360227
22.360227
22.360227
22.360226
22.360226
22.360226
22.360225
22.360225
22.360225
22.360224
22.360224
22.360224
22.360223
22.360223
22.360222
22.360222
22.360222
22.360221
22.360221
22.360221
22.36022
22.36022
22.36022
22.360219
22.360219
22.360218
22.360218
22.360218
22.360217
22.360217
22.360217
22.360216
22.360216
22.360216
22.360215
22.360215
22.360215
22.360214
22.360214
22.360213
22.360213
22.360213
22.360212
22.360212
22.360212
22.360211
22.360211
22.36021
22.36021
22.36021
22.360209
22.360209
22.360209
22.360208
22.360208
22.360208
22.360207
22.360207
22.360207
22.360206
22.360206
22.360205
22.360205
22.360205
22.360204
22.360204
22.360204
22.360203
22.360203
22.360202
22.360202
22.360202
22.360201
22.360201
22.360201
22.3602
22.3602
22.360199
22.360199
22.360199
22.360198
22.360198
22.360198
22.360197
22.360197
22.360196
22.360196
22.360196
22.360195
22.360195
22.360195
22.360194
22.360194
22.360193
22.360193
22.360193
22.360192
22.360192
22.360192
22.360191
22.360191
22.36019
22.36019
22.36019
22.360189
22.360189
22.360189
22.360188
22.360188
22.360187
22.360187
22.360187
22.360186
22.360186
22.360186
22.360185
22.360185
22.360184
22.360184
22.360184
22.360183
22.360183
22.360183
22.360182
22.360182
22.360181
22.360181
22.360181
22.36018
22.36018
22.36018
22.360179
22.360179
22.360178
22.360178
22.360178
22.360177
22.360177
22.360177
22.360176
22.360176
22.360176
22.360175
22.360175
22.360175
22.360174
22.360174
22.360173
22.360173
22.360173
22.360172
22.360172
22.360172
22.360171
22.360171
22.360171
22.36017
22.36017
22.36017
22.360169
22.360169
22.360168
22.360168
22.360168
22.360167
22.360167
22.360167
22.360166
22.360166
22.360166
22.360165
22.360165
22.360165
22.360164
22.360164
22.360164
22.360163
22.360163
22.360163
22.360162
22.360162
22.360162
22.360161
22.360161
22.360161
22.36016
22.36016
22.36016
22.360159
22.360159
22.360158
22.360158
22.360158
22.360158
22.360157
22.360157
22.360157
22.360156
22.360156
22.360155
22.360155
22.360155
22.360155
22.360154
22.360154
22.360153
22.360153
22.360153
22.360153
22.360152
22.360152
22.360152
22.360151
22.360151
22.36015
22.36015
22.36015
22.360149
22.360149
22.360149
22.360148
22.360148
22.360148
22.360147
22.360147
22.360147
22.360146
22.360146
22.360146
22.360145
22.360145
22.360145
22.360144
22.360144
22.360144
22.360143
22.360143
22.360143
22.360142
22.360142
22.360142
22.360141
22.360141
22.36014
22.36014
22.36014
22.360139
22.360139
22.360139
22.360138
22.360138
22.360138
22.360137
22.360137
22.360137
22.360136
22.360136
22.360135
22.360135
22.360135
22.360134
22.360134
22.360134
22.360133
22.360133
22.360133
22.360132
22.360132
22.360132
22.360131
22.360131
22.360131
22.36013
22.36013
22.36013
22.360129
22.360129
22.360128
22.360128
22.360128
22.360127
22.360127
22.360127
22.360126
22.360126
22.360126
22.360125
22.360125
22.360125
22.360124
22.360124
22.360123
22.360123
22.360123
22.360122
22.360122
22.360122
22.360121
22.360121
22.360121
22.36012
22.36012
22.36012
22.360119
22.360119
22.360119
22.360118
22.360118
22.360118
22.360117
22.360117
22.360116
22.360116
22.360116
22.360115
22.360115
22.360115
22.360114
22.360114
22.360114
22.360113
22.360113
22.360113
22.360112
22.360112
22.360112
22.360111
22.360111
22.360111
22.36011
22.36011
22.36011
22.360109
22.360109
22.360109
22.360108
22.360108
22.360108
22.360107
22.360107
22.360107
22.360106
22.360106
22.360106
22.360105
22.360105
22.360105
22.360104
22.360104
22.360104
22.360103
22.360103
22.360103
22.360102
22.360102
22.360102
22.360101
22.360101
22.360101
22.3601
22.3601
22.360099
22.360099
22.360099
22.360099
22.360098
22.360098
22.360098
22.360097
22.360097
22.360096
22.360096
22.360096
22.360096
22.360095
22.360095
22.360094
22.360094
22.360094
22.360093
22.360093
22.360093
22.360093
22.360092
22.360092
22.360091
22.360091
22.360091
22.36009
22.36009
22.36009
22.360089
22.360089
22.360089
22.360088
22.360088
22.360088
22.360087
22.360087
22.360087
22.360086
22.360086
22.360086
22.360085
22.360085
22.360085
22.360084
22.360084
22.360084
22.360083
22.360083
22.360083
22.360082
22.360082
22.360082
22.360081
22.360081
22.360081
22.36008
22.36008
22.36008
22.360079
22.360079
22.360079
22.360078
22.360078
22.360078
22.360077
22.360077
22.360077
22.360076
22.360076
22.360076
22.360075
22.360075
22.360075
22.360074
22.360074
22.360074
22.360073
22.360073
22.360073
22.360072
22.360072
22.360072
22.360071
22.360071
22.360071
22.36007
22.36007
22.36007
22.360069
22.360069
22.360069
22.360068
22.360068
22.360068
22.360068
22.360067
22.360067
22.360067
22.360066
22.360066
22.360066
22.360065
22.360065
22.360065
22.360064
22.360064
22.360064
22.360064
22.360063
22.360063
22.360063
22.360062
22.360062
22.360062
22.360061
22.360061
22.360061
22.36006
22.36006
22.36006
22.360059
22.360059
22.360059
22.360059
22.360058
22.360058
22.360058
22.360057
22.360057
22.360057
22.360056
22.360056
22.360056
22.360056
22.360055
22.360055
22.360055
22.360054
22.360054
22.360054
22.360053
22.360053
22.360053
22.360053
22.360052
22.360052
22.360052
22.360051
22.360051
22.360051
22.36005
22.36005
22.36005
22.36005
22.360049
22.360049
22.360049
22.360048
22.360048
22.360048
22.360047
22.360047
22.360047
22.360047
22.360046
22.360046
22.360046
22.360045
22.360045
22.360045
22.360044
22.360044
22.360044
22.360043
22.360043
22.360043
22.360043
22.360042
22.360042
22.360042
22.360041
22.360041
22.360041
22.36004
22.36004
22.36004
22.360039
22.360039
22.360039
22.360038
22.360038
22.360038
22.360037
22.360037
22.360037
22.360037
22.360036
22.360036
22.360036
22.360035
22.360035
22.360035
22.360034
22.360034
22.360034
22.360033
22.360033
22.360033
22.360032
22.360032
22.360032
22.360031
22.360031
22.36003
22.36003
22.36003
22.360029
22.360029
22.360029
22.360028
22.360028
22.360028
22.360027
22.360027
22.360027
22.360026
22.360026
22.360026
22.360025
22.360025
22.360025
22.360024
22.360024
22.360023
22.360023
22.360023
22.360022
22.360022
22.360022
22.360021
22.360021
22.360021
22.36002
22.36002
22.36002
22.360019
22.360019
22.360019
22.360018
22.360018
22.360018
22.360017
22.360017
22.360016
22.360016
22.360016
22.360015
22.360015
22.360015
22.360014
22.360014
22.360013
22.360013
22.360013
22.360012
22.360012
22.360011
22.360011
22.360011
22.36001
22.36001
22.36001
22.360009
22.360009
22.360009
22.360008
22.360008
22.360007
22.360007
22.360007
22.360007
22.360007
22.360007
22.360006
22.360006
22.360005
22.360006
22.360007
22.360007
22.360006
22.360003
22.360001
22.359997
22.359994
22.359993
22.359994
22.359999
22.360016
22.360054
22.360151
22.360366
22.360964
22.360791
22.359993
22.35987
22.359975
22.359978
22.359955
22.359947
22.359946
22.359945
22.359947
22.359952
22.359959
22.359967
22.359975
22.359983
22.359991
22.359998
22.360003
22.360008
22.360012
22.360014
22.360016
22.360017
22.360018
22.360019
22.360019
22.360019
22.360019
22.360018
22.360018
22.360018
22.360017
22.360017
22.360017
22.360016
22.360016
22.360016
22.360015
22.360015
22.360013
22.360003
22.360002
22.360012
22.360015
22.360013
22.360013
22.360013
22.360013
22.360013
22.360013
22.360013
22.360012
22.360012
22.360012
22.360012
22.360012
22.360012
22.360011
22.360011
22.360011
22.360011
22.36001
22.36001
22.36001
22.36001
22.360009
22.360009
22.360009
22.360009
22.360008
22.360008
22.360008
22.360008
22.360007
22.360007
22.360007
22.360006
22.360006
22.360006
22.360006
22.360005
22.360005
22.360005
22.360005
22.360004
22.360004
22.360004
22.360003
22.360003
22.360003
22.360003
22.360002
22.360002
22.360002
22.360001
22.360001
22.360001
22.360001
22.36
22.36
22.36
22.359999
22.359999
22.359999
22.359998
22.359998
22.359998
22.359998
22.359997
22.359997
22.359997
22.359996
22.359996
22.359996
22.359995
22.359995
22.359995
22.359995
22.359994
22.359994
22.359994
22.359993
22.359993
22.359993
22.359992
22.359992
22.359992
22.359992
22.359991
22.359991
22.359991
22.35999
22.35999
22.35999
22.359989
22.359989
22.359989
22.359988
22.359988
22.359988
22.359987
22.359987
22.359987
22.359986
22.359986
22.359986
22.359985
22.359985
22.359985
22.359984
22.359984
22.359984
22.359983
22.359983
22.359983
22.359982
22.359982
22.359982
22.359981
22.359981
22.359981
22.35998
22.35998
22.35998
22.359979
22.359979
22.359979
22.359978
22.359978
22.359978
22.359977
22.359977
22.359977
22.359976
22.359976
22.359976
22.359975
22.359975
22.359975
22.359974
22.359974
22.359974
22.359973
22.359973
22.359973
22.359972
22.359972
22.359972
22.359971
22.359971
22.359971
22.35997
22.35997
22.35997
22.359969
22.359969
22.359969
22.359968
22.359968
22.359968
22.359967
22.359967
22.359967
22.359967
22.359966
22.359966
22.359966
22.359965
22.359965
22.359965
22.359964
22.359964
22.359964
22.359963
22.359963
22.359963
22.359962
22.359962
22.359962
22.359961
22.359961
22.359961
22.35996
22.35996
22.35996
22.359959
22.359959
22.359959
22.359959
22.359958
22.359958
22.359958
22.359957
22.359957
22.359957
22.359956
22.359956
22.359956
22.359955
22.359955
22.359955
22.359954
22.359954
22.359954
22.359953
22.359953
22.359953
22.359952
22.359952
22.359952
22.359952
22.359951
22.359951
22.359951
22.35995
22.35995
22.35995
22.359949
22.359949
22.359949
22.359948
22.359948
22.359948
22.359947
22.359947
22.359947
22.359946
22.359946
22.359946
22.359945
22.359945
22.359945
22.359945