/*--------------------------------*- C++ -*----------------------------------*\
  =========                 |
  \\      /  F ield         | OpenFOAM: The Open Source CFD Toolbox
   \\    /   O peration     | Website:  https://openfoam.org
    \\  /    A nd           | Version:  7
     \\/     M anipulation  |
\*---------------------------------------------------------------------------*/
FoamFile
{
    version     2.0;
    format      ascii;
    class       volScalarField;
    location    "0.0027";
    object      Uy;
}
// * * * * * * * * * * * * * * * * * * * * * * * * * * * * * * * * * * * * * //

dimensions      [0 1 -1 0 0 0 0];

internalField   nonuniform List<scalar> 
5000
(
2.0032459e-21
2.7218326e-21
0
0
-1.3182693e-21
1.431342e-36
1.1421205e-21
0
0
-1.2988554e-21
-2.6436618e-21
1.3252701e-21
1.3229127e-21
-1.3202026e-21
0
-1.3118479e-21
-4.8310126e-51
1.3004862e-21
0
1.2947848e-21
-1.2928964e-21
-1.2921317e-21
2.5855137e-21
-1.2952217e-21
-1.2992758e-21
-1.0748546e-35
1.3067533e-21
1.3052542e-21
-2.6012979e-21
2.2455246e-35
-2.2572646e-35
1.2871876e-21
2.5665394e-21
-2.5682202e-21
2.235742e-35
-1.1272247e-34
-4.5102743e-35
2.5947315e-21
-2.5699297e-21
-2.5464495e-21
2.5201568e-21
-8.6132276e-35
-2.5221847e-21
1.2775583e-21
3.8728542e-21
-1.2969495e-21
-1.2932343e-21
-8.7878561e-35
-2.5474598e-21
0
1.2603666e-21
1.7913402e-37
-1.2673006e-21
2.5523508e-21
-4.4778076e-35
-2.5555388e-21
1.2706334e-21
-4.3678633e-35
-1.2592085e-21
0
1.2605936e-21
4.3250221e-35
3.6157908e-37
1.2706802e-21
-1.267315e-21
4.419433e-35
1.2622571e-21
-1.2626886e-21
-1.2637518e-21
1.2629997e-21
1.2611324e-21
-1.2586386e-21
-1.2568981e-21
2.5159132e-21
1.2593764e-21
-1.2590199e-21
0
1.2537383e-21
-1.7781043e-37
-1.2501749e-21
1.2512267e-21
-3.5579805e-37
3.552532e-37
1.2470843e-21
1.2446256e-21
4.3277204e-35
-1.242972e-21
0
-1.2429418e-21
-1.2891065e-34
-4.3478035e-35
1.2433614e-21
1.2429891e-21
-2.485775e-21
-8.5945953e-35
1.2389607e-21
0
0
-1.2220264e-21
-8.4223511e-35
2.4117407e-21
-1.2010017e-21
-2.4057422e-21
0
1.2161169e-21
1.2313471e-21
-1.253329e-21
-1.2771229e-21
0
0
1.3199916e-21
1.2108345e-21
0
-4.9955053e-22
2.0189813e-35
1.4527469e-21
-1.3183015e-21
3.2022332e-37
-4.0120934e-35
-1.3086936e-51
2.4638546e-21
-5.1634666e-37
-1.2104205e-21
0
-1.1883967e-21
1.1702013e-21
1.1610375e-21
-2.3376678e-21
-1.1837917e-21
2.3825782e-21
1.1852391e-21
-1.1760156e-21
-1.166922e-21
-1.1615311e-21
0
1.1802866e-21
1.1859252e-21
-1.1805193e-21
-4.0627893e-35
1.1603731e-21
-1.1528256e-21
-1.1564979e-21
0
1.1740838e-21
1.1702786e-21
-1.1620353e-21
1.1511573e-21
-6.4998127e-37
-1.1456992e-21
1.1564037e-21
-1.1634141e-21
8.089743e-35
1.1545087e-21
-1.145207e-21
1.137775e-21
1.1375026e-21
-1.1457285e-21
0
0
-1.1464724e-21
-1.1391128e-21
1.133097e-21
1.1320585e-21
-1.1379327e-21
-7.9207099e-35
1.1404028e-21
-1.1360898e-21
-1.1302471e-21
0
1.1282515e-21
1.131552e-21
0
-1.1285161e-21
-1.1217326e-21
0
1.1160407e-21
2.3351376e-34
-1.1266519e-21
1.1232244e-21
1.1171023e-21
-1.1101502e-21
-7.6359974e-35
7.6275375e-35
4.7516519e-37
1.1164299e-21
-1.1124715e-21
-1.5330946e-34
7.5600572e-35
-7.5523308e-35
1.1044871e-21
0
0
-1.10304e-21
-1.0963157e-21
0
0
1.0966868e-21
6.5002144e-53
-1.1012478e-21
0
1.0960347e-21
-1.0940021e-21
-3.0262662e-34
2.1791693e-21
-1.0876607e-21
-2.2597345e-34
-1.5491579e-37
-1.0903821e-21
1.0875275e-21
-1.539122e-37
-1.493079e-34
7.4534459e-35
-1.0807774e-21
0
1.0821871e-21
7.4637456e-35
2.97876e-34
1.0697653e-21
0
-1.0754482e-21
-1.076609e-21
0
0
0
1.0661211e-21
7.4009009e-35
-1.0710434e-21
0
0
1.0568401e-21
1.0555175e-21
-1.0611542e-21
-1.0657326e-21
0
1.0608258e-21
1.0555976e-21
-1.0521869e-21
-1.0534413e-21
0
1.0597876e-21
-2.9422212e-34
-7.3340901e-35
1.0565873e-21
-1.05475e-21
-1.0522838e-21
0
1.0441858e-21
-1.4451086e-34
1.0414367e-21
1.4545873e-34
-2.1049519e-21
1.0489647e-21
-1.4466291e-34
-3.5954687e-34
-7.1315877e-35
-1.0324123e-21
1.0401356e-21
1.0461613e-21
0
-1.0403291e-21
-1.0347486e-21
0
1.0269225e-21
1.0313713e-21
-2.0746795e-21
-1.0394916e-21
1.0363472e-21
1.0316822e-21
2.849337e-34
-1.0249404e-21
1.0284667e-21
-7.1636291e-35
-1.0322025e-21
1.0285416e-21
-7.1181424e-35
7.1136497e-35
-2.9123393e-37
-7.0990087e-35
1.0262265e-21
0
0
-1.013058e-21
-1.0165338e-21
0
0
0
0
1.0070046e-21
6.9476149e-35
-2.0292799e-21
4.345841e-37
1.0164061e-21
1.010648e-21
-1.3943308e-34
-1.3861272e-34
-1.4286271e-37
-1.0112328e-21
-1.0124115e-21
-1.0082308e-21
2.0018317e-21
2.9841245e-21
-9.9442493e-22
-2.0039323e-21
0
1.0062332e-21
1.0017037e-21
-9.9477107e-22
2.8131993e-37
-4.2261392e-37
2.8358529e-37
1.002847e-21
1.0012747e-21
-9.9666818e-22
-1.9858853e-21
9.9090586e-22
-1.4203263e-53
9.9457912e-22
2.7542961e-34
-1.9821958e-21
0
0
1.9802706e-21
-5.4739632e-34
-1.9527581e-21
0
9.6840848e-22
9.7978926e-22
-9.8844513e-22
1.4034158e-37
-1.3582439e-34
1.3703355e-37
9.5266713e-22
-9.5426509e-22
-9.6912867e-22
0
9.8736931e-22
-1.3589904e-34
-9.6870687e-22
1.9166395e-21
-2.6407388e-34
-9.5738982e-22
-2.6906252e-34
-1.9545442e-21
1.9536204e-21
9.6979391e-22
-9.6298977e-22
-1.3581512e-37
-9.5187595e-22
0
0
9.7127524e-22
-1.3398077e-34
-1.9174284e-21
1.3517568e-37
2.8388613e-21
-9.4998476e-22
-9.5853903e-22
1.9269167e-21
-9.5988537e-22
9.5375443e-22
1.8944411e-21
-9.4292614e-22
-9.469099e-22
-9.5401732e-22
9.5640415e-22
8.7626079e-52
-9.4408149e-22
9.3624241e-22
-9.3217178e-22
9.3851117e-22
2.6278402e-34
2.706184e-37
9.4706311e-22
-1.8801668e-21
9.3322622e-22
2.5784834e-34
-2.5837611e-34
-9.3901012e-22
-1.8868317e-21
2.8200606e-21
2.5918056e-34
-5.1492607e-34
2.559978e-34
-1.8542745e-21
1.8672361e-21
-2.5965618e-34
-1.8617634e-21
0
0
9.1103615e-22
-1.2750419e-34
-9.2854349e-22
-9.3040645e-22
9.2344379e-22
2.7408597e-21
-9.0365735e-22
-9.0108496e-22
-2.589821e-37
-9.2262745e-22
0
1.8371055e-21
1.8204016e-21
-9.0073685e-22
-1.7909886e-21
-9.0276848e-22
1.8288513e-21
1.8383341e-21
-1.8260291e-21
-1.8093763e-21
0
1.7800613e-21
-8.9575024e-22
-1.8144149e-21
9.1228893e-22
9.0673499e-22
-1.2771048e-37
1.234595e-34
8.8337385e-22
-8.8828091e-22
-8.9921705e-22
9.0454159e-22
-1.2498002e-34
-1.2715737e-37
-1.2299537e-34
-8.8132291e-22
8.8375794e-22
-3.7154349e-34
-1.2455809e-34
-2.4846725e-34
-8.9077222e-22
8.8537148e-22
-1.2242186e-34
-2.4503614e-34
-1.2611112e-37
-1.778163e-21
-8.8741876e-22
8.8256952e-22
1.7574462e-21
-1.2209849e-34
-1.7647865e-21
-8.84406e-22
1.7655953e-21
8.7716309e-22
-8.7233178e-22
-8.7286952e-22
-2.4364929e-34
8.8140348e-22
0
0
8.6145355e-22
0
-8.6910047e-22
8.7828061e-22
1.2496817e-37
-2.4199691e-34
0
-8.5027865e-22
8.4975946e-22
8.6227083e-22
-1.7517651e-21
-8.8033868e-22
8.7387766e-22
0
0
-8.5150922e-22
2.3780629e-34
8.66173e-22
0
0
-8.6914564e-22
3.5992265e-34
8.579734e-22
0
0
0
0
0
0
0
0
1.725208e-21
4.8166706e-34
-8.6938436e-22
8.6812771e-22
-8.6410823e-22
8.6143594e-22
-2.4013675e-34
-8.6749715e-22
-2.4136434e-34
-8.6825651e-22
0
0
8.6270136e-22
2.4113577e-34
-8.7227735e-22
0
0
0
0
0
0
0
1.7423849e-21
-7.2077737e-34
-1.7252275e-21
8.6703308e-22
1.2412518e-37
8.7712662e-22
-4.8581275e-34
-1.7416441e-21
-8.665854e-22
2.6389721e-52
2.6269173e-21
0
-1.7602481e-21
0
0
1.7329531e-21
-2.4298899e-34
-2.6525157e-21
8.8564494e-22
8.8127072e-22
-8.7140569e-22
8.6401912e-22
-8.6805026e-22
-2.446408e-34
8.9198209e-22
-8.9313098e-22
0
-8.798611e-22
8.7297534e-22
1.7490717e-21
-8.8585933e-22
-8.9682033e-22
-9.0050625e-22
-8.9696148e-22
1.7854331e-21
8.875543e-22
-8.8492704e-22
0
9.0071079e-22
-9.0562982e-22
-9.0368817e-22
2.7006576e-21
2.546738e-37
-1.7876309e-21
8.9917462e-22
1.2583236e-34
9.1000236e-22
-2.5833161e-37
-1.8107958e-21
9.0227089e-22
0
-2.5220072e-34
-1.2995268e-37
-9.1576662e-22
9.1414364e-22
-2.533574e-34
-1.2650139e-34
-1.2991831e-37
-9.1726942e-22
9.1838089e-22
-5.3338914e-53
-2.5387895e-34
-1.3025164e-37
-1.839536e-21
-1.2781119e-34
9.2101507e-22
0
0
-9.1678583e-22
-3.8388058e-34
9.2658705e-22
-9.2582193e-22
1.2790778e-34
-7.4645091e-52
-1.2744177e-34
9.2416707e-22
9.3011918e-22
1.2896667e-34
-9.2595196e-22
0
0
9.2593741e-22
-9.3156414e-22
7.752104e-34
9.2814398e-22
-9.2241437e-22
0
9.2392881e-22
9.3042697e-22
-9.3302116e-22
-9.3044308e-22
0
9.1726011e-22
9.1864357e-22
-1.8566125e-21
-9.3460866e-22
9.3333336e-22
9.2917938e-22
1.2779467e-34
9.1588908e-22
2.5551377e-34
-1.8642624e-21
0
0
0
9.0392737e-22
8.9563798e-22
0
-9.2436941e-22
-1.2967087e-34
9.3644195e-22
0
0
-9.2127339e-22
-1.275261e-34
1.2736747e-34
-9.1904696e-22
9.1862896e-22
-3.8276939e-34
-9.2411957e-22
0
-9.2251714e-22
-1.2742881e-34
9.1053918e-22
-9.0466522e-22
9.0597096e-22
9.140731e-22
-9.1847039e-22
0
9.1086319e-22
9.0378045e-22
-8.9916388e-22
-9.0192154e-22
0
-9.1129818e-22
9.0965224e-22
9.0648321e-22
-9.0383138e-22
-1.8043039e-21
5.0114383e-34
2.7087872e-21
7.1464171e-53
-9.0064795e-22
-1.7980414e-21
4.9829592e-34
1.7958011e-21
-8.9759935e-22
8.9690236e-22
-8.957683e-22
-8.9439697e-22
1.7858395e-21
0
0
-1.7748645e-21
-6.5363027e-52
1.7678438e-21
0
0
-1.7593924e-21
-3.7827624e-52
1.7557431e-21
0
0
-1.7493148e-21
-8.7302318e-22
1.7410973e-21
8.6753067e-22
0
-1.7225056e-21
4.7677284e-34
1.7110404e-21
-8.5332294e-22
0
8.5407283e-22
-8.5523797e-22
1.2160054e-37
8.544356e-22
-8.5176494e-22
8.4880794e-22
8.4569245e-22
-8.4273037e-22
-8.3932772e-22
2.3210535e-34
8.3477643e-22
-8.3647357e-22
-2.3300822e-34
8.386695e-22
-8.3443464e-22
8.3001595e-22
8.2559467e-22
-8.2198782e-22
-8.2184967e-22
2.2889474e-34
8.260702e-22
-8.2539371e-22
1.1695689e-37
8.2032956e-22
-8.1828741e-22
8.1653205e-22
8.1507014e-22
-8.1409473e-22
-1.6264148e-21
4.5115651e-34
1.620643e-21
-8.0876975e-22
1.1471517e-37
1.6115615e-21
2.2871023e-37
-8.0390276e-22
0
8.0223219e-22
0
-8.0046013e-22
0
0
0
-7.968591e-22
-5.2875251e-53
7.9470265e-22
0
7.9214327e-22
-2.1957411e-34
-7.893299e-22
0
0
0
-7.8486976e-22
2.1775013e-34
7.8351149e-22
0
7.8206645e-22
2.1682572e-34
-7.8042651e-22
0
7.7852857e-22
-7.7733121e-22
4.3118873e-34
7.7466638e-22
-7.7338282e-22
0
-7.7141095e-22
-2.1399772e-34
7.7023914e-22
0
7.6950133e-22
-7.6909355e-22
-4.2692162e-34
7.6838076e-22
-4.2642399e-34
-1.0909454e-37
2.1318665e-34
-1.0900002e-37
-7.6669378e-22
0
7.6605414e-22
-2.1252166e-34
-2.1243264e-34
1.8945244e-53
-2.1234612e-34
0
-1.5278971e-21
-2.1203411e-34
7.6326254e-22
-7.6296524e-22
2.1167631e-34
7.624374e-22
7.622012e-22
2.115855e-34
-2.1152713e-34
7.6158831e-22
-7.6143807e-22
-7.6130732e-22
0
-7.6109942e-22
2.1132027e-34
7.6095644e-22
0
0
0
-1.5216283e-21
8.4503495e-34
1.5215775e-21
0
0
0
0
0
0
0
-1.5209651e-21
4.2249521e-34
1.5204445e-21
7.6004434e-22
-7.5980738e-22
-7.595144e-22
2.1092158e-34
4.2101721e-34
7.5863599e-22
-7.5852549e-22
7.5849507e-22
7.5858321e-22
-7.5876143e-22
-7.5891965e-22
4.2134051e-34
7.5923797e-22
7.5941927e-22
-2.1070962e-34
-7.5977806e-22
-7.5995855e-22
7.6013814e-22
7.6031449e-22
-7.604868e-22
7.606547e-22
0
-7.6097117e-22
-7.6111905e-22
2.1116761e-34
7.6137935e-22
-7.6147924e-22
7.6154153e-22
7.6158792e-22
-7.6161129e-22
7.6160768e-22
2.1146882e-34
-7.6146038e-22
-7.6131659e-22
-1.0816404e-37
1.5219606e-21
4.2247273e-34
-7.6092325e-22
-7.6098915e-22
0
7.6129453e-22
0
0
0
7.6187677e-22
7.6201754e-22
-7.6215496e-22
-7.6228828e-22
0
7.6253625e-22
-2.1188134e-34
-7.627582e-22
0
0
7.630231e-22
-4.2356678e-34
-7.631248e-22
0
0
7.6332637e-22
-4.2375287e-34
-7.6350271e-22
0
7.636767e-22
-2.1208275e-34
2.1199903e-34
-2.1213222e-34
-7.6403266e-22
0
-7.6420428e-22
4.2412858e-34
7.6436636e-22
0
7.6451455e-22
-7.6458329e-22
-7.6464694e-22
1.5294126e-21
2.1257598e-34
-1.529606e-21
2.1237796e-34
7.6483235e-22
0
0
7.6465596e-22
-2.1219389e-34
-7.6445312e-22
0
7.6427452e-22
-7.6422977e-22
-7.6422379e-22
7.6424264e-22
0
-7.6431797e-22
7.6434837e-22
4.2428815e-34
-4.2430599e-34
7.6444156e-22
-6.3661772e-34
7.6449927e-22
-7.6452579e-22
2.1219156e-34
-4.2461219e-34
-1.5291773e-21
2.1209761e-34
7.6461212e-22
0
0
0
-1.5291909e-21
-7.6457155e-22
1.5290703e-21
7.6448152e-22
0
0
7.6415864e-22
8.7322633e-54
-7.6380374e-22
0
-1.5268722e-21
-7.6327343e-22
1.5262691e-21
7.6302136e-22
0
-1.5257082e-21
-2.1679451e-37
2.2880894e-21
-2.1154537e-34
-1.525053e-21
7.6243994e-22
4.3334584e-37
-7.622561e-22
2.1174443e-34
4.2278184e-34
7.6194646e-22
0
7.6171321e-22
-4.2284787e-34
-1.522916e-21
7.6131972e-22
-1.2673107e-33
-7.6101924e-22
1.5217145e-21
-1.0810006e-37
-7.605062e-22
0
0
0
-7.596802e-22
7.5944497e-22
1.5183943e-21
-7.5893625e-22
-2.106652e-34
-2.103694e-34
-7.5806976e-22
0
7.5743759e-22
-1.0759357e-37
-1.51362e-21
7.5649344e-22
4.1951576e-34
-7.5583417e-22
-7.5549293e-22
4.1959147e-34
1.5095734e-21
0
7.5404647e-22
7.536628e-22
0
-7.5286622e-22
-7.5245227e-22
7.5202764e-22
0
-7.5114469e-22
0
0
7.497277e-22
-6.2392151e-34
-7.4870247e-22
0
0
7.4703443e-22
7.4646195e-22
-7.4588651e-22
-7.4530901e-22
7.4473006e-22
7.4414992e-22
-1.4871345e-21
-7.429802e-22
2.0625149e-34
7.4178499e-22
-4.111986e-34
-4.1085731e-34
7.3994105e-22
-7.3931994e-22
7.3870007e-22
-7.380802e-22
-6.2879448e-37
7.3683205e-22
-1.4724043e-21
-7.3556797e-22
-7.3492964e-22
1.468574e-21
1.4672794e-21
-7.3298751e-22
7.3233056e-22
-7.3166875e-22
4.0596929e-34
1.4606597e-21
-7.2965262e-22
2.0231671e-34
-2.0233198e-34
-7.2757792e-22
0
0
7.2540671e-22
7.246716e-22
0
-7.232043e-22
-7.2247394e-22
0
-7.2102046e-22
2.0001224e-34
7.1957674e-22
-7.1885837e-22
1.992099e-34
7.1743133e-22
0
7.1601833e-22
3.9715716e-34
-7.1462131e-22
7.139303e-22
-1.9774984e-34
-7.1256545e-22
-7.1189258e-22
-1.9739234e-34
7.1056438e-22
0
-7.0925776e-22
7.0861335e-22
-2.0121808e-37
3.9282714e-34
7.0670755e-22
-7.0608151e-22
0
-1.4096749e-21
1.5635856e-33
7.0361003e-22
3.9022096e-34
1.4048119e-21
-1.4036292e-21
-1.4024629e-21
1.4013142e-21
1.4001842e-21
6.995362e-22
0
-6.9845122e-22
-1.3958445e-21
9.9106811e-38
-6.9689108e-22
6.9638888e-22
6.958957e-22
-6.9541164e-22
1.3898737e-21
-1.3889442e-21
-1.1558946e-33
1.387147e-21
-1.3862795e-21
3.8451033e-34
-6.9230518e-22
6.91907e-22
6.9152093e-22
-6.9114635e-22
-1.9162093e-34
-1.3808721e-21
1.3801969e-21
1.379545e-21
-1.378916e-21
-1.9126663e-34
-6.8886238e-22
3.8241002e-34
6.8830838e-22
1.9095917e-34
4.8565928e-53
6.8755213e-22
1.3746388e-21
-6.8709659e-22
-9.140639e-53
-6.8668049e-22
-1.1435489e-33
6.8630523e-22
-1.3722688e-21
3.8076811e-34
1.3716515e-21
6.4347124e-54
-6.8555889e-22
0
0
-6.8523218e-22
6.8514229e-22
1.3701219e-21
0
0
0
-6.8482073e-22
-6.8478171e-22
0
6.8472865e-22
-6.8471387e-22
-1.1403874e-33
1.3694131e-21
0
0
0
-6.8477158e-22
-6.848023e-22
6.8483836e-22
-6.8487965e-22
-3.8038068e-34
1.3699544e-21
0
0
-1.3703088e-21
1.9475127e-37
6.8528822e-22
-6.8535823e-22
6.8542921e-22
-6.855009e-22
3.8073985e-34
1.3712883e-21
0
0
-6.8585878e-22
-6.8593046e-22
0
0
6.8614918e-22
6.8622394e-22
0
-6.8637595e-22
-6.8645211e-22
6.8652795e-22
-6.8660303e-22
-6.8667677e-22
6.8674926e-22
6.8682019e-22
-3.8147109e-34
-6.8695687e-22
6.8702223e-22
1.9069263e-34
-6.8714973e-22
0
-6.8727307e-22
3.8161986e-34
6.8739264e-22
-6.8745094e-22
3.8171667e-34
6.8756181e-22
0
-6.8766324e-22
1.9096324e-34
9.7735474e-38
-6.8779166e-22
6.8782718e-22
6.8785865e-22
0
-1.3758217e-21
7.6409953e-34
6.8794864e-22
9.7765338e-38
1.3759459e-21
-1.3759611e-21
-1.3759706e-21
1.3759744e-21
6.8798666e-22
0
-1.3759551e-21
1.1454294e-33
1.3759148e-21
0
-1.3758518e-21
-3.8203554e-34
6.8788331e-22
1.9100442e-34
1.3756582e-21
-1.3755965e-21
-1.7178304e-33
1.3754576e-21
-1.3753799e-21
3.8159949e-34
1.3752088e-21
6.8755661e-22
-1.3750116e-21
-6.8745174e-22
1.3747877e-21
-1.3746641e-21
-1.7165841e-33
1.3743893e-21
-1.374236e-21
1.9077622e-34
-6.86948e-22
7.6212192e-34
2.0602632e-21
-3.8114232e-34
-1.3730749e-21
6.8641995e-22
1.3725931e-21
-6.8616832e-22
3.8089922e-34
-6.8589769e-22
-7.6168288e-34
6.856094e-22
-1.3709184e-21
5.7069171e-34
-7.6071285e-34
3.8002213e-34
6.8481363e-22
0
6.8446592e-22
6.8428699e-22
0
0
0
0
0
-6.8320833e-22
-6.8302983e-22
0
6.8266906e-22
-6.8248559e-22
-1.1365708e-33
1.3642161e-21
0
0
0
-6.812904e-22
-6.8106894e-22
6.808397e-22
6.8060232e-22
-1.3607111e-21
-1.1330998e-33
1.3596665e-21
0
-1.3585493e-21
-1.1310468e-33
6.7868281e-22
-6.7837633e-22
6.7806354e-22
-6.7774432e-22
-3.7601908e-34
1.3541743e-21
0
0
-6.7604531e-22
-6.7568086e-22
0
-6.7492168e-22
-1.9171181e-37
-6.7411824e-22
6.7369841e-22
2.019803e-21
0
1.3447345e-21
1.3437931e-21
0
-2.0127481e-21
-1.3408118e-21
1.3397634e-21
-6.6934299e-22
-6.6879043e-22
2.0046749e-21
6.6764265e-22
9.479226e-38
6.664238e-22
-6.6578947e-22
-6.6513815e-22
-6.6447085e-22
-3.2402332e-53
-6.6308282e-22
-6.6236214e-22
6.616234e-22
0
1.3201722e-21
1.3185733e-21
0
-6.5762386e-22
-1.31352e-21
-3.6396632e-34
-6.5496303e-22
-1.3080597e-21
1.3061493e-21
1.304191e-21
6.5109275e-22
6.5006739e-22
0
-6.4794891e-22
-1.9405677e-21
6.4574085e-22
5.7971457e-51
-1.9303242e-21
1.2845152e-21
6.4105056e-22
6.3981868e-22
1.277124e-21
-1.2745601e-21
-6.35972e-22
6.3463681e-22
6.3327349e-22
6.3188252e-22
-1.8913908e-21
-6.2901545e-22
1.8826152e-21
6.2603207e-22
-6.2449608e-22
-1.2458605e-21
6.2133394e-22
-6.197074e-22
1.0290198e-33
-1.0265601e-33
-1.8439308e-21
6.1289345e-22
6.1111241e-22
1.2186002e-21
6.0745652e-22
-1.2111632e-21
-1.7157476e-37
-6.0173626e-22
5.9976594e-22
1.7932895e-21
-1.7871813e-21
-5.9365802e-22
1.7746656e-21
0
-1.761732e-21
-5.8503459e-22
1.7483671e-21
-5.8050563e-22
-1.1563681e-21
-3.1962614e-34
6.3650799e-34
5.7098874e-22
0
1.1319955e-21
1.126886e-21
-5.6084863e-22
-5.582134e-22
-1.1110731e-21
5.5281791e-22
5.5005689e-22
-1.0945042e-21
0
1.0830147e-21
1.0771315e-21
-5.3557647e-22
-1.0650789e-21
2.9388709e-34
5.263196e-22
-1.046274e-21
5.199051e-22
-1.7205923e-33
-1.0265854e-21
5.0991127e-22
0
1.0059842e-21
0
-1.1011029e-33
-4.9221521e-22
-9.7703174e-22
1.4542927e-21
-1.3669721e-37
-9.5421074e-22
0
9.3847782e-22
4.652258e-22
-9.223142e-22
5.0743948e-34
4.5284821e-22
-8.972128e-22
4.4430564e-22
-7.3248722e-34
-8.7106423e-22
4.3106111e-22
-4.2653424e-22
8.439018e-22
1.2519292e-21
0
-1.2235433e-21
-8.060472e-22
1.1944074e-21
7.8637023e-22
-3.8817208e-22
-7.6619719e-22
3.7796723e-22
3.72779e-22
-7.350685e-22
3.6223309e-22
7.1374863e-22
-3.5145563e-22
4.9166007e-38
-6.8086325e-22
-6.696523e-22
9.8747794e-22
-3.2343306e-22
-5.2905023e-34
9.3543653e-22
0
-8.9990437e-22
-5.8792115e-22
2.8789584e-22
2.8177381e-22
2.7559589e-22
0
2.6307994e-22
-1.4251279e-34
-5.0071617e-22
1.3535941e-34
2.3742966e-22
0
2.242966e-22
-4.3531297e-22
-6.3291096e-22
4.0847794e-22
5.923897e-22
1.9064424e-22
-1.8378158e-22
-3.5374878e-22
1.6992285e-22
-1.6292903e-22
-1.5589555e-22
2.9764925e-22
-2.8343803e-22
-1.3458076e-22
3.8223102e-22
2.4041451e-22
-1.1296991e-22
-3.170971e-22
2.1847142e-34
-2.0219601e-34
-8.3712478e-23
-8.4744173e-35
-6.8935555e-23
6.1510404e-23
5.4058054e-23
4.657877e-23
-3.9076506e-23
-3.1558432e-23
7.2084351e-23
-1.6491789e-23
-1.7887618e-23
4.1583731e-24
-1.7528193e-39
1.3792688e-23
-4.2876436e-23
-2.9034364e-23
0
4.4249316e-23
5.1867725e-23
1.1899403e-22
-6.7132573e-23
2.4900448e-34
2.471687e-22
-8.9999639e-23
-9.7597277e-23
-1.0518594e-22
1.1276696e-22
1.2033696e-22
-3.8367658e-22
1.3543471e-22
2.8594787e-22
2.506986e-34
1.5809186e-22
-3.313483e-22
-5.1974825e-22
-1.0032582e-34
1.0450325e-34
2.7808254e-38
2.0305076e-22
4.2080122e-22
2.1775876e-22
-6.7540642e-22
2.5813465e-34
4.7979663e-22
0
0
-2.6180945e-22
1.4932812e-34
-1.5326951e-34
-2.8332914e-22
5.808813e-22
2.9754843e-22
3.3814628e-34
-3.1182232e-22
-9.5695499e-22
-3.2612803e-22
0
0
0
1.0620342e-21
7.2175996e-22
-1.1033154e-21
4.1607142e-34
7.6324469e-22
0
0
-8.0448972e-22
9.0818842e-34
4.614908e-34
-8.4513369e-22
4.2932683e-22
8.7217899e-22
8.8569788e-22
-4.4959428e-22
-1.3689474e-21
-4.6301343e-22
0
0
0
1.4699253e-21
9.9357191e-22
-1.5106742e-21
1.1329344e-33
5.1691057e-22
-7.4403588e-38
5.3030976e-22
-1.0743421e-21
6.0405869e-34
5.5108096e-22
-1.1159244e-21
0
3.1729284e-34
1.1565392e-21
1.1704358e-21
-1.777021e-21
-1.1991595e-21
6.0684032e-22
3.4075671e-34
-6.2119907e-22
1.8850351e-21
1.2711248e-21
-6.4289963e-22
-6.5036057e-22
6.5792069e-22
6.6555572e-22
-6.7326157e-22
-6.8104852e-22
3.8240496e-34
-3.867243e-34
-7.049208e-22
0
-7.2126587e-22
1.4592546e-21
2.2143992e-21
-1.4935258e-21
-1.5109724e-21
-7.6429768e-22
8.5830423e-34
1.5647684e-21
-7.917743e-22
8.0138318e-22
8.1111684e-22
-1.6417646e-21
1.6613457e-21
8.4059691e-22
-8.5081577e-22
-1.722858e-21
-8.723972e-22
1.767142e-21
-4.9643397e-34
9.0611363e-22
9.1762918e-22
-2.7886447e-21
9.4193778e-22
9.546679e-22
-2.9025092e-21
1.3930956e-37
2.9795309e-21
1.0064343e-21
-3.0611332e-21
1.0350712e-21
-7.9197864e-50
1.7742236e-33
2.1618307e-21
-2.1924728e-21
-2.2239583e-21
1.1285007e-21
-1.2720888e-33
-2.3276584e-21
1.182026e-21
3.6009561e-21
1.2189303e-21
-1.238289e-21
0
-1.2799539e-21
-2.6032919e-21
1.8805064e-37
4.034608e-21
1.3669314e-21
-2.7804677e-21
2.0111456e-37
2.8833401e-21
-2.9376317e-21
2.4913373e-33
3.0450353e-21
-4.6484219e-21
-3.1555232e-21
0
0
1.6741441e-21
5.1237919e-21
1.7414065e-21
-5.3251266e-21
2.009313e-33
3.694141e-21
-3.773247e-21
-3.8560086e-21
1.9702878e-21
4.0258038e-21
-2.0560388e-21
-2.1004652e-21
6.4406787e-21
2.1954633e-21
3.7403415e-33
-1.274524e-33
-2.3500863e-21
2.4047366e-21
-4.9241303e-21
-7.5671582e-21
0
7.9469395e-21
5.4260758e-21
-8.3325051e-21
8.082843e-37
2.914166e-21
-5.9789457e-21
3.0694887e-21
3.152488e-21
3.5928038e-33
-3.3198618e-21
-6.807958e-21
3.4909892e-21
7.1662423e-21
7.3623881e-21
-4.2022681e-33
-3.8907088e-21
3.9987016e-21
-8.2160872e-21
-1.2659841e-20
0
1.3374578e-20
9.1718275e-21
-1.4155599e-20
5.3910989e-33
4.9945636e-21
-5.1377345e-21
-5.2854051e-21
3.017297e-33
1.1196083e-20
-3.1993815e-33
-1.1871545e-20
6.7856964e-33
6.9880945e-33
1.2965214e-20
2.0024873e-20
-1.374753e-20
7.8623254e-33
2.4295943e-32
-7.519541e-21
-7.7507812e-21
-1.5976086e-20
2.4692322e-20
8.4799125e-21
-1.7475102e-20
1.8011437e-20
5.2779818e-36
-2.8724507e-20
-9.8730537e-21
1.0178552e-20
3.1475372e-20
-3.6021191e-32
-2.2299434e-20
-1.1497662e-20
2.3715905e-20
3.6687205e-20
-3.7830322e-20
-1.3001729e-20
-1.4878709e-32
-1.3824323e-20
2.8515372e-20
-8.162388e-33
1.5164943e-20
-1.5637254e-20
5.3707406e-32
4.98772e-20
-5.1438061e-20
-5.305266e-20
0
0
0
1.9991003e-20
6.1832521e-20
2.1252727e-20
2.4331647e-32
2.2601107e-20
-6.9913781e-20
-2.4024739e-20
2.4764032e-20
2.5526465e-20
2.6312111e-20
-5.4255581e-20
2.7966961e-20
-2.8826567e-20
9.8947928e-32
6.1235898e-20
-9.4662476e-20
-6.5041352e-20
0
6.9080953e-20
3.9509517e-32
-3.6663908e-20
1.1330379e-19
3.8906176e-20
-4.0081929e-20
0
0
-4.382085e-20
-9.0256972e-20
1.0317306e-31
9.5689011e-20
4.9263076e-20
-5.0726062e-20
5.2232444e-20
-5.3779246e-20
8.3473842e-48
9.4912096e-32
-1.7595029e-19
0
0
1.2783912e-19
1.3154922e-19
6.7678469e-20
-7.7290874e-32
-2.1489637e-19
8.1821122e-32
1.5157506e-19
0
-1.6031789e-19
-8.2429861e-20
1.6951813e-19
-8.7147125e-20
-8.9594522e-20
2.7630631e-19
-9.4671359e-20
3.2406749e-31
2.0000536e-19
-3.0830437e-19
-2.1120289e-19
0
0
0
3.5288868e-19
2.4163298e-19
-3.7223624e-19
-2.5483716e-19
0
2.6868001e-19
-1.5311683e-31
-1.4159054e-19
2.9067687e-19
-1.4916855e-19
1.5308358e-19
1.5708763e-19
-4.8355366e-19
3.3075278e-19
3.3932637e-19
-1.7404425e-19
1.7851982e-19
-3.6618355e-19
-5.6328852e-19
0
5.9222948e-19
4.0477472e-19
-2.0746955e-19
-2.1265994e-19
2.4197177e-31
-2.2338064e-19
7.6251584e-31
2.3455824e-19
1.3342637e-31
-1.1414546e-48
-2.5216422e-19
0
-2.6450979e-19
5.4175504e-19
8.321179e-19
-8.5197464e-19
-8.7220006e-19
0
6.0920285e-19
6.2347936e-19
-6.3803892e-19
3.2644105e-19
3.340029e-19
-1.0251108e-18
6.9908664e-19
7.1504858e-19
-3.6565035e-19
-7.4785202e-19
-3.8235521e-19
1.1728204e-18
3.996806e-19
6.8037003e-31
-8.3524149e-19
-2.4261877e-34
1.3085252e-18
-8.9138816e-19
-1.3661467e-18
-4.6524161e-19
1.4258098e-18
9.7092575e-19
-1.4874536e-18
1.1243657e-30
1.0340526e-18
5.2789385e-19
-2.9915529e-31
-1.1003588e-18
6.2345498e-31
-5.7318485e-19
-5.8494943e-19
1.7906719e-18
6.0901447e-19
6.8976807e-31
-1.2676685e-18
2.1532559e-30
1.9782805e-18
-1.3450138e-18
7.6170256e-31
7.7684553e-31
1.5830013e-30
7.2671914e-19
-2.2222956e-18
7.5501456e-19
1.2811175e-30
2.6114659e-30
2.3968929e-18
-8.1400884e-19
-1.658506e-18
9.3774696e-31
-8.6035859e-19
-8.7622685e-19
1.7846111e-18
1.8171839e-18
-1.0268514e-30
-2.8253352e-18
1.0640078e-30
9.7579126e-19
-1.9862334e-18
1.0106579e-18
1.0284138e-18
-5.8052415e-31
5.9091193e-31
-1.0829487e-18
2.2030978e-18
-1.1203639e-18
3.795355e-30
3.8588149e-30
-3.5343264e-18
2.395572e-18
-3.4608417e-34
-2.4755566e-18
1.2580973e-18
3.8359028e-18
1.2993887e-18
-3.9610734e-18
1.4893112e-30
1.3629285e-18
-2.7690616e-18
2.8126984e-18
7.136985e-30
-1.4506414e-18
1.473109e-18
-1.4957832e-18
3.0373226e-18
-1.5417457e-18
-4.6951266e-18
0
0
3.2724505e-18
4.7190463e-34
-3.3694097e-18
1.7092404e-18
5.2019378e-18
1.7589275e-18
-5.3522588e-18
-5.1427684e-34
-2.0371428e-30
-3.7215285e-18
5.6601112e-18
9.5564573e-30
-1.93916e-18
1.9656851e-18
1.9924076e-18
-2.2429015e-30
-2.046419e-18
4.1473899e-18
-4.202296e-18
7.0898093e-30
4.3131907e-18
-6.5537813e-18
-4.4255456e-18
2.2411264e-18
6.808944e-18
2.298333e-18
-2.3271806e-18
0
2.3853704e-18
-2.4147138e-18
-7.3326542e-18
-1.3731895e-30
5.0073665e-18
-2.5336346e-18
-2.5637306e-18
5.1879463e-18
-2.6243625e-18
2.6548958e-18
5.3711334e-18
-8.1491036e-18
9.1497412e-30
-6.1695559e-30
-5.6190338e-18
5.681633e-18
2.8722406e-18
2.9037835e-18
3.2612846e-30
-2.967195e-18
5.9981048e-18
-6.0620191e-18
-9.1892031e-18
0
3.1274824e-18
-1.7539447e-30
-9.072938e-34
9.6742859e-18
3.2573433e-18
-9.8699989e-18
3.3227295e-18
-1.7044725e-46
-1.0165172e-17
3.4213101e-18
1.0362852e-17
3.4873116e-18
-7.0407829e-18
3.5535193e-18
-3.5866872e-18
1.2055872e-29
7.3062233e-18
-1.1059088e-17
-4.1314822e-30
1.6667517e-29
-7.5725694e-18
7.639266e-18
4.2773976e-30
-3.8863295e-18
7.8393372e-18
3.9530044e-18
0
0
-8.1059851e-18
9.0728102e-30
2.3416995e-33
4.6102345e-30
4.1859943e-18
4.2191566e-18
-4.252281e-18
-4.2853641e-18
8.6368009e-18
-8.7027672e-18
4.867247e-30
8.8343288e-18
-8.8999026e-18
-1.4929318e-29
5.0126736e-30
-4.5478678e-18
9.1607059e-18
-4.6127533e-18
1.0313446e-29
9.3545326e-18
0
-9.4827157e-18
-4.7732422e-18
9.6100368e-18
4.8366822e-18
-4.868226e-18
8.1604127e-30
4.9309224e-18
0
0
-1.004787e-17
-1.0109315e-17
0
1.0231299e-17
5.1459059e-18
-5.1759973e-18
5.2059223e-18
-5.235679e-18
0
1.058934e-17
0
0
-5.3817667e-18
6.0063853e-30
5.4388739e-18
0
-5.4951825e-18
-3.065696e-30
5.5506419e-18
0
-1.1210472e-17
-1.1264415e-17
5.6589548e-18
6.3109278e-30
-5.7117466e-18
1.1475564e-17
1.1527153e-17
-1.1578263e-17
-1.6525647e-33
-1.2967149e-29
-1.6667402e-33
1.1777738e-17
-5.9131533e-18
6.5911668e-30
-5.9609361e-18
5.984434e-18
1.8022988e-17
-1.8091844e-17
-6.0532829e-18
6.0756658e-18
6.7685795e-30
6.1195835e-18
-1.228224e-17
-1.2324741e-17
1.2366654e-17
2.0660326e-29
6.2243333e-18
6.2443803e-18
-1.2528252e-17
6.2835723e-18
-6.9960769e-30
3.5107382e-30
-6.3400731e-18
-1.2716551e-17
1.2752315e-17
1.2787444e-17
0
-6.4279017e-18
-7.1543883e-30
1.2921594e-17
7.1901769e-30
-1.9477112e-17
-1.3015321e-17
0
1.3074505e-17
1.4544574e-29
6.5655149e-18
6.5791377e-18
-1.9777259e-17
3.6655391e-30
1.3235933e-17
-6.6302326e-18
-1.3284313e-17
6.6537336e-18
1.3329925e-17
6.6758445e-18
0
-1.3393158e-17
6.7064321e-18
2.0147813e-17
-6.72509e-18
-6.7338873e-18
-1.3484666e-17
-6.7504305e-18
1.3516366e-17
6.7655903e-18
6.772649e-18
-7.526113e-30
-6.7857024e-18
-6.7916979e-18
-1.3594688e-17
-6.8026434e-18
0
0
0
1.3640692e-17
1.3647789e-17
-1.3654195e-17
-7.5822871e-30
-7.5850722e-30
7.5855281e-30
1.5180904e-29
-1.36758e-17
0
1.3679615e-17
6.84025e-18
-6.8403357e-18
6.8400511e-18
6.8394067e-18
0
0
-1.3670888e-17
2.2758519e-29
1.5167186e-29
-1.3656946e-17
1.3650966e-17
1.3644327e-17
0
-1.3629094e-17
7.5584803e-30
1.3611271e-17
-1.360139e-17
-7.5458949e-30
1.3579707e-17
0
-1.3555508e-17
-6.7712376e-18
1.3528821e-17
-6.7572734e-18
-1.4990508e-29
1.3484159e-17
-1.346806e-17
-1.3451366e-17
0
0
0
1.3378692e-17
1.3359066e-17
-1.333887e-17
0
1.3296797e-17
0
6.6262482e-18
-1.3229518e-17
-6.6029992e-18
6.5909729e-18
-1.3157369e-17
-6.5661354e-18
1.3106652e-17
6.5402579e-18
7.2468145e-30
-6.5133538e-18
1.4430926e-29
-3.6865563e-33
-1.2942301e-17
0
6.4418182e-18
1.2853592e-17
6.4115402e-18
0
0
0
6.3482711e-18
-1.2663821e-17
-6.3153365e-18
6.2985507e-18
6.281556e-18
-6.2643563e-18
-6.2469561e-18
1.245872e-17
0
-1.2387186e-17
-1.2350853e-17
0
0
1.2239644e-17
6.7729587e-30
6.0818651e-18
6.0626342e-18
-6.0432393e-18
6.023682e-18
-6.0039642e-18
-1.1968176e-17
-5.9640566e-18
0
1.1847091e-17
6.5516325e-30
-5.8824655e-18
5.8617187e-18
5.8408368e-18
1.1639644e-17
-1.1597355e-17
-5.7774074e-18
1.6359581e-33
-5.7345071e-18
1.1425767e-17
-5.6911476e-18
5.6693014e-18
5.092598e-47
-5.6252882e-18
1.1206255e-17
-1.116174e-17
-1.1117039e-17
0
5.5135479e-18
1.0981862e-17
-3.0352833e-30
-5.4454478e-18
-5.4225877e-18
1.0799309e-17
1.0753301e-17
-5.3535789e-18
-1.0660882e-17
-1.0614477e-17
5.2839741e-18
1.0521302e-17
-5.2372731e-18
5.2138437e-18
-8.6416659e-30
-5.1668392e-18
1.0286535e-17
-1.0239306e-17
-5.6558841e-30
2.8156598e-29
-1.0097161e-17
1.0049645e-17
2.2207628e-29
-4.9772153e-18
9.9067428e-18
-4.9295053e-18
1.394261e-33
-2.1677791e-29
-4.8577977e-18
9.6677256e-18
-1.067947e-29
2.6558877e-30
-4.761986e-18
1.3466247e-33
9.4280819e-18
-9.3801319e-18
-2.6523653e-33
2.0613813e-29
-9.2362851e-18
9.1883512e-18
1.0147272e-29
-9.0925395e-18
4.5223336e-18
4.4984099e-18
4.4745001e-18
-4.450606e-18
4.9143428e-30
8.8057467e-18
0
0
-8.6628706e-18
-1.2243137e-33
8.5678689e-18
-4.2602269e-18
4.7020097e-30
-4.2129024e-18
-9.3014883e-30
8.3314034e-18
0
4.1186401e-18
-8.1903339e-18
-4.0717332e-18
8.9896931e-30
-4.0249832e-18
8.0033336e-18
-3.9783919e-18
4.389706e-30
7.8639541e-18
0
0
-3.8627059e-18
2.1313304e-30
-3.81676e-18
3.7938598e-18
1.1313032e-17
-1.1244642e-17
-3.7254703e-18
7.40556e-18
-3.6801429e-18
-6.0901493e-30
-3.6350277e-18
2.0534975e-33
1.1957792e-29
-3.5677682e-18
7.0909278e-18
3.5232178e-18
0
3.4788976e-18
-3.4568231e-18
-3.4348079e-18
-3.4128533e-18
7.528962e-30
-3.7392868e-30
3.7151237e-30
6.6512921e-18
-3.3039957e-18
-5.46549e-30
6.5217642e-18
-4.6034931e-34
-3.2180212e-18
-6.3933675e-18
-6.350816e-18
6.3083911e-18
3.4799404e-30
3.1119664e-18
3.0909502e-18
-6.1399966e-18
6.0982165e-18
3.0282799e-18
-9.0225463e-18
-5.9736344e-18
2.9661864e-18
5.8912467e-18