/*--------------------------------*- C++ -*----------------------------------*\
  =========                 |
  \\      /  F ield         | OpenFOAM: The Open Source CFD Toolbox
   \\    /   O peration     | Website:  https://openfoam.org
    \\  /    A nd           | Version:  7
     \\/     M anipulation  |
\*---------------------------------------------------------------------------*/
FoamFile
{
    version     2.0;
    format      ascii;
    class       volVectorField;
    location    "0.0023";
    object      U;
}
// * * * * * * * * * * * * * * * * * * * * * * * * * * * * * * * * * * * * * //

dimensions      [0 1 -1 0 0 0 0];

internalField   nonuniform List<vector> 
5000
(
(0.076028297 7.7924804e-21 0)
(0.077316758 1.3586727e-20 0)
(0.074004684 0 0)
(0.077205501 0 0)
(0.075750661 -5.5596535e-21 0)
(0.076017062 4.3268805e-36 -3.8059643e-21)
(0.075947945 3.7627527e-21 -8.0207898e-36)
(0.075963824 0 1.1407936e-20)
(0.076041438 0 3.8601258e-21)
(0.076028062 -3.896681e-21 -7.7933621e-21)
(0.076010647 -7.7987295e-21 -7.7987295e-21)
(0.076010811 3.8891549e-21 3.8891549e-21)
(0.076010983 3.8864875e-21 -3.3138185e-35)
(0.076008976 -3.8863967e-21 -3.4241992e-35)
(0.076006702 0 7.7770547e-21)
(0.076005123 -3.8882061e-21 -7.7764121e-21)
(0.076003854 -1.6867004e-51 -8.4335018e-52)
(0.076002623 3.8839352e-21 -3.4220304e-35)
(0.076001423 0 -3.8818122e-21)
(0.076000242 3.8796958e-21 7.7593916e-21)
(0.075999085 -3.8775849e-21 3.8775849e-21)
(0.075997934 -3.8754703e-21 0)
(0.075996786 7.7466955e-21 0)
(0.075995673 -3.8712346e-21 -3.8712346e-21)
(0.075994587 -3.8691428e-21 3.2990295e-35)
(0.075993515 -3.1873495e-35 -3.1873495e-35)
(0.075992458 3.8649962e-21 -3.8649962e-21)
(0.075991419 3.8629386e-21 3.8629386e-21)
(0.0759904 -7.7217932e-21 3.8608966e-21)
(0.075989402 6.6902185e-35 -3.8588711e-21)
(0.07598842 -6.741539e-35 6.741539e-35)
(0.07598745 3.8548538e-21 -3.2868461e-35)
(0.075986494 7.7057125e-21 -3.8528562e-21)
(0.07598556 -7.7017393e-21 3.8508697e-21)
(0.075984644 6.6729225e-35 3.8488949e-21)
(0.075983745 -3.3456927e-34 0)
(0.075982864 -1.3332263e-34 0)
(0.075981997 7.6860618e-21 -3.8430309e-21)
(0.075981141 -7.6821761e-21 -3.841088e-21)
(0.075980302 -7.678308e-21 3.839154e-21)
(0.075979481 7.6744722e-21 -6.4345878e-35)
(0.075978679 -2.637967e-34 -3.8353393e-21)
(0.075977895 -7.6669298e-21 3.8334649e-21)
(0.075977122 3.8316114e-21 -6.4796063e-35)
(0.075976362 1.1489343e-20 -3.8297809e-21)
(0.075975617 -3.8279764e-21 3.8279764e-21)
(0.075974878 -3.8261952e-21 -1.3158388e-34)
(0.075974152 -2.6196023e-34 1.3098012e-34)
(0.07597345 -7.6454666e-21 -1.3146482e-34)
(0.075972764 0 6.5160771e-35)
(0.075972087 3.8194369e-21 3.8194369e-21)
(0.075971423 5.4254759e-37 0)
(0.075970771 -3.8162793e-21 0)
(0.075970134 7.6295264e-21 0)
(0.075969516 -1.3330794e-34 0)
(0.075968911 -7.6237675e-21 0)
(0.075968317 3.8105209e-21 0)
(0.075967737 -1.3154106e-34 0)
(0.075967166 -3.8079497e-21 0)
(0.075966611 0 0)
(0.075966068 3.8055519e-21 0)
(0.075965577 1.295719e-34 0)
(0.075965366 1.0753227e-36 0)
(0.075965459 3.7754471e-21 -3.7754471e-21)
(0.07596568 -3.7799312e-21 -3.7799312e-21)
(0.075965956 1.3205688e-34 3.7775108e-21)
(0.075965514 3.7752296e-21 -6.491558e-35)
(0.075964407 -3.7810329e-21 2.2241056e-52)
(0.075964084 -3.7792698e-21 3.7792698e-21)
(0.075964422 3.7746348e-21 0)
(0.075964855 3.770021e-21 0)
(0.075964738 -3.7660684e-21 -3.7660684e-21)
(0.075963413 -3.7719835e-21 -3.7719835e-21)
(0.075962342 7.5483804e-21 0)
(0.075962565 3.7712119e-21 3.7712119e-21)
(0.075962846 -3.768983e-21 1.3015194e-34)
(0.075962167 0 -3.7704086e-21)
(0.075960828 3.7766107e-21 -3.7766107e-21)
(0.07596082 -5.3574992e-37 3.7700049e-21)
(0.075961913 -3.7560953e-21 7.5121906e-21)
(0.075961683 3.7566291e-21 -7.5132582e-21)
(0.07596018 -1.0708655e-36 2.1417311e-36)
(0.075959748 1.0705852e-36 1.130036e-20)
(0.075960479 3.7567112e-21 -7.5134223e-21)
(0.075959979 3.7610032e-21 -3.9123255e-34)
(0.075958509 1.3134026e-34 7.5446931e-21)
(0.075958429 -3.7673816e-21 -1.1302145e-20)
(0.075958906 0 3.7589424e-21)
(0.075958101 -3.7659167e-21 3.7659167e-21)
(0.075957636 -3.9065402e-34 -3.7657305e-21)
(0.075958372 -1.3122272e-34 3.7536496e-21)
(0.075958228 3.7542344e-21 3.7542344e-21)
(0.075957025 3.7665624e-21 1.3113887e-34)
(0.07595679 -7.5323343e-21 -7.5323343e-21)
(0.075957327 -2.6008841e-34 -2.6008841e-34)
(0.07595689 3.7620037e-21 -3.7620037e-21)
(0.075956284 0 -3.7618028e-21)
(0.07595655 0 -1.3171998e-34)
(0.075956434 -3.7547591e-21 2.6145585e-34)
(0.0759555 -2.612942e-34 7.5356332e-21)
(0.075955301 7.5354123e-21 3.7677062e-21)
(0.07595559 -3.7610249e-21 -3.7610249e-21)
(0.075955016 -7.53756e-21 5.3557585e-37)
(0.075954843 0 3.7691914e-21)
(0.07595513 3.7626461e-21 0)
(0.075954582 3.7705817e-21 -3.7705817e-21)
(0.075954404 -3.7711125e-21 -1.3129729e-34)
(0.075954673 -3.7646496e-21 3.7646496e-21)
(0.075954151 0 -3.7727289e-21)
(0.075953838 0 -3.7732921e-21)
(0.075954214 3.760727e-21 7.5214541e-21)
(0.075954168 3.7620864e-21 3.7620864e-21)
(0.075953624 0 -1.1330407e-20)
(0.075953498 -3.7778174e-21 -3.7778174e-21)
(0.0759539 1.3163909e-34 1.129668e-20)
(0.075953837 3.7671243e-21 -3.7671243e-21)
(0.075953237 -3.7820639e-21 -3.7820639e-21)
(0.075953079 1.0752355e-36 -2.1504709e-36)
(0.075953389 -1.3182444e-34 -3.7708618e-21)
(0.075953351 7.1110381e-52 1.1318324e-20)
(0.075952941 7.5767291e-21 -2.6487262e-34)
(0.075952696 -1.6174581e-36 -7.5878996e-21)
(0.075952722 -3.790667e-21 7.5813339e-21)
(0.075952763 0 3.7859756e-21)
(0.075952755 -3.778417e-21 -3.778417e-21)
(0.075952772 3.7754647e-21 3.7754647e-21)
(0.075952738 3.7828919e-21 -3.7828919e-21)
(0.07595259 -7.5940801e-21 -7.5940801e-21)
(0.075952508 -3.8021788e-21 3.8021788e-21)
(0.075952525 7.6007634e-21 1.3123621e-34)
(0.075952525 3.8008677e-21 3.8008677e-21)
(0.075952515 -3.8050104e-21 7.6100208e-21)
(0.075952514 -3.8074008e-21 -3.8074008e-21)
(0.075952516 -3.8082979e-21 -3.8082979e-21)
(0.075952525 0 -3.8184731e-21)
(0.075952554 3.8308271e-21 -1.3337635e-34)
(0.075952601 3.8393775e-21 -1.3312844e-34)
(0.075952664 -3.8468357e-21 1.3393372e-34)
(0.075952737 -1.336081e-34 7.7064216e-21)
(0.075952827 3.8583649e-21 3.8583649e-21)
(0.075952922 -3.8622977e-21 -3.8622977e-21)
(0.075953028 -3.865412e-21 -7.7308239e-21)
(0.07595314 0 -3.8683406e-21)
(0.075953257 3.8709532e-21 -3.8709532e-21)
(0.075953384 3.8738457e-21 2.6864722e-34)
(0.075953511 -3.8765765e-21 7.753153e-21)
(0.07595365 3.8793228e-21 -1.1025698e-36)
(0.075953792 -2.2069228e-36 1.1034614e-36)
(0.075953942 -3.8853612e-21 -1.2336832e-51)
(0.075954102 3.8885872e-21 3.8885872e-21)
(0.075954267 -3.8919151e-21 -2.6990031e-34)
(0.07595444 2.7122812e-34 5.4245624e-34)
(0.075954623 3.8986339e-21 3.8986339e-21)
(0.075954811 -3.9021416e-21 -3.9021416e-21)
(0.075955009 3.9056712e-21 3.9056712e-21)
(0.075955214 3.9094831e-21 1.3555931e-34)
(0.075955424 -3.9132551e-21 -3.9132551e-21)
(0.075955642 0 3.9171513e-21)
(0.075955862 0 -5.5723313e-37)
(0.075956086 -3.9251834e-21 -3.9251834e-21)
(0.075956312 -3.9293043e-21 0)
(0.075956523 3.9331422e-21 3.9331422e-21)
(0.075956716 3.9364599e-21 2.7243004e-34)
(0.075956917 -3.9400305e-21 -7.880061e-21)
(0.075957119 -2.7350555e-34 3.9439021e-21)
(0.075957327 3.9476949e-21 -1.1220024e-36)
(0.075957544 -3.9520622e-21 -3.9520622e-21)
(0.075957764 -3.9564996e-21 3.9564996e-21)
(0.075957967 0 -3.9601163e-21)
(0.075958185 3.9640461e-21 3.9640461e-21)
(0.075958395 3.9683714e-21 -1.6534706e-33)
(0.07595862 0 -1.1020081e-33)
(0.07595885 -3.9772858e-21 3.9772858e-21)
(0.075959089 -3.9817743e-21 -7.9635486e-21)
(0.075959336 0 0)
(0.075959594 3.9911066e-21 -2.7677914e-34)
(0.075959858 8.3132481e-34 -8.3132481e-34)
(0.075960132 -4.0006762e-21 4.0006762e-21)
(0.075960414 4.0057498e-21 4.0057498e-21)
(0.075960701 4.0108159e-21 2.7643604e-34)
(0.075960995 -4.0159692e-21 -4.0159692e-21)
(0.075961291 -2.7772853e-34 4.0212774e-21)
(0.07596159 2.7694594e-34 2.7694594e-34)
(0.075961884 1.7187917e-36 1.7187917e-36)
(0.075962146 4.0363299e-21 5.5925705e-34)
(0.075962381 -4.0404089e-21 -8.0808178e-21)
(0.075962628 -5.6100751e-34 4.044815e-21)
(0.075962881 2.7854758e-34 4.0498024e-21)
(0.07596314 -2.7888753e-34 -2.7888753e-34)
(0.075963413 4.0602579e-21 2.7984372e-34)
(0.075963687 0 -8.4534166e-34)
(0.075963938 0 2.8114529e-34)
(0.075964199 -4.0755162e-21 -4.0755162e-21)
(0.075964468 -4.080927e-21 0)
(0.075964728 0 0)
(0.075965005 0 0)
(0.075965286 4.0964407e-21 0)
(0.075965575 -2.4976802e-52 -4.1017041e-21)
(0.075965876 -4.1071837e-21 8.5623788e-34)
(0.075966181 0 4.1128444e-21)
(0.075966496 4.118458e-21 4.118458e-21)
(0.075966817 -4.1242583e-21 -4.1242583e-21)
(0.075967143 -1.1444988e-33 -4.1300997e-21)
(0.075967473 8.2719541e-21 8.2719541e-21)
(0.075967804 -4.1419107e-21 2.8664865e-34)
(0.075968127 -8.6114959e-34 -8.6114959e-34)
(0.075968413 -5.9017571e-37 -4.1529923e-21)
(0.075968666 -4.1574839e-21 -4.1574839e-21)
(0.075968933 4.1621711e-21 4.1621711e-21)
(0.075969214 -5.9227061e-37 0)
(0.075969503 -5.7766494e-34 4.1734658e-21)
(0.07596981 2.8926007e-34 2.8926007e-34)
(0.075970123 -4.1864655e-21 -4.1864655e-21)
(0.075970399 0 -4.1925308e-21)
(0.075970663 4.1975604e-21 5.8457902e-34)
(0.075970942 2.9087692e-34 4.2030069e-21)
(0.075971216 1.1680915e-33 -8.417525e-21)
(0.075971503 4.214389e-21 4.214389e-21)
(0.075971799 0 4.2204234e-21)
(0.075972101 -4.2264447e-21 -4.2264447e-21)
(0.075972413 -4.232396e-21 4.232396e-21)
(0.075972733 0 0)
(0.075973058 0 0)
(0.075973389 0 0)
(0.075973724 4.2574474e-21 4.2574474e-21)
(0.075974061 2.9508331e-34 -4.2637869e-21)
(0.075974397 -4.2700498e-21 -8.5400996e-21)
(0.075974713 0 4.27616e-21)
(0.075974986 0 -2.9753987e-34)
(0.075975253 4.2864335e-21 4.2864335e-21)
(0.075975539 4.2916569e-21 4.2916569e-21)
(0.075975835 -4.2977695e-21 -8.5955391e-21)
(0.075976144 -4.3040449e-21 1.2232831e-36)
(0.07597647 0 -1.2252634e-36)
(0.075976797 4.3181417e-21 4.3181417e-21)
(0.075977075 4.3240753e-21 4.3240753e-21)
(0.075977358 -4.3294971e-21 -8.6589943e-21)
(0.075977656 -4.3356295e-21 6.1613001e-37)
(0.075977945 0 -9.0453738e-34)
(0.075978246 4.3478117e-21 4.3478117e-21)
(0.075978557 -1.2090932e-33 -2.4181863e-33)
(0.075978872 -3.0241341e-34 -6.0482682e-34)
(0.075979196 4.3671409e-21 4.3671409e-21)
(0.075979525 -4.3737698e-21 -4.3737698e-21)
(0.075979858 -4.3804349e-21 0)
(0.075980195 0 -4.3870788e-21)
(0.075980532 4.3937374e-21 4.3937374e-21)
(0.07598087 -6.1156406e-34 4.4003062e-21)
(0.075981187 4.4067612e-21 -4.4067612e-21)
(0.075981477 6.1204039e-34 0)
(0.075981765 -8.8361573e-21 -4.4180787e-21)
(0.07598207 4.4237749e-21 4.4237749e-21)
(0.075982384 -6.1446153e-34 4.4302138e-21)
(0.075982712 -1.5403707e-33 -1.5403707e-33)
(0.075983054 -3.0756804e-34 -8.8883683e-21)
(0.075983399 -4.4516674e-21 -8.9033349e-21)
(0.075983716 4.4583598e-21 1.3375079e-20)
(0.075984019 4.464314e-21 8.9286281e-21)
(0.075984336 0 0)
(0.075984652 -4.477392e-21 -8.9547839e-21)
(0.075984975 -4.4837795e-21 -4.4837795e-21)
(0.07598531 0 4.4905273e-21)
(0.075985648 4.497489e-21 4.497489e-21)
(0.075985992 4.5043164e-21 4.5043164e-21)
(0.075986341 -9.0225559e-21 -9.0225559e-21)
(0.075986693 -4.5182995e-21 -9.0365991e-21)
(0.075987046 4.5252421e-21 4.5252421e-21)
(0.075987401 4.5321726e-21 9.0643453e-21)
(0.075987747 1.259118e-33 1.259118e-33)
(0.075988078 -4.5456506e-21 -9.0913013e-21)
(0.075988398 4.5517192e-21 4.5517192e-21)
(0.075988728 -3.160809e-34 -6.3216179e-34)
(0.075989069 -4.5644761e-21 -4.5644761e-21)
(0.07598942 4.5714414e-21 9.1428829e-21)
(0.075989783 -3.1818381e-34 -4.578772e-21)
(0.075990152 3.1936781e-34 6.3873563e-34)
(0.07599052 -1.3056205e-36 4.5937438e-21)
(0.075990865 -3.1771992e-34 -4.6003193e-21)
(0.075991217 4.6068734e-21 4.6068734e-21)
(0.075991579 0 -9.2280342e-21)
(0.075991939 0 1.928066e-33)
(0.075992307 -4.6280132e-21 9.2560265e-21)
(0.075992683 -4.6352724e-21 -9.2705448e-21)
(0.075993061 0 -3.212992e-34)
(0.075993444 0 4.6498642e-21)
(0.075993829 0 0)
(0.075994215 0 0)
(0.075994602 4.6718994e-21 4.6718994e-21)
(0.075994985 3.2250096e-34 -4.6791727e-21)
(0.075995361 -9.3725485e-21 -9.3725485e-21)
(0.075995732 2.0007662e-36 4.6930469e-21)
(0.075996111 4.6998005e-21 -1.3357637e-36)
(0.075996499 4.7068998e-21 4.7068998e-21)
(0.075996895 -6.5453278e-34 4.7142937e-21)
(0.075997301 -6.5425581e-34 -4.7219651e-21)
(0.075997712 -6.7215664e-37 0)
(0.075998126 -4.7377038e-21 -4.7377038e-21)
(0.075998525 -4.7450458e-21 -4.7450458e-21)
(0.075998928 -4.7521559e-21 0)
(0.075999341 9.5194401e-21 9.5194401e-21)
(0.075999754 1.4302423e-20 4.7674745e-21)
(0.076000172 -4.7749863e-21 -9.5499727e-21)
(0.076000596 -9.5652997e-21 3.3099219e-34)
(0.076001023 0 -1.361546e-36)
(0.076001453 4.7983803e-21 4.7983803e-21)
(0.076001885 4.8062892e-21 4.8062892e-21)
(0.076002318 -4.814187e-21 -4.814187e-21)
(0.076002751 1.3705053e-36 4.8220368e-21)
(0.076003182 -2.0590811e-36 -4.8298317e-21)
(0.076003614 1.3748986e-36 2.7497972e-36)
(0.076004049 4.8451168e-21 9.6902337e-21)
(0.07600449 4.8528615e-21 -4.8528615e-21)
(0.076004937 -4.860795e-21 -4.860795e-21)
(0.07600539 -9.737905e-21 -4.8689525e-21)
(0.076005849 4.8773064e-21 -6.7647235e-34)
(0.076006311 -4.0306917e-52 4.8857155e-21)
(0.076006773 4.8939355e-21 0)
(0.076007236 1.3583817e-33 0)
(0.076007706 -9.8201141e-21 -4.910057e-21)
(0.07600818 0 6.8288067e-34)
(0.076008656 0 -1.3674045e-33)
(0.076009137 9.8706357e-21 -6.8592113e-34)
(0.076009621 -2.7456038e-33 4.9438254e-21)
(0.076010108 -9.9048709e-21 -4.9524355e-21)
(0.076010598 0 7.0501596e-37)
(0.076011089 4.9698078e-21 4.9698078e-21)
(0.076011581 4.9784898e-21 0)
(0.076012075 -4.9871455e-21 0)
(0.07601257 7.0994407e-37 0)
(0.076013069 -6.9481683e-34 0)
(0.076013573 7.1241583e-37 0)
(0.076014082 5.0220842e-21 0)
(0.076014598 -5.0311716e-21 0)
(0.076015118 -5.0404048e-21 -5.0404048e-21)
(0.076015641 0 0)
(0.076016166 5.0588656e-21 5.0588656e-21)
(0.076016694 -7.036426e-34 0)
(0.076017228 -5.0772664e-21 -5.0772664e-21)
(0.076017766 1.0173444e-20 -1.4110357e-33)
(0.076018308 -1.4136875e-33 5.0962815e-21)
(0.076018853 -5.1058499e-21 0)
(0.076019401 -1.4204603e-33 0)
(0.076019953 -1.0250332e-20 -5.1251661e-21)
(0.076020508 1.0269952e-20 -7.1294035e-34)
(0.076021065 5.1448277e-21 5.1448277e-21)
(0.076021624 -5.1546956e-21 0)
(0.076022186 -7.3393306e-37 0)
(0.076022752 -5.1745441e-21 -5.1745441e-21)
(0.076023321 0 -5.1845714e-21)
(0.076023897 0 5.1947193e-21)
(0.076024478 5.2050243e-21 5.2050243e-21)
(0.076025064 -7.2337717e-34 0)
(0.076025653 -1.0452097e-20 -5.2260484e-21)
(0.076026246 7.4416956e-37 7.4416956e-37)
(0.076026842 1.5741583e-20 5.2471944e-21)
(0.076027442 -5.2578245e-21 -5.2578245e-21)
(0.076028048 -5.268621e-21 -5.268621e-21)
(0.076028658 1.0559164e-20 5.2795821e-21)
(0.076029272 -5.2906212e-21 5.2906212e-21)
(0.076029889 5.3016973e-21 0)
(0.076030509 1.0625709e-20 -5.3128546e-21)
(0.076031134 -5.3241323e-21 -5.3241323e-21)
(0.076031762 -5.335503e-21 5.335503e-21)
(0.076032393 -5.3469262e-21 5.3469262e-21)
(0.076033028 5.3584065e-21 0)
(0.076033667 -1.1200871e-51 -5.3699793e-21)
(0.076034311 -5.3816771e-21 -5.3816771e-21)
(0.076034961 5.393515e-21 5.393515e-21)
(0.076035616 -5.4054917e-21 5.4054917e-21)
(0.076036276 5.4175939e-21 0)
(0.076036939 1.5046584e-33 0)
(0.076037607 1.5467222e-36 0)
(0.076038278 5.4543575e-21 0)
(0.076038954 -1.0933569e-20 0)
(0.076039636 5.4793759e-21 0)
(0.076040322 1.5250495e-33 0)
(0.076041012 -1.527045e-33 0)
(0.076041706 -5.5178257e-21 -5.5178257e-21)
(0.076042405 -1.1061652e-20 1.0062903e-50)
(0.076043107 1.6631848e-20 5.5439495e-21)
(0.076043814 1.5415397e-33 0)
(0.076044526 -3.0904748e-33 0)
(0.076045242 1.5473772e-33 0)
(0.076045964 -1.1195019e-20 -5.5975095e-21)
(0.076046691 1.1222427e-20 -7.7826375e-34)
(0.076047423 -1.5603696e-33 5.6250639e-21)
(0.07604816 -1.1278099e-20 -5.6390496e-21)
(0.076048902 0 7.8488319e-34)
(0.076049649 0 -8.053765e-37)
(0.076050399 5.6816133e-21 -7.8883547e-34)
(0.076051156 -7.9002683e-34 5.6960242e-21)
(0.076051918 -5.710598e-21 -5.710598e-21)
(0.076052684 -5.7253222e-21 5.7253222e-21)
(0.076053456 5.7401606e-21 -3.1894882e-33)
(0.076054232 1.726531e-20 -5.7551032e-21)
(0.076055014 -5.7701713e-21 5.7701713e-21)
(0.0760558 -5.7853799e-21 0)
(0.076056591 -1.6486638e-36 0)
(0.076057388 -5.8161833e-21 -5.8161833e-21)
(0.07605819 0 -8.0968431e-34)
(0.076058998 1.1695039e-20 5.8475194e-21)
(0.076059811 1.1726828e-20 -5.863414e-21)
(0.076060631 -5.8794566e-21 -5.8794566e-21)
(0.076061455 -1.1791275e-20 0)
(0.076062286 -5.9119463e-21 5.9119463e-21)
(0.076063122 1.1856739e-20 5.9283696e-21)
(0.076063964 1.1889822e-20 -5.9449108e-21)
(0.076064814 -1.1923176e-20 -1.6545672e-33)
(0.076065672 -1.1956798e-20 -3.2506293e-51)
(0.07606654 0 -8.3238936e-34)
(0.07606742 1.2024568e-20 6.0122839e-21)
(0.076068318 -6.0293019e-21 -6.0293019e-21)
(0.076069238 -1.2092768e-20 1.3212702e-50)
(0.076070192 6.0635644e-21 -8.4186558e-34)
(0.07607119 6.0808877e-21 -6.0808877e-21)
(0.07607225 -8.6664085e-37 0)
(0.076073391 8.4919759e-34 0)
(0.07607464 6.1348657e-21 6.1348657e-21)
(0.076076024 -6.1541414e-21 8.745561e-37)
(0.076077575 -6.17441e-21 -2.5691339e-33)
(0.07607932 6.1958341e-21 6.1958341e-21)
(0.076081282 -8.6249545e-34 0)
(0.07608347 -8.8710775e-37 0)
(0.076085876 -8.6929912e-34 -6.2675704e-21)
(0.076088472 -6.2935921e-21 1.7449222e-33)
(0.076091215 6.3201809e-21 6.3201809e-21)
(0.076094059 -2.6436347e-33 0)
(0.076096968 -8.849149e-34 0)
(0.076099921 -1.7762699e-33 0)
(0.076102922 -6.4264616e-21 -6.4264616e-21)
(0.076105981 6.4529711e-21 9.1702234e-37)
(0.076109105 -8.996631e-34 6.4798529e-21)
(0.076112288 -1.8041395e-33 -6.5071774e-21)
(0.076115502 -9.2864468e-37 6.534756e-21)
(0.076118704 -1.3124423e-20 -1.8240607e-33)
(0.076121823 -6.5893408e-21 -1.3178682e-20)
(0.076124851 6.6161013e-21 6.6161013e-21)
(0.076127885 1.328524e-20 2.766785e-33)
(0.076131009 -9.2601213e-34 9.2601213e-34)
(0.076134184 -1.3394809e-20 -9.2986797e-34)
(0.076137229 -6.7250742e-21 -6.7250742e-21)
(0.076139992 1.3503821e-20 0)
(0.076142629 6.7778651e-21 0)
(0.076145392 -6.8041273e-21 6.8041273e-21)
(0.076148335 -6.8320125e-21 9.4855696e-34)
(0.07615129 -1.90406e-33 -1.90406e-33)
(0.076154097 6.8880053e-21 -1.2880765e-51)
(0.076156939 0 -6.9143661e-21)
(0.07616009 0 6.9415218e-21)
(0.076163617 6.9710959e-21 6.9710959e-21)
(0.076167284 0 0)
(0.07617083 -7.0318954e-21 -7.0318954e-21)
(0.076174331 7.0607018e-21 -9.8030819e-34)
(0.076178059 1.007493e-36 7.0896018e-21)
(0.07618211 -1.9760386e-33 0)
(0.076186265 0 0)
(0.076190236 -7.1815499e-21 -7.1815499e-21)
(0.07619407 7.2114772e-21 2.0496251e-36)
(0.076198041 7.2413444e-21 -1.4523557e-51)
(0.076202252 -1.4543763e-20 -7.2718817e-21)
(0.076206502 -7.3028417e-21 7.3028417e-21)
(0.076210491 7.3336389e-21 -1.0161185e-33)
(0.076214205 0 1.0224578e-33)
(0.07621784 0 -2.0523718e-33)
(0.076221513 -7.4256967e-21 -7.4256967e-21)
(0.076225208 2.0716375e-33 7.4567024e-21)
(0.076228898 7.487932e-21 -2.0792497e-33)
(0.076232573 0 2.0890996e-33)
(0.076236156 0 -2.0980444e-33)
(0.07623952 -7.5844859e-21 -7.5844859e-21)
(0.076242698 3.1740034e-33 7.6176888e-21)
(0.076245954 7.6512853e-21 -2.1246097e-33)
(0.076249524 0 1.0692248e-33)
(0.076253352 0 0)
(0.076257157 0 -7.7557593e-21)
(0.076260844 0 7.7921111e-21)
(0.076264709 0 -1.0870117e-33)
(0.076269057 0 1.1179663e-36)
(0.076273776 0 -1.0975956e-33)
(0.076278401 0 1.104184e-33)
(0.076282627 1.5970021e-20 7.9850103e-21)
(0.076286692 4.4550714e-33 -8.0260568e-21)
(0.076290926 -8.0677211e-21 -8.0677211e-21)
(0.07629536 8.1099409e-21 8.1099409e-21)
(0.076299681 -8.152749e-21 8.152749e-21)
(0.076303643 8.1961526e-21 0)
(0.076307404 -2.2904494e-33 -8.2400844e-21)
(0.076311188 -8.2845653e-21 -8.2845653e-21)
(0.076315003 -2.3129755e-33 0)
(0.07631868 -8.3752014e-21 8.3752014e-21)
(0.076322151 0 -1.1692034e-33)
(0.07632556 0 1.2033446e-36)
(0.076328999 8.5149041e-21 1.1809997e-33)
(0.076332356 2.377629e-33 -8.5624752e-21)
(0.07633543 -8.6102739e-21 8.6102739e-21)
(0.076338235 0 1.2009221e-33)
(0.076341002 0 -2.4179334e-33)
(0.076343921 0 -8.7571225e-21)
(0.076346938 0 -8.8066543e-21)
(0.076349795 0 1.7713155e-20)
(0.076352418 0 -1.265883e-36)
(0.076355052 0 1.2428526e-33)
(0.076357974 1.8028505e-20 9.0142526e-21)
(0.076361176 -7.5480229e-33 -9.0670006e-21)
(0.076364359 -1.8240476e-20 1.2662543e-33)
(0.076367353 9.1756858e-21 9.1756858e-21)
(0.076370382 1.3121258e-36 0)
(0.076373716 9.2912788e-21 0)
(0.076377316 -5.1840011e-33 0)
(0.076380864 -1.8813899e-20 -9.4069496e-21)
(0.076384195 -9.4669964e-21 -9.4669964e-21)
(0.07638752 3.0311098e-51 9.528941e-21)
(0.076391062 2.8774596e-20 9.591532e-21)
(0.076394774 0 0)
(0.07639839 -1.9434052e-20 -9.7170261e-21)
(0.076401807 0 -9.7815025e-21)
(0.076405192 0 9.8474609e-21)
(0.076408705 1.9828312e-20 9.9141558e-21)
(0.076412324 -2.7687112e-33 0)
(0.0764159 -3.0146275e-20 -1.0048758e-20)
(0.076419388 1.0117951e-20 -1.0117951e-20)
(0.076422903 1.0188574e-20 1.0188574e-20)
(0.076426525 -1.025996e-20 2.8489868e-33)
(0.076430226 1.0331905e-20 -1.0331905e-20)
(0.076433941 -1.0405003e-20 0)
(0.076437686 -2.9069708e-33 0)
(0.076441492 1.0554958e-20 0)
(0.076445306 -1.0631221e-20 0)
(0.076449045 0 1.0708503e-20)
(0.076452722 -1.0787009e-20 -2.992272e-33)
(0.076456426 1.086665e-20 -1.086665e-20)
(0.076460213 2.1894048e-20 1.0947024e-20)
(0.076464029 -1.1028051e-20 1.5311351e-33)
(0.076467788 -1.1110061e-20 -1.5441002e-33)
(0.076471488 -1.1193247e-20 -4.0337439e-51)
(0.076475187 -1.1277553e-20 1.1277553e-20)
(0.076478918 2.27256e-20 1.13628e-20)
(0.07648266 1.1448949e-20 -2.2897897e-20)
(0.076486393 -1.1536388e-20 -1.6017127e-33)
(0.076490141 0 1.6124368e-33)
(0.076493967 1.1716367e-20 -1.1716367e-20)
(0.076497935 -1.1808648e-20 0)
(0.076502094 -1.1902127e-20 1.1902127e-20)
(0.076506449 3.5990285e-20 1.1996762e-20)
(0.076510953 3.436982e-36 -1.2092806e-20)
(0.076515555 -2.4381209e-20 -3.3816235e-33)
(0.076520238 1.2290117e-20 1.2290117e-20)
(0.07652499 1.7203686e-33 0)
(0.076529764 1.2493299e-20 0)
(0.076534526 -3.5803914e-36 -1.2597382e-20)
(0.076539328 -2.5406284e-20 1.7618997e-33)
(0.076544238 1.2809876e-20 1.2809876e-20)
(0.076549188 0 0)
(0.076553998 -3.6169152e-33 -1.3025475e-20)
(0.076558554 -1.8664549e-36 1.8664549e-36)
(0.07656286 -1.3242461e-20 -3.6771678e-33)
(0.076566935 1.3350729e-20 -1.8517187e-33)
(0.076570772 -3.7372401e-33 1.3458797e-20)
(0.076574375 -1.8816741e-33 -1.3566705e-20)
(0.076577802 -1.94337e-36 1.94337e-36)
(0.076581177 -1.3786027e-20 -3.8281054e-33)
(0.076584679 1.3899541e-20 -1.3899541e-20)
(0.076588487 -5.5562704e-51 1.4014569e-20)
(0.076592656 -3.9237158e-33 3.9237158e-33)
(0.076597155 -2.0246999e-36 2.0246999e-36)
(0.076601922 -2.8734053e-20 -1.9947187e-33)
(0.076606883 -2.0096014e-33 -1.448905e-20)
(0.076611991 1.461348e-20 1.461348e-20)
(0.076617233 0 0)
(0.076622544 0 -8.254621e-33)
(0.076627779 -1.4996277e-20 -2.0799527e-33)
(0.076632887 -6.294171e-33 -6.294171e-33)
(0.076638018 1.5258802e-20 -2.1684062e-36)
(0.076643281 -1.5391488e-20 -1.5391488e-20)
(0.076648502 2.1553976e-33 1.5524322e-20)
(0.076653353 -2.5464759e-50 -2.5464759e-50)
(0.076657752 -2.1920574e-33 -2.1920574e-33)
(0.076661825 1.5918862e-20 4.4203513e-33)
(0.076665708 1.6049009e-20 -2.2282452e-33)
(0.076669451 2.2440472e-33 3.2358767e-20)
(0.076673085 -1.6311598e-20 -1.6311598e-20)
(0.076676753 0 -1.6447652e-20)
(0.076680745 0 -2.3029013e-33)
(0.076685283 1.6725654e-20 2.3221907e-33)
(0.076690287 -1.6863753e-20 3.3727505e-20)
(0.076695419 1.4154811e-32 -1.7003351e-20)
(0.076700352 1.7145487e-20 -1.7145487e-20)
(0.076704977 -1.7288746e-20 -6.8986129e-51)
(0.076709368 0 0)
(0.076713717 1.7579246e-20 -7.1444192e-51)
(0.076718295 1.7727168e-20 -1.7727168e-20)
(0.076723197 -1.7874491e-20 1.7874491e-20)
(0.076728163 -1.8021766e-20 -7.1122962e-51)
(0.076732939 0 -2.5203589e-33)
(0.076737662 1.8325022e-20 -2.6041422e-36)
(0.076742659 1.8480016e-20 -1.8480016e-20)
(0.076748003 -3.7268547e-20 3.7268547e-20)
(0.076753359 -1.8788565e-20 5.2172105e-33)
(0.076758398 1.8943995e-20 -1.8943995e-20)
(0.07676314 1.9100117e-20 2.6491469e-33)
(0.076767753 2.6710344e-33 -2.6710344e-33)
(0.076772478 1.9418969e-20 1.9418969e-20)
(0.076777609 5.4375616e-33 -1.9582108e-20)
(0.076783267 -3.9490195e-20 3.1211198e-50)
(0.076789257 0 -8.2950087e-33)
(0.076795227 0 5.5768316e-33)
(0.076800956 0 -5.6174902e-33)
(0.076806433 2.0407713e-20 -5.6668157e-33)
(0.07681169 2.0574445e-20 -8.0177539e-51)
(0.076816786 0 0)
(0.076821882 -2.0911455e-20 2.0911455e-20)
(0.076827203 -2.9211942e-33 0)
(0.076832865 2.1255251e-20 0)
(0.076838749 0 -2.1427776e-20)
(0.076844711 0 -5.9985167e-33)
(0.076850748 -2.1778913e-20 2.1778913e-20)
(0.076856869 -3.0453588e-33 0)
(0.07686293 3.066944e-33 0)
(0.076868754 -2.2313339e-20 -4.4626678e-20)
(0.076874343 2.2492324e-20 -1.8724227e-32)
(0.076879921 -9.4344398e-33 4.5347656e-20)
(0.07688582 -2.285738e-20 -2.285738e-20)
(0.076892179 0 3.2742964e-36)
(0.076898718 -2.3224119e-20 -3.2244379e-33)
(0.076905063 -3.2500831e-33 -2.340883e-20)
(0.076911197 2.359585e-20 0)
(0.076917415 -2.3785096e-20 0)
(0.076923953 2.3975209e-20 0)
(0.076930734 2.4165301e-20 -2.4165301e-20)
(0.07693752 -2.4356668e-20 -6.7564394e-33)
(0.076944291 0 2.4550252e-20)
(0.07695117 2.4745081e-20 0)
(0.076958056 2.4940035e-20 0)
(0.076964652 -2.5134757e-20 -2.5134757e-20)
(0.07697094 -2.5330665e-20 3.599704e-36)
(0.076977328 0 2.5529481e-20)
(0.076984305 -2.5729749e-20 0)
(0.076991835 2.5929508e-20 0)
(0.076999338 2.6129607e-20 -2.6129607e-20)
(0.077006408 -2.6331108e-20 -7.3041409e-33)
(0.077013236 -5.3068227e-20 -7.3717661e-33)
(0.077020185 1.4849761e-32 7.4248804e-33)
(0.077027495 8.0835491e-20 2.6945164e-20)
(0.077035149 -9.9303554e-51 -2.715175e-20)
(0.0770429 -2.7359051e-20 7.593176e-33)
(0.077050457 -5.5134185e-20 -7.6509155e-33)
(0.077057675 1.5409743e-32 7.7048715e-33)
(0.077064722 5.5973141e-20 2.798657e-20)
(0.077072088 -2.8200866e-20 0)
(0.077080252 2.8416777e-20 0)
(0.077089074 -2.8632872e-20 -2.8632872e-20)
(0.077097844 -2.8849758e-20 2.617428e-49)
(0.077106008 5.813386e-20 2.906693e-20)
(0.077113669 0 0)
(0.077121249 0 0)
(0.077129128 -5.9442356e-20 -2.9721178e-20)
(0.077137409 8.4631812e-50 1.6926362e-49)
(0.077145858 6.0324209e-20 3.0162105e-20)
(0.077154258 0 0)
(0.07716265 0 0)
(0.077171192 -6.1671737e-20 -3.0835868e-20)
(0.077179927 8.7491925e-50 1.7498385e-49)
(0.077188742 6.2581603e-20 3.1290802e-20)
(0.077197516 0 0)
(0.077206244 0 0)
(0.077215013 -6.3961877e-20 -3.1980938e-20)
(0.077223905 -3.2213395e-20 4.5777988e-36)
(0.07723293 6.4893487e-20 3.2446743e-20)
(0.077242037 3.2681024e-20 -3.2681024e-20)
(0.077251171 0 9.1449596e-33)
(0.077260335 -6.6307585e-20 -9.2108599e-33)
(0.077269606 1.8544961e-32 9.2724803e-33)
(0.077279073 6.7265548e-20 3.3632774e-20)
(0.077288723 -3.3873751e-20 0)
(0.07729839 0 0)
(0.077307899 3.4357908e-20 0)
(0.077317262 -3.4601367e-20 0)
(0.077326702 4.9520211e-36 0)
(0.077336479 3.5094078e-20 -3.5094078e-20)
(0.077346638 -3.534261e-20 9.8089171e-33)
(0.07735695 3.5592134e-20 3.5592134e-20)
(0.07736715 3.5842663e-20 0)
(0.077377172 -3.6094033e-20 0)
(0.077387137 -3.6346501e-20 0)
(0.077397211 1.0163237e-32 0)
(0.077407503 3.6856099e-20 0)
(0.077418007 -3.711301e-20 0)
(0.077428645 -1.0377255e-32 0)
(0.077439334 3.7630883e-20 -3.7630883e-20)
(0.07745003 -3.7891862e-20 2.1032863e-32)
(0.077460725 3.8154237e-20 3.8154237e-20)
(0.077471469 3.8418102e-20 0)
(0.077482335 -3.8683478e-20 0)
(0.077493362 -3.8950286e-20 0)
(0.077504527 1.0890189e-32 0)
(0.077515772 3.948802e-20 0)
(0.077527055 -3.9758898e-20 0)
(0.077538352 5.6887561e-36 0)
(0.077549655 4.0304656e-20 -4.0304656e-20)
(0.077561008 -4.0579988e-20 1.1262488e-32)
(0.077572517 4.0857193e-20 4.0857193e-20)
(0.077584261 4.1136003e-20 0)
(0.077596177 -4.1416189e-20 0)
(0.077608097 -8.3395334e-20 -4.1697667e-20)
(0.077619928 2.3326307e-32 1.1663154e-32)
(0.077631768 8.4531009e-20 4.2265505e-20)
(0.077643803 -4.2552331e-20 0)
(0.077656099 6.0880422e-36 0)
(0.077668517 8.6261133e-20 0)
(0.077680875 1.2341218e-35 -4.34218e-20)
(0.077693174 -4.3714904e-20 -1.2144971e-32)
(0.077705592 0 4.4010158e-20)
(0.077718277 4.4307341e-20 0)
(0.077731174 0 0)
(0.077744081 -4.4906358e-20 0)
(0.077756884 0 0)
(0.077769681 0 0)
(0.077782667 0 0)
(0.077795929 -4.6126467e-20 0)
(0.077809364 1.4950826e-50 -4.6436424e-20)
(0.077822798 4.6748158e-20 6.6433128e-36)
(0.077836173 0 4.7061867e-20)
(0.077849599 4.7377803e-20 0)
(0.07786322 -1.3244238e-32 0)
(0.077877067 -4.8016391e-20 0)
(0.077891041 0 0)
(0.077905038 0 0)
(0.077919067 0 0)
(0.077933217 -4.9319414e-20 0)
(0.077947528 1.3787027e-32 -4.9650755e-20)
(0.077961933 4.9984082e-20 -7.1031652e-36)
(0.077976348 0 5.0319557e-20)
(0.077990788 5.0657504e-20 0)
(0.078005361 1.4153918e-32 0)
(0.078020149 -5.1341408e-20 0)
(0.078035123 0 -5.1687246e-20)
(0.078050197 5.2035618e-20 2.8891117e-32)
(0.078065324 -5.2386551e-20 5.2386551e-20)
(0.078080516 2.9304698e-32 0)
(0.078095787 5.3095993e-20 -5.3095993e-20)
(0.078111132 -5.3454588e-20 -1.4850872e-32)
(0.078126574 0 5.3816094e-20)
(0.078142184 -5.4180737e-20 0)
(0.078158011 -1.5147025e-32 0)
(0.078174001 5.4919083e-20 -5.4919083e-20)
(0.07819003 0 -5.5292428e-20)
(0.07820604 5.5668658e-20 5.5668658e-20)
(0.078222111 -5.6048131e-20 5.6048131e-20)
(0.078238387 -3.1339578e-32 0)
(0.078254916 5.6817439e-20 0)
(0.078271602 -3.1762353e-32 0)
(0.0782883 -8.1853953e-36 0)
(0.078304965 1.6112424e-32 5.799545e-20)
(0.078321702 -8.2984214e-36 -8.2984214e-36)
(0.078338662 -5.8798438e-20 -1.1759688e-19)
(0.078355905 0 -5.9205955e-20)
(0.07837334 5.9617294e-20 1.1923459e-19)
(0.078390821 -1.6661248e-32 1.2006463e-19)
(0.078408291 -1.6777484e-32 -6.0451126e-20)
(0.078425828 -2.0480648e-50 -6.0874072e-20)
(0.078443568 -1.7022195e-32 0)
(0.078461562 0 0)
(0.078479735 -1.2433921e-19 0)
(0.078497963 -1.7385598e-32 0)
(0.078516208 6.3055222e-20 -6.3055222e-20)
(0.07853455 -6.3505132e-20 -1.7643136e-32)
(0.078553105 1.7751391e-32 6.396022e-20)
(0.07857191 6.442061e-20 0)
(0.0785909 6.4886282e-20 0)
(0.078609987 1.8148401e-32 0)
(0.078629145 -1.8280665e-32 0)
(0.078648411 6.6315421e-20 0)
(0.078667823 -6.6803048e-20 0)
(0.078687377 -6.7296658e-20 0)
(0.078707075 0 0)
(0.078726956 -6.8303194e-20 0)
(0.078747067 1.910904e-32 0)