/*--------------------------------*- C++ -*----------------------------------*\
  =========                 |
  \\      /  F ield         | OpenFOAM: The Open Source CFD Toolbox
   \\    /   O peration     | Website:  https://openfoam.org
    \\  /    A nd           | Version:  7
     \\/     M anipulation  |
\*---------------------------------------------------------------------------*/
FoamFile
{
    version     2.0;
    format      ascii;
    class       volScalarField;
    location    "0.0023";
    object      Ux;
}
// * * * * * * * * * * * * * * * * * * * * * * * * * * * * * * * * * * * * * //

dimensions      [0 1 -1 0 0 0 0];

internalField   nonuniform List<scalar> 
5000
(
0.076028297
0.077316758
0.074004684
0.077205501
0.075750661
0.076017062
0.075947945
0.075963824
0.076041438
0.076028062
0.076010647
0.076010811
0.076010983
0.076008976
0.076006702
0.076005123
0.076003854
0.076002623
0.076001423
0.076000242
0.075999085
0.075997934
0.075996786
0.075995673
0.075994587
0.075993515
0.075992458
0.075991419
0.0759904
0.075989402
0.07598842
0.07598745
0.075986494
0.07598556
0.075984644
0.075983745
0.075982864
0.075981997
0.075981141
0.075980302
0.075979481
0.075978679
0.075977895
0.075977122
0.075976362
0.075975617
0.075974878
0.075974152
0.07597345
0.075972764
0.075972087
0.075971423
0.075970771
0.075970134
0.075969516
0.075968911
0.075968317
0.075967737
0.075967166
0.075966611
0.075966068
0.075965577
0.075965366
0.075965459
0.07596568
0.075965956
0.075965514
0.075964407
0.075964084
0.075964422
0.075964855
0.075964738
0.075963413
0.075962342
0.075962565
0.075962846
0.075962167
0.075960828
0.07596082
0.075961913
0.075961683
0.07596018
0.075959748
0.075960479
0.075959979
0.075958509
0.075958429
0.075958906
0.075958101
0.075957636
0.075958372
0.075958228
0.075957025
0.07595679
0.075957327
0.07595689
0.075956284
0.07595655
0.075956434
0.0759555
0.075955301
0.07595559
0.075955016
0.075954843
0.07595513
0.075954582
0.075954404
0.075954673
0.075954151
0.075953838
0.075954214
0.075954168
0.075953624
0.075953498
0.0759539
0.075953837
0.075953237
0.075953079
0.075953389
0.075953351
0.075952941
0.075952696
0.075952722
0.075952763
0.075952755
0.075952772
0.075952738
0.07595259
0.075952508
0.075952525
0.075952525
0.075952515
0.075952514
0.075952516
0.075952525
0.075952554
0.075952601
0.075952664
0.075952737
0.075952827
0.075952922
0.075953028
0.07595314
0.075953257
0.075953384
0.075953511
0.07595365
0.075953792
0.075953942
0.075954102
0.075954267
0.07595444
0.075954623
0.075954811
0.075955009
0.075955214
0.075955424
0.075955642
0.075955862
0.075956086
0.075956312
0.075956523
0.075956716
0.075956917
0.075957119
0.075957327
0.075957544
0.075957764
0.075957967
0.075958185
0.075958395
0.07595862
0.07595885
0.075959089
0.075959336
0.075959594
0.075959858
0.075960132
0.075960414
0.075960701
0.075960995
0.075961291
0.07596159
0.075961884
0.075962146
0.075962381
0.075962628
0.075962881
0.07596314
0.075963413
0.075963687
0.075963938
0.075964199
0.075964468
0.075964728
0.075965005
0.075965286
0.075965575
0.075965876
0.075966181
0.075966496
0.075966817
0.075967143
0.075967473
0.075967804
0.075968127
0.075968413
0.075968666
0.075968933
0.075969214
0.075969503
0.07596981
0.075970123
0.075970399
0.075970663
0.075970942
0.075971216
0.075971503
0.075971799
0.075972101
0.075972413
0.075972733
0.075973058
0.075973389
0.075973724
0.075974061
0.075974397
0.075974713
0.075974986
0.075975253
0.075975539
0.075975835
0.075976144
0.07597647
0.075976797
0.075977075
0.075977358
0.075977656
0.075977945
0.075978246
0.075978557
0.075978872
0.075979196
0.075979525
0.075979858
0.075980195
0.075980532
0.07598087
0.075981187
0.075981477
0.075981765
0.07598207
0.075982384
0.075982712
0.075983054
0.075983399
0.075983716
0.075984019
0.075984336
0.075984652
0.075984975
0.07598531
0.075985648
0.075985992
0.075986341
0.075986693
0.075987046
0.075987401
0.075987747
0.075988078
0.075988398
0.075988728
0.075989069
0.07598942
0.075989783
0.075990152
0.07599052
0.075990865
0.075991217
0.075991579
0.075991939
0.075992307
0.075992683
0.075993061
0.075993444
0.075993829
0.075994215
0.075994602
0.075994985
0.075995361
0.075995732
0.075996111
0.075996499
0.075996895
0.075997301
0.075997712
0.075998126
0.075998525
0.075998928
0.075999341
0.075999754
0.076000172
0.076000596
0.076001023
0.076001453
0.076001885
0.076002318
0.076002751
0.076003182
0.076003614
0.076004049
0.07600449
0.076004937
0.07600539
0.076005849
0.076006311
0.076006773
0.076007236
0.076007706
0.07600818
0.076008656
0.076009137
0.076009621
0.076010108
0.076010598
0.076011089
0.076011581
0.076012075
0.07601257
0.076013069
0.076013573
0.076014082
0.076014598
0.076015118
0.076015641
0.076016166
0.076016694
0.076017228
0.076017766
0.076018308
0.076018853
0.076019401
0.076019953
0.076020508
0.076021065
0.076021624
0.076022186
0.076022752
0.076023321
0.076023897
0.076024478
0.076025064
0.076025653
0.076026246
0.076026842
0.076027442
0.076028048
0.076028658
0.076029272
0.076029889
0.076030509
0.076031134
0.076031762
0.076032393
0.076033028
0.076033667
0.076034311
0.076034961
0.076035616
0.076036276
0.076036939
0.076037607
0.076038278
0.076038954
0.076039636
0.076040322
0.076041012
0.076041706
0.076042405
0.076043107
0.076043814
0.076044526
0.076045242
0.076045964
0.076046691
0.076047423
0.07604816
0.076048902
0.076049649
0.076050399
0.076051156
0.076051918
0.076052684
0.076053456
0.076054232
0.076055014
0.0760558
0.076056591
0.076057388
0.07605819
0.076058998
0.076059811
0.076060631
0.076061455
0.076062286
0.076063122
0.076063964
0.076064814
0.076065672
0.07606654
0.07606742
0.076068318
0.076069238
0.076070192
0.07607119
0.07607225
0.076073391
0.07607464
0.076076024
0.076077575
0.07607932
0.076081282
0.07608347
0.076085876
0.076088472
0.076091215
0.076094059
0.076096968
0.076099921
0.076102922
0.076105981
0.076109105
0.076112288
0.076115502
0.076118704
0.076121823
0.076124851
0.076127885
0.076131009
0.076134184
0.076137229
0.076139992
0.076142629
0.076145392
0.076148335
0.07615129
0.076154097
0.076156939
0.07616009
0.076163617
0.076167284
0.07617083
0.076174331
0.076178059
0.07618211
0.076186265
0.076190236
0.07619407
0.076198041
0.076202252
0.076206502
0.076210491
0.076214205
0.07621784
0.076221513
0.076225208
0.076228898
0.076232573
0.076236156
0.07623952
0.076242698
0.076245954
0.076249524
0.076253352
0.076257157
0.076260844
0.076264709
0.076269057
0.076273776
0.076278401
0.076282627
0.076286692
0.076290926
0.07629536
0.076299681
0.076303643
0.076307404
0.076311188
0.076315003
0.07631868
0.076322151
0.07632556
0.076328999
0.076332356
0.07633543
0.076338235
0.076341002
0.076343921
0.076346938
0.076349795
0.076352418
0.076355052
0.076357974
0.076361176
0.076364359
0.076367353
0.076370382
0.076373716
0.076377316
0.076380864
0.076384195
0.07638752
0.076391062
0.076394774
0.07639839
0.076401807
0.076405192
0.076408705
0.076412324
0.0764159
0.076419388
0.076422903
0.076426525
0.076430226
0.076433941
0.076437686
0.076441492
0.076445306
0.076449045
0.076452722
0.076456426
0.076460213
0.076464029
0.076467788
0.076471488
0.076475187
0.076478918
0.07648266
0.076486393
0.076490141
0.076493967
0.076497935
0.076502094
0.076506449
0.076510953
0.076515555
0.076520238
0.07652499
0.076529764
0.076534526
0.076539328
0.076544238
0.076549188
0.076553998
0.076558554
0.07656286
0.076566935
0.076570772
0.076574375
0.076577802
0.076581177
0.076584679
0.076588487
0.076592656
0.076597155
0.076601922
0.076606883
0.076611991
0.076617233
0.076622544
0.076627779
0.076632887
0.076638018
0.076643281
0.076648502
0.076653353
0.076657752
0.076661825
0.076665708
0.076669451
0.076673085
0.076676753
0.076680745
0.076685283
0.076690287
0.076695419
0.076700352
0.076704977
0.076709368
0.076713717
0.076718295
0.076723197
0.076728163
0.076732939
0.076737662
0.076742659
0.076748003
0.076753359
0.076758398
0.07676314
0.076767753
0.076772478
0.076777609
0.076783267
0.076789257
0.076795227
0.076800956
0.076806433
0.07681169
0.076816786
0.076821882
0.076827203
0.076832865
0.076838749
0.076844711
0.076850748
0.076856869
0.07686293
0.076868754
0.076874343
0.076879921
0.07688582
0.076892179
0.076898718
0.076905063
0.076911197
0.076917415
0.076923953
0.076930734
0.07693752
0.076944291
0.07695117
0.076958056
0.076964652
0.07697094
0.076977328
0.076984305
0.076991835
0.076999338
0.077006408
0.077013236
0.077020185
0.077027495
0.077035149
0.0770429
0.077050457
0.077057675
0.077064722
0.077072088
0.077080252
0.077089074
0.077097844
0.077106008
0.077113669
0.077121249
0.077129128
0.077137409
0.077145858
0.077154258
0.07716265
0.077171192
0.077179927
0.077188742
0.077197516
0.077206244
0.077215013
0.077223905
0.07723293
0.077242037
0.077251171
0.077260335
0.077269606
0.077279073
0.077288723
0.07729839
0.077307899
0.077317262
0.077326702
0.077336479
0.077346638
0.07735695
0.07736715
0.077377172
0.077387137
0.077397211
0.077407503
0.077418007
0.077428645
0.077439334
0.07745003
0.077460725
0.077471469
0.077482335
0.077493362
0.077504527
0.077515772
0.077527055
0.077538352
0.077549655
0.077561008
0.077572517
0.077584261
0.077596177
0.077608097
0.077619928
0.077631768
0.077643803
0.077656099
0.077668517
0.077680875
0.077693174
0.077705592
0.077718277
0.077731174
0.077744081
0.077756884
0.077769681
0.077782667
0.077795929
0.077809364
0.077822798
0.077836173
0.077849599
0.07786322
0.077877067
0.077891041
0.077905038
0.077919067
0.077933217
0.077947528
0.077961933
0.077976348
0.077990788
0.078005361
0.078020149
0.078035123
0.078050197
0.078065324
0.078080516
0.078095787
0.078111132
0.078126574
0.078142184
0.078158011
0.078174001
0.07819003
0.07820604
0.078222111
0.078238387
0.078254916
0.078271602
0.0782883
0.078304965
0.078321702
0.078338662
0.078355905
0.07837334
0.078390821
0.078408291
0.078425828
0.078443568
0.078461562
0.078479735
0.078497963
0.078516208
0.07853455
0.078553105
0.07857191
0.0785909
0.078609987
0.078629145
0.078648411
0.078667823
0.078687377
0.078707075
0.078726956
0.078747067
0.078767396
0.078787854
0.078808362
0.07882895
0.078849731
0.078870788
0.07889209
0.078913528
0.078935039
0.078956664
0.078978498
0.079000608
0.079022974
0.079045526
0.079068196
0.079090982
0.079113954
0.079137197
0.079160735
0.079184503
0.079208413
0.079232447
0.079256689
0.079281242
0.079306127
0.079331262
0.079356553
0.079381999
0.079407703
0.079433776
0.079460227
0.079486962
0.079513884
0.079540987
0.079568373
0.079596147
0.079624318
0.079652801
0.079681504
0.079710433
0.079739706
0.079769466
0.079799769
0.079830532
0.079861607
0.079892902
0.079924461
0.079956433
0.079988951
0.080022048
0.080055666
0.080089746
0.080124277
0.080159279
0.080194773
0.080230792
0.080267392
0.080304618
0.080342469
0.080380913
0.08041995
0.080459649
0.080500094
0.080541318
0.080583276
0.080625921
0.080669279
0.080713456
0.080758558
0.080804609
0.080851557
0.080899363
0.080948075
0.080997811
0.081048673
0.081100681
0.081153788
0.081207968
0.081263286
0.081319877
0.081377858
0.081437255
0.081498016
0.081560109
0.081623597
0.081688638
0.081755389
0.081823921
0.081894207
0.0819662
0.082039921
0.082115485
0.08219306
0.082272789
0.082354734
0.082438901
0.082525294
0.082613977
0.082705079
0.082798761
0.082895161
0.082994353
0.083096361
0.08320121
0.083308993
0.083419883
0.083534093
0.083651796
0.083773074
0.083897945
0.084026444
0.084158689
0.084294878
0.08443524
0.084579965
0.084729177
0.08488297
0.085041461
0.085204811
0.085373202
0.085546816
0.085725833
0.085910443
0.086100838
0.086297204
0.086499714
0.086708558
0.086923963
0.087146192
0.087375499
0.087612081
0.087856097
0.08810772
0.08836721
0.088634911
0.088911177
0.08919629
0.08949045
0.089793846
0.090106724
0.09042941
0.090762277
0.091105708
0.091460047
0.091825583
0.092202575
0.092591313
0.092992153
0.093405523
0.093831871
0.094271602
0.094725059
0.095192561
0.09567447
0.096171236
0.096683366
0.097211361
0.097755656
0.098316632
0.098894684
0.099490284
0.10010399
0.10073639
0.10138802
0.10205934
0.1027508
0.1034629
0.10419624
0.10495148
0.10572925
0.10653012
0.10735461
0.10820328
0.10907675
0.10997572
0.11090092
0.11185304
0.11283272
0.11384055
0.11487722
0.11594345
0.11704005
0.11816782
0.1193275
0.12051981
0.12174548
0.12300528
0.12430007
0.12563072
0.12699808
0.12840298
0.12984622
0.13132869
0.13285128
0.13441495
0.13602062
0.13766919
0.13936157
0.14109874
0.14288168
0.14471142
0.14658895
0.14851527
0.15049137
0.1525183
0.15459714
0.15672897
0.15891487
0.16115591
0.16345323
0.16580796
0.16822125
0.1706942
0.17322793
0.17582362
0.17848252
0.1812059
0.18399499
0.18685095
0.18977493
0.19276812
0.19583184
0.19896745
0.20217628
0.20545966
0.20881882
0.21225502
0.21576955
0.21936376
0.22303904
0.2267968
0.23063843
0.23456531
0.23857877
0.24268017
0.2468709
0.2511524
0.25552615
0.25999361
0.26455618
0.26921527
0.27397227
0.27882866
0.28378593
0.28884562
0.29400921
0.29927816
0.30465386
0.31013777
0.31573139
0.32143629
0.32725402
0.3331861
0.33923399
0.3453991
0.35168293
0.35808698
0.36461282
0.37126197
0.37803598
0.38493632
0.39196447
0.39912191
0.40641014
0.4138307
0.42138507
0.42907475
0.43690122
0.44486595
0.45297044
0.46121618
0.46960463
0.47813723
0.48681542
0.49564064
0.50461436
0.51373807
0.52301319
0.5324411
0.54202315
0.55176071
0.56165523
0.57170812
0.58192081
0.5922946
0.60283079
0.61353066
0.62439553
0.63542677
0.64662571
0.65799364
0.6695318
0.68124138
0.69312359
0.70517965
0.71741083
0.72981834
0.74240334
0.75516694
0.76811023
0.78123433
0.79454038
0.80802951
0.82170283
0.83556135
0.84960604
0.86383785
0.87825775
0.89286675
0.90766584
0.92265598
0.9378381
0.95321304
0.96878163
0.98454469
1.000503
1.0166575
1.0330087
1.0495577
1.066305
1.0832516
1.1003979
1.1177446
1.1352923
1.1530417
1.1709934
1.1891479
1.2075059
1.2260679
1.2448343
1.2638056
1.2829822
1.3023645
1.321953
1.3417482
1.3617504
1.3819598
1.4023769
1.4230017
1.4438347
1.4648759
1.4861258
1.5075846
1.5292524
1.5511293
1.5732153
1.5955107
1.6180153
1.6407294
1.6636531
1.6867863
1.710129
1.7336812
1.7574426
1.7814133
1.8055932
1.8299822
1.85458
1.8793867
1.9044019
1.9296255
1.9550571
1.9806965
2.0065435
2.0325978
2.058859
2.0853268
2.1120009
2.1388809
2.1659663
2.1932568
2.2207518
2.2484511
2.2763541
2.3044603
2.3327691
2.3612801
2.3899927
2.4189064
2.4480206
2.4773347
2.506848
2.5365598
2.5664697
2.5965769
2.6268807
2.6573806
2.6880757
2.7189653
2.7500486
2.781325
2.8127936
2.8444537
2.8763046
2.9083454
2.9405752
2.9729932
3.0055985
3.0383905
3.0713681
3.1045305
3.1378769
3.1714062
3.2051176
3.2390101
3.2730828
3.3073348
3.3417652
3.3763729
3.4111571
3.4461166
3.4812505
3.5165579
3.5520377
3.5876889
3.6235105
3.6595014
3.6956606
3.7319871
3.7684798
3.8051377
3.8419596
3.8789446
3.9160915
3.9533993
3.9908669
4.0284932
4.066277
4.1042173
4.142313
4.1805629
4.2189661
4.2575212
4.2962272
4.335083
4.3740874
4.4132394
4.4525378
4.4919814
4.531569
4.5712996
4.6111719
4.6511849
4.6913374
4.7316283
4.7720564
4.8126204
4.8533192
4.8941518
4.9351169
4.9762134
5.0174402
5.0587959
5.1002795
5.1418898
5.1836256
5.2254859
5.2674694
5.3095749
5.3518013
5.3941474
5.4366119
5.4791938
5.521892
5.5647052
5.6076324
5.6506723
5.6938237
5.7370854
5.7804564
5.8239354
5.8675213
5.911213
5.9550093
5.9989091
6.0429112
6.0870144
6.1312175
6.1755195
6.2199192
6.2644154
6.3090071
6.353693
6.3984721
6.4433432
6.488305
6.5333566
6.5784968
6.6237244
6.6690385
6.7144378
6.7599212
6.8054875
6.8511357
6.8968646
6.9426731
6.9885602
7.0345247
7.0805656
7.1266817
7.172872
7.2191352
7.2654704
7.3118763
7.3583521
7.4048965
7.4515085
7.4981871
7.5449311
7.5917395
7.6386111
7.6855449
7.7325399
7.7795949
7.8267091
7.8738812
7.9211102
7.9683952
8.0157349
8.0631283
8.1105745
8.1580723
8.2056209
8.253219
8.3008658
8.3485601
8.3963008
8.4440871
8.4919178
8.539792
8.5877087
8.6356667
8.6836652
8.7317031
8.7797793
8.8278929
8.8760429
8.9242284
8.9724482
9.0207014
9.0689869
9.1173039
9.1656513
9.2140281
9.2624335
9.3108662
9.3593255
9.4078103
9.4563196
9.5048525
9.553408
9.6019851
9.6505829
9.6992004
9.7478367
9.7964907
9.8451616
9.8938484
9.94255
9.9912657
10.039994
10.088735
10.137487
10.186249
10.23502
10.2838
10.332587
10.38138
10.430179
10.478982
10.527789
10.576599
10.62541
10.674222
10.723034
10.771846
10.820655
10.869461
10.918264
10.967061
11.015853
11.064639
11.113417
11.162187
11.210947
11.259697
11.308436
11.357164
11.405878
11.454578
11.503263
11.551933
11.600586
11.649222
11.697839
11.746437
11.795015
11.843572
11.892107
11.940619
11.989107
12.03757
12.086008
12.134419
12.182803
12.231158
12.279485
12.327781
12.376046
12.42428
12.47248
12.520647
12.56878
12.616877
12.664937
12.71296
12.760946
12.808892
12.856798
12.904663
12.952487
13.000268
13.048006
13.095699
13.143347
13.190949
13.238503
13.28601
13.333468
13.380876
13.428234
13.47554
13.522794
13.569994
13.61714
13.664231
13.711266
13.758244
13.805165
13.852026
13.898829
13.94557
13.992251
14.038869
14.085424
14.131915
14.178342
14.224702
14.270996
14.317222
14.36338
14.409468
14.455486
14.501433
14.547308
14.59311
14.638838
14.684492
14.73007
14.775571
14.820995
14.866341
14.911608
14.956794
15.0019
15.046923
15.091864
15.136722
15.181494
15.226182
15.270783
15.315297
15.359722
15.404059
15.448306
15.492462
15.536527
15.580498
15.624377
15.668161
15.71185
15.755443
15.798939
15.842337
15.885636
15.928836
15.971935
16.014932
16.057828
16.10062
16.143308
16.185891
16.228369
16.270739
16.313002
16.355157
16.397202
16.439137
16.480962
16.522674
16.564273
16.605758
16.64713
16.688385
16.729525
16.770547
16.811451
16.852236
16.892902
16.933447
16.973871
17.014172
17.054351
17.094405
17.134334
17.174138
17.213816
17.253366
17.292788
17.332081
17.371244
17.410276
17.449177
17.487946
17.526582
17.565084
17.603451
17.641682
17.679778
17.717736
17.755556
17.793238
17.83078
17.868182
17.905443
17.942562
17.979538
18.016371
18.05306
18.089605
18.126003
18.162255
18.198361
18.234318
18.270127
18.305787
18.341296
18.376655
18.411863
18.446918
18.481821
18.51657
18.551165
18.585605
18.61989
18.654018
18.68799
18.721804
18.75546
18.788957
18.822295
18.855473
18.888491
18.921347
18.954041
18.986573
19.018942
19.051147
19.083189
19.115065
19.146777
19.178322
19.209702
19.240914
19.271959
19.302837
19.333546
19.364086
19.394457
19.424658
19.45469
19.48455
19.514239
19.543757
19.573103
19.602277
19.631278
19.660105
19.68876
19.71724
19.745547
19.773678
19.801635
19.829417
19.857024
19.884454
19.911709
19.938787
19.965688
19.992413
20.018961
20.045331
20.071524
20.09754
20.123377
20.149037
20.174518
20.199821
20.224945
20.249891
20.274658
20.299246
20.323656
20.347886
20.371938
20.39581
20.419504
20.443018
20.466353
20.489509
20.512486
20.535284
20.557903
20.580344
20.602605
20.624688
20.646592
20.668318
20.689865
20.711234
20.732425
20.753439
20.774275
20.794933
20.815414
20.835718
20.855845
20.875796
20.895571
20.91517
20.934594
20.953842
20.972915
20.991814
21.010538
21.029089
21.047466
21.06567
21.083702
21.101561
21.119249
21.136766
21.154112
21.171287
21.188293
21.205129
21.221797
21.238297
21.254628
21.270793
21.286792
21.302624
21.318291
21.333794
21.349132
21.364307
21.37932
21.39417
21.408859
21.423387
21.437756
21.451965
21.466015
21.479908
21.493644
21.507223
21.520647
21.533917
21.547032
21.559994
21.572804
21.585463
21.597971
21.610329
21.622538
21.634599
21.646513
21.658281
21.669904
21.681381
21.692716
21.703907
21.714957
21.725866
21.736635
21.747266
21.757758
21.768113
21.778333
21.788417
21.798367
21.808185
21.81787
21.827424
21.836848
21.846143
21.85531
21.86435
21.873264
21.882053
21.890718
21.89926
21.907681
21.915981
21.924161
21.932222
21.940166
21.947993
21.955705
21.963303
21.970787
21.978158
21.985419
21.99257
21.999611
22.006545
22.013371
22.020092
22.026708
22.03322
22.03963
22.045938
22.052146
22.058254
22.064264
22.070177
22.075994
22.081715
22.087343
22.092878
22.09832
22.103672
22.108934
22.114108
22.119193
22.124192
22.129106
22.133935
22.13868
22.143343
22.147924
22.152425
22.156847
22.16119
22.165456
22.169646
22.17376
22.1778
22.181766
22.18566
22.189483
22.193235
22.196918
22.200532
22.204079
22.207559
22.210974
22.214324
22.21761
22.220833
22.223994
22.227095
22.230135
22.233116
22.236038
22.238903
22.241712
22.244465
22.247163
22.249807
22.252398
22.254937
22.257424
22.259861
22.262247
22.264585
22.266875
22.269117
22.271312
22.273462
22.275566
22.277626
22.279643
22.281617
22.283548
22.285438
22.287288
22.289098
22.290868
22.2926
22.294294
22.295951
22.297571
22.299155
22.300704
22.302219
22.3037
22.305147
22.306562
22.307944
22.309296
22.310616
22.311906
22.313166
22.314397
22.3156
22.316775
22.317922
22.319042
22.320136
22.321204
22.322247
22.323265
22.324258
22.325228
22.326174
22.327098
22.327999
22.328878
22.329736
22.330572
22.331388
22.332184
22.33296
22.333717
22.334455
22.335174
22.335876
22.336559
22.337226
22.337875
22.338508
22.339124
22.339725
22.340311
22.340881
22.341436
22.341977
22.342504
22.343017
22.343517
22.344003
22.344476
22.344937
22.345386
22.345823
22.346247
22.346661
22.347063
22.347455
22.347835
22.348206
22.348566
22.348916
22.349257
22.349588
22.34991
22.350224
22.350528
22.350824
22.351112
22.351391
22.351663
22.351927
22.352183
22.352432
22.352674
22.352909
22.353137
22.353359
22.353574
22.353783
22.353986
22.354183
22.354374
22.35456
22.35474
22.354915
22.355085
22.355249
22.355409
22.355564
22.355714
22.355859
22.356001
22.356138
22.35627
22.356399
22.356524
22.356645
22.356762
22.356876
22.356986
22.357093
22.357196
22.357296
22.357393
22.357487
22.357578
22.357666
22.357752
22.357834
22.357914
22.357992
22.358067
22.358139
22.358209
22.358277
22.358343
22.358406
22.358468
22.358527
22.358585
22.35864
22.358694
22.358746
22.358796
22.358845
22.358892
22.358937
22.358981
22.359024
22.359064
22.359104
22.359142
22.359179
22.359215
22.359249
22.359282
22.359314
22.359345
22.359375
22.359404
22.359432
22.359459
22.359485
22.35951
22.359534
22.359557
22.359579
22.359601
22.359622
22.359642
22.359661
22.35968
22.359698
22.359715
22.359732
22.359748
22.359763
22.359778
22.359793
22.359806
22.35982
22.359833
22.359845
22.359857
22.359868
22.359879
22.35989
22.3599
22.35991
22.359919
22.359928
22.359937
22.359945
22.359953
22.359961
22.359968
22.359976
22.359982
22.359989
22.359995
22.360001
22.360007
22.360013
22.360018
22.360023
22.360028
22.360033
22.360038
22.360042
22.360046
22.36005
22.360054
22.360058
22.360061
22.360065
22.360068
22.360071
22.360074
22.360077
22.36008
22.360082
22.360085
22.360087
22.360089
22.360092
22.360094
22.360096
22.360098
22.3601
22.360101
22.360103
22.360105
22.360106
22.360108
22.360109
22.36011
22.360112
22.360113
22.360114
22.360115
22.360116
22.360117
22.360118
22.360119
22.36012
22.360121
22.360122
22.360122
22.360123
22.360124
22.360124
22.360125
22.360126
22.360126
22.360127
22.360127
22.360128
22.360128
22.360129
22.360129
22.360129
22.36013
22.36013
22.36013
22.360131
22.360131
22.360131
22.360131
22.360131
22.360132
22.360132
22.360132
22.360132
22.360132
22.360133
22.360133
22.360133
22.360133
22.360133
22.360133
22.360133
22.360133
22.360133
22.360133
22.360133
22.360133
22.360133
22.360133
22.360133
22.360133
22.360133
22.360133
22.360133
22.360133
22.360133
22.360133
22.360133
22.360133
22.360133
22.360132
22.360132
22.360132
22.360132
22.360132
22.360132
22.360132
22.360132
22.360132
22.360131
22.360131
22.360131
22.360131
22.360131
22.360131
22.360131
22.36013
22.36013
22.36013
22.36013
22.36013
22.36013
22.360129
22.360129
22.360129
22.360129
22.360129
22.360128
22.360128
22.360128
22.360128
22.360128
22.360127
22.360127
22.360127
22.360127
22.360127
22.360126
22.360126
22.360126
22.360126
22.360126
22.360125
22.360125
22.360125
22.360125
22.360125
22.360124
22.360124
22.360124
22.360124
22.360123
22.360123
22.360123
22.360123
22.360122
22.360122
22.360122
22.360122
22.360122
22.360121
22.360121
22.360121
22.360121
22.36012
22.36012
22.36012
22.36012
22.360119
22.360119
22.360119
22.360119
22.360118
22.360118
22.360118
22.360118
22.360117
22.360117
22.360117
22.360117
22.360116
22.360116
22.360116
22.360116
22.360116
22.360115
22.360115
22.360115
22.360115
22.360114
22.360114
22.360114
22.360114
22.360113
22.360113
22.360113
22.360113
22.360112
22.360112
22.360112
22.360112
22.360111
22.360111
22.360111
22.360111
22.36011
22.36011
22.36011
22.36011
22.360109
22.360109
22.360109
22.360109
22.360109
22.360108
22.360108
22.360108
22.360108
22.360107
22.360107
22.360107
22.360107
22.360106
22.360106
22.360106
22.360106
22.360105
22.360105
22.360105
22.360105
22.360104
22.360104
22.360104
22.360104
22.360104
22.360103
22.360103
22.360103
22.360103
22.360102
22.360102
22.360102
22.360102
22.360101
22.360101
22.360101
22.360101
22.360101
22.3601
22.3601
22.3601
22.3601
22.360099
22.360099
22.360099
22.360099
22.360099
22.360098
22.360098
22.360098
22.360098
22.360098
22.360097
22.360097
22.360097
22.360097
22.360097
22.360096
22.360096
22.360096
22.360096
22.360096
22.360095
22.360095
22.360095
22.360095
22.360095
22.360094
22.360094
22.360094
22.360094
22.360094
22.360093
22.360093
22.360093
22.360093
22.360093
22.360092
22.360092
22.360092
22.360092
22.360092
22.360091
22.360091
22.360091
22.360091
22.360091
22.360091
22.36009
22.36009
22.36009
22.36009
22.36009
22.36009
22.360089
22.360089
22.360089
22.360089
22.360089
22.360089
22.360088
22.360088
22.360088
22.360088
22.360088
22.360088
22.360087
22.360087
22.360087
22.360087
22.360087
22.360087
22.360087
22.360086
22.360086
22.360086
22.360086
22.360086
22.360086
22.360086
22.360085
22.360085
22.360085
22.360085
22.360085
22.360085
22.360084
22.360084
22.360084
22.360084
22.360084
22.360084
22.360084
22.360083
22.360083
22.360083
22.360083
22.360083
22.360083
22.360083
22.360082
22.360082
22.360082
22.360082
22.360082
22.360082
22.360082
22.360081
22.360081
22.360081
22.360081
22.360081
22.360081
22.36008
22.36008
22.36008
22.36008
22.36008
22.36008
22.360079
22.360079
22.360079
22.360079
22.360079
22.360079
22.360078
22.360078
22.360078
22.360078
22.360078
22.360078
22.360077
22.360077
22.360077
22.360077
22.360077
22.360076
22.360076
22.360076
22.360076
22.360076
22.360075
22.360075
22.360075
22.360075
22.360075
22.360074
22.360074
22.360074
22.360074
22.360074
22.360073
22.360073
22.360073
22.360073
22.360072
22.360072
22.360072
22.360072
22.360071
22.360071
22.360071
22.360071
22.36007
22.36007
22.36007
22.36007
22.36007
22.360069
22.360069
22.360069
22.360068
22.360068
22.360068
22.360068
22.360067
22.360067
22.360067
22.360067
22.360066
22.360066
22.360066
22.360066
22.360065
22.360065
22.360065
22.360065
22.360064
22.360064
22.360064
22.360063
22.360063
22.360063
22.360063
22.360062
22.360062
22.360062
22.360062
22.360061
22.360061
22.360061
22.36006
22.36006
22.36006
22.36006
22.360059
22.360059
22.360059
22.360059
22.360058
22.360058
22.360058
22.360057
22.360057
22.360057
22.360057
22.360056
22.360056
22.360056
22.360056
22.360055
22.360055
22.360055
22.360055
22.360054
22.360054
22.360054
22.360053
22.360053
22.360053
22.360053
22.360052
22.360052
22.360052
22.360052
22.360051
22.360051
22.360051
22.360051
22.360051
22.36005
22.36005
22.36005
22.36005
22.360049
22.360049
22.360049
22.360049
22.360048
22.360048
22.360048
22.360048
22.360048
22.360047
22.360047
22.360047
22.360047
22.360046
22.360046
22.360046
22.360046
22.360046
22.360045
22.360045
22.360045
22.360045
22.360045
22.360044
22.360044
22.360044
22.360044
22.360044
22.360043
22.360043
22.360043
22.360043
22.360043
22.360042
22.360042
22.360042
22.360042
22.360042
22.360041
22.360041
22.360041
22.360041
22.360041
22.36004
22.36004
22.36004
22.36004
22.36004
22.360039
22.360039
22.360039
22.360039
22.360039
22.360038
22.360038
22.360038
22.360038
22.360038
22.360038
22.360037
22.360037
22.360037
22.360037
22.360037
22.360036
22.360036
22.360036
22.360036
22.360036
22.360036
22.360035
22.360035
22.360035
22.360035
22.360035
22.360034
22.360034
22.360034
22.360034
22.360034
22.360033
22.360033
22.360033
22.360033
22.360033
22.360033
22.360032
22.360032
22.360032
22.360032
22.360032
22.360031
22.360031
22.360031
22.360031
22.360031
22.360031
22.36003
22.36003
22.36003
22.36003
22.36003
22.360029
22.360029
22.360029
22.360029
22.360029
22.360029
22.360028
22.360028
22.360028
22.360028
22.360028
22.360027
22.360027
22.360027
22.360027
22.360027
22.360026
22.360026
22.360026
22.360026
22.360026
22.360026
22.360025
22.360025
22.360025
22.360025
22.360025
22.360025
22.360024
22.360024
22.360024
22.360024
22.360024
22.360023
22.360023
22.360023
22.360023
22.360023
22.360023
22.360022
22.360022
22.360022
22.360022
22.360022
22.360022
22.360021
22.360021
22.360021
22.360021
22.360021
22.36002
22.36002
22.36002
22.36002
22.36002
22.36002
22.360019
22.360019
22.360019
22.360019
22.360019
22.360019
22.360018
22.360018
22.360018
22.360018
22.360018
22.360018
22.360017
22.360017
22.360017
22.360017
22.360017
22.360016
22.360016
22.360016
22.360016
22.360016
22.360016
22.360015
22.360015
22.360015
22.360015
22.360015
22.360015
22.360015
22.360014
22.360014
22.360014
22.360014
22.360014
22.360014
22.360013
22.360013
22.360013
22.360013
22.360013
22.360013
22.360012
22.360012
22.360012
22.360012
22.360012
22.360012
22.360011
22.360011
22.360011
22.360011
22.360011
22.360011
22.360011
22.36001
22.36001
22.36001
22.36001
22.36001
22.36001
22.36001
22.360009
22.360009
22.360009
22.360009
22.360009
22.360009
22.360009
22.360008
22.360008
22.360008
22.360008
22.360008
22.360008
22.360008
22.360007
22.360007
22.360007
22.360007
22.360007
22.360006
22.360006
22.360006
22.360006
22.360006
22.360006
22.360006
22.360005
22.360005
22.360005
22.360005
22.360005
22.360005
22.360005
22.360005
22.360004
22.360004
22.360004
22.360004
22.360004
22.360004
22.360004
22.360004
22.360004
22.360003
22.360003
22.360003
22.360003
22.360002
22.360001
22.360001
22.36
22.36
22.359999
22.36
22.36
22.360001
22.360002
22.360004
22.360006
22.360007
22.360008
22.360008
22.360006
22.360002
22.359997
22.35999
22.359985
22.359985
22.359998
22.360039
22.360159
22.360462
22.361219
22.360954
22.359924
22.359848
22.35997
22.359964
22.359943
22.359941
22.359944
22.359947
22.359952
22.359958
22.359966
22.359973