/*--------------------------------*- C++ -*----------------------------------*\
| =========                 |                                                 |
| \\      /  F ield         | OpenFOAM: The Open Source CFD Toolbox           |
|  \\    /   O peration     | Version:  4.x                                   |
|   \\  /    A nd           | Web:      www.OpenFOAM.org                      |
|    \\/     M anipulation  |                                                 |
\*---------------------------------------------------------------------------*/
FoamFile
{
    version     2.0;
    format      ascii;
    class       volVectorField;
    location    "0.74";
    object      U;
}
// * * * * * * * * * * * * * * * * * * * * * * * * * * * * * * * * * * * * * //

dimensions      [0 1 -1 0 0 0 0];

internalField   nonuniform List<vector> 
6394
(
(0.03005310229 9.002589426e-05 0.00376274164)
(0.03005212104 2.945091592e-05 0.003762715398)
(0.03005212144 -2.945183804e-05 0.003762715441)
(0.03005310334 -9.002520696e-05 0.00376274147)
(0.03005546296 -0.0001564972777 0.00376286994)
(0.03006030731 -0.0002337270609 0.003763073549)
(0.03006992075 -0.0003339406416 0.003763883512)
(0.03008908229 -0.0004601688741 0.003763762265)
(0.03482147757 8.940610191e-05 0.005107656875)
(0.03482216241 2.921169765e-05 0.005108473185)
(0.03482216278 -2.921289391e-05 0.005108473306)
(0.03482147907 -8.940616341e-05 0.005107656852)
(0.03482010749 -0.0001559863634 0.005106089481)
(0.03481821747 -0.0002342632407 0.005103927517)
(0.03481648162 -0.0003385307708 0.005101646615)
(0.03481693162 -0.0004733958723 0.005099684169)
(0.03487416543 9.776382129e-05 0.002572521429)
(0.03487392978 3.192674152e-05 0.00257385305)
(0.03487393019 -3.192765244e-05 0.002573853319)
(0.03487416678 -9.776379958e-05 0.0025725221)
(0.0348747017 -0.0001705446795 0.002569976351)
(0.03487569434 -0.0002557457228 0.002566623755)
(0.03487785975 -0.0003675809175 0.002563201232)
(0.03488204705 -0.0005093857728 0.002560942118)
(0.034633766 0.0001019516193 0.001832947792)
(0.03463374718 3.33505312e-05 0.001833200302)
(0.0346337475 -3.3350681e-05 0.001833200798)
(0.03463376725 -0.0001019513088 0.001832949299)
(0.03463396767 -0.0001772246436 0.001832679766)
(0.03463472487 -0.0002645855539 0.001833005417)
(0.03463719302 -0.0003779105375 0.001834886463)
(0.03464191875 -0.0005200211073 0.0018400366)
(0.0345622689 0.0001036112347 0.001021856369)
(0.03456211411 3.394439566e-05 0.001021854482)
(0.03456211437 -3.394337955e-05 0.001021854941)
(0.03456227013 -0.0001036102781 0.001021857867)
(0.03456271201 -0.0001795644481 0.001022075181)
(0.03456374674 -0.0002669877772 0.001023035355)
(0.03456639921 -0.0003794051312 0.001025573812)
(0.03457081332 -0.0005190306777 0.001031062016)
(0.03454414543 0.0001035379743 0.0007429729764)
(0.03454402941 3.396608038e-05 0.0007427192201)
(0.03454402957 -3.39642542e-05 0.0007427193259)
(0.03454414601 -0.0001035365598 0.0007429737699)
(0.03454448542 -0.0001789714513 0.0007436810041)
(0.03454529956 -0.0002652258755 0.0007452886548)
(0.03454751844 -0.0003755873054 0.0007484185451)
(0.03455105993 -0.0005122362473 0.000753986473)
(0.02705734031 0.00022157046 0.003147311168)
(0.02704881396 7.290677166e-05 0.00314816361)
(0.02704881452 -7.290491039e-05 0.00314816358)
(0.027057342 -0.000221568414 0.003147311114)
(0.02707637128 -0.000379506424 0.003145479427)
(0.02711085158 -0.0005538260238 0.003142180235)
(0.02716919057 -0.0007573889647 0.003137488539)
(0.02726982111 -0.0009914751786 0.003128344021)
(0.03611389143 0.0003301942403 0.006013200624)
(0.03610225199 0.0001086011007 0.006015551223)
(0.03610225243 -0.0001085976128 0.006015551238)
(0.036113893 -0.000330190921 0.006013200685)
(0.03614010864 -0.00056615835 0.006008203409)
(0.0361881492 -0.0008278530972 0.005999902905)
(0.03627103184 -0.001134530303 0.005987893449)
(0.03641679712 -0.001492911796 0.00597109666)
(0.03740538691 0.000303207312 0.004358884001)
(0.03739638996 9.978332929e-05 0.004359839297)
(0.0373963903 -9.978041773e-05 0.004359839407)
(0.03740538818 -0.0003032048655 0.00435888438)
(0.03742565737 -0.000519702517 0.004356868409)
(0.03746355202 -0.0007602615509 0.004353196277)
(0.03753103422 -0.001046212455 0.004346192902)
(0.03765513075 -0.001382898537 0.00433373707)
(0.03644606255 0.0003008624085 0.00357760467)
(0.03643793346 9.907598682e-05 0.003578275801)
(0.03643793367 -9.907272662e-05 0.003578276065)
(0.03644606358 -0.0003008598001 0.003577605511)
(0.0364646975 -0.0005149357419 0.0035765011)
(0.03650018572 -0.0007515674162 0.003575189233)
(0.03656387756 -0.001031952736 0.003573006364)
(0.03668180204 -0.00136119662 0.003568672494)
(0.03572394554 0.000301175306 0.002380134086)
(0.03571576972 9.913894328e-05 0.002379807123)
(0.03571576977 -9.913515868e-05 0.002379807271)
(0.03572394599 -0.0003011724195 0.002380134634)
(0.03574273435 -0.000515766701 0.002380961743)
(0.03577849959 -0.0007531611484 0.002382464633)
(0.0358426721 -0.001034182394 0.002384206896)
(0.03596115693 -0.001363238685 0.002385225366)
(0.03529452281 0.0003017882539 0.001849124516)
(0.03528664376 9.935712428e-05 0.001848665843)
(0.03528664367 -9.93530846e-05 0.001848665766)
(0.03529452274 -0.0003017852457 0.001849124433)
(0.03531276445 -0.0005166108133 0.001850238757)
(0.03534777697 -0.0007539902698 0.001852330512)
(0.03541105909 -0.001034674317 0.00185542528)
(0.03552845657 -0.001363238421 0.001859010849)
(0.02067453078 0.0002943633067 0.00224533651)
(0.02065453844 9.717576406e-05 0.002246634285)
(0.02065453817 -9.717225933e-05 0.002246634235)
(0.02067453005 -0.0002943602538 0.002245336207)
(0.02071785756 -0.0005006137209 0.002242788732)
(0.02079237201 -0.0007230112319 0.00223881688)
(0.02091156081 -0.0009733213923 0.002234348414)
(0.02110296534 -0.001255139437 0.002226883958)
(0.03513023473 0.0004257744643 0.005897909784)
(0.03510775864 0.0001402197865 0.005901578077)
(0.03510775826 -0.0001402141922 0.005901577951)
(0.03513023359 -0.000425769491 0.005897909274)
(0.03517907109 -0.0007278380534 0.005890302582)
(0.03526332882 -0.001059018218 0.005878548869)
(0.03539844648 -0.001439751555 0.005863700523)
(0.03561860689 -0.001881327934 0.005845961094)
(0.03850707385 0.00045445117 0.005205294912)
(0.03848710216 0.0001490330886 0.005213849146)
(0.03848710172 -0.0001490286016 0.005213849079)
(0.03850707254 -0.0004544473746 0.005205294899)
(0.03855146486 -0.0007822891099 0.005189081345)
(0.03863012298 -0.001147365435 0.005168097152)
(0.03876027864 -0.001567980469 0.005151290255)
(0.03897769818 -0.002053790924 0.0051411381)
(0.03804952442 0.0004650419883 0.004674465694)
(0.03803276085 0.0001529685783 0.004678898924)
(0.03803276049 -0.0001529637302 0.004678899062)
(0.03804952318 -0.000465038055 0.004674466167)
(0.03808793081 -0.000796378472 0.004666357557)
(0.03815926925 -0.001161654147 0.004656429016)
(0.03828428021 -0.001582385851 0.004648918239)
(0.03850090051 -0.002068593002 0.004645510628)
(0.03712906682 0.0004726591958 0.003412751562)
(0.03711082593 0.0001557853096 0.003414044072)
(0.03711082551 -0.000155780239 0.003414044105)
(0.03712906556 -0.0004726546842 0.00341275166)
(0.03717025877 -0.0008064775418 0.003410602952)
(0.03724554582 -0.00117098915 0.003408592051)
(0.03737528226 -0.001588468619 0.003408652062)
(0.03759926204 -0.002069241752 0.003411887608)
(0.03639897136 0.0004775925892 0.002701255844)
(0.03638040305 0.0001576038784 0.002701381758)
(0.03638040278 -0.0001575987659 0.002701381709)
(0.03639897014 -0.0004775878334 0.002701255547)
(0.0364409548 -0.0008130236815 0.002701397824)
(0.03651787519 -0.001176981065 0.002702573121)
(0.03665073763 -0.001591883733 0.002705707588)
(0.03688083822 -0.002068552525 0.002710971361)
(0.01694819406 0.0005511333569 0.001241752915)
(0.01688873777 0.0003254030458 0.001238918181)
(0.01686124874 0.0001076289621 0.001237521962)
(0.01686124783 -0.0001076274297 0.001237521877)
(0.01688873489 -0.0003254014699 0.001238917874)
(0.0169481901 -0.0005511325029 0.001241752229)
(0.01704955249 -0.0007909156352 0.001245967822)
(0.01720944912 -0.001052327276 0.001250941392)
(0.01745433118 -0.001337599239 0.001255798324)
(0.03349710749 0.0008902947043 0.004796643726)
(0.03341603645 0.0005234656046 0.004793415698)
(0.03337849031 0.0001728264919 0.004791327638)
(0.03337848934 -0.0001728231194 0.004791327492)
(0.03341603354 -0.0005234621472 0.004793415183)
(0.03349710421 -0.0008902917657 0.004796642963)
(0.03363575529 -0.001287971259 0.0047986262)
(0.03385773184 -0.001736331641 0.00479712424)
(0.03420759797 -0.002246258561 0.004796926414)
(0.03914772275 0.001033448862 0.005129255362)
(0.03906532394 0.0006144922391 0.005106558899)
(0.03902567299 0.0002041820526 0.005094907872)
(0.03902567209 -0.000204178721 0.005094907886)
(0.03906532134 -0.0006144890515 0.00510655909)
(0.03914772011 -0.001033446534 0.005129255844)
(0.03928086826 -0.001472028239 0.005162013601)
(0.03948975045 -0.001966758441 0.005178363547)
(0.03983506214 -0.002545077345 0.005177972924)
(0.03951449962 0.001054892995 0.005007166856)
(0.03944569467 0.000622805718 0.005012043793)
(0.03941437818 0.0002060259152 0.005015528169)
(0.03941437753 -0.0002060231977 0.005015528489)
(0.03944569256 -0.0006228030864 0.005012044852)
(0.03951449795 -0.00105489133 0.005007168863)
(0.03963539727 -0.001513688072 0.005005239806)
(0.03983804523 -0.002023594405 0.005006279937)
(0.04017719187 -0.002605613808 0.005011664578)
(0.03876075838 0.001057850956 0.004072172877)
(0.03869349586 0.0006237650661 0.004071683406)
(0.03866334809 0.0002061875296 0.004071952772)
(0.03866334764 -0.0002061849871 0.004071953068)
(0.03869349429 -0.0006237623367 0.004071684486)
(0.03876075716 -0.001057849396 0.004072174836)
(0.03888130199 -0.001521107793 0.004075264511)
(0.03908558918 -0.002035101663 0.004080363078)
(0.03942798409 -0.002615229302 0.004088124605)
(0.03783453316 0.001065455017 0.003293649115)
(0.03776670207 0.000629361015 0.003293935726)
(0.03773649877 0.0002082289945 0.003294552579)
(0.03773649842 -0.0002082266497 0.003294552988)
(0.03776670099 -0.0006293584687 0.003293936867)
(0.03783453269 -0.001065453798 0.003293651092)
(0.03795702307 -0.001528805875 0.003295372067)
(0.03816563505 -0.002040357817 0.003300127458)
(0.03851586992 -0.002614277089 0.003308227897)
(0.01419714604 0.0005700638213 0.0006332183581)
(0.01413228881 0.0003405622563 0.0006326253297)
(0.01410260768 0.000113309021 0.0006325022332)
(0.01410260699 -0.0001133101031 0.0006325021695)
(0.01413228655 -0.0003405631371 0.0006326252773)
(0.01419714262 -0.0005700647488 0.00063321792)
(0.01430869523 -0.0008041224864 0.0006349571681)
(0.01448446413 -0.00104650384 0.0006392111496)
(0.01474548563 -0.001297798238 0.0006464094487)
(0.03159032271 0.001023931691 0.003610295387)
(0.03148836856 0.0006068156751 0.003611321635)
(0.03144196824 0.0002011222378 0.003612397257)
(0.03144196758 -0.000201121238 0.003612397327)
(0.03148836657 -0.0006068143669 0.003611321659)
(0.0315903202 -0.001023929997 0.003610295494)
(0.03176815266 -0.001462971716 0.003611546202)
(0.03205576435 -0.001938784087 0.003618679128)
(0.03249730138 -0.00246253581 0.003636674522)
(0.03911264793 0.001179037821 0.004766764948)
(0.03900572066 0.000697287999 0.004771224757)
(0.03895713974 0.0002308925482 0.004773804229)
(0.03895713909 -0.0002308907784 0.004773804554)
(0.03900571883 -0.000697286327 0.00477122574)
(0.03911264551 -0.001179035829 0.004766766934)
(0.03930105668 -0.001691582175 0.00475983206)
(0.03960132316 -0.002252271494 0.00475807572)
(0.04005858166 -0.002871396358 0.00476936582)
(0.04061610897 0.001241555761 0.004951855965)
(0.04051318893 0.0007368312405 0.004952180608)
(0.040465831 0.0002444095273 0.004952789034)
(0.04046583032 -0.0002444095239 0.00495278968)
(0.04051318709 -0.0007368311515 0.004952182836)
(0.04061610621 -0.001241555648 0.004951859861)
(0.04079345699 -0.001770756104 0.004952793052)
(0.04107675383 -0.002344712884 0.004956652994)
(0.0415213785 -0.002977683056 0.004969081241)
(0.04024485033 0.001258355539 0.004389541526)
(0.04015087243 0.0007468421302 0.004391115058)
(0.04010841476 0.0002476913909 0.004392470455)
(0.04010841401 -0.0002476920091 0.004392471285)
(0.04015087035 -0.0007468423796 0.004391117593)
(0.04024484717 -0.001258356537 0.004389546008)
(0.04041072694 -0.001793006779 0.004389523054)
(0.04068454615 -0.002368775521 0.004392940784)
(0.04112602028 -0.00299839505 0.004402986374)
(0.03932385392 0.001272727846 0.003680072154)
(0.03923304054 0.0007566279704 0.003681889058)
(0.03919249664 0.0002511342648 0.003683394601)
(0.03919249594 -0.0002511349485 0.003683395583)
(0.0392330387 -0.0007566280643 0.00368189176)
(0.03932385156 -0.001272728872 0.003680076972)
(0.03948661421 -0.001808804836 0.003679811803)
(0.0397599009 -0.002381354043 0.003682780586)
(0.04020616232 -0.003002156335 0.003690192536)
(0.01236589908 0.0005733468082 0.0003301383808)
(0.01229983679 0.0003465770057 0.000331117161)
(0.01226919763 0.0001159796855 0.0003318043423)
(0.01226919754 -0.0001159835285 0.0003318042942)
(0.01229983605 -0.0003465807351 0.0003311172309)
(0.0123658981 -0.0005733502648 0.0003301385442)
(0.01247687377 -0.0007944416354 0.000329780771)
(0.0126457021 -0.001009788858 0.0003321757786)
(0.01288400571 -0.001216993347 0.0003384975329)
(0.02972252473 0.001120252958 0.002678079747)
(0.02959930511 0.0006695496055 0.0026813107)
(0.02954275327 0.000222807358 0.002683878653)
(0.02954275318 -0.0002228069094 0.002683878951)
(0.0295993049 -0.0006695488994 0.002681311461)
(0.02972252494 -0.001120252052 0.002678080617)
(0.02993344557 -0.001578852905 0.002678723804)
(0.03026308224 -0.002053162421 0.002690953658)
(0.03074431771 -0.002546822557 0.002722158849)
(0.03865148038 0.001317065807 0.004217176846)
(0.038530118 0.0007821887619 0.004231676873)
(0.03847571497 0.0002593928326 0.004239952802)
(0.03847571464 -0.0002593898266 0.004239953353)
(0.03853011707 -0.0007821862107 0.004231678457)
(0.03865147941 -0.001317063133 0.004217178652)
(0.03886643801 -0.001873212762 0.004201113692)
(0.03921709655 -0.00245944275 0.004200899056)
(0.03974601591 -0.003078507857 0.004227557002)
(0.04134973491 0.001393998015 0.004746150777)
(0.04122909114 0.0008297496094 0.004749046727)
(0.04117432118 0.0002755216462 0.00475086133)
(0.04117432047 -0.0002755196803 0.004750861839)
(0.04122908868 -0.0008297481426 0.004749048556)
(0.04134973166 -0.001393996213 0.004746153519)
(0.04156066141 -0.001977598096 0.004744103904)
(0.04190045338 -0.002593900662 0.004748987263)
(0.04242078696 -0.003246154936 0.004770243125)
(0.04148034345 0.001431412096 0.0044834932)
(0.04136784812 0.0008541087883 0.00449009839)
(0.04131734895 0.0002839818735 0.004494059676)
(0.04131734787 -0.0002839799825 0.004494060231)
(0.04136784461 -0.0008541071294 0.004490100195)
(0.04148033884 -0.001431410512 0.004483496832)
(0.04168012769 -0.002022907912 0.00447715488)
(0.0420085065 -0.002640663998 0.004476485751)
(0.04252190359 -0.003286727796 0.004488059962)
(0.040799966 0.001456237454 0.003980045215)
(0.04069424197 0.0008710078151 0.003987986175)
(0.04064747775 0.0002899680509 0.00399266443)
(0.04064747658 -0.0002899648881 0.00399266512)
(0.04069423835 -0.000871004476 0.003987988034)
(0.04079996091 -0.001456234629 0.003980049295)
(0.04099134396 -0.002050700143 0.003971603863)
(0.04131241769 -0.002664545494 0.003966400853)
(0.04182243818 -0.003298884973 0.003967533104)
(0.01123120976 0.0007812242883 0.0001785258804)
(0.01113448252 0.0005730390269 0.0001791153023)
(0.01107612114 0.0003501138169 0.0001800387916)
(0.01104888707 0.0001177836954 0.0001806402703)
(0.01104888771 -0.0001177915794 0.0001806401655)
(0.01107612283 -0.0003501219157 0.0001800391906)
(0.01113448436 -0.0005730472972 0.0001791161706)
(0.01123121193 -0.0007812306748 0.0001785266351)
(0.01137434935 -0.0009711740306 0.000179737289)
(0.01156577205 -0.001137992182 0.0001839022698)
(0.02826765538 0.001654886084 0.002013420624)
(0.02804478441 0.001189572621 0.002011244828)
(0.02791175813 0.0007171877066 0.002013550188)
(0.02784997297 0.0002397017889 0.002015708471)
(0.02784997391 -0.0002397058036 0.002015708698)
(0.02791176067 -0.0007171916782 0.002013551202)
(0.02804478763 -0.001189577904 0.002011245906)
(0.02826765897 -0.001654891328 0.002013421591)
(0.02860358926 -0.002113681604 0.002027476239)
(0.02906591226 -0.002559427936 0.002061225091)
(0.03813245337 0.002026922914 0.003669203339)
(0.03788397634 0.001441192238 0.003677450683)
(0.03773878368 0.0008626156301 0.003688642421)
(0.03767193752 0.0002872787587 0.003695720068)
(0.03767193815 -0.0002872720651 0.003695720273)
(0.03773878534 -0.0008626102745 0.003688642909)
(0.03788397863 -0.001441189491 0.003677450838)
(0.03813245521 -0.002026921888 0.003669203283)
(0.0385198242 -0.002623460098 0.003677708851)
(0.0390732007 -0.003222844906 0.003715075967)
(0.04196822465 0.002172980283 0.00449592985)
(0.04173242641 0.001544944626 0.004504241534)
(0.04159561687 0.0009252399263 0.004514679905)
(0.04153254426 0.0003082701072 0.004521884552)
(0.0415325444 -0.0003082571913 0.004521884092)
(0.04159561721 -0.0009252283625 0.00451467896)
(0.04173242634 -0.001544936355 0.004504240763)
(0.04196822334 -0.002172974967 0.004495928896)
(0.04234423836 -0.002815418694 0.004499543325)
(0.04289887513 -0.003461720812 0.004526306842)
(0.04274272653 0.002244592928 0.004513531439)
(0.04252598494 0.001602458888 0.004528234601)
(0.04240393696 0.0009619718982 0.004542542546)
(0.04234919523 0.0003208883141 0.004551427828)
(0.04234919481 -0.0003208724302 0.004551427299)
(0.04240393561 -0.0009619571449 0.004542541344)
(0.04252598245 -0.001602447856 0.004528233225)
(0.04274272274 -0.002244585637 0.004513530167)
(0.04309734233 -0.00289224112 0.004506924659)
(0.04363366447 -0.003534215546 0.004516127005)
(0.04238935464 0.002286530371 0.004204754947)
(0.04218937358 0.001638438111 0.004224611362)
(0.04208042051 0.0009857806312 0.004241309192)
(0.04203288129 0.0003291596635 0.004250946106)
(0.04203288075 -0.0003291421465 0.004250945597)
(0.04208041854 -0.0009857642096 0.004241307781)
(0.04218937017 -0.001638425099 0.004224609397)
(0.04238934976 -0.002286522 0.004204753814)
(0.04272546249 -0.00293222484 0.004187055617)
(0.04324493762 -0.003561751007 0.004177586289)
(0.01057122726 0.001078515883 0.0001177171015)
(0.01044193636 0.0009469453355 0.0001152759509)
(0.01033933433 0.0007797358095 0.0001159396629)
(0.01026940875 0.0005813945222 0.0001176114912)
(0.01022774449 0.0003589425247 0.0001191645135)
(0.01020864268 0.0001213548203 0.0001200266579)
(0.01020864363 -0.0001213666359 0.0001200266428)
(0.01022774729 -0.0003589551095 0.0001191650576)
(0.01026941252 -0.0005814070577 0.0001176125022)
(0.01033933851 -0.0007797483456 0.0001159405921)
(0.01044193808 -0.0009469576154 0.0001152767796)
(0.01057122716 -0.001078524234 0.0001177181257)
(0.02751166472 0.002532229501 0.001621179712)
(0.02712029126 0.002144854528 0.001591962151)
(0.02681837747 0.001714809782 0.00158287507)
(0.02661323324 0.001250950868 0.001584714261)
(0.02649012866 0.0007613191779 0.001589635189)
(0.02643316201 0.0002555684725 0.001592833875)
(0.02643316354 -0.0002555870041 0.001592834367)
(0.02649013267 -0.0007613378295 0.00158963653)
(0.02661323883 -0.001250969638 0.001584716256)
(0.02681838372 -0.001714828425 0.001582876705)
(0.0271202954 -0.002144871234 0.001591963987)
(0.027511666 -0.002532240725 0.001621181717)
(0.03817160434 0.003321358628 0.003291611939)
(0.03764692557 0.002761488303 0.00325283023)
(0.0372595075 0.002171898357 0.003245387014)
(0.03700509954 0.001564116221 0.00325550034)
(0.03685677575 0.0009431866463 0.00326868014)
(0.03678981055 0.0003149992563 0.003276639326)
(0.03678981205 -0.000315004201 0.00327663974)
(0.03685677991 -0.0009431934716 0.003268680938)
(0.03700510594 -0.001564124967 0.00325550093)
(0.03725951504 -0.002171908606 0.003245387036)
(0.03764693156 -0.002761498498 0.003252830007)
(0.03817160757 -0.003321365131 0.003291611074)
(0.04300158977 0.003654346141 0.004300629437)
(0.04246429436 0.003030103427 0.004280853751)
(0.04207878209 0.002376258107 0.004284667157)
(0.04183426539 0.00170708249 0.004303100313)
(0.04169842475 0.001026562523 0.004322276237)
(0.04163646799 0.000343298573 0.004329394951)
(0.04163646993 -0.0003432895944 0.004329395509)
(0.04169842777 -0.001026555751 0.004322274779)
(0.04183427109 -0.001707078929 0.004303098147)
(0.04207878906 -0.00237625847 0.004284664682)
(0.04246429971 -0.003030106583 0.004280850015)
(0.04300159301 -0.003654347817 0.00430062483)
(0.04445616628 0.003790082388 0.004551244989)
(0.04393086591 0.003157409366 0.004557510975)
(0.04357202105 0.002486907591 0.004583328343)
(0.04335219032 0.001793707914 0.004615598033)
(0.04323258708 0.001083522712 0.004643631214)
(0.04318118252 0.0003624121375 0.004659456756)
(0.04318118386 -0.000362394252 0.004659455809)
(0.04323259048 -0.001083506899 0.004643628273)
(0.04335219534 -0.001793696001 0.004615593904)
(0.04357202684 -0.002486900998 0.004583323411)
(0.04393087007 -0.003157407616 0.004557506133)
(0.04445616923 -0.003790080506 0.004551239206)
(0.04359703413 0.002564418001 0.004446541226)
(0.04340369555 0.001860223524 0.004485310199)
(0.04330263957 0.001128130952 0.004517479852)
(0.04326074558 0.000378149566 0.004535082389)
(0.04326074683 -0.0003781280331 0.00453508141)
(0.04330264286 -0.001128111345 0.004517476408)
(0.04340370011 -0.001860208355 0.004485304928)
(0.04359703879 -0.002564407492 0.004446534301)
(0.04392650009 -0.003231999535 0.00441005418)
(0.04442478977 -0.00385175257 0.004379238659)
(0.009756182533 0.001048069199 9.446598204e-05)
(0.009700989106 0.0009489945583 9.457284967e-05)
(0.009649467128 0.0007993545181 9.751018437e-05)
(0.009615486592 0.0006055399558 0.0001007043711)
(0.009597091847 0.0003776359879 0.0001032066438)
(0.009589546289 0.0001283159847 0.0001045290921)
(0.009589546642 -0.0001283286511 0.0001045289445)
(0.009597092939 -0.000377649505 0.0001032067237)
(0.009615488191 -0.0006055539121 0.0001007049514)
(0.009649468423 -0.000799368727 9.751085434e-05)
(0.009700990106 -0.0009490088078 9.457369606e-05)
(0.009756182698 -0.001048080125 9.446681259e-05)
(0.02605169819 0.002479315324 0.001342431572)
(0.0257824105 0.002163569365 0.001326823773)
(0.02555174484 0.001770734224 0.001330599257)
(0.02539223054 0.0013128502 0.001342198427)
(0.02529716415 0.0008073734777 0.001353864385)
(0.02525376744 0.0002724480128 0.00136082602)
(0.02525376815 -0.0002724831709 0.001360826589)
(0.02529716587 -0.000807408113 0.001353866165)
(0.02539223237 -0.001312883651 0.001342201192)
(0.02555174616 -0.001770764915 0.001330602616)
(0.02578241099 -0.002163595567 0.001326828097)
(0.02605169654 -0.002479333641 0.001342436628)
(0.03709839223 0.003364756828 0.002952426337)
(0.03666691922 0.002869919784 0.002929291184)
(0.03632294434 0.002305366292 0.002938202729)
(0.03609288318 0.001684609882 0.002961335606)
(0.03595759196 0.001026484255 0.002983515782)
(0.03589601316 0.0003449588633 0.002995762592)
(0.03589601472 -0.0003449926217 0.00299576361)
(0.03595759608 -0.001026518095 0.002983518434)
(0.03609288825 -0.001684642971 0.002961339303)
(0.03632295003 -0.002305395825 0.002938207612)
(0.0366669244 -0.002869943916 0.002929297034)
(0.03709839472 -0.003364772665 0.00295243348)
(0.04278664025 0.003815195395 0.004099937543)
(0.04231466617 0.00323414563 0.004098438787)
(0.04195639501 0.002583489577 0.004125139536)
(0.0417265406 0.001879197289 0.004162881)
(0.04158542961 0.001145426628 0.004198277254)
(0.0415173513 0.0003851521685 0.004224563416)
(0.04151735569 -0.0003851759187 0.004224562365)
(0.04158544003 -0.001145448047 0.004198278404)
(0.04172655047 -0.001879218328 0.00416288359)
(0.0419564052 -0.002583509096 0.004125143211)
(0.04231467575 -0.003234161456 0.004098442481)
(0.04278664431 -0.003815204791 0.004099941162)
(0.0449438537 0.004032080349 0.004576656487)
(0.04450539112 0.003432640364 0.004617992316)
(0.04418547473 0.002749087952 0.004673818337)
(0.04399414836 0.002004250937 0.004730021523)
(0.04389323098 0.001218798021 0.004776122837)
(0.04384947107 0.0004089209026 0.004803341477)
(0.0438494747 -0.0004089299801 0.00480334115)
(0.0438932395 -0.001218807452 0.004776122868)
(0.0439941593 -0.002004261114 0.004730022683)
(0.04418548689 -0.002749098503 0.004673819583)
(0.04450540257 -0.003432649757 0.004617995676)
(0.04494386087 -0.004032085317 0.004576660283)
(0.04472314044 0.002880334929 0.004716086239)
(0.04458178685 0.002112261209 0.004785944022)
(0.04451822845 0.001288924175 0.004843010148)
(0.04449528215 0.0004330963815 0.004876052271)
(0.04449528567 -0.0004330988441 0.004876052221)
(0.04451823758 -0.001288926851 0.004843010553)
(0.04458179921 -0.002112265207 0.004785945107)
(0.04472315334 -0.002880338486 0.004716087358)
(0.04498482142 -0.003567454164 0.004642527625)
(0.04536448383 -0.004156323639 0.00457096384)
(0.009033347129 0.001065078479 8.969061959e-05)
(0.009052299071 0.0009921773475 9.413406578e-05)
(0.00905674259 0.0008528359731 9.987506252e-05)
(0.009063053371 0.0006555980263 0.0001056637062)
(0.009070974862 0.0004127972085 0.0001100086103)
(0.009076401049 0.0001409655152 0.0001123863248)
(0.009076400332 -0.000140974603 0.0001123859842)
(0.009070972759 -0.0004128070419 0.0001100080807)
(0.009063050137 -0.0006556086887 0.0001056634593)
(0.00905673826 -0.0008528474905 9.987497485e-05)
(0.009052294268 -0.0009921895332 9.41342927e-05)
(0.009033342576 -0.001065088593 8.9691087e-05)
(0.02464507751 0.002438423423 0.001183962258)
(0.02452997669 0.002206536962 0.001196935892)
(0.02439610872 0.001848439775 0.001224401674)
(0.02430099024 0.001395202853 0.001255387463)
(0.02424582272 0.000868229602 0.00128140596)
(0.02422146886 0.0002948073856 0.001296622926)
(0.02422146776 -0.0002948486622 0.001296623071)
(0.02424581893 -0.0008682695359 0.001281407057)
(0.02430098315 -0.001395240442 0.00125538991)
(0.02439609861 -0.001848473498 0.001224405399)
(0.02452996443 -0.002206565388 0.001196941162)
(0.02464506415 -0.002438443633 0.001183968769)
(0.03585467537 0.003366654776 0.002717625138)
(0.03558990968 0.002970025758 0.002740416368)
(0.03533101118 0.002441891703 0.002789908185)
(0.03515218822 0.001816517745 0.002847061636)
(0.03504742665 0.00112028757 0.002896625151)
(0.03499948757 0.0003789747171 0.002926118436)
(0.03499948754 -0.0003790351908 0.002926118983)
(0.03504742579 -0.001120345663 0.002896627795)
(0.03515218529 -0.001816571256 0.002847067591)
(0.03533100612 -0.002441937354 0.002789917711)
(0.03558990239 -0.002970061523 0.002740428779)
(0.03585466538 -0.003366678094 0.002717639652)
(0.04222209224 0.003930879205 0.003972531712)
(0.04190488518 0.003434271484 0.004021761672)
(0.04161863638 0.002803773386 0.004102671269)
(0.04143108828 0.00207347154 0.004189734688)
(0.0413311604 0.001271563344 0.004261529047)
(0.04128467402 0.0004288983437 0.004307118643)
(0.04128467605 -0.0004289572512 0.0043071182)
(0.04133116395 -0.001271619831 0.004261532276)
(0.04143109177 -0.002073523258 0.004189743284)
(0.04161863913 -0.002803816503 0.004102684586)
(0.04190488617 -0.003434304244 0.004021778229)
(0.04222209126 -0.003930898853 0.003972551804)
(0.04502016678 0.004268429531 0.004675298674)
(0.04477901793 0.003736571055 0.004768064639)
(0.04454640588 0.003055910121 0.004886620463)
(0.04440528212 0.002261979502 0.005004909912)
(0.04433637325 0.001389407299 0.00509863154)
(0.04430946121 0.000468609124 0.00515113726)
(0.04430946443 -0.000468661781 0.005151139142)
(0.04433638129 -0.001389456969 0.005098637559)
(0.04440529176 -0.002262023732 0.005004921105)
(0.04454641458 -0.003055946891 0.004886635485)
(0.04477902422 -0.003736596835 0.004768085043)
(0.04502017102 -0.004268441262 0.004675320094)
(0.04562700136 0.003260279942 0.005164256603)
(0.04555806898 0.002426482601 0.005310868718)
(0.04554304702 0.001495717283 0.005425255223)
(0.04554574725 0.000505295325 0.005488278473)
(0.04554575035 -0.0005053404558 0.005488281056)
(0.04554305526 -0.001495759591 0.005425263427)
(0.04555807996 -0.002426520744 0.005310883033)
(0.04562701298 -0.003260309543 0.005164275937)
(0.0457798154 -0.003959229085 0.005007090336)
(0.04595844892 -0.004467131271 0.004853241182)
(0.00834138878 0.001145253429 9.162471011e-05)
(0.008426995259 0.001088646232 0.0001013036549)
(0.008486667506 0.0009502062974 0.0001112231312)
(0.00853453244 0.0007383149005 0.0001201439989)
(0.008570260638 0.0004680561375 0.0001265896611)
(0.008589559055 0.0001603586377 0.0001300124024)
(0.008589557408 -0.0001603605249 0.0001300120805)
(0.008570255819 -0.0004680590551 0.0001265891697)
(0.008534524975 -0.0007383194062 0.0001201432783)
(0.008486657933 -0.0009502125235 0.0001112223513)
(0.008426984922 -0.001088653812 0.0001013029289)
(0.008341378909 -0.001145260843 9.162426152e-05)
(0.02325044258 0.002478358616 0.001124344463)
(0.02328378128 0.002306326229 0.001179503856)
(0.02326432234 0.001976054264 0.001240929322)
(0.02324831149 0.001515699824 0.001299282743)
(0.02324369501 0.0009531095319 0.001344415449)
(0.02324404172 0.0003252850465 0.001369322788)
(0.02324403818 -0.0003253156009 0.001369323037)
(0.02324368411 -0.0009531393605 0.001344416456)
(0.02324829358 -0.001515728443 0.00129928473)
(0.02326429867 -0.001976080538 0.001240932224)
(0.02328375423 -0.00230634857 0.001179507689)
(0.02325041463 -0.002478376072 0.001124348955)
(0.03446231285 0.003386123949 0.002619683872)
(0.03438790033 0.00309194203 0.002716865665)
(0.0342578745 0.002600846812 0.002830866025)
(0.03416297374 0.001969711372 0.00294005171)
(0.03410986259 0.001228867298 0.003026800868)
(0.03408719215 0.0004179087806 0.003076075158)
(0.03408718905 -0.0004179748689 0.003076076044)
(0.03410985247 -0.001228930601 0.003026804519)
(0.03416295636 -0.001969768985 0.002940059078)
(0.03425785093 -0.002600895609 0.002830876844)
(0.03438787305 -0.00309198009 0.002716879084)
(0.03446228341 -0.003386149255 0.002619699171)
(0.04133493616 0.004031799815 0.00397050767)
(0.04122846017 0.003642780178 0.004112832973)
(0.04107816252 0.003037019223 0.004276630812)
(0.04097953331 0.002283913223 0.004432786904)
(0.04093169961 0.001418089151 0.004557892494)
(0.04091815131 0.0004806942669 0.004626512618)
(0.04091814892 -0.0004807782848 0.004626514715)
(0.04093169319 -0.001418168886 0.004557899597)