/*--------------------------------*- C++ -*----------------------------------*\
  =========                 |
  \\      /  F ield         | OpenFOAM: The Open Source CFD Toolbox
   \\    /   O peration     | Website:  https://openfoam.org
    \\  /    A nd           | Version:  7
     \\/     M anipulation  |
\*---------------------------------------------------------------------------*/
FoamFile
{
    version     2.0;
    format      ascii;
    class       volScalarField;
    location    "0.00188";
    object      Uz;
}
// * * * * * * * * * * * * * * * * * * * * * * * * * * * * * * * * * * * * * //

dimensions      [0 1 -1 0 0 0 0];

internalField   nonuniform List<scalar> 
5000
(
0
0
0
0
0
-2.3744346e-17
-5.0643049e-32
7.1298451e-17
2.377124e-17
-4.7548473e-17
-4.7550601e-17
2.3775523e-17
-2.0271569e-31
-2.0946478e-31
4.7544085e-17
-4.7540806e-17
-7.2345572e-50
-2.093938e-31
-2.376299e-17
4.7521138e-17
2.3757694e-17
0
0
-2.3749139e-17
2.0246294e-31
-1.9567848e-31
-2.3735092e-17
2.3728901e-17
2.3721271e-17
-2.3713182e-17
4.1432842e-31
-2.0203225e-31
-2.3684865e-17
2.3676163e-17
2.3668407e-17
0
0
-2.3658129e-17
-2.3658865e-17
2.3662074e-17
-3.968522e-31
-2.3671179e-17
2.3675765e-17
-4.0045377e-31
-2.3683166e-17
2.3685274e-17
-8.1455485e-31
8.1117491e-31
-8.1447705e-31
4.0383666e-31
2.3678097e-17
0
0
0
0
0
0
0
0
0
0
0
0
-2.3627633e-17
-2.3623354e-17
2.361955e-17
-4.0606803e-31
-1.0372654e-49
2.360722e-17
0
0
-2.3595227e-17
-2.3591206e-17
0
2.3583201e-17
8.1424444e-31
-2.3575159e-17
-2.3571117e-17
2.3567135e-17
4.7126252e-17
-4.7118343e-17
1.3389574e-32
7.0653703e-17
-4.7094486e-17
-2.4490521e-30
4.7078516e-17
-7.0605797e-17
2.3531249e-17
2.3527256e-17
-2.3523245e-17
2.3519262e-17
2.3515269e-17
8.1858378e-31
-4.7014694e-17
-1.6265977e-30
-2.3499473e-17
-2.3495552e-17
-8.2457432e-31
1.6355209e-30
4.6967373e-17
2.3479716e-17
-2.347571e-17
3.3355316e-33
2.34677e-17
0
-2.3459704e-17
-8.1664883e-31
2.3451764e-17
-2.3447832e-17
-2.3443894e-17
4.6879973e-17
2.3436062e-17
-7.0296462e-17
-2.3428217e-17
7.0272877e-17
-2.3420339e-17
-2.3416408e-17
-1.3308442e-32
-2.3408543e-17
7.0213854e-17
-1.636118e-30
-4.6793638e-17
4.6785857e-17
2.3389018e-17
-2.3385105e-17
2.3381174e-17
-2.3377238e-17
-4.6746594e-17
2.3369361e-17
8.068641e-31
2.3361523e-17
4.6715246e-17
-2.3353721e-17
-2.3349822e-17
-2.3345908e-17
-8.1268867e-31
-8.0923536e-31
8.1241546e-31
4.6660452e-17
2.3326325e-17
-2.3322425e-17
-4.6637071e-17
-2.3314634e-17
-2.3310731e-17
1.6163033e-30
4.6605778e-17
-6.6219618e-33
6.620847e-33
8.6631748e-49
2.3287179e-17
-1.6146679e-30
3.2420179e-30
2.3275238e-17
-2.3271182e-17
2.3267073e-17
8.066302e-31
-2.325875e-17
2.3254548e-17
-3.304068e-33
-2.324606e-17
0
2.3237471e-17
1.6078924e-30
-4.6457581e-17
2.322443e-17
-6.5995474e-33
-2.3215793e-17
2.3211584e-17
-2.3207489e-17
2.3203562e-17
-9.6664865e-30
-6.4345515e-30
2.3192944e-17
-4.6379674e-17
0
-1.6078044e-30
-4.8228965e-30
2.3179494e-17
2.3177394e-17
1.5973157e-30
-2.3173744e-17
2.3172176e-17
1.5936957e-30
9.8777091e-33
3.2100743e-30
-4.6333546e-17
2.3165376e-17
2.3163887e-17
-1.5931137e-30
1.5962865e-30
-4.8148056e-30
1.5993146e-30
-2.3154645e-17
0
0
0
0
-2.314213e-17
4.8239024e-30
2.3136128e-17
2.3132938e-17
-2.3129665e-17
-2.3126318e-17
4.6245862e-17
1.6000276e-30
-4.7993617e-30
-2.3112494e-17
-2.3108935e-17
2.3105335e-17
0
2.309807e-17
1.5982914e-30
-2.3090707e-17
-2.3086996e-17
3.2147239e-30
2.307958e-17
-4.6151828e-17
2.3072291e-17
2.3068674e-17
-2.3065053e-17
2.3061388e-17
0
0
0
2.3046541e-17
-2.304286e-17
-4.6078364e-17
2.3035517e-17
-1.6005079e-30
2.3028196e-17
2.3024555e-17
-4.6041883e-17
6.5419177e-33
-6.5408899e-33
2.3010065e-17
2.3006407e-17
-4.6005466e-17
3.2683654e-33
-4.7906643e-30
2.2991814e-17
-1.2766728e-29
-3.1879142e-30
2.2980953e-17
-2.2977332e-17
0
-2.2970112e-17
2.2966522e-17
2.2962948e-17
-2.2959361e-17
0
-2.2952157e-17
2.2948549e-17
2.294494e-17
-7.9645779e-30
-4.5875562e-17
-4.5868444e-17
6.8791951e-17
4.5854156e-17
0
-4.5839834e-17
-2.2916353e-17
2.2912821e-17
2.2909298e-17
2.2905786e-17
-4.5804509e-17
-4.5797432e-17
2.289516e-17
4.5783235e-17
6.3490605e-30
-4.5769165e-17
2.2881085e-17
-3.1730756e-30
-2.2874087e-17
4.5741147e-17
-2.2867043e-17
3.1841208e-30
2.2860022e-17
-2.2856545e-17
2.2853071e-17
-4.5699216e-17
9.5321051e-30
4.5685284e-17
-4.5678282e-17
-1.580384e-30
2.2832171e-17
0
0
2.2821833e-17
-2.2818384e-17
-4.5629864e-17
2.2811459e-17
-6.4824212e-33
2.2804522e-17
2.2801073e-17
-2.279763e-17
0
-2.2790755e-17
-2.27873e-17
0
4.5560651e-17
2.2776816e-17
-4.5546608e-17
1.5758257e-30
-6.4705643e-33
2.2762749e-17
2.2759206e-17
-2.2755637e-17
2.2752037e-17
-2.2748408e-17
1.2928898e-32
4.5482193e-17
-2.2737432e-17
-2.2733772e-17
-2.273012e-17
-3.1521158e-30
2.2722849e-17
0
0
-2.2712101e-17
3.1528627e-30
-6.3015404e-30
-3.1551379e-30
2.2698405e-17
-2.2695117e-17
3.224712e-33
2.2688749e-17
0
0
0
0
0
0
0
-2.2667725e-17
0
2.2663304e-17
0
-2.2659117e-17
-6.2849897e-30
2.2655155e-17
0
0
-2.2649353e-17
-3.1443627e-30
2.2645354e-17
0
0
-2.2638992e-17
-2.263675e-17
2.2634426e-17
2.2632006e-17
0
-2.2626831e-17
3.2150734e-33
2.2621188e-17
-2.2618195e-17
-2.261509e-17
2.2611875e-17
2.2608545e-17
0
-2.260153e-17
-2.2597836e-17
2.2594016e-17
2.2590073e-17
0
-2.2581847e-17
-2.2577581e-17
2.2573218e-17
2.2568759e-17
0
0
0
0
0
0
0
0
-2.2523864e-17
-2.9011053e-48
2.2512726e-17
0
0
0
-2.2489069e-17
-3.1183291e-30
2.2476578e-17
-2.2470158e-17
3.1188499e-30
-3.1913253e-33
-3.1169827e-30
2.2443261e-17
-2.2436226e-17
2.242906e-17
-1.2458525e-29
-2.2414316e-17
2.2406734e-17
0
0
-2.2383184e-17
-3.1065558e-30
2.2366816e-17
-2.2358418e-17
-2.2349871e-17
0
2.2332334e-17
2.2323347e-17
-2.2314216e-17
-6.1904671e-30
1.4913115e-48
-3.0941775e-30
2.2276168e-17
-2.2266264e-17
-6.4549432e-48
-3.0886344e-30
-2.223562e-17
0
0
2.2203547e-17
3.1537488e-33
-9.22953e-30
2.2170052e-17
0
0
-2.213523e-17
6.133773e-30
2.211124e-17
0
0
0
-2.2061348e-17
3.1332823e-33
2.2035545e-17
-2.2022441e-17
2.2009199e-17
-6.1140528e-30
-4.3964601e-17
2.1968647e-17
9.1446418e-30
3.0462815e-30
-3.0443307e-30
-2.1912709e-17
0
0
2.1869398e-17
3.0343108e-30
-6.0614114e-30
6.3904349e-49
-2.1810019e-17
2.1794893e-17
2.177966e-17
0
-2.174888e-17
-3.0174571e-30
2.171768e-17
0
0
-2.1670068e-17
6.1544348e-33
7.0116108e-49
-2.1621564e-17
2.160521e-17
-2.9912486e-30
2.9950872e-30
-5.98249e-30
-2.1538838e-17
2.1522016e-17
-5.9715399e-30
5.9698725e-30
-5.9651236e-30
-2.1453828e-17
2.1436561e-17
-5.9476907e-30
2.9775103e-30
0
-2.1366765e-17
2.1349136e-17
-2.9616573e-30
3.0288537e-33
-2.9567146e-30
2.957256e-30
2.1260034e-17
-2.1242079e-17
-2.122409e-17
2.1206073e-17
2.1188031e-17
0
-2.1151907e-17
-2.1133842e-17
0
2.1097744e-17
-2.9267096e-30
2.9930509e-33
2.9187258e-30
-2.102583e-17
2.1007949e-17
2.9112871e-30
-5.8236084e-30
-2.0954677e-17
-2.0937067e-17
4.1839081e-17
-2.9703675e-33
2.896673e-30
2.0867511e-17
-2.0850366e-17
2.8925e-30
2.0816393e-17
0
0
0
-2.0749798e-17
-2.0733447e-17
2.071722e-17
2.070112e-17
0
-2.0669305e-17
-2.0653592e-17
2.0638009e-17
2.0622556e-17
0
-2.0592045e-17
-2.0576989e-17
2.0562067e-17
5.7055709e-30
-2.053263e-17
0
0
0
0
2.0461345e-17
-5.6720444e-30
-2.0433732e-17
2.042013e-17
2.8332629e-30
-2.8343111e-30
5.6210556e-49
2.0367093e-17
2.035416e-17
-4.0682709e-17
-2.8224352e-30
2.8178075e-30
-2.0303747e-17
0
2.0279368e-17
2.0267382e-17
-2.0255527e-17
-5.615548e-30
2.0232215e-17
0
0
-2.0198287e-17
2.7999318e-30
2.0176376e-17
0
-2.0154996e-17
2.8627055e-33
-5.5908489e-30
-2.7911451e-30
2.0113832e-17
-2.0103899e-17
2.8555451e-33
-5.5770568e-30
-2.0074958e-17
2.0065584e-17
5.569247e-30
2.8488835e-33
-2.7821142e-30
-2.0029445e-17
2.0020768e-17
0
-1.1106501e-29
-2.7733502e-30
-8.3166811e-30
-2.8392661e-33
-1.9971746e-17
1.9964076e-17
1.1690058e-48
-2.7697427e-30
5.5374737e-30
-2.7677506e-30
3.9855704e-17
-1.9921031e-17
-1.9914354e-17
-2.7640032e-30
2.7631169e-30
3.9790411e-17
-1.9889121e-17
-1.9883185e-17
2.0905697e-49
0
1.9516855e-49
-1.9860899e-17
1.9855685e-17
1.7485637e-49
-2.7525548e-30
-2.8195596e-33
-1.9836237e-17
3.9663459e-17
5.5056639e-30
-1.9823132e-17
2.7488591e-30
-2.7483085e-30
1.981122e-17
-1.9807502e-17
-4.1657641e-49
-8.2500991e-30
5.5000761e-30
-5.4935562e-30
-5.4955086e-30
7.508352e-50
0
1.9782202e-17
0
0
-1.9774612e-17
-5.49037e-30
1.9770059e-17
0
0
-3.952806e-17
-1.645151e-29
3.9521117e-17
-1.9758979e-17
2.8077101e-33
-2.7429424e-30
-1.9754871e-17
0
0
0
-1.9751033e-17
-5.478678e-30
1.9749891e-17
0
0
-1.9749253e-17
2.806551e-33
1.9749593e-17
0
0
-1.9751351e-17
-5.4792085e-30
-5.4879495e-30
5.4855192e-30
1.9756386e-17
-1.9758178e-17
5.4842057e-30
-5.4848308e-30
5.4827129e-30
1.976767e-17
0
0
-1.9777373e-17
6.3334008e-48
1.9785159e-17
0
0
-1.9798872e-17
5.1129214e-48
1.9809402e-17
0
0
-1.9827326e-17
6.2030577e-48
1.9840677e-17
0
0
-1.986282e-17
2.8238073e-33
1.9879022e-17
-1.9887547e-17
5.527647e-30
-5.5301666e-30
5.5299305e-30
1.9924357e-17
0
0
0
0
0
-1.9987468e-17
5.5504452e-30
2.0010511e-17
0
0
0
0
0
0
0
-2.0112058e-17
1.1171321e-29
2.0139654e-17
0
0
0
0
0
0
0
-2.0257853e-17
5.6266525e-30
2.0289211e-17
0
0
-2.0337464e-17
5.6547544e-30
2.0370404e-17
0
0
0
-2.0437959e-17
-5.682903e-30
2.0472525e-17
0
0
0
0
0
0
0
-2.0615258e-17
2.9322032e-33
2.0651921e-17
0
0
0
0
0
0
0
-2.0801567e-17
-2.9587789e-33
2.0839595e-17
0
0
0
-2.0916171e-17
1.1623715e-29
2.0954666e-17
0
-2.0993253e-17
-5.8377581e-30
2.1031892e-17
0
0
-2.1089883e-17
-2.1109206e-17
2.1128516e-17
2.1147805e-17
0
0
0
0
2.1243794e-17
-3.0216345e-33
-4.2563746e-17
-2.1300818e-17
4.2639388e-17
4.2676991e-17
-2.1357219e-17
-2.1375859e-17
0
0
0
0
-2.1467537e-17
-5.9691566e-30
2.1503389e-17
0
0
0
0
0
0
0
0
0
0
0
0
0
0
-2.1751532e-17
1.2088253e-29
2.1781265e-17
0
0
2.1824163e-17
-6.063977e-30
3.1052984e-33
-2.1864958e-17
-2.1878084e-17
-1.2154261e-29
6.0853086e-30
2.1916e-17
0
0
0
0
0
-2.1985248e-17
1.2212546e-29
2.2006396e-17
0
0
0
0
0
0
0
-2.2081715e-17
1.2261697e-29
2.2098318e-17
0
0
0
0
0
0
0
-2.2156611e-17
1.8456402e-29
2.2169275e-17
0
0
0
0
0
0
0
0
-2.2217458e-17
3.1579309e-33
2.2226328e-17
0
0
0
0
-2.2245622e-17
2.224901e-17
2.2252309e-17
-4.4510976e-17
-6.1807331e-30
2.2261205e-17
0
0
0
0
-2.2272972e-17
6.1821778e-30
4.4553425e-17
-2.2277954e-17
-2.2279063e-17
2.2280251e-17
0
0
0
-2.2285674e-17
-6.1819024e-30
2.2285124e-17
2.2285173e-17
-2.2285879e-17
-2.2287354e-17
2.2288873e-17
0
0
-2.2286348e-17
-2.2284988e-17
2.2284447e-17
2.2284871e-17
2.2285991e-17
1.2377247e-29
-2.2286651e-17
0
0
0
-2.2280747e-17
-2.2279507e-17
2.2278444e-17
2.2277516e-17
2.2276714e-17
6.1824594e-30
-2.2275671e-17
0
0
0
-2.2275649e-17
6.181877e-30
2.2271406e-17
0
0
0
0
0
0
0
-2.2258123e-17
6.176988e-30
4.4509419e-17
6.1792871e-30
-2.2251925e-17
0
0
-2.2246679e-17
3.1611485e-33
-6.1763914e-30
6.1728528e-30
2.2240505e-17
2.2239494e-17
-6.175003e-30
-2.2235568e-17
0
0
-2.2229399e-17
1.8510598e-29
6.1688109e-30
-3.1584251e-33
2.2223683e-17
-2.2221788e-17
-2.2219862e-17
4.443567e-17
-1.2325039e-29
-2.2213237e-17
2.2210929e-17
0
-2.2207568e-17
-6.1694567e-30
2.2205017e-17
0
-2.2199499e-17
2.2196626e-17
-2.4645475e-29
-2.219289e-17
2.2191379e-17
0
-2.218566e-17
0
2.2179181e-17
0
-2.2176749e-17
2.2175981e-17
-1.2301791e-29
-2.2170284e-17
2.2166892e-17
0
-2.2163021e-17
-6.1540517e-30
2.2161464e-17
0
-2.2156344e-17
2.2153487e-17
-6.2957345e-33
-2.2149253e-17
2.2147457e-17
0
-2.2143671e-17
-2.2141877e-17
2.2140348e-17
2.2138865e-17
-2.2136973e-17
2.2134537e-17
2.2131865e-17
-2.2129449e-17
0
0
0
0
0
0
-2.2115648e-17
-4.684991e-50
4.4221894e-17
-2.2109281e-17
-2.2108026e-17
2.2106918e-17
0
0
-2.2099579e-17
-2.2096357e-17
2.2093523e-17
2.2091318e-17
0
-2.2088635e-17
-6.1364436e-30
2.2086348e-17
0
0
-2.2079475e-17
-2.2076345e-17
2.2072978e-17
2.2069628e-17
0
-2.2064176e-17
6.126263e-30
2.2060847e-17
-2.2059313e-17
-1.2249688e-29
-3.134141e-33
-2.2051664e-17
2.204859e-17
2.2045429e-17
0
0
-2.2037506e-17
6.1157859e-30
2.203435e-17
0
-2.2028798e-17
-2.2024727e-17
2.2020584e-17
2.2017063e-17
0
0
0
0
0
0
-2.2002709e-17
6.1055639e-30
2.1995514e-17
0
0
0
0
0
0
-2.1982895e-17
-8.1540745e-50
2.1976262e-17
2.1973263e-17
6.09458e-30
-2.1968554e-17
0
0
0
0
-2.1961265e-17
-6.0941589e-30
2.1954316e-17
-2.1951214e-17
-2.1949143e-17
2.1948266e-17
-1.2182966e-29
-1.8277491e-29
-1.8270196e-29
6.0966619e-30
-1.2185397e-29
6.0887037e-30
2.1935427e-17
0
-2.1931458e-17
1.8259485e-29
-3.11638e-33
-2.1928684e-17
2.1927165e-17
2.1925069e-17
-2.1922761e-17
6.0837851e-30
-1.824342e-29
-1.2168422e-29
-1.215785e-29
6.0782425e-30
-1.216134e-29
-2.1907203e-17
2.1905571e-17
2.1904445e-17
-2.190327e-17
6.0753041e-30
-2.4310463e-29
-6.0767702e-30
6.0791742e-30
6.07245e-30
6.075261e-30
-2.1888989e-17
0
2.1885104e-17
-6.073094e-30
-3.3128277e-49
2.1875721e-17
0
-2.1871633e-17
2.1870713e-17
2.1870261e-17
-2.1869283e-17
0
0
0
0
-2.1858069e-17
6.0658138e-30
-1.2133213e-29
2.1849929e-17
2.1846877e-17
-2.184446e-17
0
0
0
0
-2.1837599e-17
-3.1029146e-33
2.1831959e-17
0
0
0
0
0
0
0
-2.18197e-17
-2.1817427e-17
2.1815545e-17
2.1813841e-17
0
0
0
0
0
0
-2.1799709e-17
-2.1799039e-17
2.1797296e-17
2.1794778e-17
0
0
0
0
0
0
-2.1781754e-17
-2.1781233e-17
2.1780926e-17
2.1779808e-17
0
0
0
0
0
0
-2.1761363e-17
1.2082146e-29
2.1760884e-17
0
0
0
0
0
0
-2.1745322e-17
6.0375421e-30
2.1740552e-17
0
0
0
0
-2.1731675e-17
-3.0879834e-33
2.1727927e-17
-2.1726271e-17
1.3725884e-50
2.1723394e-17
-2.1721704e-17
1.2062245e-29
2.1717483e-17
-2.1715335e-17
-1.205566e-29
-1.205469e-29
3.6738561e-50
-1.2049833e-29
-6.021394e-30
2.1705277e-17
-2.1703663e-17
-2.1701953e-17
4.3400197e-17
-1.2037948e-29
-4.3392366e-17
0
2.1692702e-17
-6.0231955e-30
-6.025811e-30
-1.8054227e-29
-1.8055516e-29
-1.2029698e-29
1.8052338e-29
-1.2031085e-29
6.0229171e-30
2.1677406e-17
0
-2.167229e-17
-3.0794696e-33
-1.8038072e-29
-1.8040384e-29
3.0789946e-33
1.2025751e-29
-6.0152332e-30
-2.1659261e-17
0
2.1654224e-17
-1.2019024e-29
-3.0769502e-33
2.1651095e-17
0
-2.1647212e-17
2.1645144e-17
2.1643257e-17
-2.1641348e-17
0
0
-2.1632599e-17
2.4014806e-29
-1.1998255e-29
1.200648e-29
-6.0075565e-30
2.162284e-17
2.1621219e-17
-2.1618915e-17
0
0
0
0
-2.1608358e-17
-5.999282e-30
-2.3980711e-29
2.1597977e-17
2.1595606e-17
-2.1594288e-17
0
0
0
0
-2.1585353e-17
-2.1583554e-17
2.1581973e-17
2.1579936e-17
0
0
0
0
0
0
-2.156413e-17
-2.1562585e-17
2.1560345e-17
2.1558194e-17
0
0
0
0
0
0
-2.1540865e-17
1.7936795e-29
4.3076695e-17
-2.1538196e-17
-6.4612884e-17
-2.1536066e-17
0
4.3063515e-17
-2.3907654e-29
-7.1693636e-29
-2.1526944e-17
-4.3049341e-17
4.3043152e-17
-2.1518188e-17
-2.1515463e-17
2.1514025e-17
-2.1514213e-17
3.0574889e-33
2.1514899e-17
2.151248e-17
-2.1508814e-17
-2.1505455e-17
2.1503268e-17
-2.1502423e-17
-3.0556873e-33
2.1502324e-17
0
0
0
4.298468e-17
-2.1490741e-17
-4.2980203e-17
2.1489913e-17
-2.1489081e-17
-2.1486951e-17
4.2967943e-17
5.3774624e-49
-2.1479104e-17
2.1478074e-17
4.2955491e-17
2.1477115e-17
-6.4425312e-17
2.1472051e-17
7.8927188e-48
-6.4400966e-17
4.2931681e-17
2.1465579e-17
2.1465491e-17
4.2928766e-17
-4.2924178e-17
-2.1459272e-17
-2.1456619e-17
2.1454631e-17
2.1453397e-17
-6.4358613e-17
2.1452291e-17
2.1450551e-17
-2.1447765e-17
-2.1444867e-17
-3.0471906e-33
6.4324433e-17
-2.1441153e-17
3.5697835e-29
-3.5707526e-29
-6.4310232e-17
2.1433838e-17
2.1431396e-17
4.2859582e-17
-2.1429135e-17
-4.2858326e-17
4.2857719e-17
-2.1427228e-17
2.1424467e-17
2.142154e-17
-6.4257924e-17
2.1418032e-17
2.141762e-17
-4.2834104e-17
-2.141521e-17
2.1412583e-17
6.4230416e-17
-2.1408391e-17
-8.5629531e-17
1.1882343e-29
4.2811577e-17
2.1404318e-17
0
4.2801141e-17
4.7505895e-29
-6.419198e-17
2.1395861e-17
-4.750184e-29
2.1392542e-17
2.1390708e-17
-4.2777969e-17
0
0
0
-2.1382298e-17
1.187075e-29
4.2757106e-17
-2.1376916e-17
-4.275038e-17
6.4119766e-17
-7.1176067e-29
-4.2738843e-17
2.1367766e-17
0
0
0
4.2719085e-17
-2.1357733e-17
-4.2712242e-17
6.4062548e-17
-6.0684977e-33
-4.269795e-17
0
0
-2.1343676e-17
1.1849064e-29
4.2676657e-17
-2.1335567e-17
-4.2666875e-17
6.3995595e-17
-3.5513323e-29
-4.2654838e-17
2.1324612e-17
-2.1322159e-17
4.2640159e-17
2.131796e-17
-7.0984282e-29
-2.131284e-17
-4.2620451e-17
6.3923316e-17
-1.2110678e-32
-2.1302742e-17
1.1823122e-29
-2.1297258e-17
-2.1294621e-17
1.1818732e-29
6.3868773e-17
-6.0501277e-33
-6.3852841e-17
4.2563027e-17
2.7255409e-48
-4.2552506e-17
2.1273811e-17
-2.1271384e-17
4.2537808e-17
2.1266331e-17
-4.7217851e-29
-2.1260962e-17
-4.2516503e-17
-2.1255575e-17
-2.1252945e-17
6.3751038e-17
0
-2.1245195e-17
-1.1791297e-29
1.1789916e-29
-1.1785508e-29
2.1235132e-17
-2.3571394e-29
2.1230111e-17
-7.0698007e-29
-6.367603e-17
4.2445751e-17
6.3661073e-17
2.121792e-17
-6.3646865e-17
-4.2426747e-17
6.3633209e-17
-2.1208723e-17
-6.3619224e-17
0
0
2.1199633e-17
2.119742e-17
0
-2.1193353e-17
-2.1191372e-17
4.2378587e-17
-4.7041922e-29
-6.35551e-17
2.3516342e-29
2.1181033e-17
2.1179108e-17
2.1177173e-17
-2.1175205e-17
-2.1173207e-17
2.1171198e-17
6.3507605e-17
-2.1167239e-17
-8.4661289e-17
2.1163454e-17
4.2323259e-17
2.1159844e-17
0
-2.1156364e-17
0
-2.1152957e-17
2.1151269e-17
-4.6958511e-29
2.1147906e-17
-7.0426572e-29
-6.3433652e-17
2.1142887e-17
2.1141227e-17
-2.1139556e-17
-2.1137876e-17
2.1136211e-17
6.3403705e-17
-2.1132919e-17
-8.4524904e-17
3.5191451e-29
2.1127825e-17
4.2252409e-17
2.1124572e-17
-4.2245677e-17
-1.172377e-29
-3.0012235e-33
2.1117574e-17
-4.6883973e-29
-2.1114334e-17
6.3337118e-17
-2.3435684e-29
-4.2217009e-17
0
0
-2.1103615e-17
1.1712879e-29
4.2198231e-17
-2.109713e-17
-4.2191034e-17
-2.1094179e-17
2.3410137e-29
6.3272069e-17
2.1088177e-17
-2.1085651e-17
4.2166815e-17
-1.1983415e-32
-7.0210304e-29
-2.1077295e-17
-4.2149747e-17
6.3217471e-17
-2.3397334e-29
-4.2137424e-17
0
0
4.2126188e-17
-4.6760847e-29
-2.337154e-29
-5.9842701e-33
-6.3157739e-17
-4.2099955e-17
3.5055032e-29
6.3136436e-17
2.1043405e-17
-2.1041049e-17
4.2076603e-17
2.3346545e-29
-7.004284e-29
-2.1030477e-17
-4.2056825e-17
6.3079128e-17
-2.1023991e-17
-2.1021212e-17
2.1018232e-17
-2.1015246e-17
4.2024749e-17
-2.3323865e-29
-2.100686e-17
-2.9848519e-33
-4.200234e-17
4.1996861e-17
-3.4956939e-29
-4.1986737e-17
2.0990662e-17
0
-2.0984333e-17
-1.1643248e-29
6.2935985e-17
-2.0976303e-17
-4.1947861e-17
-2.0971168e-17
-2.0968068e-17
2.096484e-17
2.0961625e-17
2.09585e-17
-2.0955488e-17
1.1630267e-29
-1.1625697e-29
2.0946839e-17
-2.3256933e-29
2.0941051e-17
-6.973341e-29
-6.2805345e-17
4.1864277e-17
5.5658684e-49
-2.0926326e-17
-2.3225247e-29
1.1615468e-29
6.275271e-17
-2.0914538e-17
-6.2734494e-17
0
0
2.0902392e-17
2.0899352e-17
4.1792783e-17
-2.0893542e-17
-4.1781464e-17
4.177568e-17
-2.088481e-17
-6.2645139e-17
2.0878689e-17
2.0875825e-17
2.0873102e-17
2.0870378e-17
-4.1735088e-17
-2.08646e-17
2.0861596e-17
6.2575814e-17
-2.0855664e-17
-7.2658922e-48
-3.4713989e-29
-4.1694289e-17
4.1688725e-17
4.1683193e-17
-2.0838844e-17
-4.1672206e-17
4.1666744e-17
2.0830653e-17
-6.2483852e-17
-6.2475809e-17
2.0822616e-17
4.1639979e-17
2.0817385e-17
-1.1553792e-29
-4.1624429e-17
-2.0809655e-17
2.0807127e-17
4.1609266e-17
-2.9561653e-33
-4.1599421e-17
4.1594547e-17
-3.4634095e-29
-4.1584954e-17
2.0790115e-17
4.1575544e-17
4.15709e-17
0
-2.0780881e-17
-6.233582e-17
-2.0776319e-17
2.0774036e-17
0
0
0
0
-2.0763239e-17
1.1523986e-29
6.2277121e-17
-2.075708e-17
-6.2265183e-17
-2.0752838e-17
3.4560236e-29
4.1496688e-17
2.0746458e-17
-2.0744782e-17
4.1485864e-17
2.0740587e-17
-6.9072898e-29
-2.0735588e-17
-4.146702e-17
6.2195158e-17
-5.8918384e-33
-2.0728394e-17
2.9454252e-33
-2.0724628e-17
-2.0722588e-17
2.3002979e-29
6.2155878e-17
-5.8880317e-33
-6.2143676e-17
-4.1424578e-17
1.1489763e-29
4.1416025e-17
2.0706257e-17
-2.0704407e-17
4.1404129e-17
2.0699393e-17
-6.8923815e-29
-2.0694465e-17
-4.1384967e-17
6.2072082e-17
-2.2973623e-29
-2.0686642e-17
-2.0684203e-17
-2.068172e-17
-1.1472684e-29
1.1474242e-29
4.1348263e-17
1.147122e-29
-4.1336992e-17
4.133148e-17
-1.0323196e-28
-6.1980939e-17
4.1314792e-17
-2.2935281e-29
-4.1302188e-17
2.0647862e-17
2.0644641e-17
4.1282895e-17
-2.0638301e-17
-6.1905215e-17
0
0
0
6.1860242e-17
6.1848446e-17
-6.1836615e-17
-6.1824786e-17
4.1208484e-17
-5.8548721e-33
2.0595512e-17
-6.8588616e-29
-6.1758236e-17
6.174375e-17
-1.0281057e-28
-4.114288e-17
-1.141301e-29
1.1415963e-29
4.1111512e-17
-2.0550073e-17
2.0544239e-17
-6.8413552e-29
-6.1596726e-17
6.1578336e-17
2.051989e-17
-4.5546129e-29
4.1013554e-17
-4.0999697e-17
-2.0492716e-17
-2.0485408e-17
-6.1433833e-17
2.2725216e-29
2.0462669e-17
6.136428e-17
-1.3619285e-28
-6.1314418e-17
0
2.0420524e-17
4.0822755e-17
-2.0402066e-17
2.0392611e-17
-6.7884494e-29
-4.0745962e-17
6.1088151e-17
-4.5182193e-29
-2.2593495e-29
-2.2569567e-29
-2.2556957e-29
2.0307262e-17
-6.0886467e-17
-6.0850149e-17
2.027093e-17
4.051627e-17
0
-2.0231468e-17
2.2438942e-29
-4.4858238e-29
2.2413251e-29
2.0174687e-17
-2.0159632e-17
-2.014419e-17
6.0384944e-17
7.8736103e-47
-3.346902e-29
2.007838e-17
-2.2259512e-29
4.0087001e-17
-4.0050833e-17
-4.001378e-17
-1.9987858e-17
2.2165022e-29
1.9948333e-17
0
0
0
3.9729571e-17
-1.9842731e-17
-3.9640218e-17
5.9390646e-17
-1.9773139e-17
-5.924703e-17
5.9173607e-17
-6.5608595e-29
-3.9348132e-17
5.8943992e-17
3.9242582e-17
0
-3.9131704e-17
-6.5062872e-29
-1.9508569e-17
-3.8958447e-17
1.9449228e-17
0
3.8774655e-17
5.5010859e-33
2.145081e-29
-1.9289093e-17
-5.7766189e-17
5.766347e-17
-3.1965756e-29
-5.7451741e-17
5.7342663e-17
-9.5318675e-29
-3.8077714e-17
1.9000217e-17
-1.8961207e-17
3.7843295e-17
1.8881297e-17
-8.3662059e-29
-1.8798382e-17
-3.7511069e-17
-1.8711764e-17
-1.8667406e-17
3.7245414e-17
1.8577471e-17
0
-1.8484497e-17
1.0236467e-29
9.2818588e-48
1.8338332e-17
-5.1977437e-33
1.8237244e-17
1.1664499e-46
-5.4401824e-17
5.4243039e-17
5.4081933e-17
-3.5944902e-17
-3.5832887e-17
0
3.5605722e-17
-1.7745557e-17
-5.3061873e-17
5.2884468e-17
-2.9260154e-29
-3.5014308e-17
1.7444779e-17
0
-1.7318512e-17
-1.7255098e-17
1.7190709e-17
-2.8517547e-29
3.411831e-17
9.6587604e-33
-5.0769944e-17
0
5.0353871e-17
3.3430195e-17
-4.9933929e-17
-3.3146295e-17
4.9502837e-17
1.6427738e-17
-6.5413101e-17
-1.6278026e-17
3.2405462e-17
3.2254803e-17
-1.7819301e-29
-1.5974002e-17
-1.5896136e-17
-1.5817429e-17
1.5737533e-17
-1.7381427e-29
3.1151941e-17
-5.1606435e-29
-4.6242542e-17
0
0
3.0329192e-17
-3.3485484e-29
-1.4994523e-17
4.472931e-17
-1.4824501e-17
-2.453813e-29
-4.8794661e-29
-4.3691079e-17
1.4475752e-17
-7.9837493e-30
1.5872083e-29
1.4207634e-17
-1.4118438e-17
1.9936323e-33
-7.7369415e-30
1.5370777e-29
1.3755789e-17
0
-1.3571337e-17
2.6958128e-17
1.3386587e-17
-2.6587313e-17
0
1.310675e-17
-1.3012826e-17
-2.5837204e-17
3.8472361e-17
-4.2402505e-29
-4.2080489e-29
1.2540402e-17
-3.7336677e-17
1.7551158e-33
1.225498e-17
1.2158882e-17
-1.2063024e-17
-1.1967986e-17
1.1873138e-17
0
-1.1682001e-17
2.3172261e-17
-1.9136732e-29
-1.1394055e-17
-2.5089813e-29
-2.4872338e-29
-3.1571906e-33
-2.2026064e-17
3.2753347e-17
3.2467727e-17
0
-2.126533e-17
-3.1614262e-17
-1.4841579e-33
1.0349798e-17
1.025592e-17
-1.0162309e-17
-1.0068738e-17
9.9749321e-18
0
1.9578563e-17
1.9395467e-17
-2.8817885e-17
-9.5142401e-18
9.4228011e-18
-2.6521204e-33
-9.2402466e-18
-1.8300664e-17
-9.0612141e-18
1.4943095e-29
3.5532225e-17
-2.9289765e-29
-2.6119077e-17
8.6186492e-18
8.5315398e-18
8.4450164e-18
-8.3590473e-18
-8.2735998e-18
-8.1886084e-18
-2.3033375e-33
8.0201664e-18
-7.9363225e-18
2.3558771e-17
1.5541771e-17
-2.3069785e-17
7.6090322e-18
1.5056814e-17
-1.4896861e-17
7.368715e-18
-7.2894575e-18
-1.4423052e-17
2.1404381e-17
-7.0582921e-18
2.3257298e-29
2.0719384e-17
-1.3663046e-17
-6.7572057e-18
-6.6836591e-18
-1.3221757e-17
6.5388225e-18
2.2973663e-73
1.2793541e-17
6.3266816e-18
-6.9465767e-30
-6.188382e-18
-1.2239753e-17
1.2105369e-17
-5.9868321e-18
-1.7763904e-17
1.75681e-17
5.7915468e-18
-3.3003071e-46
5.6645132e-18
-1.6806755e-17
-5.5410519e-18
5.480482e-18
1.084082e-17
-5.3610461e-18
5.3024182e-18
-1.7466742e-29
-1.0374408e-17
1.5390835e-17
5.6363603e-30
-2.2295083e-29
1.1024882e-29
-9.8247311e-18
9.7186504e-18
-4.8070997e-18
-1.902236e-17
4.7047402e-18
9.3089568e-18
0
9.1137186e-18
-1.0011861e-29
-2.5362893e-33
-4.9015474e-30
-4.3693019e-18
-4.3240751e-18
4.2795423e-18
4.2356816e-18
-8.3848354e-18
8.2993688e-18
-4.5602199e-30
-8.1338068e-18
8.0533649e-18
1.3277512e-29
-4.3820942e-30
-3.9085919e-18
-7.7410492e-18
3.8331076e-18
-3.7963026e-18
2.087144e-30
3.7245113e-18
7.3790215e-18
-3.6551018e-18
-7.2425652e-18
3.5880303e-18
-3.5552689e-18
5.867746e-30
-3.4916901e-18
-7.6862464e-30
6.8611671e-18
6.8015137e-18
7.4845965e-30
-1.1132912e-29
1.103826e-29
-3.2864044e-18
-3.2592665e-18
-3.2323605e-18
3.2058826e-18
0
0
-3.1294316e-18
1.7233922e-30
4.3778064e-34
3.3938118e-30
3.033935e-18
0
-2.9882453e-18
-5.9329895e-18
2.9452333e-18
5.8480078e-18
5.8061327e-18
5.7652251e-18
-8.5874936e-18
-9.467121e-30
8.4694527e-18
-5.6091316e-18
-5.5728557e-18
0
-2.750618e-18
5.4669187e-18
2.7165231e-18
-5.3996082e-18
-2.6834898e-18
2.9612712e-30
7.954986e-18
-2.6359364e-18
-7.8603072e-18
7.8140192e-18
2.5896871e-18
-7.724229e-18
2.8416798e-30
2.546024e-18
5.0647464e-18
2.7955134e-30
-5.011177e-18
4.9856626e-18
-2.4802648e-18
-7.4033186e-18
0
2.4432581e-18
4.8626902e-18
-1.3435876e-30
2.4073193e-18
4.7913105e-18
-4.7685192e-18
-4.7459445e-18
0
-2.3507809e-18
-2.5977021e-30
-2.5862252e-30
-2.5746149e-30
6.9291162e-18
4.6019433e-18
0
-4.5681813e-18
-5.0494922e-30
-2.2640614e-18
-6.7611827e-18
2.2443183e-18
-1.2408023e-30
3.1668542e-34
2.2199851e-18
4.421743e-18
-2.2030668e-18
-4.3911107e-18
2.1871783e-18
0
4.3363302e-18
-2.1589341e-18
-6.4511884e-18
2.1424636e-18
2.134918e-18
4.25515e-18
-2.1203352e-18
-6.3394863e-18
2.106041e-18
-2.329855e-30
-4.1837067e-18
2.0847163e-18
2.0775203e-18
4.1405496e-18
6.1890477e-18
-4.1115927e-18
-4.097343e-18
4.0833737e-18
2.2584356e-30
-4.0564443e-18
4.0434519e-18
2.2373339e-30
-4.0180224e-18
0
3.9926092e-18
3.9796951e-18
0
-5.9300669e-18
-1.9700373e-18
-5.5802963e-34
-1.9567967e-18
-1.9502849e-18
-2.1574468e-30
3.8751586e-18
3.8627661e-18
-6.4120338e-30
-3.8384527e-18
3.826453e-18
6.3520354e-30
-3.8026157e-18
0
0
0
0
3.7435563e-18
2.0719739e-30
-3.7200925e-18
-1.8541809e-18
3.6966166e-18
-6.1371622e-30
-3.6730596e-18
3.6612502e-18
2.0262297e-30
-1.8188058e-18
3.6258066e-18
-6.0192062e-30
-3.6022827e-18
3.5905796e-18
3.5789207e-18
-3.5673054e-18
-3.5557304e-18
0
0
0
0
-1.7491387e-18
1.7434181e-18
1.7377017e-18
-1.9227703e-30
1.2339145e-74
-1.7205681e-18
-3.4297192e-18
-1.7091516e-18
3.4068873e-18
5.0932072e-18
-1.6920278e-18
-3.3726398e-18
5.0418358e-18
3.3498071e-18
-5.0075824e-18
-3.3269655e-18
-1.6577684e-18
-1.8340266e-30
3.2926529e-18
0
-1.634858e-18
1.6291103e-18
-3.6043351e-30
-4.5974469e-34
-5.3675779e-30
-1.6060101e-18
-1.6002066e-18
4.5315347e-34
3.1771341e-18
3.1654654e-18
-5.2513141e-30
-3.1420787e-18
0
0
0
-1.5475549e-18
-1.541662e-18
1.5357607e-18
1.5298513e-18
-1.5239339e-18
3.0360172e-18
4.5362277e-18
0
-3.0003853e-18
-1.6584146e-30
-1.4882966e-18
-4.4470471e-18
1.4764051e-18
-2.4486638e-30
2.9290789e-18
-9.7165933e-30
-2.9054474e-18
-8.0310767e-31
-2.0477624e-34
1.4351534e-18
-1.4293528e-18
2.8471732e-18
1.4178582e-18
-2.8243415e-18
2.813054e-18
3.9816806e-34
-1.54948e-30
-1.389879e-18
-4.1532823e-18
2.7580478e-18
5.1321739e-49
1.3683499e-18
-2.2702108e-30
-2.7156455e-18
1.3525991e-18
2.6947822e-18
-1.4896515e-30
-4.0109377e-18
3.7850659e-34
1.3264931e-18
-1.321191e-18
2.6316657e-18
1.3104055e-18
-2.6097912e-18
2.5985821e-18
1.4357048e-30
-7.1484135e-30
2.8463935e-30
-2.5515118e-18
2.5391329e-18
-1.2632508e-18
-2.5136222e-18
1.2502526e-18
-1.2435831e-18
2.4736263e-18
-2.0485048e-30
-3.6690646e-18
0
0
3.6057652e-18
1.1948439e-18
-2.3755457e-18
2.361451e-18
6.6718103e-34
-5.181133e-30
-1.2876346e-30
-2.3061183e-18
2.2926645e-18
2.2793995e-18
-1.1331674e-18
-3.3802152e-18
-1.1204135e-18
1.1141916e-18
0
0
-1.0961135e-18
6.0518117e-31
3.2534976e-18
3.0661361e-34
-2.1463249e-18
-1.0675749e-18
1.178712e-30
3.169551e-18
2.3336058e-30
-2.0911189e-18
0
-1.0346345e-18
2.0583297e-18
1.023682e-18
-2.2609609e-30
-1.0126575e-18
-2.0142142e-18
1.0015262e-18
0
0
0
0
-9.730952e-19
5.3692409e-31
2.8843918e-18
-9.555928e-19
-2.8490593e-18
2.8312407e-18
9.377759e-19
-1.8635491e-18
-9.2574383e-19
-1.5313554e-30
2.7408054e-18
-5.1585116e-34
-3.00222e-30
-8.9522042e-19
-1.778112e-18
-8.8287524e-19
-9.729985e-31
8.7047103e-19
8.6425125e-19
8.5802204e-19
8.5178471e-19
-1.8773564e-30
-1.6785791e-18
0
0
-8.2051046e-19
-1.3557891e-30
-1.1482088e-34
1.1393039e-34
7.954473e-19
1.578362e-18
1.5658315e-18
-1.5533048e-18
-8.5568979e-31
-7.64134e-19
-2.2736377e-18
0
0
7.3913312e-19
7.3289211e-19
0
-7.204245e-19
3.9643394e-31
7.079748e-19
-7.0175607e-19
1.3910837e-18
-2.2957918e-30
-2.0493861e-18
6.7692993e-19
6.7073577e-19
1.3290914e-18
-6.5835969e-19
-1.9565339e-18
6.4600077e-19
-3.5524421e-31
1.2673201e-18
6.2749551e-19
-1.2426683e-18
1.2303519e-18
9.4787558e-48
-1.2057388e-18
0
0
1.1688664e-18
-6.413349e-31
-1.9058567e-30
9.4521005e-48
-1.6796451e-18
-6.1482431e-31
5.4761816e-19
1.0829772e-18
1.0707201e-18
-1.058465e-18
-1.1614541e-30
-5.1698078e-19
-1.7016778e-30
5.0473479e-19
-9.9722627e-19
0
-4.8637112e-19
5.3301519e-31
4.7413228e-19
9.3602956e-19
5.1264598e-31
-9.1156451e-19
0
0
-4.374367e-19
2.3941729e-31
1.2756346e-18
4.652654e-31
-8.2598073e-19
0
4.0077103e-19
-3.9466242e-19
-3.8855497e-19
-3.8244878e-19
-3.7634362e-19
7.4047831e-19
1.0924055e-18
-3.5803167e-19
-7.0385796e-19
1.0374824e-18
2.3493074e-48
-6.6725656e-19
0
0
0
0
6.0628692e-19
5.9409813e-19
-2.9095605e-19
-8.5459313e-19
-3.096398e-31
2.7268427e-19
-5.331911e-19
-5.2101536e-19
2.5442077e-19
9.9333982e-19
4.845008e-19
-7.0850182e-19
-4.6017138e-19
6.7201696e-19
4.8380233e-31
-4.2369924e-19
0
0
0
3.7510181e-19
2.0147055e-31
-3.8951638e-31
1.6934435e-19
-4.8983665e-19
1.5721482e-19
1.511523e-19
-4.3527502e-19
-2.7806662e-19
1.329774e-19
2.5384774e-19
2.4174505e-19
-3.8247896e-31
1.2078883e-31
-2.9197956e-35
-1.93378e-19
0
-8.4613399e-20
-7.8579935e-20
7.2549246e-20
6.652136e-20
-6.0496465e-20
-5.4474851e-20
9.6913597e-20
4.2442485e-20
-3.6431963e-20
3.0425253e-20
-2.4422664e-20
-3.6852457e-20
0
0
1.8944717e-21
-5.2432445e-21
2.2770104e-20
1.7562444e-20
2.3528377e-20
-5.887139e-20
3.9271025e-32
8.257537e-20
0
-5.3144461e-20
-1.7721424e-19
-1.4431154e-31
3.9384422e-31
-1.5378206e-19