-1.25 	300.0000000000639 	0.0001834522034693456 	101325.0314159245
-1.247497497497497 	299.9602553291697 	0.000177988366550445 	101325.0475769278
-1.244994994994995 	300.0027236065808 	0.0003548682452504001 	101325.0334162568
-1.242492492492492 	300.0000933702883 	0.0005144802319823251 	101325.0477862678
-1.23998998998999 	300.0000299908807 	0.0006587289008016886 	101325.0346994159
-1.237487487487487 	300.0000393981069 	0.0007811860113175525 	101325.0465564646
-1.234984984984985 	300.0000298781806 	0.000887615699912076 	101325.0353362644
-1.232482482482482 	300.000036947386 	0.0009690978108551518 	101325.0436612782
-1.22997997997998 	300.0000298338138 	0.001033791297566169 	101325.0352905129
-1.227477477477477 	300.0000348401857 	0.001050090335467297 	101325.0411669269
-1.224974974974975 	300.0000311507704 	0.001028030042723812 	101325.0368533106
-1.222472472472472 	300.0000328350149 	0.0009853629974169219 	101325.0387991757
-1.21996996996997 	300.0000304675156 	0.0009396549188519343 	101325.0360377469
-1.217467467467467 	300.0000321415736 	0.0008803763608705192 	101325.037978641
-1.214964964964965 	300.0000312706941 	0.0008278930525725727 	101325.0369895269
-1.212462462462462 	300.0000330034709 	0.000758679821946943 	101325.0389946402
-1.20995995995996 	300.0000328149297 	0.0007028498836096426 	101325.0388137347
-1.207457457457457 	300.0000341304972 	0.0006301812909853808 	101325.040329515
-1.204954954954955 	300.0000335212935 	0.0005724037594003804 	101325.039654079
-1.202452452452452 	300.0000341750633 	0.000500809494627018 	101325.0403825938
-1.19994994994995 	300.0000328520586 	0.0004426528027127613 	101325.0388571378
-1.197447447447447 	300.0000330647591 	0.0003731823652361853 	101325.0390659798
-1.194944944944945 	300.0000316984118 	0.0003168114579266108 	101325.037491227
-1.192442442442442 	300.0000318537428 	0.0002482280991008947 	101325.037636736
-1.18993993993994 	300.0000312287357 	0.0001958676936102452 	101325.0369439612
-1.187437437437437 	300.0000315178173 	0.0001282219773260084 	101325.0372447416
-1.184934934934935 	300.0000315461055 	8.134780484765753e-05 	101325.0373171878
-1.182432432432432 	300.0000318007952 	0.0001170064043952468 	101325.0375744019
-1.17992992992993 	300.0000319065711 	6.56272041514904e-05 	101325.0377377226
-1.177427427427427 	300.00003186616 	0.0001198905010874036 	101325.037651331
-1.174924924924925 	300.0000318580125 	0.0001172228915821832 	101325.0376796089
-1.172422422422422 	300.0000315283054 	0.0001694759669116292 	101325.0372526159
-1.16991991991992 	300.0000316319712 	0.0001962320838305792 	101325.0374124907
-1.167417417417417 	300.0000312196707 	0.0002415635285308417 	101325.036893674
-1.164914914914915 	300.0000316284934 	0.000258581358314477 	101325.0374081763
-1.162412412412412 	300.0000312991098 	0.0002956838296564314 	101325.0369871471
-1.15990990990991 	300.0000318901125 	0.0003006198111247263 	101325.0377161553
-1.157407407407407 	300.0000315948942 	0.0003250862206356323 	101325.0373378275
-1.154904904904904 	300.00003182216 	0.0003107290257935942 	101325.0376348946
-1.152402402402403 	300.0000316251509 	0.0003166467669860028 	101325.037375172
-1.1498998998999 	300.0000314931699 	0.0002927753021444877 	101325.0372463503
-1.147397397397397 	300.0000310853195 	0.0002954762912062256 	101325.0367377167
-1.144894894894895 	300.0000307495453 	0.0002702036452517147 	101325.0363645508
-1.142392392392392 	300.0000303214421 	0.0002724827708215682 	101325.0358322307
-1.13988988988989 	300.0000300535278 	0.0002465306891100547 	101325.0355395314
-1.137387387387387 	300.0000298553026 	0.0002501609906643718 	101325.0352821111
-1.134884884884885 	300.0000298327187 	0.0002236002369878787 	101325.0352771714
-1.132382382382382 	300.0000299144654 	0.0002295468996916052 	101325.0353537877
-1.12987987987988 	300.0000300761445 	0.0002027237312719708 	101325.0355705552
-1.127377377377377 	300.0000302859223 	0.0002110833329405867 	101325.0357946322
-1.124874874874875 	300.0000304636621 	0.0001845677172834912 	101325.036024696
-1.122372372372372 	300.0000306127395 	0.0001949471326403834 	101325.036182473
-1.11986986986987 	300.0000306843654 	0.0001690729903363296 	101325.0362848428
-1.117367367367367 	300.0000307068748 	0.000180986007532249 	101325.0362923369
-1.114864864864865 	300.0000306638025 	0.0001556249739659489 	101325.036258904
-1.112362362362362 	300.0000305806148 	0.0001686288353650752 	101325.0361445371
-1.10985985985986 	300.0000304673995 	0.0001433829957060707 	101325.0360269435
-1.107357357357357 	300.0000303236322 	0.000157110304347165 	101325.0358414782
-1.104854854854855 	300.0000301747045 	0.0001316454079659613 	101325.0356789801
-1.102352352352353 	300.0000299957115 	0.0001458649299853193 	101325.0354533585
-1.09984984984985 	300.0000298253701 	0.0001200402745457496 	101325.0352644386
-1.097347347347347 	300.0000296258586 	0.0001346697500381383 	101325.035016125
-1.094844844844845 	300.0000294446055 	0.0001084734620377967 	101325.034813921
-1.092342342342342 	300.0000292381958 	0.0001235413280858245 	101325.0345606242
-1.08983983983984 	300.0000290616524 	9.699401542589327e-05 	101325.0343633551
-1.087337337337337 	300.0000288700622 	0.0001125998880637585 	101325.0341278044
-1.084834834834835 	300.0000287191311 	8.570573054480645e-05 	101325.0339572357
-1.082332332332332 	300.0000285604607 	0.0001019819833631367 	101325.0337609881
-1.07982982982983 	300.0000284470882 	7.473078981342546e-05 	101325.0336327184
-1.077327327327327 	300.0000283271467 	9.179333518721115e-05 	101325.0334836635
-1.074824824824825 	300.0000282449213 	7.366974196053129e-05 	101325.0333922204
-1.072322322322323 	300.0000281465843 	8.921209136532047e-05 	101325.0332707285
-1.06981981981982 	300.000028069247 	7.41101190860522e-05 	101325.0331842842
-1.067317317317317 	300.0000279628643 	8.773179226692422e-05 	101325.0330544044
-1.064814814814815 	300.0000278660533 	7.445081280910219e-05 	101325.0329442677
-1.062312312312312 	300.0000277420328 	8.617756918814246e-05 	101325.0327945197
-1.05980980980981 	300.0000276347653 	7.468664527662307e-05 	101325.0326713803
-1.057307307307307 	300.0000275179833 	8.465570022851418e-05 	101325.0325313865
-1.054804804804805 	300.0000274336294 	7.497383160088068e-05 	101325.0324340213
-1.052302302302302 	300.0000273553916 	8.334738128229681e-05 	101325.0323388847
-1.0497997997998 	300.0000273114421 	7.54361152763987e-05 	101325.032288166
-1.047297297297297 	300.0000272714364 	8.231031790946277e-05 	101325.0322392237
-1.044794794794795 	300.0000272533642 	7.602894702471689e-05 	101325.0322188709
-1.042292292292292 	300.0000272278094 	8.144448922165151e-05 	101325.0321876641
-1.03978978978979 	300.000027207822 	7.659649412093087e-05 	101325.0321648025
-1.037287287287287 	300.000027169685 	8.060085946052133e-05 	101325.0321188873
-1.034784784784785 	300.0000271238911 	7.698147875946846e-05 	101325.0320650294
-1.032282282282283 	300.0000270523851 	7.966306277701343e-05 	101325.0319806297
-1.02977977977978 	300.0000269656427 	7.707521783074958e-05 	101325.0318787197
-1.027277277277277 	300.0000268542863 	7.858297487006555e-05 	101325.0317473551
-1.024774774774775 	300.0000267303314 	7.685604137576001e-05 	101325.0316008047
-1.022272272272272 	300.0000265931942 	7.742208069887063e-05 	101325.0314385269
-1.01976976976977 	300.0000264547584 	7.641772763663824e-05 	101325.0312752064
-1.017267267267267 	300.0000263198583 	7.634302879548559e-05 	101325.0311164493
-1.014764764764765 	300.000026197861 	7.59154097059906e-05 	101325.0309722447
-1.012262262262262 	300.0000260932304 	7.551837610532384e-05 	101325.0308477718
-1.00975975975976 	300.0000260082356 	7.546618912665519e-05 	101325.0307460274
-1.007257257257257 	300.0000259439425 	7.50484058814154e-05 	101325.0306690377
-1.004754754754755 	300.0000258976535 	7.509972142314683e-05 	101325.0306141997
-1.002252252252252 	300.0000258668653 	7.492050541894799e-05 	101325.0305788502
-0.9997497497497498 	300.0000258470875 	7.488134156338838e-05 	101325.0305564553
-0.9972472472472473 	300.0000258324747 	7.483500690782595e-05 	101325.0305392937
-0.9947447447447449 	300.0000258154392 	7.478150136786258e-05 	101325.0305185608
-0.9922422422422421 	300.0000257883138 	7.469782738463385e-05 	101325.0304856015
-0.9897397397397399 	300.0000257435181 	7.456677447845366e-05 	101325.0304328307
-0.9872372372372376 	300.000025676013 	7.437277485529421e-05 	101325.0303543449
-0.9847347347347346 	300.0000255832949 	7.410742813186026e-05 	101325.0302463336
-0.9822322322322323 	300.0000254655942 	7.376784388732197e-05 	101325.0301074377
-0.9797297297297296 	300.0000253243082 	7.335625014997045e-05 	101325.0299390842
-0.9772272272272275 	300.0000251624064 	7.288506533193292e-05 	101325.0297456902
-0.9747247247247248 	300.0000249849759 	7.237102577378059e-05 	101325.0295345564
-0.9722222222222224 	300.0000247992064 	7.183719077822507e-05 	101325.0293153668
-0.9697197197197196 	300.0000246153703 	7.131198768817282e-05 	101325.0290993473
-0.9672172172172175 	300.0000244438309 	7.082228598595734e-05 	101325.0288981883
-0.9647147147147147 	300.0000242946792 	7.039503954059384e-05 	101325.0287228072
-0.9622122122122124 	300.0000241755821 	7.005190938089909e-05 	101325.0285820246
-0.9597097097097099 	300.0000240909403 	6.980463463167086e-05 	101325.0284812498
-0.9572072072072073 	300.0000240410582 	6.965631240893169e-05 	101325.0284213343
-0.9547047047047047 	300.0000240222936 	6.959576642684439e-05 	101325.0283978276
-0.9522022022022023 	300.0000240253872 	6.959839891042365e-05 	101325.0284009295
-0.9496996996996998 	300.0000240388319 	6.96314322260474e-05 	101325.0284163926
-0.9471971971971973 	300.000024048673 	6.965331600195852e-05 	101325.0284273892
-0.9446946946946947 	300.0000240400337 	6.962328920970999e-05 	101325.0284170288
-0.9421921921921923 	300.0000240014814 	6.950838273859498e-05 	101325.0283710605
-0.93968968968969 	300.0000239249594 	6.928482137539242e-05 	101325.0282802588
-0.9371871871871872 	300.0000238078708 	6.894745936258505e-05 	101325.0281420322
-0.9346846846846848 	300.0000236540565 	6.850730535496087e-05 	101325.0279609216
-0.9321821821821823 	300.0000234732188 	6.798934333763042e-05 	101325.0277478602
-0.9296796796796799 	300.000023278655 	6.743261473230731e-05 	101325.0275183579
-0.9271771771771771 	300.0000230849137 	6.687842698581494e-05 	101325.0272900344
-0.9246746746746748 	300.0000229070935 	6.636822657714465e-05 	101325.0270801045
-0.9221721721721724 	300.0000227575933 	6.593837419871244e-05 	101325.0269032472
-0.9196696696696698 	300.0000226448267 	6.561312847224937e-05 	101325.026769943
-0.9171671671671672 	300.0000225732262 	6.540476842062363e-05 	101325.0266851951
-0.9146646646646649 	300.000022542034 	6.531033704806706e-05 	101325.026647625
-0.9121621621621623 	300.0000225437333 	6.530926654594379e-05 	101325.0266491744
-0.9096596596596597 	300.0000225660232 	6.536833356563808e-05 	101325.0266756929
-0.9071571571571573 	300.0000225938829 	6.544252799560493e-05 	101325.0267085048
-0.9046546546546547 	300.0000226093525 	6.548076951537243e-05 	101325.0267268013
-0.9021521521521524 	300.0000225951189 	6.543672753586412e-05 	101325.026710623
-0.8996496496496498 	300.0000225385174 	6.527135453711559e-05 	101325.0266441508
-0.8971471471471473 	300.0000224322271 	6.496371978614786e-05 	101325.0265186385
-0.894644644644645 	300.0000222759942 	6.451506851939422e-05 	101325.0263341759
-0.892142142142142 	300.0000220778541 	6.394642950185037e-05 	101325.0261000343
-0.8896396396396397 	300.0000218527216 	6.330114860445324e-05 	101325.0258337808
-0.8871371371371374 	300.0000216202496 	6.263634091285632e-05 	101325.0255591205
-0.8846346346346349 	300.0000214034034 	6.201459970206486e-05 	101325.0253025027
-0.8821321321321324 	300.0000212232407 	6.149776734805899e-05 	101325.0250890595
-0.8796296296296297 	300.0000210959639 	6.11320117001926e-05 	101325.0249384638
-0.8771271271271271 	300.0000210303771 	6.094157633660545e-05 	101325.024861077
-0.8746246246246248 	300.0000210252594 	6.092284928079933e-05 	101325.024855077
-0.8721221221221224 	300.0000210678098 	6.103885142261762e-05 	101325.0249056864
-0.8696196196196196 	300.0000211365163 	6.122891567263191e-05 	101325.0249872531
-0.8671171171171175 	300.000021204564 	6.141662897473433e-05 	101325.025067831
-0.8646146146146148 	300.0000212440958 	6.152354628802975e-05 	101325.025115045
-0.8621121121121121 	300.0000212329746 	6.148622893458261e-05 	101325.0251019319
-0.8596096096096097 	300.0000211570106 	6.126403622614506e-05 	101325.0250117598
-0.857107107107107 	300.000021012902 	6.084906868542501e-05 	101325.0248411833
-0.8546046046046049 	300.0000208105445 	6.026946098713317e-05 	101325.0246014261
-0.8521021021021022 	300.0000205705537 	5.958397465108825e-05 	101325.0243172642
-0.8495995995995997 	300.0000203219377 	5.887624858009997e-05 	101325.0240234935
-0.8470970970970974 	300.0000200975218 	5.823911468227493e-05 	101325.023758857
-0.8445945945945946 	300.0000199276049 	5.77543456666075e-05 	101325.0235581702
-0.8420920920920922 	300.0000198316299 	5.74765558930026e-05 	101325.0234441659
-0.8395895895895897 	300.0000198124994 	5.741581137353599e-05 	101325.023421315
-0.8370870870870872 	300.0000198569223 	5.753348158284889e-05 	101325.0234737582
-0.8345845845845846 	300.0000199368008 	5.775170346690208e-05 	101325.0235682396
-0.8320820820820823 	300.0000200150355 	5.796565878789788e-05 	101325.0236612521
-0.8295795795795798 	300.0000200544086 	5.806956481411671e-05 	101325.0237083227
-0.8270770770770772 	300.0000200248328 	5.797793857624223e-05 	101325.0236733519
-0.8245745745745746 	300.0000199090857 	5.764288225939946e-05 	101325.023536598
-0.8220720720720721 	300.0000197090637 	5.707051892779551e-05 	101325.0232999105
-0.8195695695695699 	300.0000194451769 	5.631849345722054e-05 	101325.0229876377
-0.817067067067067 	300.0000191527853 	5.548760916903818e-05 	101325.0226422056
-0.8145645645645651 	300.0000188757071 	5.470094149514666e-05 	101325.0223149159
-0.8120620620620621 	300.0000186555991 	5.407318592027625e-05 	101325.0220543776
-0.8095595595595597 	300.0000185212493 	5.368748735391948e-05 	101325.0218953579
-0.8070570570570572 	300.000018483037 	5.357364911030749e-05 	101325.0218504273
-0.8045545545545546 	300.0000185304741 	5.369949558022227e-05 	101325.0219064555
-0.8020520520520523 	300.0000186333175 	5.397974846982528e-05 	101325.0220271898
-0.7995495495495494 	300.0000187478473 	5.42929466730731e-05 	101325.0221616986
-0.7970470470470474 	300.0000188283309 	5.451214249756691e-05 	101325.0222566969
-0.7945445445445446 	300.0000188390052 	5.453724671958375e-05 	101325.0222695806
-0.7920420420420423 	300.0000187616917 	5.431669997241853e-05 	101325.0221790527
-0.7895395395395397 	300.0000186009692 	5.386343575850984e-05 	101325.0219903603
-0.7870370370370371 	300.0000183824818 	5.324733613845609e-05 	101325.0217331802
-0.7845345345345348 	300.0000181449816 	5.257418190954886e-05 	101325.0214525513
-0.7820320320320323 	300.0000179287027 	5.195649254703909e-05 	101325.021195769
-0.7795295295295296 	300.0000177636886 	5.148057847493155e-05 	101325.0209994102
-0.7770270270270272 	300.0000176637504 	5.118548804339054e-05 	101325.0208799496
-0.7745245245245247 	300.0000176224295 	5.105659223404288e-05 	101325.0208305606
-0.7720220220220222 	300.0000176179288 	5.103336920684887e-05 	101325.0208254903
-0.7695195195195199 	300.0000176214387 	5.103711889527639e-05 	101325.0208307777
-0.767017017017017 	300.0000176088737 	5.099850275507353e-05 	101325.0208169637
-0.7645145145145147 	300.0000175674039 	5.087965595199117e-05 	101325.0207683965
-0.7620120120120122 	300.0000174971229 	5.068097055861852e-05 	101325.0206856758
-0.7595095095095097 	300.0000174079828 	5.042958276179819e-05 	101325.0205810724
-0.7570070070070072 	300.0000173132465 	5.015994072135064e-05 	101325.0204698356
-0.7545045045045048 	300.0000172212995 	4.989559463866755e-05 	101325.0203618435
-0.7520020020020022 	300.0000171319714 	4.963700741829959e-05 	101325.0202573942
-0.7494994994994997 	300.0000170398212 	4.936785752680029e-05 	101325.0201487625
-0.7469969969969972 	300.0000169371247 	4.906728314165755e-05 	101325.020026529
-0.7444944944944945 	300.0000168206051 	4.872917212945799e-05 	101325.0198875352
-0.7419919919919924 	300.0000166973988 	4.837473747523555e-05 	101325.019740336
-0.7394894894894897 	300.0000165834268 	4.805031806259897e-05 	101325.0196048375
-0.7369869869869872 	300.0000164998216 	4.781220892809262e-05 	101325.0195053984
-0.7344844844844846 	300.0000164611369 	4.770101856018138e-05 	101325.0194598271
-0.7319819819819822 	300.0000164686109 	4.771679313371843e-05 	101325.0194689387
-0.7294794794794797 	300.0000165042745 	4.781000558438792e-05 	101325.0195118429
-0.7269769769769773 	300.0000165361576 	4.789052320605299e-05 	101325.0195501971
-0.7244744744744747 	300.0000165274035 	4.785626617068908e-05 	101325.0195405067
-0.721971971971972 	300.0000164505188 	4.76317189651671e-05 	101325.0194499527
-0.7194694694694695 	300.0000162989802 	4.719690749294144e-05 	101325.0192698696
-0.7169669669669674 	300.0000160899239 	4.660195727018056e-05 	101325.0190213172
-0.7144644644644647 	300.0000158621522 	4.595397269673999e-05 	101325.0187497672
-0.711961961961962 	300.0000156615687 	4.53826894487079e-05 	101325.0185106167
-0.7094594594594597 	300.0000155275933 	4.500063409047239e-05 	101325.0183514621
-0.7069569569569573 	300.0000154815667 	4.486631248059394e-05 	101325.0182972591
-0.7044544544544545 	300.0000155194557 	4.496771777975272e-05 	101325.018342881
-0.7019519519519523 	300.0000156136308 	4.522836257372161e-05 	101325.0184554664
-0.6994494494494495 	300.0000157226017 	4.553166977645405e-05 	101325.018585664
-0.6969469469469471 	300.0000158046568 	4.575935458752887e-05 	101325.0186832479
-0.6944444444444446 	300.0000158279476 	4.582305699524849e-05 	101325.0187111436
-0.6919419419419421 	300.0000157794621 	4.568486360464163e-05 	101325.0186538359
-0.6894394394394396 	300.0000156643391 	4.536125516862679e-05 	101325.0185185392
-0.6869369369369374 	300.0000155042652 	4.490873037367119e-05 	101325.0183297578
-0.6844344344344344 	300.000015326471 	4.440456096961751e-05 	101325.0181200405
-0.6819319319319321 	300.0000151573316 	4.392343643291436e-05 	101325.0179207104
-0.6794294294294296 	300.0000150176829 	4.352265588226354e-05 	101325.0177555656
-0.6769269269269272 	300.0000149187424 	4.323663399014297e-05 	101325.017638341
-0.6744244244244245 	300.000014864298 	4.307469905028028e-05 	101325.017572941
-0.6719219219219222 	300.0000148494852 	4.302714064588419e-05 	101325.0175549335
-0.6694194194194195 	300.0000148655386 	4.306690395141167e-05 	101325.0175731885
-0.6669169169169172 	300.0000148980256 	4.315449417427673e-05 	101325.0176114233
-0.6644144144144146 	300.0000149302647 	4.32435430607103e-05 	101325.0176501304
-0.661911911911912 	300.0000149461797 	4.32857587013418e-05 	101325.0176694427
-0.6594094094094097 	300.0000149320423 	4.324305488637982e-05 	101325.017653003
-0.656906906906907 	300.0000148805707 	4.309505153767135e-05 	101325.0175922359
-0.6544044044044046 	300.0000147940644 	4.284816315522263e-05 	101325.0174896765
-0.6519019019019021 	300.0000146846763 	4.253732666349878e-05 	101325.0173597582
-0.6493993993993996 	300.0000145720446 	4.22177384893927e-05 	101325.0172260414
-0.6468968968968971 	300.0000144784019 	4.195328525452619e-05 	101325.0171152418
-0.6443943943943946 	300.0000144229759 	4.179628464316358e-05 	101325.0170497831
-0.6418918918918921 	300.0000144159446 	4.177388348981352e-05 	101325.0170410978
-0.6393893893893897 	300.0000144543068 	4.187809844912181e-05 	101325.0170858311
-0.6368868868868871 	300.0000145229063 	4.206709216847576e-05 	101325.0171664
-0.6343843843843846 	300.0000145988313 	4.227787683814224e-05 	101325.0172559494
-0.6318818818818821 	300.0000146575072 	4.244286584735978e-05 	101325.0173260636
-0.6293793793793795 	300.0000146810453 	4.250975302860382e-05 	101325.0173546054
-0.6268768768768773 	300.0000146605656 	4.245425281444331e-05 	101325.0173314098
-0.6243743743743745 	300.0000145997759 	4.228515477620802e-05 	101325.0172603805
-0.6218718718718721 	300.0000145131331 	4.204052016463287e-05 	101325.0171575857
-0.6193693693693696 	300.0000144189328 	4.177467075723762e-05 	101325.0170461445
-0.6168668668668671 	300.0000143378701 	4.154391251015798e-05 	101325.0169496894
-0.6143643643643645 	300.0000142845238 	4.139168794317085e-05 	101325.0168864415
-0.6118618618618621 	300.0000142661539 	4.133918132746086e-05 	101325.0168652947
-0.6093593593593596 	300.0000142821145 	4.138324020793669e-05 	101325.0168845971
-0.6068568568568571 	300.0000143233078 	4.149829292002656e-05 	101325.0169336499
-0.6043543543543546 	300.0000143765566 	4.164645006528472e-05 	101325.0169962724
-0.6018518518518521 	300.000014427246 	4.178671737133814e-05 	101325.0170552644
-0.5993493493493496 	300.0000144628214 	4.18849951762629e-05 	101325.0170964329
-0.5968468468468471 	300.0000144757266 	4.192072724399481e-05 	101325.017111186
-0.5943443443443446 	300.0000144639981 	4.188786913231338e-05 	101325.0170973028
-0.591841841841842 	300.000014430087 	4.179392952940581e-05 	101325.0170580412
-0.5893393393393397 	300.0000143805018 	4.16549981335958e-05 	101325.0170002552
-0.5868368368368371 	300.0000143228513 	4.149139042515191e-05 	101325.0169324047
-0.5843343343343346 	300.0000142642156 	4.132430101847112e-05 	101325.0168631915
-0.5818318318318321 	300.0000142116423 	4.117472800924627e-05 	101325.0168011072
-0.5793293293293297 	300.000014171977 	4.106346129634051e-05 	101325.0167546375
-0.5768268268268271 	300.0000141532429 	4.101188840141465e-05 	101325.0167325086
-0.5743243243243245 	300.0000141626369 	4.104089729210505e-05 	101325.0167433478
-0.5718218218218221 	300.0000142061403 	4.116734910337847e-05 	101325.0167944515
-0.5693193193193196 	300.0000142876705 	4.140085831302565e-05 	101325.0168898362
-0.5668168168168171 	300.0000144052239 	4.173739422211126e-05 	101325.0170281785
-0.5643143143143147 	300.0000145524452 	4.215746009612631e-05 	101325.0172014643
-0.5618118118118121 	300.0000147172156 	4.262572650295649e-05 	101325.0173950088
-0.5593093093093094 	300.0000148817937 	4.309443053229463e-05 	101325.0175890802
-0.5568068068068072 	300.0000150276081 	4.351129979775185e-05 	101325.0177617782
-0.5543043043043046 	300.0000151374552 	4.382668218746829e-05 	101325.0178924815
-0.551801801801802 	300.0000151976683 	4.400222272327113e-05 	101325.0179652401
-0.5492992992992995 	300.0000152022681 	4.401794143232813e-05 	101325.0179715397
-0.5467967967967969 	300.0000151511998 	4.38747343475143e-05 	101325.0179119203
-0.5442942942942947 	300.0000150527741 	4.359642647331991e-05 	101325.0177961391
-0.5417917917917919 	300.0000149216287 	4.322556694564399e-05 	101325.017641839
-0.5392892892892895 	300.0000147777507 	4.281683308687445e-05 	101325.0174719893
-0.536786786786787 	300.0000146421805 	4.243151333001282e-05 	101325.0173116427
-0.5342842842842846 	300.0000145346874 	4.212651926748765e-05 	101325.0171847235
-0.531781781781782 	300.0000144725213 	4.195078749364348e-05 	101325.0171112789
-0.5292792792792794 	300.0000144678402 	4.193838885977941e-05 	101325.0171053034
-0.526776776776777 	300.0000145258547 	4.210376374538581e-05 	101325.0171731595
-0.5242742742742745 	300.0000146449925 	4.244278768621534e-05 	101325.017312697
-0.521771771771772 	300.0000148159265 	4.292879104699103e-05 	101325.0175132484
-0.5192692692692695 	300.0000150226662 	4.351830881596288e-05 	101325.0177567326
-0.516766766766767 	300.0000152463904 	4.415635195556109e-05 	101325.018019982
-0.5142642642642645 	300.0000154650074 	4.478146405178194e-05 	101325.0182780767
-0.511761761761762 	300.00001565986 	4.534011591420233e-05 	101325.0185081027
-0.5092592592592596 	300.0000158159822 	4.578929739473393e-05 	101325.0186926605
-0.506756756756757 	300.0000159251039 	4.610734686837482e-05 	101325.0188225732
-0.5042542542542544 	300.00001598844 	4.62959974041492e-05 	101325.0188982565
-0.5017517517517521 	300.000016013838 	4.637693763031108e-05 	101325.0189293932
-0.4992492492492494 	300.0000160156211 	4.639221872177322e-05 	101325.0189329075
-0.496746746746747 	300.0000160116377 	4.639057992224183e-05 	101325.0189296041
-0.4942442442442445 	300.0000160195763 	4.642149993032143e-05 	101325.018940151
-0.4917417417417421 	300.0000160536968 	4.652581355607071e-05 	101325.0189812095
-0.4892392392392395 	300.0000161221091 	4.6724479180092e-05 	101325.0190623248
-0.486736736736737 	300.0000162250165 	4.70206401968689e-05 	101325.0191840853
-0.4842342342342345 	300.000016355125 	4.73926014051662e-05 	101325.0193379437
-0.481731731731732 	300.0000164996121 	4.780217709187815e-05 	101325.0195078493
-0.4792292292292296 	300.0000166399614 	4.820198709407361e-05 	101325.0196734475
-0.4767267267267268 	300.0000167589812 	4.854103144439842e-05 	101325.0198142057
-0.4742242242242246 	300.000016843613 	4.878236730472518e-05 	101325.0199136786
-0.471721721721722 	300.0000168854902 	4.890389204186156e-05 	101325.0199631547
-0.4692192192192195 	300.0000168863118 	4.890897824847826e-05 	101325.0199638977
-0.4667167167167169 	300.0000168552714 	4.882640856445334e-05 	101325.0199273718
-0.4642142142142145 	300.0000168099939 	4.870053662333924e-05 	101325.019873228
-0.461711711711712 	300.0000167696396 	4.859152838353861e-05 	101325.0198254379
-0.4592092092092094 	300.0000167545784 	4.855328800126516e-05 	101325.019807559
-0.456706706706707 	300.0000167807639 	4.863132356287858e-05 	101325.0198381903
-0.4542042042042045 	300.0000168558313 	4.885047632342398e-05 	101325.019927431
-0.451701701701702 	300.0000169808039 	4.920776050514721e-05 	101325.0200749505
-0.4491991991991995 	300.0000171459525 	4.968069877336823e-05 	101325.0202700958
-0.4466966966966969 	300.0000173355876 	5.02218658412686e-05 	101325.0204941037
-0.4441941941941945 	300.0000175305098 	5.077830445278625e-05 	101325.0207240551
-0.441691691691692 	300.0000177111229 	5.129692198098059e-05 	101325.0209376711
-0.4391891891891895 	300.0000178636342 	5.173465781518143e-05 	101325.0211177226
-0.436686686686687 	300.0000179795891 	5.207224958330605e-05 	101325.0212550485
-0.4341841841841846 	300.0000180594672 	5.23060514017105e-05 	101325.0213495772
-0.431681681681682 	300.0000181096133 	5.245712359249166e-05 	101325.0214093283
-0.4291791791791794 	300.0000181420354 	5.255716943487248e-05 	101325.0214479305
-0.426676676676677 	300.000018170265 	5.264322516420737e-05 	101325.0214814314
-0.4241741741741744 	300.0000182074867 	5.275419231902129e-05 	101325.0215250768
-0.421671671671672 	300.0000182632299 	5.291524763283995e-05 	101325.0215904664
-0.4191691691691694 	300.000018342197 	5.314232733120118e-05 	101325.0216833752
-0.4166666666666669 	300.0000184434158 	5.34324577007262e-05 	101325.0218026845
-0.4141641641641645 	300.0000185598923 	5.376707775800987e-05 	101325.0219409211
-0.411661661661662 	300.0000186834192 	5.412114337196483e-05 	101325.0220865639
-0.4091591591591594 	300.0000188024911 	5.446366368010669e-05 	101325.0222275522
-0.406656656656657 	300.0000189098353 	5.477508471628447e-05 	101325.0223548597
-0.4041541541541545 	300.0000190032685 	5.50462477689474e-05 	101325.0224649901
-0.401651651651652 	300.0000190835881 	5.528267139984475e-05 	101325.0225606999
-0.3991491491491494 	300.000019159098 	5.550487716075641e-05 	101325.0226498725
-0.396646646646647 	300.0000192375136 	5.57353595959444e-05 	101325.0227430355
-0.3941441441441444 	300.0000193281312 	5.600035638316408e-05 	101325.0228503112
-0.3916416416416419 	300.0000194361435 	5.631520647288606e-05 	101325.0229785987
-0.3891391391391395 	300.0000195637228 	5.668348081410331e-05 	101325.0231295682
-0.3866366366366368 	300.0000197068672 	5.7096017906818e-05 	101325.0232988255
-0.3841341341341344 	300.000019857272 	5.752657594005532e-05 	101325.0234764191
-0.381631631631632 	300.0000200028629 	5.794510591772507e-05 	101325.023648711
-0.3791291291291294 	300.0000201325507 	5.831543559259789e-05 	101325.0238013936
-0.3766266266266269 	300.000020235966 	5.861206677264555e-05 	101325.0239231848
-0.3741241241241244 	300.0000203093616 	5.882481370384314e-05 	101325.0240094016
-0.371621621621622 	300.0000203561383 	5.89625757069823e-05 	101325.0240643562
-0.3691191191191194 	300.0000203880848 	5.906074618820283e-05 	101325.0241016196
-0.366616616616617 	300.0000204222043 	5.916547373384255e-05 	101325.0241416849
-0.3641141141141143 	300.0000204776193 	5.933283999587547e-05 	101325.0242073952
-0.3616116116116119 	300.0000205714207 	5.960814655495718e-05 	101325.0243181257
-0.3591091091091095 	300.0000207118447 	6.001325894027726e-05 	101325.0244839783
-0.356606606606607 	300.000020895505 	6.054170681916903e-05 	101325.0247015322
-0.3541041041041044 	300.0000211077429 	6.114708284846529e-05 	101325.0249526374
-0.3516016016016019 	300.0000213227983 	6.175975575117178e-05 	101325.025207213
-0.3490990990990994 	300.0000215107221 	6.229485810391595e-05 	101325.0254297583
-0.346596596596597 	300.0000216444744 	6.267506804679959e-05 	101325.0255879728
-0.3440940940940944 	300.0000217063267 	6.285463719416513e-05 	101325.0256614075
-0.3415915915915919 	300.0000216945579 	6.28263516638503e-05 	101325.0256478811
-0.3390890890890895 	300.0000216249399 	6.26368518159306e-05 	101325.0255657689
-0.3365865865865869 	300.0000215283639 	6.23711490115449e-05 	101325.0254512449
-0.3340840840840844 	300.0000214435172 	6.213990151782133e-05 	101325.0253509152
-0.3315815815815819 	300.000021410591 	6.205645504783001e-05 	101325.0253117582
-0.3290790790790794 	300.0000214603686 	6.22056707932859e-05 	101325.0253705899
-0.3265765765765769 	300.000021607588 	6.263177236969712e-05 	101325.0255450701
-0.3240740740740744 	300.0000218475616 	6.331583595132808e-05 	101325.025828389
-0.3215715715715718 	300.0000221530649 	6.41847964851749e-05 	101325.0261894208
-0.3190690690690695 	300.0000224821462 	6.512176397684458e-05 	101325.0265788653
-0.3165665665665668 	300.0000227878724 	6.598949897852847e-05 	101325.0269399563