/*--------------------------------*- C++ -*----------------------------------*\
  =========                 |
  \\      /  F ield         | OpenFOAM: The Open Source CFD Toolbox
   \\    /   O peration     | Website:  https://openfoam.org
    \\  /    A nd           | Version:  7
     \\/     M anipulation  |
\*---------------------------------------------------------------------------*/
FoamFile
{
    version     2.0;
    format      ascii;
    class       volScalarField;
    location    "0.00062";
    object      Uz;
}
// * * * * * * * * * * * * * * * * * * * * * * * * * * * * * * * * * * * * * //

dimensions      [0 1 -1 0 0 0 0];

internalField   nonuniform List<scalar> 
5000
(
0
0
0
0
0
-5.06647e-29
-5.3999152e-43
6.079764e-28
-3.039882e-28
7.093058e-28
4.053176e-28
-1.013294e-28
-8.5688003e-57
-4.4639299e-43
1.013294e-28
2.026588e-28
-3.9030665e-56
3.1247509e-42
1.013294e-28
3.039882e-28
-2.026588e-28
0
0
3.039882e-28
-4.7519253e-42
2.9231541e-42
2.026588e-28
1.013294e-28
1.013294e-28
1.519941e-28
-2.6567583e-42
4.3199321e-43
-1.519941e-28
4.559823e-28
5.573117e-28
0
0
4.053176e-28
2.533235e-28
-1.519941e-28
5.0975199e-42
2.533235e-28
1.013294e-28
-6.8542923e-42
-4.559823e-28
4.559823e-28
-6.9694905e-42
1.727706e-55
2.0703181e-55
-6.047905e-42
-2.533235e-28
0
0
0
0
0
0
0
0
0
0
0
0
1.013294e-28
5.06647e-29
-1.519941e-28
1.7423726e-42
-4.8788331e-57
1.519941e-28
0
0
-1.519941e-28
-5.06647e-29
0
-5.573117e-28
-1.5746153e-41
1.013294e-28
3.039882e-28
-1.013294e-28
5.06647e-28
-2.026588e-28
8.6398642e-44
7.599705e-28
-1.013294e-28
-1.5810952e-41
8.106352e-28
-3.039882e-28
1.013294e-28
4.053176e-28
-4.559823e-28
2.026588e-28
-2.533235e-28
-1.7639723e-42
-2.026588e-28
1.0519035e-41
1.013294e-28
-3.039882e-28
-7.1134882e-42
2.9277293e-55
-1.013294e-28
-2.026588e-28
1.013294e-28
-2.8799547e-44
-5.06647e-29
0
-2.026588e-28
-5.2919169e-42
1.519941e-28
-4.053176e-28
-4.559823e-28
-1.4155554e-43
-5.06647e-29
-1.5910588e-41
2.026588e-28
-6.079764e-28
1.013294e-28
5.06647e-29
-8.1128614e-56
-2.533235e-28
1.0639587e-27
-2.8338755e-41
-5.06647e-28
-2.026588e-28
-1.519941e-28
1.519941e-28
-1.013294e-28
2.026588e-28
1.1146234e-27
-3.546529e-28
-8.7478626e-42
-4.559823e-28
-7.093058e-28
3.039882e-28
3.546529e-28
3.039882e-28
3.5279446e-42
1.7567724e-42
-1.7639723e-42
4.053176e-28
2.533235e-28
-1.013294e-28
-7.093058e-28
-4.053176e-28
-2.026588e-28
-3.5135448e-42
-6.079764e-28
8.6398642e-44
-8.6398642e-44
-5.7604301e-69
-2.026588e-28
-1.5038127e-55
4.9391224e-41
5.06647e-28
-2.026588e-28
3.039882e-28
1.4054179e-41
-2.026588e-28
7.905048e-42
2.1599661e-44
1.6956053e-42
0
-2.026588e-28
-2.4544414e-41
2.026588e-28
1.013294e-28
-1.4399774e-44
-1.013294e-28
-1.013294e-28
2.533235e-28
-2.026588e-28
8.4440273e-41
9.8379254e-41
-5.06647e-28
4.053176e-28
0
-3.8648993e-41
-1.2648761e-40
4.053176e-28
-5.06647e-29
-1.7459726e-41
5.06647e-28
-4.559823e-28
-1.0454236e-41
3.9578549e-56
1.4039779e-41
-2.026588e-28
5.06647e-29
-1.519941e-28
-3.4847452e-42
1.0475835e-41
-3.1600303e-41
3.1492305e-41
-3.039882e-28
0
0
0
0
-1.6250409e-42
-1.0562234e-41
-1.519941e-28
-3.546529e-28
5.06647e-29
-1.519941e-28
-4.053176e-28
-1.7531725e-41
2.1038069e-41
1.519941e-28
5.06647e-29
-5.06647e-29
0
3.039882e-28
3.5063449e-42
1.013294e-28
3.039882e-28
-5.6447113e-41
-2.533235e-28
2.026588e-28
-3.039882e-28
-3.546529e-28
2.026588e-28
-1.519941e-28
0
0
0
1.013294e-28
-2.533235e-28
-1.013294e-27
4.053176e-28
9.7799767e-55
-1.519941e-28
1.013294e-28
6.079764e-28
-1.0079842e-43
-1.4399774e-44
-1.013294e-28
-1.013294e-28
-1.013294e-28
-2.1599661e-44
6.3330205e-41
-1.013294e-28
-8.4411474e-41
-1.4054179e-41
2.026588e-28
-3.039882e-28
0
-2.026588e-28
3.039882e-28
1.013294e-28
-5.06647e-29
0
-2.533235e-28
2.026588e-28
-2.533235e-28
1.0553594e-40
3.039882e-28
4.053176e-28
-9.119646e-28
-8.106352e-28
0
2.026588e-28
1.519941e-28
5.06647e-29
-5.06647e-29
-2.026588e-28
3.039882e-28
6.079764e-28
-3.039882e-28
-1.013294e-28
1.4054179e-41
2.026588e-28
-5.06647e-29
-4.2162538e-41
1.519941e-28
-1.1146234e-27
4.053176e-28
-2.8223557e-41
-4.4902447e-43
1.519941e-28
-5.06647e-29
2.72457e-41
-4.2277736e-41
1.013294e-28
1.013294e-28
4.6845463e-55
1.013294e-28
0
0
-1.519941e-28
2.533235e-28
1.013294e-27
-3.039882e-28
2.8799547e-44
-1.519941e-28
-3.546529e-28
4.053176e-28
0
2.6572807e-42
5.06647e-29
0
1.013294e-28
-2.026588e-28
6.079764e-28
-1.7531725e-41
1.4399774e-43
-2.533235e-28
5.06647e-29
-1.519941e-28
-2.0548938e-42
1.519941e-28
-1.1519819e-43
-7.093058e-28
2.026588e-28
1.013294e-28
-1.013294e-28
-4.9189627e-41
5.06647e-28
0
0
-3.546529e-28
3.5171447e-41
-9.8429653e-41
-4.2248936e-41
3.546529e-28
-5.573117e-28
6.4798982e-44
3.039882e-28
0
0
0
0
0
0
0
-5.06647e-29
0
-5.06647e-29
0
1.013294e-28
-3.9492836e-54
-5.06647e-29
0
0
-9.3012212e-43
-1.4068579e-41
4.559823e-28
0
0
-2.533235e-28
-3.039882e-28
2.026588e-28
2.026588e-28
0
-5.06647e-29
3.9160692e-56
1.013294e-28
-2.026588e-28
-2.026588e-28
-5.06647e-29
-1.013294e-28
0
-3.039882e-28
-2.026588e-28
-5.06647e-29
-1.013294e-28
0
1.8115819e-42
-1.013294e-28
9.5061244e-42
-1.013294e-28
0
0
0
0
0
0
0
0
2.026588e-28
7.806133e-56
-1.519941e-28
0
0
0
-1.519941e-28
-1.4054179e-41
-1.013294e-28
2.026588e-28
-2.8137158e-41
7.1998869e-45
-7.0342895e-42
-2.026588e-28
1.013294e-28
1.519941e-28
-8.4454673e-41
-5.06647e-29
-5.06647e-29
0
0
1.519941e-28
2.1102868e-41
-1.013294e-28
2.5290341e-41
-2.026588e-28
0
1.519941e-28
-5.06647e-29
1.013294e-28
1.4061379e-41
-1.9515332e-56
2.8137158e-41
-3.546529e-28
1.519941e-28
-1.5612266e-55
-1.4068579e-41
-6.079764e-28
0
0
5.06647e-29
-1.4399774e-44
8.4325075e-41
-2.026588e-28
0
0
1.013294e-28
-2.8093959e-41
-2.026588e-28
0
0
0
-5.06647e-29
2.1599661e-44
2.533235e-28
-1.013294e-28
1.519941e-28
-1.4082979e-41
4.053176e-28
-1.519941e-28
-1.4772008e-40
-4.2205737e-41
4.9240026e-41
5.573117e-28
0
0
-1.013294e-28
7.0342895e-42
-2.8122758e-41
-1.4636499e-56
1.519941e-28
-1.013294e-28
5.06647e-29
0
-1.013294e-28
-4.9240026e-41
1.519941e-28
0
0
-2.026588e-28
1.8719706e-43
2.9272999e-56
-4.559823e-28
5.573117e-28
-3.5099449e-41
1.4068579e-41
-1.4061379e-41
1.4067081e-41
2.026588e-28
-4.2205737e-41
7.6578369e-54
1.4075779e-41
2.026588e-28
-1.013294e-28
-3.8325537e-54
4.2292135e-41
0
-5.06647e-29
3.039882e-28
-7.7377184e-41
7.9198756e-44
-2.1102868e-41
-7.0414894e-41
-4.053176e-28
-1.519941e-28
-1.519941e-28
-3.039882e-28
-7.093058e-28
0
2.026588e-28
-1.013294e-28
0
-3.039882e-28
4.9240026e-41
-5.0399208e-44
-2.8108358e-41
2.5123988e-42
-5.06647e-29
-1.4054179e-41
5.6274316e-41
2.0279254e-41
-2.533235e-28
-5.6291918e-41
2.8799547e-44
-4.9189627e-41
-5.06647e-28
2.533235e-28
-2.1102868e-41
-2.533235e-28
0
0
0
1.013294e-28
4.559823e-28
-8.106352e-28
-5.06647e-28
0
-1.013294e-28
-1.013294e-28
1.013294e-28
1.519941e-28
0
1.013294e-28
1.013294e-28
-2.886005e-41
7.6538056e-54
1.519941e-28
0
0
0
0
1.519941e-28
-1.2648761e-40
-2.533235e-28
1.519941e-28
4.9240026e-41
-4.9290426e-41
-2.0972953e-69
4.559823e-28
5.06647e-28
-1.013294e-27
-7.7377184e-41
2.8108358e-41
-2.026588e-28
0
-3.039882e-28
-3.039882e-28
2.533235e-28
1.4054179e-41
1.519941e-28
0
0
3.546529e-28
-6.3243806e-41
-2.533235e-28
0
6.586411e-28
-6.4798982e-44
1.4068579e-41
-1.4054179e-41
5.06647e-29
-1.519941e-28
3.5999434e-44
-4.2205737e-41
1.013294e-28
5.06647e-29
5.6274316e-41
-2.1599661e-44
4.9240026e-41
1.519941e-28
-1.519941e-28
0
-8.4389874e-41
2.9611122e-54
1.2648761e-40
-2.9301365e-56
-4.053176e-28
2.533235e-28
-7.806133e-56
-4.9240026e-41
2.8137158e-41
2.1102868e-41
-3.039882e-28
5.06647e-29
5.06647e-29
2.1102868e-41
-4.2205737e-41
1.013294e-28
1.013294e-28
4.559823e-28
1.9515332e-56
0
2.9272999e-56
2.533235e-28
1.1590443e-41
1.9515332e-56
-7.0270896e-42
-4.3199321e-44
-1.013294e-28
-3.039882e-28
-4.2205737e-41
-7.1740618e-43
2.8108358e-41
7.0270896e-42
-4.559823e-28
2.533235e-28
5.8545997e-56
-1.4777048e-40
8.4454673e-41
1.4061379e-41
5.6274316e-41
1.4636499e-56
0
2.533235e-28
0
0
-4.053176e-28
-5.6274316e-41
1.519941e-28
0
0
2.026588e-28
-8.4353875e-41
6.079764e-28
-6.079764e-28
7.9198756e-44
-6.3308605e-41
-4.559823e-28
0
0
0
-3.546529e-28
-8.4325075e-41
-3.5762644e-41
0
0
1.013294e-28
1.4399774e-44
1.519941e-28
0
0
5.06647e-28
9.8379254e-41
2.8151558e-41
-1.4068579e-41
4.4331017e-42
-2.533235e-28
2.8122758e-41
4.2184137e-41
-5.6216717e-41
-5.573117e-28
0
0
1.519941e-28
7.3182497e-55
2.533235e-28
0
0
-5.06647e-28
7.806133e-56
1.013294e-28
0
0
-1.013294e-28
-3.9030665e-55
-2.533235e-28
0
0
-3.039882e-28
-2.1599661e-44
-4.053176e-28
4.053176e-28
-1.4075779e-41
7.6759274e-54
9.1903312e-54
2.533235e-28
0
0
0
0
0
2.533235e-28
-8.4368274e-41
2.4183898e-42
0
0
0
0
0
0
0
3.039882e-28
-1.9685931e-40
-2.533235e-28
0
0
0
0
0
0
0
1.013294e-28
7.7405149e-54
5.06647e-29
0
0
-4.053176e-28
9.8530452e-41
1.013294e-28
0
0
0
-4.053176e-28
-2.3628955e-53
-2.026588e-28
0
0
0
0
0
0
0
-1.519941e-28
3.5999434e-44
2.533235e-28
0
0
0
0
0
0
0
-5.06647e-29
1.4399774e-44
-1.013294e-28
0
0
0
-1.013294e-28
1.4064979e-40
1.519941e-28
0
1.013294e-28
0
2.026588e-28
0
0
2.026588e-28
4.559823e-28
-7.093058e-28
-5.573117e-28
0
0
0
0
-4.053176e-28
3.5999434e-44
-1.013294e-28
-4.559823e-28
1.4186116e-27
9.119646e-28
-1.5429639e-41
5.06647e-29
0
0
0
0
-3.039882e-28
-1.4075779e-41
4.2953306e-41
0
0
0
0
0
0
0
0
0
0
0
0
0
0
3.039882e-28
-1.4068579e-40
-5.06647e-28
0
0
-1.013294e-28
-1.4068579e-41
3.5999434e-44
-2.026588e-28
-1.6166217e-41
-5.6259916e-41
-4.2227337e-41
-2.533235e-28
0
0
0
0
0
-1.013294e-28
-1.1251983e-40
-4.559823e-28
0
0
0
0
0
0
0
5.06647e-29
-5.6245516e-41
1.519941e-28
0
0
0
0
0
0
0
5.06647e-29
-4.2191337e-41
-5.06647e-29
0
0
0
0
0
0
0
0
-4.053176e-28
6.4798982e-44
1.013294e-28
0
0
0
0
2.026588e-28
-3.039882e-28
-3.039882e-28
5.4740609e-41
-2.8137158e-41
-1.519941e-28
0
0
0
0
1.013294e-28
-5.6245516e-41
1.1202127e-40
-1.519941e-28
-1.013294e-28
2.533235e-28
0
0
0
-1.013294e-28
1.4054179e-41
1.013294e-28
5.06647e-28
-5.06647e-28
-1.013294e-28
-2.026588e-28
0
0
1.519941e-28
-5.06647e-29
4.053176e-28
4.559823e-28
2.533235e-28
5.6274316e-41
-5.06647e-29
0
0
0
-2.026588e-28
-4.053176e-28
-5.06647e-29
-1.519941e-28
1.013294e-28
8.901525e-57
1.013294e-28
0
0
0
-1.4880707e-41
2.8122758e-41
1.013294e-28
0
0
0
0
0
0
0
-3.039882e-28
1.2655241e-40
1.013294e-28
-5.6274316e-41
3.039882e-28
0
0
-1.013294e-28
-1.7565521e-55
-1.4068579e-41
1.4061379e-41
-5.06647e-29
1.519941e-28
4.2205737e-41
3.039882e-28
0
0
5.06647e-29
-4.2191337e-41
-4.2184137e-41
4.3199321e-44
-3.546529e-28
3.546529e-28
1.013294e-28
-1.013294e-28
2.8108358e-41
4.6598565e-43
-3.039882e-28
0
-1.013294e-28
2.8151558e-41
-2.026588e-28
0
5.06647e-29
-1.013294e-28
1.1251983e-40
-5.06647e-29
5.06647e-29
0
-1.4078878e-41
0
-1.519941e-28
0
2.533235e-28
-2.533235e-28
8.4325075e-41
6.5584226e-43
-2.533235e-28
0
1.013294e-28
4.2205737e-41
-3.546529e-28
0
3.546529e-28
-2.026588e-28
4.3199321e-44
5.06647e-28
-4.053176e-28
0
2.533235e-28
-1.519941e-28
1.013294e-28
-2.533235e-28
2.026588e-28
-2.026588e-28
-2.026588e-28
5.06647e-29
0
0
0
0
0
0
-3.039882e-28
-4.8788331e-57
1.1146234e-27
-3.546529e-28
1.013294e-28
-1.519941e-28
0
0
1.7105694e-43
-2.026588e-28
4.559823e-28
2.533235e-28
0
-1.013294e-28
-4.2227337e-41
2.026588e-28
0
0
1.519941e-28
-1.519941e-28
1.013294e-28
1.519941e-28
0
-2.026588e-28
-4.0358575e-54
2.7850297e-41
-5.06647e-29
-2.8137158e-41
3.5999434e-44
6.586411e-28
-5.573117e-28
-2.026588e-28
0
0
2.026588e-28
-8.4368274e-41
-2.533235e-28
0
2.026588e-28
1.013294e-28
1.519941e-28
3.546529e-28
0
0
0
0
0
0
2.026588e-28
-1.6873655e-40
-8.612999e-28
0
0
0
0
0
0
1.013294e-27
9.7576662e-57
-9.626293e-28
-1.2666175e-27
-3.9351702e-40
1.4692763e-27
0
0
0
0
3.039882e-27
8.2962136e-40
-3.5971937e-27
3.9518466e-27
3.9518466e-27
-4.8638112e-27
3.3466082e-39
5.5692565e-39
6.2421867e-39
-2.3928824e-39
5.3179228e-39
-3.0372579e-39
-1.2362187e-26
0
1.5148745e-26
-1.4258238e-38
2.7287571e-42
2.1329839e-26
-2.3812409e-26
-2.6396309e-26
2.9436191e-26
-9.1961419e-39
3.0657399e-38
2.2757136e-38
2.5409956e-38
-1.4180667e-38
3.1806839e-38
6.3888186e-26
-7.1437227e-26
-7.9847567e-26
8.8713889e-26
-2.7419704e-38
1.2261523e-37
3.4126967e-38
-3.7928889e-38
-4.22047e-38
-4.7091558e-38
1.8872601e-25
0
-2.335136e-25
7.2036445e-38
-6.0107224e-54
-3.2146752e-25
0
3.9675526e-25
-4.4159352e-25
-4.9078895e-25
5.4469619e-25
0
0
0
0
9.1738572e-25
-2.8229625e-37
6.2614474e-37
-1.2502528e-24
-1.3859835e-24
1.5360524e-24
0
0
0
0
2.5590233e-24
4.0245928e-40
-3.1330544e-24
0
0
0
0
0
0
0
6.9777451e-24
7.7043276e-24
-8.5044245e-24
-9.385433e-24
0
0
0
0
0
0
1.8589436e-23
2.0476848e-23
-2.2550605e-23
-2.4828287e-23
0
0
0
0
0
0
4.8365738e-23
5.3148739e-23
-5.8390357e-23
-6.4133556e-23
0
0
0
0
0
0
1.2284052e-22
-7.4766025e-35
-1.4758191e-22
0
0
0
0
0
0
2.7834791e-22
-8.4541144e-35
-3.3292869e-22
0
0
0
0
5.1863933e-22
8.0475274e-38
-6.1817262e-22
6.7463392e-22
-3.0824077e-51
-8.0289085e-22
8.755608e-22
-5.3012789e-34
-1.040436e-21
1.1337436e-21
6.8575254e-34
7.4687112e-34
-9.5851898e-50
8.8503111e-34
4.8133948e-34
-1.8879287e-21
2.053564e-21
2.2331573e-21
-4.8556651e-21
1.4639833e-33
5.7347095e-21
0
-3.3829477e-21
1.0199483e-33
1.1077092e-33
3.6019758e-33
3.908537e-33
2.8247929e-33
-4.596983e-33
3.3214632e-33
-1.8021892e-33
-7.0285322e-21
0
8.2448808e-21
1.2685066e-36
8.0429524e-33
8.7045859e-33
-1.6071928e-36
-6.7893517e-33
3.6722581e-33
1.4295037e-20
0
-1.6689031e-20
1.0005345e-32
2.7658707e-36
-2.1010046e-20
0
2.4462827e-20
-2.6385819e-20
-2.8452272e-20
3.0672246e-20
0
0
3.8363909e-20
-4.5868696e-32
2.4674314e-32
-2.6576414e-32
1.4308634e-32
-5.540006e-20
-5.9575759e-20
6.4048514e-20
0
0
0
0
9.1601112e-20
2.7299908e-32
1.1710977e-31
-1.131575e-19
-1.2134843e-19
1.3009569e-19
0
0
0
0
1.834712e-19
1.9636295e-19
-2.1010073e-19
-2.2473552e-19
0
0
0
0
0
0
3.5718478e-19
3.8118675e-19
-4.0668362e-19
-4.3375986e-19
0
0
0
0
0
0
6.755299e-19
-5.9860025e-31
-1.529309e-18
8.1317272e-19
2.593539e-18
9.1882154e-19
0
-2.0739212e-18
1.2227195e-30
3.8926087e-30
1.2404656e-18
2.632054e-18
-2.7915415e-18
1.4799e-18
1.5686258e-18
-1.6621677e-18
1.7607535e-18
-2.649784e-34
-1.9740119e-18
-2.0891843e-18
2.2104008e-18
2.3379344e-18
-2.472068e-18
2.6130941e-18
3.9240651e-34
-2.9170443e-18
0
0
0
-7.2433104e-18
3.8199787e-18
8.0558143e-18
-4.245828e-18
4.4741398e-18
4.7132522e-18
-9.9271725e-18
1.0319315e-46
5.4996588e-18
-5.7862953e-18
-1.2171899e-17
-6.3990976e-18
2.0178685e-17
-7.0678405e-18
1.8937837e-45
2.3389677e-17
-1.6369435e-17
-8.58946e-18
-9.0113388e-18
-1.8901831e-17
1.9817522e-17
1.0385456e-17
1.088159e-17
-1.1397761e-17
-1.1934575e-17
3.7477942e-17
-1.3072599e-17
-1.3675058e-17
1.430066e-17
1.4950045e-17
2.2202839e-33
-4.8968256e-17
1.7047379e-17
-2.963333e-29
3.0939333e-29
5.8146754e-17
-2.0216412e-17
-2.1079613e-17
-4.3945034e-17
2.2895786e-17
4.7700156e-17
-4.9672099e-17
2.5854353e-17
-2.6905633e-17
-2.7990532e-17
8.7329046e-17
-3.0263709e-17
-3.1453229e-17
6.5357695e-17
3.394116e-17
-3.5240747e-17
-1.0973454e-16
3.7954009e-17
1.574751e-16
-2.2659868e-29
-8.463438e-17
-4.3851826e-17
0
-9.4088561e-17
-1.0812154e-28
1.5121147e-16
-5.2147234e-17
1.1974886e-28
-5.5763074e-17
-5.7636121e-17
1.191059e-16
0
0
0
6.7662396e-17
-3.8754827e-29
-1.4396904e-16
7.4212737e-17
1.529715e-16
-2.3641058e-16
2.7031984e-28
1.6714623e-16
-8.6024689e-17
0
0
0
-1.9254351e-16
9.8942387e-17
2.033118e-16
-3.1323567e-16
3.0470893e-32
2.2009905e-16
0
0
1.188124e-16
-6.7632642e-29
-2.4970344e-16
1.2792861e-16
2.6208536e-16
-4.025795e-16
2.2872873e-28
2.8120022e-16
-1.4385485e-16
1.4714258e-16
-3.0092469e-16
-1.5381319e-16
5.2348337e-28
1.6060407e-16
3.2808404e-16
-5.0252061e-16
9.7200831e-32
1.7451281e-16
-9.8832167e-29
1.816127e-16
1.8519492e-16
-1.0479669e-28
-5.7725322e-16
5.5722423e-32
5.9913014e-16
-4.067581e-16
8.4440393e-45
4.2151239e-16
-2.1446168e-16
2.1817666e-16
-4.4379952e-16
-2.2562962e-16
5.0932495e-28
2.3310416e-16
4.7369215e-16
2.4058923e-16
2.4433226e-16
-7.4422124e-16
0
2.5554658e-16
1.4391741e-28
-1.4598312e-28
1.4800623e-28
-2.7041286e-16
3.0429803e-28
-2.7778425e-16
9.3735596e-28
8.5529987e-16
-5.7746711e-16
-8.7704764e-16
-2.9594561e-16
8.9856434e-16
6.0615083e-16
-9.1981873e-16
3.1011266e-16
9.4078019e-16
0
0
-3.2386926e-16
-3.2723505e-16
0
3.3387027e-16
3.371374e-16
-6.8073868e-16
7.628187e-28
1.0401698e-15
-3.8837894e-28
-3.5292329e-16
-3.5596295e-16
-3.58961e-16
3.6191642e-16
3.6482822e-16
-3.6769542e-16
-1.1115512e-15
3.7329218e-16
1.5040795e-15
-3.7869925e-16
-7.6265876e-16
-3.8390941e-16
0
3.8891573e-16
0
3.9371154e-16
-3.9602849e-16
8.8432581e-28
-4.004966e-16
1.3409956e-27
1.2142159e-15
-4.0677307e-16
-4.0874884e-16
4.1066524e-16
4.1252162e-16
-4.1431731e-16
-1.248155e-15
4.1772406e-16
1.6773355e-15
-7.0098158e-28
-4.2236333e-16
-8.4756364e-16
-4.2513538e-16
8.5284692e-16
2.3737576e-28
6.0936291e-32
-4.2988947e-16
9.5675194e-28
4.3186316e-16
-1.2982423e-15
4.8132045e-28
8.6861689e-16
0
0
4.3612455e-16
-2.4233957e-28
-8.7396017e-16
4.373001e-16
8.7509557e-16
4.3772278e-16
-4.8592757e-28
-1.313559e-15
-4.3780475e-16
4.3767931e-16
-8.7495745e-16
2.4852133e-31
1.4550437e-27
4.3642734e-16
8.7185248e-16
-1.3060484e-15
4.8270304e-28
8.6793613e-16
0
0
-8.6264812e-16
9.5537395e-28
4.7633162e-28
1.2164236e-31
1.2801797e-15
8.5077079e-16
-7.0612299e-28
-1.2674186e-15
-4.2090164e-16
4.1925389e-16
-8.3505946e-16
-4.6140458e-28
1.3782011e-27
4.1190055e-16
8.1974529e-16
-1.2233083e-15
4.055912e-16
4.0333834e-16
-4.0101122e-16
3.9861028e-16
-7.9227197e-16
4.3694343e-28
3.9096941e-16
5.5177661e-32
7.7103213e-16
-7.6536696e-16
6.323144e-28
7.5362025e-16
-3.7377095e-16
0
3.6749197e-16
2.0213692e-28
-1.0828557e-15
3.5758652e-16
7.0831819e-16
3.5067079e-16
3.4712284e-16
-3.4351655e-16
-3.3985325e-16
-3.3613435e-16
3.323613e-16
-1.8236223e-28
1.801642e-28
-3.2073266e-16
3.5174031e-28
-3.1273868e-16
1.0280266e-27
9.1370328e-16
-6.0084113e-16
-1.649542e-45
2.9201243e-16
3.1941148e-28
-1.5738555e-28
-8.3743952e-16
2.747987e-16
8.1127494e-16
0
0
-2.5717117e-16
-2.5271681e-16
-4.9649644e-16
2.4376783e-16
4.7855619e-16
-4.6956299e-16
2.3028053e-16
6.7733312e-16
-2.2127556e-16
-2.1677662e-16
-2.1228342e-16
-2.077985e-16
4.0664882e-16
1.9886367e-16
-1.9441881e-16
-5.6997697e-16
1.855867e-16
2.2877491e-44
2.9444176e-28
3.4503903e-16
-3.364434e-16
-3.279135e-16
1.5972696e-16
3.1106913e-16
-3.0276351e-16
-1.4727066e-16
4.2961009e-16
4.175456e-16
-1.3520811e-16
-2.6256798e-16
-1.2741129e-16
6.8602809e-29
2.39654e-16
1.1611863e-16
-1.1246813e-16
-2.1775374e-16
1.4970594e-32
2.0375459e-16
-1.9694265e-16
1.5843903e-28
1.8370443e-16
-8.8640881e-17
-1.7099212e-16
-1.6483685e-16
0
7.6466879e-17
2.2078147e-16
7.0789658e-17
-6.8054585e-17
0
0
0
0
5.5416022e-17
-2.9471516e-29
-1.525233e-16
4.8655153e-17
1.3960848e-16
4.4483499e-17
-7.0778391e-29
-8.1148653e-17
-3.8716233e-17
3.692132e-17
-7.0377304e-17
-3.3517238e-17
1.0627078e-28
3.0354015e-17
5.7720026e-17
-8.2268653e-17
7.4014238e-33
2.471448e-17
-3.3311292e-33
2.2218957e-17
2.1047842e-17
-2.2121003e-29
-5.6557246e-17
5.0662973e-33
5.0531645e-17
3.1812732e-17
-8.3282959e-30
-2.8316305e-17
-1.3344791e-17
1.2570158e-17
-2.3665857e-17
-1.1131812e-17
3.4851947e-29
9.832752e-18
1.8464548e-17
-2.5988545e-17
9.0203595e-30
7.6122939e-18
7.1287994e-18
6.6716192e-18
3.4616991e-30
-3.2362368e-30
-1.0893805e-17
-2.8213137e-30
9.4843622e-18
-8.8406298e-18
2.057088e-29
1.149842e-17
-7.1307038e-18
3.6802813e-30
6.1574544e-18
-2.857917e-18
-2.6510718e-18
-4.914883e-18
2.2763141e-18
6.3210163e-18
0
0
0
-4.6055026e-18
-4.2468259e-18
3.9129648e-18
3.6024463e-18
-2.209204e-18
2.8854932e-34
-9.3230133e-19
2.8492845e-30
2.3522582e-18
-2.1541828e-18
3.2825993e-30
1.2009798e-18
3.0427708e-31
-2.776945e-31
-9.1150064e-19
4.1485122e-19
-3.7721509e-19
1.1413506e-30
9.3274253e-19
-8.4552947e-19
-2.5525485e-19
5.1285769e-31
-4.1776665e-19
3.7759374e-19
1.7061471e-19
1.5420239e-19
4.1833554e-19
-1.4014786e-31
-1.1449287e-19
-3.1232983e-19
6.3283502e-31
2.620803e-19
0
-8.2354234e-20
-1.5946562e-19
7.8363292e-20
-8.6292615e-20
3.1894844e-31
1.8566778e-19
-2.6427272e-19
2.1278933e-31
1.1541972e-31
1.0749207e-31
9.6143083e-32
-8.9550972e-20
2.8979564e-19
2.7552679e-19
-7.8211056e-20
-1.501493e-19
0
8.1897408e-20
-7.3334287e-32
1.2518472e-31
-7.1403849e-32
-7.1270073e-20
5.8107555e-20
4.8374417e-20
-2.007696e-19
8.8739123e-48
1.1917288e-31
-5.4927764e-20
7.7463657e-32
-1.8682288e-19
1.7908522e-19
1.3810337e-19
6.8623422e-20
-9.5085576e-32
-9.0230347e-20
0
0
0
-1.7661477e-19
7.8471174e-20
1.3501138e-19
-2.0806883e-19
7.3313844e-20
2.0251691e-19
-1.7175872e-19
1.821064e-31
1.1538752e-19
-1.6848158e-19
-9.8910891e-20
0
1.064116e-19
1.7288745e-31
4.4267431e-20
9.0161201e-20
-5.4859122e-20
0
-1.0539672e-19
-1.4807604e-35
-7.0118929e-32
7.7147241e-20
2.4058731e-19
-2.080748e-19
1.0437133e-31
2.0053973e-19
-2.0218001e-19
2.66757e-31
8.2417905e-20
-4.3042119e-20
4.6116754e-20
-7.8768753e-20
-3.7094716e-20
1.7737549e-31
3.9171926e-20
8.0784919e-20
4.9233047e-20
5.5524961e-20
-1.0170777e-19
-4.3139153e-20
0
5.2635651e-20
-3.0706946e-32
-2.7948109e-48
-3.9481582e-20
1.266688e-35
-5.1587232e-20
-3.5620342e-47
9.9850953e-20
-8.179629e-20
-9.4702722e-20
7.3025478e-20
6.8659296e-20
0
-5.2489184e-20
2.8891274e-20
1.0218819e-19
-1.104031e-19
5.8445484e-32
6.8258933e-20
-3.8933395e-20
0
5.0424108e-20
5.4021031e-20
-5.7071045e-20
9.8358647e-32
-1.0807181e-19
-2.546183e-35
1.1512983e-19
0
-1.0346198e-19
-6.9518086e-20
1.0925313e-19
5.9394256e-20
-6.0204506e-20
-1.623897e-20
6.7950905e-20
1.8407832e-20
-4.0451804e-20
-4.3677777e-20
2.4214364e-32
2.0921141e-20
2.133062e-20
2.2791559e-20
-2.3581321e-20
2.8140937e-32
-5.7788481e-20
1.0046301e-31
8.43486e-20
0
0
-7.9718924e-20
9.6582011e-32
4.2244952e-20
-1.07841e-19
2.3569028e-20
1.9929739e-32
3.0842599e-32
3.0831386e-20
-6.9725397e-21
1.7545193e-33
-1.3888255e-33
2.9143217e-22
-9.2951117e-22
6.4303535e-39
6.2549549e-34
-2.4048837e-33
-3.2616961e-21
0
6.0508901e-21
-2.0606199e-20
-1.4202904e-20
3.3894266e-20
0
-2.3750577e-20
2.6326482e-20
5.3978631e-20
-8.3718945e-20
9.5332988e-32
8.7932313e-32
-2.0707771e-20
4.9478988e-20
-2.623356e-36
-2.0813237e-20
-1.9540406e-20
1.6398611e-20
1.5539314e-20
-1.4628867e-20
0
5.8699387e-21
-7.2210944e-21
4.7485797e-33
-5.1816393e-22
-9.2879618e-33
-1.4729362e-32
-2.3188571e-36
-1.6382096e-20
2.2287193e-20
2.0916073e-20
0
-1.22614e-20
-1.6468651e-20
-7.4092033e-37
5.2014132e-21
4.9414833e-21
-4.596977e-21
-4.1998959e-21
3.2982229e-21
0
2.9637133e-21
1.6413139e-21
-8.0695225e-22
-6.4212083e-22
1.4571807e-21
-2.932587e-37
-4.2737819e-22
-2.5749332e-21
-2.2087819e-21
2.0747713e-33
4.162174e-22
-1.0462002e-33
-4.0519203e-21
2.1204673e-21
1.140557e-21
1.3182877e-22
-6.1622905e-22
-1.806759e-21
-2.139405e-21
-1.929412e-37
-1.1209698e-22
-8.0379859e-22
6.728242e-21
6.3579236e-21
-9.636092e-21
2.5804322e-21
4.2848396e-21
-5.6532411e-21
4.4480948e-21
-5.8731678e-21
-1.3272376e-20
2.0256088e-20
-6.626263e-21
2.5096533e-32
2.8044951e-20
-2.0305061e-20
-9.7473756e-21
-1.0466166e-20
-2.4944089e-20
1.3678818e-20
4.0018851e-75
2.2963593e-20
1.2237828e-20
-1.4824877e-32
-1.4775505e-20
-3.1162599e-20
2.8365801e-20
-1.2851955e-20
-4.116901e-20
4.5282949e-20
1.3870801e-20
-7.1996782e-49
1.2608252e-20
-4.1783056e-20
-1.421674e-20
1.2451455e-20
2.326645e-20
-1.2247349e-20
1.2142609e-20
-3.6664447e-32
-2.0354464e-20
2.9921377e-20
1.0588328e-32
-3.8175253e-32
1.7624735e-32
-1.5339855e-20
1.4331572e-20
-6.4343426e-21
-2.5078434e-20
6.4935859e-21
1.2627187e-20
0
1.133498e-20
-1.2725748e-32
-3.2964098e-36
-6.5257926e-33
-6.3527051e-21
-6.9532452e-21
7.273968e-21
7.3466651e-21
-1.48609e-20
1.5988249e-20
-9.7874283e-33
-1.885704e-20
1.9323843e-20
3.1959451e-32
-1.1099875e-32
-1.0875162e-20
-2.332522e-20
1.1945227e-20
-1.1655281e-20
6.4912278e-33
1.2234379e-20
2.5729814e-20
-1.2974907e-20
-2.4277212e-20
1.1875814e-20
-1.2417788e-20
2.1462679e-32
-1.269808e-20
-2.5104146e-32
2.171754e-20
2.3096329e-20
2.6338578e-32
-3.9199338e-32
3.7590995e-32
-1.0776768e-20
-1.0268595e-20
-9.4459576e-21
9.0562384e-21
0
0
-9.0470121e-21
4.6447481e-33
1.13047e-36
8.836736e-33
8.1479612e-21
0
-7.8234871e-21
-1.5487556e-20
7.9468131e-21
1.5770739e-20
1.4856226e-20
1.4950447e-20
-2.4206558e-20
-2.8713206e-32
2.6464187e-20
-1.7654923e-20
-1.7824582e-20
0
-9.0860046e-21
1.8376012e-20
9.4274638e-21
-1.9278469e-20
-9.6792241e-21
1.0587773e-32
2.8686319e-20
-9.8539562e-21
-3.002264e-20
2.9860215e-20
9.8860344e-21
-2.9300486e-20
1.030628e-32
8.7635847e-21
1.7912594e-20
1.0448006e-32
-1.8960969e-20
1.8524702e-20
-8.8258778e-21
-2.5947539e-20
0
8.6956491e-21
1.68327e-20
-4.3796496e-33
7.6493454e-21
1.5577682e-20
-1.5768606e-20
-1.5342637e-20
0
-6.9441378e-21
-7.6298953e-33
-7.7396245e-33
-7.597539e-33
1.9574813e-20
1.2564147e-20
0
-1.2598834e-20
-1.354918e-32
-5.7451775e-21
-1.6802303e-20
5.6906311e-21
-3.2328099e-33
8.2066887e-37
5.4588167e-21
1.0214475e-20
-4.9025351e-21
-9.895948e-21
5.1611272e-21
0
1.0320207e-20
-5.0103487e-21
-1.4797112e-20
4.9472553e-21
5.0242696e-21
1.0071703e-20
-5.0095507e-21
-1.5367039e-20
5.3412434e-21
-6.1437064e-33
-1.1242769e-20
5.6834375e-21
5.7791359e-21
1.1773392e-20
1.8003813e-20
-1.2198861e-20
-1.274418e-20
1.3628631e-20
7.932722e-33
-1.4359033e-20
1.4089499e-20
7.8745007e-33
-1.4989651e-20
0
1.6779376e-20
1.7037409e-20
0
-2.5150217e-20
-8.4214024e-21
-2.5081091e-36
-9.217587e-21
-9.4138996e-21
-1.0332089e-32
1.7584939e-20
1.7022733e-20
-2.9369174e-32
-1.8504244e-20
1.8827736e-20
3.0993101e-32
-1.8157685e-20
0
0
0
0
1.6871032e-20
8.8653633e-33
-1.5187782e-20
-7.458319e-21
1.4910041e-20
-2.4349922e-32
-1.402481e-20
1.3324541e-20
7.1450191e-33
-6.3295173e-21
1.2153444e-20
-1.8934893e-32
-1.0780282e-20
1.0609487e-20
1.0562027e-20
-1.0296924e-20
-9.8084264e-21
0
0
0
0
-4.3781794e-21
4.1302988e-21
4.0877836e-21
-4.7156829e-33
-7.6492328e-77
-4.3766252e-21
-8.490465e-21
-4.1237614e-21
8.4167399e-21
1.3364958e-20
-4.6332679e-21
-9.3073964e-21
1.3779965e-20
9.1011561e-21
-1.3960868e-20
-9.7853032e-21
-5.0739469e-21
-5.607856e-33
9.9058922e-21
0
-5.0207152e-21
5.303181e-21
-1.212553e-32
-1.5425625e-36
-1.7671436e-32
-5.180484e-21
-5.1874743e-21
1.5183227e-36
1.0942212e-20
1.0986345e-20
-1.8063167e-32
-1.0648363e-20
0
0
0
-5.1599807e-21
-5.0633416e-21
4.9993847e-21
4.9692383e-21
-4.8574226e-21
9.3574865e-21
1.3695234e-20
0
-9.1355258e-21
-4.9877922e-33
-4.3501567e-21
-1.261402e-20
4.1510321e-21
-6.9403709e-33
8.3181683e-21
-2.7058287e-32
-7.8831551e-21
-2.1546482e-33
-5.4979802e-37
3.87821e-21
-3.8962412e-21
7.8698383e-21
3.9409309e-21
-7.6463297e-21
7.3490588e-21
1.0323093e-36
-4.1737157e-33
-3.9820882e-21
-1.2380345e-20
8.2569119e-21
1.5417784e-50
3.9055447e-21
-6.5047457e-33
-8.0765967e-21
4.2403151e-21
8.7621328e-21
-4.9030536e-33
-1.3261366e-20
1.266505e-36
4.5174304e-21
-4.5926772e-21
9.2050429e-21
4.5612443e-21
-9.1537399e-21
9.3791773e-21
5.3802067e-33
-2.7353875e-32
1.074632e-32
-9.3933621e-21
9.1979707e-21
-4.6253854e-21
-9.5541595e-21
4.8635638e-21
-4.8473471e-21
9.6374773e-21
-8.0721912e-33
-1.4599373e-20
0
0
1.3658249e-20
4.5153437e-21
-9.1826167e-21
9.3234672e-21
2.6357658e-36
-2.0059236e-32
-4.8717838e-33
-8.5860428e-21
8.4704233e-21
8.4726303e-21
-4.2690363e-21
-1.2891226e-20
-4.264571e-21
4.1259311e-21
0
0
-3.8186305e-21
2.1609512e-33
1.1787529e-20
1.0935291e-36
-7.4366761e-21
-3.6294017e-21
3.9998413e-33
1.0795071e-20
7.8738996e-33
-6.8676583e-21
0
-3.2494332e-21
6.5687221e-21
3.2899519e-21
-7.1120053e-33
-3.068895e-21
-5.8975946e-21
2.9103745e-21
0
0
0
0
-2.6390168e-21
1.437412e-33
7.7021532e-21
-2.5215327e-21
-7.3508449e-21
7.1650692e-21
2.3508332e-21
-4.6503645e-21
-2.2778713e-21
-3.6954821e-33
6.5555688e-21
-1.2274549e-36
-7.0566678e-33
-2.0637922e-21
-4.04604e-21
-2.0357543e-21
-2.3163086e-33
2.1148722e-21
2.0732064e-21
2.0162925e-21
2.0121651e-21
-4.5838125e-33
-4.2445516e-21
0
0
-2.0901179e-21
-3.6011539e-33
-3.2634231e-37
3.4261622e-37
2.4434512e-21
4.7750853e-21
4.6665084e-21
-4.7111525e-21
-2.7463405e-33
-2.6405938e-21
-8.3440553e-21
0
0
2.7381956e-21
2.710856e-21
0
-2.9421201e-21
1.7164589e-33
3.1508304e-21
-3.1046317e-21
6.0558855e-21
-9.8968516e-33
-9.0159844e-21
3.125349e-21
3.2254831e-21
6.4917741e-21
-3.1774222e-21
-9.2569323e-21
3.0439755e-21
-1.7086243e-33
6.3120792e-21
3.1733254e-21
-6.1883781e-21
5.9107077e-21
5.1631921e-50
-5.5530031e-21
0
0
5.782863e-21
-3.1270275e-33
-8.939976e-33
1.4888e-49
-7.4032699e-21
-2.7264186e-33
2.4883941e-21
4.9569621e-21
4.7960046e-21
-4.5536033e-21
-4.8223002e-33
-2.1349839e-21
-7.1621528e-33
2.1500683e-21
-4.1913236e-21
0
-1.9495515e-21
2.1489533e-33
1.9569846e-21
3.9145193e-21
2.1035827e-33
-3.6411035e-21
0
0
-1.8472e-21
1.0420182e-33
5.5849083e-21
2.0158871e-33
-3.5668111e-21
0
1.7991498e-21
-1.8366708e-21
-1.8698972e-21
-1.8808497e-21
-1.8826365e-21
3.7890661e-21
5.7501647e-21
-1.9411723e-21
-3.9101197e-21
5.8957485e-21
-1.3780563e-50
-4.0401324e-21
0
0
0
0
4.1728063e-21
4.1521714e-21
-2.0623923e-21
-6.2360634e-21
-2.3703373e-33
2.1908692e-21
-4.4046608e-21
-4.2956201e-21
2.079572e-21
8.3144314e-21
4.3020901e-21
-6.7397793e-21
-4.5586733e-21
6.6458952e-21
4.716326e-33
-4.1342813e-21
0
0
0
4.5650271e-21
2.4969336e-33
-4.8725834e-33
2.1583675e-21
-6.4123648e-21
2.1341162e-21
2.161232e-21
-6.6231015e-21
-4.4766803e-21
2.2310791e-21
4.3574438e-21
4.2325852e-21
-6.9899646e-33
2.3757044e-33
-6.2610892e-37
-4.4593962e-21
0
-2.130752e-21
-2.1008063e-21
2.1158882e-21
2.1615403e-21
-2.1873296e-21
-2.1689371e-21
4.2641781e-21
2.1151537e-21
-2.1234867e-21
2.1380344e-21
-2.1265604e-21
-4.1887037e-21
0
0
6.0854584e-21
2.0095119e-21
-4.0015976e-21
-2.0047824e-21
-1.9979568e-21
3.9035873e-21
-2.0975794e-33
-3.6803747e-21
0
1.8094098e-21
5.338442e-21
3.8314925e-33
-9.2906573e-33
3.2950259e-21
-4.8855467e-21
-1.5817757e-21
-4.2564893e-37
1.4153552e-21
-2.3001845e-33
-2.3027347e-33
4.1023795e-21
-3.9093868e-21
6.0095306e-33
-1.8646421e-33
-2.1814043e-21
1.0925039e-21
-1.0776502e-21
2.0454044e-21
9.4934358e-22
-1.7905657e-21
1.7481751e-21
-4.902363e-37
-6.4253387e-33
-4.326636e-37
-4.7190196e-33
1.404903e-21
-2.1747746e-21
-4.9178786e-33
2.1369095e-21
-1.3048563e-21
-1.2089242e-21
1.1896412e-21
-2.0217817e-33
-1.8535073e-21
6.8433896e-34
1.8224102e-21
-3.3926099e-37
-1.1532733e-21
1.0801668e-21
1.6981793e-33
-1.6961675e-33