-1.25 	300 	0.08387111227542891 	101359.2273552964
-1.247497497497497 	300.0267496340579 	0.08465617039484276 	101359.7220584454
-1.244994994994995 	300.0296997038922 	0.08624140445848795 	101360.2046235286
-1.242492492492492 	300.0301808892691 	0.08750514147283545 	101360.6830392739
-1.23998998998999 	300.0305791616591 	0.08856224057456974 	101361.1551708642
-1.237487487487487 	300.0309726664483 	0.08971931818683583 	101361.6206859881
-1.234984984984985 	300.0313604948769 	0.09084314200854503 	101362.0793017375
-1.232482482482482 	300.0317423776471 	0.09194984631914724 	101362.5308881776
-1.22997997997998 	300.0321184042294 	0.09304124587630611 	101362.9755496125
-1.227477477477477 	300.0324885992158 	0.09411362179076876 	101363.413316004
-1.224974974974975 	300.0328528018393 	0.09516499208299431 	101363.844002178
-1.222472472472472 	300.0332108750201 	0.09620088306907612 	101364.2674338396
-1.21996996996997 	300.0335628526792 	0.09722363471525923 	101364.6836573184
-1.217467467467467 	300.0339088140227 	0.09823088853621453 	101365.0927781884
-1.214964964964965 	300.0342486833734 	0.09921430516422049 	101365.4946945612
-1.212462462462462 	300.0345822332984 	0.1001765520713851 	101365.8891314193
-1.20995995995996 	300.0349092687862 	0.101122151188546 	101366.2758668217
-1.207457457457457 	300.0352297459701 	0.102052365925813 	101366.654850439
-1.204954954954955 	300.0355437037763 	0.1029656375549733 	101367.0261240827
-1.202452452452452 	300.0358511121738 	0.1038546205746144 	101367.3896537387
-1.19994994994995 	300.036151888534 	0.1047224477303139 	101367.7453443208
-1.197447447447447 	300.0364460490295 	0.1055734840266881 	101368.0932143207
-1.194944944944945 	300.0367336578227 	0.1064090786567378 	101368.4333370876
-1.192442442442442 	300.0370146567567 	0.1072262611572134 	101368.7656397387
-1.18993993993994 	300.0372888824326 	0.1080185630098712 	101369.0899312739
-1.187437437437437 	300.0375561636818 	0.1087902987934298 	101369.4060124518
-1.184934934934935 	300.0378163886535 	0.1095436636865558 	101369.7137488991
-1.182432432432432 	300.038069576362 	0.110277754103122 	101370.0131633758
-1.17992992992993 	300.0383157701954 	0.1109921268415119 	101370.3043100135
-1.177427427427427 	300.0385549001503 	0.1116843000716425 	101370.5871070886
-1.174924924924925 	300.0387869258672 	0.1123555800920237 	101370.8615017986
-1.172422422422422 	300.0390118848692 	0.1130068053845884 	101371.1275358825
-1.16991991991992 	300.0392297575748 	0.1136382170912131 	101371.3851899675
-1.167417417417417 	300.0394404828421 	0.1142492567911518 	101371.6343963558
-1.164914914914915 	300.0396439578595 	0.114838451212236 	101371.8750341911
-1.162412412412412 	300.039840036935 	0.1154062395401036 	101372.1069261419
-1.15990990990991 	300.0400287040341 	0.1159525518556356 	101372.3300473745
-1.157407407407407 	300.0402100302512 	0.1164778471168065 	101372.544481299
-1.154904904904904 	300.0403839819422 	0.1169819177157527 	101372.7501925277
-1.152402402402403 	300.0405504988329 	0.1174642991621157 	101372.9471156535
-1.1498998998999 	300.0407095495286 	0.1179251319468361 	101373.1352159006
-1.147397397397397 	300.0408611072548 	0.1183637590289728 	101373.314459496
-1.144894894894895 	300.0410052048348 	0.1187809841867604 	101373.484880053
-1.142392392392392 	300.0411418208128 	0.1191765799371175 	101373.6464468961
-1.13988988988989 	300.0412708315852 	0.1195506163195467 	101373.799013241
-1.137387387387387 	300.0413921825605 	0.1199028011402038 	101373.9425158377
-1.134884884884885 	300.0415058940191 	0.1202316420826464 	101374.0769815403
-1.132382382382382 	300.0416119835029 	0.1205385600136748 	101374.2024339422
-1.12987987987988 	300.0417104521197 	0.1208234968978034 	101374.3188750563
-1.127377377377377 	300.0418012514288 	0.1210873293893152 	101374.4262492306
-1.124874874874875 	300.0418843382025 	0.1213290990782978 	101374.5245049755
-1.122372372372372 	300.0419597404227 	0.1215461861459118 	101374.6136749794
-1.11986986986987 	300.0420274655863 	0.1217413599884857 	101374.6937681735
-1.117367367367367 	300.0420874452993 	0.1219146461083081 	101374.7647019564
-1.114864864864865 	300.042139629664 	0.12206815911639 	101374.8264183025
-1.112362362362362 	300.0421840267844 	0.1221992048097658 	101374.8789256328
-1.10985985985986 	300.0422206637526 	0.1223029181141845 	101374.9222557041
-1.107357357357357 	300.0422495671893 	0.1223850701974331 	101374.9564407123
-1.104854854854855 	300.0422707194821 	0.1224459754425138 	101374.9814583562
-1.102352352352353 	300.0422840914668 	0.1224867759558227 	101374.9972754959
-1.09984984984985 	300.042289713163 	0.1225050816283465 	101375.0039265044
-1.097347347347347 	300.0422875799921 	0.1224960569583798 	101375.0014055766
-1.094844844844845 	300.0422776283527 	0.1224653702168197 	101374.9896397311
-1.092342342342342 	300.0422598464919 	0.1224137362492417 	101374.9686135
-1.08983983983984 	300.0422342612567 	0.1223414572914156 	101374.9383587602
-1.087337337337337 	300.0422009207979 	0.1222473304997594 	101374.8989327883
-1.084834834834835 	300.0421598630317 	0.1221273029925387 	101374.8503800294
-1.082332332332332 	300.0421110628416 	0.1219842855844726 	101374.7926706483
-1.07982982982983 	300.0420545122603 	0.1218198097843172 	101374.7257951966
-1.077327327327327 	300.0419902696245 	0.1216338520762399 	101374.649823417
-1.074824824824825 	300.0419183233327 	0.1214272974551897 	101374.5647415082
-1.072322322322323 	300.0418386116051 	0.1211965418278593 	101374.470476095
-1.06981981981982 	300.0417511188083 	0.1209405297238711 	101374.3670082013
-1.067317317317317 	300.0416558909149 	0.1206634869055106 	101374.2543925363
-1.064814814814815 	300.0415530207165 	0.120366456183402 	101374.1327395489
-1.062312312312312 	300.041442570175 	0.1200494680724954 	101374.0021224982
-1.05980980980981 	300.0413244821502 	0.1197092299233064 	101373.8624731848
-1.057307307307307 	300.0411987808873 	0.1193432930029021 	101373.7138198026
-1.054804804804805 	300.041065607695 	0.1189554907253713 	101373.5563299281
-1.052302302302302 	300.0409249728203 	0.1185470669657843 	101373.3900163629
-1.0497997997998 	300.0407767477532 	0.1181175896493709 	101373.2147273175
-1.047297297297297 	300.0406208868131 	0.1176661249200211 	101373.0304082105
-1.044794794794795 	300.0404574244952 	0.1171916422008957 	101372.8370992362
-1.042292292292292 	300.0402865004332 	0.1166960001056697 	101372.6349664539
-1.03978978978979 	300.0401082756923 	0.1161804816554057 	101372.4242008699
-1.037287287287287 	300.0399226789186 	0.1156444908054741 	101372.2047170476
-1.034784784784785 	300.0397295949861 	0.1150874275220733 	101371.9763787681
-1.032282282282283 	300.0395292509518 	0.1145079106936005 	101371.7394550145
-1.02977977977978 	300.039321888481 	0.1139056769173338 	101371.4942323072
-1.027277277277277 	300.0391073738734 	0.1132822669741195 	101371.2405520157
-1.024774774774775 	300.0388854909841 	0.1126381057278292 	101370.9781574946
-1.022272272272272 	300.0386562413785 	0.1119745272147881 	101370.7070523222
-1.01976976976977 	300.0384198156459 	0.1112903880306527 	101370.4274625494
-1.017267267267267 	300.0381764340932 	0.1105844194723057 	101370.1396472953
-1.014764764764765 	300.0379261134999 	0.1098592550488417 	101369.8436246513
-1.012262262262262 	300.0376687046171 	0.1091149067077164 	101369.5392189738
-1.00975975975976 	300.037404219972 	0.1083525757661602 	101369.2264495555
-1.007257257257257 	300.0371329355484 	0.1075689036720669 	101368.9056414914
-1.004754754754755 	300.0368551236349 	0.1067612040628646 	101368.5771124335
-1.002252252252252 	300.0365706415218 	0.1059345088300118 	101368.2406920742
-0.9997497497497498 	300.0362790573662 	0.1050889403982467 	101367.8958734978
-0.9972472472472473 	300.035980519934 	0.1042270046466699 	101367.5428398938
-0.9947447447447449 	300.0356756390466 	0.1033452583875913 	101367.1823098408
-0.9922422422422421 	300.0353643695048 	0.1024402500507508 	101366.8142213848
-0.9897397397397399 	300.035046349768 	0.1015183338997773 	101366.4381426918
-0.9872372372372376 	300.0347218081166 	0.1005791051643694 	101366.0543489385
-0.9847347347347346 	300.0343910322674 	0.09962435935043193 	101365.6631931126
-0.9822322322322323 	300.0340540411576 	0.09865006281791708 	101365.2646996425
-0.9797297297297296 	300.0337108076216 	0.09765216754862237 	101364.8588261113
-0.9772272272272275 	300.0333611884558 	0.09663761396839229 	101364.4453906082
-0.9747247247247248 	300.0330053059209 	0.0956069468974199 	101364.0245359596
-0.9722222222222224 	300.0326434739803 	0.0945595928548188 	101363.5966470435
-0.9697197197197196 	300.0322755337731 	0.09349438124112928 	101363.1615505059
-0.9672172172172175 	300.0319014938519 	0.09241023934882195 	101362.7192587262
-0.9647147147147147 	300.0315217630772 	0.09130972555672066 	101362.2702421622
-0.9622122122122124 	300.0311363514146 	0.09019341565640582 	101361.8144955468
-0.9597097097097099 	300.0307451978596 	0.08906130206397603 	101361.3519403555
-0.9572072072072073 	300.0303484499305 	0.08791240892792672 	101360.8827603585
-0.9547047047047047 	300.0299459982173 	0.08674595357925266 	101360.4068448367
-0.9522022022022023 	300.0295378893202 	0.08556312265311802 	101359.9242630131
-0.9496996996996998 	300.029124348602 	0.08436494980280344 	101359.4352800852
-0.9471971971971973 	300.0287054213639 	0.08315195398946088 	101358.9399345114
-0.9446946946946947 	300.0282811467923 	0.08192436603943982 	101358.4382536836
-0.9421921921921923 	300.0278516455324 	0.08068036229523835 	101357.9303691709
-0.93968968968969 	300.0274170227517 	0.07941999025776805 	101357.4164100357
-0.9371871871871872 	300.0269776317515 	0.07814654266898538 	101356.8968099588
-0.9346846846846848 	300.0265336082224 	0.07686042429675136 	101356.3717457124
-0.9321821821821823 	300.0260845374459 	0.07556139184570039 	101355.8407372189
-0.9296796796796799 	300.0256300026076 	0.07424588676791428 	101355.3032931209
-0.9271771771771771 	300.0251703440373 	0.07291258742483764 	101354.7598082607
-0.9246746746746748 	300.0247064238941 	0.07156772421800581 	101354.2112892636
-0.9221721721721724 	300.0242387413149 	0.07021296580848016 	101353.658311675
-0.9196696696696698 	300.0237667115322 	0.06884651332063933 	101353.1001728215
-0.9171671671671672 	300.0232894381095 	0.06746489510160793 	101352.5358102231
-0.9146646646646649 	300.0228069775592 	0.0660664047148732 	101351.9652959703
-0.9121621621621623 	300.0223206317986 	0.06465655839330552 	101351.3901771375
-0.9096596596596597 	300.0218315206995 	0.06323943086715327 	101350.811785172
-0.9071571571571573 	300.0213395392224 	0.06181374607261574 	101350.2300011458
-0.9046546546546547 	300.0208432118212 	0.06037639182304894 	101349.6430837189
-0.9021521521521524 	300.0203412299529 	0.05892237589167836 	101349.0494888125
-0.8996496496496498 	300.0198339012359 	0.05745217256690546 	101348.4495831538
-0.8971471471471473 	300.0193231526025 	0.0559726939765351 	101347.8456455422
-0.894644644644645 	300.0188107255543 	0.0544879327621261 	101347.2397343672
-0.892142142142142 	300.0182967270474 	0.05300065494505998 	101346.6319752054
-0.8896396396396397 	300.0177796429289 	0.05150301194514136 	101346.0205729051
-0.8871371371371374 	300.017257682892 	0.04998814939133121 	101345.4034103684
-0.8846346346346349 	300.0167304157059 	0.04846024381569956 	101344.779977446
-0.8821321321321324 	300.0161990016685 	0.04692137243063361 	101344.1516460353
-0.8796296296296297 	300.0156652438003 	0.04537867614070323 	101343.5205503576
-0.8771271271271271 	300.0151304615881 	0.04383095873008842 	101342.8882500146
-0.8746246246246248 	300.0145947927859 	0.0422755954742052 	101342.2549055127
-0.8721221221221224 	300.0140571068357 	0.04071634055777642 	101341.6191779401
-0.8696196196196196 	300.0135159529949 	0.03914821238914938 	101340.9793492204
-0.8671171171171175 	300.012970417133 	0.03756987583157874 	101340.334340018
-0.8646146146146148 	300.0124205621472 	0.03597819402937075 	101339.6842271692
-0.8621121121121121 	300.0118674716143 	0.03437407380653345 	101339.0302945797
-0.8596096096096097 	300.0113127407551 	0.03276677886331164 	101338.3744291495
-0.857107107107107 	300.0107576044337 	0.03115916610891926 	101337.7180905198
-0.8546046046046049 	300.0102024368656 	0.02955184911129859 	101337.0617185368
-0.8521021021021022 	300.0096464593903 	0.02794115334198417 	101336.4043892196
-0.8495995995995997 	300.0090885526137 	0.02632394471661952 	101335.7447785456
-0.8470970970970974 	300.008528407993 	0.0247009492586154 	101335.082521755
-0.8445945945945946 	300.007966189937 	0.02307171502768214 	101334.4178154506
-0.8420920920920922 	300.0074016758266 	0.02143657339139007 	101333.7503994298
-0.8395895895895897 	300.0068348895315 	0.01979458563547628 	101333.0803031761
-0.8370870870870872 	300.0062660791696 	0.01814629839638286 	101332.407820275
-0.8345845845845846 	300.0056957408574 	0.01649442728973497 	101331.7335363758
-0.8320820820820823 	300.0051243884998 	0.01483973571944326 	101331.0580573822
-0.8295795795795798 	300.0045522001492 	0.01318221897907835 	101330.3815916301
-0.8270770770770772 	300.0039786106796 	0.01152145953984213 	101329.7034696185
-0.8245745745745746 	300.0034040240374 	0.009857217099514251 	101329.0241691129
-0.8220720720720721 	300.0028288927701 	0.008190656273168085 	101328.3442265923
-0.8195695695695699 	300.0022538539533 	0.006524086112249499 	101327.6643970462
-0.817067067067067 	300.0016792989142 	0.004858850118829877 	101326.9851432242
-0.8145645645645651 	300.0011056860654 	0.0031961856927772 	101326.3070077687
-0.8120620620620621 	300.0005321839282 	0.001536540216768527 	101325.6290085042
-0.8095595595595597 	299.9999600704378 	0.0007681164854051195 	101324.9526557238
-0.8070570570570572 	299.9993882611773 	0.001778918947148049 	101324.2766671286
-0.8045545545545546 	299.998815900038 	0.003436154862190698 	101323.6000303346
-0.8020520520520523 	299.9982431683201 	0.005094589094849688 	101322.9229588183
-0.7995495495495494 	299.9976702708091 	0.006753275942948228 	101322.2456934145
-0.7970470470470474 	299.997097424566 	0.008412483362152796 	101321.5684887397
-0.7945445445445446 	299.9965248677109 	0.01007235334849637 	101320.8916278918
-0.7920420420420423 	299.9959528212288 	0.01173050751714729 	101320.2153739626
-0.7895395395395397 	299.9953814242442 	0.01338672599474912 	101319.5398916076
-0.7870370370370371 	299.9948107684829 	0.01503918771236967 	101318.8652891556
-0.7845345345345348 	299.9942409797292 	0.01668907254545011 	101318.1917152217
-0.7820320320320323 	299.9936722099897 	0.01833713740559441 	101317.519349112
-0.7795295295295296 	299.9931045932358 	0.01998074174094339 	101316.848349188
-0.7770270270270272 	299.9925382344496 	0.02162056311080244 	101316.1788395278
-0.7745245245245247 	299.9919732387021 	0.02325421138694514 	101315.5109440106
-0.7720220220220222 	299.9914097486671 	0.02488580117482415 	101314.8448313106
-0.7695195195195199 	299.9908478986652 	0.02651692352538603 	101314.1806609553
-0.767017017017017 	299.9902877389662 	0.02814150076895555 	101313.5184921812
-0.7645145145145147 	299.9897292849472 	0.02975990496864659 	101312.8583428242
-0.7620120120120122 	299.9891726323461 	0.03136901159147824 	101312.2003263794
-0.7595095095095097 	299.9886179708691 	0.03297425372227844 	101311.5446661621
-0.7570070070070072 	299.9880654765278 	0.03457789405570839 	101310.8915713464
-0.7545045045045048 	299.9875152179725 	0.03617272071884637 	101310.2411224462
-0.7520020020020022 	299.986967213992 	0.03775981771834928 	101309.5933410748
-0.7494994994994997 	299.9864215810078 	0.03933739995388086 	101308.9483647823
-0.7469969969969972 	299.9858785227009 	0.04090991758694471 	101308.3064346457
-0.7444944944944945 	299.9853381544793 	0.04247880255343542 	101307.6676885067
-0.7419919919919924 	299.9848004443568 	0.04403799703009031 	101307.0320877027
-0.7394894894894897 	299.9842653756788 	0.04558806419834271 	101306.3996120012
-0.7369869869869872 	299.9837331216862 	0.04712821892913052 	101305.7704653658
-0.7344844844844846 	299.9832039703385 	0.04866055286901007 	101305.144988185
-0.7319819819819822 	299.9826780671162 	0.0501855035087772 	101304.5233538184
-0.7294794794794797 	299.9821553454217 	0.05170030076215602 	101303.9054834627
-0.7269769769769773 	299.9816357728368 	0.05320517766156996 	101303.291338392
-0.7244744744744747 	299.9811195457584 	0.0546993586934116 	101302.6811503858
-0.721971971971972 	299.980606932675 	0.05618430439664521 	101302.0752360348
-0.7194694694694695 	299.9800980095368 	0.05765990807539259 	101301.4736853349
-0.7169669669669674 	299.9795926816122 	0.05912436179972866 	101300.876386573
-0.7144644644644647 	299.9790909599146 	0.06057774028193193 	101300.2833531626
-0.711961961961962 	299.9785930834586 	0.06201921062356614 	101299.6948684605
-0.7094594594594597 	299.9780992886323 	0.06344978835253345 	101299.1112119167
-0.7069569569569573 	299.9776095930771 	0.06486899285699063 	101298.5324028162
-0.7044544544544545 	299.9771239386164 	0.06627581494330839 	101297.9583704881
-0.7019519519519523 	299.976642430744 	0.06767055811194479 	101297.3892401476
-0.6994494494494495 	299.9761652972798 	0.06905234712066523 	101296.825282462
-0.6969469469469471 	299.9756926659526 	0.07042187038663522 	101296.266649956
-0.6944444444444446 	299.9752245073333 	0.07177836343813894 	101295.7133086922
-0.6919419419419421 	299.9747608180853 	0.07312149164482021 	101295.1652523276
-0.6894394394394396 	299.9743017517384 	0.07445162088985895 	101294.6226613147
-0.6869369369369374 	299.9738474950898 	0.07576752909555944 	101294.0857558343
-0.6844344344344344 	299.9733981111036 	0.07706966137308548 	101293.5546098067
-0.6819319319319321 	299.9729535992984 	0.07835704126049384 	101293.0292233959
-0.6794294294294296 	299.9725140262198 	0.07963009204411844 	101292.5096770731
-0.6769269269269272 	299.9720795393541 	0.08088925589716778 	101291.9961465319
-0.6744244244244245 	299.9716502778769 	0.08213287487993166 	101291.4887962593
-0.6719219219219222 	299.9712262848637 	0.08336138606256266 	101290.987676239
-0.6694194194194195 	299.9708075683881 	0.08457347470731301 	101290.4927916325
-0.6669169169169172 	299.970394215673 	0.08577057351830972 	101290.0042449661
-0.6644144144144146 	299.9699863418464 	0.08695329297429176 	101289.5221751746
-0.661911911911912 	299.9695840114541 	0.08811914088376023 	101289.0466573636
-0.6594094094094097 	299.9691872786954 	0.08926868187999283 	101288.577757671
-0.656906906906907 	299.9687962001051 	0.09039958990239991 	101288.1155450149
-0.6544044044044046 	299.9684108563667 	0.09151520528767429 	101287.6601128167
-0.6519019019019021 	299.968031400178 	0.09261656793883023 	101287.2116425925
-0.6493993993993996 	299.9676579336854 	0.09369908306010927 	101286.7702545448
-0.6468968968968971 	299.9672904394481 	0.09476375080574602 	101286.3359244178
-0.6443943943943946 	299.9669289576392 	0.0958073312979974 	101285.9087002433
-0.6418918918918921 	299.966573592578 	0.09683590691314124 	101285.4887044834
-0.6393893893893897 	299.9662243828307 	0.09785118176047637 	101285.075982637
-0.6368868868868871 	299.9658813667101 	0.09884590342507808 	101284.6705798802
-0.6343843843843846 	299.9655446021041 	0.09982174372900313 	101284.2725661192
-0.6318818818818821 	299.9652141537699 	0.1007758390783272 	101283.8820175524
-0.6293793793793795 	299.9648901753395 	0.1017135833790786 	101283.4991176955
-0.6268768768768773 	299.964572791722 	0.1026363040013026 	101283.1240166237
-0.6243743743743745 	299.9642618950731 	0.1035373235200361 	101282.7567098214
-0.6218718718718721 	299.9639577034525 	0.1044184463331961 	101282.3972167298
-0.6193693693693696 	299.9636602635633 	0.1052790130372593 	101282.0455910134
-0.6168668668668671 	299.9633694235675 	0.106121359934468 	101281.7018411274
-0.6143643643643645 	299.9630852604765 	0.1069458910867637 	101281.3660125786
-0.6118618618618621 	299.9628078352453 	0.1077500083753184 	101281.0381459418
-0.6093593593593596 	299.96253720014 	0.1085342779396673 	101280.7183027534
-0.6068568568568571 	299.962273514382 	0.1092975495474427 	101280.4066706839
-0.6043543543543546 	299.9620169138752 	0.110040980674842 	101280.1034100763
-0.6018518518518521 	299.961767427101 	0.1107643399533613 	101279.8085556819
-0.5993493493493496 	299.961525053815 	0.11146635913444 	101279.5221095192
-0.5968468468468471 	299.9612897807257 	0.1121478477916083 	101279.2440584068
-0.5943443443443446 	299.9610616193663 	0.1128081542007013 	101278.9744146596
-0.591841841841842 	299.9608406118601 	0.1134484697064166 	101278.7132278959
-0.5893393393393397 	299.9606267540877 	0.1140685217833045 	101278.460493612
-0.5868368368368371 	299.960420056364 	0.114667560106884 	101278.2162225617
-0.5843343343343346 	299.9602206384443 	0.1152458976973227 	101277.9805554665
-0.5818318318318321 	299.9600286404869 	0.1158022750312717 	101277.7536565537
-0.5793293293293297 	299.9598441117162 	0.1163371707238946 	101277.5355832108
-0.5768268268268271 	299.9596670300368 	0.116849982664686 	101277.3263098735
-0.5743243243243245 	299.9594973693292 	0.1173407745265139 	101277.1258060479
-0.5718218218218221 	299.9593351728118 	0.1178102927095981 	101276.934122596
-0.5693193193193196 	299.9591805196496 	0.1182577287621207 	101276.7513531302
-0.5668168168168171 	299.9590333983959 	0.1186839596829551 	101276.5774850277
-0.5643143143143147 	299.9588937608066 	0.1190883254006615 	101276.412461355
-0.5618118118118121 	299.958761675176 	0.1194713431117127 	101276.2563625284
-0.5593093093093094 	299.9586372582942 	0.119833288668384 	101276.1093289868
-0.5568068068068072 	299.9585205341664 	0.1201723406208298 	101275.9713875954
-0.5543043043043046 	299.9584114209027 	0.1204888350757262 	101275.8424409527
-0.551801801801802 	299.9583098442592 	0.1207816169793555 	101275.7224012725
-0.5492992992992995 	299.9582159051813 	0.1210522708747617 	101275.611387063
-0.5467967967967969 	299.9581298029943 	0.1213017708238958 	101275.5096345992
-0.5442942942942947 	299.9580515604571 	0.1215283083769323 	101275.4171704822
-0.5417917917917919 	299.9579810101129 	0.1217326944383612 	101275.3337971485
-0.5392892892892895 	299.957918099814 	0.1219132048071868 	101275.2594526701
-0.536786786786787 	299.9578629741325 	0.1220728546533569 	101275.1943073572
-0.5342842842842846 	299.9578157766555 	0.1222123543772418 	101275.1385323218
-0.531781781781782 	299.957776416213 	0.1223278116055197 	101275.0920188026
-0.5292792792792794 	299.9577446296581 	0.1224199755015162 	101275.0544558821
-0.526776776776777 	299.9577203852407 	0.1224852596629573 	101275.0258058781
-0.5242742742742745 	299.9577040135896 	0.1225308365600143 	101275.006458518
-0.521771771771772 	299.9576957273526 	0.1225585537458157 	101274.9966682543
-0.5192692692692695 	299.9576953438695 	0.1225608194965193 	101274.9962178589
-0.516766766766767 	299.95770258854 	0.1225397747108509 	101275.0047814949
-0.5142642642642645 	299.9577174712462 	0.122492343431163 	101275.0223708903
-0.511761761761762 	299.9577402648681 	0.1224256717861245 	101275.0493093447
-0.5092592592592596 	299.9577710805651 	0.1223411290201814 	101275.0857292592
-0.506756756756757 	299.9578096207948 	0.1222308174315216 	101275.131277832
-0.5042542542542544 	299.9578556562204 	0.1220969551929718 	101275.1856835843
-0.5017517517517521 	299.9579093838952 	0.1219388136910754 	101275.2491794242
-0.4992492492492494 	299.957971047497 	0.1217597444758541 	101275.3220541088
-0.496746746746747 	299.9580406082911 	0.1215600803845903 	101275.4042624491
-0.4942442442442445 	299.9581178724163 	0.1213366137969872 	101275.4955746048
-0.4917417417417421 	299.958202676888 	0.1210905295459352 	101275.5957972571
-0.4892392392392395 	299.9582951632868 	0.1208212829503082 	101275.7050977734
-0.486736736736737 	299.9583955291528 	0.120531002704718 	101275.823710584
-0.4842342342342345 	299.958503573691 	0.120219357163705 	101275.9513990244
-0.481731731731732 	299.9586190785215 	0.1198845609962313 	101276.0879039568
-0.4792292292292296 	299.9587421998484 	0.1195277324220824 	101276.2334096263
-0.4767267267267268 	299.9588729650081 	0.1191482105526029 	101276.3879484109
-0.4742242242242246 	299.9590112969339 	0.1187473700963626 	101276.5514296331
-0.471721721721722 	299.9591572039962 	0.1183252196520061 	101276.7238645071
-0.4692192192192195 	299.9593105220973 	0.1178808403665435 	101276.9050583782
-0.4667167167167169 	299.9594712836739 	0.1174147574468146 	101277.0950485264
-0.4642142142142145 	299.9596397998503 	0.1169264297678111 	101277.2942018563
-0.461711711711712 	299.9598158656522 	0.1164169099412272 	101277.5022778052
-0.4592092092092094 	299.9599991037986 	0.1158860437795046 	101277.7188314468
-0.456706706706707 	299.9601895240068 	0.1153342589967082 	101277.9438742749
-0.4542042042042045 	299.9603871428013 	0.1147619018514812 	101278.1774249518
-0.451701701701702 	299.9605921404298 	0.1141675511154662 	101278.4196945326
-0.4491991991991995 	299.9608047009576 	0.1135521432197943 	101278.6709015137
-0.4466966966966969 	299.9610244562071 	0.112915297330349 	101278.930612532
-0.4441941941941945 	299.9612511392585 	0.112258027358614 	101279.1985131246
-0.441691691691692 	299.9614848925197 	0.1115812862802517 	101279.4747710235
-0.4391891891891895 	299.9617257882339 	0.1108833320931439 	101279.759469329
-0.436686686686687 	299.9619739389765 	0.1101645311603624 	101280.0527402108
-0.4341841841841846 	299.9622293139505 	0.1094243287168737 	101280.3545483963
-0.431681681681682 	299.9624914989037 	0.1086645993939714 	101280.6644072262
-0.4291791791791794 	299.9627602103949 	0.1078867946871539 	101280.9819827762
-0.426676676676677 	299.9630354623267 	0.1070894603683564 	101281.3072894794
-0.4241741741741744 	299.9633173897198 	0.1062726090808549 	101281.6404843813
-0.421671671671672 	299.9636063842568 	0.1054338820341746 	101281.9820289124
-0.4191691691691694 	299.9639026643056 	0.1045753423805683 	101282.3321836502
-0.4166666666666669 	299.9642059287461 	0.1036982446905111 	101282.6905963315
-0.4141641641641645 	299.9645155433553 	0.1028014427014187 	101283.0565185286
-0.411661661661662 	299.9648310696233 	0.1018875041292191 	101283.429429401
-0.4091591591591594 	299.9651524153356 	0.1009532303334459 	101283.8092163843
-0.406656656656657 	299.9654802414875 	0.1000028694546449 	101284.1966594482
-0.4041541541541545 	299.9658150748855 	0.09903604461928169 	101284.5923831853
-0.401651651651652 	299.966156818586 	0.09804667925053852 	101284.9962772902
-0.3991491491491494 	299.9665047363654 	0.09703893179217415 	101285.4074740456
-0.396646646646647 	299.9668582619113 	0.09601108495026178 	101285.825302894
-0.3941441441441444 	299.9672170897579 	0.09497077437187058 	101286.2493984194
-0.3916416416416419 	299.9675817817564 	0.09391778193532598 	101286.6804214235
-0.3891391391391395 	299.9679529483049 	0.09284269331057732 	101287.1190922281
-0.3866366366366368 	299.9683309193349 	0.0917477554638923 	101287.5658062153
-0.3841341341341344 	299.96871530233 	0.09063218959328923 	101288.0201045101
-0.381631631631632 	299.96910536746 	0.08950264303055749 	101288.4811270847
-0.3791291291291294 	299.9695000558389 	0.08836156929601778 	101288.9476182026
-0.3766266266266269 	299.9698991348154 	0.08720539797365984 	101289.4192962545
-0.3741241241241244 	299.970303071505 	0.08603486111499672 	101289.8967094684
-0.371621621621622 	299.9707128990456 	0.08484615205121823 	101290.3810809912
-0.3691191191191194 	299.9711295040504 	0.08363916318621244 	101290.8734652446
-0.366616616616617 	299.9715529401759 	0.08241379486249104 	101291.3739323328
-0.3641141141141143 	299.9719820069828 	0.08117075866137267 	101291.8810650111
-0.3616116116116119 	299.9724153503872 	0.0799152805122029 	101292.3932578534
-0.3591091091091095 	299.97285220245 	0.07864918111376862 	101292.9095954228
-0.356606606606607 	299.9732925757237 	0.0773734627491314 	101293.4300870042
-0.3541041041041044 	299.9737373714452 	0.0760851179027371 	101293.955798207
-0.3516016016016019 	299.9741878316547 	0.07477992773942289 	101294.4882043262
-0.3490990990990994 	299.9746446591091 	0.07345664173554993 	101295.0281454589
-0.346596596596597 	299.9751078186922 	0.07211498639426962 	101295.5755850253
-0.3440940940940944 	299.9755762872403 	0.07075871883485974 	101296.1293112816
-0.3415915915915919 	299.9760483962195 	0.06939085397123373 	101296.6873432329
-0.3390890890890895 	299.9765230460306 	0.06801462197284396 	101297.2483709171
-0.3365865865865869 	299.9770001351953 	0.06663221730301251 	101297.8122701289
-0.3340840840840844 	299.9774803776346 	0.06524057482854909 	101298.3798887358
-0.3315815815815819 	299.9779652031407 	0.06383646625202033 	101298.9529259084
-0.3290790790790794 	299.9784557970206 	0.06241561061709342 	101299.5327934284
-0.3265765765765769 	299.9789522686823 	0.06097722458647043 	101300.1196260009
-0.3240740740740744 	299.9794542593284 	0.05952433245334032 	101300.7129968302
-0.3215715715715718 	299.9799606072431 	0.0580591995729605 	101301.3115242069
-0.3190690690690695 	299.9804694038034 	0.05658536231176508 	101301.9129403507
-0.3165665665665668 	299.980979477597 	0.05510531330090856 	101302.5158515584
-0.3140640640640644 	299.9814908218279 	0.05362203336159365 	101303.1202504349
-0.311561561561562 	299.9820040485932 	0.05213480152769924 	101303.72686942
-0.3090590590590593 	299.9825207970445 	0.05063879951328409 	101304.3376577321
-0.3065565565565568 	299.9830420942659 	0.04913010916097603 	101304.9538406013
-0.3040540540540545 	299.9835681509825 	0.04760391784653602 	101305.575670657
-0.3015515515515518 	299.9840997462219 	0.04606366542519713 	101306.2040637024
-0.2990490490490494 	299.9846364527764 	0.04451285599913308 	101306.838506544
-0.2965465465465469 	299.9851758214188 	0.04295091168133068 	101307.4760921285
-0.2940440440440444 	299.9857169088297 	0.04138256636774715 	101308.1156958439
-0.2915415415415418 	299.9862588562488 	0.03980993209368521 	101308.7562992724
-0.2890390390390395 	299.9868003700734 	0.03823868706364456 	101309.3963773312