/*--------------------------------*- C++ -*----------------------------------*\
  =========                 |
  \\      /  F ield         | OpenFOAM: The Open Source CFD Toolbox
   \\    /   O peration     | Website:  https://openfoam.org
    \\  /    A nd           | Version:  7
     \\/     M anipulation  |
\*---------------------------------------------------------------------------*/
FoamFile
{
    version     2.0;
    format      ascii;
    class       volScalarField;
    location    "0.00102";
    object      p;
}
// * * * * * * * * * * * * * * * * * * * * * * * * * * * * * * * * * * * * * //

dimensions      [1 -1 -2 0 0 0 0];

internalField   nonuniform List<scalar> 
5000
(
100255.53
100267.05
100278.86
100290.73
100302.63
100314.53
100326.44
100338.35
100350.26
100362.17
100374.07
100385.96
100397.86
100409.77
100421.68
100433.61
100445.56
100457.52
100469.49
100481.48
100493.47
100505.48
100517.49
100529.5
100541.52
100553.54
100565.56
100577.58
100589.6
100601.62
100613.64
100625.66
100637.67
100649.69
100661.7
100673.71
100685.72
100697.73
100709.74
100721.75
100733.75
100745.75
100757.76
100769.76
100781.76
100793.75
100805.75
100817.75
100829.74
100841.73
100853.72
100865.71
100877.7
100889.69
100901.67
100913.66
100925.64
100937.62
100949.6
100961.58
100973.56
100985.53
100997.51
101009.48
101021.45
101033.42
101045.39
101057.36
101069.32
101081.29
101093.25
101105.21
101117.17
101129.13
101141.09
101153.04
101165
101176.95
101188.9
101200.85
101212.8
101224.74
101236.69
101248.63
101260.58
101272.52
101284.45
101296.39
101308.33
101320.26
101332.19
101344.12
101356.05
101367.97
101379.9
101391.82
101403.74
101415.66
101427.57
101439.48
101451.39
101463.3
101475.21
101487.11
101499.01
101510.91
101522.81
101534.71
101546.6
101558.5
101570.4
101582.29
101594.18
101606.08
101617.97
101629.87
101641.77
101653.67
101665.57
101677.47
101689.37
101701.28
101713.19
101725.1
101737.01
101748.92
101760.84
101772.76
101784.68
101796.6
101808.52
101820.45
101832.38
101844.31
101856.23
101868.17
101880.1
101892.03
101903.96
101915.89
101927.83
101939.76
101951.69
101963.62
101975.56
101987.49
101999.42
102011.35
102023.28
102035.21
102047.13
102059.06
102070.98
102082.91
102094.83
102106.75
102118.67
102130.59
102142.51
102154.43
102166.34
102178.26
102190.17
102202.08
102213.99
102225.9
102237.81
102249.72
102261.62
102273.52
102285.43
102297.33
102309.23
102321.13
102333.02
102344.92
102356.81
102368.71
102380.6
102392.49
102404.38
102416.26
102428.15
102440.03
102451.92
102463.8
102475.68
102487.56
102499.44
102511.31
102523.19
102535.06
102546.94
102558.81
102570.68
102582.54
102594.41
102606.28
102618.14
102630
102641.87
102653.73
102665.59
102677.44
102689.3
102701.15
102713.01
102724.86
102736.71
102748.56
102760.41
102772.25
102784.1
102795.94
102807.79
102819.63
102831.47
102843.31
102855.14
102866.98
102878.81
102890.64
102902.47
102914.3
102926.13
102937.96
102949.78
102961.6
102973.42
102985.24
102997.06
103008.88
103020.69
103032.5
103044.32
103056.12
103067.93
103079.74
103091.54
103103.34
103115.14
103126.94
103138.74
103150.53
103162.33
103174.12
103185.91
103197.7
103209.49
103221.27
103233.06
103244.84
103256.62
103268.4
103280.18
103291.96
103303.74
103315.52
103327.29
103339.07
103350.85
103362.62
103374.4
103386.17
103397.95
103409.73
103421.5
103433.28
103445.06
103456.83
103468.61
103480.39
103492.17
103503.95
103515.73
103527.51
103539.3
103551.08
103562.87
103574.65
103586.44
103598.23
103610.01
103621.8
103633.59
103645.38
103657.17
103668.97
103680.76
103692.55
103704.34
103716.14
103727.93
103739.73
103751.52
103763.32
103775.11
103786.9
103798.7
103810.49
103822.29
103834.08
103845.87
103857.66
103869.46
103881.25
103893.04
103904.83
103916.62
103928.41
103940.19
103951.98
103963.77
103975.55
103987.34
103999.12
104010.9
104022.68
104034.46
104046.24
104058.02
104069.79
104081.57
104093.34
104105.12
104116.89
104128.66
104140.43
104152.2
104163.96
104175.73
104187.49
104199.25
104211.01
104222.77
104234.53
104246.29
104258.05
104269.8
104281.56
104293.31
104305.06
104316.81
104328.55
104340.3
104352.05
104363.79
104375.53
104387.27
104399.01
104410.75
104422.49
104434.22
104445.96
104457.69
104469.42
104481.15
104492.88
104504.6
104516.33
104528.05
104539.77
104551.49
104563.21
104574.93
104586.64
104598.36
104610.07
104621.78
104633.49
104645.2
104656.9
104668.61
104680.31
104692.01
104703.71
104715.41
104727.11
104738.8
104750.5
104762.19
104773.88
104785.57
104797.26
104808.95
104820.63
104832.32
104844
104855.68
104867.37
104879.05
104890.73
104902.4
104914.08
104925.76
104937.43
104949.11
104960.78
104972.46
104984.13
104995.8
105007.47
105019.15
105030.82
105042.49
105054.16
105065.83
105077.5
105089.17
105100.84
105112.51
105124.18
105135.85
105147.52
105159.19
105170.86
105182.53
105194.21
105205.88
105217.55
105229.22
105240.89
105252.56
105264.24
105275.91
105287.58
105299.26
105310.93
105322.6
105334.28
105345.95
105357.63
105369.3
105380.98
105392.65
105404.33
105416
105427.67
105439.35
105451.02
105462.7
105474.37
105486.05
105497.72
105509.39
105521.07
105532.74
105544.41
105556.08
105567.75
105579.42
105591.09
105602.76
105614.43
105626.1
105637.76
105649.43
105661.09
105672.76
105684.42
105696.08
105707.74
105719.4
105731.05
105742.71
105754.36
105766.02
105777.67
105789.32
105800.97
105812.61
105824.26
105835.9
105847.54
105859.18
105870.82
105882.45
105894.08
105905.71
105917.34
105928.97
105940.59
105952.21
105963.83
105975.45
105987.06
105998.67
106010.28
106021.88
106033.48
106045.08
106056.67
106068.26
106079.85
106091.43
106103.01
106114.59
106126.16
106137.73
106149.29
106160.85
106172.4
106183.95
106195.49
106207.03
106218.56
106230.08
106241.6
106253.12
106264.62
106276.12
106287.61
106299.1
106310.58
106322.05
106333.51
106344.96
106356.41
106367.84
106379.27
106390.69
106402.09
106413.49
106424.88
106436.25
106447.61
106458.96
106470.3
106481.63
106492.94
106504.24
106515.52
106526.79
106538.05
106549.29
106560.51
106571.72
106582.91
106594.08
106605.23
106616.37
106627.48
106638.58
106649.65
106660.71
106671.74
106682.75
106693.73
106704.69
106715.63
106726.54
106737.42
106748.28
106759.11
106769.91
106780.68
106791.42
106802.12
106812.8
106823.44
106834.05
106844.62
106855.15
106865.65
106876.11
106886.52
106896.9
106907.23
106917.52
106927.77
106937.97
106948.12
106958.22
106968.27
106978.28
106988.22
106998.12
107007.95
107017.73
107027.45
107037.11
107046.7
107056.24
107065.7
107075.1
107084.43
107093.69
107102.87
107111.98
107121.01
107129.96
107138.84
107147.62
107156.33
107164.95
107173.47
107181.91
107190.26
107198.51
107206.66
107214.71
107222.66
107230.5
107238.24
107245.87
107253.39
107260.79
107268.08
107275.26
107282.31
107289.23
107296.04
107302.71
107309.26
107315.67
107321.95
107328.09
107334.09
107339.94
107345.66
107351.22
107356.64
107361.9
107367.01
107371.96
107376.75
107381.38
107385.84
107390.14
107394.27
107398.23
107402.01
107405.61
107409.04
107412.28
107415.35
107418.22
107420.91
107423.4
107425.71
107427.82
107429.73
107431.44
107432.95
107434.25
107435.35
107436.24
107436.92
107437.39
107437.64
107437.68
107437.49
107437.09
107436.47
107435.62
107434.55
107433.25
107431.72
107429.96
107427.97
107425.75
107423.29
107420.6
107417.67
107414.5
107411.09
107407.44
107403.55
107399.41
107395.03
107390.4
107385.52
107380.4
107375.03
107369.41
107363.54
107357.42
107351.04
107344.42
107337.54
107330.41
107323.02
107315.38
107307.49
107299.34
107290.93
107282.27
107273.36
107264.19
107254.76
107245.08
107235.15
107224.96
107214.51
107203.81
107192.86
107181.65
107170.19
107158.47
107146.5
107134.28
107121.81
107109.09
107096.12
107082.9
107069.43
107055.71
107041.75
107027.54
107013.09
106998.39
106983.45
106968.27
106952.85
106937.19
106921.29
106905.15
106888.78
106872.18
106855.35
106838.28
106820.98
106803.46
106785.71
106767.73
106749.54
106731.12
106712.48
106693.62
106674.55
106655.26
106635.76
106616.05
106596.13
106576.01
106555.68
106535.14
106514.41
106493.48
106472.35
106451.02
106429.51
106407.8
106385.91
106363.82
106341.56
106319.11
106296.49
106273.68
106250.7
106227.55
106204.23
106180.74
106157.09
106133.27
106109.29
106085.16
106060.87
106036.42
106011.82
105987.08
105962.19
105937.15
105911.97
105886.66
105861.21
105835.63
105809.91
105784.07
105758.1
105732.01
105705.8
105679.47
105653.02
105626.46
105599.8
105573.02
105546.14
105519.16
105492.08
105464.9
105437.63
105410.27
105382.82
105355.28
105327.66
105299.96
105272.19
105244.33
105216.41
105188.42
105160.36
105132.24
105104.06
105075.82
105047.52
105019.17
104990.77
104962.33
104933.84
104905.31
104876.75
104848.15
104819.51
104790.85
104762.16
104733.45
104704.71
104675.96
104647.19
104618.41
104589.63
104560.83
104532.03
104503.24
104474.44
104445.65
104416.87
104388.1
104359.35
104330.61
104301.9
104273.21
104244.54
104215.9
104187.3
104158.73
104130.2
104101.72
104073.27
104044.88
104016.54
103988.25
103960.01
103931.84
103903.73
103875.69
103847.72
103819.82
103791.99
103764.24
103736.58
103709
103681.51
103654.11
103626.8
103599.59
103572.48
103545.48
103518.58
103491.79
103465.12
103438.56
103412.12
103385.8
103359.61
103333.55
103307.62
103281.83
103256.17
103230.65
103205.28
103180.06
103154.99
103130.07
103105.31
103080.71
103056.27
103032
103007.9
102983.97
102960.22
102936.64
102913.25
102890.04
102867.02
102844.19
102821.55
102799.12
102776.88
102754.84
102733.01
102711.38
102689.97
102668.77
102647.79
102627.02
102606.48
102586.17
102566.08
102546.22
102526.6
102507.21
102488.06
102469.14
102450.48
102432.05
102413.88
102395.96
102378.28
102360.87
102343.71
102326.81
102310.17
102293.79
102277.68
102261.84
102246.26
102230.96
102215.93
102201.14
102186.66
102172.46
102158.54
102144.89
102131.53
102118.45
102105.65
102093.13
102080.91
102068.97
102057.32
102045.95
102034.88
102024.1
102013.6
102003.4
101993.49
101983.87
101974.54
101965.51
101956.76
101948.31
101940.15
101932.28
101924.7
101917.41
101910.41
101903.7
101897.27
101891.14
101885.29
101879.73
101874.45
101869.45
101864.74
101860.31
101856.15
101852.28
101848.68
101845.35
101842.3
101839.51
101837
101834.75
101832.76
101831.04
101829.57
101828.36
101827.41
101826.71
101826.26
101826.05
101826.09
101826.37
101826.88
101827.64
101828.62
101829.83
101831.27
101832.94
101834.82
101836.92
101839.23
101841.75
101844.48
101847.41
101850.54
101853.87
101857.39
101861.11
101865
101869.08
101873.34
101877.78
101882.39
101887.16
101892.1
101897.21
101902.47
101907.88
101913.45
101919.17
101925.02
101931.02
101937.16
101943.43
101949.84
101956.37
101963.02
101969.79
101976.69
101983.69
101990.81
101998.04
102005.37
102012.8
102020.33
102027.96
102035.68
102043.49
102051.39
102059.38
102067.44
102075.59
102083.81
102092.11
102100.47
102108.91
102117.41
102125.98
102134.61
102143.3
102152.05
102160.85
102169.71
102178.62
102187.58
102196.59
102205.64
102214.73
102223.87
102233.05
102242.27
102251.53
102260.82
102270.14
102279.5
102288.89
102298.31
102307.76
102317.23
102326.73
102336.26
102345.81
102355.38
102364.98
102374.59
102384.23
102393.88
102403.55
102413.24
102422.95
102432.67
102442.4
102452.15
102461.91
102471.68
102481.47
102491.27
102501.07
102510.89
102520.71
102530.55
102540.39
102550.24
102560.1
102569.97
102579.84
102589.72
102599.6
102609.49
102619.38
102629.28
102639.18
102649.09
102659
102668.92
102678.84
102688.76
102698.68
102708.61
102718.54
102728.47
102738.4
102748.34
102758.28
102768.22
102778.16
102788.1
102798.05
102807.99
102817.94
102827.88
102837.83
102847.78
102857.73
102867.68
102877.63
102887.58
102897.54
102907.49
102917.44
102927.39
102937.34
102947.3
102957.25
102967.2
102977.16
102987.11
102997.06
103007.02
103016.97
103026.92
103036.88
103046.83
103056.78
103066.73
103076.69
103086.64
103096.59
103106.54
103116.49
103126.44
103136.39
103146.35
103156.3
103166.25
103176.2
103186.15
103196.09
103206.04
103215.99
103225.94
103235.89
103245.84
103255.78
103265.73
103275.68
103285.62
103295.57
103305.52
103315.46
103325.41
103335.35
103345.3
103355.24
103365.18
103375.13
103385.07
103395.01
103404.95
103414.9
103424.84
103434.78
103444.72
103454.66
103464.6
103474.54
103484.48
103494.42
103504.36
103514.29
103524.23
103534.17
103544.1
103554.04
103563.98
103573.91
103583.85
103593.78
103603.71
103613.65
103623.58
103633.51
103643.44
103653.37
103663.31
103673.24
103683.17
103693.1
103703.02
103712.95
103722.88
103732.81
103742.73
103752.66
103762.59
103772.51
103782.44
103792.36
103802.28
103812.21
103822.13
103832.05
103841.97
103851.89
103861.81
103871.73
103881.65
103891.56
103901.48
103911.4
103921.31
103931.23
103941.14
103951.06
103960.97
103970.88
103980.8
103990.71
104000.62
104010.53
104020.44
104030.34
104040.25
104050.16
104060.06
104069.97
104079.88
104089.78
104099.68
104109.59
104119.49
104129.39
104139.29
104149.19
104159.09
104168.98
104178.88
104188.78
104198.67
104208.57
104218.46
104228.36
104238.25
104248.14
104258.03
104267.92
104277.81
104287.7
104297.59
104307.48
104317.36
104327.25
104337.13
104347.02
104356.9
104366.78
104376.66
104386.54
104396.42
104406.3
104416.18
104426.06
104435.93
104445.81
104455.68
104465.56
104475.43
104485.3
104495.17
104505.04
104514.91
104524.78
104534.65
104544.52
104554.38
104564.25
104574.11
104583.97
104593.84
104603.7
104613.56
104623.42
104633.28
104643.14
104652.99
104662.85
104672.71
104682.56
104692.42
104702.27
104712.12
104721.97
104731.82
104741.67
104751.52
104761.37
104771.21
104781.06
104790.91
104800.75
104810.59
104820.44
104830.28
104840.12
104849.96
104859.8
104869.64
104879.47
104889.31
104899.14
104908.98
104918.81
104928.65
104938.48
104948.31
104958.14
104967.97
104977.8
104987.62
104997.45
105007.28
105017.1
105026.92
105036.75
105046.57
105056.39
105066.21
105076.03
105085.85
105095.67
105105.48
105115.3
105125.11
105134.93
105144.74
105154.55
105164.37
105174.18
105183.99
105193.79
105203.6
105213.41
105223.21
105233.02
105242.82
105252.63
105262.43
105272.23
105282.03
105291.83
105301.63
105311.43
105321.23
105331.02
105340.82
105350.61
105360.41
105370.2
105379.99
105389.78
105399.57
105409.36
105419.15
105428.94
105438.72
105448.51
105458.29
105468.08
105477.86
105487.64
105497.42
105507.2
105516.98
105526.76
105536.54
105546.31
105556.09
105565.86
105575.64
105585.41
105595.18
105604.95
105614.72
105624.49
105634.26
105644.03
105653.79
105663.56
105673.32
105683.09
105692.85
105702.61
105712.37
105722.14
105731.89
105741.65
105751.41
105761.17
105770.92
105780.68
105790.43
105800.18
105809.94
105819.69
105829.44
105839.19
105848.94
105858.68
105868.43
105878.18
105887.92
105897.67
105907.41
105917.15
105926.89
105936.63
105946.37
105956.11
105965.85
105975.59
105985.32
105995.06
106004.79
106014.52
106024.26
106033.99
106043.72
106053.45
106063.18
106072.91
106082.63
106092.36
106102.08
106111.81
106121.53
106131.25
106140.98
106150.7
106160.42
106170.13
106179.85
106189.57
106199.29
106209
106218.72
106228.43
106238.14
106247.85
106257.56
106267.27
106276.98
106286.69
106296.4
106306.11
106315.81
106325.52
106335.22
106344.92
106354.62
106364.32
106374.02
106383.72
106393.42
106403.12
106412.82
106422.51
106432.21
106441.9
106451.59
106461.28
106470.98
106480.67
106490.35
106500.04
106509.73
106519.42
106529.1
106538.79
106548.47
106558.15
106567.84
106577.52
106587.2
106596.88
106606.56
106616.23
106625.91
106635.59
106645.26
106654.93
106664.61
106674.28
106683.95
106693.62
106703.29
106712.96
106722.63
106732.29
106741.96
106751.62
106761.29
106770.95
106780.61
106790.27
106799.94
106809.59
106819.25
106828.91
106838.57
106848.22
106857.88
106867.53
106877.19
106886.84
106896.49
106906.14
106915.79
106925.44
106935.08
106944.73
106954.38
106964.02
106973.67
106983.31
106992.95
107002.59
107012.23
107021.87
107031.51
107041.15
107050.79
107060.42
107070.06
107079.69
107089.32
107098.96
107108.59
107118.22
107127.85
107137.48
107147.1
107156.73
107166.36
107175.98
107185.6
107195.23
107204.85
107214.47
107224.09
107233.71
107243.33
107252.94
107262.56
107272.18
107281.79
107291.4
107301.02
107310.63
107320.24
107329.85
107339.46
107349.06
107358.67
107368.27
107377.88
107387.48
107397.08
107406.69
107416.29
107425.88
107435.48
107445.08
107454.68
107464.27
107473.86
107483.46
107493.05
107502.64
107512.23
107521.81
107531.4
107540.98
107550.57
107560.15
107569.73
107579.31
107588.89
107598.47
107608.04
107617.62
107627.19
107636.76
107646.33
107655.9
107665.47
107675.03
107684.6
107694.16
107703.72
107713.28
107722.83
107732.39
107741.94
107751.49
107761.04
107770.59
107780.13
107789.68
107799.22
107808.76
107818.29
107827.82
107837.36
107846.88
107856.41
107865.93
107875.45
107884.97
107894.48
107904
107913.5
107923.01
107932.51
107942.01
107951.51
107961
107970.48
107979.97
107989.45
107998.93
108008.4
108017.87
108027.33
108036.79
108046.24
108055.69
108065.14
108074.58
108084.01
108093.44
108102.86
108112.28
108121.69
108131.09
108140.49
108149.88
108159.27
108168.65
108178.02
108187.38
108196.74
108206.09
108215.43
108224.76
108234.08
108243.4
108252.71
108262
108271.29
108280.57
108289.84
108299.1
108308.34
108317.58
108326.8
108336.02
108345.22
108354.41
108363.59
108372.75
108381.91
108391.04
108400.17
108409.28
108418.38
108427.46
108436.53
108445.58
108454.61
108463.63
108472.64
108481.62
108490.59
108499.54
108508.47
108517.39
108526.28
108535.16
108544.01
108552.85
108561.66
108570.46
108579.23
108587.98
108596.71
108605.41
108614.09
108622.75
108631.38
108639.98
108648.57
108657.12
108665.65
108674.15
108682.63
108691.08
108699.49
108707.88
108716.24
108724.57
108732.87
108741.14
108749.38
108757.58
108765.76
108773.9
108782
108790.07
108798.11
108806.11
108814.08
108822.01
108829.9
108837.76
108845.58
108853.36
108861.1
108868.8
108876.46
108884.08
108891.66
108899.2
108906.7
108914.16
108921.57
108928.94
108936.26
108943.54
108950.78
108957.97
108965.11
108972.21
108979.26
108986.26
108993.22
109000.13
109006.99
109013.8
109020.56
109027.27
109033.93
109040.54
109047.1
109053.61
109060.07
109066.47
109072.82
109079.12
109085.37
109091.56
109097.7
109103.79
109109.82
109115.79
109121.71
109127.58
109133.39
109139.15
109144.84
109150.49
109156.07
109161.61
109167.08
109172.5
109177.86
109183.16
109188.4
109193.59
109198.72
109203.8
109208.81
109213.77
109218.67
109223.52
109228.3
109233.03
109237.7
109242.31
109246.87
109251.36
109255.8
109260.18
109264.51
109268.78
109272.99
109277.14
109281.23
109285.27
109289.26
109293.18
109297.05
109300.87
109304.62
109308.33
109311.97
109315.57
109319.1
109322.59
109326.01
109329.39
109332.71
109335.98
109339.19
109342.35
109345.46
109348.52
109351.52
109354.47
109357.38
109360.23
109363.03
109365.79
109368.49
109371.14
109373.75
109376.31
109378.82
109381.28
109383.7
109386.07
109388.39
109390.67
109392.91
109395.1
109397.25
109399.35
109401.41
109403.43
109405.41
109407.35
109409.24
109411.1
109412.91
109414.69
109416.43
109418.13
109419.79
109421.42
109423
109424.56
109426.08
109427.56
109429.01
109430.42
109431.8
109433.15
109434.47
109435.76
109437.01
109438.23
109439.43
109440.59
109441.73
109442.83
109443.91
109444.96
109445.98
109446.98
109447.95
109448.9
109449.82
109450.72
109451.59
109452.44
109453.27
109454.07
109454.85
109455.61
109456.35
109457.07
109457.77
109458.44
109459.1
109459.74
109460.36
109460.97
109461.55
109462.12
109462.67
109463.21
109463.72
109464.23
109464.71
109465.19
109465.65
109466.09
109466.52
109466.94
109467.34
109467.73
109468.11
109468.48
109468.83
109469.17
109469.51
109469.83
109470.14
109470.44
109470.73
109471.01
109471.28
109471.54
109471.79
109472.04
109472.27
109472.5
109472.72
109472.93
109473.14
109473.33
109473.52
109473.71
109473.89
109474.06
109474.22
109474.38
109474.53
109474.68
109474.82
109474.96
109475.09
109475.21
109475.34
109475.45
109475.57
109475.67
109475.78
109475.88
109475.98
109476.07
109476.16
109476.24
109476.32
109476.4
109476.48
109476.55
109476.62
109476.69
109476.75
109476.82
109476.88
109476.93
109476.99
109477.04
109477.09
109477.14
109477.18
109477.23
109477.27
109477.31
109477.35
109477.39
109477.42
109477.46
109477.49
109477.52
109477.55
109477.58
109477.61
109477.63
109477.66
109477.68
109477.71
109477.73
109477.75
109477.77
109477.79
109477.81
109477.83
109477.84
109477.86
109477.87
109477.89
109477.9
109477.92
109477.93
109477.94
109477.95
109477.96
109477.98
109477.99
109478
109478
109478.01
109478.02
109478.03
109478.04
109478.05
109478.05
109478.06
109478.07
109478.07
109478.08
109478.08
109478.09
109478.1
109478.1
109478.11
109478.11
109478.11
109478.12
109478.12
109478.13
109478.13
109478.13
109478.14
109478.14
109478.14
109478.15
109478.15
109478.15
109478.15
109478.16
109478.16
109478.16
109478.16
109478.17
109478.17
109478.17
109478.17
109478.18
109478.18
109478.18
109478.18
109478.18
109478.18
109478.19
109478.19
109478.19
109478.19
109478.19
109478.19
109478.19
109478.19
109478.2
109478.2
109478.2
109478.2
109478.2
109478.2
109478.2
109478.2
109478.2
109478.2
109478.21
109478.21
109478.21
109478.21
109478.21
109478.21
109478.21
109478.21
109478.21
109478.21
109478.21
109478.21
109478.21
109478.21
109478.21
109478.21
109478.21
109478.21
109478.22
109478.22
109478.22
109478.22
109478.22
109478.22
109478.22
109478.22
109478.22
109478.22
109478.22
109478.22
109478.22
109478.22
109478.22
109478.22
109478.22
109478.22
109478.22
109478.21
109478.21
109478.21
109478.21
109478.21
109478.21
109478.21
109478.21
109478.21
109478.21
109478.21
109478.21
109478.21
109478.21
109478.21
109478.21
109478.21
109478.21
109478.21
109478.2
109478.2
109478.2
109478.2
109478.2
109478.2
109478.2
109478.2
109478.2
109478.2
109478.2
109478.19
109478.19
109478.19
109478.19
109478.19
109478.19
109478.19
109478.19
109478.19
109478.19
109478.18
109478.18
109478.18
109478.18
109478.18
109478.18
109478.18
109478.18
109478.17
109478.17
109478.17
109478.17
109478.17
109478.17
109478.17
109478.17
109478.16
109478.16
109478.16
109478.16
109478.16
109478.16
109478.16
109478.16
109478.15
109478.15
109478.15
109478.15
109478.15
109478.15
109478.15
109478.14
109478.14
109478.14
109478.14
109478.14
109478.14
109478.14
109478.13
109478.13
109478.13
109478.13
109478.13
109478.13
109478.13
109478.12
109478.12
109478.12
109478.12
109478.12
109478.12
109478.12
109478.12
109478.11
109478.11
109478.11
109478.11
109478.11
109478.11
109478.11
109478.1
109478.1
109478.1
109478.1
109478.1
109478.1
109478.1
109478.1
109478.09
109478.09
109478.09
109478.09
109478.09
109478.09
109478.09
109478.09
109478.09
109478.08
109478.08
109478.08
109478.08
109478.08
109478.08
109478.08
109478.08
109478.08
109478.08
109478.07
109478.07
109478.07
109478.07
109478.07
109478.07
109478.07
109478.07
109478.07
109478.07
109478.07
109478.07
109478.07
109478.07
109478.07
109478.06
109478.06
109478.06
109478.06
109478.06
109478.06
109478.06
109478.06
109478.06
109478.06
109478.06
109478.06
109478.06
109478.06
109478.06
109478.06
109478.06
109478.06
109478.06
109478.06
109478.06
109478.06
109478.06
109478.06
109478.06
109478.06
109478.06
109478.06
109478.06
109478.06
109478.06
109478.06
109478.06
109478.06
109478.06
109478.06
109478.06
109478.06
109478.06
109478.06
109478.07
109478.07
109478.07
109478.07
109478.07
109478.07
109478.07
109478.07
109478.07
109478.07
109478.07
109478.07
109478.07
109478.07
109478.07
109478.07
109478.07
109478.07
109478.07
109478.07
109478.07
109478.07
109478.07
109478.07
109478.07
109478.08
109478.08
109478.08
109478.08
109478.08
109478.08
109478.08
109478.08
109478.08
109478.08
109478.08
109478.08
109478.08
109478.08
109478.08
109478.08
109478.08
109478.08
109478.08
109478.08
109478.08
109478.09
109478.09
109478.09
109478.09
109478.09
109478.09
109478.09
109478.09
109478.09
109478.09
109478.09
109478.09
109478.09
109478.09
109478.09
109478.09
109478.09
109478.09
109478.09
109478.09
109478.09
109478.09
109478.09
109478.09
109478.1
109478.1
109478.1
109478.1
109478.1
109478.1
109478.1
109478.1
109478.1
109478.1
109478.1
109478.1
109478.1
109478.1
109478.1
109478.1
109478.1
109478.1
109478.1
109478.1
109478.1
109478.1
109478.1
109478.1
109478.1
109478.1
109478.1
109478.1
109478.1
109478.1
109478.1
109478.1
109478.1
109478.1
109478.1
109478.1
109478.1
109478.1
109478.1
109478.1
109478.1
109478.1
109478.1
109478.1
109478.1
109478.09
109478.09
109478.09
109478.09
109478.09
109478.09
109478.09
109478.09
109478.09
109478.09
109478.09
109478.09
109478.09
109478.09
109478.09
109478.09
109478.09
109478.09
109478.09
109478.09
109478.09
109478.09
109478.09
109478.09
109478.09
109478.09
109478.09
109478.09
109478.09
109478.09
109478.09
109478.09
109478.09
109478.09
109478.09
109478.09
109478.09
109478.09
109478.09
109478.09
109478.09
109478.09
109478.09
109478.09
109478.09
109478.09
109478.09
109478.09
109478.09
109478.09
109478.09
109478.09
109478.09
109478.09
109478.09
109478.09
109478.09
109478.09
109478.09
109478.09
109478.09
109478.09
109478.09
109478.09
109478.09
109478.09
109478.09
109478.09
109478.09
109478.09
109478.09
109478.09
109478.09
109478.09
109478.09
109478.09
109478.09
109478.09
109478.09
109478.09
109478.09
109478.09
109478.09
109478.09
109478.09
109478.09
109478.09
109478.09
109478.09
109478.09
109478.09
109478.09
109478.09
109478.09
109478.09
109478.09
109478.09
109478.09
109478.09
109478.09
109478.09
109478.09
109478.09
109478.09
109478.09
109478.09
109478.09
109478.09
109478.09
109478.09
109478.09
109478.09
109478.09
109478.09
109478.09
109478.09
109478.09
109478.09
109478.09
109478.09
109478.09
109478.09
109478.09
109478.09
109478.09
109478.09
109478.09
109478.09
109478.09
109478.09
109478.09
109478.09
109478.09
109478.09
109478.09
109478.09
109478.09
109478.09
109478.09
109478.09
109478.09
109478.09
109478.09
109478.09
109478.1
109478.1
109478.1
109478.1
109478.1
109478.1
109478.1
109478.1
109478.1
109478.1
109478.1
109478.1
109478.1
109478.1
109478.1
109478.1
109478.1
109478.1
109478.1
109478.1
109478.1
109478.1
109478.1
109478.1
109478.1
109478.1
109478.1
109478.1
109478.1
109478.1
109478.1
109478.1
109478.1
109478.1
109478.1
109478.1
109478.09
109478.09
109478.09
109478.09
109478.09
109478.09
109478.09
109478.1
109478.1
109478.1
109478.1
109478.1
109478.1
109478.1
109478.1
109478.1
109478.09
109478.09
109478.09
109478.09
109478.09
109478.09
109478.09
109478.09
109478.1
109478.1
109478.11
109478.11
109478.11
109478.11
109478.11
109478.1
109478.09
109478.07
109478.06
109478.06
109478.05
109478.06
109478.07
109478.09
109478.12
109478.15
109478.18
109478.19
109478.19
109478.16
109478.17
109477.95
109478.04
109478.06
109478.04
109478.04
109478.05
109478.06
109478.08
109478.09
109478.1
109478.11
109478.11
109478.11
109478.11
109478.11
109478.1
109478.1
109478.09
109478.09
109478.09
109478.09
109478.09
109478.09
109478.09
109478.09
109478.09
109478.09
109478.1
109478.1
109478.1
109478.1
109478.1
109478.09
109478.09
109478.09
109478.09
109478.09
109478.09
109478.09
109478.09
109478.09
109478.09
109478.09
109478.09
109478.09
109478.09
109478.09
109478.09
109478.09
109478.09
109478.09
109478.09
109478.09
109478.09
109478.09
109478.09
109478.09
109478.09
109478.09
109478.09
109478.09
109478.09
109478.09
109478.09
109478.09
109478.09
109478.09
109478.09
109478.09
109478.09
109478.09
109478.09
109478.09
109478.09
109478.09
109478.09
109478.09
109478.09
109478.09
109478.09
109478.09
109478.09
109478.09
109478.09
109478.09
109478.09
109478.09
109478.09
109478.09
109478.09
109478.09
109478.09
109478.09
109478.09
109478.09
109478.09
109478.09
109478.09
109478.09
109478.09
109478.09
109478.09
109478.09
109478.09
109478.09
109478.09
109478.09
109478.09
109478.09
109478.09
109478.09
109478.09
109478.09
109478.09
109478.09
109478.09
109478.09
109478.09
109478.09
109478.09
109478.09
109478.09
109478.09
109478.09
109478.09
109478.09
109478.09
109478.09
109478.09
109478.09
109478.09
109478.09
109478.09
109478.09
109478.09
109478.09
109478.09
109478.09
109478.09
109478.09
109478.09
109478.09
109478.09
109478.09
109478.09
109478.09
109478.09
109478.09
109478.09
109478.09
109478.09
109478.09
109478.09
109478.09
109478.09
109478.09
109478.09
109478.09
109478.09
109478.09
109478.09
109478.09
109478.09
109478.09
109478.09
109478.09
109478.09
109478.09
109478.09
109478.09
109478.09
109478.09
109478.09
109478.09
109478.09
109478.09
109478.09
109478.09
109478.09
109478.09
109478.09
109478.09
109478.09
109478.09
109478.09
109478.09
109478.09
109478.09
109478.09
109478.09
109478.09
109478.09
109478.09
109478.09
109478.09
109478.09
109478.09
109478.09
109478.09
109478.09
109478.09
109478.09
109478.09
109478.09
109478.09
109478.09
109478.09
109478.09
109478.09
109478.09
109478.09
109478.09
109478.09
109478.09
109478.09
109478.09
109478.09
109478.09
109478.09
109478.09
109478.09
109478.09
109478.09
109478.09
109478.09
109478.09
109478.09
109478.09
109478.09
109478.09
109478.09
109478.09
109478.09
109478.09
109478.09
109478.09
109478.09
109478.09
109478.09
109478.09
109478.09
109478.09
109478.09
109478.09
109478.09
109478.09
109478.09
109478.09
109478.09
109478.09
109478.09
109478.09
109478.09
109478.09
109478.09
109478.09
109478.09
109478.09
109478.09
109478.09
109478.09
109478.09
109478.09
109478.09
109478.09
109478.09
109478.09
109478.09
109478.09
109478.09
109478.09
109478.09
109478.09
109478.09
109478.09
109478.09
109478.09
109478.09
109478.09
109478.09
109478.09
109478.09
109478.09
109478.09
109478.09
109478.09
109478.09
109478.09
109478.08
109478.08
109478.08
109478.08
109478.08
109478.08
109478.08
109478.08
109478.08
109478.08
109478.08
109478.08
109478.08
109478.08
109478.08
109478.08
109478.08
109478.08
109478.08
109478.08
109478.08
109478.08
109478.08
109478.08
109478.08
109478.07
109478.07
109478.07
109478.07
109478.07
109478.07
109478.07
109478.07
109478.07
109478.07
109478.07
109478.07
109478.07
109478.07
109478.07
109478.07
109478.07
109478.07
109478.07
109478.07
109478.07
109478.06
109478.06
109478.06
109478.06
109478.06
109478.06
109478.06
109478.06
109478.06
109478.06
109478.06
109478.06
109478.06
109478.06
109478.06
109478.06
109478.06
109478.05
109478.05
109478.05
109478.05
109478.05
109478.05