/*--------------------------------*- C++ -*----------------------------------*\
  =========                 |
  \\      /  F ield         | OpenFOAM: The Open Source CFD Toolbox
   \\    /   O peration     | Website:  https://openfoam.org
    \\  /    A nd           | Version:  7
     \\/     M anipulation  |
\*---------------------------------------------------------------------------*/
FoamFile
{
    version     2.0;
    format      ascii;
    class       volScalarField;
    location    "0.00102";
    object      T;
}
// * * * * * * * * * * * * * * * * * * * * * * * * * * * * * * * * * * * * * //

dimensions      [0 0 0 1 0 0 0];

internalField   nonuniform List<scalar> 
5000
(
278.30186
278.31672
278.32313
278.33548
278.34204
278.35439
278.36095
278.37331
278.37986
278.39222
278.39875
278.41111
278.41764
278.43
278.43655
278.44893
278.45549
278.4679
278.47448
278.48692
278.49349
278.50596
278.51254
278.52502
278.5316
278.54408
278.55065
278.56314
278.56971
278.58219
278.58877
278.60124
278.60781
278.62029
278.62684
278.63932
278.64587
278.65836
278.66488
278.67738
278.68389
278.6964
278.7029
278.7154
278.7219
278.73439
278.74089
278.75338
278.75987
278.77237
278.77885
278.79134
278.79781
278.81032
278.81676
278.82928
278.83571
278.84823
278.85466
278.86716
278.87361
278.88609
278.89254
278.90502
278.91146
278.92394
278.93037
278.94286
278.94927
278.96177
278.96817
278.98067
278.98706
278.99956
279.00594
279.01844
279.02481
279.03732
279.04368
279.05618
279.06254
279.07504
279.0814
279.09388
279.10024
279.11273
279.11908
279.13157
279.1379
279.15039
279.15673
279.16919
279.17553
279.18801
279.19432
279.20682
279.21309
279.22562
279.23189
279.24434
279.25076
279.26295
279.26972
279.28147
279.28873
279.29995
279.30774
279.31843
279.32671
279.33695
279.34563
279.35552
279.36448
279.37414
279.38328
279.3928
279.40205
279.41149
279.4208
279.4302
279.43954
279.44892
279.45827
279.46764
279.477
279.48637
279.49574
279.50511
279.51448
279.52385
279.53322
279.5426
279.55197
279.56134
279.57071
279.58009
279.58946
279.59883
279.6082
279.61757
279.62694
279.63631
279.64568
279.65505
279.66441
279.67378
279.68314
279.69251
279.70187
279.71123
279.72058
279.72994
279.7393
279.74865
279.758
279.76735
279.7767
279.78604
279.79539
279.80473
279.81407
279.82341
279.83275
279.84208
279.85142
279.86075
279.87008
279.87941
279.88874
279.89806
279.90738
279.9167
279.92602
279.93534
279.94466
279.95397
279.96328
279.97259
279.9819
279.99121
280.00051
280.00981
280.01911
280.02841
280.03771
280.04701
280.0563
280.06559
280.07488
280.08417
280.09346
280.10274
280.11202
280.1213
280.13058
280.13986
280.14914
280.15841
280.16768
280.17695
280.18622
280.19548
280.20475
280.21401
280.22327
280.23253
280.24179
280.25104
280.2603
280.26955
280.2788
280.28805
280.29729
280.30654
280.31578
280.32502
280.33426
280.34349
280.35273
280.36196
280.37119
280.38042
280.38965
280.39887
280.4081
280.41732
280.42654
280.43575
280.44497
280.45418
280.46339
280.4726
280.48181
280.49101
280.50021
280.50942
280.51861
280.52781
280.537
280.5462
280.55539
280.56457
280.57376
280.58294
280.59212
280.6013
280.61048
280.61966
280.62883
280.638
280.64717
280.65634
280.66551
280.67467
280.68383
280.693
280.70216
280.71132
280.72047
280.72963
280.73879
280.74794
280.7571
280.76625
280.7754
280.78456
280.79371
280.80286
280.81201
280.82116
280.83031
280.83946
280.84861
280.85776
280.86691
280.87606
280.88521
280.89436
280.90351
280.91266
280.92181
280.93096
280.94011
280.94926
280.95841
280.96756
280.9767
280.98585
280.995
281.00415
281.0133
281.02244
281.03159
281.04073
281.04988
281.05902
281.06817
281.07731
281.08645
281.09559
281.10473
281.11387
281.12301
281.13215
281.14128
281.15042
281.15955
281.16868
281.17781
281.18694
281.19607
281.2052
281.21432
281.22345
281.23257
281.24169
281.25081
281.25992
281.26904
281.27816
281.28727
281.29638
281.30549
281.3146
281.3237
281.33281
281.34191
281.35101
281.36011
281.36921
281.3783
281.3874
281.39649
281.40558
281.41467
281.42376
281.43284
281.44193
281.45101
281.46009
281.46917
281.47824
281.48732
281.49639
281.50546
281.51453
281.5236
281.53266
281.54173
281.55079
281.55985
281.56891
281.57796
281.58702
281.59607
281.60512
281.61417
281.62322
281.63226
281.64131
281.65035
281.65939
281.66843
281.67746
281.6865
281.69553
281.70456
281.71359
281.72261
281.73164
281.74066
281.74968
281.7587
281.76771
281.77673
281.78574
281.79475
281.80376
281.81277
281.82177
281.83078
281.83978
281.84878
281.85778
281.86677
281.87577
281.88476
281.89375
281.90274
281.91173
281.92072
281.92971
281.93869
281.94767
281.95665
281.96563
281.97461
281.98359
281.99257
282.00154
282.01051
282.01949
282.02846
282.03743
282.0464
282.05537
282.06434
282.0733
282.08227
282.09124
282.1002
282.10917
282.11813
282.12709
282.13605
282.14502
282.15398
282.16294
282.1719
282.18086
282.18982
282.19878
282.20773
282.21669
282.22565
282.23461
282.24356
282.25252
282.26147
282.27043
282.27938
282.28833
282.29729
282.30624
282.31519
282.32414
282.33309
282.34204
282.35099
282.35994
282.36888
282.37783
282.38678
282.39572
282.40466
282.41361
282.42255
282.43149
282.44043
282.44936
282.4583
282.46724
282.47617
282.4851
282.49403
282.50296
282.51189
282.52082
282.52975
282.53867
282.54759
282.55651
282.56543
282.57435
282.58327
282.59218
282.60109
282.61
282.61891
282.62782
282.63672
282.64562
282.65452
282.66342
282.67232
282.68121
282.6901
282.69899
282.70788
282.71676
282.72564
282.73452
282.7434
282.75227
282.76115
282.77001
282.77888
282.78774
282.7966
282.80546
282.81431
282.82316
282.83201
282.84085
282.84969
282.85853
282.86736
282.87619
282.88501
282.89383
282.90265
282.91146
282.92027
282.92907
282.93787
282.94666
282.95545
282.96423
282.973
282.98178
282.99054
282.9993
283.00805
283.0168
283.02554
283.03427
283.043
283.05172
283.06043
283.06913
283.07783
283.08651
283.09519
283.10386
283.11252
283.12117
283.12981
283.13845
283.14707
283.15568
283.16428
283.17286
283.18144
283.19
283.19856
283.2071
283.21562
283.22413
283.23263
283.24111
283.24958
283.25804
283.26647
283.27489
283.2833
283.29168
283.30005
283.3084
283.31674
283.32505
283.33334
283.34161
283.34986
283.35809
283.3663
283.37448
283.38264
283.39077
283.39888
283.40697
283.41502
283.42305
283.43105
283.43902
283.44696
283.45487
283.46275
283.4706
283.47841
283.48619
283.49393
283.50164
283.50931
283.51694
283.52453
283.53208
283.53958
283.54705
283.55447
283.56184
283.56917
283.57645
283.58368
283.59087
283.598
283.60507
283.61209
283.61906
283.62597
283.63282
283.63961
283.64634
283.65301
283.65961
283.66614
283.67261
283.67901
283.68534
283.69159
283.69777
283.70388
283.7099
283.71585
283.72172
283.72751
283.73321
283.73882
283.74435
283.74979
283.75513
283.76039
283.76555
283.77061
283.77557
283.78043
283.78519
283.78985
283.7944
283.79884
283.80318
283.8074
283.81151
283.8155
283.81937
283.82313
283.82677
283.83028
283.83367
283.83693
283.84007
283.84307
283.84595
283.84869
283.85129
283.85376
283.85609
283.85827
283.86032
283.86222
283.86398
283.86558
283.86704
283.86835
283.86951
283.87051
283.87136
283.87204
283.87257
283.87295
283.87315
283.87319
283.87307
283.87278
283.87232
283.8717
283.8709
283.86994
283.8688
283.86748
283.866
283.86433
283.86249
283.86047
283.85827
283.85589
283.85333
283.85058
283.84766
283.84455
283.84125
283.83777
283.83409
283.83023
283.82619
283.82195
283.81753
283.81292
283.80811
283.80312
283.79793
283.79255
283.78699
283.78122
283.77527
283.76911
283.76277
283.75624
283.7495
283.74258
283.73547
283.72815
283.72065
283.71295
283.70506
283.69698
283.6887
283.68023
283.67156
283.66271
283.65366
283.64442
283.63499
283.62537
283.61555
283.60556
283.59536
283.58498
283.57442
283.56366
283.55272
283.54159
283.53028
283.51878
283.5071
283.49524
283.4832
283.47097
283.45857
283.44598
283.43322
283.42028
283.40717
283.39388
283.38042
283.36678
283.35298
283.339
283.32486
283.31055
283.29607
283.28143
283.26662
283.25166
283.23653
283.22124
283.2058
283.19019
283.17443
283.15852
283.14246
283.12625
283.10988
283.09337
283.07672
283.05992
283.04298
283.02589
283.00867
282.99131
282.97381
282.95618
282.93842
282.92052
282.9025
282.88435
282.86607
282.84767
282.82914
282.81051
282.79174
282.77286
282.75387
282.73476
282.71555
282.69622
282.67679
282.65725
282.63761
282.61786
282.59802
282.57808
282.55804
282.53791
282.51768
282.49737
282.47697
282.45648
282.43592
282.41526
282.39453
282.37372
282.35283
282.33187
282.31084
282.28974
282.26857
282.24733
282.22603
282.20467
282.18325
282.16178
282.14024
282.11866
282.09702
282.07534
282.05361
282.03183
282.01001
281.98816
281.96626
281.94433
281.92236
281.90037
281.87833
281.85628
281.8342
281.8121
281.78998
281.76784
281.74569
281.72351
281.70133
281.67914
281.65694
281.63474
281.61253
281.59033
281.56812
281.54593
281.52373
281.50155
281.47938
281.45722
281.43508
281.41295
281.39086
281.36877
281.34672
281.32469
281.30269
281.28073
281.2588
281.23691
281.21506
281.19325
281.17148
281.14976
281.1281
281.10647
281.08492
281.0634
281.04196
281.02057
280.99925
280.97799
280.9568
280.93569
280.91465
280.89369
280.87279
280.85199
280.83127
280.81063
280.79009
280.76963
280.74927
280.729
280.70884
280.68877
280.66881
280.64896
280.62921
280.60958
280.59005
280.57065
280.55136
280.53219
280.51316
280.49424
280.47545
280.45679
280.43827
280.41989
280.40164
280.38353
280.36556
280.34775
280.33008
280.31256
280.29519
280.27798
280.26093
280.24403
280.2273
280.21073
280.19433
280.17809
280.16203
280.14614
280.13043
280.1149
280.09953
280.08437
280.06937
280.05457
280.03995
280.02552
280.01129
279.99725
279.98341
279.96976
279.95631
279.94306
279.93002
279.91718
279.90454
279.89212
279.8799
279.8679
279.85611
279.8445
279.83314
279.82199
279.81106
279.80034
279.78985
279.77957
279.76952
279.75969
279.75008
279.7407
279.73154
279.72261
279.71391
279.70543
279.69718
279.68915
279.68136
279.67379
279.66645
279.65934
279.65245
279.6458
279.63937
279.63318
279.62721
279.62147
279.61595
279.61066
279.6056
279.60076
279.59616
279.59176
279.5876
279.58366
279.57994
279.57644
279.57316
279.5701
279.56725
279.56462
279.56221
279.56
279.55801
279.55622
279.55465
279.55328
279.55211
279.55115
279.55038
279.54981
279.54944
279.54926
279.54928
279.54948
279.54988
279.55045
279.55121
279.55215
279.55327
279.55456
279.55603
279.55766
279.55947
279.56144
279.56357
279.56586
279.56831
279.57091
279.57366
279.57657
279.57962
279.58282
279.58615
279.58963
279.59323
279.59698
279.60084
279.60485
279.60897
279.61322
279.61757
279.62206
279.62665
279.63135
279.63617
279.64108
279.6461
279.65122
279.65644
279.66175
279.66716
279.67265
279.67823
279.6839
279.68965
279.69547
279.70138
279.70736
279.71341
279.71954
279.72573
279.73199
279.73832
279.7447
279.75115
279.75765
279.76421
279.77082
279.77749
279.7842
279.79097
279.79778
279.80464
279.81154
279.81848
279.82546
279.83248
279.83954
279.84663
279.85376
279.86092
279.86811
279.87533
279.88259
279.88986
279.89717
279.90449
279.91185
279.91922
279.92663
279.93404
279.94149
279.94894
279.95642
279.96391
279.97143
279.97896
279.9865
279.99405
280.00162
280.0092
280.0168
280.02441
280.03202
280.03965
280.04729
280.05493
280.06259
280.07025
280.07792
280.0856
280.09328
280.10098
280.10867
280.11638
280.12408
280.13179
280.13951
280.14723
280.15496
280.16269
280.17042
280.17816
280.1859
280.19364
280.20138
280.20913
280.21688
280.22463
280.23238
280.24013
280.24789
280.25565
280.26341
280.27116
280.27893
280.28668
280.29445
280.30221
280.30997
280.31773
280.3255
280.33326
280.34102
280.34879
280.35655
280.36431
280.37208
280.37984
280.38761
280.39537
280.40313
280.4109
280.41866
280.42642
280.43418
280.44194
280.4497
280.45746
280.46522
280.47299
280.48074
280.4885
280.49626
280.50401
280.51177
280.51953
280.52728
280.53504
280.54278
280.55054
280.55829
280.56604
280.5738
280.58154
280.5893
280.59705
280.60479
280.61254
280.62029
280.62803
280.63578
280.64352
280.65127
280.65901
280.66675
280.67449
280.68223
280.68997
280.69772
280.70545
280.71319
280.72092
280.72866
280.7364
280.74413
280.75187
280.7596
280.76733
280.77506
280.78279
280.79052
280.79825
280.80598
280.81371
280.82143
280.82916
280.83689
280.84461
280.85233
280.86005
280.86777
280.8755
280.88322
280.89093
280.89866
280.90637
280.91409
280.9218
280.92951
280.93723
280.94494
280.95265
280.96037
280.96807
280.97578
280.98349
280.9912
280.99891
281.00661
281.01431
281.02202
281.02972
281.03742
281.04512
281.05282
281.06052
281.06822
281.07591
281.08361
281.0913
281.099
281.10669
281.11438
281.12208
281.12976
281.13745
281.14514
281.15282
281.16051
281.1682
281.17588
281.18357
281.19124
281.19892
281.20661
281.21428
281.22196
281.22964
281.23731
281.24499
281.25266
281.26033
281.268
281.27567
281.28334
281.291
281.29867
281.30633
281.314
281.32166
281.32932
281.33698
281.34464
281.3523
281.35995
281.36761
281.37527
281.38292
281.39058
281.39822
281.40587
281.41353
281.42117
281.42882
281.43646
281.44411
281.45175
281.4594
281.46703
281.47468
281.48232
281.48995
281.49759
281.50522
281.51286
281.52049
281.52812
281.53576
281.54338
281.55101
281.55863
281.56627
281.57389
281.58151
281.58914
281.59675
281.60438
281.61199
281.61962
281.62723
281.63485
281.64246
281.65007
281.65769
281.66529
281.67291
281.68051
281.68813
281.69573
281.70333
281.71094
281.71854
281.72615
281.73374
281.74135
281.74893
281.75654
281.76413
281.77173
281.77932
281.78692
281.7945
281.8021
281.80968
281.81727
281.82486
281.83244
281.84003
281.84761
281.85519
281.86278
281.87035
281.87793
281.88551
281.89309
281.90066
281.90824
281.9158
281.92339
281.93095
281.93852
281.94609
281.95365
281.96122
281.96878
281.97635
281.98391
281.99148
281.99903
282.00659
282.01415
282.0217
282.02926
282.03682
282.04437
282.05193
282.05947
282.06702
282.07457
282.08212
282.08967
282.09721
282.10475
282.1123
282.11984
282.12738
282.13492
282.14246
282.14999
282.15753
282.16506
282.1726
282.18013
282.18766
282.19519
282.20272
282.21025
282.21777
282.2253
282.23283
282.24034
282.24787
282.25539
282.26291
282.27043
282.27795
282.28546
282.29298
282.30049
282.308
282.31551
282.32302
282.33053
282.33804
282.34555
282.35305
282.36056
282.36806
282.37556
282.38306
282.39056
282.39806
282.40556
282.41305
282.42055
282.42804
282.43554
282.44303
282.45052
282.45801
282.46549
282.47298
282.48047
282.48795
282.49543
282.50292
282.5104
282.51788
282.52535
282.53283
282.54031
282.54779
282.55526
282.56273
282.5702
282.57767
282.58514
282.59261
282.60008
282.60754
282.61501
282.62247
282.62993
282.6374
282.64486
282.65231
282.65977
282.66723
282.67468
282.68214
282.68959
282.69704
282.70449
282.71194
282.71939
282.72684
282.73429
282.74173
282.74918
282.75662
282.76406
282.7715
282.77894
282.78638
282.79382
282.80125
282.80869
282.81612
282.82355
282.83099
282.83842
282.84585
282.85327
282.8607
282.86813
282.87555
282.88298
282.8904
282.89782
282.90524
282.91266
282.92008
282.92749
282.93491
282.94232
282.94974
282.95715
282.96456
282.97197
282.97938
282.98679
282.99419
283.0016
283.009
283.01641
283.02381
283.03121
283.03861
283.04601
283.0534
283.0608
283.06819
283.07559
283.08298
283.09037
283.09776
283.10515
283.11254
283.11992
283.12731
283.13469
283.14208
283.14946
283.15684
283.16422
283.1716
283.17897
283.18635
283.19372
283.2011
283.20847
283.21584
283.22321
283.23058
283.23794
283.24531
283.25267
283.26004
283.2674
283.27476
283.28212
283.28948
283.29683
283.30419
283.31155
283.3189
283.32625
283.3336
283.34095
283.3483
283.35565
283.36299
283.37034
283.37768
283.38502
283.39236
283.3997
283.40704
283.41437
283.42171
283.42904
283.43638
283.44371
283.45104
283.45837
283.46569
283.47302
283.48034
283.48767
283.49499
283.50231
283.50963
283.51695
283.52426
283.53158
283.53889
283.54621
283.55352
283.56083
283.56814
283.57544
283.58275
283.59005
283.59736
283.60466
283.61196
283.61926
283.62656
283.63386
283.64115
283.64845
283.65574
283.66303
283.67032
283.67761
283.6849
283.69218
283.69947
283.70675
283.71404
283.72132
283.7286
283.73587
283.74315
283.75043
283.7577
283.76498
283.77225
283.77952
283.78679
283.79406
283.80132
283.80859
283.81585
283.82311
283.83038
283.83764
283.8449
283.85215
283.85941
283.86667
283.87392
283.88117
283.88842
283.89567
283.90292
283.91017
283.91742
283.92466
283.9319
283.93915
283.94639
283.95363
283.96087
283.9681
283.97534
283.98257
283.9898
283.99704
284.00427
284.01149
284.01872
284.02595
284.03317
284.04039
284.04761
284.05483
284.06205
284.06926
284.07648
284.08369
284.0909
284.09811
284.10532
284.11253
284.11973
284.12693
284.13413
284.14133
284.14853
284.15572
284.16291
284.1701
284.17729
284.18447
284.19166
284.19884
284.20601
284.21319
284.22036
284.22753
284.2347
284.24187
284.24903
284.25619
284.26335
284.2705
284.27765
284.28479
284.29194
284.29908
284.30622
284.31335
284.32048
284.32761
284.33473
284.34185
284.34896
284.35607
284.36318
284.37028
284.37738
284.38447
284.39155
284.39863
284.4057
284.41277
284.41984
284.4269
284.43395
284.44101
284.44805
284.45509
284.46212
284.46914
284.47616
284.48317
284.49017
284.49717
284.50415
284.51113
284.5181
284.52506
284.53202
284.53896
284.5459
284.55283
284.55975
284.56666
284.57356
284.58045
284.58733
284.5942
284.60106
284.60791
284.61475
284.62157
284.62839
284.63519
284.64198
284.64875
284.65552
284.66227
284.66901
284.67574
284.68245
284.68914
284.69582
284.70248
284.70913
284.71576
284.72238
284.72898
284.73557
284.74214
284.74869
284.75522
284.76174
284.76824
284.77472
284.78118
284.78762
284.79404
284.80044
284.80681
284.81317
284.81951
284.82583
284.83212
284.83839
284.84464
284.85086
284.85706
284.86324
284.8694
284.87552
284.88163
284.8877
284.89375
284.89978
284.90577
284.91174
284.91769
284.9236
284.92949
284.93535
284.94118
284.94698
284.95275
284.95849
284.9642
284.96988
284.97553
284.98114
284.98673
284.99228
284.9978
285.00328
285.00874
285.01415
285.01954
285.02488
285.0302
285.03547
285.04072
285.04593
285.0511
285.05624
285.06133
285.0664
285.07142
285.0764
285.08135
285.08625
285.09112
285.09595
285.10075
285.1055
285.11021
285.11489
285.11952
285.12411
285.12867
285.13318
285.13765
285.14207
285.14646
285.15081
285.15511
285.15937
285.16359
285.16777
285.1719
285.17599
285.18004
285.18405
285.18802
285.19194
285.19582
285.19965
285.20345
285.2072
285.2109
285.21456
285.21818
285.22176
285.22529
285.22878
285.23223
285.23563
285.23899
285.24231
285.24558
285.24882
285.252
285.25515
285.25825
285.26131
285.26433
285.2673
285.27024
285.27313
285.27598
285.27879
285.28155
285.28428
285.28696
285.2896
285.29221
285.29477
285.29728
285.29976
285.3022
285.30461
285.30697
285.30929
285.31157
285.31382
285.31602
285.31819
285.32032
285.32242
285.32447
285.32649
285.32848
285.33042
285.33233
285.33421
285.33605
285.33785
285.33962
285.34136
285.34306
285.34473
285.34637
285.34797
285.34955
285.35109
285.3526
285.35407
285.35552
285.35694
285.35833
285.35968
285.36101
285.36231
285.36358
285.36482
285.36604
285.36722
285.36838
285.36952
285.37063
285.37171
285.37277
285.3738
285.37481
285.3758
285.37676
285.3777
285.37861
285.37951
285.38038
285.38123
285.38206
285.38287
285.38365
285.38442
285.38516
285.38589
285.3866
285.38729
285.38796
285.38861
285.38925
285.38987
285.39047
285.39106
285.39163
285.39219
285.39273
285.39325
285.39376
285.39426
285.39474
285.3952
285.39565
285.39609
285.39652
285.39693
285.39734
285.39773
285.39811
285.39848
285.39884
285.39918
285.39952
285.39984
285.40015
285.40046
285.40075
285.40104
285.40131
285.40158
285.40184
285.40209
285.40234
285.40257
285.4028
285.40302
285.40323
285.40344
285.40364
285.40383
285.40402
285.4042
285.40438
285.40455
285.40471
285.40487
285.40502
285.40516
285.4053
285.40544
285.40557
285.4057
285.40582
285.40594
285.40605
285.40616
285.40627
285.40637
285.40647
285.40657
285.40666
285.40675
285.40684
285.40692
285.407
285.40707
285.40715
285.40722
285.40729
285.40735
285.40742
285.40748
285.40754
285.4076
285.40765
285.4077
285.40775
285.4078
285.40785
285.40789
285.40794
285.40798
285.40803
285.40807
285.40811
285.40814
285.40818
285.40821
285.40824
285.40828
285.40831
285.40834
285.40836
285.40839
285.40842
285.40845
285.40847
285.4085
285.40852
285.40854
285.40857
285.40859
285.40861
285.40863
285.40865
285.40866
285.40868
285.4087
285.40872
285.40873
285.40875
285.40877
285.40878
285.40879
285.40881
285.40882
285.40883
285.40885
285.40886
285.40888
285.40889
285.4089
285.40891
285.40893
285.40894
285.40895
285.40896
285.40897
285.40898
285.40899
285.409
285.40901
285.40902
285.40903
285.40904
285.40905
285.40906
285.40907
285.40908
285.40909
285.40909
285.4091
285.40911
285.40912
285.40912
285.40913
285.40914
285.40915
285.40916
285.40917
285.40918
285.40919
285.4092
285.40921
285.40921
285.40922
285.40923
285.40923
285.40924
285.40925
285.40926
285.40926
285.40927
285.40928
285.40929
285.40929
285.4093
285.40931
285.40932
285.40933
285.40934
285.40935
285.40935
285.40936
285.40937
285.40937
285.40938
285.40939
285.40939
285.4094
285.40941
285.40941
285.40942
285.40943
285.40944
285.40944
285.40945
285.40946
285.40947
285.40947
285.40948
285.40949
285.4095
285.4095
285.40951
285.40952
285.40953
285.40954
285.40954
285.40955
285.40956
285.40956
285.40957
285.40958
285.40959
285.40959
285.4096
285.40961
285.40962
285.40962
285.40963
285.40964
285.40964
285.40965
285.40966
285.40967
285.40967
285.40968
285.40969
285.4097
285.40971
285.40971
285.40972
285.40973
285.40974
285.40974
285.40975
285.40976
285.40976
285.40977
285.40978
285.40979
285.40979
285.4098
285.40981
285.40982
285.40982
285.40983
285.40984
285.40984
285.40985
285.40986
285.40987
285.40987
285.40988
285.40989
285.4099
285.40991
285.40991
285.40992
285.40993
285.40993
285.40994
285.40995
285.40996
285.40997
285.40997
285.40998
285.40999
285.41
285.41001
285.41002
285.41002
285.41003
285.41004
285.41005
285.41006
285.41006
285.41007
285.41008
285.41008
285.41009
285.41009
285.4101
285.41011
285.41012
285.41013
285.41014
285.41015
285.41016
285.41017
285.41018
285.41019
285.4102
285.41021
285.41021
285.41022
285.41023
285.41023
285.41024
285.41025
285.41025
285.41026
285.41027
285.41028
285.41029
285.4103
285.41031
285.41032
285.41033
285.41034
285.41035
285.41036
285.41037
285.41038
285.41038
285.41039
285.4104
285.41041
285.41042
285.41042
285.41043
285.41044
285.41045
285.41046
285.41047
285.41048
285.41049
285.4105
285.41051
285.41052
285.41053
285.41054
285.41055
285.41056
285.41057
285.41058
285.41059
285.4106
285.41061
285.41062
285.41063
285.41064
285.41065
285.41066
285.41067
285.41068
285.41069
285.4107
285.41072
285.41073
285.41074
285.41075
285.41076
285.41077
285.41078
285.41079
285.4108
285.41081
285.41082
285.41084
285.41085
285.41086
285.41087
285.41088
285.41089
285.4109
285.41091
285.41093
285.41094
285.41095
285.41096
285.41097
285.41098
285.41099
285.41101
285.41102
285.41103
285.41105
285.41106
285.41108
285.41109
285.41111
285.41112
285.41113
285.41115
285.41116
285.41117
285.41118
285.41119
285.41121
285.41122
285.41123
285.41125
285.41126
285.41127
285.41129
285.4113
285.41132
285.41133
285.41135
285.41136
285.41137
285.41139
285.4114
285.41142
285.41143
285.41145
285.41147
285.41148
285.4115
285.41151
285.41153
285.41154
285.41156
285.41157
285.41158
285.4116
285.41161
285.41163
285.41165
285.41167
285.41168
285.4117
285.41171
285.41173
285.41174
285.41176
285.41177
285.41179
285.41181
285.41183
285.41184
285.41186
285.41188
285.4119
285.41191
285.41193
285.41194
285.41196
285.41198
285.41199
285.41201
285.41203
285.41205
285.41207
285.41208
285.4121
285.41212
285.41214
285.41216
285.41217
285.41219
285.41221
285.41223
285.41225
285.41227
285.41228
285.4123
285.41232
285.41234
285.41236
285.41238
285.4124
285.41242
285.41244
285.41246
285.41248
285.4125
285.41252
285.41254
285.41256
285.41259
285.4126
285.41263
285.41264
285.41267
285.41269
285.41271
285.41273
285.41275
285.41277
285.41279
285.41281
285.41283
285.41286
285.41288
285.4129
285.41293
285.41295
285.41297
285.41299
285.41302
285.41304
285.41306
285.41308
285.4131
285.41312
285.41315
285.41317
285.41319
285.41321
285.41324
285.41326
285.41328
285.41331
285.41333
285.41336
285.41339
285.41341
285.41344
285.41346
285.41349
285.41352
285.41354
285.41357
285.4136
285.41363
285.41366
285.41369
285.41372
285.41374
285.41377
285.4138
285.41382
285.41385
285.41388
285.4139
285.41393
285.41395
285.41398
285.41401
285.41404
285.41406
285.4141
285.41413
285.41416
285.41419
285.41422
285.41425
285.41428
285.41431
285.41434
285.41437
285.4144
285.41443
285.41447
285.4145
285.41454
285.41457
285.41461
285.41464
285.41468
285.41471
285.41474
285.41478
285.41481
285.41484
285.41488
285.41491
285.41495
285.41498
285.41502
285.41506
285.4151
285.41514
285.41517
285.41521
285.41525
285.41529
285.41533
285.41537
285.41541
285.41545
285.41549
285.41553
285.41557
285.41561
285.41565
285.4157
285.41574
285.41579
285.41583
285.41588
285.41592
285.41597
285.41602
285.41606
285.41611
285.41616
285.4162
285.41625
285.4163
285.41635
285.4164
285.41645
285.4165
285.41655
285.4166
285.41665
285.4167
285.41675
285.4168
285.41685
285.41691
285.41697
285.41702
285.41708
285.41714
285.4172
285.41726
285.41732
285.41738
285.41744
285.4175
285.41756
285.41762
285.41768
285.41775
285.41781
285.41788
285.41795
285.41802
285.41809
285.41816
285.41823
285.4183
285.41837
285.41844
285.41852
285.4186
285.41867
285.41875
285.41883
285.41891
285.41899
285.41907
285.41915
285.41924
285.41932
285.4194
285.41949
285.41957
285.41966
285.41975
285.41984
285.41993
285.42002
285.42012
285.42021
285.42031
285.42042
285.42052
285.42063
285.42074
285.42085
285.42096
285.42107
285.42118
285.42129
285.4214
285.42151
285.42163
285.42174
285.42186
285.42197
285.42209
285.4222
285.42232
285.42244
285.42256
285.42268
285.4228
285.42292
285.42303
285.42315
285.42326
285.42336
285.42346
285.42355
285.42364
285.42372
285.4238
285.42387
285.42393
285.42398
285.42403
285.42407
285.4241
285.42412
285.42413
285.42414
285.42414
285.42414
285.42413
285.42412
285.42408
285.42403
285.42398
285.42394
285.42389
285.42386
285.42383
285.42382
285.42381
285.4238
285.4238
285.42381
285.42382
285.42386
285.42398
285.42416
285.42436
285.42458
285.42481
285.42506
285.42531
285.42556
285.42582
285.42608
285.42635
285.42662
285.42691
285.4272
285.4275
285.4278
285.42809
285.42836
285.4286
285.42881
285.42899
285.42914
285.42927
285.42938
285.42948
285.42955
285.42961
285.42965
285.42967
285.42969
285.4297
285.42973
285.4298
285.42996
285.43034
285.43128
285.43368
285.43991
285.4563
285.49971
285.61536
285.92416
286.69898
287.81318
289.06407
290.39983
291.76308
293.09968
294.36387
295.52112
296.54918
297.43742
298.1852
298.79961
299.29298
299.68061
299.97891
300.20393
300.37043
300.49133
300.57748
300.63772
300.67899
300.70666
300.72473
300.73615
300.74305
300.74693
300.74886
300.74959
300.7497
300.74956
300.74884
300.74737
300.74601
300.74481
300.74376
300.74283
300.74201
300.74129
300.74064
300.74005
300.73952
300.73902
300.73855
300.73811
300.73769
300.73729
300.73691
300.73654
300.73618
300.73584
300.73551
300.73519
300.73487
300.73455
300.73423
300.73389
300.73354
300.73317
300.73277
300.73235
300.73191
300.73144
300.73095
300.73044
300.72992
300.72938
300.72884
300.7283
300.72777
300.72725
300.72674
300.72625
300.72578
300.72533
300.72489
300.72448
300.72408
300.72371
300.72336
300.72303
300.72272
300.72242
300.72215
300.72189
300.72164
300.72141
300.72118
300.72097
300.72077
300.72058
300.72039
300.7202
300.72003
300.71985
300.71969
300.71952
300.71936
300.71921
300.71906
300.71891
300.71877
300.71863
300.7185
300.71836
300.71824
300.71811
300.71799
300.71786
300.71774
300.71763
300.71751
300.71739
300.71728
300.71717
300.71706
300.71695
300.71684
300.71674
300.71663
300.71653
300.71643
300.71634
300.71624
300.71615
300.71606
300.71597
300.71588
300.7158
300.71571
300.71563
300.71554
300.71546
300.71538
300.71529
300.71521
300.71513
300.71505
300.71497
300.71489
300.71481
300.71473
300.71466
300.71459
300.71451
300.71444
300.71437
300.71431
300.71424
300.71417
300.71411
300.71404
300.71397
300.71391
300.71384
300.71378
300.71372
300.71366
300.7136
300.71354
300.71348
300.71342
300.71336
300.7133
300.71324
300.71319
300.71313
300.71307
300.71302
300.71296
300.71291
300.71286
300.7128
300.71275
300.7127
300.71265
300.7126
300.71255
300.7125
300.71245
300.7124
300.71235
300.71231
300.71226
300.71221
300.71217
300.71212
300.71208
300.71203
300.71198
300.71194
300.71189
300.71185
300.7118
300.71176
300.71172
300.71168
300.71164
300.7116
300.71156
300.71151
300.71147
300.71143
300.71139
300.71135
300.71132
300.71128
300.71124
300.71121
300.71117
300.71113
300.7111
300.71106
300.71102
300.71098
300.71095
300.71091
300.71088
300.71084
300.7108
300.71077
300.71073
300.7107
300.71066
300.71063
300.7106
300.71056
300.71053
300.7105
300.71046
300.71043
300.7104
300.71037
300.71034
300.71031
300.71028
300.71025
300.71022
300.71019
300.71016
300.71013
300.7101
300.71007
300.71004
300.71001
300.70998
300.70995
300.70992
300.70989
300.70987
300.70984
300.70981
300.70978
300.70976
300.70973
300.7097
300.70967
300.70964
300.70962
300.70959
300.70957
300.70954
300.70952
300.70949
300.70947
300.70944
300.70942
300.70939
300.70937
300.70934
300.70932
300.70929
300.70927
300.70924
300.70922
300.70919
300.70917
300.70914
300.70912
300.7091
300.70908
300.70906
300.70903
300.70901
300.70899
300.70897
300.70894
300.70892
300.7089
300.70887
300.70885
300.70883
300.7088
300.70878
300.70876
300.70874
300.70872
300.7087
300.70868
300.70866
300.70864
300.70862
300.7086
300.70858
300.70856
300.70853
300.70851
300.70849
300.70848
300.70846
300.70844
300.70842
300.7084
300.70838
300.70836
300.70834
300.70832
300.70829
300.70828
300.70826
300.70824
300.70822
300.7082
300.70818
300.70816
300.70814
300.70813
300.70811
300.70809
300.70807
300.70805
300.70804
300.70802
300.708
300.70799
300.70797
300.70795
300.70793
300.70791
300.7079
300.70788
300.70786
300.70785
300.70783
300.70781
300.70779
300.70777
300.70776
300.70774
300.70772
300.7077
300.70769
300.70767
300.70766
300.70765
300.70763
300.70762