/*--------------------------------*- C++ -*----------------------------------*\
  =========                 |
  \\      /  F ield         | OpenFOAM: The Open Source CFD Toolbox
   \\    /   O peration     | Website:  https://openfoam.org
    \\  /    A nd           | Version:  7
     \\/     M anipulation  |
\*---------------------------------------------------------------------------*/
FoamFile
{
    version     2.0;
    format      ascii;
    class       surfaceScalarField;
    location    "0.00256";
    object      phi;
}
// * * * * * * * * * * * * * * * * * * * * * * * * * * * * * * * * * * * * * //

dimensions      [1 0 -1 0 0 0 0];

internalField   nonuniform List<scalar> 
4999
(
0.0037769265
0.0037769159
0.0037769066
0.0037768968
0.003776887
0.003776877
0.003776867
0.0037768569
0.0037768468
0.0037768366
0.0037768265
0.0037768164
0.0037768063
0.0037767962
0.0037767861
0.0037767761
0.0037767662
0.0037767562
0.0037767464
0.0037767365
0.0037767267
0.003776717
0.0037767072
0.0037766976
0.0037766879
0.0037766783
0.0037766688
0.0037766593
0.0037766498
0.0037766404
0.003776631
0.0037766216
0.0037766123
0.0037766031
0.0037765938
0.0037765847
0.0037765755
0.0037765664
0.0037765574
0.0037765483
0.0037765394
0.0037765304
0.0037765216
0.0037765127
0.0037765039
0.0037764952
0.0037764865
0.0037764778
0.0037764691
0.0037764606
0.003776452
0.0037764435
0.003776435
0.0037764266
0.0037764182
0.0037764098
0.0037764015
0.0037763932
0.003776385
0.0037763768
0.0037763686
0.0037763605
0.0037763524
0.0037763444
0.0037763365
0.0037763286
0.0037763207
0.0037763128
0.003776305
0.0037762972
0.0037762895
0.0037762818
0.0037762742
0.0037762665
0.003776259
0.0037762514
0.0037762439
0.0037762365
0.003776229
0.0037762217
0.0037762143
0.003776207
0.0037761998
0.0037761925
0.0037761853
0.0037761782
0.0037761711
0.003776164
0.0037761569
0.0037761499
0.0037761429
0.003776136
0.0037761291
0.0037761222
0.0037761154
0.0037761086
0.0037761018
0.003776095
0.0037760883
0.0037760816
0.003776075
0.0037760684
0.0037760618
0.0037760552
0.0037760487
0.0037760422
0.0037760357
0.0037760292
0.0037760228
0.0037760164
0.00377601
0.0037760037
0.0037759974
0.0037759911
0.0037759848
0.0037759785
0.0037759723
0.0037759661
0.00377596
0.0037759538
0.0037759477
0.0037759416
0.0037759355
0.0037759294
0.0037759234
0.0037759174
0.0037759114
0.0037759054
0.0037758994
0.0037758935
0.0037758876
0.0037758817
0.0037758758
0.00377587
0.0037758642
0.0037758584
0.0037758527
0.0037758469
0.0037758413
0.0037758356
0.00377583
0.0037758245
0.003775819
0.0037758135
0.0037758081
0.0037758027
0.0037757974
0.0037757921
0.0037757868
0.0037757816
0.0037757764
0.0037757713
0.0037757662
0.0037757611
0.0037757561
0.0037757511
0.0037757462
0.0037757413
0.0037757365
0.0037757317
0.003775727
0.0037757223
0.0037757177
0.0037757131
0.0037757086
0.0037757041
0.0037756997
0.0037756953
0.0037756909
0.0037756866
0.0037756824
0.0037756781
0.0037756739
0.0037756698
0.0037756657
0.0037756617
0.0037756577
0.0037756537
0.0037756498
0.0037756459
0.0037756421
0.0037756383
0.0037756345
0.0037756308
0.0037756272
0.0037756236
0.00377562
0.0037756165
0.003775613
0.0037756096
0.0037756062
0.0037756029
0.0037755996
0.0037755964
0.0037755932
0.00377559
0.0037755869
0.0037755839
0.0037755809
0.003775578
0.0037755751
0.0037755723
0.0037755695
0.0037755668
0.0037755641
0.0037755615
0.0037755589
0.0037755563
0.0037755539
0.0037755515
0.0037755491
0.0037755468
0.0037755445
0.0037755423
0.0037755402
0.0037755381
0.003775536
0.0037755341
0.0037755322
0.0037755303
0.0037755286
0.0037755268
0.0037755252
0.0037755236
0.0037755221
0.0037755206
0.0037755192
0.0037755178
0.0037755164
0.0037755151
0.0037755138
0.0037755127
0.0037755116
0.0037755105
0.0037755096
0.0037755087
0.0037755078
0.0037755071
0.0037755064
0.0037755057
0.0037755051
0.0037755046
0.0037755042
0.0037755038
0.0037755035
0.0037755032
0.0037755031
0.003775503
0.0037755029
0.0037755029
0.003775503
0.0037755031
0.0037755033
0.0037755035
0.0037755038
0.0037755042
0.0037755046
0.0037755052
0.0037755057
0.0037755064
0.0037755071
0.0037755079
0.0037755087
0.0037755097
0.0037755107
0.0037755117
0.0037755129
0.0037755141
0.0037755154
0.0037755168
0.0037755183
0.0037755198
0.0037755214
0.0037755231
0.0037755249
0.0037755267
0.0037755286
0.0037755306
0.0037755326
0.0037755347
0.0037755369
0.0037755391
0.0037755414
0.0037755438
0.0037755462
0.0037755487
0.0037755513
0.0037755539
0.0037755565
0.0037755593
0.0037755621
0.0037755649
0.0037755679
0.0037755708
0.0037755739
0.003775577
0.0037755802
0.0037755834
0.0037755867
0.0037755901
0.0037755935
0.003775597
0.0037756006
0.0037756042
0.0037756079
0.0037756116
0.0037756154
0.0037756192
0.0037756231
0.003775627
0.003775631
0.0037756351
0.0037756392
0.0037756434
0.0037756476
0.0037756518
0.0037756562
0.0037756605
0.0037756649
0.0037756694
0.0037756738
0.0037756783
0.0037756829
0.0037756875
0.0037756921
0.0037756968
0.0037757016
0.0037757063
0.0037757112
0.003775716
0.0037757209
0.0037757259
0.0037757308
0.0037757358
0.0037757407
0.0037757457
0.0037757507
0.0037757558
0.0037757609
0.0037757663
0.0037757717
0.0037757772
0.0037757826
0.0037757881
0.0037757936
0.0037757992
0.0037758048
0.0037758105
0.0037758162
0.0037758219
0.0037758277
0.0037758335
0.0037758394
0.0037758454
0.0037758513
0.0037758574
0.0037758634
0.0037758696
0.0037758758
0.0037758821
0.0037758883
0.0037758945
0.0037759008
0.0037759072
0.0037759135
0.0037759199
0.0037759264
0.003775933
0.0037759398
0.0037759465
0.0037759534
0.0037759603
0.0037759672
0.0037759742
0.0037759812
0.0037759882
0.0037759953
0.0037760024
0.0037760095
0.0037760167
0.0037760239
0.0037760311
0.0037760384
0.0037760456
0.003776053
0.0037760603
0.0037760677
0.0037760751
0.0037760826
0.0037760901
0.0037760976
0.0037761052
0.0037761129
0.0037761205
0.0037761283
0.003776136
0.0037761438
0.0037761517
0.0037761596
0.0037761676
0.0037761755
0.0037761836
0.0037761917
0.0037761998
0.003776208
0.0037762162
0.0037762245
0.0037762328
0.0037762412
0.0037762497
0.0037762581
0.0037762667
0.0037762752
0.0037762838
0.0037762925
0.0037763012
0.00377631
0.0037763188
0.0037763276
0.0037763365
0.0037763455
0.0037763544
0.0037763635
0.0037763725
0.0037763816
0.0037763908
0.0037763999
0.0037764091
0.0037764184
0.0037764277
0.003776437
0.0037764463
0.0037764557
0.0037764651
0.0037764746
0.003776484
0.0037764936
0.0037765031
0.0037765127
0.0037765223
0.0037765319
0.0037765416
0.0037765513
0.003776561
0.0037765708
0.0037765806
0.0037765904
0.0037766003
0.0037766102
0.0037766201
0.00377663
0.0037766401
0.0037766501
0.0037766602
0.0037766703
0.0037766804
0.0037766906
0.0037767009
0.0037767112
0.0037767215
0.0037767318
0.0037767423
0.0037767527
0.0037767632
0.0037767738
0.0037767843
0.003776795
0.0037768057
0.0037768164
0.0037768272
0.0037768381
0.003776849
0.0037768599
0.0037768709
0.003776882
0.0037768931
0.0037769043
0.0037769155
0.0037769268
0.0037769381
0.0037769496
0.003776961
0.0037769725
0.0037769841
0.0037769958
0.0037770075
0.0037770193
0.0037770311
0.003777043
0.0037770549
0.0037770669
0.003777079
0.0037770912
0.0037771034
0.0037771157
0.003777128
0.0037771404
0.0037771528
0.0037771654
0.0037771779
0.0037771906
0.0037772033
0.0037772161
0.0037772289
0.0037772418
0.0037772548
0.0037772678
0.0037772809
0.0037772941
0.0037773073
0.0037773206
0.003777334
0.0037773474
0.0037773609
0.0037773745
0.0037773881
0.0037774019
0.0037774156
0.0037774295
0.0037774434
0.0037774574
0.0037774715
0.0037774856
0.0037774999
0.0037775141
0.0037775285
0.0037775429
0.0037775574
0.003777572
0.0037775867
0.0037776014
0.0037776163
0.0037776312
0.0037776461
0.0037776612
0.0037776763
0.0037776915
0.0037777068
0.0037777222
0.0037777376
0.0037777531
0.0037777687
0.0037777844
0.0037778002
0.003777816
0.003777832
0.003777848
0.0037778641
0.0037778803
0.0037778966
0.0037779129
0.0037779293
0.0037779459
0.0037779625
0.0037779792
0.0037779959
0.0037780128
0.0037780297
0.0037780468
0.0037780639
0.0037780811
0.0037780984
0.0037781158
0.0037781333
0.0037781509
0.0037781685
0.0037781863
0.0037782041
0.0037782221
0.0037782401
0.0037782582
0.0037782764
0.0037782947
0.0037783132
0.0037783317
0.0037783503
0.0037783689
0.0037783877
0.0037784066
0.0037784255
0.0037784445
0.0037784636
0.0037784828
0.0037785023
0.0037785219
0.0037785416
0.0037785614
0.0037785813
0.0037786012
0.0037786213
0.0037786415
0.0037786618
0.0037786822
0.0037787027
0.0037787233
0.003778744
0.0037787648
0.0037787857
0.0037788067
0.0037788278
0.003778849
0.0037788703
0.0037788917
0.0037789132
0.0037789349
0.0037789566
0.0037789784
0.0037790004
0.0037790225
0.0037790447
0.0037790671
0.0037790895
0.0037791121
0.0037791348
0.0037791576
0.0037791806
0.0037792036
0.0037792266
0.0037792496
0.0037792728
0.0037792961
0.0037793195
0.0037793431
0.0037793669
0.0037793907
0.0037794147
0.0037794389
0.0037794631
0.0037794875
0.0037795121
0.0037795367
0.0037795615
0.0037795864
0.0037796115
0.0037796367
0.003779662
0.0037796874
0.003779713
0.0037797387
0.0037797645
0.0037797905
0.0037798165
0.0037798428
0.0037798691
0.0037798956
0.0037799221
0.0037799489
0.0037799757
0.0037800027
0.0037800298
0.003780057
0.0037800843
0.0037801118
0.0037801394
0.0037801671
0.0037801949
0.0037802229
0.0037802509
0.0037802792
0.0037803075
0.0037803359
0.0037803645
0.0037803933
0.0037804221
0.003780451
0.0037804801
0.0037805093
0.0037805386
0.003780568
0.0037805976
0.0037806273
0.0037806571
0.0037806871
0.0037807173
0.0037807476
0.0037807779
0.0037808082
0.0037808386
0.0037808691
0.0037808998
0.0037809305
0.0037809614
0.0037809925
0.0037810237
0.003781055
0.0037810865
0.0037811181
0.0037811499
0.0037811817
0.0037812138
0.0037812459
0.0037812782
0.0037813106
0.0037813431
0.0037813758
0.0037814086
0.0037814415
0.0037814746
0.0037815077
0.003781541
0.0037815745
0.0037816081
0.0037816418
0.0037816756
0.0037817096
0.0037817437
0.0037817779
0.0037818122
0.0037818466
0.003781881
0.0037819156
0.0037819503
0.0037819853
0.0037820203
0.0037820555
0.0037820908
0.0037821262
0.0037821617
0.0037821974
0.0037822332
0.0037822691
0.0037823052
0.0037823414
0.0037823778
0.0037824143
0.003782451
0.0037824878
0.0037825247
0.0037825618
0.003782599
0.0037826364
0.003782674
0.0037827116
0.0037827494
0.0037827874
0.0037828255
0.0037828637
0.0037829021
0.0037829407
0.0037829794
0.0037830183
0.0037830573
0.0037830965
0.0037831358
0.0037831753
0.003783215
0.0037832548
0.0037832949
0.003783335
0.0037833754
0.0037834159
0.0037834565
0.0037834973
0.0037835383
0.0037835795
0.0037836208
0.0037836623
0.003783704
0.0037837459
0.0037837879
0.0037838301
0.0037838725
0.0037839151
0.0037839578
0.0037840007
0.0037840438
0.0037840871
0.0037841305
0.0037841742
0.003784218
0.003784262
0.0037843062
0.0037843506
0.0037843952
0.0037844399
0.0037844849
0.00378453
0.0037845754
0.0037846209
0.0037846666
0.0037847126
0.0037847587
0.003784805
0.0037848515
0.0037848983
0.0037849452
0.0037849923
0.0037850397
0.0037850872
0.003785135
0.003785183
0.0037852312
0.0037852796
0.0037853282
0.003785377
0.0037854261
0.0037854754
0.0037855249
0.0037855746
0.0037856245
0.0037856747
0.0037857252
0.0037857758
0.0037858267
0.0037858778
0.0037859292
0.0037859808
0.0037860326
0.0037860847
0.003786137
0.0037861896
0.0037862424
0.0037862955
0.0037863488
0.0037864024
0.0037864563
0.0037865104
0.0037865647
0.0037866194
0.0037866743
0.0037867295
0.0037867849
0.0037868406
0.0037868966
0.0037869528
0.0037870094
0.0037870662
0.0037871233
0.0037871807
0.0037872383
0.0037872963
0.0037873545
0.0037874131
0.0037874719
0.0037875311
0.0037875905
0.0037876503
0.0037877103
0.0037877707
0.0037878314
0.0037878924
0.0037879537
0.0037880153
0.0037880772
0.0037881395
0.0037882021
0.003788265
0.0037883283
0.0037883918
0.0037884558
0.00378852
0.0037885846
0.0037886496
0.0037887149
0.0037887805
0.0037888466
0.0037889129
0.0037889797
0.0037890468
0.0037891142
0.003789182
0.0037892502
0.0037893188
0.0037893878
0.0037894571
0.0037895269
0.003789597
0.0037896675
0.0037897384
0.0037898097
0.0037898814
0.0037899536
0.0037900261
0.0037900991
0.0037901724
0.0037902462
0.0037903205
0.0037903951
0.0037904703
0.0037905458
0.0037906218
0.0037906982
0.0037907751
0.0037908525
0.0037909303
0.0037910086
0.0037910874
0.0037911666
0.0037912464
0.0037913266
0.0037914073
0.0037914886
0.0037915703
0.0037916525
0.0037917353
0.0037918186
0.0037919024
0.0037919867
0.0037920716
0.003792157
0.003792243
0.0037923295
0.0037924166
0.0037925042
0.0037925925
0.0037926813
0.0037927707
0.0037928607
0.0037929514
0.0037930426
0.0037931345
0.0037932269
0.00379332
0.0037934138
0.0037935082
0.0037936032
0.003793699
0.0037937953
0.0037938924
0.0037939902
0.0037940886
0.0037941878
0.0037942877
0.0037943882
0.0037944896
0.0037945916
0.0037946945
0.003794798
0.0037949024
0.0037950075
0.0037951134
0.0037952201
0.0037953276
0.0037954359
0.003795545
0.003795655
0.0037957658
0.0037958775
0.0037959901
0.0037961035
0.0037962178
0.003796333
0.0037964491
0.0037965662
0.0037966842
0.0037968031
0.003796923
0.0037970439
0.0037971657
0.0037972885
0.0037974124
0.0037975372
0.0037976631
0.00379779
0.003797918
0.003798047
0.0037981771
0.0037983083
0.0037984406
0.0037985741
0.0037987086
0.0037988444
0.0037989812
0.0037991193
0.0037992585
0.003799399
0.0037995406
0.0037996835
0.0037998276
0.003799973
0.0038001197
0.0038002676
0.0038004168
0.0038005674
0.0038007193
0.0038008725
0.0038010271
0.0038011831
0.0038013404
0.0038014992
0.0038016594
0.003801821
0.0038019841
0.0038021487
0.0038023148
0.0038024823
0.0038026514
0.003802822
0.0038029941
0.0038031678
0.0038033431
0.00380352
0.0038036985
0.0038038787
0.0038040605
0.0038042439
0.003804429
0.0038046159
0.0038048044
0.0038049947
0.0038051867
0.0038053805
0.0038055761
0.0038057735
0.0038059727
0.0038061737
0.0038063766
0.0038065813
0.003806788
0.0038069965
0.0038072069
0.0038074193
0.0038076337
0.00380785
0.0038080683
0.0038082887
0.003808511
0.0038087354
0.0038089618
0.0038091904
0.003809421
0.0038096537
0.0038098886
0.0038101256
0.0038103648
0.0038106061
0.0038108497
0.0038110955
0.0038113435
0.0038115937
0.0038118463
0.0038121011
0.0038123583
0.0038126178
0.0038128796
0.0038131437
0.0038134103
0.0038136792
0.0038139506
0.0038142244
0.0038145006
0.0038147794
0.0038150606
0.0038153443
0.0038156305
0.0038159192
0.0038162105
0.0038165044
0.0038168009
0.0038171
0.0038174017
0.0038177061
0.0038180131
0.0038183228
0.0038186352
0.0038189504
0.0038192682
0.0038195889
0.0038199122
0.0038202384
0.0038205674
0.0038208992
0.0038212338
0.0038215713
0.0038219117
0.003822255
0.0038226012
0.0038229503
0.0038233024
0.0038236574
0.0038240154
0.0038243764
0.0038247405
0.0038251075
0.0038254777
0.0038258509
0.0038262272
0.0038266066
0.0038269892
0.0038273749
0.0038277638
0.0038281558
0.0038285511
0.0038289496
0.0038293513
0.0038297563
0.0038301645
0.0038305761
0.003830991
0.0038314092
0.0038318307
0.0038322557
0.003832684
0.0038331158
0.0038335509
0.0038339896
0.0038344317
0.0038348773
0.0038353264
0.003835779
0.0038362352
0.0038366949
0.0038371583
0.0038376252
0.0038380958
0.00383857
0.0038390479
0.0038395295
0.0038400148
0.0038405039
0.0038409966
0.0038414932
0.0038419936
0.0038424978
0.0038430058
0.0038435178
0.0038440336
0.0038445533
0.0038450769
0.0038456045
0.0038461361
0.0038466717
0.0038472113
0.0038477549
0.0038483027
0.0038488545
0.0038494105
0.0038499706
0.0038505349
0.0038511034
0.0038516761
0.0038522531
0.0038528343
0.0038534199
0.0038540098
0.0038546041
0.0038552027
0.0038558058
0.0038564134
0.0038570254
0.0038576419
0.0038582629
0.0038588885
0.0038595188
0.0038601536
0.0038607931
0.0038614373
0.0038620863
0.00386274
0.0038633985
0.0038640618
0.00386473
0.0038654031
0.0038660812
0.0038667642
0.0038674523
0.0038681454
0.0038688436
0.003869547
0.0038702555
0.0038709693
0.0038716883
0.0038724127
0.0038731424
0.0038738775
0.0038746181
0.0038753641
0.0038761158
0.003876873
0.0038776359
0.0038784045
0.0038791788
0.003879959
0.0038807451
0.0038815371
0.0038823351
0.0038831392
0.0038839495
0.0038847659
0.0038855886
0.0038864176
0.0038872531
0.0038880951
0.0038889436
0.0038897988
0.0038906607
0.0038915294
0.003892405
0.0038932876
0.0038941774
0.0038950743
0.0038959785
0.0038968901
0.0038978092
0.0038987359
0.0038996703
0.0039006126
0.0039015629
0.0039025212
0.0039034878
0.0039044627
0.0039054462
0.0039064383
0.0039074392
0.0039084491
0.003909468
0.0039104963
0.0039115341
0.0039125815
0.0039136388
0.0039147061
0.0039157836
0.0039168716
0.0039179703
0.0039190799
0.0039202006
0.0039213327
0.0039224764
0.003923632
0.0039247998
0.0039259801
0.0039271731
0.0039283792
0.0039295987
0.0039308319
0.0039320792
0.0039333408
0.0039346173
0.0039359089
0.0039372162
0.0039385394
0.003939879
0.0039412356
0.0039426094
0.0039440011
0.0039454112
0.0039468401
0.0039482884
0.0039497567
0.0039512455
0.0039527555
0.0039542873
0.0039558415
0.0039574188
0.00395902
0.0039606458
0.0039622969
0.0039639741
0.0039656782
0.0039674101
0.0039691707
0.0039709609
0.0039727816
0.0039746338
0.0039765186
0.0039784369
0.00398039
0.0039823789
0.0039844048
0.0039864689
0.0039885725
0.003990717
0.0039929036
0.0039951337
0.003997409
0.0039997307
0.0040021006
0.0040045202
0.0040069913
0.0040095154
0.0040120946
0.0040147305
0.0040174251
0.0040201805
0.0040229987
0.0040258818
0.004028832
0.0040318515
0.0040349428
0.0040381083
0.0040413505
0.004044672
0.0040480755
0.0040515637
0.0040551396
0.004058806
0.0040625661
0.004066423
0.0040703799
0.0040744403
0.0040786075
0.0040828853
0.0040872772
0.0040917871
0.0040964189
0.0041011767
0.0041060646
0.004111087
0.0041162484
0.0041215532
0.0041270062
0.0041326122
0.0041383764
0.0041443038
0.0041503997
0.0041566697
0.0041631193
0.0041697543
0.0041765808
0.0041836048
0.0041908326
0.0041982708
0.0042059261
0.0042138052
0.0042219154
0.0042302637
0.0042388577
0.0042477052
0.0042568138
0.0042661918
0.0042758475
0.0042857893
0.0042960262
0.004306567
0.004317421
0.0043285978
0.004340107
0.0043519586
0.0043641629
0.0043767304
0.0043896719
0.0044029985
0.0044167213
0.0044308522
0.0044454029
0.0044603857
0.0044758131
0.0044916979
0.0045080531
0.0045248922
0.004542229
0.0045600775
0.0045784521
0.0045973675
0.0046168388
0.0046368815
0.0046575114
0.0046787444
0.0047005972
0.0047230866
0.0047462299
0.0047700446
0.0047945487
0.0048197606
0.0048456992
0.0048723835
0.0048998332
0.0049280683
0.0049571091
0.0049869764
0.0050176916
0.0050492762
0.0050817525
0.0051151429
0.0051494704
0.0051847585
0.0052210311
0.0052583124
0.0052966274
0.0053360013
0.0053764598
0.0054180292
0.0054607361
0.0055046078
0.0055496718
0.0055959564
0.0056434902
0.0056923023
0.0057424224
0.0057938806
0.0058467076
0.0059009345
0.0059565929
0.0060137152
0.0060723339
0.0061324823
0.0061941942
0.0062575037
0.0063224457
0.0063890555
0.0064573689
0.0065274222
0.0065992524
0.0066728969
0.0067483937
0.0068257812
0.0069050984
0.0069863848
0.0070696807
0.0071550265
0.0072424633
0.0073320329
0.0074237774
0.0075177396
0.0076139626
0.0077124903
0.0078133668
0.007916637
0.0080223462
0.0081305402
0.0082412653
0.0083545683
0.0084704966
0.0085890979
0.0087104206
0.0088345134
0.0089614257
0.0090912072
0.0092239081
0.009359579
0.0094982713
0.0096400363
0.0097849263
0.0099329936
0.010084291
0.010238873
0.010396791
0.010558101
0.010722858
0.010891115
0.011062929
0.011238355
0.011417449
0.011600268
0.011786869
0.011977308
0.012171643
0.012369931
0.012572232
0.012778603
0.012989103
0.01320379
0.013422725
0.013645966
0.013873573
0.014105605
0.014342124
0.014583189
0.014828861
0.015079199
0.015334266
0.015594122
0.015858829
0.016128446
0.016403036
0.016682659
0.016967378
0.017257254
0.017552348
0.017852722
0.018158437
0.018469555
0.018786138
0.019108247
0.019435943
0.019769288
0.020108343
0.020453169
0.020803828
0.021160381
0.021522887
0.021891409
0.022266006
0.022646738
0.023033667
0.023426851
0.023826351
0.024232225
0.024644534
0.025063335
0.025488687
0.025920648
0.026359278
0.026804631
0.027256767
0.027715742
0.028181612
0.028654433
0.029134261
0.029621151
0.030115158
0.030616335
0.031124737
0.031640417
0.032163427
0.03269382
0.033231648
0.033776961
0.03432981
0.034890245
0.035458316
0.036034071
0.036617558
0.037208826
0.03780792
0.038414888
0.039029774
0.039652625
0.040283483
0.040922393
0.041569397
0.042224538
0.042887857
0.043559395
0.044239191
0.044927286
0.045623716
0.046328521
0.047041737
0.0477634
0.048493545
0.049232207
0.04997942
0.050735217
0.051499629
0.052272688
0.053054425
0.053844869
0.054644049
0.055451993
0.056268728
0.05709428
0.057928675
0.058771938
0.059624091
0.060485158
0.061355161
0.062234121
0.063122058
0.064018992
0.064924941
0.065839922
0.066763953
0.06769705
0.068639227
0.069590498
0.070550878
0.071520378
0.072499009
0.073486784
0.07448371
0.075489798
0.076505056
0.077529491
0.078563108
0.079605914
0.080657914
0.081719111
0.082789509
0.083869109
0.084957913
0.086055922
0.087163134
0.08827955
0.089405167
0.090539983
0.091683993
0.092837194
0.093999581
0.095171147
0.096351887
0.097541792
0.098740855
0.099949066
0.10116642
0.10239289
0.10362849
0.10487319
0.10612699
0.10738986
0.1086618
0.10994279
0.11123281
0.11253186
0.1138399
0.11515694
0.11648293
0.11781788
0.11916176
0.12051454
0.12187622
0.12324676
0.12462614
0.12601435
0.12741136
0.12881714
0.13023168
0.13165495
0.13308691
0.13452756
0.13597685
0.13743477
0.13890128
0.14037636
0.14185998
0.14335211
0.14485273
0.14636179
0.14787928
0.14940515
0.15093939
0.15248195
0.15403281
0.15559194
0.15715929
0.15873485
0.16031856
0.16191041
0.16351035
0.16511835
0.16673438
0.1683584
0.16999038
0.17163027
0.17327804
0.17493366
0.17659709
0.17826829
0.17994722
0.18163385
0.18332813
0.18503004
0.18673952
0.18845655
0.19018107
0.19191307
0.19365248
0.19539928
0.19715342
0.19891486
0.20068356
0.20245949
0.2042426
0.20603285
0.20783019
0.2096346
0.21144602
0.21326441
0.21508974
0.21692195
0.21876102
0.22060689
0.22245952
0.22431888
0.22618491
0.22805758
0.22993684
0.23182266
0.23371498
0.23561376
0.23751897
0.23943055
0.24134847
0.24327268
0.24520314
0.24713981
0.24908263
0.25103157
0.25298659
0.25494764
0.25691467
0.25888765
0.26086652
0.26285126
0.2648418
0.26683811
0.26884015
0.27084787
0.27286122
0.27488017
0.27690467
0.27893468
0.28097014
0.28301103
0.28505729
0.28710888
0.28916576
0.29122788
0.2932952
0.29536768
0.29744528
0.29952794
0.30161563
0.3037083
0.30580591
0.30790842
0.31001578
0.31212795
0.31424488
0.31636654
0.31849288
0.32062385
0.32275942
0.32489954
0.32704417
0.32919326
0.33134678
0.33350468
0.33566691
0.33783344
0.34000422
0.34217921
0.34435837
0.34654166
0.34872902
0.35092043
0.35311584
0.3553152
0.35751848
0.35972563
0.36193661
0.36415138
0.3663699
0.36859213
0.37081802
0.37304753
0.37528063
0.37751727
0.3797574
0.382001
0.38424801
0.3864984
0.38875212
0.39100914
0.39326941
0.3955329
0.39779955
0.40006934
0.40234222
0.40461816
0.4068971
0.40917902
0.41146386
0.4137516
0.41604219
0.41833558
0.42063175
0.42293065
0.42523224
0.42753649
0.42984334
0.43215277
0.43446473
0.43677918
0.43909609
0.44141541
0.44373711
0.44606115
0.44838748
0.45071608
0.45304689
0.45537988
0.45771502
0.46005226
0.46239156
0.46473289
0.46707621
0.46942148
0.47176866
0.47411771
0.47646859
0.47882127
0.48117571
0.48353186
0.4858897
0.48824917
0.49061026
0.4929729
0.49533708
0.49770275
0.50006987
0.5024384
0.50480831
0.50717956
0.50955211
0.51192593
0.51430097
0.5166772
0.51905458
0.52143307
0.52381264
0.52619324
0.52857485
0.53095742
0.53334091
0.53572529
0.53811053
0.54049657
0.54288339
0.54527095
0.54765921
0.55004814
0.55243769
0.55482783
0.55721852
0.55960972
0.5620014
0.56439352
0.56678604
0.56917893
0.57157215
0.57396565
0.57635941
0.57875339
0.58114754
0.58354184
0.58593624
0.5883307
0.5907252
0.59311969
0.59551414
0.5979085
0.60030274
0.60269683
0.60509072
0.60748438
0.60987777
0.61227086
0.6146636
0.61705596
0.61944791
0.62183939
0.62423039
0.62662085
0.62901074
0.63140003
0.63378868
0.63617664
0.63856389
0.64095038
0.64333607
0.64572094
0.64810493
0.65048802
0.65287017
0.65525133
0.65763147
0.66001055
0.66238854
0.66476539
0.66714107
0.66951554
0.67188876
0.67426069
0.6766313
0.67900055
0.68136839
0.6837348
0.68609973
0.68846314
0.690825
0.69318526
0.6955439
0.69790086
0.70025611
0.70260962
0.70496134
0.70731123
0.70965927
0.7120054
0.71434958
0.71669179
0.71903198
0.72137011
0.72370614
0.72604003
0.72837175
0.73070126
0.73302851
0.73535346
0.73767608
0.73999633
0.74231417
0.74462955
0.74694245
0.74925281
0.7515606
0.75386578
0.75616831
0.75846815
0.76076526
0.7630596
0.76535113
0.7676398
0.76992559
0.77220845
0.77448833
0.77676521
0.77903903
0.78130976
0.78357736
0.78584179
0.788103
0.79036096
0.79261562
0.79486695
0.7971149
0.79935943
0.80160051
0.80383809
0.80607213
0.80830258
0.81052942
0.8127526
0.81497207
0.8171878
0.81939974
0.82160785
0.8238121
0.82601244
0.82820883
0.83040123
0.8325896
0.83477389
0.83695407
0.83913009
0.84130191
0.8434695
0.8456328
0.84779178
0.8499464
0.85209662
0.85424239
0.85638367
0.85852042
0.8606526
0.86278017
0.86490309
0.86702131
0.8691348
0.87124351
0.87334741
0.87544644
0.87754057
0.87962976
0.88171397
0.88379315
0.88586726
0.88793627
0.89000013
0.8920588
0.89411224
0.89616041
0.89820326
0.90024076
0.90227287
0.90429954
0.90632074
0.90833641
0.91034654
0.91235106
0.91434995
0.91634315
0.91833064
0.92031237
0.9222883
0.92425839
0.9262226
0.92818089
0.93013323
0.93207956
0.93401986
0.93595408
0.93788218
0.93980413
0.94171988
0.9436294
0.94553265
0.94742959
0.94932017
0.95120437
0.95308215
0.95495346
0.95681827
0.95867654
0.96052823
0.96237331
0.96421174
0.96604349
0.9678685
0.96968676
0.97149822
0.97330285
0.97510061
0.97689146
0.97867537
0.98045231
0.98222224
0.98398513
0.98574093
0.98748962
0.98923117
0.99096554
0.99269269
0.9944126
0.99612522
0.99783054
0.99952851
1.0012191
1.0029023
1.004578
1.0062463
1.0079071
1.0095603
1.011206
1.0128441
1.0144746
1.0160974
1.0177126
1.01932
1.0209197
1.0225117
1.0240958
1.0256722
1.0272407
1.0288013
1.0303541
1.0318989
1.0334358
1.0349647
1.0364856
1.0379985
1.0395034
1.0410002
1.042489
1.0439696
1.0454421
1.0469065
1.0483627
1.0498107
1.0512505
1.0526821
1.0541055
1.0555206
1.0569274
1.0583259
1.0597161
1.061098
1.0624716
1.0638368
1.0651936
1.066542
1.0678821
1.0692137
1.0705369
1.0718517
1.0731581
1.074456
1.0757454
1.0770264
1.0782989
1.0795629
1.0808184
1.0820654
1.0833039
1.0845338
1.0857553
1.0869682
1.0881727
1.0893685
1.0905559
1.0917347
1.092905
1.0940667
1.0952199
1.0963646
1.0975007
1.0986283
1.0997474
1.1008579
1.1019599
1.1030534
1.1041384
1.1052149
1.1062828
1.1073423
1.1083933
1.1094358
1.1104698
1.1114953
1.1125124
1.1135211
1.1145213
1.1155132
1.1164966
1.1174716
1.1184382
1.1193965
1.1203464
1.121288
1.1222212
1.1231462
1.1240629
1.1249713
1.1258715
1.1267634
1.1276472
1.1285227
1.1293901
1.1302493
1.1311005
1.1319435
1.1327785
1.1336054
1.1344243
1.1352352
1.1360381
1.136833
1.1376201
1.1383993
1.1391706
1.1399341
1.1406897
1.1414376
1.1421778
1.1429102
1.143635
1.1443521
1.1450617
1.1457636
1.146458
1.1471449
1.1478243
1.1484962
1.1491608
1.149818
1.1504678
1.1511104
1.1517457
1.1523737
1.1529947
1.1536084
1.1542151
1.1548147
1.1554072
1.1559928
1.1565715
1.1571433
1.1577082
1.1582662
1.1588176
1.1593621
1.1599
1.1604313
1.160956
1.1614741
1.1619857
1.1624908
1.1629895
1.1634818
1.1639678
1.1644476
1.1649211
1.1653884
1.1658495
1.1663046
1.1667536
1.1671966
1.1676336
1.1680648
1.1684901
1.1689096
1.1693233
1.1697313
1.1701336
1.1705303
1.1709215
1.1713071
1.1716872
1.172062
1.1724313
1.1727954
1.1731541
1.1735077
1.173856
1.1741992
1.1745374
1.1748705
1.1751986
1.1755219
1.1758402
1.1761537
1.1764624
1.1767664
1.1770657
1.1773603
1.1776504
1.1779359
1.178217
1.1784936
1.1787658
1.1790337
1.1792972
1.1795566
1.1798117
1.1800627
1.1803096
1.1805524
1.1807912
1.181026
1.181257
1.1814841
1.1817073
1.1819268
1.1821426
1.1823547
1.1825631
1.182768
1.1829693
1.1831671
1.1833615
1.1835525
1.1837401
1.1839243
1.1841053
1.1842831
1.1844577
1.1846292
1.1847975
1.1849628
1.1851251
1.1852844
1.1854408
1.1855942
1.1857449
1.1858927
1.1860378
1.1861801
1.1863197
1.1864567
1.1865911
1.1867229
1.1868522
1.186979
1.1871033
1.1872252
1.1873448
1.1874619
1.1875768
1.1876894
1.1877998
1.187908
1.188014
1.1881179
1.1882197
1.1883194
1.1884171
1.1885128
1.1886066
1.1886984
1.1887883
1.1888764
1.1889626
1.189047
1.1891297
1.1892106
1.1892898
1.1893673
1.1894432
1.1895174
1.1895901
1.1896612
1.1897307
1.1897988
1.1898653
1.1899304
1.1899941
1.1900564
1.1901173
1.1901768
1.1902351
1.190292
1.1903476
1.190402
1.1904552
1.1905072
1.1905579
1.1906076
1.1906561
1.1907034
1.1907497
1.1907949
1.1908391
1.1908822
1.1909243
1.1909654
1.1910056
1.1910448
1.1910831
1.1911204
1.1911569
1.1911925
1.1912272
1.1912611
1.1912942
1.1913265
1.191358
1.1913887
1.1914187
1.1914479
1.1914765
1.1915043
1.1915314
1.1915578
1.1915836
1.1916087
1.1916332
1.1916571
1.1916804
1.1917031
1.1917252
1.1917467
1.1917677
1.1917881
1.1918081
1.1918275
1.1918463
1.1918647
1.1918827
1.1919001
1.1919171
1.1919337
1.1919498
1.1919654
1.1919807
1.1919955
1.19201
1.1920241
1.1920377
1.1920511
1.192064
1.1920766
1.1920889
1.1921008
1.1921124
1.1921236
1.1921346
1.1921453
1.1921556
1.1921657
1.1921755
1.192185
1.1921942
1.1922032
1.1922119
1.1922204
1.1922287
1.1922367
1.1922444
1.192252
1.1922593
1.1922664
1.1922733
1.1922801
1.1922866
1.1922929
1.192299
1.192305
1.1923108
1.1923164
1.1923218
1.1923271
1.1923322
1.1923372
1.192342
1.1923467
1.1923512
1.1923556
1.1923599
1.192364
1.192368
1.1923719
1.1923756
1.1923793
1.1923828
1.1923862
1.1923895
1.1923927
1.1923958
1.1923988
1.1924018
1.1924046
1.1924073
1.1924099
1.1924125
1.192415
1.1924174
1.1924197
1.1924219
1.1924241
1.1924262
1.1924282
1.1924302
1.1924321
1.1924339
1.1924357
1.1924374
1.192439
1.1924406
1.1924422
1.1924437
1.1924451
1.1924465
1.1924478
1.1924491
1.1924504
1.1924516
1.1924527
1.1924539
1.192455
1.192456
1.192457
1.192458
1.1924589
1.1924598
1.1924607
1.1924615
1.1924623
1.1924631
1.1924638
1.1924646
1.1924653
1.1924659
1.1924666
1.1924672
1.1924678
1.1924683
1.1924689
1.1924694
1.1924699
1.1924704
1.1924708
1.1924713
1.1924717
1.1924721
1.1924725
1.1924729
1.1924732
1.1924736
1.1924739
1.1924742
1.1924745
1.1924748
1.192475
1.1924753
1.1924755