/*--------------------------------*- C++ -*----------------------------------*\
  =========                 |
  \\      /  F ield         | OpenFOAM: The Open Source CFD Toolbox
   \\    /   O peration     | Website:  https://openfoam.org
    \\  /    A nd           | Version:  7
     \\/     M anipulation  |
\*---------------------------------------------------------------------------*/
FoamFile
{
    version     2.0;
    format      ascii;
    class       volScalarField;
    location    "0.00341";
    object      rho;
}
// * * * * * * * * * * * * * * * * * * * * * * * * * * * * * * * * * * * * * //

dimensions      [1 -3 0 0 0 0 0];

internalField   nonuniform List<scalar> 
5000
(
0.85177543
0.85180217
0.85183048
0.85186849
0.85189735
0.85193527
0.85196423
0.8520021
0.85203102
0.85206884
0.85209773
0.85213551
0.85216437
0.85220213
0.85223097
0.8522687
0.85229752
0.85233523
0.85236403
0.8524017
0.85243048
0.85246813
0.85249689
0.8525345
0.85256324
0.85260082
0.85262953
0.85266708
0.85269576
0.85273327
0.85276193
0.85279941
0.85282803
0.85286548
0.85289408
0.85293148
0.85296005
0.85299742
0.85302596
0.85306329
0.8530918
0.8531291
0.85315758
0.85319483
0.85322328
0.8532605
0.85328892
0.8533261
0.85335449
0.85339163
0.85341999
0.85345709
0.85348542
0.85352248
0.85355078
0.8535878
0.85361607
0.85365305
0.8536813
0.85371824
0.85374645
0.85378335
0.85381153
0.85384839
0.85387655
0.85391337
0.85394149
0.85397828
0.85400637
0.85404311
0.85407117
0.85410788
0.85413591
0.85417258
0.85420058
0.8542372
0.85426518
0.85430176
0.8543297
0.85436625
0.85439416
0.85443067
0.85445855
0.85449502
0.85452287
0.8545593
0.85458713
0.85462352
0.85465131
0.85468766
0.85471542
0.85475173
0.85477947
0.85481574
0.85484344
0.85487967
0.85490735
0.85494354
0.85497118
0.85500733
0.85503495
0.85507106
0.85509864
0.85513472
0.85516227
0.85519831
0.85522583
0.85526183
0.85528932
0.85532528
0.85535274
0.85538866
0.85541609
0.85545197
0.85547937
0.85551522
0.85554259
0.85557839
0.85560573
0.85564149
0.85566881
0.85570453
0.85573181
0.8557675
0.85579475
0.8558304
0.85585762
0.85589322
0.85592042
0.85595598
0.85598315
0.85601868
0.85604581
0.8560813
0.8561084
0.85614385
0.85617092
0.85620633
0.85623338
0.85626875
0.85629576
0.8563311
0.85635808
0.85639337
0.85642033
0.85645558
0.85648251
0.85651772
0.85654462
0.85657979
0.85660666
0.8566418
0.85666863
0.85670373
0.85673054
0.8567656
0.85679237
0.85682739
0.85685414
0.85688912
0.85691584
0.85695078
0.85697747
0.85701237
0.85703903
0.85707389
0.85710052
0.85713535
0.85716194
0.85719673
0.8572233
0.85725805
0.85728459
0.8573193
0.85734581
0.85738048
0.85740696
0.85744159
0.85746804
0.85750263
0.85752905
0.8575636
0.85758999
0.85762451
0.85765087
0.85768535
0.85771168
0.85774611
0.85777242
0.85780682
0.85783309
0.85786744
0.8578937
0.85792802
0.85795422
0.85798849
0.85801475
0.85804882
0.85807528
0.85810903
0.85813577
0.85816914
0.85819623
0.85822916
0.85825665
0.85828907
0.85831703
0.85834889
0.85837737
0.85840862
0.85843767
0.85846825
0.85849793
0.85852777
0.85855816
0.8585872
0.85861833
0.85864656
0.85867843
0.85870587
0.85873843
0.85876517
0.85879828
0.85882449
0.85885797
0.85888385
0.85891749
0.85894323
0.85897687
0.85900257
0.85903618
0.85906185
0.85909542
0.85912106
0.85915459
0.8591802
0.85921369
0.85923928
0.85927273
0.85929828
0.8593317
0.85935722
0.8593906
0.85941609
0.85944943
0.8594749
0.8595082
0.85953363
0.8595669
0.8595923
0.85962553
0.8596509
0.85968409
0.85970944
0.85974259
0.8597679
0.85980102
0.8598263
0.85985938
0.85988464
0.85991767
0.8599429
0.8599759
0.8600011
0.86003406
0.86005923
0.86009215
0.86011729
0.86015017
0.86017529
0.86020813
0.86023321
0.86026602
0.86029108
0.86032384
0.86034887
0.8603816
0.8604066
0.86043929
0.86046426
0.86049691
0.86052185
0.86055447
0.86057938
0.86061195
0.86063683
0.86066937
0.86069423
0.86072673
0.86075155
0.86078402
0.86080881
0.86084124
0.860866
0.86089839
0.86092312
0.86095547
0.86098018
0.86101249
0.86103717
0.86106945
0.8610941
0.86112633
0.86115095
0.86118315
0.86120774
0.8612399
0.86126447
0.86129659
0.86132112
0.86135321
0.86137771
0.86140976
0.86143424
0.86146625
0.86149069
0.86152266
0.86154708
0.86157902
0.86160341
0.8616353
0.86165966
0.86169152
0.86171585
0.86174767
0.86177198
0.86180376
0.86182803
0.86185978
0.86188403
0.86191573
0.86193995
0.86197162
0.86199581
0.86202744
0.8620516
0.86208319
0.86210732
0.86213888
0.86216298
0.8621945
0.86221857
0.86225005
0.8622741
0.86230554
0.86232956
0.86236096
0.86238495
0.86241632
0.86244028
0.86247161
0.86249554
0.86252683
0.86255073
0.86258199
0.86260586
0.86263708
0.86266092
0.8626921
0.86271592
0.86274706
0.86277085
0.86280195
0.86282571
0.86285678
0.8628805
0.86291153
0.86293524
0.86296623
0.8629899
0.86302085
0.8630445
0.86307542
0.86309903
0.86312991
0.8631535
0.86318434
0.8632079
0.8632387
0.86326223
0.863293
0.8633165
0.86334723
0.8633707
0.86340139
0.86342483
0.86345549
0.8634789
0.86350952
0.8635329
0.86356348
0.86358684
0.86361738
0.86364071
0.86367122
0.86369452
0.86372499
0.86374826
0.86377869
0.86380193
0.86383232
0.86385554
0.86388589
0.86390908
0.8639394
0.86396256
0.86399284
0.86401597
0.86404621
0.86406931
0.86409952
0.86412259
0.86415276
0.8641758
0.86420594
0.86422895
0.86425905
0.86428203
0.86431209
0.86433505
0.86436507
0.864388
0.86441798
0.86444088
0.86447083
0.8644937
0.86452361
0.86454646
0.86457633
0.86459914
0.86462898
0.86465177
0.86468156
0.86470432
0.86473408
0.86475682
0.86478654
0.86480924
0.86483893
0.8648616
0.86489125
0.8649139
0.86494351
0.86496613
0.86499571
0.8650183
0.86504784
0.8650704
0.8650999
0.86512244
0.8651519
0.86517441
0.86520384
0.86522632
0.86525571
0.86527816
0.86530752
0.86532994
0.86535926
0.86538166
0.86541094
0.86543331
0.86546256
0.8654849
0.86551411
0.86553642
0.8655656
0.86558789
0.86561703
0.86563928
0.86566839
0.86569062
0.86571969
0.86574189
0.86577093
0.8657931
0.8658221
0.86584425
0.86587322
0.86589534
0.86592427
0.86594637
0.86597526
0.86599733
0.86602619
0.86604823
0.86607706
0.86609908
0.86612787
0.86614986
0.86617862
0.86620058
0.86622931
0.86625125
0.86627994
0.86630185
0.86633051
0.8663524
0.86638102
0.86640288
0.86643148
0.86645331
0.86648187
0.86650369
0.86653221
0.866554
0.8665825
0.86660426
0.86663273
0.86665447
0.8666829
0.86670462
0.86673302
0.86675471
0.86678308
0.86680475
0.86683309
0.86685474
0.86688305
0.86690468
0.86693296
0.86695456
0.86698281
0.86700439
0.86703262
0.86705418
0.86708237
0.86710391
0.86713208
0.86715359
0.86718174
0.86720323
0.86723135
0.86725282
0.86728091
0.86730237
0.86733043
0.86735187
0.86737991
0.86740132
0.86742934
0.86745074
0.86747873
0.86750011
0.86752808
0.86754944
0.86757739
0.86759873
0.86762665
0.86764798
0.86767589
0.8676972
0.86772508
0.86774638
0.86777424
0.86779552
0.86782336
0.86784463
0.86787245
0.86789371
0.86792151
0.86794275
0.86797054
0.86799177
0.86801954
0.86804075
0.8680685
0.86808971
0.86811745
0.86813864
0.86816635
0.86818755
0.86821527
0.86823643
0.86826405
0.86828545
0.86831267
0.86833454
0.86836122
0.86838364
0.86840974
0.86843272
0.86845826
0.86848174
0.86850681
0.86853069
0.86855538
0.86857959
0.86860399
0.86862842
0.86865263
0.86867721
0.86870128
0.86872596
0.86874994
0.86877469
0.8687986
0.86882339
0.86884726
0.86887208
0.86889592
0.86892075
0.86894457
0.86896942
0.86899322
0.86901807
0.86904188
0.86906671
0.86909054
0.86911533
0.8691392
0.86916394
0.86918787
0.86921255
0.86923654
0.86926114
0.86928521
0.86930974
0.86933388
0.86935833
0.86938255
0.86940693
0.86943121
0.86945552
0.86947987
0.86950413
0.86952852
0.86955274
0.86957716
0.86960135
0.8696258
0.86964997
0.86967444
0.86969859
0.86972308
0.86974721
0.86977171
0.86979584
0.86982034
0.86984446
0.86986897
0.86989309
0.8699176
0.86994171
0.86996622
0.86999033
0.87001484
0.87003895
0.87006346
0.87008757
0.87011208
0.87013618
0.87016069
0.87018479
0.87020929
0.87023339
0.87025789
0.87028198
0.87030648
0.87033057
0.87035506
0.87037915
0.87040364
0.87042772
0.8704522
0.87047627
0.87050075
0.87052482
0.87054929
0.87057335
0.87059781
0.87062187
0.87064632
0.87067037
0.87069481
0.87071885
0.87074329
0.87076731
0.87079174
0.87081575
0.87084017
0.87086417
0.87088858
0.87091257
0.87093696
0.87096094
0.87098532
0.87100929
0.87103365
0.87105761
0.87108195
0.87110589
0.87113023
0.87115415
0.87117847
0.87120237
0.87122667
0.87125056
0.87127484
0.87129871
0.87132297
0.87134682
0.87137107
0.87139489
0.87141912
0.87144292
0.87146713
0.87149091
0.8715151
0.87153885
0.87156302
0.87158675
0.8716109
0.8716346
0.87165873
0.87168241
0.87170651
0.87173016
0.87175424
0.87177786
0.87180191
0.87182551
0.87184954
0.87187311
0.87189711
0.87192064
0.87194462
0.87196813
0.87199208
0.87201555
0.87203948
0.87206291
0.87208682
0.87211022
0.8721341
0.87215746
0.87218131
0.87220465
0.87222846
0.87225178
0.87227555
0.87229884
0.87232257
0.87234585
0.87236952
0.87239279
0.8724164
0.87243967
0.87246322
0.87248648
0.87250997
0.87253323
0.87255666
0.8725799
0.87260328
0.87262651
0.87264983
0.87267304
0.87269632
0.87271951
0.87274274
0.8727659
0.87278909
0.87281223
0.87283537
0.87285848
0.87288158
0.87290466
0.87292773
0.87295077
0.8729738
0.87299681
0.8730198
0.87304277
0.87306573
0.87308867
0.87311159
0.87313449
0.87315738
0.87318024
0.87320309
0.87322592
0.87324874
0.87327153
0.87329431
0.87331707
0.87333981
0.87336253
0.87338524
0.87340792
0.87343059
0.87345324
0.87347588
0.87349849
0.87352109
0.87354367
0.87356623
0.87358877
0.8736113
0.8736338
0.87365629
0.87367876
0.87370122
0.87372365
0.87374607
0.87376847
0.87379085
0.87381321
0.87383556
0.87385788
0.8738802
0.87390249
0.87392476
0.87394702
0.87396926
0.87399148
0.87401368
0.87403586
0.87405803
0.87408018
0.87410231
0.87412443
0.87414653
0.87416861
0.87419067
0.87421271
0.87423474
0.87425675
0.87427874
0.87430071
0.87432266
0.8743446
0.87436652
0.87438842
0.87441031
0.87443217
0.87445403
0.87447586
0.87449768
0.87451948
0.87454126
0.87456302
0.87458477
0.8746065
0.87462821
0.8746499
0.87467157
0.87469323
0.87471487
0.87473649
0.8747581
0.87477969
0.87480126
0.87482282
0.87484436
0.87486588
0.87488738
0.87490887
0.87493034
0.87495179
0.87497323
0.87499464
0.87501604
0.87503742
0.87505878
0.87508013
0.87510146
0.87512277
0.87514406
0.87516534
0.8751866
0.87520784
0.87522907
0.87525028
0.87527147
0.87529265
0.87531381
0.87533496
0.87535609
0.8753772
0.8753983
0.87541938
0.87544044
0.87546148
0.87548251
0.87550352
0.87552451
0.87554548
0.87556644
0.87558738
0.8756083
0.8756292
0.87565008
0.87567095
0.8756918
0.87571263
0.87573344
0.87575424
0.87577502
0.87579578
0.87581652
0.87583725
0.87585796
0.87587864
0.87589932
0.87591997
0.8759406
0.87596122
0.87598182
0.87600241
0.87602297
0.87604352
0.87606406
0.87608457
0.87610507
0.87612555
0.87614602
0.87616647
0.8761869
0.87620731
0.87622771
0.87624809
0.87626845
0.87628879
0.87630911
0.87632942
0.87634971
0.87636998
0.87639024
0.87641047
0.87643069
0.87645089
0.87647107
0.87649124
0.87651138
0.87653151
0.87655162
0.87657171
0.87659179
0.87661185
0.87663189
0.87665191
0.87667192
0.8766919
0.87671187
0.87673182
0.87675176
0.87677167
0.87679157
0.87681145
0.87683131
0.87685116
0.87687099
0.87689081
0.8769106
0.87693038
0.87695014
0.87696988
0.87698961
0.87700931
0.877029
0.87704867
0.87706832
0.87708796
0.87710757
0.87712717
0.87714675
0.87716631
0.87718586
0.87720538
0.87722489
0.87724438
0.87726386
0.87728331
0.87730275
0.87732217
0.87734158
0.87736096
0.87738033
0.87739968
0.87741901
0.87743832
0.87745762
0.8774769
0.87749616
0.87751541
0.87753463
0.87755384
0.87757303
0.87759221
0.87761136
0.8776305
0.87764962
0.87766873
0.87768781
0.87770689
0.87772594
0.87774497
0.87776399
0.87778299
0.87780197
0.87782093
0.87783988
0.87785881
0.87787772
0.87789661
0.87791548
0.87793434
0.87795318
0.877972
0.87799081
0.8780096
0.87802837
0.87804713
0.87806587
0.87808459
0.8781033
0.87812199
0.87814065
0.87815931
0.87817794
0.87819656
0.87821516
0.87823374
0.87825231
0.87827086
0.8782894
0.87830791
0.87832641
0.8783449
0.87836336
0.87838181
0.87840024
0.87841865
0.87843704
0.87845542
0.87847378
0.87849213
0.87851046
0.87852878
0.87854708
0.87856536
0.87858362
0.87860187
0.8786201
0.8786383
0.8786565
0.87867468
0.87869284
0.87871099
0.87872912
0.87874723
0.87876533
0.87878341
0.87880148
0.87881952
0.87883755
0.87885556
0.87887356
0.87889154
0.87890951
0.87892746
0.87894539
0.8789633
0.8789812
0.87899908
0.87901693
0.87903478
0.8790526
0.87907041
0.87908821
0.87910599
0.87912376
0.87914151
0.87915924
0.87917696
0.87919467
0.87921235
0.87923002
0.87924768
0.87926531
0.87928293
0.87930054
0.87931812
0.8793357
0.87935325
0.87937079
0.87938831
0.87940581
0.87942329
0.87944076
0.8794582
0.87947564
0.87949305
0.87951045
0.87952784
0.87954522
0.87956258
0.87957992
0.87959725
0.87961457
0.87963187
0.87964915
0.87966641
0.87968366
0.87970089
0.87971811
0.8797353
0.87975248
0.87976965
0.8797868
0.87980394
0.87982106
0.87983817
0.87985526
0.87987234
0.87988941
0.87990646
0.87992349
0.8799405
0.87995751
0.87997449
0.87999146
0.88000842
0.88002536
0.88004229
0.8800592
0.8800761
0.88009299
0.88010986
0.88012672
0.88014357
0.8801604
0.88017722
0.88019402
0.88021081
0.88022758
0.88024434
0.88026108
0.88027781
0.88029452
0.88031121
0.88032789
0.88034455
0.8803612
0.88037783
0.88039445
0.88041105
0.88042763
0.8804442
0.88046075
0.88047728
0.8804938
0.88051031
0.88052679
0.88054326
0.88055972
0.88057616
0.88059259
0.88060899
0.88062539
0.88064177
0.88065813
0.88067447
0.8806908
0.8807071
0.88072339
0.88073967
0.88075592
0.88077217
0.8807884
0.88080461
0.88082081
0.88083698
0.88085315
0.88086929
0.88088542
0.88090153
0.88091762
0.88093369
0.88094975
0.88096578
0.8809818
0.8809978
0.88101379
0.88102976
0.88104572
0.88106167
0.88107759
0.8810935
0.88110939
0.88112526
0.88114111
0.88115694
0.88117276
0.88118856
0.88120434
0.88122011
0.88123586
0.88125159
0.88126732
0.88128302
0.8812987
0.88131437
0.88133002
0.88134564
0.88136125
0.88137684
0.88139242
0.88140798
0.88142352
0.88143905
0.88145456
0.88147006
0.88148554
0.881501
0.88151645
0.88153187
0.88154728
0.88156267
0.88157805
0.8815934
0.88160874
0.88162407
0.88163937
0.88165467
0.88166994
0.8816852
0.88170044
0.88171567
0.88173088
0.88174607
0.88176125
0.8817764
0.88179155
0.88180667
0.88182178
0.88183687
0.88185194
0.881867
0.88188204
0.88189707
0.88191208
0.88192708
0.88194205
0.88195702
0.88197196
0.88198689
0.8820018
0.8820167
0.88203158
0.88204644
0.88206129
0.88207612
0.88209094
0.88210574
0.88212052
0.88213529
0.88215005
0.88216478
0.88217951
0.88219421
0.8822089
0.88222358
0.88223824
0.88225288
0.88226751
0.88228213
0.88229673
0.88231132
0.88232589
0.88234045
0.88235499
0.88236952
0.88238403
0.88239853
0.88241301
0.88242748
0.88244194
0.88245638
0.8824708
0.88248521
0.88249961
0.88251399
0.88252836
0.88254272
0.88255705
0.88257138
0.88258569
0.8826
0.88261428
0.88262856
0.88264282
0.88265706
0.8826713
0.88268551
0.88269972
0.88271391
0.88272809
0.88274225
0.88275641
0.88277054
0.88278466
0.88279877
0.88281286
0.88282695
0.88284101
0.88285508
0.8828691
0.88288315
0.88289714
0.88291116
0.88292513
0.88293912
0.88295306
0.88296703
0.88298094
0.88299487
0.88300875
0.88302266
0.88303652
0.88305039
0.88306422
0.88307806
0.88309187
0.88310567
0.88311946
0.88313323
0.883147
0.88316072
0.88317447
0.88318816
0.88320188
0.88321555
0.88322924
0.88324287
0.88325653
0.88327014
0.88328376
0.88329734
0.88331093
0.88332449
0.88333804
0.88335157
0.88336509
0.8833786
0.88339208
0.88340556
0.883419
0.88343246
0.88344587
0.8834593
0.88347268
0.88348607
0.88349942
0.88351278
0.88352611
0.88353943
0.88355273
0.88356602
0.88357929
0.88359254
0.88360579
0.883619
0.88363222
0.8836454
0.88365859
0.88367173
0.88368489
0.88369801
0.88371114
0.88372423
0.88373732
0.88375038
0.88376344
0.88377647
0.88378949
0.8838025
0.88381548
0.88382846
0.88384141
0.88385436
0.88386727
0.88388019
0.88389307
0.88390596
0.88391881
0.88393166
0.88394449
0.8839573
0.8839701
0.88398288
0.88399564
0.88400839
0.88402113
0.88403384
0.88404655
0.88405923
0.8840719
0.88408455
0.8840972
0.88410981
0.88412242
0.88413501
0.88414759
0.88416014
0.88417269
0.88418521
0.88419773
0.88421022
0.88422271
0.88423517
0.88424762
0.88426006
0.88427247
0.88428488
0.88429726
0.88430963
0.88432198
0.88433433
0.88434664
0.88435896
0.88437125
0.88438352
0.88439578
0.88440803
0.88442026
0.88443248
0.88444468
0.88445687
0.88446903
0.88448119
0.88449333
0.88450545
0.88451756
0.88452966
0.88454174
0.8845538
0.88456585
0.88457788
0.8845899
0.8846019
0.88461389
0.88462586
0.88463782
0.88464977
0.8846617
0.88467361
0.88468551
0.8846974
0.88470927
0.88472113
0.88473296
0.88474479
0.8847566
0.8847684
0.88478019
0.88479196
0.88480372
0.88481547
0.8848272
0.88483892
0.88485062
0.88486231
0.88487399
0.88488564
0.88489729
0.88490892
0.88492054
0.88493215
0.88494374
0.88495532
0.88496689
0.88497844
0.88498999
0.88500151
0.88501304
0.88502454
0.88503604
0.88504751
0.88505897
0.88507043
0.88508186
0.88509329
0.8851047
0.8851161
0.88512749
0.88513885
0.88515023
0.88516157
0.88517291
0.88518423
0.88519554
0.88520684
0.88521811
0.88522938
0.88524062
0.88525187
0.88526309
0.88527429
0.8852855
0.88529667
0.88530786
0.885319
0.88533017
0.8853413
0.88535242
0.88536355
0.88537462
0.88538573
0.88539678
0.88540785
0.88541888
0.88542992
0.88544093
0.88545194
0.88546291
0.8854739
0.88548483
0.8854958
0.88550671
0.88551765
0.88552852
0.88553944
0.88555029
0.88556118
0.885572
0.88558285
0.88559366
0.88560448
0.88561526
0.88562604
0.8856368
0.88564755
0.88565828
0.885669
0.88567971
0.88569039
0.88570107
0.88571173
0.88572239
0.88573302
0.88574364
0.88575425
0.88576484
0.88577542
0.88578598
0.88579653
0.88580706
0.88581758
0.88582809
0.88583858
0.88584907
0.88585953
0.88586998
0.88588042
0.88589085
0.88590125
0.88591165
0.88592202
0.88593238
0.88594272
0.88595306
0.88596337
0.88597368
0.88598396
0.88599424
0.88600449
0.88601474
0.88602497
0.88603519
0.88604539
0.88605558
0.88606575
0.88607592
0.88608606
0.88609619
0.88610631
0.88611641
0.8861265
0.88613657
0.88614663
0.88615667
0.88616669
0.88617671
0.8861867
0.88619669
0.88620666
0.88621661
0.88622655
0.88623648
0.88624639
0.88625629
0.88626618
0.88627605
0.8862859
0.88629574
0.88630557
0.88631538
0.88632517
0.88633495
0.88634472
0.88635448
0.88636421
0.88637394
0.88638365
0.88639334
0.88640302
0.88641268
0.88642233
0.88643197
0.88644159
0.8864512
0.8864608
0.88647038
0.88647995
0.8864895
0.88649904
0.88650856
0.88651806
0.88652756
0.88653703
0.8865465
0.88655595
0.88656538
0.88657481
0.88658422
0.88659361
0.886603
0.88661237
0.88662172
0.88663106
0.88664039
0.8866497
0.886659
0.88666828
0.88667755
0.88668681
0.88669605
0.88670528
0.8867145
0.8867237
0.88673289
0.88674207
0.88675123
0.88676039
0.88676953
0.88677866
0.88678777
0.88679687
0.88680596
0.88681503
0.88682409
0.88683314
0.88684217
0.88685119
0.88686019
0.88686918
0.88687816
0.88688713
0.88689608
0.88690502
0.88691395
0.88692287
0.88693177
0.88694066
0.88694954
0.88695841
0.88696726
0.8869761
0.88698493
0.88699374
0.88700254
0.88701133
0.8870201
0.88702887
0.88703761
0.88704635
0.88705507
0.88706378
0.88707247
0.88708116
0.88708982
0.88709848
0.88710712
0.88711574
0.88712436
0.88713296
0.88714155
0.88715012
0.88715869
0.88716724
0.88717577
0.88718429
0.8871928
0.8872013
0.88720978
0.88721824
0.8872267
0.88723514
0.88724357
0.88725198
0.88726038
0.88726877
0.88727714
0.8872855
0.88729384
0.88730217
0.88731049
0.8873188
0.88732709
0.88733536
0.88734363
0.88735188
0.88736011
0.88736833
0.88737654
0.88738473
0.8873929
0.88740106
0.88740921
0.88741735
0.88742547
0.88743358
0.88744168
0.88744976
0.88745783
0.88746588
0.88747392
0.88748195
0.88748996
0.88749796
0.88750594
0.88751392
0.88752187
0.88752981
0.88753774
0.88754565
0.88755355
0.88756144
0.88756931
0.88757717
0.88758501
0.88759284
0.88760065
0.88760845
0.88761624
0.88762402
0.88763178
0.88763952
0.88764725
0.88765497
0.88766267
0.88767036
0.88767803
0.88768569
0.88769334
0.88770098
0.8877086
0.8877162
0.8877238
0.88773137
0.88773893
0.88774648
0.88775402
0.88776154
0.88776905
0.88777654
0.88778402
0.88779148
0.88779893
0.88780637
0.88781379
0.8878212
0.88782859
0.88783597
0.88784334
0.88785069
0.88785802
0.88786534
0.88787265
0.88787995
0.88788723
0.8878945
0.88790175
0.88790899
0.88791622
0.88792343
0.88793063
0.88793782
0.887945
0.88795216
0.88795931
0.88796644
0.88797355
0.88798065
0.88798774
0.88799482
0.88800188
0.88800892
0.88801596
0.88802297
0.88802998
0.88803697
0.88804395
0.88805091
0.88805787
0.88806481
0.88807173
0.88807864
0.88808554
0.88809242
0.88809929
0.88810614
0.88811299
0.88811982
0.88812664
0.88813345
0.88814024
0.88814702
0.88815379
0.88816054
0.88816728
0.88817401
0.88818072
0.88818742
0.8881941
0.88820078
0.88820743
0.88821408
0.88822071
0.88822733
0.88823394
0.88824053
0.88824711
0.88825367
0.88826023
0.88826677
0.8882733
0.88827981
0.88828632
0.88829281
0.88829929
0.88830575
0.8883122
0.88831864
0.88832507
0.88833149
0.88833789
0.88834427
0.88835065
0.888357
0.88836335
0.88836968
0.888376
0.88838231
0.8883886
0.88839488
0.88840115
0.8884074
0.88841364
0.88841987
0.88842609
0.88843229
0.88843848
0.88844466
0.88845082
0.88845697
0.88846311
0.88846923
0.88847534
0.88848143
0.88848752
0.88849358
0.88849964
0.88850568
0.8885117
0.88851771
0.88852371
0.8885297
0.88853567
0.88854163
0.88854757
0.8885535
0.88855941
0.88856532
0.88857121
0.88857708
0.88858294
0.88858878
0.88859461
0.88860043
0.88860623
0.88861202
0.8886178
0.88862356
0.88862931
0.88863504
0.88864076
0.88864647
0.88865216
0.88865783
0.8886635
0.88866915
0.88867478
0.88868041
0.88868601
0.88869161
0.88869718
0.88870275
0.8887083
0.88871383
0.88871935
0.88872486
0.88873035
0.88873583
0.88874129
0.88874674
0.88875217
0.8887576
0.888763
0.8887684
0.88877378
0.88877914
0.88878449
0.88878983
0.88879515
0.88880046
0.88880575
0.88881103
0.8888163
0.88882154
0.88882677
0.88883199
0.8888372
0.88884239
0.88884756
0.88885273
0.88885787
0.88886301
0.88886813
0.88887323
0.88887832
0.8888834
0.88888845
0.8888935
0.88889853
0.88890354
0.88890854
0.88891352
0.88891849
0.88892345
0.88892838
0.88893331
0.88893822
0.88894311
0.88894799
0.88895285
0.8889577
0.88896254
0.88896735
0.88897216
0.88897694
0.88898171
0.88898647
0.88899121
0.88899593
0.88900064
0.88900532
0.88901
0.88901466
0.8890193
0.88902392
0.88902853
0.88903312
0.88903769
0.88904225
0.88904679
0.88905132
0.88905583
0.88906032
0.88906479
0.88906925
0.88907368
0.8890781
0.8890825
0.88908688
0.88909124
0.88909559
0.88909992
0.88910422
0.88910851
0.88911278
0.88911703
0.88912126
0.88912547
0.88912966
0.88913383
0.88913797
0.8891421
0.8891462
0.88915028
0.88915434
0.88915837
0.88916239
0.88916638
0.88917034
0.88917428
0.8891782
0.88918209
0.88918595
0.88918979
0.88919361
0.8891974
0.88920116
0.88920489
0.8892086
0.88921227
0.88921592
0.88921954
0.88922313
0.88922669
0.88923021
0.88923371
0.88923717
0.88924059
0.88924399
0.88924734
0.88925066
0.88925394
0.88925719
0.8892604
0.88926357
0.8892667
0.88926979
0.88927283
0.88927584
0.8892788
0.88928172
0.88928459
0.88928741
0.88929018
0.8892929
0.88929558
0.8892982
0.88930077
0.88930328
0.88930574
0.88930814
0.88931048
0.88931277
0.889315
0.88931716
0.88931927
0.88932131
0.88932328
0.88932519
0.88932703
0.88932879
0.88933049
0.88933211
0.88933366
0.88933513
0.88933653
0.88933784
0.88933907
0.88934022
0.88934128
0.88934226
0.88934315
0.88934395
0.88934465
0.88934526
0.88934577
0.88934618
0.88934649
0.88934671
0.88934681
0.88934681
0.88934671
0.8893465
0.88934617
0.88934574
0.88934518
0.88934452
0.88934373
0.88934282
0.88934179
0.88934063
0.88933934
0.88933793
0.88933639
0.88933471
0.8893329
0.88933095
0.88932886
0.88932663
0.88932426
0.88932175
0.88931908
0.88931627
0.88931331
0.8893102
0.88930693
0.88930351
0.88929993
0.88929619
0.8892923
0.88928824
0.88928402
0.88927963
0.88927508
0.88927035
0.88926546
0.8892604
0.88925517
0.88924976
0.88924418
0.88923843
0.8892325
0.88922639
0.88922011
0.88921364
0.889207
0.88920018
0.88919317
0.88918599
0.88917862
0.88917107
0.88916334
0.88915542
0.88914733
0.88913905
0.88913058
0.88912194
0.88911311
0.8891041
0.88909491
0.88908553
0.88907598
0.88906624
0.88905633
0.88904623
0.88903596
0.88902551
0.88901488
0.88900408
0.8889931
0.88898195
0.88897063
0.88895914
0.88894748
0.88893566
0.88892367
0.88891152
0.88889921
0.88888675
0.88887412
0.88886135
0.88884842
0.88883534
0.88882212
0.88880876
0.88879525
0.88878161
0.88876784
0.88875393
0.88873989
0.88872572
0.88871144
0.88869703
0.88868251
0.88866787
0.88865313
0.88863828
0.88862333
0.88860828
0.88859314
0.88857791
0.88856259
0.88854719
0.88853171
0.88851615
0.88850053
0.88848484
0.88846908
0.88845326
0.88843739
0.88842148
0.88840551
0.88838951
0.88837347
0.88835739
0.88834129
0.88832516
0.88830901
0.88829285
0.88827668
0.8882605
0.88824432
0.88822813
0.88821196
0.88819579
0.88817964
0.8881635
0.8881474
0.88813131
0.88811526
0.88809924
0.88808326
0.88806732
0.88805143
0.88803559
0.88801981
0.88800408
0.88798841
0.88797281
0.88795728
0.88794182
0.88792644
0.88791113
0.88789592
0.88788078
0.88786575
0.88785079
0.88783594
0.88782119
0.88780653
0.88779198
0.88777754
0.8877632
0.88774897
0.88773486
0.88772086
0.88770698
0.88769321
0.88767957
0.88766605
0.88765265
0.88763938
0.88762624
0.88761323
0.88760034
0.88758759
0.88757497
0.88756249
0.88755015
0.88753794
0.88752587
0.88751394
0.88750215
0.88749049
0.88747898
0.88746761
0.88745637
0.88744528
0.88743433
0.88742352
0.88741284
0.88740231
0.88739192
0.88738166
0.88737155
0.88736157
0.88735172
0.88734201
0.88733244
0.887323
0.8873137
0.88730453
0.88729549
0.88728658
0.8872778
0.88726915
0.88726062
0.88725222
0.88724395
0.8872358
0.88722777
0.88721986
0.88721207
0.8872044
0.88719685
0.88718941
0.88718208
0.88717486
0.88716776
0.88716076
0.88715386
0.88714707
0.88714039
0.8871338
0.88712731
0.88712091
0.88711461
0.88710841
0.88710229
0.88709626
0.88709032
0.88708447
0.8870787
0.88707301
0.8870674
0.88706187
0.88705641
0.88705103
0.88704572
0.88704048
0.88703531
0.88703021
0.88702517
0.8870202
0.88701529
0.88701044
0.88700565
0.88700092
0.88699624
0.88699162
0.88698705
0.88698253
0.88697805
0.88697363
0.88696925
0.88696491
0.88696062
0.88695637
0.88695216
0.88694799
0.88694385
0.88693976
0.88693569
0.88693166
0.88692767
0.8869237
0.88691976
0.88691585
0.88691197
0.88690811
0.88690428
0.88690047
0.88689668
0.88689292
0.88688917
0.88688545
0.88688174
0.88687806
0.88687439
0.88687073
0.88686709
0.88686346
0.88685985
0.88685625
0.88685265
0.88684907
0.8868455
0.88684194
0.88683838
0.88683484
0.88683129
0.88682776
0.88682423
0.88682071
0.88681719
0.88681368
0.88681017
0.88680666
0.88680316
0.88679965
0.88679614
0.88679264
0.88678913
0.88678562
0.8867821
0.88677859
0.88677507
0.88677155
0.88676803
0.8867645
0.88676097
0.88675744
0.8867539
0.88675035
0.8867468
0.88674325
0.88673968
0.88673612
0.88673255
0.88672897
0.88672538
0.88672179
0.88671819
0.88671459
0.88671097
0.88670735
0.88670371
0.88670007
0.88669641
0.88669274
0.88668907
0.88668538
0.88668169
0.88667798
0.88667426
0.88667054
0.8866668
0.88666306
0.8866593
0.88665553
0.88665175
0.88664796
0.88664416
0.88664034
0.88663651
0.88663267
0.88662881
0.88662494
0.88662106
0.88661717
0.88661326
0.88660934
0.88660541
0.88660147
0.88659751
0.88659354
0.88658956
0.88658557
0.88658156
0.88657754
0.88657351
0.88656946
0.88656539
0.88656132
0.88655723
0.88655312
0.886549
0.88654487
0.88654072
0.88653656
0.88653239
0.8865282
0.886524
0.88651978
0.88651555
0.88651131
0.88650705
0.88650278
0.88649849
0.88649419
0.88648987
0.88648554
0.88648118
0.88647683
0.88647244
0.88646806
0.88646364
0.88645922
0.88645479
0.88645034
0.88644587
0.88644139
0.8864369
0.88643239
0.88642786
0.88642333
0.88641877
0.88641421
0.88640963
0.88640503
0.88640042
0.88639579
0.88639115
0.88638649
0.88638182
0.88637713
0.88637244
0.88636771
0.886363
0.88635822
0.88635349
0.88634869
0.88634392
0.8863391
0.88633429
0.88632945
0.88632459
0.88631975
0.88631484
0.88630998
0.88630504
0.88630014
0.8862952
0.88629023
0.88628529
0.88628029
0.8862753
0.8862703
0.88626526
0.88626025
0.88625517
0.88625011
0.88624504
0.88623992
0.88623483
0.8862297
0.88622455
0.88621941
0.88621422
0.88620905
0.88620385
0.88619863
0.88619341
0.88618816
0.8861829
0.88617765
0.88617235
0.88616705
0.88616175
0.88615641
0.88615107
0.88614572
0.88614035
0.88613497
0.88612958
0.88612416
0.88611875
0.88611331
0.88610786
0.8861024
0.88609692
0.88609142
0.88608592
0.8860804
0.88607486
0.88606931
0.88606375
0.88605816
0.88605258
0.88604697
0.88604135
0.88603572
0.88603007
0.8860244
0.88601873
0.88601304
0.88600733
0.88600162
0.88599589
0.88599014
0.88598438
0.88597861
0.88597282
0.88596702
0.88596121
0.88595539
0.88594954
0.88594369
0.88593782
0.88593194
0.88592604
0.88592013
0.8859142
0.88590826
0.88590231
0.88589634
0.88589036
0.88588436
0.88587835
0.88587232
0.88586628
0.88586022
0.88585414
0.88584805
0.88584194
0.88583582
0.88582967
0.88582352
0.88581735
0.88581116
0.88580495
0.88579874
0.88579251
0.88578627
0.88578002
0.88577375
0.88576747
0.88576117
0.88575487
0.88574855
0.8857422
0.88573584
0.88572947
0.88572308
0.88571667
0.88571024
0.8857038
0.88569735
0.88569088
0.88568441
0.88567792
0.88567142
0.88566491
0.88565838
0.88565183
0.88564527
0.88563868
0.88563207
0.88562545
0.88561881
0.88561215
0.88560549
0.88559881
0.88559212
0.88558542
0.8855787
0.88557196
0.8855652
0.88555843
0.88555163
0.88554482
0.88553799
0.88553115
0.8855243
0.88551743
0.88551055
0.88550365
0.88549674
0.8854898
0.88548284
0.88547586
0.88546887
0.88546186
0.88545484
0.8854478
0.88544076
0.88543369
0.88542661
0.8854195
0.88541238
0.88540524
0.88539809
0.88539092
0.88538374
0.88537655
0.88536934
0.88536211
0.88535486
0.8853476
0.88534032
0.88533302
0.88532571
0.88531838
0.88531104
0.88530369
0.88529631
0.88528892
0.8852815
0.88527407
0.88526662
0.88525916
0.88525168
0.88524418
0.88523666
0.88522912
0.88522156
0.88521397
0.88520637
0.88519876
0.88519112
0.88518346
0.88517578
0.88516808
0.88516036
0.88515262
0.88514485
0.88513707
0.88512927
0.88512145
0.8851136
0.88510574
0.88509785
0.88508994
0.88508202
0.88507407
0.8850661
0.88505811
0.8850501
0.88504207
0.88503402
0.88502595
0.88501785
0.88500973
0.88500159
0.88499344
0.88498525