/*--------------------------------*- C++ -*----------------------------------*\
  =========                 |
  \\      /  F ield         | OpenFOAM: The Open Source CFD Toolbox
   \\    /   O peration     | Website:  https://openfoam.org
    \\  /    A nd           | Version:  7
     \\/     M anipulation  |
\*---------------------------------------------------------------------------*/
FoamFile
{
    version     2.0;
    format      ascii;
    class       volScalarField;
    location    "0.00208";
    object      Uy;
}
// * * * * * * * * * * * * * * * * * * * * * * * * * * * * * * * * * * * * * //

dimensions      [0 1 -1 0 0 0 0];

internalField   nonuniform List<scalar> 
5000
(
4.1550624e-17
4.2446259e-17
0
0
-2.2251642e-17
2.5309384e-32
2.2270879e-17
0
0
-2.2267137e-17
-4.4519818e-17
2.225573e-17
2.2258008e-17
-2.2267376e-17
0
-2.2295334e-17
9.4799941e-48
2.2315537e-17
0
2.2320829e-17
-2.2319649e-17
-2.2317597e-17
4.4628984e-17
-2.2311446e-17
-2.2307771e-17
-1.8383955e-31
2.2300544e-17
2.2297037e-17
-4.4586099e-17
3.8643744e-31
-3.8953376e-31
2.2281687e-17
4.4555114e-17
-4.4547671e-17
3.8609483e-31
-1.9364788e-30
-7.719159e-31
4.4516104e-17
-4.4507795e-17
-4.4500346e-17
4.4492051e-17
-1.529838e-30
-4.4476342e-17
2.2234466e-17
6.6691017e-17
-2.2226643e-17
-2.2222518e-17
-1.5219072e-30
-4.4429362e-17
0
2.220682e-17
3.1552505e-33
-2.219896e-17
4.4390513e-17
-7.7577319e-31
-4.4374889e-17
2.2183331e-17
-7.6591591e-31
-2.2175529e-17
0
2.2167716e-17
7.5592734e-31
6.2982239e-33
2.2156222e-17
-2.2152113e-17
7.7428065e-31
2.2144334e-17
-2.2140661e-17
-2.2136554e-17
2.2132878e-17
2.2128769e-17
-2.2125094e-17
-2.212099e-17
4.423465e-17
2.2113236e-17
-2.210959e-17
0
2.2101893e-17
-3.1402914e-33
-2.2094214e-17
2.2090154e-17
-6.2773673e-33
6.2762093e-33
2.2078802e-17
2.2074715e-17
7.6843915e-31
-2.2066973e-17
0
-2.2059258e-17
-2.2880351e-30
-7.7089519e-31
2.2048003e-17
2.2043984e-17
-4.4080808e-17
-1.5250691e-30
2.2032798e-17
0
0
-2.2021071e-17
-1.5268859e-30
4.4026688e-17
-2.2009697e-17
-4.4011246e-17
0
2.1997949e-17
2.1994356e-17
-2.1990321e-17
-2.1986732e-17
0
0
2.1975071e-17
2.1971467e-17
0
-2.1963862e-17
7.6768762e-31
2.1956294e-17
-2.1952278e-17
6.2382048e-33
-7.6715884e-31
-9.901647e-50
4.387429e-17
-9.3508208e-33
-2.192957e-17
0
-2.1921999e-17
2.1918269e-17
2.1914416e-17
-4.3821267e-17
-2.1906797e-17
4.3805945e-17
2.1899139e-17
-2.1895287e-17
-2.1891447e-17
-2.1887568e-17
0
2.1879774e-17
2.1875844e-17
-2.1871844e-17
-7.5825561e-31
2.1863736e-17
-2.1859627e-17
-2.1855456e-17
0
2.1847046e-17
2.184282e-17
-2.1838564e-17
2.1834336e-17
-1.2408982e-32
-2.1825964e-17
2.1821881e-17
-2.1817941e-17
1.5189883e-30
2.1810568e-17
-2.1807208e-17
2.1804132e-17
2.1801313e-17
-2.1798796e-17
0
0
-2.179271e-17
-2.1791099e-17
2.1789615e-17
2.1788265e-17
-2.1786978e-17
-1.5108202e-30
2.178454e-17
-2.1783315e-17
-2.1782002e-17
0
2.1779037e-17
2.1777318e-17
0
-2.177327e-17
-2.1770945e-17
0
2.1765803e-17
4.5277301e-30
-2.1760116e-17
2.1757108e-17
2.1753992e-17
-2.1750782e-17
-1.5019845e-30
1.495571e-30
9.268599e-33
2.1737152e-17
-2.173361e-17
-3.0139111e-30
1.4943567e-30
-1.494109e-30
2.171925e-17
0
0
-2.1708462e-17
-2.1704858e-17
0
0
2.1693938e-17
8.8761305e-50
-2.168664e-17
0
2.1679399e-17
-2.1675801e-17
-6.0056193e-30
4.3337203e-17
-2.1664986e-17
-4.4973457e-30
-3.0777482e-33
-2.1654089e-17
2.1650439e-17
-3.0761954e-33
-2.9957111e-30
1.4976056e-30
-2.1635953e-17
0
2.1628804e-17
1.4966149e-30
6.0008314e-30
2.1618071e-17
0
-2.1610854e-17
-2.1607234e-17
0
0
0
2.1592817e-17
1.494123e-30
-2.1585646e-17
0
0
2.1574946e-17
2.1571378e-17
-2.1567814e-17
-2.1564234e-17
0
2.1557065e-17
2.1553486e-17
-2.1549905e-17
-2.1546339e-17
0
2.1539209e-17
-5.9800189e-30
-1.4932276e-30
2.1528515e-17
-2.1524964e-17
-2.1521411e-17
0
2.1514323e-17
-2.9896145e-30
2.150722e-17
2.9825137e-30
-4.300019e-17
2.1496538e-17
-2.9810322e-30
-7.4605138e-30
-1.4869713e-30
-2.1482358e-17
2.1478813e-17
2.1475275e-17
0
-2.1468198e-17
-2.1464665e-17
0
2.1457631e-17
2.1454122e-17
-4.2901204e-17
-2.1447085e-17
2.1443557e-17
2.1440037e-17
5.9464005e-30
-2.1433002e-17
2.1429486e-17
-1.4858695e-30
-2.1422454e-17
2.1418927e-17
-1.4881778e-30
1.4909737e-30
-6.0845922e-33
-1.4783092e-30
2.1401095e-17
0
0
-2.1390248e-17
-2.1386576e-17
0
0
0
0
2.1367882e-17
1.4724701e-30
-4.2720628e-17
9.1048313e-33
2.1352731e-17
2.1348943e-17
-2.9635665e-30
-2.9569827e-30
-3.0322807e-33
-2.133416e-17
-2.1330624e-17
-2.1327164e-17
4.2647612e-17
6.3961621e-17
-2.1317394e-17
-4.2628714e-17
0
2.1308667e-17
2.1306014e-17
-2.1303472e-17
6.054123e-33
-9.0801952e-33
6.0528361e-33
2.129441e-17
2.1292405e-17
-2.1290483e-17
-4.2577296e-17
2.1286864e-17
-2.0749771e-52
2.1283377e-17
5.8973858e-30
-4.2559646e-17
0
0
4.2548313e-17
-1.1813714e-29
-4.2540264e-17
0
2.1265882e-17
2.1263645e-17
-2.1261334e-17
3.021075e-33
-2.9512449e-30
3.0203545e-33
2.1251202e-17
-2.1248464e-17
-2.1245666e-17
0
2.1239861e-17
-2.9485268e-30
-2.1233814e-17
4.2461414e-17
-5.8884399e-30
-2.1224386e-17
-5.8927015e-30
-4.2435922e-17
4.2429448e-17
2.1211463e-17
-2.1208188e-17
-3.0133962e-33
-2.1201579e-17
0
0
2.1191581e-17
-2.9387662e-30
-4.2369827e-17
3.0100837e-33
6.3534733e-17
-2.1174903e-17
-2.1171554e-17
4.2336398e-17
-2.1164841e-17
2.1161482e-17
4.2316249e-17
-2.1154768e-17
-2.1151413e-17
-2.1148059e-17
2.1144707e-17
1.574958e-49
-2.113801e-17
2.1134667e-17
-2.1131328e-17
2.1127992e-17
5.8538893e-30
6.0030424e-33
2.1118e-17
-4.2229348e-17
2.1111349e-17
5.8612783e-30
-5.854356e-30
-2.1101366e-17
-4.2196066e-17
6.3284097e-17
5.8506584e-30
-1.1699471e-29
5.8428216e-30
-4.2162807e-17
4.2156184e-17
-5.8460581e-30
-4.2142949e-17
0
0
2.1061548e-17
-2.9207345e-30
-2.105493e-17
-2.1051621e-17
2.104831e-17
6.3135e-17
-2.1041691e-17
-2.1038385e-17
-5.9785299e-33
-2.1031783e-17
0
4.2050373e-17
4.2043775e-17
-2.1018587e-17
-4.2030574e-17
-2.101199e-17
4.2017396e-17
4.2010818e-17
-4.2004241e-17
-4.1997657e-17
0
4.1984439e-17
-2.09889e-17
-4.1971143e-17
2.0982239e-17
2.0978904e-17
-2.9808076e-33
2.9117862e-30
2.0968902e-17
-2.0965569e-17
-2.0962233e-17
2.0958891e-17
-2.9064905e-30
-2.9774845e-33
-2.9055581e-30
-2.0945448e-17
2.0942074e-17
-8.7213915e-30
-2.9066631e-30
-5.8094194e-30
-2.0928633e-17
2.09253e-17
-2.9048094e-30
-5.7997854e-30
-2.9722594e-33
-4.1824339e-17
-2.0908951e-17
2.0905763e-17
4.1805214e-17
-2.9016859e-30
-4.1792817e-17
-2.0893376e-17
4.1780789e-17
2.088747e-17
-2.0884605e-17
-2.0881802e-17
-5.7947331e-30
2.0876388e-17
0
0
2.086875e-17
0
-2.0863953e-17
2.0861633e-17
2.9642937e-33
-5.7886483e-30
0
-2.0852822e-17
2.0850722e-17
2.084865e-17
-4.1693198e-17
-2.0844562e-17
2.0842531e-17
0
0
-2.0836428e-17
5.7882525e-30
2.0832309e-17
0
0
-2.0825957e-17
8.6764814e-30
2.0821556e-17
0
0
0
0
0
0
0
0
4.1599299e-17
1.1543918e-29
-2.0794324e-17
2.0791608e-17
-2.0788858e-17
2.0786077e-17
-5.7770059e-30
-2.0780422e-17
-5.7695126e-30
-2.0774654e-17
0
0
2.0765824e-17
5.7654286e-30
-2.0759849e-17
0
0
0
0
0
0
0
4.1471224e-17
-1.7259272e-29
-4.1459004e-17
2.0726442e-17
2.9449697e-33
2.0720322e-17
-1.1487879e-29
-4.1428414e-17
-2.0711149e-17
-6.8501246e-50
6.2115078e-17
0
-4.1397798e-17
0
0
4.1379489e-17
-5.7384073e-30
-6.2051019e-17
2.068064e-17
2.0677606e-17
-2.0674571e-17
2.0671535e-17
-2.0668502e-17
-5.7325172e-30
2.0662449e-17
-2.0659428e-17
0
-2.0653392e-17
2.0650373e-17
4.129471e-17
-2.064434e-17
-2.0641329e-17
-2.0638324e-17
-2.0635323e-17
4.1264652e-17
2.0629329e-17
-2.0626331e-17
0
2.0620334e-17
-2.0617339e-17
-2.0614352e-17
6.1834117e-17
5.85726e-33
-4.1210873e-17
2.0602475e-17
2.8600375e-30
2.059655e-17
-5.8530491e-33
-4.1181243e-17
2.0587659e-17
0
-5.7151413e-30
-2.9244229e-33
-2.0575851e-17
2.0572908e-17
-5.7118703e-30
-2.8526039e-30
-2.9223317e-33
-2.0561137e-17
2.0558192e-17
6.4266647e-50
-5.7069655e-30
-2.9202395e-33
-4.1092833e-17
-2.8493379e-30
2.0540538e-17
0
0
-2.0531732e-17
-8.5419057e-30
2.0525861e-17
-2.0522921e-17
2.8489945e-30
2.5972334e-49
-2.848174e-30
2.0511102e-17
2.0508135e-17
2.8440245e-30
-2.0502201e-17
0
0
2.0493321e-17
-2.0490368e-17
1.7055201e-29
2.0484478e-17
-2.0481543e-17
0
2.0475698e-17
2.0472793e-17
-2.0469904e-17
-2.0467033e-17
0
2.0461354e-17
2.045855e-17
-4.0911539e-17
-2.0453012e-17
2.0450279e-17
2.0447571e-17
2.8356647e-30
2.0442249e-17
5.6756821e-30
-4.0874152e-17
0
0
0
2.0427198e-17
2.0424816e-17
0
-2.0420147e-17
-2.8290138e-30
2.0415607e-17
0
0
-2.0409007e-17
-2.8303879e-30
2.8271908e-30
-2.0402571e-17
2.0400445e-17
-8.4876153e-30
-2.0396194e-17
0
-2.0391911e-17
-2.8309134e-30
2.038756e-17
-2.0385349e-17
2.038311e-17
2.0380837e-17
-2.0378527e-17
0
2.0373768e-17
2.0371312e-17
-2.03688e-17
-2.036623e-17
0
-2.0360904e-17
2.035814e-17
2.0355304e-17
-2.0352395e-17
-4.0698821e-17
1.1299553e-29
6.1029645e-17
8.0655951e-50
-2.0336705e-17
-4.0666648e-17
1.1278837e-29
4.0652599e-17
-2.0322658e-17
2.0318931e-17
-2.0315122e-17
-2.0311228e-17
4.0614495e-17
0
0
-4.058951e-17
-1.0893318e-48
4.0571906e-17
0
0
-4.0544094e-17
-1.2722123e-48
4.0524614e-17
0
0
-4.0493997e-17
-2.0241707e-17
4.0472635e-17
2.0230826e-17
0
-4.0439067e-17
1.1225903e-29
4.0415658e-17
-2.0201822e-17
0
2.0189488e-17
-2.0183157e-17
2.8672834e-33
2.0170157e-17
-2.016349e-17
2.0156713e-17
2.0149824e-17
-2.0142823e-17
-2.0135707e-17
5.5892769e-30
2.0121125e-17
-2.0113657e-17
-5.5830558e-30
2.0098367e-17
-2.0090543e-17
2.0082599e-17
2.0074533e-17
-2.0066345e-17
-2.0058035e-17
5.567376e-30
2.0041052e-17
-2.0032379e-17
2.8455223e-33
2.0014664e-17
-2.000562e-17
1.9996451e-17
1.9987158e-17
-1.9977741e-17
-3.9936405e-17
1.1089853e-29
3.9897526e-17
-1.9938863e-17
2.8320587e-33
3.9837396e-17
5.6583169e-33
-1.9898047e-17
0
1.987692e-17
0
-1.9855332e-17
0
0
0
-1.9810791e-17
-4.8033686e-49
1.978785e-17
0
1.9764478e-17
-5.4849132e-30
-1.9740683e-17
0
0
0
-1.9691852e-17
5.4645771e-30
1.9666846e-17
0
1.9641455e-17
5.4476869e-30
-1.9615686e-17
0
1.9589556e-17
-1.9576358e-17
1.0870113e-29
1.9549702e-17
-1.9536244e-17
0
-1.9509081e-17
-5.4134792e-30
1.9481604e-17
0
1.9453822e-17
-1.9439817e-17
-1.0788282e-29
1.9411588e-17
-1.0769771e-29
-2.7545024e-33
5.3810666e-30
-2.7504161e-33
-1.9339862e-17
0
1.9310741e-17
-5.355401e-30
-5.3513249e-30
6.4238466e-49
-5.3458741e-30
0
-3.8444521e-17
-5.3335061e-30
1.9192458e-17
-1.9177512e-17
5.3183343e-30
1.9147563e-17
1.9132569e-17
5.3085682e-30
-5.3044009e-30
1.908755e-17
-1.907254e-17
-1.9057538e-17
0
-1.9027572e-17
5.2794253e-30
1.8997683e-17
0
0
0
-3.7876488e-17
2.1018703e-29
3.7817563e-17
0
0
0
0
0
0
0
-3.7586608e-17
1.0434555e-29
3.7530329e-17
1.8751213e-17
-1.8737341e-17
-1.8723556e-17
5.1980156e-30
1.0372535e-29
1.8682766e-17
-1.8669358e-17
1.865604e-17
1.8642816e-17
-1.8629694e-17
-1.8616678e-17
1.0326505e-29
1.8590959e-17
1.8578243e-17
-5.1500271e-30
-1.8553106e-17
-1.8540708e-17
1.852843e-17
1.8516262e-17
-1.8504189e-17
1.8492201e-17
0
-1.8468531e-17
-1.8456892e-17
5.1166766e-30
1.8434017e-17
-1.8422722e-17
1.8411479e-17
1.8400295e-17
-1.8389225e-17
1.837834e-17
5.1003369e-30
-1.8357173e-17
-1.834673e-17
-2.6057361e-33
3.6651388e-17
1.0168949e-29
-1.8305055e-17
-1.8295284e-17
0
1.8276414e-17
0
0
0
1.8237014e-17
1.8228226e-17
-1.8219987e-17
-1.8211729e-17
0
1.8193472e-17
-5.0518556e-30
-1.8174555e-17
0
0
1.8152064e-17
-1.007168e-29
-1.8136493e-17
0
0
1.811032e-17
-1.0048635e-29
-1.8096896e-17
0
1.808442e-17
-5.0197628e-30
5.0151244e-30
-5.0155522e-30
-1.8054814e-17
0
-1.8041721e-17
1.0008757e-29
1.8030231e-17
0
1.8019028e-17
-1.8013728e-17
-1.8008514e-17
3.6006271e-17
5.0026293e-30
-3.5982422e-17
4.9940243e-30
1.7978494e-17
0
0
1.7962994e-17
-4.9844387e-30
-1.7956824e-17
0
1.7951392e-17
-1.7947516e-17
-1.794314e-17
1.7938723e-17
0
-1.7930415e-17
1.7926398e-17
9.9482244e-30
-9.9459187e-30
1.791427e-17
-1.4915525e-29
1.7908367e-17
-1.7905838e-17
4.9687962e-30
-9.9409842e-30
-3.5793492e-17
4.9635806e-30
1.7890626e-17
0
0
0
-3.5764712e-17
-1.7880423e-17
3.5757225e-17
1.7876853e-17
0
0
1.787082e-17
2.0988738e-50
-1.7868191e-17
0
-3.5736333e-17
-1.7867574e-17
3.5732328e-17
1.7864519e-17
0
-3.5726112e-17
-5.077146e-33
5.359312e-17
-4.9555246e-30
-3.5727866e-17
1.7863473e-17
1.0154321e-32
-1.7864876e-17
4.9638355e-30
9.913414e-30
1.786928e-17
0
1.7869399e-17
-9.9218983e-30
-3.5743915e-17
1.7874347e-17
-2.9764024e-29
-1.7879012e-17
3.5761696e-17
-2.5412953e-33
-1.7885072e-17
0
0
0
-1.7898324e-17
1.7902454e-17
3.5814044e-17
-1.7911692e-17
-4.9749229e-30
-4.9709419e-30
-1.7924183e-17
0
1.7933628e-17
-2.5493224e-33
-3.589126e-17
1.7952248e-17
9.9633083e-30
-1.7964746e-17
-1.7970763e-17
9.988818e-30
3.5967334e-17
0
1.7998916e-17
1.8007416e-17
0
-1.8023999e-17
-1.8031415e-17
1.8038896e-17
0
-1.8055394e-17
0
0
1.8084613e-17
-1.5068531e-29
-1.8104833e-17
0
0
1.8133667e-17
1.8143248e-17
-1.8153411e-17
-1.8164438e-17
1.8176296e-17
1.8188737e-17
-3.6402771e-17
-1.8213966e-17
5.0636918e-30
1.8238501e-17
-1.0125111e-29
-1.0131516e-29
1.8273304e-17
-1.8285013e-17
1.8297356e-17
-1.8310466e-17
-1.5624184e-32
1.8338489e-17
-3.6705625e-17
-1.8366457e-17
-1.8379196e-17
3.6783341e-17
3.6809357e-17
-1.8418648e-17
1.8433454e-17
-1.844877e-17
1.0254265e-29
3.6958531e-17
-1.8493904e-17
5.1366343e-30
-5.1455956e-30
-1.8534502e-17
0
0
1.8579624e-17
1.8596229e-17
0
-1.8628698e-17
-1.8644102e-17
0
-1.8673224e-17
5.1891982e-30
1.8702501e-17
-1.8718002e-17
5.1968549e-30
1.8751559e-17
0
1.8785841e-17
1.0439341e-29
-1.8817551e-17
1.8832045e-17
-5.2252899e-30
-1.8862053e-17
-1.8878666e-17
-5.2443237e-30
1.8913177e-17
0
-1.8946464e-17
1.8961929e-17
-5.3935388e-33
1.0547193e-29
1.9006975e-17
-1.9023339e-17
0
-3.8116116e-17
4.2352934e-29
1.9091892e-17
1.0606346e-29
3.8246751e-17
-3.8277049e-17
-3.8307748e-17
3.8339093e-17
3.8370628e-17
1.9201015e-17
0
-1.9232687e-17
-3.8497993e-17
2.7377777e-33
-1.9281472e-17
1.9297071e-17
1.9312085e-17
-1.9326468e-17
3.8681181e-17
-3.8710154e-17
-3.2261349e-29
3.8771377e-17
-3.8802035e-17
1.0777351e-29
-1.9430349e-17
1.9443966e-17
1.945712e-17
-1.9470477e-17
-5.404975e-30
-3.8999206e-17
3.9028851e-17
3.9057389e-17
-3.9084417e-17
-5.4272452e-30
-1.9567198e-17
1.0873517e-29
1.9591422e-17
5.4408547e-30
-2.6876128e-48
1.9629007e-17
3.928247e-17
-1.965351e-17
6.1011308e-48
-1.9678561e-17
-3.2800968e-29
1.9702655e-17
-3.9427329e-17
1.0948174e-29
3.9466204e-17
-5.0274924e-49
-1.975147e-17
0
0
-1.9782798e-17
1.9792877e-17
3.9604355e-17
0
0
0
-1.9835405e-17
-1.9844079e-17
0
1.9860763e-17
-1.9868706e-17
-3.3105178e-29
3.9770846e-17
0
0
0
-1.9915303e-17
-1.9921219e-17
1.9926983e-17
-1.9932683e-17
-1.1072933e-29
3.9887713e-17
0
0
-3.9923458e-17
5.6752132e-33
1.9973518e-17
-1.9978285e-17
1.9982221e-17
-1.998576e-17
1.1101307e-29
3.9986836e-17
0
0
-2.0009906e-17
-2.0015609e-17
0
0
2.0026292e-17
2.0028159e-17
0
-2.003205e-17
-2.0034514e-17
2.0037409e-17
-2.0040848e-17
-2.0044716e-17
2.0048597e-17
2.0052101e-17
-1.1137737e-29
-2.0057159e-17
2.0058751e-17
5.5674168e-30
-2.0061179e-17
0
-2.00634e-17
1.1140116e-29
2.0065287e-17
-2.006612e-17
1.1141545e-29
2.0067872e-17
0
-2.0069882e-17
5.5733128e-30
2.8524082e-33
-2.0073002e-17
2.0073798e-17
2.0074274e-17
0
-4.0148766e-17
2.2296973e-29
2.0074367e-17
2.8527599e-33
4.0149551e-17
-4.0149952e-17
-4.014973e-17
4.0148953e-17
2.0074028e-17
0
-4.0147238e-17
3.3421572e-29
4.0146964e-17
0
-4.0142579e-17
-1.1146073e-29
2.006909e-17
5.5726865e-30
4.0137719e-17
-4.0137701e-17
-5.0123661e-29
4.01325e-17
-4.0128883e-17
1.113364e-29
4.0124287e-17
2.0061849e-17
-4.0123397e-17
-2.0061059e-17
4.0119641e-17
-4.0116636e-17
-5.0096119e-29
4.0111307e-17
-4.0108879e-17
5.5683365e-30
-2.0051475e-17
2.2247e-29
6.0145653e-17
-1.112806e-29
-4.0095562e-17
2.0047882e-17
4.0094289e-17
-2.0045366e-17
1.112827e-29
-2.0040799e-17
-2.2257593e-29
2.0037256e-17
-4.0071265e-17
1.6683226e-29
-2.2240995e-29
1.1112258e-29
2.0028083e-17
0
2.002742e-17
2.0027246e-17
0
0
0
0
0
-2.0015556e-17
-2.0013599e-17
0
2.0008874e-17
-2.0006902e-17
-3.3325314e-29
4.0010484e-17
0
0
0
-1.9999696e-17
-1.9997001e-17
1.9994632e-17
1.9992586e-17
-3.9981214e-17
-3.3302371e-29
3.9972248e-17
0
-3.9964465e-17
-3.3284852e-29
1.9981211e-17
-1.9980982e-17
1.9979645e-17
-1.9977059e-17
-1.1086996e-29
3.9941388e-17
0
0
-1.9964959e-17
-1.9963276e-17
0
-1.9958679e-17
-5.6720551e-33
-1.9955843e-17
1.9956025e-17
5.9868584e-17
0
3.9902716e-17
3.989419e-17
0
-5.9821293e-17
-3.9878137e-17
3.9877664e-17
-1.9938859e-17
-1.9937699e-17
5.9805473e-17
1.9932068e-17
2.8321192e-33
1.9927259e-17
-1.9926205e-17
-1.9925605e-17
-1.9924439e-17
-5.6285178e-50
-1.9918809e-17
-1.991565e-17
1.9913186e-17
0
3.9821121e-17
3.9818988e-17
0
-1.9904199e-17
-3.980178e-17
-1.104209e-29
-1.9895894e-17
-3.9789036e-17
3.9786766e-17
3.9782965e-17
1.988838e-17
1.9884505e-17
0
-1.987765e-17
-5.9626421e-17
1.9874086e-17
5.9256427e-50
-5.9611392e-17
3.9734115e-17
1.9863291e-17
1.9859861e-17
3.9714179e-17
-3.9710086e-17
-1.9853205e-17
1.9850612e-17
1.9846895e-17
1.9842523e-17
-5.9514859e-17
-1.9834741e-17
5.9496285e-17
1.9830225e-17
-1.9828127e-17
-3.9649237e-17
1.9819935e-17
-1.9815051e-17
3.298374e-29
-3.2989165e-29
-5.9413475e-17
1.9801944e-17
1.9798676e-17
3.9589162e-17
1.9790176e-17
-3.9571894e-17
-5.6223803e-33
-1.9778277e-17
1.9774513e-17
5.9310824e-17
-5.9296741e-17
-1.9760709e-17
5.9267626e-17
0
-5.9239407e-17
-1.9741805e-17
5.9211435e-17
-1.9732435e-17
-3.9455259e-17
-1.0947576e-29
2.1886633e-29
1.9712208e-17
0
3.9402408e-17
3.9390997e-17
-1.9689645e-17
-1.9683653e-17
-3.9355102e-17
1.9671391e-17
1.9665165e-17
-3.9317524e-17
0
3.9290286e-17
3.927605e-17
-1.963084e-17
-3.9247315e-17
1.0888561e-29
1.9608696e-17
-3.9201406e-17
1.9592498e-17
-6.5224553e-29
-3.9152226e-17
1.9567769e-17
0
3.9099432e-17
0
-4.3369345e-29
-1.9520938e-17
-3.9022322e-17
5.8503023e-17
-5.5395307e-33
-3.8959359e-17
0
3.891453e-17
1.9445685e-17
-3.8867661e-17
2.1563792e-29
1.9409277e-17
-3.8793149e-17
1.9383574e-17
-3.2250393e-29
-3.8713266e-17
1.9342709e-17
-1.9328492e-17
3.8627898e-17
5.7897075e-17
0
-5.7803782e-17
-3.8503551e-17
5.7705791e-17
3.8436855e-17
-1.9201266e-17
-3.8367451e-17
1.9165754e-17
1.9147341e-17
-3.8256992e-17
1.9109236e-17
3.8179178e-17
-1.9069591e-17
2.7070625e-33
-3.8057142e-17
-3.8014972e-17
5.6957863e-17
-1.8963926e-17
-3.1547099e-29
5.675497e-17
0
-5.6612234e-17
-3.7692498e-17
1.8821275e-17
1.8795812e-17
1.8769852e-17
0
1.8716444e-17
-1.0373815e-29
-3.7322105e-17
1.0339853e-29
1.8603573e-17
0
1.854385e-17
-3.7026268e-17
-5.5445622e-17
3.6900198e-17
5.5253415e-17
1.8384945e-17
-1.8351472e-17
-3.6634731e-17
1.8282626e-17
-1.8247273e-17
-1.8211352e-17
3.6349795e-17
-3.6275795e-17
-1.8100308e-17
5.4186281e-17
3.6046478e-17
-1.7983738e-17
-5.3830807e-17
3.974977e-29
-3.9657939e-29
-1.7819518e-17
-1.9735074e-29
-1.7733655e-17
1.7689729e-17
1.7645126e-17
1.7599847e-17
-1.7553899e-17
-1.7507292e-17
5.2380131e-17
-1.7412168e-17
-3.4727353e-17
5.1943712e-17
4.9069639e-33
-1.7214495e-17
3.4327059e-17
1.7111951e-17
0
-1.700691e-17
-1.6953413e-17
-3.3798545e-17
1.684452e-17
-5.591559e-29
-5.0199614e-17
1.6676587e-17
1.6619298e-17
1.6561369e-17
-1.6502874e-17
-1.644386e-17
4.9152839e-17
-1.6324042e-17
-3.2526164e-17
-2.6983714e-29
-1.6139332e-17
3.2153688e-17
4.8041673e-17
8.8513556e-30
-8.8178759e-30
-2.2482551e-33
-1.5754996e-17
-3.1378314e-17
-1.5623079e-17
4.666934e-17
-1.7195223e-29
-3.0841598e-17
0
0
1.5213032e-17
-8.405768e-30
8.3647047e-30
1.5002644e-17
-2.9862708e-17
-1.4859539e-17
-1.6412018e-29
1.4714795e-17
4.3925194e-17
1.4568097e-17
0
0
0
-4.2807106e-17
-2.8387806e-17
4.2356196e-17
-1.5594329e-29
-2.7935396e-17
0
0
2.747391e-17
-3.0327012e-29
-1.5073053e-29
2.7006095e-17
-1.3425096e-17
-2.669383e-17
-2.6536638e-17
1.3189166e-17
3.9329123e-17
1.3030394e-17
0
0
0
-3.8140678e-17
-2.5267862e-17
3.7662376e-17
-2.769657e-29
-1.2394176e-17
1.7499079e-33
-1.2233278e-17
2.4305139e-17
-1.340192e-29
-1.1992089e-17
2.3824394e-17
0
-6.5250593e-30
-2.3343719e-17
-2.3182792e-17
3.4533785e-17
2.2863029e-17
-1.1352041e-17
-6.2556516e-30
1.1193636e-17
-3.3343381e-17
-2.2070554e-17
1.0956127e-17
1.0877027e-17
-1.0798084e-17
-1.071939e-17
1.0640988e-17
1.0562903e-17
-5.8200285e-30
5.7755079e-30
1.0330254e-17
0
1.017643e-17
-2.0199993e-17
-3.0071641e-17
1.9896171e-17
1.9745256e-17
9.7975128e-18
-1.0792339e-29
-1.9296614e-17
9.5741637e-18
-9.500265e-18
-9.4266588e-18
1.8706964e-17
-1.8561649e-17
-9.2086682e-18
9.1369581e-18
1.8131246e-17
8.9945839e-18
-1.7847759e-17
4.911936e-30
-8.7839872e-18
-8.7148494e-18
2.5938674e-17
-8.5780742e-18
-8.5103448e-18
2.5329072e-17
-1.1903194e-33
-2.4929019e-17
-8.2436899e-18
2.4534625e-17
-8.1132414e-18
-3.3242485e-46
-1.3294409e-29
-1.5843056e-17
1.5717366e-17
1.5592712e-17
-7.7345452e-18
8.5184805e-30
1.5224997e-17
-7.5522803e-18
-2.2477803e-17
-7.433458e-18
7.3748502e-18
0
7.259258e-18
1.4404563e-17
-1.0154868e-33
-2.1269928e-17
-7.0346572e-18
1.3959797e-17
-9.8419976e-34
-1.3744043e-17
1.3637794e-17
-1.1269423e-29
-1.3428744e-17
1.9988951e-17
1.3224279e-17
0
0
-6.4627148e-18
-1.9242232e-17
-6.3660337e-18
1.8955428e-17
-6.9621527e-30
-1.2449533e-17
1.2357807e-17
1.2267626e-17
-6.0893152e-18
-1.2090233e-17
6.0011139e-18
5.9575962e-18
-1.7744768e-17
-5.8730803e-18
-9.7130522e-30
3.2128945e-30
5.7507699e-18
-5.7105191e-18
1.1341247e-17
1.6894033e-17
0
-1.6664871e-17
-1.1035618e-17
1.6443432e-17
-1.5475289e-33
-5.409153e-18
1.074818e-17
-5.3396309e-18
-5.3055381e-18
-5.8522493e-30
5.2378508e-18
1.0409572e-17
-5.1725696e-18
-1.0282122e-17
-1.0220095e-17
5.6401731e-30
5.0484233e-18
-5.0178485e-18
9.9759057e-18
1.4876327e-17
0
-1.4706632e-17
-9.7492746e-18
1.4542254e-17
-5.3530352e-30
-4.7943619e-18
4.7684016e-18
4.7427152e-18
-2.617111e-30
-9.3844069e-18
2.5908751e-30
9.2869452e-18
-5.1280215e-30
-5.1022443e-30
-9.1472974e-18
-1.3652666e-17
9.0567442e-18
-5.0039454e-30
-1.4934856e-29
4.4635897e-18
4.4428967e-18
8.8451838e-18
-1.320762e-17
-4.3826217e-18
8.7257609e-18
-8.6869179e-18
-2.458171e-33
1.2917619e-17
4.2876579e-18
-4.2698025e-18
-1.2756617e-17
1.410483e-29
8.4348538e-18
4.2003643e-18
-8.3673105e-18
-1.2501912e-17
1.2453832e-17
4.1355747e-18
4.5727992e-30
4.1048217e-18
-8.1792514e-18
2.2617266e-30
-4.0599141e-18
4.0455138e-18
-1.3428681e-29
-1.20527e-17
1.201196e-17
1.197163e-17
0
0
0
-3.938313e-18
-1.1777526e-17
-3.9136239e-18
-4.331431e-30
-3.8898428e-18
1.1634334e-17
3.8664792e-18
-3.855009e-18
-3.8437563e-18
-3.8327194e-18
7.6438114e-18
-3.8113388e-18
3.8009427e-18
-1.2624466e-29
-7.5606755e-18
1.1310551e-17
7.5204199e-18
0
-7.4816596e-18
-4.1425023e-30
3.7223027e-18
-1.113958e-17
-3.70411e-18
3.6951138e-18
0
0
3.6690064e-18
7.3213723e-18
-8.1098438e-30
-7.2891131e-18
-3.6365257e-18
3.628523e-18
-3.6206209e-18
3.6128437e-18
3.9115479e-47
-5.992147e-30
1.0771836e-17
0
0
-7.1384818e-18
-7.1243496e-18
-3.5552056e-18
3.9386866e-30
1.0625025e-17
-3.9257114e-30
-7.0580309e-18
0
7.0325211e-18
3.5098868e-18
-7.0071583e-18
3.4973566e-18
3.4913282e-18
-1.0456825e-17
3.480042e-18
-1.1571173e-29
-6.9370801e-18
1.0388246e-17
6.9140035e-18
0
0
0
-1.0306765e-17
-6.8609119e-18
1.0275438e-17
6.8396201e-18
0
-6.8183467e-18
3.7789713e-30
3.3992225e-18
-6.7893815e-18
3.3900074e-18
-3.3850711e-18
-3.3800575e-18
1.0125109e-17
-6.7400151e-18
-6.730212e-18
3.3605984e-18
-3.3564109e-18
6.7041386e-18
1.0042202e-17
0
-1.0013304e-17
-6.6658166e-18
3.3281609e-18
3.323817e-18
-3.6855571e-30
3.315794e-18
-1.103002e-29
-3.3066032e-18
-1.8332542e-30
-9.2145943e-49
3.292364e-18
0
3.2842589e-18
-6.560842e-18
-9.8281029e-18
9.8140138e-18
9.7997548e-18
0
-6.5139402e-18
-6.5052892e-18
6.4978993e-18
-3.2452796e-18
-3.2409051e-18
9.708172e-18
-6.4623383e-18
-6.452563e-18
3.2214811e-18
6.4341406e-18
3.2132971e-18
-9.6288718e-18
-3.2052474e-18
-5.3292682e-30
6.3906693e-18
1.8135179e-33
-9.5564399e-18
6.3617936e-18
9.5308167e-18
3.1731714e-18
-9.5062237e-18
-6.3274064e-18
9.4757662e-18
-7.0027769e-30
-6.2972002e-18
-3.1437931e-18
1.7426693e-30
6.271309e-18
-3.4763442e-30
3.1263807e-18
3.1208476e-18
-9.3458621e-18
-3.1101487e-18
-3.4479002e-30
6.203831e-18
-1.031626e-29
-9.2769796e-18
6.1735779e-18
-3.42272e-30
-3.4181282e-30
-6.8209365e-30
-3.0666625e-18
9.185931e-18
-3.057681e-18
-5.0832178e-30
-1.0150408e-29
-9.1259624e-18
3.0363079e-18
6.0620351e-18
-3.3595011e-30
3.0215927e-18
3.0169351e-18
-6.0237474e-18
-6.0129867e-18
3.3312099e-30
8.9872008e-18
-3.3190717e-30
-2.9853466e-18
5.9604918e-18
-2.9751957e-18
-2.970075e-18
1.6448507e-30
-1.6426904e-30
2.9538478e-18
-5.8965348e-18
2.9429398e-18
-9.7869464e-30
-9.7696604e-30
8.7844633e-18
-5.8445655e-18
8.2886544e-34
5.8212713e-18
-2.9054375e-18
-8.701872e-18
-2.8958361e-18
8.6719624e-18
-3.2028005e-30
-2.8792357e-18
5.7472688e-18
-5.7365273e-18
-1.4305225e-29
2.8578425e-18
-2.8526195e-18
2.8472628e-18
-5.6836027e-18
2.8363116e-18
8.4923414e-18
0
0
-5.629088e-18
-7.985626e-34
5.6090333e-18
-2.7987525e-18
-8.378285e-18
-2.7869893e-18
8.344925e-18
7.8918759e-34
3.0773381e-30
5.5340239e-18
-8.2841853e-18
-1.376631e-29
2.7497852e-18
-2.7444717e-18
-2.7394119e-18
3.037133e-30
2.729257e-18
-5.4479723e-18
5.4372057e-18
-9.0362392e-30
-5.4157224e-18
8.107516e-18
5.3943434e-18
-2.6920211e-18
-8.0615692e-18
-2.6823411e-18
2.676979e-18
0
-2.6656495e-18
2.6604079e-18
7.9667147e-18
1.4715194e-30
-5.2927422e-18
2.6411844e-18
2.6355706e-18
-5.2600134e-18
2.624821e-18
-2.6200091e-18
-5.2306139e-18
7.8314872e-18
-8.6776321e-30
5.7745357e-30
5.1906331e-18
-5.1804598e-18
-2.5852115e-18
-2.5802252e-18
-2.8611716e-30
2.5706029e-18
-5.1320797e-18
5.1223408e-18
7.6676418e-18
0
-2.5455183e-18
1.4103977e-30
7.2091816e-34
-7.5960667e-18
-2.5272821e-18
7.5667912e-18
-2.5171717e-18
-2.4814292e-47
7.5226858e-18
-2.50293e-18
-7.4946422e-18
-2.4935598e-18
4.9781382e-18
-2.4844504e-18
2.4794324e-18
-8.240358e-30
-4.9386351e-18
7.3944939e-18
2.7329282e-30
-1.0907387e-29
4.9026253e-18
-4.8934066e-18
-2.7110311e-30
2.4371583e-18
-4.8643197e-18
-2.4273041e-18
0
0
4.8279465e-18
-5.3494676e-30
-1.3668686e-33
-2.6642858e-30
-2.3953574e-18
-2.3908071e-18
2.3860476e-18
2.381085e-18
-4.7523472e-18
4.7430806e-18
-2.6278728e-30
-4.7253007e-18
4.7159549e-18
7.8372174e-30
-2.6070664e-30
2.3435786e-18
-4.6775681e-18
2.3339959e-18
-5.1715221e-30
-4.6487749e-18
0
4.6297525e-18
2.3101047e-18
-4.6104101e-18
-2.3002471e-18
2.295359e-18
-3.8149842e-30
-2.2858511e-18
0
0
4.5425427e-18
4.5322823e-18
0
-4.5125392e-18
-2.2514295e-18
2.246447e-18
-2.2414007e-18
2.2364193e-18
0
-4.4528643e-18
0
0
2.2115577e-18
-2.4495453e-30
-2.2011693e-18
0
2.1909183e-18
1.2134115e-30
-2.1809634e-18
0
4.3412944e-18
4.3305368e-18
-2.1597273e-18
-2.3913157e-30
2.1492368e-18
-4.2884714e-18
-4.2780554e-18
4.2674783e-18
6.0494197e-34
4.714484e-30
6.018828e-34
-4.2247971e-18
2.1072552e-18
-2.3337608e-30
2.0970074e-18
-2.0915985e-18
-6.2587646e-18
6.2428671e-18
2.0754245e-18
-2.0698051e-18
-2.2915093e-30
-2.0590715e-18
4.1070438e-18
4.0958705e-18
-4.0850296e-18
-6.783915e-30
-2.0315304e-18
-2.0259088e-18
4.0410981e-18
-2.0154133e-18
2.231271e-30
-1.1133137e-30
1.9992981e-18
3.9881677e-18
-3.9776203e-18
-3.9667353e-18
0
1.9724024e-18
2.1835154e-30
-3.9224273e-18
-2.1710415e-30
5.8501771e-18
3.8888195e-18
0
-3.8661564e-18
-4.2790226e-30
-1.9218748e-18
-1.9163516e-18
5.7328306e-18
-1.0575206e-30
-3.8012401e-18
1.8957807e-18
3.7820252e-18
-1.8861508e-18
-3.7620291e-18
-1.8755145e-18
0
3.7277455e-18
-1.858107e-18
-5.5576809e-18
1.8471616e-18
1.8417854e-18
3.6728576e-18
1.8310966e-18
-3.6515136e-18
-1.8204041e-18
-1.8150372e-18
2.0090689e-30
1.8073663e-18
1.802759e-18
3.5901987e-18
1.7896426e-18
0
0
0
-3.5373345e-18
-3.5270785e-18
3.5171227e-18
1.9469623e-30
1.9417852e-30
-1.9360297e-30
-3.8624328e-30
3.4680541e-18
0
-3.4454282e-18
-1.7170956e-18
1.7116723e-18
-1.7064742e-18
-1.7014703e-18
0
0
3.3741422e-18
-5.6029786e-30
-3.7248472e-30
3.345827e-18
-3.3363735e-18
-3.3268685e-18
0
3.3075905e-18
-1.8300572e-30
-3.2879072e-18
3.2779688e-18
1.8144662e-30
-3.2581202e-18
0
3.2385779e-18
1.6144888e-18
-3.2194934e-18
1.6050567e-18
3.5543032e-30
-3.1915803e-18
3.1823759e-18
3.1731782e-18
0
0
0
-3.1360914e-18
-3.126715e-18
3.1173095e-18
0
-3.098477e-18
0
-1.5398652e-18
3.0704228e-18
1.5305836e-18
-1.5259816e-18
3.0428051e-18
1.5168415e-18
-3.0245846e-18
-1.5077479e-18
-1.6689962e-30
1.4986487e-18
-3.3173214e-30
8.4668651e-34
2.9698305e-18
0
-1.4756977e-18
-2.9421549e-18
-1.4664546e-18
0
0
0
-1.4479993e-18
2.8868041e-18
1.4388102e-18
-1.4342215e-18
-1.4296334e-18
1.4250431e-18
1.420448e-18
-2.8316918e-18
0
2.8132311e-18
2.8039743e-18
0
0
-2.776125e-18
-1.535797e-30
-1.3787569e-18
-1.3740992e-18
1.3694385e-18
-1.3647744e-18
1.3601055e-18
2.7108594e-18
1.3507444e-18
0
-2.682671e-18
-1.4834588e-30
1.3318655e-18
-1.3271062e-18
-1.3223312e-18
-2.6350834e-18
2.6254789e-18
1.3079264e-18
-3.7036458e-34
1.2982758e-18
-2.5868836e-18
1.288604e-18
-1.2837632e-18
-1.1182713e-47
1.2740735e-18
-2.5384475e-18
2.5287388e-18
2.5190186e-18
0
-1.2497677e-18
-2.4897691e-18
6.8828986e-31
1.23509e-18
1.2301779e-18
-2.4505115e-18
-2.4406474e-18
1.2153822e-18
2.420863e-18
2.410944e-18
-1.2005036e-18
-2.3910523e-18
1.1905397e-18
-1.1855443e-18
1.9655329e-30
1.1755274e-18
-2.3410122e-18
2.3309522e-18
1.2879319e-30
-6.4136193e-30
2.3006681e-18
-2.2905421e-18
-5.0631868e-30
1.1351251e-18
-2.2600852e-18
1.1249537e-18
-3.1828292e-34
4.9502008e-30
1.1096512e-18
-2.2090801e-18
2.4410551e-30
-6.0726538e-31
1.0891748e-18
-3.0810315e-34
-2.157806e-18
2.1475195e-18
6.0743604e-34
-4.7224203e-30
2.116619e-18
-2.1063076e-18
-2.32687e-30
2.0856751e-18
-1.0376793e-18
-1.0325225e-18
-1.027368e-18
1.022216e-18
-1.1290987e-30
-2.0238409e-18
0
0
1.9930115e-18
2.8176653e-34
-1.9725108e-18
9.8113814e-19
-1.0832599e-30
9.7091948e-19
2.144412e-30
-1.9214514e-18
0
-9.505617e-19
1.8909827e-18
9.4042887e-19
-2.0770819e-30
9.3032946e-19
-1.8505876e-18
9.2026826e-19
-1.0158098e-30
-1.8204966e-18
0
0
8.9530117e-19
-4.9420793e-31
8.8539706e-19
-8.80464e-19
-2.6266316e-18
2.6119112e-18
8.6574435e-19
-1.7217323e-18
8.5600289e-19
1.4172454e-30
8.4632112e-19
-4.7833892e-34
-2.7868295e-30
8.3191286e-19
-1.6542848e-18
-8.223885e-19
0
-8.1292979e-19
8.0822481e-19
8.0353644e-19
7.9886508e-19
-1.7633899e-30
8.7632303e-31
-8.7119578e-31
-1.5607034e-18
7.7576564e-19
1.2841084e-30
-1.5332891e-18
1.0830233e-34
7.5759225e-19
1.5061827e-18
1.4972137e-18
-1.4882771e-18
-8.2158495e-31
-7.3525095e-19
-7.3083171e-19
1.4528571e-18
-1.4440818e-18