/*--------------------------------*- C++ -*----------------------------------*\
  =========                 |
  \\      /  F ield         | OpenFOAM: The Open Source CFD Toolbox
   \\    /   O peration     | Website:  https://openfoam.org
    \\  /    A nd           | Version:  7
     \\/     M anipulation  |
\*---------------------------------------------------------------------------*/
FoamFile
{
    version     2.0;
    format      ascii;
    class       volScalarField;
    location    "0.00085";
    object      Uy;
}
// * * * * * * * * * * * * * * * * * * * * * * * * * * * * * * * * * * * * * //

dimensions      [0 1 -1 0 0 0 0];

internalField   nonuniform List<scalar> 
5000
(
6.8422777e-43
7.4837412e-43
0
0
1.8999262e-28
-3.5999434e-43
-2.533235e-28
0
0
2.533235e-28
5.06647e-28
-2.533235e-28
-4.4331612e-28
3.7998525e-28
0
3.7998525e-28
2.6551831e-69
-2.533235e-28
0
6.3330875e-29
-1.8999262e-28
-1.8999262e-28
2.533235e-28
-1.2666175e-28
-1.8999262e-28
-1.0439836e-42
6.3330875e-29
2.533235e-28
-5.06647e-28
1.0979827e-42
2.2139652e-42
-1.8999262e-28
-3.7998525e-28
3.7998525e-28
-2.1959655e-42
1.1015827e-41
6.5878965e-42
-3.7998525e-28
-1.2666175e-28
-1.2666175e-28
7.3349539e-43
-2.1779658e-41
-6.3330875e-28
6.3330875e-29
3.7998525e-28
-1.8999262e-28
-6.3330875e-29
-8.6758637e-42
-3.7998525e-28
0
2.533235e-28
1.7999717e-44
-6.3330875e-29
1.2666175e-28
0
-2.533235e-28
6.3330875e-29
2.1869656e-42
1.2666175e-28
0
1.2666175e-28
6.4798982e-42
-3.5999434e-44
4.3941198e-42
6.8798382e-42
-8.8558609e-42
-2.533235e-28
2.533235e-28
1.8999262e-28
1.2666175e-28
3.7998525e-28
-3.1665437e-28
-1.8999262e-28
2.533235e-28
1.2666175e-28
-1.2666175e-28
0
2.533235e-28
-2.6999576e-44
-1.2666175e-28
1.2666175e-28
-5.3999152e-44
3.5999434e-44
1.8999262e-28
1.8999262e-28
-4.4099307e-42
4.4331612e-28
0
5.6997787e-28
3.2849484e-41
-2.2139652e-42
1.8999262e-28
1.2666175e-28
-1.2666175e-28
-1.3148793e-41
3.1665437e-28
0
0
8.7882395e-42
1.3175793e-41
-3.7998525e-28
1.8999262e-28
1.2666175e-28
0
6.3330875e-29
1.1497643e-56
-1.2666175e-28
-1.8999262e-28
0
0
6.3330875e-29
2.533235e-28
0
-1.2666175e-28
-8.9265866e-56
-6.3330875e-29
-6.3330875e-29
1.7999717e-44
1.6071058e-56
1.8295624e-56
6.3330875e-28
-2.6999576e-44
6.3330875e-29
0
1.8999262e-28
1.2666175e-28
-6.3330875e-29
5.06647e-28
6.3330875e-29
1.2666175e-28
1.8999262e-28
-1.2666175e-28
-6.3330875e-29
-1.8999262e-28
0
3.7998525e-28
3.7998525e-28
-1.8999262e-28
4.391931e-42
-1.2666175e-28
1.2666175e-28
2.533235e-28
0
-2.533235e-28
-1.2666175e-28
6.3330875e-29
2.9975508e-42
-1.4399774e-43
-3.1665437e-28
3.1665437e-28
-2.533235e-28
-4.4986271e-55
-6.3330875e-29
-3.1665437e-28
3.7998525e-28
2.533235e-28
-3.1665437e-28
0
0
-3.1665437e-28
-2.533235e-28
1.8999262e-28
3.7998525e-28
-3.1665437e-28
-8.2811902e-55
-6.3330875e-29
6.3330875e-29
8.8029849e-42
0
-6.3330875e-29
-1.2666175e-28
0
-4.3941198e-42
1.2666175e-28
0
-1.8999262e-28
-1.3175793e-41
6.3330875e-29
-1.2666175e-28
-1.8999262e-28
3.7998525e-28
2.1869656e-41
-3.0491521e-41
-1.8899703e-43
-1.7472151e-41
-1.2666175e-28
-8.783862e-42
4.3559316e-42
4.3559316e-42
-6.3330875e-29
0
0
-1.8999262e-28
-3.7998525e-28
0
0
-2.533235e-28
-1.9028164e-69
1.8999262e-28
0
-1.2666175e-28
1.2666175e-28
1.7549724e-41
-2.533235e-28
4.4331612e-28
6.5743967e-41
8.9998586e-45
1.8999262e-28
-3.1665437e-28
4.4999293e-44
4.3829311e-41
-1.3148793e-41
0
0
1.2666175e-28
4.3829311e-42
-3.5153448e-41
-6.3330875e-29
0
1.8999262e-28
3.7998525e-28
0
0
0
1.8999262e-28
8.7658623e-42
-6.3330875e-29
0
0
-1.2666175e-28
-1.8999262e-28
1.2666175e-28
1.2666175e-28
0
1.8999262e-28
2.533235e-28
-1.8999262e-28
6.3330875e-29
0
7.4837412e-44
1.7585724e-41
8.783862e-42
-2.533235e-28
2.533235e-28
1.2666175e-28
0
1.3204477e-41
3.5207447e-41
-2.533235e-28
-1.7567724e-41
3.7998525e-28
-4.4331612e-28
6.1487034e-41
2.1986655e-41
4.8835688e-55
1.2666175e-28
6.3330875e-29
6.3330875e-29
0
1.8999262e-28
-7.4837412e-44
0
8.7882395e-42
6.3330875e-29
-2.533235e-28
-6.3330875e-29
1.8999262e-28
1.8999262e-28
5.2703172e-41
-1.8999262e-28
6.3330875e-29
8.783862e-42
3.1665437e-28
-1.8999262e-28
-4.4009309e-42
4.4099307e-42
-5.3999152e-44
-1.3121794e-41
6.3330875e-29
0
0
-1.8999262e-28
-2.533235e-28
0
0
0
0
-1.2666175e-28
-1.3094794e-41
5.06647e-28
-1.079983e-43
-1.8999262e-28
-1.8999262e-28
8.7928618e-42
-5.2649173e-41
-6.299901e-44
-1.8999262e-28
-6.3330875e-29
-2.1382118e-43
1.2666175e-28
5.6997787e-28
-8.7734941e-42
5.06647e-28
0
2.533235e-28
3.1665437e-28
-1.8999262e-28
-1.2123442e-56
5.3999152e-44
1.9543731e-55
6.3330875e-29
6.3330875e-29
-1.3599311e-41
3.7998525e-28
-2.533235e-28
-6.0985414e-57
-6.3330875e-29
-4.7401874e-56
-2.533235e-28
0
0
3.7998525e-28
7.0342895e-41
1.2666175e-28
0
1.2666175e-28
1.2666175e-28
-1.2666175e-28
1.7999717e-44
-2.6378586e-41
8.9998586e-45
-3.1665437e-28
5.6997787e-28
5.06647e-28
0
-1.8999262e-28
-1.229292e-54
-6.3330875e-29
2.533235e-28
-3.5135448e-41
-1.2666175e-28
-8.7928618e-41
-6.3330875e-28
2.533235e-28
5.9342674e-57
-1.2666175e-28
-8.9998586e-45
2.533235e-28
0
0
-1.8999262e-28
2.6351586e-41
6.3330875e-28
-4.4999293e-44
-5.6997787e-28
1.8999262e-28
2.533235e-28
-1.2666175e-28
-1.2666175e-28
1.8999262e-28
5.06647e-28
-6.3330875e-29
2.533235e-28
1.8999262e-28
-1.8999262e-28
-2.4394166e-56
6.3330875e-29
1.8999262e-28
-4.4331612e-28
5.06647e-28
8.7748621e-41
-6.548259e-60
-2.533235e-28
5.06647e-28
-1.2666175e-28
-3.5171447e-41
5.2703172e-41
1.8999262e-28
-1.2666175e-28
7.599705e-28
3.5135448e-41
3.5135448e-41
-3.5099449e-41
3.7998525e-28
-2.533235e-28
-1.7567724e-41
-2.533235e-28
0
0
-6.3330875e-29
-1.7567724e-41
-6.3330875e-29
-1.8999262e-28
1.8999262e-28
5.6997787e-28
-3.1665437e-28
-2.533235e-28
-5.3999152e-44
-3.1665437e-28
0
8.8663225e-28
5.06647e-28
2.8003215e-42
1.2666175e-28
-1.2666175e-28
6.3330875e-28
7.599705e-28
-8.8663225e-28
-1.013294e-27
0
5.06647e-28
-3.1665437e-28
-3.7998525e-28
6.3330875e-29
1.8999262e-28
-4.4999293e-44
2.6378586e-41
8.7882395e-42
2.533235e-28
2.533235e-28
-1.2666175e-28
1.7567724e-41
-2.6999576e-44
-4.391931e-41
-1.2666175e-28
2.533235e-28
-1.3189293e-40
-8.7928618e-42
7.0306895e-41
3.1665437e-28
-1.8999262e-28
1.7585724e-41
5.2676172e-41
3.5999434e-44
-1.2666175e-28
-1.2666175e-28
-6.3330875e-29
2.533235e-28
-3.5171447e-41
1.2666175e-28
3.7998525e-28
-8.8663225e-28
-5.06647e-28
5.06647e-28
1.2666175e-28
-1.7576724e-41
1.2666175e-28
0
0
-6.3330875e-29
0
6.3330875e-29
-1.8999262e-28
-4.4999293e-44
7.0306895e-41
0
3.7998525e-28
-3.7998525e-28
-2.533235e-28
2.533235e-28
2.3413419e-42
-3.8487812e-42
0
0
-1.8999262e-28
1.7594724e-41
-6.3330875e-29
0
0
-6.3330875e-29
5.2775171e-41
1.8999262e-28
0
0
0
0
0
0
0
0
-5.06647e-28
-1.4061379e-40
1.2666175e-28
-1.8999262e-28
4.4331612e-28
-3.7998525e-28
1.2322606e-40
3.7998525e-28
1.2310007e-40
5.06647e-28
0
0
-4.4331612e-28
-8.7928618e-41
2.533235e-28
0
0
0
0
0
0
0
-1.2666175e-27
7.380964e-40
1.8999262e-27
-9.4996312e-28
-1.4399774e-43
-1.0766249e-27
6.6723152e-40
3.1665437e-27
2.0899189e-27
6.0985414e-57
-6.2697566e-27
0
4.559823e-27
0
0
-6.2064257e-27
9.3108937e-40
1.0449594e-26
-3.7998525e-27
-4.2431686e-27
4.7498156e-27
-5.3197935e-27
5.7631096e-27
1.5986629e-39
-6.0164331e-27
6.6497418e-27
0
8.6763298e-27
-9.3729695e-27
-1.9632571e-26
1.089291e-26
1.2096197e-26
1.2919498e-26
1.4186116e-26
-3.1032129e-26
-1.6846013e-26
1.8555946e-26
0
-2.2039144e-26
2.3812409e-26
2.5965659e-26
-8.4546718e-26
-8.7658623e-42
6.7764036e-26
-3.6668576e-26
-5.5131244e-39
-4.3254987e-26
1.335579e-41
1.0208937e-25
-5.5541177e-26
0
1.8271567e-38
1.016084e-41
7.7960307e-26
-8.473671e-26
2.5516885e-38
1.3843366e-38
1.5452757e-41
1.1811208e-25
-1.2818169e-25
5.6716435e-55
4.202988e-38
2.3318634e-41
3.5642616e-25
2.6869834e-38
-2.1051183e-25
0
0
2.6877623e-25
1.2129635e-37
-3.1633772e-25
3.4325334e-25
-5.1675649e-38
6.2936947e-54
6.0714711e-38
-4.7409493e-25
-5.1399338e-25
-7.726285e-38
6.0373323e-25
0
0
-7.675702e-25
8.311544e-25
-7.4922057e-37
-9.7421885e-25
1.0546491e-24
0
-1.2353954e-24
-1.3370414e-24
1.4469838e-24
1.5654126e-24
0
-1.8315922e-24
-1.9804831e-24
4.2829404e-24
2.3152501e-24
-2.5025195e-24
-2.7048617e-24
-4.0545429e-37
-3.1583107e-24
-9.4736052e-37
7.3707005e-24
0
0
0
-5.0111821e-24
-5.4095967e-24
0
6.3011687e-24
9.4206042e-37
-7.3354886e-24
0
0
9.2041927e-24
1.3765541e-36
-1.4825744e-36
1.1534832e-23
-1.2432737e-23
5.5749415e-36
1.4436843e-23
0
1.6755576e-23
2.5057018e-36
-1.9435549e-23
2.0927308e-23
-2.2530909e-23
-2.4254142e-23
2.610524e-23
0
-3.0229473e-23
-3.2522747e-23
3.4985242e-23
3.7628736e-23
0
4.3511414e-23
-4.6779351e-23
-5.0285538e-23
5.4046632e-23
1.1616086e-22
-3.465819e-35
-2.0113759e-22
2.4777154e-52
7.7350684e-23
1.6612993e-22
-4.9480935e-35
-1.9149889e-22
1.0277816e-22
-1.1030699e-22
1.1837034e-22
1.2700475e-22
-2.7249793e-22
0
0
3.361461e-22
-4.8298009e-51
-3.8635671e-22
0
0
4.7555952e-22
-6.7562569e-51
-5.4579688e-22
0
0
6.7033641e-22
3.5883039e-22
-7.6821263e-22
-4.1110218e-22
0
9.4142055e-22
-2.7966235e-34
-1.0772849e-21
5.7607271e-22
0
-6.5862305e-22
7.0407638e-22
-1.0694441e-37
-8.0425056e-22
8.5936951e-22
-9.1812834e-22
-9.8075802e-22
1.0475027e-21
1.1186218e-21
-3.3165828e-34
-1.2750978e-21
1.3610545e-21
4.0335436e-34
-1.55004e-21
1.6537815e-21
-1.7641989e-21
-1.8817031e-21
2.0067292e-21
2.139737e-21
-6.3344768e-34
-2.4316743e-21
2.591663e-21
-3.9246921e-37
-2.9425632e-21
3.1347269e-21
-3.3389284e-21
-3.5558861e-21
3.7863591e-21
8.0622999e-21
-2.3843291e-33
-9.1342421e-21
4.8601394e-21
-7.3486576e-37
-1.1002457e-20
-1.6630847e-36
6.2230215e-21
0
-7.0351444e-21
0
7.9482975e-21
0
0
0
1.0126557e-20
-3.1102045e-50
-1.1419498e-20
0
-1.2869416e-20
3.7927727e-33
1.4494281e-20
0
0
0
1.8350478e-20
-5.4029688e-33
-2.0628084e-20
0
-2.3173602e-20
-6.8152105e-33
2.6016606e-20
0
-2.9189687e-20
3.0911086e-20
-1.818554e-32
-3.464769e-20
3.6673242e-20
0
4.1066616e-20
1.2064188e-32
-4.5956541e-20
0
-5.1395349e-20
5.4338307e-20
3.1900125e-32
-6.0709729e-20
3.5619812e-32
9.6326746e-36
-1.9893958e-32
1.0748076e-35
7.9872175e-20
0
-8.9033021e-20
2.6082186e-32
2.7525974e-32
2.7017471e-49
3.065822e-32
0
2.4565528e-19
3.5964961e-32
-1.3655301e-19
1.4394458e-19
-4.2105549e-32
-1.5986959e-19
-1.6843881e-19
-4.9270893e-32
5.1894469e-32
-1.9680402e-19
2.0721373e-19
2.181373e-19
0
2.4161995e-19
-7.0594163e-32
-2.6744945e-19
0
0
0
6.5404037e-19
-3.8179264e-31
-7.2248171e-19
0
0
0
0
0
0
0
1.0684053e-18
-3.1146172e-31
-1.176154e-18
-6.1685817e-19
6.4693556e-19
6.7836149e-19
-1.975844e-31
-4.1358471e-31
-7.812812e-19
8.1866142e-19
-8.5767986e-19
-8.9840038e-19
9.4088894e-19
9.8521366e-19
-5.7253024e-31
-1.0796549e-18
-1.1299188e-18
3.2796895e-31
1.2369191e-18
1.2938169e-18
-1.3530918e-18
-1.4148306e-18
1.4791231e-18
-1.5460614e-18
0
1.6882582e-18
1.7637147e-18
-5.1102244e-31
-1.9238607e-18
2.0087653e-18
-2.0970395e-18
-2.1887983e-18
2.2841598e-18
-2.3832453e-18
-6.9036249e-31
2.5930889e-18
2.7041052e-18
4.0065547e-34
-5.8779942e-18
-1.7007166e-30
3.1919664e-18
3.3255922e-18
0
-3.6078795e-18
0
0
0
-4.2370351e-18
-4.4087434e-18
4.5865644e-18
4.7706767e-18
0
-5.1585071e-18
1.4898494e-30
5.5737338e-18
0
0
-6.2513587e-18
3.603915e-30
6.7420007e-18
0
0
-7.5405323e-18
4.3430646e-30
8.1171632e-18
0
-8.7313335e-18
2.5138598e-30
-2.6046702e-30
2.7010166e-30
1.0079821e-17
0
1.0818016e-17
-6.2174629e-30
-1.1601501e-17
0
-1.2432313e-17
1.2866113e-17
1.3312525e-17
-2.7543623e-17
-3.9593901e-30
2.9460146e-17
-4.2289517e-30
-1.5743034e-17
0
0
-1.7369754e-17
4.9794997e-30
1.8528918e-17
0
-1.9750363e-17
2.0385121e-17
2.1036262e-17
-2.1704058e-17
0
2.3090686e-17
-2.3810053e-17
-1.3625528e-29
1.4044649e-29
-2.6075525e-17
2.2373941e-29
-2.7677913e-17
2.8507495e-17
-8.1474983e-30
1.6785584e-29
6.2225536e-17
-8.8824494e-30
-3.2949131e-17
0
0
0
7.3737961e-17
3.79017e-17
-7.7911872e-17
-4.0031887e-17
0
0
-4.3391901e-17
5.6559254e-47
4.57438e-17
0
9.6373427e-17
4.9442665e-17
-1.0144358e-16
-5.2024213e-17
0
1.093988e-16
1.5936723e-32
-1.7240707e-16
1.6335694e-29
1.2066748e-16
-6.1801921e-17
-3.5978502e-32
6.4810161e-17
-1.8433582e-29
-3.7678368e-29
-6.950261e-17
0
-7.2751023e-17
4.1314451e-29
1.5219068e-16
-7.7803354e-17
1.3242162e-28
8.1290783e-17
-1.6614008e-16
1.2061159e-32
8.6699138e-17
0
0
0
9.4236221e-17
-9.6177729e-17
-1.9628358e-16
1.0012821e-16
2.8361352e-29
2.8895579e-29
1.0621952e-16
0
-1.1038813e-16
1.5987781e-32
2.2928114e-16
-1.1679753e-16
-6.6006129e-29
1.2117147e-16
1.2338781e-16
-6.9801891e-29
-2.5575524e-16
0
-1.3244128e-16
-1.347499e-16
0
1.3941881e-16
1.4177832e-16
-1.44154e-16
0
1.4895217e-16
0
0
-1.5625997e-16
1.3217804e-28
1.612003e-16
0
0
-1.6870415e-16
-1.7122839e-16
1.7376329e-16
1.7630834e-16
-1.7886305e-16
-1.8142688e-16
3.6799866e-16
1.8657987e-16
-5.2555067e-29
-1.9176313e-16
1.0783198e-28
1.0927865e-28
-1.9958541e-16
2.0220332e-16
-2.0482556e-16
2.0745158e-16
1.7912569e-31
-2.1271277e-16
4.3069367e-16
2.1798247e-16
2.2061912e-16
-4.4651248e-16
-4.5178652e-16
2.2852963e-16
-2.3116479e-16
2.3379819e-16
-1.3130341e-28
-4.7811497e-16
2.4168227e-16
-6.7803387e-29
6.8599685e-29
2.4953059e-16
0
0
-2.5732836e-16
-2.5991385e-16
0
2.6506099e-16
2.6762157e-16
0
2.7271412e-16
-7.6430074e-29
-2.7776507e-16
2.8027367e-16
-7.8439326e-29
-2.8525456e-16
0
-2.9018374e-16
-1.624722e-28
2.9505729e-16
-2.9747199e-16
8.3140461e-29
3.0225488e-16
3.0462214e-16
8.5196576e-29
-3.0930599e-16
0
3.139193e-16
-3.1619839e-16
9.0511357e-32
-1.7810362e-28
-3.2292025e-16
3.2512099e-16
0
6.589204e-16
-7.3624803e-28
-3.3371369e-16
-1.8639857e-28
-6.7575667e-16
6.7985276e-16
6.8390217e-16
-6.8790415e-16
-6.9185798e-16
-3.4788147e-16
0
3.5171175e-16
7.071777e-16
-5.0511084e-32
3.5726532e-16
-3.5906403e-16
-3.6083597e-16
3.625808e-16
-7.2859648e-16
7.3197593e-16
6.1232503e-28
-7.385662e-16
7.4177584e-16
-2.0674574e-28
3.7401063e-16
-3.7552796e-16
-3.7701558e-16
3.7847322e-16
1.0538287e-28
7.6259501e-16
-7.6532726e-16
-7.6799749e-16
7.706052e-16
1.0728924e-28
3.8781556e-16
-2.1604855e-28
-3.9020061e-16
-1.0861299e-28
1.9008026e-46
-3.9353434e-16
-7.8915933e-16
3.9559168e-16
-3.6882315e-46
3.9751493e-16
6.6369617e-28
-3.9930243e-16
8.0028957e-16
-2.2255916e-28
-8.0345143e-16
2.9191963e-47
4.0316703e-16
0
0
4.0506404e-16
-4.0562502e-16
-8.1230008e-16
0
0
0
4.0788721e-16
4.0822999e-16
0
-4.0880466e-16
4.0903627e-16
6.8157844e-28
-8.1877464e-16
0
0
0
4.0963681e-16
4.0960206e-16
-4.0952713e-16
4.0941354e-16
2.2728747e-28
-8.1814103e-16
0
0
8.1653023e-16
-1.1593747e-31
-4.0753316e-16
4.0710841e-16
-4.0664439e-16
4.0614102e-16
-2.2525311e-28
-8.1003188e-16
0
0
4.0303167e-16
4.0229094e-16
0
0
-3.9983037e-16
-3.9893063e-16
0
3.9701179e-16
3.9599267e-16
-3.9493378e-16
3.9383511e-16
3.9269671e-16
-3.9151861e-16
-3.9030084e-16
2.1605925e-28
3.8774651e-16
-3.8641008e-16
-1.0686163e-28
3.8361908e-16
0
3.8067116e-16
-2.1050463e-28
-3.775672e-16
3.7595703e-16
-2.0782272e-28
-3.7262104e-16
0
3.6913196e-16
-1.0200036e-28
-5.1939434e-32
3.6361462e-16
-3.6170069e-16
-3.5974977e-16
0
7.114759e-16
-3.9283693e-28
-3.5158137e-16
-4.9659766e-32
-6.9456488e-16
6.901609e-16
6.8568775e-16
-6.8114623e-16
-3.3826856e-16
0
6.6711929e-16
-5.5135637e-28
-6.5744111e-16
0
6.4750989e-16
1.7839608e-28
-3.1866672e-16
-8.7768555e-29
-6.269202e-16
6.2162752e-16
7.6964002e-28
-6.1087591e-16
6.0541939e-16
-1.664554e-28
-5.9435128e-16
-2.9437115e-16
5.8308521e-16
2.8869068e-16
-5.7163222e-16
5.6583924e-16
6.9936082e-28
-5.5412774e-16
5.4821233e-16
-7.52873e-29
2.6813504e-16
-2.9417642e-28
-7.8628538e-16
1.4379325e-28
5.1198636e-16
-2.5292111e-16
-4.9967233e-16
2.4673926e-16
-1.352685e-28
2.405132e-16
2.6366939e-28
-2.342504e-16
4.6221519e-16
-1.8983382e-28
2.4959857e-28
-1.2296693e-28
-2.1848303e-16
0
-2.1215252e-16
-2.0898623e-16
0
0
0
0
0
1.9003733e-16
1.8689679e-16
0
-1.8063993e-16
1.775256e-16
2.9055157e-28
-3.4266036e-16
0
0
0
1.5909965e-16
1.5608104e-16
-1.5307994e-16
-1.5009724e-16
2.9426773e-16
2.4023335e-28
-2.8253729e-16
0
2.7098243e-16
2.2094708e-28
-1.2980823e-16
1.2700417e-16
-1.2422607e-16
1.214747e-16
6.5915697e-29
-2.3210991e-16
0
0
1.0814298e-16
1.0556622e-16
0
1.0050703e-16
2.786057e-32
9.5577133e-17
9.316187e-17
-9.0780343e-17
0
-1.7224016e-16
-1.6768415e-16
0
2.3817585e-16
1.5444078e-16
-1.5016967e-16
7.2985463e-17
7.092248e-17
-2.0668813e-16
-6.6906245e-17
-9.2304052e-33
-6.3036989e-17
6.1157614e-17
5.931511e-17
5.7509467e-17
8.4391379e-47
5.400851e-17
5.2313057e-17
-5.0654116e-17
0
-9.4890443e-17
-9.1789785e-17
0
4.2901428e-17
8.2915566e-17
2.2224642e-29
3.8675301e-17
7.4671664e-17
-7.2060888e-17
-6.9517569e-17
-3.3520465e-17
-3.2315113e-17
0
3.0001672e-17
8.6678204e-17
-2.781507e-17
-5.3669802e-45
7.7255072e-17
-4.9530098e-17
-2.3807773e-17
-2.2879389e-17
-4.3958783e-17
4.2214495e-17
2.0262465e-17
-1.944452e-17
-1.8652859e-17
-1.7886978e-17
5.1439028e-17
1.6430387e-17
-4.7215801e-17
-1.5070444e-17
1.4425346e-17
2.760559e-17
-1.3202255e-17
1.2623155e-17
-2.0087522e-29
1.9198725e-29
3.3027888e-17
-1.0510708e-17
-1.0030942e-17
-1.9138905e-17
-9.1257433e-18
1.7398629e-17
2.3560575e-33
7.8962402e-18
-7.518632e-18
-2.1468935e-17
2.0426453e-17
6.4756891e-18
-1.8469337e-17
0
1.667358e-17
5.2776245e-18
-1.5028588e-17
4.7531592e-18
9.0161751e-18
2.3723548e-30
-4.4958617e-30
-3.8367745e-18
0
-6.8773465e-18
-6.5067023e-18
3.0767288e-18
2.9084678e-18
5.4964467e-18
-2.595696e-18
-2.4505742e-18
4.6250767e-18
0
-4.1132594e-18
-3.8763525e-18
1.8257171e-18
3.4379874e-18
-8.9796454e-31
-1.5217208e-18
2.8614496e-18
-1.3444935e-18
4.2058286e-30
2.3711047e-18
-1.1124043e-18
0
-1.9556833e-18
0
1.9045069e-30
8.0255598e-19
1.5010761e-18
-2.1044142e-18
1.8622414e-34
1.2232238e-18
0
-1.0637298e-18
-4.9545651e-19
9.2241116e-19
-4.763227e-31
-3.9872911e-19
7.4057004e-19
-3.4358055e-19
5.3029012e-31
5.8995218e-19
-2.7291722e-19
2.5222838e-19
-4.656893e-19
-6.4408348e-19
0
5.4535078e-19
3.3381485e-19
-4.5896399e-19
-2.7996831e-19
1.2784254e-19
2.3299671e-19
-1.0592359e-19
-9.6076836e-20
1.7381446e-19
-7.8411696e-20
-1.4121923e-19
6.4048405e-20
-8.4895529e-36
1.176773e-19
1.1789281e-19
-1.6641809e-19
5.5508083e-20
1.1076878e-31
-2.2699779e-19
0
1.9446908e-19
1.6339192e-19
-9.3742912e-20
-7.9828266e-20
-6.7720873e-20
0
-8.4479879e-20
4.3507066e-32
1.401375e-19
-4.2268904e-32
-8.6157313e-20
0
-7.1851771e-20
1.3995648e-19
2.301264e-19
-1.5388827e-19
-2.027315e-19
-6.4345842e-20
7.1643172e-20
1.5005191e-19
-6.625017e-20
5.8655167e-20
6.3617228e-20
-1.4095359e-19
1.3287958e-19
5.6423369e-20
-1.6679997e-19
-1.2321686e-19
6.1731184e-20
1.6157263e-19
-1.1595889e-31
1.3225384e-31
6.2173918e-20
5.9492391e-32
4.8190683e-20
-5.4391098e-20
-5.9725892e-20
-5.2940478e-20
4.4263545e-20
4.7620336e-20
-1.6442778e-19
5.1488529e-20
8.4336334e-20
-1.2835013e-19
-1.4183534e-35
4.8805783e-20
-8.0074573e-20
-3.899359e-20
0
4.4155143e-20
3.8882489e-20
8.392874e-20
-4.8261159e-20
1.4609216e-31
1.1288221e-19
-4.2911327e-20
-5.2530756e-20
-5.0482312e-20
3.6705112e-20
2.5842325e-20
-7.6420589e-20
3.0752087e-20
6.4938298e-20
4.9580721e-32
2.7572417e-20
-5.4974145e-20
-8.330222e-20
-1.5514701e-32
1.5472875e-32
3.9931743e-36
2.857502e-20
5.5283714e-20
2.4686402e-20
-7.734134e-20
3.6677373e-32
8.4235958e-20
0
0
-3.2358259e-20
1.9493825e-32
-2.3603344e-32
-4.280345e-20
7.2114177e-20
2.8361223e-20
2.8909018e-32
-2.996775e-20
-1.0648284e-19
-3.3912471e-20
0
0
0
6.6619922e-20
3.0650262e-20
-2.6980657e-20
7.5307491e-33
1.4551962e-20
0
0
-1.0282652e-20
1.2596631e-32
6.269441e-33
-1.2109899e-20
8.7513332e-21
2.0372525e-20
1.8008765e-20
-8.8396334e-21
-3.4674079e-20
-1.3997306e-20
0
0
0
4.6179166e-20
3.0413777e-20
-5.4935887e-20
4.3217014e-32
1.6050252e-20
-1.7856103e-36
1.4404775e-20
-3.66155e-20
2.2450867e-32
2.1328502e-20
-4.5111924e-20
0
9.8970658e-33
2.9839566e-20
2.8265565e-20
-3.8377849e-20
-2.2676008e-20
1.1827645e-20
6.0935931e-33
-4.8517906e-21
-2.5529408e-21
-1.3570988e-21
-9.6869252e-22
1.4884881e-21
-5.0044659e-21
-6.9432558e-21
7.429795e-21
7.6663111e-21
-4.5570675e-33
4.746396e-33
7.8426055e-21
0
5.8735771e-21
-9.6934931e-21
-5.6070577e-21
-1.157271e-21
-4.336085e-23
2.3744806e-21
-2.8949993e-33
-2.1728646e-21
1.5782323e-21
-4.0313931e-21
-5.0653457e-21
9.3966031e-21
-1.1142164e-20
-6.6872163e-21
5.7194095e-21
9.8590747e-21
5.438063e-21
-1.2623071e-20
4.2586165e-33
-7.4164061e-21
-6.8780959e-21
2.1497805e-20
-6.9427879e-21
-7.5752418e-21
2.5457958e-20
-1.0466439e-36
-1.7985409e-20
-6.3558376e-21
2.3711444e-20
-9.603365e-21
7.8968715e-49
-1.6884019e-32
-2.0078594e-20
1.6640027e-20
1.4437272e-20
-8.4760204e-21
1.1238815e-32
2.1120496e-20
-8.8649281e-21
-2.4086833e-20
-9.3200022e-21
1.0865824e-20
0
1.2009446e-20
2.0171125e-20
-1.259105e-36
-3.022692e-20
-1.1756089e-20
2.5210909e-20
-1.7606715e-36
-2.4321496e-20
2.365705e-20
-1.7942439e-32
-2.077628e-20
3.2665623e-20
2.2404812e-20
0
0
-9.1393615e-21
-3.0321495e-20
-1.0763218e-20
3.2205684e-20
-1.1334378e-32
-2.0353176e-20
2.150127e-20
2.1784344e-20
-1.0249673e-20
-2.026407e-20
1.0917981e-20
1.187372e-20
-3.6205305e-20
-1.1518992e-20
-1.9221363e-32
6.8177266e-33
1.3104194e-20
-1.3359023e-20
2.564668e-20
3.9113046e-20
0
-4.492643e-20
-2.9890508e-20
4.4646835e-20
-4.2307211e-36
-1.4118694e-20
2.7883711e-20
-1.4778474e-20
-1.559987e-20
-1.740976e-32
1.4729151e-20
2.8138397e-20
-1.4628048e-20
-3.0111246e-20
-2.7727757e-20
1.4991726e-32
1.4395277e-20
-1.5066456e-20
3.0393289e-20
4.4505609e-20
0
-3.7426195e-20
-2.3641784e-20
3.8019096e-20
-1.4813164e-32
-1.3582739e-20
1.3265881e-20
1.2127458e-20
-6.4953542e-33
-2.4661668e-20
7.1071445e-33
2.5660149e-20
-1.3638178e-32
-1.1898339e-32
-2.0914387e-20
-3.4790244e-20
2.4631466e-20
-1.4036294e-32
-4.1476415e-32
1.2018502e-20
1.160508e-20
2.1547221e-20
-3.2153217e-20
-1.1527634e-20
2.4154962e-20
-2.4198463e-20
-6.6855621e-36
3.4783169e-20
1.1685814e-20
-1.1773823e-20
-3.5017357e-20
3.8011218e-32
2.2527212e-20
1.1459005e-20
-2.3477772e-20
-3.581187e-20
3.5522814e-20
1.156459e-20
1.2693338e-32
1.1205147e-20
-2.1987061e-20
6.1878942e-33
-1.1544503e-20
1.1812148e-20
-3.8551294e-32
-3.2910253e-20
3.1211706e-20
3.1533141e-20
0
0
0
-1.0740684e-20
-3.072776e-20
-1.0278636e-20
-1.1864616e-32
-1.0897204e-20
3.195832e-20
9.9295856e-21
-9.6095484e-21
-9.9487623e-21
-1.0339537e-20
2.0611937e-20
-9.9863855e-21
9.5455913e-21
-3.1490143e-32
-1.9515408e-20
2.9712627e-20
1.9562776e-20
0
-1.8894819e-20
-1.030737e-32
9.2066515e-21
-2.7996619e-20
-9.4378912e-21
9.1777559e-21
0
0
8.4057608e-21
1.8056743e-20
-2.0709913e-32
-1.869355e-20
-9.215637e-21
9.1066871e-21
-8.9491991e-21
8.6338718e-21
-1.4917565e-48
-1.461237e-32
2.7139401e-20
0
0
-1.7266687e-20
-1.7195538e-20
-8.9696438e-21
1.023001e-32
2.7439536e-20
-9.9060845e-33
-1.7080322e-20
0
1.7972324e-20
9.2844978e-21
-1.843959e-20
8.9998056e-21
8.6852548e-21
-2.6031491e-20
9.0535322e-21
-3.1076121e-32
-1.8433822e-20
2.6500937e-20
1.7145329e-20
0
0
0
-2.7578688e-20
-1.7844047e-20
2.6387664e-20
1.7853415e-20
0
-1.8457509e-20
1.0123275e-32
9.0518706e-21
-1.8277371e-20
9.0077872e-21
-8.4979859e-21
-8.2221613e-21
2.5484049e-20
-1.7960637e-20
-1.8317566e-20
9.0187387e-21
-8.7378962e-21
1.6495919e-20
2.4322952e-20
0
-2.645237e-20
-1.78804e-20
8.7328725e-21
8.3446501e-21
-8.9123916e-33
8.0836448e-21
-2.8145091e-32
-8.6044336e-21
-4.7099482e-33
-5.5100144e-50
7.8881046e-21
0
8.0365183e-21
-1.6431094e-20
-2.4437848e-20
2.3841665e-20
2.2933036e-20
0
-1.5644149e-20
-1.5869873e-20
1.5564868e-20
-7.5000749e-21
-7.0576884e-21
2.0994072e-20
-1.475692e-20
-1.5243441e-20
7.624431e-21
1.4900314e-20
7.2014701e-21
-2.1180306e-20
-7.1292548e-21
-1.2091322e-32
1.4567829e-20
4.0914838e-36
-2.1085215e-20
1.395948e-20
2.1175398e-20
7.1238384e-21
-2.105489e-20
-1.3486934e-20
1.9901314e-20
-1.5090215e-32
-1.3961138e-20
-7.017916e-21
3.8341937e-33
1.3421869e-20
-7.3727612e-33
6.707011e-21
6.798477e-21
-2.0358104e-20
-6.6379541e-21
-7.3359676e-33
1.3559773e-20
-2.2911544e-32
-2.0377179e-20
1.3161933e-20
-6.9484364e-33
-6.8761436e-33
-1.4347817e-32
-6.7526237e-21
2.0593185e-20
-6.7727192e-21
-1.102982e-32
-2.1560592e-32
-1.9350416e-20
6.5920057e-21
1.3488339e-20
-7.5009407e-33
6.6492554e-21
6.60553e-21
-1.3279433e-20
-1.3449746e-20
7.4704309e-33
1.9841327e-20
-7.2987924e-33
-6.65284e-21
1.3539058e-20
-6.7671727e-21
-6.6259435e-21
3.6380621e-33
-3.6916945e-33
6.803378e-21
-1.355205e-20
6.6151015e-21
-2.1503866e-32
-2.1558871e-32
2.0014212e-20
-1.3621742e-20
1.9189268e-36
1.3122392e-20
-6.4258211e-21
-1.9415854e-20
-6.6022299e-21
1.9982751e-20
-7.3243363e-33
-6.3901612e-21
1.2619013e-20
-1.2919833e-20
-3.2842162e-32
6.534263e-21
-6.3971737e-21
6.1288944e-21
-1.213061e-20
6.2951754e-21
1.9500158e-20
0
0
-1.2040275e-20
-1.6453714e-36
1.1736771e-20
-6.1426782e-21
-1.8921438e-20
-6.279751e-21
1.8438278e-20
1.7202651e-36
6.7324166e-33
1.2284743e-20
-1.8502173e-20
-3.0528989e-32
6.0253615e-21
-6.0086534e-21
-6.0112798e-21
6.6136979e-33
5.9036032e-21
-1.1875245e-20
1.1988593e-20
-2.002118e-32
-1.1850619e-20
1.721787e-20
1.1280981e-20
-5.729301e-21
-1.7640365e-20
-5.951556e-21
5.8950651e-21
0
-5.6786751e-21
5.7154911e-21
1.7420796e-20
3.240262e-33
-1.1593841e-20
5.7106357e-21
5.673054e-21
-1.1420373e-20
5.7561871e-21
-5.7464958e-21
-1.1372162e-20
1.6867865e-20
-1.8695171e-32
1.2366494e-32
1.0836807e-20
-1.0647245e-20
-5.3857374e-21
-5.514863e-21
-6.1765376e-33
5.4134066e-21
-1.0319037e-20
9.9478643e-21
1.5054302e-20
0
-5.3322391e-21
2.928708e-33
1.4533554e-36
-1.4649247e-20
-4.7714284e-21
1.4582829e-20
-5.0227473e-21
-4.5894067e-49
1.4887915e-20
-4.8016311e-21
-1.3805405e-20
-4.5283271e-21
9.2593465e-21
-4.7302027e-21
4.7423605e-21
-1.5541689e-32
-9.105989e-21
1.3452651e-20
4.9828497e-33
-2.0032326e-32
8.9402844e-21
-8.7740548e-21
-4.7777786e-33
4.2723849e-21
-8.6075343e-21
-4.3308896e-21
0
0
8.4339344e-21
-9.3632101e-33
-2.3842002e-36
-4.5964493e-33
-4.1019192e-21
-4.1060726e-21
4.140607e-21
4.138892e-21
-8.2058528e-21
8.128978e-21
-4.5119547e-33
-8.2164399e-21
8.2037144e-21
1.3478053e-32
-4.4514297e-33
4.0416876e-21
-8.2304042e-21
4.1555619e-21
-9.1290201e-33
-8.0275627e-21
0
8.1661423e-21
4.2007778e-21
-8.507698e-21
-4.2177339e-21
4.1405867e-21
-6.8608354e-33
-4.1884035e-21
0
0
8.6812111e-21
8.6375313e-21
0
-8.7465211e-21
-4.3858578e-21
4.3656692e-21
-4.3193762e-21
4.3287329e-21
0
-8.9960976e-21
0
0
4.3180998e-21
-4.830037e-33
-4.4547337e-21
0
4.4840499e-21
2.437508e-33
-4.3300767e-21
0
8.8445245e-21
8.9374299e-21
-4.4331854e-21
-4.8279355e-33
4.2960673e-21
-8.6047661e-21
-8.6983657e-21
8.6750702e-21
1.2131608e-36
9.3393095e-33
1.192515e-36
-8.4339461e-21
4.2132262e-21
-4.6019292e-33
4.0321736e-21
-3.9727421e-21
-1.2005618e-20
1.2144863e-20
4.0427388e-21
-3.9773619e-21
-4.3151789e-33
-3.8412055e-21
7.7073502e-21
7.7537952e-21
-7.713215e-21
-1.2673639e-32
-3.7528674e-21
-3.7248896e-21
7.4683573e-21
-3.7394855e-21
4.1159189e-33
-2.0302338e-33
3.609896e-21
7.1747953e-21
-7.1754004e-21
-7.1834595e-21
0
3.5736756e-21
3.9759577e-33
-7.1659052e-21
-3.9153753e-33
1.0351787e-20
6.8061072e-21
0
-7.0495092e-21
-7.9698896e-33
-3.5652891e-21
-3.4609971e-21
1.0035529e-20
-1.8379717e-33
-6.7760588e-21
3.5110626e-21
7.1749343e-21
-3.6073721e-21
-7.178537e-21
-3.5485483e-21
0
6.921918e-21
-3.4564678e-21
-1.0540157e-20
3.5939349e-21
3.6377919e-21
7.2107148e-21
3.5466775e-21
-7.0278416e-21
-3.534437e-21
-3.6017111e-21
4.0429687e-33
3.5912147e-21
3.495263e-21
6.8975428e-21
3.5005186e-21
0
0
0
-7.0579006e-21
-6.8222512e-21
6.7858485e-21
3.8885602e-33
4.0385064e-33
-4.0728642e-33
-7.9574189e-33
6.9024059e-21
0
-6.5412164e-21
-3.4126398e-21
3.5602553e-21
-3.6207555e-21
-3.5706772e-21
0
0
6.4629026e-21
-1.0928797e-32
-7.5551365e-33
6.9777722e-21
-6.990183e-21
-6.8401738e-21
0
6.5350847e-21
-3.6037831e-33
-6.5924581e-21
6.6757551e-21
3.6991995e-33
-6.5629774e-21
0
6.3632062e-21
3.2163024e-21
-6.5195308e-21
3.2616352e-21
7.1151821e-33
-6.2407131e-21
6.15446e-21
6.2032515e-21
0
0
0
-6.1040364e-21
-5.9858936e-21
5.9837531e-21
0
-6.222704e-21
0
-3.0590486e-21
6.0067076e-21
2.970203e-21
-2.9503593e-21
5.8937524e-21
2.9614614e-21
-5.9784097e-21
-2.9921312e-21
-3.2864326e-33
2.906026e-21
-6.3121543e-33
1.6057657e-36
5.7392493e-21
0
-2.9257506e-21
-5.7388831e-21
-2.7921994e-21
0
0
0
-2.8749156e-21
5.6591582e-21
2.7606776e-21
-2.7253456e-21
-2.7438834e-21
2.8018246e-21
2.83313e-21
-5.5894842e-21
0
5.3966871e-21
5.4151721e-21
0
0
-5.5124632e-21
-3.0011177e-33
-2.6781827e-21
-2.6956393e-21
2.7376592e-21
-2.7561228e-21
2.7221704e-21
5.3386638e-21
2.6483832e-21
0
-5.4353894e-21
-3.0410842e-33
2.7181259e-21
-2.6799369e-21
-2.6653852e-21
-5.3643214e-21
5.4106075e-21
2.7025739e-21
-7.610152e-37
2.6493001e-21
-5.2927843e-21
2.6721843e-21
-2.7013798e-21
-6.4017183e-50
2.677587e-21
-5.3364741e-21
5.3187938e-21
5.3002409e-21
0
-2.5974204e-21
-5.1887824e-21
1.4635254e-33
2.6673983e-21
2.6497681e-21
-5.1729897e-21
-5.0241065e-21
2.4982378e-21
5.1098348e-21
5.2580696e-21
-2.6522924e-21
-5.1936227e-21
2.5244471e-21
-2.4796963e-21
4.1300967e-33
2.5312325e-21
-5.1327722e-21
5.1102441e-21
2.7895157e-33
-1.3711487e-32
4.9126802e-21
-4.9528158e-21
-1.1065803e-32
2.4749554e-21
-4.8681479e-21
2.3916614e-21
-6.7668397e-37
1.0680508e-32
2.4287347e-21
-4.8266984e-21
5.2798335e-33
-1.3046444e-33
2.3478798e-21
-6.7021084e-37
-4.7059105e-21
4.6321364e-21
1.2888982e-36
-1.0005552e-32
4.562273e-21
-4.6152726e-21
-5.100169e-33
4.4963343e-21
-2.1918029e-21
-2.1817659e-21
-2.2228272e-21
2.2672877e-21
-2.5154107e-33
-4.4060143e-21
0
0
4.2777087e-21
6.2768218e-37
-4.4773798e-21
2.2091039e-21
-2.3864862e-33
2.0998059e-21
4.6480412e-33
-4.2616281e-21
0
-2.1785895e-21
4.3027668e-21
2.1166668e-21
-4.6786248e-33
2.1258662e-21
-4.2941166e-21
2.1437175e-21
-2.3428702e-33
-4.1431039e-21
0
0
2.1383019e-21
-1.1969573e-33
2.1170614e-21
-2.0606384e-21
-6.0792423e-21
6.0692418e-21
2.0525778e-21
-4.1564022e-21
2.0701929e-21
3.4027643e-33
2.0218531e-21
-1.1453079e-36
-6.7420538e-33
2.0418883e-21
-4.1171822e-21
-2.0439994e-21
0
-1.9355782e-21
1.8887193e-21
1.8855997e-21
1.930418e-21
-4.4054555e-33
2.2176028e-33
-2.1711588e-33
-3.7658506e-21
1.8186964e-21
2.9995569e-33
-3.6683508e-21
2.67747e-37
1.9017107e-21
3.7453412e-21
3.6270648e-21
-3.5177201e-21
-1.9352857e-33
-1.765752e-21
-1.803253e-21
3.6207074e-21
-3.525963e-21
-1.7037674e-21
5.0090218e-21
3.345001e-21
-1.7076977e-21
-3.4406581e-21
-1.6855106e-21
1.6290846e-21
3.1707142e-21