/*--------------------------------*- C++ -*----------------------------------*\
  =========                 |
  \\      /  F ield         | OpenFOAM: The Open Source CFD Toolbox
   \\    /   O peration     | Website:  https://openfoam.org
    \\  /    A nd           | Version:  7
     \\/     M anipulation  |
\*---------------------------------------------------------------------------*/
FoamFile
{
    version     2.0;
    format      ascii;
    class       volScalarField;
    location    "0.00198";
    object      Uz;
}
// * * * * * * * * * * * * * * * * * * * * * * * * * * * * * * * * * * * * * //

dimensions      [0 1 -1 0 0 0 0];

internalField   nonuniform List<scalar> 
5000
(
0
0
0
0
0
-4.6279436e-21
-1.0259965e-35
1.4899199e-20
5.0326054e-21
-1.0117082e-20
-1.0182012e-20
5.1408213e-21
-4.4544678e-35
-4.6801847e-35
1.0786257e-20
-1.0956455e-20
2.2204383e-50
-4.951773e-35
-5.6629124e-21
1.1388095e-20
5.7293547e-21
0
0
-5.8817737e-21
5.0203198e-35
-4.9128742e-35
-5.9890889e-21
5.9677677e-21
5.988453e-21
-5.6852623e-21
9.7846466e-35
-5.1112129e-35
-6.0928852e-21
5.9149257e-21
5.9087534e-21
0
0
-6.0931967e-21
-6.0484565e-21
6.0423904e-21
-1.0162404e-34
-6.0308399e-21
5.9651897e-21
-1.0025596e-34
-5.9556956e-21
5.9427888e-21
-2.0097484e-34
1.9786727e-34
-1.9984985e-34
9.9243822e-35
5.7410003e-21
0
0
0
0
0
0
0
0
0
0
0
0
-5.1077126e-21
-5.0493414e-21
4.8812296e-21
-8.2263559e-35
1.2601269e-51
4.9145921e-21
0
0
-4.8564052e-21
-4.7919302e-21
0
4.6343362e-21
1.5891891e-34
-4.6274783e-21
-4.6409184e-21
4.5825813e-21
8.9638536e-21
-8.7977077e-21
2.4923352e-36
1.3354593e-20
-9.0399599e-21
-4.7376452e-34
9.0400106e-21
-1.3350273e-20
4.4109705e-21
4.3759954e-21
-4.3335308e-21
4.3272272e-21
4.380879e-21
1.540494e-34
-8.8169986e-21
-3.0067845e-34
-4.2427508e-21
-4.1988616e-21
-1.4961229e-34
3.0158091e-34
8.6857722e-21
4.3109818e-21
-4.2424993e-21
5.9807246e-37
4.2508154e-21
0
-4.3208333e-21
-1.4912262e-34
4.2029664e-21
-4.1127561e-21
-4.0301571e-21
7.7990734e-21
3.8739226e-21
-1.2007466e-20
-4.0716071e-21
1.2129106e-20
-3.9577422e-21
-3.8301732e-21
-2.147888e-36
-3.8410548e-21
1.1670601e-20
-2.6999217e-34
-7.5578469e-21
7.3448475e-21
3.6170074e-21
-3.6382334e-21
3.6623945e-21
-3.6377699e-21
-7.1368719e-21
3.4812288e-21
1.179338e-34
3.3953523e-21
6.8243096e-21
-3.3929438e-21
-3.302535e-21
-3.1891509e-21
-1.0700268e-34
-1.0450606e-34
1.0564202e-34
6.0885822e-21
2.9902034e-21
-2.8614106e-21
-5.4140467e-21
-2.5971052e-21
-2.5737507e-21
1.7927328e-34
5.104728e-21
-6.9870986e-37
6.6385987e-37
1.1832065e-50
2.2150944e-21
-1.5130119e-34
2.9044025e-34
1.9541144e-21
-1.8575664e-21
1.8194683e-21
6.222528e-35
-1.7294639e-21
1.6136882e-21
-2.1017286e-37
-1.426066e-21
0
1.4572498e-21
9.6754129e-35
-2.4802641e-21
1.027758e-21
-2.8814356e-37
-1.1413998e-21
1.2135852e-21
-1.2109309e-21
1.1435075e-21
-4.3295461e-34
-2.6245937e-34
9.7206963e-22
-2.1569656e-21
0
-7.8450368e-35
-2.2130169e-34
9.8679457e-22
1.0331297e-21
8.0418929e-35
-1.2485235e-21
1.2557392e-21
8.247981e-35
4.8259324e-37
1.6570866e-34
-2.7024566e-21
1.446285e-21
1.461063e-21
-9.7927417e-35
9.5241345e-35
-2.9896318e-34
1.0823395e-34
-1.6578161e-21
0
0
0
0
-1.773184e-21
3.6978949e-34
1.7205142e-21
1.6871527e-21
-1.7498001e-21
-1.8529911e-21
3.782035e-21
1.2864408e-34
-3.7464321e-34
-1.8154768e-21
-1.8678457e-21
1.8987446e-21
0
1.7945364e-21
1.2556834e-34
-1.9112094e-21
-1.9633999e-21
2.6660825e-34
1.8285433e-21
-3.53761e-21
1.8101218e-21
1.922044e-21
-1.9944454e-21
1.9898386e-21
0
0
0
1.824382e-21
-1.9421972e-21
-4.0035237e-21
1.961035e-21
-1.3117076e-34
1.8556919e-21
1.9065713e-21
-4.0050694e-21
5.819764e-37
-5.6721815e-37
1.9039291e-21
1.8967758e-21
-3.9773892e-21
2.9913503e-37
-4.4687005e-34
2.1024496e-21
-1.1186524e-33
-2.6614967e-34
1.9475831e-21
-2.0813384e-21
0
-2.2261384e-21
2.1945536e-21
2.121165e-21
-2.0439177e-21
0
-2.1236353e-21
2.2068088e-21
2.2196567e-21
-7.3639917e-34
-3.9361144e-21
-3.9421401e-21
6.3555503e-21
4.5147004e-21
0
-4.3422534e-21
-2.0322764e-21
1.9165258e-21
1.9791492e-21
2.1410086e-21
-4.4035035e-21
-4.3007819e-21
2.0648599e-21
4.1350023e-21
5.9732273e-34
-4.4156784e-21
2.1253183e-21
-2.7443332e-34
-1.9173642e-21
4.0113052e-21
-2.153004e-21
3.0393161e-34
2.0797539e-21
-1.9234033e-21
1.7979559e-21
-3.7127147e-21
8.4265031e-34
4.2263099e-21
-4.1658339e-21
-1.3334363e-34
1.7468513e-21
0
0
1.8585733e-21
-1.8958446e-21
-3.7152728e-21
1.8046777e-21
-5.0012499e-37
1.650684e-21
1.5046736e-21
-1.4759442e-21
0
-1.6537905e-21
-1.6392424e-21
0
3.0564878e-21
1.4931898e-21
-2.7538575e-21
8.5945295e-35
-3.7242908e-37
1.4930287e-21
1.5869688e-21
-1.5464131e-21
1.3355627e-21
-1.1077618e-21
6.7862067e-37
2.8678131e-21
-1.5562928e-21
-1.5715633e-21
-1.5022724e-21
-1.8956893e-34
1.278485e-21
0
0
-1.6166038e-21
2.1239602e-34
-3.9561299e-34
-2.0427017e-34
1.5660882e-21
-1.5506525e-21
2.0384894e-37
1.3804314e-21
0
0
0
0
0
0
0
-1.5536024e-21
0
8.368933e-22
0
-9.6495009e-22
-3.2229889e-34
1.2306722e-21
0
0
-7.5588517e-22
-9.6985662e-35
8.54564e-22
0
0
-2.2525847e-22
2.6525149e-22
-1.3109641e-22
1.9334724e-22
0
-4.6017699e-22
9.1522043e-38
7.9532461e-22
-6.8125996e-22
-1.1793056e-22
-2.1366739e-22
4.0583614e-24
0
-6.3522104e-22
-7.5022951e-22
7.3744922e-22
4.90659e-22
0
-1.5913858e-22
-4.3622523e-22
6.6445025e-22
7.9607483e-22
0
0
0
0
0
0
0
0
-5.9729908e-22
-3.0720878e-49
-4.0229064e-23
0
0
0
-8.0681991e-22
-1.3201744e-34
9.6025939e-22
-2.5113817e-22
-1.5411657e-34
2.2571897e-37
1.8103973e-34
-1.2710173e-21
1.172418e-21
-7.2852118e-22
2.1484152e-34
2.8971395e-22
-7.6039476e-22
0
0
2.0390248e-21
1.9340067e-34
-1.1738118e-21
1.2151235e-21
1.9382195e-21
0
-4.1427869e-21
-3.72933e-21
2.8933295e-21
7.166205e-34
-5.2262443e-52
4.7243347e-34
-5.161102e-21
6.4063048e-21
6.0572533e-49
7.2530159e-34
4.9415848e-21
0
0
-5.4530031e-21
-9.8417938e-37
3.5981461e-33
-9.6680915e-21
0
0
7.8393357e-21
-2.2091934e-33
-9.1978569e-21
0
0
0
1.0533712e-20
-1.495006e-36
-1.0622862e-20
1.1440224e-20
-1.4423808e-20
4.9252862e-33
3.7507135e-20
-1.8266194e-20
-7.7684252e-33
-2.6882827e-33
2.6389864e-33
1.8812299e-20
0
0
-2.0934285e-20
-3.3606174e-33
7.3607348e-33
-1.4417794e-50
2.5974885e-20
-2.6212447e-20
-2.731258e-20
0
3.0454824e-20
4.519035e-33
-3.4483653e-20
0
0
3.7435093e-20
-1.1120239e-35
9.2582981e-50
4.2811552e-20
-4.3641699e-20
6.145411e-33
-6.3446723e-33
1.3382227e-32
5.1485421e-20
-5.3882725e-20
1.5168017e-32
-1.526547e-32
1.5652417e-32
5.918377e-20
-6.2787349e-20
1.8332798e-32
-9.3993069e-33
0
6.9092385e-20
-7.1569268e-20
1.0401721e-32
-1.1145158e-35
1.134088e-32
-1.1769744e-32
-8.7202165e-20
8.9231194e-20
9.1186943e-20
-9.3625463e-20
-9.6824544e-20
0
1.0505183e-19
1.0896506e-19
0
-1.1433547e-19
1.6284521e-32
-1.7260485e-35
-1.7511849e-32
1.307671e-19
-1.3444244e-19
-1.910374e-32
3.9378991e-32
1.470205e-19
1.5256212e-19
-3.1522055e-19
2.3029399e-35
-2.3095867e-32
-1.718201e-19
1.778788e-19
-2.5531415e-32
-1.893194e-19
0
0
0
2.1542346e-19
2.2242849e-19
-2.2849276e-19
-2.3437594e-19
0
2.4977092e-19
2.5896821e-19
-2.6781737e-19
-2.7556347e-19
0
2.9023605e-19
2.993735e-19
-3.0976633e-19
-8.8988862e-32
3.3054583e-19
0
0
0
0
-3.8233912e-19
1.0920686e-31
4.0482389e-19
-4.1625218e-19
-5.9476031e-32
6.1310707e-32
6.2406233e-49
-4.6698247e-19
-4.797121e-19
9.85369e-19
7.0298075e-32
-7.223564e-32
5.359553e-19
0
-5.6618557e-19
-5.8065702e-19
5.9512515e-19
1.6929261e-31
-6.2658676e-19
0
0
6.7862269e-19
-9.642938e-32
-7.1192548e-19
0
7.480768e-19
-1.0903771e-34
2.1834759e-31
1.1164319e-31
-8.2355507e-19
8.4284003e-19
-1.2264775e-34
2.4545372e-31
9.0503473e-19
-9.2602528e-19
-2.6294129e-31
-1.3755583e-34
1.3737707e-31
1.0116341e-18
-1.0344404e-18
0
6.0003518e-31
1.5309335e-31
4.6896467e-31
1.635477e-34
1.1752392e-18
-1.1999829e-18
4.8216511e-48
1.7356262e-31
-3.5422153e-31
1.8071715e-31
-2.655768e-18
1.3542873e-18
1.3808193e-18
1.9543276e-31
-1.9921312e-31
-2.9252308e-18
1.4908893e-18
1.5194243e-18
1.3829423e-48
0
1.3999887e-48
1.6347615e-18
-1.6650581e-18
1.4673178e-48
2.3940248e-31
2.4956569e-34
1.7864458e-18
-3.6349931e-18
-5.1355e-31
1.8818535e-18
-2.6550611e-31
2.6997898e-31
-1.9787906e-18
2.0113634e-18
-6.3838242e-48
8.6578973e-31
-5.8672243e-31
5.9563966e-31
6.0552291e-31
1.6695268e-48
0
-2.2844776e-18
0
0
2.3913029e-18
6.740534e-31
-2.4636025e-18
0
0
5.1468518e-18
2.1733645e-30
-5.2964293e-18
2.6857556e-18
-3.8701673e-34
3.8336881e-31
2.7993552e-18
0
0
0
2.9539521e-18
8.3023219e-31
-3.0321556e-18
0
0
3.1509674e-18
-4.5343023e-34
-3.2305478e-18
0
0
3.3513428e-18
9.4089723e-31
9.5358513e-31
-9.6433174e-31
-3.5134669e-18
3.5544061e-18
-9.9789212e-31
1.0092935e-30
-1.0201436e-30
-3.7185484e-18
0
0
3.8422914e-18
-4.9684553e-47
-3.9250225e-18
0
0
4.0490119e-18
-3.1764451e-47
-4.1316218e-18
0
0
4.2559675e-18
-3.1735565e-47
-4.3383967e-18
0
0
4.4616979e-18
-6.3986204e-34
-4.5435164e-18
4.5844532e-18
-1.2850453e-30
1.2963925e-30
-1.3069876e-30
-4.7470353e-18
0
0
0
0
0
4.9872893e-18
-1.3951e-30
-5.0658426e-18
0
0
0
0
0
0
0
5.373717e-18
-3.0036721e-30
-5.4487577e-18
0
0
0
0
0
0
0
5.7390844e-18
-1.6025453e-30
-5.8089221e-18
0
0
5.9116054e-18
-1.651729e-30
-5.9786822e-18
0
0
0
6.1091686e-18
1.7060513e-30
-6.1721373e-18
0
0
0
0
0
0
0
6.4118718e-18
-9.1524017e-34
-6.4685853e-18
0
0
0
0
0
0
0
6.6792872e-18
9.5267643e-34
-6.7280675e-18
0
0
0
6.821247e-18
-3.7995663e-30
-6.8651397e-18
0
6.9078206e-18
1.92491e-30
-6.9487819e-18
0
0
7.0068479e-18
7.0254882e-18
-7.043667e-18
-7.0613471e-18
0
0
0
0
-7.1436433e-18
1.0173162e-33
1.4346834e-17
7.1877714e-18
-1.4403459e-17
-1.443037e-17
7.2281107e-18
7.2405855e-18
0
0
0
0
7.296893e-18
2.0299851e-30
-7.3162854e-18
0
0
0
0
0
0
0
0
0
0
0
0
0
0
7.4054999e-18
-4.1139755e-30
-7.4096794e-18
0
0
-7.4132083e-18
2.0585494e-30
-1.0534615e-33
7.4123224e-18
7.4111398e-18
4.1139148e-30
-2.0579799e-30
-7.4051106e-18
0
0
0
0
0
7.381408e-18
-4.0952889e-30
-7.3701834e-18
0
0
0
0
0
0
0
7.3088536e-18
-4.0517365e-30
-7.2895807e-18
0
0
0
0
0
0
0
7.1969519e-18
-5.9822526e-30
-7.1700446e-18
0
0
0
0
0
0
0
0
7.0319709e-18
-9.968878e-34
-6.9976552e-18
0
0
0
0
6.9063475e-18
-6.887171e-18
-6.8677151e-18
1.3695987e-17
1.8960019e-30
-6.8077395e-18
0
0
0
0
6.7022496e-18
-1.8540693e-30
-1.3316645e-17
6.6359715e-18
6.6133797e-18
-6.5905692e-18
0
0
0
6.4971702e-18
1.7956582e-30
-6.4491788e-18
-6.4249126e-18
6.4004618e-18
6.3758129e-18
-6.3509655e-18
0
0
6.2754073e-18
6.2499081e-18
-6.2242356e-18
-6.1983968e-18
-6.172413e-18
-3.4134131e-30
6.1200806e-18
0
0
0
6.0138221e-18
5.9869663e-18
-5.9600227e-18
-5.9329808e-18
-5.905825e-18
-1.6315229e-30
5.8511955e-18
0
0
0
5.7411087e-18
-1.5856881e-30
-5.6856283e-18
0
0
0
0
0
0
0
5.46193e-18
-1.5080911e-30
-1.0811388e-17
-1.4932437e-30
5.3494468e-18
0
0
5.2650867e-18
-7.4421899e-34
1.4464005e-30
-1.4378641e-30
-5.1527113e-18
-5.1246661e-18
1.4152409e-30
5.068696e-18
0
0
4.9849694e-18
-4.1280816e-30
-1.3680834e-30
6.9656615e-34
-4.874001e-18
4.8463944e-18
4.8188277e-18
-9.5826355e-18
2.6429624e-30
4.7365318e-18
-4.7092656e-18
0
4.6549231e-18
1.2857174e-30
-4.6008401e-18
0
4.547125e-18
-4.5204111e-18
4.9900529e-30
4.4672177e-18
-4.4407417e-18
0
4.3880914e-18
0
-4.3358399e-18
0
4.2839628e-18
-4.2581839e-18
2.348163e-30
4.2069398e-18
-4.1814626e-18
0
4.1308199e-18
1.1400645e-30
-4.0806446e-18
0
4.0308761e-18
-4.0061419e-18
1.1316172e-33
3.9570301e-18
-3.9326517e-18
0
3.8842013e-18
3.8601297e-18
-3.8361754e-18
-3.8123436e-18
3.7886246e-18
-3.7650073e-18
-3.7414891e-18
3.7180758e-18
0
0
0
0
0
0
3.5572779e-18
1.0826034e-48
-7.0246386e-18
3.4899872e-18
3.4677418e-18
-3.4455904e-18
0
0
3.3797917e-18
3.3580697e-18
-3.3364283e-18
-3.3148666e-18
0
3.2720212e-18
9.031319e-31
-3.2295958e-18
0
0
3.1666044e-18
3.145757e-18
-3.1249984e-18
-3.1043362e-18
0
3.0632978e-18
-8.4495047e-31
-3.0225463e-18
3.0022671e-18
1.6561188e-30
4.2091661e-34
2.9418967e-18
-2.9219398e-18
-2.9020544e-18
0
0
2.8427557e-18
-7.8352241e-31
-2.8035491e-18
0
2.7646105e-18
2.7452295e-18
-2.7259024e-18
-2.7066327e-18
0
0
0
0
0
0
2.5733048e-18
-7.0896305e-31
-2.5356827e-18
0
0
0
0
0
0
2.4054332e-18
8.8700314e-49
-2.3686028e-18
-2.3502576e-18
-6.4687511e-31
2.3136929e-18
0
0
0
0
2.2229438e-18
6.1194799e-31
-2.1869194e-18
2.168956e-18
2.1510329e-18
-2.1331539e-18
1.1741608e-30
1.7467153e-30
1.7313241e-30
-5.7286934e-31
1.1353229e-30
-5.6247054e-31
-2.0090272e-18
0
1.9739035e-18
-1.6289223e-30
2.7553814e-34
1.9214993e-18
-1.9041101e-18
-1.8867619e-18
1.8694573e-18
-5.1405438e-31
1.5273005e-30
1.0092658e-30
9.989754e-31
-4.9474204e-31
9.8052552e-31
1.7494736e-18
-1.732521e-18
-1.715605e-18
1.698725e-18
-4.6654801e-31
1.8485091e-30
4.5748463e-31
-4.5309102e-31
-4.4801834e-31
-4.4364859e-31
1.5819873e-18
0
-1.5490824e-18
4.2538755e-31
3.1330544e-48
-1.5001825e-18
0
1.4678725e-18
-1.4518005e-18
-1.4357888e-18
1.4198438e-18
0
0
0
0
1.3411084e-18
-3.6789396e-31
7.2738647e-31
-1.2946931e-18
-1.2793652e-18
1.2641069e-18
0
0
0
0
1.1889824e-18
1.6686274e-34
-1.159478e-18
0
0
0
0
0
0
0
1.0448744e-18
1.0309489e-18
-1.0171172e-18
-1.0033764e-18
0
0
0
0
0
0
9.0985555e-19
8.9688208e-19
-8.8401451e-19
-8.7125307e-19
0
0
0
0
0
0
7.847922e-19
7.728595e-19
-7.6103038e-19
-7.4931062e-19
0
0
0
0
0
0
6.7032525e-19
-3.6615885e-31
-6.4875896e-19
0
0
0
0
0
0
5.7672056e-19
-1.5741076e-31
-5.5714984e-19
0
0
0
0
5.1013798e-19
7.1206421e-35
-4.9212156e-19
4.8328405e-19
4.1787568e-49
-4.6592489e-19
4.5739873e-19
-2.4934619e-31
-4.4067972e-19
4.3249424e-19
2.3564495e-31
2.3121969e-31
6.0248211e-48
2.2247855e-31
1.0905538e-31
-3.8558526e-19
3.7814401e-19
3.7081027e-19
-7.2715782e-19
1.9775249e-31
6.9880829e-19
0
-3.3562967e-19
9.1330161e-32
8.9537033e-32
2.6285911e-31
2.5754993e-31
1.6809557e-31
-2.4707427e-31
1.6126483e-31
-7.9056726e-32
-2.7861204e-19
0
2.6699554e-19
3.7135935e-35
2.1289259e-31
2.0835555e-31
-3.4794388e-35
-1.3296079e-31
6.5065278e-32
2.2918402e-19
0
-2.1916172e-19
1.189405e-31
2.976914e-35
-2.0477123e-19
0
1.9559196e-19
-1.911178e-19
-1.8672454e-19
1.8241292e-19
0
0
1.6993811e-19
-1.8421436e-31
8.9857786e-32
-8.7780177e-32
4.2871944e-32
-1.5060379e-19
-1.469636e-19
1.4338657e-19
0
0
0
0
1.2644768e-19
3.4227088e-32
1.3337364e-31
-1.1708318e-19
-1.1408838e-19
1.1115069e-19
0
0
0
0
9.7295992e-20
9.4703079e-20
-9.2164691e-20
-8.9675728e-20
0
0
0
0
0
0
7.3668638e-20
7.1572012e-20
-6.9520108e-20
-6.7517701e-20
0
0
0
0
0
0
5.4737869e-20
-4.4201637e-32
-1.02924e-19
4.988508e-20
1.4503151e-19
4.6834165e-20
0
-8.7839419e-20
4.7216621e-32
1.3706866e-31
3.9834083e-20
7.7079469e-20
-7.4546881e-20
3.6037206e-20
3.4834372e-20
-3.366553e-20
3.2529798e-20
-4.465754e-36
-3.0347357e-20
-2.9295424e-20
2.8270576e-20
2.7274331e-20
-2.6306481e-20
2.5365694e-20
3.4746816e-36
-2.3561559e-20
0
0
0
-4.0500824e-20
1.9476998e-20
3.7455696e-20
-1.8005429e-20
1.7303107e-20
1.6621177e-20
-3.1919542e-20
-2.4417836e-49
1.4691667e-20
-1.4087404e-20
-2.7007443e-20
-1.2939147e-20
3.7175204e-20
-1.1860318e-20
-2.6378081e-48
3.253669e-20
-2.0723339e-20
-9.8932963e-21
-9.4410382e-21
-1.8010754e-20
1.7174265e-20
8.1848601e-21
7.7940322e-21
-7.4125708e-21
-7.0425758e-21
2.0059074e-20
-6.3445394e-21
-6.0156477e-21
5.6974367e-21
5.3896931e-21
7.2378692e-37
-1.4429289e-20
4.5404811e-21
-7.126409e-33
6.7012043e-33
1.1315477e-20
-3.5298484e-21
-3.3000526e-21
-6.1692672e-21
2.8838344e-21
5.3804721e-21
-4.9922379e-21
2.3030375e-21
-2.1166311e-21
-1.9401156e-21
5.3235652e-21
-1.6204798e-21
-1.4761917e-21
2.6713413e-21
1.1950897e-21
-1.0565791e-21
-2.7709913e-21
7.980844e-22
2.7232255e-21
-3.1782999e-34
-9.4181517e-22
-3.7082606e-22
0
-3.4862449e-22
-1.8307795e-34
-6.8474228e-24
7.9602386e-23
-3.3985747e-34
2.2589404e-22
2.9791992e-22
-7.3418881e-22
0
0
0
-5.8942627e-22
3.541185e-34
1.3723781e-21
-7.3248686e-22
-1.5508544e-21
2.4432825e-21
-2.8297151e-33
-1.763801e-21
9.1171403e-22
0
0
0
2.0172721e-21
-1.0288822e-21
-2.0928551e-21
3.1824156e-21
-3.0476745e-37
-2.16362e-21
0
0
-1.1066636e-21
6.1919986e-34
2.2298155e-21
-1.1104438e-21
-2.2092145e-21
3.2935011e-21
-1.8220296e-33
-2.1901525e-21
1.0955764e-21
-1.0902849e-21
2.1579913e-21
1.065729e-21
-3.5013336e-33
-1.0352312e-21
-2.0382171e-21
3.0165362e-21
-5.6408611e-37
-9.7594363e-22
5.3049627e-34
-9.3228704e-22
-9.0922291e-22
4.9415833e-34
2.6132382e-21
-2.4100068e-37
-2.4632794e-21
1.5824004e-21
4.6524087e-50
-1.4833044e-21
7.2151313e-22
-6.9671643e-22
1.3282131e-21
6.2876839e-22
-1.3243022e-33
-5.6936394e-22
-1.0935292e-21
-5.2254252e-22
-4.9233996e-22
1.3676714e-21
0
-3.8605361e-22
-1.9911167e-34
1.8536635e-34
-1.7031003e-34
2.745863e-22
-2.6361695e-34
2.0083181e-22
-5.6435275e-34
-4.2949421e-22
2.365028e-22
2.7172812e-22
5.7979225e-23
-6.481069e-23
2.4969434e-23
-1.2118084e-22
6.3789763e-23
2.6081661e-22
0
0
-1.7869601e-22
-2.0854413e-22
0
2.499066e-22
2.6997413e-22
-5.8721394e-22
7.1352801e-34
1.0518972e-21
-4.1603176e-34
-3.916336e-22
-4.0556046e-22
-4.2127071e-22
4.4022633e-22
4.6248604e-22
-4.8539397e-22
-1.5090933e-21
5.1420812e-22
2.0926653e-21
-5.3358175e-22
-1.0942797e-21
-5.6263459e-22
0
5.8426612e-22
0
5.9353212e-22
-6.0017246e-22
1.352524e-33
-6.1801579e-22
2.0697973e-33
1.8578728e-21
-6.15844e-22
-6.1398043e-22
6.1482812e-22
6.1711514e-22
-6.1708603e-22
-1.8373658e-21
6.0495321e-22
2.389611e-21
-9.8528382e-34
-5.8651228e-22
-1.1565547e-21
-5.6562173e-22
1.1022995e-21
2.9835973e-34
7.4803509e-38
-5.176877e-22
1.1266407e-33
4.910664e-22
-1.4088942e-21
4.9710522e-34
8.5613548e-22
0
0
3.7907055e-22
-1.9797528e-34
-6.6166391e-22
3.0474012e-22
5.6028212e-22
2.5754398e-22
-2.6219616e-34
-6.4134579e-22
-1.876612e-22
1.5825893e-22
-2.5571906e-22
5.5850272e-38
2.3457406e-34
4.4473022e-23
3.6782417e-23
3.0701971e-23
-4.6502031e-35
-1.4952354e-22
0
0
3.2941968e-22
-4.3299269e-34
-2.5258183e-34
-7.4184417e-38
-8.8017927e-22
-6.4604648e-22
5.8507418e-34
1.1446782e-21
4.1466982e-22
-4.4934247e-22
9.6684939e-22
5.7006395e-34
-1.7975527e-33
-5.6646315e-22
-1.1923243e-21
1.8851139e-21
-6.6296823e-22
-6.9484726e-22
7.207334e-22
-7.441949e-22
1.5379301e-21
-8.838074e-34
-8.2631218e-22
-1.2202703e-37
-1.7730463e-21
1.8141605e-21
-1.5422109e-33
-1.8922431e-21
9.6750202e-22
0
-1.0232342e-21
-5.8059306e-34
3.1870023e-21
-1.0773261e-21
-2.1804983e-21
-1.1038961e-21
-1.1270344e-21
1.1507449e-21
1.1673791e-21
1.1781024e-21
-1.1849366e-21
6.5892076e-34
-6.6267515e-34
1.2157151e-21
-1.3720853e-33
1.2466451e-21
-4.1693871e-33
-3.7467359e-21
2.4805476e-21
-3.9444909e-51
-1.2605935e-21
-1.415978e-33
7.107132e-34
3.8397222e-21
-1.263603e-21
-3.7350816e-21
0
0
1.2753988e-21
1.2726615e-21
2.5311958e-21
-1.2374647e-21
-2.4197207e-21
2.4210998e-21
-1.2259003e-21
-3.6999484e-21
1.2293851e-21
1.2183872e-21
1.1942613e-21
1.1659856e-21
-2.306805e-21
-1.1571404e-21
1.1591117e-21
3.4612342e-21
-1.1408655e-21
-7.6919589e-50
-1.8225867e-33
-2.1545942e-21
2.1436153e-21
2.1311601e-21
-1.0543324e-21
-2.0771413e-21
2.0289566e-21
9.9007989e-22
-2.9261534e-21
-2.9085869e-21
9.611594e-22
1.8876184e-21
9.2277342e-22
-4.9761338e-34
-1.7471472e-21
-8.6422333e-22
8.6088486e-22
1.7008796e-21
-1.1804194e-37
-1.6158708e-21
1.5638801e-21
-1.2670221e-33
-1.502566e-21
7.4732901e-22
1.4826494e-21
1.4582925e-21
0
-6.9127233e-22
-2.0201413e-21
-6.579792e-22
6.4691366e-22
0
0
0
0
-5.9588034e-22
3.2417487e-34
1.7174865e-21
-5.6106935e-22
-1.6522838e-21
-5.4287089e-22
8.9471115e-34
1.0619487e-21
5.227589e-22
-5.1272887e-22
1.0054419e-21
4.9586967e-22
-1.6431797e-33
-4.9366506e-22
-9.8351027e-22
1.4558603e-21
-1.3526949e-37
-4.6759224e-22
6.5985707e-38
-4.6677771e-22
-4.7213105e-22
5.2752003e-34
1.4193926e-21
-1.3277994e-37
-1.3866091e-21
-9.2238109e-22
2.5774659e-34
9.4280008e-22
4.7715258e-22
-4.790925e-22
9.556856e-22
4.7707955e-22
-1.5961154e-33
-4.8478851e-22
-9.8585684e-22
1.4972939e-21
-5.5673902e-34
-5.0204558e-22
-5.0371672e-22
-5.0899302e-22
-2.8757798e-34
2.9393453e-34
1.0747067e-21
2.990485e-34
-1.0782383e-21
1.0830931e-21
-2.738643e-33
-1.6795414e-21
1.1469926e-21
-6.4700457e-34
-1.1699877e-21
5.8549932e-22
5.87722e-22
1.1877301e-21
-6.0506897e-22
-1.8564571e-21
0
0
0
1.9113997e-21
1.9265486e-21
-1.9541541e-21
-1.9911308e-21
1.3455635e-21
-1.9219947e-37
6.7766052e-22
-2.2615089e-33
-2.0489112e-21
2.0766715e-21
-3.5224996e-33
-1.4268104e-21
-3.9637874e-34
3.9504839e-34
1.4167179e-21
-7.0908901e-22
7.1722749e-22
-2.4328595e-33
-2.2258882e-21
2.242488e-21
7.4645464e-22
-1.6511677e-33
1.4852686e-21
-1.4863078e-21
-7.4583711e-22
-7.5067e-22
-2.2680833e-21
8.4472613e-34
7.6381155e-22
2.2892752e-21
-5.0611339e-33
-2.2709259e-21
0
7.5352305e-22
1.51303e-21
-7.609214e-22
7.6299279e-22
-2.5336115e-33
-1.5139078e-21
2.2612007e-21
-1.6682341e-33
-8.3380787e-34
-8.3291964e-34
-8.3061799e-34
7.441655e-22
-2.2216101e-21
-2.217299e-21
7.3794676e-22
1.4698722e-21
0
-7.2229444e-22
7.9561227e-34
-1.5871231e-33
7.9459252e-34
7.1462196e-22
-7.0807223e-22
-6.9970769e-22
2.0758659e-21
-3.0766129e-51
-1.1433129e-33
6.8761958e-22
-7.5987874e-34
1.3512853e-21
-1.3302352e-21
-1.3131276e-21
-6.5094814e-22
7.2101904e-34
6.4829388e-22
0
0
0
1.2464354e-21
-6.2095988e-22
-1.2372709e-21
1.8346411e-21
-5.9882063e-22
-1.7574788e-21
1.7312122e-21
-1.9137041e-33
-1.1546855e-21
1.7370405e-21
1.1503871e-21
0
-1.1031624e-21
-1.8017397e-33
-5.3319955e-22
-1.0558423e-21
5.2520619e-22
0
1.0401984e-21
1.4648372e-37
5.6370004e-34
-4.9723585e-22
-1.4583107e-21
1.4295664e-21
-7.8423202e-34
-1.4072032e-21
1.407309e-21
-2.3296525e-33
-9.1429924e-22
4.4310527e-22
-4.302776e-22
8.4483406e-22
4.2010924e-22
-1.8714571e-33
-4.2165151e-22
-8.3211575e-22
-4.0361319e-22
-3.8942452e-22
7.5746887e-22
3.7357289e-22
0
-3.7391968e-22
2.0680275e-34
2.0984955e-51
3.5304565e-22
-9.6611275e-38
3.3056844e-22
-4.6894597e-52
-9.7840276e-22
9.8039824e-22
9.7531228e-22
-6.388474e-22
-6.1975453e-22
0
5.7953426e-22
-2.8424129e-22
-8.4722073e-22
8.4922034e-22
-4.7195299e-34
-5.6233221e-22
2.7480715e-22
0
-2.5563537e-22
-2.5019605e-22
2.4919035e-22
-4.1817814e-34
5.0623995e-22
1.4366669e-37
-7.4509605e-22
0
7.0421764e-22
4.6292023e-22
-6.947901e-22
-4.6811025e-22
7.1079781e-22
2.3862654e-22
-9.5104453e-22
-2.3417719e-22
4.6049925e-22
4.5772776e-22
-2.5642774e-34
-2.3567101e-22
-2.4095424e-22
-2.4414244e-22
2.4413824e-22
-2.6975971e-34
4.8816256e-22
-8.2877497e-34
-7.6809543e-22
0
0
5.338654e-22
-5.9471993e-34
-2.7312575e-22
8.4852151e-22
-2.950657e-22
-5.0834363e-34
-1.0315382e-33
-9.2661377e-22
3.0969669e-22
-1.7576995e-34
3.6642595e-34
3.4713628e-22
-3.627674e-22
5.2844255e-38
-2.0723117e-34
4.1517577e-34
3.7944543e-22
0
-4.0953936e-22
8.5753412e-22
4.4480954e-22
-9.0821254e-22
0
4.621191e-22
-4.7026677e-22
-9.6682348e-22
1.5073551e-21
-1.7422276e-33
-1.7986456e-33
5.5001218e-22
-1.6652461e-21
7.984841e-38
5.7062219e-22
5.8324553e-22
-6.0280535e-22
-6.2430974e-22
6.4093062e-22
0
-6.5636737e-22
1.3275829e-21
-1.1193062e-33
-6.8410128e-22
-1.5603512e-33
-1.6037935e-33
-2.0939464e-37
-1.4889653e-21
2.2532008e-21
2.2726338e-21
0
-1.5515406e-21
-2.378082e-21
-1.1471427e-37
8.1528192e-22
8.2023532e-22
-8.2314474e-22
-8.2416349e-22
8.2969138e-22
0
1.7171712e-21
1.7353113e-21
-2.6105606e-21
-8.7104495e-22
8.6632668e-22
-2.4494855e-37
-8.6979512e-22
-1.7661414e-21
-8.9220847e-22
1.4866348e-33
3.5563032e-21
-2.9304183e-33
-2.6111128e-21
8.7337669e-22
8.8077731e-22
8.8466743e-22
-8.8248228e-22
-8.7190231e-22
-8.59064e-22
-2.4270729e-37
8.5350459e-22
-8.5245426e-22
2.5352537e-21
1.6492105e-21
-2.4065517e-21
7.9361697e-22
1.5954535e-21
-1.6011246e-21
7.9392594e-22
-7.756148e-22
-1.5028725e-21
2.1672295e-21
-7.0482972e-22
2.3491105e-33
2.1175131e-21
-1.3998257e-21
-6.8459046e-22
-6.6240734e-22
-1.2799423e-21
6.1749921e-22
4.9790528e-77
1.1585934e-21
5.6602111e-22
-6.1382447e-34
-5.3814214e-22
-1.0371897e-21
9.888085e-22
-4.6934359e-22
-1.333676e-21
1.2675073e-21
4.0500494e-22
-9.2873698e-50
3.7243324e-22
-1.0526969e-21
-3.243608e-22
2.9720359e-22
5.4550621e-22
-2.5256459e-22
2.3583368e-22
-7.2854028e-34
-3.9681214e-22
5.2228171e-22
1.6379731e-34
-5.435432e-34
2.2565674e-34
-1.6880913e-22
1.3545713e-22
-4.920084e-23
-1.1138103e-22
4.5561019e-24
-3.5138032e-23
0
-1.0669771e-22
1.5487225e-34
5.0023339e-38
1.1999199e-34
1.2700261e-22
1.4233468e-22
-1.5494255e-22
-1.6751251e-22
3.6338592e-22
-3.9685366e-22
2.4022092e-34
4.6192095e-22
-4.8053373e-22
-8.2285447e-34
2.829923e-34
2.651347e-22
5.5648393e-22
-2.924497e-22
3.0259979e-22
-1.7026531e-34
-3.0807747e-22
-6.207551e-22
3.1488395e-22
6.4320073e-22
-3.2907134e-22
3.3387229e-22
-5.5660585e-34
3.3176607e-22
7.3145104e-34
-6.5626461e-22
-6.5686224e-22
-7.3170228e-34
1.0959731e-33
-1.0802896e-33
3.1621439e-22
3.0746388e-22
2.999713e-22
-2.9452297e-22
0
0
2.7962245e-22
-1.4778372e-34
-3.5662522e-38
-2.6298607e-34
-2.2527628e-22
0
2.0923524e-22
3.9915626e-22
-1.8482979e-22
-3.3293617e-22
-2.9560394e-22
-2.6146283e-22
3.4759669e-22
3.4162215e-34
-2.6555201e-22
1.4361956e-22
1.0589875e-22
0
1.479772e-23
5.1160991e-24
1.8938482e-23
-7.2698745e-23
-5.5786038e-23
8.4979724e-35
2.9246104e-22
-1.173402e-22
-4.0587501e-22
4.5745547e-22
1.7110113e-22
-5.7473982e-22
2.3643144e-34
2.341564e-22
5.0580182e-22
2.9814185e-34
-5.6869998e-22
6.0497998e-22
-3.2303325e-22
-1.0357111e-21
0
3.8571947e-22
7.991362e-22
-2.2902548e-34
4.2731006e-22
8.8887817e-22
-9.2686541e-22
-9.656083e-22
0
-5.1381708e-22
-5.8510007e-34
-6.0084191e-34
-6.1697603e-34
1.7086204e-21
1.1634445e-21
0
-1.2052795e-21
-1.3603602e-33
-6.2399464e-22
-1.9140675e-21
6.5010432e-22
-3.6441686e-34
9.3986966e-38
6.6541979e-22
1.3404401e-21
-6.7944139e-22
-1.3840474e-21
7.013591e-22
0
1.4067274e-21
-7.0203313e-22
-2.1046592e-21
7.0731113e-22
7.1718999e-22
1.4466957e-21
-7.2145516e-22
-2.1508489e-21
7.1093886e-22
-7.8342853e-34
-1.4146617e-21
7.134504e-22
7.1562867e-22
1.421879e-21
2.1112209e-21
-1.3882454e-21
-1.3706529e-21
1.3650594e-21
7.5957689e-34
-1.3656002e-21
1.3503143e-21
7.37877e-34
-1.3031387e-21
0
1.2682221e-21
1.2657071e-21
0
-1.8589738e-21
-6.0703371e-22
-1.6832352e-37
-5.7900843e-22
-5.7065755e-22
-6.2851031e-34
1.1180495e-21
1.093228e-21
-1.769674e-33
-1.0292307e-21
1.001948e-21
1.642917e-33
-9.7777898e-22
0
0
0
0
8.2687653e-22
4.4898315e-34
-8.0067634e-22
-3.9549999e-22
7.7302631e-22
-1.2371165e-33
-7.0537058e-22
6.7130576e-22
3.5680761e-34
-3.1007247e-22
6.0412407e-22
-9.8279997e-34
-5.7417784e-22
5.5467688e-22
5.2843498e-22
-4.9535101e-22
-4.6279413e-22
0
0
0
0
-1.9411412e-22
1.8178032e-22
1.6526098e-22
-1.6659859e-34
1.9268665e-77
-1.3587583e-22
-2.6818691e-22
-1.3089043e-22
2.4863771e-22
3.4140029e-22
-1.0119759e-22
-1.8040947e-22
2.486019e-22
1.5815426e-22
-2.3162729e-22
-1.5021303e-22
-7.1431631e-23
-7.2834985e-35
1.1584563e-22
0
-4.4381312e-23
4.1844662e-23
-9.2136897e-35
-1.1790047e-38
-1.3408503e-34
-3.6758318e-23
-3.1234062e-23
7.4995957e-39
4.9270473e-23
5.1804008e-23
-9.4641873e-35
-6.0408654e-23
0
0
0
-2.2659446e-23
-2.5248738e-23
2.9339184e-23
3.3020654e-23
-3.468156e-23
6.809849e-23
1.0034945e-22
0
-7.8543865e-23
-4.8980144e-35
-4.8116786e-23
-1.5041538e-22
5.1008448e-23
-8.8747546e-35
1.163574e-22
-4.2989614e-34
-1.4123016e-22
-4.1238337e-35
-1.0653535e-38
7.5748887e-23
-7.9815191e-23
1.7461148e-22
9.6342719e-23
-2.089082e-22
2.183423e-22
3.1166294e-38
-1.2132965e-34
-1.1219623e-22
-3.5782542e-22
2.572661e-22
-7.3635904e-52
1.4452658e-22
-2.4731982e-34
-3.0267271e-22
1.5536953e-22
3.2210366e-22
-1.857875e-34
-5.1945719e-22
5.0483162e-38
1.8197976e-22
-1.8738963e-22
3.8802049e-22
2.0137928e-22
-4.155214e-22
4.2350553e-22
2.3743798e-34
-1.2037825e-33
4.9336599e-34
-4.591245e-22
4.7548516e-22
-2.4430788e-22
-4.9512345e-22
2.4839577e-22
-2.5001414e-22
5.0807027e-22
-4.335401e-34
-8.0401896e-22
0
0
8.4743741e-22
2.8373135e-22
-5.7106665e-22
5.7681127e-22
1.661537e-37
-1.3200995e-33
-3.3635811e-34
-6.1717221e-22
6.248434e-22
6.2706676e-22
-3.1303391e-22
-9.3981508e-22
-3.1571045e-22
3.2059009e-22
0
0
-3.3374068e-22
1.8452354e-34
9.9407291e-22
9.4533771e-38
-6.7307437e-22
-3.4248154e-22
3.8520244e-34
1.0445262e-21
7.6927418e-34
-6.8998126e-22
0
-3.4924436e-22
7.0865796e-22
3.57558e-22
-7.926047e-34
-3.5521274e-22
-7.0951346e-22
3.5668665e-22
0
0
0
0
-3.5638411e-22
1.97394e-34
1.080007e-21
-3.6815139e-22
-1.1267699e-21
1.1309446e-21
3.7041565e-22
-7.2446833e-22
-3.5752348e-22
-5.97389e-34
1.0978442e-21
-2.1278931e-37
-1.2650734e-33
-3.8094014e-22
-7.5568126e-22
-3.7283568e-22
-4.1008659e-34
3.6827115e-22
3.6934376e-22
3.7327933e-22
3.7831838e-22
-8.4972579e-34
-7.6792692e-22
0
0
-3.7183388e-22
-6.1760286e-34
-5.3063672e-38
5.3812019e-38
3.8386298e-22
7.7053702e-22
7.6326621e-22
-7.5227503e-22
-4.1334271e-34
-3.7126976e-22
-1.1219661e-21
0
0
3.8249595e-22
3.7749887e-22
0
-3.6887948e-22
2.0447747e-34
3.7132111e-22
-3.7559273e-22
7.546885e-22
-1.2444156e-33
-1.0982237e-21
3.5953774e-22
3.5565863e-22
7.1115075e-22
-3.5938744e-22
-1.089835e-21
3.6415858e-22
-1.9994761e-34
7.0507249e-22
3.4537812e-22
-6.806177e-22
6.7415342e-22
1.3904292e-51
-6.6921185e-22
0
0
6.5439041e-22
-3.5917825e-34
-1.0647765e-33
1.2879629e-50
-9.1208549e-22
-3.2828782e-34
2.889168e-22
5.6917666e-22
5.6576212e-22
-5.6250102e-22
-6.1587551e-34
-2.7009439e-22
-8.6717487e-34
2.5061481e-22
-4.8433621e-22
0
-2.2772089e-22
2.4551829e-34
2.1502769e-22
4.178324e-22
2.2443545e-34
-3.8618797e-22
0
0
-1.5677128e-22
8.2497665e-35
4.285922e-22
1.522615e-34
-2.5851859e-22
0
1.0317614e-22
-8.8799805e-23
-7.6935819e-23
-6.7754977e-23
-5.9934064e-23
1.0287167e-22
1.2333263e-22
-2.8955064e-23
-3.1214375e-23
5.9538207e-24
4.9525415e-51
4.6848682e-23
0
0
0
0
-1.596865e-22
-1.9028681e-22
1.092823e-22
3.6143099e-22
1.4409045e-34
-1.3946693e-22
3.0232647e-22
3.3100035e-22
-1.8133902e-22
-7.8049333e-22
-4.1040391e-22
6.4049177e-22
4.4585959e-22
-7.0390428e-22
-5.525185e-34
5.2794727e-22
0
0
0
-5.9933136e-22
-3.454478e-34
7.2178336e-34
-3.3883773e-22
1.0449156e-21
-3.5340517e-22
-3.581133e-22
1.0956423e-21
7.5095816e-22
-3.8805339e-22
-7.9988075e-22
-8.1342783e-22
1.3608547e-33
-4.5535727e-34
1.1779414e-37
8.4348417e-22
0
4.4246177e-22
4.4891021e-22
-4.4936429e-22
-4.4771012e-22
4.4788522e-22
4.5049735e-22
-9.0988833e-22
-4.5980108e-22
4.6280944e-22
-4.6348554e-22
4.6320645e-22
9.2757677e-22
0
0
-1.384755e-21
-4.5586081e-22
9.0142386e-22
4.4756539e-22
4.4703029e-22
-8.9758153e-22
4.9916895e-34
8.8759688e-22
0
-4.2187705e-22
-1.2421511e-21
-9.0857227e-34
2.2579743e-33
-8.0986828e-22
1.2012099e-21