/*--------------------------------*- C++ -*----------------------------------*\
  =========                 |
  \\      /  F ield         | OpenFOAM: The Open Source CFD Toolbox
   \\    /   O peration     | Website:  https://openfoam.org
    \\  /    A nd           | Version:  7
     \\/     M anipulation  |
\*---------------------------------------------------------------------------*/
FoamFile
{
    version     2.0;
    format      ascii;
    class       volScalarField;
    location    "0.00277";
    object      Uz;
}
// * * * * * * * * * * * * * * * * * * * * * * * * * * * * * * * * * * * * * //

dimensions      [0 1 -1 0 0 0 0];

internalField   nonuniform List<scalar> 
5000
(
0
0
0
0
0
-1.143894e-21
-2.2106297e-36
3.0712202e-21
1.1198441e-21
-2.3530566e-21
-2.3945893e-21
1.2010482e-21
-1.0221789e-35
-1.052785e-35
2.3816035e-21
-2.3731703e-21
-1.98209e-51
-1.0364469e-35
-1.1709634e-21
2.3328403e-21
1.1617829e-21
0
0
-1.1656718e-21
9.9702253e-36
-9.655883e-36
-1.1727777e-21
1.1730296e-21
1.1705855e-21
-1.1653109e-21
2.0265061e-35
-9.845202e-36
-1.149795e-21
1.1462356e-21
1.1476079e-21
0
0
-1.1597818e-21
-1.1564105e-21
1.1455695e-21
-1.9030175e-35
-1.1229457e-21
1.1149876e-21
-1.8951166e-35
-1.1338759e-21
1.1454276e-21
-3.9603661e-35
3.9324504e-35
-3.9088183e-35
1.9188764e-35
1.1149161e-21
0
0
0
0
0
0
0
0
0
0
0
0
-1.1191709e-21
-1.1185476e-21
1.1147094e-21
-1.9105745e-35
-1.32996e-53
1.1060678e-21
0
0
-1.1072952e-21
-1.1051946e-21
0
1.1015101e-21
3.8049002e-35
-1.1016534e-21
-1.0998058e-21
1.0973379e-21
2.1890814e-21
-2.1848499e-21
6.2078835e-37
3.2788862e-21
-2.1861975e-21
-1.1352968e-34
2.1782403e-21
-3.2609899e-21
1.085363e-21
1.0852823e-21
-1.0852689e-21
1.0840884e-21
1.0821446e-21
3.7605871e-35
-2.1572131e-21
-7.4610038e-35
-1.0778097e-21
-1.0757151e-21
-3.774332e-35
7.4965606e-35
2.1529483e-21
1.0769982e-21
-1.0781952e-21
1.5330455e-37
1.0780299e-21
0
-1.0721444e-21
-3.7131898e-35
1.0590005e-21
-1.0501566e-21
-1.0410643e-21
2.0666403e-21
1.0287885e-21
-3.0870454e-21
-1.0356201e-21
3.1531112e-21
-1.0744961e-21
-1.1098772e-21
-6.528011e-37
-1.1944529e-21
3.4064399e-21
-8.2637505e-35
-7.0524058e-22
7.7913544e-22
1.2407964e-21
-1.0004939e-21
9.4265804e-22
-1.0311254e-21
-2.1850338e-21
1.0500459e-21
3.5510461e-35
1.0322814e-21
2.0711752e-21
-1.0278151e-21
-1.017543e-21
-1.010813e-21
-3.5228383e-35
-3.5492121e-35
3.605496e-35
2.0781003e-21
1.0338407e-21
-1.0273383e-21
-2.040008e-21
-1.0165313e-21
-1.0236233e-21
7.167391e-35
2.0732581e-21
-2.9279074e-37
2.9051134e-37
-9.0261783e-52
1.0088952e-21
-7.03544e-35
1.4274539e-34
1.0298034e-21
-1.0245271e-21
1.0169522e-21
3.5005765e-35
-1.0049757e-21
1.0089301e-21
-1.4468899e-37
-1.0229119e-21
0
1.013456e-21
6.9697206e-35
-2.0058481e-21
1.005207e-21
-2.8755456e-37
-1.0160315e-21
1.0137106e-21
-1.009074e-21
1.0045918e-21
-4.1738594e-34
-2.7865378e-34
1.0076592e-21
-2.0153366e-21
0
-6.9337459e-35
-2.0722022e-34
9.9724726e-22
1.0021514e-21
6.9277512e-35
-1.0021883e-21
9.971906e-22
6.8222676e-35
4.2159006e-37
1.3762223e-34
-1.9954633e-21
9.9800319e-22
9.9471612e-22
-6.8001743e-35
6.7831121e-35
-2.0482146e-34
6.8494007e-35
-9.9561257e-22
0
0
0
0
-9.7963834e-22
2.0562817e-34
9.908846e-22
9.8902407e-22
-9.8448534e-22
-9.8104533e-22
1.9574602e-21
6.7708769e-35
-2.0339907e-34
-9.8127517e-22
-9.8271922e-22
9.8216725e-22
0
9.7733062e-22
6.7409014e-35
-9.7116202e-22
-9.7108261e-22
1.3567374e-34
9.7663808e-22
-1.9490646e-21
9.7071082e-22
9.6672984e-22
-9.6398359e-22
9.662263e-22
0
0
0
9.6330587e-22
-9.6009362e-22
-1.9214609e-21
9.6304729e-22
-6.6993858e-35
9.6190114e-22
9.5690717e-22
-1.9052734e-21
2.7070708e-37
-2.7217167e-37
9.6131725e-22
9.5903412e-22
-1.908958e-21
1.349162e-37
-1.9708322e-34
9.4800753e-22
-5.2915471e-34
-1.3258653e-34
9.5488321e-22
-9.5210848e-22
0
-9.4924381e-22
9.477491e-22
9.4578276e-22
-9.4264161e-22
0
-9.4222771e-22
9.4612168e-22
9.4707594e-22
-3.2725439e-34
-1.8745624e-21
-1.8626345e-21
2.7826404e-21
1.8632995e-21
0
-1.8857738e-21
-9.384938e-22
9.323804e-22
9.2652527e-22
9.2243546e-22
-1.8486013e-21
-1.8613163e-21
9.3444427e-22
1.8658621e-21
2.5765225e-34
-1.8476336e-21
9.1993471e-22
-1.2758848e-34
-9.2397853e-22
1.8551878e-21
-9.2638652e-22
1.2853778e-34
9.1946402e-22
-9.1713273e-22
9.190073e-22
-1.8433032e-21
3.8392034e-34
1.8331938e-21
-1.8247127e-21
-6.2940947e-35
9.1214138e-22
0
0
9.1156744e-22
-9.0608371e-22
-1.8042243e-21
9.0354812e-22
-2.5807327e-37
9.1055837e-22
9.0789336e-22
-9.025376e-22
0
-8.9541512e-22
-9.0044401e-22
0
1.8063281e-21
8.9926384e-22
-1.7852902e-21
6.144335e-35
-2.5279792e-37
8.9660084e-22
9.0104831e-22
-8.9790898e-22
8.9220505e-22
-8.8585402e-22
5.0112166e-37
1.7689037e-21
-8.9112224e-22
-8.9487419e-22
-8.9185205e-22
-1.2297356e-34
8.8171537e-22
0
0
-8.8581415e-22
1.2335368e-34
-2.4645211e-34
-1.2317177e-34
8.8324782e-22
-8.8061769e-22
1.2484228e-37
8.7331892e-22
0
0
0
0
0
0
0
-8.5166171e-22
0
8.7170019e-22
0
-8.7612725e-22
-2.4079906e-34
8.5769148e-22
0
0
-8.6210292e-22
-1.2120357e-34
8.7607845e-22
0
0
-8.5642736e-22
-8.5172715e-22
8.5498021e-22
8.6360583e-22
0
-8.6864512e-22
1.2273117e-37
8.5735631e-22
-8.5175523e-22
-8.5130965e-22
8.582251e-22
8.648568e-22
0
-8.6321212e-22
-8.5794688e-22
8.5301263e-22
8.5213196e-22
0
-8.6334397e-22
-8.6333416e-22
8.5963617e-22
8.5292248e-22
0
0
0
0
0
0
0
0
-8.4830909e-22
2.8295981e-51
8.6281278e-22
0
0
0
-8.5332329e-22
-1.182815e-34
8.5897077e-22
-8.640163e-22
1.2002179e-34
-1.2241885e-37
-1.1873335e-34
8.5025424e-22
-8.5231231e-22
8.6160206e-22
-4.8193436e-34
-8.6642612e-22
8.6206781e-22
0
0
-8.5229939e-22
-1.1993032e-34
8.7100859e-22
-8.7042824e-22
-8.6553555e-22
0
8.5163599e-22
8.5466049e-22
-8.6562844e-22
-2.4250491e-34
1.1469453e-51
-1.2086021e-34
8.6374296e-22
-8.5805919e-22
5.5427641e-51
-1.2061009e-34
-8.7729008e-22
0
0
8.6933014e-22
1.2270938e-37
-3.5910287e-34
8.7160656e-22
0
0
-8.812902e-22
2.4311022e-34
8.7167132e-22
0
0
0
-8.8880136e-22
1.2604443e-37
8.8361132e-22
-8.800722e-22
8.7822347e-22
-2.4534712e-34
-1.7761996e-21
8.9069554e-22
3.7077172e-34
1.2317605e-34
-1.2288638e-34
-8.8682227e-22
0
0
8.9409999e-22
1.2371225e-34
-2.4659139e-34
-1.795412e-52
-8.9357869e-22
8.9692383e-22
8.9614161e-22
0
-8.8665287e-22
-1.2321738e-34
8.9601146e-22
0
0
-8.9540231e-22
2.5196136e-37
-3.7788882e-52
-8.8603917e-22
8.9842685e-22
-1.2560902e-34
1.2578989e-34
-2.4984361e-34
-8.9271578e-22
8.8648309e-22
-2.4637603e-34
2.4904855e-34
-2.519171e-34
-9.1057815e-22
9.0652866e-22
-2.5026177e-34
1.2465851e-34
0
-8.9530761e-22
9.0290137e-22
-1.2607499e-34
1.2901671e-37
-1.2559186e-34
1.2508856e-34
8.9635017e-22
-8.9669186e-22
-9.0220611e-22
9.0649396e-22
9.0653934e-22
0
-9.0100963e-22
-8.9870885e-22
0
9.031893e-22
-1.2554136e-34
1.2833721e-37
1.2474174e-34
-8.9658654e-22
8.9794853e-22
1.2496427e-34
-2.5061929e-34
-9.0073139e-22
-8.9605932e-22
1.7839457e-21
-1.2673869e-37
1.2440539e-34
9.0128844e-22
-8.9929431e-22
1.2422508e-34
8.8981859e-22
0
0
0
-8.9460338e-22
-8.9213761e-22
8.8674159e-22
8.8250803e-22
0
-8.8697666e-22
-8.895788e-22
8.8730346e-22
8.8149836e-22
0
-8.7454715e-22
-8.8055286e-22
8.8400825e-22
2.4468808e-34
-8.7596533e-22
0
0
0
0
8.7939075e-22
-2.4258642e-34
-8.6711791e-22
8.5834139e-22
1.1838308e-34
-1.1901104e-34
-4.5728279e-53
8.6984551e-22
8.6653758e-22
-1.7209892e-21
-1.1845825e-34
1.1757648e-34
-8.4846973e-22
0
8.5856919e-22
8.5711981e-22
-8.5249802e-22
-2.3480103e-34
8.413288e-22
0
0
-8.478743e-22
1.1739182e-34
8.4242839e-22
0
-8.3244692e-22
1.1825741e-37
-2.3205591e-34
-1.1628483e-34
8.3643736e-22
-8.3243234e-22
1.1776672e-37
-2.2938416e-34
-8.2614419e-22
8.2747214e-22
2.2953904e-34
1.1702869e-37
-1.1392953e-34
-8.194184e-22
8.1886327e-22
0
-4.5285646e-34
-1.1250487e-34
-3.3596876e-34
-1.1478472e-37
-8.0940992e-22
8.096739e-22
1.0505943e-51
-1.1128542e-34
2.2126128e-34
-1.1052393e-34
1.5982644e-21
-8.0159362e-22
-7.9939581e-22
-1.1032201e-34
1.0963474e-34
1.5741031e-21
-7.9002106e-22
-7.9342556e-22
2.8773567e-52
0
-2.3558673e-53
-7.7716481e-22
7.7999976e-22
8.6140052e-53
-1.0849004e-34
-1.1066946e-37
-7.7183742e-22
1.5330501e-21
2.1320011e-34
-7.7401503e-22
1.0791878e-34
-1.0746612e-34
7.6891696e-22
-7.6190991e-22
8.4075741e-52
-3.1718352e-34
2.1321516e-34
-2.132659e-34
-2.1152334e-34
1.937417e-52
0
7.3868495e-22
0
0
-7.6730001e-22
-2.1151026e-34
7.5253363e-22
0
0
-1.476629e-21
-6.2019451e-34
1.5024294e-21
-7.5421928e-22
1.0725962e-37
-1.0467646e-34
-7.5146302e-22
0
0
0
-7.3523739e-22
-2.0482517e-34
7.439015e-22
0
0
-7.3843167e-22
1.0425588e-37
7.3133212e-22
0
0
-7.4060928e-22
-2.0498209e-34
-2.0458964e-34
2.0397979e-34
7.3453778e-22
-7.3608086e-22
2.0462569e-34
-2.0465334e-34
2.044042e-34
7.3647067e-22
0
0
-7.3699276e-22
-5.0866629e-52
7.3656837e-22
0
0
-7.3476164e-22
-5.1969403e-52
7.3351624e-22
0
0
-7.3215102e-22
2.5915391e-52
7.328193e-22
0
0
-7.3396706e-22
1.0424664e-37
7.3289288e-22
-7.3164413e-22
2.0284457e-34
-2.0241222e-34
2.0197842e-34
7.259981e-22
0
0
0
0
0
-7.3228747e-22
2.0320273e-34
7.3072266e-22
0
0
0
0
0
0
0
-7.3048468e-22
4.0605506e-34
7.2972925e-22
0
0
0
0
0
0
0
-7.2970485e-22
2.0217664e-34
7.276869e-22
0
0
-7.2795998e-22
2.0242602e-34
7.288539e-22
0
0
0
-7.2891303e-22
-2.0259153e-34
7.2955293e-22
0
0
0
0
0
0
0
-7.3187739e-22
1.040264e-37
7.3208829e-22
0
0
0
0
0
0
0
-7.3131891e-22
-1.0395692e-37
7.3170907e-22
0
0
0
-7.3209285e-22
4.0639409e-34
7.3169769e-22
0
-7.3084815e-22
-2.0291543e-34
7.3008147e-22
0
0
-7.3000862e-22
-7.3022037e-22
7.303842e-22
7.3053794e-22
0
0
0
0
7.3136589e-22
-1.0395315e-37
-1.4632647e-21
-7.3174611e-22
1.4636914e-21
1.4638603e-21
-7.3199956e-22
-7.3205449e-22
0
0
0
0
-7.3212523e-22
-2.0339575e-34
7.320946e-22
0
0
0
0
0
0
0
0
0
0
0
0
0
0
-7.3213304e-22
4.0659213e-34
7.3210728e-22
0
0
7.3201325e-22
-2.0325352e-34
1.0400825e-37
-7.3180165e-22
-7.3169427e-22
-4.0615586e-34
2.0317454e-34
7.3106642e-22
0
0
0
0
0
-7.2887109e-22
4.0454816e-34
7.2844285e-22
0
0
0
0
0
0
0
-7.2779268e-22
4.0393152e-34
7.2761055e-22
0
0
0
0
0
0
0
-7.2651457e-22
6.0484171e-34
7.2609104e-22
0
0
0
0
0
0
0
0
-7.2252413e-22
1.0262572e-37
7.2186052e-22
0
0
0
0
-7.2058809e-22
7.2032096e-22
7.2004395e-22
-1.4395203e-21
-1.9978271e-34
7.1917404e-22
0
0
0
0
-7.1757185e-22
1.9905722e-34
1.4337307e-21
-7.1649226e-22
-7.1610795e-22
7.1572666e-22
0
0
0
-7.1426266e-22
-1.9803013e-34
7.1351449e-22
7.1313552e-22
-7.1275293e-22
-7.1236716e-22
7.1197869e-22
0
0
-7.1079375e-22
-7.1039125e-22
7.099854e-22
7.0957631e-22
7.0916328e-22
3.9360929e-34
-7.0832233e-22
0
0
0
-7.0648669e-22
-7.0596555e-22
7.0541758e-22
7.0484867e-22
7.0427516e-22
1.9530678e-34
-7.0316659e-22
0
0
0
-7.013092e-22
1.9452791e-34
7.0050166e-22
0
0
0
0
0
0
0
-6.9729227e-22
1.9341734e-34
1.3930381e-21
1.9330346e-34
-6.9575853e-22
0
0
-6.9463026e-22
9.8659296e-38
-1.9267404e-34
1.9246716e-34
6.9307876e-22
6.9266212e-22
-1.9221797e-34
-6.9177593e-22
0
0
-6.903904e-22
5.7457329e-34
1.9138381e-34
-9.7944809e-38
6.8890881e-22
-6.88623e-22
-6.8836051e-22
1.3762238e-21
-3.8162382e-34
-6.8762827e-22
6.8739698e-22
0
-6.8697543e-22
-1.9080332e-34
6.8659711e-22
0
-6.8625473e-22
6.8609758e-22
-7.6170378e-34
-6.85811e-22
6.856804e-22
0
-6.8544383e-22
0
6.8523761e-22
0
-6.8505793e-22
6.8497681e-22
-3.7997784e-34
-6.8483129e-22
6.8476468e-22
0
-6.8464297e-22
-1.9009626e-34
6.8453524e-22
0
-6.8444305e-22
6.844078e-22
-1.9451382e-37
-6.8437731e-22
6.843887e-22
0
-6.8445108e-22
-6.8448943e-22
6.8453105e-22
6.8458017e-22
-6.8463749e-22
6.8470156e-22
6.8477006e-22
-6.848425e-22
0
0
0
0
0
0
-6.8542007e-22
3.8307611e-54
1.371157e-21
-6.856497e-22
-6.8571382e-22
6.857712e-22
0
0
-6.859326e-22
-6.8599867e-22
6.8607316e-22
6.8615299e-22
0
-6.8632097e-22
-1.9069925e-34
6.8649332e-22
0
0
-6.8673126e-22
-6.868078e-22
6.8688666e-22
6.8696909e-22
0
-6.8713396e-22
1.9082465e-34
6.8728087e-22
-6.8734521e-22
-3.8175676e-34
-9.7693408e-38
-6.8750143e-22
6.8753932e-22
6.8756917e-22
0
0
-6.876048e-22
1.9083421e-34
6.8757409e-22
0
-6.8747915e-22
-6.8740456e-22
6.8731167e-22
6.872028e-22
0
0
0
0
0
0
-6.8620656e-22
1.9039884e-34
6.8583915e-22
0
0
0
0
0
0
-6.8422876e-22
-1.316597e-53
6.8367998e-22
6.833856e-22
1.8948301e-34
-6.8275758e-22
0
0
0
0
-6.809531e-22
-1.8887871e-34
6.8013417e-22
-6.7970301e-22
-6.7925716e-22
6.7879658e-22
-3.7652023e-34
-5.6446937e-34
-5.6385757e-34
1.8803355e-34
-3.7558087e-34
1.8754437e-34
6.7519153e-22
0
-6.7405284e-22
5.6073618e-34
-9.5619849e-38
-6.7225315e-22
6.7162972e-22
6.7099501e-22
-6.7034956e-22
1.8586516e-34
-5.5684967e-34
-3.7107908e-34
-3.7041288e-34
1.8501317e-34
-3.6982413e-34
-6.6554375e-22
6.6482009e-22
6.6408822e-22
-6.6334825e-22
1.8380257e-34
-7.3474764e-34
-1.8347486e-34
1.8335458e-34
1.8295082e-34
1.8282632e-34
-6.5794935e-22
0
6.563403e-22
-1.8193321e-34
-1.5886489e-52
6.5387567e-22
0
-6.5220137e-22
6.513568e-22
6.5050742e-22
-6.496533e-22
0
0
0
0
-6.4532464e-22
1.7885967e-34
-3.5732448e-34
6.426964e-22
6.4181696e-22
-6.4093617e-22
0
0
0
0
-6.3651769e-22
-9.0329045e-38
6.3475104e-22
0
0
0
0
0
0
0
-6.2773704e-22
-6.2686855e-22
6.2600217e-22
6.2513865e-22
0
0
0
0
0
0
-6.1918654e-22
-6.1834952e-22
6.1751574e-22
6.1668515e-22
0
0
0
0
0
0
-6.1097307e-22
-6.1017794e-22
6.093895e-22
6.0860835e-22
0
0
0
0
0
0
-6.0336198e-22
3.345986e-34
6.0193354e-22
0
0
0
0
0
0
-5.9722343e-22
1.6566209e-34
5.959742e-22
0
0
0
0
-5.9304618e-22
-8.4198385e-38
5.919517e-22
-5.9142057e-22
-2.4783014e-53
5.9039178e-22
-5.8989492e-22
3.2733519e-34
5.8893922e-22
-5.8848209e-22
-3.2648927e-34
-3.2625053e-34
-3.0511838e-52
-3.2571613e-34
-1.6266873e-34
5.8604703e-22
-5.8569562e-22
-5.8535969e-22
1.17008e-21
-3.244067e-34
-1.1688942e-21
0
5.8391795e-22
-1.6207579e-34
-1.6209665e-34
-4.8553733e-34
-4.8546137e-34
-3.2337876e-34
4.8518618e-34
-3.2329664e-34
1.6182092e-34
5.8235516e-22
0
-5.8218952e-22
-8.2725836e-38
-4.8457298e-34
-4.8463386e-34
8.2714691e-38
3.2308611e-34
-1.6163125e-34
-5.8211273e-22
0
5.8222803e-22
-3.2322497e-34
-8.2764343e-38
5.8251218e-22
0
-5.8277529e-22
5.8293037e-22
5.8310152e-22
-5.8328769e-22
0
0
-5.8394504e-22
6.4863159e-34
-3.2425842e-34
3.2466745e-34
-1.6254321e-34
5.8538537e-22
5.8572761e-22
-5.8608869e-22
0
0
0
0
-5.8818387e-22
-1.6345922e-34
-6.5405074e-34
5.8966565e-22
5.9019291e-22
-5.9073599e-22
0
0
0
0
-5.9366273e-22
-5.9428554e-22
5.9491928e-22
5.9556338e-22
0
0
0
0
0
0
-6.0032318e-22
-6.0103553e-22
6.0175584e-22
6.0248485e-22
0
0
0
0
0
0
-6.0778375e-22
5.0678313e-34
1.2186822e-21
-6.1012269e-22
-1.8327205e-21
-6.1169137e-22
0
1.2265217e-21
-6.818559e-34
-2.0474702e-33
-6.1560137e-22
-1.2327489e-21
1.2342904e-21
-6.1791143e-22
-6.186725e-22
6.1942899e-22
-6.2018024e-22
8.8238729e-38
6.2166256e-22
6.2239249e-22
-6.2311444e-22
-6.2382742e-22
6.2453026e-22
-6.252223e-22
-8.8946097e-38
6.2657016e-22
0
0
0
1.2582191e-21
-6.2970898e-22
-1.2605873e-21
6.3086371e-22
-6.3141817e-22
-6.3195718e-22
1.2649601e-21
-1.9219321e-52
-6.3347767e-22
6.3395229e-22
1.2688207e-21
6.3485139e-22
-1.9058232e-21
6.3567972e-22
-1.9714982e-51
-1.909312e-21
1.2735766e-21
6.3712032e-22
6.3743296e-22
1.2754525e-21
-1.2760003e-21
-6.3825406e-22
-6.3848746e-22
6.3870062e-22
6.3889326e-22
-1.9171957e-21
6.3921664e-22
6.3934727e-22
-6.394569e-22
-6.3954591e-22
-9.0894675e-38
1.9189862e-21
-6.396888e-22
1.0650558e-33
-1.0653956e-33
-1.9189396e-21
6.3959338e-22
6.3952089e-22
1.2788577e-21
-6.3931773e-22
-1.2783759e-21
1.27808e-21
-6.3887405e-22
6.3868983e-22
6.384879e-22
-1.9148084e-21
6.3803412e-22
6.377813e-22
-1.2750247e-21
-6.3722788e-22
6.3692745e-22
1.9098336e-21
-6.3627989e-22
-2.5437369e-21
3.5279189e-34
1.2704005e-21
6.3481314e-22
0
1.2680021e-21
1.406553e-33
-1.8994222e-21
6.3269359e-22
-1.403754e-33
6.3176616e-22
6.3128761e-22
-1.2615985e-21
0
0
0
-6.2875573e-22
3.4880199e-34
1.2553747e-21
-6.2714253e-22
-1.2531829e-21
1.8781042e-21
-2.0831106e-33
-1.2498133e-21
6.2433505e-22
0
0
0
1.2440407e-21
-6.2143629e-22
-1.2417023e-21
1.8607984e-21
-1.7612392e-37
-1.2381927e-21
0
0
-6.1735086e-22
3.4244358e-34
1.2323945e-21
-6.1562377e-22
-1.230106e-21
1.8434556e-21
-1.022143e-33
-1.226717e-21
6.1279966e-22
-6.1224456e-22
1.2233857e-21
6.1114436e-22
-2.033402e-33
-6.1005857e-22
-1.2190408e-21
1.8269572e-21
-3.4586676e-37
-6.0792849e-22
3.3715594e-34
-6.0688679e-22
-6.0637585e-22
3.3630099e-34
1.8160606e-21
-1.7190759e-37
-1.8130093e-21
1.2076516e-21
1.1105303e-51
-1.2056163e-21
6.0229979e-22
-6.0179024e-22
1.2025616e-21
6.0077128e-22
-1.3329327e-33
-5.9974974e-22
-1.1984733e-21
-5.9872161e-22
-5.9820356e-22
1.7930484e-21
0
-5.9662906e-22
-3.3087809e-34
3.305788e-34
-3.3019118e-34
5.9445661e-22
-6.5931398e-34
5.933249e-22
-1.9741116e-33
-1.7764638e-21
1.1831054e-21
1.772817e-21
5.9031182e-22
-1.7690124e-21
-1.1780304e-21
1.7650301e-21
-5.8765473e-22
-1.7608474e-21
0
0
5.8471724e-22
5.8393209e-22
0
-5.8229348e-22
-5.8143792e-22
1.1611154e-21
-1.2870036e-33
-1.7361562e-21
6.4139763e-34
5.76766e-22
5.7574585e-22
5.746939e-22
-5.7360986e-22
-5.7249302e-22
5.7134198e-22
1.7104687e-21
-5.6893424e-22
-2.2706986e-21
5.6637752e-22
1.1300833e-21
5.6366498e-22
0
-5.6078878e-22
0
-5.5774115e-22
5.5615093e-22
-1.2311925e-33
5.5283313e-22
-1.8354246e-33
-1.647974e-21
5.4749749e-22
5.4561975e-22
-5.4369123e-22
-5.4171096e-22
5.3967691e-22
1.6127647e-21
-5.3544479e-22
-2.1329786e-21
8.843652e-34
5.2867202e-22
1.0525986e-21
5.2386834e-22
-1.0427561e-21
-2.8798882e-34
-7.3358992e-38
5.1354821e-22
-1.1341687e-33
-5.0802352e-22
1.5155064e-21
-5.5757604e-34
-9.9854366e-22
0
0
-4.8994963e-22
2.7016325e-34
9.6682476e-22
-4.8004433e-22
-9.5321893e-22
-4.7310756e-22
5.2112584e-34
1.397707e-21
4.6219838e-22
-4.5842782e-22
9.0917946e-22
-2.5618471e-37
-1.4878902e-33
-4.4267772e-22
-8.7714907e-22
1.3032145e-21
-4.7767495e-34
-8.5173383e-22
0
0
8.2513256e-22
-9.0589194e-34
-4.4769417e-34
-1.1331317e-37
-1.1817941e-21
-7.7822873e-22
6.399479e-34
1.137879e-21
3.7428894e-22
-3.6922362e-22
7.2819548e-22
3.9834391e-34
-1.1777647e-33
-3.4836102e-22
-6.8600167e-22
1.0127521e-21
-3.3211233e-22
-3.2658693e-22
3.2100855e-22
-3.1537872e-22
6.1939661e-22
-3.3745142e-34
-2.9819119e-22
-4.1547777e-38
-5.7299049e-22
5.6115603e-22
-4.5721893e-34
-5.3721538e-22
2.6255661e-22
0
-2.503299e-22
-1.3549257e-34
7.1386183e-22
-2.3171423e-22
-4.5088362e-22
-2.1913609e-22
-2.1279728e-22
2.0642678e-22
2.0002622e-22
1.9359618e-22
-1.8713886e-22
1.0027812e-34
-9.6642216e-35
1.6762367e-22
-1.7886521e-34
1.5451051e-22
-4.9266368e-34
-4.2398155e-22
2.6942486e-22
2.5565733e-51
-1.2144094e-22
-1.2741489e-34
6.0032265e-35
3.0436103e-22
-9.4778889e-23
-2.6430711e-22
0
0
6.807009e-23
6.1388172e-23
1.0940601e-22
-4.8016175e-23
-8.2659369e-23
6.9296517e-23
-2.7971535e-23
-6.3925226e-23
1.4662511e-23
8.0184504e-24
1.4001306e-24
-5.1713798e-24
2.356598e-23
1.8395114e-23
-2.4950027e-23
-9.4515968e-23
3.8052487e-23
-3.3914362e-50
8.5068477e-35
1.1515751e-22
-1.2807753e-22
-1.4095806e-22
7.6905166e-23
1.6664061e-22
-1.7944749e-22
-9.6111203e-23
3.0743793e-22
3.2648016e-22
-1.1515094e-22
-2.4289612e-22
-1.2771152e-22
7.4344396e-35
2.8023919e-22
1.4627288e-22
-1.5241266e-22
-3.1711074e-22
2.3406211e-38
3.4171109e-22
-3.5396281e-22
3.0489656e-34
3.7820066e-22
-1.9510434e-22
-4.0220276e-22
-4.1421823e-22
0
2.1912863e-22
6.7525912e-22
2.3098487e-22
-2.3683582e-22
0
0
0
0
2.6629412e-22
-1.5107897e-34
-8.3400338e-22
2.8377635e-22
8.6859142e-22
2.9529291e-22
-5.0146066e-34
-6.1383862e-22
-3.1280245e-22
3.1873635e-22
-6.494234e-22
-3.307009e-22
1.1213156e-33
3.4253005e-22
6.9660917e-22
-1.0620579e-21
1.0225126e-37
3.6564503e-22
-5.2825339e-38
3.7798879e-22
3.8433488e-22
-4.3365127e-34
-1.1902568e-21
1.1446065e-37
1.2259321e-21
8.2934267e-22
-2.3352119e-34
-8.5478611e-22
-4.3401326e-22
4.4064677e-22
-8.9439573e-22
-4.5366219e-22
1.5322964e-33
4.6670346e-22
9.469388e-22
-1.4412436e-21
5.4129804e-34
4.9453137e-22
5.0157369e-22
5.0862121e-22
2.8613847e-34
-2.9027087e-34
-1.0612113e-21
-2.9873708e-34
1.0923254e-21
-1.1080294e-21
2.8069132e-33
1.708961e-21
-1.1551322e-21
6.5038088e-34
1.1882833e-21
-6.0289845e-22
-6.1187198e-22
-1.2418144e-21
6.2987591e-22
1.9162929e-21
0
0
0
-2.0294248e-21
-2.0603654e-21
2.0915873e-21
2.1226404e-21
-1.4357036e-21
2.0698968e-37
-7.3904545e-22
2.4991415e-33
2.2856429e-21
-2.3212101e-21
3.9256728e-33
1.5953722e-21
4.494287e-34
-4.5662013e-34
-1.6707478e-21
8.4868358e-22
-8.6220225e-22
2.9174884e-33
2.6691442e-21
-2.711928e-21
-9.1878469e-22
2.0739927e-33
-1.8994006e-21
1.9306281e-21
9.80875e-22
9.9661435e-22
3.0388432e-21
-1.1436869e-33
-1.0484101e-21
-3.2016641e-21
7.2347744e-33
3.3146879e-21
0
-1.1425661e-21
-2.3248421e-21
1.1832981e-21
-1.205007e-21
4.0870632e-33
2.4991641e-21
-3.8169932e-21
2.876686e-33
1.466448e-33
1.493914e-33
1.5226674e-33
-1.3974571e-21
4.2696379e-21
4.3481869e-21
-1.4769104e-21
-3.0129113e-21
0
1.5708525e-21
-1.7798447e-33
3.6314621e-33
-1.8504048e-33
-1.6986018e-21
1.732452e-21
1.7691943e-21
-5.4258677e-21
2.113906e-49
3.1491202e-33
-1.9312059e-21
2.1871835e-33
-4.0238625e-21
4.1096771e-21
4.2012368e-21
2.1491308e-21
-2.4415968e-33
-2.2511699e-21
0
0
0
-4.9295875e-21
2.5224112e-21
5.1648725e-21
-7.9343214e-21
2.709194e-21
8.3264156e-21
-8.5305335e-21
9.7029945e-33
5.9709328e-21
-9.180088e-21
-6.2747139e-21
0
6.6002503e-21
1.1272774e-32
3.4720676e-21
7.1226885e-21
-3.6532966e-21
0
-7.6948187e-21
-1.1227769e-36
-4.5045102e-33
4.1685274e-21
1.2848142e-20
-1.3198434e-20
7.5282656e-33
1.3921097e-20
-1.4298172e-20
2.4467832e-32
1.0067902e-20
-5.1770221e-21
5.3253142e-21
-1.0955348e-20
-5.6334146e-21
2.5723369e-32
5.9566115e-21
1.2251848e-20
6.301233e-21
6.4827267e-21
-1.3341282e-20
-6.8654876e-21
0
7.2774382e-21
-4.1605088e-33
4.3356105e-50
-7.9398254e-21
2.3222166e-36
-8.4092888e-21
5.8491986e-49
2.6759451e-20
-2.7574931e-20
-2.8414079e-20
1.9512775e-20
2.0092524e-20
0
-2.1301281e-20
1.0971488e-20
3.3918821e-20
-3.4960073e-20
2.0003112e-32
2.4749918e-20
-1.274784e-20
0
1.3526832e-20
1.393771e-20
-1.436422e-20
2.4654573e-32
-3.05197e-20
-8.9390158e-36
4.8607936e-20
0
-5.1590528e-20
-3.5439329e-20
5.4786352e-20
3.7647244e-20
-5.8204915e-20
-1.999342e-20
8.2393154e-20
2.1218014e-20
-4.3713777e-20
-4.5038681e-20
2.576318e-32
2.3917528e-20
2.4647504e-20
2.5394055e-20
-2.6156501e-20
2.9907347e-32
-5.5492886e-20
9.5187451e-32
8.8335221e-20
0
0
-6.4376173e-20
7.360866e-32
3.413261e-20
-1.054326e-19
3.6188644e-20
6.2046379e-32
1.2781275e-31
1.1855514e-19
-4.0688554e-20
2.3244457e-32
-4.7864178e-32
-4.4376074e-20
4.567379e-20
-6.680605e-36
2.6858396e-32
-5.5279984e-32
-5.1252007e-20
0
5.4259821e-20
-1.1164166e-19
-5.7424482e-20
1.1814703e-19
0
-6.2509443e-20
6.4294009e-20
1.3224388e-19
-2.0398333e-19
2.3288598e-31
2.3940745e-31
-7.3906674e-20
2.2794566e-19
-1.1100012e-35
-8.0288796e-20
-8.2520866e-20
8.4807712e-20
8.7152e-20
-8.9555737e-20
0
9.4543002e-20
-1.9425169e-19
1.6616686e-31
1.0247595e-19
2.3371572e-31
2.3996662e-31
3.1549239e-35
2.2796726e-19
-3.5108887e-19
-3.6042899e-19
0
2.5317768e-19
3.8979103e-19
1.8950532e-35
-1.3685264e-19
-1.404276e-19
1.4407711e-19
1.478051e-19
-1.5161817e-19
0
-3.1903705e-19
-3.2721053e-19
5.0333456e-19
1.7203524e-19
-1.7637875e-19
5.1390649e-35
1.8535002e-19
3.7997695e-19
1.9472997e-19
-3.3238864e-31
-8.1803956e-19
6.978813e-31
6.4404362e-19
-2.1992349e-19
-2.2527741e-19
-2.307455e-19
2.3632718e-19
2.4202024e-19
2.4782322e-19
7.2116459e-35
-2.5976615e-19
2.6591507e-19
-8.1656434e-19
-5.5717378e-19
8.5533171e-19
-2.9175748e-19
-5.9705445e-19
6.1084392e-19
-3.1244602e-19
3.1960416e-19
6.5379889e-19
-1.0029969e-18
3.4190127e-19
-1.1645432e-30
-1.072334e-18
7.3084697e-19
3.7354656e-19
3.8181808e-19
7.8047939e-19
-3.9881036e-19
3.4660734e-74
-8.3278426e-19
-4.2540483e-19
4.8243964e-31
4.4389514e-19
9.0676202e-19
-9.2605744e-19
4.7283664e-19
1.44841e-18
-1.4787885e-18
-5.0321817e-19
-5.4767627e-47
-5.2429874e-19
1.6052855e-18
5.4606266e-19
-5.5720113e-19
-1.1370237e-18
5.7999738e-19
-5.9166014e-19
2.0099339e-30
1.2310396e-18
-1.8831468e-18
-7.1096085e-31
2.8985178e-30
-1.4771794e-30
1.3566489e-18
-1.3828974e-18
7.0475931e-19
2.8730112e-18
-7.3192901e-19
-1.4915846e-18
0
-1.5482131e-18
1.7508522e-30
4.5657734e-34
9.0817895e-31
8.3310532e-19
8.483353e-19
-8.6376214e-19
-8.7939115e-19
1.7904506e-18
-1.8225288e-18
1.0296728e-30
1.8878963e-18
-1.921179e-18
-3.2552912e-30
1.1040186e-30
1.0117247e-18
2.058364e-18
-1.0468483e-18
1.0647233e-18
-6.0103906e-31
-1.101091e-18
-2.2391603e-18
1.1382733e-18
2.3143471e-18
-1.1762842e-18
1.1956072e-18
-2.0238329e-30
1.2348841e-18
2.7868215e-30
-2.5499676e-18
-2.5906823e-18
-2.9213396e-30
4.4521461e-30
-4.5220499e-30
1.3788673e-18
1.4002691e-18
1.4218748e-18
-1.4436847e-18
0
0
1.5103524e-18
-8.5092392e-31
-2.2109572e-34
-1.7527751e-30
-1.6020998e-18
0
1.649186e-18
3.3460618e-18
-1.6970734e-18
-3.4426219e-18
-3.4914862e-18
-3.5407421e-18
5.3855884e-18
6.0621552e-30
-5.5362986e-18
3.7416737e-18
3.7928533e-18
0
1.9481635e-18
-3.948627e-18
-2.0006507e-18
4.0543424e-18
2.0538699e-18
-2.3099415e-30
-6.3233739e-18
2.1350149e-18
6.4872462e-18
-6.5699729e-18
-2.2177369e-18
6.7369422e-18
-2.5238501e-30
-2.3019501e-18
-4.660687e-18
-2.6180671e-30
4.7752367e-18
-4.8329864e-18
2.4455181e-18
7.4240626e-18
0
-2.5334552e-18
-5.126112e-18
1.4399387e-30
-2.6226877e-18
-5.3054167e-18
5.3657147e-18
5.4262615e-18
0
2.7740491e-18
3.1136373e-30
3.1481961e-30
3.1820776e-30
-8.6920087e-18
-5.8568658e-18
0
5.9818661e-18
6.709645e-30
3.0538377e-18
9.2563023e-18
-3.1171189e-18
1.7474242e-30
-4.5200976e-34
-3.2126637e-18
-6.4893379e-18
3.2767484e-18
6.6177943e-18
-3.3411097e-18
0
-6.8114229e-18
3.4380975e-18
1.0411613e-17
-3.503027e-18
-3.5355591e-18
-7.136255e-18
3.6007281e-18
1.0900079e-17
-3.666022e-18
4.1056086e-30
7.4628592e-18
-3.7641626e-18
-3.7969055e-18
-7.6593064e-18
-1.1587212e-17
7.7903139e-18
7.8558215e-18
-7.9213217e-18
-4.4321469e-30
8.0522488e-18
-8.1176535e-18
-4.5421928e-30
8.2483163e-18
0
-8.3787423e-18
-8.4438416e-18
0
1.2860652e-17
4.3192918e-18
1.2368122e-33
4.3839412e-18
4.4161713e-18
4.9370593e-30
-8.9608365e-18
-9.0248622e-18
1.5134815e-29
9.1524441e-18
-9.2159759e-18
-1.5452177e-29
9.342456e-18
0
0
0
0
-9.65503e-18
-5.3949708e-30
9.7784114e-18
4.9198574e-18
-9.9007602e-18
1.6591071e-29
1.002205e-17
-1.0082264e-17
-5.6311161e-30
5.1008805e-18
-1.0261038e-17
1.7188091e-29
1.0378651e-17
-1.043697e-17
-1.0494943e-17
1.0552554e-17
1.0609798e-17
0
0
0
0
5.4452161e-18
-5.472689e-18
-5.4999523e-18
6.1358169e-30
1.2717187e-73
5.5804899e-18
1.1213825e-17
5.6331105e-18
-1.1318153e-17
-1.7054419e-17
5.7103019e-18
1.1471134e-17
-1.7281806e-17
-1.1570805e-17
1.7429877e-17
1.1668521e-17
5.8583016e-18
6.5300049e-30
-1.1811213e-17
0
5.9518957e-18
-5.9746528e-18
1.3315474e-29
1.7108021e-33
2.0118494e-29
6.0629258e-18
6.0842953e-18
-1.7352556e-33
-1.2252403e-17
-1.2293464e-17
2.0537082e-29
1.2373843e-17
0
0
0
6.2637167e-18
6.2821675e-18
-6.3003187e-18
-6.3181667e-18
6.3357053e-18
-1.2705856e-17
-1.9109496e-17
0
1.2805381e-17
7.1238526e-30
6.4342955e-18
1.9348869e-17
-6.4646269e-18
1.0789514e-29
-1.2987291e-17
4.3350654e-29
1.30427e-17
3.6272628e-30
9.3049141e-34
-6.5604588e-18
6.5728327e-18
-1.3169738e-17
-6.5965664e-18
1.3215853e-17
-1.3237903e-17
-1.8842578e-33
7.3732947e-30
6.650018e-18
1.9979092e-17
-1.3338066e-17
8.403348e-49
-6.6866724e-18
1.1150573e-29
1.3405905e-17
-6.710585e-18
-1.3435754e-17
7.4636651e-30
2.0194271e-17
-1.9149632e-33
-6.7435895e-18
6.7491617e-18
-1.350879e-17
-6.7592886e-18
1.3527677e-17
-1.3536087e-17
-7.5159183e-30
3.7610673e-29
-1.5052489e-29
1.3562895e-17
-1.3567903e-17
6.7861154e-18
1.3575872e-17
-6.7894199e-18
6.7905686e-18
-1.358277e-17
1.1311942e-29
2.037603e-17
0
0
-2.0370884e-17
-6.7890511e-18
1.3574961e-17
-1.3571169e-17
-3.8558955e-33
3.0110944e-29
7.5245472e-30
1.3549495e-17
-1.354246e-17
-1.3534788e-17
6.7632423e-18
2.0276326e-17
6.7539937e-18
-6.7488985e-18
0
0
6.7317516e-18
-3.7331209e-30
-2.0156373e-17
-1.9076246e-33
1.3409247e-17
6.697092e-18
-7.4242005e-30
-2.004344e-17
-1.4815502e-29
1.332807e-17
0
6.6457719e-18
-1.3272432e-17
-6.6263825e-18
1.4692016e-29
6.605887e-18
1.3190454e-17
-6.5842948e-18
0
0
0
0
6.5256691e-18
-3.6153044e-30
-1.9501252e-17
6.4874135e-18
1.9422485e-17
-1.9381997e-17
-6.4469295e-18
1.2865912e-17
6.4187468e-18
1.0663716e-29
-1.9168889e-17
3.6236125e-33
2.1182168e-29
6.3442476e-18
1.2657359e-17
6.3128974e-18
6.9887292e-30
-6.2806973e-18
-6.2642835e-18
-6.2476641e-18
-6.2308426e-18
1.3796577e-29
1.2393222e-17
0
0
6.143834e-18
1.0200099e-29
8.679599e-34
-8.6535627e-34
-6.070909e-18
-1.2104488e-17
-1.2066821e-17
1.2028822e-17
6.6590449e-30
5.9759281e-18
1.7869362e-17
0
0
-5.8971297e-18
-5.8770603e-18
0
5.8365003e-18
-3.2283332e-30
-5.7954115e-18
5.7746752e-18
-1.1507624e-17
1.9092919e-29
1.7135143e-17
-5.6904865e-18
-5.6691467e-18
-1.1295398e-17
5.626146e-18
1.6813465e-17
-5.5827282e-18
3.0874941e-30
-1.1077817e-17
-5.5168552e-18
1.0989425e-17
-1.0944967e-17
-3.4480666e-47
1.0855556e-17
0
0
-1.0720262e-17
5.9192945e-30
1.7703287e-29
-3.5261696e-47
1.5806837e-17
5.8245972e-30
-5.2229865e-18
-1.0399844e-17
-1.0353605e-17
1.0307263e-17
1.1391076e-29
5.1071513e-18
1.6934426e-29
-5.0605087e-18
1.0074259e-17
0
4.9902609e-18
-5.5124643e-30
-4.9432626e-18
-9.8394518e-18
-5.4340989e-30
9.7451794e-18
0
0
4.8017419e-18
-2.6522045e-30
-1.4263296e-17
-5.2518662e-30
9.4141781e-18
0
-4.6597302e-18
4.6360485e-18
4.6123675e-18
4.5886887e-18
4.5650139e-18
-9.0826898e-18
-1.355305e-17
4.4940315e-18
8.9407827e-18
-1.3340296e-17
-9.0975113e-48
8.7991267e-18
0
0
0
0
-8.5638e-18
-8.5168759e-18
4.2350049e-18
1.2634807e-17
4.6519532e-30
-4.1648905e-18
8.2831648e-18
8.2366148e-18
-4.0950674e-18
-1.6287458e-17
-8.0974007e-18
1.207673e-17
8.0049898e-18
-1.1938367e-17
-8.7834176e-30
7.8670132e-18
0
0
0
-7.684308e-18
-4.240158e-30
8.4310769e-30
-3.7741659e-18
1.1254822e-17
-3.7291011e-18
-3.7066484e-18
1.1052754e-17
7.3238243e-18
-3.6396318e-18
-7.2348214e-18
-7.1904984e-18
1.1902241e-29
-3.943276e-30
1.0030376e-33
7.0144141e-18
0
3.4635662e-18
3.4418445e-18
-3.4201893e-18
-3.3986007e-18
3.377079e-18
3.3556253e-18
-6.6684822e-18
-3.312928e-18
3.2916868e-18
-3.2705181e-18
3.2494219e-18
6.4567969e-18
0
0
-9.4973228e-18
-3.1450533e-18
6.2488212e-18
3.1038463e-18
3.0833603e-18
-6.1259065e-18
3.379508e-30
6.0447668e-18
0
-2.9821474e-18
-8.8864666e-18
-6.5318481e-30
1.6223343e-29
-5.805381e-18
8.6491353e-18
2.8634904e-18