/*--------------------------------*- C++ -*----------------------------------*\
  =========                 |
  \\      /  F ield         | OpenFOAM: The Open Source CFD Toolbox
   \\    /   O peration     | Website:  https://openfoam.org
    \\  /    A nd           | Version:  7
     \\/     M anipulation  |
\*---------------------------------------------------------------------------*/
FoamFile
{
    version     2.0;
    format      ascii;
    class       volScalarField;
    location    "0.00328";
    object      Uy;
}
// * * * * * * * * * * * * * * * * * * * * * * * * * * * * * * * * * * * * * //

dimensions      [0 1 -1 0 0 0 0];

internalField   nonuniform List<scalar> 
5000
(
1.1257988e-21
2.0460444e-21
0
0
-7.2029154e-22
5.7921051e-37
4.9620032e-22
0
0
-5.5246523e-22
-1.117247e-21
5.4951689e-22
5.4290856e-22
-5.4402837e-22
0
-5.4709763e-22
-1.4095296e-51
5.4395448e-22
0
5.4129717e-22
-5.3997959e-22
-5.3865501e-22
1.0746529e-21
-5.3600348e-22
-5.3469602e-22
-4.3964413e-36
5.3211151e-22
5.3083204e-22
-1.0591289e-21
9.159451e-36
-9.2128641e-36
5.2584372e-22
1.0492558e-21
-1.0468553e-21
9.0542952e-36
-4.5318676e-35
-1.8028532e-35
1.0376193e-21
-1.0353979e-21
-1.0332131e-21
1.0310703e-21
-3.5386642e-35
-1.0269185e-21
5.1245156e-22
1.5343891e-21
-5.1049486e-22
-5.0954388e-22
-3.4837804e-35
-1.015373e-21
0
5.0201206e-22
7.012932e-38
-4.9091082e-22
9.841992e-22
-1.716177e-35
-9.8436737e-22
4.9281263e-22
-1.6893333e-35
-4.8715267e-22
0
4.8776473e-22
1.6646888e-35
1.3879206e-37
4.8864424e-22
-4.8733529e-22
1.6949129e-35
4.8524765e-22
-4.8891384e-22
-4.8853031e-22
4.8682259e-22
4.8610056e-22
-4.8303418e-22
-4.8149872e-22
9.5853583e-22
4.7859655e-22
-4.8415082e-22
0
4.8379436e-22
-6.8916966e-38
-4.8421899e-22
4.8115835e-22
-1.3565774e-37
1.3473437e-37
4.7446958e-22
4.7845681e-22
1.6829549e-35
-4.8114525e-22
0
-4.8071204e-22
-5.0144327e-35
-1.6933955e-35
4.8589461e-22
4.8459997e-22
-9.5764552e-22
-3.288162e-35
4.7922119e-22
0
0
-4.7416308e-22
-3.3284453e-35
9.5543399e-22
-4.7381337e-22
-9.5578773e-22
0
4.7362113e-22
4.7768579e-22
-4.7701161e-22
-4.7345018e-22
0
0
4.7122342e-22
4.730031e-22
0
-4.7733638e-22
1.6474441e-35
4.7312399e-22
-4.7928479e-22
1.3570362e-37
-1.6476842e-35
3.8504695e-52
9.5889826e-22
-2.044064e-37
-4.7794972e-22
0
-4.759003e-22
4.7390878e-22
4.7460309e-22
-9.5864067e-22
-4.7820991e-22
9.4431116e-22
4.7395716e-22
-4.8038001e-22
-4.7844057e-22
-4.7411969e-22
0
4.7814115e-22
4.7717667e-22
-4.772114e-22
-1.652574e-35
4.7961491e-22
-4.7891269e-22
-4.7325922e-22
0
4.8123992e-22
4.7941803e-22
-4.7543957e-22
4.7947039e-22
-2.7243112e-37
-4.7606516e-22
4.802422e-22
-4.7968375e-22
3.3138458e-35
4.8001976e-22
-4.7977819e-22
4.7352972e-22
4.7506709e-22
-4.816565e-22
0
0
-4.8011859e-22
-4.7962539e-22
4.7579141e-22
4.8005105e-22
-4.7981157e-22
-3.2826655e-35
4.7475741e-22
-4.8136795e-22
-4.7977571e-22
0
4.7427037e-22
4.8094216e-22
0
-4.7251637e-22
-4.7376345e-22
0
4.7861427e-22
9.8690214e-35
-4.7856311e-22
4.780023e-22
4.740297e-22
-4.7828419e-22
-3.3003522e-35
3.2603466e-35
2.0375814e-37
4.7948e-22
-4.779e-22
-6.6133351e-35
3.274105e-35
-3.3018843e-35
4.7982757e-22
0
0
-4.8027966e-22
-4.7833975e-22
0
0
4.776227e-22
-4.045782e-53
-4.7802032e-22
0
4.7383593e-22
-4.78222e-22
-1.3251135e-34
9.434973e-22
-4.7315549e-22
-9.9663524e-35
-6.7991944e-38
-4.743682e-22
4.787481e-22
-6.7982079e-38
-6.5682089e-35
3.313827e-35
-4.7867867e-22
0
4.7338845e-22
3.3231624e-35
1.3281661e-34
4.7452373e-22
0
-4.7827439e-22
-4.7408271e-22
0
0
0
4.7679345e-22
3.3118713e-35
-4.7777214e-22
0
0
4.7375304e-22
4.7413212e-22
-4.7900756e-22
-4.8043459e-22
0
4.7968858e-22
4.7892066e-22
-4.7799153e-22
-4.7422011e-22
0
4.7920054e-22
-1.3275446e-34
-3.2666374e-35
4.7235434e-22
-4.791357e-22
-4.8040352e-22
0
4.79845e-22
-6.6577093e-35
4.7812625e-22
6.5809335e-35
-9.4780606e-22
4.7931561e-22
-6.6283593e-35
-1.6450536e-34
-3.3094889e-35
-4.7804375e-22
4.7147722e-22
4.7285974e-22
0
-4.7804031e-22
-4.7330744e-22
0
4.7775253e-22
4.7731131e-22
-9.5526621e-22
-4.7638598e-22
4.7399049e-22
4.7435418e-22
1.3302097e-34
-4.7864002e-22
4.7198922e-22
-3.2833343e-35
-4.8034388e-22
4.786262e-22
-3.2971275e-35
3.3352333e-35
-1.3602147e-37
-3.2783168e-35
4.7914286e-22
0
0
-4.7932695e-22
-4.7848621e-22
0
0
0
0
4.802251e-22
3.2849481e-35
-9.5537471e-22
2.0577595e-37
4.8162452e-22
4.8095869e-22
-6.6771621e-35
-6.628075e-35
-6.8302411e-38
-4.7949749e-22
-4.7592358e-22
-4.8017929e-22
9.5728869e-22
1.4211729e-21
-4.7864657e-22
-9.6473681e-22
0
4.8206288e-22
4.7952984e-22
-4.7591742e-22
1.3533981e-37
-2.0528038e-37
1.3645401e-37
4.7591321e-22
4.8047002e-22
-4.8031586e-22
-9.4697911e-22
4.7492867e-22
-2.7546574e-52
4.8009053e-22
1.3181478e-34
-9.6053237e-22
0
0
9.5658589e-22
-2.6681257e-34
-9.6026261e-22
0
4.7864612e-22
4.7535704e-22
-4.7527537e-22
6.8287278e-38
-6.6501229e-35
6.7435713e-38
4.7894296e-22
-4.8071356e-22
-4.7911719e-22
0
4.7379722e-22
-6.5719501e-35
-4.7900916e-22
9.5091774e-22
-1.3019857e-34
-4.7422833e-22
-1.3258282e-34
-9.5412804e-22
9.5349939e-22
4.7454644e-22
-4.7600984e-22
-6.7702061e-38
-4.7490186e-22
0
0
4.6875162e-22
-6.5824389e-35
-9.4523147e-22
6.6274216e-38
1.4020874e-21
-4.6608614e-22
-4.6414257e-22
9.393942e-22
-4.6874501e-22
4.6361165e-22
9.3486338e-22
-4.6671935e-22
-4.5880712e-22
-4.5943392e-22
4.6618625e-22
1.0340854e-51
-4.5808915e-22
4.6208338e-22
-4.60753e-22
4.5546819e-22
1.2729116e-34
1.3014234e-37
4.5250404e-22
-9.1262568e-22
4.5515752e-22
1.2402211e-34
-1.2400345e-34
-4.5334345e-22
-9.0541551e-22
1.3489876e-21
1.2418952e-34
-2.4504159e-34
1.2197052e-34
-8.9096928e-22
8.8575915e-22
-1.2033569e-34
-8.6773581e-22
0
0
4.3118192e-22
-6.0279989e-35
-4.3531768e-22
-4.3296716e-22
4.3137235e-22
1.271346e-21
-4.1604178e-22
-4.1360464e-22
-1.1861321e-37
-4.2479537e-22
0
8.33476e-22
8.4088646e-22
-4.1871942e-22
-8.2589707e-22
-4.1676083e-22
8.3031723e-22
8.1899657e-22
-8.2684615e-22
-8.2447093e-22
0
8.0721652e-22
-4.1083641e-22
-8.1636145e-22
4.0242508e-22
4.0638904e-22
-5.7947789e-38
5.6347433e-35
4.043995e-22
-4.0135149e-22
-4.0297646e-22
4.0014858e-22
-5.4731353e-35
-5.6733878e-38
-5.5295489e-35
-3.9239726e-22
3.9488829e-22
-1.6605259e-34
-5.5575797e-35
-1.1095885e-34
-3.9801446e-22
4.0061229e-22
-5.5942694e-35
-1.1157503e-34
-5.7414761e-38
-8.1715913e-22
-4.1304355e-22
4.1651766e-22
8.3959152e-22
-5.8649352e-35
-8.4882372e-22
-4.2600632e-22
8.5389957e-22
4.2764017e-22
-4.2838878e-22
-4.290841e-22
-1.1931482e-34
4.3081914e-22
0
0
4.3426391e-22
0
-4.3711844e-22
4.3873311e-22
6.26014e-38
-1.2278246e-34
0
-4.4590786e-22
4.4738149e-22
4.4891718e-22
-9.0119718e-22
-4.5230631e-22
4.5378039e-22
0
0
-4.5632151e-22
1.2694714e-34
4.5746906e-22
0
0
-4.5978374e-22
1.920135e-34
4.6219345e-22
0
0
0
0
0
0
0
0
9.5274761e-22
2.6592406e-34
-4.8361114e-22
4.8744268e-22
-4.8798164e-22
4.8759661e-22
-1.359967e-34
-4.9207564e-22
-1.3715704e-34
-4.9884376e-22
0
0
5.0851917e-22
1.4168537e-34
-5.1044237e-22
0
0
0
0
0
0
0
1.049764e-21
-4.4037869e-34
-1.0520687e-21
5.2558248e-22
7.4366267e-38
5.1825384e-22
-2.8898991e-34
-1.0542984e-21
-5.3176171e-22
8.0959321e-53
1.6161566e-21
0
-1.0756285e-21
0
0
1.06085e-21
-1.4771011e-34
-1.6152806e-21
5.4289857e-22
5.412071e-22
-5.3517159e-22
5.3900775e-22
-5.493067e-22
-1.5487397e-34
5.5949012e-22
-5.5266438e-22
0
-5.511993e-22
5.4738221e-22
1.0927201e-21
-5.4931055e-22
-5.5314499e-22
-5.5621936e-22
-5.5513765e-22
1.1057305e-21
5.5122701e-22
-5.4686933e-22
0
5.4626268e-22
-5.4497302e-22
-5.4547799e-22
1.6599833e-21
1.5897647e-37
-1.1197191e-21
5.6425574e-22
7.8729093e-35
5.6535129e-22
-1.6023784e-37
-1.1181731e-21
5.5624256e-22
0
-1.5671746e-34
-8.060391e-38
-5.6746618e-22
5.666257e-22
-1.5694627e-34
-7.8106929e-35
-7.992898e-38
-5.6181768e-22
5.6145307e-22
4.4194747e-52
-1.5312658e-34
-7.8765169e-38
-1.1238234e-21
-7.8729354e-35
5.6856395e-22
0
0
-5.6264773e-22
-2.3304341e-34
5.5826836e-22
-5.6033111e-22
7.8448023e-35
-5.0893591e-52
-7.8951774e-35
5.6781435e-22
5.6665593e-22
7.830871e-35
-5.6419639e-22
0
0
5.7203454e-22
-5.7389432e-22
4.7373682e-34
5.6732951e-22
-5.6683955e-22
0
5.6502845e-22
5.6446708e-22
-5.6774854e-22
-5.7115498e-22
0
5.6601718e-22
5.6141169e-22
-1.1320116e-21
-5.7053897e-22
5.7011861e-22
5.6629467e-22
7.8190859e-35
5.6271638e-22
1.5378743e-34
-1.0956384e-21
0
0
0
5.743754e-22
5.7798096e-22
0
-5.7554259e-22
-7.8326733e-35
5.5641437e-22
0
0
-5.7021468e-22
-7.9077132e-35
7.8827296e-35
-5.6815284e-22
5.6662318e-22
-2.3566372e-34
-5.6789413e-22
0
-5.8320561e-22
-8.1018967e-35
5.7623076e-22
-5.6939354e-22
5.6481443e-22
5.6437688e-22
-5.693964e-22
0
5.7508032e-22
5.7367837e-22
-5.7257317e-22
-5.7038955e-22
0
-5.5934211e-22
5.5412588e-22
5.5764724e-22
-5.6300424e-22
-1.1372131e-21
3.1997584e-34
1.7551857e-21
8.1428395e-53
-5.8626331e-22
-1.1736656e-21
3.2603365e-34
1.1723688e-21
-5.8366462e-22
5.8017983e-22
-5.8465233e-22
-5.9189143e-22
1.1900987e-21
0
0
-1.2000753e-21
8.1085289e-52
1.2112806e-21
0
0
-1.21553e-21
4.449796e-52
1.2324604e-21
0
0
-1.2445839e-21
-6.1879466e-22
1.2149887e-21
6.0565054e-22
0
-1.228646e-21
3.423166e-34
1.2481722e-21
-6.3260068e-22
0
6.4309425e-22
-6.4547129e-22
9.1834635e-38
6.4971767e-22
-6.5716347e-22
6.6717755e-22
6.7243932e-22
-6.717509e-22
-6.7025138e-22
1.8558827e-34
6.6677377e-22
-6.6606632e-22
-1.8710382e-34
6.9088223e-22
-7.0198582e-22
7.0165848e-22
6.9528387e-22
-6.9141516e-22
-6.8818548e-22
1.8966979e-34
6.9282752e-22
-7.0914399e-22
1.0107621e-37
7.1139689e-22
-7.1772627e-22
7.1883981e-22
7.1408133e-22
-7.1346478e-22
-1.4371469e-21
4.0205651e-34
1.4515075e-21
-7.2561741e-22
1.0214499e-37
1.4220423e-21
2.0363416e-37
-7.2889389e-22
0
7.5877055e-22
0
-7.535546e-22
0
0
0
-7.4861148e-22
-3.7775687e-53
7.4817211e-22
0
7.5968593e-22
-2.1388663e-34
-7.8156732e-22
0
0
0
-7.9975027e-22
2.2238992e-34
8.0084981e-22
0
8.049289e-22
2.2450961e-34
-8.063471e-22
0
8.0797144e-22
-8.157818e-22
4.5676038e-34
8.2490271e-22
-8.257506e-22
0
-8.300507e-22
-2.3113299e-34
8.3677086e-22
0
8.467466e-22
-8.4833122e-22
-4.7056585e-34
8.4177377e-22
-4.6455329e-34
-1.1955824e-37
2.3543905e-34
-1.2114049e-37
-8.621523e-22
0
8.8829456e-22
-2.4861889e-34
-2.4859377e-34
-6.3039866e-53
-2.4877808e-34
0
-1.7921256e-21
-2.476359e-34
8.9238986e-22
-8.9551334e-22
2.4846714e-34
8.9445105e-22
8.9586345e-22
2.5012267e-34
-2.518095e-34
9.090046e-22
-9.0557085e-22
-9.038203e-22
0
-9.263483e-22
2.5586915e-34
9.1614928e-22
0
0
0
-1.8514814e-21
1.0326769e-33
1.8713208e-21
0
0
0
0
0
0
0
-1.9099525e-21
5.3044439e-34
1.9063537e-21
9.5676731e-22
-9.6029436e-22
-9.6115126e-22
2.6579806e-34
5.3002991e-34
9.5641896e-22
-9.5431264e-22
9.4670633e-22
9.392145e-22
-9.4244697e-22
-9.4737956e-22
5.2751423e-34
9.5796027e-22
9.6659828e-22
-2.7005215e-34
-9.7803941e-22
-9.7836667e-22
9.7748327e-22
9.7209349e-22
-9.6392377e-22
9.7240637e-22
0
-9.8742351e-22
-9.8581479e-22
2.7446625e-34
9.9115319e-22
-9.8801478e-22
9.8403179e-22
9.8689772e-22
-9.8931163e-22
9.8979344e-22
2.7598821e-34
-9.9973572e-22
-1.0017928e-21
-1.4179841e-37
1.9949992e-21
5.5502805e-34
-9.9956855e-22
-9.9987562e-22
0
9.9655992e-22
0
0
0
1.0328295e-21
1.0267636e-21
-1.0132897e-21
-1.0074111e-21
0
1.0126091e-21
-2.8138662e-34
-1.0110541e-21
0
0
1.0032936e-21
-5.604685e-34
-1.0114516e-21
0
0
1.0246312e-21
-5.7042347e-34
-1.0293164e-21
0
1.0323123e-21
-2.8812883e-34
2.9036977e-34
-2.9163491e-34
-1.04794e-21
0
-1.0438221e-21
5.7935869e-34
1.0437009e-21
0
1.0388801e-21
-1.0389019e-21
-1.0373196e-21
2.067996e-21
2.8585236e-34
-2.0774211e-21
2.9342579e-34
1.0526713e-21
0
0
1.0436497e-21
-2.9067303e-34
-1.0531651e-21
0
1.058434e-21
-1.0582172e-21
-1.0576007e-21
1.0557196e-21
0
-1.0682493e-21
1.0722793e-21
5.9504173e-34
-5.9447122e-34
1.0677602e-21
-8.8674113e-34
1.0704593e-21
-1.0739845e-21
2.963155e-34
-5.9112297e-34
-2.1300686e-21
2.9511634e-34
1.0629394e-21
0
0
0
-2.1365472e-21
-1.0680023e-21
2.1350239e-21
1.0666412e-21
0
0
1.0691108e-21
-3.0210091e-52
-1.0828161e-21
0
-2.1633862e-21
-1.0840645e-21
2.1679148e-21
1.0785162e-21
0
-2.1539335e-21
-3.0571783e-37
3.2200697e-21
-2.9649023e-34
-2.1504929e-21
1.0891997e-21
6.2250983e-37
-1.0931279e-21
3.0301639e-34
6.0160402e-34
1.0748773e-21
0
1.0843295e-21
-6.0414366e-34
-2.1740554e-21
1.0863993e-21
-1.8131184e-33
-1.0946848e-21
2.1956384e-21
-1.5531291e-37
-1.0894592e-21
0
0
0
-1.0853726e-21
1.0876776e-21
2.1814244e-21
-1.090608e-21
-3.028341e-34
-3.0349949e-34
-1.1010135e-21
0
1.0953317e-21
-1.5484436e-37
-2.1809007e-21
1.0904416e-21
6.046884e-34
-1.090187e-21
-1.0925933e-21
6.0907134e-34
2.1931644e-21
0
1.0990642e-21
1.1045049e-21
0
-1.0994291e-21
-1.0968211e-21
1.0977218e-21
0
-1.0942384e-21
0
0
1.1037972e-21
-9.1658744e-34
-1.0996369e-21
0
0
1.1095612e-21
1.1124839e-21
-1.110648e-21
-1.1075261e-21
1.103617e-21
1.101834e-21
-2.2087587e-21
-1.1053462e-21
3.061985e-34
1.1006161e-21
-6.0924967e-34
-6.070404e-34
1.0933971e-21
-1.0865518e-21
1.0788834e-21
-1.08353e-21
-9.307411e-37
1.0958268e-21
-2.1930484e-21
-1.0944401e-21
-1.0923846e-21
2.1834562e-21
2.1869916e-21
-1.0962626e-21
1.0946032e-21
-1.0923235e-21
6.0479438e-34
2.1648575e-21
-1.083316e-21
3.0253923e-34
-3.04021e-34
-1.0945998e-21
0
0
1.0830056e-21
1.0780591e-21
0
-1.0883654e-21
-1.0912528e-21
0
-1.0893103e-21
3.0321245e-34
1.0982407e-21
-1.1013461e-21
3.0363052e-34
1.0887111e-21
0
1.0847942e-21
6.0084232e-34
-1.0812762e-21
1.0838083e-21
-3.0133268e-34
-1.0848741e-21
-1.0826243e-21
-2.9944848e-34
1.0713667e-21
0
-1.0796302e-21
1.0833653e-21
-3.0760977e-37
6.0038269e-34
1.0797638e-21
-1.0776007e-21
0
-2.1944251e-21
2.4498948e-33
1.1040813e-21
6.1217796e-34
2.186212e-21
-2.1502848e-21
-2.1311623e-21
2.1312924e-21
2.1345084e-21
1.0652481e-21
0
-1.0722379e-21
-2.1642674e-21
1.5450248e-37
-1.0911082e-21
1.0829236e-21
1.0634304e-21
-1.0529107e-21
2.1081142e-21
-2.1120015e-21
-1.7571265e-33
2.1077626e-21
-2.1087822e-21
5.8607694e-34
-1.0529202e-21
1.0458804e-21
1.0448327e-21
-1.0455058e-21
-2.8907634e-34
-2.0770942e-21
2.0734476e-21
2.0776301e-21
-2.0831853e-21
-2.884799e-34
-1.0368815e-21
5.7300977e-34
1.0217048e-21
2.8298602e-34
-4.5597063e-52
1.0255214e-21
2.0479825e-21
-1.0228194e-21
5.7226678e-52
-1.0265661e-21
-1.7070405e-33
1.0168665e-21
-2.0273924e-21
5.6170854e-34
2.0178896e-21
5.5126865e-52
-9.9333477e-22
0
0
-1.0101274e-21
1.0098991e-21
2.0166532e-21
0
0
0
-9.8699004e-22
-9.8427253e-22
0
9.9488888e-22
-9.9434567e-22
-1.6509229e-33
1.9669943e-21
0
0
0
-9.5312778e-22
-9.5404719e-22
9.5213994e-22
-9.4955426e-22
-5.2497195e-34
1.8625605e-21
0
0
-1.8924783e-21
2.7061779e-37
9.4804721e-22
-9.4158447e-22
9.3223535e-22
-9.2383871e-22
5.0620276e-34
1.7958386e-21
0
0
-8.90237e-22
-8.8534858e-22
0
0
8.7260779e-22
8.5850506e-22
0
-8.5351608e-22
-8.527247e-22
8.5301711e-22
-8.4952399e-22
-8.4498794e-22
8.3192413e-22
8.1541324e-22
-4.5593738e-34
-8.3834562e-22
8.3498074e-22
2.2365876e-34
-7.7981713e-22
0
-7.8043556e-22
4.3306962e-34
7.7668613e-22
-7.7336216e-22
4.285867e-34
7.7053309e-22
0
-7.4702904e-22
2.0435912e-34
1.0377604e-37
-7.2206376e-22
7.1308939e-22
7.0502188e-22
0
-1.3945882e-21
7.7004516e-34
6.8859838e-22
9.712011e-38
1.3564966e-21
-1.3387312e-21
-1.3071494e-21
1.2869113e-21
6.3848593e-22
0
-1.240607e-21
9.9812583e-34
1.1799801e-21
0
-1.1741072e-21
-3.2399486e-34
5.7902519e-22
1.5731995e-34
1.0896327e-21
-1.0678619e-21
-1.3307036e-33
1.0630482e-21
-1.0588767e-21
2.9158772e-34
1.0330891e-21
5.0243489e-22
-9.8886173e-22
-4.8377965e-22
9.3268245e-22
-9.1566997e-22
-1.128054e-33
8.9923459e-22
-9.1203666e-22
1.2392801e-34
-4.2205872e-22
4.617715e-34
1.2760274e-21
-2.2970885e-34
-7.6652368e-22
3.6261675e-22
7.0788709e-22
-3.4608742e-22
1.8632667e-34
-3.3208861e-22
-3.7439764e-34
3.2541756e-22
-5.965484e-22
2.3458277e-34
-2.9576803e-34
1.3820145e-34
2.4424153e-22
0
2.3998789e-22
2.4906737e-22
0
0
0
0
0
-1.6767669e-22
-1.6005773e-22
0
1.4190921e-22
-1.2778747e-22
-1.7938027e-34
1.9245483e-22
0
0
0
-6.6798868e-23
-5.2742511e-23
3.2105234e-23
2.0097424e-23
-2.9657552e-23
-1.176735e-35
-3.2167727e-24
0
5.1169916e-23
7.7802665e-35
-5.8913519e-23
6.4090031e-23
-7.1896178e-23
8.0779705e-23
5.0232912e-35
-2.1016039e-22
0
0
1.2874821e-22
1.50631e-22
0
1.6811934e-22
4.9007209e-38
1.8328797e-22
-2.0801109e-22
-6.9651617e-22
0
-4.5526477e-22
-5.0093022e-22
0
7.7529335e-22
5.269661e-22
-5.6866463e-22
3.0881041e-22
3.2160743e-22
-1.0052165e-21
-3.4967441e-22
-4.9685761e-38
-3.5316649e-22
3.6503645e-22
3.8149429e-22
4.142835e-22
-4.3277165e-52
4.4314204e-22
4.5102648e-22
-4.5879566e-22
0
-9.0908069e-22
-9.4269905e-22
0
5.2421313e-22
1.0394459e-21
2.8679639e-34
5.4934498e-22
1.1803013e-21
-1.2034649e-21
-1.1694804e-21
-5.7364432e-22
-5.9410532e-22
0
6.1597547e-22
1.8370271e-21
-6.3484101e-22
-1.7450337e-50
1.9396798e-21
-1.3030258e-21
-6.6863829e-22
-6.9101294e-22
-1.4018874e-21
1.4067415e-21
7.1643882e-22
-7.3618632e-22
-7.4266049e-22
-7.3792708e-22
2.253629e-21
7.8296781e-22
-2.4018494e-21
-7.8877882e-22
7.7508675e-22
1.563657e-21
-7.9583934e-22
8.1400251e-22
-1.3933107e-33
1.408321e-33
2.5369612e-21
-8.4872335e-22
-8.5196427e-22
-1.7228869e-21
-8.8205828e-22
1.8093583e-21
2.574394e-37
8.940463e-22
-8.9605419e-22
-2.7201157e-21
2.7611217e-21
9.4383825e-22
-2.8931742e-21
0
2.8922961e-21
9.6434585e-22
-2.8776421e-21
9.6796622e-22
1.9780665e-21
5.4966088e-34
-1.0942152e-33
-1.0129654e-21
0
-2.0647212e-21
-2.0572895e-21
1.037999e-21
1.0269245e-21
2.0342529e-21
-1.0340904e-21
-1.0400128e-21
2.0622306e-21
0
-2.1214429e-21
-2.0971819e-21
1.0368569e-21
2.1053467e-21
-5.872716e-34
-1.0474576e-21
2.1159364e-21
-1.0749196e-21
3.5651795e-33
2.1251858e-21
-1.0575543e-21
0
-2.1296687e-21
0
2.3411651e-33
1.0517972e-21
2.1203335e-21
-3.2087742e-21
3.0220783e-37
2.1084407e-21
0
-2.0554995e-21
-1.0250279e-21
2.0887754e-21
-1.1683146e-33
-1.0347407e-21
2.0436327e-21
-1.009522e-21
1.6453907e-33
1.9697736e-21
-9.9038407e-22
9.7421716e-22
-1.9008541e-21
-2.8206108e-21
0
2.8349609e-21
1.8522011e-21
-2.7160489e-21
-1.7692124e-21
8.6239804e-22
1.7241999e-21
-8.5751432e-22
-8.2642958e-22
1.598465e-21
-7.7228199e-22
-1.4680376e-21
7.1092658e-22
-9.9418677e-38
1.330423e-21
1.253898e-21
-1.8532664e-21
6.0076657e-22
9.2799948e-34
-1.574453e-21
0
1.3730005e-21
8.3271601e-22
-3.9853927e-22
-3.6987838e-22
-3.119524e-22
0
-2.1314199e-22
8.0840935e-35
1.5487521e-22
-1.9485485e-35
2.1045936e-23
0
1.4901244e-22
-4.2047584e-22
-8.215225e-22
6.5423653e-22
1.1840652e-21
4.8559455e-22
-5.725367e-22
-1.3107674e-21
7.5370497e-22
-8.4700153e-22
-9.3850835e-22
2.1112996e-21
-2.3441627e-21
-1.2733079e-21
4.1709156e-21
3.0232383e-21
-1.615968e-21
-5.2168507e-21
4.211954e-33
-4.5560559e-33
-2.1941514e-21
-2.619049e-33
-2.53371e-21
2.6816298e-21
2.828063e-21
3.0079669e-21
-3.2154567e-21
-3.4331224e-21
1.0993173e-20
-3.8966855e-21
-8.2124262e-21
1.2949968e-20
1.2971769e-36
-4.8414991e-21
1.0260998e-20
5.4349934e-21
0
-6.04015e-21
-6.3327207e-21
-1.3321262e-20
7.0289275e-21
-2.4704906e-32
-2.345058e-20
8.2213768e-21
8.622558e-21
9.0295286e-21
-9.4613839e-21
-9.9220511e-21
3.1254216e-20
-1.0947115e-20
-2.2968506e-20
-2.0020638e-32
-1.2577984e-20
2.6352721e-20
4.1435146e-20
8.0278356e-33
-8.3987382e-33
-2.2476676e-36
-1.6539241e-20
-3.4614751e-20
-1.8117452e-20
5.6863693e-20
-2.1994919e-32
-4.1398771e-20
0
0
2.3611159e-20
-1.3698667e-32
1.4309739e-32
2.6931806e-20
-5.6242949e-20
-2.9360547e-20
-3.4017987e-32
3.1997753e-20
1.0022194e-19
3.4876509e-20
0
0
0
-1.2406991e-19
-8.629243e-20
1.3504141e-19
-5.2146336e-32
-9.7969443e-20
0
0
1.1111254e-19
-1.2862018e-31
-6.7038341e-32
1.2595471e-19
-6.5656131e-20
-1.3688329e-19
-1.4267686e-19
7.4352919e-20
2.3247574e-19
8.0760593e-20
0
0
0
-2.8562498e-19
-1.9837946e-19
3.0999802e-19
-2.3900219e-31
-1.1212938e-19
1.6597588e-35
-1.2164749e-19
2.5338781e-19
-1.4647639e-31
-1.3740148e-19
2.8615662e-19
0
-8.6126431e-32
-3.2301444e-19
-3.3629464e-19
5.2515538e-19
3.6446053e-19
-1.8969305e-19
-1.0957293e-31
2.0552021e-19
-6.4172549e-19
-4.4525803e-19
2.3169438e-19
2.4111701e-19
-2.5091061e-19
-2.6109073e-19
2.7167281e-19
2.8267168e-19
-1.6324956e-31
1.6980059e-31
3.1832919e-19
0
3.4448967e-19
-7.1668667e-19
-1.1182157e-18
7.7539166e-19
8.0647278e-19
4.1938186e-19
-4.8413695e-31
-9.0716367e-19
4.7168513e-19
-4.904908e-19
-5.1002535e-19
1.0606318e-18
-1.1027825e-18
-5.7328164e-19
5.9601735e-19
1.2392597e-18
6.4415209e-19
-1.3392354e-18
3.8616933e-31
-7.235217e-19
-7.5203584e-19
2.344929e-18
-8.1238381e-19
-8.4430047e-19
2.6323086e-18
-1.2957971e-34
-2.8426434e-18
-9.8462004e-19
3.0693091e-18
-1.0630487e-18
2.1962233e-46
-1.9105992e-30
-2.3844212e-18
2.4771315e-18
2.5733474e-18
-1.3365987e-18
1.5413429e-30
2.8843359e-18
-1.4979523e-18
-4.667502e-18
-1.6158897e-18
1.678199e-18
0
1.8099085e-18
3.7589624e-18
-2.773465e-34
-6.0795484e-18
-2.1041697e-18
4.3694287e-18
-3.2233832e-34
-4.7097941e-18
4.8895083e-18
-4.2269713e-30
-5.2691525e-18
8.2043519e-18
5.6773837e-18
0
0
-3.1739597e-18
-9.8821038e-18
-3.4185165e-18
1.0642685e-17
-4.0868369e-30
-7.6399837e-18
7.9274331e-18
8.2253671e-18
-4.2670772e-18
-8.8541764e-18
4.5929131e-18
4.7647552e-18
-1.4828475e-17
-5.1273393e-18
-8.8580649e-30
3.0605688e-30
5.7218343e-18
-5.9344483e-18
1.2309412e-17
1.9148612e-17
0
-2.0592064e-17
-1.4235157e-17
2.2140559e-17
-2.1748726e-33
-7.9337954e-18
1.6450884e-17
-8.5274299e-18
-8.8401069e-18
-1.0173244e-29
9.4989676e-18
1.9691798e-17
-1.0205022e-17
-2.1153539e-17
-2.192333e-17
1.2615398e-29
1.1792681e-17
-1.2220636e-17
2.5291602e-17
3.9317462e-17
0
-4.2205906e-17
-2.9148104e-17
4.5291951e-17
-1.7365863e-29
-1.6198421e-17
1.6777125e-17
1.7375576e-17
-9.9830943e-30
-3.7267909e-17
1.0710295e-29
3.9957384e-17
-2.2960742e-29
-2.3771232e-29
-4.4339857e-17
-6.8849147e-17
4.7510948e-17
-2.7303409e-29
-8.474663e-29
2.633668e-17
2.7254528e-17
5.6405097e-17
-8.7544929e-17
-3.0192736e-17
6.2473543e-17
-6.4629429e-17
-1.9001367e-32
1.0372894e-16
3.5762012e-17
-3.6985724e-17
-1.1474556e-16
1.3173583e-28
8.1791698e-17
4.2282652e-17
-8.7426247e-17
-1.3556538e-16
1.4012956e-16
4.8278615e-17
5.5377995e-29
5.1563286e-17
-1.0656349e-16
3.0558494e-29
-5.6877765e-17
5.8757987e-17
-2.021763e-28
-1.8806998e-16
1.9423382e-16
2.0058076e-16
0
0
0
-7.5962795e-17
-2.3521801e-16
-8.0919324e-17
-9.2702468e-29
-8.6162514e-17
2.6668659e-16
9.1704919e-17
-9.4592263e-17
-9.7559141e-17
-1.0060712e-16
2.0747555e-16
-1.0695267e-16
1.1025334e-16
-3.7847748e-28
-2.3423637e-16
3.6205609e-16
2.4868873e-16
0
-2.6388714e-16
-1.5085476e-28
1.3992698e-16
-4.3219826e-16
-1.4830514e-16
1.5264531e-16
0
0
1.6628355e-16
3.4207767e-16
-3.905519e-28
-3.617365e-16
-1.859438e-16
1.9112734e-16
-1.9641905e-16
2.0181964e-16
-2.9099532e-44
-3.5466693e-28
6.5602402e-16
0
0
-4.7301158e-16
-4.8532841e-16
-2.4892852e-16
2.8338293e-28
7.8531141e-16
-2.9798032e-28
-5.5004095e-16
0
5.7732816e-16
2.9562793e-16
-6.0536624e-16
3.0982671e-16
3.1705565e-16
-9.7309969e-16
3.3175579e-16
-1.1297555e-27
-6.9350689e-16
1.0630597e-15
7.2402838e-16
0
0
0
-1.179496e-15
-8.0210311e-16
1.2268945e-15
8.337969e-16
0
-8.6559806e-16
4.8930093e-28
4.4869484e-16
-9.1324347e-16
4.645237e-16
-4.7239259e-16
-4.8021984e-16
1.4639895e-15
-9.9142794e-16
-1.0067262e-15
5.1093435e-16
-5.1841918e-16
1.0516155e-15
1.5992694e-15
0
-1.6419043e-15
-1.1084188e-15
5.6097357e-16
5.6758528e-16
-6.3726433e-28
5.8030934e-16
-1.9533276e-27
-5.923089e-16
-3.3202828e-28
1.0912792e-45
6.0879285e-16
0
6.1867398e-16
-1.2465167e-15
-1.8827868e-15
1.8950368e-15
1.9065048e-15
0
-1.2846832e-15
-1.2906959e-15
1.2961441e-15
-6.5050965e-16
-6.5265687e-16
1.9635317e-15
-1.3121356e-15
-1.3146529e-15
6.5828479e-16
1.3178816e-15
6.5928559e-16
-1.9779447e-15
-6.5903458e-16
-1.0964755e-27
1.3151492e-15
3.7311653e-31
-1.9647593e-15
1.3063102e-15
1.9532912e-15
6.4875852e-16
-1.9384197e-15
-1.2864835e-15
1.9202382e-15
-1.413738e-27
-1.2659219e-15
-6.2902997e-16
3.4683559e-28
1.2408283e-15
-6.8360585e-28
6.109083e-16
6.0581091e-16
-1.8015818e-15
-5.9504591e-16
-6.5428289e-28
1.1670145e-15
-1.9232704e-27
-1.7138591e-15
1.129886e-15
-6.2028626e-28
-6.1308406e-28
-1.210394e-27
-5.3820931e-16
1.593695e-15
-5.24155e-16
-8.6075386e-28
-1.6976542e-27
-1.5072371e-15
4.9502274e-16
9.7515252e-16
-5.3296272e-28
4.725443e-16
4.6497468e-16
-9.1475857e-16
-8.9953098e-16
4.9078047e-28
1.3035342e-15
-4.7378545e-28
-4.1926674e-16
8.2332778e-16
-4.0408221e-16
-3.9652738e-16
2.1581667e-28
-2.1177256e-28
3.740776e-16
-7.3336539e-16
3.5933995e-16
-1.1726975e-27
-1.1484284e-27
1.0129912e-15
-6.6113942e-16
9.1957443e-32
6.3319229e-16
-3.0972302e-16
-9.0879408e-16
-2.9622092e-16
8.6877699e-16
-3.1423031e-28
-2.7660241e-16
5.4048635e-16
-5.2794936e-16
-1.2881065e-27
2.5171949e-16
-2.4573371e-16
2.3984376e-16
-4.6810129e-16
2.2835505e-16
6.6827256e-16
0
0
-4.1311067e-16
-5.7227571e-32
3.9249246e-16
-1.9123894e-16
-5.5898812e-16
-1.8151711e-16
5.304049e-16
4.893716e-32
1.8612645e-28
3.2645901e-16
-4.766833e-16
-7.7263875e-28
1.5050266e-16
-1.4644407e-16
-1.4247566e-16
1.539418e-28
1.3480508e-16
-2.6220137e-16
2.5496403e-16
-4.1280282e-28
-2.4099389e-16
3.5138429e-16
2.2768013e-16
-1.1063152e-16
-3.225032e-16
-1.0444746e-16
1.0146959e-16
0
-9.5735392e-17
9.2975708e-17
2.7085896e-16
4.866161e-29
-1.7022963e-16
8.2628771e-17
8.0206966e-17
-1.5569733e-16
7.5552606e-17
-7.3317014e-17
-1.4228171e-16
2.0707152e-16
-2.2302453e-28
1.442561e-28
1.2603066e-16
-1.2224099e-16
-5.9277319e-17
-5.7484783e-17
-6.1929492e-29
5.4047573e-17
-1.0480149e-16
1.0160055e-16
1.4773514e-16
0
-4.6265917e-17
2.4889523e-29
1.2350567e-32
-1.2632827e-16
-4.0803036e-17
1.1860363e-16
-3.8302971e-17
-6.1166913e-45
1.0784029e-16
-3.4820283e-17
-1.0118107e-16
-3.2666107e-17
6.3273334e-17
-3.0637857e-17
2.9668855e-17
-9.5680207e-29
-5.563418e-17
8.07983e-17
2.896218e-29
-1.1211059e-28
4.8873993e-17
-4.7310193e-17
-2.5419219e-29
2.2162204e-17
-4.2899683e-17
-2.0759352e-17
0
0
3.76266e-17
-4.0418966e-29
-1.0012443e-32
-1.8919719e-29
-1.6488933e-17
-1.595268e-17
1.543282e-17
1.4928936e-17
-2.8882302e-17
2.7938997e-17
-1.5001788e-29
-2.6142332e-17
2.5284218e-17
4.0717983e-29
-1.3125524e-29
1.143405e-17
-2.2116022e-17
1.0693994e-17
-2.2960524e-29
-1.9998607e-17
0
1.8697944e-17
9.0401578e-18
-1.7483046e-17
-8.4524736e-18
8.1725736e-18
-1.3160122e-29
-7.6391983e-18
0
0
1.3804567e-17
1.3345211e-17
0
-1.2471487e-17
-6.028083e-18
5.8272956e-18
-5.6331613e-18
5.4454696e-18
0
-1.0177216e-17
0
0
4.5967417e-18
-4.9331161e-30
-4.29568e-18
0
4.0145242e-18
2.1542568e-30
-3.7520114e-18
0
7.0139467e-18
6.7813227e-18
-3.2783091e-18
-3.5184956e-30
3.0649722e-18
-5.9274854e-18
-5.7319674e-18
5.5431683e-18
7.6182572e-34
5.7567257e-30
7.1266603e-34
-4.850897e-18
2.3462698e-18
-2.5198703e-30
2.1960785e-18
-2.1248913e-18
-6.1685902e-18
5.9697382e-18
1.9259595e-18
-1.8642596e-18
-2.0032779e-30
-1.7473265e-18
3.3839087e-18
3.27711e-18
-3.174122e-18
-5.1198335e-30
-1.4895387e-18
-1.443398e-18
2.7978542e-18
-1.3560604e-18
1.4593711e-30
-7.0803835e-31
1.2365767e-18
2.3993507e-18
-2.3282705e-18
-2.2597337e-18
0
1.0650344e-18
1.1484627e-30
-2.0103786e-18
-1.0845525e-30
2.848997e-18
1.8467604e-18
0
-1.7479941e-18
-1.8887723e-30
-8.2841844e-19
-8.0686902e-19
2.3586853e-18
-4.2538495e-31
-1.4955204e-18
7.296922e-19
1.4244492e-18
-6.9536232e-19
-1.3583827e-18
-6.6375622e-19
0
1.2694722e-18
-6.2092566e-19
-1.8228161e-18
5.9492239e-19
5.8300185e-19
1.1437162e-18
5.6139514e-19
-1.1029517e-18
-5.4199516e-19
-5.3290392e-19
5.8192297e-31
5.1581087e-19
5.0776019e-19
1.0000538e-18
4.9265013e-19
0
0
0
-9.3548586e-19
-9.2526588e-19
9.1574381e-19
5.0336013e-31
4.9870068e-31
-4.9414982e-31
-9.8023751e-31
8.7565428e-19
0
-8.6279319e-19
-4.2861854e-19
4.2609413e-19
-4.2377076e-19
-4.2161919e-19
0
0
8.3271687e-19
-1.3824054e-30
-9.1930675e-31
8.2649316e-19
-8.2535369e-19
-8.2466316e-19
0
8.2456619e-19
-4.5787206e-31
-8.2594251e-19
8.2703617e-19
4.5986135e-31
-8.2960505e-19
0
8.3297925e-19
4.1751259e-19
-8.3732249e-19
4.1993701e-19
9.3573911e-31
-8.4572567e-19
8.4901263e-19
8.5253e-19
0
0
0
-8.6871943e-19
-8.732577e-19
8.7798625e-19
0
-8.8800535e-19
0
-4.4936446e-19
9.0433592e-19
4.5505345e-19
-4.5802416e-19
9.2216488e-19
4.6422806e-19
-9.3491553e-19
-4.7076577e-19
-5.2643978e-31
4.7758545e-19
-1.0681471e-30
2.7547891e-34
9.7644296e-19
0
-4.9555211e-19
-9.9857898e-19
-5.0307579e-19
0
0
0
-5.1875851e-19
1.0456303e-18
5.2691833e-19
-5.3106304e-19
-5.3524855e-19
5.3947898e-19
5.4376023e-19
-1.096193e-18
0
1.1138656e-18
1.1228485e-18
0
0
-1.1502173e-18
-6.4357019e-31
-5.8433185e-19
-5.8896488e-19
5.9361717e-19
-5.9829325e-19
6.0299643e-19
1.215458e-18
6.1249256e-19
0
-1.2442295e-18
-6.9585671e-31
6.3186061e-19
-6.3677759e-19
-6.4172186e-19
-1.2933827e-18
1.3033686e-18
6.566992e-19
-1.8807637e-34
6.6679089e-19
-1.3437346e-18
6.7696423e-19
-6.8208189e-19
1.1899901e-47
6.923792e-19
-1.3951172e-18
1.4055166e-18
1.4159564e-18
0
-7.1847886e-19
-1.4475187e-18
4.0468361e-31
7.3438003e-19
7.3971959e-19
-1.4901571e-18
-1.5009136e-18
7.5585437e-19
1.5225429e-18
1.5334158e-18
-7.7216369e-19
-1.5552779e-18
7.8313356e-19
-7.8864747e-19
1.3222662e-30
7.9973312e-19
-1.6106091e-18
1.6217902e-18
9.0621213e-31
-4.5636957e-30
1.6555599e-18
-1.6668914e-18
-3.7262458e-30
8.4483188e-19
-1.701104e-18
8.5628965e-19
-2.4500786e-34
3.8536353e-30
8.7360591e-19
-1.758822e-18
1.9654845e-30
-4.9448429e-31
8.9692057e-19
-2.5658757e-34
-1.8173368e-18
1.8291264e-18
5.2322736e-34
-4.1137469e-30
1.864654e-18
-1.8765465e-18
-2.0964795e-30
1.9003993e-18
-9.561794e-19
-9.6216961e-19
-9.6816958e-19
9.7417882e-19
-1.0881677e-30
-1.9724485e-18
0
0
2.0087182e-18
2.8717951e-34
-2.0329954e-18
1.0225836e-18
-1.1417005e-30
1.0347922e-18
2.3111501e-30
-2.0941071e-18
0
-1.0593688e-18
2.1310905e-18
1.0717327e-18
-2.393637e-30
1.0841329e-18
-2.180681e-18
1.0965496e-18
-1.2239177e-30
-2.2179429e-18
0
0
1.1274532e-18
-6.2922683e-31
1.1397811e-18
-1.1459337e-18
-3.4555041e-18
3.4722042e-18
1.1627388e-18
-2.3359149e-18
1.1731341e-18
1.9621173e-30
1.1837929e-18
-6.7606029e-34
-3.9802817e-30
1.2008052e-18
-2.4133739e-18
-1.21264e-18
0
-1.2246268e-18
1.2306418e-18
1.2366448e-18
1.242636e-18
-2.7723802e-30
1.392732e-30
-1.39969e-30
-2.5341498e-18
1.272712e-18
2.1284738e-30
-2.5679375e-18
1.8327982e-34
1.2955992e-18
2.603132e-18
2.6149348e-18
-2.6265258e-18
-1.4650454e-30
-1.3247709e-18
-1.3305899e-18
2.6729226e-18
-2.6847652e-18
-1.3483235e-18