/*--------------------------------*- C++ -*----------------------------------*\
  =========                 |
  \\      /  F ield         | OpenFOAM: The Open Source CFD Toolbox
   \\    /   O peration     | Website:  https://openfoam.org
    \\  /    A nd           | Version:  7
     \\/     M anipulation  |
\*---------------------------------------------------------------------------*/
FoamFile
{
    version     2.0;
    format      ascii;
    class       surfaceScalarField;
    location    "0.0009";
    object      phi;
}
// * * * * * * * * * * * * * * * * * * * * * * * * * * * * * * * * * * * * * //

dimensions      [1 0 -1 0 0 0 0];

internalField   nonuniform List<scalar> 
4999
(
-4.2632564e-14
-4.9737992e-14
-4.2632564e-14
-3.5527137e-14
-4.9737992e-14
-4.2632564e-14
-4.2632564e-14
-4.9737992e-14
-6.3948846e-14
-5.6843419e-14
-4.2632564e-14
-4.2632564e-14
-5.6843419e-14
-5.6843419e-14
-4.9737992e-14
-6.3948846e-14
-7.1054274e-14
-6.3948846e-14
-5.6843419e-14
-6.3948846e-14
-5.6843419e-14
-5.6843419e-14
-5.6843419e-14
-5.6843419e-14
-6.3948846e-14
-6.3948846e-14
-7.1054274e-14
-6.3948846e-14
-7.1054274e-14
-7.1054274e-14
-6.3948846e-14
-7.1054274e-14
-6.3948846e-14
-4.2632564e-14
-4.9737992e-14
-5.6843419e-14
-5.6843419e-14
-5.6843419e-14
-5.6843419e-14
-6.3948846e-14
-6.3948846e-14
-5.6843419e-14
-6.3948846e-14
-7.8159701e-14
-5.6843419e-14
-7.1054274e-14
-6.3948846e-14
-7.1054274e-14
-7.1054274e-14
-8.5265128e-14
-7.1054274e-14
-7.8159701e-14
-9.2370556e-14
-6.3948846e-14
-7.1054274e-14
-7.8159701e-14
-7.1054274e-14
-6.3948846e-14
-5.6843419e-14
-3.5527137e-14
-5.6843419e-14
-4.9737992e-14
-4.9737992e-14
-4.9737992e-14
-6.3948846e-14
-4.2632564e-14
-4.2632564e-14
-4.9737992e-14
-3.5527137e-14
-4.2632564e-14
-5.6843419e-14
-5.6843419e-14
-5.6843419e-14
-6.3948846e-14
-6.3948846e-14
-5.6843419e-14
-7.1054274e-14
-6.3948846e-14
-6.3948846e-14
-7.1054274e-14
-6.3948846e-14
-5.6843419e-14
-4.9737992e-14
-4.9737992e-14
-5.6843419e-14
-5.6843419e-14
-6.3948846e-14
-5.6843419e-14
-6.3948846e-14
-6.3948846e-14
-6.3948846e-14
-5.6843419e-14
-6.3948846e-14
-6.3948846e-14
-7.1054274e-14
-6.3948846e-14
-7.1054274e-14
-6.3948846e-14
-5.6843419e-14
-5.6843419e-14
-5.6843419e-14
-5.6843419e-14
-5.6843419e-14
-4.9737992e-14
-7.1054274e-14
-7.8159701e-14
-7.1054274e-14
-7.1054274e-14
-4.9737992e-14
-6.3948846e-14
-6.3948846e-14
-5.6843419e-14
-4.9737992e-14
-4.2632564e-14
-4.2632564e-14
-4.2632564e-14
-3.5527137e-14
-3.5527137e-14
-3.5527137e-14
-4.9737992e-14
-3.5527137e-14
-4.2632564e-14
-4.2632564e-14
-4.9737992e-14
-3.5527137e-14
-2.8421709e-14
-2.8421709e-14
-2.8421709e-14
-2.8421709e-14
-2.1316282e-14
-2.8421709e-14
-2.1316282e-14
-2.8421709e-14
-2.8421709e-14
-2.8421709e-14
-3.5527137e-14
-2.1316282e-14
-2.8421709e-14
-2.8421709e-14
-3.5527137e-14
-1.4210855e-14
-2.1316282e-14
-6.3108872e-30
-7.1054274e-15
-1.4210855e-14
-2.1316282e-14
-2.1316282e-14
-1.4210855e-14
-1.4210855e-14
-7.1054274e-15
-7.1054274e-15
-7.1054274e-15
-3.1554436e-30
-2.1316282e-14
0
1.4210855e-14
7.1054274e-15
1.4210855e-14
-6.3108872e-30
-1.4210855e-14
-1.4210855e-14
-7.1054274e-15
-3.1554436e-30
-1.4210855e-14
-7.1054274e-15
-7.1054274e-15
0
-2.3665827e-30
-7.1054274e-15
-1.4210855e-14
-7.1054274e-15
-7.1054274e-15
7.1054274e-15
5.5220263e-30
3.9443045e-31
-1.4210855e-14
-7.1054274e-15
-7.1054274e-15
-1.7552155e-29
7.1054274e-15
0
7.1054274e-15
-6.8737649e-56
3.0814879e-33
7.1054274e-15
0
-1.4210855e-14
7.1054274e-15
1.1438483e-29
-7.1054274e-15
-1.7460003e-56
9.8607613e-32
7.1054274e-15
0
0
-6.3108872e-30
1.4210855e-14
-7.1054274e-15
-1.4210855e-14
-7.1054274e-15
-2.1316282e-14
-1.4210855e-14
-7.1054274e-15
-4.7331654e-30
-1.4210855e-14
-7.1054274e-15
-7.1054274e-15
-7.1054274e-15
-7.1054274e-15
7.1054274e-15
2.1316282e-14
2.1316282e-14
2.1316282e-14
2.1316282e-14
7.1054274e-15
-7.8886091e-30
7.1054274e-15
7.1054274e-15
1.4210855e-14
2.1316282e-14
7.1054274e-15
2.8421709e-14
1.4210855e-14
2.1316282e-14
7.1054274e-15
2.1316282e-14
7.1054274e-15
-2.8990638e-29
7.1054274e-15
7.1054274e-15
7.1054274e-15
1.4210855e-14
7.1054274e-15
2.1316282e-14
-1.5777218e-30
-1.4210855e-14
-7.8886091e-31
-7.1054274e-15
-2.1316282e-14
-2.1316282e-14
-1.4210855e-14
-2.1316282e-14
-1.4210855e-14
-2.1316282e-14
-7.1054274e-15
-7.1054274e-15
-1.4210855e-14
-2.1316282e-14
-1.4210855e-14
-2.8421709e-14
-2.1316282e-14
-7.1054274e-15
-8.6549311e-31
1.2511593e-42
-6.3809127e-42
7.1054274e-15
2.8421709e-14
2.1316282e-14
7.1054274e-15
7.1054274e-15
2.1316282e-14
2.8421709e-14
1.4210855e-14
2.8421709e-14
2.8421709e-14
3.5527137e-14
3.5527137e-14
3.5527137e-14
2.8421709e-14
3.5527137e-14
2.8421709e-14
2.1316282e-14
2.8421709e-14
2.1316282e-14
2.8421709e-14
2.8421709e-14
1.4210855e-14
1.4210855e-14
2.1316282e-14
2.8421709e-14
2.1316282e-14
1.4210855e-14
7.1054274e-15
1.4210855e-14
2.8421709e-14
2.1316282e-14
3.5527137e-14
1.4210855e-14
1.4210855e-14
2.8421709e-14
2.1316282e-14
1.4210855e-14
2.1316282e-14
1.4210855e-14
1.4210855e-14
-6.2557967e-43
7.1054274e-15
7.1054274e-15
7.1054274e-15
-4.7331654e-30
-7.1054274e-15
1.5777218e-30
-7.1054274e-15
3.9443045e-29
1.876739e-42
-1.4210855e-14
-2.1316282e-14
-2.1316282e-14
-3.5527137e-14
-2.1316282e-14
-2.1316282e-14
-2.1316282e-14
-2.1316282e-14
-2.1316282e-14
-1.4210855e-14
-2.8421709e-14
-2.1316282e-14
-2.8421709e-14
-2.1316282e-14
-4.9737992e-14
-4.9737992e-14
-5.6843419e-14
-5.6843419e-14
-7.1054274e-14
-6.3948846e-14
-6.3948846e-14
-6.3948846e-14
-4.9737992e-14
-4.9737992e-14
-5.6843419e-14
-7.1054274e-14
-7.1054274e-14
-7.8159701e-14
-7.8159701e-14
-6.3948846e-14
-7.8159701e-14
-7.8159701e-14
-8.5265128e-14
-7.8159701e-14
-7.1054274e-14
-8.5265128e-14
-7.1054274e-14
-6.3948846e-14
-7.1054274e-14
-7.1054274e-14
-7.8159701e-14
-7.8159701e-14
-8.5265128e-14
-7.8159701e-14
-6.3948846e-14
-7.1054274e-14
-7.8159701e-14
-7.1054274e-14
-6.3948846e-14
-7.1054274e-14
-8.5265128e-14
-7.8159701e-14
-7.1054274e-14
-8.5265128e-14
-7.8159701e-14
-7.1054274e-14
-7.1054274e-14
-8.5265128e-14
-7.8159701e-14
-7.8159701e-14
-7.1054274e-14
-6.3948846e-14
-7.1054274e-14
-6.3948846e-14
-6.3948846e-14
-7.1054274e-14
-7.1054274e-14
-6.3948846e-14
-4.9737992e-14
-5.6843419e-14
-6.3948846e-14
-6.3948846e-14
-4.9737992e-14
-3.5527137e-14
-2.1316282e-14
-2.1316282e-14
-2.1316282e-14
-2.1316282e-14
-2.8421709e-14
-2.1316282e-14
-2.1316282e-14
-1.4210855e-14
-1.4210855e-14
5.2166648e-56
-7.1054274e-15
2.9751326e-31
1.4210855e-14
2.1316282e-14
2.8421709e-14
3.5527137e-14
3.5527137e-14
4.9737992e-14
2.8421709e-14
4.2632564e-14
3.5527137e-14
4.9737992e-14
5.6843419e-14
7.1054274e-14
7.8159701e-14
8.5265128e-14
9.9475983e-14
1.2789769e-13
1.563194e-13
1.7763568e-13
1.9184654e-13
2.1316282e-13
2.2737368e-13
2.7000624e-13
2.9132252e-13
3.126388e-13
3.5527137e-13
3.9790393e-13
4.3343107e-13
4.6185278e-13
4.9737992e-13
5.4711791e-13
6.0396133e-13
6.6791017e-13
7.3185902e-13
8.1001872e-13
8.8107299e-13
9.5212727e-13
1.0373924e-12
1.1297629e-12
1.2363444e-12
1.3500312e-12
1.4708235e-12
1.612932e-12
1.7550406e-12
1.9255708e-12
2.0961011e-12
2.2879476e-12
2.494005e-12
2.7142733e-12
2.9629632e-12
3.2400749e-12
3.5100811e-12
3.8298253e-12
4.1850967e-12
4.5545789e-12
4.9595883e-12
5.3930194e-12
5.8619776e-12
6.3735683e-12
6.9206862e-12
7.531753e-12
8.1854523e-12
8.8959951e-12
9.6704866e-12
1.0523138e-11
1.1432633e-11
1.2427392e-11
1.3500312e-11
1.4665602e-11
1.5923263e-11
1.729461e-11
1.8779645e-11
2.0406787e-11
2.2154723e-11
2.4051872e-11
2.6119551e-11
2.8329339e-11
3.0730973e-11
3.3359981e-11
3.6202152e-11
3.9271697e-11
4.2604142e-11
4.6199489e-11
5.0100368e-11
5.4313887e-11
5.8875571e-11
6.3813843e-11
6.9171335e-11
7.4976469e-11
8.1236351e-11
8.8022034e-11
9.5340624e-11
1.0328449e-10
1.1186074e-10
1.2113333e-10
1.3116619e-10
1.4199486e-10
1.5371171e-10
1.6637358e-10
1.8005153e-10
1.9481661e-10
2.1076829e-10
2.2800606e-10
2.4661517e-10
2.6671643e-10
2.884164e-10
3.11843e-10
3.3713121e-10
3.6441605e-10
3.9386805e-10
4.2564352e-10
4.599201e-10
4.9689675e-10
5.3680083e-10
5.7980287e-10
6.2618e-10
6.7618799e-10
7.3009687e-10
7.8819085e-10
8.5079677e-10
9.1827701e-10
9.9095843e-10
1.0692673e-09
1.1536088e-09
1.2444588e-09
1.3422934e-09
1.4476242e-09
1.5610269e-09
1.683091e-09
1.8144632e-09
1.955847e-09
2.10796e-09
2.2716264e-09
2.4476492e-09
2.637023e-09
2.8406291e-09
3.0595828e-09
3.2949998e-09
3.5480525e-09
3.820027e-09
4.11233e-09
4.4264183e-09
4.7638693e-09
5.1263953e-09
5.5157798e-09
5.9339769e-09
6.383047e-09
6.8652071e-09
7.382809e-09
7.9383966e-09
8.5346628e-09
9.1745065e-09
9.86104e-09
1.059756e-08
1.1387584e-08
1.2234871e-08
1.314347e-08
1.4117681e-08
1.5162115e-08
1.628166e-08
1.7481533e-08
1.8767359e-08
2.014508e-08
2.1621069e-08
2.3202119e-08
2.4895456e-08
2.6708825e-08
2.8650462e-08
3.072914e-08
3.2954233e-08
3.5335724e-08
3.7884249e-08
4.0611148e-08
4.3528473e-08
4.6649106e-08
4.9986731e-08
5.3555958e-08
5.7372326e-08
6.1452347e-08
6.5813651e-08
7.0474954e-08
7.5456192e-08
8.0778584e-08
8.6464702e-08
9.2538521e-08
9.9025549e-08
1.0595296e-07
1.1334957e-07
1.2124604e-07
1.2967494e-07
1.3867093e-07
1.4827076e-07
1.5851352e-07
1.6944066e-07
1.810963e-07
1.9352721e-07
2.0678304e-07
2.2091653e-07
2.3598364e-07
2.5204368e-07
2.6915966e-07
2.8739835e-07
3.0683062e-07
3.2753159e-07
3.4958089e-07
3.7306292e-07
3.9806719e-07
4.2468849e-07
4.530273e-07
4.8319004e-07
5.1528939e-07
5.4944475e-07
5.857825e-07
6.244364e-07
6.6554812e-07
7.092675e-07
7.5575313e-07
8.0517279e-07
8.5770393e-07
9.1353429e-07
9.7286225e-07
1.0358977e-06
1.1028624e-06
1.1739907e-06
1.2495304e-06
1.3297432e-06
1.4149055e-06
1.5053092e-06
1.6012628e-06
1.7030917e-06
1.8111397e-06
1.9257692e-06
2.0473633e-06
2.1763256e-06
2.3130822e-06
2.4580824e-06
2.6118001e-06
2.7747347e-06
2.947413e-06
3.1303902e-06
3.3242511e-06
3.5296122e-06
3.7471227e-06
3.9774665e-06
4.2213638e-06
4.4795729e-06
4.7528921e-06
5.0421615e-06
5.3482653e-06
5.6721339e-06
6.0147458e-06
6.3771303e-06
6.7603699e-06
7.1656026e-06
7.5940247e-06
8.0468938e-06
8.525531e-06
9.0313247e-06
9.5657332e-06
1.0130288e-05
1.0726598e-05
1.1356351e-05
1.202132e-05
1.2723365e-05
1.3464438e-05
1.4246587e-05
1.5071961e-05
1.5942811e-05
1.6861501e-05
1.7830506e-05
1.8852422e-05
1.992997e-05
2.1065999e-05
2.2263495e-05
2.3525585e-05
2.4855544e-05
2.62568e-05
2.7732942e-05
2.9287726e-05
3.0925082e-05
3.2649121e-05
3.4464146e-05
3.6374653e-05
3.8385345e-05
4.0501138e-05
4.272717e-05
4.5068812e-05
4.7531672e-05
5.0121611e-05
5.2844747e-05
5.5707473e-05
5.8716457e-05
6.1878664e-05
6.5201359e-05
6.8692124e-05
7.2358866e-05
7.6209832e-05
8.0253624e-05
8.4499205e-05
8.8955921e-05
9.363351e-05
9.8542117e-05
0.00010369231
0.0001090951
0.00011476194
0.00012070477
0.000126936
0.00013346855
0.00014031588
0.00014749195
0.00015501133
0.00016288912
0.00017114105
0.00017978344
0.00018883329
0.00019830822
0.00020822655
0.00021860729
0.0002294702
0.00024083578
0.00025272528
0.0002651608
0.0002781652
0.00029176225
0.00030597655
0.00032083363
0.00033635993
0.00035258286
0.00036953081
0.00038723319
0.00040572044
0.00042502409
0.00044517677
0.00046621223
0.00048816541
0.00051107243
0.00053497066
0.00055989873
0.00058589655
0.00061300538
0.00064126786
0.000670728
0.00070143128
0.00073342464
0.00076675652
0.00080147693
0.00083763746
0.00087529131
0.00091449334
0.00095530014
0.00099776999
0.001041963
0.001087941
0.0011357679
0.0011855092
0.0012372325
0.0012910073
0.0013469054
0.0014050002
0.0014653675
0.0015280851
0.0015932331
0.0016608938
0.0017311515
0.0018040932
0.0018798079
0.0019583871
0.0020399247
0.0021245172
0.0022122633
0.0023032645
0.0023976246
0.0024954502
0.0025968505
0.0027019373
0.0028108252
0.0029236315
0.0030404762
0.0031614823
0.0032867754
0.0034164841
0.0035507399
0.0036896773
0.0038334334
0.0039821487
0.0041359666
0.0042950333
0.0044594982
0.0046295139
0.0048052359
0.0049868228
0.0051744363
0.0053682415
0.0055684062
0.0057751018
0.0059885025
0.0062087858
0.0064361325
0.0066707262
0.0069127541
0.0071624062
0.0074198759
0.0076853597
0.0079590571
0.0082411709
0.0085319069
0.008831474
0.0091400842
0.0094579525
0.009785297
0.010122339
0.010469302
0.010826413
0.011193902
0.011572002
0.011960948
0.012360978
0.012772334
0.013195258
0.013629997
0.0140768
0.014535918
0.015007605
0.015492116
0.01598971
0.016500648
0.017025191
0.017563605
0.018116156
0.018683112
0.019264745
0.019861325
0.020473127
0.021100426
0.021743498
0.02240262
0.023078074
0.023770137
0.024479092
0.025205221
0.025948806
0.026710131
0.027489481
0.028287138
0.029103389
0.029938518
0.030792811
0.031666551
0.032560024
0.033473515
0.034407306
0.035361682
0.036336924
0.037333315
0.038351135
0.039390663
0.040452179
0.041535958
0.042642276
0.043771406
0.04492362
0.046099188
0.047298377
0.048521453
0.049768679
0.051040314
0.052336616
0.053657842
0.055004241
0.056376064
0.057773555
0.059196957
0.060646509
0.062122446
0.063625
0.065154397
0.066710861
0.068294612
0.069905865
0.071544831
0.073211715
0.07490672
0.076630043
0.078381875
0.080162404
0.081971812
0.083810276
0.085677968
0.087575054
0.089501696
0.091458049
0.093444262
0.09546048
0.097506842
0.09958348
0.10169052
0.10382808
0.10599629
0.10819523
0.11042503
0.11268577
0.11497755
0.11730044
0.11965453
0.12203989
0.12445657
0.12690464
0.12938415
0.13189514
0.13443765
0.13701172
0.13961736
0.14225459
0.14492343
0.14762388
0.15035594
0.1531196
0.15591484
0.15874165
0.16159998
0.16448982
0.16741111
0.17036381
0.17334786
0.1763632
0.17940976
0.18248747
0.18559624
0.18873599
0.19190662
0.19510804
0.19834013
0.20160279
0.20489588
0.2082193
0.2115729
0.21495655
0.2183701
0.2218134
0.2252863
0.22878864
0.23232024
0.23588094
0.23947056
0.24308891
0.2467358
0.25041103
0.25411441
0.25784573
0.26160477
0.26539133
0.26920517
0.27304607
0.2769138
0.28080812
0.28472879
0.28867557
0.2926482
0.29664642
0.30066999
0.30471862
0.30879205
0.31289002
0.31701223
0.32115842
0.32532829
0.32952155
0.33373791
0.33797708
0.34223875
0.34652261
0.35082836
0.35515568
0.35950427
0.36387379
0.36826393
0.37267436
0.37710476
0.38155479
0.38602411
0.39051239
0.39501928
0.39954445
0.40408755
0.40864822
0.41322611
0.41782088
0.42243216
0.42705959
0.43170281
0.43636146
0.44103517
0.44572356
0.45042628
0.45514295
0.45987318
0.46461661
0.46937286
0.47414153
0.47892226
0.48371465
0.48851833
0.49333289
0.49815795
0.50299312
0.507838
0.51269221
0.51755533
0.52242699
0.52730677
0.53219428
0.53708911
0.54199087
0.54689914
0.55181353
0.55673362
0.561659
0.56658928
0.57152403
0.57646286
0.58140533
0.58635105
0.5912996
0.59625057
0.60120353
0.60615808
0.61111379
0.61607025
0.62102703
0.62598373
0.63093992
0.63589518
0.64084909
0.64580123
0.65075117
0.65569849
0.66064278
0.6655836
0.67052053
0.67545314
0.68038102
0.68530374
0.69022088
0.695132
0.70003669
0.70493452
0.70982506
0.7147079
0.7195826
0.72444873
0.72930589
0.73415364
0.73899155
0.74381921
0.74863619
0.75344207
0.75823642
0.76301882
0.76778885
0.77254609
0.77729012
0.78202053
0.78673688
0.79143876
0.79612576
0.80079747
0.80545345
0.81009331
0.81471663
0.81932299
0.82391199
0.82848322
0.83303628
0.83757075
0.84208623
0.84658232
0.85105863
0.85551475
0.85995029
0.86436485
0.86875805
0.87312948
0.87747878
0.88180555
0.88610941
0.89038998
0.89464689
0.89887977
0.90308824
0.90727194
0.91143051
0.91556359
0.91967081
0.92375184
0.92780632
0.93183391
0.93583426
0.93980705
0.94375195
0.94766861
0.95155673
0.95541599
0.95924608
0.96304668
0.9668175
0.97055824
0.97426862
0.97794834
0.98159712
0.98521471
0.98880082
0.9923552
0.9958776
0.99936776
1.0028255
1.0062504
1.0096425
1.0130014
1.0163269
1.0196189
1.0228771
1.0261014
1.0292915
1.0324473
1.0355687
1.0386554
1.0417074
1.0447244
1.0477064
1.0506533
1.0535648
1.056441
1.0592817
1.0620869
1.0648564
1.0675902
1.0702883
1.0729505
1.0755769
1.0781675
1.0807221
1.0832409
1.0857237
1.0881707
1.0905819
1.0929572
1.0952967
1.0976004
1.0998686
1.1021011
1.1042981
1.1064596
1.1085859
1.1106769
1.1127329
1.1147539
1.1167401
1.1186916
1.1206086
1.1224913
1.1243398
1.1261544
1.1279353
1.1296825
1.1313965
1.1330773
1.1347253
1.1363406
1.1379236
1.1394744
1.1409934
1.1424808
1.143937
1.1453621
1.1467565
1.1481205
1.1494545
1.1507587
1.1520334
1.1532791
1.1544959
1.1556844
1.1568447
1.1579774
1.1590826
1.1601609
1.1612125
1.1622379
1.1632373
1.1642113
1.1651601
1.1660841
1.1669838
1.1678596
1.1687117
1.1695407
1.1703468
1.1711306
1.1718923
1.1726325
1.1733515
1.1740496
1.1747274
1.1753851
1.1760232
1.1766421
1.1772422
1.1778238
1.1783874
1.1789334
1.1794621
1.179974
1.1804693
1.1809485
1.181412
1.1818602
1.1822934
1.1827119
1.1831162
1.1835066
1.1838835
1.1842472
1.184598
1.1849364
1.1852625
1.1855769
1.1858798
1.1861715
1.1864524
1.1867227
1.1869828
1.187233
1.1874735
1.1877047
1.1879269
1.1881403
1.1883452
1.1885419
1.1887307
1.1889118
1.1890854
1.1892518
1.1894113
1.1895641
1.1897104
1.1898505
1.1899845
1.1901127
1.1902353
1.1903525
1.1904645
1.1905715
1.1906737
1.1907712
1.1908642
1.190953
1.1910377
1.1911183
1.1911952
1.1912685
1.1913382
1.1914045
1.1914677
1.1915277
1.1915848
1.1916391
1.1916907
1.1917396
1.1917861
1.1918302
1.1918721
1.1919117
1.1919493
1.191985
1.1920187
1.1920506
1.1920809
1.1921095
1.1921365
1.192162
1.1921862
1.192209
1.1922305
1.1922508
1.19227
1.192288
1.192305
1.1923211
1.1923361
1.1923503
1.1923637
1.1923762
1.192388
1.1923991
1.1924095
1.1924192
1.1924284
1.192437
1.192445
1.1924525
1.1924595
1.1924661
1.1924722
1.1924779
1.1924833
1.1924883
1.1924929
1.1924972
1.1925013
1.192505
1.1925085
1.1925117
1.1925147
1.1925174
1.19252
1.1925223
1.1925245
1.1925265
1.1925284
1.1925301
1.1925317
1.1925331
1.1925344
1.1925356
1.1925367
1.1925377
1.1925386
1.1925394
1.1925401
1.1925408
1.1925414
1.192542
1.1925426
1.1925432
1.1925438
1.1925445
1.1925452
1.1925459
1.1925467
1.1925474
1.1925481
1.1925489
1.1925497
1.1925505
1.1925512
1.1925519
1.1925527
1.1925535
1.1925542
1.192555
1.1925557
1.1925564
1.1925571
1.1925578
1.1925584
1.1925591
1.1925597
1.1925602
1.1925608
1.1925614
1.192562
1.1925625
1.192563
1.1925636
1.1925642
1.1925647
1.1925652
1.1925657
1.1925663
1.1925669
1.1925674
1.1925679
1.1925685
1.192569
1.1925695
1.1925699
1.1925704
1.1925709
1.1925714
1.1925719
1.1925723
1.1925728
1.1925732
1.1925736
1.192574
1.1925742
1.1925746
1.1925751
1.1925756
1.1925759
1.1925762
1.1925764
1.1925769
1.1925774
1.192578
1.1925785
1.192579
1.1925795
1.1925799
1.1925804
1.1925808
1.1925812
1.1925815
1.1925819
1.1925822
1.1925825
1.1925827
1.1925828
1.1925829
1.192583
1.1925833
1.1925834
1.1925837
1.192584
1.1925845
1.1925849
1.1925852
1.1925856
1.1925859
1.1925863
1.1925867
1.192587
1.1925873
1.1925876
1.1925878
1.192588
1.1925882
1.1925884
1.1925885
1.1925885
1.1925885
1.1925885
1.1925886
1.1925888
1.1925889
1.192589
1.1925891
1.1925893
1.1925894
1.1925895
1.1925896
1.1925898
1.1925899
1.1925901
1.1925902
1.1925903
1.1925904
1.1925905
1.1925905
1.1925906
1.1925907
1.1925908
1.1925909
1.1925909
1.192591
1.1925911
1.1925912
1.1925912
1.1925913
1.1925914
1.1925914
1.1925915
1.1925915
1.1925915
1.1925915
1.1925916
1.1925916
1.1925916
1.1925916
1.1925915
1.1925915
1.1925915
1.1925914
1.1925914
1.1925913
1.1925913
1.1925912
1.1925911
1.192591
1.1925909
1.1925908
1.1925907
1.1925906
1.1925905
1.1925904
1.1925903
1.1925902
1.1925901
1.1925901
1.19259
1.19259
1.19259
1.19259
1.19259
1.19259
1.1925899
1.1925899
1.1925899
1.1925898
1.1925898
1.1925897
1.1925896
1.1925896
1.1925895
1.1925894
1.1925893
1.1925892
1.1925891
1.192589
1.1925889
1.1925888
1.1925887
1.1925885
1.1925884
1.1925882
1.1925881
1.1925879
1.1925878
1.1925876
1.1925875
1.1925873
1.1925872
1.192587
1.1925869
1.1925867
1.1925865
1.1925864
1.1925862
1.192586
1.1925859
1.1925857
1.1925855
1.1925854
1.1925852
1.192585
1.1925848
1.1925846
1.1925845
1.1925843
1.1925841
1.192584
1.1925838
1.1925836
1.1925834
1.1925833
1.1925831
1.1925829
1.1925828
1.1925826
1.1925824
1.1925823
1.1925821
1.1925819
1.1925818
1.1925816
1.1925814
1.1925812
1.192581
1.1925808
1.1925806
1.1925804
1.1925802
1.19258
1.1925798
1.1925796
1.1925794
1.1925792
1.192579
1.1925787
1.1925785
1.1925783
1.1925781
1.1925779
1.1925776
1.1925774
1.1925772
1.192577
1.1925768
1.1925765
1.1925763
1.1925761
1.1925759
1.1925757
1.1925755
1.1925753
1.1925751
1.1925749
1.1925747
1.1925745
1.1925743
1.1925741
1.1925739
1.1925737
1.1925735
1.1925733
1.1925731
1.1925729
1.1925727
1.1925725
1.1925723
1.1925721
1.1925719
1.1925717
1.1925715
1.1925713
1.1925711
1.1925709
1.1925707
1.1925705
1.1925703
1.1925701
1.1925699
1.1925698
1.1925696
1.1925694
1.1925692
1.192569
1.1925688
1.1925686
1.1925685
1.1925683
1.1925681
1.1925679
1.1925678
1.1925676
1.1925674
1.1925673
1.1925671
1.192567
1.1925668
1.1925666
1.1925665
1.1925663
1.1925662
1.1925661
1.1925659
1.1925658
1.1925657
1.1925655
1.1925654
1.1925653
1.1925651
1.192565
1.1925648
1.1925647
1.1925646
1.1925644
1.1925643
1.1925642
1.1925641
1.192564
1.1925638
1.1925637
1.1925636
1.1925634
1.1925633
1.1925632
1.192563
1.1925629
1.1925628
1.1925626
1.1925625
1.1925624
1.1925622
1.1925621
1.1925619
1.1925618
1.1925616
1.1925615
1.1925614
1.1925612
1.1925611
1.1925609
1.1925608
1.1925606
1.1925604
1.1925603
1.1925601
1.19256
1.1925598
1.1925597
1.1925595
1.1925594
1.1925592
1.192559
1.1925589
1.1925587
1.1925586
1.1925584
1.1925583
1.1925581
1.1925579
1.1925578
1.1925576
1.1925574
1.1925573
1.1925571
1.1925569
1.1925568
1.1925566
1.1925565
1.1925563
1.1925561
1.192556
1.1925558
1.1925557
1.1925555
1.1925554
1.1925552
1.1925551
1.1925549
1.1925548
1.1925546
1.1925545
1.1925543
1.1925542
1.1925541
1.1925539
1.1925538
1.1925536
1.1925535
1.1925534
1.1925532
1.1925531
1.1925529
1.1925528
1.1925527
1.1925526
1.1925524
1.1925523
1.1925522
1.1925521
1.1925519
1.1925518
1.1925517
1.1925516
1.1925514
1.1925513
1.1925512
1.1925511
1.192551
1.1925508
1.1925507
1.1925506
1.1925505
1.1925504
1.1925502
1.1925501
1.19255
1.1925499
1.1925497
1.1925496
1.1925495
1.1925493
1.1925492
1.1925491
1.192549
1.1925489
1.1925487
1.1925486
1.1925485
1.1925484
1.1925483
1.1925481
1.192548
1.1925479
1.1925478
1.1925477
1.1925476
1.1925474
1.1925473
1.1925472
1.1925471
1.1925469
1.1925468
1.1925467
1.1925465
1.1925464
1.1925463
1.1925462
1.1925461
1.1925459
1.1925458
1.1925457
1.1925456
1.1925455
1.1925453
1.1925452
1.1925451
1.192545
1.1925448
1.1925447
1.1925446
1.1925445
1.1925444
1.1925442
1.1925441
1.192544
1.1925439
1.1925437
1.1925436
1.1925435
1.1925433
1.1925432
1.1925431
1.192543
1.1925429
1.1925427
1.1925426
1.1925425
1.1925424
1.1925422
1.1925421
1.192542
1.1925419
1.1925417
1.1925416
1.1925415
1.1925413
1.1925412
1.1925411
1.192541
1.1925409
1.1925407
1.1925406
1.1925405
1.1925404
1.1925403
1.1925401
1.19254
1.1925399
1.1925398
1.1925396
1.1925395
1.1925394
1.1925393
1.1925392
1.1925391
1.1925389
1.1925388
1.1925387
1.1925386
1.1925385
1.1925383
1.1925382
1.1925381
1.192538
1.1925379
1.1925378
1.1925377
1.1925376
1.1925374
1.1925373
1.1925372
1.1925371
1.192537
1.1925369
1.1925368
1.1925367
1.1925366
1.1925364
1.1925363
1.1925362
1.1925361
1.192536
1.1925359
1.1925358
1.1925357
1.1925356
1.1925355
1.1925354
1.1925353
1.1925352
1.192535
1.1925349
1.1925348
1.1925347
1.1925346
1.1925345
1.1925344
1.1925343
1.1925342
1.1925341
1.192534
1.1925339
1.1925338
1.1925337
1.1925336
1.1925334
1.1925333
1.1925332
1.1925331
1.192533
1.1925329
1.1925328
1.1925327
1.1925326
1.1925325
1.1925324
1.1925323
1.1925321
1.192532
1.1925319
1.1925318
1.1925317
1.1925316
1.1925315
1.1925314
1.1925313
1.1925312
1.192531
1.1925309
1.1925308
1.1925307
1.1925306
1.1925305
1.1925304
1.1925303
1.1925302
1.1925301
1.1925299
1.1925298
1.1925297
1.1925296
1.1925295
1.1925294
1.1925293
1.1925292
1.1925291
1.192529
1.1925289
1.1925288
1.1925287
1.1925286
1.1925285
1.1925283
1.1925282
1.1925281
1.192528
1.1925279
1.1925278
1.1925277
1.1925276
1.1925275
1.1925274
1.1925273
1.1925272
1.1925271
1.1925269
1.1925268
1.1925267
1.1925266
1.1925265
1.1925264
1.1925263
1.1925262
1.1925261
1.192526
1.1925259
1.1925258
1.1925257
1.1925256
1.1925255
1.1925254
1.1925253
1.1925252
1.1925251
1.192525
1.1925249
1.1925248
1.1925247
1.1925246
1.1925245
1.1925244
1.1925242
1.1925241
1.192524
1.1925239
1.1925238
1.1925237
1.1925236
1.1925235
1.1925234
1.1925233
1.1925232
1.1925231
1.192523
1.1925229
1.1925228
1.1925227
1.1925226
1.1925225
1.1925224
1.1925223
1.1925222
1.1925221
1.192522
1.1925219
1.1925218
1.1925217
1.1925216
1.1925215
1.1925214
1.1925213
1.1925212
1.1925211
1.192521
1.1925209
1.1925208
1.1925207
1.1925206
1.1925205
1.1925204
1.1925203
1.1925202
1.1925201
1.19252
1.1925199
1.1925198
1.1925197
1.1925196
1.1925195
1.1925194
1.1925193
1.1925192
1.1925191
1.192519
1.1925189
1.1925188
1.1925187
1.1925186
1.1925185
1.1925184
1.1925183
1.1925182
1.1925181
1.192518
1.1925179
1.1925178
1.1925177
1.1925176
1.1925175
1.1925174
1.1925173
1.1925172
1.1925171
1.192517
1.1925169
1.1925168
1.1925166
1.1925165
1.1925164
1.1925163
1.1925162
1.1925161
1.192516
1.1925159
1.1925158
1.1925157
1.1925156
1.1925155
1.1925154
1.1925153
1.1925152
1.1925151
1.192515
1.1925149
1.1925148
1.1925147
1.1925146
1.1925145
1.1925144
1.1925143
1.1925142
1.1925141
1.192514
1.1925139
1.1925138
1.1925137
1.1925136
1.1925134
1.1925133
1.1925132
1.1925131
1.192513
1.1925129
1.1925128
1.1925127
1.1925126
1.1925125
1.1925124
1.1925123
1.1925122
1.1925121
1.192512
1.1925119
1.1925118
1.1925117
1.1925116
1.1925115
1.1925114
1.1925113
1.1925112
1.1925111
1.192511
1.1925108
1.1925107
1.1925106
1.1925105
1.1925104
1.1925103
1.1925102
1.1925101
1.19251
1.1925099
1.1925098
1.1925097
1.1925096
1.1925095
1.1925094
1.1925093
1.1925091
1.192509
1.1925089
1.1925088
1.1925087
1.1925086
1.1925085
1.1925084
1.1925082
1.1925081
1.192508
1.1925079
1.1925078
1.1925077
1.1925076
1.1925075
1.1925074
1.1925072
1.1925071
1.192507
1.1925069
1.1925068
1.1925067
1.1925066
1.1925064
1.1925063
1.1925062
1.1925061
1.192506
1.1925059
1.1925058
1.1925057
1.1925056
1.1925054
1.1925053
1.1925052
1.1925051
1.192505
1.1925049
1.1925048
1.1925046
1.1925045
1.1925044
1.1925043
1.1925042
1.1925041
1.192504
1.1925039
1.1925037
1.1925036
1.1925035
1.1925034
1.1925033
1.1925032
1.1925031
1.1925029
1.1925028
1.1925027
1.1925026
1.1925025
1.1925024
1.1925023
1.1925022
1.1925021
1.1925019
1.1925018
1.1925017
1.1925016
1.1925015
1.1925014
1.1925013
1.1925012
1.1925011
1.1925009
1.1925008
1.1925007
1.1925006
1.1925005
1.1925003
1.1925002
1.1925001
1.1925
1.1924999
1.1924998
1.1924997
1.1924996
1.1924995
1.1924994
1.1924993
1.1924992
1.1924991
1.192499
1.1924988
1.1924987
1.1924986
1.1924985
1.1924984
1.1924983
1.1924981
1.192498
1.1924979
1.1924978
1.1924977
1.1924975
1.1924974
1.1924973
1.1924972
1.1924971
1.192497
1.1924968
1.1924967
1.1924966
1.1924965
1.1924964
1.1924962
1.1924961
1.192496
1.1924959
1.1924958
1.1924957
1.1924955
1.1924954
1.1924953
1.1924952
1.192495
1.1924949
1.1924948
1.1924947
1.1924946
1.1924944
1.1924943
1.1924942
1.1924941
1.1924939
1.1924938
1.1924937
1.1924936
1.1924934
1.1924933
1.1924932
1.1924931
1.1924929
1.1924928
1.1924927
1.1924926
1.1924924
1.1924923
1.1924922
1.1924921
1.1924919
1.1924918
1.1924917
1.1924916
1.1924914
1.1924913
1.1924912
1.192491
1.1924909
1.1924908
1.1924906
1.1924905
1.1924904
1.1924902
1.1924901
1.19249
1.1924898
1.1924897
1.1924896
1.1924895
1.1924893
1.1924892
1.1924891
1.1924889
1.1924888
1.1924887
1.1924885
1.1924884
1.1924882
1.1924881
1.1924879
1.1924878
1.1924877
1.1924875
1.1924874
1.1924873
1.1924871
1.192487
1.1924869
1.1924867
1.1924866
1.1924865
1.1924863
1.1924862
1.192486
1.1924859
1.1924857
1.1924856
1.1924854
1.1924853
1.1924852
1.192485
1.1924849
1.1924847
1.1924846
1.1924844
1.1924843
1.1924841
1.192484
1.1924838
1.1924837
1.1924835
1.1924834
1.1924832
1.1924831
1.1924829
1.1924828
1.1924826
1.1924824
1.1924823
1.1924821
1.192482
1.1924818
1.1924816
1.1924815
1.1924813
1.1924812
1.192481
1.1924809
1.1924807
1.1924805
1.1924804
1.1924802
1.1924801
1.1924799
1.1924797
1.1924796
1.1924794
1.1924793
1.1924791
1.1924789
1.1924788
1.1924786
1.1924784
1.1924783
1.1924781
1.1924779
1.1924777
1.1924775
1.1924773
1.1924771
1.192477
1.1924768
1.1924766
1.1924765
1.1924763
1.1924761
1.192476
1.1924758
1.1924756
1.1924754
1.1924752
1.192475
1.1924748
1.1924746
1.1924744
1.1924743
1.1924741
1.1924739
1.1924737
1.1924735
1.1924733
1.1924731
1.1924729
1.1924728
1.1924726
1.1924724
1.1924722
1.192472
1.1924717
1.1924715
1.1924713
1.1924711
1.1924709
1.1924707
1.1924705
1.1924703
1.19247
1.1924698
1.1924696
1.1924694
1.1924692
1.192469
1.1924688
1.1924685
1.1924683
1.1924681
1.1924679
1.1924677
1.1924674
1.1924672
1.192467
1.1924668
1.1924665
1.1924663
1.1924661
1.1924658
1.1924656
1.1924653
1.1924651
1.1924648
1.1924645
1.1924643
1.192464
1.1924638
1.1924635
1.1924633
1.192463
1.1924627
1.1924625
1.1924622
1.192462
1.1924617
1.1924614
1.1924612
1.1924609
1.1924607
1.1924604
1.1924601
1.1924598
1.1924595
1.1924592
1.1924589
1.1924586
1.1924583
1.1924581
1.1924578
1.1924575
1.1924572
1.1924569
1.1924566
1.1924563
1.192456
1.1924557
1.1924554
1.1924551
1.1924548
1.1924545
1.1924541
1.1924538
1.1924535
1.1924532
1.1924528
1.1924525
1.1924522
1.1924518
1.1924515
1.1924511
1.1924508
1.1924504
1.1924501
1.1924497
1.1924493
1.192449
1.1924486
1.1924483
1.1924479
1.1924475
1.1924472
1.1924468
1.1924464
1.192446
1.1924456
1.1924452
1.1924448
1.1924444
1.192444
1.1924435
1.1924431
1.1924427
1.1924423
1.1924419
1.1924414
1.192441
1.1924406
1.1924402
1.1924397
1.1924393
1.1924388
1.1924384
1.1924379
1.1924374
1.1924369
1.1924364
1.1924359
1.1924354
1.1924349
1.1924343
1.1924338
1.1924332
1.1924327
1.1924321
1.1924315
1.1924308
1.1924302
1.1924295
1.1924289
1.1924282
1.1924274
1.1924267
1.192426
1.1924252
1.1924244
1.1924236
1.1924228
1.1924219
1.1924211
1.1924202
1.1924193
1.1924183
1.1924174
1.1924164
1.1924154
1.1924144
1.1924133
1.1924123
1.1924112
1.1924101
1.1924089
1.1924078
1.1924066
1.1924054
1.1924041
1.1924028
1.1924015
1.1924001
1.1923987
1.1923973
1.1923958
1.1923943
1.1923928
1.1923913
1.1923897
1.1923882
1.1923866
1.1923851
1.1923836
1.1923821
1.1923806
1.1923791
1.1923777
1.1923763
1.1923749
1.1923737
1.1923726
1.1923716
1.1923708
1.1923701
1.1923697
1.1923694
1.1923693
1.1923692
1.1923692
1.1923692
1.1923694
1.19237
1.1923716
1.1923744