/*--------------------------------*- C++ -*----------------------------------*\
  =========                 |
  \\      /  F ield         | OpenFOAM: The Open Source CFD Toolbox
   \\    /   O peration     | Website:  https://openfoam.org
    \\  /    A nd           | Version:  7
     \\/     M anipulation  |
\*---------------------------------------------------------------------------*/
FoamFile
{
    version     2.0;
    format      ascii;
    class       volScalarField;
    location    "0.0009";
    object      T;
}
// * * * * * * * * * * * * * * * * * * * * * * * * * * * * * * * * * * * * * //

dimensions      [0 0 0 1 0 0 0];

internalField   nonuniform List<scalar> 
5000
(
293
293
293
293
293
293
293
293
293
293
293
293
293
293
293
293
293
293
293
293
293
293
293
293
293
293
293
293
293
293
293
293
293
293
293
293
293
293
293
293
293
293
293
293
293
293
293
293
293
293
293
293
293
293
293
293
293
293
293
293
293
293
293
293
293
293
293
293
293
293
293
293
293
293
293
293
293
293
293
293
293
293
293
293
293
293
293
293
293
293
293
293
293
293
293
293
293
293
293
293
293
293
293
293
293
293
293
293
293
293
293
293
293
293
293
293
293
293
293
293
293
293
293
293
293
293
293
293
293
293
293
293
293
293
293
293
293
293
293
293
293
293
293
293
293
293
293
293
293
293
293
293
293
293
293
293
293
293
293
293
293
293
293
293
293
293
293
293
293
293
293
293
293
293
293
293
293
293
293
293
293
293
293
293
293
293
293
293
293
293
293
293
293
293
293
293
293
293
293
293
293
293
293
293
293
293
293
293
293
293
293
293
293
293
293
293
293
293
293
293
293
293
293
293
293
293
293
293
293
293
293
293
293
293
293
293
293
293
293
293
293
293
293
293
293
293
293
293
293
293
293
293
293
293
293
293
293
293
293
293
293
293
293
293
293
293
293
293
293
293
293
293
293
293
293
293
293
293
293
293
293
293
293
293
293
293
293
293
293
293
293
293
293
293
293
293
293
293
293
293
293
293
293
293
293
293
293
293
293
293
293
293
293
293
293
293
293
293
293
293
293
293
293
293
293
293
293
293
293
293
293
293
293
293
293
293
293
293
293
293
293
293
293
293
293
293
293
293
293
293
293
293
293
293
293
293
293
293
293
293
293
293
293
293
293
293
293
293
293
293
293
293
293
293
293
293
293
293
293
293
293
293
293
293
293
293
293
293
293
293
293
293
293
293
293
293
293
293
293
293
293
293
293
293
293
293
293
293
293
293
293
293
293
293
293
293
293
293
293
293
293
293
293
293
293
293
293
293
293
293
293
293
293
293
293
293
293
293
293
293
293
293
293
293
293
293
293
293
293
293
293
293
293
293
293
293
293
293
293
293
293
293
293
293
293
293
293
293
293
293
293
293
293
293
293
293
293
293
293
293
293
293
293
293
293
293
293
293
293
293
293
293
293
293
293
293
293
293
293
293
293
293
293
293
293
293
293
293
293
293
293
293
293
293
293
293
293
293
293
293
293
293
293
293
293
293
293
293
293
293
293
293
293
293
293
293
293
293
293
293
293
293
293
293
293
293
293
293
293
293
293
293
293
293
293
293
293
293
293
293
293
293
293
293
293
293
293
293
293
293
293
293
293
293
293
293
293
293
293
293
293
293
293
293
293
293
293
293
293
293
293
293
293
293
293
293
293
293
293
293
293
293
293
293
293
293
293
293
293
292.99999
292.99999
292.99999
292.99999
292.99999
292.99999
292.99999
292.99999
292.99999
292.99999
292.99999
292.99999
292.99999
292.99999
292.99999
292.99999
292.99999
292.99998
292.99998
292.99998
292.99998
292.99998
292.99998
292.99998
292.99998
292.99998
292.99997
292.99997
292.99997
292.99997
292.99997
292.99997
292.99996
292.99996
292.99996
292.99996
292.99995
292.99995
292.99995
292.99994
292.99994
292.99994
292.99993
292.99993
292.99993
292.99992
292.99992
292.99991
292.99991
292.9999
292.9999
292.99989
292.99989
292.99988
292.99987
292.99986
292.99986
292.99985
292.99984
292.99983
292.99982
292.99981
292.9998
292.99979
292.99978
292.99977
292.99975
292.99974
292.99973
292.99971
292.99969
292.99968
292.99966
292.99964
292.99962
292.9996
292.99958
292.99956
292.99954
292.99951
292.99949
292.99946
292.99943
292.9994
292.99937
292.99934
292.9993
292.99927
292.99923
292.99919
292.99915
292.9991
292.99906
292.99901
292.99896
292.99891
292.99885
292.99879
292.99873
292.99867
292.9986
292.99853
292.99846
292.99839
292.99831
292.99822
292.99814
292.99805
292.99795
292.99786
292.99775
292.99764
292.99753
292.99741
292.99729
292.99716
292.99703
292.99689
292.99675
292.9966
292.99644
292.99627
292.9961
292.99592
292.99574
292.99554
292.99534
292.99513
292.99491
292.99468
292.99444
292.99419
292.99394
292.99367
292.99339
292.9931
292.9928
292.99248
292.99216
292.99182
292.99146
292.9911
292.99072
292.99032
292.98991
292.98948
292.98904
292.98858
292.9881
292.98761
292.9871
292.98656
292.98601
292.98544
292.98485
292.98423
292.98359
292.98293
292.98225
292.98154
292.98081
292.98005
292.97926
292.97845
292.9776
292.97673
292.97583
292.9749
292.97393
292.97293
292.9719
292.97084
292.96974
292.9686
292.96743
292.96621
292.96496
292.96367
292.96233
292.96095
292.95953
292.95806
292.95655
292.95499
292.95338
292.95172
292.95001
292.94825
292.94643
292.94456
292.94264
292.94065
292.93861
292.93651
292.93435
292.93212
292.92983
292.92747
292.92505
292.92256
292.91999
292.91736
292.91465
292.91187
292.90901
292.90608
292.90306
292.89997
292.89679
292.89353
292.89018
292.88675
292.88322
292.87961
292.8759
292.8721
292.8682
292.86421
292.86012
292.85593
292.85163
292.84723
292.84273
292.83811
292.83339
292.82856
292.82361
292.81855
292.81337
292.80808
292.80266
292.79713
292.79147
292.78568
292.77977
292.77373
292.76756
292.76126
292.75483
292.74826
292.74155
292.7347
292.72772
292.72059
292.71332
292.7059
292.69833
292.69062
292.68276
292.67474
292.66658
292.65825
292.64977
292.64114
292.63234
292.62338
292.61426
292.60498
292.59553
292.58591
292.57613
292.56617
292.55605
292.54576
292.53529
292.52464
292.51382
292.50283
292.49166
292.4803
292.46877
292.45706
292.44516
292.43308
292.42082
292.40837
292.39573
292.38291
292.3699
292.3567
292.34332
292.32974
292.31597
292.30201
292.28786
292.27352
292.25898
292.24425
292.22932
292.2142
292.19889
292.18338
292.16767
292.15177
292.13568
292.11938
292.10289
292.08621
292.06932
292.05224
292.03497
292.01749
291.99982
291.98196
291.96389
291.94563
291.92718
291.90853
291.88968
291.87064
291.85141
291.83197
291.81235
291.79253
291.77252
291.75232
291.73193
291.71134
291.69057
291.6696
291.64845
291.62711
291.60558
291.58386
291.56196
291.53987
291.5176
291.49515
291.47252
291.4497
291.42671
291.40354
291.38019
291.35666
291.33296
291.30909
291.28504
291.26083
291.23644
291.21188
291.18716
291.16227
291.13722
291.11201
291.08663
291.0611
291.03541
291.00956
290.98355
290.9574
290.93109
290.90463
290.87802
290.85127
290.82437
290.79733
290.77015
290.74283
290.71538
290.68779
290.66006
290.6322
290.60422
290.5761
290.54786
290.5195
290.49101
290.46241
290.43369
290.40485
290.3759
290.34683
290.31766
290.28838
290.259
290.22951
290.19993
290.17024
290.14046
290.11059
290.08062
290.05057
290.02043
289.9902
289.95989
289.92951
289.89904
289.8685
289.83789
289.8072
289.77645
289.74563
289.71475
289.68381
289.65281
289.62176
289.59065
289.55949
289.52828
289.49703
289.46574
289.4344
289.40303
289.37162
289.34018
289.3087
289.2772
289.24568
289.21413
289.18256
289.15098
289.11938
289.08777
289.05615
289.02452
288.99289
288.96126
288.92963
288.898
288.86639
288.83478
288.80318
288.7716
288.74004
288.70849
288.67697
288.64548
288.61402
288.58259
288.55119
288.51983
288.48851
288.45723
288.426
288.39482
288.36369
288.33261
288.3016
288.27064
288.23974
288.20891
288.17814
288.14745
288.11683
288.08629
288.05583
288.02545
287.99516
287.96495
287.93484
287.90482
287.87489
287.84507
287.81535
287.78573
287.75622
287.72682
287.69753
287.66836
287.63931
287.61038
287.58157
287.55289
287.52434
287.49593
287.46765
287.4395
287.4115
287.38364
287.35593
287.32836
287.30095
287.27369
287.24658
287.21963
287.19285
287.16623
287.13977
287.11349
287.08737
287.06143
287.03566
287.01008
286.98467
286.95944
286.9344
286.90955
286.88489
286.86041
286.83614
286.81205
286.78817
286.76448
286.741
286.71772
286.69464
286.67178
286.64912
286.62667
286.60443
286.58241
286.5606
286.53901
286.51764
286.49649
286.47556
286.45486
286.43437
286.41411
286.39408
286.37428
286.3547
286.33535
286.31624
286.29735
286.27869
286.26027
286.24208
286.22413
286.20641
286.18892
286.17167
286.15465
286.13787
286.12132
286.10501
286.08894
286.0731
286.0575
286.04213
286.027
286.0121
285.99744
285.98301
285.96881
285.95485
285.94112
285.92762
285.91435
285.90131
285.8885
285.87591
285.86356
285.85143
285.83952
285.82783
285.81637
285.80513
285.79411
285.7833
285.77271
285.76233
285.75217
285.74221
285.73247
285.72293
285.71359
285.70446
285.69553
285.6868
285.67826
285.66992
285.66177
285.65381
285.64604
285.63846
285.63105
285.62383
285.61679
285.60992
285.60322
285.5967
285.59034
285.58415
285.57813
285.57226
285.56655
285.561
285.5556
285.55035
285.54524
285.54029
285.53547
285.53079
285.52625
285.52185
285.51757
285.51343
285.50941
285.50551
285.50174
285.49808
285.49454
285.49111
285.4878
285.48459
285.48149
285.47849
285.47559
285.47278
285.47008
285.46747
285.46494
285.46251
285.46016
285.4579
285.45572
285.45361
285.45159
285.44964
285.44776
285.44595
285.44421
285.44254
285.44093
285.43939
285.4379
285.43648
285.43511
285.43379
285.43253
285.43132
285.43016
285.42905
285.42799
285.42697
285.42599
285.42506
285.42416
285.42331
285.42249
285.42171
285.42096
285.42025
285.41957
285.41892
285.4183
285.41771
285.41714
285.41661
285.41609
285.41561
285.41514
285.4147
285.41428
285.41388
285.4135
285.41314
285.4128
285.41248
285.41217
285.41188
285.4116
285.41134
285.41109
285.41085
285.41063
285.41042
285.41022
285.41003
285.40985
285.40968
285.40952
285.40937
285.40923
285.4091
285.40897
285.40885
285.40874
285.40864
285.40854
285.40845
285.40836
285.40828
285.4082
285.40813
285.40806
285.408
285.40794
285.40789
285.40783
285.40779
285.40774
285.4077
285.40766
285.40763
285.40759
285.40756
285.40753
285.40751
285.40748
285.40746
285.40744
285.40742
285.4074
285.40738
285.40737
285.40735
285.40734
285.40733
285.40732
285.40731
285.4073
285.40729
285.40729
285.40728
285.40728
285.40727
285.40727
285.40726
285.40726
285.40726
285.40726
285.40725
285.40725
285.40725
285.40725
285.40724
285.40724
285.40723
285.40723
285.40723
285.40722
285.40722
285.40721
285.40721
285.40721
285.4072
285.4072
285.4072
285.40719
285.40719
285.40718
285.40718
285.40718
285.40717
285.40717
285.40717
285.40716
285.40716
285.40716
285.40716
285.40716
285.40715
285.40715
285.40715
285.40715
285.40714
285.40714
285.40714
285.40714
285.40713
285.40713
285.40713
285.40713
285.40712
285.40712
285.40712
285.40712
285.40712
285.40712
285.40711
285.40711
285.40711
285.40711
285.40711
285.40711
285.4071
285.4071
285.4071
285.4071
285.4071
285.40709
285.40709
285.40709
285.40709
285.40709
285.40709
285.40709
285.40709
285.40709
285.40709
285.40709
285.40709
285.40709
285.40709
285.40709
285.40709
285.40709
285.40709
285.40709
285.40708
285.40708
285.40708
285.40708
285.40708
285.40708
285.40708
285.40708
285.40708
285.40708
285.40708
285.40708
285.40709
285.40709
285.40709
285.40709
285.40709
285.40709
285.40709
285.40709
285.40709
285.40709
285.40709
285.40709
285.40709
285.40709
285.40709
285.40709
285.40709
285.40709
285.40709
285.40709
285.4071
285.4071
285.4071
285.4071
285.4071
285.4071
285.40711
285.40711
285.40711
285.40711
285.40711
285.40711
285.40712
285.40712
285.40712
285.40712
285.40712
285.40713
285.40713
285.40713
285.40713
285.40713
285.40713
285.40713
285.40714
285.40714
285.40714
285.40715
285.40715
285.40715
285.40715
285.40715
285.40715
285.40715
285.40715
285.40716
285.40716
285.40716
285.40716
285.40716
285.40717
285.40717
285.40717
285.40717
285.40718
285.40718
285.40718
285.40719
285.40719
285.40719
285.40719
285.40719
285.4072
285.4072
285.40721
285.40721
285.40721
285.40722
285.40722
285.40722
285.40723
285.40723
285.40723
285.40723
285.40724
285.40724
285.40725
285.40725
285.40725
285.40725
285.40726
285.40726
285.40727
285.40727
285.40727
285.40727
285.40728
285.40728
285.40729
285.40729
285.40729
285.4073
285.4073
285.40731
285.40731
285.40731
285.40732
285.40732
285.40732
285.40732
285.40733
285.40733
285.40734
285.40734
285.40735
285.40735
285.40736
285.40736
285.40736
285.40737
285.40737
285.40738
285.40738
285.40739
285.40739
285.4074
285.4074
285.4074
285.4074
285.40741
285.40741
285.40741
285.40742
285.40742
285.40742
285.40743
285.40743
285.40744
285.40744
285.40745
285.40745
285.40746
285.40746
285.40746
285.40747
285.40747
285.40747
285.40748
285.40748
285.40748
285.40749
285.40749
285.4075
285.4075
285.40751
285.40751
285.40751
285.40752
285.40752
285.40752
285.40752
285.40753
285.40753
285.40754
285.40754
285.40755
285.40755
285.40756
285.40756
285.40757
285.40757
285.40757
285.40757
285.40758
285.40758
285.40758
285.40759
285.40759
285.4076
285.4076
285.40761
285.40761
285.40762
285.40762
285.40762
285.40763
285.40763
285.40763
285.40764
285.40764
285.40765
285.40765
285.40765
285.40766
285.40766
285.40766
285.40767
285.40767
285.40768
285.40768
285.40769
285.40769
285.40769
285.40769
285.4077
285.4077
285.40771
285.40771
285.40772
285.40772
285.40773
285.40773
285.40774
285.40774
285.40774
285.40775
285.40775
285.40775
285.40776
285.40776
285.40777
285.40778
285.40778
285.40779
285.40779
285.40779
285.4078
285.4078
285.4078
285.40781
285.40781
285.40781
285.40782
285.40782
285.40783
285.40783
285.40784
285.40784
285.40785
285.40785
285.40786
285.40786
285.40786
285.40787
285.40787
285.40788
285.40788
285.40789
285.40789
285.40789
285.4079
285.4079
285.40791
285.40791
285.40792
285.40792
285.40792
285.40793
285.40793
285.40794
285.40794
285.40795
285.40795
285.40795
285.40796
285.40796
285.40796
285.40797
285.40797
285.40798
285.40798
285.40799
285.40799
285.40799
285.408
285.408
285.40801
285.40801
285.40802
285.40802
285.40803
285.40803
285.40803
285.40804
285.40804
285.40805
285.40805
285.40806
285.40806
285.40806
285.40807
285.40807
285.40807
285.40808
285.40808
285.40809
285.40809
285.4081
285.4081
285.40811
285.40811
285.40812
285.40812
285.40813
285.40813
285.40814
285.40814
285.40814
285.40815
285.40815
285.40816
285.40816
285.40817
285.40817
285.40818
285.40818
285.40818
285.40819
285.40819
285.4082
285.4082
285.40821
285.40821
285.40821
285.40822
285.40822
285.40823
285.40823
285.40824
285.40825
285.40825
285.40826
285.40826
285.40827
285.40827
285.40828
285.40828
285.40828
285.40829
285.40829
285.4083
285.4083
285.40831
285.40831
285.40831
285.40831
285.40832
285.40832
285.40833
285.40833
285.40834
285.40834
285.40835
285.40836
285.40836
285.40837
285.40838
285.40838
285.40838
285.40839
285.40839
285.40839
285.4084
285.4084
285.40841
285.40841
285.40842
285.40842
285.40843
285.40843
285.40844
285.40844
285.40845
285.40845
285.40845
285.40846
285.40846
285.40847
285.40848
285.40848
285.40849
285.40849
285.4085
285.4085
285.4085
285.40851
285.40851
285.40852
285.40852
285.40853
285.40853
285.40854
285.40854
285.40855
285.40856
285.40856
285.40857
285.40857
285.40858
285.40858
285.40858
285.40859
285.40859
285.4086
285.4086
285.40861
285.40861
285.40862
285.40863
285.40863
285.40863
285.40864
285.40864
285.40865
285.40865
285.40866
285.40866
285.40867
285.40867
285.40868
285.40868
285.40869
285.4087
285.4087
285.40871
285.40871
285.40872
285.40872
285.40873
285.40873
285.40873
285.40874
285.40874
285.40875
285.40876
285.40876
285.40877
285.40877
285.40878
285.40879
285.40879
285.4088
285.4088
285.40881
285.40881
285.40882
285.40882
285.40883
285.40883
285.40884
285.40884
285.40885
285.40885
285.40886
285.40887
285.40887
285.40888
285.40889
285.40889
285.4089
285.4089
285.4089
285.40891
285.40891
285.40892
285.40892
285.40893
285.40894
285.40894
285.40895
285.40895
285.40896
285.40897
285.40897
285.40898
285.40898
285.40899
285.40899
285.409
285.409
285.40901
285.40901
285.40902
285.40903
285.40903
285.40904
285.40905
285.40905
285.40906
285.40906
285.40907
285.40907
285.40908
285.40908
285.40909
285.4091
285.4091
285.40911
285.40912
285.40912
285.40913
285.40913
285.40914
285.40914
285.40915
285.40915
285.40916
285.40917
285.40917
285.40918
285.40918
285.40919
285.4092
285.4092
285.40921
285.40922
285.40922
285.40923
285.40924
285.40924
285.40925
285.40926
285.40926
285.40927
285.40928
285.40928
285.40929
285.40929
285.4093
285.4093
285.40931
285.40931
285.40932
285.40933
285.40933
285.40934
285.40935
285.40936
285.40936
285.40937
285.40938
285.40938
285.40939
285.40939
285.4094
285.40941
285.40941
285.40942
285.40943
285.40943
285.40944
285.40945
285.40946
285.40946
285.40947
285.40948
285.40949
285.40949
285.4095
285.40951
285.40951
285.40952
285.40953
285.40953
285.40954
285.40954
285.40955
285.40955
285.40956
285.40957
285.40958
285.40958
285.40959
285.4096
285.4096
285.40961
285.40962
285.40962
285.40963
285.40964
285.40965
285.40965
285.40966
285.40967
285.40968
285.40969
285.40969
285.4097
285.40971
285.40972
285.40972
285.40973
285.40974
285.40974
285.40975
285.40976
285.40977
285.40978
285.40978
285.40979
285.4098
285.40981
285.40981
285.40982
285.40982
285.40983
285.40984
285.40984
285.40985
285.40986
285.40987
285.40987
285.40988
285.40989
285.4099
285.4099
285.40991
285.40992
285.40993
285.40994
285.40995
285.40995
285.40996
285.40997
285.40998
285.40999
285.41
285.41001
285.41002
285.41002
285.41003
285.41004
285.41005
285.41005
285.41006
285.41007
285.41007
285.41008
285.41009
285.4101
285.4101
285.41011
285.41012
285.41013
285.41013
285.41014
285.41015
285.41016
285.41017
285.41018
285.41019
285.4102
285.41021
285.41021
285.41022
285.41023
285.41024
285.41025
285.41026
285.41027
285.41028
285.41029
285.4103
285.4103
285.41031
285.41032
285.41033
285.41033
285.41034
285.41035
285.41036
285.41037
285.41038
285.41039
285.4104
285.41041
285.41042
285.41043
285.41044
285.41045
285.41045
285.41046
285.41047
285.41048
285.41049
285.4105
285.41051
285.41052
285.41053
285.41054
285.41055
285.41056
285.41056
285.41057
285.41058
285.41059
285.4106
285.41061
285.41062
285.41063
285.41064
285.41065
285.41066
285.41067
285.41068
285.41069
285.41071
285.41072
285.41073
285.41074
285.41075
285.41076
285.41077
285.41078
285.41079
285.4108
285.41081
285.41082
285.41083
285.41084
285.41085
285.41086
285.41087
285.41088
285.41089
285.4109
285.41091
285.41092
285.41093
285.41094
285.41095
285.41096
285.41097
285.41098
285.41099
285.411
285.41101
285.41102
285.41104
285.41105
285.41106
285.41107
285.41108
285.41109
285.4111
285.41111
285.41112
285.41114
285.41115
285.41116
285.41117
285.41118
285.4112
285.41121
285.41122
285.41123
285.41124
285.41125
285.41126
285.41128
285.41129
285.4113
285.41131
285.41132
285.41134
285.41135
285.41136
285.41137
285.41138
285.4114
285.41141
285.41142
285.41143
285.41145
285.41146
285.41148
285.41149
285.41151
285.41152
285.41153
285.41155
285.41156
285.41157
285.41158
285.41159
285.4116
285.41161
285.41162
285.41163
285.41164
285.41166
285.41167
285.41169
285.4117
285.41171
285.41173
285.41174
285.41176
285.41177
285.41179
285.4118
285.41182
285.41183
285.41185
285.41186
285.41187
285.41189
285.4119
285.41192
285.41193
285.41194
285.41196
285.41197
285.41199
285.412
285.41201
285.41203
285.41204
285.41206
285.41207
285.41209
285.4121
285.41212
285.41213
285.41215
285.41217
285.41218
285.4122
285.41221
285.41222
285.41224
285.41226
285.41227
285.41229
285.4123
285.41232
285.41234
285.41235
285.41237
285.41238
285.4124
285.41242
285.41244
285.41245
285.41247
285.41248
285.4125
285.41251
285.41253
285.41255
285.41256
285.41258
285.4126
285.41261
285.41263
285.41265
285.41267
285.41269
285.4127
285.41272
285.41274
285.41276
285.41277
285.41279
285.41281
285.41283
285.41285
285.41287
285.41288
285.4129
285.41292
285.41294
285.41295
285.41297
285.41299
285.41301
285.41304
285.41306
285.41308
285.4131
285.41312
285.41314
285.41316
285.41318
285.41319
285.41321
285.41323
285.41325
285.41327
285.41329
285.41331
285.41333
285.41336
285.41338
285.4134
285.41342
285.41344
285.41346
285.41348
285.4135
285.41352
285.41355
285.41357
285.41359
285.41361
285.41364
285.41366
285.41368
285.4137
285.41373
285.41375
285.41377
285.41379
285.41382
285.41384
285.41387
285.41389
285.41392
285.41394
285.41397
285.41399
285.41402
285.41404
285.41406
285.41409
285.41411
285.41414
285.41417
285.41419
285.41422
285.41424
285.41427
285.41429
285.41431
285.41434
285.41436
285.41439
285.41441
285.41444
285.41446
285.41449
285.41452
285.41455
285.41458
285.41461
285.41464
285.41467
285.41471
285.41474
285.41477
285.4148
285.41482
285.41485
285.41487
285.4149
285.41492
285.41496
285.41498
285.41502
285.41504
285.41509
285.41511
285.41516
285.41518
285.41522
285.41525
285.41529
285.41531
285.41535
285.41538
285.41541
285.41544
285.41547
285.41551
285.41554
285.41558
285.41561
285.41565
285.41569
285.41572
285.41576
285.4158
285.41584
285.41587
285.41591
285.41595
285.41599
285.41602
285.41606
285.4161
285.41614
285.41618
285.41622
285.41625
285.4163
285.41633
285.41637
285.41641
285.41645
285.41649
285.41653
285.41657
285.41662
285.41666
285.4167
285.41675
285.4168
285.41684
285.41689
285.41694
285.41698
285.41703
285.41708
285.41713
285.41718
285.41723
285.41727
285.41732
285.41737
285.41742
285.41747
285.41752
285.41757
285.41762
285.41767
285.41772
285.41777
285.41783
285.41788
285.41794
285.418
285.41806
285.41812
285.41817
285.41823
285.41828
285.41834
285.4184
285.41845
285.41851
285.41857
285.41863
285.41869
285.41875
285.41881
285.41888
285.41894
285.41901
285.41908
285.41915
285.41921
285.41928
285.41935
285.41942
285.41949
285.41956
285.41963
285.4197
285.41977
285.41985
285.41992
285.42
285.42007
285.42015
285.42022
285.4203
285.42037
285.42045
285.42053
285.42061
285.42069
285.42078
285.42087
285.42095
285.42104
285.42113
285.42122
285.42131
285.42139
285.42148
285.42157
285.42166
285.42175
285.42184
285.42193
285.42203
285.42212
285.42222
285.42232
285.42243
285.42253
285.42264
285.42275
285.42285
285.42297
285.42308
285.4232
285.42332
285.42344
285.42357
285.4237
285.42384
285.42398
285.42412
285.42427
285.42442
285.42458
285.42474
285.4249
285.42507
285.42524
285.42542
285.4256
285.42579
285.42598
285.42617
285.42637
285.42658
285.42679
285.42701
285.42723
285.42746
285.42769
285.42793
285.42818
285.42842
285.42868
285.42894
285.42921
285.42948
285.42976
285.43005
285.43035
285.43065
285.43097
285.4313
285.43163
285.43197
285.43232
285.43267
285.43303
285.43338
285.43373
285.43409
285.43444
285.43479
285.43513
285.43548
285.43582
285.43614
285.43646
285.43675
285.43702
285.43727
285.43747
285.43763
285.43775
285.43783
285.43787
285.43788
285.43788
285.43787
285.43782
285.43771
285.43746
285.43691
285.43609
285.43503
285.43384
285.43268
285.43174
285.43115
285.43094
285.43095
285.43121
285.43224
285.43537
285.44382
285.46545
285.51962
285.6522
285.97681
286.63943
287.51541
288.5624
289.73682
290.98796
292.26344
293.51433
294.69915
295.78636
296.75523
297.59546
298.30579
298.89203
299.36495
299.73823
300.02673
300.24521
300.40736
300.52528
300.60926
300.66774
300.70746
300.73361
300.75016
300.76004
300.76538
300.76775
300.76834
300.76817
300.76712
300.76445
300.7615
300.7587
300.75607
300.75361
300.75133
300.74922
300.74729
300.74551
300.74389
300.74241
300.74106
300.73984
300.73872
300.7377
300.73677
300.73593
300.73515
300.73444
300.73378
300.73317
300.7326
300.73207
300.73157
300.73109
300.73065
300.73022
300.72982
300.72943
300.72906
300.7287
300.72836
300.72803
300.72772
300.72742
300.72713
300.72685
300.72657
300.72631
300.72606
300.72581
300.72558
300.72535
300.72513
300.72491
300.72471
300.7245
300.72431
300.72411
300.72393
300.72374
300.72356
300.72339
300.72321
300.72304
300.72288
300.72272
300.72256
300.7224
300.72224
300.72209
300.72193
300.72178
300.72163
300.72148
300.72133
300.72118
300.72104
300.72089
300.72074
300.7206
300.72046
300.72031
300.72017
300.72003
300.71989
300.71975
300.71961
300.71948
300.71935
300.71922
300.71909
300.71897
300.71884
300.71872
300.7186
300.71848
300.71836
300.71825
300.71814
300.71803
300.71792
300.71781
300.71771
300.71761
300.71751
300.71741
300.71732
300.71722
300.71713
300.71704
300.71695
300.71686
300.71677
300.71669
300.7166
300.71652
300.71644
300.71636
300.71628
300.71621
300.71613
300.71605
300.71597
300.7159
300.71582
300.71575
300.71567
300.7156
300.71553
300.71546
300.71539
300.71533
300.71526
300.71519
300.71513
300.71506
300.715
300.71494
300.71487
300.71481
300.71475
300.71468
300.71462
300.71456
300.7145
300.71445
300.71439
300.71434
300.71428
300.71423
300.71417
300.71412
300.71406
300.71401
300.71395
300.7139
300.71385
300.71379
300.71374
300.71369
300.71364
300.71359
300.71354
300.71349
300.71344
300.71339
300.71334
300.7133
300.71325
300.7132
300.71315
300.71311
300.71306
300.71302
300.71297
300.71293
300.71288
300.71284
300.7128
300.71276
300.71272
300.71267
300.71263
300.71259
300.71255
300.71251
300.71246
300.71242
300.71238
300.71234
300.7123
300.71226
300.71222
300.71219
300.71215
300.71211
300.71207
300.71204
300.712
300.71196
300.71193
300.71189
300.71185
300.71182
300.71178
300.71175
300.71171
300.71168
300.71164
300.71161
300.71158
300.71154
300.71151
300.71147
300.71144
300.71141
300.71137
300.71134
300.71131
300.71128
300.71124
300.71121
300.71118
300.71115
300.71112
300.71109
300.71106
300.71102
300.71099
300.71096
300.71094
300.71091
300.71088
300.71085
300.71082
300.71079
300.71077
300.71074
300.71071
300.71068
300.71065
300.71063
300.7106
300.71057
300.71054
300.71052
300.71049
300.71046
300.71043
300.7104
300.71038
300.71035
300.71032
300.7103
300.71027
300.71025
300.71022
300.7102
300.71018
300.71015
300.71013
300.7101
300.71008
300.71005
300.71003
300.71
300.70998
300.70995
300.70993
300.70991
300.70988
300.70986
300.70984
300.70981
300.70979
300.70977
300.70974
300.70972
300.7097
300.70967
300.70965
300.70963
300.70961
300.70959
300.70957
300.70954
300.70952
300.7095
300.70948
300.70946
300.70944
300.70942
300.70939
300.70937
300.70935
300.70933
300.70931
300.70929
300.70927
300.70925
300.70923
300.70921
300.70919
300.70917
300.70915
300.70913
300.70911
300.70909
300.70907
300.70905
300.70903
300.70901
300.70899
300.70898
300.70896
300.70894
300.70892
300.70891
300.70889
300.70887
300.70885
300.70884
300.70882
300.7088
300.70878
300.70876
300.70874
300.70872
300.7087
300.70868
300.70867
300.70865
300.70863
300.70862
300.7086
300.70858
300.70857
300.70855
300.70853
300.70852
300.7085
300.70848
300.70847
300.70845
300.70843
300.70842
300.7084
300.70839
300.70837
300.70835
300.70833
300.70832
300.7083
300.70829
300.70827
300.70826
300.70824
300.70823
300.70821
300.7082
300.70818
300.70817
300.70815
300.70814
300.70812
300.70811
300.70809
300.70807
300.70806
300.70804
300.70803
300.70801
300.708
300.70798
300.70797
300.70795
300.70794
300.70793
300.70791
300.7079
300.70789
300.70787
300.70786
300.70785
300.70783
300.70782
300.7078
300.70779
300.70778
300.70776
300.70775
300.70774
300.70772
300.70771
300.7077
300.70768
300.70767
300.70765
300.70764
300.70763
300.70761
300.7076
300.70759
300.70757
300.70756
300.70755
300.70753
300.70752
300.70751
300.7075
300.70749
300.70747
300.70746
300.70745
300.70744
300.70742
300.70741
300.7074
300.70739
300.70737
300.70736
300.70735
300.70734
300.70732
300.70731
300.7073
300.70729
300.70728
300.70726
300.70725
300.70724
300.70723
300.70721
300.7072
300.70719
300.70718
300.70717
300.70716
300.70715
300.70714
300.70713
300.70711
300.7071
300.70709
300.70708
300.70707
300.70706
300.70705
300.70703
300.70702
300.70701
300.707
300.70699
300.70698
300.70697
300.70695
300.70694
300.70693
300.70692
300.70691
300.7069
300.70689
300.70688
300.70687
300.70686
300.70685
300.70684
300.70683
300.70682
300.70681
300.70679
300.70678
300.70677
300.70677
300.70676
300.70675
300.70674
300.70673
300.70672
300.70671
300.7067
300.70669
300.70668
300.70667
300.70665
300.70664
300.70663
300.70663
300.70662
300.70661
300.7066
300.70659
300.70658
300.70657
300.70656
300.70654
300.70653
300.70652
300.70651
300.7065
300.70649
300.70649
300.70648
300.70647
300.70646
300.70645
300.70645
300.70644
300.70643
300.70642
300.70641
300.7064
300.70639
300.70638
300.70637
300.70636
300.70635
300.70634
300.70633
300.70632
300.70632
300.70631
300.7063
300.70629
300.70628
300.70627
300.70626
300.70625
300.70624
300.70624
300.70623
300.70622
300.70621
300.7062
300.70619
300.70618
300.70617
300.70617
300.70616
300.70615
300.70614
300.70613
300.70612
300.70612
300.70611
300.7061
300.70609
300.70608
300.70607
300.70606
300.70606
300.70605
300.70604
300.70603
300.70602
300.70602
300.70601
300.706
300.70599
300.70599
300.70598
300.70597
300.70596
300.70595
300.70594
300.70594
300.70593
300.70592
300.70591
300.7059
300.7059
300.70589
300.70589
300.70588
300.70587
300.70586
300.70585
300.70584
300.70584
300.70583
300.70582
300.70581
300.7058
300.70579
300.70578
300.70578
300.70577
300.70576
300.70576
300.70575
300.70575
300.70574
300.70573
300.70572
300.70572
300.70571
300.7057
300.70569
300.70569
300.70568
300.70567
300.70567
300.70566
300.70565
300.70565
300.70564
300.70563
300.70562
300.70561
300.70561
300.7056
300.70559
300.70559
300.70558
300.70557
300.70557
300.70556
300.70555
300.70554
300.70554
300.70553
300.70552
300.70552
300.70551
300.7055
300.70549
300.70549
300.70548
300.70548
300.70547
300.70546
300.70546
300.70545
300.70544
300.70543
300.70543
300.70542
300.70541
300.7054
300.7054
300.70539
300.70539
300.70538
300.70538
300.70537
300.70536
300.70536
300.70535
300.70535
300.70534
300.70533
300.70532
300.70531
300.70531
300.7053
300.70529
300.70529
300.70528
300.70528
300.70527
300.70527
300.70526
300.70525
300.70525
300.70524
300.70524
300.70523
300.70522
300.70521
300.70521
300.7052
300.70519
300.70519
300.70518
300.70518
300.70517
300.70517
300.70516
300.70515
300.70515
300.70514
300.70513
300.70513
300.70512
300.70511
300.70511
300.7051
300.7051
300.70509
300.70509
300.70508
300.70508
300.70507
300.70506
300.70506
300.70505
300.70504
300.70504
300.70503
300.70503
300.70502
300.70502
300.70501
300.705
300.705
300.70499
300.70499
300.70498
300.70497
300.70496
300.70496