/*--------------------------------*- C++ -*----------------------------------*\
  =========                 |
  \\      /  F ield         | OpenFOAM: The Open Source CFD Toolbox
   \\    /   O peration     | Website:  https://openfoam.org
    \\  /    A nd           | Version:  7
     \\/     M anipulation  |
\*---------------------------------------------------------------------------*/
FoamFile
{
    version     2.0;
    format      ascii;
    class       volScalarField;
    location    "0.00208";
    object      Uz;
}
// * * * * * * * * * * * * * * * * * * * * * * * * * * * * * * * * * * * * * //

dimensions      [0 1 -1 0 0 0 0];

internalField   nonuniform List<scalar> 
5000
(
0
0
0
0
0
-2.0216549e-21
-4.6480556e-36
7.1055944e-21
2.454554e-21
-4.9394656e-21
-4.9046289e-21
2.4117583e-21
-2.0051976e-35
-2.0417169e-35
4.6664563e-21
-4.7447905e-21
-1.6142523e-51
-2.1162817e-35
-2.3966214e-21
4.7678181e-21
2.3709722e-21
0
0
-2.3543938e-21
2.0301052e-35
-1.9905769e-35
-2.443678e-21
2.4631705e-21
2.474286e-21
-2.4836745e-21
4.3624075e-35
-2.1417596e-35
-2.5244979e-21
2.5380183e-21
2.5517315e-21
0
0
-2.5619948e-21
-2.59744e-21
2.4442237e-21
-4.0474305e-35
-2.6348606e-21
2.7052497e-21
-4.4409449e-35
-2.6351786e-21
2.7454569e-21
-9.6518421e-35
9.5970261e-35
-9.6361583e-35
4.783673e-35
2.7934309e-21
0
0
0
0
0
0
0
0
0
0
0
0
-2.8684744e-21
-2.9637946e-21
3.0401516e-21
-5.2711009e-35
-1.7088451e-51
3.0095329e-21
0
0
-3.1141379e-21
-3.1668968e-21
0
3.1403582e-21
1.0747776e-34
-3.0824153e-21
-3.0783682e-21
3.129742e-21
6.3680618e-21
-6.4269597e-21
1.820311e-36
9.4595311e-21
-6.2345843e-21
-3.274466e-34
6.4720036e-21
-9.8423906e-21
3.2678593e-21
3.2314121e-21
-3.1440215e-21
3.1223902e-21
3.2168373e-21
1.1537319e-34
-6.7427442e-21
-2.3422675e-34
-3.3587316e-21
-3.3226707e-21
-1.1494525e-34
2.2561113e-34
6.5457287e-21
3.3561952e-21
-3.41028e-21
4.8558112e-37
3.402478e-21
0
-3.3502054e-21
-1.178634e-34
3.4444505e-21
-3.4719616e-21
-3.424389e-21
6.6703716e-21
3.2467033e-21
-9.8018046e-21
-3.3931033e-21
1.0457863e-20
-3.5180349e-21
-3.5045427e-21
-1.9733254e-36
-3.4425836e-21
1.0215654e-20
-2.3718661e-34
-6.8831011e-21
6.9633418e-21
3.4883027e-21
-3.4677403e-21
3.4104827e-21
-3.3816352e-21
-6.8458909e-21
3.4748062e-21
1.2076569e-34
3.4848973e-21
6.8808597e-21
-3.4134721e-21
-3.4365883e-21
-3.479585e-21
-1.2195243e-34
-1.2082147e-34
1.1965951e-34
6.7918956e-21
3.4031074e-21
-3.4657136e-21
-7.0013965e-21
-3.4901395e-21
-3.4593537e-21
2.3550092e-34
6.7328207e-21
-9.7058996e-37
9.883656e-37
1.160964e-50
3.500351e-21
-2.4032208e-34
4.7883704e-34
3.4449813e-21
-3.4743391e-21
3.4974719e-21
1.2124792e-34
-3.4659195e-21
3.4470517e-21
-4.9202939e-37
-3.4996778e-21
0
3.4688545e-21
2.3779117e-34
-6.8776441e-21
3.4641632e-21
-9.9004725e-37
-3.4693792e-21
3.4036659e-21
-3.3634284e-21
3.3965497e-21
-1.4407733e-33
-9.6734485e-34
3.4531475e-21
-6.770895e-21
0
-2.2974208e-34
-7.0383243e-34
3.4228795e-21
3.4095944e-21
2.3235483e-34
-3.3008214e-21
3.2628871e-21
2.2698487e-34
1.4224031e-36
4.6254337e-34
-6.6136769e-21
3.2323974e-21
3.1896957e-21
-2.2162654e-34
2.2467147e-34
-6.7868087e-34
2.2334003e-34
-3.1617358e-21
0
0
0
0
-3.163679e-21
6.4754196e-34
3.0780897e-21
3.1013383e-21
-3.1389986e-21
-3.1352816e-21
6.1719432e-21
2.1110091e-34
-6.3563483e-34
-3.0922622e-21
-3.0971557e-21
3.0760299e-21
0
3.0135237e-21
2.1015071e-34
-3.0661312e-21
-3.0682595e-21
4.2277038e-34
3.0195718e-21
-6.0475917e-21
3.0378033e-21
3.0312662e-21
-2.9801565e-21
2.9538922e-21
0
0
0
2.9818022e-21
-2.8941077e-21
-5.7123804e-21
2.9120827e-21
-2.0729899e-34
3.0123477e-21
2.9827354e-21
-5.8560514e-21
8.1818627e-37
-8.161214e-37
2.9149349e-21
2.9503168e-21
-5.8604627e-21
4.0857946e-37
-5.8872969e-34
2.8200436e-21
-1.5921061e-33
-4.0212184e-34
2.8612192e-21
-2.7919607e-21
0
-2.7060022e-21
2.7757539e-21
2.8276466e-21
-2.8253516e-21
0
-2.6882737e-21
2.6271516e-21
2.639275e-21
-9.4158541e-34
-5.494371e-21
-5.4657191e-21
8.0634953e-21
5.2153661e-21
0
-5.2384666e-21
-2.6787914e-21
2.6982462e-21
2.646815e-21
2.5415082e-21
-4.9577761e-21
-5.0407222e-21
2.6098723e-21
5.3165336e-21
7.3100075e-34
-5.1634453e-21
2.5347856e-21
-3.5022045e-34
-2.5482603e-21
5.1232362e-21
-2.5407658e-21
3.451733e-34
2.4511905e-21
-2.488875e-21
2.5183059e-21
-4.9807478e-21
1.0149619e-33
4.703199e-21
-4.672446e-21
-1.6675273e-34
2.4435237e-21
0
0
2.2067306e-21
-2.1726734e-21
-4.5195062e-21
2.3457292e-21
-6.7771361e-37
2.3506131e-21
2.266229e-21
-2.1969268e-21
0
-2.1128237e-21
-2.1559137e-21
0
4.4808956e-21
2.2517632e-21
-4.4165971e-21
1.4736294e-34
-5.8434937e-37
2.0158653e-21
2.0368541e-21
-2.0916907e-21
2.1380813e-21
-2.141946e-21
1.1997093e-36
4.1107649e-21
-1.9741219e-21
-1.9608281e-21
-2.0317964e-21
-2.9090576e-34
2.1088806e-21
0
0
-1.9127443e-21
2.7089383e-34
-5.6390359e-34
-2.8710415e-34
2.0297298e-21
-1.9692413e-21
2.7223894e-37
1.9114858e-21
0
0
0
0
0
0
0
-1.8727356e-21
0
1.8255562e-21
0
-1.8319691e-21
-4.9374986e-34
1.7068624e-21
0
0
-1.8081275e-21
-2.4713675e-34
1.6987905e-21
0
0
-1.6495353e-21
-1.7092815e-21
1.7131047e-21
1.6414185e-21
0
-1.5168028e-21
2.2510489e-37
1.6633583e-21
-1.6968378e-21
-1.6692689e-21
1.6110848e-21
1.5667976e-21
0
-1.4896642e-21
-1.498458e-21
1.5639698e-21
1.630483e-21
0
-1.5653238e-21
-1.4721795e-21
1.3926537e-21
1.4224308e-21
0
0
0
0
0
0
0
0
-1.5840532e-21
-5.7059053e-50
1.4810819e-21
0
0
0
-1.5041808e-21
-2.1770161e-34
1.5777314e-21
-1.5084121e-21
1.9012102e-34
-1.718943e-37
-1.7049892e-34
1.384492e-21
-1.4845493e-21
1.5111995e-21
-8.2565493e-34
-1.4496325e-21
1.435032e-21
0
0
-1.433091e-21
-1.9090541e-34
1.3304388e-21
-1.3720295e-21
-1.4701379e-21
0
1.4458567e-21
1.3425649e-21
-1.2490865e-21
-3.580721e-34
-1.270583e-50
-2.084576e-34
1.4982685e-21
-1.4003131e-21
-7.5599544e-50
-1.6892691e-34
-1.2725478e-21
0
0
1.450491e-21
1.9104697e-37
-5.0723863e-34
1.1340331e-21
0
0
-1.3661507e-21
3.7892789e-34
1.3453314e-21
0
0
0
-1.0722996e-21
1.553801e-37
1.1979802e-21
-1.2697455e-21
1.2552414e-21
-3.107155e-34
-1.8943684e-21
9.4635131e-22
4.4580749e-34
1.616024e-34
-1.6356414e-34
-1.1219181e-21
0
0
9.2459333e-22
1.4004832e-34
-2.9052257e-34
6.2878385e-51
-8.7950802e-22
8.2859527e-22
8.8727429e-22
0
-9.900206e-22
-1.1332565e-34
5.9040942e-22
0
0
-8.5146831e-22
2.4783251e-37
2.5414976e-51
-7.4854857e-22
6.1149524e-22
-7.2574222e-35
8.161887e-35
-1.9532674e-34
-7.4502044e-22
6.916928e-22
-1.5126144e-34
1.1894151e-34
-1.3242816e-34
-5.9608301e-22
6.4681284e-22
-1.6371458e-34
5.9312403e-35
0
-3.9647182e-22
5.3542289e-22
-8.4370516e-35
8.2080267e-38
-5.2868074e-35
2.4766575e-35
2.1806549e-22
-3.7245975e-22
-4.6122847e-22
4.9554818e-22
4.8584998e-22
0
-5.4323619e-23
3.1498981e-24
0
2.8975686e-22
-4.7396149e-35
5.2652467e-38
5.198439e-35
-2.4006523e-22
-4.3590194e-23
-1.7470307e-35
-6.2098644e-36
-1.6306503e-22
-2.2281864e-22
4.8611349e-22
-2.6838369e-38
-2.440066e-36
-1.576978e-22
5.9179754e-23
1.3541231e-35
1.6042973e-22
0
0
0
2.0126111e-22
4.950586e-23
-3.9500068e-24
-7.8479312e-23
0
3.9057439e-22
2.8286848e-22
-1.5846985e-22
-1.7891811e-22
0
5.3767611e-22
4.2119275e-22
-2.7764767e-22
-5.7471328e-35
3.3897674e-22
0
0
0
0
-4.3108576e-22
1.0268559e-34
5.1300649e-22
-8.4868083e-22
-1.5098016e-34
1.4133057e-34
-1.0128762e-50
-6.5436172e-22
-6.0391271e-22
1.6214286e-21
1.6684853e-34
-1.7790434e-34
1.0627711e-21
0
-9.0664607e-22
-1.2168649e-21
1.3338316e-21
3.3268878e-34
-1.0474602e-21
0
0
1.2428679e-21
-2.3459254e-34
-2.0078297e-21
0
1.6341827e-21
-2.1926135e-37
4.2284625e-34
2.2444267e-34
-2.0454256e-21
2.5366178e-21
-3.6935019e-37
6.6877495e-34
2.2363726e-21
-2.2153596e-21
-7.0467401e-34
-4.2979418e-37
4.8054664e-34
3.4079949e-21
-3.032652e-21
0
1.6739771e-33
4.5226568e-34
1.5419019e-33
5.9225262e-37
4.2244796e-21
-4.0550511e-21
-1.3120214e-50
5.8166587e-34
-1.2362723e-33
6.6828808e-34
-1.0355397e-20
5.4546842e-21
5.6202491e-21
7.9840764e-34
-8.2214545e-34
-1.2295326e-20
6.4027296e-21
6.6746557e-21
1.4435051e-50
0
1.8276164e-50
8.0533132e-21
-8.3340269e-21
1.4089157e-50
1.2367611e-33
1.3320526e-36
9.8815052e-21
-2.0645014e-20
-2.9554313e-33
1.0909882e-20
-1.5660272e-33
1.6405129e-33
-1.2493982e-20
1.319406e-20
-1.0723431e-49
5.8702991e-33
-4.0134749e-33
4.1566579e-33
4.3573864e-33
3.7824806e-50
0
-1.81258e-20
0
0
1.9970606e-20
5.7672175e-33
-2.16941e-20
0
0
4.9007612e-20
2.1099202e-32
-5.2459362e-20
2.721983e-20
-4.0239057e-36
4.090113e-33
3.0577686e-20
0
0
0
3.5152713e-20
1.0125988e-32
-3.7881439e-20
0
0
4.2035174e-20
-6.1858866e-36
-4.5093729e-20
0
0
4.9955661e-20
1.433077e-32
1.4851604e-32
-1.5365479e-32
-5.7260729e-20
5.9202522e-20
-1.6975783e-32
1.7538185e-32
-1.8120739e-32
-6.7567127e-20
0
0
7.4556345e-20
-2.973571e-48
-7.9488366e-20
0
0
8.7721211e-20
-2.2251091e-48
-9.33921e-20
0
0
1.0274824e-19
-2.613135e-48
-1.0959391e-19
0
0
1.2031344e-19
-1.7631029e-35
-1.2797077e-19
1.3204107e-19
-3.7858851e-32
3.9070815e-32
-4.0291762e-32
-1.4965917e-19
0
0
0
0
0
1.796121e-19
-5.1424461e-32
-1.9107281e-19
0
0
0
0
0
0
0
2.4243076e-19
-1.3854124e-31
-2.5689082e-19
0
0
0
0
0
0
0
3.2334758e-19
-9.231161e-32
-3.4213152e-19
0
0
3.7186822e-19
-1.061813e-31
-3.9279165e-19
0
0
0
4.3778679e-19
1.2490268e-31
-4.6159573e-19
0
0
0
0
0
0
0
5.6742547e-19
-8.2668543e-35
-5.9636592e-19
0
0
0
0
0
0
0
7.2378121e-19
1.0531238e-34
-7.5861941e-19
0
0
0
8.3124117e-19
-4.7202506e-31
-8.6937689e-19
0
9.0860511e-19
2.5800018e-31
-9.4903201e-19
0
0
1.0120201e-18
1.0335246e-18
-1.0553037e-18
-1.0774075e-18
0
0
0
0
-1.192591e-18
1.7287334e-34
2.4814131e-18
1.2652299e-18
-2.5800668e-18
-2.6302253e-18
1.3404855e-18
1.3661683e-18
0
0
0
0
1.4989358e-18
4.2406364e-31
-1.5541202e-18
0
0
0
0
0
0
0
0
0
0
0
0
0
0
2.0032499e-18
-1.1303721e-30
-2.0677141e-18
0
0
-2.1660553e-18
6.107436e-31
-3.1734598e-34
2.266994e-18
2.3010156e-18
1.296553e-30
-6.5834348e-31
-2.4043954e-18
0
0
0
0
0
2.6173125e-18
-1.473286e-30
-2.6899781e-18
0
0
0
0
0
0
0
2.9875438e-18
-1.6794009e-30
-3.0636866e-18
0
0
0
0
0
0
0
3.3730961e-18
-2.8416013e-30
-3.451489e-18
0
0
0
0
0
0
0
0
3.8080734e-18
-5.4682743e-34
-3.887917e-18
0
0
0
0
4.087713e-18
-4.1276526e-18
-4.1676043e-18
8.4150936e-18
1.1794355e-30
-4.2873413e-18
0
0
0
0
4.4858421e-18
-1.2559599e-30
-9.1297074e-18
4.6042799e-18
4.6435826e-18
-4.6827307e-18
0
0
0
4.8383215e-18
1.3528478e-30
-4.9154111e-18
-4.9536947e-18
4.9918482e-18
5.029896e-18
-5.0678177e-18
0
0
5.1804185e-18
5.2175707e-18
-5.2545777e-18
-5.2914238e-18
-5.3280627e-18
-2.9792081e-30
5.4006275e-18
0
0
0
5.5433194e-18
5.5783667e-18
-5.6131528e-18
-5.6477262e-18
-5.682105e-18
-1.586477e-30
5.7501051e-18
0
0
0
5.882666e-18
-1.6416929e-30
-5.947417e-18
0
0
0
0
0
0
0
6.1939682e-18
-1.7272119e-30
-1.2504723e-17
-1.7441278e-30
6.309467e-18
0
0
6.392749e-18
-9.1230811e-34
1.7900542e-30
-1.7964362e-30
-6.4987072e-18
-6.5243165e-18
1.8186862e-30
6.5744651e-18
0
0
6.6469075e-18
-5.5547142e-30
-1.8576304e-30
9.5437812e-34
-6.7380816e-18
6.7599756e-18
6.781481e-18
-1.36051e-17
3.7854397e-30
6.8433868e-18
-6.8632471e-18
0
6.9019058e-18
1.9226966e-30
-6.9388262e-18
0
6.9740102e-18
-6.9910603e-18
7.7816524e-30
7.024007e-18
-7.0398042e-18
0
7.0700345e-18
0
-7.098691e-18
0
7.1257244e-18
-7.1385552e-18
3.9672862e-30
7.1629326e-18
-7.1745235e-18
0
7.1964071e-18
2.001149e-30
-7.2165163e-18
0
7.235009e-18
-7.2435985e-18
2.0610604e-33
7.2593764e-18
-7.2666444e-18
0
7.2800063e-18
7.2860169e-18
-7.2915448e-18
-7.2966333e-18
7.3013252e-18
-7.3056302e-18
-7.3095226e-18
7.3129493e-18
0
0
0
0
0
0
7.3249016e-18
1.5563457e-50
-1.4648875e-17
7.3235597e-18
7.3222647e-18
-7.3205478e-18
0
0
7.3128493e-18
7.3094761e-18
-7.305706e-18
-7.3015279e-18
0
7.2919175e-18
2.0243501e-30
-7.2806842e-18
0
0
7.2609496e-18
7.2535763e-18
-7.2457979e-18
-7.2376257e-18
0
7.2201736e-18
-2.0023238e-30
-7.201254e-18
7.1912233e-18
3.9879341e-30
1.0189197e-33
7.1588516e-18
-7.1473474e-18
-7.1354999e-18
0
0
7.0978437e-18
-1.96624e-30
-7.0709681e-18
0
7.0427527e-18
7.0281573e-18
-7.0132334e-18
-6.9979807e-18
0
0
0
0
0
0
6.8824299e-18
-1.9052196e-30
-6.8467161e-18
0
0
0
0
0
0
6.7129497e-18
9.7872269e-49
-6.6723733e-18
-6.6516997e-18
-1.8393516e-30
6.609632e-18
0
0
0
0
6.5004656e-18
1.7978859e-30
-6.4552968e-18
6.43241e-18
6.4093185e-18
-6.3860274e-18
3.5316976e-30
5.2787496e-30
5.2571094e-30
-1.7477943e-30
3.4803703e-30
-1.7325357e-30
-6.2180036e-18
0
6.168529e-18
-5.1152238e-30
8.694866e-34
6.0932227e-18
-6.0678442e-18
-6.0423401e-18
6.0167153e-18
-1.6627223e-30
4.96494e-30
3.2975187e-30
3.2805195e-30
-1.6329972e-30
3.2530804e-30
5.8342339e-18
-5.8077818e-18
-5.7812534e-18
5.7546486e-18
-1.5889129e-30
6.3291884e-30
1.5748476e-30
-1.5681853e-30
-1.5591064e-30
-1.5524153e-30
5.5664895e-18
0
-5.5122601e-18
1.5223169e-30
5.2477697e-48
-5.4306329e-18
0
5.3761147e-18
-5.3488259e-18
-5.3215158e-18
5.2941902e-18
0
0
0
0
5.1575786e-18
-1.4238459e-30
2.8332676e-30
-5.075708e-18
-5.0484597e-18
5.0212389e-18
0
0
0
0
4.8855813e-18
6.9044431e-34
-4.8316015e-18
0
0
0
0
0
0
0
4.6177219e-18
4.5912542e-18
-4.5648557e-18
-4.5385317e-18
0
0
0
0
0
0
4.3563688e-18
4.3306634e-18
-4.3050387e-18
-4.2794981e-18
0
0
0
0
0
0
4.1032345e-18
4.0784214e-18
-4.0537035e-18
-4.0290779e-18
0
0
0
0
0
0
3.859368e-18
-2.1295425e-30
-3.8117465e-18
0
0
0
0
0
0
3.6481537e-18
-1.0066381e-30
-3.6022874e-18
0
0
0
0
3.4892773e-18
4.9268311e-34
-3.4447143e-18
3.4225767e-18
1.0592016e-48
-3.378594e-18
3.3567333e-18
-1.8520997e-30
-3.3132553e-18
3.2916481e-18
1.8156374e-30
1.8037439e-30
1.6408896e-47
1.7796434e-30
8.8349109e-31
-3.1638454e-18
3.1428267e-18
3.1218936e-18
-6.2020962e-18
1.7089174e-30
6.119196e-18
0
-3.0184276e-18
8.3247165e-31
8.2723101e-31
2.4618186e-30
2.4453876e-30
1.6182331e-30
-2.4118508e-30
1.5963657e-30
-7.9365507e-31
-2.8367959e-18
0
2.7971964e-18
3.9470557e-34
2.295832e-30
2.2799173e-30
-3.8635639e-34
-1.4983063e-30
7.4415075e-31
2.6605509e-18
0
-2.6220524e-18
1.4447982e-30
3.6717569e-34
-2.5647107e-18
0
2.5267693e-18
-2.507881e-18
-2.4890428e-18
2.4702531e-18
0
0
2.414195e-18
-2.659832e-30
1.3187793e-30
-1.3095238e-30
6.5013952e-31
-2.3217355e-18
-2.303402e-18
2.2851203e-18
0
0
0
0
2.1943167e-18
6.0431398e-31
2.3960716e-30
-2.1404078e-18
-2.1225324e-18
2.1047008e-18
0
0
0
0
2.0161901e-18
1.9986277e-18
-1.9811184e-18
-1.9636577e-18
0
0
0
0
0
0
1.8426941e-18
1.8256113e-18
-1.8085734e-18
-1.7915815e-18
0
0
0
0
0
0
1.6741112e-18
-1.3803237e-30
-3.2820402e-18
1.6245656e-18
4.8245161e-18
1.5918344e-18
0
-3.1186433e-18
1.7135706e-30
5.0853111e-30
1.5109982e-18
2.9900422e-18
-2.9582137e-18
1.463253e-18
1.4474603e-18
-1.4317311e-18
1.4160693e-18
-1.9902002e-34
-1.38496e-18
-1.3695098e-18
1.3541269e-18
1.3388119e-18
-1.3235669e-18
1.3083955e-18
1.83789e-34
-1.2782811e-18
0
0
0
-2.4379249e-18
1.2043275e-18
2.379544e-18
-1.1752961e-18
1.1609014e-18
1.1465905e-18
-2.26473e-18
-5.4308853e-48
1.104168e-18
-1.0901956e-18
-2.1526173e-18
-1.06251e-18
3.1464054e-18
-1.0351839e-18
-7.012477e-47
3.0246447e-18
-1.9897292e-18
-9.8160613e-19
-9.6844163e-19
-1.9107437e-18
1.8847945e-18
9.2951899e-19
9.1673733e-19
-9.0405184e-19
-8.9146226e-19
2.6369023e-18
-8.6656798e-19
-8.5426762e-19
8.4206933e-19
8.299735e-19
1.1624167e-34
-2.4182444e-18
7.9428548e-19
-1.3029719e-30
1.2841128e-30
2.2785407e-18
-7.4812603e-19
-7.3683773e-19
-1.4513032e-18
7.1457438e-19
1.4072153e-18
-1.3854939e-18
6.8198838e-19
-6.7132911e-19
-6.607682e-19
1.95093e-18
-6.3996222e-19
-6.2972791e-19
1.2392054e-18
6.0958136e-19
-5.9966198e-19
-1.7695314e-18
5.8012729e-19
2.2820642e-18
-3.1140581e-31
-1.103248e-18
-5.4234022e-19
0
-1.0481662e-18
-1.1435487e-30
1.5187017e-18
-4.9746612e-19
1.0852991e-30
-4.8025349e-19
-4.7180391e-19
9.2691103e-19
0
0
0
4.3108085e-19
-2.3499486e-31
-8.3103119e-19
4.0788168e-19
8.0068897e-19
-1.1787162e-18
1.2841152e-30
7.5666276e-19
-3.7119544e-19
0
0
0
-6.8723968e-19
3.3696546e-19
6.6081156e-19
-9.7182015e-19
9.0258307e-35
6.2257999e-19
0
0
2.9300703e-19
-1.593986e-31
-5.6253448e-19
2.7553411e-19
5.3978204e-19
-7.9300751e-19
4.3099641e-31
5.0695385e-19
-2.4817099e-19
2.4295106e-19
-4.7563687e-19
-2.3277108e-19
7.5863364e-31
2.2292157e-19
4.3623174e-19
-6.4016476e-19
1.1865429e-34
2.0416825e-19
-1.1083548e-31
1.9526143e-19
1.9092259e-19
-1.0360932e-31
-5.47397e-19
5.0689026e-35
5.2290065e-19
-3.4065466e-19
-8.9345687e-48
3.2518728e-19
-1.58827e-19
1.5512683e-19
-3.0299231e-19
-1.4793526e-19
3.2074707e-31
1.4101462e-19
2.7529461e-19
1.3433813e-19
1.3109074e-19
-3.8372718e-19
0
1.2173751e-19
6.5910568e-32
-6.4277572e-32
6.2657724e-32
-1.1007764e-19
1.1912496e-31
-1.0459143e-19
3.3948712e-31
2.9798985e-19
-1.9354935e-19
-2.8280143e-19
-9.1811067e-20
2.6822753e-19
1.7412081e-19
-2.5428786e-19
8.2512632e-20
2.4091847e-19
0
0
-7.3957847e-20
-7.1937787e-20
0
6.8031672e-20
6.6137801e-20
-1.2856467e-19
1.3870111e-31
1.8210191e-19
-6.5470855e-32
-5.728963e-20
-5.5641624e-20
-5.4026862e-20
5.2446428e-20
5.0904307e-20
-4.9401525e-20
-1.4381052e-19
4.6508467e-20
1.8045017e-19
-4.3745765e-20
-8.4818927e-20
-4.1106932e-20
0
3.8604411e-20
0
3.6226784e-20
-3.5078618e-20
7.5398459e-32
-3.2868423e-20
1.059355e-31
9.2329607e-20
-2.9770661e-20
-2.8787821e-20
2.7828988e-20
2.6896514e-20
-2.5990976e-20
-7.5335938e-20
2.4257716e-20
9.3698606e-20
-3.7659452e-32
-2.1819218e-20
-4.2099107e-20
-2.030129e-20
3.9162684e-20
1.0479881e-32
2.584867e-36
-1.7520652e-20
3.7465208e-32
1.6247836e-20
-4.6923261e-20
1.6707616e-32
2.8944753e-20
0
0
1.2843697e-20
-6.848545e-33
-2.3696375e-20
1.1370028e-20
2.1806283e-20
1.0450445e-20
-1.1113853e-32
-2.8778751e-20
-9.1877213e-21
8.795413e-21
-1.6825433e-20
4.5699596e-36
2.5573896e-32
7.3298433e-21
1.3989702e-20
-2.0019005e-20
7.0653026e-33
1.2121671e-20
0
0
-1.041386e-20
1.0975542e-32
5.2058783e-33
1.2639112e-36
1.2631343e-20
7.9617458e-21
-6.2613516e-33
-1.0641239e-20
-3.3440828e-21
3.1486521e-21
-5.9173032e-21
-3.0790287e-33
8.647899e-33
2.4277478e-21
4.5355631e-21
-6.3451117e-21
1.9657848e-21
1.8194151e-21
-1.6781359e-21
1.5436634e-21
-2.8351897e-21
1.4428031e-33
1.1856984e-21
1.5246247e-37
1.9253312e-21
-1.7150763e-21
1.2638828e-33
1.3375204e-21
-5.8430631e-22
0
4.1767797e-22
1.8707137e-34
-7.8388019e-22
1.9204388e-22
2.6001741e-22
7.1617742e-23
1.3083479e-23
4.5152683e-23
1.0157468e-22
1.5379824e-22
-1.9909725e-22
1.3228099e-34
-1.5295189e-34
3.1378697e-22
-3.9084445e-34
3.8896808e-22
-1.4065461e-33
-1.3465327e-21
9.393014e-22
-8.0137429e-51
-5.102365e-22
-5.8969338e-34
3.0693928e-34
1.7139401e-21
-5.833002e-22
-1.7710588e-21
0
0
6.1165368e-22
6.2151247e-22
1.2551994e-21
-6.2671109e-22
-1.2430954e-21
1.2314774e-21
-6.1184331e-22
-1.8336949e-21
6.1257613e-22
6.1017513e-22
6.0086356e-22
5.8670001e-22
-1.1439185e-21
-5.5952794e-22
5.5049063e-22
1.630945e-21
-5.3458494e-22
-9.9573371e-50
-8.3413815e-34
-9.6149573e-22
9.2480397e-22
8.9355573e-22
-4.3307506e-22
-8.3560183e-22
7.9699918e-22
3.753743e-22
-1.0551876e-21
-9.9175442e-22
3.1228331e-22
5.8995739e-22
2.7516202e-22
-1.3950515e-34
-4.5017243e-22
-2.0022169e-22
1.7950159e-22
3.2356697e-22
-2.0394479e-38
-2.4224668e-22
1.8718251e-22
-1.064257e-34
-7.5866444e-23
1.8511546e-23
5.6601625e-24
-2.7392979e-23
0
5.9759668e-23
2.6438127e-22
1.1524949e-22
-1.3756665e-22
0
0
0
0
2.2823356e-22
-1.3904369e-34
-8.1422725e-22
2.902949e-22
9.2318304e-22
3.2417459e-22
-5.6570445e-34
-7.0871193e-22
-3.6894179e-22
3.8395271e-22
-7.9959586e-22
-4.1612709e-22
1.4345559e-33
4.4152595e-22
8.9924326e-22
-1.3736167e-21
1.3294824e-37
4.8028109e-22
-7.0261777e-38
5.0551816e-22
5.1034603e-22
-5.675261e-34
-1.5384639e-21
1.4699848e-37
1.5745886e-21
1.0690325e-21
-3.0056176e-34
-1.0851078e-21
-5.3840836e-22
5.3423908e-22
-1.0648941e-21
-5.3352924e-22
1.7862637e-33
5.3753821e-22
1.0672643e-21
-1.5770423e-21
5.7466242e-34
5.1083065e-22
5.0639417e-22
5.0319358e-22
2.7596078e-34
-2.7014514e-34
-9.4678373e-22
-2.5562224e-34
8.99869e-22
-8.837086e-22
2.1710384e-33
1.2699151e-21
-8.1301571e-22
4.3019208e-34
7.3934471e-22
-3.5475265e-22
-3.4302409e-22
-6.644083e-22
3.1732296e-22
8.8994648e-22
0
0
0
-6.4808959e-22
-6.0423834e-22
5.5186126e-22
4.8479336e-22
-2.7287436e-22
3.1733401e-38
-8.918373e-23
2.3316453e-34
1.5694432e-22
-9.6008524e-23
3.7881542e-35
-3.7976403e-23
-2.5240078e-35
3.8506121e-35
1.7713274e-22
-1.0543833e-22
1.2541972e-22
-5.0215976e-34
-5.3796336e-22
6.2425826e-22
2.3431902e-22
-5.6858881e-34
5.4700732e-22
-5.8116759e-22
-3.1122653e-22
-3.3559778e-22
-1.0865587e-21
4.3199524e-34
4.1378183e-22
1.3053718e-21
-3.0280584e-33
-1.4196546e-21
0
5.1123085e-22
1.0636731e-21
-5.529673e-22
5.7508468e-22
-1.9888678e-33
-1.2331967e-21
1.8974656e-21
-1.4367743e-33
-7.3651223e-34
-7.5459839e-34
-7.7355496e-34
7.1468059e-22
-2.1938678e-21
-2.2371207e-21
7.5924204e-22
1.5457458e-21
0
-7.9847346e-22
8.9781662e-34
-1.8176469e-33
9.1838358e-34
8.3495858e-22
-8.4573102e-22
-8.575128e-22
2.6018524e-21
-2.0167658e-50
-1.4603582e-33
8.7665409e-22
-9.7609752e-34
1.7842357e-21
-1.8050195e-21
-1.8126623e-21
-9.0710474e-22
9.9759422e-34
8.889691e-22
0
0
0
1.8414183e-21
-9.1894535e-22
-1.8256168e-21
2.7166658e-21
-9.0531953e-22
-2.72522e-21
2.7177984e-21
-2.9952373e-33
-1.7626511e-21
2.5958955e-21
1.7359445e-21
0
-1.7623926e-21
-2.911751e-33
-8.6292624e-22
-1.6821373e-21
8.1960056e-22
0
1.644198e-21
2.3507624e-37
9.1791622e-34
-8.1965101e-22
-2.4237473e-21
2.3871768e-21
-1.3045436e-33
-2.3039846e-21
2.2658671e-21
-3.7442785e-33
-1.4948992e-21
7.4389205e-22
-7.352862e-22
1.442814e-21
7.0472531e-22
-3.0523015e-33
-6.7635217e-22
-1.3495624e-21
-6.7553645e-22
-6.6976698e-22
1.3128618e-21
6.4120076e-22
0
-6.1093592e-22
3.3672847e-34
1.0555303e-51
6.0499287e-22
-1.6973563e-37
5.8275232e-22
2.9528641e-50
-1.6634405e-21
1.6345447e-21
1.6276326e-21
-1.085633e-21
-1.0824363e-21
0
1.043167e-21
-5.0904484e-22
-1.4949861e-21
1.4728615e-21
-8.1388927e-34
-9.7778744e-22
4.8857953e-22
0
-4.7731647e-22
-4.6698558e-22
4.5811324e-22
-7.5223814e-34
8.9829426e-22
2.5610929e-37
-1.3581443e-21
0
1.3429882e-21
8.7993201e-22
-1.3002446e-21
-8.5856879e-22
1.2848962e-21
4.3090108e-22
-1.7372156e-21
-4.3594538e-22
8.6767373e-22
8.5790722e-22
-4.7165969e-34
-4.2268811e-22
-4.2284677e-22
-4.258138e-22
4.3005514e-22
-4.804487e-34
8.6491769e-22
-1.4324254e-33
-1.2849023e-21
0
0
8.7176726e-22
-9.7502275e-34
-4.3911323e-22
1.3138e-21
-4.3735961e-22
-7.3148845e-34
-1.4806085e-33
-1.3528439e-21
4.5393268e-22
-2.50429e-34
4.9735356e-34
4.470931e-22
-4.5016856e-22
6.5156886e-38
-2.5981665e-34
5.2414544e-34
4.6822102e-22
0
-4.595756e-22
9.2314507e-22
4.6989675e-22
-9.6058043e-22
0
4.868067e-22
-4.8139583e-22
-9.5405221e-22
1.4259725e-21
-1.5928162e-33
-1.6207044e-33
4.9569979e-22
-1.5002049e-21
7.0737301e-38
4.9216564e-22
4.8766496e-22
-4.8604477e-22
-4.8904887e-22
4.9627038e-22
0
-5.0593935e-22
1.0045387e-21
-8.270604e-34
-4.9198938e-22
-1.0886086e-33
-1.0938025e-33
-1.4156163e-37
-1.0056015e-21
1.5095695e-21
1.4957028e-21
0
-9.7834195e-22
-1.4618639e-21
-6.9454863e-38
4.919781e-22
4.9292823e-22
-4.8975816e-22
-4.8423047e-22
4.7881199e-22
0
9.4935297e-22
9.5325072e-22
-1.433758e-21
-4.754535e-22
4.6900921e-22
-1.3142797e-37
-4.5711532e-22
-9.0825676e-22
-4.5476978e-22
7.6009948e-34
1.8185492e-21
-1.4915915e-33
-1.319815e-21
4.3346779e-22
4.2950714e-22
4.2884344e-22
-4.2946114e-22
-4.2782391e-22
-4.2184203e-22
-1.1782574e-37
4.0856886e-22
-4.043644e-22
1.2071657e-21
7.9924264e-22
-1.1813059e-21
3.866829e-22
7.6041891e-22
-7.5294316e-22
3.761439e-22
-3.7578206e-22
-7.4133171e-22
1.0784198e-21
-3.4810595e-22
1.13406e-33
1.0148075e-21
-6.8182553e-22
-3.4301996e-22
-3.4033562e-22
-6.6187222e-22
3.1837552e-22
2.4896261e-77
6.0405521e-22
2.9996038e-22
-3.3356994e-34
-3.0031317e-22
-5.9490048e-22
5.8286577e-22
-2.8325025e-22
-8.2340525e-22
8.0033995e-22
2.6095372e-22
-4.7965896e-51
2.5624452e-22
-7.6516846e-22
-2.5191042e-22
2.4527218e-22
4.7184163e-22
-2.2730927e-22
2.2143964e-22
-7.283153e-34
-4.3621752e-22
6.5137307e-22
2.3695638e-34
-9.1461006e-34
4.3680156e-34
-3.7839955e-22
3.702905e-22
-1.8393561e-22
-7.3424446e-22
1.8177718e-22
3.5409711e-22
0
3.24691e-22
-3.4951382e-34
-8.7999992e-38
-1.7031249e-34
-1.5142345e-22
-1.4767346e-22
1.4258995e-22
1.381355e-22
-2.7111124e-22
2.6848035e-22
-1.4746414e-34
-2.5943743e-22
2.4923159e-22
3.9922957e-34
-1.3049993e-34
-1.1756308e-22
-2.3685478e-22
1.1798981e-22
-1.1469238e-22
6.0604428e-35
1.0492341e-22
2.0859264e-22
-1.0658106e-22
-2.1911687e-22
1.109448e-22
-1.0937027e-22
1.7570907e-34
-1.0253389e-22
-2.2786476e-34
2.1065121e-22
2.1822778e-22
2.4864145e-34
-3.7500736e-34
3.7028331e-34
-1.1037428e-22
-1.1212823e-22
-1.1624325e-22
1.2150454e-22
0
0
-1.2895801e-22
7.148718e-35
1.865939e-38
1.5223505e-34
1.4498126e-22
0
-1.5883567e-22
-3.2312984e-22
1.6215666e-22
3.2873486e-22
3.4053161e-22
3.5850661e-22
-5.688924e-22
-6.6307941e-34
6.1792885e-22
-4.2038267e-22
-4.284356e-22
0
-2.2904924e-22
4.7841004e-22
2.4958851e-22
-5.1704549e-22
-2.654707e-22
3.0228976e-34
8.4208495e-22
-2.9068658e-22
-9.054011e-22
9.385994e-22
3.2248914e-22
-9.9167031e-22
3.761948e-34
3.486601e-22
7.192434e-22
4.1249694e-34
-7.6550067e-22
7.8339187e-22
-3.9997549e-22
-1.2270665e-21
0
4.3221399e-22
8.9267646e-22
-2.5452633e-34
4.6618933e-22
9.4524449e-22
-9.5976475e-22
-9.7811538e-22
0
-5.161102e-22
-5.8776693e-34
-5.984735e-34
-6.0671764e-34
1.6634916e-21
1.126463e-21
0
-1.1661796e-21
-1.3157892e-33
-6.010319e-22
-1.8251654e-21
6.1559864e-22
-3.4629624e-34
8.991861e-38
6.401551e-22
1.291226e-21
-6.4921698e-22
-1.3043138e-21
6.57375e-22
0
1.3524332e-21
-6.8037925e-22
-2.0466594e-21
6.8107947e-22
6.7974521e-22
1.3669758e-21
-6.9283758e-22
-2.0988895e-21
7.0059336e-22
-7.7583594e-34
-1.3875396e-21
6.884477e-22
6.8917541e-22
1.3912346e-21
2.0988547e-21
-1.3959278e-21
-1.3860786e-21
1.3692891e-21
7.5003144e-34
-1.3441949e-21
1.3484191e-21
7.4890281e-34
-1.3396732e-21
0
1.298583e-21
1.2742466e-21
0
-1.8844371e-21
-6.2535875e-22
-1.7564452e-37
-6.0600268e-22
-5.9129162e-22
-6.3995989e-34
1.1310053e-21
1.1185122e-21
-1.8391722e-33
-1.082413e-21
1.052062e-21
1.6929737e-33
-9.8382243e-22
0
0
0
0
8.5206738e-22
4.4912563e-34
-7.7184048e-22
-3.7296691e-22
7.2850647e-22
-1.1814224e-33
-6.8007257e-22
6.3819477e-22
3.2780485e-34
-2.7296924e-22
5.1032342e-22
-8.0610183e-34
-4.6158001e-22
4.3623695e-22
4.0482583e-22
-3.6658402e-22
-3.2391459e-22
0
0
0
0
-7.7765299e-23
6.4447586e-23
4.8297197e-23
-3.1591373e-35
8.4717304e-77
1.4388845e-23
5.8973453e-23
3.9949737e-23
-9.9043972e-23
-1.8443886e-22
7.685395e-23
1.9103696e-22
-3.4630657e-22
-2.6493864e-22
4.3249141e-22
3.045207e-22
1.6028321e-22
1.8895764e-34
-3.6490478e-22
0
2.1051364e-22
-2.2348487e-22
5.1805505e-34
6.8170111e-38
8.1628592e-34
2.5106468e-22
2.5843342e-22
-7.5970291e-38
-5.540097e-22
-5.708567e-22
9.6667967e-34
5.8400567e-22
0
0
0
3.0454488e-22
3.0983791e-22
-3.1204196e-22
-3.1039563e-22
3.0722812e-22
-6.0970787e-22
-9.1189626e-22
0
6.1088338e-22
3.3728624e-34
2.9911274e-22
8.7872214e-22
-2.8711943e-22
4.7066702e-34
-5.585357e-22
1.8331576e-33
5.3716847e-22
1.442568e-34
3.5674438e-38
-2.4312699e-22
2.3676879e-22
-4.6166836e-22
-2.2233697e-22
4.210449e-22
-3.9485986e-22
-5.2661004e-38
1.9466785e-34
1.680932e-22
4.850356e-22
-3.0367505e-22
-1.5206053e-51
-1.2098438e-22
1.7585629e-34
1.8475932e-22
-8.1704765e-23
-1.4520476e-22
6.914997e-35
1.4768045e-22
-9.7810104e-39
-1.9473678e-23
5.5144013e-24
1.4470386e-23
2.0119505e-23
-6.8047021e-23
9.6786775e-23
6.9412055e-35
-4.1920482e-34
1.9330813e-34
-1.9746197e-22
2.2403895e-22
-1.267057e-22
-2.8377802e-22
1.5612029e-22
-1.6768273e-22
3.5360665e-22
-3.1046408e-34
-5.944429e-22
0
0
7.2154593e-22
2.5194493e-22
-5.2004898e-22
5.3398871e-22
1.5650506e-37
-1.2659893e-33
-3.2843108e-34
-6.1493404e-22
6.3716498e-22
6.563251e-22
-3.3563816e-22
-1.023023e-21
-3.4572832e-22
3.511063e-22
0
0
-3.7332373e-22
2.11806e-34
1.1598522e-21
1.103594e-37
-7.793874e-22
-3.9136356e-22
4.3738921e-34
1.1997336e-21
9.0276781e-34
-8.2044905e-22
0
-4.0745292e-22
8.1123777e-22
4.0499489e-22
-9.0610887e-34
-4.1167518e-22
-8.2538584e-22
4.1023955e-22
0
0
0
0
-4.0156028e-22
2.2001986e-34
1.1674632e-21
-3.8152717e-22
-1.1290182e-21
1.1304311e-21
3.7918123e-22
-7.5263473e-22
-3.6616877e-22
-5.8965916e-34
1.0261526e-21
-1.9049873e-37
-1.118167e-33
-3.3773393e-22
-6.7367533e-22
-3.3012218e-22
-3.5273081e-34
3.0490929e-22
2.9385364e-22
2.8608431e-22
2.8255954e-22
-6.2268456e-34
-5.5401317e-22
0
0
-2.507645e-22
-3.978022e-34
-3.2490952e-38
3.1428028e-38
2.1679551e-22
4.2696328e-22
4.1810851e-22
-4.0254437e-22
-2.1075642e-34
-1.7732902e-22
-5.0112514e-22
0
0
1.5422137e-22
1.4949018e-22
0
-1.3009187e-22
6.6105918e-35
1.1119935e-22
-1.069733e-22
2.0991278e-22
-3.4080243e-34
-2.9080653e-22
8.7855481e-23
7.6621605e-23
1.3488644e-22
-6.3195181e-23
-1.8837632e-22
6.3106525e-23
-3.4235737e-35
1.14574e-22
4.9323521e-23
-7.8807628e-23
6.2654626e-23
2.0278556e-51
-5.4861092e-23
0
0
5.5029367e-23
-2.7389227e-35
-7.1217698e-35
4.7447819e-51
-4.5686593e-23
-1.3694784e-35
9.3470585e-24
1.4578242e-23
1.5035087e-23
-1.9901481e-23
-2.9160692e-35
-1.5509355e-23
-5.3439663e-35
1.4131001e-23
-2.1456891e-23
0
-9.129994e-24
1.3830207e-35
1.6962276e-23
4.2198963e-23
2.6870512e-35
-5.2464397e-23
0
0
-2.8914786e-23
1.648716e-35
9.7210041e-23
4.1604075e-35
-8.7797915e-23
0
5.4517197e-23
-5.6351637e-23
-5.6048659e-23
-5.6519077e-23
-6.0043756e-23
1.3291355e-22
2.2226775e-22
-8.0954622e-23
-1.7168564e-22
2.6547009e-22
-5.6430416e-52
-1.8459685e-22
0
0
0
0
2.3849427e-22
2.4717925e-22
-1.265821e-22
-3.8655232e-22
-1.4641049e-34
1.3624154e-22
-2.8380934e-22
-2.9607719e-22
1.5333706e-22
6.264037e-22
3.1611196e-22
-4.796014e-22
-3.2678474e-22
5.054907e-22
3.8707833e-34
-3.5836578e-22
0
0
0
3.7275387e-22
2.1192925e-34
-4.3513354e-34
1.9941848e-22
-6.0052637e-22
1.9948366e-22
1.998219e-22
-6.0725042e-22
-4.1332011e-22
2.111673e-22
4.2694001e-22
4.2516812e-22
-7.0128588e-34
2.3314102e-34
-6.0235105e-38
-4.3154307e-22
0
-2.2131897e-22
-2.1891635e-22
2.1458746e-22
2.118364e-22
-2.1242135e-22
-2.1569845e-22
4.3958044e-22
2.2231198e-22
-2.2158808e-22
2.1788863e-22
-2.1403827e-22
-4.2414652e-22
0
0
6.3862905e-22
2.1226589e-22
-4.2221534e-22
-2.1012476e-22
-2.0965718e-22
4.1883513e-22
-2.3050573e-34
-4.0593607e-22
0
1.9551254e-22
5.8654924e-22
4.387405e-34
-1.1088568e-33
3.9813346e-22
-5.8288163e-22
-1.8753482e-22
-5.1859895e-38
1.8082498e-22
-3.0309879e-34