/*--------------------------------*- C++ -*----------------------------------*\
  =========                 |
  \\      /  F ield         | OpenFOAM: The Open Source CFD Toolbox
   \\    /   O peration     | Website:  https://openfoam.org
    \\  /    A nd           | Version:  7
     \\/     M anipulation  |
\*---------------------------------------------------------------------------*/
FoamFile
{
    version     2.0;
    format      ascii;
    class       volScalarField;
    location    "0.00235";
    object      rho;
}
// * * * * * * * * * * * * * * * * * * * * * * * * * * * * * * * * * * * * * //

dimensions      [1 -3 0 0 0 0 0];

internalField   nonuniform List<scalar> 
5000
(
1.0041195
1.0041829
1.0042813
1.0043606
1.004459
1.0045388
1.0046372
1.004717
1.0048155
1.0048954
1.0049939
1.0050738
1.0051724
1.0052522
1.0053509
1.0054307
1.0055293
1.0056092
1.0057078
1.0057876
1.0058862
1.005966
1.0060647
1.0061444
1.006243
1.0063228
1.0064214
1.0065011
1.0065997
1.0066794
1.006778
1.0068576
1.0069562
1.0070358
1.0071344
1.0072139
1.0073125
1.007392
1.0074906
1.0075701
1.0076686
1.0077481
1.0078466
1.0079261
1.0080245
1.008104
1.0082024
1.0082818
1.0083803
1.0084596
1.0085581
1.0086374
1.0087359
1.0088151
1.0089136
1.0089928
1.0090913
1.0091705
1.0092689
1.0093481
1.0094465
1.0095256
1.009624
1.0097031
1.0098014
1.0098804
1.0099788
1.0100577
1.010156
1.010235
1.0103333
1.0104121
1.0105104
1.0105893
1.0106876
1.0107665
1.0108648
1.0109437
1.011042
1.0111209
1.0112193
1.0112981
1.0113965
1.0114754
1.0115738
1.0116527
1.0117511
1.0118299
1.0119283
1.0120071
1.0121055
1.0121843
1.0122827
1.0123614
1.0124598
1.0125385
1.0126368
1.0127155
1.0128139
1.0128925
1.0129908
1.0130694
1.0131678
1.0132463
1.0133446
1.0134232
1.0135215
1.0136
1.0136983
1.0137767
1.013875
1.0139534
1.0140517
1.0141301
1.0142284
1.0143067
1.014405
1.0144833
1.0145816
1.0146599
1.0147581
1.0148364
1.0149346
1.0150128
1.015111
1.0151892
1.0152874
1.0153656
1.0154638
1.0155419
1.0156401
1.0157182
1.0158164
1.0158944
1.0159926
1.0160706
1.0161688
1.0162467
1.0163449
1.0164228
1.016521
1.0165989
1.016697
1.0167749
1.016873
1.0169508
1.017049
1.0171268
1.0172249
1.0173026
1.0174008
1.0174785
1.0175766
1.0176542
1.0177524
1.01783
1.0179281
1.0180057
1.0181038
1.0181814
1.0182794
1.018357
1.0184551
1.0185325
1.0186306
1.0187081
1.0188061
1.0188836
1.0189816
1.019059
1.0191571
1.0192344
1.0193325
1.0194097
1.0195078
1.0195851
1.0196831
1.0197604
1.0198583
1.0199356
1.0200336
1.0201107
1.0202088
1.0202858
1.0203839
1.0204609
1.0205589
1.0206361
1.0207339
1.0208111
1.0209089
1.020986
1.021084
1.0211608
1.0212591
1.0213355
1.0214341
1.0215103
1.0216088
1.0216854
1.0217831
1.0218607
1.021957
1.0220363
1.0221307
1.0222119
1.0223044
1.0223875
1.0224781
1.0225628
1.0226519
1.0227379
1.0228259
1.0229128
1.0230001
1.0230875
1.0231744
1.023262
1.0233488
1.0234365
1.0235232
1.0236109
1.0236976
1.0237853
1.023872
1.0239597
1.0240464
1.0241341
1.0242207
1.0243084
1.0243951
1.0244828
1.0245694
1.0246571
1.0247438
1.0248314
1.024918
1.0250057
1.0250923
1.0251799
1.0252665
1.0253541
1.0254407
1.0255283
1.0256149
1.0257024
1.025789
1.0258765
1.025963
1.0260506
1.0261371
1.0262246
1.0263111
1.0263985
1.0264851
1.0265724
1.026659
1.0267462
1.026833
1.02692
1.0270068
1.0270938
1.0271807
1.0272675
1.0273544
1.0274412
1.0275282
1.0276149
1.0277018
1.0277885
1.0278755
1.0279621
1.0280491
1.0281356
1.0282226
1.0283092
1.0283961
1.0284826
1.0285696
1.0286561
1.028743
1.0288295
1.0289163
1.0290028
1.0290897
1.0291761
1.029263
1.0293494
1.0294362
1.0295226
1.0296094
1.0296958
1.0297826
1.029869
1.0299557
1.0300421
1.0301288
1.0302152
1.0303019
1.0303882
1.0304749
1.0305612
1.0306479
1.0307341
1.0308208
1.030907
1.0309937
1.0310799
1.0311665
1.0312527
1.0313393
1.0314255
1.0315121
1.0315983
1.0316848
1.031771
1.0318575
1.0319436
1.0320302
1.0321163
1.0322028
1.0322889
1.0323753
1.0324614
1.0325479
1.0326339
1.0327203
1.0328064
1.0328928
1.0329788
1.0330652
1.0331512
1.0332376
1.0333235
1.0334099
1.0334958
1.0335822
1.0336681
1.0337544
1.0338403
1.0339266
1.0340125
1.0340988
1.0341846
1.0342709
1.0343567
1.0344429
1.0345288
1.034615
1.0347008
1.034787
1.0348727
1.0349589
1.0350447
1.0351308
1.0352166
1.0353027
1.0353884
1.0354746
1.0355603
1.0356464
1.0357321
1.0358182
1.0359038
1.0359899
1.0360756
1.0361617
1.0362473
1.0363334
1.0364191
1.0365051
1.0365908
1.0366768
1.0367624
1.0368485
1.0369341
1.0370202
1.0371058
1.0371918
1.0372774
1.0373634
1.037449
1.037535
1.0376206
1.0377066
1.0377922
1.0378782
1.0379637
1.0380497
1.0381352
1.0382212
1.0383067
1.0383927
1.0384782
1.0385641
1.0386496
1.0387355
1.0388209
1.0389069
1.0389923
1.0390782
1.0391636
1.0392495
1.0393349
1.0394207
1.0395061
1.0395919
1.0396773
1.0397631
1.0398484
1.0399343
1.0400196
1.0401054
1.0401907
1.0402764
1.0403617
1.0404474
1.0405328
1.0406184
1.0407037
1.0407893
1.0408747
1.0409602
1.0410456
1.0411311
1.0412165
1.0413019
1.0413873
1.0414727
1.0415581
1.0416434
1.0417288
1.0418142
1.0418995
1.0419849
1.0420702
1.0421555
1.0422408
1.0423261
1.0424114
1.0424967
1.0425819
1.0426672
1.0427525
1.0428377
1.0429229
1.0430082
1.0430934
1.0431786
1.0432638
1.043349
1.0434341
1.0435193
1.0436045
1.0436896
1.0437748
1.0438599
1.043945
1.0440301
1.0441152
1.0442003
1.0442854
1.0443705
1.0444556
1.0445406
1.0446257
1.0447107
1.0447957
1.0448807
1.0449658
1.0450508
1.0451357
1.0452207
1.0453057
1.0453907
1.0454756
1.0455606
1.0456455
1.0457304
1.0458153
1.0459002
1.0459851
1.04607
1.0461549
1.0462398
1.0463246
1.0464095
1.0464943
1.0465792
1.046664
1.0467488
1.0468336
1.0469184
1.0470032
1.0470879
1.0471727
1.0472575
1.0473422
1.0474269
1.0475117
1.0475964
1.0476811
1.0477658
1.0478505
1.0479352
1.0480199
1.0481045
1.0481892
1.0482738
1.0483585
1.0484431
1.0485277
1.0486124
1.048697
1.0487816
1.0488662
1.0489508
1.0490354
1.04912
1.0492046
1.0492892
1.0493737
1.0494583
1.0495429
1.0496274
1.049712
1.0497965
1.0498811
1.0499656
1.0500502
1.0501347
1.0502192
1.0503037
1.0503883
1.0504728
1.0505573
1.0506418
1.0507263
1.0508108
1.0508952
1.0509797
1.0510642
1.0511487
1.0512331
1.0513176
1.051402
1.0514865
1.0515709
1.0516553
1.0517397
1.0518241
1.0519085
1.0519929
1.0520773
1.0521617
1.0522461
1.0523304
1.0524148
1.0524991
1.0525834
1.0526678
1.0527521
1.0528364
1.0529207
1.053005
1.0530893
1.0531736
1.0532578
1.0533421
1.0534263
1.0535106
1.0535948
1.053679
1.0537632
1.0538474
1.0539316
1.0540158
1.0541
1.0541842
1.0542683
1.0543525
1.0544366
1.0545208
1.0546049
1.054689
1.0547731
1.0548572
1.0549413
1.0550254
1.0551095
1.0551935
1.0552776
1.0553616
1.0554457
1.0555297
1.0556137
1.0556977
1.0557817
1.0558657
1.0559497
1.0560337
1.0561177
1.0562016
1.0562856
1.0563695
1.0564534
1.0565374
1.0566213
1.0567052
1.0567891
1.056873
1.0569569
1.0570407
1.0571246
1.0572085
1.0572923
1.0573761
1.05746
1.0575438
1.0576276
1.0577114
1.0577952
1.057879
1.0579628
1.0580465
1.0581303
1.058214
1.0582978
1.0583815
1.0584652
1.058549
1.0586327
1.0587164
1.0588001
1.0588837
1.0589674
1.0590511
1.0591347
1.0592184
1.059302
1.0593856
1.0594693
1.0595529
1.0596365
1.0597201
1.0598037
1.0598872
1.0599708
1.0600544
1.0601379
1.0602214
1.060305
1.0603885
1.060472
1.0605555
1.060639
1.0607225
1.060806
1.0608895
1.0609729
1.0610564
1.0611398
1.0612233
1.0613067
1.0613901
1.0614736
1.061557
1.0616404
1.0617238
1.0618072
1.0618906
1.0619739
1.0620573
1.0621407
1.062224
1.0623074
1.0623908
1.0624741
1.0625575
1.0626408
1.0627241
1.0628075
1.0628908
1.0629741
1.0630574
1.0631407
1.063224
1.0633073
1.0633906
1.0634739
1.0635572
1.0636405
1.0637238
1.063807
1.0638903
1.0639736
1.0640568
1.0641401
1.0642233
1.0643066
1.0643898
1.064473
1.0645562
1.0646395
1.0647227
1.0648059
1.0648891
1.0649722
1.0650554
1.0651386
1.0652218
1.0653049
1.0653881
1.0654712
1.0655544
1.0656375
1.0657206
1.0658037
1.0658869
1.06597
1.0660531
1.0661361
1.0662192
1.0663023
1.0663853
1.0664684
1.0665514
1.0666345
1.0667175
1.0668005
1.0668835
1.0669665
1.0670495
1.0671325
1.0672155
1.0672985
1.0673814
1.0674644
1.0675473
1.0676303
1.0677132
1.0677961
1.067879
1.0679619
1.0680448
1.0681277
1.0682106
1.0682935
1.0683763
1.0684592
1.068542
1.0686249
1.0687077
1.0687905
1.0688733
1.0689561
1.0690389
1.0691217
1.0692045
1.0692873
1.06937
1.0694528
1.0695355
1.0696182
1.069701
1.0697837
1.0698664
1.0699491
1.0700318
1.0701145
1.0701971
1.0702798
1.0703624
1.0704451
1.0705277
1.0706103
1.0706929
1.0707755
1.0708581
1.0709407
1.0710233
1.0711059
1.0711884
1.071271
1.0713535
1.071436
1.0715185
1.071601
1.0716835
1.071766
1.0718485
1.071931
1.0720134
1.0720959
1.0721783
1.0722607
1.0723431
1.0724255
1.0725079
1.0725903
1.0726726
1.072755
1.0728373
1.0729197
1.073002
1.0730843
1.0731666
1.0732488
1.0733311
1.0734134
1.0734956
1.0735779
1.0736601
1.0737423
1.0738245
1.0739066
1.0739888
1.074071
1.0741531
1.0742352
1.0743174
1.0743995
1.0744815
1.0745636
1.0746457
1.0747277
1.0748097
1.0748918
1.0749737
1.0750557
1.0751377
1.0752196
1.0753016
1.0753835
1.0754654
1.0755473
1.0756291
1.075711
1.0757928
1.0758746
1.0759564
1.0760381
1.0761199
1.0762016
1.0762833
1.076365
1.0764466
1.0765282
1.0766098
1.0766914
1.076773
1.0768545
1.076936
1.0770174
1.0770989
1.0771803
1.0772617
1.077343
1.0774243
1.0775056
1.0775868
1.077668
1.0777492
1.0778303
1.0779114
1.0779925
1.0780735
1.0781545
1.0782354
1.0783163
1.0783971
1.0784779
1.0785587
1.0786394
1.07872
1.0788006
1.0788811
1.0789617
1.0790421
1.0791225
1.0792029
1.0792832
1.0793634
1.0794436
1.0795237
1.0796038
1.0796838
1.0797637
1.0798435
1.0799233
1.0800031
1.0800827
1.0801623
1.0802418
1.0803212
1.0804006
1.0804799
1.0805591
1.0806382
1.0807172
1.0807962
1.0808751
1.0809539
1.0810325
1.0811111
1.0811897
1.0812681
1.0813464
1.0814246
1.0815027
1.0815808
1.0816587
1.0817365
1.0818142
1.0818918
1.0819693
1.0820467
1.082124
1.0822012
1.0822782
1.0823551
1.0824319
1.0825086
1.0825852
1.0826616
1.0827379
1.0828141
1.0828901
1.082966
1.0830418
1.0831174
1.0831928
1.0832682
1.0833433
1.0834184
1.0834933
1.083568
1.0836426
1.083717
1.0837912
1.0838653
1.0839393
1.084013
1.0840866
1.08416
1.0842333
1.0843064
1.0843793
1.084452
1.0845245
1.0845969
1.0846691
1.084741
1.0848128
1.0848844
1.0849558
1.085027
1.0850981
1.0851689
1.0852395
1.0853099
1.0853801
1.08545
1.0855198
1.0855893
1.0856587
1.0857278
1.0857967
1.0858654
1.0859338
1.086002
1.08607
1.0861378
1.0862053
1.0862726
1.0863396
1.0864064
1.086473
1.0865394
1.0866055
1.0866713
1.0867369
1.0868023
1.0868674
1.0869322
1.0869968
1.0870611
1.0871252
1.087189
1.0872526
1.0873159
1.0873789
1.0874417
1.0875042
1.0875664
1.0876284
1.0876901
1.0877516
1.0878127
1.0878736
1.0879342
1.0879945
1.0880546
1.0881143
1.0881738
1.088233
1.088292
1.0883506
1.088409
1.0884671
1.0885248
1.0885823
1.0886395
1.0886965
1.0887531
1.0888094
1.0888655
1.0889213
1.0889767
1.0890319
1.0890868
1.0891414
1.0891956
1.0892496
1.0893033
1.0893567
1.0894099
1.0894627
1.0895152
1.0895674
1.0896193
1.0896709
1.0897222
1.0897732
1.0898239
1.0898743
1.0899245
1.0899743
1.0900238
1.090073
1.090122
1.0901706
1.0902189
1.0902669
1.0903146
1.090362
1.0904092
1.090456
1.0905025
1.0905488
1.0905947
1.0906403
1.0906857
1.0907307
1.0907755
1.09082
1.0908641
1.090908
1.0909516
1.0909949
1.0910379
1.0910806
1.091123
1.0911651
1.091207
1.0912485
1.0912898
1.0913308
1.0913715
1.0914119
1.091452
1.0914919
1.0915314
1.0915707
1.0916097
1.0916484
1.0916869
1.0917251
1.091763
1.0918007
1.091838
1.0918751
1.091912
1.0919485
1.0919848
1.0920209
1.0920566
1.0920921
1.0921274
1.0921624
1.0921971
1.0922315
1.0922657
1.0922997
1.0923334
1.0923668
1.0924
1.0924329
1.0924656
1.0924981
1.0925303
1.0925622
1.092594
1.0926255
1.0926567
1.0926877
1.0927185
1.092749
1.0927793
1.0928094
1.0928392
1.0928688
1.0928982
1.0929274
1.0929563
1.092985
1.0930135
1.0930418
1.0930698
1.0930976
1.0931252
1.0931526
1.0931798
1.0932068
1.0932336
1.0932602
1.0932866
1.0933127
1.0933387
1.0933644
1.09339
1.0934153
1.0934405
1.0934655
1.0934903
1.0935148
1.0935392
1.0935635
1.0935875
1.0936113
1.093635
1.0936585
1.0936818
1.0937049
1.0937279
1.0937506
1.0937732
1.0937956
1.0938178
1.0938399
1.0938618
1.0938835
1.0939051
1.0939265
1.0939478
1.0939688
1.0939898
1.0940106
1.0940312
1.0940516
1.0940719
1.0940921
1.0941121
1.094132
1.0941517
1.0941713
1.0941907
1.09421
1.0942291
1.0942481
1.094267
1.0942857
1.0943043
1.0943228
1.0943411
1.0943594
1.0943774
1.0943954
1.0944132
1.0944309
1.0944485
1.094466
1.0944833
1.0945005
1.0945177
1.0945346
1.0945515
1.0945683
1.094585
1.0946015
1.0946179
1.0946342
1.0946505
1.0946666
1.0946826
1.0946985
1.0947143
1.0947301
1.0947457
1.0947613
1.0947767
1.094792
1.0948073
1.0948224
1.0948375
1.0948525
1.0948673
1.0948821
1.0948968
1.0949115
1.094926
1.0949405
1.0949549
1.0949692
1.0949834
1.0949976
1.0950117
1.0950256
1.0950396
1.0950534
1.0950672
1.0950809
1.0950945
1.0951081
1.0951216
1.0951351
1.0951485
1.0951618
1.095175
1.0951882
1.0952013
1.0952143
1.0952273
1.0952403
1.0952532
1.095266
1.0952787
1.0952914
1.0953041
1.0953167
1.0953293
1.0953418
1.0953542
1.0953666
1.0953789
1.0953912
1.0954034
1.0954157
1.0954278
1.0954399
1.095452
1.095464
1.095476
1.0954879
1.0954998
1.0955117
1.0955235
1.0955352
1.095547
1.0955586
1.0955703
1.0955819
1.0955935
1.095605
1.0956165
1.095628
1.0956394
1.0956508
1.0956622
1.0956735
1.0956848
1.0956961
1.0957073
1.0957186
1.0957297
1.0957409
1.095752
1.0957631
1.0957742
1.0957852
1.0957962
1.0958072
1.0958182
1.0958291
1.0958401
1.095851
1.0958618
1.0958727
1.0958835
1.0958943
1.0959051
1.0959159
1.0959266
1.0959373
1.0959481
1.0959587
1.0959694
1.0959801
1.0959907
1.0960013
1.0960119
1.0960225
1.0960331
1.0960437
1.0960542
1.0960647
1.0960753
1.0960858
1.0960963
1.0961067
1.0961172
1.0961277
1.0961381
1.0961486
1.096159
1.0961694
1.0961799
1.0961903
1.0962007
1.0962111
1.0962215
1.0962319
1.0962423
1.0962526
1.096263
1.0962734
1.0962838
1.0962941
1.0963045
1.0963149
1.0963253
1.0963357
1.096346
1.0963564
1.0963668
1.0963772
1.0963876
1.096398
1.0964084
1.0964188
1.0964293
1.0964397
1.0964502
1.0964606
1.0964711
1.0964815
1.096492
1.0965025
1.096513
1.0965236
1.0965341
1.0965447
1.0965553
1.0965658
1.0965765
1.0965871
1.0965978
1.0966084
1.0966191
1.0966298
1.0966405
1.0966513
1.0966621
1.0966729
1.0966837
1.0966946
1.0967054
1.0967164
1.0967273
1.0967383
1.0967492
1.0967603
1.0967713
1.0967824
1.0967935
1.0968047
1.0968158
1.0968271
1.0968383
1.0968496
1.0968608
1.0968722
1.0968836
1.096895
1.0969064
1.0969179
1.0969295
1.096941
1.0969526
1.0969643
1.0969759
1.0969876
1.0969994
1.0970112
1.097023
1.0970349
1.0970468
1.0970588
1.0970708
1.0970828
1.0970949
1.097107
1.0971192
1.0971314
1.0971437
1.097156
1.0971683
1.0971807
1.0971932
1.0972056
1.0972182
1.0972307
1.0972434
1.097256
1.0972687
1.0972815
1.0972943
1.0973071
1.09732
1.097333
1.097346
1.097359
1.0973721
1.0973852
1.0973984
1.0974116
1.0974249
1.0974382
1.0974515
1.0974649
1.0974784
1.0974919
1.0975055
1.097519
1.0975327
1.0975464
1.0975601
1.0975739
1.0975877
1.0976016
1.0976155
1.0976295
1.0976435
1.0976576
1.0976717
1.0976858
1.0977
1.0977142
1.0977285
1.0977428
1.0977572
1.0977716
1.0977861
1.0978006
1.0978151
1.0978297
1.0978443
1.097859
1.0978737
1.0978884
1.0979032
1.0979181
1.0979329
1.0979478
1.0979628
1.0979778
1.0979928
1.0980078
1.0980229
1.0980381
1.0980532
1.0980684
1.0980837
1.0980989
1.0981142
1.0981296
1.098145
1.0981604
1.0981758
1.0981912
1.0982067
1.0982223
1.0982378
1.0982534
1.098269
1.0982846
1.0983003
1.098316
1.0983317
1.0983474
1.0983632
1.098379
1.0983948
1.0984106
1.0984265
1.0984423
1.0984582
1.0984741
1.0984901
1.098506
1.098522
1.098538
1.098554
1.09857
1.098586
1.0986021
1.0986181
1.0986342
1.0986503
1.0986664
1.0986825
1.0986986
1.0987148
1.0987309
1.0987471
1.0987632
1.0987794
1.0987956
1.0988118
1.098828
1.0988442
1.0988604
1.0988766
1.0988928
1.098909
1.0989252
1.0989415
1.0989577
1.0989739
1.0989902
1.0990064
1.0990227
1.0990389
1.0990551
1.0990714
1.0990876
1.0991038
1.0991201
1.0991363
1.0991525
1.0991688
1.099185
1.0992012
1.0992174
1.0992336
1.0992498
1.099266
1.0992822
1.0992984
1.0993146
1.0993308
1.0993469
1.0993631
1.0993793
1.0993954
1.0994115
1.0994277
1.0994438
1.0994599
1.099476
1.0994921
1.0995081
1.0995242
1.0995403
1.0995563
1.0995723
1.0995884
1.0996044
1.0996204
1.0996364
1.0996523
1.0996683
1.0996842
1.0997002
1.0997161
1.099732
1.0997479
1.0997638
1.0997796
1.0997955
1.0998113
1.0998271
1.099843
1.0998587
1.0998745
1.0998903
1.099906
1.0999218
1.0999375
1.0999532
1.0999689
1.0999846
1.1000002
1.1000158
1.1000315
1.1000471
1.1000627
1.1000782
1.1000938
1.1001093
1.1001249
1.1001404
1.1001559
1.1001713
1.1001868
1.1002022
1.1002177
1.1002331
1.1002485
1.1002639
1.1002792
1.1002946
1.1003099
1.1003252
1.1003405
1.1003557
1.100371
1.1003862
1.1004014
1.1004166
1.1004318
1.1004469
1.1004621
1.1004772
1.1004923
1.1005074
1.1005225
1.1005375
1.1005526
1.1005676
1.1005826
1.1005976
1.1006126
1.1006275
1.1006424
1.1006573
1.1006722
1.1006871
1.100702
1.1007168
1.1007316
1.1007464
1.1007612
1.100776
1.1007907
1.1008054
1.1008201
1.1008348
1.1008495
1.1008641
1.1008788
1.1008934
1.100908
1.1009226
1.1009371
1.1009517
1.1009662
1.1009807
1.1009952
1.1010097
1.1010241
1.1010386
1.101053
1.1010674
1.1010818
1.1010961
1.1011105
1.1011248
1.1011391
1.1011534
1.1011676
1.1011819
1.1011961
1.1012103
1.1012245
1.1012387
1.1012528
1.101267
1.1012811
1.1012952
1.1013093
1.1013234
1.1013374
1.1013514
1.1013654
1.1013794
1.1013934
1.1014074
1.1014213
1.1014352
1.1014491
1.101463
1.1014768
1.1014907
1.1015045
1.1015183
1.1015321
1.1015459
1.1015596
1.1015734
1.1015871
1.1016008
1.1016145
1.1016281
1.1016417
1.1016554
1.101669
1.1016825
1.1016961
1.1017096
1.1017232
1.1017367
1.1017502
1.1017637
1.1017771
1.1017905
1.1018039
1.1018173
1.1018307
1.1018441
1.1018574
1.1018707
1.101884
1.1018973
1.1019106
1.1019238
1.1019371
1.1019503
1.1019635
1.1019767
1.1019898
1.1020029
1.1020161
1.1020292
1.1020422
1.1020553
1.1020684
1.1020814
1.1020944
1.1021074
1.1021204
1.1021333
1.1021463
1.1021592
1.1021721
1.102185
1.1021979
1.1022107
1.1022236
1.1022364
1.1022492
1.102262
1.1022747
1.1022875
1.1023002
1.1023129
1.1023256
1.1023383
1.102351
1.1023637
1.1023763
1.1023889
1.1024015
1.1024141
1.1024267
1.1024392
1.1024517
1.1024643
1.1024768
1.1024893
1.1025017
1.1025142
1.1025266
1.102539
1.1025514
1.1025638
1.1025762
1.1025885
1.1026009
1.1026132
1.1026255
1.1026378
1.10265
1.1026623
1.1026745
1.1026867
1.1026989
1.1027111
1.1027233
1.1027355
1.1027476
1.1027597
1.1027718
1.1027839
1.102796
1.102808
1.1028201
1.1028321
1.1028441
1.1028561
1.1028681
1.10288
1.102892
1.1029039
1.1029158
1.1029277
1.1029396
1.1029514
1.1029633
1.1029751
1.1029869
1.1029987
1.1030105
1.1030222
1.103034
1.1030457
1.1030574
1.1030691
1.1030808
1.1030925
1.1031041
1.1031157
1.1031274
1.1031389
1.1031505
1.1031621
1.1031737
1.1031852
1.1031967
1.1032082
1.1032197
1.1032312
1.1032426
1.1032541
1.1032655
1.1032769
1.1032883
1.1032997
1.103311
1.1033224
1.1033337
1.103345
1.1033563
1.1033676
1.1033788
1.1033901
1.1034013
1.1034125
1.1034237
1.1034349
1.1034461
1.1034572
1.1034684
1.1034795
1.1034906
1.1035017
1.1035127
1.1035238
1.1035348
1.1035459
1.1035569
1.1035678
1.1035788
1.1035898
1.1036007
1.1036116
1.1036225
1.1036334
1.1036443
1.1036552
1.103666
1.1036768
1.1036876
1.1036984
1.1037092
1.10372
1.1037307
1.1037414
1.1037522
1.1037629
1.1037735
1.1037842
1.1037949
1.1038055
1.1038161
1.1038267
1.1038373
1.1038478
1.1038584
1.1038689
1.1038794
1.1038899
1.1039004
1.1039108
1.1039213
1.1039317
1.1039421
1.1039526
1.1039629
1.1039733
1.1039836
1.103994
1.1040043
1.1040146
1.1040249
1.1040351
1.1040454
1.1040556
1.1040658
1.104076
1.1040862
1.1040964
1.1041065
1.1041167
1.1041268
1.1041369
1.1041469
1.104157
1.1041671
1.1041771
1.1041871
1.1041971
1.1042071
1.104217
1.104227
1.1042369
1.1042468
1.1042567
1.1042666
1.1042764
1.1042863
1.1042961
1.1043059
1.1043157
1.1043254
1.1043352
1.1043449
1.1043546
1.1043643
1.104374
1.1043836
1.1043933
1.1044029
1.1044125
1.1044221
1.1044317
1.1044412
1.1044508
1.1044603
1.1044698
1.1044793
1.1044887
1.1044982
1.1045076
1.104517
1.1045264
1.1045357
1.1045451
1.1045544
1.1045638
1.1045731
1.1045823
1.1045916
1.1046009
1.1046101
1.1046193
1.1046285
1.1046376
1.1046468
1.1046559
1.1046651
1.1046742
1.1046832
1.1046923
1.1047014
1.1047104
1.1047194
1.1047284
1.1047374
1.1047463
1.1047553
1.1047642
1.1047731
1.104782
1.1047908
1.1047997
1.1048085
1.1048173
1.1048261
1.1048349
1.1048436
1.1048524
1.1048611
1.1048698
1.1048785
1.1048872
1.1048958
1.1049045
1.1049131
1.1049217
1.1049303
1.1049388
1.1049474
1.1049559
1.1049644
1.1049729
1.1049814
1.1049898
1.1049983
1.1050067
1.1050151
1.1050235
1.1050319
1.1050402
1.1050486
1.1050569
1.1050652
1.1050735
1.1050817
1.10509
1.1050982
1.1051064
1.1051146
1.1051228
1.1051309
1.1051391
1.1051472
1.1051553
1.1051634
1.1051715
1.1051795
1.1051875
1.1051956
1.1052036
1.1052115
1.1052195
1.1052274
1.1052354
1.1052433
1.1052512
1.1052591
1.1052669
1.1052748
1.1052826
1.1052904
1.1052982
1.1053059
1.1053137
1.1053214
1.1053291
1.1053368
1.1053445
1.1053522
1.1053598
1.1053675
1.1053751
1.1053827
1.1053902
1.1053978
1.1054053
1.1054128
1.1054203
1.1054278
1.1054353
1.1054427
1.1054501
1.1054576
1.1054649
1.1054723
1.1054797
1.105487
1.1054943
1.1055016
1.1055089
1.1055162
1.1055234
1.1055307
1.1055379
1.1055451
1.1055523
1.1055594
1.1055666
1.1055737
1.1055808
1.1055879
1.1055949
1.105602
1.105609
1.105616
1.105623
1.1056299
1.1056369
1.1056438
1.1056507
1.1056576
1.1056645
1.1056713
1.1056782
1.105685
1.1056918
1.1056986
1.1057054
1.1057122
1.1057189
1.1057256
1.1057323
1.1057389
1.1057456
1.1057522
1.1057588
1.1057654
1.1057719
1.1057785
1.105785
1.1057915
1.105798
1.1058044
1.1058109
1.1058173
1.1058237
1.1058301
1.1058365
1.1058428
1.1058491
1.1058554
1.1058617
1.105868
1.1058742
1.1058804
1.1058866
1.1058928
1.105899
1.1059051
1.1059112
1.1059173
1.1059234
1.1059294
1.1059355
1.1059415
1.1059475
1.1059535
1.1059594
1.1059654
1.1059713
1.1059772
1.105983
1.1059889
1.1059947
1.1060005
1.1060063
1.106012
1.1060178
1.1060235
1.1060292
1.1060349
1.1060406
1.1060462
1.1060518
1.1060574
1.106063
1.1060686
1.1060741
1.1060796
1.1060851
1.1060906
1.1060961
1.1061015
1.1061069
1.1061123
1.1061177
1.106123
1.1061284
1.1061337
1.106139
1.1061443
1.1061495
1.1061548
1.10616
1.1061652
1.1061704
1.1061755
1.1061807
1.1061858
1.1061909
1.1061959
1.106201
1.106206
1.1062111
1.1062161
1.106221
1.106226
1.1062309
1.1062359
1.1062408
1.1062456
1.1062505
1.1062554
1.1062602
1.106265
1.1062698
1.1062745
1.1062793
1.106284
1.1062887
1.1062934
1.1062981
1.1063028
1.1063074
1.106312
1.1063166
1.1063212
1.1063258
1.1063303
1.1063348
1.1063393
1.1063438
1.1063483
1.1063527
1.1063571
1.1063615
1.1063659
1.1063702
1.1063746
1.1063789
1.1063832
1.1063875
1.1063918
1.106396
1.1064003
1.1064045
1.1064087
1.1064129
1.106417
1.1064212
1.1064253
1.1064294
1.1064335
1.1064375
1.1064415
1.1064456
1.1064496
1.1064535
1.1064575
1.1064614
1.1064653
1.1064692
1.1064731
1.106477
1.1064808
1.1064846
1.1064884
1.1064922
1.1064959
1.1064997
1.1065034
1.1065071
1.1065108
1.1065144
1.1065181
1.1065217
1.1065253
1.1065288
1.1065324
1.1065359
1.1065394
1.1065429
1.1065464
1.1065498
1.1065532
1.1065566
1.10656
1.1065634
1.1065667
1.10657
1.1065733
1.1065766
1.1065798
1.1065831
1.1065863
1.1065895
1.1065927
1.1065958
1.1065989
1.106602
1.1066051
1.1066082
1.1066112
1.1066142
1.1066172
1.1066202
1.1066231
1.1066261
1.106629
1.1066318
1.1066347
1.1066375
1.1066404
1.1066432
1.1066459
1.1066487
1.1066514
1.1066541
1.1066568
1.1066595
1.1066621
1.1066647
1.1066673
1.1066699
1.1066724
1.106675
1.1066775
1.10668
1.1066824
1.1066849
1.1066873
1.1066897
1.1066921
1.1066944
1.1066968
1.1066991
1.1067014
1.1067036
1.1067059
1.1067081
1.1067103
1.1067125
1.1067146
1.1067168
1.1067189
1.106721
1.106723
1.1067251
1.1067271
1.1067291
1.1067311
1.1067331
1.106735
1.1067369
1.1067388
1.1067407
1.1067426
1.1067444
1.1067463
1.1067481
1.1067498
1.1067516
1.1067533
1.106755
1.1067567
1.1067584
1.10676
1.1067617
1.1067633
1.1067649
1.1067665
1.106768
1.1067696
1.1067711
1.1067726
1.106774
1.1067755
1.1067769
1.1067783
1.1067797
1.1067811
1.1067825
1.1067838
1.1067851
1.1067864
1.1067877
1.106789
1.1067902
1.1067914
1.1067926
1.1067938
1.106795
1.1067962
1.1067973
1.1067984
1.1067995
1.1068006
1.1068017
1.1068027
1.1068038
1.1068048
1.1068058
1.1068067
1.1068077
1.1068086
1.1068096
1.1068105
1.1068114
1.1068122
1.1068131
1.1068139
1.1068148
1.1068156
1.1068164
1.1068172
1.1068179
1.1068187
1.1068194
1.1068201
1.1068208
1.1068215
1.1068221
1.1068228
1.1068234
1.106824
1.1068246
1.1068252
1.1068258
1.1068263
1.1068269
1.1068274
1.1068279
1.1068284
1.1068289
1.1068293
1.1068298
1.1068302
1.1068306
1.106831
1.1068314
1.1068317
1.1068321
1.1068324
1.1068327
1.106833
1.1068333
1.1068336
1.1068338
1.1068341
1.1068343
1.1068345
1.1068347
1.1068348
1.106835
1.1068351
1.1068352
1.1068353
1.1068354
1.1068355
1.1068355
1.1068356
1.1068356
1.1068356
1.1068356
1.1068356
1.1068355
1.1068355
1.1068354
1.1068353
1.1068351
1.106835
1.1068348
1.1068347
1.1068345
1.1068343
1.106834
1.1068338
1.1068335
1.1068332
1.1068329
1.1068326
1.1068323
1.1068319
1.1068315
1.1068311
1.1068307
1.1068303
1.1068298
1.1068294
1.1068289
1.1068284
1.1068278
1.1068273
1.1068267
1.1068261
1.1068255
1.1068248
1.1068242
1.1068235
1.1068228
1.1068221
1.1068213
1.1068206
1.1068198
1.106819
1.1068181
1.1068173
1.1068164
1.1068155
1.1068146
1.1068136
1.1068127
1.1068117
1.1068107
1.1068096
1.1068086
1.1068075
1.1068064
1.1068053
1.1068042
1.106803
1.1068018
1.1068006
1.1067994
1.1067982
1.1067969
1.1067956
1.1067943
1.1067929
1.1067916
1.1067902
1.1067888
1.1067873
1.1067859
1.1067844
1.1067829
1.1067814
1.1067798
1.1067783
1.1067767
1.1067751
1.1067734
1.1067718
1.1067701
1.1067684
1.1067666
1.1067649
1.1067631
1.1067613
1.1067595
1.1067576
1.1067558
1.1067539
1.106752
1.10675
1.1067481
1.1067461
1.1067441
1.1067421
1.1067401
1.106738
1.1067359
1.1067338
1.1067317
1.1067295
1.1067274
1.1067252
1.106723
1.1067207
1.1067185
1.1067162
1.1067139
1.1067116
1.1067092
1.1067069
1.1067045
1.1067021
1.1066996
1.1066972
1.1066947
1.1066923
1.1066897
1.1066873
1.1066847
1.1066821
1.1066795
1.1066769
1.1066743
1.1066716
1.1066689
1.1066662
1.1066635
1.1066608
1.106658
1.1066552
1.1066524
1.1066496
1.1066468
1.106644
1.1066411
1.1066383
1.1066353
1.1066324
1.1066294
1.1066265
1.1066235
1.1066205
1.1066175
1.1066145
1.1066114
1.1066084
1.1066053
1.1066022
1.1065991
1.1065959
1.1065927
1.1065895
1.1065863
1.1065831
1.1065799
1.1065766
1.1065733
1.10657
1.1065667
1.1065634
1.10656
1.1065567
1.1065533
1.1065499
1.1065465
1.106543
1.1065395
1.1065361
1.1065326
1.1065291
1.1065255
1.106522
1.1065184
1.1065148
1.1065112
1.1065076
1.1065039
1.1065002
1.1064966
1.1064928
1.1064891
1.1064854
1.1064816
1.1064778
1.106474
1.1064702
1.1064663
1.1064624
1.1064586
1.1064547
1.1064507
1.1064468
1.1064428
1.1064389
1.1064349
1.1064309
1.1064268
1.1064228
1.1064187
1.1064146
1.1064105
1.1064064
1.1064023
1.1063981
1.1063939
1.1063897
1.1063855
1.1063812
1.1063769
1.1063726
1.1063683
1.106364
1.1063596
1.1063552
1.1063508
1.1063464
1.1063419
1.1063374
1.1063329
1.1063284
1.1063238
1.1063192
1.1063146
1.10631
1.1063054
1.1063007
1.1062959
1.1062912
1.1062865
1.1062817
1.1062769
1.1062721
1.1062672
1.1062624
1.1062575
1.1062526
1.1062477
1.1062427
1.1062378
1.1062329
1.1062279
1.1062229
1.1062179
1.1062129
1.1062079
1.106203
1.1061981
1.106193
1.106188
1.1061829
1.1061779
1.1061729
1.1061679
1.1061629
1.1061578
1.1061528
1.1061478
1.1061429
1.1061379
1.1061329
1.1061278
1.1061226
1.1061175
1.1061125
1.1061076
1.1061026
1.1060975
1.1060922
1.106087
1.1060818
1.1060767
1.1060717
1.1060665
1.1060611
1.1060555
1.1060498
1.1060441
1.1060384
1.1060328
1.1060271
1.1060212
1.1060151
1.1060087
1.1060023
1.1059959
1.1059897
1.1059835
1.1059774
1.1059711
1.1059645
1.1059576
1.1059506
1.1059435
1.1059365
1.1059299
1.1059234
1.1059171
1.1059109
1.1059045
1.1058978
1.1058909
1.1058837
1.1058766
1.1058695
1.1058626
1.105856
1.1058498
1.105844
1.1058386
1.1058332
1.1058278
1.1058222
1.1058161
1.1058094
1.1058022
1.1057945
1.1057865
1.1057782
1.1057698
1.1057613
1.1057527
1.1057434
1.1057317
1.1057131
1.1056759
1.1055871
1.1053518
1.1046977
1.102885
1.0999732
1.0968154
1.0934879
1.0900569
1.0865868
1.0831375
1.079763
1.0765096
1.0734152
1.0705088
1.0678111
1.0653352
1.063087
1.0610663
1.0592678
1.0576822
1.0562972
1.0550981
1.0540688
1.0531926
1.0524527
1.0518326
1.0513167
1.0508905
1.0505408
1.0502557
1.0500246
1.0498385
1.0496895
1.0495708
1.0494768
1.0494026
1.0493445
1.0492989
1.0492634
1.0492355
1.0492136
1.0491961
1.049182
1.0491703
1.0491602
1.0491509
1.049142
1.0491339
1.049128
1.0491243
1.0491203
1.0491161
1.0491116
1.049107
1.0491022
1.0490972
1.0490921
1.0490869
1.0490816
1.0490762
1.0490708
1.0490652
1.0490596
1.049054
1.0490483
1.0490425
1.0490367
1.049031
1.0490252
1.0490194
1.0490136
1.0490078
1.0490021
1.0489964
1.0489907
1.048985
1.0489794
1.0489738
1.0489682
1.0489626
1.0489571
1.0489516
1.048946
1.0489405
1.0489349
1.0489293
1.0489237
1.0489181
1.0489124
1.0489067
1.0489009
1.0488951
1.0488893
1.0488833
1.0488774
1.0488713
1.0488652
1.048859
1.0488528
1.0488465
1.0488401
1.0488337
1.0488272
1.0488207
1.0488141
1.0488075
1.0488008
1.048794
1.0487872
1.0487804
1.0487735
1.0487666
1.0487596
1.0487526
1.0487456
1.0487385
1.0487314
1.0487243
1.0487171
1.0487099
1.0487027
1.0486954
1.0486881
1.0486808
1.0486734
1.0486661
1.0486587
1.0486512
1.0486437
1.0486363
1.0486287
1.0486212
1.0486136
1.048606
1.0485984
1.0485908
1.0485831
1.0485754
1.0485677
1.0485599
1.0485522
1.0485444
1.0485366
1.0485287
1.0485209
1.048513
1.0485051
1.0484971
1.0484892
1.0484812
1.0484732
1.0484652
1.0484571
1.048449
1.0484409
1.0484328
1.0484246
1.0484165
1.0484083
1.0484001
1.0483919
1.0483836
1.0483753
1.048367
1.0483587
1.0483504
1.048342
1.0483337
1.0483253
1.0483168
1.0483084
1.0482999
1.0482914
1.0482829
1.0482744
1.0482659
1.0482573
1.0482487
1.0482401
1.0482315
1.0482228
1.0482141
1.0482055
1.0481967
1.048188
1.0481793
1.0481705
1.0481617
1.0481529
1.0481441