/*--------------------------------*- C++ -*----------------------------------*\
| =========                 |                                                 |
| \\      /  F ield         | OpenFOAM: The Open Source CFD Toolbox           |
|  \\    /   O peration     | Version:  4.x                                   |
|   \\  /    A nd           | Web:      www.OpenFOAM.org                      |
|    \\/     M anipulation  |                                                 |
\*---------------------------------------------------------------------------*/
FoamFile
{
    version     2.0;
    format      ascii;
    class       surfaceScalarField;
    location    "0.25";
    object      phi;
}
// * * * * * * * * * * * * * * * * * * * * * * * * * * * * * * * * * * * * * //

dimensions      [1 0 -1 0 0 0 0];

internalField   nonuniform List<scalar> 
17503
(
3.069596535e-09
3.066841302e-09
-6.136432708e-09
5.955727119e-09
3.187252434e-09
-6.073409157e-09
8.495152651e-09
3.416721602e-09
-5.956157427e-09
1.051497238e-08
3.777695071e-09
-5.797511714e-09
1.190029999e-08
4.229783328e-09
-5.615091883e-09
4.82250915e-09
-5.432276516e-09
1.25101041e-08
3.190016098e-09
5.950317319e-09
-6.073520914e-09
6.196379968e-09
6.190951161e-09
-6.010092329e-09
8.858140882e-09
6.647606874e-09
-5.89266088e-09
1.09938521e-08
7.375172982e-09
-5.733180574e-09
1.248919095e-08
8.286845576e-09
-5.552368333e-09
9.499887088e-09
-5.371692703e-09
1.318356084e-08
3.419491329e-09
8.487272571e-09
-5.956465219e-09
6.653052021e-09
8.850231042e-09
-5.892857851e-09
9.543673e-09
9.535727903e-09
-5.778740758e-09
1.189280337e-08
1.065028985e-08
-5.624228348e-09
1.359345158e-08
1.204783183e-08
-5.461596236e-09
1.395650921e-08
-5.305835432e-09
1.444271762e-08
3.780459638e-09
1.050486075e-08
-5.798063605e-09
7.380611916e-09
1.098369432e-08
-5.733626481e-09
1.065825091e-08
1.18825758e-08
-5.624482149e-09
1.339541441e-08
1.338512424e-08
-5.4719808e-09
1.548833188e-08
1.528340758e-08
-5.328469128e-09
1.798121691e-08
-5.191401893e-09
1.6655052e-08
4.232522787e-09
1.188822686e-08
-5.615893416e-09
8.292244556e-09
1.2477053e-08
-5.553072912e-09
1.205576945e-08
1.358118885e-08
-5.462124147e-09
1.529373213e-08
1.54759247e-08
-5.328750866e-09
1.791636947e-08
1.790379284e-08
-5.243019826e-09
2.155744783e-08
-5.173846615e-09
1.951397509e-08
4.825189713e-09
-5.433321402e-09
1.249636512e-08
9.505179119e-09
-5.372654237e-09
1.316973825e-08
1.396431976e-08
-5.306645178e-09
1.442871358e-08
1.799142342e-08
-5.19198787e-09
1.664081357e-08
2.156996295e-08
-5.17417383e-09
1.949941113e-08
-5.238173942e-09
2.417547977e-08
2.419007135e-08
5.455972564e-09
5.452215281e-09
-1.704464977e-08
1.062256635e-08
5.65950934e-09
-1.689954548e-08
1.522631865e-08
6.055045994e-09
-1.661496808e-08
1.897637133e-08
6.674600825e-09
-1.622215472e-08
2.165523086e-08
7.447288727e-09
-1.574120565e-08
8.457132797e-09
-1.522396581e-08
2.298983854e-08
5.663279554e-09
1.061520171e-08
-1.689982696e-08
1.103639807e-08
1.102900312e-08
-1.675272986e-08
1.584931605e-08
1.181381156e-08
-1.646434834e-08
1.979660555e-08
1.306117555e-08
-1.606702955e-08
2.266179674e-08
1.461307044e-08
-1.558330319e-08
1.667200837e-08
-1.506602016e-08
2.414130302e-08
6.05882588e-09
1.521561339e-08
-1.66157326e-08
1.182123069e-08
1.583856014e-08
-1.646483608e-08
1.701969768e-08
1.700888607e-08
-1.617228438e-08
2.13221355e-08
1.890760075e-08
-1.577307961e-08
2.451808909e-08
2.125638552e-08
-1.53008416e-08
2.445771548e-08
-1.48084502e-08
2.62350245e-08
6.67836735e-09
1.896266247e-08
-1.622349605e-08
1.306858151e-08
1.978282027e-08
-1.606810881e-08
1.891843155e-08
2.130823628e-08
-1.577368545e-08
2.386852958e-08
2.38545417e-08
-1.536902373e-08
2.769844328e-08
2.700701819e-08
-1.490902747e-08
3.148555458e-08
-1.44280574e-08
2.990723951e-08
7.45101006e-09
2.163888236e-08
-1.574312623e-08
1.462040838e-08
2.264534282e-08
-1.55849923e-08
2.126717255e-08
2.450144059e-08
-1.530209795e-08
2.702104904e-08
2.768159628e-08
-1.490970512e-08
3.165698054e-08
3.16399078e-08
-1.451188906e-08
3.761484166e-08
-1.412668744e-08
3.448046746e-08
8.460756701e-09
-1.522643571e-08
2.297125118e-08
1.667916941e-08
-1.506830374e-08
2.412258883e-08
2.446828325e-08
-1.481036748e-08
2.621604231e-08
3.149936005e-08
-1.442945318e-08
2.988795189e-08
3.763170796e-08
-1.412744045e-08
3.446075919e-08
-1.390920605e-08
4.194898042e-08
4.196851866e-08
6.10695293e-09
6.102740561e-09
-2.925437298e-08
1.1896567e-08
6.331883826e-09
-2.902105608e-08
1.707051889e-08
6.768407433e-09
-2.855732846e-08
2.130057191e-08
7.449835212e-09
-2.790204231e-08
2.434286315e-08
8.292827997e-09
-2.707631955e-08
9.389692841e-09
-2.615572002e-08
2.588492873e-08
6.336107547e-09
1.188837476e-08
-2.902158455e-08
1.235294073e-08
1.234471325e-08
-2.878239896e-08
1.775662541e-08
1.320656411e-08
-2.830618578e-08
2.220036847e-08
1.457555299e-08
-2.763649314e-08
2.544482028e-08
1.626098202e-08
-2.679591277e-08
1.849367078e-08
-2.586692686e-08
2.714174901e-08
6.772627924e-09
1.705873977e-08
-2.855873479e-08
1.321480766e-08
1.774477678e-08
-2.830707906e-08
1.903433399e-08
1.902241408e-08
-2.780766751e-08
2.385098656e-08
2.109976526e-08
-2.711396389e-08
2.743570918e-08
2.36300828e-08
-2.625468941e-08
2.708508388e-08
-2.532956794e-08
2.936539491e-08
7.454016256e-09
2.128565809e-08
-2.790444242e-08
1.458375384e-08
2.218533997e-08
-2.763841965e-08
2.111169488e-08
2.38357954e-08
-2.711503083e-08
2.662705567e-08
2.661175271e-08
-2.639641626e-08
3.090013288e-08
2.997315199e-08
-2.552522486e-08
3.478542803e-08
-2.46074025e-08
3.337908476e-08
8.296921291e-09
2.432526032e-08
-2.707965944e-08
1.626905384e-08
2.542705724e-08
-2.679885628e-08
2.364191791e-08
2.741766998e-08
-2.625686529e-08
2.998847543e-08
3.08818395e-08
-2.552640153e-08
3.50769571e-08
3.505842411e-08
-2.46857091e-08
4.149013541e-08
-2.38750466e-08
3.812053374e-08
9.393629434e-09
-2.615992345e-08
2.586510496e-08
1.850147116e-08
-2.58708452e-08
2.712174008e-08
2.709659011e-08
-2.533286531e-08
2.934502219e-08
3.480041397e-08
-2.46098178e-08
3.335833359e-08
4.150834631e-08
-2.387631953e-08
3.809930399e-08
-2.331522356e-08
4.619171084e-08
4.621271722e-08
6.470333535e-09
6.465450505e-09
-4.219015783e-08
1.259707956e-08
6.703627821e-09
-4.185140987e-08
1.807192563e-08
7.15756125e-09
-4.1189719e-08
2.2546168e-08
7.860173736e-09
-4.023645949e-08
2.575507453e-08
8.722878126e-09
-3.900811042e-08
9.829592356e-09
-3.760241821e-08
2.737217296e-08
6.708521094e-09
1.258772738e-08
-4.185236679e-08
1.306978726e-08
1.30603829e-08
-4.150040002e-08
1.878042638e-08
1.395265905e-08
-4.08119112e-08
2.346960219e-08
1.535872087e-08
-3.982422635e-08
2.687908086e-08
1.707322728e-08
-3.85557556e-08
1.931813656e-08
-3.712245576e-08
2.864606052e-08
7.162430003e-09
1.805876521e-08
-4.119218706e-08
1.396207269e-08
1.87671466e-08
-4.081346879e-08
2.009347357e-08
2.008007738e-08
-4.006649365e-08
2.51465506e-08
2.220087794e-08
-3.900923065e-08
2.887511145e-08
2.474904582e-08
-3.765910194e-08
2.819876533e-08
-3.618310025e-08
3.084799772e-08
7.864955469e-09
2.252986806e-08
-4.024049579e-08
1.536804183e-08
2.345309199e-08
-3.982745134e-08
2.221428409e-08
2.512975921e-08
-3.901097878e-08
2.796047195e-08
2.794348761e-08
-3.788526e-08
3.237428272e-08
3.12828661e-08
-3.647290066e-08
3.605163924e-08
-3.500409426e-08
3.491806673e-08
8.727483162e-09
2.573618297e-08
-3.901345875e-08
1.708229646e-08
2.68598997e-08
-3.856047999e-08
2.47622652e-08
2.885547045e-08
-3.766256462e-08
3.129985283e-08
3.235423677e-08
-3.647477086e-08
3.646039509e-08
3.644004307e-08
-3.500346825e-08
4.279402069e-08
-3.361591054e-08
3.94588321e-08
9.833918051e-09
-3.760890336e-08
2.735123254e-08
1.932674927e-08
-3.712858854e-08
2.862480785e-08
2.821148594e-08
-3.618831283e-08
3.082617728e-08
3.606819081e-08
-3.500798475e-08
3.489568828e-08
4.281404479e-08
-3.361797083e-08
3.943581132e-08
-3.266436381e-08
4.74670751e-08
4.749009925e-08
6.921170599e-09
6.915145025e-09
-5.602644198e-08
1.348982739e-08
7.16951284e-09
-5.55895423e-08
1.936709555e-08
7.657842566e-09
-5.472480779e-08
2.41826332e-08
8.400982088e-09
-5.345298298e-08
2.763006121e-08
9.308838546e-09
-5.176437738e-08
1.04372998e-08
-4.97643983e-08
2.935474895e-08
7.175555652e-09
1.347857451e-08
-5.55913121e-08
1.399403887e-08
1.39826819e-08
-5.513202817e-08
2.01164211e-08
1.493947912e-08
-5.421592565e-08
2.514819073e-08
1.641392521e-08
-5.28689562e-08
2.878763016e-08
1.82007419e-08
-5.10871126e-08
2.046108333e-08
-4.900614781e-08
3.064753845e-08
7.663826482e-09
1.935180461e-08
-5.472921388e-08
1.495085215e-08
2.010088634e-08
-5.421868441e-08
2.151118612e-08
2.149542372e-08
-5.318278544e-08
2.690381406e-08
2.369079437e-08
-5.167876099e-08
3.083226225e-08
2.630610496e-08
-4.969293878e-08
2.972149463e-08
-4.746929073e-08
3.285803895e-08
8.406786936e-09
2.416435622e-08
-5.345981901e-08
1.642511671e-08
2.512947959e-08
-5.287436988e-08
2.370658699e-08
2.68845537e-08
-5.168159703e-08
2.976384362e-08
2.974419481e-08
-4.999594681e-08
3.432507281e-08
3.309846635e-08
-4.78265104e-08
3.772303202e-08
-4.555718097e-08
3.687660991e-08
9.314279764e-09
2.760944705e-08
-5.177281795e-08
1.821143202e-08
2.876642817e-08
-5.109457364e-08
2.632154261e-08
3.081020096e-08
-4.969832333e-08
3.311811414e-08
3.430226088e-08
-4.782940948e-08
3.83483283e-08
3.832504044e-08
-4.546026369e-08
4.441296567e-08
-4.326911455e-08
4.131158575e-08
1.044219489e-08
-4.977404973e-08
2.933240437e-08
2.047093493e-08
-4.90154838e-08
3.062459333e-08
2.973613267e-08
-4.747739114e-08
3.283410372e-08
3.774216359e-08
-4.556343555e-08
3.68517001e-08
4.443612684e-08
-4.327258435e-08
4.128569171e-08
-4.17590156e-08
4.895862377e-08
4.898512863e-08
7.427093312e-09
7.419300515e-09
-7.087279469e-08
1.449731777e-08
7.715684243e-09
-7.037543315e-08
2.087942625e-08
8.284922377e-09
-6.939183557e-08
2.618288598e-08
9.134312475e-09
-6.789076228e-08
3.003486348e-08
1.017846839e-08
-6.579481634e-08
1.143309341e-08
3.203274857e-08
-6.319534853e-08
7.723500617e-09
1.448320167e-08
-7.037869274e-08
1.507785282e-08
1.506353999e-08
-6.983423636e-08
2.173434087e-08
1.618155786e-08
-6.876906162e-08
2.72700672e-08
1.785484544e-08
-6.712523278e-08
3.131857891e-08
1.990323739e-08
-6.48603957e-08
2.239888246e-08
3.345193999e-08
-6.210528307e-08
8.292597668e-09
2.086107943e-08
-6.939967111e-08
1.619587312e-08
2.171552801e-08
-6.877394483e-08
2.335371412e-08
2.333448732e-08
-6.749357096e-08
2.929427363e-08
2.579544605e-08
-6.555994339e-08
3.365902893e-08
2.877993669e-08
-6.293440306e-08
3.248801904e-08
3.596824551e-08
-5.986762975e-08
9.141642935e-09
2.616198461e-08
-6.790234773e-08
1.78688117e-08
2.724829629e-08
-6.713429744e-08
2.581473142e-08
2.927144171e-08
-6.556447872e-08
3.245135193e-08
3.242775706e-08
-6.326488665e-08
3.743549423e-08
3.620861921e-08
-6.023933402e-08
4.106815515e-08
4.021745697e-08
-5.691927787e-08
1.018507684e-08
3.00120798e-08
-6.580796563e-08
1.99162148e-08
3.129458917e-08
-6.487198456e-08
2.879852941e-08
3.363336789e-08
-6.294254726e-08
3.62322025e-08
3.74083841e-08
-6.024368694e-08
4.18871618e-08
4.185920479e-08
-5.676579457e-08
4.79645407e-08
4.503092106e-08
-5.330924828e-08
1.143860295e-08
3.200865075e-08
-6.320919634e-08
2.241021188e-08
3.342664217e-08
-6.21191217e-08
3.250511535e-08
3.594108247e-08
-5.987996832e-08
4.109085339e-08
4.018849227e-08
-5.692924369e-08
4.799239406e-08
4.500006364e-08
-5.331496049e-08
5.219108397e-08
5.222290042e-08
-5.021604144e-08
5.458313678e-09
1.230577284e-08
-5.267705539e-09
1.079604211e-08
1.305049944e-08
-5.218459361e-09
1.5959289e-08
1.446091678e-08
-5.195426165e-09
2.076722292e-08
1.693519539e-08
-5.102314304e-09
2.503158552e-08
2.042884909e-08
-5.19381947e-09
2.556924028e-08
-5.305683553e-09
2.89434811e-08
6.176854774e-09
1.129641389e-08
-5.16747819e-09
1.228489884e-08
1.206042913e-08
-5.117938782e-09
1.830657188e-08
1.359332601e-08
-5.154055826e-09
2.407771726e-08
1.62756229e-08
-5.111567585e-09
2.958610165e-08
2.031136721e-08
-5.390911204e-09
2.628285795e-08
-5.576305576e-09
3.444877803e-08
6.979074462e-09
9.440129438e-09
-5.122767999e-09
1.397160369e-08
1.015448777e-08
-5.086547997e-09
2.110729415e-08
1.166558996e-08
-5.207927729e-09
2.831474657e-08
1.429576315e-08
-5.227582862e-09
3.577243107e-08
1.853906174e-08
-5.685366751e-09
2.475508625e-08
-6.068878509e-09
4.336910852e-08
7.770447106e-09
6.803300565e-09
-5.133585543e-09
1.567166933e-08
7.375847723e-09
-5.122537743e-09
2.40301442e-08
8.611440417e-09
-5.304297118e-09
3.296666651e-08
1.07699475e-08
-5.410693252e-09
4.308651045e-08
1.446090694e-08
-6.041687219e-09
1.979505033e-08
-6.813727368e-09
5.48602766e-08
8.415566306e-09
3.564830347e-09
-5.177058517e-09
1.707830537e-08
3.885944052e-09
-5.172808701e-09
2.650029978e-08
4.59071229e-09
-5.40126625e-09
3.704010695e-08
5.817064991e-09
-5.586941185e-09
4.98223846e-08
8.007077521e-09
-6.3284515e-09
1.113925307e-08
-7.571762426e-09
6.604995782e-08
8.783290272e-09
-1.03273239e-11
-5.20809886e-09
1.788781597e-08
-1.020292637e-11
-5.208365083e-09
2.794850551e-08
-9.939958637e-12
-5.460041916e-09
3.946127771e-08
-9.613398998e-12
-5.686103875e-09
5.393574246e-08
-9.163183878e-12
-6.45823441e-09
-8.95729588e-12
-8.035229549e-09
7.311916168e-08
8.783442734e-09
-3.585161596e-09
-5.208603044e-09
1.78880954e-08
-3.906031437e-09
-5.208842116e-09
2.794887372e-08
-4.610296682e-09
-5.460460729e-09
3.946169455e-08
-5.836007403e-09
-5.686466362e-09
5.393613437e-08
-8.025122872e-09
-6.458518262e-09
-1.115686118e-08
-8.035500068e-09
7.311949495e-08
8.416010948e-09
-6.822695594e-09
-5.178486995e-09
1.707912352e-08
-7.395000827e-09
-5.174170914e-09
2.650139284e-08
-8.63011599e-09
-5.402480667e-09
3.704137336e-08
-1.078801888e-08
-5.587994931e-09
4.982362386e-08
-1.447810221e-08
-6.329301719e-09
-1.981177724e-08
-7.572577875e-09
6.605108374e-08
7.771158745e-09
-9.458119487e-09
-5.135745608e-09
1.567298913e-08
-1.017224808e-08
-5.124603574e-09
2.4031933e-08
-1.168290051e-08
-5.306177221e-09
3.296875513e-08
-1.431251524e-08
-5.412348275e-09
4.308858289e-08
-1.855495176e-08
-6.043017429e-09
-2.47704522e-08
-6.814953872e-09
5.486216324e-08
6.979999637e-09
-1.131263889e-08
-5.125504329e-09
1.397337607e-08
-1.207646514e-08
-5.089176714e-09
2.110975435e-08
-1.360896831e-08
-5.21033279e-09
2.831769231e-08
-1.629072805e-08
-5.229762053e-09
3.577550313e-08
-2.032566611e-08
-5.687152781e-09
-2.629645655e-08
-6.070466956e-09
4.337192973e-08
6.177981058e-09
-1.232000441e-08
-5.170639073e-09
1.228707762e-08
-1.306456441e-08
-5.121000355e-09
1.830966531e-08
-1.44746696e-08
-5.156904296e-09
2.408151082e-08
-1.694847605e-08
-5.114127037e-09
2.959034154e-08
-2.044146144e-08
-5.393087968e-09
-2.558070137e-08
-5.578242063e-09
3.445278126e-08
5.459600506e-09
-5.2711747e-09
-1.250843918e-08
1.079853584e-08
-5.22183367e-09
-1.31816498e-08
1.596285559e-08
-5.198608392e-09
-1.444037679e-08
2.077165288e-08
-5.105266366e-09
-1.665201612e-08
2.503671267e-08
-5.196388105e-09
-1.951015903e-08
-5.307987271e-09
-2.418479764e-08
2.894876952e-08
9.539112824e-09
2.286664427e-08
-1.470219789e-08
1.886482469e-08
2.413318103e-08
-1.455475534e-08
2.780260625e-08
2.643152517e-08
-1.434869752e-08
3.613499014e-08
3.044798721e-08
-1.39947669e-08
4.365986177e-08
3.564981672e-08
-1.390781389e-08
4.379541036e-08
-1.398680021e-08
5.049448262e-08
1.073912472e-08
2.122414161e-08
-1.426408595e-08
2.135292317e-08
2.250105629e-08
-1.409960294e-08
3.16296626e-08
2.495444474e-08
-1.395371716e-08
4.141010443e-08
2.917028687e-08
-1.361432763e-08
5.043294209e-08
3.502057524e-08
-1.378453581e-08
4.361261642e-08
-1.392309941e-08
5.89624851e-08
1.20712602e-08
1.791707402e-08
-1.38869423e-08
2.411256107e-08
1.909539965e-08
-1.372217873e-08
3.604455723e-08
2.145850238e-08
-1.364398204e-08
4.782147056e-08
2.547592168e-08
-1.331014917e-08
5.935695759e-08
3.148784709e-08
-1.368813525e-08
3.968139916e-08
-1.381671131e-08
7.103601738e-08
1.337487089e-08
1.301695496e-08
-1.360830977e-08
2.684092796e-08
1.39477612e-08
-1.344094786e-08
4.054695887e-08
1.585948992e-08
-1.341132754e-08
5.459079115e-08
1.909096237e-08
-1.306958946e-08
6.931176423e-08
2.425991252e-08
-1.353473572e-08
3.085294585e-08
-1.382418609e-08
8.515067134e-08
1.441900173e-08
6.854642834e-09
-1.343371528e-08
2.907176535e-08
7.373660086e-09
-1.325146331e-08
4.431340517e-08
8.453722794e-09
-1.323716175e-08
6.039996231e-08
1.027644704e-08
-1.285901255e-08
7.821272244e-08
1.333480513e-08
-1.321611534e-08
1.707720818e-08
-1.378643102e-08
9.820313476e-08
1.501209324e-08
-1.472794179e-11
-1.335080815e-08
3.034713327e-08
-1.452251414e-11
-1.315523826e-08
4.649197482e-08
-1.407857234e-11
-1.313713e-08
6.380760657e-08
-1.352038333e-11
-1.271181764e-08
8.358951359e-08
-1.27332222e-11
-1.289264137e-08
-1.218941771e-11
-1.364070507e-08
1.062843522e-07
1.501234523e-08
-6.883506747e-09
-1.335218599e-08
3.034760603e-08
-7.402119114e-09
-1.315654273e-08
4.64926069e-08
-8.481326151e-09
-1.313827246e-08
6.380832595e-08
-1.030295123e-08
-1.271281596e-08
8.359025677e-08
-1.335973832e-08
-1.289349622e-08
-1.710103371e-08
-1.364154659e-08
1.062850926e-07
1.441973315e-08
-1.304416386e-08
-1.343758448e-08
2.90731447e-08
-1.397458536e-08
-1.325514639e-08
4.431527706e-08
-1.588551828e-08
-1.324045641e-08
6.04021313e-08
-1.91159636e-08
-1.286188277e-08
7.82149179e-08
-2.428331593e-08
-1.32185616e-08
-3.087525259e-08
-1.378881538e-08
9.820531026e-08
1.337603253e-08
-1.794188719e-08
-1.361408311e-08
2.684314255e-08
-1.911985401e-08
-1.34464733e-08
4.055002016e-08
-2.148226672e-08
-1.341634639e-08
5.459439215e-08
-2.549873763e-08
-1.307400046e-08
6.931562273e-08
-3.150917474e-08
-1.353846352e-08
-3.970142781e-08
-1.382765893e-08
8.515442627e-08
1.207274903e-08
-2.124609903e-08
-1.389407709e-08
2.411548319e-08
-2.252275023e-08
-1.37290438e-08
3.604871273e-08
-2.497555117e-08
-1.365031744e-08
4.782652468e-08
-2.919053051e-08
-1.33158367e-08
5.936253023e-08
-3.503943295e-08
-1.369297945e-08
-4.363008846e-08
-1.382119986e-08
7.104186582e-08
1.074095067e-08
-2.288559514e-08
-1.427211803e-08
2.135648344e-08
-2.415186813e-08
-1.410742553e-08
3.163480665e-08
-2.644974018e-08
-1.396105407e-08
4.141655349e-08
-3.046541048e-08
-1.362102749e-08
5.04404823e-08
-3.566616631e-08
-1.379032313e-08
-4.380983124e-08
-1.392841514e-08
5.89703724e-08
9.541176538e-09
-1.471092712e-08
-2.298702955e-08
1.886885859e-08
-1.456326379e-08
-2.413810457e-08
2.78084761e-08
-1.43567901e-08
-2.623117791e-08
3.614246038e-08
-1.400230468e-08
-2.990239481e-08
4.366877025e-08
-1.391451626e-08
-3.447439213e-08
-1.399288134e-08
-4.196039887e-08
5.050422072e-08
1.055496047e-08
2.579812897e-08
-2.519020409e-08
2.08477452e-08
2.717497384e-08
-2.490079059e-08
3.063791193e-08
2.96008782e-08
-2.439473693e-08
3.971248664e-08
3.400273208e-08
-2.371377083e-08
4.788614023e-08
3.930146947e-08
-2.328368111e-08
4.812678812e-08
-2.330309389e-08
5.526730524e-08
1.185128559e-08
2.397401577e-08
-2.429128115e-08
2.353091009e-08
2.537761698e-08
-2.398188332e-08
3.473019508e-08
2.796642468e-08
-2.351856115e-08
4.540826762e-08
3.259655227e-08
-2.288624022e-08
5.518666943e-08
3.858795458e-08
-2.284944365e-08
4.777916756e-08
-2.310640771e-08
6.471755215e-08
1.328484948e-08
2.027284378e-08
-2.347063293e-08
2.65185152e-08
2.156854789e-08
-2.31467799e-08
3.950248754e-08
2.40840784e-08
-2.274561584e-08
5.24235848e-08
2.850244954e-08
-2.213715499e-08
6.50890189e-08
3.472966144e-08
-2.249527761e-08
4.344767093e-08
-2.2765663e-08
7.836947044e-08
1.470331914e-08
1.475418715e-08
-2.27929673e-08
2.950532309e-08
1.578179177e-08
-2.24561954e-08
4.444342005e-08
1.783760124e-08
-2.210296707e-08
5.994148092e-08
2.140796612e-08
-2.147319239e-08
7.625650637e-08
2.684556955e-08
-2.196568793e-08
3.388219088e-08
-2.244299542e-08
9.444077455e-08
1.585667436e-08
7.781023747e-09
-2.231721883e-08
3.198348994e-08
8.355692605e-09
-2.195218941e-08
4.865592015e-08
9.527146329e-09
-2.159918288e-08
6.650204685e-08
1.155999226e-08
-2.085721934e-08
8.644435545e-08
1.481802156e-08
-2.113090276e-08
1.886686831e-08
-2.173789005e-08
1.094111177e-07
1.651857723e-08
-1.684975102e-11
-2.207151517e-08
3.341868404e-08
-1.655526412e-11
-2.168311986e-08
5.113921945e-08
-1.591070467e-11
-2.131466468e-08
7.045525024e-08
-1.519488101e-11
-2.04527168e-08
9.279050302e-08
-1.425067724e-11
-2.039565898e-08
-1.353977044e-11
-2.087094381e-08
1.189011076e-07
1.651891991e-08
-7.813816733e-09
-2.207416013e-08
3.341932232e-08
-8.387924526e-09
-2.168560903e-08
5.114001776e-08
-9.55818553e-09
-2.131675373e-08
7.045612763e-08
-1.158961913e-08
-2.045455798e-08
9.279137557e-08
-1.484573168e-08
-2.039731223e-08
-1.88931893e-08
-2.087256863e-08
1.189019865e-07
1.585764099e-08
-1.478456252e-08
-2.232450637e-08
3.198530121e-08
-1.581167536e-08
-2.195908812e-08
4.865827313e-08
-1.786645439e-08
-2.160521042e-08
6.650462749e-08
-2.143552408e-08
-2.086237782e-08
8.644683113e-08
-2.6871157e-08
-2.113539453e-08
-3.390643154e-08
-2.174223418e-08
1.094134174e-07
1.470481004e-08
-2.02999721e-08
-2.280351049e-08
2.950814516e-08
-2.159527365e-08
-2.246623945e-08
4.444722638e-08
-2.410996874e-08
-2.211194979e-08
5.994576467e-08
-2.85271943e-08
-2.148090752e-08
7.626083302e-08
-3.47524976e-08
-2.197225673e-08
-4.346882439e-08
-2.24490873e-08
9.444459561e-08
1.328670296e-08
-2.399755669e-08
-2.348321494e-08
2.652212379e-08
-2.540089752e-08
-2.315885541e-08
3.950755572e-08
-2.798905757e-08
-2.275667484e-08
5.242959699e-08
-3.261819062e-08
-2.214691361e-08
6.509559394e-08
-3.860789846e-08
-2.250362662e-08
-4.779731407e-08
-2.277348161e-08
7.837633618e-08
1.185349368e-08
-2.58180934e-08
-2.430508777e-08
2.353518178e-08
-2.71946577e-08
-2.399534464e-08
3.473635836e-08
-2.962011199e-08
-2.353117207e-08
4.541593417e-08
-3.402111973e-08
-2.289769316e-08
5.519572393e-08
-3.931865693e-08
-2.285938718e-08
-4.81417626e-08
-2.31156795e-08
6.472740151e-08
1.055735285e-08
-2.520505595e-08
-2.588131562e-08
2.085246102e-08
-2.491527917e-08
-2.713772264e-08
3.064481148e-08
-2.440855469e-08
-2.936068424e-08
3.972131265e-08
-2.372663779e-08
-3.337329491e-08
4.789678029e-08
-2.329522001e-08
-3.811345786e-08
-2.331361043e-08
-4.6203466e-08
5.527916768e-08
1.099058315e-08
2.726213755e-08
-3.609170888e-08
2.165556593e-08
2.865357344e-08
-3.559453342e-08
3.166760919e-08
3.104631882e-08
-3.462690675e-08
4.077919258e-08
3.555546953e-08
-3.34851281e-08
4.868305649e-08
4.059033361e-08
-3.234207284e-08
4.94920865e-08
-3.253368035e-08
5.588861461e-08
1.229548277e-08
2.53047017e-08
-3.462933446e-08
2.434014867e-08
2.674632705e-08
-3.411928245e-08
3.570654528e-08
2.930973598e-08
-3.314835039e-08
4.640563225e-08
3.409622533e-08
-3.212606805e-08
5.586158999e-08
3.984545425e-08
-3.15605083e-08
4.943162529e-08
-3.22675718e-08
6.508319489e-08
1.373413883e-08
2.139118341e-08
-3.329124024e-08
2.736749948e-08
2.273888481e-08
-3.277267333e-08
4.052394905e-08
2.525999058e-08
-3.185230917e-08
5.36190798e-08
2.986699122e-08
-3.10030509e-08
6.607537287e-08
3.5978908e-08
-3.10850263e-08
4.547552234e-08
-3.214478249e-08
7.941057962e-08
1.518555703e-08
1.558210116e-08
-3.216941873e-08
3.045878814e-08
1.66597366e-08
-3.165026204e-08
4.567765547e-08
1.875542599e-08
-3.081728993e-08
6.170912077e-08
2.254419949e-08
-3.018189529e-08
7.834548924e-08
2.796945871e-08
-3.059263889e-08
3.626053781e-08
-3.196083411e-08
9.707824047e-08
1.640159822e-08
8.225641463e-09
-3.136234086e-08
3.310363151e-08
8.832935713e-09
-3.08274279e-08
5.025911586e-08
1.004251325e-08
-3.004180144e-08
6.91210039e-08
1.224618334e-08
-2.942114427e-08
9.014411579e-08
1.558316922e-08
-2.976776608e-08
2.065516691e-08
-3.079505332e-08
1.148066105e-07
1.711346387e-08
-2.024164193e-11
-3.093910566e-08
3.467209892e-08
-1.979042415e-11
-3.038905542e-08
5.305798801e-08
-1.876813285e-11
-2.963932993e-08
7.379257774e-08
-1.782069685e-11
-2.892335334e-08
9.801238295e-08
-1.669582488e-11
-2.901563976e-08
-1.592045472e-11
-2.915672547e-08
1.26969209e-07
1.711399421e-08
-8.264566214e-09
-3.094386374e-08
3.467309851e-08
-8.871041505e-09
-3.039350183e-08
5.305910048e-08
-1.007888382e-08
-2.964270754e-08
7.379376193e-08
-1.228059454e-08
-2.89265009e-08
9.801356282e-08
-1.56152326e-08
-2.901863226e-08
-2.068573395e-08
-2.915958393e-08
1.269703277e-07
1.640302704e-08
-1.56170895e-08
-3.137503609e-08
3.310634176e-08
-1.669408785e-08
-3.083938448e-08
5.026249122e-08
-1.878848138e-08
-3.005181024e-08
6.912453558e-08
-2.257558142e-08
-2.942947241e-08
9.014752481e-08
-2.799835251e-08
-2.97753248e-08
-3.628784703e-08
-3.080216403e-08
1.148094903e-07
1.518764266e-08
-2.142140664e-08
-3.218683642e-08
3.046276177e-08
-2.276868398e-08
-3.16667656e-08
4.568294274e-08
-2.528892005e-08
-3.083170017e-08
6.171495928e-08
-2.989467941e-08
-3.019384368e-08
7.835160962e-08
-3.600434751e-08
-3.060296737e-08
-4.549941707e-08
-3.197022329e-08
9.70842713e-08
1.373659245e-08
-2.533029661e-08
-3.33109095e-08
2.737224887e-08
-2.677170584e-08
-3.279147405e-08
4.053056387e-08
-2.933457555e-08
-3.186931301e-08
5.362678734e-08
-3.412019676e-08
-3.10176217e-08
6.608406434e-08
-3.986763099e-08
-3.109764296e-08
-4.945213577e-08
-3.215620628e-08
7.941947224e-08
1.22982267e-08
-2.728331399e-08
-3.465028483e-08
2.434543716e-08
-2.867460051e-08
-3.413962242e-08
3.571414374e-08
-3.106709989e-08
-3.316731938e-08
4.641495788e-08
-3.557560103e-08
-3.214309137e-08
5.587263818e-08
-4.060946462e-08
-3.157524951e-08
-4.950906101e-08
-3.228111022e-08
6.509493076e-08
1.099336476e-08
-3.61138191e-08
-2.736788507e-08
2.166110374e-08
-3.561619407e-08
-2.864137376e-08
3.167573617e-08
-3.464759703e-08
-3.084265054e-08
4.078953792e-08
-3.350433573e-08
-3.491169592e-08
4.869545305e-08
-3.235934973e-08
-3.945128891e-08
-3.254921939e-08
-4.748016047e-08
5.590208512e-08
1.160503325e-08
2.919106916e-08
-4.75553992e-08
2.278130954e-08
3.058830696e-08
-4.673450062e-08
3.310702797e-08
3.294649862e-08
-4.50649842e-08
4.222276328e-08
3.744160054e-08
-4.319074208e-08
4.984351102e-08
4.242060108e-08
-4.109771375e-08
5.11387227e-08
-4.083734379e-08
5.596707978e-08
1.289664271e-08
2.702579452e-08
-4.536068061e-08
2.541142568e-08
2.846942774e-08
-4.451514829e-08
3.70400764e-08
3.09719754e-08
-4.28024427e-08
4.772633624e-08
3.583513833e-08
-4.120584263e-08
5.666458403e-08
4.150784585e-08
-3.958598432e-08
5.130244958e-08
-4.036137215e-08
6.459464158e-08
1.430401299e-08
2.277968875e-08
-4.334910927e-08
2.83790532e-08
2.414391659e-08
-4.252216469e-08
4.176669112e-08
2.661747982e-08
-4.088543604e-08
5.486158297e-08
3.141923147e-08
-3.968203291e-08
6.653432914e-08
3.744644601e-08
-3.869638275e-08
4.794437661e-08
-4.06467361e-08
7.839435785e-08
1.573595807e-08
1.655995422e-08
-4.168560622e-08
3.14762256e-08
1.766333549e-08
-4.090993146e-08
4.698532472e-08
1.975769822e-08
-3.946662418e-08
6.317330921e-08
2.3811347e-08
-3.876202584e-08
7.91852051e-08
2.936258973e-08
-3.852073385e-08
3.951789913e-08
-4.138071182e-08
9.70315221e-08
1.697306135e-08
8.730503345e-09
-4.050593937e-08
3.422569439e-08
9.360837483e-09
-3.977757699e-08
5.18616998e-08
1.05996416e-08
-3.851979063e-08
7.132800183e-08
1.298484613e-08
-3.806099665e-08
9.286664042e-08
1.652409821e-08
-3.846795395e-08
2.336627766e-08
-4.115288183e-08
1.193760787e-07
1.771769156e-08
-2.60426109e-11
-3.990028187e-08
3.591807052e-08
-2.537022683e-11
-3.920326707e-08
5.497839057e-08
-2.380779253e-11
-3.80762506e-08
7.679360854e-08
-2.266564251e-11
-3.773110254e-08
1.028582592e-07
-2.087378744e-11
-3.853535692e-08
-1.968244803e-11
-4.071462836e-08
1.378020942e-07
1.771854171e-08
-8.779572331e-09
-3.990891939e-08
3.59196644e-08
-9.408690995e-09
-3.921134448e-08
5.498031284e-08
-1.064490636e-08
-3.80823085e-08
7.679568936e-08
-1.302786515e-08
-3.77367109e-08
1.028599075e-07
-1.656357286e-08
-3.854020002e-08
-2.340341841e-08
-4.071873967e-08
1.378027494e-07
1.697536304e-08
-1.660189331e-08
-4.052809546e-08
3.423000877e-08
-1.770439777e-08
-3.979833991e-08
5.186717606e-08
-1.979700145e-08
-3.85369008e-08
7.133390667e-08
-2.384879222e-08
-3.807528364e-08
9.287152638e-08
-2.939703474e-08
-3.847952989e-08
-3.955008207e-08
-4.116281702e-08
1.193787854e-07
1.573917254e-08
-2.281402523e-08
-4.171386804e-08
3.148233844e-08
-2.417780852e-08
-4.093650992e-08
4.699345198e-08
-2.665056507e-08
-3.94892275e-08
6.318241717e-08
-3.145098314e-08
-3.878061003e-08
7.919372287e-08
-3.747615165e-08
-3.853517973e-08
-4.797183517e-08
-4.139263378e-08
9.703785347e-08
1.430758464e-08
-2.705393384e-08
-4.337857369e-08
2.838593421e-08
-2.849748191e-08
-4.255011886e-08
4.177617106e-08
-3.099983369e-08
-4.091024222e-08
5.487262749e-08
-3.586235129e-08
-3.970269702e-08
6.654590261e-08
-4.153389316e-08
-3.871317892e-08
-5.132646014e-08
-4.066048583e-08
7.840477438e-08
1.290028232e-08
-2.921369093e-08
-4.539078739e-08
2.541855633e-08
-3.061110393e-08
-4.454422581e-08
3.70502942e-08
-3.296955113e-08
-4.282930188e-08
4.773875042e-08
-3.746454027e-08
-4.122934404e-08
5.66788446e-08
-4.244311323e-08
-3.960613453e-08
-5.115935723e-08
-4.0378368e-08
6.460894668e-08
1.160847876e-08
-4.75866683e-08
-2.934927665e-08
2.278824147e-08
-4.676530458e-08
-3.064170766e-08
3.311724364e-08
-4.50944245e-08
-3.285170654e-08
4.22357266e-08
-4.321781547e-08
-3.686955102e-08
4.98589112e-08
-4.11220428e-08
-4.13036364e-08
-4.085880065e-08
-4.897434633e-08
5.598341378e-08
1.275753334e-08
3.193273335e-08
-6.023698892e-08
2.502241252e-08
3.344345304e-08
-5.901615573e-08
3.631555954e-08
3.607357126e-08
-5.649057001e-08
4.601299477e-08
4.070048077e-08
-5.340012736e-08
5.364486986e-08
4.594504408e-08
-4.967453836e-08
5.381535762e-08
-4.676295268e-08
5.794622766e-08
1.417485018e-08
2.959814267e-08
-5.720090422e-08
2.787428741e-08
3.114248357e-08
-5.591356823e-08
4.05516598e-08
3.383280073e-08
-5.323900173e-08
5.160449584e-08
3.885626523e-08
-5.041443128e-08
5.983859257e-08
4.437560498e-08
-4.625062967e-08
5.325787945e-08
-4.455297717e-08
6.458767857e-08
1.566175757e-08
2.495150158e-08
-5.436418035e-08
3.095801755e-08
2.641750573e-08
-5.309340318e-08
4.535894646e-08
2.89791785e-08
-5.043272564e-08
5.839080838e-08
3.40789391e-08
-4.793656945e-08
6.83084495e-08
3.980099936e-08
-4.403942589e-08
5.005695885e-08
-4.406206087e-08
7.492469846e-08
1.713788582e-08
1.813450387e-08