/*--------------------------------*- C++ -*----------------------------------*\
  =========                 |
  \\      /  F ield         | OpenFOAM: The Open Source CFD Toolbox
   \\    /   O peration     | Website:  https://openfoam.org
    \\  /    A nd           | Version:  7
     \\/     M anipulation  |
\*---------------------------------------------------------------------------*/
FoamFile
{
    version     2.0;
    format      ascii;
    class       volScalarField;
    location    "0.00323";
    object      Ux;
}
// * * * * * * * * * * * * * * * * * * * * * * * * * * * * * * * * * * * * * //

dimensions      [0 1 -1 0 0 0 0];

internalField   nonuniform List<scalar> 
5000
(
0.075316091
0.075806557
0.074513719
0.075809219
0.075150792
0.075279924
0.075285971
0.075274397
0.075319065
0.075318011
0.075300755
0.075299489
0.075300834
0.075298976
0.075295232
0.075292592
0.075291356
0.075290355
0.075289354
0.075288369
0.07528741
0.075286464
0.075285522
0.075284611
0.075283727
0.075282856
0.075281998
0.075281158
0.075280335
0.075279529
0.075278738
0.075277958
0.075277189
0.075276437
0.075275699
0.075274974
0.075274262
0.075273561
0.075272869
0.075272188
0.07527152
0.075270863
0.07527022
0.075269583
0.075268955
0.075268337
0.075267724
0.075267117
0.075266525
0.075265944
0.07526537
0.075264978
0.075264982
0.075265079
0.075265105
0.075265185
0.07526539
0.075265577
0.07526539
0.075265211
0.075265241
0.075265273
0.075265387
0.075265554
0.075266083
0.075267473
0.075267134
0.075264379
0.075262682
0.075262884
0.075263137
0.075263907
0.075263192
0.075261782
0.075261865
0.075261793
0.075261792
0.075261826
0.075262111
0.075262571
0.075261617
0.075259303
0.075259707
0.075261876
0.075261144
0.075257685
0.075257275
0.075258638
0.075256564
0.07525557
0.075258602
0.075258605
0.075254934
0.075254248
0.075256013
0.075254355
0.075253306
0.07525612
0.075256094
0.07525248
0.075251827
0.075253501
0.075251611
0.075250912
0.075252513
0.075250625
0.075249925
0.075251517
0.075249667
0.075248771
0.075251747
0.075251739
0.075248216
0.075247481
0.075250536
0.075250519
0.075246953
0.075246204
0.075249242
0.075249183
0.075245885
0.075243792
0.075243986
0.075244191
0.075244904
0.075246323
0.075246235
0.075243609
0.075242934
0.075245821
0.075245786
0.07524239
0.075241838
0.075243342
0.075241812
0.075240073
0.075240207
0.075240392
0.075240907
0.075239793
0.075239753
0.075242315
0.075242198
0.07523895
0.075238391
0.075240284
0.075239597
0.075238758
0.0752391
0.075237435
0.075237137
0.075238226
0.075236547
0.07523599
0.075238578
0.075238521
0.075235438
0.075234972
0.075236327
0.075234757
0.075234238
0.075235496
0.075233953
0.075233371
0.075235804
0.075235729
0.075232824
0.075232254
0.075234636
0.075234555
0.07523177
0.07523126
0.075233569
0.075233495
0.075230716
0.0752303
0.075231494
0.075230028
0.075229575
0.075230714
0.075229263
0.075228835
0.075229946
0.075228585
0.075227199
0.0752273
0.075227435
0.075227877
0.075227194
0.075227213
0.075229157
0.075228921
0.075226188
0.0752258
0.075226961
0.075225513
0.075225089
0.075226214
0.075224773
0.075224336
0.07522545
0.075224028
0.075223549
0.075225805
0.075225716
0.075222986
0.075222577
0.075223724
0.075222306
0.075221893
0.075222998
0.075221583
0.075221092
0.075223316
0.075223223
0.07522052
0.075220113
0.075221324
0.075220061
0.075219363
0.075220242
0.075219035
0.075218722
0.075219636
0.075218369
0.075216975
0.075217092
0.075217231
0.075217723
0.075218725
0.075218581
0.07521661
0.075215092
0.075215155
0.07521522
0.075215447
0.075215827
0.075216886
0.075216759
0.075214604
0.075214046
0.07521599
0.075215892
0.075213485
0.075212032
0.075212103
0.075212177
0.075212426
0.075212841
0.075214026
0.075213868
0.075211372
0.075210959
0.07521214
0.075210637
0.075210095
0.075212422
0.075212322
0.075209474
0.075209039
0.075210243
0.075208948
0.075207422
0.075207539
0.075207684
0.075208174
0.075209201
0.07520905
0.075206811
0.075206321
0.075208736
0.075208632
0.07520569
0.075205244
0.075206484
0.075204946
0.075204475
0.07520566
0.075204116
0.075203652
0.075204834
0.075203359
0.075202494
0.075203371
0.075202431
0.07520162
0.075201814
0.075202073
0.075202837
0.075201829
0.075199159
0.075198725
0.075198995
0.075199286
0.075200128
0.075199167
0.075199114
0.07520012
0.075198592
0.075197265
0.07519772
0.075197298
0.075197015
0.075197103
0.075197207
0.075197526
0.075198371
0.075198077
0.075195589
0.07519517
0.075196412
0.075194817
0.075194248
0.075196717
0.075196598
0.075193562
0.075193069
0.075194299
0.075192766
0.075192162
0.075193212
0.075191929
0.075190527
0.07519065
0.075190793
0.075191269
0.075192262
0.075192047
0.075189762
0.075189202
0.075190272
0.075188937
0.075187675
0.075187982
0.075188399
0.075189741
0.075189634
0.075186983
0.075185105
0.075185515
0.075185112
0.07518479
0.075184838
0.075184901
0.075185055
0.075184133
0.075183475
0.075183795
0.075184245
0.075185712
0.07518558
0.075182861
0.075182383
0.07518408
0.075183382
0.075182171
0.07518224
0.075181065
0.075180861
0.075181525
0.075179977
0.075179641
0.075181974
0.07518182
0.075178878
0.075178423
0.075179604
0.075178039
0.07517757
0.075178707
0.075177133
0.075176642
0.075177769
0.075176219
0.075175686
0.075178007
0.075177838
0.075175032
0.075173662
0.075173997
0.075174445
0.075175926
0.075175811
0.075173146
0.075172631
0.07517499
0.075174837
0.075171928
0.075171475
0.075172609
0.075171165
0.075169793
0.075169959
0.075170179
0.075170795
0.075170319
0.075170297
0.075170594
0.075168675
0.075168255
0.075169373
0.075167832
0.075167359
0.07516845
0.075166939
0.075166475
0.075167537
0.075166066
0.07516552
0.075167601
0.075167447
0.075164881
0.075164427
0.075165354
0.075164156
0.075163
0.075163054
0.075163126
0.075163318
0.075162691
0.075162376
0.075162663
0.075162179
0.075161991
0.075162287
0.075162091
0.075161846
0.075161849
0.075161853
0.075161868
0.075161891
0.075161972
0.075162115
0.075162342
0.075162693
0.075163116
0.0751636
0.075164135
0.075164695
0.075165276
0.075165863
0.075166422
0.075167006
0.075167603
0.075168228
0.075168895
0.075169597
0.075170359
0.07517118
0.07517207
0.07517304
0.075174095
0.075175252
0.075176513
0.075177869
0.075179315
0.07518082
0.07518242
0.075184144
0.075185984
0.07518791
0.075189765
0.075191491
0.075193234
0.075195047
0.075196935
0.075198876
0.075200803
0.075202582
0.075204094
0.075205318
0.075206451
0.075207762
0.075209451
0.075211286
0.075212667
0.075213742
0.075215092
0.075217182
0.075219584
0.075221259
0.075222313
0.075223218
0.075224473
0.075226184
0.075227557
0.075228432
0.075229183
0.075230021
0.07523085
0.075231248
0.075231189
0.075231039
0.075230969
0.075230748
0.075230423
0.075229798
0.075229221
0.075229693
0.07523017
0.075229744
0.075229228
0.075228258
0.075228976
0.075231667
0.075232041
0.075231058
0.075229881
0.075229799
0.075231851
0.075233166
0.075232184
0.075230798
0.075231057
0.075233391
0.075234481
0.07523345
0.075232035
0.075231946
0.075233945
0.075235247
0.075234349
0.075233123
0.075232816
0.075235017
0.075238106
0.075238026
0.07523747
0.075237392
0.075236986
0.07523656
0.075235493
0.075234954
0.075236401
0.075237823
0.075237525
0.075237402
0.07523722
0.075236897
0.075236608
0.075236153
0.075235602
0.075234642
0.075234105
0.075236209
0.075239982
0.075240555
0.075239922
0.075239747
0.075239203
0.075238511
0.075237054
0.075236694
0.075238544
0.075239537
0.075239146
0.075239103
0.075238968
0.075238806
0.075238509
0.075238074
0.075237384
0.075235922
0.075233341
0.07523334
0.075236888
0.075239018
0.075238591
0.075238469
0.075238104
0.07523762
0.075236905
0.075235308
0.075234827
0.07523654
0.075237816
0.075237443
0.075237384
0.075237198
0.075236976
0.075236497
0.075235836
0.075234335
0.075231324
0.075231454
0.075235098
0.075235944
0.075235252
0.075235068
0.075234544
0.075233714
0.075232619
0.075233016
0.075233431
0.07523284
0.075232162
0.075231363
0.075232295
0.075233306
0.07523299
0.075232747
0.075232058
0.07523093
0.075229617
0.075229947
0.07523168
0.075231673
0.075231648
0.075231551
0.07523138
0.075230804
0.075229591
0.075227164
0.075227127
0.075230413
0.075231353
0.075230614
0.075230547
0.075230342
0.075230077
0.075229616
0.075228669
0.075227459
0.075227766
0.075228176
0.075227525
0.075226776
0.075224191
0.075224047
0.075227545
0.075228621
0.075227882
0.075227789
0.075227494
0.075227138
0.075226468
0.075225413
0.075224592
0.075224339
0.075223924
0.075223457
0.075222284
0.075219843
0.075220234
0.075224001
0.075225655
0.075224863
0.075224523
0.075223427
0.075221731
0.075221684
0.075223048
0.07522324
0.07522314
0.07522305
0.075222742
0.07522239
0.075222995
0.075223589
0.075223155
0.07522281
0.075221582
0.075220787
0.075221224
0.075221194
0.075221153
0.075220851
0.075220227
0.075219786
0.075219514
0.075218703
0.0752187
0.075218683
0.075218667
0.0752205
0.075221787
0.075221245
0.075221016
0.07522018
0.075219245
0.075219803
0.075220871
0.075220825
0.075220765
0.075220487
0.075220193
0.075219118
0.075218401
0.075219078
0.075218975
0.075218982
0.075218942
0.075218809
0.075218299
0.075216961
0.075216978
0.075218047
0.075218047
0.075218025
0.075217973
0.075217879
0.075216784
0.075216535
0.075218469
0.075218804
0.075218291
0.075217868
0.075216239
0.075215272
0.075215488
0.075215474
0.07521545
0.07521461
0.075214679
0.075216669
0.075217504
0.075217056
0.07521674
0.075215617
0.07521475
0.075214538
0.075213887
0.075213784
0.075213398
0.07521247
0.075213275
0.075215269
0.075215241
0.07521519
0.075214869
0.075214377
0.075215632
0.075216064
0.075215551
0.075214881
0.075212733
0.07521281
0.075215184
0.075215593
0.075215503
0.075215439
0.075215198
0.075214954
0.075214031
0.075213611
0.075214773
0.075215186
0.075214777
0.075214507
0.075213559
0.075212926
0.075212693
0.075212016
0.075211824
0.075211238
0.0752101
0.07521081
0.075212836
0.075212746
0.075212526
0.075211705
0.075209042
0.075209403
0.075213143
0.07521435
0.075213713
0.075213221
0.075211278
0.075210909
0.075213233
0.075214172
0.075213768
0.075213266
0.075211833
0.075211979
0.075212669
0.075212021
0.075211806
0.075212638
0.075213444
0.075213044
0.075212836
0.075212063
0.075211038
0.075211551
0.075212511
0.075212382
0.075212191
0.07521143
0.075210257
0.075210145
0.075210727
0.075210671
0.075210564
0.07520983
0.075207976
0.075208614
0.075211885
0.075212536
0.075211895
0.075211556
0.075210353
0.075209663
0.075209413
0.075208636
0.075208515
0.075208135
0.075207501
0.075208422
0.075209949
0.075209834
0.075209659
0.07520899
0.075207698
0.07520776
0.075208681
0.075208657
0.07520857
0.07520803
0.075206693
0.075207986
0.075211543
0.075211754
0.075210686
0.075210311
0.075208992
0.07520666
0.075206752
0.075209946
0.075211719
0.075211216
0.075211146
0.075210889
0.07521059
0.075209618
0.075208073
0.075208082
0.075209
0.075208999
0.075209004
0.075208562
0.075208327
0.075209406
0.075209658
0.07520924
0.07520889
0.075207545
0.075206711
0.075206721
0.075206168
0.075206217
0.075206134
0.075205835
0.075206926
0.075208375
0.07520825
0.075208092
0.07520749
0.075206572
0.075206967
0.075207917
0.075207791
0.075207567
0.075206678
0.075204998
0.075206026
0.075209343
0.075209614
0.075208574
0.075208282
0.075207315
0.075205781
0.075205627
0.075206716
0.075206562
0.075206077
0.075206076
0.0752059
0.075205639
0.075206331
0.075207425
0.075207395
0.075207348
0.075207197
0.075206765
0.075206268
0.075206834
0.075207983
0.07520792
0.075207819
0.075207451
0.075206757
0.075205285
0.075205848
0.075208912
0.075209271
0.075208418
0.075208167
0.075207206
0.075206742
0.075207679
0.075208327
0.075208104
0.075208033
0.075207783
0.075207491
0.075206661
0.075205328
0.075205154
0.075205736
0.075205657
0.075205515
0.075204718
0.075202868
0.075203378
0.075206611
0.075207971
0.075207557
0.075207359
0.075206752
0.075205726
0.075204939
0.075205859
0.07520727
0.075207122
0.075206937
0.075206337
0.075205138
0.075204624
0.075205851
0.075207122
0.075206776
0.075206445
0.075205305
0.075203516
0.075204449
0.075207479
0.075207534
0.075206533
0.075206219
0.075205036
0.075204518
0.075205827
0.075206822
0.075206444
0.075206149
0.075205135
0.07520357
0.075203764
0.075205096
0.075205107
0.075205085
0.075205062
0.075204435
0.075204411
0.075205691
0.075206793
0.075206435
0.075206056
0.075204796
0.075202451
0.075202615
0.075205598
0.075206935
0.075206311
0.075206092
0.07520529
0.075204655
0.075205629
0.075206762
0.075206438
0.075206232
0.075205484
0.075204512
0.075205151
0.075206269
0.075206186
0.07520609
0.075205499
0.075204863
0.075205748
0.075206844
0.075206724
0.075206657
0.075206419
0.075206136
0.075205613
0.075204472
0.075202707
0.075202499
0.075204877
0.075206531
0.075206038
0.075205794
0.075204903
0.075204369
0.075205702
0.075206864
0.075206579
0.07520629
0.075205442
0.075203795
0.075203468
0.075205515
0.075207333
0.075207142
0.075206975
0.075206437
0.07520569
0.075204134
0.075203992
0.075206374
0.075207299
0.075206705
0.075206417
0.07520543
0.075203923
0.075204727
0.075207438
0.075207595
0.075206651
0.075206399
0.075205462
0.075204925
0.075206171
0.075207471
0.075207256
0.075207034
0.075206402
0.075205091
0.075204686
0.075206274
0.075207901
0.075207755
0.075207614
0.075207172
0.075206421
0.075205247
0.075205642
0.075207619
0.075207583
0.075207162
0.075207235
0.075206559
0.075206254
0.075207224
0.07520762
0.075207239
0.075206799
0.075206016
0.075206619
0.075207844
0.075207659
0.075207545
0.07520691
0.075206329
0.075207345
0.075208414
0.075208142
0.075207866
0.07520689
0.075205416
0.075206509
0.075209364
0.075209408
0.075208462
0.075208225
0.075207317
0.075206833
0.075208161
0.075209587
0.075209373
0.075209145
0.07520847
0.075206968
0.075206707
0.075208417
0.075209677
0.075209365
0.075209099
0.075208156
0.075206718
0.075207651
0.075210482
0.075211001
0.075210398
0.075210193
0.075209547
0.075208435
0.075207944
0.075209653
0.075211774
0.075211724
0.075211666
0.075211476
0.075211155
0.075210898
0.075209991
0.075209027
0.075209907
0.075211568
0.075211527
0.075211457
0.07521121
0.075210605
0.075209603
0.075209274
0.075211088
0.075212747
0.075212626
0.075212513
0.075212133
0.075211495
0.075210424
0.075210688
0.075212251
0.07521217
0.075211855
0.075211903
0.075211415
0.075210497
0.075211416
0.07521417
0.075214845
0.075214345
0.075214225
0.075213827
0.075213172
0.075212359
0.075213285
0.07521521
0.075215199
0.075215174
0.075215086
0.075214803
0.075214389
0.075213455
0.075214383
0.075216466
0.075216436
0.075216335
0.075216281
0.075215646
0.075214722
0.075214518
0.075216224
0.075217822
0.07521758
0.075217322
0.075216486
0.075214739
0.075214714
0.075217034
0.075218414
0.075218058
0.075217857
0.075217023
0.075216697
0.075218241
0.075219601
0.075219362
0.075219099
0.075218155
0.07521631
0.075216593
0.07521945
0.075221177
0.075220962
0.075220742
0.07522002
0.075218621
0.075218532
0.075220756
0.075222616
0.075222477
0.07522233
0.075221854
0.075220777
0.07522059
0.075222429
0.075224274
0.075224207
0.075224134
0.075223888
0.075223298
0.075222601
0.075223547
0.075225925
0.07522614
0.075225558
0.075225301
0.07522415
0.075224043
0.07522585
0.07522694
0.075226684
0.075226534
0.07522581
0.075225612
0.075227281
0.07522867
0.07522846
0.075228323
0.075227657
0.075227559
0.07522903
0.075229561
0.07522913
0.075228602
0.075228394
0.075229867
0.075231215
0.075230976
0.075230867
0.075230254
0.075230031
0.075231732
0.075233396
0.075233222
0.075233019
0.075232249
0.075230417
0.075230547
0.075233472
0.075235604
0.075235435
0.075235242
0.075234492
0.075232795
0.075232956
0.075235794
0.075237867
0.075237709
0.075237526
0.075236805
0.075235166
0.075235355
0.075238178
0.075240209
0.075240055
0.075239874
0.075239151
0.075237488
0.075237615
0.075240769
0.075243464
0.075243452
0.075243438
0.075243378
0.075243245
0.075243008
0.075242474
0.075243925
0.075246719
0.07524724
0.075246848
0.07524687
0.075246785
0.075246672
0.075245966
0.075245912
0.075248125
0.07525025
0.07525022
0.075250175
0.07525001
0.075249328
0.07524817
0.075248277
0.075251226
0.075253913
0.075253902
0.075253887
0.075253828
0.075253592
0.075253276
0.075253184
0.07525532
0.075258313
0.07525846
0.075257832
0.075258139
0.075258296
0.075258262
0.075258166
0.075257993
0.075259519
0.075262303
0.075263134
0.075262897
0.075262917
0.075262842
0.075262614
0.075261684
0.075261995
0.075265057
0.075267587
0.075267443
0.075267172
0.075267254
0.075267089
0.075266529
0.075267122
0.075269804
0.075271806
0.075271778
0.075271735
0.07527143
0.07527043
0.075270891
0.075273821
0.075276219
0.075276186
0.07527613
0.07527587
0.07527476
0.075275273
0.075278331
0.075280741
0.07528072
0.075280682
0.075280473
0.075279597
0.075280469
0.075283299
0.075284861
0.075284765
0.075284612
0.07528389
0.075284379
0.075287131
0.075288972
0.075288765
0.075288865
0.075288894
0.075289132
0.075291546
0.075294522
0.075294712
0.075294112
0.075294563
0.075294762
0.0752947
0.075296429
0.075299572
0.07530104
0.075300874
0.075300939
0.075300959
0.075300685
0.07530181
0.075304435
0.075305896
0.075305593
0.075305075
0.075305631
0.075307994
0.075310156
0.075309938
0.075309158
0.075310099
0.075312588
0.075314145
0.075314142
0.075314136
0.075313887
0.075314682
0.075317904
0.075320805
0.075321109
0.075321036
0.075321016
0.075320424
0.075321323
0.075324545
0.07532731
0.075327386
0.075326785
0.075327934
0.075329842
0.075330343
0.075330098
0.075329776
0.075330427
0.075333506
0.075336494
0.075336803
0.075336734
0.075336726
0.075336079
0.07533704
0.075340525
0.075343498
0.075343843
0.07534364
0.075343665
0.075343459
0.075344715
0.075348052
0.075350609
0.075350793
0.075350521
0.07535024
0.07535045
0.07535283
0.075356105
0.075357275
0.075357133
0.07535743
0.075357623
0.075358632
0.075361705
0.075364154
0.075364213
0.075363943
0.075363665
0.075364071
0.075366906
0.075370327
0.075371437
0.07537142
0.075371403
0.075371225
0.075372391
0.075375676
0.075378622
0.075379281
0.075379094
0.075379205
0.075379266
0.07538041
0.075383571
0.07538664
0.075387692
0.075387672
0.075387661
0.075387624
0.075388644
0.075391641
0.075394665
0.075395881
0.075395945
0.075395778
0.075395659
0.075396706
0.075399663
0.075402665
0.075404191
0.075404732
0.07540451
0.075403984
0.075404608
0.075407167
0.075410303
0.075412309
0.075413518
0.075414274
0.075414478
0.075415122
0.075416959
0.075419025
0.075420146
0.07542029
0.075420634
0.075422302
0.075424576
0.07542596
0.075425979
0.075425316
0.075425791
0.075428277
0.075431267
0.075433142
0.075434119
0.075434242
0.075433687
0.075434114
0.07543647
0.075439298
0.075441071
0.075442209
0.075443151
0.075443545
0.075443644
0.075444706
0.07544683
0.075448666
0.075449862
0.07545086
0.075451534
0.075451783
0.075452479
0.075454154
0.07545592
0.075457124
0.075458047
0.075458623
0.075458838
0.075459564
0.07546118
0.075462773
0.075463829
0.075464599
0.075464938
0.075465
0.075465782
0.075467436
0.075468887
0.075469789
0.075470502
0.075470971
0.075471096
0.075471485
0.075472607
0.075473855
0.075474663
0.075475213
0.075475695
0.075476196
0.075476725
0.075477085
0.075477158
0.075477306
0.075477883
0.075478558
0.07547891
0.075478982
0.075478734
0.075478234
0.075478126
0.07547867
0.075479114
0.075479009
0.075478615
0.075477963
0.075477123
0.075476662
0.075476698
0.075476527
0.075475885
0.075475021
0.075473928
0.075472635
0.075471548
0.075470749
0.075469758
0.075468399
0.075466791
0.075464962
0.075463147
0.07546149
0.075459667
0.075457481
0.075454999
0.075452248
0.075449502
0.075446966
0.075444256
0.075441107
0.075437672
0.075433911
0.075429824
0.075425782
0.07542188
0.075417673
0.075412987
0.075407973
0.075402615
0.075396884
0.075390975
0.075385031
0.075378793
0.075372046
0.075364893
0.075357347
0.075349334
0.075340956
0.075332373
0.075323451
0.075313964
0.075303933
0.07529338
0.075282264
0.075270688
0.075258763
0.075246307
0.075233133
0.075219297
0.075204785
0.07518953
0.075173588
0.075157112
0.075140022
0.07512206
0.075103199
0.075083481
0.075062857
0.075041315
0.075018852
0.074995417
0.074970939
0.074945388
0.074918726
0.074890882
0.07486181
0.074831465
0.074799793
0.074766743
0.07473231
0.074696488
0.074659131
0.074620107
0.074579407
0.074536968
0.074492727
0.074446688
0.074398748
0.074348741
0.074296594
0.074242236
0.074185574
0.074126608
0.074065301
0.074001428
0.073934812
0.073865414
0.073793122
0.073717823
0.07363949
0.07355805
0.073473257
0.073384897
0.0732929
0.073197131
0.073097435
0.072993697
0.072885781
0.07277351
0.072656664
0.072535056
0.072408519
0.072276869
0.072139913
0.071997438
0.07184924
0.071695108
0.071534791
0.071368041
0.071194627
0.071014283
0.070826722
0.070631679
0.07042887
0.070218009
0.069998814
0.069770945
0.069534027
0.069287718
0.069031667
0.06876551
0.068488886
0.068201405
0.067902635
0.067592116
0.067269395
0.06693402
0.06658552
0.066223412
0.065847189
0.065456312
0.065050217
0.064628313
0.064189997
0.063734661
0.063261675
0.062770373
0.062260093
0.061730122
0.061179687
0.060608028
0.060014363
0.059397851
0.058757652
0.058092901
0.057402675
0.056686025
0.055941987
0.055169534
0.054367593
0.053535088
0.052670894
0.05177382
0.050842674
0.049876213
0.048873128
0.047832097
0.046751726
0.045630534
0.044467034
0.043259699
0.042006913
0.04070704
0.039358389
0.037959166
0.036507511
0.035001543
0.033439293
0.031818712
0.030137714
0.02839413
0.02658569
0.024710086
0.022764923
0.020747682
0.01865579
0.016486606
0.014237373
0.011905278
0.0094874339
0.0069808101
0.0043822716
0.0016886101
-0.0011035497
-0.0039980748
-0.007043383
-0.010156664
-0.013342626
-0.016718057
-0.020186518
-0.023752795
-0.027487558
-0.031344935
-0.035330379
-0.039478202
-0.043767263
-0.048204326
-0.052812232
-0.057579163
-0.062513032
-0.067630899
-0.072926237
-0.078408204
-0.084090245
-0.089969421
-0.096056314
-0.10236177
-0.10888556
-0.11563993
-0.12263362
-0.12986861
-0.13735908
-0.14511184
-0.15313079
-0.16143248
-0.17002172
-0.1789041
-0.18809917
-0.19760926
-0.20744161
-0.21761975
-0.22814261
-0.23901899
-0.25027824
-0.26191377
-0.27393598
-0.28638399
-0.29924061
-0.31251787
-0.32627719
-0.34047233
-0.35511717
-0.37032308
-0.38598368
-0.40211539
-0.4188591
-0.4361223
-0.45392361
-0.47235083
-0.49136413
-0.51098334
-0.53125955
-0.55218091
-0.57376868
-0.59606198
-0.61906039
-0.64278696
-0.66727488
-0.69253048
-0.71857876
-0.7454494
-0.77315348
-0.80171812
-0.83117059
-0.86152559
-0.89281244
-0.9250565
-0.95827543
-0.99250102
-1.0277568
-1.064063
-1.101454
-1.1399513
-1.1795774
-1.2203697
-1.2623469
-1.3055335
-1.349971
-1.3956738
-1.4426685
-1.4910016
-1.5406814
-1.5917361
-1.6442208
-1.698132
-1.7535003
-1.8103988
-1.8687962
-1.928728
-1.9903137
-2.0534496
-2.1181786
-2.1846693
-2.2527939
-2.3225961
-2.3942063
-2.4675603
-2.5426944
-2.6196737
-2.6984795
-2.7791421
-2.861707
-2.9461681
-3.0325522
-3.1208929
-3.2111887
-3.3034631
-3.3977402
-3.49402
-3.5923219
-3.6926616
-3.7950383
-3.8994671
-4.0059553
-4.1144995
-4.2251106
-4.3377868
-4.4525216
-4.5693207
-4.6881729
-4.8090676
-4.9320056
-5.0569649
-5.1839308
-5.3128989
-5.4438354
-5.5767213
-5.7115479
-5.8482669
-5.9868564
-6.1273042
-6.2695442
-6.4135536
-6.5593202
-6.7067503
-6.8558291
-7.0065565
-7.1587761
-7.3124963
-7.4677452
-7.6242966
-7.7821752
-7.9414083
-8.1017869
-8.2633152
-8.4259713
-8.5896076
-8.7541958
-8.9196819
-9.0859512
-9.2529562
-9.4206311
-9.5888728
-9.7576244
-9.9268121
-10.096339
-10.266144
-10.436147
-10.606257
-10.776408
-10.946517
-11.116501
-11.286289
-11.455798
-11.624953
-11.793679
-11.961896
-12.129534
-12.29652
-12.462777
-12.62824
-12.792838
-12.9565
-13.119166
-13.280768
-13.441242
-13.600533
-13.758578
-13.915321
-14.070713
-14.224695
-14.377219
-14.528243
-14.677714
-14.825593
-14.971842
-15.116413
-15.259283
-15.400422
-15.539771
-15.677317
-15.813049
-15.946914
-16.078895
-16.208989
-16.337171
-16.463423
-16.587739
-16.710101
-16.830502
-16.948937
-17.065397
-17.17988
-17.292385
-17.402911
-17.51146
-17.618037
-17.722646
-17.825293
-17.925988
-18.024738
-18.121556
-18.216453
-18.309443
-18.40054
-18.489759
-18.577118
-18.662633
-18.746322
-18.828206
-18.908304
-18.986637
-19.063225
-19.138092
-19.211259
-19.28275
-19.352587
-19.420796
-19.4874
-19.552423
-19.615892
-19.67783
-19.738262
-19.797216
-19.854715
-19.910786
-19.965454
-20.018745
-20.070684
-20.121299
-20.170614
-20.218654
-20.265444
-20.31101
-20.35538
-20.39858
-20.440631
-20.481555
-20.521377
-20.560121
-20.597813
-20.634478
-20.670136
-20.704809
-20.73852
-20.771292
-20.803149
-20.834113
-20.864206
-20.893448
-20.921861
-20.949464
-20.976277
-21.002321
-21.027613
-21.052174
-21.076022
-21.099175
-21.121651
-21.143468
-21.164642
-21.185192
-21.205133
-21.224481
-21.243253
-21.261464
-21.279129
-21.296263
-21.312881
-21.328997
-21.344624
-21.359776
-21.374467
-21.388709
-21.402515
-21.415897
-21.428867
-21.441438
-21.45362
-21.465424
-21.476863
-21.487945
-21.498681
-21.509082
-21.519158
-21.528917
-21.53837
-21.547524
-21.55639
-21.564975
-21.573289
-21.581338
-21.589132
-21.596677
-21.603981
-21.611052
-21.617897
-21.624522
-21.630934
-21.63714
-21.643146
-21.648958
-21.654583
-21.660025
-21.66529
-21.670385
-21.675314
-21.680083
-21.684696
-21.689159
-21.693475
-21.69765
-21.701688
-21.705595
-21.709374
-21.713028
-21.71656
-21.719976
-21.72328
-21.726476
-21.729565
-21.732549
-21.735435
-21.738226
-21.740927
-21.743538
-21.746062
-21.748501
-21.750859
-21.753142
-21.755351
-21.757487
-21.759547
-21.761535
-21.763454
-21.765309
-21.767104
-21.768839
-21.770515
-21.772134
-21.773701
-21.775217
-21.776684
-21.778101
-21.779467
-21.780784
-21.782055
-21.783285
-21.784472
-21.785618
-21.786725
-21.787797
-21.788837
-21.789845
-21.790815
-21.791748
-21.792648
-21.79352
-21.79437
-21.795193
-21.795987
-21.796752
-21.79749
-21.798204
-21.798896
-21.799566
-21.800212
-21.800834
-21.801434
-21.802014
-21.802573
-21.803112
-21.803633
-21.804138
-21.804628
-21.805103
-21.805563
-21.806007
-21.806436
-21.806851
-21.807254
-21.807644
-21.808022
-21.808386
-21.808738
-21.809078
-21.809409
-21.809731
-21.810044
-21.810346
-21.810637
-21.810918
-21.81119
-21.811455
-21.811714
-21.811967
-21.812212
-21.812449
-21.812677
-21.812898
-21.813112
-21.813319
-21.813521
-21.813718
-21.813909
-21.814095
-21.814276
-21.814452
-21.814623
-21.814791
-21.814956
-21.815116
-21.815272
-21.815424
-21.815571
-21.815715
-21.815857
-21.815996
-21.816133
-21.816267
-21.816398
-21.816525
-21.816649
-21.816771
-21.816889
-21.817005
-21.817119
-21.817231
-21.817342
-21.817451
-21.817558
-21.817664
-21.817769
-21.817872
-21.817974
-21.818075
-21.818174
-21.818273
-21.818371
-21.818467
-21.818563
-21.818657
-21.818751
-21.818845
-21.818937
-21.819029
-21.81912
-21.819211
-21.819302
-21.819392
-21.819481
-21.819571
-21.81966
-21.819749
-21.819838
-21.819926
-21.820015
-21.820103
-21.820192
-21.82028
-21.820369
-21.820457
-21.820546
-21.820635
-21.820724
-21.820813
-21.820903
-21.820993
-21.821083
-21.821173
-21.821264
-21.821355
-21.821446
-21.821538
-21.82163
-21.821723
-21.821817
-21.82191
-21.822005
-21.8221
-21.822195
-21.822291
-21.822388
-21.822485
-21.822583
-21.822682
-21.822781
-21.822881
-21.822982
-21.823083
-21.823186
-21.823288
-21.823392
-21.823497
-21.823602
-21.823708
-21.823815
-21.823922
-21.82403
-21.82414
-21.82425
-21.82436
-21.824472
-21.824584
-21.824697
-21.824811
-21.824926
-21.825041
-21.825157
-21.825274
-21.825392
-21.82551
-21.825628
-21.825747
-21.825867
-21.825987
-21.826107
-21.826228
-21.826349
-21.82647
-21.826592
-21.826714
-21.826836
-21.826959
-21.827082
-21.827206
-21.827331
-21.827456
-21.827583
-21.82771
-21.82784
-21.827974
-21.828113
-21.828257
-21.828404
-21.828555
-21.828708
-21.828864
-21.82902
-21.829178
-21.829337
-21.829497
-21.829658
-21.829819
-21.829981
-21.830144
-21.830307
-21.830471
-21.830635
-21.830798
-21.830963
-21.831132
-21.831304
-21.831476
-21.831649
-21.831823
-21.831997
-21.832172
-21.832349
-21.832527
-21.832707
-21.832887
-21.833067
-21.833247
-21.833428
-21.83361
-21.833791
-21.833973
-21.834156
-21.834339
-21.834524
-21.834708
-21.834893
-21.835078
-21.835263
-21.835448
-21.835633
-21.835817
-21.836002
-21.836191
-21.836386
-21.836582
-21.83678
-21.836978
-21.837176
-21.837374
-21.837572
-21.83777
-21.837968
-21.838165
-21.838362
-21.838559
-21.838756
-21.838953
-21.83915
-21.839348
-21.839547
-21.839746
-21.839945
-21.840144
-21.840349
-21.840556
-21.840761
-21.840964
-21.841164
-21.841361
-21.841555
-21.841751
-21.841962
-21.842171
-21.842384
-21.842596
-21.842807
-21.843015
-21.843223
-21.843429
-21.843634
-21.843837
-21.844038
-21.844239
-21.844439
-21.844638
-21.844838
-21.845037
-21.845235
-21.845432
-21.845626
-21.84582
-21.846011
-21.8462
-21.846388
-21.846573
-21.846756
-21.846936
-21.847114
-21.847291
-21.847466
-21.84764
-21.847815
-21.847988
-21.848158
-21.848326
-21.848491
-21.848651
-21.848806
-21.848958
-21.849107
-21.849254
-21.849398
-21.849539
-21.849675
-21.849806
-21.849932
-21.850057
-21.85018
-21.850299
-21.850412
-21.850521
-21.850625
-21.850723
-21.850814
-21.850899
-21.85098
-21.851058
-21.851134
-21.851201
-21.851247
-21.851292
-21.851348
-21.851392
-21.851424
-21.851448
-21.851449
-21.85145
-21.851431
-21.851412
-21.851408
-21.851401
-21.851359
-21.851299
-21.851232
-21.851152
-21.851087
-21.851019
-21.850913
-21.850804
-21.850696
-21.850556
-21.850417
-21.850284
-21.850124
-21.849943
-21.849773
-21.849579
-21.849345
-21.849118
-21.848871
-21.848612
-21.848364
-21.848093
-21.847765
-21.84745
-21.847134
-21.846785
-21.846418
-21.846054
-21.845643
-21.845217
-21.844803
-21.844369
-21.843872
-21.843379
-21.842871
-21.842313
-21.841764
-21.841213
-21.840608
-21.839982
-21.839362
-21.838698
-21.837984
-21.837272
-21.836555
-21.83578
-21.834988
-21.834195
-21.833334
-21.832461
-21.831592
-21.830681
-21.829705
-21.828718
-21.827721
-21.826661
-21.825587
-21.824518
-21.823393
-21.822196
-21.821001
-21.819765
-21.818479
-21.817165
-21.815852
-21.814482
-21.813042
-21.811595
-21.810111
-21.808568
-21.807007
-21.805422
-21.803787
-21.802067
-21.800334
-21.798565
-21.796729
-21.794871
-21.792984
-21.791039
-21.789018
-21.786969
-21.78489
-21.782732
-21.780538
-21.778316
-21.77603
-21.773667
-21.771261
-21.768839
-21.766335
-21.76377
-21.761161
-21.758497
-21.755767
-21.752978
-21.750165
-21.74727
-21.744297
-21.741273
-21.738205
-21.735071
-21.731851
-21.728591
-21.725268
-21.721864