/*--------------------------------*- C++ -*----------------------------------*\
  =========                 |
  \\      /  F ield         | OpenFOAM: The Open Source CFD Toolbox
   \\    /   O peration     | Website:  https://openfoam.org
    \\  /    A nd           | Version:  7
     \\/     M anipulation  |
\*---------------------------------------------------------------------------*/
FoamFile
{
    version     2.0;
    format      ascii;
    class       volScalarField;
    location    "0.00303";
    object      p;
}
// * * * * * * * * * * * * * * * * * * * * * * * * * * * * * * * * * * * * * //

dimensions      [1 -1 -2 0 0 0 0];

internalField   nonuniform List<scalar> 
5000
(
99789.058
99789.058
99789.058
99789.058
99789.058
99789.058
99789.058
99789.058
99789.058
99789.058
99789.058
99789.058
99789.059
99789.059
99789.059
99789.059
99789.059
99789.059
99789.059
99789.059
99789.059
99789.059
99789.059
99789.059
99789.059
99789.059
99789.06
99789.06
99789.06
99789.06
99789.06
99789.06
99789.06
99789.06
99789.06
99789.06
99789.06
99789.06
99789.06
99789.061
99789.061
99789.061
99789.061
99789.061
99789.061
99789.061
99789.061
99789.061
99789.061
99789.061
99789.061
99789.061
99789.061
99789.062
99789.062
99789.062
99789.062
99789.062
99789.062
99789.062
99789.062
99789.062
99789.062
99789.062
99789.062
99789.062
99789.062
99789.062
99789.063
99789.063
99789.063
99789.063
99789.063
99789.063
99789.063
99789.063
99789.063
99789.063
99789.063
99789.063
99789.063
99789.063
99789.064
99789.064
99789.064
99789.064
99789.064
99789.064
99789.064
99789.064
99789.064
99789.064
99789.064
99789.064
99789.064
99789.064
99789.064
99789.065
99789.065
99789.065
99789.065
99789.065
99789.065
99789.065
99789.065
99789.065
99789.065
99789.065
99789.065
99789.065
99789.065
99789.065
99789.066
99789.066
99789.066
99789.066
99789.066
99789.066
99789.066
99789.066
99789.066
99789.066
99789.066
99789.066
99789.066
99789.066
99789.066
99789.067
99789.067
99789.067
99789.067
99789.067
99789.067
99789.067
99789.067
99789.067
99789.067
99789.067
99789.067
99789.067
99789.067
99789.067
99789.067
99789.068
99789.068
99789.068
99789.068
99789.068
99789.068
99789.068
99789.068
99789.068
99789.068
99789.068
99789.068
99789.068
99789.068
99789.068
99789.069
99789.069
99789.069
99789.069
99789.069
99789.069
99789.069
99789.069
99789.069
99789.069
99789.069
99789.069
99789.069
99789.069
99789.069
99789.07
99789.07
99789.07
99789.07
99789.07
99789.07
99789.07
99789.07
99789.07
99789.07
99789.07
99789.07
99789.07
99789.07
99789.07
99789.07
99789.071
99789.071
99789.071
99789.071
99789.071
99789.071
99789.071
99789.071
99789.071
99789.071
99789.071
99789.071
99789.071
99789.071
99789.071
99789.072
99789.072
99789.072
99789.072
99789.072
99789.072
99789.072
99789.072
99789.072
99789.072
99789.072
99789.072
99789.072
99789.072
99789.072
99789.073
99789.073
99789.073
99789.073
99789.073
99789.073
99789.073
99789.073
99789.073
99789.073
99789.073
99789.073
99789.073
99789.073
99789.073
99789.074
99789.074
99789.074
99789.074
99789.074
99789.074
99789.074
99789.074
99789.074
99789.074
99789.074
99789.074
99789.074
99789.075
99789.075
99789.075
99789.075
99789.075
99789.075
99789.075
99789.075
99789.075
99789.075
99789.075
99789.075
99789.075
99789.076
99789.076
99789.076
99789.076
99789.076
99789.076
99789.076
99789.076
99789.076
99789.076
99789.076
99789.076
99789.076
99789.077
99789.077
99789.077
99789.077
99789.077
99789.077
99789.077
99789.077
99789.077
99789.077
99789.077
99789.077
99789.078
99789.078
99789.078
99789.078
99789.078
99789.078
99789.078
99789.078
99789.078
99789.078
99789.078
99789.079
99789.079
99789.079
99789.079
99789.079
99789.079
99789.079
99789.079
99789.079
99789.079
99789.079
99789.08
99789.08
99789.08
99789.08
99789.08
99789.08
99789.08
99789.08
99789.08
99789.08
99789.081
99789.081
99789.081
99789.081
99789.081
99789.081
99789.081
99789.081
99789.081
99789.081
99789.081
99789.082
99789.082
99789.082
99789.082
99789.082
99789.082
99789.082
99789.082
99789.082
99789.082
99789.083
99789.083
99789.083
99789.083
99789.083
99789.083
99789.083
99789.083
99789.083
99789.083
99789.084
99789.084
99789.084
99789.084
99789.084
99789.084
99789.084
99789.084
99789.084
99789.084
99789.085
99789.085
99789.085
99789.085
99789.085
99789.085
99789.085
99789.085
99789.085
99789.086
99789.086
99789.086
99789.086
99789.086
99789.086
99789.086
99789.086
99789.086
99789.086
99789.087
99789.087
99789.087
99789.087
99789.087
99789.087
99789.087
99789.087
99789.087
99789.087
99789.088
99789.088
99789.088
99789.088
99789.088
99789.088
99789.088
99789.088
99789.088
99789.088
99789.089
99789.089
99789.089
99789.089
99789.089
99789.089
99789.089
99789.089
99789.089
99789.09
99789.09
99789.09
99789.09
99789.09
99789.09
99789.09
99789.09
99789.09
99789.09
99789.091
99789.091
99789.091
99789.091
99789.091
99789.091
99789.091
99789.091
99789.091
99789.091
99789.092
99789.092
99789.092
99789.092
99789.092
99789.092
99789.092
99789.092
99789.092
99789.093
99789.093
99789.093
99789.093
99789.093
99789.093
99789.093
99789.093
99789.093
99789.093
99789.094
99789.094
99789.094
99789.094
99789.094
99789.094
99789.094
99789.094
99789.094
99789.095
99789.095
99789.095
99789.095
99789.095
99789.095
99789.095
99789.095
99789.095
99789.096
99789.096
99789.096
99789.096
99789.096
99789.096
99789.096
99789.096
99789.096
99789.097
99789.097
99789.097
99789.097
99789.097
99789.097
99789.097
99789.097
99789.098
99789.098
99789.098
99789.098
99789.098
99789.098
99789.098
99789.098
99789.098
99789.099
99789.099
99789.099
99789.099
99789.099
99789.099
99789.099
99789.099
99789.1
99789.1
99789.1
99789.1
99789.1
99789.1
99789.1
99789.1
99789.1
99789.101
99789.101
99789.101
99789.101
99789.101
99789.101
99789.101
99789.101
99789.102
99789.102
99789.102
99789.102
99789.102
99789.102
99789.102
99789.102
99789.103
99789.103
99789.103
99789.103
99789.103
99789.103
99789.103
99789.103
99789.104
99789.104
99789.104
99789.104
99789.104
99789.104
99789.104
99789.105
99789.105
99789.105
99789.105
99789.105
99789.105
99789.105
99789.105
99789.106
99789.106
99789.106
99789.106
99789.106
99789.106
99789.106
99789.106
99789.107
99789.107
99789.107
99789.107
99789.107
99789.107
99789.107
99789.108
99789.108
99789.108
99789.108
99789.108
99789.108
99789.108
99789.108
99789.109
99789.109
99789.109
99789.109
99789.109
99789.109
99789.109
99789.11
99789.11
99789.11
99789.11
99789.11
99789.11
99789.11
99789.111
99789.111
99789.111
99789.111
99789.111
99789.111
99789.111
99789.111
99789.112
99789.112
99789.112
99789.112
99789.112
99789.112
99789.112
99789.113
99789.113
99789.113
99789.113
99789.113
99789.113
99789.113
99789.114
99789.114
99789.114
99789.114
99789.114
99789.114
99789.114
99789.115
99789.115
99789.115
99789.115
99789.115
99789.115
99789.115
99789.115
99789.116
99789.116
99789.116
99789.116
99789.116
99789.116
99789.116
99789.117
99789.117
99789.117
99789.117
99789.117
99789.117
99789.117
99789.118
99789.118
99789.118
99789.118
99789.118
99789.118
99789.118
99789.119
99789.119
99789.119
99789.119
99789.119
99789.119
99789.119
99789.12
99789.12
99789.12
99789.12
99789.12
99789.12
99789.12
99789.121
99789.121
99789.121
99789.121
99789.121
99789.121
99789.121
99789.122
99789.122
99789.122
99789.122
99789.122
99789.122
99789.122
99789.123
99789.123
99789.123
99789.123
99789.123
99789.123
99789.123
99789.124
99789.124
99789.124
99789.124
99789.124
99789.124
99789.125
99789.125
99789.125
99789.125
99789.125
99789.125
99789.125
99789.126
99789.126
99789.126
99789.126
99789.126
99789.126
99789.126
99789.127
99789.127
99789.127
99789.127
99789.127
99789.127
99789.128
99789.128
99789.128
99789.128
99789.128
99789.128
99789.128
99789.129
99789.129
99789.129
99789.129
99789.129
99789.129
99789.13
99789.13
99789.13
99789.13
99789.13
99789.13
99789.13
99789.131
99789.131
99789.131
99789.131
99789.131
99789.131
99789.132
99789.132
99789.132
99789.132
99789.132
99789.132
99789.133
99789.133
99789.133
99789.133
99789.133
99789.133
99789.134
99789.134
99789.134
99789.134
99789.134
99789.134
99789.134
99789.135
99789.135
99789.135
99789.135
99789.135
99789.135
99789.136
99789.136
99789.136
99789.136
99789.136
99789.136
99789.137
99789.137
99789.137
99789.137
99789.137
99789.137
99789.138
99789.138
99789.138
99789.138
99789.138
99789.138
99789.139
99789.139
99789.139
99789.139
99789.139
99789.139
99789.14
99789.14
99789.14
99789.14
99789.14
99789.141
99789.141
99789.141
99789.141
99789.141
99789.141
99789.142
99789.142
99789.142
99789.142
99789.142
99789.142
99789.143
99789.143
99789.143
99789.143
99789.143
99789.143
99789.144
99789.144
99789.144
99789.144
99789.144
99789.145
99789.145
99789.145
99789.145
99789.145
99789.145
99789.146
99789.146
99789.146
99789.146
99789.146
99789.147
99789.147
99789.147
99789.147
99789.147
99789.147
99789.148
99789.148
99789.148
99789.148
99789.148
99789.149
99789.149
99789.149
99789.149
99789.149
99789.149
99789.15
99789.15
99789.15
99789.15
99789.15
99789.151
99789.151
99789.151
99789.151
99789.151
99789.151
99789.152
99789.152
99789.152
99789.152
99789.152
99789.153
99789.153
99789.153
99789.153
99789.153
99789.154
99789.154
99789.154
99789.154
99789.154
99789.155
99789.155
99789.155
99789.155
99789.155
99789.156
99789.156
99789.156
99789.156
99789.156
99789.157
99789.157
99789.157
99789.157
99789.157
99789.158
99789.158
99789.158
99789.158
99789.158
99789.159
99789.159
99789.159
99789.159
99789.159
99789.16
99789.16
99789.16
99789.16
99789.16
99789.161
99789.161
99789.161
99789.161
99789.161
99789.162
99789.162
99789.162
99789.162
99789.162
99789.163
99789.163
99789.163
99789.163
99789.163
99789.164
99789.164
99789.164
99789.164
99789.164
99789.165
99789.165
99789.165
99789.165
99789.165
99789.166
99789.166
99789.166
99789.166
99789.167
99789.167
99789.167
99789.167
99789.167
99789.168
99789.168
99789.168
99789.168
99789.168
99789.169
99789.169
99789.169
99789.169
99789.17
99789.17
99789.17
99789.17
99789.17
99789.171
99789.171
99789.171
99789.171
99789.172
99789.172
99789.172
99789.172
99789.172
99789.173
99789.173
99789.173
99789.173
99789.174
99789.174
99789.174
99789.174
99789.174
99789.175
99789.175
99789.175
99789.175
99789.176
99789.176
99789.176
99789.176
99789.176
99789.177
99789.177
99789.177
99789.177
99789.178
99789.178
99789.178
99789.178
99789.179
99789.179
99789.179
99789.179
99789.179
99789.18
99789.18
99789.18
99789.18
99789.181
99789.181
99789.181
99789.181
99789.182
99789.182
99789.182
99789.182
99789.182
99789.183
99789.183
99789.183
99789.183
99789.184
99789.184
99789.184
99789.184
99789.185
99789.185
99789.185
99789.185
99789.186
99789.186
99789.186
99789.186
99789.187
99789.187
99789.187
99789.187
99789.187
99789.188
99789.188
99789.188
99789.188
99789.189
99789.189
99789.189
99789.189
99789.19
99789.19
99789.19
99789.19
99789.191
99789.191
99789.191
99789.191
99789.192
99789.192
99789.192
99789.192
99789.193
99789.193
99789.193
99789.193
99789.194
99789.194
99789.194
99789.194
99789.195
99789.195
99789.195
99789.195
99789.196
99789.196
99789.196
99789.196
99789.197
99789.197
99789.197
99789.197
99789.198
99789.198
99789.198
99789.198
99789.199
99789.199
99789.199
99789.199
99789.2
99789.2
99789.2
99789.2
99789.201
99789.201
99789.201
99789.202
99789.202
99789.202
99789.202
99789.203
99789.203
99789.203
99789.203
99789.204
99789.204
99789.204
99789.204
99789.205
99789.205
99789.205
99789.205
99789.206
99789.206
99789.206
99789.207
99789.207
99789.207
99789.207
99789.208
99789.208
99789.208
99789.208
99789.209
99789.209
99789.209
99789.209
99789.21
99789.21
99789.21
99789.211
99789.211
99789.211
99789.211
99789.212
99789.212
99789.212
99789.212
99789.213
99789.213
99789.213
99789.214
99789.214
99789.214
99789.214
99789.215
99789.215
99789.215
99789.215
99789.216
99789.216
99789.216
99789.217
99789.217
99789.217
99789.217
99789.218
99789.218
99789.218
99789.219
99789.219
99789.219
99789.219
99789.22
99789.22
99789.22
99789.221
99789.221
99789.221
99789.221
99789.222
99789.222
99789.222
99789.222
99789.223
99789.223
99789.223
99789.224
99789.224
99789.224
99789.225
99789.225
99789.225
99789.225
99789.226
99789.226
99789.226
99789.227
99789.227
99789.227
99789.227
99789.228
99789.228
99789.228
99789.229
99789.229
99789.229
99789.229
99789.23
99789.23
99789.23
99789.231
99789.231
99789.231
99789.232
99789.232
99789.232
99789.232
99789.233
99789.233
99789.233
99789.234
99789.234
99789.234
99789.235
99789.235
99789.235
99789.235
99789.236
99789.236
99789.236
99789.237
99789.237
99789.237
99789.238
99789.238
99789.238
99789.238
99789.239
99789.239
99789.239
99789.24
99789.24
99789.24
99789.241
99789.241
99789.241
99789.242
99789.242
99789.242
99789.242
99789.243
99789.243
99789.243
99789.244
99789.244
99789.244
99789.245
99789.245
99789.245
99789.246
99789.246
99789.246
99789.246
99789.247
99789.247
99789.247
99789.248
99789.248
99789.248
99789.249
99789.249
99789.249
99789.25
99789.25
99789.25
99789.251
99789.251
99789.251
99789.252
99789.252
99789.252
99789.252
99789.253
99789.253
99789.253
99789.254
99789.254
99789.254
99789.255
99789.255
99789.255
99789.256
99789.256
99789.256
99789.257
99789.257
99789.257
99789.258
99789.258
99789.258
99789.259
99789.259
99789.259
99789.26
99789.26
99789.26
99789.261
99789.261
99789.261
99789.262
99789.262
99789.262
99789.263
99789.263
99789.263
99789.264
99789.264
99789.264
99789.265
99789.265
99789.265
99789.266
99789.266
99789.266
99789.267
99789.267
99789.267
99789.268
99789.268
99789.268
99789.269
99789.269
99789.269
99789.27
99789.27
99789.27
99789.271
99789.271
99789.271
99789.272
99789.272
99789.273
99789.273
99789.273
99789.274
99789.274
99789.274
99789.275
99789.275
99789.275
99789.276
99789.276
99789.276
99789.277
99789.277
99789.277
99789.278
99789.278
99789.279
99789.279
99789.279
99789.28
99789.28
99789.28
99789.281
99789.281
99789.281
99789.282
99789.282
99789.283
99789.283
99789.283
99789.284
99789.284
99789.284
99789.285
99789.285
99789.286
99789.286
99789.286
99789.287
99789.287
99789.287
99789.288
99789.288
99789.289
99789.289
99789.289
99789.29
99789.29
99789.29
99789.291
99789.291
99789.292
99789.292
99789.292
99789.293
99789.293
99789.293
99789.294
99789.294
99789.295
99789.295
99789.295
99789.296
99789.296
99789.297
99789.297
99789.297
99789.298
99789.298
99789.299
99789.299
99789.299
99789.3
99789.3
99789.301
99789.301
99789.301
99789.302
99789.302
99789.303
99789.303
99789.303
99789.304
99789.304
99789.305
99789.305
99789.305
99789.306
99789.306
99789.307
99789.307
99789.307
99789.308
99789.308
99789.309
99789.309
99789.309
99789.31
99789.31
99789.311
99789.311
99789.312
99789.312
99789.312
99789.313
99789.313
99789.314
99789.314
99789.314
99789.315
99789.315
99789.316
99789.316
99789.317
99789.317
99789.317
99789.318
99789.318
99789.319
99789.319
99789.32
99789.32
99789.32
99789.321
99789.321
99789.322
99789.322
99789.323
99789.323
99789.323
99789.324
99789.324
99789.325
99789.325
99789.326
99789.326
99789.327
99789.327
99789.327
99789.328
99789.328
99789.329
99789.329
99789.33
99789.33
99789.331
99789.331
99789.331
99789.332
99789.332
99789.333
99789.333
99789.334
99789.334
99789.335
99789.335
99789.336
99789.336
99789.336
99789.337
99789.337
99789.338
99789.338
99789.339
99789.339
99789.34
99789.34
99789.341
99789.341
99789.342
99789.342
99789.343
99789.343
99789.343
99789.344
99789.344
99789.345
99789.345
99789.346
99789.346
99789.347
99789.347
99789.348
99789.348
99789.349
99789.349
99789.35
99789.35
99789.351
99789.351
99789.352
99789.352
99789.353
99789.353
99789.354
99789.354
99789.355
99789.355
99789.356
99789.356
99789.356
99789.357
99789.357
99789.358
99789.358
99789.359
99789.359
99789.36
99789.36
99789.361
99789.361
99789.362
99789.362
99789.363
99789.363
99789.364
99789.364
99789.365
99789.366
99789.366
99789.367
99789.367
99789.368
99789.368
99789.369
99789.369
99789.37
99789.37
99789.371
99789.371
99789.372
99789.372
99789.373
99789.373
99789.374
99789.374
99789.375
99789.375
99789.376
99789.376
99789.377
99789.377
99789.378
99789.379
99789.379
99789.38
99789.38
99789.381
99789.381
99789.382
99789.382
99789.383
99789.383
99789.384
99789.384
99789.385
99789.386
99789.386
99789.387
99789.387
99789.388
99789.388
99789.389
99789.389
99789.39
99789.39
99789.391
99789.392
99789.392
99789.393
99789.393
99789.394
99789.394
99789.395
99789.395
99789.396
99789.397
99789.397
99789.398
99789.398
99789.399
99789.399
99789.4
99789.401
99789.401
99789.402
99789.402
99789.403
99789.403
99789.404
99789.405
99789.405
99789.406
99789.406
99789.407
99789.407
99789.408
99789.409
99789.409
99789.41
99789.41
99789.411
99789.412
99789.412
99789.413
99789.413
99789.414
99789.415
99789.415
99789.416
99789.416
99789.417
99789.418
99789.418
99789.419
99789.419
99789.42
99789.421
99789.421
99789.422
99789.422
99789.423
99789.424
99789.424
99789.425
99789.425
99789.426
99789.427
99789.427
99789.428
99789.429
99789.429
99789.43
99789.43
99789.431
99789.432
99789.432
99789.433
99789.434
99789.434
99789.435
99789.436
99789.436
99789.437
99789.438
99789.438
99789.439
99789.44
99789.44
99789.441
99789.442
99789.442
99789.443
99789.444
99789.444
99789.445
99789.446
99789.446
99789.447
99789.448
99789.448
99789.449
99789.45
99789.45
99789.451
99789.452
99789.452
99789.453
99789.454
99789.455
99789.455
99789.456
99789.457
99789.457
99789.458
99789.459
99789.46
99789.46
99789.461
99789.462
99789.463
99789.463
99789.464
99789.465
99789.466
99789.466
99789.467
99789.468
99789.469
99789.47
99789.47
99789.471
99789.472
99789.473
99789.473
99789.474
99789.475
99789.476
99789.477
99789.478
99789.478
99789.479
99789.48
99789.481
99789.482
99789.483
99789.483
99789.484
99789.485
99789.486
99789.487
99789.488
99789.489
99789.49
99789.491
99789.491
99789.492
99789.493
99789.494
99789.495
99789.496
99789.497
99789.498
99789.499
99789.5
99789.501
99789.502
99789.503
99789.504
99789.505
99789.506
99789.507
99789.508
99789.509
99789.51
99789.511
99789.512
99789.513
99789.514
99789.515
99789.517
99789.518
99789.519
99789.52
99789.521
99789.522
99789.523
99789.525
99789.526
99789.527
99789.528
99789.529
99789.53
99789.532
99789.533
99789.534
99789.535
99789.537
99789.538
99789.539
99789.541
99789.542
99789.543
99789.545
99789.546
99789.547
99789.549
99789.55
99789.551
99789.553
99789.554
99789.556
99789.557
99789.558
99789.56
99789.561
99789.563
99789.564
99789.566
99789.567
99789.569
99789.571
99789.572
99789.574
99789.575
99789.577
99789.579
99789.58
99789.582
99789.584
99789.585
99789.587
99789.589
99789.591
99789.592
99789.594
99789.596
99789.598
99789.599
99789.601
99789.603
99789.605
99789.607
99789.609
99789.611
99789.613
99789.615
99789.617
99789.619
99789.621
99789.623
99789.625
99789.627
99789.629
99789.631
99789.633
99789.635
99789.638
99789.64
99789.642
99789.644
99789.647
99789.649
99789.651
99789.654
99789.656
99789.658
99789.661
99789.663
99789.666
99789.668
99789.671
99789.673
99789.676
99789.678
99789.681
99789.683
99789.686
99789.689
99789.691
99789.694
99789.697
99789.7
99789.702
99789.705
99789.708
99789.711
99789.714
99789.717
99789.72
99789.723
99789.726
99789.729
99789.732
99789.735
99789.738
99789.742
99789.745
99789.748
99789.751
99789.755
99789.758
99789.762
99789.765
99789.768
99789.772
99789.776
99789.779
99789.783
99789.786
99789.79
99789.794
99789.798
99789.802
99789.805
99789.809
99789.813
99789.817
99789.822
99789.826
99789.83
99789.834
99789.838
99789.843
99789.847
99789.852
99789.856
99789.861
99789.865
99789.87
99789.875
99789.88
99789.885
99789.889
99789.895
99789.9
99789.905
99789.91
99789.915
99789.921
99789.926
99789.932
99789.938
99789.943
99789.949
99789.955
99789.961
99789.968
99789.974
99789.98
99789.987
99789.993
99790
99790.007
99790.014
99790.021
99790.028
99790.036
99790.043
99790.051
99790.059
99790.067
99790.075
99790.084
99790.092
99790.101
99790.11
99790.119
99790.129
99790.138
99790.148
99790.158
99790.168
99790.179
99790.189
99790.2
99790.212
99790.223
99790.235
99790.247
99790.26
99790.273
99790.286
99790.3
99790.314
99790.328
99790.343
99790.358
99790.373
99790.389
99790.406
99790.423
99790.44
99790.458
99790.477
99790.496
99790.515
99790.536
99790.557
99790.578
99790.6
99790.623
99790.647
99790.671
99790.696
99790.722
99790.749
99790.777
99790.806
99790.835
99790.866
99790.898
99790.93
99790.964
99790.999
99791.035
99791.073
99791.111
99791.151
99791.193
99791.236
99791.28
99791.326
99791.374
99791.423
99791.474
99791.527
99791.582
99791.639
99791.697
99791.758
99791.822
99791.887
99791.955
99792.025
99792.098
99792.174
99792.252
99792.333
99792.417
99792.505
99792.595
99792.689
99792.787
99792.888
99792.993
99793.101
99793.214
99793.331
99793.453
99793.578
99793.709
99793.845
99793.985
99794.131
99794.283
99794.44
99794.603
99794.772
99794.947
99795.129
99795.318
99795.515
99795.718
99795.929
99796.149
99796.376
99796.612
99796.857
99797.111
99797.375
99797.649
99797.933
99798.228
99798.533
99798.851
99799.18
99799.522
99799.877
99800.245
99800.627
99801.024
99801.435
99801.862
99802.305
99802.764
99803.241
99803.736
99804.249
99804.781
99805.334
99805.907
99806.502
99807.119
99807.759
99808.423
99809.112
99809.826
99810.567
99811.336
99812.134
99812.961
99813.819
99814.708
99815.631
99816.588
99817.58
99818.609
99819.677
99820.783
99821.93
99823.12
99824.353
99825.632
99826.958
99828.332
99829.756
99831.233
99832.763
99834.35
99836.011
99837.716
99839.484
99841.318
99843.22
99845.191
99847.232
99849.348
99851.539
99853.81
99856.163
99858.601
99861.126
99863.743
99866.453
99869.261
99872.169
99875.181
99878.3
99881.531
99884.876
99888.34
99891.927
99895.641
99899.486
99903.467
99907.587
99911.853
99916.268
99920.838
99925.567
99930.461
99935.525
99940.765
99946.186
99951.794
99957.596
99963.597
99969.804
99976.224
99982.862
99989.726
99996.824
100004.16
100011.75
100019.59
100027.69
100036.07
100044.72
100053.66
100062.9
100072.45
100082.3
100092.49
100103
100113.86
100125.07
100136.64
100148.59
100160.92
100173.64
100186.77
100200.32
100214.29
100228.7
100243.56
100258.88
100274.68
100290.96
100307.75
100325.04
100342.86
100361.22
100380.12
100399.59
100419.64
100440.27
100461.51
100483.36
100505.85
100528.98
100552.77
100577.23
100602.37
100628.21
100654.77
100682.05
100710.07
100738.85
100768.39
100798.71
100829.82
100861.74
100894.48
100928.05
100962.46
100997.73
101033.86
101070.87
101108.76
101147.55
101187.25
101227.87
101269.41
101311.88
101355.29
101399.65
101444.97
101491.24
101538.47
101586.67
101635.84
101685.99
101737.1
101789.19
101842.25
101896.27
101951.27
102007.23
102064.15
102122.02
102180.84
102240.59
102301.27
102362.87
102425.38
102488.78
102553.05
102618.19
102684.18
102751
102818.62
102887.04
102956.22
103026.16
103096.81
103168.17
103240.19
103312.87
103386.16
103460.04
103534.49
103609.46
103684.93
103760.88
103837.25
103914.03
103991.17
104068.65
104146.42
104224.46
104302.72
104381.18
104459.79
104538.51
104617.32
104696.17
104775.03
104853.86
104932.63
105011.29
105089.82
105168.18
105246.34
105324.25
105401.89
105479.22
105556.21
105632.83
105709.05
105784.83
105860.15
105934.99
106009.3
106083.07
106156.27
106228.88
106300.87
106372.22
106442.9
106512.91
106582.22
106650.81
106718.66
106785.76
106852.1
106917.66
106982.43
107046.4
107109.55
107171.89
107233.4
107294.07
107353.9
107412.88
107471.02
107528.3
107584.73
107640.3
107695.02
107748.88
107801.89
107854.05
107905.36
107955.83
108005.45
108054.25
108102.21
108149.36
108195.69
108241.21
108285.93
108329.87
108373.02
108415.4
108457.02
108497.88
108538.01
108577.4
108616.07
108654.04
108691.31
108727.89
108763.8
108799.05
108833.66
108867.62
108900.96
108933.69
108965.82
108997.36
109028.33
109058.73
109088.59
109117.91
109146.7
109174.99
109202.77
109230.07
109256.89
109283.24
109309.15
109334.62
109359.65
109384.28
109408.49
109432.32
109455.76
109478.82
109501.53
109523.89
109545.9
109567.59
109588.96
109610.01
109630.77
109651.24
109671.42
109691.33
109710.98
109730.38
109749.53
109768.44
109787.12
109805.58
109823.83
109841.88
109859.72
109877.37
109894.85
109912.14
109929.27
109946.23
109963.04
109979.69
109996.21
110012.58
110028.83
110044.95
110060.94
110076.82
110092.6
110108.26
110123.83
110139.3
110154.68
110169.98
110185.19
110200.33
110215.4
110230.39
110245.32
110260.19
110275
110289.76
110304.47
110319.13
110333.75
110348.32
110362.86
110377.36
110391.84
110406.28
110420.7
110435.09
110449.46
110463.82
110478.15
110492.48
110506.79
110521.09
110535.38
110549.67
110563.95
110578.23
110592.51
110606.8
110621.08
110635.37
110649.67
110663.97
110678.28
110692.61
110706.94
110721.29
110735.65
110750.03
110764.42
110778.83
110793.26
110807.71
110822.18
110836.67
110851.18
110865.71
110880.27
110894.86
110909.46
110924.1
110938.76
110953.45
110968.16
110982.91
110997.68
111012.49
111027.32
111042.18
111057.07
111072
111086.96
111101.94
111116.96
111132.02
111147.1
111162.22
111177.37
111192.56
111207.78
111223.03
111238.32
111253.64
111269
111284.39
111299.82
111315.28
111330.77
111346.3
111361.87
111377.47
111393.11
111408.78
111424.49
111440.23
111456.01
111471.82
111487.67
111503.55
111519.47
111535.42
111551.41
111567.43
111583.49
111599.59
111615.72
111631.88
111648.08
111664.31
111680.57
111696.88
111713.21
111729.58
111745.98
111762.42
111778.89
111795.39
111811.93
111828.5
111845.1
111861.74
111878.41
111895.11
111911.84
111928.6
111945.4
111962.23
111979.09
111995.98
112012.9
112029.86
112046.84
112063.85
112080.9
112097.97
112115.08
112132.21
112149.38
112166.57
112183.79
112201.04
112218.32
112235.63
112252.97
112270.33
112287.72
112305.14
112322.59
112340.06
112357.56
112375.09
112392.64
112410.22
112427.82
112445.45
112463.11
112480.79
112498.49
112516.22
112533.98
112551.75
112569.56
112587.38
112605.23
112623.1
112641
112658.92
112676.86
112694.82
112712.8
112730.81
112748.84
112766.89
112784.96
112803.05
112821.16
112839.29
112857.44
112875.61
112893.8
112912.01
112930.24
112948.49
112966.76
112985.04
113003.35
113021.67
113040.01
113058.36
113076.73
113095.12
113113.53
113131.95
113150.39
113168.85
113187.32
113205.81
113224.31
113242.83
113261.36
113279.9
113298.47
113317.04
113335.63
113354.23
113372.85
113391.48
113410.12
113428.77
113447.44
113466.12
113484.81
113503.51
113522.23
113540.95
113559.69
113578.44
113597.2
113615.97
113634.75
113653.54
113672.34
113691.15
113709.96
113728.79
113747.63
113766.47
113785.32
113804.18
113823.05
113841.93
113860.81
113879.71
113898.6
113917.51
113936.42
113955.34
113974.26
113993.19
114012.13
114031.07
114050.02
114068.97
114087.92
114106.89
114125.85
114144.82
114163.79
114182.77
114201.75
114220.73
114239.72
114258.7
114277.7
114296.69
114315.68
114334.68
114353.68
114372.68
114391.68
114410.68
114429.68
114448.69
114467.69
114486.69
114505.69
114524.7
114543.7
114562.7
114581.7
114600.69
114619.69
114638.68
114657.68
114676.67
114695.65
114714.64
114733.62
114752.6
114771.57
114790.54
114809.51
114828.47
114847.43
114866.39
114885.34
114904.28
114923.22
114942.16
114961.08
114980.01
114998.93
115017.84
115036.74
115055.64
115074.52
115093.41
115112.28
115131.15
115150.01
115168.86
115187.7
115206.54
115225.36
115244.18
115262.99
115281.78
115300.58
115319.35
115338.12
115356.88
115375.62
115394.36
115413.08
115431.8
115450.5
115469.19
115487.87
115506.53
115525.18
115543.83
115562.45
115581.07
115599.67
115618.26
115636.83
115655.39
115673.93
115692.46
115710.98
115729.48
115747.96
115766.43
115784.88
115803.32
115821.74
115840.15
115858.53
115876.91
115895.26
115913.59
115931.91
115950.21
115968.49
115986.76
116005
116023.23
116041.43
116059.62
116077.79
116095.93
116114.06
116132.17
116150.25
116168.32
116186.36
116204.38
116222.38
116240.36
116258.32
116276.25
116294.16
116312.05
116329.91
116347.75
116365.57
116383.36
116401.13
116418.88
116436.6
116454.29
116471.96
116489.6
116507.22
116524.81
116542.38
116559.92
116577.43
116594.92
116612.37
116629.8
116647.21
116664.58
116681.93
116699.24
116716.53
116733.79
116751.02
116768.22
116785.39
116802.53
116819.64
116836.72
116853.77
116870.79
116887.77
116904.73
116921.65
116938.54
116955.4
116972.22
116989.01
117005.77
117022.5
117039.19
117055.85
117072.47
117089.06
117105.61
117122.13
117138.61
117155.05
117171.47
117187.84
117204.18
117220.48
117236.75
117252.97
117269.17
117285.32
117301.43
117317.51
117333.55
117349.55
117365.51
117381.43
117397.32
117413.16
117428.96
117444.71
117460.41
117476.04
117491.62
117507.12
117522.54
117537.89
117553.15
117568.33
117583.42
117598.42
117613.34
117628.17
117642.92
117657.59
117672.18
117686.69
117701.13
117715.5
117729.81
117744.05
117758.23
117772.35
117786.42
117800.43
117814.39
117828.3
117842.16
117855.97
117869.73
117883.45
117897.11
117910.73
117924.3
117937.83
117951.31
117964.74
117978.12
117991.46
118004.75
118018
118031.19
118044.34
118057.44
118070.49
118083.5
118096.46
118109.36
118122.22
118135.03
118147.79
118160.51
118173.17
118185.78
118198.34
118210.86
118223.32
118235.73
118248.09
118260.41
118272.67
118284.88
118297.03
118309.14
118321.19
118333.2
118345.15
118357.05
118368.9
118380.69
118392.43
118404.12
118415.76
118427.34
118438.87
118450.35
118461.77
118473.14
118484.46
118495.72
118506.93
118518.08
118529.18
118540.23
118551.22
118562.15
118573.04
118583.86
118594.63
118605.35
118616.01
118626.62
118637.17
118647.66
118658.1
118668.48
118678.81
118689.08
118699.3
118709.46
118719.56
118729.61
118739.6
118749.53
118759.41
118769.23
118779
118788.71
118798.36
118807.95
118817.49
118826.97
118836.39
118845.76
118855.07
118864.32
118873.52
118882.65
118891.73
118900.76
118909.72
118918.63
118927.49
118936.28
118945.02
118953.7
118962.32
118970.89
118979.4
118987.85
118996.24
119004.58
119012.86
119021.08
119029.24
119037.35
119045.4
119053.39
119061.33
119069.21
119077.03
119084.8
119092.51
119100.16
119107.76
119115.29
119122.78
119130.2
119137.57
119144.88
119152.14
119159.34
119166.48
119173.57
119180.6
119187.58
119194.5
119201.37
119208.17
119214.93
119221.63
119228.27
119234.86
119241.39
119247.87
119254.29
119260.66
119266.98
119273.24
119279.45
119285.6
119291.7
119297.74
119303.73
119309.67