/*--------------------------------*- C++ -*----------------------------------*\
  =========                 |
  \\      /  F ield         | OpenFOAM: The Open Source CFD Toolbox
   \\    /   O peration     | Website:  https://openfoam.org
    \\  /    A nd           | Version:  7
     \\/     M anipulation  |
\*---------------------------------------------------------------------------*/
FoamFile
{
    version     2.0;
    format      ascii;
    class       volVectorField;
    location    "0.00303";
    object      U;
}
// * * * * * * * * * * * * * * * * * * * * * * * * * * * * * * * * * * * * * //

dimensions      [0 1 -1 0 0 0 0];

internalField   nonuniform List<vector> 
5000
(
(0.075377343 1.695886e-21 0)
(0.075956447 3.0666657e-21 0)
(0.074428113 0 0)
(0.075967927 0 0)
(0.075174905 -1.083508e-21 0)
(0.075346157 8.6327343e-37 -7.5934334e-22)
(0.075340631 7.5533146e-22 -1.6100858e-36)
(0.075331165 0 2.3954278e-21)
(0.075381507 0 8.1360626e-22)
(0.075378563 -8.3957609e-22 -1.6791522e-21)
(0.075360665 -1.6964568e-21 -1.6964568e-21)
(0.075359936 8.37125e-22 8.37125e-22)
(0.075360885 8.2943417e-22 -7.0721811e-36)
(0.075358857 -8.3161148e-22 -7.3271042e-36)
(0.0753553 0 1.6717521e-21)
(0.075352877 -8.3701065e-22 -1.6740213e-21)
(0.075351603 -1.260474e-51 -6.3023699e-52)
(0.075350508 8.3430781e-22 -7.3508607e-36)
(0.075349423 0 -8.3307722e-22)
(0.075348355 8.3185919e-22 1.6637184e-21)
(0.075347314 -8.3064252e-22 8.3064252e-22)
(0.075346284 -8.2942448e-22 0)
(0.075345258 1.656394e-21 0)
(0.075344264 -8.2697133e-22 -8.2697133e-22)
(0.075343296 -8.2576066e-22 7.0408588e-36)
(0.075342342 -6.7962735e-36 -6.7962735e-36)
(0.075341402 8.2336617e-22 -8.2336617e-22)
(0.075340479 8.2217888e-22 8.2217888e-22)
(0.075339575 -1.6420058e-21 8.2100291e-22)
(0.075338687 1.4213784e-35 -8.1984111e-22)
(0.075337815 -1.4310228e-35 1.4310228e-35)
(0.075336953 8.1755714e-22 -6.9709115e-36)
(0.075336104 1.632863e-21 -8.1643151e-22)
(0.075335271 -1.6306412e-21 8.153206e-22)
(0.075334454 1.4116455e-35 8.1422724e-22)
(0.07533365 -7.0719991e-35 0)
(0.07533286 -2.8158709e-35 0)
(0.075332081 1.6220746e-21 -8.1103732e-22)
(0.07533131 -1.6199889e-21 -8.0999445e-22)
(0.075330552 -1.6179111e-21 8.0895555e-22)
(0.075329808 1.6158398e-21 -1.3547854e-35)
(0.075329076 -5.5497897e-35 -8.0688374e-22)
(0.075328357 -1.6116793e-21 8.0583966e-22)
(0.075327646 8.0477681e-22 -1.3609514e-35)
(0.075326943 2.4110608e-21 -8.0368693e-22)
(0.075326252 -8.0256461e-22 8.0256461e-22)
(0.075325565 -8.0140143e-22 -2.756041e-35)
(0.075324885 -5.481061e-35 2.7405305e-35)
(0.075324222 -1.5979398e-21 -2.7476789e-35)
(0.07532357 0 1.3603793e-35)
(0.075322923 7.9651172e-22 7.9651172e-22)
(0.075322284 1.1302033e-37 0)
(0.075321668 -7.8898155e-22 0)
(0.075321259 1.5446646e-21 0)
(0.075321284 -2.6623163e-35 0)
(0.075321463 -1.5448928e-21 0)
(0.075321626 7.8350758e-22 0)
(0.075321691 -2.6892531e-35 0)
(0.075321459 -7.7406865e-22 0)
(0.075321292 0 0)
(0.075321315 7.7377044e-22 0)
(0.07532134 2.6394843e-35 0)
(0.075321429 2.1982085e-37 0)
(0.075321557 7.7274016e-22 -7.7274016e-22)
(0.075321958 -7.6980893e-22 -7.6980893e-22)
(0.075323104 2.6756761e-35 7.6538199e-22)
(0.075322677 7.6567399e-22 -1.3165867e-35)
(0.075320013 -7.7127982e-22 2.6962383e-52)
(0.075318501 -7.7141328e-22 7.7141328e-22)
(0.075318639 7.6919676e-22 0)
(0.075318815 7.6800873e-22 0)
(0.075319333 -7.6406427e-22 -7.6406427e-22)
(0.075318355 -7.629488e-22 -7.629488e-22)
(0.075316891 1.5261291e-21 0)
(0.075316942 7.6283446e-22 7.6283446e-22)
(0.075317008 -7.6445436e-22 2.6398426e-35)
(0.075317279 0 -7.6709888e-22)
(0.075317292 7.6556732e-22 -7.6556732e-22)
(0.075317427 -1.0798779e-37 7.5989651e-22)
(0.075317789 -7.5778465e-22 1.5155693e-21)
(0.075316508 7.5732043e-22 -1.5146409e-21)
(0.075313747 -2.1375473e-37 4.2750946e-37)
(0.075313944 2.1200741e-37 2.2378043e-21)
(0.075316255 7.4547101e-22 -1.490942e-21)
(0.075315667 7.5105083e-22 -7.8126903e-35)
(0.075312441 2.6413618e-35 1.5173005e-21)
(0.075312073 -7.5599453e-22 -2.2679836e-21)
(0.075313165 0 7.5012397e-22)
(0.07531108 -7.5456052e-22 7.5456052e-22)
(0.075310151 -7.8125591e-35 -7.5309585e-22)
(0.075312891 -2.6008036e-35 7.4396455e-22)
(0.075312769 7.4519728e-22 7.4519728e-22)
(0.075309269 7.5315571e-22 2.6222317e-35)
(0.075308611 -1.5003085e-21 -1.5003085e-21)
(0.075310154 -5.1512913e-35 -5.1512913e-35)
(0.075308538 7.4950128e-22 -7.4950128e-22)
(0.075307529 0 -7.483565e-22)
(0.075309986 0 -2.5936152e-35)
(0.075309834 -7.3991714e-22 5.1522789e-35)
(0.075306437 -5.1877713e-35 1.496135e-21)
(0.075305823 1.4903855e-21 7.4519277e-22)
(0.075307247 -7.3919783e-22 -7.3919783e-22)
(0.075305395 -1.4886964e-21 1.0577824e-37)
(0.075304739 0 7.4312563e-22)
(0.07530611 7.3747362e-22 0)
(0.075304261 7.4264019e-22 -7.4264019e-22)
(0.075303603 -7.4143304e-22 -2.5814173e-35)
(0.075304963 -7.3580771e-22 7.3580771e-22)
(0.075303148 0 -7.4100252e-22)
(0.075302309 0 -7.4002645e-22)
(0.075304931 7.3067194e-22 1.4613439e-21)
(0.075304802 7.3203929e-22 7.3203929e-22)
(0.075301521 0 -2.2220644e-21)
(0.075300849 -7.3833678e-22 -7.3833678e-22)
(0.075303529 2.5475891e-35 2.1862274e-21)
(0.075303389 7.3017416e-22 -7.3017416e-22)
(0.075300062 -7.3884796e-22 -7.3884796e-22)
(0.075299373 2.0930821e-37 -4.1861642e-37)
(0.075302027 -2.5405593e-35 -7.2673156e-22)
(0.075301857 5.021876e-52 2.1850445e-21)
(0.07529876 1.4738843e-21 -5.1525084e-35)
(0.075296895 -3.1444992e-37 -1.4751631e-21)
(0.075297034 -7.3537997e-22 1.4707599e-21)
(0.07529719 0 7.3469668e-22)
(0.075297731 -7.3145016e-22 -7.3145016e-22)
(0.075298837 7.268579e-22 7.268579e-22)
(0.075298638 7.2660352e-22 -7.2660352e-22)
(0.075296187 -1.4664042e-21 -1.4664042e-21)
(0.075295561 -7.3155262e-22 7.3155262e-22)
(0.075298051 1.4437503e-21 2.4928065e-35)
(0.075297894 7.2322472e-22 7.2322472e-22)
(0.075294782 -7.323053e-22 1.4646106e-21)
(0.075294262 -7.2983617e-22 -7.2983617e-22)
(0.075295469 -7.2387348e-22 -7.2387348e-22)
(0.075293935 0 -7.2915711e-22)
(0.075292385 7.3111167e-22 -2.5454818e-35)
(0.075292483 7.2928564e-22 -2.5287604e-35)
(0.075292614 -7.2839485e-22 2.5360228e-35)
(0.075292974 -2.5169276e-35 1.4517462e-21)
(0.075291906 7.2876937e-22 7.2876937e-22)
(0.075291812 -7.269481e-22 -7.269481e-22)
(0.07529396 -7.1767139e-22 -1.4353428e-21)
(0.07529372 0 -7.1882771e-22)
(0.07529078 7.2806313e-22 -7.2806313e-22)
(0.075290259 7.2588647e-22 5.033948e-35)
(0.075291868 -7.1910625e-22 1.4382125e-21)
(0.075291226 7.2279056e-22 -2.0542943e-37)
(0.075290353 -4.1052411e-37 2.0526205e-37)
(0.075290461 -7.1865601e-22 -1.0348715e-51)
(0.075289011 7.2506902e-22 7.2506902e-22)
(0.075288742 -7.2430202e-22 -5.02296e-35)
(0.075289517 5.0034349e-35 1.000687e-34)
(0.075287944 7.2402744e-22 7.2402744e-22)
(0.075287446 -7.2353019e-22 -7.2353019e-22)
(0.075289594 7.1378253e-22 7.1378253e-22)
(0.075289423 7.1508123e-22 2.4795074e-35)
(0.075286684 -7.2474874e-22 -7.2474874e-22)
(0.075286246 0 7.2275706e-22)
(0.075287297 0 -1.0186642e-37)
(0.075285846 -7.2269769e-22 -7.2269769e-22)
(0.075285359 -7.2205987e-22 0)
(0.075286325 7.1638472e-22 7.1638472e-22)
(0.075284903 7.2223425e-22 4.9983567e-35)
(0.075284374 -7.2190847e-22 -1.4438169e-21)
(0.07528634 -4.9379381e-35 7.1204201e-22)
(0.075286154 7.1333789e-22 -2.0274282e-37)
(0.075283615 -7.2324786e-22 -7.2324786e-22)
(0.075283085 -7.2167926e-22 7.2167926e-22)
(0.075284964 0 -7.1144171e-22)
(0.075284775 7.1273767e-22 7.1273767e-22)
(0.075282378 7.2283764e-22 -3.0117917e-34)
(0.07528191 0 -2.001336e-34)
(0.075283707 -7.1127719e-22 7.1127719e-22)
(0.075283527 -7.1255164e-22 -1.4251033e-21)
(0.075281142 0 0)
(0.075280748 7.2119343e-22 -5.0014022e-35)
(0.075281618 1.4883719e-34 -1.4883719e-34)
(0.075280295 -7.2147902e-22 7.2147902e-22)
(0.075279868 7.2111563e-22 7.2111563e-22)
(0.075280697 7.1558598e-22 4.9320079e-35)
(0.075279395 -7.2170218e-22 -7.2170218e-22)
(0.075278992 -4.9824895e-35 7.214229e-22)
(0.075279801 4.9251821e-35 4.9251821e-35)
(0.075278543 3.0783704e-37 3.0783704e-37)
(0.075277387 7.2575156e-22 1.0055711e-34)
(0.075277425 -7.2702845e-22 -1.4540569e-21)
(0.075277469 -1.0107003e-34 7.2870605e-22)
(0.075277547 4.9870338e-35 7.2506468e-22)
(0.075276618 -4.990318e-35 -4.990318e-35)
(0.075276565 7.2314495e-22 4.9841063e-35)
(0.075278322 0 -1.4844418e-34)
(0.075278125 0 4.9431003e-35)
(0.075275792 -7.2639483e-22 -7.2639483e-22)
(0.075275423 -7.2539725e-22 0)
(0.075276255 0 0)
(0.075274955 0 0)
(0.075274557 7.269462e-22 0)
(0.07527537 -7.2048086e-53 -7.2200686e-22)
(0.075274076 -7.2872607e-22 1.5191988e-34)
(0.075273662 0 7.2905882e-22)
(0.075274463 7.2423366e-22 7.2423366e-22)
(0.07527319 -7.3109104e-22 -7.3109104e-22)
(0.07527276 -2.0281155e-34 -7.3187663e-22)
(0.075274515 1.4457634e-21 1.4457634e-21)
(0.075274318 -7.2511203e-22 5.0182729e-35)
(0.075271988 -1.5288364e-34 -1.5288364e-34)
(0.075271596 -1.0458175e-37 -7.3592861e-22)
(0.075272411 -7.3122377e-22 -7.3122377e-22)
(0.075271145 7.3849772e-22 7.3849772e-22)
(0.075270757 -1.0507752e-37 0)
(0.075271549 -1.0175744e-34 7.3516871e-22)
(0.075270282 5.1392955e-35 5.1392955e-35)
(0.075269839 -7.4395185e-22 -7.4395185e-22)
(0.075271558 0 -7.3551582e-22)
(0.075271356 7.3834615e-22 1.0282679e-34)
(0.075269057 5.1923364e-35 7.5026323e-22)
(0.07526867 2.0830528e-34 -1.5010938e-21)
(0.075269568 7.4668952e-22 7.4668952e-22)
(0.075268461 0 7.5475301e-22)
(0.075267753 -7.5605124e-22 -7.5605124e-22)
(0.075268283 -7.5209204e-22 7.5209204e-22)
(0.075267271 0 0)
(0.075266981 0 0)
(0.075267556 0 0)
(0.075266387 7.6708598e-22 7.6708598e-22)
(0.075265242 5.3455225e-35 -7.7239776e-22)
(0.075265289 -7.71483e-22 -1.542966e-21)
(0.075265352 0 7.7150783e-22)
(0.075265653 0 -5.3626068e-35)
(0.075266326 7.7170589e-22 7.7170589e-22)
(0.075266103 7.7564736e-22 7.7564736e-22)
(0.075264377 -7.8623439e-22 -1.5724688e-21)
(0.075263121 -7.9128022e-22 2.2489536e-37)
(0.075263125 0 -2.2473246e-37)
(0.075263129 7.9094837e-22 7.9094837e-22)
(0.07526321 7.9104568e-22 7.9104568e-22)
(0.075263394 -7.9139539e-22 -1.5827908e-21)
(0.075264101 -7.9098126e-22 1.124052e-37)
(0.075263878 0 -1.6613095e-34)
(0.075262084 8.1088462e-22 8.1088462e-22)
(0.075261548 -2.2577222e-34 -4.5154444e-34)
(0.075262928 -5.587646e-35 -1.1175292e-34)
(0.075262749 8.101812e-22 8.101812e-22)
(0.075260739 -8.238741e-22 -8.238741e-22)
(0.075259565 -8.2934148e-22 0)
(0.075259572 0 -8.2927125e-22)
(0.07525958 8.3011266e-22 8.3011266e-22)
(0.075259686 -1.1549733e-34 8.3102269e-22)
(0.075259915 8.3216524e-22 -8.3216524e-22)
(0.075260779 1.1540992e-34 0)
(0.075260527 -1.6770179e-21 -8.3850894e-22)
(0.075258363 8.5192375e-22 8.5192375e-22)
(0.075257977 -1.1845931e-34 8.5408125e-22)
(0.075258842 -2.9570083e-34 -2.9570083e-34)
(0.075257487 -5.9615284e-35 -1.7228142e-21)
(0.075257007 -8.647894e-22 -1.7295788e-21)
(0.075258847 8.5825724e-22 2.5747717e-21)
(0.075258646 8.6309752e-22 1.726195e-21)
(0.075256204 0 0)
(0.075255801 -8.7892318e-22 -1.7578464e-21)
(0.075256661 -8.7639071e-22 -8.7639071e-22)
(0.075255419 0 8.8550893e-22)
(0.075254128 8.9176037e-22 8.9176037e-22)
(0.075254181 8.9193223e-22 8.9193223e-22)
(0.075254252 -1.7863495e-21 -1.7863495e-21)
(0.075254596 -8.9464722e-22 -1.7892944e-21)
(0.075255359 8.9573525e-22 8.9573525e-22)
(0.075255154 9.0032796e-22 1.8006559e-21)
(0.075253212 2.5295083e-34 2.5295083e-34)
(0.075252781 -9.1449339e-22 -1.8289868e-21)
(0.075254712 9.0771867e-22 9.0771867e-22)
(0.075254511 -6.3280891e-35 -1.2656178e-34)
(0.075251976 -9.2631656e-22 -9.2631656e-22)
(0.075251571 9.2803553e-22 1.8560711e-21)
(0.075252499 -6.4303608e-35 -9.2535055e-22)
(0.075251125 6.5107534e-35 1.3021507e-34)
(0.075250705 -2.6657489e-37 9.3792702e-22)
(0.075251596 -6.4604066e-35 -9.3541296e-22)
(0.075250219 9.4498849e-22 9.4498849e-22)
(0.075249808 0 -1.8956814e-21)
(0.075250703 0 3.9442086e-34)
(0.075249381 -9.5478641e-22 1.9095728e-21)
(0.07524852 -9.5695806e-22 -1.9139161e-21)
(0.075249064 0 -6.6011357e-35)
(0.075248382 0 9.6363049e-22)
(0.075247851 0 0)
(0.075247935 0 0)
(0.075248071 9.6965613e-22 9.6965613e-22)
(0.075248551 6.6787018e-35 -9.6901414e-22)
(0.075247582 -1.9554052e-21 -1.9554052e-21)
(0.075245348 4.2208963e-37 9.9006391e-22)
(0.07524492 9.9125478e-22 -2.8173155e-37)
(0.075245083 9.9129396e-22 9.9129396e-22)
(0.075245269 -1.3769191e-34 9.9173049e-22)
(0.075245901 -1.3733361e-34 -9.9117887e-22)
(0.075245073 -1.4206143e-37 0)
(0.075244995 -1.0018541e-21 -1.0018541e-21)
(0.07524572 -9.9905088e-22 -9.9905088e-22)
(0.075244332 -1.0076352e-21 0)
(0.07524296 2.0158563e-21 2.0158563e-21)
(0.075243015 3.007572e-21 1.002524e-21)
(0.075243003 -1.0115039e-21 -2.0230077e-21)
(0.075243003 -2.0304169e-21 7.0259392e-35)
(0.075243018 0 -2.8815835e-37)
(0.075243296 1.0259553e-21 1.0259553e-21)
(0.075243348 1.0313973e-21 1.0313973e-21)
(0.075243647 -1.024052e-21 -1.024052e-21)
(0.075243392 2.9210457e-37 1.0277516e-21)
(0.075241372 -4.4428053e-37 -1.0421154e-21)
(0.075241023 2.967858e-37 5.9357161e-37)
(0.075241983 1.0413047e-21 2.0826093e-21)
(0.075240591 1.0510115e-21 -1.0510115e-21)
(0.075240137 -1.0540261e-21 -1.0540261e-21)
(0.075242152 -2.0930112e-21 -1.0465056e-21)
(0.075241973 1.0509254e-21 -1.457612e-34)
(0.075239403 -5.9611221e-52 1.0648245e-21)
(0.075238987 1.0660015e-21 0)
(0.075239929 2.9443772e-34 0)
(0.075238617 -2.1440657e-21 -1.0720328e-21)
(0.07523809 0 1.491527e-34)
(0.075238849 0 -2.9719562e-34)
(0.075237761 2.1601762e-21 -1.5011298e-34)
(0.075236694 -6.0336226e-34 1.0864341e-21)
(0.075236769 -2.1725679e-21 -1.086284e-21)
(0.075236863 0 1.5444495e-37)
(0.075237226 1.086505e-21 1.086505e-21)
(0.075237988 1.0853149e-21 0)
(0.075237769 -1.0881281e-21 0)
(0.075235866 1.5615676e-37 0)
(0.07523538 -1.5267488e-34 0)
(0.075236169 1.5565111e-37 0)
(0.075235075 1.1039779e-21 0)
(0.075234127 -1.1091057e-21 0)
(0.075234338 -1.107965e-21 -1.107965e-21)
(0.075234644 0 0)
(0.075235673 1.1023623e-21 1.1023623e-21)
(0.075235566 -1.5336093e-34 0)
(0.075233291 -1.1160064e-21 -1.1160064e-21)
(0.075231373 2.2408071e-21 -3.1079533e-34)
(0.075231376 -3.1080325e-34 1.1204321e-21)
(0.075231379 -1.1208637e-21 0)
(0.075231397 -3.1107862e-34 0)
(0.07523142 -2.240292e-21 -1.120146e-21)
(0.075231508 2.2385096e-21 -1.5539739e-34)
(0.075231667 1.1220115e-21 1.1220115e-21)
(0.07523095 -1.1289732e-21 0)
(0.075230474 -1.6067971e-37 0)
(0.075230722 -1.1294222e-21 -1.1294222e-21)
(0.075231084 0 -1.1285427e-21)
(0.075232282 0 1.1229325e-21)
(0.075232157 1.1241186e-21 1.1241186e-21)
(0.075229939 -1.574734e-34 0)
(0.075229592 -2.2699011e-21 -1.1349505e-21)
(0.075230947 1.6017691e-37 1.6017691e-37)
(0.075230247 3.389323e-21 1.1297743e-21)
(0.075229029 -1.1293736e-21 -1.1293736e-21)
(0.075229085 -1.1280222e-21 -1.1280222e-21)
(0.075228478 2.2763712e-21 1.1381856e-21)
(0.0752284 -1.1389098e-21 1.1389098e-21)
(0.075228754 1.1328024e-21 0)
(0.075227526 2.2798447e-21 -1.1399224e-21)
(0.07522737 -1.1405141e-21 -1.1405141e-21)
(0.075229242 -1.1296322e-21 1.1296322e-21)
(0.075229088 -1.1312875e-21 1.1312875e-21)
(0.075226731 1.1433978e-21 0)
(0.075226404 1.2852506e-51 -1.1420627e-21)
(0.07522732 -1.1355056e-21 -1.1355056e-21)
(0.075226064 1.1427812e-21 1.1427812e-21)
(0.075225739 -1.1426196e-21 1.1426196e-21)
(0.075226629 1.1362021e-21 0)
(0.075225364 3.1683947e-34 0)
(0.075225015 3.2487655e-37 0)
(0.075225895 1.1365015e-21 0)
(0.07522466 -2.2872408e-21 0)
(0.075224305 1.1436389e-21 0)
(0.075226153 3.1431563e-34 0)
(0.075226001 -3.143672e-34 0)
(0.075223767 -1.1450904e-21 -1.1450904e-21)
(0.075222752 -2.2945247e-21 -4.3521157e-51)
(0.07522302 3.433694e-21 1.1445647e-21)
(0.075223386 3.1697505e-34 0)
(0.075224566 -6.2961224e-34 0)
(0.075224471 3.1427809e-34 0)
(0.07522237 -2.2892161e-21 -1.1446081e-21)
(0.075222024 2.2868415e-21 -1.585901e-34)
(0.075223893 -3.1379378e-34 1.1312128e-21)
(0.075223755 -2.2646789e-21 -1.1323395e-21)
(0.075221476 0 1.5888661e-34)
(0.075221162 0 -1.6237654e-37)
(0.075222037 1.135544e-21 -1.5765898e-34)
(0.075220892 -1.5845196e-34 1.1424248e-21)
(0.075219895 -1.1458159e-21 -1.1458159e-21)
(0.075220024 -1.1433304e-21 1.1433304e-21)
(0.075220199 1.1410936e-21 -6.3404227e-34)
(0.075220751 3.3956803e-21 -1.1318934e-21)
(0.075220545 -1.1254449e-21 1.1254449e-21)
(0.075220583 -1.1272739e-21 0)
(0.075220707 -3.2230448e-37 0)
(0.075219151 -1.1436812e-21 -1.1436812e-21)
(0.075218867 0 -1.5843159e-34)
(0.075219732 2.2680323e-21 1.1340162e-21)
(0.075218543 2.2822953e-21 -1.1411477e-21)
(0.075218229 -1.1406103e-21 -1.1406103e-21)
(0.075219068 -2.2671095e-21 0)
(0.075217917 -1.1407328e-21 1.1407328e-21)
(0.075217612 2.2804598e-21 1.1402299e-21)
(0.07521842 2.2663389e-21 -1.1331694e-21)
(0.075217314 -2.2807547e-21 -3.1649805e-34)
(0.07521695 -2.280301e-21 2.5780717e-51)
(0.075218501 0 -1.5653209e-34)
(0.075218386 2.2568724e-21 1.1284362e-21)
(0.075216539 -1.1412533e-21 -1.1412533e-21)
(0.075216223 -2.2795747e-21 -1.1160678e-50)
(0.07521687 1.1325096e-21 -1.5723769e-34)
(0.075216052 1.1398127e-21 -1.1398127e-21)
(0.075215304 -1.6257801e-37 0)
(0.075215348 1.5869689e-34 0)
(0.075215407 1.1424166e-21 1.1424166e-21)
(0.075215552 -1.1391111e-21 1.6187742e-37)
(0.075215277 -1.1426308e-21 -4.7544162e-34)
(0.075215001 1.1467529e-21 1.1467529e-21)
(0.075215008 -1.5910406e-34 0)
(0.075215015 -1.6306295e-37 0)
(0.075215039 -1.5927295e-34 -1.148344e-21)
(0.075215066 -1.1496397e-21 3.1874196e-34)
(0.075215155 1.1515959e-21 1.1515959e-21)
(0.075215274 -4.8142839e-34 0)
(0.075215483 -1.6096652e-34 0)
(0.075215808 -3.2302193e-34 0)
(0.075216219 -1.1692339e-21 -1.1692339e-21)
(0.075216743 1.1735468e-21 1.6677103e-37)
(0.075217348 -1.6352457e-34 1.177791e-21)
(0.075218016 -3.2757861e-34 -1.1815118e-21)
(0.075218737 -1.6834455e-37 1.1846195e-21)
(0.075219494 -2.3748709e-21 -3.3006468e-34)
(0.07522028 -1.1899619e-21 -2.3799238e-21)
(0.075221088 1.1923285e-21 1.1923285e-21)
(0.075221916 2.3892938e-21 4.975945e-34)
(0.075222752 -1.6617499e-34 1.6617499e-34)
(0.075223601 -2.3982277e-21 -1.6648503e-34)
(0.075224428 -1.2011484e-21 -1.2011484e-21)
(0.075225182 2.4052856e-21 0)
(0.075225957 1.2040192e-21 0)
(0.075226753 -1.2055654e-21 1.2055654e-21)
(0.075227571 -1.2069873e-21 1.6757817e-34)
(0.075228439 -3.3538695e-34 -3.3538695e-34)
(0.075229351 1.210065e-21 -8.0778494e-53)
(0.075230331 0 -1.2118219e-21)
(0.075231382 0 1.2137923e-21)
(0.075232511 1.2159162e-21 1.2159162e-21)
(0.075233725 0 0)
(0.075235023 -1.220192e-21 -1.220192e-21)
(0.075236435 1.2223865e-21 -1.6971621e-34)
(0.075237966 1.7406645e-37 1.2248838e-21)
(0.075239603 -3.4071975e-34 0)
(0.075241326 0 0)
(0.075243078 -1.2327673e-21 -1.2327673e-21)
(0.075244903 1.2346277e-21 3.509023e-37)
(0.07524686 1.2365642e-21 -1.0218029e-52)
(0.075248946 -2.4776781e-21 -1.238839e-21)
(0.075251114 -1.2412184e-21 1.2412184e-21)
(0.075253174 1.2433191e-21 -1.7226912e-34)
(0.075255077 0 1.7285112e-34)
(0.075256976 0 -3.4588526e-34)
(0.07525894 -1.247416e-21 -1.247416e-21)
(0.07526097 3.4686956e-34 1.2485307e-21)
(0.075263041 1.2495818e-21 -3.4698401e-34)
(0.075265092 0 3.4747168e-34)
(0.075267005 0 -3.4784277e-34)
(0.075268657 -1.2535174e-21 -1.2535174e-21)
(0.075270037 5.2297286e-34 1.2551481e-21)
(0.075271364 1.2570636e-21 -3.4906155e-34)
(0.0752729 0 1.7515571e-34)
(0.075274788 0 0)
(0.075276754 0 -1.2619432e-21)
(0.075278315 0 1.2641942e-21)
(0.075279698 0 -1.7601163e-34)
(0.07528142 0 1.8066365e-37)
(0.075283791 0 -1.7680023e-34)
(0.075286311 0 1.7718847e-34)
(0.075288134 2.5544349e-21 1.2772174e-21)
(0.075289474 7.1093334e-34 -1.2807856e-21)
(0.075290801 -1.2854805e-21 -1.2854805e-21)
(0.075292463 1.2893955e-21 1.2893955e-21)
(0.075294349 -1.2913047e-21 1.2913047e-21)
(0.075295803 1.292982e-21 0)
(0.075296897 -3.6018149e-34 -1.2957832e-21)
(0.075297942 -1.2990749e-21 -1.2990749e-21)
(0.075299037 -3.6153338e-34 0)
(0.075300089 -1.3044891e-21 1.3044891e-21)
(0.075300915 0 -1.8147581e-34)
(0.075301624 0 1.8612875e-37)
(0.075302153 1.3177251e-21 1.8276576e-34)
(0.075302176 3.693727e-34 -1.3302095e-21)
(0.075301859 -1.3348948e-21 1.3348948e-21)
(0.075301661 0 1.8470458e-34)
(0.075301163 0 -3.7001036e-34)
(0.075300858 0 -1.3376125e-21)
(0.075301702 0 -1.3418474e-21)
(0.07530243 0 2.6924556e-21)
(0.075301933 0 -1.9117598e-37)
(0.075301259 0 1.8595121e-34)
(0.075300847 2.6928601e-21 1.3464301e-21)
(0.075302203 -1.1264579e-33 -1.3531484e-21)
(0.0753049 -2.7062669e-21 1.8786912e-34)
(0.075305403 1.3580289e-21 1.3580289e-21)
(0.075304607 1.9379682e-37 0)
(0.075303733 1.3698913e-21 0)
(0.075304124 -7.6303984e-34 0)
(0.075306419 -2.7484388e-21 -1.3742194e-21)
(0.075307747 -1.3743681e-21 -1.3743681e-21)
(0.075307031 1.4147553e-52 1.3792958e-21)
(0.075306123 4.1541932e-21 1.3847311e-21)
(0.075306818 0 0)
(0.075309154 -2.7697232e-21 -1.3848616e-21)
(0.075310168 0 -1.3870103e-21)
(0.075309292 0 1.393066e-21)
(0.075308142 2.7986709e-21 1.3993354e-21)
(0.075308441 -3.893713e-34 0)
(0.075310625 -4.199663e-21 -1.3998877e-21)
(0.075311971 1.4003068e-21 -1.4003068e-21)
(0.075311112 1.4067957e-21 1.4067957e-21)
(0.075309799 -1.413017e-21 3.9236671e-34)
(0.075309915 1.4166934e-21 -1.4166934e-21)
(0.075312544 -1.407184e-21 0)
(0.075315592 -3.8854007e-34 0)
(0.075316129 1.4113843e-21 0)
(0.075315845 -1.4178463e-21 0)
(0.075315731 0 1.4180327e-21)
(0.075315381 -1.4219157e-21 -3.9443357e-34)
(0.075314698 1.4182656e-21 -1.4182656e-21)
(0.075313443 2.8253344e-21 1.4126672e-21)
(0.075313415 -1.417947e-21 1.9686783e-34)
(0.07531565 -1.4266936e-21 -1.9828495e-34)
(0.07531744 -1.4354806e-21 -5.2384218e-52)
(0.075316857 -1.4354566e-21 1.4354566e-21)
(0.07531598 2.8558497e-21 1.4279249e-21)
(0.075315885 1.4389885e-21 -2.8779771e-21)
(0.075316142 -1.4576678e-21 -2.0238268e-34)
(0.075316108 0 2.02325e-34)
(0.075316041 1.457916e-21 -1.457916e-21)
(0.075315799 -1.4575533e-21 0)
(0.075314897 -1.4481161e-21 1.4481161e-21)
(0.075314888 4.3381097e-21 1.4460366e-21)
(0.075317571 4.1184114e-37 -1.4490372e-21)
(0.075321368 -2.9019127e-21 -4.0248931e-34)
(0.075322516 1.461929e-21 1.461929e-21)
(0.075322272 2.0381083e-34 0)
(0.075322146 1.4675623e-21 0)
(0.075321801 -4.1851904e-37 -1.472533e-21)
(0.075321031 -2.9542666e-21 2.0487535e-34)
(0.075319693 1.4867147e-21 1.4867147e-21)
(0.075319888 0 0)
(0.075322097 -4.1248147e-34 -1.4854556e-21)
(0.075323093 -2.1053089e-37 2.1053089e-37)
(0.075322766 -1.4824092e-21 -4.1163552e-34)
(0.07532274 1.4817105e-21 -2.0551019e-34)
(0.075322649 -4.112181e-34 1.4809059e-21)
(0.075322543 -2.0524527e-34 -1.4798004e-21)
(0.075322316 -2.1028113e-37 2.1028113e-37)
(0.075321961 -1.4803197e-21 -4.1105532e-34)
(0.075321441 1.4822445e-21 -1.4822445e-21)
(0.075320173 -2.2049932e-52 1.4864325e-21)
(0.075318245 -4.1568297e-34 4.1568297e-34)
(0.075318881 -2.1383409e-37 2.1383409e-37)
(0.075322546 -3.0013765e-21 -2.0835563e-34)
(0.075324488 -2.079979e-34 -1.4996466e-21)
(0.075324101 1.4981022e-21 1.4981022e-21)
(0.075323923 0 0)
(0.075323589 0 -8.2953358e-34)
(0.07532304 -1.4966975e-21 -2.0758886e-34)
(0.07532213 -6.2461036e-34 -6.2461036e-34)
(0.075320448 1.5152076e-21 -2.1532394e-37)
(0.075320482 -1.521672e-21 -1.521672e-21)
(0.075323042 2.1016361e-34 1.5137103e-21)
(0.075324615 -9.5877108e-52 -9.5877108e-52)
(0.075324335 -2.0991758e-34 -2.0991758e-34)
(0.075324297 1.5111277e-21 4.1961009e-34)
(0.075324163 1.5101138e-21 -2.0966427e-34)
(0.075324011 2.092255e-34 3.0169951e-21)
(0.075323608 -1.5084462e-21 -1.5084462e-21)
(0.07532306 0 -1.5098082e-21)
(0.075321769 0 -2.1017475e-34)
(0.075319437 1.5247075e-21 2.1169047e-34)
(0.075320138 -1.5305285e-21 3.061057e-21)
(0.075323693 1.2685439e-33 -1.5238279e-21)
(0.075324139 1.5193782e-21 -1.5193782e-21)
(0.075323358 -1.5172967e-21 3.3089658e-52)
(0.075323153 0 0)
(0.075322528 1.5116877e-21 3.2216236e-52)
(0.075321472 1.5067437e-21 -1.5067437e-21)
(0.075320723 -1.5100643e-21 1.5100643e-21)
(0.075321666 -1.5172622e-21 -1.5005418e-52)
(0.075322335 0 -2.1111856e-34)
(0.075321329 1.5169427e-21 -2.1557053e-37)
(0.075319985 1.5054985e-21 -1.5054985e-21)
(0.075319659 -3.0187267e-21 3.0187267e-21)
(0.075321572 -1.520138e-21 4.2211207e-34)
(0.075322868 1.5250041e-21 -1.5250041e-21)
(0.075322491 1.5238301e-21 2.113521e-34)
(0.075322204 2.110234e-34 -2.110234e-34)
(0.075321346 1.5183729e-21 1.5183729e-21)
(0.075319839 4.2010608e-34 -1.5129139e-21)
(0.075319172 -3.0366875e-21 3.1324926e-51)
(0.075320949 0 -6.3843348e-34)
(0.075323304 0 4.2752383e-34)
(0.075323135 0 -4.2661903e-34)
(0.075323078 1.5362108e-21 -4.2657517e-34)
(0.075322861 1.5351859e-21 2.3296024e-52)
(0.075322595 0 0)
(0.075322076 -1.5341661e-21 1.5341661e-21)
(0.075320751 -2.1289824e-34 0)
(0.075318768 1.545622e-21 0)
(0.075319373 0 -1.5537609e-21)
(0.075322621 0 -4.297942e-34)
(0.075323187 -1.5432752e-21 1.5432752e-21)
(0.075322418 -2.1400276e-34 0)
(0.075322358 2.1361716e-34 0)
(0.075322154 -1.5406498e-21 -3.0812996e-21)
(0.075321895 1.5390037e-21 -1.2811773e-33)
(0.075321443 -6.3967048e-34 3.0746454e-21)
(0.075320417 -1.5356161e-21 -1.5356161e-21)
(0.075319498 0 2.1867631e-37)
(0.07532025 -1.544699e-21 -2.1446609e-34)
(0.07532092 -2.1517762e-34 -1.5498238e-21)
(0.075320348 1.5524431e-21 0)
(0.075319613 -1.5551623e-21 0)
(0.075317319 1.5668892e-21 0)
(0.075317601 1.5713019e-21 -1.5713019e-21)
(0.075321208 -1.5621404e-21 -4.3333133e-34)
(0.075322095 0 1.5588098e-21)
(0.075321351 1.5594046e-21 0)
(0.075321254 1.5584915e-21 0)
(0.07532092 -1.5582167e-21 -1.5582167e-21)
(0.07532051 -1.5574446e-21 2.213262e-37)
(0.075319565 0 1.5528839e-21)
(0.075317854 -1.5476018e-21 0)
(0.075317235 1.5611373e-21 0)
(0.075317919 1.5806887e-21 -1.5806887e-21)
(0.075317846 -1.5804609e-21 -4.3841335e-34)
(0.07531773 -3.1562021e-21 -4.3843152e-34)
(0.075316997 8.788275e-34 4.3941375e-34)
(0.075314905 4.7587907e-21 1.5862636e-21)
(0.075315556 3.0336671e-52 -1.5852714e-21)
(0.075319245 -1.577932e-21 4.3793607e-34)
(0.075320594 -3.1516248e-21 -4.3734781e-34)
(0.075319824 8.7526402e-34 4.3763201e-34)
(0.075319556 3.1546235e-21 1.5773118e-21)
(0.075318581 -1.5793268e-21 0)
(0.075317434 1.5858166e-21 0)
(0.075318101 -1.5969404e-21 -1.5969404e-21)
(0.075319633 -1.6053829e-21 4.7114653e-51)
(0.075319605 3.2111849e-21 1.6055925e-21)
(0.075319549 0 0)
(0.075319369 0 0)
(0.075318813 -3.1794954e-21 -1.5897477e-21)
(0.075318447 3.005882e-51 6.011764e-51)
(0.075319305 3.1901093e-21 1.5950546e-21)
(0.07532009 0 0)
(0.075319579 0 0)
(0.07531898 -3.1986706e-21 -1.5993353e-21)
(0.075317874 1.0846833e-50 2.1693665e-50)
(0.075318247 3.2742189e-21 1.6371094e-21)
(0.075319854 0 0)
(0.075319764 0 0)
(0.075319538 -3.2699971e-21 -1.6349985e-21)
(0.075318655 -1.6224979e-21 2.3057082e-37)
(0.075316817 3.2107735e-21 1.6053868e-21)
(0.07531673 1.6152496e-21 -1.6152496e-21)
(0.075318138 0 4.545296e-34)
(0.075318132 -3.2723839e-21 -4.5457047e-34)
(0.075318124 9.0719364e-34 4.5359682e-34)
(0.075317956 3.2780366e-21 1.6390183e-21)
(0.075317612 -1.6379612e-21 0)
(0.075319088 0 0)
(0.075320172 1.6324028e-21 0)
(0.075319677 -1.6345089e-21 0)
(0.075319426 2.3219637e-37 0)
(0.075318482 1.6338564e-21 -1.6338564e-21)
(0.075317865 -1.6369141e-21 4.5430585e-34)
(0.075319169 1.6439146e-21 1.6439146e-21)
(0.075320648 1.6508483e-21 0)
(0.075320525 -1.6518422e-21 0)
(0.075320389 -1.65211e-21 0)
(0.075319947 4.5908372e-34 0)
(0.075319191 1.654777e-21 0)
(0.075317935 -1.6678735e-21 0)
(0.075318037 -4.6577218e-34 0)
(0.075319642 1.6682733e-21 -1.6682733e-21)
(0.075319679 -1.6638248e-21 9.2354919e-34)
(0.075319634 1.6661994e-21 1.6661994e-21)
(0.075319579 1.6681713e-21 0)
(0.075319422 -1.6738942e-21 0)
(0.075318968 -1.6789195e-21 0)
(0.07531818 4.6765863e-34 0)
(0.075318988 1.6908215e-21 0)
(0.075320328 -1.6950874e-21 0)
(0.075320247 2.4101817e-37 0)
(0.075320133 1.6956149e-21 -1.6956149e-21)
(0.075319721 -1.694228e-21 4.7021262e-34)
(0.075319097 1.6860111e-21 1.6860111e-21)
(0.075317451 1.6797455e-21 0)
(0.07531734 -1.6859907e-21 0)
(0.075319901 -3.392741e-21 -1.6963705e-21)
(0.075320426 9.4692028e-34 4.7346014e-34)
(0.075319903 3.4149522e-21 1.7074761e-21)
(0.075319307 -1.7032631e-21 0)
(0.075317369 2.416011e-37 0)
(0.075317253 3.4301445e-21 0)
(0.07531866 4.9504058e-37 -1.7417692e-21)
(0.07531858 -1.756488e-21 -4.8799139e-34)
(0.075318588 0 1.7594323e-21)
(0.075318471 1.7618679e-21 0)
(0.075318494 0 0)
(0.075319776 -1.7392708e-21 0)
(0.075320216 0 0)
(0.075319774 0 0)
(0.075319348 0 0)
(0.075317811 -1.7277176e-21 0)
(0.075317349 1.0237203e-51 -1.7377257e-21)
(0.075318351 1.7546896e-21 2.4935639e-37)
(0.075318341 0 1.7603417e-21)
(0.075318324 1.7610842e-21 0)
(0.075317855 -4.8974498e-34 0)
(0.075316846 -1.7642977e-21 0)
(0.075318037 0 0)
(0.075320403 0 0)
(0.075320337 0 0)
(0.075320232 -1.7775248e-21 0)
(0.075319833 4.9415187e-34 -1.7795725e-21)
(0.075319165 1.7784019e-21 -2.527261e-37)
(0.07532031 0 1.7745244e-21)
(0.075320823 1.77696e-21 0)
(0.075320422 4.9394768e-34 0)
(0.075319917 -1.7828894e-21 0)
(0.075318608 0 -1.795372e-21)
(0.075319304 1.8077852e-21 1.0037151e-33)
(0.075321269 -1.8140201e-21 1.8140201e-21)
(0.075321263 1.008832e-33 0)
(0.075321247 1.8154649e-21 -1.8154649e-21)
(0.075321196 -1.8145156e-21 -5.0411272e-34)
(0.075321033 0 1.8119407e-21)
(0.075320778 -1.8097137e-21 0)
(0.075319543 -5.012429e-34 0)
(0.07531919 1.8026751e-21 -1.8026751e-21)
(0.075320788 0 -1.8072285e-21)
(0.075321388 1.8123572e-21 1.8123572e-21)
(0.075320962 -1.8137572e-21 1.8137572e-21)
(0.075320555 -1.0061677e-33 0)
(0.075319106 1.8111568e-21 0)
(0.075318668 -1.0130426e-33 0)
(0.075319532 -2.6178529e-37 0)
(0.075319529 5.1197599e-34 1.8428188e-21)
(0.075319526 -2.6153141e-37 -2.6153141e-37)
(0.075319017 -1.8451351e-21 -3.6902701e-21)
(0.075317926 0 -1.8478776e-21)
(0.075319096 1.8527511e-21 3.7055022e-21)
(0.075321618 -5.1659789e-34 3.7227183e-21)
(0.07532151 -5.1725254e-34 -1.863718e-21)
(0.075321255 -1.1402287e-53 -1.8619764e-21)
(0.07532058 -5.1877161e-34 0)
(0.075318094 0 0)
(0.07531848 -3.7510538e-21 0)
(0.075321866 -5.1769346e-34 0)
(0.075322668 1.86233e-21 -1.86233e-21)
(0.075322049 -1.8651628e-21 -5.1818364e-34)
(0.075321371 5.164077e-34 1.8606739e-21)
(0.075319076 1.8568687e-21 0)
(0.075318995 1.8610261e-21 0)
(0.075322069 5.193347e-34 0)
(0.075323431 -5.2206983e-34 0)
(0.075323096 1.8821964e-21 0)
(0.075322705 -1.8843006e-21 0)
(0.075321864 -1.8922184e-21 0)
(0.075322366 0 0)
(0.07532279 -1.8898839e-21 0)