/*--------------------------------*- C++ -*----------------------------------*\
  =========                 |
  \\      /  F ield         | OpenFOAM: The Open Source CFD Toolbox
   \\    /   O peration     | Website:  https://openfoam.org
    \\  /    A nd           | Version:  7
     \\/     M anipulation  |
\*---------------------------------------------------------------------------*/
FoamFile
{
    version     2.0;
    format      ascii;
    class       volScalarField;
    location    "0.0034";
    object      rho;
}
// * * * * * * * * * * * * * * * * * * * * * * * * * * * * * * * * * * * * * //

dimensions      [1 -3 0 0 0 0 0];

internalField   nonuniform List<scalar> 
5000
(
1.3374802
1.3374802
1.3374802
1.3374802
1.3374802
1.3374802
1.3374802
1.3374802
1.3374802
1.3374802
1.3374802
1.3374802
1.3374802
1.3374802
1.3374802
1.3374802
1.3374802
1.3374802
1.3374802
1.3374802
1.3374802
1.3374802
1.3374802
1.3374802
1.3374802
1.3374802
1.3374802
1.3374802
1.3374802
1.3374802
1.3374802
1.3374802
1.3374802
1.3374802
1.3374802
1.3374802
1.3374802
1.3374802
1.3374802
1.3374802
1.3374802
1.3374802
1.3374802
1.3374802
1.3374802
1.3374802
1.3374802
1.3374802
1.3374802
1.3374802
1.3374802
1.3374802
1.3374802
1.3374802
1.3374802
1.3374802
1.3374802
1.3374802
1.3374802
1.3374802
1.3374802
1.3374802
1.3374802
1.3374802
1.3374802
1.3374802
1.3374802
1.3374802
1.3374802
1.3374802
1.3374802
1.3374802
1.3374802
1.3374802
1.3374802
1.3374802
1.3374802
1.3374802
1.3374802
1.3374802
1.3374802
1.3374802
1.3374802
1.3374802
1.3374802
1.3374803
1.3374803
1.3374803
1.3374803
1.3374803
1.3374803
1.3374803
1.3374803
1.3374803
1.3374803
1.3374803
1.3374803
1.3374803
1.3374803
1.3374803
1.3374803
1.3374803
1.3374803
1.3374803
1.3374803
1.3374803
1.3374803
1.3374803
1.3374803
1.3374803
1.3374803
1.3374803
1.3374803
1.3374803
1.3374803
1.3374803
1.3374803
1.3374803
1.3374803
1.3374803
1.3374803
1.3374803
1.3374803
1.3374803
1.3374803
1.3374803
1.3374803
1.3374803
1.3374803
1.3374803
1.3374803
1.3374803
1.3374803
1.3374803
1.3374803
1.3374803
1.3374803
1.3374803
1.3374803
1.3374803
1.3374803
1.3374803
1.3374803
1.3374803
1.3374803
1.3374803
1.3374803
1.3374803
1.3374803
1.3374804
1.3374804
1.3374804
1.3374804
1.3374804
1.3374804
1.3374804
1.3374804
1.3374804
1.3374804
1.3374804
1.3374804
1.3374804
1.3374804
1.3374804
1.3374804
1.3374804
1.3374804
1.3374804
1.3374804
1.3374804
1.3374804
1.3374804
1.3374804
1.3374804
1.3374804
1.3374804
1.3374804
1.3374804
1.3374803
1.3374803
1.3374803
1.3374803
1.3374803
1.3374803
1.3374803
1.3374803
1.3374803
1.3374803
1.3374802
1.3374802
1.33748
1.3374797
1.3374789
1.3374771
1.3374734
1.3374679
1.3374601
1.3374492
1.3374347
1.3374158
1.337392
1.3373628
1.337328
1.3372873
1.3372411
1.3371897
1.3371336
1.3370737
1.337011
1.3369465
1.3368813
1.3368165
1.3367531
1.3366921
1.3366341
1.3365799
1.3365299
1.3364843
1.3364433
1.3364069
1.3363749
1.3363471
1.3363232
1.336303
1.3362859
1.3362717
1.33626
1.3362504
1.3362427
1.3362365
1.3362315
1.3362276
1.3362245
1.3362222
1.3362203
1.3362189
1.3362178
1.336217
1.3362164
1.336216
1.3362156
1.3362154
1.3362152
1.336215
1.3362149
1.3362149
1.3362148
1.3362148
1.3362147
1.3362147
1.3362147
1.3362147
1.3362147
1.3362147
1.3362147
1.3362147
1.3362147
1.3362147
1.3362147
1.3362147
1.3362147
1.3362147
1.3362147
1.3362147
1.3362146
1.3362146
1.3362146
1.3362146
1.3362146
1.3362146
1.3362146
1.3362146
1.3362146
1.3362146
1.3362146
1.3362146
1.3362146
1.3362146
1.3362146
1.3362146
1.3362146
1.3362146
1.3362146
1.3362146
1.3362146
1.3362146
1.3362146
1.3362146
1.3362146
1.3362146
1.3362146
1.3362146
1.3362146
1.3362146
1.3362146
1.3362146
1.3362146
1.3362146
1.3362146
1.3362146
1.3362146
1.3362146
1.3362146
1.3362146
1.3362146
1.3362146
1.3362145
1.3362145
1.3362145
1.3362145
1.3362145
1.3362145
1.3362145
1.3362145
1.3362145
1.3362145
1.3362145
1.3362145
1.3362145
1.3362145
1.3362145
1.3362145
1.3362145
1.3362145
1.3362145
1.3362145
1.3362145
1.3362145
1.3362145
1.3362145
1.3362145
1.3362145
1.3362145
1.3362145
1.3362145
1.3362145
1.3362145
1.3362145
1.3362145
1.3362145
1.3362145
1.3362145
1.3362145
1.3362145
1.3362145
1.3362145
1.3362145
1.3362145
1.3362145
1.3362144
1.3362144
1.3362144
1.3362144
1.3362144
1.3362144
1.3362144
1.3362144
1.3362144
1.3362144
1.3362144
1.3362144
1.3362144
1.3362144
1.3362144
1.3362144
1.3362144
1.3362144
1.3362144
1.3362144
1.3362144
1.3362144
1.3362144
1.3362144
1.3362144
1.3362144
1.3362144
1.3362144
1.3362144
1.3362144
1.3362144
1.3362144
1.3362144
1.3362144
1.3362144
1.3362144
1.3362144
1.3362144
1.3362144
1.3362144
1.3362143
1.3362143
1.3362143
1.3362143
1.3362143
1.3362143
1.3362143
1.3362143
1.3362143
1.3362143
1.3362143
1.3362143
1.3362143
1.3362143
1.3362143
1.3362143
1.3362143
1.3362143
1.3362143
1.3362143
1.3362143
1.3362143
1.3362143
1.3362143
1.3362143
1.3362143
1.3362143
1.3362143
1.3362143
1.3362143
1.3362143
1.3362143
1.3362143
1.3362143
1.3362143
1.3362143
1.3362143
1.3362143
1.3362143
1.3362142
1.3362142
1.3362142
1.3362142
1.3362142
1.3362142
1.3362142
1.3362142
1.3362142
1.3362142
1.3362142
1.3362142
1.3362142
1.3362142
1.3362142
1.3362142
1.3362142
1.3362142
1.3362142
1.3362142
1.3362142
1.3362142
1.3362142
1.3362142
1.3362142
1.3362142
1.3362142
1.3362142
1.3362142
1.3362142
1.3362142
1.3362142
1.3362142
1.3362142
1.3362142
1.3362142
1.3362142
1.3362141
1.3362141
1.3362141
1.3362141
1.3362141
1.3362141
1.3362141
1.3362141
1.3362141
1.3362141
1.3362141
1.3362141
1.3362141
1.3362141
1.3362141
1.3362141
1.3362141
1.3362141
1.3362141
1.3362141
1.3362141
1.3362141
1.3362141
1.3362141
1.3362141
1.3362141
1.3362141
1.3362141
1.3362141
1.3362141
1.3362141
1.3362141
1.3362141
1.3362141
1.3362141
1.3362141
1.3362141
1.336214
1.336214
1.336214
1.336214
1.336214
1.336214
1.336214
1.336214
1.336214
1.336214
1.336214
1.336214
1.336214
1.336214
1.336214
1.336214
1.336214
1.336214
1.336214
1.336214
1.336214
1.336214
1.336214
1.336214
1.336214
1.336214
1.336214
1.336214
1.336214
1.336214
1.336214
1.336214
1.336214
1.336214
1.336214
1.336214
1.3362139
1.3362139
1.3362139
1.3362139
1.3362139
1.3362139
1.3362139
1.3362139
1.3362139
1.3362139
1.3362139
1.3362139
1.3362139
1.3362139
1.3362139
1.3362139
1.3362139
1.3362139
1.3362139
1.3362139
1.3362139
1.3362139
1.3362139
1.3362139
1.3362139
1.3362139
1.3362139
1.3362139
1.3362139
1.3362139
1.3362139
1.3362139
1.3362139
1.3362139
1.3362138
1.3362138
1.3362138
1.3362138
1.3362138
1.3362138
1.3362138
1.3362138
1.3362138
1.3362138
1.3362138
1.3362138
1.3362138
1.3362138
1.3362138
1.3362138
1.3362138
1.3362138
1.3362138
1.3362138
1.3362138
1.3362138
1.3362138
1.3362138
1.3362138
1.3362138
1.3362138
1.3362138
1.3362138
1.3362138
1.3362138
1.3362138
1.3362138
1.3362138
1.3362138
1.3362138
1.3362137
1.3362137
1.3362137
1.3362137
1.3362137
1.3362137
1.3362137
1.3362137
1.3362137
1.3362137
1.3362137
1.3362137
1.3362137
1.3362137
1.3362137
1.3362137
1.3362137
1.3362137
1.3362137
1.3362137
1.3362137
1.3362137
1.3362137
1.3362137
1.3362137
1.3362137
1.3362137
1.3362137
1.3362137
1.3362137
1.3362137
1.3362136
1.3362136
1.3362136
1.3362136
1.3362136
1.3362136
1.3362136
1.3362136
1.3362136
1.3362136
1.3362136
1.3362136
1.3362136
1.3362136
1.3362136
1.3362136
1.3362136
1.3362136
1.3362136
1.3362136
1.3362136
1.3362136
1.3362136
1.3362136
1.3362136
1.3362136
1.3362136
1.3362136
1.3362136
1.3362136
1.3362136
1.3362135
1.3362135
1.3362135
1.3362135
1.3362135
1.3362135
1.3362135
1.3362135
1.3362135
1.3362135
1.3362135
1.3362135
1.3362135
1.3362135
1.3362135
1.3362135
1.3362135
1.3362135
1.3362135
1.3362135
1.3362135
1.3362135
1.3362135
1.3362135
1.3362135
1.3362135
1.3362135
1.3362135
1.3362135
1.3362135
1.3362135
1.3362134
1.3362134
1.3362134
1.3362134
1.3362134
1.3362134
1.3362134
1.3362134
1.3362134
1.3362134
1.3362134
1.3362134
1.3362134
1.3362134
1.3362134
1.3362134
1.3362134
1.3362134
1.3362134
1.3362134
1.3362134
1.3362134
1.3362134
1.3362134
1.3362134
1.3362134
1.3362134
1.3362134
1.3362134
1.3362134
1.3362134
1.3362133
1.3362133
1.3362133
1.3362133
1.3362133
1.3362133
1.3362133
1.3362133
1.3362133
1.3362133
1.3362133
1.3362133
1.3362133
1.3362133
1.3362133
1.3362133
1.3362133
1.3362133
1.3362133
1.3362133
1.3362133
1.3362133
1.3362133
1.3362133
1.3362133
1.3362133
1.3362133
1.3362133
1.3362132
1.3362132
1.3362132
1.3362132
1.3362132
1.3362132
1.3362132
1.3362132
1.3362132
1.3362132
1.3362132
1.3362132
1.3362132
1.3362132
1.3362132
1.3362132
1.3362132
1.3362132
1.3362132
1.3362132
1.3362132
1.3362132
1.3362132
1.3362132
1.3362132
1.3362132
1.3362132
1.3362131
1.3362131
1.3362131
1.3362131
1.3362131
1.3362131
1.3362131
1.3362131
1.3362131
1.3362131
1.3362131
1.3362131
1.3362131
1.3362131
1.3362131
1.3362131
1.3362131
1.3362131
1.3362131
1.3362131
1.3362131
1.3362131
1.3362131
1.3362131
1.3362131
1.3362131
1.3362131
1.336213
1.336213
1.336213
1.336213
1.336213
1.336213
1.336213
1.336213
1.336213
1.336213
1.336213
1.336213
1.336213
1.336213
1.336213
1.336213
1.336213
1.336213
1.336213
1.336213
1.336213
1.336213
1.336213
1.336213
1.336213
1.336213
1.3362129
1.3362129
1.3362129
1.3362129
1.3362129
1.3362129
1.3362129
1.3362129
1.3362129
1.3362129
1.3362129
1.3362129
1.3362129
1.3362129
1.3362129
1.3362129
1.3362129
1.3362129
1.3362129
1.3362129
1.3362129
1.3362129
1.3362129
1.3362129
1.3362129
1.3362129
1.3362129
1.3362128
1.3362128
1.3362128
1.3362128
1.3362128
1.3362128
1.3362128
1.3362128
1.3362128
1.3362128
1.3362128
1.3362128
1.3362128
1.3362128
1.3362128
1.3362128
1.3362128
1.3362128
1.3362128
1.3362128
1.3362128
1.3362128
1.3362128
1.3362128
1.3362127
1.3362127
1.3362127
1.3362127
1.3362127
1.3362127
1.3362127
1.3362127
1.3362127
1.3362127
1.3362127
1.3362127
1.3362127
1.3362127
1.3362127
1.3362127
1.3362127
1.3362127
1.3362127
1.3362127
1.3362127
1.3362127
1.3362127
1.3362127
1.3362127
1.3362127
1.3362126
1.3362126
1.3362126
1.3362126
1.3362126
1.3362126
1.3362126
1.3362126
1.3362126
1.3362126
1.3362126
1.3362126
1.3362126
1.3362126
1.3362126
1.3362126
1.3362126
1.3362126
1.3362126
1.3362126
1.3362126
1.3362126
1.3362126
1.3362126
1.3362125
1.3362125
1.3362125
1.3362125
1.3362125
1.3362125
1.3362125
1.3362125
1.3362125
1.3362125
1.3362125
1.3362125
1.3362125
1.3362125
1.3362125
1.3362125
1.3362125
1.3362125
1.3362125
1.3362125
1.3362125
1.3362125
1.3362125
1.3362125
1.3362125
1.3362124
1.3362124
1.3362124
1.3362124
1.3362124
1.3362124
1.3362124
1.3362124
1.3362124
1.3362124
1.3362124
1.3362124
1.3362124
1.3362124
1.3362124
1.3362124
1.3362124
1.3362124
1.3362124
1.3362124
1.3362124
1.3362124
1.3362124
1.3362123
1.3362123
1.3362123
1.3362123
1.3362123
1.3362123
1.3362123
1.3362123
1.3362123
1.3362123
1.3362123
1.3362123
1.3362123
1.3362123
1.3362123
1.3362123
1.3362123
1.3362123
1.3362123
1.3362123
1.3362123
1.3362123
1.3362123
1.3362122
1.3362122
1.3362122
1.3362122
1.3362122
1.3362122
1.3362122
1.3362122
1.3362122
1.3362122
1.3362122
1.3362122
1.3362122
1.3362122
1.3362122
1.3362122
1.3362122
1.3362122
1.3362122
1.3362122
1.3362122
1.3362122
1.3362122
1.3362121
1.3362121
1.3362121
1.3362121
1.3362121
1.3362121
1.3362121
1.3362121
1.3362121
1.3362121
1.3362121
1.3362121
1.3362121
1.3362121
1.3362121
1.3362121
1.3362121
1.3362121
1.3362121
1.3362121
1.3362121
1.3362121
1.336212
1.336212
1.336212
1.336212
1.336212
1.336212
1.336212
1.336212
1.336212
1.336212
1.336212
1.336212
1.336212
1.336212
1.336212
1.336212
1.336212
1.336212
1.336212
1.336212
1.3362119
1.3362119
1.3362119
1.3362119
1.3362119
1.3362119
1.3362119
1.3362119
1.3362119
1.3362119
1.3362119
1.3362119
1.3362119
1.3362119
1.3362119
1.3362119
1.3362119
1.3362119
1.3362119
1.3362119
1.3362119
1.3362119
1.3362118
1.3362118
1.3362118
1.3362118
1.3362118
1.3362118
1.3362118
1.3362118
1.3362118
1.3362118
1.3362118
1.3362118
1.3362118
1.3362118
1.3362118
1.3362118
1.3362118
1.3362118
1.3362118
1.3362117
1.3362117
1.3362117
1.3362117
1.3362117
1.3362117
1.3362117
1.3362117
1.3362117
1.3362117
1.3362117
1.3362117
1.3362117
1.3362117
1.3362117
1.3362117
1.3362117
1.3362117
1.3362117
1.3362117
1.3362116
1.3362116
1.3362116
1.3362116
1.3362116
1.3362116
1.3362116
1.3362116
1.3362116
1.3362116
1.3362116
1.3362116
1.3362116
1.3362116
1.3362116
1.3362116
1.3362116
1.3362116
1.3362116
1.3362115
1.3362115
1.3362115
1.3362115
1.3362115
1.3362115
1.3362115
1.3362115
1.3362115
1.3362115
1.3362115
1.3362115
1.3362115
1.3362115
1.3362115
1.3362115
1.3362115
1.3362115
1.3362115
1.3362115
1.3362115
1.3362114
1.3362114
1.3362114
1.3362114
1.3362114
1.3362114
1.3362114
1.3362114
1.3362114
1.3362114
1.3362114
1.3362114
1.3362114
1.3362114
1.3362114
1.3362114
1.3362114
1.3362114
1.3362113
1.3362113
1.3362113
1.3362113
1.3362113
1.3362113
1.3362113
1.3362113
1.3362113
1.3362113
1.3362113
1.3362113
1.3362113
1.3362113
1.3362113
1.3362113
1.3362113
1.3362113
1.3362112
1.3362112
1.3362112
1.3362112
1.3362112
1.3362112
1.3362112
1.3362112
1.3362112
1.3362112
1.3362112
1.3362112
1.3362112
1.3362112
1.3362112
1.3362112
1.3362112
1.3362111
1.3362111
1.3362111
1.3362111
1.3362111
1.3362111
1.3362111
1.3362111
1.3362111
1.3362111
1.3362111
1.3362111
1.3362111
1.3362111
1.3362111
1.3362111
1.3362111
1.3362111
1.336211
1.336211
1.336211
1.336211
1.336211
1.336211
1.336211
1.336211
1.336211
1.336211
1.336211
1.336211
1.336211
1.336211
1.336211
1.336211
1.336211
1.3362109
1.3362109
1.3362109
1.3362109
1.3362109
1.3362109
1.3362109
1.3362109
1.3362109
1.3362109
1.3362109
1.3362109
1.3362109
1.3362109
1.3362109
1.3362109
1.3362109
1.3362108
1.3362108
1.3362108
1.3362108
1.3362108
1.3362108
1.3362108
1.3362108
1.3362108
1.3362108
1.3362108
1.3362108
1.3362108
1.3362108
1.3362108
1.3362108
1.3362108
1.3362107
1.3362107
1.3362107
1.3362107
1.3362107
1.3362107
1.3362107
1.3362107
1.3362107
1.3362107
1.3362107
1.3362107
1.3362107
1.3362107
1.3362106
1.3362106
1.3362106
1.3362106
1.3362106
1.3362106
1.3362106
1.3362106
1.3362106
1.3362106
1.3362106
1.3362106
1.3362106
1.3362106
1.3362106
1.3362105
1.3362105
1.3362105
1.3362105
1.3362105
1.3362105
1.3362105
1.3362105
1.3362105
1.3362105
1.3362105
1.3362105
1.3362105
1.3362104
1.3362104
1.3362104
1.3362104
1.3362104
1.3362104
1.3362104
1.3362104
1.3362104
1.3362104
1.3362103
1.3362103
1.3362103
1.3362103
1.3362103
1.3362103
1.3362103
1.3362103
1.3362103
1.3362103
1.3362102
1.3362102
1.3362102
1.3362102
1.3362102
1.3362102
1.3362102
1.3362102
1.3362102
1.3362101
1.3362101
1.3362101
1.3362101
1.3362101
1.3362101
1.3362101
1.33621
1.33621
1.33621
1.33621
1.33621
1.33621
1.3362099
1.3362099
1.3362099
1.3362099
1.3362099
1.3362098
1.3362098
1.3362098
1.3362098
1.3362098
1.3362097
1.3362097
1.3362097
1.3362097
1.3362096
1.3362096
1.3362096
1.3362096
1.3362095
1.3362095
1.3362095
1.3362095
1.3362094
1.3362094
1.3362094
1.3362093
1.3362093
1.3362093
1.3362092
1.3362092
1.3362091
1.3362091
1.3362091
1.336209
1.336209
1.3362089
1.3362089
1.3362088
1.3362088
1.3362087
1.3362087
1.3362086
1.3362086
1.3362085
1.3362085
1.3362084
1.3362083
1.3362083
1.3362082
1.3362082
1.3362081
1.336208
1.3362079
1.3362079
1.3362078
1.3362077
1.3362076
1.3362075
1.3362075
1.3362074
1.3362073
1.3362072
1.3362071
1.336207
1.3362069
1.3362068
1.3362066
1.3362065
1.3362064
1.3362063
1.3362062
1.336206
1.3362059
1.3362058
1.3362056
1.3362055
1.3362053
1.3362052
1.336205
1.3362049
1.3362047
1.3362045
1.3362044
1.3362042
1.336204
1.3362038
1.3362036
1.3362034
1.3362032
1.336203
1.3362028
1.3362025
1.3362023
1.3362021
1.3362018
1.3362015
1.3362013
1.336201
1.3362007
1.3362005
1.3362002
1.3361999
1.3361995
1.3361992
1.3361989
1.3361986
1.3361982
1.3361979
1.3361975
1.3361971
1.3361967
1.3361963
1.3361959
1.3361955
1.3361951
1.3361946
1.3361942
1.3361937
1.3361932
1.3361927
1.3361922
1.3361917
1.3361912
1.3361906
1.3361901
1.3361895
1.3361889
1.3361883
1.3361877
1.3361871
1.3361864
1.3361857
1.336185
1.3361843
1.3361836
1.3361829
1.3361821
1.3361813
1.3361805
1.3361797
1.3361789
1.336178
1.3361771
1.3361762
1.3361753
1.3361744
1.3361734
1.3361724
1.3361714
1.3361703
1.3361693
1.3361682
1.3361671
1.3361659
1.3361648
1.3361635
1.3361623
1.3361611
1.3361598
1.3361585
1.3361571
1.3361557
1.3361543
1.3361529
1.3361514
1.3361499
1.3361484
1.3361468
1.3361452
1.3361435
1.3361418
1.3361401
1.3361384
1.3361366
1.3361347
1.3361329
1.3361309
1.336129
1.336127
1.336125
1.3361229
1.3361207
1.3361186
1.3361164
1.3361141
1.3361118
1.3361094
1.336107
1.3361046
1.3361021
1.3360995
1.3360969
1.3360942
1.3360915
1.3360888
1.3360859
1.3360831
1.3360801
1.3360771
1.3360741
1.336071
1.3360678
1.3360646
1.3360613
1.336058
1.3360546
1.3360511
1.3360476
1.336044
1.3360403
1.3360366
1.3360328
1.3360289
1.336025
1.336021
1.3360169
1.3360128
1.3360085
1.3360042
1.3359999
1.3359954
1.3359909
1.3359863
1.3359817
1.3359769
1.3359721
1.3359672
1.3359622
1.3359571
1.335952
1.3359467
1.3359414
1.335936
1.3359305
1.3359249
1.3359193
1.3359135
1.3359077
1.3359017
1.3358957
1.3358896
1.3358834
1.3358771
1.3358707
1.3358642
1.3358577
1.335851
1.3358442
1.3358374
1.3358304
1.3358234
1.3358162
1.3358089
1.3358016
1.3357941
1.3357866
1.3357789
1.3357712
1.3357633
1.3357553
1.3357473
1.3357391
1.3357308
1.3357224
1.335714
1.3357054
1.3356967
1.3356878
1.3356789
1.3356699
1.3356608
1.3356515
1.3356422
1.3356327
1.3356232
1.3356135
1.3356037
1.3355938
1.3355838
1.3355737
1.3355635
1.3355531
1.3355427
1.3355321
1.3355214
1.3355107
1.3354998
1.3354888
1.3354777
1.3354664
1.3354551
1.3354436
1.3354321
1.3354204
1.3354086
1.3353967
1.3353847
1.3353726
1.3353604
1.3353481
1.3353357
1.3353231
1.3353105
1.3352977
1.3352848
1.3352718
1.3352588
1.3352456
1.3352323
1.3352189
1.3352054
1.3351918
1.3351781
1.3351642
1.3351503
1.3351363
1.3351222
1.335108
1.3350937
1.3350793
1.3350647
1.3350501
1.3350354
1.3350206
1.3350057
1.3349908
1.3349757
1.3349605
1.3349453
1.3349299
1.3349145
1.334899
1.3348834
1.3348677
1.3348519
1.3348361
1.3348202
1.3348042
1.3347881
1.3347719
1.3347557
1.3347394
1.334723
1.3347065
1.33469
1.3346734
1.3346568
1.3346401
1.3346233
1.3346064
1.3345895
1.3345726
1.3345556
1.3345385
1.3345214
1.3345042
1.334487
1.3344697
1.3344524
1.334435
1.3344176
1.3344001
1.3343826
1.3343651
1.3343475
1.3343299
1.3343123
1.3342946
1.3342769
1.3342592
1.3342415
1.3342237
1.3342059
1.3341881
1.3341703
1.3341524
1.3341346
1.3341167
1.3340988
1.3340809
1.334063
1.3340451
1.3340272
1.3340093
1.3339914
1.3339735
1.3339556
1.3339377
1.3339199
1.333902
1.3338842
1.3338663
1.3338485
1.3338307
1.3338129
1.3337952
1.3337775
1.3337597
1.3337421
1.3337244
1.3337068
1.3336892
1.3336717
1.3336542
1.3336368
1.3336193
1.333602
1.3335846
1.3335673
1.3335501
1.3335329
1.3335158
1.3334987
1.3334817
1.3334648
1.3334479
1.333431
1.3334143
1.3333975
1.3333809
1.3333643
1.3333478
1.3333314
1.333315
1.3332987
1.3332825
1.3332664
1.3332503
1.3332344
1.3332185
1.3332027
1.3331869
1.3331713
1.3331557
1.3331403
1.3331249
1.3331096
1.3330944
1.3330793
1.3330643
1.3330494
1.3330346
1.3330199
1.3330053
1.3329908
1.3329764
1.3329621
1.3329479
1.3329338
1.3329198
1.3329059
1.3328921
1.3328784
1.3328649
1.3328514
1.3328381
1.3328248
1.3328117
1.3327987
1.3327858
1.332773
1.3327603
1.3327478
1.3327353
1.332723
1.3327108
1.3326987
1.3326867
1.3326749
1.3326631
1.3326515
1.33264
1.3326286
1.3326173
1.3326062
1.3325951
1.3325842
1.3325734
1.3325627
1.3325522
1.3325417
1.3325314
1.3325212
1.3325111
1.3325011
1.3324913
1.3324815
1.3324719
1.3324624
1.332453
1.3324438
1.3324346
1.3324256
1.3324167
1.3324079
1.3323992
1.3323906
1.3323822
1.3323739
1.3323656
1.3323575
1.3323495
1.3323416
1.3323339
1.3323262
1.3323187
1.3323112
1.3323039
1.3322967
1.3322896
1.3322826
1.3322757
1.3322689
1.3322622
1.3322556
1.3322491
1.3322428
1.3322365
1.3322303
1.3322243
1.3322183
1.3322124
1.3322066
1.332201
1.3321954
1.3321899
1.3321845
1.3321792
1.332174
1.3321689
1.3321639
1.332159
1.3321541
1.3321494
1.3321447
1.3321402
1.3321357
1.3321313
1.332127
1.3321227
1.3321186
1.3321145
1.3321105
1.3321066
1.3321027
1.332099
1.3320953
1.3320917
1.3320882
1.3320847
1.3320813
1.332078
1.3320747
1.3320715
1.3320684
1.3320654
1.3320624
1.3320595
1.3320566
1.3320538
1.3320511
1.3320484
1.3320458
1.3320433
1.3320408
1.3320384
1.332036
1.3320337
1.3320314
1.3320292
1.332027
1.3320249
1.3320229
1.3320209
1.3320189
1.332017
1.3320151
1.3320133
1.3320116
1.3320098
1.3320081
1.3320065
1.3320049
1.3320034
1.3320018
1.3320004
1.3319989
1.3319975
1.3319962
1.3319948
1.3319936
1.3319923
1.3319911
1.3319899
1.3319887
1.3319876
1.3319865
1.3319855
1.3319845
1.3319835
1.3319825
1.3319815
1.3319806
1.3319797
1.3319789
1.331978
1.3319772
1.3319765
1.3319757
1.331975
1.3319742
1.3319735
1.3319729
1.3319722
1.3319716
1.331971
1.3319704
1.3319698
1.3319693
1.3319687
1.3319682
1.3319677
1.3319672
1.3319667
1.3319663
1.3319658
1.3319654
1.331965
1.3319646
1.3319642
1.3319639
1.3319635
1.3319632
1.3319628
1.3319625
1.3319622
1.3319619
1.3319616
1.3319613
1.3319611
1.3319608
1.3319605
1.3319603
1.3319601
1.3319599
1.3319596
1.3319594
1.3319592
1.331959
1.3319589
1.3319587
1.3319585
1.3319583
1.3319582
1.331958
1.3319579
1.3319578
1.3319576
1.3319575
1.3319574
1.3319572
1.3319571
1.331957
1.3319569
1.3319568
1.3319567
1.3319566
1.3319565
1.3319564
1.3319563
1.3319563
1.3319562
1.3319561
1.331956
1.331956
1.3319559
1.3319558
1.3319558
1.3319557
1.3319557
1.3319556
1.3319555
1.3319555
1.3319554
1.3319554
1.3319553
1.3319553
1.3319553
1.3319552
1.3319552
1.3319551
1.3319551
1.331955
1.331955
1.331955
1.3319549
1.3319549
1.3319549
1.3319548
1.3319548
1.3319548
1.3319547
1.3319547
1.3319547
1.3319546
1.3319546
1.3319546
1.3319545
1.3319545
1.3319545
1.3319545
1.3319544
1.3319544
1.3319544
1.3319543
1.3319543
1.3319543
1.3319542
1.3319542
1.3319542
1.3319542
1.3319541
1.3319541
1.3319541
1.331954
1.331954
1.331954
1.3319539
1.3319539
1.3319539
1.3319539
1.3319538
1.3319538
1.3319538
1.3319537
1.3319537
1.3319537
1.3319536
1.3319536
1.3319536
1.3319535
1.3319535
1.3319534
1.3319534
1.3319534
1.3319533
1.3319533
1.3319533
1.3319532
1.3319532
1.3319531
1.3319531
1.3319531
1.331953
1.331953
1.331953
1.3319529
1.3319529
1.3319528
1.3319528
1.3319527
1.3319527
1.3319527
1.3319526
1.3319526
1.3319525
1.3319525
1.3319524
1.3319524
1.3319523
1.3319523
1.3319522
1.3319522
1.3319522
1.3319521
1.3319521
1.331952
1.331952
1.3319519
1.3319518
1.3319518
1.3319517
1.3319517
1.3319516
1.3319516
1.3319515
1.3319515
1.3319514
1.3319514
1.3319513
1.3319512
1.3319512
1.3319511
1.3319511
1.331951
1.331951
1.3319509
1.3319508
1.3319508
1.3319507
1.3319507
1.3319506
1.3319505
1.3319505
1.3319504
1.3319504
1.3319503
1.3319502
1.3319502
1.3319501
1.33195
1.33195
1.3319499
1.3319498
1.3319498
1.3319497
1.3319496
1.3319496
1.3319495
1.3319494
1.3319494
1.3319493
1.3319492
1.3319492
1.3319491
1.331949
1.3319489
1.3319489
1.3319488
1.3319487
1.3319486
1.3319486
1.3319485
1.3319484
1.3319483
1.3319483
1.3319482
1.3319481
1.331948
1.331948
1.3319479
1.3319478
1.3319477
1.3319477
1.3319476
1.3319475
1.3319474
1.3319473
1.3319472
1.3319472
1.3319471
1.331947
1.3319469
1.3319468
1.3319467
1.3319467
1.3319466
1.3319465
1.3319464
1.3319463
1.3319462
1.3319461
1.3319461
1.331946
1.3319459
1.3319458
1.3319457
1.3319456
1.3319455
1.3319454
1.3319453
1.3319453
1.3319452
1.3319451
1.331945
1.3319449
1.3319448
1.3319447
1.3319446
1.3319445
1.3319444
1.3319443
1.3319442
1.3319441
1.331944
1.3319439
1.3319438
1.3319437
1.3319436
1.3319435
1.3319434
1.3319433
1.3319432
1.3319431
1.331943
1.3319429
1.3319428
1.3319427
1.3319426
1.3319425
1.3319424
1.3319423
1.3319422
1.3319421
1.331942
1.3319419
1.3319418
1.3319417
1.3319416
1.3319415
1.3319414
1.3319412
1.3319411
1.331941
1.3319409
1.3319408
1.3319407
1.3319406
1.3319405
1.3319404
1.3319403
1.3319401
1.33194
1.3319399
1.3319398
1.3319397
1.3319396
1.3319395
1.3319393
1.3319392
1.3319391
1.331939
1.3319389
1.3319388
1.3319387
1.3319385
1.3319384
1.3319383
1.3319382
1.3319381
1.3319379
1.3319378
1.3319377
1.3319376
1.3319375
1.3319373
1.3319372
1.3319371
1.331937
1.3319369
1.3319367
1.3319366
1.3319365
1.3319364
1.3319362
1.3319361
1.331936
1.3319359
1.3319357
1.3319356
1.3319355
1.3319354
1.3319352
1.3319351
1.331935
1.3319349
1.3319347
1.3319346
1.3319345
1.3319344
1.3319342
1.3319341
1.331934
1.3319338
1.3319337
1.3319336
1.3319334
1.3319333
1.3319332
1.3319331
1.3319329
1.3319328
1.3319327
1.3319325
1.3319324
1.3319323
1.3319321
1.331932
1.3319319
1.3319317
1.3319316
1.3319315
1.3319313
1.3319312
1.3319311
1.3319309
1.3319308
1.3319306
1.3319305
1.3319304
1.3319302
1.3319301
1.33193
1.3319298
1.3319297
1.3319296
1.3319294
1.3319293
1.3319292
1.331929
1.3319289
1.3319287
1.3319286
1.3319285
1.3319283
1.3319282
1.3319281
1.3319279
1.3319278
1.3319276
1.3319275
1.3319274
1.3319272
1.3319271
1.3319269
1.3319268
1.3319267
1.3319265
1.3319264
1.3319262
1.3319261
1.331926
1.3319258
1.3319257
1.3319255
1.3319254
1.3319253
1.3319251
1.331925
1.3319248
1.3319247
1.3319246
1.3319244
1.3319243
1.3319241
1.331924
1.3319239
1.3319237
1.3319236
1.3319234
1.3319233
1.3319232
1.331923
1.3319229
1.3319227
1.3319226
1.3319225
1.3319223
1.3319222
1.331922
1.3319219
1.3319217
1.3319216
1.3319215
1.3319213
1.3319212
1.331921
1.3319209
1.3319208
1.3319206
1.3319205
1.3319203
1.3319202
1.3319201
1.3319199
1.3319198
1.3319196
1.3319195
1.3319194
1.3319192
1.3319191
1.3319189
1.3319188
1.3319187
1.3319185
1.3319184
1.3319183
1.3319181
1.331918
1.3319178
1.3319177
1.3319176
1.3319174
1.3319173
1.3319171
1.331917
1.3319169
1.3319167
1.3319166
1.3319164
1.3319163
1.3319162
1.331916
1.3319159
1.3319158
1.3319156
1.3319155
1.3319153
1.3319152
1.3319151
1.3319149
1.3319148
1.3319147
1.3319145
1.3319144
1.3319142
1.3319141
1.331914
1.3319138
1.3319137
1.3319136
1.3319134
1.3319133
1.3319132
1.331913
1.3319129
1.3319128
1.3319126
1.3319125
1.3319124
1.3319122
1.3319121
1.3319119
1.3319118
1.3319117
1.3319115
1.3319114
1.3319113
1.3319111
1.331911
1.3319109
1.3319107
1.3319106
1.3319105
1.3319103
1.3319102
1.3319101
1.33191
1.3319098
1.3319097
1.3319096
1.3319094
1.3319093
1.3319092
1.331909
1.3319089
1.3319088
1.3319086
1.3319085
1.3319084
1.3319082
1.3319081
1.331908
1.3319079
1.3319077
1.3319076
1.3319075
1.3319073
1.3319072
1.3319071
1.3319069
1.3319068
1.3319067
1.3319066
1.3319064
1.3319063
1.3319062
1.331906
1.3319059
1.3319058
1.3319056
1.3319055
1.3319054
1.3319053
1.3319051
1.331905
1.3319049
1.3319047
1.3319046
1.3319045
1.3319044
1.3319042
1.3319041
1.331904
1.3319038
1.3319037
1.3319036
1.3319035
1.3319033
1.3319032
1.3319031
1.3319029
1.3319028
1.3319027
1.3319026
1.3319024
1.3319023
1.3319022
1.331902
1.3319019
1.3319018
1.3319017
1.3319015
1.3319014
1.3319013
1.3319011
1.331901
1.3319009
1.3319007
1.3319006
1.3319005
1.3319003
1.3319002
1.3319001
1.3318999
1.3318998
1.3318997
1.3318995
1.3318994
1.3318993
1.3318991
1.331899
1.3318989
1.3318987
1.3318986
1.3318985
1.3318983
1.3318982
1.3318981
1.3318979
1.3318978
1.3318977
1.3318975
1.3318974
1.3318972
1.3318971
1.331897
1.3318968
1.3318967
1.3318965
1.3318964
1.3318963
1.3318961
1.331896
1.3318958
1.3318957
1.3318956
1.3318954
1.3318953
1.3318951
1.331895
1.3318948
1.3318947
1.3318945
1.3318944
1.3318942
1.3318941
1.3318939
1.3318938
1.3318936
1.3318935
1.3318933
1.3318932
1.331893
1.3318929
1.3318927
1.3318925
1.3318924
1.3318922
1.3318921
1.3318919
1.3318918
1.3318916
1.3318914
1.3318913
1.3318911
1.331891
1.3318908
1.3318906
1.3318905
1.3318903
1.3318901
1.33189
1.3318898
1.3318896
1.3318895
1.3318893
1.3318891
1.3318889
1.3318888
1.3318886
1.3318884
1.3318882
1.331888
1.3318878
1.3318877
1.3318875
1.3318873
1.3318871
1.3318869
1.3318867
1.3318865
1.3318863
1.3318861
1.3318859
1.3318857
1.3318855
1.3318853
1.3318851
1.3318849
1.3318847
1.3318845
1.3318843
1.3318841
1.3318839
1.3318836
1.3318834
1.3318832
1.331883
1.3318828
1.3318826
1.3318823
1.3318821
1.3318819
1.3318816
1.3318814
1.3318812
1.3318809
1.3318807
1.3318804
1.3318802
1.3318799
1.3318797
1.3318794
1.3318792
1.3318789
1.3318786
1.3318784
1.3318781
1.3318778
1.3318776
1.3318773
1.331877
1.3318767
1.3318765
1.3318762
1.3318759
1.3318756
1.3318753
1.331875
1.3318747
1.3318744
1.3318741
1.3318738
1.3318735
1.3318731
1.3318728
1.3318725
1.3318722
1.3318718
1.3318715
1.3318711
1.3318708
1.3318704
1.33187
1.3318697
1.3318693
1.3318689
1.3318685
1.3318682
1.3318678
1.3318674
1.331867
1.3318666
1.3318661
1.3318657
1.3318653
1.3318649
1.3318644
1.331864
1.3318635
1.3318631
1.3318626
1.3318621
1.3318617
1.3318612
1.3318607
1.3318602
1.3318597
1.3318592
1.3318587
1.3318582
1.3318577
1.3318571
1.3318566
1.3318561
1.3318556
1.331855
1.3318545
1.331854
1.3318534
1.3318529
1.3318524
1.3318518
1.3318513
1.3318508
1.3318503
1.3318498
1.3318494
1.3318489
1.3318485
1.3318481
1.3318477
1.3318473
1.331847
1.3318467
1.3318465
1.3318462
1.331846
1.3318458
1.3318457
1.3318456
1.3318455
1.3318454
1.3318453
1.3318453
1.3318453
1.3318453
1.3318453
1.3318453
1.3318454
1.3318454
1.3318454
1.3318454
1.3318454
1.3318453
1.3318453
1.3318451
1.3318448
1.3318445
1.3318441
1.3318437
1.3318431
1.3318425
1.3318418
1.331841
1.3318402
1.3318393
1.3318384
1.3318373
1.3318363
1.3318352
1.3318341
1.331833
1.3318319
1.3318308
1.3318297
1.3318286
1.3318276
1.3318268
1.3318262
1.3318257
1.3318252
1.3318245
1.3318237
1.3318228
1.331822
1.3318213
1.3318203
1.3318185
1.3318147
1.3318068
1.331789
1.3317481
1.3316511
1.3314214
1.3308724
1.3299512
1.3287398
1.3272256
1.325406
1.323289
1.3208928
1.3182443
1.3153787
1.3123369
1.3091641
1.3059078
1.3026154
1.2993331
1.2961037
1.292966
1.2899531
1.2870927
1.2844062
1.2819091
1.2796109
1.277516
1.2756241
1.2739307
1.2724282
1.2711063
1.2699529
1.2689546
1.2680973
1.2673667
1.2667489
1.2662302
1.2657981
1.2654408
1.2651475
1.2649085
1.2647152
1.2645599
1.2644361
1.2643381
1.2642611
1.2642012
1.2641551
1.26412
1.2640935
1.2640737
1.2640591
1.2640485
1.2640408
1.2640355
1.264032
1.2640299
1.2640288
1.2640285
1.2640285
1.2640288
1.2640299
1.2640315
1.2640331
1.2640347
1.2640362
1.2640379
1.2640395
1.2640412
1.2640428
1.2640446
1.2640463
1.2640481
1.26405
1.2640518
1.2640537
1.2640556
1.2640576
1.2640595
1.2640614
1.2640633
1.2640652
1.2640671
1.264069
1.2640708
1.2640726
1.2640743
1.264076
1.2640776
1.2640792
1.2640807
1.2640822
1.2640836