/*--------------------------------*- C++ -*----------------------------------*\
  =========                 |
  \\      /  F ield         | OpenFOAM: The Open Source CFD Toolbox
   \\    /   O peration     | Website:  https://openfoam.org
    \\  /    A nd           | Version:  7
     \\/     M anipulation  |
\*---------------------------------------------------------------------------*/
FoamFile
{
    version     2.0;
    format      ascii;
    class       volScalarField;
    location    "0.00329";
    object      Uy;
}
// * * * * * * * * * * * * * * * * * * * * * * * * * * * * * * * * * * * * * //

dimensions      [0 1 -1 0 0 0 0];

internalField   nonuniform List<scalar> 
5000
(
9.6447154e-22
1.3119273e-21
0
0
-6.3462352e-22
6.9263137e-37
5.6080623e-22
0
0
-6.2338513e-22
-1.2714163e-21
6.3924134e-22
6.3937094e-22
-6.3854116e-22
0
-6.3616476e-22
-1.7706362e-51
6.314851e-22
0
6.2422207e-22
-6.2165446e-22
-6.1976806e-22
1.2364801e-21
-6.1763344e-22
-6.1787775e-22
-5.1030789e-36
6.2156647e-22
6.2461858e-22
-1.2548356e-21
1.0908681e-35
-1.1007266e-35
6.2890184e-22
1.2538956e-21
-1.2486733e-21
1.0771979e-35
-5.37958e-35
-2.13705e-35
1.2278755e-21
-1.2253639e-21
-1.2283062e-21
1.2344823e-21
-4.2676811e-35
-1.2466532e-21
6.2445989e-22
1.8681919e-21
-6.1903468e-22
-6.1479591e-22
-4.1895671e-35
-1.2161486e-21
0
6.0705071e-22
8.6936304e-38
-6.16802e-22
1.240307e-21
-2.1671154e-35
-1.2315792e-21
6.0969034e-22
-2.0889352e-35
-5.9903939e-22
0
6.0097167e-22
2.0768486e-35
1.7471353e-37
6.1555417e-22
-6.1185847e-22
2.1215751e-35
6.0292113e-22
-5.9931959e-22
-5.9828872e-22
6.017992e-22
6.066033e-22
-6.0992366e-22
-6.0975359e-22
1.2137959e-21
6.0419822e-22
-6.0190025e-22
0
6.0061606e-22
-8.5643632e-38
-6.0476166e-22
6.0557739e-22
-1.7186025e-37
1.7136891e-37
6.0164382e-22
6.0056041e-22
2.0881258e-35
-5.9986804e-22
0
-6.0120327e-22
-6.2347611e-35
-2.0984919e-35
5.9957028e-22
5.9895862e-22
-1.1970294e-21
-4.1418606e-35
5.9841277e-22
0
0
-5.9703609e-22
-4.1372e-35
1.1927499e-21
-5.9627801e-22
-1.192025e-21
0
5.9491074e-22
5.9436052e-22
-5.9397119e-22
-5.9397653e-22
0
0
5.9321059e-22
5.9262151e-22
0
-5.9179823e-22
2.0690061e-35
5.9182731e-22
-5.915314e-22
1.6800003e-37
-2.064648e-35
-4.8782024e-54
1.1799458e-21
-2.5151845e-37
-5.8992279e-22
0
-5.8923108e-22
5.8887137e-22
5.8857771e-22
-1.1767015e-21
-5.8806178e-22
1.1752566e-21
5.8712415e-22
-5.8669943e-22
-5.8634346e-22
-5.8604139e-22
0
5.8562105e-22
5.8540074e-22
-5.851769e-22
-2.0284361e-35
5.8477331e-22
-5.8445585e-22
-5.8412431e-22
0
5.835157e-22
5.8328049e-22
-5.8314256e-22
5.8301451e-22
-3.312512e-37
-5.8227067e-22
5.8170337e-22
-5.8116222e-22
4.0436099e-35
5.8033361e-22
-5.8013306e-22
5.8009315e-22
5.802951e-22
-5.7995636e-22
0
0
-5.827657e-22
-5.8242985e-22
5.8198832e-22
5.8087009e-22
-5.7857784e-22
-3.9897221e-35
5.7126969e-22
-5.6687563e-22
-5.6284744e-22
0
5.5965294e-22
5.6226702e-22
0
-5.8030718e-22
-5.9550682e-22
0
6.3522189e-22
1.3452845e-34
-6.0822706e-22
5.564026e-22
6.0745818e-22
-8.6599937e-23
-1.0313727e-35
5.3408433e-35
2.5585303e-37
4.9955732e-22
-5.5214838e-22
-8.3022857e-35
4.1122426e-35
-4.0032182e-35
5.7242787e-22
0
0
-5.6547454e-22
-5.6311504e-22
0
0
5.5888444e-22
-9.5542412e-53
-5.6358976e-22
0
5.6415396e-22
-5.6292469e-22
-1.5562575e-34
1.122123e-21
-5.6240636e-22
-1.1696689e-34
-7.9975638e-38
-5.613036e-22
5.5912774e-22
-7.9225227e-38
-7.7190562e-35
3.8672079e-35
-5.5933046e-22
0
5.5627216e-22
3.8369963e-35
1.5371784e-34
5.5555773e-22
0
-5.5533526e-22
-5.5330661e-22
0
0
0
5.5155629e-22
3.8296315e-35
-5.5233016e-22
0
0
5.4406216e-22
5.4357612e-22
-5.4590176e-22
-5.4861447e-22
0
5.4659977e-22
5.4409338e-22
-5.4176275e-22
-5.4004462e-22
0
5.4289927e-22
-1.5117978e-34
-3.7701011e-35
5.4140391e-22
-5.3941194e-22
-5.3751977e-22
0
5.3689537e-22
-7.4832621e-35
5.3891462e-22
7.4551708e-35
-1.0713099e-21
5.3399494e-22
-7.389577e-35
-1.8504669e-34
-3.6928817e-35
-5.3318659e-22
5.3210304e-22
5.3043879e-22
0
-5.296323e-22
-5.3023546e-22
0
5.2697078e-22
5.2390757e-22
-1.0421407e-21
-5.2027804e-22
5.2270428e-22
5.2603278e-22
1.4615311e-34
-5.2429888e-22
5.2105219e-22
-3.5939267e-35
-5.1619211e-22
5.1633007e-22
-3.6015199e-35
3.6207719e-35
-1.479641e-37
-3.5901752e-35
5.178089e-22
0
0
-5.1195791e-22
-5.1158893e-22
0
0
0
0
5.1011674e-22
3.4980909e-35
-1.0113867e-21
2.1605566e-37
5.0977209e-22
5.1115369e-22
-7.0732529e-35
-7.0233474e-35
-7.1677956e-38
-5.0254501e-22
-5.0279613e-22
-5.049436e-22
1.0125948e-21
1.5167494e-21
-5.0400535e-22
-1.0044128e-21
0
5.0102134e-22
5.0185745e-22
-5.0228757e-22
1.4255512e-37
-2.1321833e-37
1.4177842e-37
4.9835981e-22
4.9911521e-22
-4.9981274e-22
-9.9809262e-22
4.9767093e-22
-6.323049e-54
4.9515292e-22
1.3743236e-34
-9.9350425e-22
0
0
9.8712665e-22
-2.7333597e-34
-9.8537911e-22
0
4.9498836e-22
4.9384194e-22
-4.9172967e-22
6.9581129e-38
-6.7873793e-35
6.9780442e-38
4.9271721e-22
-4.9235623e-22
-4.9079432e-22
0
4.8569208e-22
-6.7556823e-35
-4.9042865e-22
9.8504144e-22
-1.3624996e-34
-4.8832554e-22
-1.3449124e-34
-9.6280643e-22
9.6496863e-22
4.870948e-22
-4.9170751e-22
-7.0037646e-38
-4.902001e-22
0
0
4.8237028e-22
-6.704879e-35
-9.7341782e-22
6.9683335e-38
1.4759544e-21
-4.9065831e-22
-4.8810565e-22
9.718007e-22
-4.8361706e-22
4.8280966e-22
9.7069965e-22
-4.8962241e-22
-4.9142793e-22
-4.8976985e-22
4.8733865e-22
-4.4074155e-53
-4.8219772e-22
4.8356543e-22
-4.8783057e-22
4.910991e-22
1.3610832e-34
1.3894704e-37
4.8606221e-22
-9.6694848e-22
4.8314736e-22
1.351189e-34
-1.3623877e-34
-4.9305933e-22
-9.8266026e-22
1.4668789e-21
1.3499166e-34
-2.6915046e-34
1.348631e-34
-9.8100937e-22
9.8566068e-22
-1.3658065e-34
-9.818232e-22
0
0
4.8835217e-22
-6.820079e-35
-4.9386153e-22
-4.9348264e-22
4.9198256e-22
1.4688355e-21
-4.8787721e-22
-4.8882813e-22
-1.3996267e-37
-4.9517574e-22
0
9.8771252e-22
9.8316839e-22
-4.8974241e-22
-9.8019996e-22
-4.9334301e-22
9.9219747e-22
9.9327262e-22
-9.9097877e-22
-9.8692374e-22
0
9.8432834e-22
-4.9518609e-22
-9.9488316e-22
4.9751368e-22
4.9637218e-22
-7.0234903e-38
6.8400874e-35
4.935116e-22
-4.9688364e-22
-4.9900461e-22
4.9853887e-22
-6.8939643e-35
-7.0294234e-38
-6.8374966e-35
-4.9410699e-22
4.9778019e-22
-2.0827237e-34
-6.9348503e-35
-1.3816831e-34
-4.9533826e-22
4.9357673e-22
-6.8671738e-35
-1.3813287e-34
-7.112218e-38
-1.0000057e-21
-4.9832626e-22
4.9579286e-22
9.8787359e-22
-6.8692239e-35
-9.9639332e-22
-5.0050467e-22
1.0003455e-21
4.9840097e-22
-4.9579657e-22
-4.937373e-22
-1.3714511e-34
4.9734813e-22
0
0
4.9827473e-22
0
-4.9349943e-22
4.9293261e-22
7.0414215e-38
-1.3837545e-34
0
-4.9790985e-22
4.9592559e-22
4.9380615e-22
-9.8490874e-22
-4.9404311e-22
4.9670926e-22
0
0
-4.9435954e-22
1.3679586e-34
4.9103887e-22
0
0
-4.9525015e-22
2.0601634e-34
4.9306322e-22
0
0
0
0
0
0
0
0
9.7935862e-22
2.7157758e-34
-4.8781456e-22
4.8538129e-22
-4.8317801e-22
4.8288168e-22
-1.3486812e-34
-4.8675944e-22
-1.3494808e-34
-4.8374867e-22
0
0
4.7792405e-22
1.3347154e-34
-4.8297891e-22
0
0
0
0
0
0
0
9.5792356e-22
-3.969747e-34
-9.4856806e-22
4.7183062e-22
6.6787406e-38
4.7033533e-22
-2.6197457e-34
-9.4712226e-22
-4.7250196e-22
-9.8929114e-53
1.4056785e-21
0
-9.3340894e-22
0
0
9.3527707e-22
-1.2929251e-34
-1.3937963e-21
4.6344257e-22
4.6362035e-22
-4.6389074e-22
4.6325705e-22
-4.6212218e-22
-1.2774084e-34
4.5919083e-22
-4.5928258e-22
0
-4.5957684e-22
4.5834009e-22
9.1274377e-22
-4.54588e-22
-4.5400625e-22
-4.5528669e-22
-4.5619946e-22
9.1091099e-22
4.5399486e-22
-4.5218456e-22
0
4.5110184e-22
-4.5177323e-22
-4.5187449e-22
1.3534392e-21
1.2776788e-37
-8.9653174e-22
4.4835255e-22
6.2327301e-35
4.4896055e-22
-1.2731791e-37
-8.9194515e-22
4.4418568e-22
0
-1.2380917e-34
-6.3520176e-38
-4.4605608e-22
4.4440349e-22
-1.2272926e-34
-6.1057291e-35
-6.2660993e-38
-4.4373282e-22
4.4528743e-22
1.2667183e-52
-1.2279764e-34
-6.2517673e-38
-8.7663008e-22
-6.0913218e-35
4.4202615e-22
0
0
-4.4105657e-22
-1.8266514e-34
4.3753729e-22
-4.3829422e-22
6.1225899e-35
1.3692431e-52
-6.1371137e-35
4.4064673e-22
4.3876242e-22
6.0662581e-35
-4.3794886e-22
0
0
4.4235954e-22
-4.412441e-22
3.6605017e-34
4.384945e-22
-4.3863154e-22
0
4.4261201e-22
4.4336765e-22
-4.4296747e-22
-4.4235184e-22
0
4.4199536e-22
4.4278722e-22
-8.8743177e-22
-4.4426681e-22
4.4451683e-22
4.4492168e-22
6.1749425e-35
4.4521493e-22
1.2361514e-34
-8.8950292e-22
0
0
0
4.4758413e-22
4.4752437e-22
0
-4.463041e-22
-6.1847544e-35
4.4779651e-22
0
0
-4.4965542e-22
-6.2286095e-35
6.2229754e-35
-4.5085195e-22
4.5241441e-22
-1.8832094e-34
-4.5215029e-22
0
-4.5051357e-22
-6.2745263e-35
4.538368e-22
-4.5506058e-22
4.5519076e-22
4.5390003e-22
-4.5294939e-22
0
4.5717433e-22
4.5917655e-22
-4.5801509e-22
-4.5609358e-22
0
-4.5275267e-22
4.555623e-22
4.6003716e-22
-4.6245288e-22
-9.234899e-22
2.5569288e-34
1.3779638e-21
-8.1936711e-53
-4.6030025e-22
-9.2501682e-22
2.5753963e-34
9.3003597e-22
-4.6533923e-22
4.6567747e-22
-4.6620583e-22
-4.6682963e-22
9.3486127e-22
0
0
-9.3795743e-22
1.312837e-52
9.3971021e-22
0
0
-9.4104285e-22
1.0029529e-52
9.4193217e-22
0
0
-9.4316018e-22
-4.7198579e-22
9.4517029e-22
4.7316762e-22
0
-9.4703611e-22
2.6258555e-34
9.4381878e-22
-4.7109305e-22
0
4.7012103e-22
-4.6951905e-22
6.6722103e-38
4.7042493e-22
-4.7191401e-22
4.7349389e-22
4.747839e-22
-4.7568518e-22
-4.7582893e-22
1.3194783e-34
4.7423915e-22
-4.7325694e-22
-1.3121259e-34
4.7190741e-22
-4.7128344e-22
4.7124139e-22
4.720487e-22
-4.7331388e-22
-4.7447285e-22
1.3188404e-34
4.7460199e-22
-4.7384735e-22
6.7228898e-38
4.7257577e-22
-4.7219893e-22
4.719789e-22
4.7216944e-22
-4.7252998e-22
-9.4548766e-22
2.6267388e-34
9.4526442e-22
-4.7251887e-22
6.7136227e-38
9.4474537e-22
1.3424582e-37
-4.7230595e-22
0
4.7225171e-22
0
-4.7219482e-22
0
0
0
-4.7201739e-22
-4.4741012e-54
4.7188169e-22
0
4.7170964e-22
-1.3095632e-34
-4.7149701e-22
0
0
0
-4.7087694e-22
1.3069656e-34
4.7045916e-22
0
4.7008597e-22
1.3042715e-34
-4.6981542e-22
0
4.695237e-22
-4.6934908e-22
2.6068131e-34
4.6892747e-22
-4.6868334e-22
0
-4.6820964e-22
-1.2996517e-34
4.679177e-22
0
4.6781532e-22
-4.6779207e-22
-2.5977742e-34
4.6774781e-22
-2.5970031e-34
-6.6470939e-38
1.2995363e-34
-6.6475267e-38
-4.6780544e-22
0
4.6788196e-22
-1.2986855e-34
-1.2988399e-34
-3.2422903e-54
-1.2998702e-34
0
-9.3654761e-22
-1.3005458e-34
4.684541e-22
-4.6855263e-22
1.3007008e-34
4.6876642e-22
4.6888085e-22
1.3023219e-34
-1.3026684e-34
4.6925461e-22
-4.6938823e-22
-4.6952619e-22
0
-4.6981392e-22
1.3049927e-34
4.7011444e-22
0
0
0
-9.4148994e-22
5.2304509e-34
9.421377e-22
0
0
0
0
0
0
0
-9.4469716e-22
2.6253461e-34
9.4519895e-22
4.7269026e-22
-4.7274877e-22
-4.7277112e-22
1.3134219e-34
2.6225919e-34
4.7268562e-22
-4.7270538e-22
4.7278246e-22
4.7289334e-22
-4.7303221e-22
-4.7317924e-22
2.6272333e-34
4.7343639e-22
4.7356183e-22
-1.3139712e-34
-4.737914e-22
-4.7389418e-22
4.739891e-22
4.7407494e-22
-4.7415068e-22
4.742159e-22
0
-4.7431157e-22
-4.7434077e-22
1.3158452e-34
4.7435786e-22
-4.7434482e-22
4.7431577e-22
4.7426917e-22
-4.742058e-22
4.7412387e-22
1.316248e-34
-4.7387655e-22
-4.7370258e-22
-6.7287056e-38
9.4648303e-22
2.625968e-34
-4.726644e-22
-4.7237503e-22
0
4.7187672e-22
0
0
0
4.7079055e-22
4.70475e-22
-4.7014148e-22
-4.6979015e-22
0
4.6903162e-22
-1.3019397e-34
-4.6819568e-22
0
0
4.6679391e-22
-2.5882388e-34
-4.6575594e-22
0
0
4.6403759e-22
-2.5723415e-34
-4.627829e-22
0
4.6143948e-22
-1.2793656e-34
1.2766903e-34
-1.275259e-34
-4.5848107e-22
0
-4.5686582e-22
2.530629e-34
4.5515903e-22
0
4.5336112e-22
-4.5242775e-22
-4.5147188e-22
9.0098624e-22
1.2494262e-34
-8.969354e-22
1.2424007e-34
4.4635289e-22
0
0
4.4301022e-22
-1.2262973e-34
-4.4066148e-22
0
4.3822001e-22
-4.3697282e-22
-4.3571295e-22
4.3444466e-22
0
-4.3188849e-22
4.3059332e-22
2.3828446e-34
-2.3754856e-34
4.2661745e-22
-3.5414265e-34
4.239022e-22
-4.2252655e-22
1.1688215e-34
-2.3310695e-34
-8.3665962e-22
1.1564894e-34
4.1547892e-22
0
0
0
-8.1932791e-22
-4.0818909e-22
8.1341184e-22
4.0521557e-22
0
0
4.0069621e-22
7.3746002e-53
-3.9763325e-22
0
-7.8905625e-22
-3.9296458e-22
7.8280262e-22
3.8984705e-22
0
-7.7359732e-22
-1.0951346e-37
1.1515502e-21
-1.0607228e-34
-7.6184173e-22
3.7946214e-22
2.1487639e-37
-3.7657763e-22
1.0422508e-34
2.0734423e-34
3.7232864e-22
0
3.6955553e-22
-2.0442499e-34
-7.3367172e-22
3.6549729e-22
-6.063293e-34
-3.6286663e-22
7.2315111e-22
-5.1201906e-38
-3.5904497e-22
0
0
0
-3.5420725e-22
3.5304772e-22
7.0381849e-22
-3.5079236e-22
-9.7104095e-35
-9.6707433e-35
-3.4757783e-22
0
3.4555462e-22
-4.8967827e-38
-6.872634e-22
3.4270875e-22
1.8963456e-34
-3.4094253e-22
-3.401006e-22
1.8852278e-34
6.7700189e-22
0
3.3701497e-22
3.3631521e-22
0
-3.3500477e-22
-3.3439386e-22
3.3381296e-22
0
-3.3274239e-22
0
0
3.3136231e-22
-2.7561149e-34
-3.305945e-22
0
0
3.2967112e-22
3.2942396e-22
-3.2920768e-22
-3.2902275e-22
3.2887108e-22
3.287533e-22
-6.5733863e-22
-3.2861917e-22
9.1293027e-35
3.2861885e-22
-1.8234351e-34
-1.8239137e-34
3.2887891e-22
-3.2904152e-22
3.2924423e-22
-3.2948396e-22
-2.8117036e-37
3.3007246e-22
-6.6084002e-22
-3.3080242e-22
-3.3121901e-22
6.6333812e-22
6.6430553e-22
-3.3266965e-22
3.3321896e-22
-3.337999e-22
1.857185e-34
6.7010362e-22
-3.3572243e-22
9.3369951e-35
-9.3667732e-35
-3.3790455e-22
0
0
3.4032667e-22
3.4118364e-22
0
-3.4296971e-22
-3.4389682e-22
0
-3.4581617e-22
9.630153e-35
3.4781902e-22
-3.4884978e-22
9.7060674e-35
3.5096793e-22
0
3.5315626e-22
1.966998e-34
-3.5540883e-22
3.5655784e-22
-9.9179439e-35
-3.5889674e-22
-3.6008554e-22
-1.0027078e-34
3.62499e-22
0
-3.649552e-22
3.6619795e-22
-1.0443543e-37
2.0476624e-34
3.6997615e-22
-3.7124998e-22
0
-7.4763106e-22
8.3284965e-34
3.7640088e-22
2.0965218e-34
7.5800482e-22
-7.6061609e-22
-7.6323074e-22
7.658469e-22
7.6846553e-22
3.8554267e-22
0
-3.8816157e-22
-7.7893933e-22
5.5532564e-38
-3.9207944e-22
3.9338014e-22
3.9467778e-22
-3.9597211e-22
7.9452321e-22
-7.9709123e-22
-6.6591256e-34
8.021948e-22
-8.0472763e-22
2.2404153e-34
-4.0487495e-22
4.0611872e-22
4.0735368e-22
-4.0857982e-22
-1.136758e-34
-8.2200494e-22
8.2439685e-22
8.2676503e-22
-8.2910936e-22
-1.153766e-34
-4.1686189e-22
2.3213857e-34
4.1911697e-22
1.1662797e-34
-2.080452e-52
4.2239181e-22
8.4690504e-22
-4.2449656e-22
4.4011249e-52
-4.2653522e-22
-7.1217537e-34
4.28504e-22
-8.5892203e-22
2.3890401e-34
8.6263548e-22
-4.2555931e-53
-4.3309577e-22
0
0
-4.3560799e-22
4.3640214e-22
8.7434838e-22
0
0
0
-4.4003336e-22
-4.4068903e-22
0
4.4192712e-22
-4.4250895e-22
-7.3793047e-34
8.8719033e-22
0
0
0
-4.4545496e-22
-4.4585271e-22
4.4622326e-22
-4.4656573e-22
-2.4817969e-34
8.9433565e-22
0
0
-8.9571788e-22
1.2733846e-37
4.4817691e-22
-4.4829302e-22
4.4838099e-22
-4.484411e-22
2.4906464e-34
8.969628e-22
0
0
-4.4835197e-22
-4.4825724e-22
0
0
4.4781723e-22
4.4761881e-22
0
-4.4714598e-22
-4.4687032e-22
4.4656929e-22
-4.4624268e-22
-4.4589049e-22
4.4551384e-22
4.4511225e-22
-2.4696067e-34
-4.4423443e-22
4.43759e-22
1.2302125e-34
-4.4273523e-22
0
-4.4161565e-22
2.4486286e-34
4.4040382e-22
-4.3976284e-22
2.4379582e-34
4.3841429e-22
0
-4.369784e-22
1.211319e-34
6.1882187e-38
-4.3466507e-22
4.3385288e-22
4.3302083e-22
0
-8.6259525e-22
4.7806239e-34
4.2949869e-22
6.0903716e-38
8.5525441e-22
-8.533309e-22
-8.5137273e-22
8.4938207e-22
4.2367973e-22
0
-8.4321976e-22
7.0019765e-34
8.3896392e-22
0
-8.3459601e-22
-2.3113322e-34
4.150617e-22
1.1493892e-34
8.2555545e-22
-8.2323693e-22
-1.0251779e-33
8.1853891e-22
-8.161594e-22
2.2579171e-34
8.1134607e-22
4.0445737e-22
-8.0646766e-22
-4.0200332e-22
8.0153181e-22
-7.9904413e-22
-9.9476543e-34
7.9403552e-22
-7.9151588e-22
1.0954305e-34
-3.9322589e-22
4.3490706e-34
1.1720453e-21
-2.1614993e-34
-7.7625709e-22
3.868501e-22
7.7114193e-22
-3.8429155e-22
2.1265593e-34
-3.8173597e-22
-4.2258458e-34
3.7918681e-22
-7.5583282e-22
3.1365673e-34
-4.1678889e-34
2.0756301e-34
3.7287504e-22
0
3.7038617e-22
3.6915204e-22
0
0
0
0
0
-3.61921e-22
-3.6074981e-22
0
3.5844009e-22
-3.5730356e-22
-5.9332152e-34
7.1013309e-22
0
0
0
-3.5075213e-22
-3.4970881e-22
3.486805e-22
3.4766774e-22
-6.9334092e-22
-5.7594547e-34
6.8944726e-22
0
-6.8568357e-22
-5.6957957e-34
3.4102833e-22
-3.401478e-22
3.3928466e-22
-3.3843895e-22
-1.8740018e-34
6.7360562e-22
0
0
-3.3448554e-22
-3.337507e-22
0
-3.3233786e-22
-9.4263354e-38
-3.310001e-22
3.3035912e-22
9.892155e-22
0
6.5710494e-22
6.5597521e-22
0
-9.8074413e-22
-6.5281142e-22
6.5183153e-22
-3.2544433e-22
-3.2499049e-22
9.7366358e-22
3.2413604e-22
4.600548e-38
3.2335122e-22
-3.2298489e-22
-3.2263533e-22
-3.2230187e-22
-1.4844859e-53
-3.2168448e-22
-3.2139911e-22
3.2112863e-22
0
6.4126528e-22
6.4081145e-22
0
-3.1999394e-22
-6.3961587e-22
-1.773762e-34
-3.194742e-22
-6.3865109e-22
6.3837797e-22
6.3812763e-22
3.1894917e-22
3.1884521e-22
0
-3.1866822e-22
-9.557817e-22
3.1852886e-22
2.7001429e-52
-9.5527471e-22
6.367696e-22
3.1835279e-22
3.1832872e-22
6.3662322e-22
-6.3660239e-22
-3.182971e-22
3.1829942e-22
3.1830784e-22
3.1832177e-22
-9.5502393e-22
-3.1836549e-22
9.5518376e-22
3.1842886e-22
-3.1846757e-22
-6.3702117e-22
3.185576e-22
-3.1860856e-22
5.3055609e-34
-5.3083432e-34
-9.5634985e-22
3.1884817e-22
3.1891645e-22
6.3797626e-22
3.1906273e-22
-6.3828037e-22
-9.0727971e-38
-3.1930396e-22
3.1938989e-22
9.5843491e-22
-9.5870825e-22
-3.1966312e-22
9.5927824e-22
0
-9.5988246e-22
-3.2006522e-22
9.6051514e-22
-3.2028012e-22
-6.4078041e-22
-1.7790312e-34
3.5588668e-34
3.2073135e-22
0
6.4193549e-22
6.4217627e-22
-3.2121002e-22
-3.2133326e-22
-6.4291691e-22
3.2158512e-22
3.2171274e-22
-6.4368393e-22
0
6.4420906e-22
6.4447537e-22
-3.2237174e-22
-6.4501374e-22
1.7909126e-34
3.2277998e-22
-6.4583639e-22
3.2305693e-22
-1.0763908e-33
-6.466718e-22
3.2347594e-22
0
6.4751342e-22
0
-7.1955268e-34
-3.2417693e-22
-6.4863239e-22
9.733631e-22
-9.2254369e-38
-6.4945281e-22
0
6.4998158e-22
3.2511984e-22
-6.5049247e-22
3.6125555e-34
3.2548893e-22
-6.512087e-22
3.2571494e-22
-5.424729e-34
-6.5184021e-22
3.2601303e-22
-3.2609916e-22
6.5235527e-22
9.7874175e-22
0
-9.7907183e-22
-6.5279176e-22
9.7926712e-22
6.5287347e-22
-3.2643755e-22
-6.5284796e-22
3.2639564e-22
3.2635241e-22
-6.5258823e-22
3.2621887e-22
6.5225142e-22
-3.2601328e-22
4.6310281e-38
-6.5144621e-22
-6.5108413e-22
9.7600439e-22
-3.2509908e-22
-5.4101463e-34
9.7361043e-22
0
-9.715157e-22
-6.468663e-22
3.2298714e-22
3.2249773e-22
3.2196309e-22
0
3.207457e-22
-1.7765614e-34
-6.386233e-22
1.7674991e-34
3.1763707e-22
0
3.1569272e-22
-6.2922087e-22
-9.4034753e-22
6.2441035e-22
9.3262297e-22
3.094516e-22
-3.0793188e-22
-6.1262063e-22
3.0458181e-22
-3.0274142e-22
-3.007839e-22
5.9740477e-22
-5.9298029e-22
-2.9414102e-22
8.749456e-22
5.7801252e-22
-2.862061e-22
-8.4971844e-22
6.2190431e-34
-6.1452462e-34
-2.7325889e-22
-2.9923065e-34
-2.656087e-22
2.6145324e-22
2.5706162e-22
2.5241967e-22
-2.475129e-22
-2.4232443e-22
7.1050171e-22
-2.3101779e-22
-4.496901e-22
6.5481799e-22
6.0038101e-38
-2.0366026e-22
3.9079302e-22
1.8623043e-22
0
-1.716209e-22
-1.637451e-22
-3.250841e-22
1.5994638e-22
-5.2686509e-34
-4.851948e-22
1.5845128e-22
1.6277639e-22
1.5861664e-22
-1.5803739e-22
-1.5944578e-22
4.6581211e-22
-1.5665023e-22
-3.1041651e-22
-2.6360935e-34
-1.6438549e-22
3.1560276e-22
4.566575e-22
8.2374492e-35
-7.9808409e-35
-2.0894217e-38
-1.4313272e-22
-2.8942416e-22
-1.4316957e-22
4.2099861e-22
-1.5069997e-34
-2.5238016e-22
0
0
1.0928573e-22
-5.6367041e-35
4.9647349e-35
7.793161e-23
-1.3850415e-22
-5.9134737e-23
-5.1082147e-35
3.1603852e-23
5.7532023e-23
7.3364637e-24
0
0
0
2.5514403e-22
2.0578895e-22
-3.5373938e-22
1.5436592e-34
3.3975028e-22
0
0
-5.0327272e-22
6.3217084e-34
3.5350503e-34
-6.9519811e-22
3.7383858e-22
8.0469964e-22
8.7875162e-22
-4.8384103e-22
-1.5710021e-21
-5.5458165e-22
0
0
0
2.1978256e-21
1.5447695e-21
-2.4691988e-21
1.9563878e-33
9.345333e-22
-1.3990822e-37
1.0427051e-21
-2.2147411e-21
1.2934499e-33
1.2197346e-21
-2.5737518e-21
0
7.9592907e-34
2.996884e-21
3.1501799e-21
-4.9933966e-21
-3.5063458e-21
1.8318266e-21
1.0585119e-33
-1.9966265e-21
6.3098201e-21
4.4359874e-21
-2.3236675e-21
-2.4182297e-21
2.5226055e-21
2.6439324e-21
-2.7696557e-21
-2.8907638e-21
1.674334e-33
-1.7515904e-33
-3.3017182e-21
0
-3.5805512e-21
7.4787694e-21
1.1749283e-20
-8.1825986e-21
-8.5013306e-21
-4.4135947e-21
5.1069446e-33
9.6181862e-21
-5.0231086e-21
5.2331891e-21
5.4416751e-21
-1.1317527e-20
1.1782197e-20
6.1357081e-21
-6.3872295e-21
-1.3292297e-20
-6.9156966e-21
1.4390763e-20
-4.1519738e-33
7.7843964e-21
8.1002904e-21
-2.5278605e-20
8.7537638e-21
9.0872022e-21
-2.8323749e-20
1.3956176e-36
3.0646084e-20
1.0614849e-20
-3.3064019e-20
1.1443379e-20
-2.3299853e-48
2.0543067e-32
2.5615172e-20
-2.6593833e-20
-2.7621402e-20
1.4344685e-20
-1.6532089e-32
-3.0899999e-20
1.6023444e-20
4.9851583e-20
1.7235168e-20
-1.7880349e-20
0
-1.924493e-20
-3.9925788e-20
2.9410311e-36
6.4349187e-20
2.2233644e-20
-4.6096411e-20
3.3952173e-36
4.9523079e-20
-5.1317426e-20
4.4279848e-32
5.5094307e-20
-8.5620818e-20
-5.9126511e-20
0
0
3.283448e-20
1.0200514e-19
3.5204509e-20
-1.0933152e-19
4.1880664e-32
7.8103645e-20
-8.0842631e-20
-8.3660955e-20
4.3281831e-20
8.9562822e-20
-4.6331583e-20
-4.7929827e-20
1.4872647e-19
5.1274156e-20
8.8325605e-32
-3.0429493e-32
-5.6716937e-20
5.8635127e-20
-1.2122073e-19
-1.8796052e-19
0
2.0084855e-19
1.3837858e-19
-2.1446502e-19
2.099132e-35
7.6305307e-20
-1.5767447e-19
8.1446434e-20
8.412625e-20
9.6447571e-32
-8.9710218e-20
-1.8526596e-19
9.5648988e-20
1.9751014e-19
2.0389668e-19
-1.1685246e-31
-1.0860963e-19
1.1208853e-19
-2.3133727e-19
-3.5805032e-19
0
3.8110595e-19
2.6209911e-19
-4.0553422e-19
1.5481518e-31
1.4377309e-19
-1.4825067e-19
-1.5285913e-19
8.7435863e-32
3.2495137e-19
-9.2965331e-32
-3.4524761e-19
1.9747721e-31
2.0350174e-31
3.7782061e-19
5.839215e-19
-4.0105387e-19
2.2938526e-31
7.0859012e-31
-2.1914995e-19
-2.2568969e-19
-4.6480688e-19
7.1789035e-19
2.4637383e-19
-5.0727259e-19
5.2217077e-19
1.5275258e-34
-8.2969065e-19
-2.8460843e-19
2.9286335e-19
9.0398313e-19
-1.0325363e-30
-6.3778523e-19
-3.280097e-19
6.7472365e-19
1.0408556e-18
-1.0703369e-18
-3.6684396e-19
-4.1858949e-31
-3.8771432e-19
7.9707674e-19
-2.2737612e-31
4.2099369e-19
-4.3262921e-19
1.4807746e-30
1.3701976e-18
-1.4076391e-18
-1.4459691e-18
0
0
0
5.3618327e-19
1.6515701e-18
5.6518967e-19
6.4410043e-31
5.9553671e-19
-1.8336951e-18
-6.2727912e-19
6.436828e-19
6.6044973e-19
6.7758883e-19
-1.3902155e-18
7.1301158e-19
-7.3130446e-19
2.4978146e-30
1.5381613e-18
-2.3657361e-18
-1.6169861e-18
0
1.6991924e-18
9.6671608e-31
-8.9243612e-19
2.7435706e-18
9.3706698e-19
-9.6007384e-19
0
0
-1.0319216e-18
-2.1136678e-18
2.4029072e-30
2.2163087e-18
1.1345742e-18
-1.1615068e-18
1.1889593e-18
-1.2169401e-18
1.4957588e-46
2.122723e-30
-3.9123684e-18
0
0
2.7925641e-18
2.8562832e-18
1.4605831e-18
-1.6579231e-30
-4.5816918e-18
1.7338881e-30
3.1925417e-18
0
-3.3355292e-18
-1.7044445e-18
3.4835041e-18
-1.7796942e-18
-1.8182797e-18
5.5725468e-18
-1.8974059e-18
6.4542686e-30
3.9583265e-18
-6.0631282e-18
-4.1271995e-18
0
0
0
6.7220681e-18
4.5733961e-18
-7.0002378e-18
-4.7616751e-18
0
4.9556667e-18
-2.8058114e-30
-2.5777168e-18
5.2575038e-18
-2.6805209e-18
2.7330266e-18
2.7862709e-18
-8.5207691e-18
5.7899735e-18
5.9009333e-18
-3.0066998e-18
3.0636877e-18
-6.2428593e-18
-9.5397772e-18
0
9.8975731e-18
6.7199361e-18
-3.4215098e-18
-3.4838141e-18
3.9375745e-30
-3.6107041e-18
1.2242489e-29
3.7406461e-18
2.1135844e-30
-1.2938647e-47
-3.9412852e-18
0
-4.0788412e-18
8.297507e-18
1.2658255e-17
-1.2872499e-17
-1.3088991e-17
0
9.0191276e-18
9.1679147e-18
-9.3181656e-18
4.7349356e-18
4.8115131e-18
-1.4666437e-17
9.9336572e-18
1.0091111e-17
-5.1249852e-18
-1.0410223e-17
-5.2859288e-18
1.6102291e-17
5.4496096e-18
9.2128039e-30
-1.1231934e-17
-3.2401475e-33
1.7354797e-17
-1.1740746e-17
-1.7869326e-17
-6.0431285e-18
1.8391264e-17
1.2436618e-17
-1.892034e-17
1.4202494e-29
1.2970871e-17
6.5755981e-18
-3.7003035e-30
-1.3515059e-17
7.603732e-30
-6.9415132e-18
-7.034243e-18
2.1382342e-17
7.2211113e-18
8.1210057e-30
-1.4819515e-17
2.4994105e-29
2.2800185e-17
-1.5391595e-17
8.6546228e-30
8.763997e-30
1.7731706e-29
8.0822419e-18
-2.4538932e-17
8.2773275e-18
1.3944359e-29
2.8220496e-29
2.5715634e-17
-8.670499e-18
-1.7538617e-17
9.8451449e-30
-8.9674107e-18
-9.0666623e-18
1.8332041e-17
1.8530929e-17
-1.0395213e-29
-2.8393582e-17
1.0614888e-29
9.6636754e-18
-1.9526454e-17
9.8627348e-18
9.9621776e-18
-5.5820552e-30
5.640002e-30
-1.0259881e-17
2.0717656e-17
-1.0457592e-17
3.516279e-29
3.5484267e-29
-3.2257658e-17
2.1700702e-17
-3.1115652e-33
-2.2090031e-17
1.1141833e-17
3.3714824e-17
1.1334316e-17
-3.4289797e-17
1.2794611e-29
1.1619789e-17
-2.3427956e-17
2.3615281e-17
5.9462545e-29
-1.1993289e-17
1.2085225e-17
-1.2176534e-17
2.4534384e-17
-1.2357172e-17
-3.7339345e-17
0
0
2.5419626e-17
3.6368505e-33
-2.5762838e-17
1.2965955e-17
3.9148837e-17
1.3132366e-17
-3.9642582e-17
-3.7786865e-33
-1.4848254e-29
-2.6907755e-17
4.0595272e-17
6.7988071e-29
-1.3684346e-17
1.3759008e-17
1.3832555e-17
-1.5444526e-29
-1.3976208e-17
2.8092534e-17
-2.823023e-17
4.7234958e-29
2.8498187e-17
-4.2942556e-17
-2.8755969e-17
1.4440469e-17
4.350485e-17
1.4561406e-17
-1.4619818e-17
0
1.4732438e-17
-1.478661e-17
-4.4517996e-17
-8.2654057e-30
2.9880693e-17
-1.4988601e-17
-1.5035331e-17
3.0161049e-17
-1.5124167e-17
1.5166245e-17
3.0413479e-17
-4.5736899e-17
5.0899058e-29
-3.4016206e-29
-3.0705128e-17
3.0769844e-17
1.5415618e-17
1.5444639e-17
1.7189432e-29
-1.5497603e-17
3.1043048e-17
-3.1087456e-17
-4.669262e-17
0
1.5599951e-17
-8.6676229e-30
-4.4419414e-33
4.6921258e-17
1.5650377e-17
-4.6975676e-17
1.5664962e-17
-1.670569e-47
-4.7017264e-17
1.5673434e-17
4.7017437e-17
1.5669599e-17
-3.1329858e-17
1.5658462e-17
-1.56502e-17
5.2088807e-29
3.1256581e-17
-4.6843937e-17
-1.7326364e-29
6.9202398e-29
-3.1126003e-17
3.1084457e-17
1.7229205e-29
-1.5495367e-17
3.0938584e-17
1.5441464e-17
0
0
-3.0695064e-17
3.3998992e-29
8.6835635e-33
1.6916616e-29
1.5198241e-17
1.5156693e-17
-1.5113476e-17
-1.5068602e-17
3.0044172e-17
-2.9947885e-17
1.6568114e-29
2.9745658e-17
-2.9639772e-17
-4.9175421e-29
1.6329562e-29
-1.4651698e-17
2.9185146e-17
-1.4531947e-17
3.2127434e-29
2.8812516e-17
0
-2.8549558e-17
-1.4206918e-17
2.8275338e-17
1.4067053e-17
-1.3995092e-17
2.3186936e-29
1.3847215e-17
0
0
-2.723171e-17
-2.7072562e-17
0
2.6747182e-17
1.3290525e-17
-1.3206343e-17
1.3121072e-17
-1.3034735e-17
0
2.5717938e-17
0
0
-1.2587973e-17
1.3872222e-29
1.2402717e-17
0
-1.2214042e-17
-6.7266828e-30
1.2022164e-17
0
-2.3654597e-17
-2.3457628e-17
1.1629666e-17
1.2798286e-29
-1.1429498e-17
2.2657064e-17
2.2454027e-17
-2.224994e-17
-3.132763e-33
-2.424754e-29
-3.0740856e-33
2.1424246e-17
-1.0607886e-17
1.1660252e-29
-1.0398371e-17
1.0293147e-17
3.0562951e-17
-3.024573e-17
-9.9759535e-18
9.8698078e-18
1.0837581e-29
9.6570544e-18
-1.9100999e-17
-1.8887723e-17
1.8674335e-17
3.0738963e-29
9.1237168e-18
9.0170121e-18
-1.782071e-17
8.8037715e-18
-9.6540731e-30
4.7710565e-30
-8.4847059e-18
-1.6757321e-17
1.6545621e-17
1.633436e-17
0
-7.956672e-18
-8.7167344e-30
1.5494632e-17
8.4850307e-30
-2.2617868e-17
-1.4871659e-17
0
1.4460244e-17
1.5824109e-29
7.0261625e-18
6.9248873e-18
-2.0472323e-17
3.7312881e-30
1.3248221e-17
-6.5249295e-18
-1.2852634e-17
6.3282889e-18
1.2461724e-17
6.1340525e-18
0
-1.1884694e-17
5.8474824e-18
1.7259888e-17
-5.6598016e-18
-5.567013e-18
-1.0949885e-17
-5.3836028e-18
1.0586012e-17
5.2031645e-18
5.1140897e-18
-5.5793938e-30
-4.9382841e-18
-4.8515726e-18
-9.5313365e-18
-4.6805799e-18
0
0
0
8.6971186e-18
8.5353519e-18
-8.3753094e-18
-4.5610608e-30
-4.4741585e-30
4.3871086e-30
8.6076751e-30
-7.6013511e-18
0
7.3041998e-18
3.57916e-18
-3.5071226e-18
3.4359895e-18
3.3657625e-18
0
0
-6.3210698e-18
1.0304258e-29
6.7236875e-30
-5.9270189e-18
5.7993103e-18
5.6734194e-18
0
-5.4270888e-18
2.9448373e-30
5.1880104e-18
-5.0711771e-18
-2.751738e-30
4.8428891e-18
0
-4.6217312e-18
-2.256905e-18
4.4076506e-18
-2.151622e-18
-4.6644766e-30
4.0996501e-18
-4.0004427e-18
-3.902947e-18
0
0
0
3.5298509e-18
3.4407375e-18
-3.3532632e-18
0
3.1831776e-18
0
1.5097409e-18
-2.939994e-18
-1.4310295e-18
1.3928309e-18
-2.710786e-18
-1.3187078e-18
2.5655345e-18
1.2475634e-18
1.3468843e-30
-1.1793321e-18
2.5451071e-30
-6.3320506e-34
-2.1645981e-18
0
1.0210543e-18
1.9828773e-18
9.6248203e-19
0
0
0
8.5306655e-19
-1.6545435e-18
-8.0208211e-19
7.7748826e-19
7.5348063e-19
-7.3005007e-19
-7.0718791e-19
1.3697703e-18
0
-1.2838469e-18
-1.2424934e-18
0
0
1.124644e-18
6.0357227e-31
5.2553371e-19
5.0786133e-19
-4.906594e-19
4.7391994e-19
-4.5763448e-19
-8.8358692e-19
-4.2638722e-19
0
7.9368534e-19
4.2473346e-31
-3.6893613e-19
3.5557864e-19
3.4260794e-19
6.6003133e-19
-6.355856e-19
-3.0593062e-19
8.36795e-35
-2.832564e-19
5.4486019e-19
-2.6193548e-19
2.5176579e-19
2.2408243e-47
-2.3237037e-19
4.4625594e-19
-4.2835674e-19
-4.1103021e-19
0
1.8902352e-19
3.6236678e-19
-9.6363888e-32
-1.6628098e-19
-1.5920504e-19
3.0474077e-19
2.9154091e-19
-1.3939949e-19
-2.6650329e-19
-2.5464359e-19
1.216047e-19
2.3218962e-19
-1.1078605e-19
1.0567199e-19
-1.6773719e-31
-9.6003816e-20
1.8287978e-19
-1.7410123e-19
-9.1932445e-32
4.3730498e-31
-1.497725e-19
1.4229765e-19
3.0001518e-31
-6.4120633e-20
1.2164205e-19
-5.7659185e-20
1.552862e-35
-2.297697e-31
-4.8962139e-20
9.260855e-20
-9.7187612e-32
2.2947087e-32
-3.9037576e-20
1.046796e-35
6.9455804e-20
-6.5453442e-20
-1.7521362e-35
1.2884505e-31
-5.4592803e-20
5.1328148e-20
5.3542875e-32
-4.5294705e-20
2.1258417e-20
1.9946193e-20
1.8708144e-20
-1.7540905e-20
1.8251465e-32
3.0806505e-20
0
0
-2.5314702e-20
-3.3716503e-36
2.2251293e-20
-1.0441268e-20
1.0882933e-32
-9.2158571e-21
-1.9251358e-32
1.63394e-20
0
7.2977834e-21
-1.3845768e-20
-6.5847211e-21
1.3946987e-32
-6.0101699e-21
1.1548205e-20
-5.573477e-21
5.9999539e-33
1.0544085e-20
0
0
-5.0162553e-21
2.7609348e-33
-4.955748e-21
4.9601906e-21
1.4962096e-20
-1.5093322e-20
-5.0978847e-21
1.0366074e-20
-5.284258e-21
-9.0090487e-33
-5.552801e-21
3.2451979e-36
1.9567467e-32
-6.0502945e-21
1.2457082e-20
6.4153773e-21
0
6.8447902e-21
-7.0764875e-21
-7.3161073e-21
-7.5645315e-21
1.7370717e-32
-8.9818474e-33
9.2890597e-33
1.7301651e-20
-8.9316615e-21
-1.5335685e-32
1.8988071e-20
-1.3911826e-36
-1.0095584e-20
-2.08178e-20
-2.1453924e-20
2.2098576e-20
1.263588e-32
1.1706829e-20
1.2038051e-20
-2.4731124e-20
2.5372639e-20
1.3005858e-20
-4.0006656e-20
-2.735818e-20