/*--------------------------------*- C++ -*----------------------------------*\
  =========                 |
  \\      /  F ield         | OpenFOAM: The Open Source CFD Toolbox
   \\    /   O peration     | Website:  https://openfoam.org
    \\  /    A nd           | Version:  7
     \\/     M anipulation  |
\*---------------------------------------------------------------------------*/
FoamFile
{
    version     2.0;
    format      ascii;
    class       volScalarField;
    location    "0.00129";
    object      p;
}
// * * * * * * * * * * * * * * * * * * * * * * * * * * * * * * * * * * * * * //

dimensions      [1 -1 -2 0 0 0 0];

internalField   nonuniform List<scalar> 
5000
(
95716.726
95727.696
95738.988
95750.323
95761.669
95773.014
95784.356
95795.696
95807.033
95818.366
95829.695
95841.018
95852.333
95863.64
95874.938
95886.226
95897.501
95908.764
95920.014
95931.247
95942.465
95953.665
95964.847
95976.011
95987.157
95998.286
96009.399
96020.498
96031.584
96042.656
96053.716
96064.763
96075.795
96086.812
96097.813
96108.796
96119.758
96130.7
96141.619
96152.514
96163.384
96174.228
96185.045
96195.834
96206.594
96217.325
96228.025
96238.693
96249.329
96259.933
96270.502
96281.035
96291.533
96301.994
96312.418
96322.802
96333.147
96343.452
96353.714
96363.934
96374.111
96384.242
96394.327
96404.365
96414.355
96424.295
96434.185
96444.023
96453.807
96463.537
96473.212
96482.83
96492.389
96501.889
96511.329
96520.707
96530.022
96539.274
96548.461
96557.582
96566.636
96575.623
96584.541
96593.39
96602.168
96610.875
96619.508
96628.068
96636.552
96644.959
96653.288
96661.538
96669.706
96677.79
96685.791
96693.704
96701.53
96709.266
96716.91
96724.461
96731.918
96739.277
96746.539
96753.7
96760.76
96767.717
96774.569
96781.315
96787.953
96794.482
96800.9
96807.206
96813.399
96819.475
96825.436
96831.278
96837
96842.602
96848.081
96853.436
96858.666
96863.77
96868.745
96873.591
96878.305
96882.888
96887.337
96891.65
96895.828
96899.867
96903.767
96907.526
96911.143
96914.617
96917.947
96921.13
96924.167
96927.056
96929.796
96932.386
96934.825
96937.113
96939.247
96941.229
96943.056
96944.728
96946.246
96947.607
96948.812
96949.86
96950.75
96951.482
96952.055
96952.469
96952.717
96952.802
96952.723
96952.488
96952.088
96951.526
96950.801
96949.912
96948.858
96947.64
96946.256
96944.706
96942.989
96941.104
96939.053
96936.832
96934.443
96931.886
96929.158
96926.261
96923.194
96919.956
96916.548
96912.97
96909.22
96905.3
96901.208
96896.946
96892.512
96887.908
96883.132
96878.186
96873.07
96867.783
96862.326
96856.7
96850.904
96844.939
96838.805
96832.502
96826.032
96819.394
96812.589
96805.617
96798.479
96791.175
96783.707
96776.074
96768.277
96760.318
96752.197
96743.914
96735.471
96726.869
96718.107
96709.188
96700.112
96690.879
96681.491
96671.949
96662.253
96652.405
96642.406
96632.255
96621.955
96611.506
96600.91
96590.166
96579.276
96568.241
96557.061
96545.739
96534.274
96522.668
96510.921
96499.034
96487.009
96474.847
96462.548
96450.113
96437.544
96424.841
96412.006
96399.039
96385.941
96372.715
96359.36
96345.877
96332.269
96318.536
96304.679
96290.7
96276.599
96262.378
96248.037
96233.579
96219.005
96204.315
96189.511
96174.594
96159.566
96144.428
96129.181
96113.827
96098.366
96082.8
96067.131
96051.36
96035.489
96019.518
96003.449
95987.284
95971.024
95954.67
95938.223
95921.686
95905.06
95888.346
95871.545
95854.659
95837.689
95820.636
95803.503
95786.29
95768.999
95751.631
95734.188
95716.671
95699.081
95681.419
95663.688
95645.888
95628.02
95610.087
95592.088
95574.027
95555.903
95537.719
95519.475
95501.173
95482.815
95464.401
95445.933
95427.412
95408.84
95390.217
95371.546
95352.827
95334.062
95315.252
95296.399
95277.503
95258.567
95239.591
95220.578
95201.527
95182.441
95163.321
95144.169
95124.985
95105.772
95086.53
95067.261
95047.966
95028.647
95009.306
94989.943
94970.56
94951.159
94931.74
94912.307
94892.858
94873.398
94853.926
94834.444
94814.955
94795.459
94775.957
94756.452
94736.945
94717.438
94697.931
94678.427
94658.927
94639.433
94619.946
94600.468
94581
94561.545
94542.102
94522.675
94503.264
94483.871
94464.498
94445.146
94425.817
94406.513
94387.234
94367.983
94348.761
94329.57
94310.41
94291.284
94272.194
94253.14
94234.124
94215.148
94196.213
94177.322
94158.474
94139.673
94120.919
94102.214
94083.559
94064.956
94046.407
94027.913
94009.476
93991.097
93972.778
93954.52
93936.325
93918.195
93900.13
93882.134
93864.206
93846.35
93828.566
93810.856
93793.222
93775.665
93758.187
93740.79
93723.475
93706.245
93689.1
93672.042
93655.074
93638.196
93621.411
93604.719
93588.124
93571.627
93555.228
93538.931
93522.736
93506.646
93490.662
93474.786
93459.02
93443.365
93427.823
93412.397
93397.086
93381.894
93366.822
93351.871
93337.044
93322.342
93307.767
93293.32
93279.003
93264.818
93250.766
93236.85
93223.07
93209.428
93195.926
93182.566
93169.348
93156.276
93143.349
93130.57
93117.94
93105.461
93093.134
93080.961
93068.943
93057.081
93045.378
93033.834
93022.451
93011.23
93000.172
92989.279
92978.553
92967.993
92957.603
92947.383
92937.333
92927.456
92917.753
92908.224
92898.872
92889.696
92880.698
92871.879
92863.241
92854.783
92846.507
92838.415
92830.506
92822.782
92815.243
92807.891
92800.726
92793.749
92786.96
92780.36
92773.95
92767.731
92761.702
92755.865
92750.219
92744.766
92739.506
92734.438
92729.563
92724.882
92720.395
92716.101
92712.002
92708.096
92704.384
92700.866
92697.542
92694.411
92691.474
92688.73
92686.18
92683.821
92681.655
92679.681
92677.898
92676.306
92674.904
92673.692
92672.669
92671.833
92671.185
92670.724
92670.453
92670.37
92670.471
92670.754
92671.22
92671.866
92672.693
92673.697
92674.879
92676.238
92677.771
92679.477
92681.356
92683.405
92685.624
92688.01
92690.563
92693.28
92696.16
92699.201
92702.402
92705.761
92709.276
92712.946
92716.768
92720.741
92724.862
92729.131
92733.545
92738.101
92742.799
92747.636
92752.61
92757.719
92762.961
92768.335
92773.836
92779.465
92785.219
92791.094
92797.091
92803.205
92809.436
92815.781
92822.237
92828.804
92835.478
92842.257
92849.14
92856.123
92863.206
92870.386
92877.661
92885.028
92892.486
92900.032
92907.665
92915.382
92923.182
92931.062
92939.021
92947.056
92955.165
92963.347
92971.6
92979.921
92988.309
92996.763
93005.279
93013.857
93022.495
93031.191
93039.943
93048.749
93057.609
93066.52
93075.481
93084.489
93093.545
93102.646
93111.791
93120.977
93130.205
93139.472
93148.778
93158.12
93167.498
93176.91
93186.356
93195.833
93205.341
93214.879
93224.445
93234.039
93243.659
93253.304
93262.974
93272.668
93282.384
93292.121
93301.879
93311.658
93321.455
93331.27
93341.103
93350.953
93360.819
93370.7
93380.595
93390.505
93400.428
93410.363
93420.311
93430.271
93440.241
93450.222
93460.212
93470.213
93480.222
93490.239
93500.265
93510.298
93520.339
93530.387
93540.441
93550.501
93560.567
93570.638
93580.714
93590.796
93600.881
93610.971
93621.065
93631.163
93641.264
93651.369
93661.476
93671.586
93681.699
93691.815
93701.932
93712.052
93722.173
93732.296
93742.421
93752.548
93762.675
93772.804
93782.934
93793.065
93803.197
93813.329
93823.463
93833.597
93843.731
93853.866
93864.002
93874.138
93884.274
93894.41
93904.547
93914.683
93924.82
93934.957
93945.095
93955.232
93965.369
93975.506
93985.644
93995.781
94005.918
94016.056
94026.193
94036.33
94046.468
94056.605
94066.742
94076.88
94087.017
94097.154
94107.292
94117.429
94127.567
94137.704
94147.842
94157.98
94168.118
94178.256
94188.394
94198.532
94208.67
94218.809
94228.947
94239.086
94249.225
94259.364
94269.503
94279.643
94289.782
94299.922
94310.062
94320.202
94330.342
94340.483
94350.624
94360.764
94370.905
94381.046
94391.187
94401.329
94411.47
94421.611
94431.753
94441.894
94452.036
94462.178
94472.319
94482.461
94492.602
94502.744
94512.885
94523.027
94533.168
94543.309
94553.45
94563.591
94573.732
94583.872
94594.012
94604.152
94614.291
94624.43
94634.569
94644.708
94654.846
94664.984
94675.121
94685.258
94695.394
94705.53
94715.665
94725.8
94735.934
94746.068
94756.201
94766.333
94776.465
94786.596
94796.727
94806.856
94816.985
94827.114
94837.241
94847.368
94857.494
94867.62
94877.744
94887.868
94897.991
94908.113
94918.234
94928.354
94938.474
94948.593
94958.71
94968.827
94978.943
94989.058
94999.173
95009.286
95019.398
95029.51
95039.62
95049.73
95059.839
95069.946
95080.053
95090.159
95100.264
95110.368
95120.471
95130.573
95140.674
95150.774
95160.873
95170.971
95181.069
95191.165
95201.26
95211.355
95221.448
95231.541
95241.632
95251.723
95261.813
95271.902
95281.99
95292.077
95302.163
95312.248
95322.333
95332.416
95342.499
95352.581
95362.662
95372.743
95382.822
95392.901
95402.979
95413.056
95423.133
95433.209
95443.284
95453.359
95463.432
95473.506
95483.578
95493.65
95503.722
95513.793
95523.863
95533.933
95544.002
95554.071
95564.139
95574.207
95584.275
95594.342
95604.409
95614.475
95624.542
95634.607
95644.673
95654.738
95664.803
95674.868
95684.933
95694.997
95705.061
95715.125
95725.189
95735.253
95745.317
95755.381
95765.444
95775.507
95785.571
95795.634
95805.697
95815.761
95825.824
95835.887
95845.95
95856.013
95866.077
95876.14
95886.203
95896.266
95906.329
95916.392
95926.456
95936.519
95946.582
95956.645
95966.708
95976.771
95986.834
95996.897
96006.96
96017.023
96027.086
96037.149
96047.211
96057.274
96067.336
96077.398
96087.46
96097.522
96107.584
96117.646
96127.707
96137.768
96147.829
96157.89
96167.95
96178.01
96188.07
96198.129
96208.189
96218.247
96228.306
96238.363
96248.421
96258.479
96268.536
96278.594
96288.649
96298.705
96308.759
96318.813
96328.867
96338.919
96348.972
96359.024
96369.075
96379.126
96389.175
96399.225
96409.274
96419.323
96429.37
96439.416
96449.462
96459.507
96469.551
96479.595
96489.637
96499.68
96509.721
96519.762
96529.801
96539.839
96549.877
96559.914
96569.95
96579.986
96590.02
96600.053
96610.085
96620.117
96630.147
96640.177
96650.205
96660.233
96670.259
96680.283
96690.308
96700.332
96710.353
96720.374
96730.394
96740.413
96750.43
96760.445
96770.46
96780.474
96790.487
96800.498
96810.508
96820.516
96830.524
96840.53
96850.536
96860.54
96870.542
96880.543
96890.543
96900.542
96910.54
96920.537
96930.532
96940.525
96950.518
96960.509
96970.5
96980.489
96990.477
97000.464
97010.449
97020.433
97030.418
97040.4
97050.381
97060.361
97070.339
97080.316
97090.294
97100.27
97110.245
97120.218
97130.19
97140.161
97150.132
97160.102
97170.071
97180.039
97190.006
97199.972
97209.937
97219.902
97229.866
97239.828
97249.79
97259.752
97269.712
97279.673
97289.633
97299.592
97309.55
97319.507
97329.464
97339.421
97349.377
97359.333
97369.289
97379.244
97389.199
97399.154
97409.109
97419.063
97429.016
97438.97
97448.924
97458.878
97468.831
97478.785
97488.738
97498.692
97508.645
97518.599
97528.552
97538.506
97548.459
97558.413
97568.367
97578.321
97588.275
97598.229
97608.183
97618.137
97628.092
97638.046
97648.001
97657.956
97667.91
97677.866
97687.822
97697.777
97707.732
97717.687
97727.642
97737.598
97747.554
97757.51
97767.466
97777.422
97787.378
97797.334
97807.291
97817.247
97827.203
97837.159
97847.116
97857.072
97867.029
97876.986
97886.942
97896.898
97906.854
97916.809
97926.765
97936.72
97946.675
97956.63
97966.585
97976.54
97986.494
97996.448
98006.401
98016.353
98026.306
98036.258
98046.21
98056.162
98066.114
98076.065
98086.015
98095.966
98105.916
98115.865
98125.815
98135.763
98145.712
98155.66
98165.607
98175.554
98185.501
98195.447
98205.393
98215.338
98225.282
98235.226
98245.169
98255.112
98265.054
98274.996
98284.938
98294.877
98304.817
98314.755
98324.693
98334.631
98344.568
98354.504
98364.439
98374.374
98384.308
98394.241
98404.174
98414.105
98424.036
98433.966
98443.896
98453.825
98463.753
98473.68
98483.606
98493.532
98503.457
98513.381
98523.304
98533.226
98543.147
98553.068
98562.988
98572.907
98582.826
98592.743
98602.66
98612.576
98622.491
98632.405
98642.318
98652.231
98662.143
98672.054
98681.964
98691.873
98701.781
98711.689
98721.596
98731.502
98741.407
98751.311
98761.214
98771.117
98781.018
98790.919
98800.819
98810.718
98820.617
98830.514
98840.411
98850.307
98860.202
98870.096
98879.989
98889.881
98899.772
98909.663
98919.553
98929.442
98939.33
98949.217
98959.104
98968.989
98978.874
98988.758
98998.641
99008.524
99018.406
99028.286
99038.166
99048.046
99057.924
99067.802
99077.678
99087.554
99097.429
99107.303
99117.176
99127.047
99136.918
99146.788
99156.656
99166.523
99176.39
99186.256
99196.121
99205.985
99215.848
99225.711
99235.573
99245.434
99255.295
99265.155
99275.014
99284.873
99294.73
99304.587
99314.443
99324.299
99334.153
99344.007
99353.86
99363.712
99373.562
99383.412
99393.26
99403.107
99412.952
99422.797
99432.64
99442.482
99452.323
99462.163
99472.003
99481.841
99491.679
99501.516
99511.351
99521.186
99531.019
99540.851
99550.682
99560.511
99570.34
99580.167
99589.993
99599.818
99609.642
99619.465
99629.287
99639.107
99648.925
99658.739
99668.549
99678.356
99688.161
99697.969
99707.776
99717.581
99727.38
99737.18
99746.987
99756.804
99766.632
99776.463
99786.294
99796.123
99805.951
99815.778
99825.603
99835.427
99845.249
99855.07
99864.889
99874.707
99884.524
99894.339
99904.153
99913.965
99923.776
99933.586
99943.395
99953.203
99963.009
99972.814
99982.618
99992.42
100002.22
100012.02
100021.82
100031.62
100041.42
100051.21
100061.01
100070.8
100080.6
100090.39
100100.18
100109.97
100119.76
100129.55
100139.33
100149.12
100158.91
100168.69
100178.48
100188.26
100198.04
100207.82
100217.6
100227.38
100237.16
100246.94
100256.72
100266.49
100276.27
100286.04
100295.82
100305.59
100315.36
100325.13
100334.9
100344.67
100354.44
100364.21
100373.98
100383.74
100393.51
100403.27
100413.04
100422.8
100432.56
100442.33
100452.09
100461.85
100471.61
100481.36
100491.12
100500.88
100510.63
100520.39
100530.14
100539.9
100549.65
100559.4
100569.15
100578.9
100588.65
100598.4
100608.15
100617.9
100627.64
100637.39
100647.14
100656.88
100666.62
100676.36
100686.11
100695.85
100705.59
100715.33
100725.07
100734.8
100744.54
100754.28
100764.01
100773.75
100783.48
100793.21
100802.95
100812.68
100822.41
100832.14
100841.87
100851.6
100861.32
100871.05
100880.78
100890.5
100900.23
100909.95
100919.67
100929.39
100939.12
100948.84
100958.56
100968.27
100977.99
100987.71
100997.43
101007.14
101016.86
101026.57
101036.29
101046
101055.71
101065.42
101075.13
101084.84
101094.55
101104.26
101113.97
101123.67
101133.38
101143.09
101152.79
101162.49
101172.2
101181.9
101191.6
101201.3
101211
101220.7
101230.4
101240.09
101249.79
101259.49
101269.18
101278.88
101288.57
101298.26
101307.96
101317.65
101327.34
101337.03
101346.72
101356.41
101366.09
101375.78
101385.47
101395.15
101404.84
101414.52
101424.21
101433.89
101443.57
101453.25
101462.93
101472.61
101482.29
101491.97
101501.65
101511.32
101521
101530.67
101540.35
101550.02
101559.7
101569.37
101579.04
101588.71
101598.38
101608.05
101617.72
101627.39
101637.06
101646.73
101656.39
101666.06
101675.72
101685.39
101695.05
101704.71
101714.38
101724.04
101733.7
101743.36
101753.02
101762.68
101772.34
101782
101791.65
101801.31
101810.97
101820.62
101830.28
101839.93
101849.59
101859.24
101868.89
101878.54
101888.19
101897.85
101907.5
101917.15
101926.79
101936.44
101946.09
101955.74
101965.38
101975.03
101984.68
101994.32
102003.97
102013.61
102023.25
102032.9
102042.54
102052.18
102061.82
102071.46
102081.1
102090.74
102100.38
102110.02
102119.66
102129.3
102138.93
102148.57
102158.21
102167.84
102177.48
102187.11
102196.74
102206.38
102216.01
102225.64
102235.28
102244.91
102254.54
102264.17
102273.8
102283.43
102293.06
102302.69
102312.32
102321.95
102331.57
102341.2
102350.83
102360.45
102370.08
102379.71
102389.33
102398.96
102408.58
102418.2
102427.83
102437.45
102447.07
102456.69
102466.32
102475.94
102485.56
102495.18
102504.8
102514.42
102524.04
102533.66
102543.28
102552.9
102562.51
102572.13
102581.75
102591.36
102600.98
102610.6
102620.21
102629.83
102639.44
102649.06
102658.67
102668.29
102677.9
102687.51
102697.13
102706.74
102716.35
102725.96
102735.57
102745.19
102754.8
102764.41
102774.02
102783.63
102793.24
102802.84
102812.45
102822.06
102831.67
102841.28
102850.89
102860.49
102870.1
102879.71
102889.31
102898.92
102908.52
102918.13
102927.73
102937.34
102946.94
102956.54
102966.15
102975.75
102985.35
102994.96
103004.56
103014.16
103023.76
103033.36
103042.96
103052.56
103062.17
103071.76
103081.36
103090.96
103100.56
103110.16
103119.76
103129.36
103138.95
103148.55
103158.15
103167.75
103177.34
103186.94
103196.53
103206.13
103215.72
103225.32
103234.91
103244.51
103254.1
103263.69
103273.29
103282.88
103292.47
103302.06
103311.65
103321.24
103330.83
103340.42
103350.01
103359.6
103369.19
103378.78
103388.37
103397.96
103407.55
103417.13
103426.72
103436.31
103445.89
103455.48
103465.06
103474.65
103484.23
103493.82
103503.4
103512.99
103522.57
103532.15
103541.73
103551.32
103560.9
103570.48
103580.06
103589.64
103599.22
103608.8
103618.38
103627.95
103637.53
103647.11
103656.69
103666.26
103675.84
103685.41
103694.99
103704.56
103714.14
103723.71
103733.28
103742.86
103752.43
103762
103771.57
103781.14
103790.71
103800.28
103809.85
103819.42
103828.99
103838.55
103848.12
103857.69
103867.25
103876.82
103886.38
103895.94
103905.51
103915.07
103924.63
103934.19
103943.76
103953.32
103962.88
103972.44
103981.99
103991.55
104001.11
104010.67
104020.22
104029.78
104039.33
104048.89
104058.44
104067.99
104077.55
104087.1
104096.65
104106.2
104115.75
104125.3
104134.85
104144.39
104153.94
104163.49
104173.03
104182.58
104192.12
104201.67
104211.21
104220.75
104230.29
104239.83
104249.37
104258.91
104268.45
104277.99
104287.53
104297.06
104306.6
104316.14
104325.67
104335.2
104344.74
104354.27
104363.8
104373.33
104382.86
104392.39
104401.92
104411.45
104420.97
104430.5
104440.03
104449.55
104459.08
104468.6
104478.12
104487.64
104497.16
104506.68
104516.2
104525.72
104535.24
104544.76
104554.27
104563.79
104573.31
104582.82
104592.33
104601.85
104611.36
104620.87
104630.38
104639.89
104649.4
104658.91
104668.41
104677.92
104687.42
104696.93
104706.43
104715.94
104725.44
104734.94
104744.44
104753.94
104763.44
104772.94
104782.44
104791.94
104801.43
104810.93
104820.42
104829.92
104839.41
104848.9
104858.39
104867.88
104877.37
104886.86
104896.35
104905.84
104915.33
104924.81
104934.3
104943.78
104953.27
104962.75
104972.23
104981.71
104991.19
105000.67
105010.15
105019.63
105029.11
105038.58
105048.06
105057.53
105067.01
105076.48
105085.95
105095.43
105104.9
105114.37
105123.84
105133.31
105142.77
105152.24
105161.71
105171.17
105180.64
105190.1
105199.57
105209.03
105218.49
105227.95
105237.41
105246.87
105256.33
105265.79
105275.24
105284.7
105294.15
105303.61
105313.06
105322.52
105331.97
105341.42
105350.87
105360.32
105369.77
105379.22
105388.66
105398.11
105407.56
105417
105426.45
105435.89
105445.33
105454.78
105464.22
105473.66
105483.1
105492.54
105501.97
105511.41
105520.85
105530.28
105539.72
105549.15
105558.59
105568.02
105577.45
105586.88
105596.31
105605.74
105615.17
105624.6
105634.02
105643.45
105652.88
105662.3
105671.72
105681.15
105690.57
105699.99
105709.41
105718.83
105728.25
105737.67
105747.09
105756.5
105765.92
105775.34
105784.75
105794.16
105803.58
105812.99
105822.4
105831.81
105841.22
105850.63
105860.04
105869.45
105878.85
105888.26
105897.66
105907.07
105916.47
105925.87
105935.28
105944.68
105954.08
105963.48
105972.88
105982.27
105991.67
106001.07
106010.46
106019.86
106029.25
106038.65
106048.04
106057.43
106066.82
106076.21
106085.6
106094.99
106104.38
106113.77
106123.15
106132.54
106141.92
106151.31
106160.69
106170.07
106179.45
106188.84
106198.22
106207.59
106216.97
106226.35
106235.73
106245.1
106254.48
106263.85
106273.23
106282.6
106291.97
106301.35
106310.72
106320.09
106329.45
106338.82
106348.19
106357.56
106366.92
106376.29
106385.65
106395.02
106404.38
106413.74
106423.1
106432.46
106441.82
106451.18
106460.54
106469.9
106479.26
106488.61
106497.97
106507.32
106516.67
106526.03
106535.38
106544.73
106554.08
106563.43
106572.78
106582.13
106591.47
106600.82
106610.17
106619.51
106628.86
106638.2
106647.54
106656.88
106666.22
106675.56
106684.9
106694.24
106703.58
106712.92
106722.25
106731.59
106740.92
106750.26
106759.59
106768.92
106778.25
106787.58
106796.91
106806.24
106815.57
106824.9
106834.23
106843.55
106852.88
106862.2
106871.53
106880.85
106890.17
106899.49
106908.81
106918.13
106927.45
106936.77
106946.08
106955.4
106964.72
106974.03
106983.35
106992.66
107001.97
107011.28
107020.59
107029.9
107039.21
107048.52
107057.83
107067.13
107076.44
107085.74
107095.05
107104.35
107113.65
107122.96
107132.26
107141.56
107150.86
107160.15
107169.45
107178.75
107188.04
107197.34
107206.63
107215.92
107225.22
107234.51
107243.8
107253.09
107262.38
107271.66
107280.95
107290.24
107299.52
107308.8
107318.09
107327.37
107336.65
107345.93
107355.21
107364.49
107373.76
107383.04
107392.31
107401.59
107410.86
107420.13
107429.4
107438.67
107447.94
107457.2
107466.47
107475.73
107485
107494.26
107503.52
107512.78
107522.04
107531.29
107540.55
107549.8
107559.06
107568.31
107577.56
107586.81
107596.05
107605.3
107614.54
107623.78
107633.03
107642.26
107651.5
107660.74
107669.97
107679.2
107688.43
107697.66
107706.88
107716.11
107725.33
107734.55
107743.77
107752.98
107762.19
107771.41
107780.61
107789.82
107799.02
107808.22
107817.42
107826.61
107835.81
107844.99
107854.18
107863.36
107872.54
107881.72
107890.89
107900.06
107909.23
107918.39
107927.55
107936.71
107945.86
107955
107964.15
107973.29
107982.42
107991.55
108000.67
108009.8
108018.91
108028.02
108037.13
108046.23
108055.32
108064.41
108073.49
108082.57
108091.64
108100.71
108109.77
108118.82
108127.86
108136.9
108145.94
108154.96
108163.98
108172.99
108181.99
108190.98
108199.97
108208.94
108217.91
108226.87
108235.82
108244.76
108253.69
108262.62
108271.53
108280.43
108289.32
108298.2
108307.07
108315.93
108324.77
108333.61
108342.43
108351.24
108360.04
108368.82
108377.6
108386.35
108395.1
108403.83
108412.54
108421.25
108429.93
108438.6
108447.26
108455.9
108464.52
108473.13
108481.72
108490.29
108498.84
108507.38
108515.9
108524.4
108532.88
108541.34
108549.78
108558.2
108566.6
108574.98
108583.33
108591.67
108599.98
108608.27
108616.54
108624.79
108633.01
108641.21
108649.38
108657.53
108665.65
108673.74
108681.82
108689.86
108697.88
108705.87
108713.83
108721.76
108729.67
108737.54
108745.39
108753.2
108760.99
108768.74
108776.47
108784.16
108791.82
108799.45
108807.04
108814.6
108822.13
108829.62
108837.08
108844.5
108851.89
108859.24
108866.56
108873.84
108881.08
108888.29
108895.45
108902.58
108909.67
108916.72
108923.73
108930.7
108937.63
108944.52
108951.37
108958.17
108964.94
108971.66
108978.34
108984.98
108991.57
108998.12
109004.63
109011.09
109017.51
109023.88
109030.21
109036.49
109042.72
109048.91
109055.05
109061.15
109067.2
109073.2
109079.15
109085.06
109090.91
109096.72
109102.48
109108.19
109113.86
109119.47
109125.03
109130.55
109136.01
109141.42
109146.79
109152.1
109157.36
109162.57
109167.74
109172.85
109177.91
109182.91
109187.87
109192.78
109197.63
109202.43
109207.19
109211.89
109216.54
109221.13
109225.68
109230.17
109234.61
109239.01
109243.35
109247.63
109251.87
109256.06
109260.19
109264.27
109268.3
109272.29
109276.22
109280.09
109283.92
109287.7
109291.43
109295.11
109298.73
109302.31
109305.84
109309.32
109312.75
109316.13
109319.46
109322.74
109325.98
109329.17
109332.3
109335.4
109338.44
109341.44
109344.39
109347.29
109350.15
109352.96
109355.73
109358.45
109361.13
109363.76
109366.35
109368.89
109371.39
109373.85
109376.27
109378.64
109380.97
109383.26
109385.51
109387.72
109389.88
109392.01
109394.1
109396.15
109398.16
109400.13
109402.07
109403.96
109405.82
109407.65
109409.43
109411.18
109412.9
109414.58
109416.23
109417.84
109419.42
109420.97
109422.48
109423.96
109425.41
109426.83
109428.22
109429.58
109430.91
109432.2
109433.47
109434.71
109435.93
109437.11
109438.27
109439.4
109440.51
109441.58
109442.64
109443.66
109444.67
109445.65
109446.6
109447.53
109448.44
109449.33
109450.2
109451.04
109451.86
109452.66
109453.44
109454.2
109454.94
109455.66
109456.36
109457.05
109457.71
109458.36
109458.99
109459.6
109460.2
109460.78
109461.34
109461.89
109462.43
109462.94
109463.45
109463.94
109464.41
109464.87
109465.32
109465.76
109466.18
109466.59
109466.99
109467.37
109467.75
109468.11
109468.47
109468.81
109469.14
109469.46
109469.77
109470.07
109470.37
109470.65
109470.92
109471.19
109471.45
109471.69
109471.94
109472.17
109472.39
109472.61
109472.82
109473.03
109473.22
109473.42
109473.6
109473.78
109473.95
109474.12
109474.28
109474.43
109474.58
109474.73
109474.87
109475
109475.13
109475.26
109475.38
109475.5
109475.61
109475.72
109475.82
109475.92
109476.02
109476.11
109476.2
109476.29
109476.37
109476.45
109476.53
109476.61
109476.68
109476.75
109476.81
109476.88
109476.94
109477
109477.06
109477.11
109477.16
109477.21
109477.26
109477.31
109477.35
109477.4
109477.44
109477.48
109477.52
109477.55
109477.59
109477.62
109477.65
109477.69
109477.72
109477.74
109477.77
109477.8
109477.82
109477.85
109477.87
109477.89
109477.91
109477.93
109477.95
109477.97
109477.99
109478.01
109478.02
109478.04
109478.05
109478.07
109478.08
109478.09
109478.11
109478.12
109478.13
109478.14
109478.15
109478.16
109478.17
109478.18
109478.19
109478.2
109478.21
109478.21
109478.22
109478.23
109478.23
109478.24
109478.25
109478.25
109478.26
109478.26
109478.27
109478.27
109478.28
109478.28
109478.29
109478.29
109478.29
109478.3
109478.3
109478.3
109478.31
109478.31
109478.31
109478.31
109478.32
109478.32
109478.32
109478.32
109478.32
109478.33
109478.33
109478.33
109478.33
109478.33
109478.33
109478.33
109478.33
109478.33
109478.33
109478.34
109478.34
109478.34
109478.34
109478.34
109478.34
109478.34
109478.34
109478.34
109478.34
109478.34
109478.34
109478.34
109478.33
109478.33
109478.33
109478.33
109478.33
109478.33
109478.33
109478.33
109478.33
109478.33
109478.32
109478.32
109478.32
109478.32
109478.32
109478.32
109478.32
109478.32
109478.31
109478.31
109478.31
109478.31
109478.31
109478.3
109478.3
109478.3
109478.3
109478.29
109478.29
109478.29
109478.29
109478.29
109478.28
109478.28
109478.28
109478.28
109478.27
109478.27
109478.27
109478.26
109478.26
109478.26
109478.25
109478.25
109478.25
109478.25
109478.25
109478.25
109478.24
109478.24
109478.24
109478.23
109478.23
109478.22
109478.22
109478.21
109478.21
109478.2
109478.2
109478.2
109478.2
109478.2
109478.2
109478.2
109478.2
109478.2
109478.19
109478.18
109478.17
109478.16
109478.15
109478.14
109478.13
109478.12
109478.12
109478.13
109478.14
109478.15
109478.15
109478.16
109478.16
109478.15
109478.13
109478.11
109478.08
109478.05
109478.02
109477.99
109477.98
109477.97
109477.98
109478.01
109478.05
109478.1
109478.15
109478.15
109478.15
109477.77
109477.84
109477.84
109477.84
109477.85
109477.88
109477.89
109477.89
109477.88
109477.86
109477.84
109477.81
109477.77
109477.73
109477.7
109477.66
109477.63
109477.6
109477.57
109477.55
109477.52
109477.5
109477.47
109477.43
109477.4
109477.36
109477.31
109477.26
109477.21
109477.16
109477.11
109477.05
109476.99
109476.93
109476.87
109476.81
109476.74
109476.67
109476.6
109476.53
109476.45
109476.36
109476.28
109476.18
109476.09
109475.99
109475.89
109475.78
109475.67
109475.55
109475.43
109475.3
109475.17
109475.03
109474.89
109474.75
109474.59
109474.43
109474.27
109474.1
109473.92
109473.73
109473.54
109473.34
109473.13
109472.92
109472.69
109472.46
109472.22
109471.97
109471.72
109471.45
109471.18
109470.89
109470.59
109470.29
109469.97
109469.64
109469.3
109468.95
109468.59
109468.22
109467.83
109467.43
109467.02
109466.59
109466.15
109465.69
109465.22
109464.74
109464.24
109463.73
109463.19
109462.65
109462.08
109461.5
109460.9
109460.28
109459.64
109458.99
109458.31
109457.62
109456.9
109456.17
109455.41
109454.63
109453.83
109453
109452.16
109451.29
109450.39
109449.47
109448.53
109447.56
109446.57
109445.54
109444.5
109443.42
109442.32
109441.18
109440.02
109438.83
109437.61
109436.36
109435.07
109433.76
109432.41
109431.03
109429.62
109428.18
109426.7
109425.18
109423.63
109422.05
109420.42
109418.76
109417.07
109415.33
109413.56
109411.75
109409.9
109408.01
109406.08
109404.1
109402.09
109400.04
109397.94
109395.8
109393.61
109391.39
109389.11
109386.8
109384.43
109382.03
109379.57
109377.07
109374.52
109371.93
109369.28
109366.59
109363.85
109361.06
109358.23
109355.34
109352.4
109349.41
109346.37
109343.28
109340.13
109336.94
109333.69
109330.39
109327.04
109323.63
109320.17
109316.66
109313.09
109309.47
109305.8
109302.07
109298.28
109294.44
109290.55
109286.6
109282.59
109278.53
109274.41
109270.24
109266.01
109261.72
109257.38
109252.99
109248.53
109244.02
109239.46
109234.83
109230.15
109225.42
109220.63
109215.78
109210.87
109205.91
109200.9
109195.82
109190.69
109185.51
109180.27
109174.97
109169.62
109164.21
109158.75
109153.24
109147.66
109142.04
109136.36
109130.62
109124.83
109118.99
109113.1
109107.15
109101.15
109095.09
109088.99
109082.83
109076.62
109070.36
109064.04
109057.68
109051.27
109044.81
109038.29
109031.73
109025.12
109018.46
109011.76
109005
108998.2
108991.35
108984.46
108977.52
108970.53
108963.5
108956.42
108949.3
108942.14
108934.93
108927.68
108920.39
108913.06
108905.68
108898.26
108890.81
108883.31
108875.78
108868.2
108860.59
108852.94
108845.25
108837.52
108829.76
108821.96
108814.13
108806.26
108798.36
108790.42
108782.45
108774.44
108766.41
108758.34
108750.24
108742.11
108733.95
108725.76
108717.54
108709.29
108701.01
108692.7
108684.37
108676.01
108667.62
108659.2
108650.76
108642.3
108633.81
108625.29
108616.76
108608.19
108599.61
108591
108582.37
108573.72
108565.05
108556.36
108547.64
108538.91
108530.16
108521.38
108512.59
108503.78
108494.96
108486.11
108477.25
108468.37
108459.48
108450.57
108441.64
108432.7
108423.74
108414.77
108405.78
108396.78
108387.77
108378.74
108369.7
108360.65
108351.58
108342.5
108333.41
108324.31
108315.2
108306.08
108296.94
108287.8
108278.65
108269.48
108260.31
108251.13
108241.93