/*--------------------------------*- C++ -*----------------------------------*\
  =========                 |
  \\      /  F ield         | OpenFOAM: The Open Source CFD Toolbox
   \\    /   O peration     | Website:  https://openfoam.org
    \\  /    A nd           | Version:  7
     \\/     M anipulation  |
\*---------------------------------------------------------------------------*/
FoamFile
{
    version     2.0;
    format      ascii;
    class       volScalarField;
    location    "0.00129";
    object      rho;
}
// * * * * * * * * * * * * * * * * * * * * * * * * * * * * * * * * * * * * * //

dimensions      [1 -3 0 0 0 0 0];

internalField   nonuniform List<scalar> 
5000
(
1.2114203
1.2114941
1.2116085
1.2116988
1.2118131
1.2119037
1.212018
1.2121085
1.2122229
1.2123132
1.2124276
1.2125178
1.212632
1.212722
1.2128361
1.2129259
1.2130399
1.2131294
1.2132431
1.2133324
1.2134458
1.2135347
1.2136479
1.2137364
1.2138493
1.2139375
1.21405
1.2141379
1.2142503
1.2143379
1.21445
1.2145373
1.2146493
1.2147363
1.2148479
1.2149346
1.215046
1.2151322
1.2152432
1.215329
1.2154396
1.2155249
1.215635
1.2157198
1.2158294
1.2159136
1.2160227
1.2161063
1.2162149
1.2162978
1.2164058
1.2164881
1.2165954
1.2166771
1.2167837
1.2168648
1.2169706
1.217051
1.217156
1.2172357
1.2173398
1.2174189
1.217522
1.2176003
1.2177025
1.21778
1.2178812
1.2179579
1.2180579
1.2181338
1.2182328
1.2183078
1.2184055
1.2184796
1.2185761
1.2186492
1.2187445
1.2188166
1.2189105
1.2189816
1.2190742
1.2191442
1.2192354
1.2193044
1.2193941
1.2194619
1.2195502
1.2196169
1.2197037
1.2197691
1.2198543
1.2199185
1.2200021
1.220065
1.2201468
1.2202084
1.2202884
1.2203486
1.2204268
1.2204856
1.2205618
1.2206191
1.2206934
1.220749
1.2208213
1.2208753
1.2209455
1.2209979
1.2210658
1.2211165
1.2211822
1.2212312
1.2212946
1.2213417
1.2214028
1.2214481
1.2215067
1.2215501
1.2216063
1.2216478
1.2217014
1.2217409
1.2217919
1.2218294
1.2218778
1.2219132
1.2219588
1.2219922
1.2220351
1.2220663
1.2221063
1.2221353
1.2221725
1.2221993
1.2222335
1.222258
1.2222893
1.2223115
1.2223397
1.2223596
1.2223847
1.2224023
1.2224243
1.2224394
1.2224583
1.2224711
1.2224868
1.2224971
1.2225097
1.2225175
1.2225269
1.2225322
1.2225384
1.2225412
1.2225441
1.2225443
1.2225441
1.2225415
1.2225383
1.2225327
1.2225266
1.2225181
1.2225091
1.2224976
1.2224856
1.2224711
1.2224561
1.2224386
1.2224205
1.2224
1.2223789
1.2223554
1.2223313
1.2223047
1.2222775
1.2222478
1.2222175
1.2221849
1.2221514
1.2221159
1.2220791
1.2220406
1.2220008
1.2219592
1.2219162
1.2218716
1.2218255
1.2217779
1.2217287
1.221678
1.2216258
1.2215721
1.2215168
1.22146
1.2214017
1.2213419
1.2212806
1.2212178
1.2211535
1.2210877
1.2210204
1.2209516
1.2208814
1.2208096
1.2207365
1.2206618
1.2205858
1.2205082
1.2204293
1.2203489
1.2202671
1.2201839
1.2200993
1.2200133
1.2199259
1.2198372
1.2197471
1.2196556
1.2195628
1.2194686
1.2193731
1.2192762
1.2191781
1.2190786
1.2189778
1.2188757
1.2187724
1.2186678
1.2185619
1.2184547
1.2183463
1.2182366
1.2181257
1.2180136
1.2179003
1.2177857
1.21767
1.217553
1.2174349
1.2173156
1.2171952
1.2170736
1.2169509
1.216827
1.216702
1.2165759
1.2164487
1.2163204
1.216191
1.2160606
1.2159291
1.2157966
1.215663
1.2155284
1.2153928
1.2152562
1.2151186
1.21498
1.2148405
1.2147
1.2145586
1.2144162
1.2142729
1.2141288
1.2139837
1.2138378
1.2136909
1.2135433
1.2133948
1.2132455
1.2130953
1.2129444
1.2127927
1.2126402
1.2124869
1.2123329
1.2121781
1.2120226
1.2118664
1.2117095
1.2115519
1.2113936
1.2112347
1.2110751
1.2109149
1.210754
1.2105926
1.2104305
1.2102678
1.2101046
1.2099407
1.2097764
1.2096114
1.209446
1.20928
1.2091135
1.2089465
1.208779
1.2086111
1.2084427
1.2082738
1.2081045
1.2079348
1.2077646
1.2075941
1.2074232
1.2072518
1.2070802
1.2069081
1.2067357
1.206563
1.20639
1.2062167
1.2060431
1.2058692
1.205695
1.2055206
1.2053459
1.205171
1.2049959
1.2048206
1.2046451
1.2044694
1.2042936
1.2041176
1.2039414
1.2037652
1.2035888
1.2034123
1.2032358
1.2030592
1.2028825
1.2027058
1.202529
1.2023523
1.2021755
1.2019988
1.201822
1.2016454
1.2014687
1.2012922
1.2011157
1.2009393
1.2007631
1.2005869
1.2004109
1.2002351
1.2000594
1.1998839
1.1997086
1.1995335
1.1993587
1.1991841
1.1990097
1.1988356
1.1986618
1.1984883
1.198315
1.1981422
1.1979696
1.1977974
1.1976256
1.1974541
1.1972831
1.1971124
1.1969422
1.1967724
1.196603
1.1964341
1.1962657
1.1960978
1.1959304
1.1957635
1.1955971
1.1954313
1.1952661
1.1951014
1.1949373
1.1947739
1.194611
1.1944488
1.1942872
1.1941263
1.1939661
1.1938066
1.1936478
1.1934897
1.1933323
1.1931757
1.1930199
1.1928649
1.1927106
1.1925572
1.1924046
1.1922529
1.192102
1.191952
1.1918029
1.1916548
1.1915075
1.1913612
1.1912158
1.1910715
1.1909281
1.1907857
1.1906443
1.190504
1.1903647
1.1902265
1.1900894
1.1899534
1.1898185
1.1896848
1.1895522
1.1894207
1.1892904
1.1891614
1.1890335
1.1889068
1.1887814
1.1886573
1.1885344
1.1884128
1.1882925
1.1881735
1.1880558
1.1879395
1.1878245
1.1877109
1.1875987
1.1874879
1.1873785
1.1872705
1.1871639
1.1870588
1.1869552
1.186853
1.1867523
1.1866531
1.1865554
1.1864593
1.1863647
1.1862716
1.1861801
1.1860901
1.1860017
1.1859149
1.1858298
1.1857462
1.1856642
1.1855839
1.1855052
1.1854282
1.1853528
1.1852791
1.185207
1.1851367
1.185068
1.185001
1.1849358
1.1848722
1.1848104
1.1847503
1.1846919
1.1846352
1.1845803
1.1845271
1.1844757
1.184426
1.1843781
1.1843319
1.1842875
1.1842449
1.184204
1.1841649
1.1841276
1.184092
1.1840582
1.1840262
1.1839959
1.1839674
1.1839406
1.1839157
1.1838924
1.183871
1.1838513
1.1838333
1.1838171
1.1838026
1.1837898
1.1837788
1.1837695
1.1837619
1.1837561
1.1837519
1.1837495
1.1837487
1.1837497
1.1837523
1.1837566
1.1837625
1.1837701
1.1837793
1.1837901
1.1838025
1.1838165
1.1838321
1.1838492
1.183868
1.1838882
1.18391
1.1839333
1.1839581
1.1839844
1.1840121
1.1840413
1.184072
1.1841041
1.1841375
1.1841724
1.1842087
1.1842463
1.1842852
1.1843255
1.184367
1.1844099
1.184454
1.1844993
1.1845459
1.1845937
1.1846427
1.1846929
1.1847442
1.1847967
1.1848502
1.1849049
1.1849607
1.1850175
1.1850753
1.1851342
1.185194
1.1852548
1.1853166
1.1853794
1.185443
1.1855076
1.185573
1.1856393
1.1857064
1.1857744
1.1858432
1.1859127
1.1859831
1.1860541
1.1861259
1.1861984
1.1862716
1.1863455
1.1864201
1.1864952
1.186571
1.1866475
1.1867245
1.186802
1.1868802
1.1869588
1.187038
1.1871178
1.187198
1.1872786
1.1873598
1.1874414
1.1875234
1.1876059
1.1876888
1.187772
1.1878557
1.1879397
1.1880241
1.1881088
1.1881938
1.1882792
1.1883649
1.1884509
1.1885371
1.1886237
1.1887105
1.1887976
1.1888849
1.1889724
1.1890602
1.1891482
1.1892364
1.1893248
1.1894135
1.1895022
1.1895912
1.1896804
1.1897697
1.1898591
1.1899487
1.1900385
1.1901284
1.1902184
1.1903086
1.1903988
1.1904892
1.1905797
1.1906703
1.190761
1.1908517
1.1909426
1.1910335
1.1911246
1.1912157
1.1913068
1.1913981
1.1914894
1.1915807
1.1916722
1.1917636
1.1918551
1.1919467
1.1920383
1.19213
1.1922216
1.1923134
1.1924051
1.1924969
1.1925887
1.1926806
1.1927724
1.1928643
1.1929562
1.1930482
1.1931401
1.1932321
1.1933241
1.193416
1.193508
1.1936001
1.1936921
1.1937841
1.1938761
1.1939682
1.1940602
1.1941523
1.1942443
1.1943364
1.1944285
1.1945205
1.1946126
1.1947047
1.1947967
1.1948888
1.1949809
1.1950729
1.195165
1.195257
1.1953491
1.1954411
1.1955332
1.1956252
1.1957173
1.1958093
1.1959014
1.1959934
1.1960855
1.1961775
1.1962695
1.1963615
1.1964536
1.1965456
1.1966376
1.1967296
1.1968216
1.1969137
1.1970057
1.1970977
1.1971897
1.1972817
1.1973737
1.1974657
1.1975577
1.1976497
1.1977417
1.1978336
1.1979257
1.1980176
1.1981096
1.1982016
1.1982936
1.1983856
1.1984776
1.1985695
1.1986615
1.1987535
1.1988455
1.1989375
1.1990294
1.1991214
1.1992134
1.1993053
1.1993973
1.1994893
1.1995813
1.1996732
1.1997652
1.1998571
1.1999491
1.200041
1.200133
1.2002249
1.2003169
1.2004088
1.2005008
1.2005927
1.2006846
1.2007766
1.2008685
1.2009604
1.2010523
1.2011442
1.2012361
1.201328
1.2014199
1.2015118
1.2016037
1.2016956
1.2017874
1.2018793
1.2019711
1.202063
1.2021548
1.2022467
1.2023385
1.2024303
1.2025221
1.2026139
1.2027057
1.2027975
1.2028893
1.2029811
1.2030728
1.2031646
1.2032563
1.203348
1.2034398
1.2035315
1.2036232
1.2037149
1.2038066
1.2038982
1.2039899
1.2040815
1.2041732
1.2042648
1.2043564
1.2044481
1.2045397
1.2046312
1.2047228
1.2048144
1.2049059
1.2049975
1.205089
1.2051806
1.2052721
1.2053636
1.2054551
1.2055465
1.205638
1.2057295
1.2058209
1.2059124
1.2060038
1.2060952
1.2061866
1.206278
1.2063693
1.2064607
1.2065521
1.2066434
1.2067347
1.2068261
1.2069174
1.2070087
1.2070999
1.2071912
1.2072825
1.2073737
1.207465
1.2075562
1.2076474
1.2077387
1.2078298
1.2079211
1.2080122
1.2081034
1.2081946
1.2082857
1.2083768
1.208468
1.2085591
1.2086502
1.2087413
1.2088324
1.2089235
1.2090145
1.2091056
1.2091967
1.2092877
1.2093788
1.2094698
1.2095608
1.2096518
1.2097429
1.2098338
1.2099249
1.2100158
1.2101068
1.2101978
1.2102888
1.2103797
1.2104707
1.2105617
1.2106526
1.2107435
1.2108345
1.2109254
1.2110163
1.2111072
1.2111982
1.2112891
1.21138
1.2114709
1.2115618
1.2116527
1.2117436
1.2118345
1.2119254
1.2120163
1.2121071
1.212198
1.2122889
1.2123797
1.2124706
1.2125615
1.2126524
1.2127432
1.2128341
1.2129249
1.2130158
1.2131067
1.2131975
1.2132883
1.2133792
1.21347
1.2135609
1.2136517
1.2137425
1.2138333
1.2139242
1.214015
1.2141058
1.2141966
1.2142874
1.2143783
1.214469
1.2145599
1.2146507
1.2147414
1.2148322
1.214923
1.2150138
1.2151046
1.2151954
1.2152861
1.2153769
1.2154676
1.2155584
1.2156491
1.2157399
1.2158306
1.2159213
1.2160121
1.2161028
1.2161935
1.2162842
1.2163749
1.2164656
1.2165563
1.2166469
1.2167376
1.2168283
1.2169189
1.2170096
1.2171002
1.2171908
1.2172815
1.2173721
1.2174627
1.2175533
1.2176438
1.2177345
1.217825
1.2179156
1.2180061
1.2180966
1.2181872
1.2182777
1.2183682
1.2184587
1.2185492
1.2186397
1.2187302
1.2188207
1.2189111
1.2190015
1.219092
1.2191824
1.2192728
1.2193632
1.2194536
1.2195439
1.2196343
1.2197247
1.219815
1.2199053
1.2199956
1.2200859
1.2201762
1.2202665
1.2203568
1.220447
1.2205373
1.2206275
1.2207177
1.2208079
1.2208981
1.2209883
1.2210784
1.2211686
1.2212587
1.2213488
1.2214389
1.221529
1.2216191
1.2217091
1.2217992
1.2218892
1.2219792
1.2220692
1.2221592
1.2222492
1.2223392
1.2224291
1.2225191
1.222609
1.2226989
1.2227888
1.2228787
1.2229685
1.2230584
1.2231482
1.2232381
1.2233279
1.2234177
1.2235075
1.2235973
1.223687
1.2237768
1.2238665
1.2239563
1.224046
1.2241357
1.2242254
1.2243151
1.2244047
1.2244944
1.224584
1.2246737
1.2247633
1.2248529
1.2249425
1.2250322
1.2251217
1.2252113
1.2253009
1.2253904
1.22548
1.2255696
1.2256591
1.2257486
1.2258381
1.2259276
1.2260171
1.2261067
1.2261961
1.2262856
1.2263751
1.2264646
1.2265541
1.2266435
1.226733
1.2268224
1.2269119
1.2270013
1.2270908
1.2271802
1.2272697
1.2273591
1.2274486
1.227538
1.2276274
1.2277168
1.2278063
1.2278957
1.2279851
1.2280745
1.228164
1.2282534
1.2283428
1.2284322
1.2285216
1.228611
1.2287004
1.2287899
1.2288793
1.2289687
1.2290581
1.2291475
1.2292369
1.2293263
1.2294157
1.2295051
1.2295944
1.2296839
1.2297732
1.2298626
1.229952
1.2300414
1.2301308
1.2302202
1.2303095
1.2303989
1.2304883
1.2305777
1.230667
1.2307564
1.2308458
1.2309351
1.2310245
1.2311138
1.2312032
1.2312925
1.2313819
1.2314712
1.2315605
1.2316498
1.2317392
1.2318285
1.2319178
1.2320071
1.2320964
1.2321857
1.232275
1.2323643
1.2324535
1.2325428
1.2326321
1.2327213
1.2328106
1.2328998
1.2329891
1.2330783
1.2331675
1.2332568
1.233346
1.2334352
1.2335244
1.2336136
1.2337028
1.233792
1.2338811
1.2339703
1.2340595
1.2341486
1.2342377
1.2343269
1.234416
1.2345051
1.2345943
1.2346833
1.2347724
1.2348615
1.2349506
1.2350397
1.2351287
1.2352178
1.2353068
1.2353958
1.2354849
1.2355739
1.2356629
1.2357519
1.2358409
1.2359298
1.2360188
1.2361077
1.2361967
1.2362856
1.2363745
1.2364635
1.2365524
1.2366413
1.2367302
1.236819
1.2369079
1.2369968
1.2370856
1.2371744
1.2372633
1.2373521
1.2374409
1.2375297
1.2376185
1.2377072
1.237796
1.2378848
1.2379735
1.2380623
1.238151
1.2382397
1.2383284
1.2384171
1.2385058
1.2385945
1.2386831
1.2387718
1.2388604
1.238949
1.2390377
1.2391263
1.2392149
1.2393035
1.239392
1.2394806
1.2395692
1.2396577
1.2397463
1.2398348
1.2399233
1.2400118
1.2401003
1.2401888
1.2402773
1.2403658
1.2404542
1.2405427
1.2406311
1.2407196
1.240808
1.2408964
1.2409848
1.2410732
1.2411616
1.2412499
1.2413383
1.2414267
1.241515
1.2416033
1.2416916
1.2417799
1.2418683
1.2419565
1.2420448
1.2421331
1.2422213
1.2423096
1.2423978
1.242486
1.2425742
1.2426624
1.2427506
1.2428388
1.2429269
1.2430151
1.2431033
1.2431914
1.2432795
1.2433677
1.2434558
1.2435439
1.243632
1.2437201
1.2438082
1.2438962
1.2439843
1.2440723
1.2441604
1.2442484
1.2443364
1.2444244
1.2445124
1.2446003
1.2446883
1.2447763
1.2448642
1.2449521
1.24504
1.2451279
1.2452158
1.2453037
1.2453916
1.2454794
1.2455672
1.2456551
1.2457429
1.2458307
1.2459185
1.2460063
1.246094
1.2461818
1.2462695
1.2463573
1.246445
1.2465327
1.2466204
1.246708
1.2467957
1.2468833
1.2469708
1.2470584
1.2471459
1.2472335
1.247321
1.2474085
1.247496
1.2475835
1.2476712
1.2477589
1.2478467
1.2479344
1.2480221
1.2481098
1.2481976
1.2482852
1.2483729
1.2484606
1.2485482
1.2486359
1.2487234
1.2488111
1.2488986
1.2489862
1.2490738
1.2491613
1.2492488
1.2493363
1.2494238
1.2495113
1.2495988
1.2496862
1.2497737
1.2498611
1.2499485
1.250036
1.2501233
1.2502108
1.2502981
1.2503855
1.2504728
1.2505602
1.2506475
1.2507348
1.2508221
1.2509094
1.2509967
1.251084
1.2511712
1.2512585
1.2513457
1.2514329
1.2515202
1.2516074
1.2516946
1.2517818
1.2518689
1.2519561
1.2520432
1.2521305
1.2522175
1.2523047
1.2523918
1.2524789
1.252566
1.2526531
1.2527402
1.2528272
1.2529143
1.2530014
1.2530884
1.2531755
1.2532625
1.2533495
1.2534365
1.2535235
1.2536105
1.2536974
1.2537844
1.2538714
1.2539583
1.2540452
1.2541321
1.2542191
1.254306
1.2543929
1.2544798
1.2545666
1.2546535
1.2547404
1.2548272
1.254914
1.2550009
1.2550877
1.2551745
1.2552613
1.2553481
1.2554348
1.2555216
1.2556084
1.2556951
1.2557819
1.2558686
1.2559553
1.256042
1.2561287
1.2562154
1.2563021
1.2563888
1.2564755
1.2565621
1.2566487
1.2567354
1.256822
1.2569086
1.2569952
1.2570818
1.2571684
1.257255
1.2573416
1.2574281
1.2575147
1.2576012
1.2576878
1.2577743
1.2578608
1.2579473
1.2580338
1.2581203
1.2582068
1.2582932
1.2583797
1.2584661
1.2585526
1.258639
1.2587254
1.2588118
1.2588982
1.2589846
1.259071
1.2591574
1.2592437
1.2593301
1.2594165
1.2595028
1.2595891
1.2596754
1.2597617
1.259848
1.2599343
1.2600206
1.2601069
1.2601931
1.2602794
1.2603656
1.2604519
1.2605381
1.2606243
1.2607105
1.2607967
1.2608829
1.2609691
1.2610553
1.2611414
1.2612276
1.2613137
1.2613999
1.261486
1.2615721
1.2616582
1.2617443
1.2618304
1.2619165
1.2620025
1.2620886
1.2621746
1.2622607
1.2623467
1.2624327
1.2625188
1.2626048
1.2626908
1.2627768
1.2628627
1.2629487
1.2630347
1.2631206
1.2632066
1.2632925
1.2633784
1.2634644
1.2635503
1.2636362
1.2637221
1.2638079
1.2638938
1.2639797
1.2640655
1.2641514
1.2642372
1.2643231
1.2644089
1.2644947
1.2645805
1.2646663
1.2647521
1.2648379
1.2649236
1.2650094
1.2650952
1.2651809
1.2652667
1.2653524
1.2654381
1.2655238
1.2656095
1.2656952
1.2657809
1.2658666
1.2659523
1.2660379
1.2661236
1.2662093
1.2662949
1.2663805
1.2664662
1.2665518
1.2666374
1.266723
1.2668086
1.2668942
1.2669798
1.2670654
1.2671509
1.2672365
1.267322
1.2674076
1.2674931
1.2675787
1.2676642
1.2677497
1.2678352
1.2679207
1.2680062
1.2680917
1.2681772
1.2682627
1.2683481
1.2684336
1.268519
1.2686045
1.2686899
1.2687754
1.2688608
1.2689462
1.2690316
1.269117
1.2692025
1.2692878
1.2693732
1.2694586
1.269544
1.2696294
1.2697147
1.2698001
1.2698855
1.2699708
1.2700561
1.2701415
1.2702268
1.2703121
1.2703975
1.2704828
1.2705681
1.2706534
1.2707387
1.270824
1.2709093
1.2709945
1.2710798
1.2711651
1.2712503
1.2713356
1.2714208
1.2715061
1.2715913
1.2716766
1.2717618
1.271847
1.2719322
1.2720175
1.2721027
1.2721879
1.2722731
1.2723583
1.2724435
1.2725286
1.2726138
1.272699
1.2727842
1.2728693
1.2729545
1.2730397
1.2731248
1.27321
1.2732951
1.2733802
1.2734654
1.2735505
1.2736356
1.2737207
1.2738058
1.273891
1.2739761
1.2740612
1.2741463
1.2742313
1.2743164
1.2744015
1.2744866
1.2745717
1.2746567
1.2747418
1.2748268
1.2749119
1.2749969
1.275082
1.275167
1.2752521
1.2753371
1.2754221
1.2755071
1.2755921
1.2756771
1.2757622
1.2758472
1.2759322
1.2760171
1.2761021
1.2761871
1.2762721
1.2763571
1.276442
1.276527
1.2766119
1.2766969
1.2767818
1.2768668
1.2769517
1.2770366
1.2771216
1.2772065
1.2772914
1.2773763
1.2774612
1.2775461
1.277631
1.2777159
1.2778008
1.2778856
1.2779705
1.2780554
1.2781402
1.2782251
1.2783099
1.2783948
1.2784796
1.2785645
1.2786493
1.2787341
1.2788189
1.2789037
1.2789885
1.2790733
1.2791581
1.2792429
1.2793277
1.2794125
1.2794972
1.279582
1.2796668
1.2797515
1.2798363
1.279921
1.2800057
1.2800904
1.2801752
1.2802599
1.2803446
1.2804293
1.280514
1.2805987
1.2806834
1.280768
1.2808527
1.2809374
1.281022
1.2811067
1.2811913
1.281276
1.2813606
1.2814452
1.2815298
1.2816145
1.2816991
1.2817837
1.2818683
1.2819529
1.2820374
1.282122
1.2822066
1.2822911
1.2823757
1.2824602
1.2825448
1.2826293
1.2827138
1.2827983
1.2828828
1.2829673
1.2830518
1.2831363
1.2832208
1.2833053
1.2833898
1.2834743
1.2835587
1.2836432
1.2837276
1.283812
1.2838965
1.2839809
1.2840653
1.2841497
1.2842341
1.2843185
1.2844028
1.2844872
1.2845716
1.284656
1.2847403
1.2848247
1.284909
1.2849933
1.2850777
1.285162
1.2852463
1.2853306
1.2854149
1.2854992
1.2855835
1.2856677
1.285752
1.2858362
1.2859205
1.2860047
1.2860889
1.2861732
1.2862574
1.2863416
1.2864258
1.28651
1.2865941
1.2866783
1.2867625
1.2868466
1.2869308
1.2870149
1.287099
1.2871832
1.2872673
1.2873514
1.2874355
1.2875196
1.2876037
1.2876878
1.2877718
1.2878559
1.2879399
1.2880239
1.288108
1.288192
1.288276
1.28836
1.288444
1.288528
1.288612
1.2886959
1.2887799
1.2888638
1.2889478
1.2890317
1.2891156
1.2891995
1.2892834
1.2893673
1.2894512
1.2895351
1.289619
1.2897029
1.2897867
1.2898706
1.2899544
1.2900382
1.290122
1.2902058
1.2902896
1.2903734
1.2904572
1.290541
1.2906248
1.2907085
1.2907923
1.290876
1.2909597
1.2910434
1.2911272
1.2912109
1.2912945
1.2913782
1.2914619
1.2915456
1.2916292
1.2917129
1.2917965
1.2918802
1.2919638
1.2920474
1.292131
1.2922145
1.2922981
1.2923817
1.2924653
1.2925488
1.2926324
1.2927159
1.2927995
1.292883
1.2929665
1.29305
1.2931335
1.293217
1.2933004
1.2933839
1.2934673
1.2935508
1.2936342
1.2937176
1.2938011
1.2938845
1.2939679
1.2940513
1.2941347
1.294218
1.2943014
1.2943848
1.2944681
1.2945514
1.2946348
1.2947181
1.2948014
1.2948847
1.294968
1.2950513
1.2951345
1.2952178
1.2953011
1.2953843
1.2954675
1.2955508
1.295634
1.2957172
1.2958004
1.2958836
1.2959668
1.2960499
1.2961331
1.2962163
1.2962994
1.2963826
1.2964657
1.2965488
1.2966319
1.296715
1.2967981
1.2968812
1.2969642
1.2970473
1.2971304
1.2972134
1.2972964
1.2973795
1.2974625
1.2975455
1.2976285
1.2977115
1.2977945
1.2978775
1.2979604
1.2980434
1.2981263
1.2982093
1.2982922
1.2983751
1.298458
1.2985409
1.2986238
1.2987067
1.2987896
1.2988724
1.2989553
1.2990381
1.299121
1.2992038
1.2992866
1.2993694
1.2994522
1.299535
1.2996178
1.2997006
1.2997834
1.2998661
1.2999489
1.3000316
1.3001143
1.300197
1.3002797
1.3003624
1.3004451
1.3005278
1.3006105
1.3006931
1.3007758
1.3008585
1.3009411
1.3010237
1.3011064
1.301189
1.3012716
1.3013542
1.3014367
1.3015193
1.3016019
1.3016844
1.301767
1.3018495
1.3019321
1.3020146
1.3020971
1.3021796
1.3022621
1.3023446
1.302427
1.3025095
1.302592
1.3026744
1.3027569
1.3028393
1.3029217
1.3030041
1.3030865
1.3031689
1.3032513
1.3033337
1.3034161
1.3034984
1.3035808
1.3036631
1.3037454
1.3038278
1.3039101
1.3039924
1.3040747
1.304157
1.3042392
1.3043215
1.3044038
1.304486
1.3045682
1.3046505
1.3047327
1.3048149
1.3048971
1.3049793
1.3050615
1.3051437
1.3052259
1.305308
1.3053902
1.3054723
1.3055545
1.3056366
1.3057187
1.3058008
1.3058829
1.305965
1.3060471
1.3061292
1.3062112
1.3062933
1.3063753
1.3064573
1.3065394
1.3066214
1.3067034
1.3067854
1.3068674
1.3069494
1.3070313
1.3071133
1.3071953
1.3072772
1.3073591
1.3074411
1.307523
1.3076049
1.3076868
1.3077687
1.3078506
1.3079324
1.3080143
1.3080962
1.308178
1.3082598
1.3083417
1.3084235
1.3085053
1.3085871
1.3086689
1.3087507
1.3088325
1.3089142
1.308996
1.3090777
1.3091595
1.3092412
1.3093229
1.3094046
1.3094864
1.309568
1.3096497
1.3097314
1.3098131
1.3098947
1.3099764
1.310058
1.3101396
1.3102213
1.3103029
1.3103845
1.3104661
1.3105477
1.3106292
1.3107108
1.3107924
1.3108739
1.3109554
1.311037
1.3111185
1.3112
1.3112815
1.311363
1.3114445
1.311526
1.3116074
1.3116889
1.3117703
1.3118518
1.3119332
1.3120146
1.312096
1.3121774
1.3122588
1.3123402
1.3124216
1.312503
1.3125843
1.3126657
1.312747
1.3128283
1.3129096
1.3129909
1.3130722
1.3131535
1.3132348
1.3133161
1.3133973
1.3134786
1.3135598
1.313641
1.3137223
1.3138035
1.3138847
1.3139659
1.314047
1.3141282
1.3142094
1.3142905
1.3143717
1.3144528
1.3145339
1.314615
1.3146961
1.3147772
1.3148583
1.3149393
1.3150204
1.3151014
1.3151824
1.3152635
1.3153445
1.3154254
1.3155064
1.3155874
1.3156683
1.3157493
1.3158302
1.3159112
1.3159921
1.316073
1.3161538
1.3162347
1.3163156
1.3163964
1.3164772
1.316558
1.3166388
1.3167196
1.3168004
1.3168811
1.3169619
1.3170426
1.3171233
1.317204
1.3172846
1.3173653
1.3174459
1.3175265
1.3176071
1.3176877
1.3177683
1.3178488
1.3179294
1.3180099
1.3180904
1.3181708
1.3182513
1.3183317
1.3184121
1.3184924
1.3185728
1.3186531
1.3187334
1.3188137
1.3188939
1.3189741
1.3190543
1.3191345
1.3192146
1.3192947
1.3193748
1.3194548
1.3195348
1.3196148
1.3196948
1.3197747
1.3198545
1.3199344
1.3200142
1.3200939
1.3201737
1.3202533
1.320333
1.3204126
1.3204921
1.3205717
1.3206511
1.3207305
1.3208099
1.3208892
1.3209685
1.3210477
1.3211269
1.321206
1.321285
1.321364
1.321443
1.3215218
1.3216007
1.3216794
1.3217581
1.3218367
1.3219153
1.3219938
1.3220722
1.3221505
1.3222288
1.3223069
1.322385
1.3224631
1.322541
1.3226189
1.3226966
1.3227743
1.3228519
1.3229294
1.3230068
1.3230841
1.3231613
1.3232384
1.3233154
1.3233923
1.3234691
1.3235457
1.3236223
1.3236987
1.323775
1.3238512
1.3239273
1.3240032
1.324079
1.3241547
1.3242302
1.3243056
1.3243809
1.324456
1.324531
1.3246058
1.3246805
1.324755
1.3248294
1.3249036
1.3249776
1.3250515
1.3251252
1.3251987
1.325272
1.3253452
1.3254181
1.3254909
1.3255635
1.3256359
1.3257081
1.3257801
1.3258519
1.3259234
1.3259948
1.326066
1.3261369
1.3262076
1.3262781
1.3263484
1.3264184
1.3264882
1.3265578
1.3266271
1.3266962
1.326765
1.3268335
1.3269018
1.3269698
1.3270376
1.3271051
1.3271723
1.3272393
1.3273059
1.3273723
1.3274384
1.3275042
1.3275697
1.3276349
1.3276998
1.3277644
1.3278287
1.3278927
1.3279564
1.3280197
1.3280827
1.3281454
1.3282077
1.3282697
1.3283314
1.3283927
1.3284537
1.3285144
1.3285746
1.3286346
1.3286941
1.3287533
1.3288122
1.3288707
1.3289288
1.3289865
1.3290438
1.3291008
1.3291574
1.3292136
1.3292694
1.3293248
1.3293798
1.3294344
1.3294886
1.3295425
1.3295959
1.3296489
1.3297015
1.3297536
1.3298054
1.3298567
1.3299077
1.3299582
1.3300082
1.3300579
1.3301071
1.3301559
1.3302043
1.3302522
1.3302997
1.3303467
1.3303934
1.3304395
1.3304853
1.3305306
1.3305754
1.3306198
1.3306638
1.3307073
1.3307504
1.330793
1.3308352
1.330877
1.3309182
1.3309591
1.3309994
1.3310394
1.3310788
1.3311179
1.3311565
1.3311946
1.3312323
1.3312696
1.3313064
1.3313427
1.3313786
1.3314141
1.3314491
1.3314837
1.3315178
1.3315515
1.3315847
1.3316175
1.3316499
1.3316818
1.3317133
1.3317444
1.331775
1.3318052
1.331835
1.3318643
1.3318932
1.3319217
1.3319498
1.3319774
1.3320047
1.3320315
1.3320579
1.3320839
1.3321095
1.3321347
1.3321595
1.3321839
1.3322079
1.3322315
1.3322547
1.3322775
1.3323
1.332322
1.3323437
1.332365
1.332386
1.3324065
1.3324267
1.3324466
1.3324661
1.3324852
1.332504
1.3325224
1.3325405
1.3325582
1.3325756
1.3325927
1.3326095
1.3326259
1.332642
1.3326578
1.3326732
1.3326884
1.3327032
1.3327178
1.332732
1.332746
1.3327596
1.332773
1.3327861
1.3327989
1.3328114
1.3328237
1.3328357
1.3328474
1.3328589
1.3328701
1.332881
1.3328917
1.3329022
1.3329124
1.3329224
1.3329321
1.3329417
1.3329509
1.33296
1.3329689
1.3329775
1.3329859
1.3329941
1.3330021
1.3330099
1.3330176
1.333025
1.3330322
1.3330393
1.3330461
1.3330528
1.3330594
1.3330657
1.3330719
1.3330779
1.3330837
1.3330894
1.3330949
1.3331003
1.3331056
1.3331106
1.3331156
1.3331204
1.333125
1.3331296
1.333134
1.3331383
1.3331424
1.3331465
1.3331504
1.3331542
1.3331578
1.3331614
1.3331649
1.3331682
1.3331715
1.3331746
1.3331777
1.3331806
1.3331835
1.3331863
1.3331889
1.3331915
1.333194
1.3331965
1.3331988
1.333201
1.3332032
1.3332053
1.3332074
1.3332093
1.3332112
1.333213
1.3332148
1.3332165
1.3332182
1.3332198
1.3332213
1.3332228
1.3332242
1.3332256
1.3332269
1.3332282
1.3332294
1.3332306
1.3332317
1.3332328
1.3332338
1.3332348
1.3332358
1.3332367
1.3332375
1.3332384
1.3332392
1.33324
1.3332407
1.3332414
1.3332421
1.3332427
1.3332433
1.3332439
1.3332444
1.3332449
1.3332454
1.3332459
1.3332463
1.3332467
1.3332471
1.3332475
1.3332479
1.3332482
1.3332485
1.3332488
1.3332491
1.3332493
1.3332496
1.3332498
1.33325
1.3332502
1.3332503
1.3332505
1.3332506
1.3332507
1.3332509
1.333251
1.333251
1.3332511
1.3332512
1.3332512
1.3332513
1.3332513
1.3332513
1.3332513
1.3332513
1.3332512
1.3332512
1.3332512
1.3332511
1.3332511
1.333251
1.3332509
1.3332508
1.3332507
1.3332506
1.3332505
1.3332504
1.3332503
1.3332502
1.33325
1.3332499
1.3332498
1.3332496
1.3332495
1.3332493
1.3332492
1.333249
1.3332488
1.3332486
1.3332484
1.3332482
1.333248
1.3332478
1.3332475
1.3332473
1.3332471
1.3332469
1.3332466
1.3332464
1.3332462
1.3332459
1.3332456
1.3332454
1.3332451
1.3332448
1.3332445
1.3332442
1.3332439
1.3332436
1.3332433
1.333243
1.3332427
1.3332424
1.333242
1.3332417
1.3332414
1.333241
1.3332407
1.3332403
1.3332399
1.3332396
1.3332392
1.3332388
1.3332384
1.3332381
1.3332377
1.3332373
1.3332369
1.3332365
1.3332361
1.3332356
1.3332352
1.3332348
1.3332343
1.3332338
1.3332334
1.3332329
1.3332324
1.3332318
1.3332313
1.3332308
1.3332303
1.3332298
1.3332293
1.3332287
1.3332282
1.3332277
1.3332271
1.3332266
1.333226
1.3332255
1.3332249
1.3332244
1.3332238
1.3332232
1.3332226
1.3332221
1.3332215
1.3332209
1.3332204
1.3332199
1.3332194
1.3332189
1.3332184
1.333218
1.3332176
1.3332172
1.3332169
1.3332166
1.3332163
1.3332161
1.3332159
1.3332157
1.3332156
1.3332155
1.3332155
1.3332154
1.3332154
1.3332154
1.3332154
1.3332155
1.3332157
1.3332159
1.3332161
1.3332163
1.3332164
1.3332165
1.3332165
1.3332165
1.3332165
1.3332165
1.3332164
1.3332163
1.3332161
1.3332156
1.3332147
1.3332137
1.3332127
1.3332116
1.3332106
1.3332094
1.3332083
1.3332071
1.3332059
1.3332046
1.3332032
1.3332017
1.3332002
1.3331987
1.3331973
1.3331959
1.3331947
1.3331936
1.3331926
1.3331918
1.3331911
1.3331906
1.3331901
1.3331896
1.3331893
1.3331889
1.3331886
1.3331882
1.3331878
1.3331875
1.3331871
1.3331866
1.3331859
1.3331843
1.3331805
1.3331704
1.3331425
1.3330657
1.332853
1.3322619
1.3306152
1.3266289
1.3215173
1.3160023
1.3102675
1.3045146
1.2989291
1.2936653
1.2888382
1.2845217
1.2807511
1.2775287
1.2748309
1.2726158
1.2708306
1.2694172
1.2683173
1.2674753
1.2668412
1.2663713
1.2660286
1.2657828
1.2656094
1.2654895
1.2654083
1.2653546
1.2653204
1.2652995
1.2652875
1.2652814
1.2652789
1.2652781
1.2652781
1.26528
1.2652848
1.265289
1.2652927
1.2652958
1.2652985
1.2653008
1.2653028
1.2653045
1.265306
1.2653073
1.2653085
1.2653096
1.2653105
1.2653112
1.2653119
1.2653125
1.265313
1.2653134
1.2653137
1.265314
1.2653142
1.2653144
1.2653147
1.2653149
1.2653152
1.2653155
1.2653158
1.2653162
1.2653166
1.2653171
1.2653176
1.2653181
1.2653185
1.2653189
1.2653192
1.2653195
1.2653196
1.2653196
1.2653194
1.2653192
1.2653187
1.2653181
1.2653173
1.2653164
1.2653152
1.2653139
1.2653124
1.2653108
1.2653089
1.2653069
1.2653047
1.2653024
1.2652999
1.2652972
1.2652943
1.2652913
1.2652881
1.2652848
1.2652814
1.2652777
1.2652739
1.26527
1.2652659
1.2652616
1.2652571
1.2652525
1.2652477
1.2652427
1.2652376
1.2652323
1.2652267
1.265221
1.2652151
1.265209
1.2652028
1.2651963
1.2651896
1.2651827
1.2651756
1.2651683
1.2651608
1.265153
1.265145
1.2651368
1.2651284
1.2651197
1.2651108
1.2651016
1.2650922
1.2650825
1.2650726
1.2650624
1.2650519
1.2650411
1.2650301
1.2650188
1.2650072
1.2649954
1.2649832
1.2649708
1.264958
1.264945
1.2649317
1.264918
1.264904
1.2648897
1.2648751
1.2648601
1.2648448
1.2648292
1.2648132
1.2647969
1.2647802
1.2647632
1.2647458
1.2647281
1.2647099
1.2646915
1.2646726
1.2646534
1.2646338
1.2646138
1.2645934
1.2645726
1.2645514
1.2645299
1.2645079
1.2644855
1.2644628
1.2644396
1.264416
1.2643919
1.2643675
1.2643426
1.2643173
1.2642916
1.2642655
1.2642389
1.2642119
1.2641844
1.2641565
1.2641282
1.2640994
1.2640701
1.2640404
1.2640103
1.2639797
1.2639487
1.2639172
1.2638852
1.2638528
1.2638199
1.2637865
1.2637527
1.2637185
1.2636838
1.2636486
1.2636129
1.2635768
1.2635402
1.2635031
1.2634656
1.2634276
1.2633891
1.2633502
1.2633108
1.2632709
1.2632306
1.2631898
1.2631485
1.2631068
1.2630646
1.263022
1.2629788
1.2629353
1.2628912
1.2628467
1.2628018
1.2627564
1.2627105
1.2626642
1.2626174
1.2625702
1.2625225
1.2624744
1.2624259
1.2623769
1.2623275
1.2622776
1.2622273
1.2621766
1.2621255
1.2620739
1.2620219
1.2619695
1.2619166
1.2618634
1.2618097
1.2617556
1.2617011
1.2616462
1.261591
1.2615353
1.2614792
1.2614228
1.2613659
1.2613087
1.2612511
1.2611931
1.2611348
1.2610761
1.261017
1.2609576
1.2608978
1.2608377
1.2607772
1.2607163
1.2606552
1.2605937
1.2605318
1.2604697
1.2604072
1.2603444
1.2602813
1.2602178
1.2601541
1.26009
1.2600257
1.2599611
1.2598961
1.2598309
1.2597654
1.2596996
1.2596336
1.2595672
1.2595006
1.2594338
1.2593667
1.2592993
1.2592317
1.2591638
1.2590957
1.2590274
1.2589588
1.25889
1.258821
1.2587517
1.2586822
1.2586125
1.2585426
1.2584725
1.2584022
1.2583317
1.258261
1.2581901
1.258119
1.2580477
1.2579763
1.2579047
1.2578329
1.2577609
1.2576887
1.2576164
1.2575439
1.2574713
1.2573985
1.2573256
1.2572525
1.2571793
1.2571059
1.2570324
1.2569588
1.256885
1.2568111
1.2567371
1.2566629
1.2565887
1.2565143
1.2564398
1.2563652
1.2562904
1.2562156
1.2561407
1.2560656
1.2559905
1.2559153
1.2558399
1.2557645
1.255689
1.2556134
1.2555377