/*--------------------------------*- C++ -*----------------------------------*\
  =========                 |
  \\      /  F ield         | OpenFOAM: The Open Source CFD Toolbox
   \\    /   O peration     | Website:  https://openfoam.org
    \\  /    A nd           | Version:  7
     \\/     M anipulation  |
\*---------------------------------------------------------------------------*/
FoamFile
{
    version     2.0;
    format      ascii;
    class       volScalarField;
    location    "0.00314";
    object      T;
}
// * * * * * * * * * * * * * * * * * * * * * * * * * * * * * * * * * * * * * //

dimensions      [0 0 0 1 0 0 0];

internalField   nonuniform List<scalar> 
5000
(
285.38499
285.38499
285.38499
285.38499
285.38499
285.38499
285.38499
285.38499
285.38499
285.38499
285.38499
285.38499
285.38499
285.38499
285.38499
285.38499
285.38499
285.38499
285.38499
285.38499
285.38499
285.38499
285.38499
285.38499
285.38499
285.38499
285.38499
285.38499
285.38499
285.38499
285.38499
285.38499
285.38499
285.38499
285.38499
285.38499
285.38499
285.38499
285.38499
285.38499
285.38499
285.38499
285.38499
285.38499
285.38499
285.38499
285.38499
285.38499
285.38499
285.38499
285.38499
285.38499
285.38499
285.38499
285.38499
285.38499
285.38499
285.38499
285.38499
285.38499
285.38499
285.38499
285.38499
285.38499
285.38499
285.38499
285.38499
285.38499
285.38499
285.38499
285.38499
285.38499
285.38499
285.38499
285.38499
285.38499
285.38499
285.38499
285.38499
285.38499
285.38499
285.38499
285.38499
285.38499
285.38499
285.38499
285.38499
285.38499
285.38499
285.38499
285.38499
285.38499
285.38499
285.38499
285.38499
285.38499
285.38499
285.38498
285.38498
285.38498
285.38498
285.38498
285.38498
285.38498
285.38498
285.38498
285.38498
285.38498
285.38498
285.38498
285.38498
285.38498
285.38498
285.38498
285.38498
285.38498
285.38498
285.38498
285.38498
285.38498
285.38498
285.38498
285.38498
285.38498
285.38498
285.38498
285.38498
285.38498
285.38498
285.38498
285.38498
285.38498
285.38498
285.38498
285.38498
285.38498
285.38498
285.38498
285.38498
285.38498
285.38498
285.38498
285.38498
285.38498
285.38498
285.38498
285.38498
285.38498
285.38499
285.38499
285.38499
285.385
285.385
285.385
285.385
285.38501
285.38501
285.38501
285.38502
285.38503
285.38505
285.38511
285.38524
285.38553
285.38617
285.38717
285.38862
285.39063
285.39337
285.397
285.40168
285.40753
285.41465
285.42312
285.43291
285.44397
285.45617
285.46933
285.48322
285.4976
285.51218
285.5267
285.5409
285.55455
285.56746
285.57947
285.59049
285.60045
285.60932
285.61713
285.6239
285.62971
285.63462
285.63874
285.64215
285.64494
285.64721
285.64903
285.65047
285.65161
285.65251
285.6532
285.65373
285.65413
285.65444
285.65467
285.65484
285.65497
285.65506
285.65513
285.65518
285.65522
285.65525
285.65527
285.65528
285.65529
285.6553
285.65531
285.65531
285.65531
285.65532
285.65532
285.65532
285.65532
285.65532
285.65532
285.65532
285.65532
285.65532
285.65532
285.65532
285.65533
285.65533
285.65533
285.65533
285.65533
285.65533
285.65533
285.65533
285.65533
285.65533
285.65533
285.65533
285.65533
285.65533
285.65534
285.65534
285.65534
285.65534
285.65534
285.65534
285.65534
285.65534
285.65534
285.65534
285.65534
285.65534
285.65534
285.65534
285.65534
285.65535
285.65535
285.65535
285.65535
285.65535
285.65535
285.65535
285.65535
285.65535
285.65535
285.65535
285.65535
285.65535
285.65535
285.65536
285.65536
285.65536
285.65536
285.65536
285.65536
285.65536
285.65536
285.65536
285.65536
285.65536
285.65536
285.65536
285.65536
285.65536
285.65536
285.65537
285.65537
285.65537
285.65537
285.65537
285.65537
285.65537
285.65537
285.65537
285.65537
285.65537
285.65537
285.65537
285.65537
285.65538
285.65538
285.65538
285.65538
285.65538
285.65538
285.65538
285.65538
285.65538
285.65538
285.65538
285.65538
285.65538
285.65538
285.65538
285.65539
285.65539
285.65539
285.65539
285.65539
285.65539
285.65539
285.65539
285.65539
285.65539
285.65539
285.65539
285.65539
285.65539
285.6554
285.6554
285.6554
285.6554
285.6554
285.6554
285.6554
285.6554
285.6554
285.6554
285.6554
285.6554
285.6554
285.6554
285.65541
285.65541
285.65541
285.65541
285.65541
285.65541
285.65541
285.65541
285.65541
285.65541
285.65541
285.65541
285.65541
285.65541
285.65542
285.65542
285.65542
285.65542
285.65542
285.65542
285.65542
285.65542
285.65542
285.65542
285.65542
285.65542
285.65542
285.65542
285.65542
285.65543
285.65543
285.65543
285.65543
285.65543
285.65543
285.65543
285.65543
285.65543
285.65543
285.65543
285.65543
285.65543
285.65544
285.65544
285.65544
285.65544
285.65544
285.65544
285.65544
285.65544
285.65544
285.65544
285.65544
285.65544
285.65544
285.65544
285.65545
285.65545
285.65545
285.65545
285.65545
285.65545
285.65545
285.65545
285.65545
285.65545
285.65545
285.65545
285.65545
285.65545
285.65546
285.65546
285.65546
285.65546
285.65546
285.65546
285.65546
285.65546
285.65546
285.65546
285.65546
285.65546
285.65547
285.65547
285.65547
285.65547
285.65547
285.65547
285.65547
285.65547
285.65547
285.65547
285.65547
285.65547
285.65547
285.65547
285.65547
285.65548
285.65548
285.65548
285.65548
285.65548
285.65548
285.65548
285.65548
285.65548
285.65548
285.65548
285.65548
285.65548
285.65549
285.65549
285.65549
285.65549
285.65549
285.65549
285.65549
285.65549
285.65549
285.65549
285.65549
285.65549
285.65549
285.6555
285.6555
285.6555
285.6555
285.6555
285.6555
285.6555
285.6555
285.6555
285.6555
285.6555
285.6555
285.6555
285.65551
285.65551
285.65551
285.65551
285.65551
285.65551
285.65551
285.65551
285.65551
285.65551
285.65551
285.65551
285.65551
285.65552
285.65552
285.65552
285.65552
285.65552
285.65552
285.65552
285.65552
285.65552
285.65552
285.65552
285.65552
285.65552
285.65553
285.65553
285.65553
285.65553
285.65553
285.65553
285.65553
285.65553
285.65553
285.65553
285.65553
285.65553
285.65553
285.65553
285.65554
285.65554
285.65554
285.65554
285.65554
285.65554
285.65554
285.65554
285.65554
285.65554
285.65554
285.65554
285.65555
285.65555
285.65555
285.65555
285.65555
285.65555
285.65555
285.65555
285.65555
285.65555
285.65555
285.65556
285.65556
285.65556
285.65556
285.65556
285.65556
285.65556
285.65556
285.65556
285.65556
285.65556
285.65556
285.65556
285.65556
285.65557
285.65557
285.65557
285.65557
285.65557
285.65557
285.65557
285.65557
285.65557
285.65557
285.65557
285.65557
285.65557
285.65557
285.65558
285.65558
285.65558
285.65558
285.65558
285.65558
285.65558
285.65558
285.65558
285.65559
285.65559
285.65559
285.65559
285.65559
285.65559
285.65559
285.65559
285.65559
285.65559
285.65559
285.65559
285.65559
285.65559
285.6556
285.6556
285.6556
285.6556
285.6556
285.6556
285.6556
285.6556
285.6556
285.6556
285.6556
285.6556
285.65561
285.65561
285.65561
285.65561
285.65561
285.65561
285.65561
285.65561
285.65561
285.65561
285.65561
285.65562
285.65562
285.65562
285.65562
285.65562
285.65562
285.65562
285.65562
285.65562
285.65562
285.65562
285.65562
285.65562
285.65563
285.65563
285.65563
285.65563
285.65563
285.65563
285.65563
285.65563
285.65563
285.65563
285.65563
285.65564
285.65564
285.65564
285.65564
285.65564
285.65564
285.65564
285.65564
285.65564
285.65564
285.65564
285.65564
285.65564
285.65564
285.65565
285.65565
285.65565
285.65565
285.65565
285.65565
285.65565
285.65565
285.65565
285.65566
285.65566
285.65566
285.65566
285.65566
285.65566
285.65566
285.65566
285.65566
285.65566
285.65566
285.65566
285.65567
285.65567
285.65567
285.65567
285.65567
285.65567
285.65567
285.65567
285.65567
285.65567
285.65567
285.65568
285.65568
285.65568
285.65568
285.65568
285.65568
285.65568
285.65568
285.65568
285.65568
285.65568
285.65568
285.65569
285.65569
285.65569
285.65569
285.65569
285.65569
285.65569
285.65569
285.65569
285.65569
285.65569
285.65569
285.6557
285.6557
285.6557
285.6557
285.6557
285.6557
285.6557
285.6557
285.6557
285.6557
285.65571
285.65571
285.65571
285.65571
285.65571
285.65571
285.65571
285.65571
285.65571
285.65571
285.65571
285.65571
285.65572
285.65572
285.65572
285.65572
285.65572
285.65572
285.65572
285.65572
285.65572
285.65572
285.65572
285.65573
285.65573
285.65573
285.65573
285.65573
285.65573
285.65573
285.65573
285.65573
285.65573
285.65574
285.65574
285.65574
285.65574
285.65574
285.65574
285.65574
285.65574
285.65574
285.65574
285.65574
285.65575
285.65575
285.65575
285.65575
285.65575
285.65575
285.65575
285.65575
285.65575
285.65575
285.65575
285.65576
285.65576
285.65576
285.65576
285.65576
285.65576
285.65576
285.65576
285.65576
285.65576
285.65577
285.65577
285.65577
285.65577
285.65577
285.65577
285.65577
285.65577
285.65577
285.65577
285.65577
285.65577
285.65578
285.65578
285.65578
285.65578
285.65578
285.65578
285.65578
285.65578
285.65578
285.65578
285.65579
285.65579
285.65579
285.65579
285.65579
285.65579
285.65579
285.65579
285.65579
285.65579
285.65579
285.6558
285.6558
285.6558
285.6558
285.6558
285.6558
285.6558
285.6558
285.6558
285.6558
285.6558
285.65581
285.65581
285.65581
285.65581
285.65581
285.65581
285.65581
285.65581
285.65581
285.65581
285.65582
285.65582
285.65582
285.65582
285.65582
285.65582
285.65582
285.65582
285.65582
285.65582
285.65583
285.65583
285.65583
285.65583
285.65583
285.65583
285.65583
285.65583
285.65583
285.65584
285.65584
285.65584
285.65584
285.65584
285.65584
285.65584
285.65584
285.65584
285.65584
285.65585
285.65585
285.65585
285.65585
285.65585
285.65585
285.65585
285.65585
285.65585
285.65585
285.65586
285.65586
285.65586
285.65586
285.65586
285.65586
285.65586
285.65586
285.65586
285.65586
285.65586
285.65587
285.65587
285.65587
285.65587
285.65587
285.65587
285.65587
285.65587
285.65587
285.65587
285.65588
285.65588
285.65588
285.65588
285.65588
285.65588
285.65588
285.65588
285.65588
285.65589
285.65589
285.65589
285.65589
285.65589
285.65589
285.65589
285.65589
285.65589
285.65589
285.6559
285.6559
285.6559
285.6559
285.6559
285.6559
285.6559
285.6559
285.6559
285.6559
285.65591
285.65591
285.65591
285.65591
285.65591
285.65591
285.65591
285.65591
285.65592
285.65592
285.65592
285.65592
285.65592
285.65592
285.65592
285.65592
285.65592
285.65592
285.65593
285.65593
285.65593
285.65593
285.65593
285.65593
285.65593
285.65593
285.65593
285.65594
285.65594
285.65594
285.65594
285.65594
285.65594
285.65594
285.65594
285.65594
285.65594
285.65595
285.65595
285.65595
285.65595
285.65595
285.65595
285.65595
285.65595
285.65595
285.65596
285.65596
285.65596
285.65596
285.65596
285.65596
285.65596
285.65596
285.65596
285.65597
285.65597
285.65597
285.65597
285.65597
285.65597
285.65597
285.65597
285.65597
285.65598
285.65598
285.65598
285.65598
285.65598
285.65598
285.65598
285.65598
285.65598
285.65598
285.65599
285.65599
285.65599
285.65599
285.65599
285.65599
285.65599
285.65599
285.656
285.656
285.656
285.656
285.656
285.656
285.656
285.656
285.656
285.656
285.65601
285.65601
285.65601
285.65601
285.65601
285.65601
285.65601
285.65601
285.65602
285.65602
285.65602
285.65602
285.65602
285.65602
285.65602
285.65602
285.65603
285.65603
285.65603
285.65603
285.65603
285.65603
285.65603
285.65603
285.65603
285.65603
285.65604
285.65604
285.65604
285.65604
285.65604
285.65604
285.65604
285.65604
285.65605
285.65605
285.65605
285.65605
285.65605
285.65605
285.65605
285.65605
285.65605
285.65605
285.65606
285.65606
285.65606
285.65606
285.65606
285.65606
285.65606
285.65607
285.65607
285.65607
285.65607
285.65607
285.65607
285.65607
285.65607
285.65608
285.65608
285.65608
285.65608
285.65608
285.65608
285.65608
285.65608
285.65608
285.65609
285.65609
285.65609
285.65609
285.65609
285.65609
285.65609
285.65609
285.65609
285.6561
285.6561
285.6561
285.6561
285.6561
285.6561
285.6561
285.6561
285.65611
285.65611
285.65611
285.65611
285.65611
285.65611
285.65611
285.65611
285.65612
285.65612
285.65612
285.65612
285.65612
285.65612
285.65612
285.65612
285.65613
285.65613
285.65613
285.65613
285.65613
285.65613
285.65613
285.65613
285.65614
285.65614
285.65614
285.65614
285.65614
285.65614
285.65614
285.65614
285.65614
285.65615
285.65615
285.65615
285.65615
285.65615
285.65615
285.65615
285.65615
285.65616
285.65616
285.65616
285.65616
285.65616
285.65616
285.65616
285.65616
285.65617
285.65617
285.65617
285.65617
285.65617
285.65617
285.65617
285.65618
285.65618
285.65618
285.65618
285.65618
285.65618
285.65618
285.65618
285.65619
285.65619
285.65619
285.65619
285.65619
285.65619
285.65619
285.65619
285.6562
285.6562
285.6562
285.6562
285.6562
285.6562
285.6562
285.6562
285.65621
285.65621
285.65621
285.65621
285.65621
285.65621
285.65621
285.65621
285.65622
285.65622
285.65622
285.65622
285.65622
285.65622
285.65623
285.65623
285.65623
285.65623
285.65623
285.65623
285.65623
285.65623
285.65624
285.65624
285.65624
285.65624
285.65624
285.65624
285.65624
285.65625
285.65625
285.65625
285.65625
285.65625
285.65625
285.65625
285.65625
285.65625
285.65626
285.65626
285.65626
285.65626
285.65626
285.65626
285.65626
285.65627
285.65627
285.65627
285.65627
285.65627
285.65627
285.65627
285.65628
285.65628
285.65628
285.65628
285.65628
285.65628
285.65628
285.65628
285.65629
285.65629
285.65629
285.65629
285.65629
285.65629
285.65629
285.6563
285.6563
285.6563
285.6563
285.6563
285.6563
285.6563
285.6563
285.65631
285.65631
285.65631
285.65631
285.65631
285.65631
285.65631
285.65631
285.65632
285.65632
285.65632
285.65632
285.65632
285.65632
285.65633
285.65633
285.65633
285.65633
285.65633
285.65633
285.65634
285.65634
285.65634
285.65634
285.65634
285.65634
285.65634
285.65635
285.65635
285.65635
285.65635
285.65635
285.65635
285.65635
285.65635
285.65636
285.65636
285.65636
285.65636
285.65636
285.65636
285.65636
285.65637
285.65637
285.65637
285.65637
285.65637
285.65637
285.65637
285.65638
285.65638
285.65638
285.65638
285.65638
285.65638
285.65639
285.65639
285.65639
285.65639
285.65639
285.65639
285.6564
285.6564
285.6564
285.6564
285.6564
285.6564
285.6564
285.65641
285.65641
285.65641
285.65641
285.65641
285.65641
285.65641
285.65641
285.65642
285.65642
285.65642
285.65642
285.65642
285.65642
285.65643
285.65643
285.65643
285.65643
285.65643
285.65643
285.65643
285.65644
285.65644
285.65644
285.65644
285.65644
285.65644
285.65645
285.65645
285.65645
285.65645
285.65645
285.65645
285.65645
285.65646
285.65646
285.65646
285.65646
285.65646
285.65646
285.65646
285.65647
285.65647
285.65647
285.65647
285.65647
285.65647
285.65648
285.65648
285.65648
285.65648
285.65648
285.65648
285.65649
285.65649
285.65649
285.65649
285.65649
285.65649
285.6565
285.6565
285.6565
285.6565
285.6565
285.6565
285.65651
285.65651
285.65651
285.65651
285.65651
285.65651
285.65651
285.65652
285.65652
285.65652
285.65652
285.65652
285.65652
285.65653
285.65653
285.65653
285.65653
285.65653
285.65653
285.65654
285.65654
285.65654
285.65654
285.65654
285.65654
285.65655
285.65655
285.65655
285.65655
285.65655
285.65655
285.65656
285.65656
285.65656
285.65656
285.65656
285.65656
285.65657
285.65657
285.65657
285.65657
285.65657
285.65657
285.65658
285.65658
285.65658
285.65658
285.65658
285.65658
285.65659
285.65659
285.65659
285.65659
285.65659
285.65659
285.65659
285.6566
285.6566
285.6566
285.6566
285.6566
285.65661
285.65661
285.65661
285.65661
285.65661
285.65661
285.65662
285.65662
285.65662
285.65662
285.65662
285.65662
285.65663
285.65663
285.65663
285.65663
285.65663
285.65663
285.65664
285.65664
285.65664
285.65664
285.65664
285.65665
285.65665
285.65665
285.65665
285.65665
285.65665
285.65666
285.65666
285.65666
285.65666
285.65666
285.65667
285.65667
285.65667
285.65667
285.65667
285.65667
285.65668
285.65668
285.65668
285.65668
285.65668
285.65668
285.65669
285.65669
285.65669
285.65669
285.65669
285.65669
285.6567
285.6567
285.6567
285.6567
285.6567
285.65671
285.65671
285.65671
285.65671
285.65671
285.65671
285.65672
285.65672
285.65672
285.65672
285.65672
285.65673
285.65673
285.65673
285.65673
285.65673
285.65673
285.65674
285.65674
285.65674
285.65674
285.65674
285.65675
285.65675
285.65675
285.65675
285.65675
285.65676
285.65676
285.65676
285.65676
285.65676
285.65677
285.65677
285.65677
285.65677
285.65677
285.65677
285.65678
285.65678
285.65678
285.65678
285.65678
285.65679
285.65679
285.65679
285.65679
285.65679
285.6568
285.6568
285.6568
285.6568
285.6568
285.6568
285.65681
285.65681
285.65681
285.65681
285.65681
285.65682
285.65682
285.65682
285.65682
285.65682
285.65683
285.65683
285.65683
285.65683
285.65683
285.65683
285.65684
285.65684
285.65684
285.65684
285.65685
285.65685
285.65685
285.65685
285.65685
285.65686
285.65686
285.65686
285.65686
285.65686
285.65687
285.65687
285.65687
285.65687
285.65687
285.65688
285.65688
285.65688
285.65688
285.65688
285.65689
285.65689
285.65689
285.65689
285.65689
285.6569
285.6569
285.6569
285.6569
285.6569
285.65691
285.65691
285.65691
285.65691
285.65691
285.65692
285.65692
285.65692
285.65692
285.65693
285.65693
285.65693
285.65693
285.65693
285.65694
285.65694
285.65694
285.65694
285.65694
285.65695
285.65695
285.65695
285.65695
285.65695
285.65696
285.65696
285.65696
285.65696
285.65696
285.65697
285.65697
285.65697
285.65697
285.65697
285.65698
285.65698
285.65698
285.65698
285.65699
285.65699
285.65699
285.65699
285.65699
285.657
285.657
285.657
285.657
285.65701
285.65701
285.65701
285.65701
285.65701
285.65702
285.65702
285.65702
285.65702
285.65702
285.65703
285.65703
285.65703
285.65703
285.65704
285.65704
285.65704
285.65704
285.65705
285.65705
285.65705
285.65705
285.65705
285.65706
285.65706
285.65706
285.65706
285.65707
285.65707
285.65707
285.65707
285.65708
285.65708
285.65708
285.65708
285.65708
285.65709
285.65709
285.65709
285.65709
285.6571
285.6571
285.6571
285.6571
285.6571
285.65711
285.65711
285.65711
285.65711
285.65712
285.65712
285.65712
285.65712
285.65713
285.65713
285.65713
285.65713
285.65713
285.65714
285.65714
285.65714
285.65714
285.65715
285.65715
285.65715
285.65715
285.65715
285.65716
285.65716
285.65716
285.65716
285.65717
285.65717
285.65717
285.65717
285.65718
285.65718
285.65718
285.65718
285.65719
285.65719
285.65719
285.65719
285.6572
285.6572
285.6572
285.6572
285.65721
285.65721
285.65721
285.65721
285.65722
285.65722
285.65722
285.65722
285.65723
285.65723
285.65723
285.65723
285.65723
285.65724
285.65724
285.65724
285.65724
285.65725
285.65725
285.65725
285.65725
285.65726
285.65726
285.65726
285.65726
285.65726
285.65727
285.65727
285.65727
285.65727
285.65728
285.65728
285.65728
285.65728
285.65728
285.65729
285.65729
285.65729
285.65729
285.6573
285.6573
285.6573
285.6573
285.6573
285.65731
285.65731
285.65731
285.65731
285.65731
285.65732
285.65732
285.65732
285.65732
285.65732
285.65733
285.65733
285.65733
285.65733
285.65733
285.65733
285.65734
285.65734
285.65734
285.65734
285.65734
285.65734
285.65735
285.65735
285.65735
285.65735
285.65735
285.65735
285.65735
285.65736
285.65736
285.65736
285.65736
285.65736
285.65736
285.65736
285.65736
285.65736
285.65736
285.65736
285.65736
285.65736
285.65736
285.65736
285.65736
285.65736
285.65736
285.65736
285.65736
285.65736
285.65736
285.65736
285.65736
285.65736
285.65736
285.65736
285.65736
285.65736
285.65735
285.65735
285.65735
285.65735
285.65735
285.65734
285.65734
285.65734
285.65733
285.65733
285.65733
285.65732
285.65732
285.65732
285.65731
285.65731
285.6573
285.6573
285.65729
285.65729
285.65728
285.65728
285.65727
285.65726
285.65726
285.65725
285.65724
285.65723
285.65722
285.65721
285.65721
285.6572
285.65719
285.65717
285.65716
285.65715
285.65714
285.65713
285.65712
285.6571
285.65709
285.65707
285.65706
285.65704
285.65703
285.65701
285.65699
285.65698
285.65696
285.65694
285.65692
285.6569
285.65688
285.65686
285.65683
285.65681
285.65679
285.65676
285.65674
285.65671
285.65668
285.65665
285.65662
285.65659
285.65656
285.65653
285.6565
285.65646
285.65643
285.65639
285.65635
285.65631
285.65627
285.65623
285.65619
285.65614
285.6561
285.65605
285.65601
285.65596
285.65591
285.65585
285.6558
285.65574
285.65569
285.65563
285.65557
285.65551
285.65544
285.65538
285.65531
285.65524
285.65517
285.6551
285.65502
285.65494
285.65487
285.65478
285.6547
285.65461
285.65453
285.65444
285.65434
285.65425
285.65415
285.65405
285.65395
285.65384
285.65373
285.65362
285.65351
285.65339
285.65327
285.65315
285.65302
285.6529
285.65276
285.65263
285.65249
285.65235
285.6522
285.65206
285.6519
285.65175
285.65159
285.65143
285.65126
285.65109
285.65092
285.65074
285.65055
285.65037
285.65018
285.64998
285.64978
285.64958
285.64937
285.64916
285.64894
285.64871
285.64849
285.64825
285.64802
285.64777
285.64753
285.64727
285.64702
285.64675
285.64648
285.64621
285.64593
285.64564
285.64535
285.64505
285.64475
285.64444
285.64413
285.64381
285.64348
285.64314
285.6428
285.64246
285.6421
285.64174
285.64137
285.641
285.64062
285.64023
285.63984
285.63943
285.63902
285.63861
285.63818
285.63775
285.63731
285.63686
285.6364
285.63594
285.63547
285.63499
285.6345
285.63401
285.6335
285.63299
285.63247
285.63194
285.63141
285.63086
285.63031
285.62974
285.62917
285.62859
285.628
285.6274
285.62679
285.62617
285.62554
285.6249
285.62426
285.6236
285.62294
285.62226
285.62158
285.62088
285.62018
285.61946
285.61874
285.618
285.61726
285.6165
285.61574
285.61496
285.61418
285.61338
285.61258
285.61176
285.61093
285.6101
285.60925
285.60839
285.60752
285.60664
285.60576
285.60486
285.60394
285.60302
285.60209
285.60115
285.6002
285.59923
285.59826
285.59727
285.59628
285.59527
285.59425
285.59322
285.59218
285.59113
285.59007
285.589
285.58792
285.58683
285.58573
285.58462
285.58349
285.58236
285.58121
285.58006
285.57889
285.57772
285.57653
285.57534
285.57413
285.57291
285.57169
285.57045
285.5692
285.56795
285.56668
285.56541
285.56412
285.56283
285.56152
285.56021
285.55888
285.55755
285.55621
285.55486
285.5535
285.55213
285.55076
285.54937
285.54798
285.54658
285.54516
285.54375
285.54232
285.54089
285.53944
285.53799
285.53654
285.53507
285.5336
285.53212
285.53064
285.52914
285.52764
285.52614
285.52463
285.52311
285.52158
285.52005
285.51852
285.51697
285.51543
285.51388
285.51232
285.51076
285.50919
285.50762
285.50604
285.50446
285.50288
285.50129
285.4997
285.4981
285.4965
285.4949
285.4933
285.49169
285.49008
285.48847
285.48686
285.48524
285.48362
285.482
285.48038
285.47876
285.47714
285.47552
285.47389
285.47227
285.47064
285.46902
285.4674
285.46577
285.46415
285.46253
285.46091
285.45929
285.45767
285.45605
285.45444
285.45283
285.45121
285.44961
285.448
285.4464
285.4448
285.4432
285.44161
285.44002
285.43844
285.43685
285.43528
285.4337
285.43214
285.43057
285.42901
285.42746
285.42591
285.42437
285.42283
285.4213
285.41978
285.41826
285.41674
285.41524
285.41374
285.41225
285.41076
285.40928
285.40781
285.40635
285.40489
285.40344
285.402
285.40057
285.39915
285.39773
285.39632
285.39492
285.39353
285.39215
285.39078
285.38942
285.38807
285.38672
285.38539
285.38406
285.38275
285.38144
285.38014
285.37886
285.37758
285.37632
285.37506
285.37382
285.37258
285.37136
285.37015
285.36895
285.36776
285.36657
285.36541
285.36425
285.3631
285.36196
285.36084
285.35972
285.35862
285.35753
285.35645
285.35538
285.35432
285.35328
285.35224
285.35122
285.35021
285.34921
285.34822
285.34724
285.34627
285.34532
285.34438
285.34345
285.34253
285.34162
285.34072
285.33984
285.33896
285.3381
285.33725
285.33641
285.33558
285.33477
285.33396
285.33317
285.33238
285.33161
285.33085
285.3301
285.32936
285.32863
285.32792
285.32721
285.32652
285.32583
285.32516
285.3245
285.32385
285.3232
285.32257
285.32195
285.32134
285.32074
285.32015
285.31957
285.319
285.31844
285.31789
285.31735
285.31682
285.3163
285.31579
285.31529
285.31479
285.31431
285.31384
285.31337
285.31292
285.31247
285.31203
285.3116
285.31118
285.31077
285.31036
285.30996
285.30958
285.3092
285.30882
285.30846
285.3081
285.30776
285.30742
285.30708
285.30676
285.30644
285.30613
285.30582
285.30552
285.30523
285.30495
285.30467
285.3044
285.30414
285.30388
285.30363
285.30338
285.30314
285.30291
285.30268
285.30246
285.30225
285.30204
285.30183
285.30163
285.30144
285.30125
285.30106
285.30089
285.30071
285.30054
285.30038
285.30022
285.30006
285.29991
285.29977
285.29962
285.29948
285.29935
285.29922
285.2991
285.29897
285.29885
285.29874
285.29863
285.29852
285.29842
285.29832
285.29822
285.29813
285.29804
285.29795
285.29786
285.29778
285.2977
285.29763
285.29755
285.29748
285.29741
285.29735
285.29729
285.29723
285.29717
285.29711
285.29706
285.29701
285.29696
285.29691
285.29686
285.29682
285.29678
285.29674
285.2967
285.29666
285.29663
285.2966
285.29656
285.29653
285.29651
285.29648
285.29645
285.29643
285.29641
285.29639
285.29637
285.29635
285.29633
285.29631
285.2963
285.29628
285.29627
285.29626
285.29625
285.29624
285.29623
285.29622
285.29621
285.29621
285.2962
285.29619
285.29619
285.29618
285.29618
285.29618
285.29618
285.29617
285.29617
285.29617
285.29617
285.29617
285.29617
285.29618
285.29618
285.29618
285.29618
285.29619
285.29619
285.2962
285.2962
285.29621
285.29621
285.29622
285.29623
285.29623
285.29624
285.29624
285.29625
285.29626
285.29627
285.29627
285.29628
285.29629
285.2963
285.2963
285.29631
285.29632
285.29633
285.29634
285.29635
285.29636
285.29637
285.29638
285.29638
285.29639
285.2964
285.29641
285.29642
285.29643
285.29644
285.29645
285.29646
285.29647
285.29648
285.29649
285.2965
285.29651
285.29652
285.29653
285.29654
285.29655
285.29656
285.29657
285.29658
285.29659
285.2966
285.29661
285.29661
285.29662
285.29663
285.29664
285.29665
285.29666
285.29667
285.29668
285.29668
285.29669
285.2967
285.29671
285.29672
285.29672
285.29673
285.29674
285.29675
285.29675
285.29676
285.29677
285.29677
285.29678
285.29679
285.29679
285.2968
285.29681
285.29681
285.29682
285.29682
285.29683
285.29683
285.29684
285.29684
285.29684
285.29685
285.29685
285.29686
285.29686
285.29686
285.29686
285.29687
285.29687
285.29687
285.29687
285.29687
285.29688
285.29688
285.29688
285.29688
285.29688
285.29688
285.29688
285.29687
285.29687
285.29687
285.29687
285.29686
285.29686
285.29686
285.29685
285.29685
285.29684
285.29684
285.29683
285.29682
285.29682
285.29681
285.2968
285.2968
285.29679
285.29678
285.29677
285.29676
285.29675
285.29674
285.29673
285.29672
285.2967
285.29669
285.29668
285.29666
285.29665
285.29663
285.29662
285.2966
285.29658
285.29657
285.29655
285.29653
285.29651
285.29649
285.29646
285.29644
285.29642
285.2964
285.29637
285.29635
285.29632
285.29629
285.29627
285.29624
285.29621
285.29618
285.29615
285.29612
285.29609
285.29605
285.29602
285.29598
285.29595
285.29591
285.29587
285.29584
285.2958
285.29576
285.29571
285.29567
285.29563
285.29558
285.29554
285.29549
285.29544
285.29539
285.29534
285.29529
285.29524
285.29518
285.29513
285.29507
285.29502
285.29496
285.2949
285.29484
285.29478
285.29472
285.29465
285.29459
285.29452
285.29445
285.29438
285.29431
285.29424
285.29416
285.29409
285.29401
285.29393
285.29385
285.29377
285.29368
285.2936
285.29351
285.29343
285.29334
285.29325
285.29315
285.29306
285.29296
285.29287
285.29277
285.29267
285.29257
285.29247
285.29236
285.29226
285.29215
285.29204
285.29193
285.29181
285.2917
285.29158
285.29146
285.29134
285.29122
285.2911
285.29097
285.29084
285.29072
285.29058
285.29045
285.29032
285.29018
285.29004
285.2899
285.28976
285.28961
285.28946
285.28932
285.28916
285.28901
285.28886
285.2887
285.28854
285.28838
285.28822
285.28805
285.28789
285.28772
285.28755
285.28737
285.2872
285.28702
285.28685
285.28667
285.28648
285.2863
285.28611
285.28592
285.28573
285.28554
285.28534
285.28515
285.28495
285.28475
285.28454
285.28433
285.28413
285.28391
285.2837
285.28349
285.28327
285.28305
285.28283
285.2826
285.28238
285.28215
285.28192
285.28169
285.28146
285.28122
285.28099
285.28075
285.28051
285.28027
285.28002
285.27978
285.27953
285.27928
285.27903
285.27877
285.27852
285.27826
285.278
285.27774
285.27748
285.27721
285.27695
285.27668
285.27641
285.27614
285.27586
285.27559
285.27531
285.27503
285.27475
285.27447
285.27419
285.2739
285.27362
285.27333
285.27304
285.27274
285.27245
285.27215
285.27185
285.27155
285.27125
285.27094
285.27064
285.27033
285.27001
285.2697
285.26938
285.26905
285.26872
285.26839
285.26805
285.26771
285.26736
285.267
285.26664
285.26627
285.26589
285.2655
285.26511
285.2647
285.26429
285.26387
285.26344
285.26299
285.26254
285.26208
285.26161
285.26113
285.26065
285.26015
285.25965
285.25915
285.25864
285.25812
285.2576
285.25707
285.25655
285.25601
285.25548
285.25496
285.25444
285.25393
285.25343
285.25294
285.25247
285.25201
285.25157
285.25114
285.25073
285.25033
285.24995
285.24958
285.24922
285.24887
285.24853
285.24819
285.24786
285.24754
285.2472
285.24687
285.24653
285.24619
285.24584
285.24547
285.24508
285.24466
285.24421
285.24373
285.24322
285.24267
285.24212
285.24164
285.24137
285.24132
285.24135
285.24155
285.24226
285.24432
285.24985
285.26401
285.29932
285.38553
285.57338
285.83859
286.17552
286.58543
287.06686
287.61582
288.226
288.88912
289.59532
290.33364
291.09251
291.86026
292.62551
293.37764
294.10709
294.80563
295.4665
296.08451
296.65599
297.17878
297.65206
298.07623
298.45269
298.78367
299.07199
299.32089
299.53387
299.71454
299.86651
299.99328
300.09817
300.18425
300.25431
300.31084
300.35605
300.39188
300.41999
300.44182
300.45861
300.47136
300.48094
300.48803
300.49317
300.49676
300.4991
300.50048
300.50117
300.50141
300.50144
300.50135
300.50098
300.50016
300.49922
300.49825
300.49724
300.49622
300.49519
300.49415
300.4931
300.49205
300.491
300.48994
300.48887
300.4878
300.48671
300.48562
300.48452
300.48341
300.48229
300.48117
300.48004
300.47891
300.47777
300.47664
300.47551
300.47438
300.47326
300.47214
300.47104
300.46995
300.46887
300.4678
300.46674
300.4657
300.46468
300.46367
300.46268
300.4617
300.46073
300.45979
300.45885
300.45793
300.45702
300.45613
300.45524
300.45437
300.45351
300.45265
300.45181
300.45098
300.45015
300.44933
300.44852
300.44772
300.44692
300.44613
300.44534
300.44456
300.44379
300.44302
300.44225
300.44149
300.44073
300.43998
300.43923
300.43849
300.43775
300.43701
300.43628
300.43555
300.43482