/*--------------------------------*- C++ -*----------------------------------*\
  =========                 |
  \\      /  F ield         | OpenFOAM: The Open Source CFD Toolbox
   \\    /   O peration     | Website:  https://openfoam.org
    \\  /    A nd           | Version:  7
     \\/     M anipulation  |
\*---------------------------------------------------------------------------*/
FoamFile
{
    version     2.0;
    format      ascii;
    class       volScalarField;
    location    "0.00315";
    object      p;
}
// * * * * * * * * * * * * * * * * * * * * * * * * * * * * * * * * * * * * * //

dimensions      [1 -1 -2 0 0 0 0];

internalField   nonuniform List<scalar> 
5000
(
109813.35
109813.35
109813.35
109813.35
109813.35
109813.35
109813.35
109813.35
109813.35
109813.35
109813.35
109813.35
109813.35
109813.35
109813.35
109813.35
109813.35
109813.35
109813.35
109813.35
109813.35
109813.35
109813.35
109813.35
109813.35
109813.35
109813.35
109813.35
109813.35
109813.35
109813.35
109813.35
109813.35
109813.35
109813.35
109813.35
109813.35
109813.35
109813.35
109813.35
109813.35
109813.35
109813.35
109813.35
109813.35
109813.35
109813.35
109813.35
109813.35
109813.35
109813.35
109813.35
109813.35
109813.35
109813.35
109813.35
109813.35
109813.35
109813.35
109813.35
109813.35
109813.35
109813.35
109813.35
109813.35
109813.35
109813.35
109813.35
109813.35
109813.35
109813.35
109813.35
109813.35
109813.35
109813.35
109813.35
109813.35
109813.35
109813.35
109813.35
109813.35
109813.35
109813.35
109813.35
109813.35
109813.35
109813.35
109813.35
109813.35
109813.35
109813.36
109813.36
109813.36
109813.36
109813.36
109813.36
109813.36
109813.36
109813.36
109813.36
109813.36
109813.36
109813.36
109813.36
109813.36
109813.36
109813.36
109813.36
109813.36
109813.36
109813.36
109813.36
109813.36
109813.36
109813.36
109813.36
109813.36
109813.36
109813.36
109813.36
109813.36
109813.36
109813.36
109813.36
109813.36
109813.36
109813.36
109813.36
109813.36
109813.36
109813.36
109813.36
109813.36
109813.36
109813.36
109813.36
109813.36
109813.36
109813.36
109813.36
109813.36
109813.36
109813.36
109813.36
109813.36
109813.36
109813.36
109813.36
109813.36
109813.36
109813.36
109813.36
109813.36
109813.36
109813.36
109813.36
109813.36
109813.36
109813.36
109813.36
109813.36
109813.36
109813.36
109813.36
109813.36
109813.36
109813.36
109813.36
109813.36
109813.36
109813.36
109813.36
109813.36
109813.36
109813.36
109813.36
109813.36
109813.36
109813.36
109813.36
109813.36
109813.36
109813.36
109813.36
109813.36
109813.36
109813.36
109813.36
109813.36
109813.36
109813.36
109813.36
109813.36
109813.36
109813.36
109813.36
109813.36
109813.36
109813.36
109813.36
109813.36
109813.37
109813.37
109813.37
109813.37
109813.37
109813.37
109813.37
109813.37
109813.37
109813.37
109813.37
109813.37
109813.37
109813.37
109813.37
109813.37
109813.37
109813.37
109813.37
109813.37
109813.37
109813.37
109813.37
109813.37
109813.37
109813.37
109813.37
109813.37
109813.37
109813.37
109813.37
109813.37
109813.37
109813.37
109813.37
109813.37
109813.37
109813.37
109813.37
109813.37
109813.37
109813.37
109813.37
109813.37
109813.37
109813.37
109813.37
109813.37
109813.37
109813.37
109813.37
109813.37
109813.37
109813.37
109813.37
109813.37
109813.37
109813.37
109813.37
109813.37
109813.37
109813.37
109813.37
109813.37
109813.37
109813.37
109813.37
109813.37
109813.37
109813.37
109813.37
109813.37
109813.37
109813.37
109813.37
109813.37
109813.37
109813.37
109813.37
109813.37
109813.37
109813.37
109813.37
109813.37
109813.37
109813.37
109813.37
109813.37
109813.37
109813.37
109813.37
109813.37
109813.37
109813.37
109813.37
109813.37
109813.37
109813.37
109813.37
109813.37
109813.37
109813.37
109813.37
109813.37
109813.37
109813.37
109813.37
109813.37
109813.37
109813.37
109813.37
109813.37
109813.37
109813.37
109813.37
109813.37
109813.37
109813.37
109813.38
109813.38
109813.38
109813.38
109813.38
109813.38
109813.38
109813.38
109813.38
109813.38
109813.38
109813.38
109813.38
109813.38
109813.38
109813.38
109813.38
109813.38
109813.38
109813.38
109813.38
109813.38
109813.38
109813.38
109813.38
109813.38
109813.38
109813.38
109813.38
109813.38
109813.38
109813.38
109813.38
109813.38
109813.38
109813.38
109813.38
109813.38
109813.38
109813.38
109813.38
109813.38
109813.38
109813.38
109813.38
109813.38
109813.38
109813.38
109813.38
109813.38
109813.38
109813.38
109813.38
109813.38
109813.38
109813.38
109813.38
109813.38
109813.38
109813.38
109813.38
109813.38
109813.38
109813.38
109813.38
109813.38
109813.38
109813.38
109813.38
109813.38
109813.38
109813.38
109813.38
109813.38
109813.38
109813.38
109813.38
109813.38
109813.38
109813.38
109813.38
109813.38
109813.38
109813.38
109813.38
109813.38
109813.38
109813.38
109813.38
109813.38
109813.38
109813.38
109813.38
109813.38
109813.38
109813.38
109813.38
109813.38
109813.38
109813.38
109813.38
109813.38
109813.38
109813.38
109813.38
109813.38
109813.38
109813.38
109813.38
109813.38
109813.38
109813.38
109813.38
109813.38
109813.38
109813.38
109813.38
109813.38
109813.38
109813.38
109813.38
109813.38
109813.38
109813.38
109813.38
109813.38
109813.39
109813.39
109813.39
109813.39
109813.39
109813.39
109813.39
109813.39
109813.39
109813.39
109813.39
109813.39
109813.39
109813.39
109813.39
109813.39
109813.39
109813.39
109813.39
109813.39
109813.39
109813.39
109813.39
109813.39
109813.39
109813.39
109813.39
109813.39
109813.39
109813.39
109813.39
109813.39
109813.39
109813.39
109813.39
109813.39
109813.39
109813.39
109813.39
109813.39
109813.39
109813.39
109813.39
109813.39
109813.39
109813.39
109813.39
109813.39
109813.39
109813.39
109813.39
109813.39
109813.39
109813.39
109813.39
109813.39
109813.39
109813.39
109813.39
109813.39
109813.39
109813.39
109813.39
109813.39
109813.39
109813.39
109813.39
109813.39
109813.39
109813.39
109813.39
109813.39
109813.39
109813.39
109813.39
109813.39
109813.39
109813.39
109813.39
109813.39
109813.39
109813.39
109813.39
109813.39
109813.39
109813.39
109813.39
109813.39
109813.39
109813.39
109813.39
109813.39
109813.39
109813.39
109813.39
109813.39
109813.39
109813.39
109813.39
109813.39
109813.39
109813.39
109813.39
109813.39
109813.39
109813.39
109813.39
109813.39
109813.39
109813.39
109813.39
109813.39
109813.39
109813.39
109813.39
109813.39
109813.39
109813.39
109813.39
109813.39
109813.39
109813.39
109813.39
109813.39
109813.39
109813.39
109813.39
109813.39
109813.39
109813.39
109813.39
109813.39
109813.39
109813.39
109813.39
109813.39
109813.39
109813.39
109813.39
109813.39
109813.39
109813.39
109813.4
109813.4
109813.4
109813.4
109813.4
109813.4
109813.4
109813.4
109813.4
109813.4
109813.4
109813.4
109813.4
109813.4
109813.4
109813.4
109813.4
109813.4
109813.4
109813.4
109813.4
109813.4
109813.4
109813.4
109813.4
109813.4
109813.4
109813.4
109813.4
109813.4
109813.4
109813.4
109813.4
109813.4
109813.4
109813.4
109813.4
109813.4
109813.4
109813.4
109813.4
109813.4
109813.4
109813.4
109813.4
109813.4
109813.4
109813.4
109813.4
109813.4
109813.4
109813.4
109813.4
109813.4
109813.4
109813.4
109813.4
109813.4
109813.4
109813.4
109813.4
109813.4
109813.4
109813.4
109813.4
109813.4
109813.4
109813.4
109813.4
109813.4
109813.4
109813.4
109813.4
109813.4
109813.4
109813.4
109813.4
109813.4
109813.4
109813.4
109813.4
109813.4
109813.4
109813.4
109813.4
109813.4
109813.4
109813.4
109813.4
109813.4
109813.4
109813.4
109813.4
109813.4
109813.4
109813.4
109813.4
109813.4
109813.4
109813.4
109813.4
109813.4
109813.4
109813.4
109813.4
109813.4
109813.4
109813.4
109813.4
109813.4
109813.4
109813.4
109813.4
109813.4
109813.4
109813.4
109813.4
109813.4
109813.4
109813.4
109813.4
109813.4
109813.4
109813.4
109813.4
109813.4
109813.4
109813.4
109813.4
109813.4
109813.4
109813.4
109813.4
109813.4
109813.4
109813.4
109813.4
109813.4
109813.4
109813.4
109813.4
109813.4
109813.4
109813.4
109813.4
109813.4
109813.41
109813.41
109813.41
109813.41
109813.41
109813.41
109813.41
109813.41
109813.41
109813.41
109813.41
109813.41
109813.41
109813.41
109813.41
109813.41
109813.41
109813.41
109813.41
109813.41
109813.41
109813.41
109813.41
109813.41
109813.41
109813.41
109813.41
109813.41
109813.41
109813.41
109813.41
109813.41
109813.41
109813.41
109813.41
109813.41
109813.41
109813.41
109813.41
109813.41
109813.41
109813.41
109813.41
109813.41
109813.41
109813.41
109813.41
109813.41
109813.41
109813.41
109813.41
109813.41
109813.41
109813.41
109813.41
109813.41
109813.41
109813.41
109813.41
109813.41
109813.41
109813.41
109813.41
109813.41
109813.41
109813.41
109813.41
109813.41
109813.41
109813.41
109813.41
109813.41
109813.41
109813.41
109813.41
109813.41
109813.41
109813.41
109813.41
109813.41
109813.41
109813.41
109813.41
109813.41
109813.41
109813.41
109813.41
109813.41
109813.41
109813.41
109813.41
109813.41
109813.41
109813.41
109813.41
109813.41
109813.41
109813.41
109813.41
109813.41
109813.41
109813.41
109813.41
109813.41
109813.41
109813.41
109813.41
109813.41
109813.41
109813.41
109813.41
109813.41
109813.41
109813.41
109813.41
109813.41
109813.41
109813.41
109813.41
109813.41
109813.41
109813.41
109813.41
109813.41
109813.41
109813.41
109813.41
109813.41
109813.41
109813.41
109813.41
109813.41
109813.41
109813.41
109813.41
109813.41
109813.41
109813.41
109813.41
109813.41
109813.41
109813.41
109813.41
109813.41
109813.41
109813.41
109813.41
109813.41
109813.41
109813.41
109813.41
109813.41
109813.41
109813.41
109813.41
109813.41
109813.42
109813.42
109813.42
109813.42
109813.42
109813.42
109813.42
109813.42
109813.42
109813.42
109813.42
109813.42
109813.42
109813.42
109813.42
109813.42
109813.42
109813.42
109813.42
109813.42
109813.42
109813.42
109813.42
109813.42
109813.42
109813.42
109813.42
109813.42
109813.42
109813.42
109813.42
109813.42
109813.42
109813.42
109813.42
109813.42
109813.42
109813.42
109813.42
109813.42
109813.42
109813.42
109813.42
109813.42
109813.42
109813.42
109813.42
109813.42
109813.42
109813.42
109813.42
109813.42
109813.42
109813.42
109813.42
109813.42
109813.42
109813.42
109813.42
109813.42
109813.42
109813.42
109813.42
109813.42
109813.42
109813.42
109813.42
109813.42
109813.42
109813.42
109813.42
109813.42
109813.42
109813.42
109813.42
109813.42
109813.42
109813.42
109813.42
109813.42
109813.42
109813.42
109813.42
109813.42
109813.42
109813.42
109813.42
109813.42
109813.42
109813.42
109813.42
109813.42
109813.42
109813.42
109813.42
109813.42
109813.42
109813.42
109813.42
109813.42
109813.42
109813.42
109813.42
109813.42
109813.42
109813.42
109813.42
109813.42
109813.42
109813.42
109813.42
109813.42
109813.42
109813.42
109813.42
109813.42
109813.42
109813.42
109813.42
109813.42
109813.42
109813.42
109813.42
109813.42
109813.42
109813.42
109813.42
109813.42
109813.42
109813.42
109813.42
109813.42
109813.42
109813.42
109813.42
109813.42
109813.42
109813.42
109813.42
109813.42
109813.42
109813.42
109813.42
109813.42
109813.42
109813.42
109813.42
109813.42
109813.42
109813.42
109813.43
109813.43
109813.43
109813.43
109813.43
109813.43
109813.43
109813.43
109813.43
109813.43
109813.43
109813.43
109813.43
109813.43
109813.43
109813.43
109813.43
109813.43
109813.43
109813.43
109813.43
109813.43
109813.43
109813.43
109813.43
109813.43
109813.43
109813.43
109813.43
109813.43
109813.43
109813.43
109813.43
109813.43
109813.43
109813.43
109813.43
109813.43
109813.43
109813.43
109813.43
109813.43
109813.43
109813.43
109813.43
109813.43
109813.43
109813.43
109813.43
109813.43
109813.43
109813.43
109813.43
109813.43
109813.43
109813.43
109813.43
109813.43
109813.43
109813.43
109813.43
109813.43
109813.43
109813.43
109813.43
109813.43
109813.43
109813.43
109813.43
109813.43
109813.43
109813.43
109813.43
109813.43
109813.43
109813.43
109813.43
109813.43
109813.43
109813.43
109813.43
109813.43
109813.43
109813.43
109813.43
109813.43
109813.43
109813.43
109813.43
109813.43
109813.43
109813.43
109813.43
109813.43
109813.43
109813.43
109813.43
109813.43
109813.43
109813.43
109813.43
109813.43
109813.43
109813.43
109813.43
109813.43
109813.43
109813.43
109813.43
109813.43
109813.43
109813.43
109813.43
109813.43
109813.43
109813.43
109813.43
109813.43
109813.43
109813.43
109813.43
109813.43
109813.43
109813.43
109813.43
109813.43
109813.43
109813.43
109813.43
109813.43
109813.43
109813.43
109813.43
109813.43
109813.43
109813.43
109813.43
109813.43
109813.43
109813.43
109813.43
109813.43
109813.43
109813.43
109813.43
109813.43
109813.43
109813.43
109813.43
109813.43
109813.43
109813.43
109813.43
109813.43
109813.43
109813.43
109813.43
109813.43
109813.43
109813.43
109813.43
109813.43
109813.43
109813.43
109813.43
109813.43
109813.43
109813.43
109813.43
109813.43
109813.43
109813.43
109813.43
109813.43
109813.44
109813.44
109813.44
109813.44
109813.44
109813.44
109813.44
109813.44
109813.44
109813.44
109813.44
109813.44
109813.44
109813.44
109813.44
109813.44
109813.44
109813.44
109813.44
109813.44
109813.44
109813.44
109813.44
109813.44
109813.44
109813.44
109813.44
109813.44
109813.44
109813.44
109813.44
109813.44
109813.44
109813.44
109813.44
109813.44
109813.44
109813.44
109813.44
109813.44
109813.44
109813.44
109813.44
109813.44
109813.44
109813.44
109813.44
109813.44
109813.44
109813.44
109813.44
109813.44
109813.44
109813.44
109813.44
109813.44
109813.44
109813.44
109813.44
109813.44
109813.44
109813.44
109813.44
109813.44
109813.44
109813.44
109813.44
109813.44
109813.44
109813.44
109813.44
109813.44
109813.44
109813.44
109813.44
109813.44
109813.44
109813.44
109813.44
109813.44
109813.44
109813.44
109813.44
109813.44
109813.44
109813.44
109813.44
109813.44
109813.44
109813.44
109813.44
109813.44
109813.44
109813.44
109813.44
109813.44
109813.44
109813.44
109813.44
109813.44
109813.44
109813.44
109813.44
109813.44
109813.44
109813.44
109813.44
109813.44
109813.44
109813.44
109813.44
109813.44
109813.44
109813.44
109813.44
109813.44
109813.44
109813.44
109813.44
109813.44
109813.44
109813.44
109813.44
109813.44
109813.44
109813.44
109813.44
109813.44
109813.44
109813.44
109813.44
109813.44
109813.44
109813.44
109813.44
109813.44
109813.44
109813.44
109813.44
109813.44
109813.44
109813.44
109813.44
109813.44
109813.44
109813.44
109813.44
109813.44
109813.44
109813.44
109813.44
109813.44
109813.44
109813.44
109813.44
109813.44
109813.44
109813.44
109813.44
109813.44
109813.44
109813.44
109813.44
109813.44
109813.44
109813.44
109813.44
109813.44
109813.44
109813.44
109813.44
109813.45
109813.45
109813.45
109813.45
109813.45
109813.45
109813.45
109813.45
109813.45
109813.45
109813.45
109813.45
109813.45
109813.45
109813.45
109813.45
109813.45
109813.45
109813.45
109813.45
109813.45
109813.45
109813.45
109813.45
109813.45
109813.45
109813.45
109813.45
109813.45
109813.45
109813.45
109813.45
109813.45
109813.45
109813.45
109813.45
109813.45
109813.45
109813.45
109813.45
109813.45
109813.45
109813.45
109813.45
109813.45
109813.45
109813.45
109813.45
109813.45
109813.45
109813.45
109813.45
109813.45
109813.45
109813.45
109813.45
109813.45
109813.45
109813.45
109813.45
109813.45
109813.45
109813.45
109813.45
109813.45
109813.45
109813.45
109813.45
109813.45
109813.45
109813.45
109813.45
109813.45
109813.45
109813.45
109813.45
109813.45
109813.45
109813.45
109813.45
109813.45
109813.45
109813.45
109813.45
109813.45
109813.45
109813.45
109813.45
109813.45
109813.45
109813.45
109813.45
109813.45
109813.45
109813.45
109813.45
109813.45
109813.45
109813.45
109813.45
109813.45
109813.45
109813.45
109813.45
109813.45
109813.45
109813.45
109813.45
109813.45
109813.45
109813.45
109813.45
109813.45
109813.45
109813.45
109813.45
109813.45
109813.45
109813.45
109813.45
109813.45
109813.45
109813.45
109813.45
109813.45
109813.45
109813.45
109813.45
109813.45
109813.45
109813.45
109813.45
109813.45
109813.45
109813.45
109813.45
109813.45
109813.45
109813.45
109813.45
109813.45
109813.45
109813.45
109813.45
109813.45
109813.45
109813.45
109813.45
109813.45
109813.45
109813.45
109813.45
109813.45
109813.45
109813.45
109813.45
109813.45
109813.45
109813.45
109813.45
109813.45
109813.45
109813.45
109813.45
109813.45
109813.45
109813.45
109813.45
109813.45
109813.45
109813.45
109813.45
109813.45
109813.45
109813.45
109813.45
109813.45
109813.45
109813.45
109813.45
109813.45
109813.45
109813.45
109813.45
109813.45
109813.45
109813.45
109813.45
109813.45
109813.45
109813.45
109813.45
109813.45
109813.45
109813.46
109813.46
109813.46
109813.46
109813.46
109813.46
109813.46
109813.46
109813.46
109813.46
109813.46
109813.46
109813.46
109813.46
109813.46
109813.46
109813.46
109813.46
109813.46
109813.46
109813.46
109813.46
109813.46
109813.46
109813.46
109813.46
109813.46
109813.46
109813.46
109813.46
109813.46
109813.46
109813.46
109813.46
109813.46
109813.46
109813.46
109813.46
109813.46
109813.46
109813.46
109813.46
109813.46
109813.46
109813.46
109813.46
109813.46
109813.46
109813.46
109813.46
109813.46
109813.46
109813.46
109813.46
109813.46
109813.46
109813.46
109813.46
109813.46
109813.46
109813.46
109813.46
109813.46
109813.46
109813.46
109813.46
109813.46
109813.46
109813.46
109813.46
109813.46
109813.46
109813.46
109813.46
109813.46
109813.46
109813.46
109813.46
109813.46
109813.46
109813.46
109813.46
109813.46
109813.46
109813.46
109813.46
109813.46
109813.46
109813.46
109813.46
109813.46
109813.46
109813.46
109813.46
109813.46
109813.46
109813.46
109813.46
109813.46
109813.46
109813.46
109813.46
109813.46
109813.46
109813.46
109813.46
109813.46
109813.46
109813.46
109813.46
109813.46
109813.46
109813.46
109813.46
109813.46
109813.46
109813.46
109813.46
109813.46
109813.46
109813.46
109813.46
109813.46
109813.46
109813.46
109813.46
109813.46
109813.46
109813.46
109813.46
109813.46
109813.46
109813.46
109813.46
109813.46
109813.46
109813.46
109813.46
109813.46
109813.46
109813.46
109813.46
109813.46
109813.46
109813.46
109813.46
109813.46
109813.46
109813.46
109813.46
109813.46
109813.46
109813.46
109813.46
109813.46
109813.46
109813.46
109813.46
109813.46
109813.46
109813.46
109813.46
109813.46
109813.46
109813.46
109813.46
109813.46
109813.46
109813.46
109813.46
109813.46
109813.46
109813.46
109813.46
109813.46
109813.46
109813.46
109813.46
109813.46
109813.46
109813.46
109813.46
109813.46
109813.46
109813.46
109813.46
109813.46
109813.46
109813.46
109813.46
109813.45
109813.45
109813.45
109813.45
109813.45
109813.45
109813.45
109813.45
109813.45
109813.45
109813.45
109813.45
109813.45
109813.45
109813.45
109813.45
109813.45
109813.45
109813.44
109813.44
109813.44
109813.44
109813.44
109813.44
109813.44
109813.44
109813.44
109813.44
109813.43
109813.43
109813.43
109813.43
109813.43
109813.43
109813.43
109813.42
109813.42
109813.42
109813.42
109813.42
109813.41
109813.41
109813.41
109813.41
109813.41
109813.4
109813.4
109813.4
109813.4
109813.39
109813.39
109813.39
109813.38
109813.38
109813.38
109813.37
109813.37
109813.37
109813.36
109813.36
109813.36
109813.35
109813.35
109813.34
109813.34
109813.33
109813.33
109813.32
109813.32
109813.31
109813.31
109813.3
109813.29
109813.29
109813.28
109813.27
109813.27
109813.26
109813.25
109813.24
109813.23
109813.23
109813.22
109813.21
109813.2
109813.19
109813.18
109813.17
109813.16
109813.15
109813.13
109813.12
109813.11
109813.1
109813.08
109813.07
109813.06
109813.04
109813.03
109813.01
109812.99
109812.98
109812.96
109812.94
109812.92
109812.91
109812.89
109812.87
109812.85
109812.82
109812.8
109812.78
109812.76
109812.73
109812.71
109812.68
109812.65
109812.63
109812.6
109812.57
109812.54
109812.51
109812.48
109812.44
109812.41
109812.37
109812.34
109812.3
109812.26
109812.22
109812.18
109812.14
109812.1
109812.05
109812.01
109811.96
109811.91
109811.86
109811.81
109811.76
109811.71
109811.65
109811.59
109811.54
109811.48
109811.41
109811.35
109811.28
109811.22
109811.15
109811.08
109811
109810.93
109810.85
109810.77
109810.69
109810.6
109810.52
109810.43
109810.34
109810.25
109810.15
109810.05
109809.95
109809.85
109809.74
109809.63
109809.52
109809.41
109809.29
109809.17
109809.04
109808.92
109808.79
109808.65
109808.52
109808.38
109808.23
109808.09
109807.94
109807.78
109807.62
109807.46
109807.29
109807.12
109806.95
109806.77
109806.59
109806.4
109806.21
109806.01
109805.81
109805.61
109805.4
109805.18
109804.96
109804.74
109804.51
109804.27
109804.03
109803.79
109803.54
109803.28
109803.02
109802.75
109802.47
109802.19
109801.91
109801.61
109801.32
109801.01
109800.7
109800.38
109800.06
109799.72
109799.39
109799.04
109798.69
109798.33
109797.96
109797.58
109797.2
109796.81
109796.41
109796.01
109795.6
109795.17
109794.74
109794.31
109793.86
109793.4
109792.94
109792.47
109791.99
109791.5
109791
109790.49
109789.97
109789.44
109788.9
109788.36
109787.8
109787.23
109786.66
109786.07
109785.47
109784.87
109784.25
109783.62
109782.98
109782.33
109781.67
109781
109780.32
109779.62
109778.92
109778.2
109777.47
109776.73
109775.98
109775.22
109774.44
109773.66
109772.86
109772.05
109771.22
109770.39
109769.54
109768.68
109767.8
109766.91
109766.01
109765.1
109764.18
109763.24
109762.29
109761.32
109760.34
109759.35
109758.35
109757.33
109756.3
109755.25
109754.19
109753.12
109752.03
109750.93
109749.82
109748.69
109747.54
109746.39
109745.22
109744.03
109742.83
109741.62
109740.39
109739.15
109737.9
109736.63
109735.34
109734.04
109732.73
109731.4
109730.06
109728.71
109727.34
109725.95
109724.55
109723.14
109721.72
109720.27
109718.82
109717.35
109715.87
109714.37
109712.86
109711.33
109709.79
109708.24
109706.67
109705.09
109703.5
109701.89
109700.27
109698.63
109696.98
109695.32
109693.64
109691.95
109690.25
109688.54
109686.81
109685.07
109683.32
109681.55
109679.78
109677.99
109676.18
109674.37
109672.54
109670.71
109668.86
109667
109665.12
109663.24
109661.35
109659.44
109657.53
109655.6
109653.66
109651.72
109649.76
109647.79
109645.82
109643.83
109641.84
109639.83
109637.82
109635.8
109633.77
109631.73
109629.68
109627.63
109625.57
109623.5
109621.42
109619.34
109617.25
109615.15
109613.05
109610.94
109608.82
109606.7
109604.58
109602.45
109600.31
109598.17
109596.03
109593.88
109591.73
109589.57
109587.41
109585.25
109583.08
109580.91
109578.74
109576.57
109574.4
109572.22
109570.05
109567.87
109565.69
109563.51
109561.33
109559.15
109556.97
109554.79
109552.62
109550.44
109548.26
109546.09
109543.92
109541.75
109539.58
109537.42
109535.26
109533.1
109530.95
109528.8
109526.65
109524.51
109522.37
109520.24
109518.11
109515.99
109513.87
109511.76
109509.65
109507.55
109505.46
109503.38
109501.3
109499.23
109497.16
109495.11
109493.06
109491.02
109488.99
109486.97
109484.95
109482.95
109480.95
109478.97
109476.99
109475.03
109473.07
109471.13
109469.19
109467.27
109465.35
109463.45
109461.56
109459.68
109457.81
109455.96
109454.11
109452.28
109450.46
109448.65
109446.86
109445.08
109443.31
109441.55
109439.81
109438.08
109436.37
109434.67
109432.98
109431.3
109429.64
109428
109426.36
109424.75
109423.14
109421.55
109419.98
109418.42
109416.87
109415.34
109413.83
109412.32
109410.84
109409.37
109407.91
109406.47
109405.04
109403.63
109402.24
109400.86
109399.49
109398.14
109396.81
109395.49
109394.19
109392.9
109391.63
109390.37
109389.13
109387.9
109386.69
109385.49
109384.31
109383.14
109381.99
109380.86
109379.74
109378.63
109377.54
109376.47
109375.41
109374.36
109373.33
109372.32
109371.32
109370.33
109369.36
109368.4
109367.46
109366.53
109365.62
109364.72
109363.83
109362.96
109362.1
109361.26
109360.43
109359.61
109358.81
109358.02
109357.25
109356.48
109355.73
109355
109354.28
109353.56
109352.87
109352.18
109351.51
109350.85
109350.2
109349.56
109348.94
109348.33
109347.73
109347.14
109346.56
109345.99
109345.44
109344.89
109344.36
109343.84
109343.33
109342.83
109342.34
109341.86
109341.39
109340.93
109340.48
109340.03
109339.6
109339.18
109338.77
109338.37
109337.97
109337.59
109337.21
109336.84
109336.49
109336.14
109335.79
109335.46
109335.13
109334.81
109334.5
109334.2
109333.9
109333.62
109333.34
109333.06
109332.79
109332.53
109332.28
109332.03
109331.79
109331.56
109331.33
109331.11
109330.89
109330.68
109330.48
109330.28
109330.09
109329.9
109329.72
109329.54
109329.37
109329.2
109329.04
109328.88
109328.73
109328.58
109328.43
109328.29
109328.16
109328.03
109327.9
109327.78
109327.66
109327.54
109327.43
109327.32
109327.21
109327.11
109327.01
109326.92
109326.83
109326.74
109326.65
109326.57
109326.49
109326.41
109326.33
109326.26
109326.19
109326.13
109326.06
109326
109325.94
109325.88
109325.82
109325.77
109325.72
109325.67
109325.62
109325.57
109325.53
109325.49
109325.45
109325.41
109325.37
109325.33
109325.3
109325.26
109325.23
109325.2
109325.17
109325.14
109325.12
109325.09
109325.07
109325.04
109325.02
109325
109324.98
109324.96
109324.94
109324.92
109324.9
109324.89
109324.87
109324.86
109324.84
109324.83
109324.82
109324.8
109324.79
109324.78
109324.77
109324.76
109324.75
109324.74
109324.74
109324.73
109324.72
109324.71
109324.71
109324.7
109324.69
109324.69
109324.68
109324.68
109324.67
109324.67
109324.66
109324.66
109324.66
109324.65
109324.65
109324.64
109324.64
109324.64
109324.64
109324.63
109324.63
109324.63
109324.62
109324.62
109324.62
109324.62
109324.62
109324.61
109324.61
109324.61
109324.61
109324.6
109324.6
109324.6
109324.6
109324.6
109324.59
109324.59
109324.59
109324.59
109324.59
109324.58
109324.58
109324.58
109324.58
109324.57
109324.57
109324.57
109324.57
109324.56
109324.56
109324.56
109324.55
109324.55
109324.55
109324.54
109324.54
109324.54
109324.53
109324.53
109324.52
109324.52
109324.52
109324.51
109324.51
109324.5
109324.5
109324.49
109324.49
109324.48
109324.47
109324.47
109324.46
109324.46
109324.45
109324.44
109324.44
109324.43
109324.42
109324.41
109324.41
109324.4
109324.39
109324.38
109324.37
109324.36
109324.36
109324.35
109324.34
109324.33
109324.32
109324.31
109324.3
109324.28
109324.27
109324.26
109324.25
109324.24
109324.23
109324.21
109324.2
109324.19
109324.17
109324.16
109324.14
109324.13
109324.11
109324.1
109324.08
109324.07
109324.05
109324.03
109324.01
109324
109323.98
109323.96
109323.94
109323.92
109323.9
109323.88
109323.86
109323.84
109323.82
109323.79
109323.77
109323.75
109323.72
109323.7
109323.67
109323.65
109323.62
109323.59
109323.57
109323.54
109323.51
109323.48
109323.45
109323.42
109323.39
109323.36
109323.33
109323.29
109323.26
109323.22
109323.19
109323.15
109323.12
109323.08
109323.04
109323
109322.96
109322.92
109322.88
109322.84
109322.8
109322.75
109322.71
109322.66
109322.62
109322.57
109322.52
109322.47
109322.42
109322.37
109322.32
109322.26
109322.21
109322.15
109322.1
109322.04
109321.98
109321.92
109321.86
109321.8
109321.74
109321.67
109321.61
109321.54
109321.47
109321.4
109321.33
109321.26
109321.19
109321.11
109321.04
109320.96
109320.88
109320.8
109320.72
109320.64
109320.55
109320.47
109320.38
109320.29
109320.2
109320.11
109320.02
109319.92
109319.83
109319.73
109319.63
109319.53
109319.42
109319.32
109319.21
109319.1
109318.99
109318.88
109318.77
109318.65
109318.53
109318.41
109318.29
109318.17
109318.04
109317.92
109317.79
109317.66
109317.52
109317.39
109317.25
109317.11
109316.97
109316.82
109316.68
109316.53
109316.38
109316.22
109316.07
109315.91
109315.75
109315.59
109315.42
109315.26
109315.09
109314.92
109314.74
109314.56
109314.38
109314.2
109314.02
109313.83
109313.64
109313.45
109313.25
109313.06
109312.85
109312.65
109312.45
109312.24
109312.02
109311.81
109311.59
109311.37
109311.15
109310.92
109310.69
109310.46
109310.23
109309.99
109309.75
109309.5
109309.26
109309.01
109308.75
109308.5
109308.24
109307.97
109307.71
109307.44
109307.17
109306.89
109306.61
109306.33
109306.04
109305.75
109305.46
109305.17
109304.87
109304.56
109304.26
109303.95
109303.63
109303.32
109303
109302.67
109302.35
109302.02
109301.68
109301.34
109301
109300.66
109300.31
109299.96
109299.6
109299.24
109298.88
109298.51
109298.14
109297.76
109297.38
109297
109296.62
109296.23
109295.83
109295.43
109295.03
109294.63
109294.22
109293.8
109293.39
109292.97
109292.54
109292.11
109291.68
109291.24
109290.8
109290.36
109289.91
109289.46
109289
109288.54
109288.08
109287.61
109287.14
109286.66
109286.18
109285.7
109285.21
109284.71
109284.22
109283.72
109283.21
109282.71
109282.19
109281.68
109281.16
109280.63
109280.1
109279.57
109279.03
109278.49
109277.95
109277.4
109276.85
109276.29
109275.73
109275.17
109274.6
109274.03
109273.45
109272.87
109272.29
109271.7
109271.11
109270.51
109269.91
109269.31
109268.7
109268.09
109267.47
109266.85
109266.23
109265.6
109264.97
109264.34
109263.7
109263.06
109262.42
109261.77
109261.11
109260.45
109259.79
109259.13
109258.46
109257.79
109257.11
109256.43
109255.75
109255.06
109254.37
109253.68
109252.98
109252.28
109251.58
109250.87
109250.16
109249.45
109248.73
109248.01
109247.29
109246.56
109245.83
109245.1
109244.36
109243.62
109242.87
109242.13
109241.38
109240.62
109239.86
109239.11
109238.34
109237.58
109236.81
109236.05
109235.28
109234.51
109233.73
109232.96
109232.11
109231.35
109230.57
109229.78
109228.99
109228.2
109227.41
109226.62
109225.82
109225.03
109224.23
109223.44
109222.64
109221.84
109221.05
109220.25
109219.45
109218.66
109217.86
109217.06
109216.26
109215.46
109214.66
109213.86
109213.06
109212.26
109211.45
109210.65
109209.84
109209.03
109208.22
109207.41
109206.6
109205.79
109204.97
109204.16
109203.34
109202.52
109201.7
109200.88
109200.06
109199.23
109198.41
109197.58
109196.75
109195.93
109195.1
109194.27
109193.44
109192.6
109191.77
109190.94
109190.1
109189.27
109188.43
109187.59
109186.76
109185.92
109185.08
109184.24
109183.4
109182.56
109181.72
109180.88
109180.04
109179.19
109178.35
109177.51
109176.67
109175.82
109174.98
109174.14
109173.29
109172.45
109171.61
109170.76
109169.92
109169.08
109168.23
109167.39
109166.55
109165.7
109164.86
109164.02
109163.18
109162.34
109161.5
109160.66
109159.82
109158.98
109158.14
109157.3
109156.46
109155.63
109154.79
109153.95
109153.12
109152.28
109151.45
109150.62
109149.79
109148.96
109148.13
109147.3
109146.47
109145.64
109144.82
109143.99
109143.17
109142.35
109141.53
109140.71
109139.89
109139.07
109138.26
109137.44
109136.63
109135.82