/*--------------------------------*- C++ -*----------------------------------*\
  =========                 |
  \\      /  F ield         | OpenFOAM: The Open Source CFD Toolbox
   \\    /   O peration     | Website:  https://openfoam.org
    \\  /    A nd           | Version:  7
     \\/     M anipulation  |
\*---------------------------------------------------------------------------*/
FoamFile
{
    version     2.0;
    format      ascii;
    class       volScalarField;
    location    "0.00255";
    object      p;
}
// * * * * * * * * * * * * * * * * * * * * * * * * * * * * * * * * * * * * * //

dimensions      [1 -1 -2 0 0 0 0];

internalField   nonuniform List<scalar> 
5000
(
109846.15
109846.15
109846.15
109846.15
109846.15
109846.15
109846.15
109846.15
109846.15
109846.15
109846.15
109846.16
109846.16
109846.16
109846.16
109846.16
109846.16
109846.16
109846.16
109846.16
109846.16
109846.16
109846.16
109846.16
109846.16
109846.16
109846.16
109846.16
109846.16
109846.16
109846.16
109846.16
109846.16
109846.16
109846.16
109846.16
109846.16
109846.16
109846.16
109846.16
109846.16
109846.16
109846.16
109846.16
109846.16
109846.16
109846.16
109846.16
109846.16
109846.16
109846.16
109846.16
109846.16
109846.17
109846.17
109846.17
109846.17
109846.17
109846.17
109846.17
109846.17
109846.17
109846.17
109846.17
109846.17
109846.17
109846.17
109846.17
109846.17
109846.17
109846.17
109846.17
109846.17
109846.17
109846.17
109846.17
109846.17
109846.17
109846.17
109846.17
109846.17
109846.17
109846.17
109846.17
109846.17
109846.17
109846.17
109846.17
109846.17
109846.17
109846.17
109846.17
109846.17
109846.17
109846.17
109846.17
109846.17
109846.18
109846.18
109846.18
109846.18
109846.18
109846.18
109846.18
109846.18
109846.18
109846.18
109846.18
109846.18
109846.18
109846.18
109846.18
109846.18
109846.18
109846.18
109846.18
109846.18
109846.18
109846.18
109846.18
109846.18
109846.18
109846.18
109846.18
109846.18
109846.18
109846.18
109846.18
109846.18
109846.18
109846.18
109846.18
109846.18
109846.18
109846.18
109846.18
109846.18
109846.18
109846.18
109846.18
109846.18
109846.18
109846.19
109846.19
109846.19
109846.19
109846.19
109846.19
109846.19
109846.19
109846.19
109846.19
109846.19
109846.19
109846.19
109846.19
109846.19
109846.19
109846.19
109846.19
109846.19
109846.19
109846.19
109846.19
109846.19
109846.19
109846.19
109846.19
109846.19
109846.19
109846.19
109846.19
109846.19
109846.19
109846.19
109846.19
109846.19
109846.19
109846.19
109846.19
109846.19
109846.19
109846.19
109846.19
109846.19
109846.19
109846.19
109846.19
109846.19
109846.2
109846.2
109846.2
109846.2
109846.2
109846.2
109846.2
109846.2
109846.2
109846.2
109846.2
109846.2
109846.2
109846.2
109846.2
109846.2
109846.2
109846.2
109846.2
109846.2
109846.2
109846.2
109846.2
109846.2
109846.2
109846.2
109846.2
109846.2
109846.2
109846.2
109846.2
109846.2
109846.2
109846.2
109846.2
109846.2
109846.2
109846.2
109846.2
109846.2
109846.2
109846.2
109846.2
109846.2
109846.2
109846.2
109846.2
109846.21
109846.21
109846.21
109846.21
109846.21
109846.21
109846.21
109846.21
109846.21
109846.21
109846.21
109846.21
109846.21
109846.21
109846.21
109846.21
109846.21
109846.21
109846.21
109846.21
109846.21
109846.21
109846.21
109846.21
109846.21
109846.21
109846.21
109846.21
109846.21
109846.21
109846.21
109846.21
109846.21
109846.21
109846.21
109846.21
109846.21
109846.21
109846.21
109846.21
109846.21
109846.21
109846.21
109846.21
109846.21
109846.21
109846.21
109846.21
109846.21
109846.21
109846.21
109846.22
109846.22
109846.22
109846.22
109846.22
109846.22
109846.22
109846.22
109846.22
109846.22
109846.22
109846.22
109846.22
109846.22
109846.22
109846.22
109846.22
109846.22
109846.22
109846.22
109846.22
109846.22
109846.22
109846.22
109846.22
109846.22
109846.22
109846.22
109846.22
109846.22
109846.22
109846.22
109846.22
109846.22
109846.22
109846.22
109846.22
109846.22
109846.22
109846.22
109846.22
109846.22
109846.22
109846.22
109846.22
109846.22
109846.22
109846.22
109846.22
109846.22
109846.22
109846.22
109846.22
109846.22
109846.23
109846.23
109846.23
109846.23
109846.23
109846.23
109846.23
109846.23
109846.23
109846.23
109846.23
109846.23
109846.23
109846.23
109846.23
109846.23
109846.23
109846.23
109846.23
109846.23
109846.23
109846.23
109846.23
109846.23
109846.23
109846.23
109846.23
109846.23
109846.23
109846.23
109846.23
109846.23
109846.23
109846.23
109846.23
109846.23
109846.23
109846.23
109846.23
109846.23
109846.23
109846.23
109846.23
109846.23
109846.23
109846.23
109846.23
109846.23
109846.23
109846.23
109846.23
109846.23
109846.23
109846.23
109846.23
109846.23
109846.24
109846.24
109846.24
109846.24
109846.24
109846.24
109846.24
109846.24
109846.24
109846.24
109846.24
109846.24
109846.24
109846.24
109846.24
109846.24
109846.24
109846.24
109846.24
109846.24
109846.24
109846.24
109846.24
109846.24
109846.24
109846.24
109846.24
109846.24
109846.24
109846.24
109846.24
109846.24
109846.24
109846.24
109846.24
109846.24
109846.24
109846.24
109846.24
109846.24
109846.24
109846.24
109846.24
109846.24
109846.24
109846.24
109846.24
109846.24
109846.24
109846.24
109846.24
109846.24
109846.24
109846.24
109846.24
109846.24
109846.24
109846.24
109846.24
109846.25
109846.25
109846.25
109846.25
109846.25
109846.25
109846.25
109846.25
109846.25
109846.25
109846.25
109846.25
109846.25
109846.25
109846.25
109846.25
109846.25
109846.25
109846.25
109846.25
109846.25
109846.25
109846.25
109846.25
109846.25
109846.25
109846.25
109846.25
109846.25
109846.25
109846.25
109846.25
109846.25
109846.25
109846.25
109846.25
109846.25
109846.25
109846.25
109846.25
109846.25
109846.25
109846.25
109846.25
109846.25
109846.25
109846.25
109846.25
109846.25
109846.25
109846.25
109846.25
109846.25
109846.25
109846.25
109846.25
109846.25
109846.25
109846.25
109846.25
109846.26
109846.26
109846.26
109846.26
109846.26
109846.26
109846.26
109846.26
109846.26
109846.26
109846.26
109846.26
109846.26
109846.26
109846.26
109846.26
109846.26
109846.26
109846.26
109846.26
109846.26
109846.26
109846.26
109846.26
109846.26
109846.26
109846.26
109846.26
109846.26
109846.26
109846.26
109846.26
109846.26
109846.26
109846.26
109846.26
109846.26
109846.26
109846.26
109846.26
109846.26
109846.26
109846.26
109846.26
109846.26
109846.26
109846.26
109846.26
109846.26
109846.26
109846.26
109846.26
109846.26
109846.26
109846.26
109846.26
109846.26
109846.26
109846.26
109846.26
109846.26
109846.27
109846.27
109846.27
109846.27
109846.27
109846.27
109846.27
109846.27
109846.27
109846.27
109846.27
109846.27
109846.27
109846.27
109846.27
109846.27
109846.27
109846.27
109846.27
109846.27
109846.27
109846.27
109846.27
109846.27
109846.27
109846.27
109846.27
109846.27
109846.27
109846.27
109846.27
109846.27
109846.27
109846.27
109846.27
109846.27
109846.27
109846.27
109846.27
109846.27
109846.27
109846.27
109846.27
109846.27
109846.27
109846.27
109846.27
109846.27
109846.27
109846.27
109846.27
109846.27
109846.27
109846.27
109846.27
109846.27
109846.27
109846.27
109846.27
109846.27
109846.27
109846.27
109846.27
109846.28
109846.28
109846.28
109846.28
109846.28
109846.28
109846.28
109846.28
109846.28
109846.28
109846.28
109846.28
109846.28
109846.28
109846.28
109846.28
109846.28
109846.28
109846.28
109846.28
109846.28
109846.28
109846.28
109846.28
109846.28
109846.28
109846.28
109846.28
109846.28
109846.28
109846.28
109846.28
109846.28
109846.28
109846.28
109846.28
109846.28
109846.28
109846.28
109846.28
109846.28
109846.28
109846.28
109846.28
109846.28
109846.28
109846.28
109846.28
109846.28
109846.28
109846.28
109846.28
109846.28
109846.28
109846.28
109846.28
109846.28
109846.28
109846.28
109846.28
109846.28
109846.28
109846.28
109846.28
109846.28
109846.28
109846.28
109846.29
109846.29
109846.29
109846.29
109846.29
109846.29
109846.29
109846.29
109846.29
109846.29
109846.29
109846.29
109846.29
109846.29
109846.29
109846.29
109846.29
109846.29
109846.29
109846.29
109846.29
109846.29
109846.29
109846.29
109846.29
109846.29
109846.29
109846.29
109846.29
109846.29
109846.29
109846.29
109846.29
109846.29
109846.29
109846.29
109846.29
109846.29
109846.29
109846.29
109846.29
109846.29
109846.29
109846.29
109846.29
109846.29
109846.29
109846.29
109846.29
109846.29
109846.29
109846.29
109846.29
109846.29
109846.29
109846.29
109846.29
109846.29
109846.29
109846.29
109846.29
109846.29
109846.29
109846.29
109846.29
109846.29
109846.29
109846.3
109846.3
109846.3
109846.3
109846.3
109846.3
109846.3
109846.3
109846.3
109846.3
109846.3
109846.3
109846.3
109846.3
109846.3
109846.3
109846.3
109846.3
109846.3
109846.3
109846.3
109846.3
109846.3
109846.3
109846.3
109846.3
109846.3
109846.3
109846.3
109846.3
109846.3
109846.3
109846.3
109846.3
109846.3
109846.3
109846.3
109846.3
109846.3
109846.3
109846.3
109846.3
109846.3
109846.3
109846.3
109846.3
109846.3
109846.3
109846.3
109846.3
109846.3
109846.3
109846.3
109846.3
109846.3
109846.3
109846.3
109846.3
109846.3
109846.3
109846.3
109846.3
109846.3
109846.3
109846.3
109846.3
109846.3
109846.3
109846.31
109846.31
109846.31
109846.31
109846.31
109846.31
109846.31
109846.31
109846.31
109846.31
109846.31
109846.31
109846.31
109846.31
109846.31
109846.31
109846.31
109846.31
109846.31
109846.31
109846.31
109846.31
109846.31
109846.31
109846.31
109846.31
109846.31
109846.31
109846.31
109846.31
109846.31
109846.31
109846.31
109846.31
109846.31
109846.31
109846.31
109846.31
109846.31
109846.31
109846.31
109846.31
109846.31
109846.31
109846.31
109846.31
109846.31
109846.31
109846.31
109846.31
109846.31
109846.31
109846.31
109846.31
109846.31
109846.31
109846.31
109846.31
109846.31
109846.31
109846.31
109846.31
109846.31
109846.31
109846.31
109846.31
109846.31
109846.31
109846.31
109846.32
109846.32
109846.32
109846.32
109846.32
109846.32
109846.32
109846.32
109846.32
109846.32
109846.32
109846.32
109846.32
109846.32
109846.32
109846.32
109846.32
109846.32
109846.32
109846.32
109846.32
109846.32
109846.32
109846.32
109846.32
109846.32
109846.32
109846.32
109846.32
109846.32
109846.32
109846.32
109846.32
109846.32
109846.32
109846.32
109846.32
109846.32
109846.32
109846.32
109846.32
109846.32
109846.32
109846.32
109846.32
109846.32
109846.32
109846.32
109846.32
109846.32
109846.32
109846.32
109846.32
109846.32
109846.32
109846.32
109846.32
109846.32
109846.32
109846.32
109846.32
109846.32
109846.32
109846.32
109846.32
109846.32
109846.32
109846.32
109846.32
109846.32
109846.33
109846.33
109846.33
109846.33
109846.33
109846.33
109846.33
109846.33
109846.33
109846.33
109846.33
109846.33
109846.33
109846.33
109846.33
109846.33
109846.33
109846.33
109846.33
109846.33
109846.33
109846.33
109846.33
109846.33
109846.33
109846.33
109846.33
109846.33
109846.33
109846.33
109846.33
109846.33
109846.33
109846.33
109846.33
109846.33
109846.33
109846.33
109846.33
109846.33
109846.33
109846.33
109846.33
109846.33
109846.33
109846.33
109846.33
109846.33
109846.33
109846.33
109846.33
109846.33
109846.33
109846.33
109846.33
109846.33
109846.33
109846.33
109846.33
109846.33
109846.33
109846.33
109846.33
109846.33
109846.33
109846.33
109846.33
109846.33
109846.33
109846.33
109846.34
109846.34
109846.34
109846.34
109846.34
109846.34
109846.34
109846.34
109846.34
109846.34
109846.34
109846.34
109846.34
109846.34
109846.34
109846.34
109846.34
109846.34
109846.34
109846.34
109846.34
109846.34
109846.34
109846.34
109846.34
109846.34
109846.34
109846.34
109846.34
109846.34
109846.34
109846.34
109846.34
109846.34
109846.34
109846.34
109846.34
109846.34
109846.34
109846.34
109846.34
109846.34
109846.34
109846.34
109846.34
109846.34
109846.34
109846.34
109846.34
109846.34
109846.34
109846.34
109846.34
109846.34
109846.34
109846.34
109846.34
109846.34
109846.34
109846.34
109846.34
109846.34
109846.34
109846.34
109846.34
109846.34
109846.34
109846.34
109846.34
109846.34
109846.34
109846.34
109846.34
109846.34
109846.34
109846.34
109846.34
109846.35
109846.35
109846.35
109846.35
109846.35
109846.35
109846.35
109846.35
109846.35
109846.35
109846.35
109846.35
109846.35
109846.35
109846.35
109846.35
109846.35
109846.35
109846.35
109846.35
109846.35
109846.35
109846.35
109846.35
109846.35
109846.35
109846.35
109846.35
109846.35
109846.35
109846.35
109846.35
109846.35
109846.35
109846.35
109846.35
109846.35
109846.35
109846.35
109846.35
109846.35
109846.35
109846.35
109846.35
109846.35
109846.35
109846.35
109846.35
109846.35
109846.35
109846.35
109846.35
109846.35
109846.35
109846.35
109846.35
109846.35
109846.35
109846.35
109846.35
109846.35
109846.35
109846.35
109846.35
109846.35
109846.35
109846.35
109846.35
109846.35
109846.35
109846.35
109846.35
109846.35
109846.35
109846.35
109846.35
109846.35
109846.35
109846.35
109846.35
109846.35
109846.35
109846.35
109846.35
109846.35
109846.35
109846.35
109846.35
109846.35
109846.35
109846.35
109846.35
109846.35
109846.35
109846.35
109846.35
109846.35
109846.35
109846.35
109846.35
109846.35
109846.35
109846.35
109846.35
109846.35
109846.35
109846.35
109846.35
109846.35
109846.35
109846.35
109846.35
109846.35
109846.35
109846.35
109846.35
109846.35
109846.35
109846.35
109846.35
109846.35
109846.35
109846.35
109846.35
109846.35
109846.35
109846.35
109846.35
109846.35
109846.35
109846.35
109846.35
109846.35
109846.35
109846.35
109846.35
109846.35
109846.35
109846.35
109846.35
109846.35
109846.35
109846.35
109846.35
109846.35
109846.35
109846.35
109846.35
109846.35
109846.35
109846.35
109846.35
109846.35
109846.35
109846.35
109846.35
109846.35
109846.35
109846.35
109846.35
109846.35
109846.35
109846.35
109846.35
109846.35
109846.35
109846.35
109846.35
109846.35
109846.35
109846.35
109846.35
109846.35
109846.35
109846.35
109846.35
109846.35
109846.35
109846.34
109846.34
109846.34
109846.34
109846.34
109846.34
109846.34
109846.34
109846.34
109846.34
109846.34
109846.34
109846.34
109846.34
109846.34
109846.34
109846.34
109846.34
109846.34
109846.34
109846.34
109846.34
109846.34
109846.34
109846.34
109846.34
109846.34
109846.33
109846.33
109846.33
109846.33
109846.33
109846.33
109846.33
109846.33
109846.33
109846.33
109846.33
109846.33
109846.33
109846.33
109846.33
109846.32
109846.32
109846.32
109846.32
109846.32
109846.32
109846.32
109846.32
109846.32
109846.32
109846.32
109846.31
109846.31
109846.31
109846.31
109846.31
109846.31
109846.31
109846.3
109846.3
109846.3
109846.3
109846.3
109846.3
109846.3
109846.29
109846.29
109846.29
109846.29
109846.29
109846.28
109846.28
109846.28
109846.28
109846.28
109846.27
109846.27
109846.27
109846.27
109846.26
109846.26
109846.26
109846.25
109846.25
109846.25
109846.24
109846.24
109846.24
109846.23
109846.23
109846.23
109846.22
109846.22
109846.22
109846.21
109846.21
109846.2
109846.2
109846.19
109846.19
109846.18
109846.18
109846.17
109846.17
109846.16
109846.16
109846.15
109846.15
109846.14
109846.13
109846.13
109846.12
109846.11
109846.11
109846.1
109846.09
109846.09
109846.08
109846.07
109846.06
109846.05
109846.04
109846.04
109846.03
109846.02
109846.01
109846
109845.99
109845.98
109845.97
109845.95
109845.94
109845.93
109845.92
109845.91
109845.9
109845.88
109845.87
109845.86
109845.84
109845.83
109845.81
109845.8
109845.78
109845.77
109845.75
109845.73
109845.72
109845.7
109845.68
109845.66
109845.64
109845.62
109845.6
109845.58
109845.56
109845.54
109845.52
109845.5
109845.47
109845.45
109845.43
109845.4
109845.38
109845.35
109845.32
109845.3
109845.27
109845.24
109845.21
109845.18
109845.15
109845.12
109845.09
109845.06
109845.02
109844.99
109844.95
109844.92
109844.88
109844.84
109844.81
109844.77
109844.73
109844.69
109844.64
109844.6
109844.56
109844.51
109844.47
109844.42
109844.37
109844.32
109844.27
109844.22
109844.17
109844.12
109844.06
109844.01
109843.95
109843.89
109843.84
109843.78
109843.71
109843.65
109843.59
109843.52
109843.46
109843.39
109843.32
109843.25
109843.18
109843.1
109843.03
109842.95
109842.87
109842.79
109842.71
109842.63
109842.55
109842.46
109842.37
109842.29
109842.2
109842.1
109842.01
109841.91
109841.82
109841.72
109841.61
109841.51
109841.41
109841.3
109841.19
109841.08
109840.97
109840.85
109840.74
109840.62
109840.5
109840.37
109840.25
109840.12
109839.99
109839.86
109839.73
109839.59
109839.45
109839.31
109839.17
109839.03
109838.88
109838.73
109838.58
109838.42
109838.26
109838.1
109837.94
109837.78
109837.61
109837.44
109837.27
109837.09
109836.91
109836.73
109836.55
109836.36
109836.17
109835.98
109835.79
109835.59
109835.39
109835.18
109834.98
109834.77
109834.56
109834.34
109834.12
109833.9
109833.68
109833.45
109833.22
109832.98
109832.75
109832.5
109832.26
109832.01
109831.76
109831.51
109831.25
109830.99
109830.73
109830.46
109830.19
109829.92
109829.64
109829.36
109829.07
109828.78
109828.49
109828.2
109827.9
109827.59
109827.29
109826.98
109826.66
109826.35
109826.02
109825.7
109825.37
109825.04
109824.7
109824.36
109824.02
109823.67
109823.32
109822.96
109822.6
109822.24
109821.87
109821.5
109821.12
109820.74
109820.36
109819.97
109819.58
109819.18
109818.78
109818.38
109817.97
109817.56
109817.14
109816.72
109816.29
109815.86
109815.43
109814.99
109814.55
109814.11
109813.65
109813.2
109812.74
109812.28
109811.81
109811.34
109810.86
109810.38
109809.9
109809.41
109808.92
109808.42
109807.92
109807.41
109806.9
109806.39
109805.87
109805.35
109804.82
109804.29
109803.75
109803.21
109802.66
109802.11
109801.56
109801
109800.44
109799.87
109799.3
109798.73
109798.15
109797.56
109796.98
109796.38
109795.79
109795.19
109794.58
109793.97
109793.36
109792.74
109792.12
109791.49
109790.86
109790.22
109789.59
109788.94
109788.29
109787.64
109786.99
109786.33
109785.66
109784.99
109784.32
109783.64
109782.96
109782.28
109781.59
109780.9
109780.2
109779.5
109778.8
109778.09
109777.37
109776.66
109775.94
109775.21
109774.49
109773.75
109773.02
109772.28
109771.53
109770.79
109770.04
109769.28
109768.52
109767.76
109767
109766.23
109765.46
109764.68
109763.9
109763.12
109762.33
109761.54
109760.75
109759.95
109759.15
109758.35
109757.54
109756.73
109755.92
109755.1
109754.28
109753.46
109752.63
109751.81
109750.97
109750.14
109749.3
109748.46
109747.62
109746.77
109745.92
109745.07
109744.22
109743.36
109742.5
109741.63
109740.77
109739.9
109739.03
109738.16
109737.28
109736.4
109735.52
109734.64
109733.76
109732.87
109731.98
109731.09
109730.2
109729.3
109728.4
109727.5
109726.6
109725.7
109724.79
109723.88
109722.97
109722.06
109721.15
109720.23
109719.32
109718.4
109717.48
109716.56
109715.64
109714.71
109713.79
109712.86
109711.93
109711
109710.07
109709.14
109708.21
109707.27
109706.34
109705.4
109704.46
109703.53
109702.59
109701.65
109700.71
109699.76
109698.82
109697.88
109696.94
109695.99
109695.05
109694.1
109693.15
109692.21
109691.26
109690.31
109689.37
109688.42
109687.47
109686.52
109685.58
109684.63
109683.68
109682.73
109681.78
109680.83
109679.89
109678.94
109677.99
109677.04
109676.1
109675.15
109674.2
109673.26
109672.31
109671.36
109670.42
109669.48
109668.53
109667.59
109666.65
109665.7
109664.76
109663.82
109662.88
109661.95
109661.01
109660.07
109659.14
109658.2
109657.27
109656.34
109655.41
109654.48
109653.55
109652.62
109651.69
109650.77
109649.84
109648.92
109648
109647.08
109646.16
109645.25
109644.33
109643.42
109642.51
109641.6
109640.69
109639.78
109638.88
109637.97
109637.07
109636.17
109635.28
109634.38
109633.49
109632.6
109631.71
109630.82
109629.93
109629.05
109628.17
109627.29
109626.41
109625.54
109624.66
109623.79
109622.92
109622.06
109621.19
109620.33
109619.47
109618.62
109617.76
109616.91
109616.06
109615.21
109614.37
109613.53
109612.69
109611.85
109611.02
109610.19
109609.36
109608.53
109607.71
109606.89
109606.07
109605.25
109604.44
109603.63
109602.82
109602.02
109601.22
109600.42
109599.62
109598.83
109598.04
109597.25
109596.47
109595.69
109594.91
109594.13
109593.36
109592.59
109591.82
109591.06
109590.3
109589.54
109588.79
109588.04
109587.29
109586.54
109585.8
109585.06
109584.32
109583.59
109582.86
109582.13
109581.41
109580.69
109579.97
109579.25
109578.54
109577.83
109577.13
109576.43
109575.73
109575.03
109574.34
109573.65
109572.96
109572.28
109571.6
109570.92
109570.25
109569.58
109568.91
109568.25
109567.59
109566.93
109566.27
109565.62
109564.97
109564.33
109563.69
109563.05
109562.41
109561.78
109561.15
109560.52
109559.9
109559.28
109558.66
109558.05
109557.44
109556.83
109556.23
109555.62
109555.03
109554.43
109553.84
109553.25
109552.67
109552.08
109551.5
109550.93
109550.35
109549.78
109549.22
109548.65
109548.09
109547.53
109546.98
109546.43
109545.88
109545.33
109544.79
109544.25
109543.71
109543.18
109542.65
109542.12
109541.6
109541.07
109540.55
109540.04
109539.53
109539.02
109538.51
109538
109537.5
109537
109536.51
109536.02
109535.53
109535.04
109534.55
109534.07
109533.59
109533.12
109532.65
109532.18
109531.71
109531.24
109530.78
109530.32
109529.87
109529.41
109528.96
109528.52
109528.07
109527.63
109527.19
109526.75
109526.32
109525.88
109525.45
109525.03
109524.6
109524.18
109523.76
109523.35
109522.94
109522.52
109522.12
109521.71
109521.31
109520.91
109520.51
109520.11
109519.72
109519.33
109518.94
109518.56
109518.18
109517.79
109517.42
109517.04
109516.67
109516.3
109515.93
109515.56
109515.2
109514.84
109514.48
109514.13
109513.77
109513.42
109513.07
109512.73
109512.38
109512.04
109511.7
109511.37
109511.03
109510.7
109510.37
109510.04
109509.72
109509.39
109509.07
109508.75
109508.44
109508.12
109507.81
109507.5
109507.19
109506.89
109506.59
109506.29
109505.99
109505.69
109505.4
109505.11
109504.82
109504.53
109504.24
109503.96
109503.68
109503.4
109503.12
109502.85
109502.58
109502.31
109502.04
109501.77
109501.51
109501.24
109500.98
109500.73
109500.47
109500.22
109499.97
109499.72
109499.47
109499.22
109498.98
109498.74
109498.5
109498.26
109498.02
109497.79
109497.56
109497.33
109497.1
109496.88
109496.65
109496.43
109496.21
109495.99
109495.77
109495.56
109495.35
109495.14
109494.93
109494.72
109494.52
109494.31
109494.11
109493.91
109493.72
109493.52
109493.33
109493.13
109492.94
109492.75
109492.57
109492.38
109492.2
109492.02
109491.84
109491.66
109491.48
109491.31
109491.14
109490.97
109490.8
109490.63
109490.46
109490.3
109490.14
109489.98
109489.82
109489.66
109489.5
109489.35
109489.2
109489.04
109488.89
109488.75
109488.6
109488.46
109488.31
109488.17
109488.03
109487.89
109487.75
109487.62
109487.48
109487.35
109487.22
109487.09
109486.96
109486.84
109486.71
109486.59
109486.46
109486.34
109486.22
109486.11
109485.99
109485.87
109485.76
109485.65
109485.54
109485.43
109485.32
109485.21
109485.1
109485
109484.9
109484.79
109484.69
109484.59
109484.49
109484.4
109484.3
109484.21
109484.11
109484.02
109483.93
109483.84
109483.75
109483.66
109483.58
109483.49
109483.41
109483.33
109483.24
109483.16
109483.08
109483
109482.93
109482.85
109482.78
109482.7
109482.63
109482.56
109482.48
109482.41
109482.34
109482.28
109482.21
109482.14
109482.08
109482.01
109481.95
109481.89
109481.82
109481.76
109481.7
109481.64
109481.59
109481.53
109481.47
109481.42
109481.36
109481.31
109481.26
109481.2
109481.15
109481.1
109481.05
109481
109480.95
109480.91
109480.86
109480.81
109480.77
109480.72
109480.68
109480.64
109480.59
109480.55
109480.51
109480.47
109480.43
109480.39
109480.35
109480.32
109480.28
109480.24
109480.21
109480.17
109480.14
109480.1
109480.07
109480.04
109480
109479.97
109479.94
109479.91
109479.88
109479.85
109479.82
109479.79
109479.76
109479.74
109479.71
109479.68
109479.66
109479.63
109479.6
109479.58
109479.55
109479.53
109479.51
109479.48
109479.46
109479.44
109479.42
109479.4
109479.38
109479.35
109479.33
109479.31
109479.3
109479.28
109479.26
109479.24
109479.22
109479.2
109479.19
109479.17
109479.15
109479.14
109479.12
109479.1
109479.09
109479.07
109479.06
109479.04
109479.03
109479.02
109479
109478.99
109478.98
109478.96
109478.95
109478.94
109478.93
109478.92
109478.9
109478.89
109478.88
109478.87
109478.86
109478.85
109478.84
109478.83
109478.82
109478.81
109478.8
109478.79
109478.78
109478.77
109478.77
109478.76
109478.75
109478.74
109478.73
109478.73
109478.72
109478.71
109478.7
109478.7
109478.69
109478.68
109478.68
109478.67
109478.66
109478.66
109478.65
109478.65
109478.64
109478.63
109478.63
109478.62
109478.62
109478.61
109478.61
109478.6
109478.6
109478.59
109478.59
109478.59
109478.58
109478.58
109478.57
109478.57
109478.57
109478.56
109478.56
109478.55
109478.55
109478.55
109478.54
109478.54
109478.54
109478.53
109478.53
109478.53
109478.52
109478.52
109478.52
109478.52
109478.51
109478.51
109478.51
109478.51
109478.5
109478.5
109478.5
109478.5
109478.5
109478.49
109478.49
109478.49
109478.49
109478.49
109478.48
109478.48
109478.48
109478.48
109478.48
109478.48
109478.47
109478.47
109478.47
109478.47
109478.47
109478.47
109478.47
109478.46
109478.46
109478.46
109478.46
109478.46
109478.46
109478.46
109478.46
109478.45
109478.45
109478.45
109478.45
109478.45
109478.45
109478.45
109478.45
109478.45
109478.45
109478.45
109478.45
109478.44
109478.44
109478.44
109478.44
109478.44
109478.44
109478.44
109478.44
109478.44
109478.44
109478.44
109478.44
109478.44
109478.44
109478.44
109478.44
109478.43
109478.43
109478.43
109478.43
109478.43
109478.43
109478.43
109478.43
109478.43
109478.43
109478.43
109478.43
109478.43
109478.43
109478.43
109478.43
109478.43
109478.43
109478.43
109478.43
109478.43
109478.43
109478.43
109478.43
109478.43
109478.43
109478.43
109478.43
109478.43
109478.43
109478.43
109478.43
109478.43
109478.42
109478.42
109478.42
109478.42
109478.42
109478.42
109478.42
109478.42
109478.42
109478.42
109478.42
109478.42
109478.42
109478.42
109478.42
109478.42
109478.42
109478.42
109478.42
109478.42
109478.42
109478.42
109478.42
109478.42
109478.42
109478.42
109478.42
109478.42
109478.42
109478.42
109478.42
109478.42
109478.42
109478.42
109478.42
109478.42
109478.42
109478.42
109478.42
109478.42
109478.42
109478.42
109478.42
109478.42
109478.42
109478.42
109478.42
109478.42
109478.42
109478.42
109478.42
109478.42
109478.42
109478.42
109478.42
109478.42
109478.42
109478.42
109478.42
109478.42
109478.42
109478.42
109478.42
109478.42
109478.42
109478.42
109478.42
109478.42
109478.42
109478.42
109478.42
109478.42
109478.42
109478.42
109478.42
109478.42
109478.42
109478.42
109478.42
109478.42
109478.42
109478.42
109478.42
109478.42
109478.42
109478.42
109478.42
109478.42
109478.42
109478.42
109478.42
109478.42
109478.42
109478.42
109478.42
109478.42
109478.42
109478.42
109478.42
109478.42
109478.42
109478.42
109478.42
109478.42
109478.42
109478.42
109478.42
109478.42
109478.42
109478.42
109478.42
109478.42
109478.42
109478.42
109478.42
109478.42
109478.42
109478.42
109478.42
109478.42
109478.42
109478.42
109478.42
109478.42
109478.42
109478.42
109478.42
109478.42
109478.42
109478.42
109478.42
109478.42
109478.42
109478.42
109478.42
109478.42
109478.42
109478.42
109478.42
109478.42
109478.42
109478.42
109478.42
109478.42
109478.42
109478.42
109478.42
109478.42
109478.42
109478.42
109478.42
109478.42
109478.42
109478.42
109478.42
109478.42
109478.42
109478.42
109478.42
109478.42
109478.42
109478.42
109478.42
109478.42
109478.42
109478.42
109478.42
109478.42
109478.42
109478.42
109478.42
109478.42
109478.42
109478.42
109478.42
109478.42
109478.42
109478.42
109478.42
109478.42
109478.42
109478.42
109478.42
109478.42
109478.41
109478.41
109478.41
109478.41
109478.41
109478.41
109478.41
109478.41
109478.41
109478.41
109478.41
109478.41
109478.41
109478.41
109478.41
109478.41
109478.41
109478.41
109478.41
109478.41
109478.41
109478.41
109478.41
109478.41
109478.41
109478.41
109478.41
109478.41
109478.41
109478.41
109478.41
109478.41
109478.41
109478.41
109478.41
109478.41
109478.41
109478.41
109478.41
109478.41
109478.41
109478.41
109478.41
109478.41
109478.41
109478.41
109478.41
109478.41
109478.41
109478.4
109478.4
109478.4
109478.4
109478.4
109478.4
109478.4
109478.4
109478.4
109478.4
109478.4
109478.4
109478.4
109478.4
109478.4
109478.4
109478.39
109478.39
109478.39
109478.39
109478.39
109478.39
109478.39
109478.39
109478.39
109478.39
109478.38
109478.38
109478.38
109478.38
109478.38
109478.38
109478.38
109478.37
109478.37
109478.37
109478.37
109478.37
109478.37
109478.37
109478.36
109478.36
109478.36
109478.36
109478.35
109478.35
109478.35
109478.34
109478.34
109478.33
109478.34
109478.34
109478.33
109478.33
109478.32
109478.32
109478.32
109478.31
109478.31
109478.3
109478.3
109478.3
109478.29
109478.29
109478.28
109478.28
109478.27
109478.27
109478.26
109478.26
109478.25
109478.24
109478.24
109478.23
109478.22
109478.22
109478.21
109478.2
109478.2
109478.19
109478.18
109478.17
109478.16
109478.15
109478.14
109478.13
109478.12
109478.11
109478.1
109478.09
109478.08
109478.07
109478.06
109478.04
109478.03
109478.02
109478
109477.99
109477.98
109477.96
109477.95
109477.93
109477.91
109477.9
109477.88
109477.86
109477.84
109477.82
109477.8
109477.78
109477.76
109477.74
109477.71
109477.69
109477.67
109477.64
109477.62
109477.59
109477.56
109477.53
109477.5
109477.47
109477.44
109477.41
109477.38
109477.35
109477.31
109477.28
109477.24
109477.2
109477.16
109477.12
109477.08
109477.04
109476.99
109476.95
109476.9
109476.85
109476.8
109476.75
109476.7
109476.65
109476.59
109476.54
109476.48
109476.42
109476.36
109476.29
109476.23
109476.16
109476.09
109476.02
109475.95
109475.87
109475.8
109475.72
109475.64
109475.55
109475.47
109475.38
109475.29
109475.2
109475.1
109475
109474.9
109474.8
109474.69
109474.58
109474.47
109474.36
109474.24
109474.12
109473.99
109473.87
109473.74
109473.6
109473.47
109473.33
109473.18
109473.03
109472.88
109472.73
109472.57
109472.4
109472.24
109472.07
109471.89
109471.71
109471.53
109471.34
109471.14
109470.94
109470.74
109470.53
109470.32
109470.1
109469.88
109469.65
109469.42
109469.18
109468.93
109468.68
109468.43
109468.17
109467.9
109467.62
109467.34
109467.06
109466.76
109466.46
109466.16
109465.84
109465.52
109465.2
109464.86
109464.52
109464.17
109463.81
109463.45
109463.08
109462.7
109462.31
109461.91
109461.51
109461.1
109460.67
109460.24
109459.8
109459.36
109458.9
109458.43
109457.96
109457.47
109456.98
109456.47
109455.96
109455.43
109454.9
109454.35
109453.8