/*--------------------------------*- C++ -*----------------------------------*\
  =========                 |
  \\      /  F ield         | OpenFOAM: The Open Source CFD Toolbox
   \\    /   O peration     | Website:  https://openfoam.org
    \\  /    A nd           | Version:  7
     \\/     M anipulation  |
\*---------------------------------------------------------------------------*/
FoamFile
{
    version     2.0;
    format      ascii;
    class       volScalarField;
    location    "0.0027";
    object      Uy;
}
// * * * * * * * * * * * * * * * * * * * * * * * * * * * * * * * * * * * * * //

dimensions      [0 1 -1 0 0 0 0];

internalField   nonuniform List<scalar> 
5000
(
3.7246475e-17
3.7852269e-17
0
0
-2.0085323e-17
2.2838414e-32
2.009249e-17
0
0
-2.0096078e-17
-4.0193274e-17
2.0097241e-17
2.0097098e-17
-2.0096949e-17
0
-2.0095108e-17
2.3398092e-49
2.0091825e-17
0
2.0087372e-17
-2.0084628e-17
-2.0082034e-17
4.0157871e-17
-2.0076066e-17
-2.0072715e-17
-1.6541983e-31
2.0066086e-17
2.0062828e-17
-4.0118261e-17
3.4771122e-31
-3.5049467e-31
2.0048437e-17
4.0089083e-17
-4.0081964e-17
3.4738683e-31
-1.7423154e-30
-6.9451018e-31
4.0051584e-17
-4.0043549e-17
-4.0036232e-17
4.0028163e-17
-1.3763267e-30
-4.0012726e-17
2.0002682e-17
5.9995884e-17
-1.9994941e-17
-1.9990883e-17
-1.3690493e-30
-3.9966273e-17
0
1.9975392e-17
2.8381499e-33
-1.9967647e-17
3.9927918e-17
-6.9777217e-31
-3.9912413e-17
1.9952141e-17
-6.8886715e-31
-1.9944372e-17
0
1.9936595e-17
6.7983219e-31
5.6641103e-33
1.9925114e-17
-1.9921041e-17
6.9628439e-31
1.991327e-17
-1.990957e-17
-1.9905497e-17
1.9901794e-17
1.9897717e-17
-1.9894008e-17
-1.9889924e-17
3.9772413e-17
1.9882114e-17
-1.9878389e-17
0
1.9870559e-17
-2.8231928e-33
-1.9862718e-17
1.9858608e-17
-5.643093e-33
5.6419235e-33
1.9847008e-17
1.9842885e-17
6.9073093e-31
-1.9834996e-17
0
-1.9827079e-17
-2.0564534e-30
-6.9285094e-31
1.9815322e-17
1.9811133e-17
-3.9614614e-17
-1.37051e-30
1.9799243e-17
0
0
-1.9786864e-17
-1.371928e-30
3.9557346e-17
-1.9774747e-17
-3.9540871e-17
0
1.9762151e-17
1.9758177e-17
-1.9753814e-17
-1.9749811e-17
0
0
1.9736953e-17
1.9732882e-17
0
-1.9724309e-17
6.8937882e-31
1.9715657e-17
-1.971111e-17
5.6010422e-33
-6.8876748e-31
-1.3551624e-49
3.9386831e-17
-8.3939716e-33
-1.9684393e-17
0
-1.9675244e-17
1.9670811e-17
1.9665968e-17
-3.9322938e-17
-1.9656559e-17
3.9303979e-17
1.9647006e-17
-1.964236e-17
-1.9637297e-17
-1.963257e-17
0
1.962261e-17
1.9617377e-17
-1.9612476e-17
-6.7986794e-31
1.9602161e-17
-1.9596742e-17
-1.959165e-17
0
1.9580927e-17
1.9575291e-17
-1.9569974e-17
1.9564218e-17
-1.1117877e-32
-1.9552893e-17
1.9547322e-17
-1.9541306e-17
1.360326e-30
1.9529443e-17
-1.9523594e-17
1.9517292e-17
1.9511293e-17
-1.9504837e-17
0
0
-1.9485745e-17
-1.9478961e-17
1.947247e-17
1.946551e-17
-1.9458837e-17
-1.3489546e-30
1.9444825e-17
-1.9437473e-17
-1.9430408e-17
0
1.9415566e-17
1.9407791e-17
0
-1.9392282e-17
-1.9384546e-17
0
1.9368332e-17
4.0277572e-30
-1.9351624e-17
1.9342887e-17
1.9334401e-17
-1.9325401e-17
-1.3340995e-30
1.3279717e-30
8.2273808e-33
1.9288798e-17
-1.9279486e-17
-2.6726598e-30
1.3247151e-30
-1.3240162e-30
1.9239916e-17
0
0
-1.9208123e-17
-1.919734e-17
0
0
1.9162715e-17
5.1173493e-49
-1.9138402e-17
0
1.9113016e-17
-1.9100141e-17
-5.2891406e-30
3.8146809e-17
-1.9059612e-17
-3.9543598e-30
-2.7046264e-33
-1.9018493e-17
1.9004489e-17
-2.6987676e-33
-2.6266704e-30
1.3124002e-30
-1.8949586e-17
0
1.8922387e-17
1.3086292e-30
5.2441033e-30
1.8881486e-17
0
-1.8853405e-17
-1.8838817e-17
0
0
0
1.8777801e-17
1.2984392e-30
-1.8744793e-17
0
0
1.8692023e-17
1.8673264e-17
-1.8654439e-17
-1.8634802e-17
0
1.8594651e-17
1.8574161e-17
-1.8552906e-17
-1.853165e-17
0
1.8487659e-17
-5.1273454e-30
-1.2789501e-30
1.8418812e-17
-1.8395414e-17
-1.8371295e-17
0
1.8322396e-17
-2.5430421e-30
1.8272115e-17
2.5307716e-30
-3.6440894e-17
1.8194276e-17
-2.5197786e-30
-6.2978622e-30
-1.2535378e-30
-1.8085329e-17
1.8057019e-17
1.8028722e-17
0
-1.7970678e-17
-1.794093e-17
0
1.7880719e-17
1.7850252e-17
-3.56381e-17
-1.7787847e-17
1.7755907e-17
1.7723965e-17
4.9074899e-30
-1.7658603e-17
1.7625183e-17
-1.2199703e-30
-1.7557596e-17
1.7523426e-17
-1.2152959e-30
1.2153497e-30
-4.9504804e-33
-1.2005078e-30
1.7345682e-17
0
0
-1.7234794e-17
-1.7197311e-17
0
0
0
0
1.7003865e-17
1.1691916e-30
-3.3847592e-17
7.1977154e-33
1.6842452e-17
1.6801041e-17
-2.3269074e-30
-2.316309e-30
-2.3697253e-33
-1.6632799e-17
-1.6590063e-17
-1.6546615e-17
3.3006503e-17
4.937775e-17
-1.641515e-17
-3.27407e-17
0
1.6280292e-17
1.6235011e-17
-1.6189174e-17
4.5882103e-33
-6.8624594e-33
4.5617424e-33
1.6003128e-17
1.5955913e-17
-1.5907888e-17
-3.1720277e-17
1.5812338e-17
2.2954073e-48
1.5715161e-17
4.3413795e-30
-3.123754e-17
0
0
3.0934525e-17
-8.5632179e-30
-3.0737267e-17
0
1.5267361e-17
1.5216381e-17
-1.51653e-17
2.1478051e-33
-2.0912558e-30
2.1331234e-33
1.4958618e-17
-1.4906439e-17
-1.4854153e-17
0
1.4749021e-17
-2.0404237e-30
-1.46433e-17
2.9180487e-17
-4.0325255e-30
-1.4483806e-17
-4.0070461e-30
-2.8754002e-17
2.8646978e-17
1.4269937e-17
-1.421634e-17
-2.0126455e-33
-1.4109109e-17
0
0
1.3948345e-17
-1.9271809e-30
-2.7682639e-17
1.9593736e-33
4.120343e-17
-1.3681127e-17
-1.3627843e-17
2.7149196e-17
-1.3521418e-17
1.3468274e-17
2.6830379e-17
-1.3362132e-17
-1.3309122e-17
-1.3256127e-17
1.3203168e-17
5.0221326e-48
-1.3097279e-17
1.3044341e-17
-1.2991422e-17
1.2938493e-17
3.5707445e-30
3.6472609e-33
1.2779756e-17
-2.5453708e-17
1.2673978e-17
3.5046329e-30
-3.4863926e-30
-1.2515501e-17
-2.4925524e-17
3.7230225e-17
3.4279077e-30
-6.8266633e-30
3.3952968e-30
-2.4400162e-17
2.4295627e-17
-3.3552857e-30
-2.4087239e-17
0
0
1.1888316e-17
-1.6417458e-30
-1.1785537e-17
-1.1734396e-17
1.1683436e-17
3.4897965e-17
-1.1582067e-17
-1.1531668e-17
-3.2632305e-33
-1.1431474e-17
0
2.2664216e-17
2.2565496e-17
-1.1233604e-17
-2.2369376e-17
-1.1135997e-17
2.2175086e-17
2.2078644e-17
-2.1982692e-17
-2.188722e-17
0
2.1697773e-17
-1.0801904e-17
-2.1510345e-17
1.0708702e-17
1.0662488e-17
-1.5087011e-33
1.4676579e-30
1.0525441e-17
-1.0480296e-17
-1.043543e-17
1.0390837e-17
-1.4350422e-30
-1.4640729e-33
-1.4228681e-30
-1.0215293e-17
1.0172124e-17
-4.2190322e-30
-1.4004308e-30
-2.7876877e-30
-1.0002342e-17
9.9606278e-18
-1.3771842e-30
-2.7387391e-30
-1.3979613e-33
-1.9593516e-17
-9.7565429e-18
9.7166265e-18
1.9354034e-17
-1.3380999e-30
-1.9197417e-17
-9.5600106e-18
1.9043247e-17
9.4835399e-18
-9.4457679e-18
-9.4083e-18
-2.6008486e-30
9.3342935e-18
0
0
9.2256018e-18
0
-9.1546816e-18
9.1196812e-18
1.291055e-33
-2.5118871e-30
0
-8.9827611e-18
8.9493021e-18
8.9161472e-18
-1.7766606e-17
-8.8507621e-18
8.8185301e-18
0
0
-8.7236479e-18
2.4150046e-30
8.6619005e-18
0
0
-8.5715208e-18
3.5591227e-30
8.5127466e-18
0
0
0
0
0
0
0
0
1.652516e-17
4.5717143e-30
-8.2100817e-18
8.1842442e-18
-8.1586745e-18
8.1333784e-18
-2.2538315e-30
-8.08359e-18
-2.2378509e-30
-8.0348759e-18
0
0
7.9638252e-18
2.204971e-30
-7.9178222e-18
0
0
0
0
0
0
0
1.5490024e-17
-6.4305971e-30
-1.5409362e-17
7.6849574e-18
1.0893365e-33
7.6463883e-18
-4.2295291e-30
-1.5217974e-17
-7.5907167e-18
-8.4712038e-49
2.2665071e-17
0
-1.5040844e-17
0
0
1.494092e-17
-2.0677898e-30
-2.231507e-17
7.4226395e-18
7.4071386e-18
-7.3918374e-18
7.3767342e-18
-7.3618131e-18
-2.0380478e-30
7.3324991e-18
-7.3180913e-18
0
-7.2897365e-18
7.275779e-18
1.452393e-17
-7.2482861e-18
-7.2347428e-18
-7.2213284e-18
-7.2080434e-18
1.4389766e-17
7.1818471e-18
-7.1689327e-18
0
7.1434689e-18
-7.130919e-18
-7.1184904e-18
2.1318554e-17
2.0162365e-33
-1.4163884e-17
7.0700053e-18
9.7995966e-31
7.0464994e-18
-1.999447e-33
-1.4046956e-17
7.0121476e-18
0
-1.9409412e-30
-9.9175786e-34
-6.9680253e-18
6.9572955e-18
-1.9289564e-30
-9.6203604e-31
-9.8421876e-34
-6.9155694e-18
6.9054311e-18
4.6959933e-49
-1.9119655e-30
-9.770955e-34
-1.373202e-17
-9.5097288e-31
6.8469594e-18
0
0
-6.8191688e-18
-2.8336432e-30
6.8011409e-18
-6.7922709e-18
9.4182078e-31
1.6237517e-48
-9.3942235e-31
6.7577193e-18
6.7493082e-18
9.3496081e-31
-6.73275e-18
0
0
6.7085521e-18
-6.7006501e-18
5.5715904e-30
6.6850816e-18
-6.6774116e-18
0
6.6622919e-18
6.6548395e-18
-6.647457e-18
-6.6401432e-18
0
6.6257154e-18
6.6185982e-18
-1.3223087e-17
-6.6045519e-18
6.5976218e-18
6.5907509e-18
9.1317854e-31
6.5771797e-18
1.8244909e-30
-1.312766e-17
0
0
0
6.5377642e-18
6.531372e-18
0
-6.5187266e-18
-9.0234087e-31
6.5062594e-18
0
0
-6.4878793e-18
-8.9901712e-31
8.9726385e-31
-6.4698601e-18
6.4639273e-18
-2.687146e-30
-6.4521642e-18
0
-6.4405325e-18
-8.9340307e-31
6.4290286e-18
-6.4233234e-18
6.4176486e-18
6.4120033e-18
-6.4063865e-18
0
6.3952346e-18
6.3896979e-18
-6.3841868e-18
-6.3787013e-18
0
-6.3678086e-18
6.3624032e-18
6.3570264e-18
-6.3516794e-18
-1.2692727e-17
3.5215829e-30
1.9007481e-17
2.4177561e-49
-6.3254251e-18
-1.2640554e-17
3.5036017e-30
1.2620183e-17
-6.3050563e-18
6.3000609e-18
-6.2951062e-18
-6.2901933e-18
1.2570647e-17
0
0
-1.2541971e-17
-1.7272209e-48
1.2523332e-17
0
0
-1.2496116e-17
-1.6337307e-48
1.2478452e-17
0
0
-1.2452613e-17
-6.2220792e-18
1.2435774e-17
6.2137273e-18
0
-1.2410986e-17
3.444017e-30
1.2394697e-17
-6.193301e-18
0
6.1852365e-18
-6.1812126e-18
8.7783151e-34
6.1731656e-18
-6.1691363e-18
6.165099e-18
6.1610509e-18
-6.1569893e-18
-6.152912e-18
1.7074041e-30
6.1447024e-18
-6.1405669e-18
-1.7039587e-30
6.1322279e-18
-6.1280224e-18
6.1237921e-18
6.1195368e-18
-6.1152564e-18
-6.1109515e-18
1.6956875e-30
6.1022692e-18
-6.0978928e-18
8.6593747e-34
6.0890712e-18
-6.0846275e-18
6.0801633e-18
6.0756798e-18
-6.0711785e-18
-1.2133321e-17
3.3683871e-30
1.2115158e-17
-6.0530174e-18
8.5953544e-34
1.2087714e-17
1.7164613e-33
-6.0346562e-18
0
6.0254223e-18
0
-6.0161606e-18
0
0
0
-5.9975732e-18
-2.1657004e-49
5.9882555e-18
0
5.9789276e-18
-1.6589336e-30
-5.9695953e-18
0
0
0
-5.9509091e-18
1.6511505e-30
5.9415557e-18
0
5.9322005e-18
1.645112e-30
-5.9228374e-18
0
5.9134732e-18
-5.9087955e-18
3.2805915e-30
5.8994442e-18
-5.8947632e-18
0
-5.8853848e-18
-1.632952e-30
5.8760108e-18
0
5.8666543e-18
-5.8619704e-18
-3.2528985e-30
5.8525761e-18
-3.2468466e-30
-8.303665e-34
1.6220661e-30
-8.2903682e-34
-5.8291447e-18
0
5.8197292e-18
-1.6138855e-30
-1.6125775e-30
2.1829202e-49
-1.6108008e-30
0
-1.1583105e-17
-1.6068882e-30
5.7820915e-18
-5.7773505e-18
1.6021245e-30
5.7679429e-18
5.7632752e-18
1.5990492e-30
-1.5977426e-30
5.749148e-18
-5.7443695e-18
-5.7395937e-18
0
-5.7301619e-18
1.5898575e-30
5.720829e-18
0
0
0
-1.1403376e-17
6.327691e-30
1.1384462e-17
0
0
0
0
0
0
0
-1.1308498e-17
3.1391828e-30
1.1290068e-17
5.6404071e-18
-5.6356958e-18
-5.6308986e-18
1.5630453e-30
3.1186298e-30
5.6165541e-18
-5.6119574e-18
5.6074411e-18
5.602944e-18
-5.5984052e-18
-5.5937931e-18
3.1023851e-30
5.5844254e-18
5.5797745e-18
-1.5465403e-30
-5.5707439e-18
-5.5663563e-18
5.5620101e-18
5.5576721e-18
-5.5533236e-18
5.5489575e-18
0
-5.5401671e-18
-5.5357556e-18
1.5343769e-30
5.5270197e-18
-5.5227676e-18
5.5186359e-18
5.514631e-18
-5.5106972e-18
5.5067279e-18
1.5279723e-30
-5.4983883e-18
-5.4940173e-18
-7.8011921e-34
1.097048e-17
3.0431678e-30
-5.4770392e-18
-5.4732792e-18
0
5.4659848e-18
0
0
0
5.4490553e-18
5.4445552e-18
-5.4401472e-18
-5.4358742e-18
0
5.427777e-18
-1.5069006e-30
-5.4202889e-18
0
0
5.4086e-18
-2.9996807e-30
-5.3992364e-18
0
0
5.384186e-18
-2.9861128e-30
-5.3755189e-18
0
5.368104e-18
-1.4895862e-30
1.4877368e-30
-1.4873287e-30
-5.3517632e-18
0
-5.3421059e-18
2.9617186e-30
5.3319659e-18
0
5.3218452e-18
-5.3169507e-18
-5.3122233e-18
1.0615332e-17
1.4741145e-30
-1.0597884e-17
1.470234e-30
5.2904925e-18
0
0
5.2778331e-18
-1.4636199e-30
-5.2692724e-18
0
5.2602706e-18
-5.2555366e-18
-5.2506683e-18
5.2457248e-18
0
-5.2359215e-18
5.231166e-18
2.9011039e-30
-2.8985252e-30
5.2171463e-18
-4.3405885e-30
5.2073505e-18
-5.202288e-18
1.4424226e-30
-2.8835386e-30
-1.0374623e-17
1.4376225e-30
5.1779155e-18
0
0
0
-1.0317826e-17
-5.1540372e-18
1.0298495e-17
5.1445923e-18
0
0
5.1309636e-18
2.2456832e-49
-5.1213945e-18
0
-1.0223102e-17
-5.1067779e-18
1.0204426e-17
5.0978662e-18
0
-1.0178834e-17
-1.4452587e-33
1.5241586e-17
-1.4080287e-30
-1.0142341e-17
5.0664515e-18
2.877277e-33
-5.0570967e-18
1.4036793e-30
2.8004433e-30
5.0429556e-18
0
5.0330964e-18
-2.7916802e-30
-1.004616e-17
5.0181631e-18
-8.3469954e-30
-5.0087652e-18
1.0008661e-17
-7.1054776e-34
-4.9957452e-18
0
0
0
-4.9763791e-18
4.9711654e-18
9.9322913e-18
-4.9614825e-18
-1.3765252e-30
-1.3740227e-30
-4.9493935e-18
0
4.9406827e-18
-7.0140594e-34
-9.8609123e-18
4.9251495e-18
2.7295988e-30
-4.9153372e-18
-4.9111168e-18
2.7266967e-30
9.8070134e-18
0
4.8951959e-18
4.8904893e-18
0
-4.8803971e-18
-4.8753359e-18
4.8704815e-18
0
-4.8615976e-18
0
0
4.8484236e-18
-4.0335152e-30
-4.8385818e-18
0
0
4.82495e-18
4.8213782e-18
-4.8181268e-18
-4.8147742e-18
4.8109645e-18
4.8065592e-18
-9.6032488e-18
-4.7964093e-18
1.331125e-30
4.7866059e-18
-2.6533232e-30
-2.6513975e-30
4.7758702e-18
-4.7724544e-18
4.7685972e-18
-4.7643109e-18
-4.0584046e-33
4.7551367e-18
-9.5013877e-18
-4.7465447e-18
-4.7426975e-18
9.478057e-18
9.4707166e-18
-4.7315752e-18
4.727635e-18
-4.7235331e-18
2.6209122e-30
9.4299814e-18
-4.7106614e-18
1.3061999e-30
-1.3063831e-30
-4.6982496e-18
0
0
4.6870013e-18
4.6829316e-18
0
-4.6738494e-18
-4.6690752e-18
0
-4.6602315e-18
1.2930266e-30
4.6532469e-18
-4.6499955e-18
1.2888914e-30
4.6422569e-18
0
4.6327482e-18
2.5694826e-30
-4.6232382e-18
4.618884e-18
-1.2794483e-30
-4.6105697e-18
-4.6063219e-18
-1.2772248e-30
4.5976192e-18
0
-4.5890138e-18
4.5847293e-18
-1.3018201e-33
2.5412806e-30
4.5713935e-18
-4.566894e-18
0
-9.1163138e-18
1.0110881e-29
4.5493754e-18
2.5226731e-30
9.0799131e-18
-9.0703926e-18
-9.0612682e-18
9.0527959e-18
9.0449972e-18
4.5187564e-18
0
-4.510736e-18
-9.0124205e-18
6.3967872e-34
-4.4962233e-18
4.4910152e-18
4.4858915e-18
-4.4810208e-18
8.9530415e-18
-8.9448596e-18
-7.442604e-30
8.9299781e-18
-8.9223547e-18
2.4739957e-30
-4.4525168e-18
4.4476606e-18
4.4425974e-18
-4.437492e-18
-1.2295541e-30
-8.8553414e-18
8.846122e-18
8.8373092e-18
-8.8288926e-18
-1.2240631e-30
-4.4065611e-18
2.4450802e-30
4.3986864e-18
1.2196258e-30
8.6880925e-49
4.3852669e-18
8.7609982e-18
-4.3758328e-18
-1.7862427e-48
-4.3674759e-18
-7.269275e-30
4.3602611e-18
-8.7127606e-18
2.41568e-30
8.6940332e-18
2.6596654e-49
-4.3359224e-18
0
0
-4.3205178e-18
4.3166283e-18
8.626546e-18
0
0
0
-4.2980327e-18
-4.293181e-18
0
4.2833409e-18
-4.278803e-18
-7.1196188e-30
8.5423162e-18
0
0
0
-4.2564704e-18
-4.2515185e-18
4.2461195e-18
-4.2405541e-18
-2.3520302e-30
8.4602698e-18
0
0
-8.4352422e-18
1.1976488e-33
4.2101921e-18
-4.2066534e-18
4.2031315e-18
-4.199432e-18
2.3299632e-30
8.3820316e-18
0
0
-4.1765485e-18
-4.1719223e-18
0
0
4.1596339e-18
4.1557333e-18
0
-4.1482227e-18
-4.1447122e-18
4.1412596e-18
-4.1376796e-18
-4.1338606e-18
4.1297922e-18
4.1255196e-18
-2.2887043e-30
-4.1166624e-18
4.1122215e-18
1.1400835e-30
-4.1035847e-18
0
-4.0955357e-18
2.2717992e-30
4.0879538e-18
-4.0841205e-18
2.2653758e-30
4.0760681e-18
0
-4.0680048e-18
1.1285785e-30
5.7708815e-34
-4.0575816e-18
4.0541196e-18
4.0504325e-18
0
-8.0853741e-18
4.4860602e-30
4.0352226e-18
5.7294248e-34
8.0565973e-18
-8.0497458e-18
-8.0428943e-18
8.0360916e-18
4.0146642e-18
0
-8.0152977e-18
6.6661443e-30
7.9996029e-18
0
-7.9835007e-18
-2.2148191e-30
3.9847488e-18
1.1056177e-30
7.9568862e-18
-7.9501861e-18
-9.919856e-30
7.9359692e-18
-7.928558e-18
2.1977973e-30
7.9129867e-18
3.9523132e-18
-7.8959278e-18
-3.9436108e-18
7.8790098e-18
-7.8717062e-18
-9.822741e-30
7.8597386e-18
-7.8538759e-18
1.089541e-30
-3.9202353e-18
4.3457397e-30
1.1738272e-17
-2.1697045e-30
-7.8094413e-18
3.9003257e-18
7.7913887e-18
-3.8909928e-18
2.1578388e-30
-3.8823731e-18
-4.3083329e-30
3.8758818e-18
-7.7461217e-18
3.2226969e-30
-4.2925881e-30
2.142547e-30
3.8573574e-18
0
3.8485752e-18
3.8444708e-18
0
0
0
0
0
-3.8202986e-18
-3.817627e-18
0
3.8115306e-18
-3.8073603e-18
-6.3341149e-30
7.5942861e-18
0
0
0
-3.7794424e-18
-3.7761853e-18
3.7728751e-18
3.7693956e-18
-7.531503e-18
-6.2678106e-30
7.5164034e-18
0
-7.499999e-18
-6.2391596e-30
3.7406806e-18
-3.7359133e-18
3.7314348e-18
-3.7274411e-18
-2.0670704e-30
7.4412969e-18
0
0
-3.7090432e-18
-3.7047599e-18
0
-3.6967087e-18
-1.0496035e-33
-3.689147e-18
3.6850499e-18
1.1041909e-17
0
7.3431226e-18
7.3347201e-18
0
-1.0979687e-17
-7.3123661e-18
7.304479e-18
-3.6481042e-18
-3.6439118e-18
1.0919453e-17
3.6358953e-18
5.1615e-34
3.6282286e-18
-3.6242008e-18
-3.6199703e-18
-3.6156217e-18
-2.0232237e-49
-3.6071925e-18
-3.6033547e-18
3.5997377e-18
0
7.1846087e-18
7.1765153e-18
0
-3.5797024e-18
-7.150762e-18
-1.9817484e-30
-3.5670211e-18
-7.1260026e-18
7.1180936e-18
7.1102371e-18
3.5511899e-18
3.5472484e-18
0
-3.5393311e-18
-1.0606117e-17
3.5314275e-18
2.005952e-47
-1.0570806e-17
7.0394339e-18
3.5158434e-18
3.5119822e-18
7.0162835e-18
-7.0086585e-18
-3.5005371e-18
3.4967368e-18
3.4928875e-18
3.4889589e-18
-1.0454855e-17
-3.4809003e-18
1.0430578e-17
3.472882e-18
-3.4690039e-18
-6.930472e-18
3.4615639e-18
-3.4579578e-18
5.7513652e-30
-5.7474081e-30
-1.0341809e-17
3.4436686e-18
3.4400048e-18
6.8725331e-18
3.4324637e-18
-6.8572426e-18
-9.7338002e-34
-3.4209642e-18
3.4172049e-18
1.0240493e-17
-1.0229473e-17
-3.4061605e-18
1.0207463e-17
0
-1.0185351e-17
-3.3914469e-18
1.0163408e-17
-3.3841819e-18
-6.7611522e-18
-1.8744752e-30
3.7444481e-30
3.3696951e-18
0
6.7246436e-18
6.7172277e-18
-3.3548961e-18
-3.3511662e-18
-6.6948404e-18
3.3436577e-18
3.339884e-18
-6.6722164e-18
0
6.6571554e-18
6.6496361e-18
-3.3210466e-18
-6.6345012e-18
1.8392025e-30
3.3095753e-18
-6.6114394e-18
3.3018782e-18
-1.0984054e-29
-6.5885421e-18
3.2904868e-18
0
6.5657015e-18
0
-7.2724659e-30
-3.2710478e-18
-6.5341458e-18
9.7893376e-18
-9.2631268e-34
-6.510493e-18
0
6.494739e-18
3.2433997e-18
-6.4788281e-18
3.5922743e-30
3.2314477e-18
-6.4549678e-18
3.2235302e-18
-5.3604167e-30
-6.4312447e-18
3.2116571e-18
-3.2076764e-18
6.4073456e-18
9.5989044e-18
0
-9.5742279e-18
-6.3744345e-18
9.5489741e-18
6.3575186e-18
-3.1745506e-18
-6.3407711e-18
3.16627e-18
3.1621937e-18
-6.3162715e-18
3.1540738e-18
6.2999832e-18
-3.1458868e-18
4.4647219e-34
-6.2753065e-18
-6.2671033e-18
9.3883884e-18
-3.1253743e-18
-5.1985112e-30
9.3514117e-18
0
-9.3264527e-18
-6.2093084e-18
3.1004969e-18
3.0963447e-18
3.0921977e-18
0
3.0839476e-18
-1.7095502e-30
-6.1514998e-18
1.7045502e-30
3.0674726e-18
0
3.0591311e-18
-6.109991e-18
-9.1526657e-18
6.093565e-18
9.1279338e-18
3.0384613e-18
-3.0342509e-18
-6.0601064e-18
3.0259014e-18
-3.0217997e-18
-3.0177134e-18
6.0271977e-18
-6.0188783e-18
-3.0052595e-18
9.0033466e-18
5.9941354e-18
-2.9931045e-18
-8.9673316e-18
6.6275876e-30
-6.6181878e-30
-2.9764833e-18
-3.2996455e-30
-2.9680823e-18
2.9639649e-18
2.9598305e-18
2.955623e-18
-2.9513267e-18
-2.9469787e-18
8.8279618e-18
-2.9384251e-18
-5.8686223e-18
8.7907721e-18
8.316714e-34
-2.9220478e-18
5.8357047e-18
2.913624e-18
0
-2.9052271e-18
-2.9011234e-18
-5.7941584e-18
2.8930365e-18
-9.6214821e-30
-8.6543777e-18
2.8806392e-18
2.8765082e-18
2.8724068e-18
-2.8683143e-18
-2.8641926e-18
8.5800219e-18
-2.8557574e-18
-5.7030052e-18
-4.7423066e-30
-2.8434322e-18
5.6793998e-18
8.5077686e-18
1.5715174e-30
-1.5695491e-30
-4.0120073e-34
-2.8187254e-18
-5.6286764e-18
-2.8101437e-18
8.4185793e-18
-3.1111305e-30
-5.5975127e-18
0
0
2.7874516e-18
-1.5449696e-30
1.5422122e-30
2.7747709e-18
-5.5409816e-18
-2.7663186e-18
-3.0657349e-30
2.758242e-18
8.2627073e-18
2.7502106e-18
0
0
0
-8.2027309e-18
-5.4610485e-18
8.1807212e-18
-3.0239796e-30
-5.4387438e-18
0
0
5.4131748e-18
-5.9998375e-30
-2.9944855e-30
5.3879931e-18
-2.6900708e-18
-5.3724583e-18
-5.364748e-18
2.67844e-18
8.02331e-18
2.6703987e-18
0
0
0
-7.9628723e-18
-5.3005795e-18
7.9387413e-18
-5.8662811e-30
-2.6378321e-18
3.7423201e-34
-2.6289279e-18
5.2488472e-18
-2.9085804e-30
-2.6156333e-18
5.2226945e-18
0
-1.4451368e-30
-5.1970239e-18
-5.188275e-18
7.7691605e-18
5.1705497e-18
-2.5808115e-18
-1.4296888e-30
2.5717744e-18
-7.7013815e-18
-5.1247328e-18
2.5575048e-18
2.5525753e-18
-2.5476195e-18
-2.5426716e-18
2.5377458e-18
2.5328324e-18
-1.4031791e-30
1.4000608e-30
2.517897e-18
0
2.5076372e-18
-5.0048789e-18
-7.4916362e-18
4.9839127e-18
4.9733287e-18
2.4813207e-18
-2.7482801e-30
-4.9408039e-18
2.4648e-18
-2.459109e-18
-2.453354e-18
4.8951288e-18
-4.8835141e-18
-2.4359286e-18
2.4300638e-18
4.848305e-18
2.4181986e-18
-4.8244215e-18
1.3349315e-30
-2.4000957e-18
-2.3939131e-18
7.162877e-18
-2.3812529e-18
-2.37483e-18
7.1051323e-18
-3.3564357e-34
-7.0659184e-18
-2.3486248e-18
7.0255501e-18
-2.3350296e-18
-3.5296863e-47
-3.8649936e-30
-4.6290673e-18
4.6151021e-18
4.60083e-18
-2.2931669e-18
2.537695e-30
4.5573656e-18
-2.2715092e-18
-6.7928521e-18
-2.2568951e-18
2.2492955e-18
0
2.2337545e-18
4.4520668e-18
-3.1525224e-34
-6.6322397e-18
-2.2029919e-18
4.3901193e-18
-3.1078617e-34
-4.3575464e-18
4.3411147e-18
-3.601394e-30
-4.3081539e-18
6.4372731e-18
4.2747655e-18
0
0
-2.1120394e-18
-6.3101041e-18
-2.0944968e-18
6.2564224e-18
-2.3051428e-30
-4.1349204e-18
4.1172815e-18
4.0998115e-18
-2.0411234e-18
-4.0643176e-18
2.0229439e-18
2.0135034e-18
-6.0117829e-18
-1.9943124e-18
-3.30556e-30
1.0957828e-30
1.9655278e-18
-1.9558948e-18
3.8924136e-18
5.8093407e-18
0
-5.7499821e-18
-3.8132968e-18
5.6898083e-18
-5.3619635e-34
-1.8765949e-18
3.7333263e-18
-1.8567217e-18
-1.8466805e-18
-2.0387498e-30
1.8260323e-18
3.6308675e-18
-1.8047452e-18
-3.588111e-18
-3.5668499e-18
1.9686494e-30
1.7623193e-18
-1.7517299e-18
3.4820878e-18
5.1907818e-18
0
-5.125768e-18
-3.3955947e-18
5.0611349e-18
-1.8614084e-30
-1.6654486e-18
1.6544748e-18
1.6433515e-18
-9.0548564e-31
-3.2416871e-18
8.9344604e-31
3.1967945e-18
-1.7618611e-30
-1.7494839e-30
-3.1297729e-18
-4.6607366e-18
3.084369e-18
-1.6998008e-30
-5.0596339e-30
1.5079597e-18
1.4966359e-18
2.970659e-18
-4.4219805e-18
-1.4625869e-18
2.9021976e-18
-2.8791131e-18
-8.1172905e-34
4.2494932e-18
1.40504e-18
-1.3936248e-18
-4.1466595e-18
4.5657239e-30
2.7185708e-18
1.3477273e-18
-2.6722938e-18
-3.973786e-18
3.9393196e-18
1.3016835e-18
1.4320651e-30
1.2789252e-18
-2.5350266e-18
6.9720272e-31
-1.2445522e-18
1.2330715e-18
-4.0693594e-30
-3.6309519e-18
3.5971407e-18
3.563437e-18
0
0
0
-1.1427125e-18
-3.3943591e-18
-1.1202856e-18
-1.2313985e-30
-1.0982174e-18
3.2617498e-18
1.0762749e-18
-1.0652652e-18
-1.0542278e-18
-1.0432154e-18
2.0645928e-18
-1.0215036e-18
1.0108151e-18
-3.3310591e-30
-1.9791142e-18
2.9367378e-18
1.9364723e-18
0
-1.8938909e-18
-1.0396273e-30
9.2614702e-19
-2.7477383e-18
-9.0570495e-19
8.9548419e-19
0
0
8.6470655e-19
1.7091829e-18
-1.8754127e-30
-1.6697634e-18
-8.25144e-19
8.1538763e-19
-8.0559962e-19
7.9578446e-19
5.095226e-47
-1.2928517e-30
2.3001905e-18
0
0
-1.4779511e-18
-1.4593672e-18
-7.2035872e-19
7.8925006e-31
2.105261e-18
-7.6913986e-31
-1.3676182e-18
0
1.3329937e-18
6.577384e-19
-1.2978366e-18
6.4008892e-19
6.3130708e-19
-1.8679821e-18
6.142683e-19
-2.0187565e-30
-1.1962237e-18
1.7698372e-18
1.163313e-18
0
0
0
-1.6470114e-18
-1.0828028e-18
1.6018825e-18
1.0528373e-18
0
-1.0218215e-18
5.5856005e-31
4.9549711e-19
-9.7616928e-19
4.8097179e-19
-4.7410841e-19
-4.6724863e-19
1.3805004e-18
-9.0578794e-19
-8.9119616e-19
4.3843598e-19
-4.3152921e-19
8.4987893e-19
1.2559981e-18
0
-1.2180781e-18
-7.9858832e-19
3.9249253e-19
3.8582154e-19
-4.2123188e-31
3.7338976e-19
-1.2247619e-30
-3.6212037e-19
-1.9783948e-31
-1.2044685e-48
3.439311e-19
0
3.3189316e-19
-6.5275855e-19
-9.6357658e-19
9.4859161e-19
9.3321306e-19
0
-5.9996302e-19
-5.8874082e-19
5.7791764e-19
-2.838516e-19
-2.791118e-19
8.2415583e-19
-5.4071754e-19
-5.3123903e-19
2.6049918e-19
5.1060286e-19
2.5035769e-19
-7.3768328e-19
-2.4188337e-19
-3.9645731e-31
4.682592e-19
1.3063419e-34
-6.7583006e-19
4.4164967e-19
6.500088e-19
2.1281673e-19
-6.2745785e-19
-4.1136943e-19
6.0697681e-19
-4.4141435e-31
-3.8995721e-19
-1.9109181e-19
1.0400204e-31
3.6800103e-19
-2.0095189e-31
1.7826892e-19
1.7552289e-19
-5.1753991e-19
-1.6922844e-19
-1.8417491e-31
3.2561102e-19
-5.3315572e-31
-4.7292786e-19
3.1064177e-19
-1.7003711e-31
-1.676382e-31
-3.2997412e-31
-1.4618918e-19
4.3129674e-19
-1.4147575e-19
-2.3212412e-31
-4.5832129e-31
-4.081294e-19
1.3455868e-19
2.658685e-19
-1.4556462e-31
1.2933155e-19
1.2782929e-19
-2.5340943e-19
-2.5166744e-19
1.3876067e-31
3.7207728e-19
-1.363108e-31
-1.2157366e-19
2.4118403e-19
-1.2001587e-19
-1.1972146e-19
6.6304773e-32
-6.6217644e-32
1.189958e-19
-2.3724867e-19
1.1829931e-19
-3.9356783e-31
-3.9376395e-31
3.5549784e-19
-2.3790371e-19
3.3984976e-35
2.4052145e-19
-1.2086859e-19
-3.6407969e-19
-1.2192172e-19
3.6836028e-19
-1.3767634e-31
-1.2547817e-19
2.5392966e-19
-2.5660869e-19
-6.4683627e-31
1.3062087e-19
-1.3209969e-19
1.3403633e-19
-2.7251103e-19
1.3849071e-19
4.2189674e-19
0
0
-2.9339165e-19
-4.2381433e-35
3.0360738e-19
-1.5461962e-19
-4.7259527e-19
-1.6053222e-19
4.9069521e-19
4.7344426e-35
1.882241e-31
3.4521501e-19
-5.2788344e-19
-8.97498e-31
1.8349711e-19
-1.8734683e-19
-1.9108222e-19
2.1621919e-31
1.9827328e-19
-4.0436149e-19
4.130279e-19
-7.0302705e-31
-4.3123563e-19
6.5996934e-19
4.4843281e-19
-2.2841614e-19
-6.9840492e-19
-2.3752878e-19
2.4252589e-19
0
-2.5261924e-19
2.5768767e-19
7.8826455e-19
1.4866059e-31
-5.4579019e-19
2.7807593e-19
2.8349991e-19
-5.7835279e-19
2.9494814e-19
-3.0065846e-19
-6.1251689e-19
9.3529545e-19
-1.0568078e-30
7.1753352e-31
6.5851701e-19
-6.7097677e-19
-3.4161201e-19
-3.4763647e-19
-3.9286164e-31
3.595911e-19
-7.3133703e-19
7.4378663e-19
1.1347971e-18
0
-3.913822e-19
2.2089583e-31
1.1494238e-34
-1.2324114e-18
-4.171867e-19
1.2711285e-18
-4.3047449e-19
3.5871223e-47
1.3326902e-18
-4.5105035e-19
-1.3734868e-18
-4.645486e-19
9.4245515e-19
-4.7790461e-19
4.8470637e-19
-1.6378182e-30
-9.9800799e-19
1.5185146e-18
5.7001878e-31
-2.3100228e-30
1.0540825e-18
-1.0679583e-18
-6.0059687e-31
5.4807064e-19
-1.110195e-18
-5.6210559e-19
0
0
1.167422e-18
-1.3118765e-30
-3.3985368e-34
-6.7145788e-31
-6.1176686e-19
-6.187358e-19
6.2579223e-19
6.3291752e-19
-1.2801318e-18
1.2944714e-18
-7.2648781e-31
-1.3230503e-18
1.3371926e-18
2.2500981e-30
-7.5776458e-31
6.8953229e-19
-1.3930574e-18
7.0356652e-19
-1.57766e-30
-1.4348794e-18
0
1.4618447e-18
7.37628e-19
-1.4888231e-18
-7.5124997e-19
7.580208e-19
-1.2735897e-30
-7.7127487e-19
0
0
1.5814713e-18
1.5944068e-18
0
-1.6201434e-18
-8.1634485e-19
8.2253306e-19
-8.2870534e-19
8.3493279e-19
0
-1.6946325e-18
0
0
8.6492487e-19
-9.6656292e-31
-8.7646263e-19
0
8.8825133e-19
4.9618541e-31
-8.9934089e-19
0
1.8197035e-18
1.8301491e-18
-9.2036788e-19
-1.0275336e-30
9.3091775e-19
-1.8718774e-18
-1.8815713e-18
1.8910382e-18
2.7006021e-34
2.1202925e-30
2.7269641e-34
-1.928163e-18
9.686672e-19
-1.0803578e-30
9.7751162e-19
-9.8174564e-19
-2.9577533e-18
2.9701065e-18
9.9407724e-19
-9.9805898e-19
-1.1122916e-30
-1.0060366e-18
2.0196789e-18
2.0268442e-18
-2.0337773e-18
-3.3978879e-30
-1.0237734e-18
-1.0271201e-18
2.0606122e-18
-1.0333673e-18
1.1503622e-30
-5.7716852e-31
1.0420996e-18
2.0896939e-18
-2.0950381e-18
-2.1002059e-18
0
1.0550536e-18
1.1739522e-30
-2.1195698e-18
-1.178936e-30
3.1920735e-18
2.1320443e-18
0
-2.1398172e-18
-2.3794517e-30
-1.0736534e-18
-1.0753984e-18
3.2311841e-18
-5.9857914e-31
-2.1603244e-18
1.081605e-18
2.1659576e-18
-1.0842534e-18
-2.1707828e-18
-1.0864008e-18
0
2.1763498e-18
-1.0889608e-18
-3.2689809e-18
1.090288e-18
1.090865e-18
2.1827448e-18
1.0917955e-18
-2.1842917e-18
-1.0924253e-18
-1.0926308e-18
1.2131473e-30
1.0928729e-18
1.0929048e-18
2.1857048e-18
1.0927287e-18
0
0
0
-2.1834989e-18
-2.1829249e-18
2.1822201e-18
1.2108058e-30
1.2102326e-30
-1.2092892e-30
-2.418059e-30
2.1762944e-18
0
-2.1725072e-18
-1.0851843e-18
1.0840801e-18
-1.0829459e-18
-1.081747e-18
0
0
2.1558487e-18
-3.5854195e-30
-2.3871392e-30
2.1473162e-18
-2.1442207e-18
-2.1410409e-18
0
2.1343312e-18
-1.1824166e-30
-2.1269793e-18
2.123047e-18
1.1764531e-30
-2.1146482e-18
0
2.1069777e-18
1.0521283e-18
-2.1021382e-18
1.0497583e-18
2.3264347e-30
-2.0889333e-18
2.0830599e-18
2.0783355e-18
0
0
0
-2.060625e-18
-2.0567907e-18
2.053318e-18
0
-2.0414177e-18
0
-1.013701e-18
2.0215882e-18
1.0081713e-18
-1.0056391e-18
2.0061525e-18
1.000437e-18
-1.9954388e-18
-9.949367e-19
-1.1015264e-30
9.8923008e-19
-2.1899392e-30
5.589923e-34
1.9608604e-18
0
-9.7445122e-19
-1.9428858e-18
-9.6843071e-19
0
0
0
-9.5631022e-19
1.9063989e-18
9.5002608e-19
-9.4678635e-19
-9.4348742e-19
9.4014521e-19
9.3677976e-19
-1.8668203e-18
0
1.8534163e-18
1.8467679e-18
0
0
-1.8269394e-18
-1.0104187e-30
-9.0684595e-19
-9.0351823e-19
9.0017978e-19
-8.9683257e-19
8.9347942e-19
1.7802458e-18
8.8676419e-19
0
-1.7600697e-18
-9.7297208e-31
8.7325923e-19
-8.6983863e-19
-8.6638908e-19
-1.7258162e-18
1.7187927e-18
8.5585771e-19
-2.422379e-34
8.487281e-19
-1.6903085e-18
8.4158532e-19
-8.380277e-19
-8.1591812e-48
8.30961e-19
-1.654908e-18
1.6479265e-18
1.6409733e-18
0
-8.1356654e-19
-1.6202378e-18
4.4776731e-31
8.0324103e-19
7.9980817e-19
-1.5927545e-18
-1.5858925e-18
7.8951261e-19
1.5721476e-18
1.5652543e-18
-7.7917062e-19
-1.5514056e-18
7.7222322e-19
-7.6873272e-19
1.2740702e-30
7.6172778e-19
-1.5164406e-18
1.5094299e-18
8.3375046e-31
-4.1506666e-30
1.4885028e-18
-1.4815814e-18
-3.2742658e-30
7.3391864e-19
-1.4610148e-18
7.2711174e-19
-2.0569646e-34
3.198839e-30
7.1700121e-19
-1.4273e-18
1.5770932e-30
-3.9231881e-31
7.0362818e-19
-1.9903532e-34
-1.3939177e-18
1.3872475e-18
3.9238281e-34
-3.0504698e-30
1.3672175e-18
-1.3605354e-18
-1.5029823e-30
1.3471708e-18
-6.702457e-19
-6.6690835e-19
-6.6357464e-19
6.6024599e-19
-7.29285e-31
-1.3072169e-18
0
0
1.2874215e-18
1.8202037e-34
-1.274302e-18
6.338814e-19
-6.9990195e-31
6.2735778e-19
1.3856936e-30
-1.2416895e-18
0
-6.1432898e-19
1.2221334e-18
6.0780026e-19
-1.3424097e-30
6.0125206e-19
-1.1959389e-18
5.9468124e-19
-6.5636247e-31
-1.1761815e-18
0
0
5.7818819e-19
-3.1910641e-31
5.7158928e-19
-5.6829347e-19
-1.695003e-18
1.6851368e-18
5.5842736e-19
-1.110292e-18
5.5186763e-19
9.1345181e-31
5.4531649e-19
-3.0811512e-34
-1.7944912e-30
5.3548937e-19
-1.0644187e-18
-5.2892542e-19
0
-5.2234296e-19
5.1904354e-19
5.157384e-19
5.1242746e-19
-1.1303806e-30
5.6135825e-31
-5.5766511e-31
-9.9825727e-19
4.957924e-19
8.1997612e-31
-9.7822038e-19
6.9031353e-35
4.8241726e-19
9.5813442e-19
9.5142992e-19
-9.4472106e-19
-5.2093204e-31
-4.6564434e-19
-4.6228174e-19
9.1783053e-19
-9.1108848e-19
-4.5216813e-19