/*--------------------------------*- C++ -*----------------------------------*\
  =========                 |
  \\      /  F ield         | OpenFOAM: The Open Source CFD Toolbox
   \\    /   O peration     | Website:  https://openfoam.org
    \\  /    A nd           | Version:  7
     \\/     M anipulation  |
\*---------------------------------------------------------------------------*/
FoamFile
{
    version     2.0;
    format      ascii;
    class       volScalarField;
    location    "0.00342";
    object      p;
}
// * * * * * * * * * * * * * * * * * * * * * * * * * * * * * * * * * * * * * //

dimensions      [1 -1 -2 0 0 0 0];

internalField   nonuniform List<scalar> 
5000
(
109813.38
109813.38
109813.38
109813.38
109813.38
109813.38
109813.38
109813.38
109813.38
109813.38
109813.38
109813.38
109813.38
109813.38
109813.38
109813.38
109813.38
109813.38
109813.38
109813.38
109813.38
109813.38
109813.38
109813.38
109813.38
109813.38
109813.38
109813.38
109813.38
109813.38
109813.38
109813.38
109813.38
109813.38
109813.38
109813.38
109813.38
109813.38
109813.38
109813.38
109813.38
109813.38
109813.38
109813.38
109813.38
109813.38
109813.38
109813.38
109813.38
109813.38
109813.38
109813.38
109813.38
109813.38
109813.38
109813.38
109813.38
109813.38
109813.38
109813.38
109813.38
109813.38
109813.38
109813.38
109813.38
109813.38
109813.38
109813.38
109813.38
109813.38
109813.38
109813.38
109813.38
109813.38
109813.38
109813.38
109813.38
109813.38
109813.38
109813.39
109813.39
109813.39
109813.39
109813.39
109813.39
109813.39
109813.39
109813.39
109813.39
109813.39
109813.39
109813.39
109813.39
109813.39
109813.39
109813.39
109813.39
109813.39
109813.39
109813.39
109813.39
109813.39
109813.39
109813.39
109813.39
109813.39
109813.39
109813.39
109813.39
109813.39
109813.39
109813.39
109813.39
109813.39
109813.39
109813.39
109813.39
109813.39
109813.39
109813.39
109813.39
109813.39
109813.39
109813.39
109813.39
109813.39
109813.39
109813.39
109813.39
109813.39
109813.39
109813.39
109813.39
109813.39
109813.39
109813.39
109813.39
109813.39
109813.39
109813.39
109813.39
109813.39
109813.39
109813.39
109813.39
109813.39
109813.39
109813.39
109813.39
109813.39
109813.39
109813.39
109813.39
109813.39
109813.39
109813.39
109813.39
109813.39
109813.39
109813.39
109813.39
109813.39
109813.39
109813.39
109813.39
109813.39
109813.39
109813.39
109813.39
109813.39
109813.39
109813.39
109813.39
109813.39
109813.39
109813.39
109813.39
109813.39
109813.39
109813.39
109813.39
109813.39
109813.39
109813.39
109813.39
109813.39
109813.39
109813.39
109813.39
109813.39
109813.39
109813.39
109813.39
109813.39
109813.39
109813.39
109813.39
109813.39
109813.39
109813.39
109813.39
109813.39
109813.39
109813.39
109813.39
109813.39
109813.39
109813.39
109813.39
109813.39
109813.39
109813.39
109813.39
109813.39
109813.39
109813.39
109813.39
109813.39
109813.39
109813.39
109813.39
109813.39
109813.39
109813.39
109813.39
109813.39
109813.39
109813.39
109813.39
109813.39
109813.39
109813.39
109813.4
109813.4
109813.4
109813.4
109813.4
109813.4
109813.4
109813.4
109813.4
109813.4
109813.4
109813.4
109813.4
109813.4
109813.4
109813.4
109813.4
109813.4
109813.4
109813.4
109813.4
109813.4
109813.4
109813.4
109813.4
109813.4
109813.4
109813.4
109813.4
109813.4
109813.4
109813.4
109813.4
109813.4
109813.4
109813.4
109813.4
109813.4
109813.4
109813.4
109813.4
109813.4
109813.4
109813.4
109813.4
109813.4
109813.4
109813.4
109813.4
109813.4
109813.4
109813.4
109813.4
109813.4
109813.4
109813.4
109813.4
109813.4
109813.4
109813.4
109813.4
109813.4
109813.4
109813.4
109813.4
109813.4
109813.4
109813.4
109813.4
109813.4
109813.4
109813.4
109813.4
109813.4
109813.4
109813.4
109813.4
109813.4
109813.4
109813.4
109813.4
109813.4
109813.4
109813.4
109813.4
109813.4
109813.4
109813.4
109813.4
109813.4
109813.4
109813.4
109813.4
109813.4
109813.4
109813.4
109813.4
109813.4
109813.4
109813.4
109813.4
109813.4
109813.4
109813.4
109813.4
109813.4
109813.4
109813.4
109813.4
109813.4
109813.4
109813.4
109813.4
109813.4
109813.4
109813.4
109813.4
109813.4
109813.4
109813.4
109813.4
109813.4
109813.4
109813.4
109813.4
109813.4
109813.4
109813.4
109813.4
109813.4
109813.4
109813.4
109813.4
109813.4
109813.4
109813.4
109813.4
109813.4
109813.4
109813.4
109813.4
109813.4
109813.4
109813.4
109813.4
109813.4
109813.4
109813.4
109813.4
109813.4
109813.4
109813.4
109813.4
109813.4
109813.4
109813.4
109813.4
109813.4
109813.4
109813.4
109813.4
109813.41
109813.41
109813.41
109813.41
109813.41
109813.41
109813.41
109813.41
109813.41
109813.41
109813.41
109813.41
109813.41
109813.41
109813.41
109813.41
109813.41
109813.41
109813.41
109813.41
109813.41
109813.41
109813.41
109813.41
109813.41
109813.41
109813.41
109813.41
109813.41
109813.41
109813.41
109813.41
109813.41
109813.41
109813.41
109813.41
109813.41
109813.41
109813.41
109813.41
109813.41
109813.41
109813.41
109813.41
109813.41
109813.41
109813.41
109813.41
109813.41
109813.41
109813.41
109813.41
109813.41
109813.41
109813.41
109813.41
109813.41
109813.41
109813.41
109813.41
109813.41
109813.41
109813.41
109813.41
109813.41
109813.41
109813.41
109813.41
109813.41
109813.41
109813.41
109813.41
109813.41
109813.41
109813.41
109813.41
109813.41
109813.41
109813.41
109813.41
109813.41
109813.41
109813.41
109813.41
109813.41
109813.41
109813.41
109813.41
109813.41
109813.41
109813.41
109813.41
109813.41
109813.41
109813.41
109813.41
109813.41
109813.41
109813.41
109813.41
109813.41
109813.41
109813.41
109813.41
109813.41
109813.41
109813.41
109813.41
109813.41
109813.41
109813.41
109813.41
109813.41
109813.41
109813.41
109813.41
109813.41
109813.41
109813.41
109813.41
109813.41
109813.41
109813.41
109813.41
109813.41
109813.41
109813.41
109813.41
109813.41
109813.41
109813.41
109813.41
109813.41
109813.41
109813.41
109813.41
109813.41
109813.41
109813.41
109813.41
109813.41
109813.41
109813.41
109813.41
109813.41
109813.41
109813.41
109813.41
109813.41
109813.41
109813.41
109813.41
109813.41
109813.41
109813.41
109813.41
109813.41
109813.41
109813.41
109813.41
109813.41
109813.41
109813.41
109813.42
109813.42
109813.42
109813.42
109813.42
109813.42
109813.42
109813.42
109813.42
109813.42
109813.42
109813.42
109813.42
109813.42
109813.42
109813.42
109813.42
109813.42
109813.42
109813.42
109813.42
109813.42
109813.42
109813.42
109813.42
109813.42
109813.42
109813.42
109813.42
109813.42
109813.42
109813.42
109813.42
109813.42
109813.42
109813.42
109813.42
109813.42
109813.42
109813.42
109813.42
109813.42
109813.42
109813.42
109813.42
109813.42
109813.42
109813.42
109813.42
109813.42
109813.42
109813.42
109813.42
109813.42
109813.42
109813.42
109813.42
109813.42
109813.42
109813.42
109813.42
109813.42
109813.42
109813.42
109813.42
109813.42
109813.42
109813.42
109813.42
109813.42
109813.42
109813.42
109813.42
109813.42
109813.42
109813.42
109813.42
109813.42
109813.42
109813.42
109813.42
109813.42
109813.42
109813.42
109813.42
109813.42
109813.42
109813.42
109813.42
109813.42
109813.42
109813.42
109813.42
109813.42
109813.42
109813.42
109813.42
109813.42
109813.42
109813.42
109813.42
109813.42
109813.42
109813.42
109813.42
109813.42
109813.42
109813.42
109813.42
109813.42
109813.42
109813.42
109813.42
109813.42
109813.42
109813.42
109813.42
109813.42
109813.42
109813.42
109813.42
109813.42
109813.42
109813.42
109813.42
109813.42
109813.42
109813.42
109813.42
109813.42
109813.42
109813.42
109813.42
109813.42
109813.42
109813.42
109813.42
109813.42
109813.42
109813.42
109813.42
109813.42
109813.42
109813.42
109813.42
109813.42
109813.42
109813.42
109813.42
109813.42
109813.42
109813.42
109813.42
109813.42
109813.42
109813.42
109813.42
109813.42
109813.42
109813.42
109813.42
109813.42
109813.42
109813.42
109813.42
109813.42
109813.42
109813.42
109813.42
109813.42
109813.43
109813.43
109813.43
109813.43
109813.43
109813.43
109813.43
109813.43
109813.43
109813.43
109813.43
109813.43
109813.43
109813.43
109813.43
109813.43
109813.43
109813.43
109813.43
109813.43
109813.43
109813.43
109813.43
109813.43
109813.43
109813.43
109813.43
109813.43
109813.43
109813.43
109813.43
109813.43
109813.43
109813.43
109813.43
109813.43
109813.43
109813.43
109813.43
109813.43
109813.43
109813.43
109813.43
109813.43
109813.43
109813.43
109813.43
109813.43
109813.43
109813.43
109813.43
109813.43
109813.43
109813.43
109813.43
109813.43
109813.43
109813.43
109813.43
109813.43
109813.43
109813.43
109813.43
109813.43
109813.43
109813.43
109813.43
109813.43
109813.43
109813.43
109813.43
109813.43
109813.43
109813.43
109813.43
109813.43
109813.43
109813.43
109813.43
109813.43
109813.43
109813.43
109813.43
109813.43
109813.43
109813.43
109813.43
109813.43
109813.43
109813.43
109813.43
109813.43
109813.43
109813.43
109813.43
109813.43
109813.43
109813.43
109813.43
109813.43
109813.43
109813.43
109813.43
109813.43
109813.43
109813.43
109813.43
109813.43
109813.43
109813.43
109813.43
109813.43
109813.43
109813.43
109813.43
109813.43
109813.43
109813.43
109813.43
109813.43
109813.43
109813.43
109813.43
109813.43
109813.43
109813.43
109813.43
109813.43
109813.43
109813.43
109813.43
109813.43
109813.43
109813.43
109813.43
109813.43
109813.43
109813.43
109813.43
109813.43
109813.43
109813.43
109813.43
109813.43
109813.43
109813.43
109813.43
109813.43
109813.43
109813.43
109813.43
109813.43
109813.43
109813.43
109813.43
109813.43
109813.43
109813.43
109813.43
109813.43
109813.43
109813.43
109813.43
109813.43
109813.43
109813.43
109813.43
109813.43
109813.43
109813.43
109813.43
109813.43
109813.43
109813.43
109813.43
109813.43
109813.43
109813.43
109813.43
109813.43
109813.43
109813.43
109813.43
109813.43
109813.43
109813.43
109813.43
109813.43
109813.43
109813.43
109813.43
109813.43
109813.43
109813.43
109813.43
109813.43
109813.43
109813.43
109813.43
109813.43
109813.43
109813.43
109813.43
109813.43
109813.44
109813.44
109813.44
109813.44
109813.44
109813.44
109813.44
109813.44
109813.44
109813.44
109813.44
109813.44
109813.44
109813.44
109813.44
109813.44
109813.44
109813.44
109813.44
109813.44
109813.44
109813.44
109813.44
109813.44
109813.44
109813.44
109813.44
109813.44
109813.44
109813.44
109813.44
109813.44
109813.44
109813.44
109813.44
109813.44
109813.44
109813.44
109813.44
109813.44
109813.44
109813.44
109813.44
109813.44
109813.44
109813.44
109813.44
109813.44
109813.44
109813.44
109813.44
109813.44
109813.44
109813.44
109813.44
109813.44
109813.44
109813.44
109813.44
109813.44
109813.44
109813.44
109813.44
109813.44
109813.44
109813.44
109813.44
109813.44
109813.44
109813.44
109813.44
109813.44
109813.44
109813.44
109813.44
109813.44
109813.44
109813.44
109813.44
109813.44
109813.44
109813.44
109813.44
109813.44
109813.44
109813.44
109813.44
109813.44
109813.44
109813.44
109813.44
109813.44
109813.44
109813.44
109813.44
109813.44
109813.44
109813.44
109813.44
109813.44
109813.44
109813.44
109813.44
109813.44
109813.44
109813.44
109813.44
109813.44
109813.44
109813.44
109813.44
109813.44
109813.44
109813.44
109813.44
109813.44
109813.44
109813.44
109813.44
109813.44
109813.44
109813.44
109813.44
109813.44
109813.44
109813.44
109813.44
109813.44
109813.44
109813.44
109813.44
109813.44
109813.44
109813.44
109813.44
109813.44
109813.44
109813.44
109813.44
109813.44
109813.44
109813.44
109813.44
109813.44
109813.44
109813.44
109813.44
109813.44
109813.44
109813.44
109813.44
109813.44
109813.44
109813.44
109813.44
109813.44
109813.44
109813.44
109813.44
109813.44
109813.44
109813.44
109813.44
109813.44
109813.44
109813.44
109813.44
109813.44
109813.44
109813.44
109813.44
109813.44
109813.44
109813.44
109813.44
109813.44
109813.44
109813.44
109813.44
109813.44
109813.44
109813.44
109813.44
109813.44
109813.44
109813.44
109813.44
109813.44
109813.44
109813.44
109813.44
109813.44
109813.44
109813.44
109813.44
109813.44
109813.44
109813.44
109813.44
109813.44
109813.44
109813.44
109813.44
109813.44
109813.44
109813.44
109813.44
109813.44
109813.44
109813.44
109813.44
109813.44
109813.44
109813.44
109813.44
109813.44
109813.44
109813.44
109813.44
109813.44
109813.44
109813.45
109813.45
109813.45
109813.45
109813.45
109813.45
109813.45
109813.45
109813.45
109813.45
109813.45
109813.45
109813.45
109813.45
109813.45
109813.45
109813.45
109813.45
109813.45
109813.45
109813.45
109813.45
109813.45
109813.45
109813.45
109813.45
109813.45
109813.45
109813.45
109813.45
109813.45
109813.45
109813.45
109813.45
109813.45
109813.45
109813.45
109813.45
109813.45
109813.45
109813.45
109813.45
109813.45
109813.45
109813.45
109813.45
109813.45
109813.45
109813.45
109813.45
109813.45
109813.45
109813.45
109813.45
109813.45
109813.45
109813.45
109813.45
109813.45
109813.45
109813.45
109813.45
109813.45
109813.45
109813.45
109813.45
109813.45
109813.45
109813.45
109813.45
109813.45
109813.45
109813.45
109813.45
109813.45
109813.45
109813.45
109813.45
109813.45
109813.45
109813.45
109813.45
109813.45
109813.45
109813.45
109813.45
109813.45
109813.45
109813.45
109813.45
109813.45
109813.45
109813.45
109813.45
109813.45
109813.45
109813.45
109813.45
109813.45
109813.45
109813.45
109813.45
109813.45
109813.45
109813.45
109813.45
109813.45
109813.45
109813.45
109813.45
109813.45
109813.45
109813.45
109813.45
109813.45
109813.45
109813.45
109813.45
109813.45
109813.45
109813.45
109813.45
109813.45
109813.45
109813.45
109813.45
109813.45
109813.45
109813.45
109813.45
109813.45
109813.45
109813.45
109813.45
109813.45
109813.45
109813.45
109813.45
109813.45
109813.45
109813.45
109813.45
109813.45
109813.45
109813.45
109813.45
109813.45
109813.45
109813.45
109813.45
109813.45
109813.45
109813.45
109813.45
109813.45
109813.45
109813.45
109813.45
109813.45
109813.45
109813.44
109813.44
109813.44
109813.44
109813.44
109813.44
109813.44
109813.44
109813.44
109813.44
109813.44
109813.44
109813.44
109813.44
109813.44
109813.44
109813.44
109813.44
109813.44
109813.44
109813.44
109813.44
109813.44
109813.44
109813.43
109813.43
109813.43
109813.43
109813.43
109813.43
109813.43
109813.43
109813.43
109813.43
109813.43
109813.43
109813.42
109813.42
109813.42
109813.42
109813.42
109813.42
109813.42
109813.42
109813.41
109813.41
109813.41
109813.41
109813.41
109813.41
109813.41
109813.4
109813.4
109813.4
109813.4
109813.4
109813.39
109813.39
109813.39
109813.39
109813.38
109813.38
109813.38
109813.38
109813.37
109813.37
109813.37
109813.36
109813.36
109813.36
109813.35
109813.35
109813.35
109813.34
109813.34
109813.33
109813.33
109813.32
109813.32
109813.31
109813.31
109813.3
109813.3
109813.29
109813.29
109813.28
109813.28
109813.27
109813.26
109813.26
109813.25
109813.24
109813.23
109813.23
109813.22
109813.21
109813.2
109813.19
109813.18
109813.17
109813.16
109813.15
109813.14
109813.13
109813.12
109813.11
109813.1
109813.09
109813.08
109813.06
109813.05
109813.04
109813.02
109813.01
109812.99
109812.98
109812.96
109812.94
109812.93
109812.91
109812.89
109812.87
109812.85
109812.83
109812.81
109812.79
109812.77
109812.75
109812.73
109812.7
109812.68
109812.65
109812.63
109812.6
109812.57
109812.54
109812.52
109812.49
109812.46
109812.42
109812.39
109812.36
109812.32
109812.29
109812.25
109812.21
109812.18
109812.14
109812.1
109812.05
109812.01
109811.97
109811.92
109811.88
109811.83
109811.78
109811.73
109811.68
109811.62
109811.57
109811.51
109811.45
109811.39
109811.33
109811.27
109811.21
109811.14
109811.07
109811
109810.93
109810.86
109810.78
109810.71
109810.63
109810.55
109810.47
109810.38
109810.29
109810.2
109810.11
109810.02
109809.92
109809.82
109809.72
109809.62
109809.51
109809.4
109809.29
109809.18
109809.06
109808.94
109808.82
109808.69
109808.56
109808.43
109808.3
109808.16
109808.02
109807.87
109807.72
109807.57
109807.42
109807.26
109807.1
109806.93
109806.76
109806.59
109806.41
109806.23
109806.04
109805.86
109805.66
109805.46
109805.26
109805.05
109804.84
109804.63
109804.41
109804.18
109803.95
109803.72
109803.48
109803.23
109802.98
109802.73
109802.47
109802.2
109801.93
109801.66
109801.37
109801.09
109800.79
109800.49
109800.19
109799.88
109799.56
109799.23
109798.9
109798.57
109798.22
109797.87
109797.52
109797.15
109796.78
109796.41
109796.02
109795.63
109795.23
109794.83
109794.41
109793.99
109793.56
109793.13
109792.68
109792.23
109791.77
109791.3
109790.83
109790.34
109789.85
109789.35
109788.84
109788.32
109787.79
109787.26
109786.71
109786.16
109785.59
109785.02
109784.44
109783.85
109783.25
109782.64
109782.02
109781.39
109780.75
109780.1
109779.44
109778.77
109778.09
109777.4
109776.7
109775.99
109775.27
109774.54
109773.79
109773.04
109772.27
109771.5
109770.71
109769.91
109769.11
109768.29
109767.45
109766.61
109765.76
109764.89
109764.01
109763.13
109762.23
109761.31
109760.39
109759.45
109758.5
109757.54
109756.57
109755.59
109754.59
109753.58
109752.56
109751.53
109750.48
109749.43
109748.36
109747.27
109746.18
109745.07
109743.95
109742.82
109741.67
109740.51
109739.34
109738.16
109736.96
109735.76
109734.53
109733.3
109732.05
109730.79
109729.52
109728.24
109726.94
109725.63
109724.31
109722.97
109721.63
109720.27
109718.89
109717.51
109716.11
109714.7
109713.28
109711.84
109710.39
109708.93
109707.46
109705.98
109704.48
109702.97
109701.45
109699.92
109698.37
109696.82
109695.25
109693.67
109692.08
109690.48
109688.86
109687.23
109685.6
109683.95
109682.29
109680.62
109678.94
109677.25
109675.54
109673.83
109672.11
109670.37
109668.63
109666.87
109665.11
109663.33
109661.55
109659.76
109657.95
109656.14
109654.32
109652.49
109650.65
109648.8
109646.94
109645.08
109643.21
109641.32
109639.44
109637.54
109635.63
109633.72
109631.8
109629.88
109627.94
109626
109624.06
109622.1
109620.14
109618.18
109616.21
109614.23
109612.25
109610.26
109608.27
109606.27
109604.27
109602.27
109600.26
109598.24
109596.22
109594.2
109592.18
109590.15
109588.12
109586.08
109584.05
109582.01
109579.97
109577.92
109575.88
109573.83
109571.79
109569.74
109567.69
109565.64
109563.59
109561.54
109559.49
109557.44
109555.39
109553.35
109551.3
109549.25
109547.21
109545.16
109543.12
109541.08
109539.05
109537.01
109534.98
109532.95
109530.93
109528.91
109526.89
109524.87
109522.86
109520.86
109518.86
109516.86
109514.87
109512.88
109510.9
109508.92
109506.95
109504.99
109503.03
109501.08
109499.13
109497.19
109495.26
109493.34
109491.42
109489.51
109487.61
109485.71
109483.83
109481.95
109480.08
109478.22
109476.36
109474.52
109472.68
109470.86
109469.04
109467.24
109465.44
109463.65
109461.87
109460.11
109458.35
109456.61
109454.87
109453.14
109451.43
109449.73
109448.04
109446.36
109444.69
109443.03
109441.38
109439.75
109438.12
109436.51
109434.92
109433.33
109431.75
109430.19
109428.64
109427.1
109425.58
109424.07
109422.57
109421.08
109419.61
109418.15
109416.7
109415.27
109413.84
109412.44
109411.04
109409.66
109408.29
109406.93
109405.59
109404.26
109402.95
109401.65
109400.36
109399.08
109397.82
109396.57
109395.34
109394.12
109392.91
109391.72
109390.54
109389.37
109388.22
109387.08
109385.95
109384.84
109383.74
109382.66
109381.59
109380.53
109379.48
109378.45
109377.43
109376.42
109375.43
109374.45
109373.49
109372.53
109371.59
109370.67
109369.75
109368.85
109367.96
109367.09
109366.22
109365.37
109364.53
109363.71
109362.9
109362.09
109361.31
109360.53
109359.76
109359.01
109358.27
109357.54
109356.82
109356.12
109355.42
109354.74
109354.07
109353.41
109352.76
109352.12
109351.49
109350.88
109350.27
109349.67
109349.09
109348.52
109347.95
109347.4
109346.85
109346.32
109345.8
109345.28
109344.78
109344.28
109343.8
109343.32
109342.86
109342.4
109341.95
109341.51
109341.08
109340.66
109340.24
109339.84
109339.44
109339.05
109338.67
109338.3
109337.93
109337.58
109337.23
109336.89
109336.55
109336.23
109335.91
109335.59
109335.29
109334.99
109334.7
109334.41
109334.13
109333.86
109333.59
109333.34
109333.08
109332.83
109332.59
109332.36
109332.13
109331.9
109331.68
109331.47
109331.26
109331.06
109330.86
109330.67
109330.48
109330.3
109330.12
109329.95
109329.78
109329.61
109329.45
109329.3
109329.14
109329
109328.85
109328.71
109328.58
109328.45
109328.32
109328.19
109328.07
109327.96
109327.84
109327.73
109327.62
109327.52
109327.42
109327.32
109327.22
109327.13
109327.04
109326.95
109326.87
109326.79
109326.71
109326.63
109326.56
109326.49
109326.42
109326.35
109326.29
109326.22
109326.16
109326.1
109326.05
109325.99
109325.94
109325.89
109325.84
109325.79
109325.74
109325.7
109325.66
109325.61
109325.57
109325.54
109325.5
109325.46
109325.43
109325.39
109325.36
109325.33
109325.3
109325.27
109325.25
109325.22
109325.19
109325.17
109325.15
109325.12
109325.1
109325.08
109325.06
109325.04
109325.03
109325.01
109324.99
109324.97
109324.96
109324.94
109324.93
109324.92
109324.9
109324.89
109324.88
109324.87
109324.86
109324.85
109324.84
109324.83
109324.82
109324.81
109324.8
109324.8
109324.79
109324.78
109324.77
109324.77
109324.76
109324.76
109324.75
109324.75
109324.74
109324.74
109324.73
109324.73
109324.72
109324.72
109324.72
109324.71
109324.71
109324.71
109324.7
109324.7
109324.7
109324.69
109324.69
109324.69
109324.69
109324.69
109324.68
109324.68
109324.68
109324.68
109324.68
109324.67
109324.67
109324.67
109324.67
109324.67
109324.67
109324.66
109324.66
109324.66
109324.66
109324.66
109324.66
109324.66
109324.66
109324.65
109324.65
109324.65
109324.65
109324.65
109324.65
109324.65
109324.65
109324.64
109324.64
109324.64
109324.64
109324.64
109324.64
109324.64
109324.63
109324.63
109324.63
109324.63
109324.63
109324.63
109324.63
109324.62
109324.62
109324.62
109324.62
109324.62
109324.62
109324.61
109324.61
109324.61
109324.61
109324.61
109324.6
109324.6
109324.6
109324.6
109324.59
109324.59
109324.59
109324.59
109324.59
109324.58
109324.58
109324.58
109324.58
109324.57
109324.57
109324.57
109324.56
109324.56
109324.56
109324.56
109324.55
109324.55
109324.55
109324.54
109324.54
109324.54
109324.53
109324.53
109324.53
109324.52
109324.52
109324.52
109324.51
109324.51
109324.51
109324.5
109324.5
109324.5
109324.49
109324.49
109324.48
109324.48
109324.48
109324.47
109324.47
109324.46
109324.46
109324.46
109324.45
109324.45
109324.44
109324.44
109324.43
109324.43
109324.43
109324.42
109324.42
109324.41
109324.41
109324.4
109324.4
109324.39
109324.39
109324.38
109324.38
109324.37
109324.37
109324.36
109324.36
109324.35
109324.35
109324.34
109324.34
109324.33
109324.33
109324.32
109324.32
109324.31
109324.3
109324.3
109324.29
109324.29
109324.28
109324.28
109324.27
109324.26
109324.26
109324.25
109324.25
109324.24
109324.23
109324.23
109324.22
109324.22
109324.21
109324.2
109324.2
109324.19
109324.18
109324.18
109324.17
109324.17
109324.16
109324.15
109324.15
109324.14
109324.13
109324.13
109324.12
109324.11
109324.1
109324.1
109324.09
109324.08
109324.08
109324.07
109324.06
109324.05
109324.05
109324.04
109324.03
109324.03
109324.02
109324.01
109324
109324
109323.99
109323.98
109323.97
109323.97
109323.96
109323.95
109323.94
109323.93
109323.93
109323.92
109323.91
109323.9
109323.89
109323.89
109323.88
109323.87
109323.86
109323.85
109323.84
109323.84
109323.83
109323.82
109323.81
109323.8
109323.79
109323.79
109323.78
109323.77
109323.76
109323.75
109323.74
109323.73
109323.72
109323.72
109323.71
109323.7
109323.69
109323.68
109323.67
109323.66
109323.65
109323.64
109323.63
109323.62
109323.62
109323.61
109323.6
109323.59
109323.58
109323.57
109323.56
109323.55
109323.54
109323.53
109323.52
109323.51
109323.5
109323.49
109323.48
109323.47
109323.46
109323.45
109323.44
109323.43
109323.42
109323.41
109323.4
109323.39
109323.38
109323.37
109323.36
109323.35
109323.34
109323.33
109323.32
109323.31
109323.3
109323.29
109323.28
109323.27
109323.26
109323.25
109323.24
109323.23
109323.22
109323.21
109323.2
109323.19
109323.18
109323.16
109323.15
109323.14
109323.13
109323.12
109323.11
109323.1
109323.09
109323.08
109323.07
109323.06
109323.05
109323.04
109323.03
109323.01
109323
109322.99
109322.98
109322.97
109322.96
109322.95
109322.94
109322.93
109322.92
109322.9
109322.89
109322.88
109322.87
109322.86
109322.85
109322.84
109322.83
109322.82
109322.81
109322.79
109322.78
109322.77
109322.76
109322.75
109322.74
109322.73
109322.72
109322.7
109322.69
109322.68
109322.67
109322.66
109322.65
109322.64
109322.63
109322.62
109322.6
109322.59
109322.58
109322.57
109322.56
109322.55
109322.54
109322.53
109322.51
109322.5
109322.49
109322.48
109322.47
109322.46
109322.45
109322.44
109322.43
109322.41
109322.4
109322.39
109322.38
109322.37
109322.36
109322.35
109322.34
109322.33
109322.31
109322.3
109322.29
109322.28
109322.27
109322.26
109322.25
109322.24
109322.23
109322.22
109322.2
109322.19
109322.18
109322.17
109322.16
109322.15
109322.14
109322.13
109322.12
109322.11
109322.1
109322.09
109322.08
109322.06
109322.05
109322.04
109322.03
109322.02
109322.01
109322
109321.99
109321.98
109321.97
109321.96
109321.95
109321.94
109321.93
109321.92
109321.91
109321.9
109321.89
109321.88
109321.87
109321.86
109321.85
109321.84
109321.83
109321.82
109321.81
109321.8
109321.79
109321.78
109321.77
109321.76
109321.75
109321.74
109321.73
109321.72
109321.71
109321.7
109321.69
109321.68
109321.67
109321.66
109321.65
109321.64
109321.64
109321.63
109321.62
109321.61
109321.6
109321.59
109321.58
109321.57
109321.56
109321.55
109321.55
109321.54
109321.53
109321.52
109321.51
109321.5
109321.49
109321.48
109321.48
109321.47
109321.46
109321.45
109321.44
109321.43
109321.43
109321.42
109321.41
109321.4
109321.39
109321.39
109321.38
109321.37
109321.36
109321.35
109321.35
109321.34
109321.33
109321.32
109321.32
109321.31
109321.3
109321.29
109321.29
109321.28
109321.27
109321.26
109321.26
109321.25
109321.24
109321.24
109321.23
109321.22
109321.22
109321.21
109321.2
109321.19
109321.19
109321.18
109321.18
109321.17
109321.16
109321.16
109321.15
109321.14
109321.14
109321.13
109321.12
109321.12
109321.11
109321.11
109321.1
109321.09
109321.09
109321.08
109321.08
109321.07
109321.07
109321.06
109321.05
109321.05
109321.04
109321.04
109321.03
109321.03
109321.02
109321.02
109321.01
109321.01
109321
109321
109320.99
109320.99
109320.98
109320.98
109320.97
109320.97
109320.96
109320.96
109320.95
109320.95
109320.94
109320.94
109320.93
109320.93
109320.93
109320.92
109320.92
109320.91
109320.91
109320.9
109320.9
109320.9
109320.89
109320.89
109320.88
109320.88
109320.88
109320.87
109320.87
109320.86
109320.86
109320.86
109320.85
109320.85
109320.85
109320.84
109320.84
109320.84
109320.83
109320.83
109320.83
109320.82
109320.82
109320.82
109320.81
109320.81
109320.81
109320.81
109320.8
109320.8
109320.8
109320.79
109320.79
109320.79
109320.79
109320.78
109320.78
109320.78
109320.77
109320.77
109320.77
109320.77
109320.76
109320.76
109320.76
109320.76
109320.75
109320.75
109320.75
109320.75
109320.75
109320.74
109320.74
109320.74
109320.74
109320.73
109320.73
109320.73
109320.73
109320.73
109320.72
109320.72
109320.72
109320.72
109320.72
109320.72
109320.71
109320.71
109320.71
109320.71
109320.71
109320.7
109320.7
109320.7
109320.7
109320.7
109320.7
109320.7
109320.69
109320.69
109320.69
109320.69
109320.69
109320.69
109320.68
109320.68
109320.68
109320.68
109320.68
109320.68
109320.68
109320.68
109320.67
109320.67
109320.67
109320.67
109320.67
109320.67
109320.67
109320.67
109320.67
109320.66
109320.66
109320.66
109320.66
109320.66
109320.66
109320.66
109320.66
109320.66
109320.66
109320.65
109320.65
109320.65
109320.65
109320.65
109320.65
109320.65
109320.65
109320.65
109320.65
109320.65
109320.65
109320.64
109320.64
109320.64
109320.64
109320.64
109320.64
109320.64
109320.64
109320.64
109320.64
109320.64
109320.64
109320.64
109320.64
109320.64
109320.63
109320.63
109320.63
109320.63
109320.63
109320.63
109320.63
109320.63
109320.63
109320.63
109320.63
109320.63
109320.63
109320.63
109320.63
109320.63
109320.63
109320.63
109320.63
109320.63
109320.63
109320.62
109320.62
109320.62
109320.62
109320.62
109320.62
109320.62
109320.62
109320.62
109320.62
109320.62
109320.62
109320.62
109320.62
109320.62
109320.62
109320.62
109320.62
109320.62
109320.62
109320.62
109320.62
109320.62
109320.62
109320.62
109320.62
109320.62
109320.62
109320.62
109320.62
109320.62
109320.61
109320.61
109320.61
109320.61
109320.61
109320.61
109320.61
109320.61
109320.61
109320.61
109320.61
109320.61
109320.61
109320.61
109320.61
109320.61
109320.61
109320.61
109320.61
109320.61
109320.61
109320.61
109320.61
109320.61
109320.61
109320.61
109320.61
109320.61
109320.61
109320.61
109320.61
109320.61
109320.61
109320.61
109320.61
109320.61
109320.61
109320.61
109320.61
109320.61
109320.61
109320.61
109320.61
109320.61
109320.61
109320.61
109320.61
109320.61
109320.61
109320.6
109320.6
109320.6
109320.6
109320.6
109320.6
109320.6
109320.6
109320.6
109320.6
109320.6
109320.6
109320.6
109320.6
109320.6
109320.6
109320.6
109320.6
109320.6
109320.6
109320.6
109320.6
109320.6
109320.6
109320.6
109320.6
109320.6
109320.6
109320.6
109320.6
109320.6
109320.6
109320.6
109320.6
109320.6
109320.6
109320.6
109320.6
109320.6
109320.6
109320.6
109320.6
109320.6
109320.6
109320.6
109320.6
109320.6
109320.59
109320.59
109320.6
109320.6
109320.6
109320.6
109320.6
109320.6
109320.59
109320.59
109320.59
109320.59
109320.58
109320.58
109320.58
109320.58
109320.59
109320.6
109320.6
109320.6
109320.59
109320.59
109320.59
109320.59
109320.59
109320.59
109320.59
109320.59
109320.58
109320.58
109320.58
109320.58
109320.58
109320.58
109320.58
109320.58
109320.58
109320.58
109320.58
109320.58
109320.58
109320.58
109320.58
109320.58
109320.58
109320.58
109320.58
109320.57
109320.57
109320.57
109320.57
109320.57
109320.57
109320.57
109320.57
109320.57
109320.57
109320.57
109320.57
109320.56
109320.56
109320.56
109320.56
109320.56
109320.56
109320.56
109320.56
109320.56
109320.55
109320.55
109320.55
109320.55
109320.55
109320.55
109320.55
109320.55
109320.54
109320.54
109320.54
109320.54
109320.54
109320.54
109320.53
109320.53
109320.53
109320.53
109320.53
109320.53
109320.52
109320.52
109320.52
109320.52
109320.51
109320.51
109320.51
109320.51
109320.51
109320.5
109320.5
109320.5
109320.49
109320.49
109320.49
109320.49
109320.48
109320.48
109320.48
109320.47
109320.47
109320.47