/*--------------------------------*- C++ -*----------------------------------*\
  =========                 |
  \\      /  F ield         | OpenFOAM: The Open Source CFD Toolbox
   \\    /   O peration     | Website:  https://openfoam.org
    \\  /    A nd           | Version:  7
     \\/     M anipulation  |
\*---------------------------------------------------------------------------*/
FoamFile
{
    version     2.0;
    format      ascii;
    class       volScalarField;
    location    "0.00184";
    object      Uz;
}
// * * * * * * * * * * * * * * * * * * * * * * * * * * * * * * * * * * * * * //

dimensions      [0 1 -1 0 0 0 0];

internalField   nonuniform List<scalar> 
5000
(
0
0
0
0
0
1.9409969e-20
4.4658673e-35
-6.9067859e-20
-2.38524e-20
4.728113e-20
4.7181867e-20
-2.362157e-20
1.964263e-34
1.7613447e-34
-3.6069988e-20
4.0126456e-20
4.6946344e-49
1.8921254e-34
2.1146203e-20
-4.3193496e-20
-2.1621509e-20
0
0
1.7684916e-20
-1.6326873e-34
1.64872e-34
2.0240194e-20
-1.9950736e-20
-1.9555857e-20
1.9289393e-20
-3.2637565e-34
1.5931161e-34
1.8909044e-20
-1.8852503e-20
-1.8812996e-20
0
0
1.8792987e-20
1.9071483e-20
-1.9115766e-20
3.1447109e-34
1.8885696e-20
-1.9635261e-20
3.2946691e-34
1.8564627e-20
-1.8769136e-20
6.8391113e-34
-6.7822095e-34
6.2921873e-34
-3.0515541e-34
-1.8875404e-20
0
0
0
0
0
0
0
0
0
0
0
0
1.8758848e-20
1.8285583e-20
-1.6836034e-20
2.4259681e-34
-2.5019455e-50
-1.3851578e-20
0
0
1.5111056e-20
1.4871007e-20
0
-1.4368696e-20
-4.9107906e-34
1.426067e-20
1.4225123e-20
-1.4155921e-20
-2.8237571e-20
2.8137147e-20
-7.9679819e-36
-4.1895285e-20
2.7815034e-20
1.4403065e-33
-2.7575768e-20
4.1113129e-20
-1.3582185e-20
-1.3430846e-20
1.3285926e-20
-1.317413e-20
-1.3091618e-20
-4.5307276e-34
2.5803038e-20
8.8451435e-34
1.2642251e-20
1.250926e-20
4.2840392e-34
-8.2056897e-34
-2.2878248e-20
-1.0846781e-20
1.0655707e-20
-1.5189954e-36
-1.0420522e-20
0
1.0128834e-20
3.447737e-34
-9.7117587e-21
9.4524205e-21
9.1396995e-21
-1.7649643e-20
-8.4612597e-21
2.4747291e-20
8.1081767e-21
-2.3741293e-20
7.6662736e-21
7.3368863e-21
4.0582578e-36
7.0300911e-21
-2.0782144e-20
4.7534787e-34
1.29935e-20
-1.2738626e-20
-6.4294506e-21
6.3783801e-21
-6.2955956e-21
6.0684831e-21
1.081457e-20
-5.1748391e-21
-1.847915e-34
-5.3320184e-21
-1.0498026e-20
5.1608655e-21
4.4524974e-21
3.8489404e-21
1.3663994e-34
1.4208248e-34
-1.4843534e-34
-8.3582783e-21
-3.8788977e-21
3.6557135e-21
6.6593252e-21
2.8482918e-21
2.1401072e-21
-9.7799612e-35
-2.3333656e-21
3.3323298e-37
-3.0983767e-37
-1.3829896e-49
-4.6278286e-22
4.8004069e-36
-4.2969184e-36
-5.5716852e-22
1.1718563e-21
-1.2580219e-21
-3.2102261e-35
3.5235938e-22
1.9668289e-23
3.3472286e-38
1.4589327e-21
0
-2.7944699e-21
-1.5702059e-34
3.0741183e-21
-1.1417681e-21
4.2723696e-37
2.3656488e-21
-2.9558944e-21
2.5654236e-21
-1.8869287e-21
8.2290932e-34
8.740082e-34
-4.3607707e-21
9.1171735e-21
0
1.9419789e-34
4.8966347e-34
-2.9468236e-21
-4.3340424e-21
-3.6165042e-34
4.8894227e-21
-4.0419954e-21
-3.0472503e-34
-2.6325974e-36
-1.0813011e-33
1.5001707e-20
-6.3121447e-21
-6.6559793e-21
6.1297722e-34
-7.4735081e-34
2.3836684e-33
-6.8842404e-34
8.0558649e-21
0
0
0
0
2.0050267e-20
-4.0564391e-33
-1.960959e-20
-1.9251213e-20
1.6950792e-20
1.4458575e-20
-2.6779289e-20
-1.0649778e-33
4.6137969e-33
2.7377657e-20
2.569832e-20
-2.084505e-20
0
-1.8295948e-20
-1.5082266e-33
3.1297035e-20
3.8499444e-20
-5.1707189e-33
-3.1281004e-20
5.8368193e-20
-3.179111e-20
-3.7760952e-20
4.3534529e-20
-4.3057663e-20
0
0
0
-5.3174322e-20
6.1647742e-20
1.2117179e-19
-5.3623324e-20
3.598962e-33
-5.2535e-20
-6.0969396e-20
1.4721063e-19
-2.3503523e-35
2.3144457e-35
-7.307385e-20
-7.0657501e-20
1.4169815e-19
-1.1568109e-35
1.983127e-32
-1.0641193e-19
5.9455431e-32
1.3611563e-32
-9.6518068e-20
9.8805075e-20
0
1.2952838e-19
-1.3179029e-19
-1.2545614e-19
1.1778317e-19
0
1.1638497e-19
-1.3113413e-19
-1.4622401e-19
5.2594574e-32
3.0365587e-19
2.9494376e-19
-4.3577012e-19
-2.9818992e-19
0
3.3410003e-19
1.7636103e-19
-1.8581853e-19
-1.9888342e-19
-2.0380162e-19
4.0272797e-19
4.0491063e-19
-2.0633735e-19
-4.3594713e-19
-6.5287759e-32
5.0809764e-19
-2.6192807e-19
3.6132439e-32
2.6286534e-19
-5.3867648e-19
2.8370051e-19
-4.2308529e-32
-3.2335519e-19
3.3494881e-19
-3.3764304e-19
6.8238294e-19
-1.4570337e-31
-7.2551182e-19
7.5977564e-19
2.7566704e-32
-4.1722656e-19
0
0
-4.5765801e-19
4.621806e-19
9.4268497e-19
-4.8809216e-19
1.4493787e-34
-5.3203018e-19
-5.4985691e-19
5.6159958e-19
0
5.8817419e-19
6.0973645e-19
0
-1.3013478e-18
-6.6454782e-19
1.3573655e-18
-4.8313705e-32
2.0482134e-34
-7.4102419e-19
-7.5781479e-19
7.7510786e-19
-7.9783153e-19
8.2256778e-19
-4.7885076e-34
-1.7146694e-18
8.7355941e-19
8.9938546e-19
9.2960444e-19
1.3241807e-31
-9.721141e-19
0
0
1.0327544e-18
-1.4782611e-31
3.0376008e-31
1.5543845e-31
-1.1365989e-18
1.1565629e-18
-1.6810969e-34
-1.2146597e-18
0
0
0
0
0
0
0
1.4330373e-18
0
-1.4908246e-18
0
1.5602753e-18
4.4122518e-31
-1.6179133e-18
0
0
1.7038694e-18
2.4039094e-31
-1.7620614e-18
0
0
1.8759337e-18
1.9114949e-18
-1.9433743e-18
-1.9716715e-18
0
2.0301147e-18
-2.9368104e-34
-2.1101189e-18
2.1549458e-18
2.1904738e-18
-2.217087e-18
-2.2443588e-18
0
2.3263045e-18
2.3716327e-18
-2.4099558e-18
-2.4429569e-18
0
2.5134775e-18
2.5550554e-18
-2.596354e-18
-2.6356552e-18
0
0
0
0
0
0
0
0
3.0050096e-18
-3.0818182e-47
-3.0766346e-18
0
0
0
3.2427134e-18
4.5547804e-31
-3.3290112e-18
3.3774475e-18
-4.7534535e-31
4.920672e-34
4.8552732e-31
-3.5346196e-18
3.5793958e-18
-3.6310133e-18
2.0461788e-30
3.7257342e-18
-3.7616691e-18
0
0
3.8875147e-18
5.4645205e-31
-3.9806645e-18
4.0225849e-18
4.0649407e-18
0
-4.1539623e-18
-4.1963665e-18
4.2373067e-18
1.1879457e-30
8.6044763e-48
6.0753234e-31
-4.4200795e-18
4.458401e-18
-3.0817e-47
6.2986906e-31
4.5841146e-18
0
0
-4.7192962e-18
-6.7587684e-34
1.995547e-30
-4.8413351e-18
0
0
4.9730375e-18
-1.3892144e-30
-5.0516315e-18
0
0
0
5.2165204e-18
-7.466793e-34
-5.2969069e-18
5.3422803e-18
-5.385866e-18
1.508061e-30
1.0924545e-17
-5.499078e-18
-2.3061179e-30
-7.7397414e-31
7.7933844e-31
5.6532267e-18
0
0
-5.7677455e-18
-8.055664e-31
1.6204004e-30
1.7746665e-48
5.915286e-18
-5.9503402e-18
-5.9828212e-18
0
6.0514976e-18
8.4553046e-31
-6.1276487e-18
0
0
6.2173589e-18
-1.7765019e-33
1.6219009e-48
6.3243218e-18
-6.3551979e-18
8.8423775e-31
-8.8990651e-31
1.7877314e-30
6.475064e-18
-6.5063526e-18
1.8143784e-30
-1.8228708e-30
1.8311891e-30
6.6222174e-18
-6.6495695e-18
1.8529002e-30
-9.3164951e-31
0
6.7550629e-18
-6.7845956e-18
9.4530886e-31
-9.705406e-34
9.5129226e-31
-9.5572465e-31
-6.9031735e-18
6.9289896e-18
6.9516686e-18
-6.9715166e-18
-6.9915794e-18
0
7.0392102e-18
7.0619271e-18
0
-7.0964203e-18
9.8791141e-31
-1.014343e-33
-9.9299993e-31
7.1765411e-18
-7.1913847e-18
-9.9969669e-31
2.0065886e-30
7.244797e-18
7.2616997e-18
-1.4554678e-17
1.0362469e-33
-1.0131988e-30
-7.3177271e-18
7.3312247e-18
-1.0201148e-30
-7.3638423e-18
0
0
0
7.4058986e-18
7.4197861e-18
-7.4318831e-18
-7.4402904e-18
0
7.4570124e-18
7.4671421e-18
-7.4751705e-18
-7.4814453e-18
0
7.4969135e-18
7.5026331e-18
-7.5070301e-18
-2.0859527e-30
7.5182453e-18
0
0
0
0
-7.5357362e-18
2.0909125e-30
7.538246e-18
-7.5397123e-18
-1.0470775e-30
1.0480614e-30
-8.8640876e-50
-7.5364821e-18
-7.5365575e-18
1.5074192e-17
1.0462892e-30
-1.0447114e-30
7.5273188e-18
0
-7.5209531e-18
-7.5177033e-18
7.5125919e-18
2.0822061e-30
-7.5006789e-18
0
0
7.4811468e-18
-1.0365883e-30
-7.4664191e-18
0
7.4493927e-18
-1.0571562e-33
2.0629595e-30
1.0291306e-30
-7.4101193e-18
7.3993714e-18
-1.0498618e-33
2.0481287e-30
7.3639997e-18
-7.3517973e-18
-2.0378446e-30
-1.0409875e-33
1.0151604e-30
7.2980379e-18
-7.2837457e-18
0
4.0272034e-30
1.0038997e-30
3.0051933e-30
1.0240274e-33
7.1888448e-18
-7.1717649e-18
-3.239582e-48
9.9101034e-31
-1.9770044e-30
9.858827e-31
-1.4163644e-17
7.0629923e-18
7.0440776e-18
9.7530179e-31
-9.7251538e-31
-1.3968013e-17
6.9631722e-18
6.9422828e-18
-1.0142292e-48
0
-1.0585549e-48
6.8562959e-18
-6.8339667e-18
-1.0993496e-48
9.4153225e-31
9.6137803e-34
6.741763e-18
-1.3436783e-17
-1.8589949e-30
6.6706158e-18
-9.2180221e-31
9.1837184e-31
-6.5965027e-18
6.5715087e-18
4.8614692e-48
2.7170711e-30
-1.8045646e-30
1.7955226e-30
1.7891916e-30
-1.2669839e-48
0
-6.3642628e-18
0
0
6.2833348e-18
1.737195e-30
-6.2287019e-18
0
0
1.229146e-17
5.0928743e-30
-1.2179225e-17
6.0613694e-18
-8.5735892e-34
8.3370914e-31
5.9763018e-18
0
0
0
5.8612771e-18
1.6178902e-30
-5.803357e-18
0
0
5.7158762e-18
-8.0813302e-34
-5.6574746e-18
0
0
5.5693475e-18
1.5367672e-30
1.5309586e-30
-1.5220012e-30
-5.4517096e-18
5.4223161e-18
-1.4967376e-30
1.4885623e-30
-1.4796232e-30
-5.3045432e-18
0
0
5.2166671e-18
3.5316768e-47
-5.1580586e-18
0
0
5.0705804e-18
2.2416991e-47
-5.012461e-18
0
0
4.9260387e-18
2.2153012e-47
-4.8685957e-18
0
0
4.7829936e-18
-6.7568831e-34
-4.7265946e-18
4.6985443e-18
-1.2975752e-30
1.2897973e-30
-1.281385e-30
-4.5868191e-18
0
0
0
0
0
4.4229211e-18
-1.2200397e-30
-4.3691353e-18
0
0
0
0
0
0
0
4.1592645e-18
-2.2944568e-30
-4.1080627e-18
0
0
0
0
0
0
0
3.9086811e-18
-1.0780593e-30
-3.8601448e-18
0
0
3.7882732e-18
-1.0459204e-30
-3.7412421e-18
0
0
0
3.6482099e-18
1.0072019e-30
-3.6026485e-18
0
0
0
0
0
0
0
3.4249405e-18
-4.8363127e-34
-3.3816465e-18
0
0
0
0
0
0
0
3.2128228e-18
4.5364403e-34
-3.1717222e-18
0
0
0
3.0903633e-18
-1.704676e-30
-3.0502782e-18
0
3.0104603e-18
8.308785e-31
-2.9710052e-18
0
0
2.9123261e-18
2.8928965e-18
-2.8735613e-18
-2.8543038e-18
0
0
0
0
-2.7587861e-18
3.8936018e-34
5.4420029e-18
2.7021582e-18
-5.3667323e-18
-5.3292742e-18
2.6459692e-18
2.62734e-18
0
0
0
0
2.5347995e-18
6.9910913e-31
-2.497989e-18
0
0
0
0
0
0
0
0
0
0
0
0
0
0
2.2261747e-18
-1.2263886e-30
-2.1904119e-18
0
0
-2.1368621e-18
5.8841497e-31
-2.9860669e-34
2.0835148e-18
2.0657946e-18
1.1371368e-30
-5.6409107e-31
-2.012737e-18
0
0
0
0
0
1.9072207e-18
-1.0492302e-30
-1.8723032e-18
0
0
0
0
0
0
0
1.7335545e-18
-9.5269534e-31
-1.6991357e-18
0
0
0
0
0
0
0
1.5632211e-18
-1.2878021e-30
-1.5297098e-18
0
0
0
0
0
0
0
0
1.3813472e-18
-1.9400236e-34
-1.3490576e-18
0
0
0
0
1.2693511e-18
-1.2536597e-18
-1.2380351e-18
2.4449292e-18
3.3514577e-31
-1.1915121e-18
0
0
0
0
1.1156767e-18
-3.0549876e-31
-2.171839e-18
1.0711985e-18
1.0565718e-18
-1.0420207e-18
0
0
0
9.8473855e-19
2.6926387e-31
-9.5671217e-19
-9.4282587e-19
9.2904897e-19
9.1539323e-19
-9.0185397e-19
0
0
8.6179779e-19
8.4865059e-19
-8.3563699e-19
-8.2274817e-19
-8.0996848e-19
-4.4277997e-31
7.8469396e-19
0
0
0
7.3557183e-19
7.2358711e-19
-7.1169756e-19
-6.9991131e-19
-6.8825076e-19
-1.87818e-31
6.6534293e-19
0
0
0
6.2096251e-19
-1.6933633e-31
-5.9943209e-19
0
0
0
0
0
0
0
5.1837566e-19
-1.4120638e-31
-9.9862254e-19
-1.3605435e-31
4.8075194e-19
0
0
4.5381182e-19
-6.3245007e-35
1.2118305e-31
-1.1876229e-31
-4.1954416e-19
-4.1129193e-19
1.1194368e-31
3.9508237e-19
0
0
3.7166438e-19
-3.0321467e-31
-9.8986659e-32
4.963872e-35
-3.4204375e-19
3.3490826e-19
3.279008e-19
-6.4202979e-19
1.7433752e-31
3.0755746e-19
-3.0096344e-19
0
2.8809924e-19
7.8302591e-32
-2.7569736e-19
0
2.6368625e-19
-2.5782622e-19
2.799109e-31
2.4642496e-19
-2.408698e-19
0
2.3002678e-19
0
-2.1958584e-19
0
2.0952027e-19
-2.046028e-19
1.1083328e-31
1.9504559e-19
-1.9041584e-19
0
1.814109e-19
4.9153375e-32
-1.7269828e-19
0
1.643387e-19
-1.6028712e-19
4.4423966e-35
1.5238433e-19
-1.4854242e-19
0
1.4111193e-19
1.3751331e-19
-1.3397269e-19
-1.3048983e-19
1.270789e-19
-1.2374759e-19
-1.2049571e-19
1.1731356e-19
0
0
0
0
0
0
9.6710606e-20
1.2954531e-49
-1.8267649e-19
8.8736351e-20
8.6203284e-20
-8.3737051e-20
0
0
7.6651197e-20
7.43626e-20
-7.2129307e-20
-6.9960129e-20
0
6.5801939e-20
1.7724308e-32
-6.1820193e-20
0
0
5.6117295e-20
5.4324058e-20
-5.2582928e-20
-5.088902e-20
0
4.7592263e-20
-1.276915e-32
-4.442035e-20
4.2902885e-20
2.3009169e-32
5.6846212e-36
3.8608856e-20
-3.7244281e-20
-3.5908835e-20
0
0
3.2121849e-20
-8.5841638e-33
-2.9765558e-20
0
2.7529729e-20
2.6464767e-20
-2.543153e-20
-2.442073e-20
0
0
0
0
0
0
1.8130385e-20
-4.8087596e-33
-1.6551982e-20
0
0
0
0
0
0
1.1830387e-20
2.7501266e-50
-1.067901e-20
-1.0122692e-20
-2.6584998e-33
9.0680134e-21
0
0
0
0
6.7791966e-21
1.7677433e-33
-5.9809072e-21
5.6101468e-21
5.2502901e-21
-4.8999138e-21
2.5325949e-33
3.5313869e-33
3.2744293e-33
-1.0110639e-33
1.8643519e-33
-8.5703214e-34
-2.832111e-21
0
2.3437834e-21
-1.7583166e-33
2.6887686e-37
1.6902029e-21
-1.5055846e-21
-1.3246504e-21
1.1382182e-21
-2.6431923e-34
6.4709749e-34
3.4311032e-34
2.6504502e-34
-9.7953719e-35
1.2680384e-34
9.5188469e-23
3.9381593e-23
1.6825026e-22
-2.8654992e-22
1.0815444e-34
-5.3301129e-34
-1.5703505e-34
1.8200749e-34
2.0750795e-34
2.331336e-34
-9.280413e-22
0
1.0722579e-21
-3.1500122e-34
1.2809298e-50
1.2653697e-21
0
-1.389527e-21
1.440965e-21
1.4887248e-21
-1.5372129e-21
0
0
0
0
-1.757609e-21
4.97139e-34
-1.0129608e-33
1.8623255e-21
1.9043662e-21
-1.9402808e-21
0
0
0
0
-2.0515025e-21
-2.9658895e-37
2.1125435e-21
0
0
0
0
0
0
0
-2.205214e-21
-2.2071001e-21
2.2197943e-21
2.2353846e-21
0
0
0
0
0
0
-2.2253204e-21
-2.2094191e-21
2.1874843e-21
2.1702225e-21
0
0
0
0
0
0
-2.0450025e-21
-2.0316157e-21
2.0056967e-21
1.9641304e-21
0
0
0
0
0
0
-1.7444061e-21
9.4609064e-34
1.6642911e-21
0
0
0
0
0
0
-1.3621597e-21
3.6149378e-34
1.2470199e-21
0
0
0
0
-1.0390409e-21
-1.3919004e-37
9.2518179e-22
-8.8000969e-22
-1.7614155e-51
8.0755856e-22
-7.6203138e-22
3.9130056e-34
6.4543666e-22
-5.9378242e-22
-3.0755356e-34
-2.9003248e-34
-3.0577104e-50
-2.4762637e-34
-1.0884435e-34
3.3847624e-22
-2.936976e-22
-2.59068e-22
4.5926143e-22
-1.1000714e-34
-3.2156064e-22
0
7.5470925e-23
-1.0873445e-35
-2.5044047e-36
1.4866367e-35
3.7628812e-35
4.1347397e-35
-8.8525271e-35
7.7477312e-35
-4.6990432e-35
-1.9098618e-22
0
2.233296e-22
3.4524741e-38
2.2296768e-34
2.4508448e-34
-4.4612659e-38
-1.8018847e-34
9.2272089e-35
3.4253049e-22
0
-3.7589612e-22
2.1411019e-34
5.486129e-38
-3.8404605e-22
0
3.9966854e-22
-4.2189278e-22
-4.3496123e-22
4.2717151e-22
0
0
3.8332631e-22
-4.2521425e-34
2.1312513e-34
-2.1369978e-34
1.0679469e-34
-3.8214826e-22
-3.7493546e-22
3.5884008e-22
0
0
0
0
2.6220765e-22
7.0584617e-35
2.7063508e-34
-2.2354071e-22
-1.9358247e-22
1.6048502e-22
0
0
0
0
3.9809738e-23
5.4601721e-24
3.2532879e-23
6.979259e-23
0
0
0
0
0
0
-3.1834734e-22
-3.5647233e-22
3.8889036e-22
4.2106393e-22
0
0
0
0
0
0
-7.2092803e-22
6.3422541e-34
1.6138978e-21
-8.5521735e-22
-2.7145681e-21
-9.5109619e-22
0
2.0615304e-21
-1.1919809e-33
-3.7274831e-33
-1.1668753e-21
-2.4271753e-21
2.5126107e-21
-1.2966018e-21
-1.3373708e-21
1.3792075e-21
-1.4204764e-21
2.0745504e-37
1.4983181e-21
1.5377352e-21
-1.5772774e-21
-1.6168701e-21
1.6543642e-21
-1.6866903e-21
-2.439807e-37
1.7484071e-21
0
0
0
3.744855e-21
-1.8970741e-21
-3.8436141e-21
1.9464854e-21
-1.9696726e-21
-1.9903681e-21
4.0180594e-21
-6.7744616e-51
-2.0437893e-21
2.0539707e-21
4.1282629e-21
2.0756817e-21
-6.2052982e-21
2.0544741e-21
-6.4112482e-50
-6.2676717e-21
4.2270354e-21
2.1228853e-21
2.1196544e-21
4.2113681e-21
-4.1863897e-21
-2.0998333e-21
-2.105759e-21
2.0969099e-21
2.0592836e-21
-6.0765652e-21
2.0316856e-21
2.0445545e-21
-2.0486569e-21
-2.0366288e-21
-2.8249571e-37
5.7783272e-21
-1.9049621e-21
3.2008519e-33
-3.2357146e-33
-5.827798e-21
1.9195227e-21
1.8897049e-21
3.6862113e-21
-1.7944712e-21
-3.5466654e-21
3.542471e-21
-1.7710112e-21
1.7575012e-21
1.7308882e-21
-5.1011044e-21
1.6600551e-21
1.6199297e-21
-3.1915356e-21
-1.5838436e-21
1.56847e-21
4.6350521e-21
-1.5160542e-21
-5.9192076e-21
8.0212046e-34
2.841887e-21
1.4029101e-21
0
2.7112682e-21
2.9348099e-33
-3.8677481e-21
1.2630515e-21
-2.7642157e-33
1.2279855e-21
1.2076671e-21
-2.3658178e-21
0
0
0
-1.0885085e-21
5.914263e-34
2.0862013e-21
-1.0251451e-21
-2.019259e-21
2.9813379e-21
-3.2458636e-33
-1.9069996e-21
9.3529182e-22
0
0
0
1.7647493e-21
-8.6470474e-22
-1.7018899e-21
2.5276369e-21
-2.3837319e-37
-1.6690651e-21
0
0
-8.0872344e-22
4.4464332e-34
1.5888744e-21
-7.9007073e-22
-1.5773304e-21
2.3694924e-21
-1.3161188e-33
-1.5782451e-21
7.8644075e-22
-7.8453355e-22
1.5724122e-21
7.9160881e-22
-2.652115e-33
-7.9797167e-22
-1.5959204e-21
2.3973378e-21
-4.5775429e-37
-8.1695232e-22
4.6025506e-34
-8.3625016e-22
-8.3683178e-22
4.6490471e-34
2.5309268e-21
-2.4337401e-37
-2.6245143e-21
1.7817018e-21
-3.6684656e-51
-1.8025676e-21
9.0484959e-22
-9.1331979e-22
1.8553531e-21
9.4757643e-22
-2.1444328e-33
-9.7655027e-22
-1.9627874e-21
-9.8707099e-22
-9.9578736e-22
3.0262161e-21
0
-1.0458777e-21
-5.8672423e-34
5.8957918e-34
-5.9214275e-34
1.0746892e-21
-1.207056e-33
1.1066138e-21
-3.7401765e-33
-3.3943924e-21
2.269932e-21
3.4124046e-21
1.1430429e-21
-3.4652393e-21
-2.3471574e-21
3.5619969e-21
-1.1919208e-21
-3.5778718e-21
0
0
1.2044651e-21
1.2202855e-21
0
-1.2322562e-21
-1.2300807e-21
2.4539163e-21
-2.7227117e-33
-3.6972496e-21
1.3801165e-33
1.250435e-21
1.2487527e-21
1.243775e-21
-1.2390128e-21
-1.2358837e-21
1.2388089e-21
3.7259009e-21
-1.2406204e-21
-4.9428226e-21
1.2277094e-21
2.4421019e-21
1.220183e-21
0
-1.2195946e-21
0
-1.1997329e-21
1.1890972e-21
-2.6255074e-33
1.1816508e-21
-3.9333306e-33
-3.5220638e-21
1.1624753e-21
1.1513084e-21
-1.1430966e-21
-1.1383962e-21
1.1327659e-21
3.3635167e-21
-1.1061709e-21
-4.3689285e-21
1.8036687e-33
1.0807392e-21
2.1550925e-21
1.0683559e-21
-2.1080386e-21
-5.762924e-34
-1.4567923e-37
1.016783e-21
-2.2485861e-33
-1.0076513e-21
2.9940078e-21
-1.0934606e-33
-1.9436758e-21
0
0
-9.4286227e-22
5.2020773e-34
1.857708e-21
-9.1660949e-22
-1.8068097e-21
-8.9067521e-22
9.7728434e-34
2.6238591e-21
8.6963603e-22
-8.6218187e-22
1.7016063e-21
-4.76368e-37
-2.7578689e-33
-8.217977e-22
-1.6329404e-21
2.4262223e-21
-8.8566718e-34
-1.5705608e-21
0
0
1.5405018e-21
-1.6957556e-33
-8.3339374e-34
-2.0944565e-37
-2.1819386e-21
-1.4470924e-21
1.2066485e-33
2.1653157e-21
7.1180654e-22
-6.9826829e-22
1.3720274e-21
7.5405796e-34
-2.2600189e-33
-6.7948813e-22
-1.3500449e-21
1.9867918e-21
-6.484426e-22
-6.387227e-22
6.3459005e-22
-6.3606663e-22
1.2724323e-21
-6.9876108e-34
-6.1584476e-22
-8.5615364e-38
-1.1886519e-21
1.1841338e-21
-9.8856605e-34
-1.1840363e-21
5.8322143e-22
0
-5.5756001e-22
-3.0592848e-34
1.6521489e-21
-5.5232275e-22
-1.0980394e-21
-5.3832576e-22
-5.242848e-22
5.1270239e-22
5.0758075e-22
5.0799787e-22
-5.0968963e-22
2.8084682e-34
-2.7463286e-34
4.8156461e-22
-5.2358865e-34
4.677222e-22
-1.5615243e-33
-1.4115483e-21
9.3215034e-22
6.490802e-51
-4.3872114e-22
-4.7765109e-34
2.3835327e-34
1.3009077e-21
-4.3746542e-22
-1.302707e-21
0
0
4.0000051e-22
3.9927287e-22
8.0831685e-22
-4.094626e-22
-8.2005147e-22
8.0826902e-22
-3.9517801e-22
-1.1671073e-21
3.8860541e-22
3.9272899e-22
3.9836713e-22
4.0102077e-22
-7.9813966e-22
-3.9519324e-22
3.9386825e-22
1.1929228e-21
-4.0523875e-22
3.1853449e-50
-6.9622334e-34
-8.3383712e-22
8.3108316e-22
8.3826103e-22
-4.2848184e-22
-8.8415526e-22
9.1042356e-22
4.6194832e-22
-1.3830511e-21
-1.3829801e-21
4.6798258e-22
9.6565305e-22
5.0342886e-22
-2.9048252e-34
-1.0746601e-21
-5.4400113e-22
5.4788034e-22
1.1113263e-21
-8.0862927e-38
-1.1748624e-21
1.2188757e-21
-1.0503946e-33
-1.2972983e-21
6.6388811e-22
1.35736e-21
1.3895318e-21
0
-7.30505e-22
-2.2490819e-21
-7.6977606e-22
7.9075198e-22
0
0
0
0
-8.8893778e-22
5.0441435e-34
2.793524e-21
-9.5867673e-22
-2.9493357e-21
-1.0008209e-21
1.6927176e-33
2.0617605e-21
1.048283e-21
-1.0736856e-21
2.2127966e-21
1.1337609e-21
-3.8330351e-33
-1.16353e-21
-2.3488379e-21
3.5565888e-21
-3.4263933e-37
-1.2373793e-21
1.800774e-37
-1.2867244e-21
-1.2992213e-21
1.456036e-33
3.9609738e-21
-3.7782062e-37
-4.0531804e-21
-2.7475207e-21
7.7078068e-34
2.7999222e-21
1.4021691e-21
-1.4001011e-21
2.8160778e-21
1.431625e-21
-4.8416226e-33
-1.4598281e-21
-2.9167916e-21
4.3164146e-21
-1.5774045e-33
-1.4344608e-21
-1.4630913e-21
-1.483236e-21
-8.222914e-34
8.169341e-34
2.8777956e-21
7.8190677e-34
-2.8360871e-21
2.8843118e-21
-7.2635846e-33
-4.3450726e-21
2.871468e-21
-1.5598506e-33
-2.7412406e-21
1.3606039e-21
1.3686588e-21
2.7419086e-21
-1.3606791e-21
-4.0277638e-21
0
0
0
3.7577893e-21
3.7316133e-21
-3.6638201e-21
-3.5771552e-21
2.3018799e-21
-3.1609082e-37
1.0938175e-21
-3.6138034e-33
-3.209482e-21
3.1266398e-21
-5.0229218e-33
-1.9291193e-21
-5.1280334e-34
4.9509679e-34
1.7385631e-21
-8.4754716e-22
8.2149857e-22
-2.6346394e-33
-2.2681916e-21
2.1551816e-21
6.8022796e-22
-1.4245232e-33
1.2089155e-21
-1.1441228e-21
-5.4318332e-22
-5.1319302e-22
-1.4364959e-21
4.8786845e-34
3.9924801e-22
1.0886162e-21
-2.2039625e-33
-9.0227507e-22
0
2.3396406e-22
3.96995e-22
-1.6603266e-22
1.3625454e-22
-3.5346109e-34
-1.4629428e-22
1.1377362e-22
-1.244273e-35
2.2839182e-35
4.8223959e-35
7.452677e-35
-9.477185e-23
3.7991204e-22
4.7256089e-22
-1.8147314e-22
-3.9768741e-22
0
2.3386328e-22
-2.8572698e-34
6.3070669e-34
-3.4009402e-34
-3.1980504e-22
3.2782897e-22
3.3646716e-22
-1.0449072e-21
8.6493724e-50
6.33529e-34
-3.9174368e-22
4.4011572e-34
-7.9899558e-22
8.074489e-22
8.2409306e-22
4.2224888e-22
-4.7187912e-34
-4.1792039e-22
0
0
0
-7.9269725e-22
4.0171771e-22
8.0606012e-22
-1.1792996e-21
3.7433674e-22
1.0641466e-21
-1.0152814e-21
1.083029e-33
6.2618292e-22
-9.0052175e-22
-5.7208961e-22
0
5.1437411e-22
7.887028e-34
2.1067618e-22
3.6479187e-22
-1.5579857e-22
0
-2.3123286e-22
-2.8653384e-38
-8.8670656e-35
4.921719e-23
4.067035e-23
6.2816664e-23
-8.5713682e-35
-2.2794449e-22
2.8377454e-22
-5.7123108e-34
-2.8381059e-22
1.7702467e-22
-2.1515125e-22
5.0315644e-22
2.8320512e-22
-1.3700619e-33
-3.2964033e-22
-7.0604673e-22
-3.8206358e-22
-4.1580009e-22
9.0488784e-22
4.8804414e-22
0
-5.4373782e-22
3.1357428e-34
-4.6838432e-51
6.1255226e-22
-1.8213004e-37
6.7183562e-22
-6.7003427e-50
-2.2012955e-21
2.2782276e-21
2.3354413e-21
-1.5888663e-21
-1.6240566e-21
0
1.7031878e-21
-8.7958191e-22
-2.7271357e-21
2.7938978e-21
-1.5725448e-33
-1.9088278e-21
9.6596889e-22
0
-9.8834513e-22
-1.0071555e-21
1.0276715e-21
-1.7380813e-33
2.1063096e-21
6.0148469e-37
-3.1873948e-21
0
3.1864765e-21
2.1348589e-21
-3.2453554e-21
-2.1860743e-21
3.2882773e-21
1.0948376e-21
-4.3436328e-21
-1.0736724e-21
2.1429784e-21
2.1596597e-21
-1.2083247e-33
-1.0863364e-21
-1.0739675e-21
-1.0524944e-21
1.0365871e-21
-1.1557156e-33
2.0901915e-21
-3.4693521e-33
-3.0888974e-21
0
0
1.9181856e-21
-2.1529818e-33
-9.7552606e-22
2.906752e-21
-9.4757489e-22
-1.5291015e-33
-2.9349373e-33
-2.5797186e-21
8.6407773e-22
-4.8239424e-34
9.5876683e-34
8.4510247e-22
-8.1866038e-22
1.1189115e-37
-4.208566e-34
8.2510124e-34
7.4041466e-22
0
-7.2476756e-22
1.4048083e-21
6.7506782e-22
-1.2913141e-21
0
6.0983441e-22
-6.0426595e-22
-1.1940366e-21
1.7444344e-21
-1.8552826e-33
-1.7665287e-33
5.0584481e-22
-1.4640435e-21
6.7972463e-38
4.7095948e-22
4.6063436e-22
-4.4438433e-22
-4.2260787e-22
4.0100447e-22
0
-3.699354e-22
7.2243067e-22
-5.8763331e-34
-3.4102708e-22
-7.2237907e-34
-6.8410807e-34
-8.3256294e-38
-5.6429471e-22
8.2544586e-22
8.0739993e-22
0
-4.9763338e-22
-7.0210395e-22
-3.1418488e-38
2.1350651e-22
2.1060665e-22
-2.0922015e-22
-2.057974e-22
1.9822881e-22
0
3.5543827e-22
3.4677031e-22
-5.2068253e-22
-1.7524038e-22
1.7467762e-22
-4.838206e-38
-1.6377688e-22
-3.1960275e-22
-1.6059946e-22
2.7358604e-34
6.6891016e-22
-5.5440138e-34
-4.87349e-22
1.6064377e-22
1.6518971e-22
1.7442004e-22
-1.8396491e-22
-1.8836395e-22
-1.8469991e-22
-5.0283335e-38
1.7498702e-22
-1.845112e-22
6.0309578e-22
4.343056e-22
-6.8429152e-22
2.3138709e-22
4.5611656e-22
-4.4934593e-22
2.2739832e-22
-2.3753666e-22
-5.0495262e-22
8.0383108e-22
-2.8089397e-22
9.6782801e-34
8.9153949e-22
-6.0332711e-22
-3.0538232e-22
-3.1088829e-22
-6.396934e-22
3.3240984e-22
-5.8060472e-77
7.2485027e-22
3.74107e-22
-4.2248208e-34
-3.8356947e-22
-7.7677736e-22
7.9482589e-22
-4.1066884e-22
-1.2807403e-21
1.3273987e-21
4.5311452e-22
1.0975566e-50
4.6075777e-22
-1.4009117e-21
-4.7730238e-22
4.9109446e-22
1.012092e-21
-5.1821192e-22
5.2550432e-22
-1.7647353e-33
-1.0706253e-21
1.629673e-21
6.1452613e-34
-2.5088992e-33
1.276484e-33
-1.163109e-21
1.1737128e-21
-5.9300581e-22
-2.4021055e-21
6.0963402e-22
1.2347117e-21
0
1.2477366e-21
-1.3905431e-33
-3.5883691e-37
-7.1000538e-34
-6.4992548e-22
-6.5674602e-22
6.5756752e-22
6.5640771e-22
-1.3128378e-21
1.3189128e-21
-7.3969823e-34
-1.3500458e-21
1.3605724e-21
2.2636754e-33
-7.5109852e-34
-6.7448328e-22
-1.3493242e-21
6.774437e-22
-6.8216282e-22
3.8068221e-34
6.8580762e-22
1.3655395e-21
-6.7983321e-22
-1.3553552e-21
6.7667129e-22
-6.7795426e-22
1.1328604e-33
-6.7924389e-22
-1.49547e-33
1.3335047e-21
1.3229382e-21
1.4624067e-33
-2.1989263e-33
2.2104649e-33
-6.6289384e-22
-6.5565404e-22
-6.460528e-22
6.3760128e-22
0
0
-6.3585963e-22
3.5344402e-34
8.9882099e-38
6.927754e-34
6.1594901e-22
0
-6.0599554e-22
-1.2093909e-21
6.0383327e-22
1.2018886e-21
1.1909556e-21
1.1793855e-21
-1.7545851e-21
-1.9358398e-33
1.7379024e-21
-1.1534896e-21
-1.1443445e-21
0
-5.6044051e-22
1.1131435e-21
5.5504866e-22
-1.1103291e-21
-5.5360528e-22
6.0849363e-34
1.6258048e-21
-5.3750606e-22
-1.6070612e-21
1.6120282e-21
5.3940025e-22
-1.6122873e-21
5.8870242e-34
5.2344578e-22
1.0388366e-21
5.7628812e-34
-1.0472937e-21
1.0565411e-21
-5.2905338e-22
-1.5759813e-21
0
5.1945842e-22
1.0396383e-21
-2.8973207e-34
5.2307377e-22
1.0445989e-21
-1.0416323e-21
-1.0415311e-21
0
-5.271009e-22
-5.8777404e-34
-5.8486215e-34
-5.8057291e-34
1.5633955e-21
1.0448726e-21
0
-1.0696927e-21
-1.1931106e-33
-5.3387324e-22
-1.5888531e-21
5.2755292e-22
-2.9352398e-34
7.6091171e-38
5.4279759e-22
1.090544e-21
-5.4123913e-22
-1.0728556e-21
5.3352588e-22
0
1.0786478e-21
-5.4637445e-22
-1.6464552e-21
5.4411588e-22
5.3789959e-22
1.0665659e-21
-5.3170781e-22
-1.6055813e-21
5.4093279e-22
-6.0215583e-34
-1.0739416e-21
5.2942192e-22
5.2279966e-22
1.0380263e-21
1.5602467e-21
-1.0472533e-21
-1.0458961e-21
1.0312127e-21
5.612417e-34
-9.9196869e-22
9.788145e-22
5.4149227e-34
-9.774977e-22
0
9.5345402e-22
9.2980835e-22
0
-1.3331954e-21
-4.4057755e-22
-1.247413e-37
-4.3233862e-22
-4.1852311e-22
-4.4563339e-34
7.7074764e-22
7.4939879e-22
-1.2333514e-33
-7.3555383e-22
7.2400748e-22
1.1618495e-33
-6.5675335e-22
0
0
0
0
5.2752031e-22
2.8164123e-34
-4.7975487e-22
-2.2273891e-22
4.0704901e-22
-6.1134359e-34
-3.2884425e-22
2.9713712e-22
1.5221423e-34
-1.2785761e-22
2.3395582e-22
-3.3678152e-34
-1.5745814e-22
1.0527746e-22
6.1150764e-23
-3.4762046e-23
-1.9389948e-23
0
0
0
0
7.9395608e-23
-9.855033e-23
-1.1090269e-22
1.3333868e-34
4.2286792e-77
1.4375733e-22
3.2034395e-22
1.7888747e-22
-3.9671077e-22
-6.4967862e-22
2.3087991e-22
4.8196545e-22
-7.4887736e-22
-5.1912963e-22
8.1558852e-22
5.7343142e-22
3.0312689e-22
3.5278149e-34
-6.5524054e-22
0
3.3929059e-22
-3.4704364e-22
7.9394306e-34
1.0524706e-37
1.2727562e-33
3.8904287e-22
3.9099581e-22
-1.1144716e-37
-7.9034881e-22
-8.0220578e-22
1.3624339e-33
8.3227855e-22
0
0
0
4.1402292e-22
4.1577904e-22
-4.1866862e-22
-4.1852299e-22
4.1390598e-22
-8.1474874e-22
-1.2052823e-21
0
7.9593152e-22
4.3934145e-34
3.8843076e-22
1.1293578e-21
-3.6428441e-22
5.9023292e-34
-6.9644607e-22
2.2976616e-33
6.7968874e-22
1.8215599e-34
4.4203844e-38
-2.9355023e-22
2.7857825e-22
-5.338296e-22
-2.5798336e-22
4.9768099e-22
-4.7188132e-22
-6.2281982e-38
2.2328374e-34
1.8385674e-22
5.0440696e-22
-3.0558515e-22
-1.725424e-51
-1.1736059e-22
1.6393818e-34
1.6100688e-22
-6.4733701e-23
-9.9889671e-23
3.6443096e-35
3.6989032e-23
2.7443025e-39
3.136727e-23
-5.0898822e-23
1.338989e-22
8.1908121e-23
-1.9860299e-22
2.3962912e-22
1.5750973e-34
-9.097567e-34
4.0848313e-34
-4.0221297e-22
4.3277081e-22
-2.323178e-22
-5.0042612e-22
2.6928845e-22
-2.8858767e-22
6.1556265e-22
-5.4357887e-34
-1.0321315e-21
0
0
1.1582582e-21
3.9977407e-22
-8.3048578e-22
8.6488817e-22
2.5634517e-37
-2.0746336e-33
-5.3116625e-34
-9.7301114e-22
9.9037456e-22
1.0110585e-21
-5.1821434e-22
-1.60233e-21
-5.4786544e-22
5.562522e-22
0
0
-5.715811e-22
3.2216505e-34
1.7786037e-21
1.71369e-37
-1.2135648e-21
-6.0798266e-22
6.7548577e-34
1.831367e-21
1.3693294e-33
-1.2471034e-21
0
-6.2482495e-22
1.2381091e-21
6.1412557e-22
-1.3668083e-33
-6.2390701e-22
-1.2607263e-21
6.2835246e-22
0
0
0
0
-5.9695966e-22
3.3555168e-34
1.8174678e-21
-5.9727189e-22
-1.74736e-21
1.7086679e-21
5.570251e-22
-1.0949279e-21
-5.451627e-22
-9.0766464e-34
1.6288198e-21
-3.0557016e-37
-1.7556119e-33
-5.1208589e-22
-9.9448995e-22
-4.8321191e-22
-5.2384435e-34
4.6618144e-22
4.6285853e-22
4.5827037e-22
4.4817267e-22
-9.5813087e-34
-8.28011e-22
0
0
-3.8219349e-22
-6.2895747e-34
-5.2633267e-38
5.0828504e-38
3.4053745e-22
6.4759271e-22
6.2111303e-22
-6.0365606e-22
-3.2927713e-34
-2.9053442e-22
-8.4141246e-22
0
0
2.3430673e-22
2.2479616e-22
0
-2.1521157e-22
1.1594359e-34
1.9790121e-22
-1.8176636e-22
3.2987967e-22
-5.0727205e-34
-4.3596146e-22
1.4195891e-22
1.3860593e-22
2.6583259e-22
-1.2437941e-22
-3.4166773e-22
1.0363321e-22
-5.2538086e-35
1.7243688e-22
7.7817e-23
-1.3883133e-22
1.2485161e-22
3.8761895e-51
-1.1206568e-22
0
0
8.5742601e-23
-3.6526878e-35
-7.7638465e-35
6.0778679e-51
-4.3737768e-23
-1.525158e-35
1.2683404e-23
2.1249731e-23
1.5679446e-23
-9.4149794e-24
-3.0007963e-36
2.7626635e-24
2.7288556e-35
-1.3061335e-23
2.9147585e-23
0
8.8665448e-24
-7.3524724e-36
-7.4542546e-24
-2.3965348e-23
-2.0029135e-35
4.2186479e-23
0
0
9.396635e-24
-3.5951435e-36
-1.7966715e-23
-8.0033311e-36
1.6477324e-23
0
-6.0992716e-24
3.0122626e-24
-1.1482704e-24
-5.8800706e-24
-1.0398079e-23
2.7584046e-23
4.5818822e-23
-1.5568362e-23
-3.4859622e-23
6.7327866e-23
-3.0021893e-51
-7.3690899e-23
0
0
0
0
1.0977869e-22
1.2707928e-22
-7.2064547e-23
-2.3455255e-22
-8.9934472e-35
8.2647032e-23
-1.7386741e-22
-1.8972938e-22
1.0463151e-22
4.5574647e-22
2.4060299e-22
-3.6913747e-22
-2.5129675e-22
3.9459279e-22
3.1254661e-34
-3.0333513e-22
0
0
0
3.4691602e-22
1.9944303e-34
-4.2060841e-34
2.0122178e-22
-6.3716611e-22
2.196328e-22
2.2210902e-22
-6.7279589e-22
-4.5977135e-22
2.3947033e-22
5.0366276e-22
5.2855181e-22
-9.1130805e-34
3.090044e-34
-7.9867821e-38
-5.7123432e-22
0
-3.0230376e-22
-3.1228525e-22
3.2104959e-22
3.2819085e-22
-3.3490511e-22
-3.4261233e-22
7.0321295e-22
3.6003637e-22
-3.6555265e-22
3.6800939e-22
-3.7050701e-22
-7.5156113e-22
0
0
1.2339687e-21
4.1875399e-22
-8.3888574e-22
-4.1898563e-22
-4.20405e-22
8.511313e-22
-4.8440213e-34
-8.9740459e-22
0
4.6488719e-22
1.3997218e-21
1.0387401e-33
-2.6110817e-33
9.4762048e-22
-1.4376333e-21