/*--------------------------------*- C++ -*----------------------------------*\
  =========                 |
  \\      /  F ield         | OpenFOAM: The Open Source CFD Toolbox
   \\    /   O peration     | Website:  https://openfoam.org
    \\  /    A nd           | Version:  7
     \\/     M anipulation  |
\*---------------------------------------------------------------------------*/
FoamFile
{
    version     2.0;
    format      ascii;
    class       surfaceScalarField;
    location    "0.00227";
    object      phi;
}
// * * * * * * * * * * * * * * * * * * * * * * * * * * * * * * * * * * * * * //

dimensions      [1 0 -1 0 0 0 0];

internalField   nonuniform List<scalar> 
4999
(
0.0037984255
0.003798415
0.003798406
0.0037983964
0.0037983868
0.0037983773
0.0037983677
0.0037983582
0.0037983487
0.0037983393
0.0037983299
0.0037983207
0.0037983115
0.0037983025
0.0037982936
0.0037982847
0.003798276
0.0037982675
0.003798259
0.0037982507
0.0037982425
0.0037982344
0.0037982264
0.0037982186
0.0037982108
0.0037982033
0.0037981958
0.0037981884
0.0037981812
0.0037981741
0.0037981672
0.0037981603
0.0037981536
0.003798147
0.0037981405
0.0037981342
0.003798128
0.0037981219
0.003798116
0.0037981102
0.0037981045
0.0037980989
0.0037980935
0.0037980882
0.003798083
0.0037980779
0.003798073
0.0037980682
0.0037980635
0.003798059
0.0037980546
0.0037980503
0.0037980462
0.0037980422
0.0037980383
0.0037980345
0.0037980309
0.0037980274
0.0037980241
0.0037980209
0.0037980178
0.0037980148
0.003798012
0.0037980093
0.0037980068
0.0037980044
0.0037980021
0.003798
0.003797998
0.0037979961
0.0037979944
0.0037979928
0.0037979914
0.0037979901
0.0037979889
0.0037979879
0.003797987
0.0037979863
0.0037979857
0.0037979852
0.0037979849
0.0037979847
0.0037979847
0.0037979848
0.003797985
0.0037979854
0.003797986
0.0037979866
0.0037979875
0.0037979884
0.0037979895
0.0037979907
0.0037979921
0.0037979937
0.0037979953
0.0037979971
0.0037979991
0.0037980012
0.0037980034
0.0037980058
0.0037980083
0.003798011
0.0037980138
0.0037980168
0.0037980199
0.0037980231
0.0037980265
0.0037980301
0.0037980338
0.0037980376
0.0037980416
0.0037980458
0.0037980501
0.0037980546
0.0037980592
0.003798064
0.0037980689
0.003798074
0.0037980792
0.0037980846
0.0037980901
0.0037980957
0.0037981015
0.0037981075
0.0037981136
0.0037981198
0.0037981262
0.0037981327
0.0037981394
0.0037981463
0.0037981532
0.0037981604
0.0037981677
0.0037981752
0.0037981828
0.0037981906
0.0037981986
0.0037982067
0.003798215
0.0037982234
0.003798232
0.0037982407
0.0037982496
0.0037982587
0.0037982679
0.0037982772
0.0037982868
0.0037982964
0.0037983062
0.0037983162
0.0037983263
0.0037983366
0.003798347
0.0037983576
0.0037983683
0.0037983792
0.0037983902
0.0037984014
0.0037984128
0.0037984242
0.0037984359
0.0037984477
0.0037984596
0.0037984717
0.003798484
0.0037984964
0.003798509
0.0037985217
0.0037985346
0.0037985476
0.0037985608
0.0037985741
0.0037985876
0.0037986013
0.003798615
0.003798629
0.0037986431
0.0037986573
0.0037986717
0.0037986863
0.003798701
0.0037987159
0.0037987309
0.003798746
0.0037987613
0.0037987768
0.0037987924
0.0037988081
0.003798824
0.0037988401
0.0037988563
0.0037988726
0.0037988891
0.0037989058
0.0037989226
0.0037989396
0.0037989567
0.0037989739
0.0037989913
0.0037990089
0.0037990266
0.0037990445
0.0037990625
0.0037990807
0.003799099
0.0037991175
0.0037991361
0.0037991549
0.0037991738
0.0037991929
0.0037992121
0.0037992315
0.003799251
0.0037992707
0.0037992905
0.0037993105
0.0037993307
0.003799351
0.0037993714
0.003799392
0.0037994128
0.0037994337
0.0037994547
0.0037994759
0.0037994973
0.0037995188
0.0037995404
0.0037995623
0.0037995842
0.0037996063
0.0037996286
0.003799651
0.0037996736
0.0037996963
0.0037997192
0.0037997423
0.0037997655
0.0037997888
0.0037998123
0.003799836
0.0037998598
0.0037998838
0.0037999079
0.0037999322
0.0037999566
0.0037999812
0.003800006
0.0038000309
0.0038000559
0.0038000812
0.0038001066
0.0038001321
0.0038001578
0.0038001837
0.0038002097
0.0038002359
0.0038002622
0.0038002887
0.0038003154
0.0038003423
0.0038003693
0.0038003964
0.0038004237
0.0038004512
0.0038004789
0.0038005067
0.0038005347
0.0038005629
0.0038005912
0.0038006197
0.0038006483
0.0038006772
0.0038007062
0.0038007354
0.0038007647
0.0038007942
0.0038008239
0.0038008538
0.0038008838
0.003800914
0.0038009444
0.003800975
0.0038010058
0.0038010367
0.0038010678
0.0038010991
0.0038011306
0.0038011622
0.0038011941
0.0038012261
0.0038012583
0.0038012907
0.0038013233
0.0038013561
0.003801389
0.0038014222
0.0038014555
0.0038014891
0.0038015228
0.0038015568
0.0038015909
0.0038016252
0.0038016598
0.0038016945
0.0038017294
0.0038017646
0.0038017999
0.0038018355
0.0038018712
0.0038019072
0.0038019434
0.0038019798
0.0038020164
0.0038020532
0.0038020902
0.0038021275
0.0038021649
0.0038022026
0.0038022405
0.0038022787
0.003802317
0.0038023556
0.0038023944
0.0038024335
0.0038024728
0.0038025123
0.003802552
0.003802592
0.0038026322
0.0038026727
0.0038027134
0.0038027543
0.0038027955
0.003802837
0.0038028787
0.0038029206
0.0038029628
0.0038030052
0.0038030479
0.0038030909
0.0038031341
0.0038031776
0.0038032213
0.0038032653
0.0038033096
0.0038033541
0.003803399
0.003803444
0.0038034894
0.003803535
0.003803581
0.0038036272
0.0038036736
0.0038037204
0.0038037675
0.0038038148
0.0038038625
0.0038039104
0.0038039586
0.0038040071
0.003804056
0.0038041051
0.0038041545
0.0038042043
0.0038042543
0.0038043047
0.0038043554
0.0038044064
0.0038044577
0.0038045094
0.0038045613
0.0038046136
0.0038046663
0.0038047192
0.0038047725
0.0038048262
0.0038048801
0.0038049345
0.0038049891
0.0038050441
0.0038050995
0.0038051552
0.0038052113
0.0038052678
0.0038053246
0.0038053818
0.0038054393
0.0038054973
0.0038055556
0.0038056143
0.0038056733
0.0038057328
0.0038057927
0.0038058529
0.0038059136
0.0038059746
0.0038060361
0.0038060979
0.0038061602
0.0038062229
0.0038062861
0.0038063496
0.0038064136
0.003806478
0.0038065429
0.0038066082
0.0038066739
0.0038067401
0.0038068068
0.0038068739
0.0038069415
0.0038070096
0.0038070781
0.0038071471
0.0038072166
0.0038072866
0.0038073571
0.0038074282
0.0038074997
0.0038075717
0.0038076443
0.0038077173
0.0038077909
0.0038078651
0.0038079398
0.0038080151
0.0038080909
0.0038081672
0.0038082442
0.0038083217
0.0038083998
0.0038084786
0.0038085579
0.0038086378
0.0038087183
0.0038087995
0.0038088813
0.0038089637
0.0038090468
0.0038091306
0.003809215
0.0038093001
0.0038093859
0.0038094723
0.0038095595
0.0038096474
0.003809736
0.0038098253
0.0038099154
0.0038100062
0.0038100978
0.0038101901
0.0038102832
0.0038103772
0.0038104719
0.0038105674
0.0038106638
0.0038107609
0.003810859
0.0038109579
0.0038110576
0.0038111583
0.0038112598
0.0038113623
0.0038114656
0.0038115699
0.0038116751
0.0038117813
0.0038118885
0.0038119966
0.0038121057
0.0038122159
0.003812327
0.0038124392
0.0038125525
0.0038126668
0.0038127822
0.0038128987
0.0038130162
0.003813135
0.0038132548
0.0038133758
0.003813498
0.0038136213
0.0038137459
0.0038138717
0.0038139986
0.0038141269
0.0038142564
0.0038143872
0.0038145192
0.0038146526
0.0038147873
0.0038149234
0.0038150608
0.0038151996
0.0038153398
0.0038154814
0.0038156244
0.0038157689
0.0038159149
0.0038160623
0.0038162112
0.0038163617
0.0038165137
0.0038166672
0.0038168223
0.003816979
0.0038171373
0.0038172972
0.0038174588
0.003817622
0.0038177869
0.0038179535
0.0038181218
0.0038182919
0.0038184637
0.0038186373
0.0038188127
0.0038189899
0.0038191689
0.0038193498
0.0038195325
0.0038197171
0.0038199036
0.0038200921
0.0038202824
0.0038204748
0.0038206691
0.0038208654
0.0038210638
0.0038212641
0.0038214666
0.0038216711
0.0038218777
0.0038220864
0.0038222972
0.0038225102
0.0038227253
0.0038229426
0.0038231622
0.0038233839
0.0038236079
0.0038238342
0.0038240627
0.0038242935
0.0038245267
0.0038247622
0.003825
0.0038252402
0.0038254828
0.0038257278
0.0038259752
0.003826225
0.0038264774
0.0038267322
0.0038269895
0.0038272493
0.0038275116
0.0038277765
0.003828044
0.0038283141
0.0038285867
0.003828862
0.0038291399
0.0038294205
0.0038297037
0.0038299897
0.0038302783
0.0038305697
0.0038308638
0.0038311606
0.0038314603
0.0038317628
0.003832068
0.0038323761
0.003832687
0.0038330008
0.0038333175
0.0038336371
0.0038339595
0.003834285
0.0038346133
0.0038349446
0.0038352789
0.0038356162
0.0038359565
0.0038362999
0.0038366462
0.0038369957
0.0038373482
0.0038377038
0.0038380626
0.0038384244
0.0038387894
0.0038391576
0.0038395289
0.0038399034
0.0038402812
0.0038406621
0.0038410463
0.0038414338
0.0038418245
0.0038422185
0.0038426159
0.0038430165
0.0038434206
0.0038438279
0.0038442387
0.0038446528
0.0038450703
0.0038454913
0.0038459157
0.0038463436
0.0038467749
0.0038472098
0.0038476481
0.00384809
0.0038485354
0.0038489844
0.003849437
0.0038498932
0.003850353
0.0038508164
0.0038512835
0.0038517542
0.0038522287
0.0038527068
0.0038531887
0.0038536743
0.0038541637
0.0038546569
0.0038551538
0.0038556546
0.0038561592
0.0038566677
0.0038571801
0.0038576963
0.0038582165
0.0038587406
0.0038592687
0.0038598008
0.0038603369
0.003860877
0.0038614211
0.0038619694
0.0038625217
0.0038630781
0.0038636386
0.0038642033
0.0038647722
0.0038653453
0.0038659226
0.0038665042
0.0038670901
0.0038676802
0.0038682747
0.0038688735
0.0038694766
0.0038700842
0.0038706962
0.0038713127
0.0038719336
0.003872559
0.003873189
0.0038738235
0.0038744627
0.0038751064
0.0038757548
0.0038764078
0.0038770656
0.0038777281
0.0038783953
0.0038790674
0.0038797442
0.0038804259
0.0038811126
0.0038818041
0.0038825006
0.0038832021
0.0038839086
0.0038846201
0.0038853368
0.0038860586
0.0038867855
0.0038875177
0.0038882551
0.0038889978
0.0038897458
0.0038904991
0.0038912578
0.003892022
0.0038927917
0.0038935669
0.0038943476
0.003895134
0.003895926
0.0038967238
0.0038975272
0.0038983365
0.0038991516
0.0038999726
0.0039007996
0.0039016325
0.0039024715
0.0039033166
0.0039041679
0.0039050254
0.0039058891
0.0039067592
0.0039076356
0.0039085186
0.003909408
0.003910304
0.0039112067
0.003912116
0.0039130322
0.0039139552
0.0039148852
0.0039158221
0.0039167661
0.0039177174
0.0039186758
0.0039196416
0.0039206148
0.0039215956
0.0039225839
0.00392358
0.0039245838
0.0039255956
0.0039266153
0.0039276432
0.0039286793
0.0039297237
0.0039307766
0.0039318381
0.0039329084
0.0039339874
0.0039350755
0.0039361728
0.0039372793
0.0039383953
0.0039395208
0.0039406562
0.0039418015
0.0039429569
0.0039441227
0.003945299
0.003946486
0.0039476839
0.003948893
0.0039501134
0.0039513455
0.0039525894
0.0039538454
0.0039551138
0.0039563949
0.0039576889
0.0039589962
0.0039603171
0.0039616519
0.0039630009
0.0039643645
0.0039657431
0.0039671371
0.0039685468
0.0039699727
0.0039714153
0.0039728749
0.0039743521
0.0039758474
0.0039773612
0.0039788941
0.0039804468
0.0039820197
0.0039836135
0.0039852288
0.0039868663
0.0039885266
0.0039902106
0.0039919189
0.0039936523
0.0039954117
0.0039971979
0.0039990118
0.0040008543
0.0040027263
0.0040046289
0.0040065631
0.00400853
0.0040105307
0.0040125664
0.0040146383
0.0040167477
0.0040188959
0.0040210842
0.0040233141
0.0040255872
0.0040279048
0.0040302687
0.0040326804
0.0040351419
0.0040376547
0.0040402208
0.0040428422
0.0040455209
0.0040482589
0.0040510584
0.0040539217
0.0040568511
0.0040598491
0.0040629181
0.0040660609
0.00406928
0.0040725784
0.0040759589
0.0040794245
0.0040829784
0.0040866238
0.0040903641
0.0040942027
0.0040981433
0.0041021895
0.0041063453
0.0041106147
0.0041150017
0.0041195106
0.0041241459
0.0041289121
0.0041338141
0.0041388566
0.0041440447
0.0041493836
0.0041548788
0.0041605358
0.0041663604
0.0041723585
0.0041785363
0.0041849001
0.0041914564
0.0041982121
0.004205174
0.0042123493
0.0042197455
0.0042273702
0.0042352313
0.0042433368
0.0042516953
0.0042603152
0.0042692055
0.0042783752
0.004287834
0.0042975913
0.0043076573
0.0043180422
0.0043287565
0.0043398112
0.0043512174
0.0043629867
0.0043751308
0.004387662
0.0044005928
0.0044139359
0.0044277047
0.0044419126
0.0044565736
0.0044717021
0.0044873126
0.0045034203
0.0045200407
0.0045371897
0.0045548834
0.0045731387
0.0045919727
0.0046114029
0.0046314474
0.0046521246
0.0046734534
0.0046954533
0.0047181441
0.0047415461
0.0047656802
0.0047905676
0.0048162302
0.0048426904
0.004869971
0.0048980953
0.0049270873
0.0049569714
0.0049877727
0.0050195166
0.0050522294
0.0050859376
0.0051206685
0.00515645
0.0051933106
0.0052312792
0.0052703854
0.0053106596
0.0053521326
0.0053948359
0.0054388015
0.0054840623
0.0055306517
0.0055786036
0.0056279528
0.0056787346
0.005730985
0.0057847407
0.0058400391
0.0058969182
0.0059554167
0.006015574
0.0060774302
0.006141026
0.006206403
0.0062736034
0.0063426699
0.0064136463
0.0064865767
0.0065615063
0.0066384807
0.0067175464
0.0067987506
0.006882141
0.0069677663
0.0070556757
0.0071459194
0.007238548
0.0073336129
0.0074311664
0.0075312613
0.0076339513
0.0077392905
0.007847334
0.0079581376
0.0080717575
0.008188251
0.0083076759
0.0084300905
0.0085555541
0.0086841266
0.0088158684
0.0089508407
0.0090891053
0.0092307248
0.0093757623
0.0095242816
0.009676347
0.0098320236
0.009991377
0.010154473
0.01032138
0.010492163
0.010666892
0.010845635
0.01102846
0.011215438
0.011406638
0.011602132
0.01180199
0.012006283
0.012215085
0.012428468
0.012646504
0.012869267
0.013096831
0.01332927
0.013566658
0.01380907
0.014056583
0.01430927
0.014567209
0.014830475
0.015099145
0.015373296
0.015653003
0.015938346
0.0162294
0.016526243
0.016828954
0.017137609
0.017452287
0.017773065
0.018100022
0.018433236
0.018772784
0.019118745
0.019471198
0.019830219
0.020195887
0.02056828
0.020947475
0.02133355
0.021726583
0.022126651
0.022533832
0.022948201
0.023369835
0.023798811
0.024235206
0.024679093
0.02513055
0.025589651
0.026056471
0.026531084
0.027013563
0.027503982
0.028002415
0.028508932
0.029023608
0.029546511
0.030077714
0.030617286
0.031165298
0.031721817
0.032286913
0.032860652
0.033443103
0.03403433
0.0346344
0.035243377
0.035861326
0.036488309
0.037124388
0.037769626
0.038424084
0.03908782
0.039760894
0.040443365
0.041135288
0.041836721
0.042547719
0.043268337
0.043998627
0.044738642
0.045488433
0.046248051
0.047017546
0.047796965
0.048586357
0.049385766
0.050195239
0.051014819
0.05184455
0.052684473
0.053534629
0.054395059
0.055265799
0.056146889
0.057038364
0.057940259
0.058852608
0.059775445
0.0607088
0.061652705
0.062607188
0.063572279
0.064548002
0.065534386
0.066531454
0.067539229
0.068557734
0.06958699
0.070627017
0.071677834
0.072739457
0.073811904
0.074895189
0.075989326
0.077094329
0.078210208
0.079336974
0.080474637
0.081623205
0.082782684
0.08395308
0.085134398
0.086326641
0.087529812
0.088743912
0.089968941
0.091204898
0.09245178
0.093709584
0.094978307
0.096257942
0.097548483
0.098849923
0.10016225
0.10148546
0.10281954
0.10416448
0.10552026
0.10688687
0.1082643
0.10965253
0.11105154
0.11246132
0.11388184
0.11531309
0.11675505
0.1182077
0.119671
0.12114495
0.12262951
0.12412466
0.12563037
0.12714662
0.12867338
0.13021062
0.13175831
0.13331643
0.13488493
0.13646379
0.13805298
0.13965246
0.1412622
0.14288217
0.14451232
0.14615263
0.14780306
0.14946356
0.1511341
0.15281465
0.15450516
0.15620559
0.15791591
0.15963606
0.16136602
0.16310573
0.16485515
0.16661425
0.16838297
0.17016128
0.17194912
0.17374646
0.17555324
0.17736942
0.17919495
0.18102979
0.18287389
0.1847272
0.18658966
0.18846124
0.19034188
0.19223154
0.19413016
0.19603769
0.19795408
0.19987928
0.20181324
0.20375591
0.20570723
0.20766716
0.20963564
0.21161261
0.21359804
0.21559185
0.21759399
0.21960443
0.22162309
0.22364993
0.22568488
0.22772791
0.22977894
0.23183793
0.23390482
0.23597956
0.23806209
0.24015235
0.24225029
0.24435585
0.24646898
0.24858962
0.25071771
0.2528532
0.25499604
0.25714615
0.2593035
0.26146802
0.26363965
0.26581834
0.26800402
0.27019666
0.27239618
0.27460253
0.27681565
0.27903549
0.28126198
0.28349508
0.28573472
0.28798085
0.29023341
0.29249234
0.29475759
0.29702909
0.2993068
0.30159065
0.30388058
0.30617655
0.30847849
0.31078634
0.31310006
0.31541957
0.31774483
0.32007578
0.32241236
0.32475452
0.32710219
0.32945532
0.33181386
0.33417774
0.33654692
0.33892133
0.34130092
0.34368563
0.34607541
0.3484702
0.35086994
0.35327458
0.35568407
0.35809834
0.36051733
0.36294101
0.3653693
0.36780216
0.37023952
0.37268133
0.37512755
0.3775781
0.38003295
0.38249202
0.38495527
0.38742265
0.38989409
0.39236954
0.39484896
0.39733227
0.39981944
0.4023104
0.4048051
0.40730349
0.40980551
0.4123111
0.41482023
0.41733282
0.41984883
0.4223682
0.42489088
0.42741682
0.42994597
0.43247826
0.43501364
0.43755207
0.4400935
0.44263785
0.44518509
0.44773517
0.45028802
0.4528436
0.45540185
0.45796272
0.46052616
0.46309211
0.46566053
0.46823136
0.47080455
0.47338005
0.4759578
0.47853775
0.48111986
0.48370406
0.48629032
0.48887857
0.49146876
0.49406084
0.49665477
0.49925048
0.50184793
0.50444707
0.50704784
0.5096502
0.51225409
0.51485946
0.51746626
0.52007444
0.52268395
0.52529473
0.52790674
0.53051992
0.53313423
0.53574961
0.53836601
0.54098339
0.54360168
0.54622084
0.54884082
0.55146157
0.55408303
0.55670517
0.55932791
0.56195122
0.56457505
0.56719933
0.56982403
0.57244909
0.57507447
0.5777001
0.58032594
0.58295194
0.58557805
0.58820422
0.59083039
0.59345652
0.59608256
0.59870845
0.60133414
0.60395959
0.60658474
0.60920955
0.61183395
0.61445791
0.61708136
0.61970427
0.62232657
0.62494823
0.62756917
0.63018937
0.63280876
0.63542729
0.63804492
0.64066159
0.64327725
0.64589185
0.64850534
0.65111767
0.65372878
0.65633863
0.65894716
0.66155433
0.66416007
0.66676435
0.6693671
0.67196829
0.67456785
0.67716573
0.67976189
0.68235627
0.68494882
0.68753949
0.69012822
0.69271497
0.69529968
0.69788231
0.70046279
0.70304107
0.70561712
0.70819086
0.71076226
0.71333125
0.71589779
0.71846182
0.7210233
0.72358216
0.72613837
0.72869185
0.73124257
0.73379046
0.73633548
0.73887758
0.74141669
0.74395278
0.74648578
0.74901564
0.75154231
0.75406574
0.75658586
0.75910264
0.76161602
0.76412594
0.76663235
0.76913519
0.77163442
0.77412998
0.77662182
0.77910988
0.78159411
0.78407445
0.78655086
0.78902328
0.79149165
0.79395592
0.79641604
0.79887195
0.8013236
0.80377094
0.80621391
0.80865246
0.81108654
0.81351609
0.81594105
0.81836137
0.82077701
0.82318789
0.82559398
0.82799522
0.83039154
0.83278291
0.83516925
0.83755053
0.83992669
0.84229767
0.84466341
0.84702387
0.84937899
0.85172872
0.854073
0.85641178
0.858745
0.86107261
0.86339456
0.8657108
0.86802126
0.8703259
0.87262467
0.8749175
0.87720434
0.87948515
0.88175987
0.88402845
0.88629082
0.88854695
0.89079677
0.89304024
0.8952773
0.89750789
0.89973197
0.90194949
0.90416038
0.9063646
0.9085621
0.91075283
0.91293672
0.91511374
0.91728383
0.91944693
0.92160301
0.923752
0.92589385
0.92802852
0.93015595
0.9322761
0.93438891
0.93649434
0.93859233
0.94068283
0.9427658
0.94484119
0.94690894
0.94896901
0.95102136
0.95306592
0.95510267
0.95713154
0.95915249
0.96116548
0.96317046
0.96516738
0.96715619
0.96913686
0.97110933
0.97307355
0.9750295
0.97697711
0.97891636
0.98084718
0.98276955
0.98468341
0.98658873
0.98848547
0.99037357
0.99225301
0.99412373
0.99598571
0.99783889
0.99968325
1.0015187
1.0033453
1.0051629
1.0069716
1.0087712
1.0105618
1.0123433
1.0141156
1.0158788
1.0176328
1.0193776
1.0211131
1.0228393
1.0245562
1.0262637
1.0279618
1.0296505
1.0313298
1.0329995
1.0346598
1.0363105
1.0379516
1.0395832
1.0412051
1.0428174
1.04442
1.0460129
1.0475961
1.0491695
1.0507332
1.0522871
1.0538312
1.0553655
1.0568899
1.0584045
1.0599092
1.0614039
1.0628888
1.0643637
1.0658287
1.0672837
1.0687288
1.0701638
1.0715889
1.0730039
1.0744089
1.0758039
1.0771889
1.0785638
1.0799286
1.0812834
1.0826281
1.0839627
1.0852873
1.0866018
1.0879062
1.0892005
1.0904847
1.0917589
1.0930229
1.0942769
1.0955208
1.0967547
1.0979784
1.0991921
1.1003958
1.1015894
1.1027729
1.1039464
1.1051099
1.1062634
1.1074068
1.1085403
1.1096638
1.1107774
1.1118809
1.1129746
1.1140583
1.1151322
1.1161961
1.1172502
1.1182944
1.1193289
1.1203535
1.1213683
1.1223734
1.1233688
1.1243544
1.1253304
1.1262967
1.1272534
1.1282005
1.1291381
1.1300661
1.1309845
1.1318936
1.1327931
1.1336833
1.1345641
1.1354355
1.1362976
1.1371505
1.1379941
1.1388285
1.1396538
1.14047
1.141277
1.1420751
1.1428641
1.1436442
1.1444154
1.1451777
1.1459311
1.1466758
1.1474118
1.1481391
1.1488577
1.1495677
1.1502692
1.1509622
1.1516467
1.1523229
1.1529906
1.1536501
1.1543013
1.1549444
1.1555793
1.156206
1.1568248
1.1574356
1.1580384
1.1586334
1.1592205
1.1597999
1.1603715
1.1609355
1.1614919
1.1620408
1.1625821
1.1631161
1.1636427
1.1641619
1.1646739
1.1651788
1.1656764
1.1661671
1.1666507
1.1671273
1.1675971
1.16806
1.1685161
1.1689655
1.1694083
1.1698445
1.1702741
1.1706973
1.1711141
1.1715245
1.1719287
1.1723266
1.1727184
1.1731041
1.1734837
1.1738574
1.1742251
1.174587
1.1749431
1.1752935
1.1756382
1.1759773
1.1763109
1.1766389
1.1769616
1.1772789
1.1775909
1.1778977
1.1781993
1.1784958
1.1787872
1.1790737
1.1793552
1.1796319
1.1799037
1.1801708
1.1804332
1.1806909
1.1809441
1.1811928
1.181437
1.1816768
1.1819123
1.1821434
1.1823704
1.1825932
1.1828119
1.1830265
1.1832371
1.1834438
1.1836466
1.1838456
1.1840408
1.1842322
1.18442
1.1846042
1.1847848
1.1849619
1.1851356
1.1853058
1.1854727
1.1856363
1.1857966
1.1859537
1.1861077
1.1862586
1.1864064
1.1865512
1.1866931
1.186832
1.1869681
1.1871013
1.1872318
1.1873596
1.1874847
1.1876072
1.187727
1.1878444
1.1879592
1.1880715
1.1881815
1.1882891
1.1883943
1.1884973
1.188598
1.1886964
1.1887928
1.188887
1.188979
1.1890691
1.1891571
1.1892431
1.1893272
1.1894094
1.1894898
1.1895682
1.1896449
1.1897198
1.189793
1.1898645
1.1899343
1.1900025
1.1900691
1.1901341
1.1901976
1.1902596
1.19032
1.1903791
1.1904367
1.190493
1.1905478
1.1906014
1.1906536
1.1907046
1.1907543
1.1908027
1.19085
1.1908961
1.1909411
1.1909849
1.1910276
1.1910693
1.1911099
1.1911495
1.191188
1.1912256
1.1912622
1.1912979
1.1913326
1.1913665
1.1913995
1.1914316
1.1914628
1.1914933
1.1915229
1.1915518
1.1915799
1.1916072
1.1916338
1.1916597
1.1916849
1.1917095
1.1917333
1.1917565
1.1917791
1.1918011
1.1918224
1.1918432
1.1918634
1.191883
1.1919021
1.1919207
1.1919387
1.1919562
1.1919733
1.1919898
1.1920059
1.1920216
1.1920367
1.1920515
1.1920658
1.1920797
1.1920932
1.1921064
1.1921191
1.1921315
1.1921435
1.1921551
1.1921664
1.1921774
1.192188
1.1921984
1.1922084
1.1922181
1.1922275
1.1922367
1.1922456
1.1922542
1.1922625
1.1922706
1.1922784
1.192286
1.1922934
1.1923005
1.1923074
1.1923141
1.1923206
1.1923269
1.192333
1.1923389
1.1923446
1.1923502
1.1923555
1.1923607
1.1923657
1.1923706
1.1923753
1.1923799
1.1923843
1.1923885
1.1923926
1.1923966
1.1924005
1.1924042
1.1924078
1.1924113
1.1924147
1.192418
1.1924211
1.1924242
1.1924271
1.19243
1.1924327
1.1924354
1.1924379
1.1924404
1.1924428
1.1924451
1.1924473
1.1924495
1.1924516
1.1924536
1.1924555
1.1924574
1.1924592
1.1924609
1.1924626
1.1924642
1.1924658
1.1924673
1.1924688
1.1924702
1.1924715
1.1924728
1.1924741
1.1924753
1.1924764
1.1924776
1.1924786
1.1924797
1.1924807
1.1924816
1.1924826
1.1924835
1.1924843
1.1924851
1.1924859
1.1924867
1.1924874
1.1924881
1.1924888
1.1924895
1.1924901
1.1924907
1.1924913
1.1924918
1.1924924
1.1924929
1.1924934
1.1924939
1.1924943
1.1924948
1.1924952
1.1924956
1.192496
1.1924963
1.1924967
1.192497
1.1924973
1.1924977
1.192498
1.1924982
1.1924985
1.1924988
1.192499
1.1924993
1.1924995
1.1924997
1.1924999
1.1925001
1.1925003
1.1925005
1.1925007
1.1925008
1.192501
1.1925011
1.1925013
1.1925014
1.1925016
1.1925017
1.1925018
1.1925019
1.192502
1.1925021
1.1925022
1.1925023
1.1925024
1.1925025
1.1925026
1.1925026
1.1925027
1.1925028
1.1925028
1.1925029
1.1925029
1.192503
1.192503
1.1925031
1.1925031
1.1925032
1.1925032
1.1925032
1.1925033
1.1925033
1.1925033
1.1925034
1.1925034
1.1925034
1.1925034
1.1925034
1.1925035
1.1925035
1.1925035
1.1925035
1.1925035
1.1925035
1.1925035
1.1925035
1.1925035
1.1925035
1.1925035
1.1925035
1.1925035
1.1925035
1.1925035
1.1925035
1.1925035
1.1925035
1.1925035
1.1925035
1.1925035
1.1925035
1.1925034
1.1925034
1.1925034
1.1925034
1.1925034
1.1925034
1.1925034
1.1925034
1.1925033
1.1925033
1.1925033
1.1925033
1.1925033
1.1925033
1.1925032
1.1925032
1.1925032
1.1925032
1.1925032
1.1925031
1.1925031
1.1925031
1.1925031
1.1925031
1.192503
1.192503
1.192503
1.192503
1.1925029
1.1925029
1.1925029
1.1925029
1.1925028
1.1925028
1.1925028
1.1925028
1.1925027
1.1925027
1.1925027
1.1925027
1.1925026
1.1925026
1.1925026
1.1925026
1.1925025
1.1925025
1.1925025
1.1925024
1.1925024
1.1925024
1.1925024
1.1925023
1.1925023
1.1925023
1.1925022
1.1925022
1.1925022
1.1925022
1.1925021
1.1925021
1.1925021
1.192502
1.192502
1.192502
1.1925019
1.1925019
1.1925019
1.1925019
1.1925018
1.1925018
1.1925018
1.1925017
1.1925017
1.1925017
1.1925016
1.1925016
1.1925016
1.1925016
1.1925015
1.1925015
1.1925015
1.1925014
1.1925014
1.1925014
1.1925013
1.1925013
1.1925013
1.1925012
1.1925012
1.1925012
1.1925011
1.1925011
1.1925011
1.192501
1.192501
1.192501
1.1925009
1.1925009
1.1925009
1.1925008
1.1925008
1.1925008
1.1925007
1.1925007
1.1925007
1.1925006
1.1925006
1.1925006
1.1925005
1.1925005
1.1925005
1.1925004
1.1925004
1.1925004
1.1925003
1.1925003
1.1925003
1.1925002
1.1925002
1.1925002
1.1925001
1.1925001
1.1925001
1.1925
1.1925
1.1924999
1.1924999
1.1924999
1.1924998
1.1924998
1.1924998
1.1924997
1.1924997
1.1924997
1.1924996
1.1924996
1.1924996
1.1924995
1.1924995
1.1924994
1.1924994
1.1924994
1.1924993
1.1924993
1.1924993
1.1924992
1.1924992
1.1924992
1.1924991
1.1924991
1.192499
1.192499
1.192499
1.1924989
1.1924989
1.1924989
1.1924988
1.1924988
1.1924987
1.1924987
1.1924987
1.1924986
1.1924986
1.1924986
1.1924985
1.1924985
1.1924984
1.1924984
1.1924984
1.1924983
1.1924983
1.1924983
1.1924982
1.1924982
1.1924981
1.1924981
1.1924981
1.192498
1.192498
1.1924979
1.1924979
1.1924979
1.1924978
1.1924978
1.1924978
1.1924977
1.1924977
1.1924976
1.1924976
1.1924976
1.1924975
1.1924975
1.1924974
1.1924974
1.1924974
1.1924973
1.1924973
1.1924972
1.1924972
1.1924972
1.1924971
1.1924971
1.192497
1.192497
1.192497
1.1924969
1.1924969
1.1924968
1.1924968
1.1924968
1.1924967
1.1924967
1.1924966
1.1924966
1.1924966
1.1924965
1.1924965
1.1924965
1.1924964
1.1924964
1.1924963
1.1924963
1.1924963
1.1924962
1.1924962
1.1924961
1.1924961
1.1924961
1.192496
1.192496
1.1924959
1.1924959
1.1924959
1.1924958
1.1924958
1.1924957
1.1924957
1.1924956
1.1924956
1.1924956
1.1924955
1.1924955
1.1924954
1.1924954
1.1924954
1.1924953
1.1924953
1.1924952
1.1924952
1.1924952
1.1924951
1.1924951
1.192495
1.192495
1.192495
1.1924949
1.1924949
1.1924948
1.1924948
1.1924947
1.1924947
1.1924947
1.1924946
1.1924946
1.1924945
1.1924945
1.1924944
1.1924944
1.1924944
1.1924943
1.1924943
1.1924942
1.1924942
1.1924941
1.1924941
1.1924941
1.192494
1.192494
1.1924939
1.1924939
1.1924938
1.1924938
1.1924938
1.1924937
1.1924937
1.1924936
1.1924936
1.1924935
1.1924935
1.1924934
1.1924934
1.1924934
1.1924933
1.1924933
1.1924932
1.1924932
1.1924931
1.1924931
1.192493
1.192493
1.1924929
1.1924929
1.1924928
1.1924928
1.1924927
1.1924927
1.1924926
1.1924926
1.1924926
1.1924925
1.1924925
1.1924924
1.1924924
1.1924923
1.1924923
1.1924922
1.1924922
1.1924921
1.1924921
1.192492
1.1924919
1.1924919
1.1924918
1.1924918
1.1924917
1.1924917
1.1924916
1.1924916
1.1924915
1.1924915
1.1924914
1.1924914
1.1924913
1.1924913
1.1924912
1.1924912
1.1924911
1.192491
1.192491
1.1924909
1.1924909
1.1924908
1.1924908
1.1924907
1.1924906
1.1924906
1.1924905
1.1924905
1.1924904
1.1924904
1.1924903
1.1924902
1.1924902
1.1924901
1.1924901
1.19249
1.1924899
1.1924899
1.1924898
1.1924898
1.1924897
1.1924896
1.1924896
1.1924895
1.1924895
1.1924894
1.1924893
1.1924893
1.1924892
1.1924892
1.1924891
1.192489
1.192489
1.1924889
1.1924888
1.1924888
1.1924887
1.1924886
1.1924886
1.1924885
1.1924884
1.1924884
1.1924883
1.1924882
1.1924882
1.1924881
1.1924881
1.192488
1.1924879
1.1924879
1.1924878
1.1924877
1.1924877
1.1924876
1.1924875
1.1924875
1.1924874
1.1924873
1.1924872
1.1924872
1.1924871
1.192487
1.192487
1.1924869
1.1924868
1.1924868
1.1924867
1.1924866
1.1924865
1.1924865
1.1924864
1.1924863
1.1924863
1.1924862
1.1924861
1.192486
1.192486
1.1924859
1.1924858
1.1924858
1.1924857
1.1924856
1.1924855
1.1924855
1.1924854
1.1924853
1.1924852
1.1924852
1.1924851
1.192485
1.1924849
1.1924849
1.1924848
1.1924847
1.1924846
1.1924846
1.1924845
1.1924844
1.1924843
1.1924842
1.1924842
1.1924841
1.192484
1.1924839
1.1924838
1.1924838
1.1924837
1.1924836
1.1924835
1.1924835
1.1924834
1.1924833
1.1924832
1.1924832
1.1924831
1.192483
1.1924829
1.1924828
1.1924827
1.1924827
1.1924826
1.1924825
1.1924824
1.1924823
1.1924822
1.1924821
1.1924821
1.192482
1.1924819
1.1924818
1.1924817
1.1924816
1.1924816
1.1924815
1.1924814
1.1924813
1.1924812
1.1924811
1.192481
1.192481
1.1924809
1.1924808
1.1924807
1.1924806
1.1924805
1.1924804
1.1924803
1.1924802
1.1924801
1.19248
1.1924799
1.1924798
1.1924798
1.1924797
1.1924796
1.1924795
1.1924794
1.1924793
1.1924792
1.1924791
1.192479
1.1924789
1.1924788
1.1924787
1.1924786
1.1924785
1.1924784
1.1924783
1.1924782
1.1924781
1.192478
1.1924779
1.1924778
1.1924777
1.1924776
1.1924775
1.1924774
1.1924773
1.1924772
1.192477
1.1924769
1.1924768
1.1924767
1.1924766
1.1924765
1.1924764
1.1924763
1.1924762
1.1924761
1.1924759
1.1924758
1.1924757
1.1924756
1.1924755
1.1924753
1.1924752
1.1924751
1.192475
1.1924749
1.1924747
1.1924746
1.1924745
1.1924744
1.1924743
1.1924741
1.192474
1.1924739
1.1924738
1.1924736
1.1924735
1.1924734
1.1924732
1.1924731
1.192473
1.1924728
1.1924727
1.1924726
1.1924724
1.1924723
1.1924721
1.192472
1.1924718
1.1924717
1.1924716
1.1924714
1.1924713
1.1924711
1.192471
1.1924709
1.1924707
1.1924706
1.1924704
1.1924703
1.1924701
1.19247
1.1924698
1.1924697
1.1924695
1.1924694
1.1924692
1.192469
1.1924689
1.1924687
1.1924685
1.1924683
1.1924682
1.192468
1.1924678
1.1924676
1.1924675
1.1924673
1.1924671
1.1924669
1.1924667
1.1924665
1.1924664
1.1924662
1.192466
1.1924658
1.1924656
1.1924654
1.1924652
1.192465
1.1924648
1.1924646
1.1924644
1.1924642
1.192464
1.1924638
1.1924636
1.1924634
1.1924631
1.1924629
1.1924627
1.1924625
1.1924623
1.192462
1.1924618
1.1924616
1.1924613
1.1924611
1.1924609
1.1924606
1.1924604
1.1924602
1.1924599
1.1924597
1.1924594