/*--------------------------------*- C++ -*----------------------------------*\
  =========                 |
  \\      /  F ield         | OpenFOAM: The Open Source CFD Toolbox
   \\    /   O peration     | Website:  https://openfoam.org
    \\  /    A nd           | Version:  7
     \\/     M anipulation  |
\*---------------------------------------------------------------------------*/
FoamFile
{
    version     2.0;
    format      ascii;
    class       volScalarField;
    location    "0.00285";
    object      T;
}
// * * * * * * * * * * * * * * * * * * * * * * * * * * * * * * * * * * * * * //

dimensions      [0 0 0 1 0 0 0];

internalField   nonuniform List<scalar> 
5000
(
285.38495
285.38495
285.38495
285.38495
285.38495
285.38495
285.38495
285.38495
285.38495
285.38495
285.38495
285.38495
285.38495
285.38495
285.38495
285.38495
285.38495
285.38495
285.38495
285.38495
285.38495
285.38495
285.38495
285.38495
285.38495
285.38495
285.38495
285.38495
285.38495
285.38495
285.38495
285.38495
285.38495
285.38495
285.38495
285.38495
285.38495
285.38495
285.38495
285.38495
285.38495
285.38495
285.38495
285.38495
285.38495
285.38495
285.38495
285.38495
285.38495
285.38495
285.38495
285.38495
285.38495
285.38495
285.38495
285.38495
285.38495
285.38495
285.38495
285.38495
285.38495
285.38495
285.38495
285.38495
285.38495
285.38495
285.38495
285.38495
285.38495
285.38495
285.38495
285.38495
285.38495
285.38495
285.38495
285.38495
285.38495
285.38495
285.38495
285.38495
285.38495
285.38495
285.38494
285.38494
285.38494
285.38494
285.38494
285.38494
285.38494
285.38494
285.38494
285.38494
285.38494
285.38494
285.38494
285.38494
285.38494
285.38494
285.38494
285.38494
285.38494
285.38494
285.38494
285.38494
285.38494
285.38494
285.38494
285.38494
285.38494
285.38494
285.38494
285.38495
285.38495
285.38495
285.38495
285.38495
285.38495
285.38496
285.38496
285.38496
285.38497
285.38497
285.38498
285.38498
285.38498
285.38499
285.385
285.38503
285.38508
285.38521
285.38552
285.38619
285.38723
285.3887
285.39072
285.39345
285.39707
285.40174
285.40766
285.41495
285.42371
285.43394
285.4456
285.45855
285.47256
285.48738
285.50269
285.51816
285.53347
285.54831
285.56242
285.57559
285.58767
285.59856
285.60821
285.61665
285.6239
285.63005
285.6352
285.63945
285.64291
285.64571
285.64793
285.64969
285.65106
285.65211
285.65292
285.65354
285.654
285.65434
285.6546
285.65479
285.65493
285.65503
285.6551
285.65515
285.65519
285.65522
285.65524
285.65525
285.65526
285.65527
285.65527
285.65528
285.65528
285.65528
285.65528
285.65528
285.65529
285.65529
285.65529
285.65529
285.65529
285.65529
285.65529
285.65529
285.65529
285.65529
285.65529
285.65529
285.65529
285.65529
285.65529
285.6553
285.6553
285.6553
285.6553
285.6553
285.6553
285.6553
285.6553
285.6553
285.6553
285.6553
285.6553
285.6553
285.65531
285.65531
285.65531
285.65531
285.65531
285.65531
285.65531
285.65531
285.65531
285.65531
285.65531
285.65531
285.65531
285.65531
285.65531
285.65532
285.65532
285.65532
285.65532
285.65532
285.65532
285.65532
285.65532
285.65532
285.65532
285.65532
285.65532
285.65532
285.65532
285.65533
285.65533
285.65533
285.65533
285.65533
285.65533
285.65533
285.65533
285.65533
285.65533
285.65533
285.65533
285.65533
285.65533
285.65534
285.65534
285.65534
285.65534
285.65534
285.65534
285.65534
285.65534
285.65534
285.65534
285.65534
285.65534
285.65534
285.65534
285.65535
285.65535
285.65535
285.65535
285.65535
285.65535
285.65535
285.65535
285.65535
285.65535
285.65535
285.65535
285.65535
285.65535
285.65536
285.65536
285.65536
285.65536
285.65536
285.65536
285.65536
285.65536
285.65536
285.65536
285.65536
285.65536
285.65536
285.65536
285.65537
285.65537
285.65537
285.65537
285.65537
285.65537
285.65537
285.65537
285.65537
285.65537
285.65537
285.65537
285.65537
285.65537
285.65538
285.65538
285.65538
285.65538
285.65538
285.65538
285.65538
285.65538
285.65538
285.65538
285.65538
285.65538
285.65538
285.65539
285.65539
285.65539
285.65539
285.65539
285.65539
285.65539
285.65539
285.65539
285.65539
285.65539
285.65539
285.65539
285.65539
285.6554
285.6554
285.6554
285.6554
285.6554
285.6554
285.6554
285.6554
285.6554
285.6554
285.6554
285.6554
285.6554
285.65541
285.65541
285.65541
285.65541
285.65541
285.65541
285.65541
285.65541
285.65541
285.65541
285.65541
285.65541
285.65541
285.65542
285.65542
285.65542
285.65542
285.65542
285.65542
285.65542
285.65542
285.65542
285.65542
285.65542
285.65542
285.65542
285.65542
285.65543
285.65543
285.65543
285.65543
285.65543
285.65543
285.65543
285.65543
285.65543
285.65543
285.65543
285.65544
285.65544
285.65544
285.65544
285.65544
285.65544
285.65544
285.65544
285.65544
285.65544
285.65544
285.65544
285.65544
285.65544
285.65544
285.65545
285.65545
285.65545
285.65545
285.65545
285.65545
285.65545
285.65545
285.65545
285.65545
285.65545
285.65545
285.65546
285.65546
285.65546
285.65546
285.65546
285.65546
285.65546
285.65546
285.65546
285.65546
285.65546
285.65546
285.65546
285.65547
285.65547
285.65547
285.65547
285.65547
285.65547
285.65547
285.65547
285.65547
285.65547
285.65547
285.65547
285.65548
285.65548
285.65548
285.65548
285.65548
285.65548
285.65548
285.65548
285.65548
285.65548
285.65548
285.65548
285.65548
285.65549
285.65549
285.65549
285.65549
285.65549
285.65549
285.65549
285.65549
285.65549
285.65549
285.65549
285.65549
285.65549
285.6555
285.6555
285.6555
285.6555
285.6555
285.6555
285.6555
285.6555
285.6555
285.6555
285.6555
285.6555
285.6555
285.65551
285.65551
285.65551
285.65551
285.65551
285.65551
285.65551
285.65551
285.65551
285.65551
285.65551
285.65551
285.65552
285.65552
285.65552
285.65552
285.65552
285.65552
285.65552
285.65552
285.65552
285.65552
285.65552
285.65553
285.65553
285.65553
285.65553
285.65553
285.65553
285.65553
285.65553
285.65553
285.65553
285.65553
285.65553
285.65554
285.65554
285.65554
285.65554
285.65554
285.65554
285.65554
285.65554
285.65554
285.65554
285.65554
285.65554
285.65554
285.65554
285.65554
285.65554
285.65554
285.65555
285.65555
285.65555
285.65555
285.65555
285.65555
285.65555
285.65555
285.65555
285.65556
285.65556
285.65556
285.65556
285.65556
285.65556
285.65556
285.65556
285.65556
285.65556
285.65557
285.65557
285.65557
285.65557
285.65557
285.65557
285.65557
285.65557
285.65557
285.65557
285.65557
285.65557
285.65557
285.65557
285.65558
285.65558
285.65558
285.65558
285.65558
285.65558
285.65558
285.65558
285.65558
285.65558
285.65558
285.65559
285.65559
285.65559
285.65559
285.65559
285.65559
285.65559
285.65559
285.65559
285.65559
285.6556
285.6556
285.6556
285.6556
285.6556
285.6556
285.6556
285.6556
285.6556
285.6556
285.6556
285.6556
285.6556
285.65561
285.65561
285.65561
285.65561
285.65561
285.65561
285.65561
285.65561
285.65561
285.65561
285.65561
285.65561
285.65562
285.65562
285.65562
285.65562
285.65562
285.65562
285.65562
285.65562
285.65562
285.65562
285.65562
285.65562
285.65563
285.65563
285.65563
285.65563
285.65563
285.65563
285.65563
285.65563
285.65563
285.65563
285.65564
285.65564
285.65564
285.65564
285.65564
285.65564
285.65564
285.65564
285.65564
285.65564
285.65564
285.65564
285.65565
285.65565
285.65565
285.65565
285.65565
285.65565
285.65565
285.65565
285.65565
285.65565
285.65565
285.65566
285.65566
285.65566
285.65566
285.65566
285.65566
285.65566
285.65566
285.65566
285.65566
285.65566
285.65567
285.65567
285.65567
285.65567
285.65567
285.65567
285.65567
285.65567
285.65567
285.65567
285.65567
285.65567
285.65568
285.65568
285.65568
285.65568
285.65568
285.65568
285.65568
285.65568
285.65568
285.65568
285.65569
285.65569
285.65569
285.65569
285.65569
285.65569
285.65569
285.65569
285.65569
285.65569
285.65569
285.6557
285.6557
285.6557
285.6557
285.6557
285.6557
285.6557
285.6557
285.6557
285.6557
285.6557
285.65571
285.65571
285.65571
285.65571
285.65571
285.65571
285.65571
285.65571
285.65571
285.65571
285.65572
285.65572
285.65572
285.65572
285.65572
285.65572
285.65572
285.65572
285.65572
285.65572
285.65572
285.65573
285.65573
285.65573
285.65573
285.65573
285.65573
285.65573
285.65573
285.65573
285.65573
285.65574
285.65574
285.65574
285.65574
285.65574
285.65574
285.65574
285.65574
285.65574
285.65574
285.65575
285.65575
285.65575
285.65575
285.65575
285.65575
285.65575
285.65575
285.65575
285.65575
285.65575
285.65575
285.65576
285.65576
285.65576
285.65576
285.65576
285.65576
285.65576
285.65576
285.65576
285.65577
285.65577
285.65577
285.65577
285.65577
285.65577
285.65577
285.65577
285.65577
285.65577
285.65577
285.65578
285.65578
285.65578
285.65578
285.65578
285.65578
285.65578
285.65578
285.65578
285.65578
285.65578
285.65579
285.65579
285.65579
285.65579
285.65579
285.65579
285.65579
285.65579
285.65579
285.65579
285.6558
285.6558
285.6558
285.6558
285.6558
285.6558
285.6558
285.6558
285.6558
285.6558
285.65581
285.65581
285.65581
285.65581
285.65581
285.65581
285.65581
285.65581
285.65581
285.65582
285.65582
285.65582
285.65582
285.65582
285.65582
285.65582
285.65582
285.65582
285.65582
285.65583
285.65583
285.65583
285.65583
285.65583
285.65583
285.65583
285.65583
285.65583
285.65583
285.65584
285.65584
285.65584
285.65584
285.65584
285.65584
285.65584
285.65584
285.65584
285.65584
285.65585
285.65585
285.65585
285.65585
285.65585
285.65585
285.65585
285.65585
285.65585
285.65585
285.65586
285.65586
285.65586
285.65586
285.65586
285.65586
285.65586
285.65586
285.65586
285.65587
285.65587
285.65587
285.65587
285.65587
285.65587
285.65587
285.65587
285.65587
285.65588
285.65588
285.65588
285.65588
285.65588
285.65588
285.65588
285.65588
285.65588
285.65588
285.65588
285.65589
285.65589
285.65589
285.65589
285.65589
285.65589
285.65589
285.65589
285.6559
285.6559
285.6559
285.6559
285.6559
285.6559
285.6559
285.6559
285.6559
285.6559
285.65591
285.65591
285.65591
285.65591
285.65591
285.65591
285.65591
285.65591
285.65591
285.65592
285.65592
285.65592
285.65592
285.65592
285.65592
285.65592
285.65592
285.65592
285.65593
285.65593
285.65593
285.65593
285.65593
285.65593
285.65593
285.65593
285.65593
285.65593
285.65594
285.65594
285.65594
285.65594
285.65594
285.65594
285.65594
285.65594
285.65595
285.65595
285.65595
285.65595
285.65595
285.65595
285.65595
285.65595
285.65595
285.65596
285.65596
285.65596
285.65596
285.65596
285.65596
285.65596
285.65596
285.65596
285.65596
285.65597
285.65597
285.65597
285.65597
285.65597
285.65597
285.65597
285.65597
285.65598
285.65598
285.65598
285.65598
285.65598
285.65598
285.65598
285.65598
285.65598
285.65599
285.65599
285.65599
285.65599
285.65599
285.65599
285.65599
285.65599
285.65599
285.656
285.656
285.656
285.656
285.656
285.656
285.656
285.656
285.65601
285.65601
285.65601
285.65601
285.65601
285.65601
285.65601
285.65601
285.65601
285.65602
285.65602
285.65602
285.65602
285.65602
285.65602
285.65602
285.65602
285.65602
285.65603
285.65603
285.65603
285.65603
285.65603
285.65603
285.65603
285.65603
285.65603
285.65604
285.65604
285.65604
285.65604
285.65604
285.65604
285.65604
285.65604
285.65604
285.65605
285.65605
285.65605
285.65605
285.65605
285.65605
285.65606
285.65606
285.65606
285.65606
285.65606
285.65606
285.65606
285.65606
285.65606
285.65606
285.65607
285.65607
285.65607
285.65607
285.65607
285.65607
285.65607
285.65607
285.65607
285.65608
285.65608
285.65608
285.65608
285.65608
285.65608
285.65608
285.65609
285.65609
285.65609
285.65609
285.65609
285.65609
285.65609
285.65609
285.6561
285.6561
285.6561
285.6561
285.6561
285.6561
285.6561
285.6561
285.65611
285.65611
285.65611
285.65611
285.65611
285.65611
285.65611
285.65611
285.65612
285.65612
285.65612
285.65612
285.65612
285.65612
285.65612
285.65612
285.65612
285.65613
285.65613
285.65613
285.65613
285.65613
285.65613
285.65613
285.65613
285.65614
285.65614
285.65614
285.65614
285.65614
285.65614
285.65614
285.65614
285.65615
285.65615
285.65615
285.65615
285.65615
285.65615
285.65615
285.65616
285.65616
285.65616
285.65616
285.65616
285.65616
285.65616
285.65616
285.65617
285.65617
285.65617
285.65617
285.65617
285.65617
285.65617
285.65617
285.65618
285.65618
285.65618
285.65618
285.65618
285.65618
285.65618
285.65618
285.65619
285.65619
285.65619
285.65619
285.65619
285.65619
285.65619
285.6562
285.6562
285.6562
285.6562
285.6562
285.6562
285.6562
285.65621
285.65621
285.65621
285.65621
285.65621
285.65621
285.65621
285.65622
285.65622
285.65622
285.65622
285.65622
285.65622
285.65622
285.65623
285.65623
285.65623
285.65623
285.65623
285.65623
285.65623
285.65623
285.65624
285.65624
285.65624
285.65624
285.65624
285.65624
285.65624
285.65624
285.65625
285.65625
285.65625
285.65625
285.65625
285.65625
285.65625
285.65626
285.65626
285.65626
285.65626
285.65626
285.65626
285.65626
285.65626
285.65627
285.65627
285.65627
285.65627
285.65627
285.65627
285.65627
285.65628
285.65628
285.65628
285.65628
285.65628
285.65628
285.65628
285.65629
285.65629
285.65629
285.65629
285.65629
285.65629
285.65629
285.65629
285.6563
285.6563
285.6563
285.6563
285.6563
285.6563
285.6563
285.65631
285.65631
285.65631
285.65631
285.65631
285.65631
285.65632
285.65632
285.65632
285.65632
285.65632
285.65632
285.65632
285.65633
285.65633
285.65633
285.65633
285.65633
285.65633
285.65633
285.65634
285.65634
285.65634
285.65634
285.65634
285.65634
285.65634
285.65635
285.65635
285.65635
285.65635
285.65635
285.65635
285.65635
285.65636
285.65636
285.65636
285.65636
285.65636
285.65636
285.65636
285.65637
285.65637
285.65637
285.65637
285.65637
285.65637
285.65638
285.65638
285.65638
285.65638
285.65638
285.65638
285.65639
285.65639
285.65639
285.65639
285.65639
285.65639
285.65639
285.65639
285.6564
285.6564
285.6564
285.6564
285.6564
285.6564
285.6564
285.65641
285.65641
285.65641
285.65641
285.65641
285.65641
285.65642
285.65642
285.65642
285.65642
285.65642
285.65642
285.65643
285.65643
285.65643
285.65643
285.65643
285.65643
285.65643
285.65644
285.65644
285.65644
285.65644
285.65644
285.65644
285.65644
285.65645
285.65645
285.65645
285.65645
285.65645
285.65645
285.65645
285.65646
285.65646
285.65646
285.65646
285.65646
285.65646
285.65647
285.65647
285.65647
285.65647
285.65647
285.65647
285.65648
285.65648
285.65648
285.65648
285.65648
285.65648
285.65649
285.65649
285.65649
285.65649
285.65649
285.65649
285.6565
285.6565
285.6565
285.6565
285.6565
285.6565
285.65651
285.65651
285.65651
285.65651
285.65651
285.65651
285.65651
285.65652
285.65652
285.65652
285.65652
285.65652
285.65653
285.65653
285.65653
285.65653
285.65653
285.65653
285.65654
285.65654
285.65654
285.65654
285.65654
285.65654
285.65654
285.65655
285.65655
285.65655
285.65655
285.65655
285.65655
285.65656
285.65656
285.65656
285.65656
285.65656
285.65657
285.65657
285.65657
285.65657
285.65657
285.65657
285.65657
285.65658
285.65658
285.65658
285.65658
285.65658
285.65658
285.65659
285.65659
285.65659
285.65659
285.65659
285.6566
285.6566
285.6566
285.6566
285.6566
285.6566
285.65661
285.65661
285.65661
285.65661
285.65661
285.65661
285.65662
285.65662
285.65662
285.65662
285.65662
285.65662
285.65663
285.65663
285.65663
285.65663
285.65663
285.65664
285.65664
285.65664
285.65664
285.65664
285.65665
285.65665
285.65665
285.65665
285.65665
285.65665
285.65666
285.65666
285.65666
285.65666
285.65666
285.65666
285.65667
285.65667
285.65667
285.65667
285.65667
285.65667
285.65668
285.65668
285.65668
285.65668
285.65668
285.65669
285.65669
285.65669
285.65669
285.65669
285.6567
285.6567
285.6567
285.6567
285.6567
285.6567
285.65671
285.65671
285.65671
285.65671
285.65671
285.65672
285.65672
285.65672
285.65672
285.65672
285.65672
285.65673
285.65673
285.65673
285.65673
285.65673
285.65674
285.65674
285.65674
285.65674
285.65674
285.65675
285.65675
285.65675
285.65675
285.65675
285.65676
285.65676
285.65676
285.65676
285.65676
285.65677
285.65677
285.65677
285.65677
285.65677
285.65677
285.65678
285.65678
285.65678
285.65678
285.65678
285.65679
285.65679
285.65679
285.65679
285.65679
285.6568
285.6568
285.6568
285.6568
285.6568
285.6568
285.65681
285.65681
285.65681
285.65681
285.65681
285.65682
285.65682
285.65682
285.65682
285.65682
285.65683
285.65683
285.65683
285.65683
285.65683
285.65684
285.65684
285.65684
285.65684
285.65685
285.65685
285.65685
285.65685
285.65685
285.65686
285.65686
285.65686
285.65686
285.65686
285.65687
285.65687
285.65687
285.65687
285.65687
285.65688
285.65688
285.65688
285.65688
285.65688
285.65689
285.65689
285.65689
285.65689
285.65689
285.6569
285.6569
285.6569
285.6569
285.6569
285.65691
285.65691
285.65691
285.65691
285.65692
285.65692
285.65692
285.65692
285.65692
285.65693
285.65693
285.65693
285.65693
285.65693
285.65694
285.65694
285.65694
285.65694
285.65694
285.65695
285.65695
285.65695
285.65695
285.65696
285.65696
285.65696
285.65696
285.65696
285.65697
285.65697
285.65697
285.65697
285.65697
285.65698
285.65698
285.65698
285.65698
285.65698
285.65699
285.65699
285.65699
285.65699
285.657
285.657
285.657
285.657
285.657
285.65701
285.65701
285.65701
285.65701
285.65701
285.65702
285.65702
285.65702
285.65702
285.65703
285.65703
285.65703
285.65703
285.65703
285.65704
285.65704
285.65704
285.65704
285.65705
285.65705
285.65705
285.65705
285.65706
285.65706
285.65706
285.65706
285.65706
285.65707
285.65707
285.65707
285.65707
285.65708
285.65708
285.65708
285.65708
285.65708
285.65709
285.65709
285.65709
285.65709
285.6571
285.6571
285.6571
285.6571
285.6571
285.65711
285.65711
285.65711
285.65711
285.65712
285.65712
285.65712
285.65712
285.65713
285.65713
285.65713
285.65713
285.65713
285.65714
285.65714
285.65714
285.65714
285.65715
285.65715
285.65715
285.65715
285.65715
285.65716
285.65716
285.65716
285.65716
285.65717
285.65717
285.65717
285.65717
285.65718
285.65718
285.65718
285.65718
285.65719
285.65719
285.65719
285.65719
285.6572
285.6572
285.6572
285.6572
285.65721
285.65721
285.65721
285.65721
285.65722
285.65722
285.65722
285.65722
285.65723
285.65723
285.65723
285.65723
285.65724
285.65724
285.65724
285.65724
285.65724
285.65725
285.65725
285.65725
285.65725
285.65726
285.65726
285.65726
285.65726
285.65727
285.65727
285.65727
285.65727
285.65728
285.65728
285.65728
285.65728
285.65729
285.65729
285.65729
285.65729
285.6573
285.6573
285.6573
285.6573
285.65731
285.65731
285.65731
285.65731
285.65732
285.65732
285.65732
285.65732
285.65733
285.65733
285.65733
285.65733
285.65734
285.65734
285.65734
285.65735
285.65735
285.65735
285.65735
285.65736
285.65736
285.65736
285.65736
285.65737
285.65737
285.65737
285.65737
285.65738
285.65738
285.65738
285.65738
285.65739
285.65739
285.65739
285.6574
285.6574
285.6574
285.6574
285.65741
285.65741
285.65741
285.65741
285.65742
285.65742
285.65742
285.65742
285.65743
285.65743
285.65743
285.65744
285.65744
285.65744
285.65744
285.65745
285.65745
285.65745
285.65746
285.65746
285.65746
285.65746
285.65747
285.65747
285.65747
285.65747
285.65748
285.65748
285.65748
285.65748
285.65749
285.65749
285.65749
285.6575
285.6575
285.6575
285.6575
285.65751
285.65751
285.65751
285.65752
285.65752
285.65752
285.65752
285.65753
285.65753
285.65753
285.65754
285.65754
285.65754
285.65754
285.65755
285.65755
285.65755
285.65755
285.65756
285.65756
285.65756
285.65757
285.65757
285.65757
285.65757
285.65758
285.65758
285.65758
285.65759
285.65759
285.65759
285.65759
285.6576
285.6576
285.6576
285.65761
285.65761
285.65761
285.65761
285.65762
285.65762
285.65762
285.65763
285.65763
285.65763
285.65763
285.65764
285.65764
285.65764
285.65765
285.65765
285.65765
285.65765
285.65766
285.65766
285.65766
285.65766
285.65767
285.65767
285.65767
285.65768
285.65768
285.65768
285.65768
285.65769
285.65769
285.65769
285.6577
285.6577
285.6577
285.6577
285.65771
285.65771
285.65771
285.65771
285.65772
285.65772
285.65772
285.65773
285.65773
285.65773
285.65773
285.65774
285.65774
285.65774
285.65774
285.65775
285.65775
285.65775
285.65775
285.65775
285.65776
285.65776
285.65776
285.65776
285.65777
285.65777
285.65777
285.65777
285.65777
285.65778
285.65778
285.65778
285.65778
285.65779
285.65779
285.65779
285.65779
285.65779
285.65779
285.6578
285.6578
285.6578
285.6578
285.6578
285.6578
285.65781
285.65781
285.65781
285.65781
285.65781
285.65781
285.65781
285.65781
285.65781
285.65782
285.65782
285.65782
285.65782
285.65782
285.65782
285.65782
285.65782
285.65782
285.65782
285.65782
285.65782
285.65782
285.65782
285.65782
285.65782
285.65782
285.65782
285.65781
285.65781
285.65781
285.65781
285.65781
285.65781
285.65781
285.6578
285.6578
285.6578
285.6578
285.65779
285.65779
285.65779
285.65778
285.65778
285.65778
285.65777
285.65777
285.65777
285.65776
285.65776
285.65775
285.65775
285.65774
285.65774
285.65773
285.65773
285.65772
285.65772
285.65771
285.6577
285.6577
285.65769
285.65768
285.65767
285.65766
285.65766
285.65765
285.65764
285.65763
285.65762
285.65761
285.6576
285.65758
285.65757
285.65756
285.65755
285.65754
285.65752
285.65751
285.65749
285.65748
285.65747
285.65745
285.65743
285.65742
285.6574
285.65738
285.65737
285.65735
285.65733
285.65731
285.65729
285.65727
285.65725
285.65723
285.65721
285.65718
285.65716
285.65714
285.65711
285.65709
285.65706
285.65704
285.65701
285.65698
285.65695
285.65692
285.65689
285.65686
285.65683
285.6568
285.65677
285.65673
285.6567
285.65666
285.65662
285.65659
285.65655
285.65651
285.65647
285.65643
285.65639
285.65634
285.6563
285.65626
285.65621
285.65616
285.65612
285.65607
285.65602
285.65597
285.65591
285.65586
285.65581
285.65575
285.65569
285.65564
285.65558
285.65552
285.65545
285.65539
285.65533
285.65526
285.6552
285.65513
285.65506
285.65499
285.65492
285.65484
285.65477
285.65469
285.65462
285.65454
285.65446
285.65437
285.65429
285.6542
285.65412
285.65403
285.65394
285.65385
285.65375
285.65366
285.65356
285.65346
285.65336
285.65326
285.65316
285.65305
285.65295
285.65284
285.65273
285.65261
285.6525
285.65238
285.65226
285.65214
285.65202
285.6519
285.65177
285.65164
285.65151
285.65138
285.65124
285.65111
285.65097
285.65083
285.65068
285.65054
285.65039
285.65024
285.65009
285.64993
285.64978
285.64962
285.64946
285.64929
285.64913
285.64896
285.64879
285.64862
285.64844
285.64826
285.64808
285.6479
285.64771
285.64752
285.64733
285.64714
285.64695
285.64675
285.64655
285.64634
285.64614
285.64593
285.64572
285.6455
285.64528
285.64506
285.64484
285.64462
285.64439
285.64416
285.64392
285.64369
285.64345
285.64321
285.64296
285.64271
285.64246
285.64221
285.64195
285.64169
285.64143
285.64116
285.64089
285.64062
285.64035
285.64007
285.63979
285.63951
285.63922
285.63893
285.63864
285.63834
285.63804
285.63774
285.63743
285.63713
285.63681
285.6365
285.63618
285.63586
285.63554
285.63521
285.63488
285.63455
285.63421
285.63387
285.63353
285.63318
285.63283
285.63248
285.63212
285.63176
285.6314
285.63104
285.63067
285.6303
285.62992
285.62954
285.62916
285.62878
285.62839
285.628
285.62761
285.62721
285.62681
285.6264
285.626
285.62559
285.62517
285.62476
285.62434
285.62391
285.62349
285.62306
285.62263
285.62219
285.62175
285.62131
285.62087
285.62042
285.61997
285.61951
285.61905
285.61859
285.61813
285.61766
285.61719
285.61672
285.61624
285.61577
285.61528
285.6148
285.61431
285.61382
285.61333
285.61283
285.61233
285.61183
285.61132
285.61081
285.6103
285.60979
285.60927
285.60875
285.60823
285.6077
285.60717
285.60664
285.60611
285.60557
285.60503
285.60449
285.60395
285.6034
285.60285
285.6023
285.60174
285.60119
285.60063
285.60006
285.5995
285.59893
285.59836
285.59779
285.59721
285.59664
285.59606
285.59547
285.59489
285.5943
285.59371
285.59312
285.59253
285.59194
285.59134
285.59074
285.59014
285.58953
285.58893
285.58832
285.58771
285.5871
285.58648
285.58587
285.58525
285.58463
285.58401
285.58339
285.58276
285.58213
285.58151
285.58088
285.58024
285.57961
285.57897
285.57834
285.5777
285.57706
285.57642
285.57577
285.57513
285.57448
285.57384
285.57319
285.57254
285.57189
285.57123
285.57058
285.56992
285.56927
285.56861
285.56795
285.56729
285.56663
285.56597
285.5653
285.56464
285.56397
285.56331
285.56264
285.56197
285.5613
285.56063
285.55996
285.55929
285.55862
285.55795
285.55727
285.5566
285.55592
285.55524
285.55457
285.55389
285.55321
285.55253
285.55185
285.55117
285.55049
285.54981
285.54913
285.54844
285.54776
285.54708
285.54639
285.54571
285.54503
285.54434
285.54366
285.54297
285.54228
285.5416
285.54091
285.54022
285.53953
285.53885
285.53816
285.53747
285.53678
285.53609
285.5354
285.53471
285.53402
285.53333
285.53264
285.53195
285.53126
285.53057
285.52988
285.52918
285.52849
285.5278
285.5271
285.52641
285.52572
285.52502
285.52433
285.52363
285.52294
285.52224
285.52155
285.52085
285.52016
285.51946
285.51876
285.51806
285.51737
285.51667
285.51597
285.51527
285.51457
285.51387
285.51317
285.51247
285.51176
285.51106
285.51035
285.50965
285.50894
285.50824
285.50753
285.50682
285.50611
285.5054
285.50469
285.50398
285.50326
285.50255
285.50183
285.50112
285.5004
285.49968
285.49896
285.49823
285.49751
285.49678
285.49606
285.49533
285.4946
285.49387
285.49313
285.4924
285.49166
285.49092
285.49017
285.48943
285.48868
285.48793
285.48718
285.48643
285.48567
285.48491
285.48415
285.48339
285.48262
285.48185
285.48108
285.4803
285.47952
285.47874
285.47795
285.47716
285.47637
285.47557
285.47477
285.47396
285.47316
285.47234
285.47153
285.47071
285.46988
285.46905
285.46822
285.46738
285.46654
285.46569
285.46484
285.46398
285.46312
285.46226
285.46138
285.46051
285.45962
285.45873
285.45784
285.45694
285.45603
285.45512
285.4542
285.45328
285.45235
285.45141
285.45047
285.44952
285.44857
285.4476
285.44663
285.44566
285.44467
285.44368
285.44269
285.44168
285.44067
285.43965
285.43862
285.43758
285.43654
285.43549
285.43443
285.43336
285.43229
285.4312
285.43011
285.42901
285.4279
285.42678
285.42566
285.42452
285.42338
285.42222
285.42106
285.41989
285.41871
285.41752
285.41632
285.41512
285.4139
285.41267
285.41144
285.41019
285.40894
285.40767
285.4064
285.40512
285.40382
285.40252
285.40121
285.39988
285.39855
285.39721
285.39585
285.39449
285.39312
285.39173
285.39034
285.38894
285.38752
285.3861
285.38467
285.38322
285.38177
285.38031
285.37883
285.37735
285.37586
285.37436
285.37284
285.37132
285.36979
285.36825
285.3667
285.36513
285.36356
285.36198
285.36039
285.35879
285.35718
285.35557
285.35394
285.3523
285.35066
285.349
285.34734
285.34566
285.34398
285.34229
285.34059
285.33889
285.33717
285.33545
285.33372
285.33198
285.33024
285.32848
285.32672
285.32495
285.32318
285.3214
285.31961
285.31781
285.31601
285.3142
285.31238
285.31056
285.30873
285.3069
285.30506
285.30321
285.30136
285.29951
285.29765
285.29578
285.29391
285.29204
285.29016
285.28828
285.2864
285.28451
285.28262
285.28073
285.27883
285.27693
285.27503
285.27313
285.27123
285.26932
285.26741
285.2655
285.2636
285.26169
285.25978
285.25787
285.25596
285.25405
285.25214
285.25023
285.24832
285.24641
285.24451
285.24261
285.24071
285.23881
285.23691
285.23502
285.23313
285.23124
285.22936
285.22748
285.22561
285.22373
285.22187
285.22001
285.21815
285.2163
285.21445
285.21261
285.21078
285.20895
285.20713
285.20531
285.20351
285.20171
285.19991
285.19813
285.19635
285.19459
285.19283
285.19108
285.18933
285.1876
285.18588
285.18416
285.18246
285.18076
285.17907
285.1774
285.17573
285.17408
285.17244
285.1708
285.16918
285.16757
285.16597
285.16438
285.16281
285.16125
285.1597
285.15816
285.15664
285.15513
285.15363
285.15214
285.15067
285.14922
285.14777
285.14634
285.14493
285.14352
285.14214
285.14076
285.1394
285.13806
285.13673
285.13541
285.13411
285.13283
285.13155
285.1303
285.12906
285.12783
285.12662
285.12543
285.12425
285.12309
285.12194
285.12081
285.11969
285.11859
285.11751
285.11644
285.11538
285.11434
285.11332
285.11231
285.11132
285.11034
285.10938
285.10844
285.10751
285.10659
285.10569
285.1048
285.10393
285.10307
285.10223
285.10139
285.10057
285.09977
285.09897
285.09819
285.09741
285.09665
285.0959
285.09515
285.09441
285.09369
285.09297
285.09225
285.09154
285.09084
285.09014
285.08945
285.08877
285.08809
285.08742
285.08675
285.0861
285.08545
285.0848
285.08417
285.08354
285.08293
285.08233
285.08174
285.08116
285.08059
285.08003
285.07949
285.07896
285.07846
285.07798
285.07753
285.07711
285.07672
285.07636
285.07604
285.07574
285.07546
285.07522
285.075
285.0748
285.07462
285.07446
285.07432
285.07419
285.07408
285.07397
285.07388
285.07378
285.0737
285.07361
285.0735
285.07344
285.07335
285.07312
285.07298
285.07294
285.07285
285.07246
285.07197
285.07189
285.07196
285.07219
285.07274
285.07374
285.07569
285.07974
285.0888
285.11024
285.16189
285.28872
285.53985
285.87388
286.28905
286.78362
287.35325
287.99088
288.687
289.43024
290.20788
291.00655
291.81283
292.6138
293.39751
294.15346
294.87275
295.54832
296.17498
296.74942
297.26995
297.73641
298.15002
298.51301
298.82835
299.09963
299.33086
299.52614
299.68953
299.82499
299.93638
300.02722
300.10065
300.15943
300.20605
300.24277
300.2715
300.29377
300.31081
300.32363
300.33312
300.34007
300.34513
300.34881
300.35147
300.35334
300.3546
300.35536
300.35573
300.35584
300.35581
300.35563
300.35524
300.35484
300.35444
300.35404
300.35364
300.35324
300.35285
300.35245
300.35205
300.35165
300.35124
300.35083
300.35041
300.34999
300.34955
300.3491
300.34865
300.34819
300.34772
300.34724
300.34676
300.34628
300.3458
300.34532
300.34485
300.34438
300.34392
300.34347
300.34304
300.34261
300.3422
300.3418
300.34142
300.34106
300.34071
300.34037
300.34006
300.33975
300.33946
300.33919
300.33893
300.33868
300.33844
300.33821
300.338
300.33779
300.33759
300.33741
300.33722
300.33705
300.33688
300.33672
300.33657
300.33642
300.33628
300.33614
300.336
300.33587
300.33574
300.33562
300.3355
300.33538
300.33527
300.33516
300.33505
300.33494
300.33484
300.33474
300.33464
300.33454
300.33445
300.33436
300.33427
300.33418
300.33409
300.33401
300.33392
300.33384
300.33376
300.33368
300.33361
300.33353
300.33346
300.33339
300.33332
300.33325
300.33318
300.33311
300.33305
300.33298
300.33292
300.33286
300.3328
300.33274
300.33268
300.33263
300.33257
300.33252
300.33247
300.33241
300.33236
300.33232
300.33227
300.33222