/*--------------------------------*- C++ -*----------------------------------*\
| =========                 |                                                 |
| \\      /  F ield         | OpenFOAM: The Open Source CFD Toolbox           |
|  \\    /   O peration     | Version:  4.x                                   |
|   \\  /    A nd           | Web:      www.OpenFOAM.org                      |
|    \\/     M anipulation  |                                                 |
\*---------------------------------------------------------------------------*/
FoamFile
{
    version     2.0;
    format      ascii;
    class       volScalarField;
    location    "0.96";
    object      T;
}
// * * * * * * * * * * * * * * * * * * * * * * * * * * * * * * * * * * * * * //

dimensions      [0 0 0 1 0 0 0];

internalField   nonuniform List<scalar> 
6394
(
300.0000027
300.0000013
300.0000013
300.0000013
300.0000013
300.0000013
300.0000012
300.0000012
300.0000043
300.0000027
300.0000026
300.0000026
300.0000026
300.0000025
300.0000024
300.0000023
300.0000043
300.0000027
300.0000026
300.0000026
300.0000025
300.0000024
300.0000024
300.0000023
300.0000043
300.0000027
300.0000026
300.0000025
300.0000025
300.0000024
300.0000024
300.0000023
300.0000043
300.0000027
300.0000026
300.0000025
300.0000025
300.0000024
300.0000023
300.0000022
300.0000043
300.0000027
300.0000026
300.0000025
300.0000025
300.0000024
300.0000023
300.0000022
300.0000066
300.0000043
300.0000041
300.0000041
300.000004
300.0000039
300.0000039
300.0000038
300.0000095
300.0000066
300.0000063
300.0000062
300.0000061
300.0000059
300.0000058
300.0000058
300.0000095
300.0000065
300.0000062
300.0000061
300.0000059
300.0000058
300.0000057
300.0000057
300.0000094
300.0000065
300.0000062
300.0000061
300.000006
300.0000058
300.0000057
300.0000057
300.0000095
300.0000067
300.0000063
300.0000063
300.0000061
300.000006
300.0000059
300.0000059
300.0000097
300.0000069
300.0000066
300.0000065
300.0000063
300.0000062
300.0000061
300.000006
300.0000068
300.0000043
300.0000041
300.000004
300.0000039
300.0000039
300.0000038
300.0000038
300.0000098
300.0000067
300.0000064
300.0000063
300.0000061
300.0000059
300.0000058
300.0000059
300.0000099
300.0000066
300.0000063
300.0000061
300.0000059
300.0000058
300.0000057
300.0000058
300.00001
300.0000067
300.0000064
300.0000063
300.0000061
300.0000059
300.0000059
300.0000061
300.0000105
300.0000073
300.0000069
300.0000067
300.0000065
300.0000064
300.0000065
300.0000067
300.0000111
300.0000078
300.0000074
300.0000072
300.000007
300.0000069
300.000007
300.0000072
300.0000071
300.0000036
300.0000031
300.0000033
300.0000033
300.0000033
300.0000034
300.0000034
300.0000035
300.0000094
300.0000059
300.0000048
300.0000049
300.0000049
300.0000048
300.0000048
300.000005
300.0000053
300.0000096
300.0000062
300.0000049
300.0000049
300.0000048
300.0000047
300.0000047
300.0000049
300.0000053
300.0000102
300.000007
300.0000057
300.0000056
300.0000055
300.0000053
300.0000053
300.0000057
300.0000062
300.0000115
300.0000084
300.0000072
300.000007
300.0000067
300.0000065
300.0000065
300.0000068
300.0000073
300.0000126
300.0000096
300.0000082
300.0000078
300.0000075
300.0000073
300.0000073
300.0000076
300.0000082
300.0000037
300.0000019
300.0000025
300.0000029
300.0000031
300.0000033
300.0000035
300.0000037
300.0000038
300.0000043
300.0000022
300.000003
300.0000037
300.0000041
300.0000044
300.0000048
300.0000051
300.0000055
300.0000048
300.0000026
300.0000033
300.0000039
300.0000041
300.0000044
300.0000047
300.0000051
300.0000057
300.0000067
300.0000046
300.0000051
300.0000054
300.0000054
300.0000054
300.0000056
300.0000062
300.0000069
300.0000095
300.0000076
300.0000077
300.0000075
300.0000071
300.000007
300.0000072
300.0000079
300.0000089
300.0000114
300.0000094
300.0000093
300.0000089
300.0000083
300.0000081
300.0000084
300.0000093
300.0000104
300.0000024
300.0000016
300.0000026
300.0000032
300.0000036
300.0000038
300.0000041
300.0000042
300.0000042
300.0000006
300.0000004
300.0000024
300.0000035
300.0000043
300.000005
300.0000059
300.0000067
300.000007
300.0000013
300.0000008
300.0000027
300.0000037
300.0000044
300.0000052
300.0000062
300.0000071
300.0000077
300.0000044
300.0000037
300.0000051
300.0000057
300.0000061
300.0000067
300.0000076
300.0000086
300.0000095
300.0000083
300.0000074
300.0000084
300.0000084
300.0000084
300.0000088
300.0000095
300.0000105
300.0000115
300.0000104
300.0000093
300.00001
300.0000095
300.0000092
300.0000095
300.0000102
300.0000112
300.0000122
300.0000023
300.0000011
300.0000028
300.0000042
300.0000048
300.0000051
300.000005
300.0000046
300.0000044
300.0000042
299.9999976
299.9999971
300.0000005
300.0000031
300.0000046
300.0000057
300.0000066
300.0000074
300.0000079
300.000008
299.9999971
299.9999963
299.9999999
300.0000027
300.0000041
300.0000053
300.000007
300.0000086
300.0000096
300.0000098
300.0000002
299.9999992
300.0000024
300.0000048
300.0000058
300.0000069
300.0000085
300.00001
300.000011
300.0000114
300.0000044
300.0000038
300.0000064
300.0000079
300.0000082
300.0000087
300.0000097
300.0000109
300.0000119
300.0000125
300.0000068
300.0000059
300.0000082
300.0000093
300.000009
300.0000091
300.0000097
300.0000107
300.0000118
300.0000125
300.0000035
300.0000033
300.0000036
300.0000057
300.0000082
300.0000095
300.0000097
300.0000091
300.0000076
300.0000058
300.0000045
300.0000041
299.9999967
299.9999968
299.9999971
300
300.0000049
300.0000081
300.0000096
300.0000101
300.0000098
300.0000089
300.0000081
300.0000078
299.9999928
299.999993
299.999993
299.999996
300.0000011
300.0000044
300.0000062
300.0000077
300.0000088
300.0000096
300.0000099
300.0000098
299.9999932
299.9999939
299.9999937
299.9999967
300.0000017
300.0000045
300.0000058
300.0000073
300.000009
300.0000103
300.000011
300.0000113
299.9999972
299.9999988
299.9999965
299.9999993
300.0000038
300.0000058
300.0000066
300.0000078
300.0000093
300.0000106
300.0000115
300.0000119
300.0000005
300.0000007
300.0000047
300.0000063
300.0000066
300.0000075
300.0000087
300.0000099
300.0000109
300.0000115
300.00001
300.0000124
300.0000154
300.0000184
300.0000205
300.0000212
300.0000204
300.0000177
300.0000134
300.0000089
300.0000058
300.0000046
300.0000039
300.0000066
300.0000101
300.0000161
300.0000217
300.0000246
300.0000248
300.0000223
300.0000176
300.0000124
300.0000088
300.0000074
299.9999936
299.9999956
299.9999979
300.0000034
300.0000096
300.0000131
300.0000145
300.0000144
300.0000129
300.0000108
300.0000091
300.0000083
299.9999892
299.9999915
299.9999936
299.9999983
300.0000037
300.0000064
300.0000078
300.0000089
300.0000094
300.0000093
300.0000091
300.000009
299.9999895
299.9999907
299.9999926
299.9999978
300.0000024
300.0000043
300.0000051
300.000006
300.000007
300.000008
300.0000084
300.0000086
299.9999929
299.9999965
300.0000006
300.0000019
300.0000024
300.0000033
300.000005
300.000006
300.0000066
300.0000069
300.0000245
300.0000308
300.000035
300.0000379
300.0000396
300.0000398
300.0000375
300.0000319
300.0000238
300.0000155
300.0000098
300.0000074
300.000031
300.0000419
300.000051
300.0000588
300.0000637
300.0000649
300.0000612
300.0000512
300.0000365
300.000022
300.0000127
300.0000094
300.0000074
300.0000161
300.0000236
300.0000318
300.0000379
300.0000403
300.0000389
300.0000332
300.0000243
300.0000152
300.0000091
300.000007
299.9999912
299.9999979
300.0000035
300.0000103
300.0000156
300.0000178
300.0000178
300.000016
300.0000123
300.0000077
300.0000034
300.0000024
299.9999808
299.999987
299.9999948
300.0000009
300.0000052
300.0000067
300.000007
300.0000064
300.0000038
300.0000004
299.9999987
299.9999984
299.9999877
299.9999955
299.9999996
300.0000008
300.0000006
299.999999
299.9999964
299.999995
299.9999941
299.9999938
300.000042
300.0000509
300.0000555
300.0000583
300.0000604
300.0000608
300.0000575
300.0000494
300.0000379
300.0000264
300.0000181
300.0000146
300.0000857
300.0001027
300.0001142
300.0001222
300.000127
300.000127
300.0001183
300.0000985
300.0000711
300.0000442
300.0000259
300.0000193
300.0000554
300.0000756
300.00009
300.0000999
300.000105
300.0001047
300.0000963
300.0000779
300.0000526
300.0000286
300.0000144
300.00001
300.0000137
300.0000297
300.0000421
300.0000509
300.0000551
300.000055
300.0000501
300.0000392
300.0000243
300.00001
300.0000009
299.9999985
299.9999848
299.9999961
300.0000126
300.0000196
300.0000229
300.000023
300.0000203
300.0000141
300.0000048
299.9999929
299.9999857
299.9999854
299.9999906
300.0000018
300.0000056
300.0000061
300.0000042
299.9999992
299.9999888
299.9999778
299.9999731
299.9999743
300.0000575
300.0000672
300.0000712
300.0000738
300.0000764
300.0000775
300.0000743
300.0000654
300.0000524
300.0000392
300.0000298
300.0000257
300.0001474
300.0001657
300.0001771
300.0001852
300.0001914
300.000192
300.0001804
300.0001533
300.000116
300.0000796
300.0000548
300.0000452
300.0001447
300.0001696
300.0001865
300.0001974
300.000203
300.0002005
300.0001832
300.0001483
300.0001031
300.0000606
300.0000335
300.0000254
300.0000891
300.0001169
300.0001368
300.0001476
300.0001508
300.0001466
300.00013
300.0000984
300.0000577
300.0000232
300.0000056
300.0000018
300.0000249
300.0000441
300.0000723
300.0000796
300.0000804
300.0000764
300.0000649
300.0000435
300.0000167
299.9999937
299.9999813
299.999981
300.0000194
300.0000344
300.0000365
300.0000339
300.0000257
300.0000101
299.9999895
299.9999679
299.9999583
299.9999625
300.0000695
300.0000775
300.0000796
300.0000811
300.0000836
300.0000854
300.0000832
300.0000753
300.0000631
300.0000505
300.0000414
300.0000374
300.0002024
300.0002164
300.0002242
300.0002307
300.0002377
300.0002401
300.0002292
300.0002004
300.0001597
300.0001198
300.0000927
300.0000826
300.0002468
300.0002686
300.0002839
300.0002948
300.0003021
300.0002998
300.000277
300.0002297
300.0001679
300.000111
300.0000762
300.0000654
300.0002108
300.0002366
300.000257
300.0002685
300.0002731
300.0002668
300.0002398
300.0001881
300.0001214
300.00006
300.000028
300.0000221
300.0001323
300.0001554
300.0001929
300.0002011
300.0002009
300.0001903
300.0001615
300.0001119
300.0000525
300.0000069
299.9999875
299.9999874
300.0000995
300.00012
300.0001193
300.0001097
300.0000864
300.0000464
300.0000022
299.9999693
299.9999568
299.999963
300.000077
300.0000821
300.0000814
300.000081
300.0000824
300.0000842
300.0000831
300.0000773
300.0000677
300.0000575
300.00005
300.0000466
300.0002418
300.0002481
300.0002485
300.0002498
300.0002548
300.0002585
300.0002511
300.000227
300.0001906
300.000154
300.0001291
300.0001197
300.0003378
300.0003507
300.000358
300.0003642
300.0003713
300.0003715
300.0003504
300.0003011
300.0002343
300.0001721
300.0001351
300.0001252
300.00034
300.0003587
300.0003729
300.0003819
300.0003868
300.0003798
300.0003457
300.0002815
300.0002005
300.0001271
300.0000865
300.0000798
300.0002936
300.0003116
300.0003307
300.00034
300.0003415
300.0003293
300.000288
300.0002122
300.0001208
300.000046
300.0000166
300.0000191
300.0002383
300.0002326
300.0002482
300.0002586
300.0002553
300.000238
300.0001954
300.0001241
300.0000413
299.9999853
299.9999684
299.9999806
300.0000044
300.0000027
300.0000026
300.0000026
300.0000025
300.0000025
300.0000024
300.0000023
300.0000046
300.0000028
300.0000027
300.0000027
300.0000026
300.0000025
300.0000025
300.0000024
300.0000048
300.000003
300.0000028
300.0000028
300.0000027
300.0000026
300.0000026
300.0000025
300.000005
300.0000031
300.0000029
300.0000029
300.0000028
300.0000027
300.0000027
300.0000026
300.0000051
300.0000031
300.000003
300.0000029
300.0000029
300.0000028
300.0000027
300.0000026
300.000005
300.0000031
300.000003
300.000003
300.000003
300.0000029
300.0000028
300.0000027
300.0000052
300.0000033
300.0000032
300.0000032
300.0000032
300.0000031
300.000003
300.0000028
300.0000073
300.0000055
300.0000054
300.0000054
300.0000054
300.0000053
300.0000053
300.0000029
300.0000073
300.0000099
300.0000071
300.0000067
300.0000066
300.0000065
300.0000063
300.0000062
300.0000061
300.0000102
300.0000072
300.0000069
300.0000068
300.0000066
300.0000065
300.0000063
300.0000062
300.0000103
300.0000073
300.000007
300.0000069
300.0000067
300.0000065
300.0000063
300.0000062
300.0000104
300.0000073
300.000007
300.0000069
300.0000067
300.0000065
300.0000063
300.0000062
300.0000104
300.0000072
300.0000069
300.0000068
300.0000066
300.0000064
300.0000063
300.0000062
300.0000104
300.0000072
300.0000069
300.0000068
300.0000066
300.0000064
300.0000063
300.0000062
300.0000107
300.0000075
300.0000072
300.0000071
300.0000069
300.0000067
300.0000066
300.0000062
300.0000141
300.0000109
300.0000105
300.0000104
300.0000101
300.0000098
300.0000095
300.0000063
300.0000125
300.0000113
300.000008
300.0000076
300.0000074
300.0000073
300.0000071
300.0000072
300.0000073
300.000011
300.0000077
300.0000074
300.0000073
300.0000072
300.0000071
300.0000071
300.0000072
300.0000102
300.0000072
300.0000071
300.0000071
300.0000069
300.0000068
300.0000068
300.0000069
300.0000097
300.0000068
300.0000067
300.0000067
300.0000066
300.0000064
300.0000064
300.0000065
300.0000095
300.0000065
300.0000064
300.0000064
300.0000062
300.000006
300.0000061
300.0000062
300.0000096
300.0000064
300.0000062
300.0000061
300.0000059
300.0000058
300.0000059
300.000006
300.0000103
300.0000068
300.0000064
300.0000062
300.000006
300.0000059
300.000006
300.0000059
300.0000144
300.0000106
300.0000099
300.0000095
300.0000091
300.0000089
300.0000088
300.0000057
300.0000118
300.0000128
300.0000095
300.0000081
300.0000078
300.0000075
300.0000074
300.0000075
300.0000079
300.0000085
300.0000136
300.0000079
300.0000067
300.0000067
300.0000067
300.0000067
300.0000069
300.0000074
300.000008
300.0000071
300.0000046
300.000005
300.0000053
300.0000054
300.0000058
300.0000063
300.0000069
300.0000044
300.0000025
300.0000033
300.0000037
300.0000039
300.0000043
300.000005
300.0000058
300.0000031
300.0000013
300.0000019
300.0000022
300.0000024
300.0000029
300.0000039
300.0000048
300.0000031
300.0000008
300.000001
300.000001
300.0000011
300.0000018
300.000003
300.000004
300.0000044
300.0000009
300.0000003
300
300.0000001
300.000001
300.0000023
300.0000031
300.0000096
300.0000048
300.0000034
300.0000026
300.0000025
300.0000032
300.0000042
300.0000016
300.0000071
300.0000112
300.0000086
300.0000086
300.0000082
300.0000078
300.0000078
300.0000084
300.0000093
300.0000104
300.0000116
300.000005
300.0000054
300.0000056
300.0000057
300.0000062
300.000007
300.0000081
300.0000091
300.0000028
300.0000008
300.0000016
300.0000024
300.0000033
300.0000046
300.0000061
300.0000071
299.9999973
299.999996
299.9999974
299.9999987
300.0000001
300.0000019
300.0000038
300.0000051
299.9999934
299.9999921
299.9999937
299.9999953
299.9999971
299.9999993
300.0000016
300.0000033
299.9999913
299.9999892
299.9999905
299.999992
299.9999941
299.9999968
299.9999995
300.0000016
299.9999909
299.9999873
299.9999875
299.9999888
299.9999911
299.9999941
299.9999972
299.9999993
299.9999958
299.9999901
299.999989
299.9999898
299.999992
299.9999949
299.9999977
299.999996
300.0000009
300.0000097
300.000008
300.0000087
300.0000084
300.0000081
300.0000085
300.0000094
300.0000106
300.0000115
300.0000089
300.0000028
300.0000043
300.0000047
300.000005
300.0000059
300.0000072
300.0000086
300.0000095
299.999999
299.9999975
299.9999989
300.0000003
300.000002
300.0000041
300.000006
300.000007
299.999991
299.99999
299.9999926
299.999995
299.9999976
300.0000005
300.000003
300.0000045
299.999984
299.9999832
299.9999866
299.9999898
299.9999932
299.9999969
300.0000001
300.000002
299.9999782
299.9999769
299.9999805
299.9999843
299.9999885
299.999993
299.9999969
299.9999995
299.9999743
299.9999712
299.9999742
299.9999783
299.9999833
299.9999885
299.9999931
299.9999959
299.9999771
299.9999714
299.9999731
299.9999771
299.9999824
299.9999876
299.9999919
299.9999907
299.9999945
300.0000062
300.0000039
300.0000063
300.0000077
300.0000076
300.0000077
300.0000083
300.0000094
300.0000107
300.0000115
300.0000022
299.9999983
299.9999995
300.0000023
300.0000032
300.000004
300.0000053
300.000007
300.0000084
300.0000092
299.9999953
299.9999928
299.9999909
299.999994
299.9999966
299.9999986
300.0000009
300.0000034
300.0000054
300.0000063
299.9999892
299.9999829
299.999981
299.9999848
299.999989
299.9999924
299.9999959
299.9999992
300.0000018
300.000003
299.9999831
299.9999742
299.9999713
299.9999757
299.9999813
299.9999859
299.9999903
299.9999945
299.9999977
299.9999995
299.9999771
299.9999661
299.9999617
299.9999662
299.9999727
299.9999784
299.9999839
299.999989
299.999993
299.9999955
299.9999724
299.9999602
299.9999535
299.9999567
299.9999632
299.9999698
299.9999764
299.9999825
299.9999874
299.9999901
299.9999728
299.9999615
299.9999534
299.9999539
299.9999592
299.9999656
299.9999725
299.999979
299.9999839
299.9999825
299.9999845
299.9999994
299.9999983
300.0000022
300.0000043
300.0000048
300.0000057
300.0000068
300.0000081
300.0000093
300.0000098
299.9999943
299.9999913
299.9999953
299.9999988
300.0000004
300.0000019
300.0000036
300.0000054
300.0000067
300.000007
299.9999878
299.9999828
299.9999855
299.9999907
299.9999941
299.9999967
299.9999995
300.0000018
300.0000032
300.0000036
299.99998
299.9999729
299.9999749
299.9999814
299.9999867
299.9999907
299.9999942
299.9999972
299.9999989
299.9999994
299.9999711
299.9999624
299.9999636
299.9999713
299.9999784
299.9999837
299.999988
299.9999913
299.9999934
299.9999943
299.9999621
299.9999514
299.9999515
299.9999598
299.9999682
299.9999747
299.9999799
299.9999838
299.9999866
299.9999882
299.9999548
299.9999421
299.9999399
299.9999471
299.999956
299.9999633
299.9999693
299.9999741
299.9999779
299.9999803
299.9999547
299.9999413
299.9999363
299.9999407
299.9999482
299.9999554
299.9999616
299.9999669
299.9999714
299.9999702
299.9999709
299.9999913
299.9999932
299.9999972
299.9999991
299.9999997
300.0000008
300.0000024
300.0000034
300.000004
300.000004
299.9999867
299.9999862
299.9999909
299.9999945
299.9999963
299.9999978
299.9999996
300.0000007
300.0000011
300.0000007
299.9999795
299.9999771
299.9999818
299.9999878
299.9999917
299.9999941
299.9999964
299.9999977
299.9999979
299.999997
299.9999704
299.9999669
299.9999717
299.9999798
299.9999858
299.9999896
299.9999921
299.9999935
299.9999934
299.9999926
299.9999599
299.9999555
299.9999605
299.9999702
299.999978
299.9999832
299.9999864
299.9999876
299.9999876
299.9999874
299.9999492
299.9999432
299.9999475
299.9999581
299.9999673
299.9999735
299.9999769
299.9999784
299.999979
299.9999798
299.99994
299.9999315
299.9999336
299.9999432
299.9999528
299.9999593
299.9999629
299.9999648
299.9999667
299.9999691
299.9999372
299.9999269
299.9999255
299.999932
299.9999402
299.9999465
299.9999506
299.9999532
299.9999567
299.999957
299.9999558
299.9999839
299.9999898
299.999994
299.9999957
299.9999956
299.9999939
299.999992
299.9999908
299.9999897
299.999989
299.999979
299.9999823
299.9999876
299.9999914
299.9999927
299.9999919
299.9999903
299.9999888
299.999987
299.9999858
299.9999715
299.9999732
299.9999799
299.9999866
299.9999906
299.9999915
299.9999903
299.9999883
299.9999858
299.9999844
299.999962
299.9999634
299.9999713
299.9999805
299.9999871
299.9999902
299.9999903
299.9999879
299.9999851
299.9999838
299.9999512
299.9999526
299.9999611
299.9999725
299.9999811
299.9999855
299.9999866
299.9999846
299.9999818
299.9999809
299.99994
299.9999405
299.9999484
299.9999608
299.9999705
299.9999754
299.9999766
299.9999745
299.9999726
299.9999731
299.9999297
299.9999279
299.9999335
299.9999446
299.9999541
299.999959
299.9999593
299.9999572
299.999957
299.9999603
299.9999234
299.9999189
299.9999215
299.9999294
299.9999371
299.9999409
299.9999411
299.9999404
299.9999424
299.9999469
299.9999408
299.9999826
299.9999911
299.9999954
299.9999967
299.9999955
299.9999897
299.9999785
299.9999692
299.9999653
299.9999671
299.9999755
299.9999818
299.9999875
299.9999914
299.9999921
299.9999875
299.9999776
299.9999686
299.9999645
299.9999661
299.9999665
299.9999722
299.9999805
299.9999884
299.9999925
299.9999911
299.9999831
299.9999741
299.9999693
299.9999703
299.999956
299.999963
299.9999746
299.9999872
299.9999953
299.9999963
299.9999909
299.9999822
299.9999768
299.999977
299.9999454
299.9999536
299.9999686
299.9999852
299.9999958
299.9999971
299.9999911
299.9999836
299.9999782
299.999978
299.9999353
299.9999431
299.9999588
299.9999763
299.9999867
299.9999871
299.9999808
299.9999737
299.9999695
299.9999709
299.9999255
299.9999307
299.9999431
299.9999579
299.9999662
299.9999656
299.9999599
299.9999533
299.9999513
299.9999573
299.9999166
299.999919
299.9999266
299.9999364
299.9999419
299.9999415
299.9999364
299.9999311
299.9999313
299.9999437
299.9999316
299.9999992
300.0000097
300.0000124
300.0000116
300.0000056
299.9999924
299.9999716
299.9999513
299.9999448
299.9999521
299.9999847
299.9999923
299.999998
300.0000016
299.9999994
299.9999885
299.9999688
299.9999506
299.9999451
299.9999533
299.9999702
299.9999789
299.9999912
300.0000023
300.0000044
299.9999951
299.9999787
299.9999618
299.9999565
299.9999642
299.9999572
299.9999696
299.9999904
300.0000102
300.0000185
300.000011
299.9999954
299.9999799
299.9999733
299.999977
299.9999463
299.9999629
299.9999911
300.0000176
300.0000293
300.0000219
300.0000044
299.9999865
299.9999791
299.9999812
299.9999373
299.9999564
299.999988
300.0000164
300.000026
300.0000154
299.9999958
299.9999778
299.9999713
299.9999754
299.9999298
299.9999471
299.999976
299.9999992
300.0000028
299.9999888
299.9999691
299.9999548
299.999952
299.9999622
299.9999224
299.9999352
299.9999567
299.9999722
299.9999718
299.9999584
299.999942
299.9999314
299.999931
299.9999508
299.9999396
300.000049
300.0000592
300.0000587
300.000053
300.000037
300.0000078
299.9999731
299.999945
299.9999373
299.9999504
300.0000158
300.0000226
300.0000259
300.0000271
300.0000189
299.9999967
299.9999666
299.9999418
299.9999372
299.9999528
299.999987
299.9999979
300.0000114
300.0000237
300.0000245
300.0000097
299.9999795
299.999957
299.9999528
299.9999676
299.9999662
299.9999845
300.0000142
300.0000398
300.0000526
300.0000434
300.0000102
299.999983
299.9999758
299.999987
299.9999539
299.9999868
300.0000323
300.000067
300.0000792
300.0000654
300.0000294
299.9999957
299.9999872
299.999998
299.9999501
299.999996
300.0000463
300.0000773
300.0000825
300.0000615
300.0000207
299.999988
299.9999811
299.9999953
299.9999503
299.9999958
300.0000409
300.0000642
300.0000601
300.000031
299.9999878
299.9999627
299.9999608
299.999984
299.9999474
299.9999825
300.0000191
300.0000341
300.0000232
299.999993
299.9999569
299.9999407
299.9999425
299.9999792
299.9999785
300.0002302
300.0002089
300.000202
300.0002032
300.000196
300.0001779
300.000136
300.0000663
299.9999917
299.9999532
299.9999493
299.9999753
300.0001961
300.0001641
300.000141
300.0001337
300.0001272
300.0001161
300.0000835
300.0000253
299.999967
299.9999412
299.9999462
299.9999797
300.0001373
300.0001014
300.000074
300.0000703
300.000074
300.0000781
300.0000635
300.0000192
299.9999714
299.9999515
299.9999619
300.000003
300.0000735
300.0000371
300.0000181
300.0000262
300.00005
300.0000762
300.0000765
300.0000431
300.000003
299.9999845
299.9999971
300.00004
300.0000212
299.9999888
299.9999844
300.0000081
300.0000547
300.0000968
300.0001068
300.0000762
300.0000336
300.0000149
300.0000252
300.0000665
299.9999997
299.9999745
299.9999794
300.0000147
300.000075
300.0001207
300.0001207
300.0000787
300.0000317
300.0000132
300.0000258
300.0000709
300.0000126
299.9999878
299.9999924
300.0000275
300.0000849
300.000117
300.0001006
300.0000498
300.0000043
299.9999904
300.0000117
300.000068
300.0000425
300.0000127
300.0000078
300.0000311
300.0000741
300.0000935
300.0000741
300.0000298
299.9999942
299.9999853
300.0000132
300.0000847
300.0001179
300.0000011
300.0000011
300.0000011
300.0000011
300.0000011
300.0000009
300.0000023
300.0000022
300.0000022
300.0000022
300.0000021
300.0000015
300.0000022
300.0000022
300.0000022
300.0000022
300.0000021
300.0000014
300.0000022
300.0000022
300.0000022
300.0000021
300.000002
300.0000014
300.0000022
300.0000021
300.0000021
300.0000021
300.000002
300.0000014
300.0000022
300.0000021
300.0000021
300.0000021
300.0000021
300.0000015
300.0000038
300.0000038
300.0000038
300.0000038
300.0000037
300.0000027
300.0000058
300.0000059
300.0000058
300.0000057
300.0000055
300.0000037
300.0000057
300.0000058
300.0000057
300.0000056
300.0000054
300.0000036
300.0000058
300.0000058
300.0000058
300.0000057
300.0000055
300.0000036
300.0000059
300.0000059
300.0000059
300.0000058
300.0000056
300.0000037
300.000006
300.000006
300.000006
300.000006
300.0000058
300.0000038
300.0000039
300.0000039
300.0000039
300.0000037
300.0000036
300.0000025
300.0000061
300.0000061
300.000006
300.0000058
300.0000055
300.0000035
300.0000061
300.0000061
300.000006
300.0000058
300.0000055
300.0000035
300.0000064
300.0000065
300.0000063
300.0000061
300.0000057
300.0000036
300.000007
300.000007
300.0000069
300.0000066
300.0000062
300.0000038
300.0000074
300.0000074
300.0000072
300.0000069
300.0000064
300.0000039
300.0000036
300.0000035
300.0000032
300.000003
300.0000028
300.000002
300.0000054
300.0000053
300.0000049
300.0000045
300.0000042
300.0000027
300.0000057
300.0000056
300.0000051
300.0000046
300.0000043
300.0000028
300.0000066
300.0000066
300.0000061
300.0000055
300.000005
300.0000032
300.0000078
300.0000078
300.0000073
300.0000066
300.0000059
300.0000035
300.0000088
300.0000087
300.000008
300.0000071
300.0000062
300.0000035
300.0000037
300.0000035
300.0000031
300.0000028
300.0000026
300.0000019
300.0000056
300.0000052
300.0000044
300.0000037
300.0000035
300.0000025
300.0000059
300.0000056
300.0000048
300.000004
300.0000037
300.0000026
300.0000074
300.0000071
300.0000062
300.0000053
300.0000047
300.000003
300.0000096
300.0000094
300.0000081
300.0000067
300.0000056
300.0000032
300.000011
300.0000105
300.000009
300.0000072
300.0000057
300.0000031
300.0000041
300.0000038
300.0000035
300.0000032
300.0000029
300.000002
300.0000068
300.000006
300.0000049
300.0000042
300.000004
300.0000027
300.0000077
300.0000068
300.0000054
300.0000045
300.0000041
300.0000029
300.0000097
300.000009
300.0000073
300.0000058
300.000005
300.0000031
300.0000118
300.0000111
300.0000093
300.0000073
300.0000056
300.0000031
300.0000124
300.0000116
300.0000096
300.0000072
300.0000052
300.0000027
300.0000042
300.0000042
300.0000042
300.0000041
300.0000037
300.0000021
300.0000078
300.0000072
300.0000064
300.0000059
300.0000057
300.0000033
300.0000095
300.0000086
300.0000072
300.0000062
300.0000057
300.0000036
300.0000113
300.0000104
300.0000088
300.0000071
300.0000059
300.0000035
300.0000125
300.0000116
300.0000097
300.0000075
300.0000058
300.0000032
300.0000126
300.0000116
300.0000094
300.0000067
300.0000046
300.0000026
300.0000041
300.0000046
300.0000051
300.0000054
300.0000048
300.0000024
300.0000077
300.0000079
300.0000083
300.0000088
300.0000086
300.0000044
300.0000096
300.0000093
300.0000088
300.0000087
300.0000086
300.000005
300.0000111
300.0000105
300.0000094
300.0000084
300.0000078
300.0000047
300.0000119
300.000011
300.0000093
300.0000076
300.0000064
300.0000039
300.0000114
300.0000101
300.0000078
300.0000055
300.0000047
300.0000033
300.0000047
300.0000058
300.0000071
300.0000078
300.0000068
300.0000029
300.0000078
300.0000094
300.0000118
300.0000139
300.0000137
300.0000064
300.0000085
300.0000097
300.0000112
300.0000132
300.0000142
300.0000078
300.000009
300.0000092
300.0000099
300.0000109
300.000012
300.0000074
300.0000085
300.000008
300.0000077
300.0000082
300.0000092
300.0000064
300.0000066
300.0000054
300.0000044
300.0000054
300.0000069
300.0000058
300.0000076
300.0000093
300.0000115
300.0000125
300.0000103
300.0000039
300.0000102
300.0000141
300.0000197
300.0000244
300.0000235
300.0000101
300.0000081
300.0000116
300.000017
300.0000231
300.000026
300.0000131
300.0000039
300.0000079
300.0000122
300.0000179
300.0000226
300.0000131
299.9999995
300.0000028
300.0000076
300.0000125
300.0000182
300.000012
299.9999946
299.9999975
300.000003
300.0000086
300.0000158
300.0000117
300.0000147
300.000017
300.0000197
300.00002
300.0000154
300.0000052
300.0000207
300.000028
300.000038
300.0000445
300.0000391
300.0000152
300.0000123
300.0000203
300.0000324
300.0000452
300.0000476
300.0000212
300.0000027
300.0000104
300.0000214
300.000036
300.0000448
300.0000222
299.9999917
300.0000017
300.0000121
300.0000267
300.0000394
300.0000212
299.9999819
299.9999938
300.0000059
300.0000217
300.0000374
300.0000209
300.0000257
300.0000281
300.00003
300.0000284
300.0000201
300.0000062
300.0000473
300.0000574
300.0000684
300.0000716
300.0000564
300.0000201
300.0000303
300.0000457
300.0000676
300.0000833
300.0000751
300.0000297
300.0000088
300.0000244
300.0000487
300.0000742
300.0000765
300.0000325
299.9999918
300.000008
300.0000312
300.000061
300.0000718
300.0000319
299.9999781
299.9999973
300.0000218
300.0000549
300.0000696
300.0000315
300.0000372
300.0000388
300.0000392
300.0000348
300.0000231
300.0000065
300.0000848
300.0000944
300.0001017
300.000097
300.0000698
300.0000233
300.0000741
300.0000964
300.0001193
300.0001271
300.0001004
300.0000363
300.000036
300.0000664
300.0001046
300.0001262
300.0001095
300.0000416
300.0000047
300.0000356
300.0000811
300.0001148
300.0001074
300.0000419
299.9999851
300.0000186
300.000068
300.0001076
300.0001052
300.0000414
300.0000461
300.0000467
300.0000454
300.0000386
300.0000244
300.0000066
300.0001212
300.0001274
300.0001288
300.0001147
300.0000777
300.0000249
300.0001357
300.0001569
300.0001715
300.000164
300.0001182
300.0000404
300.0001021
300.0001395
300.0001711
300.0001781
300.0001361
300.0000481
300.0000517
300.0001047
300.000154
300.0001732
300.0001385
300.0000498
300.0000194
300.0000797
300.00014
300.0001666
300.0001366
300.0000494
300.0000022
300.0000022
300.0000022
300.0000022
300.0000021
300.0000015
300.0000023
300.0000023
300.0000023
300.0000023
300.0000022
300.0000016
300.0000024
300.0000024
300.0000024
300.0000024
300.0000023
300.0000016
300.0000025
300.0000025
300.0000025
300.0000025
300.0000024
300.0000016
300.0000026
300.0000026
300.0000026
300.0000026
300.0000024