/*--------------------------------*- C++ -*----------------------------------*\
  =========                 |
  \\      /  F ield         | OpenFOAM: The Open Source CFD Toolbox
   \\    /   O peration     | Website:  https://openfoam.org
    \\  /    A nd           | Version:  7
     \\/     M anipulation  |
\*---------------------------------------------------------------------------*/
FoamFile
{
    version     2.0;
    format      ascii;
    class       surfaceScalarField;
    location    "0.00088";
    object      phi;
}
// * * * * * * * * * * * * * * * * * * * * * * * * * * * * * * * * * * * * * //

dimensions      [1 0 -1 0 0 0 0];

internalField   nonuniform List<scalar> 
4999
(
1.7053026e-13
1.7053026e-13
1.8474111e-13
1.8474111e-13
1.9895197e-13
1.8474111e-13
1.9184654e-13
1.9184654e-13
1.9895197e-13
1.8474111e-13
1.8474111e-13
1.6342483e-13
1.4921397e-13
1.4921397e-13
1.4210855e-13
1.4210855e-13
1.6342483e-13
1.6342483e-13
1.4210855e-13
1.2789769e-13
1.4921397e-13
1.4921397e-13
1.563194e-13
1.7763568e-13
1.7053026e-13
1.6342483e-13
1.8474111e-13
1.9184654e-13
2.0605739e-13
2.0605739e-13
2.0605739e-13
1.9184654e-13
1.9184654e-13
1.9895197e-13
1.8474111e-13
1.7053026e-13
1.7053026e-13
1.7053026e-13
1.7053026e-13
1.7763568e-13
1.4210855e-13
1.4210855e-13
1.563194e-13
1.4210855e-13
1.3500312e-13
1.3500312e-13
1.3500312e-13
1.3500312e-13
1.4921397e-13
1.4210855e-13
1.4921397e-13
1.4921397e-13
1.4921397e-13
1.4921397e-13
1.2789769e-13
1.4921397e-13
1.6342483e-13
1.4210855e-13
1.3500312e-13
1.2079227e-13
1.2789769e-13
1.2079227e-13
1.3500312e-13
1.3500312e-13
1.2789769e-13
1.4210855e-13
1.4210855e-13
1.563194e-13
1.3500312e-13
1.1368684e-13
1.2079227e-13
1.3500312e-13
1.1368684e-13
1.0658141e-13
1.1368684e-13
1.1368684e-13
1.0658141e-13
1.2789769e-13
1.3500312e-13
1.1368684e-13
1.2079227e-13
1.2789769e-13
1.3500312e-13
9.9475983e-14
9.9475983e-14
1.1368684e-13
1.1368684e-13
1.1368684e-13
9.2370556e-14
1.2079227e-13
1.1368684e-13
1.2079227e-13
1.2079227e-13
1.3500312e-13
1.1368684e-13
1.2079227e-13
1.2789769e-13
1.0658141e-13
1.1368684e-13
1.4921397e-13
1.3500312e-13
1.563194e-13
1.4210855e-13
1.4921397e-13
1.4210855e-13
1.6342483e-13
1.563194e-13
1.6342483e-13
1.563194e-13
1.563194e-13
1.4921397e-13
1.4921397e-13
1.563194e-13
1.4921397e-13
1.2789769e-13
1.3500312e-13
1.2079227e-13
1.2079227e-13
1.1368684e-13
1.2789769e-13
1.3500312e-13
1.3500312e-13
1.4921397e-13
1.4921397e-13
1.4921397e-13
1.4921397e-13
1.3500312e-13
1.2789769e-13
1.6342483e-13
1.563194e-13
1.4921397e-13
1.7053026e-13
1.6342483e-13
1.4921397e-13
1.4210855e-13
1.4210855e-13
1.2789769e-13
1.2789769e-13
1.4210855e-13
1.4210855e-13
1.4210855e-13
1.2789769e-13
1.4210855e-13
1.4921397e-13
1.3500312e-13
1.3500312e-13
1.4921397e-13
1.4921397e-13
1.3500312e-13
1.2079227e-13
1.4210855e-13
1.2789769e-13
1.2079227e-13
1.3500312e-13
1.3500312e-13
1.7053026e-13
1.4210855e-13
1.4921397e-13
1.4210855e-13
1.3500312e-13
1.4921397e-13
1.3500312e-13
1.4921397e-13
1.2079227e-13
1.4210855e-13
1.1368684e-13
1.3500312e-13
1.563194e-13
1.2789769e-13
1.563194e-13
1.1368684e-13
1.2079227e-13
1.1368684e-13
1.2079227e-13
1.4210855e-13
1.4921397e-13
1.4210855e-13
1.3500312e-13
1.3500312e-13
1.2079227e-13
1.1368684e-13
1.3500312e-13
1.2789769e-13
1.2079227e-13
1.1368684e-13
1.3500312e-13
1.3500312e-13
1.1368684e-13
1.4210855e-13
1.6342483e-13
1.3500312e-13
1.563194e-13
1.6342483e-13
1.4210855e-13
1.3500312e-13
1.4210855e-13
1.4210855e-13
1.4210855e-13
1.4921397e-13
1.4921397e-13
1.4921397e-13
1.4921397e-13
1.4921397e-13
1.4921397e-13
1.3500312e-13
1.3500312e-13
1.4921397e-13
1.2789769e-13
1.3500312e-13
1.4921397e-13
1.4210855e-13
1.4921397e-13
1.2789769e-13
1.2079227e-13
1.2789769e-13
1.4210855e-13
1.4210855e-13
1.1368684e-13
1.1368684e-13
1.3500312e-13
1.2079227e-13
1.1368684e-13
1.2789769e-13
1.4210855e-13
1.563194e-13
1.7053026e-13
1.563194e-13
1.7053026e-13
1.7763568e-13
1.9184654e-13
1.9184654e-13
1.7053026e-13
1.9184654e-13
1.7053026e-13
1.7053026e-13
1.4921397e-13
1.3500312e-13
1.7053026e-13
1.6342483e-13
1.7053026e-13
1.7763568e-13
1.563194e-13
1.6342483e-13
1.4210855e-13
1.4921397e-13
1.9184654e-13
2.0605739e-13
1.8474111e-13
1.6342483e-13
1.8474111e-13
2.0605739e-13
2.0605739e-13
2.1316282e-13
2.0605739e-13
2.0605739e-13
2.0605739e-13
2.5579538e-13
2.4158453e-13
2.4158453e-13
2.2026825e-13
2.1316282e-13
2.2026825e-13
1.9184654e-13
1.9184654e-13
2.2026825e-13
2.2026825e-13
2.1316282e-13
2.5579538e-13
2.4868996e-13
2.1316282e-13
2.2737368e-13
2.4158453e-13
2.2026825e-13
2.2026825e-13
2.2737368e-13
2.2026825e-13
2.344791e-13
2.1316282e-13
2.1316282e-13
2.1316282e-13
1.9895197e-13
1.9184654e-13
2.1316282e-13
2.2026825e-13
1.9184654e-13
1.7053026e-13
1.6342483e-13
1.563194e-13
1.7053026e-13
1.8474111e-13
1.8474111e-13
1.6342483e-13
1.8474111e-13
1.9895197e-13
1.9895197e-13
2.0605739e-13
1.9895197e-13
1.9895197e-13
1.8474111e-13
1.9184654e-13
1.9895197e-13
1.7763568e-13
1.9895197e-13
2.2026825e-13
2.0605739e-13
2.1316282e-13
1.9895197e-13
1.8474111e-13
2.0605739e-13
1.9184654e-13
2.1316282e-13
1.6342483e-13
1.7763568e-13
1.9184654e-13
1.9895197e-13
2.0605739e-13
2.1316282e-13
2.2737368e-13
1.9895197e-13
1.9895197e-13
1.9184654e-13
1.9184654e-13
2.0605739e-13
2.0605739e-13
1.8474111e-13
1.9184654e-13
1.9895197e-13
1.9184654e-13
1.9184654e-13
1.9895197e-13
1.8474111e-13
1.8474111e-13
1.7053026e-13
1.6342483e-13
1.8474111e-13
1.7053026e-13
1.7763568e-13
1.9184654e-13
1.7763568e-13
1.8474111e-13
1.563194e-13
1.4921397e-13
1.6342483e-13
1.6342483e-13
1.9184654e-13
1.7763568e-13
1.8474111e-13
1.7763568e-13
1.8474111e-13
1.9184654e-13
1.7763568e-13
1.9184654e-13
1.7763568e-13
1.563194e-13
1.4210855e-13
1.4921397e-13
1.3500312e-13
1.4210855e-13
1.4210855e-13
1.2079227e-13
1.2789769e-13
1.6342483e-13
1.3500312e-13
1.4210855e-13
1.4921397e-13
1.3500312e-13
1.563194e-13
1.6342483e-13
1.6342483e-13
1.4210855e-13
1.4210855e-13
1.563194e-13
1.563194e-13
1.9895197e-13
1.8474111e-13
1.9184654e-13
1.7053026e-13
1.563194e-13
1.7053026e-13
1.7053026e-13
1.6342483e-13
1.7763568e-13
1.8474111e-13
1.7763568e-13
2.0605739e-13
1.9184654e-13
1.7763568e-13
1.7763568e-13
1.7763568e-13
1.9184654e-13
1.9184654e-13
1.6342483e-13
1.7763568e-13
1.7053026e-13
1.6342483e-13
1.6342483e-13
1.6342483e-13
1.8474111e-13
1.7763568e-13
1.6342483e-13
1.4921397e-13
1.7763568e-13
1.7053026e-13
1.7053026e-13
1.563194e-13
1.6342483e-13
1.7763568e-13
1.7053026e-13
1.7053026e-13
1.6342483e-13
1.7053026e-13
1.7763568e-13
1.7053026e-13
1.7763568e-13
1.9184654e-13
1.8474111e-13
1.6342483e-13
1.6342483e-13
1.6342483e-13
1.4210855e-13
1.3500312e-13
1.3500312e-13
1.6342483e-13
1.4210855e-13
1.2789769e-13
1.563194e-13
1.1368684e-13
1.4210855e-13
1.4210855e-13
1.2079227e-13
1.3500312e-13
1.7053026e-13
1.6342483e-13
1.4210855e-13
1.4210855e-13
1.7053026e-13
1.6342483e-13
1.4921397e-13
1.3500312e-13
1.3500312e-13
1.4210855e-13
1.563194e-13
1.7763568e-13
1.9895197e-13
1.7763568e-13
1.7763568e-13
1.7763568e-13
1.6342483e-13
1.6342483e-13
1.6342483e-13
1.7763568e-13
2.0605739e-13
1.9184654e-13
1.7053026e-13
1.4921397e-13
1.3500312e-13
1.3500312e-13
1.4921397e-13
1.563194e-13
1.7763568e-13
1.7053026e-13
1.7053026e-13
1.8474111e-13
1.9184654e-13
1.7763568e-13
1.9184654e-13
2.0605739e-13
2.2026825e-13
2.2026825e-13
2.344791e-13
2.4158453e-13
2.5579538e-13
2.5579538e-13
2.4868996e-13
2.344791e-13
2.5579538e-13
2.2737368e-13
2.344791e-13
2.1316282e-13
1.9895197e-13
2.344791e-13
2.2026825e-13
2.344791e-13
2.1316282e-13
2.344791e-13
2.344791e-13
2.4158453e-13
2.4158453e-13
2.2026825e-13
2.2737368e-13
2.2026825e-13
2.2026825e-13
2.1316282e-13
1.8474111e-13
1.8474111e-13
2.0605739e-13
2.1316282e-13
2.1316282e-13
2.344791e-13
2.4158453e-13
2.4158453e-13
2.4868996e-13
2.2737368e-13
2.4868996e-13
2.5579538e-13
2.7711167e-13
3.1974423e-13
3.5527137e-13
3.5527137e-13
3.623768e-13
3.4816594e-13
3.8369308e-13
3.907985e-13
4.3343107e-13
4.7606363e-13
5.0448534e-13
5.2580162e-13
5.6132876e-13
5.968559e-13
6.5369932e-13
6.8212103e-13
7.3896445e-13
7.9580786e-13
8.8817842e-13
9.6633812e-13
1.0231815e-12
1.1013412e-12
1.1866064e-12
1.2576606e-12
1.3855583e-12
1.513456e-12
1.6484591e-12
1.8047785e-12
1.9895197e-12
2.1600499e-12
2.3661073e-12
2.6219027e-12
2.8776981e-12
3.1619152e-12
3.4461323e-12
3.8227199e-12
4.2135184e-12
4.6327386e-12
5.1088023e-12
5.5990768e-12
6.1461947e-12
6.7714723e-12
7.4393824e-12
8.1570306e-12
8.9883656e-12
9.876544e-12
1.0849988e-11
1.1930013e-11
1.313083e-11
1.4409807e-11
1.5837998e-11
1.7408297e-11
1.9134916e-11
2.1017854e-11
2.3078428e-11
2.5330849e-11
2.7824854e-11
3.0567548e-11
3.3544723e-11
3.682743e-11
4.040146e-11
4.4330761e-11
4.8665072e-11
5.3361759e-11
5.85203e-11
6.417622e-11
7.0400574e-11
7.7186257e-11
8.4639851e-11
9.2789776e-11
1.0169288e-10
1.1144152e-10
1.2210677e-10
1.3375967e-10
1.4648549e-10
1.6041213e-10
1.7563195e-10
1.9227997e-10
2.1045565e-10
2.3032243e-10
2.5204372e-10
2.7573321e-10
3.0162539e-10
3.2989789e-10
3.6074255e-10
3.9440806e-10
4.3114312e-10
4.7122484e-10
5.1495164e-10
5.6262905e-10
6.1460526e-10
6.7129946e-10
7.3313799e-10
8.0047613e-10
8.7385388e-10
9.5381836e-10
1.0408883e-09
1.1357315e-09
1.239016e-09
1.351431e-09
1.4737722e-09
1.6069492e-09
1.7518644e-09
1.9095268e-09
2.0809878e-09
2.2674698e-09
2.4702302e-09
2.6906619e-09
2.930264e-09
3.1906353e-09
3.4735379e-09
3.7808547e-09
4.1146464e-09
4.477144e-09
4.8707207e-09
5.297963e-09
5.7616987e-09
6.2648979e-09
6.8108506e-09
7.4030879e-09
8.0454328e-09
8.7419565e-09
9.4971e-09
1.0315667e-08
1.1202843e-08
1.2164129e-08
1.3205565e-08
1.4333629e-08
1.5555294e-08
1.6878097e-08
1.8310139e-08
1.9860195e-08
2.1537595e-08
2.3352506e-08
2.5315821e-08
2.7439377e-08
2.9735702e-08
3.2218445e-08
3.4902193e-08
3.7802785e-08
4.0937081e-08
4.4323286e-08
4.7980983e-08
5.1931217e-08
5.6196505e-08
6.080117e-08
6.5771303e-08
7.1134814e-08
7.6921815e-08
8.3164572e-08
8.9897696e-08
9.7158356e-08
1.0498633e-07
1.1342446e-07
1.2251844e-07
1.3231751e-07
1.4287429e-07
1.5424516e-07
1.6649066e-07
1.7967545e-07
1.9386892e-07
2.0914532e-07
2.2558412e-07
2.4327039e-07
2.6229512e-07
2.8275573e-07
3.0475631e-07
3.2840818e-07
3.5383044e-07
3.811503e-07
4.1050377e-07
4.4203605e-07
4.7590236e-07
5.1226841e-07
5.513111e-07
5.932193e-07
6.3819458e-07
6.8645198e-07
7.3822091e-07
7.9374607e-07
8.5328833e-07
9.1712579e-07
9.8555488e-07
1.0588915e-06
1.137472e-06
1.221655e-06
1.311822e-06
1.4083793e-06
1.5117594e-06
1.6224226e-06
1.7408583e-06
1.8675875e-06
2.0031638e-06
2.1481761e-06
2.3032503e-06
2.4690513e-06
2.6462859e-06
2.8357046e-06
3.0381044e-06
3.2543318e-06
3.4852849e-06
3.7319171e-06
3.9952398e-06
4.2763258e-06
4.576313e-06
4.8964076e-06
5.2378884e-06
5.6021103e-06
5.9905091e-06
6.4046054e-06
6.8460098e-06
7.3164274e-06
7.8176628e-06
8.3516261e-06
8.920338e-06
9.5259356e-06
1.0170679e-05
1.0856959e-05
1.1587299e-05
1.236437e-05
1.319099e-05
1.4070138e-05
1.5004959e-05
1.5998773e-05
1.7055082e-05
1.8177585e-05
1.9370182e-05
2.0636986e-05
2.1982334e-05
2.3410797e-05
2.4927195e-05
2.6536603e-05
2.8244369e-05
3.0056123e-05
3.1977794e-05
3.4015622e-05
3.6176172e-05
3.8466353e-05
4.0893428e-05
4.3465037e-05
4.6189211e-05
4.9074387e-05
5.2129432e-05
5.536366e-05
5.8786851e-05
6.2409272e-05
6.62417e-05
7.0295443e-05
7.4582362e-05
7.9114898e-05
8.3906094e-05
8.8969621e-05
9.4319807e-05
9.997166e-05
0.0001059409
0.00011224399
0.00011889815
0.00012592141
0.00013333265
0.00014115159
0.00014939886
0.00015809603
0.00016726563
0.00017693122
0.00018711738
0.00019784981
0.00020915531
0.00022106186
0.00023359865
0.00024679613
0.00026068604
0.00027530149
0.00029067696
0.00030684838
0.00032385317
0.00034173031
0.00036052036
0.00038026552
0.00040100971
0.00042279859
0.00044567966
0.00046970225
0.00049491765
0.00052137914
0.00054914203
0.00057826374
0.00060880389
0.00064082431
0.00067438913
0.00070956487
0.00074642046
0.00078502734
0.0008254595
0.00086779359
0.00091210894
0.00095848766
0.0010070147
0.0010577779
0.0011108682
0.0011663795
0.0012244087
0.0012850561
0.0013484252
0.0014146229
0.0014837594
0.0015559485
0.0016313074
0.001709957
0.001792022
0.0018776308
0.0019669156
0.0020600125
0.0021570616
0.002258207
0.002363597
0.0024733839
0.0025877245
0.0027067795
0.0028307143
0.0029596986
0.0030939064
0.0032335165
0.003378712
0.0035296807
0.0036866152
0.0038497126
0.0040191748
0.0041952086
0.0043780255
0.0045678418
0.0047648788
0.0049693626
0.0051815243
0.0054015998
0.0056298302
0.0058664612
0.0061117437
0.0063659336
0.0066292915
0.0069020831
0.0071845791
0.0074770551
0.0077797913
0.008093073
0.0084171903
0.0087524381
0.009099116
0.009457528
0.0098279833
0.010210795
0.010606281
0.011014764
0.011436571
0.011872031
0.012321481
0.01278526
0.013263709
0.013757178
0.014266015
0.014790575
0.015331216
0.015888298
0.016462186
0.017053247
0.017661852
0.018288372
0.018933184
0.019596664
0.020279194
0.020981155
0.021702931
0.022444907
0.023207472
0.023991012
0.024795917
0.025622578
0.026471386
0.027342731
0.028237005
0.029154601
0.030095908
0.031061319
0.032051222
0.033066008
0.034106064
0.035171777
0.036263531
0.037381711
0.038526696
0.039698865
0.040898594
0.042126257
0.043382223
0.044666858
0.045980526
0.047323586
0.048696392
0.050099296
0.051532644
0.052996776
0.05449203
0.056018735
0.057577219
0.0591678
0.060790792
0.062446504
0.064135236
0.065857284
0.067612934
0.069402469
0.071226162
0.07308428
0.07497708
0.076904816
0.078867729
0.080866055
0.08290002
0.084969844
0.087075737
0.089217899
0.091396523
0.093611793
0.095863883
0.098152958
0.10047917
0.10284268
0.10524361
0.10768209
0.11015824
0.11267218
0.11522398
0.11781376
0.12044157
0.1231075
0.12581161
0.12855393
0.13133451
0.13415337
0.13701054
0.13990603
0.14283983
0.14581193
0.1488223
0.15187093
0.15495776
0.15808274
0.16124582
0.16444691
0.16768595
0.17096283
0.17427746
0.17762973
0.18101951
0.18444669
0.18791111
0.19141264
0.19495111
0.19852635
0.2021382
0.20578647
0.20947096
0.21319148
0.21694781
0.22073974
0.22456703
0.22842945
0.23232677
0.23625872
0.24022505
0.24422549
0.24825976
0.25232759
0.25642869
0.26056275
0.26472947
0.26892855
0.27315967
0.2774225
0.28171671
0.28604196
0.29039791
0.29478422
0.29920052
0.30364645
0.30812166
0.31262575
0.31715837
0.32171912
0.32630761
0.33092345
0.33556624
0.34023559
0.34493107
0.34965228
0.35439881
0.35917022
0.36396609
0.368786
0.37362951
0.37849618
0.38338558
0.38829725
0.39323074
0.39818561
0.4031614
0.40815765
0.41317391
0.41820969
0.42326455
0.428338
0.43342957
0.4385388
0.44366519
0.44880827
0.45396755
0.45914255
0.46433278
0.46953776
0.47475698
0.47998995
0.48523618
0.49049517
0.49576642
0.50104942
0.50634367
0.51164868
0.51696392
0.52228889
0.52762309
0.53296599
0.53831709
0.54367588
0.54904183
0.55441443
0.55979316
0.5651775
0.57056694
0.57596094
0.581359
0.58676057
0.59216515
0.5975722
0.6029812
0.60839162
0.61380293
0.6192146
0.62462611
0.63003692
0.6354465
0.64085432
0.64625985
0.65166255
0.6570619
0.66245735
0.66784836
0.67323442
0.67861496
0.68398948
0.68935742
0.69471825
0.70007143
0.70541643
0.71075271
0.71607974
0.72139697
0.72670387
0.73199991
0.73728454
0.74255723
0.74781744
0.75306464
0.7582983
0.76351787
0.76872282
0.77391261
0.77908672
0.78424461
0.78938575
0.79450961
0.79961565
0.80470335
0.80977218
0.81482161
0.81985112
0.82486018
0.82984827
0.83481487
0.83975947
0.84468153
0.84958055
0.85445602
0.85930742
0.86413425
0.86893599
0.87371216
0.87846224
0.88318575
0.88788218
0.89255104
0.89719186
0.90180414
0.90638741
0.91094119
0.91546501
0.9199584
0.92442091
0.92885207
0.93325144
0.93761856
0.941953
0.94625432
0.95052209
0.95475589
0.9589553
0.96311991
0.96724932
0.97134312
0.97540094
0.97942239
0.9834071
0.98735469
0.99126483
0.99513714
0.99897131
1.002767
1.0065239
1.0102416
1.0139199
1.0175586
1.0211572
1.0247156
1.0282334
1.0317105
1.0351465
1.0385413
1.0418947
1.0452064
1.0484763
1.0517042
1.0548898
1.0580332
1.061134
1.0641923
1.0672078
1.0701805
1.0731104
1.0759972
1.0788411
1.0816418
1.0843995
1.0871141
1.0897855
1.0924139
1.0949992
1.0975415
1.1000408
1.1024973
1.104911
1.1072819
1.1096104
1.1118964
1.1141401
1.1163416
1.1185013
1.1206192
1.1226956
1.1247306
1.1267246
1.1286777
1.1305903
1.1324626
1.1342949
1.1360875
1.1378408
1.139555
1.1412305
1.1428677
1.1444669
1.1460285
1.1475529
1.1490405
1.1504917
1.1519069
1.1532866
1.1546313
1.1559412
1.157217
1.1584591
1.1596679
1.1608439
1.1619877
1.1630997
1.1641804
1.1652304
1.1662501
1.16724
1.1682007
1.1691328
1.1700366
1.1709128
1.1717619
1.1725845
1.1733809
1.1741519
1.1748979
1.1756195
1.1763171
1.1769915
1.1776429
1.1782721
1.1788795
1.1794656
1.180031
1.1805762
1.1811017
1.1816081
1.1820957
1.1825652
1.183017
1.1834517
1.1838696
1.1842713
1.1846573
1.185028
1.1853838
1.1857253
1.1860529
1.186367
1.1866681
1.1869565
1.1872327
1.1874971
1.1877501
1.187992
1.1882234
1.1884445
1.1886556
1.1888573
1.1890497
1.1892334
1.1894085
1.1895754
1.1897344
1.1898858
1.19003
1.1901672
1.1902977
1.1904218
1.1905397
1.1906517
1.1907581
1.190859
1.1909547
1.1910455
1.1911316
1.1912131
1.1912903
1.1913634
1.1914325
1.1914979
1.1915597
1.1916181
1.1916733
1.1917254
1.1917745
1.1918208
1.1918645
1.1919056
1.1919444
1.1919808
1.1920151
1.1920474
1.1920778
1.1921063
1.192133
1.1921581
1.1921817
1.1922038
1.1922245
1.1922439
1.192262
1.192279
1.1922949
1.1923098
1.1923236
1.1923366
1.1923487
1.1923599
1.1923704
1.1923802
1.1923893
1.1923978
1.1924057
1.192413
1.1924198
1.1924262
1.192432
1.1924375
1.1924425
1.1924472
1.1924515
1.1924555
1.1924592
1.1924626
1.1924658
1.1924687
1.1924714
1.1924738
1.1924761
1.1924782
1.1924801
1.1924819
1.1924835
1.192485
1.1924863
1.1924876
1.1924886
1.1924896
1.1924905
1.1924912
1.1924919
1.1924924
1.1924929
1.1924934
1.192494
1.1924944
1.1924949
1.1924956
1.1924963
1.1924969
1.1924975
1.1924984
1.1924993
1.1925001
1.192501
1.1925019
1.1925029
1.1925039
1.1925048
1.1925059
1.1925069
1.192508
1.192509
1.1925101
1.1925112
1.1925123
1.1925133
1.1925143
1.1925154
1.1925165
1.1925175
1.1925185
1.1925196
1.1925207
1.1925217
1.1925227
1.1925237
1.1925247
1.1925256
1.1925264
1.1925273
1.1925281
1.1925289
1.1925296
1.1925303
1.1925309
1.1925315
1.192532
1.1925324
1.1925328
1.1925333
1.1925338
1.1925342
1.1925346
1.1925351
1.1925356
1.1925362
1.1925367
1.1925373
1.192538
1.1925386
1.1925392
1.1925398
1.1925404
1.192541
1.1925415
1.1925422
1.192543
1.1925437
1.1925444
1.192545
1.1925457
1.1925463
1.192547
1.1925476
1.1925482
1.1925488
1.1925493
1.1925499
1.1925504
1.1925509
1.1925514
1.1925518
1.1925524
1.1925529
1.1925533
1.1925538
1.1925542
1.1925547
1.1925552
1.1925556
1.1925561
1.1925566
1.1925572
1.1925577
1.1925581
1.1925586
1.1925591
1.1925596
1.1925601
1.1925605
1.1925609
1.1925613
1.1925617
1.1925621
1.1925624
1.1925628
1.1925632
1.1925635
1.1925638
1.192564
1.1925643
1.1925645
1.1925647
1.1925649
1.192565
1.192565
1.192565
1.1925649
1.1925649
1.192565
1.1925651
1.1925652
1.1925654
1.1925658
1.1925663
1.1925668
1.1925672
1.1925676
1.1925681
1.1925687
1.1925692
1.1925697
1.1925702
1.1925706
1.192571
1.1925714
1.1925718
1.1925721
1.1925724
1.1925728
1.1925731
1.1925734
1.1925736
1.1925739
1.1925741
1.1925743
1.1925745
1.1925747
1.1925748
1.1925749
1.1925749
1.1925749
1.1925749
1.1925749
1.1925748
1.1925748
1.1925748
1.1925747
1.1925747
1.1925748
1.1925749
1.1925749
1.1925749
1.192575
1.1925753
1.1925755
1.1925757
1.192576
1.1925763
1.1925766
1.1925769
1.1925771
1.1925774
1.1925776
1.1925778
1.192578
1.1925781
1.1925782
1.1925782
1.1925782
1.1925782
1.1925782
1.1925781
1.192578
1.192578
1.192578
1.192578
1.1925781
1.1925782
1.1925783
1.1925784
1.1925785
1.1925785
1.1925786
1.1925787
1.1925787
1.1925788
1.1925788
1.1925788
1.1925788
1.1925788
1.1925787
1.1925787
1.1925786
1.1925785
1.1925784
1.1925784
1.1925783
1.1925782
1.1925782
1.1925782
1.1925782
1.1925781
1.1925781
1.1925781
1.1925781
1.1925781
1.1925781
1.1925781
1.1925781
1.1925781
1.1925782
1.1925782
1.1925782
1.1925782
1.1925782
1.1925781
1.1925781
1.1925781
1.192578
1.192578
1.1925779
1.1925779
1.1925778
1.1925777
1.1925776
1.1925775
1.1925774
1.1925773
1.1925772
1.192577
1.1925769
1.1925767
1.1925766
1.1925764
1.1925763
1.1925761
1.1925759
1.1925757
1.1925755
1.1925753
1.1925751
1.1925748
1.1925746
1.1925744
1.1925742
1.1925739
1.1925737
1.1925735
1.1925733
1.192573
1.1925728
1.1925726
1.1925724
1.1925722
1.192572
1.1925718
1.1925716
1.1925714
1.1925712
1.192571
1.1925709
1.1925707
1.1925705
1.1925704
1.1925702
1.1925701
1.1925699
1.1925698
1.1925697
1.1925695
1.1925694
1.1925692
1.192569
1.1925689
1.1925687
1.1925685
1.1925684
1.1925682
1.192568
1.1925678
1.1925677
1.1925675
1.1925673
1.1925671
1.1925669
1.1925668
1.1925666
1.1925664
1.1925662
1.192566
1.1925659
1.1925657
1.1925655
1.1925654
1.1925652
1.1925651
1.1925649
1.1925648
1.1925646
1.1925645
1.1925643
1.1925642
1.1925641
1.1925639
1.1925638
1.1925637
1.1925635
1.1925634
1.1925633
1.1925632
1.192563
1.1925629
1.1925627
1.1925626
1.1925625
1.1925623
1.1925622
1.192562
1.1925619
1.1925617
1.1925616
1.1925614
1.1925613
1.1925611
1.1925609
1.1925608
1.1925606
1.1925605
1.1925603
1.1925601
1.19256
1.1925598
1.1925596
1.1925595
1.1925593
1.1925592
1.192559
1.1925589
1.1925587
1.1925585
1.1925584
1.1925582
1.1925581
1.1925579
1.1925578
1.1925576
1.1925575
1.1925573
1.1925572
1.192557
1.1925569
1.1925568
1.1925567
1.1925565
1.1925564
1.1925563
1.1925562
1.192556
1.1925559
1.1925558
1.1925557
1.1925556
1.1925555
1.1925554
1.1925553
1.1925552
1.1925551
1.192555
1.192555
1.1925549
1.1925548
1.1925547
1.1925546
1.1925545
1.1925544
1.1925543
1.1925543
1.1925542
1.1925541
1.192554
1.1925539
1.1925538
1.1925537
1.1925536
1.1925534
1.1925533
1.1925532
1.1925531
1.192553
1.1925529
1.1925527
1.1925526
1.1925525
1.1925523
1.1925522
1.192552
1.1925519
1.1925517
1.1925516
1.1925514
1.1925512
1.1925511
1.1925509
1.1925508
1.1925506
1.1925504
1.1925502
1.19255
1.1925498
1.1925497
1.1925495
1.1925493
1.1925491
1.1925489
1.1925487
1.1925485
1.1925484
1.1925482
1.192548
1.1925478
1.1925476
1.1925474
1.1925472
1.192547
1.1925468
1.1925467
1.1925465
1.1925463
1.1925461
1.192546
1.1925458
1.1925456
1.1925455
1.1925453
1.1925452
1.192545
1.1925449
1.1925447
1.1925446
1.1925445
1.1925443
1.1925442
1.1925441
1.192544
1.1925439
1.1925438
1.1925437
1.1925435
1.1925434
1.1925434
1.1925433
1.1925432
1.1925431
1.192543
1.1925429
1.1925428
1.1925427
1.1925426
1.1925426
1.1925425
1.1925424
1.1925423
1.1925423
1.1925422
1.1925421
1.192542
1.1925419
1.1925418
1.1925417
1.1925416
1.1925416
1.1925415
1.1925414
1.1925413
1.1925412
1.1925411
1.192541
1.1925408
1.1925407
1.1925406
1.1925405
1.1925404
1.1925402
1.1925401
1.19254
1.1925398
1.1925397
1.1925396
1.1925394
1.1925393
1.1925391
1.192539
1.1925388
1.1925387
1.1925385
1.1925384
1.1925382
1.1925381
1.192538
1.1925378
1.1925377
1.1925375
1.1925374
1.1925372
1.1925371
1.192537
1.1925368
1.1925367
1.1925366
1.1925364
1.1925363
1.1925362
1.1925361
1.192536
1.1925359
1.1925358
1.1925357
1.1925356
1.1925355
1.1925354
1.1925353
1.1925352
1.1925351
1.192535
1.192535
1.1925349
1.1925348
1.1925348
1.1925347
1.1925346
1.1925346
1.1925345
1.1925345
1.1925344
1.1925344
1.1925343
1.1925342
1.1925342
1.1925341
1.1925341
1.192534
1.192534
1.1925339
1.1925339
1.1925338
1.1925338
1.1925337
1.1925336
1.1925336
1.1925335
1.1925334
1.1925334
1.1925333
1.1925332
1.1925332
1.1925331
1.192533
1.192533
1.1925329
1.1925328
1.1925327
1.1925326
1.1925326
1.1925325
1.1925324
1.1925323
1.1925322
1.1925321
1.192532
1.1925319
1.1925318
1.1925317
1.1925316
1.1925315
1.1925314
1.1925313
1.1925312
1.1925311
1.192531
1.1925308
1.1925307
1.1925306
1.1925305
1.1925304
1.1925303
1.1925302
1.1925301
1.1925299
1.1925298
1.1925297
1.1925296
1.1925295
1.1925294
1.1925293
1.1925292
1.1925291
1.192529
1.1925289
1.1925288
1.1925286
1.1925285
1.1925284
1.1925283
1.1925282
1.1925281
1.192528
1.1925279
1.1925278
1.1925277
1.1925276
1.1925275
1.1925274
1.1925273
1.1925272
1.1925271
1.192527
1.1925269
1.1925268
1.1925267
1.1925266
1.1925265
1.1925264
1.1925263
1.1925262
1.1925261
1.192526
1.1925259
1.1925258
1.1925257
1.1925256
1.1925255
1.1925254
1.1925253
1.1925252
1.1925251
1.192525
1.1925249
1.1925248
1.1925247
1.1925246
1.1925245
1.1925244
1.1925243
1.1925242
1.1925241
1.192524
1.1925239
1.1925238
1.1925238
1.1925237
1.1925236
1.1925235
1.1925234
1.1925233
1.1925232
1.1925231
1.192523
1.1925229
1.1925229
1.1925228
1.1925227
1.1925226
1.1925225
1.1925224
1.1925223
1.1925222
1.1925221
1.192522
1.1925219
1.1925218
1.1925217
1.1925216
1.1925215
1.1925214
1.1925213
1.1925213
1.1925212
1.1925211
1.192521
1.1925209
1.1925207
1.1925206
1.1925205
1.1925204
1.1925203
1.1925202
1.1925201
1.19252
1.1925199
1.1925197
1.1925196
1.1925195
1.1925194
1.1925193
1.1925192
1.192519
1.1925189
1.1925188
1.1925187
1.1925186
1.1925184
1.1925183
1.1925182
1.192518
1.1925179
1.1925178
1.1925176
1.1925175
1.1925174
1.1925173
1.1925171
1.192517
1.1925169
1.1925168
1.1925166
1.1925165
1.1925164
1.1925163
1.1925161
1.192516
1.1925159
1.1925158
1.1925157
1.1925155
1.1925154
1.1925153
1.1925152
1.1925151
1.192515
1.1925149
1.1925148
1.1925147
1.1925146
1.1925145
1.1925144
1.1925143
1.1925142
1.1925141
1.192514
1.1925139
1.1925138
1.1925137
1.1925137
1.1925136
1.1925135
1.1925134
1.1925133
1.1925132
1.1925132
1.1925131
1.192513
1.1925129
1.1925129
1.1925128
1.1925127
1.1925126
1.1925126
1.1925125
1.1925124
1.1925123
1.1925123
1.1925122
1.1925121
1.1925121
1.192512
1.1925119
1.1925118
1.1925118
1.1925117
1.1925116
1.1925116
1.1925115
1.1925114
1.1925113
1.1925112
1.1925112
1.1925111
1.192511
1.1925109
1.1925109
1.1925108
1.1925107
1.1925106
1.1925105
1.1925105
1.1925104
1.1925103
1.1925102
1.1925101
1.19251
1.1925099
1.1925099
1.1925098
1.1925097
1.1925096
1.1925095
1.1925094
1.1925093
1.1925092
1.1925091
1.192509
1.1925089
1.1925088
1.1925087
1.1925086
1.1925085
1.1925084
1.1925084
1.1925083
1.1925082
1.1925081
1.192508
1.1925079
1.1925078
1.1925077
1.1925076
1.1925075
1.1925074
1.1925072
1.1925071
1.192507
1.1925069
1.1925068
1.1925067
1.1925066
1.1925065
1.1925064
1.1925063
1.1925062
1.1925061
1.192506
1.1925059
1.1925058
1.1925057
1.1925056
1.1925054
1.1925053
1.1925052
1.1925051
1.192505
1.1925049
1.1925048
1.1925047
1.1925046
1.1925045
1.1925044
1.1925043
1.1925041
1.192504
1.1925039
1.1925038
1.1925037
1.1925036
1.1925035
1.1925034
1.1925032
1.1925031
1.192503
1.1925029
1.1925028
1.1925026
1.1925025
1.1925024
1.1925023
1.1925022
1.1925021
1.192502
1.1925019
1.1925018
1.1925016
1.1925015
1.1925014
1.1925013
1.1925012
1.1925011
1.192501
1.1925008
1.1925007
1.1925006
1.1925005
1.1925004
1.1925003
1.1925002
1.1925
1.1924999
1.1924998
1.1924997
1.1924996
1.1924995
1.1924994
1.1924992
1.1924991
1.192499
1.1924989
1.1924988
1.1924987
1.1924986
1.1924984
1.1924983
1.1924982
1.1924981
1.192498
1.1924979
1.1924978
1.1924977
1.1924975
1.1924974
1.1924973
1.1924972
1.1924971
1.192497
1.1924969
1.1924968
1.1924966
1.1924965
1.1924964
1.1924963
1.1924962
1.1924961
1.192496
1.1924959
1.1924958
1.1924956
1.1924955
1.1924954
1.1924953
1.1924952
1.1924951
1.1924949
1.1924948
1.1924947
1.1924946
1.1924945
1.1924944
1.1924943
1.1924942
1.192494
1.1924939
1.1924938
1.1924937
1.1924936
1.1924935
1.1924933
1.1924932
1.1924931
1.192493
1.1924929
1.1924927
1.1924926
1.1924925
1.1924924
1.1924923
1.1924921
1.192492
1.1924919
1.1924918
1.1924917
1.1924915
1.1924914
1.1924913
1.1924912
1.192491
1.1924909
1.1924908
1.1924907
1.1924906
1.1924905
1.1924903
1.1924902
1.1924901
1.1924899
1.1924898
1.1924896
1.1924895
1.1924894
1.1924892
1.1924891
1.192489
1.1924889
1.1924887
1.1924886
1.1924885
1.1924883
1.1924881
1.192488
1.1924878
1.1924877
1.1924876
1.1924874
1.1924873
1.1924872
1.192487
1.1924869
1.1924867
1.1924866
1.1924864
1.1924863
1.1924861
1.192486
1.1924858
1.1924857
1.1924855
1.1924854
1.1924852
1.1924851
1.1924849
1.1924847
1.1924846
1.1924844
1.1924842
1.1924841
1.1924839
1.1924837
1.1924836
1.1924834
1.1924833
1.1924831
1.1924829
1.1924828
1.1924826
1.1924824
1.1924822
1.1924821
1.1924819
1.1924817
1.1924816
1.1924814
1.1924812
1.192481
1.1924809
1.1924807
1.1924805
1.1924803
1.1924801
1.1924799
1.1924797
1.1924796
1.1924794
1.1924792
1.192479
1.1924788
1.1924786
1.1924784
1.1924782
1.192478
1.1924778
1.1924776
1.1924775
1.1924773
1.1924771
1.1924769
1.1924767
1.1924765
1.1924763
1.1924761
1.1924759
1.1924757
1.1924755
1.1924753
1.1924751
1.1924749
1.1924747
1.1924745
1.1924743
1.192474
1.1924738
1.1924736
1.1924734
1.1924732
1.192473
1.1924727
1.1924725
1.1924723
1.192472
1.1924718
1.1924716
1.1924714
1.1924711
1.1924709
1.1924707
1.1924705
1.1924702
1.19247
1.1924698
1.1924695
1.1924693
1.192469
1.1924688
1.1924685
1.1924683
1.192468
1.1924678
1.1924675
1.1924673
1.192467
1.1924668
1.1924665
1.1924663
1.192466
1.1924658
1.1924655
1.1924652
1.1924649
1.1924647
1.1924644
1.1924641
1.1924638
1.1924635
1.1924632
1.192463
1.1924627
1.1924624
1.1924621
1.1924618
1.1924615
1.1924612
1.1924609
1.1924606
1.1924603
1.19246
1.1924597
1.1924594
1.192459
1.1924587
1.1924584
1.1924581
1.1924577
1.1924574
1.1924571
1.1924568
1.1924564
1.1924561
1.1924557
1.1924553
1.192455
1.1924546
1.1924542
1.1924538
1.1924534
1.192453
1.1924526
1.1924522
1.1924518
1.1924514
1.1924511
1.1924507
1.1924502
1.1924498
1.1924494
1.1924489
1.1924485
1.192448
1.1924476
1.1924471
1.1924467
1.1924462
1.1924457
1.1924452
1.1924447
1.1924443
1.1924438
1.1924432
1.1924427
1.1924422
1.1924417
1.1924412
1.1924407
1.1924401
1.1924396
1.1924391
1.1924386
1.192438
1.1924375
1.192437
1.1924364
1.1924359
1.1924354
1.1924348
1.1924343
1.1924338
1.1924333
1.1924329
1.1924325
1.192432
1.1924317
1.1924313
1.192431
1.1924307
1.1924304
1.1924301
1.1924299
1.1924298
1.1924296
1.1924296
1.1924295
1.1924294
1.1924294
1.1924294
1.1924294
1.1924296
1.1924297
1.1924299
1.19243
1.1924302
1.1924303
1.1924303
1.1924304
1.1924304
1.1924303
1.1924303
1.1924302
1.1924301
1.1924298
1.1924292
1.1924285
1.1924276
1.1924267
1.1924257
1.1924246
1.1924235
1.1924224
1.1924212
1.1924201
1.1924189
1.1924176
1.1924163
1.192415
1.1924137
1.1924124
1.1924112
1.19241
1.192409
1.1924082
1.1924075
1.192407
1.1924066
1.1924063
1.1924059
1.1924055
1.1924051
1.1924045
1.192404
1.1924033
1.1924026
1.1924018
1.192401
1.1923999
1.192398
1.1923935