/*--------------------------------*- C++ -*----------------------------------*\
  =========                 |
  \\      /  F ield         | OpenFOAM: The Open Source CFD Toolbox
   \\    /   O peration     | Website:  https://openfoam.org
    \\  /    A nd           | Version:  7
     \\/     M anipulation  |
\*---------------------------------------------------------------------------*/
FoamFile
{
    version     2.0;
    format      ascii;
    class       volScalarField;
    location    "0.00154";
    object      rho;
}
// * * * * * * * * * * * * * * * * * * * * * * * * * * * * * * * * * * * * * //

dimensions      [1 -3 0 0 0 0 0];

internalField   nonuniform List<scalar> 
5000
(
1.3693787
1.3689598
1.3685574
1.3681748
1.36782
1.3675057
1.367216
1.3669296
1.3666478
1.3663693
1.3660925
1.3658168
1.3655422
1.3652689
1.3649968
1.3647257
1.3644554
1.3641858
1.363917
1.3636489
1.3633814
1.3631146
1.3628485
1.3625831
1.3623184
1.3620543
1.361791
1.3615284
1.3612665
1.3610053
1.3607449
1.3604852
1.3602264
1.3599683
1.359711
1.3594545
1.3591988
1.358944
1.35869
1.3584369
1.3581847
1.3579333
1.3576828
1.3574333
1.3571846
1.3569369
1.3566902
1.3564444
1.3561995
1.3559557
1.3557128
1.355471
1.3552302
1.3549904
1.3547516
1.3545139
1.3542773
1.3540417
1.3538072
1.3535738
1.3533416
1.3531105
1.3528804
1.3526516
1.3524239
1.3521974
1.351972
1.3517479
1.3515249
1.3513032
1.3510827
1.3508634
1.3506454
1.3504286
1.3502131
1.3499989
1.349786
1.3495744
1.3493641
1.3491551
1.3489474
1.3487411
1.3485361
1.3483325
1.3481302
1.3479293
1.3477299
1.3475318
1.3473351
1.3471398
1.346946
1.3467535
1.3465626
1.346373
1.3461849
1.3459983
1.3458132
1.3456295
1.3454473
1.3452666
1.3450874
1.3449097
1.3447335
1.3445588
1.3443857
1.344214
1.3440439
1.3438754
1.3437084
1.3435429
1.343379
1.3432166
1.3430558
1.3428966
1.3427389
1.3425828
1.3424282
1.3422753
1.3421239
1.3419741
1.3418259
1.3416793
1.3415342
1.3413907
1.3412489
1.3411086
1.3409699
1.3408328
1.3406972
1.3405633
1.3404309
1.3403002
1.340171
1.3400434
1.3399173
1.3397929
1.33967
1.3395487
1.339429
1.3393108
1.3391942
1.3390791
1.3389656
1.3388537
1.3387433
1.3386344
1.3385271
1.3384212
1.3383169
1.3382142
1.3381129
1.3380131
1.3379148
1.337818
1.3377227
1.3376289
1.3375365
1.3374455
1.3373561
1.337268
1.3371814
1.3370962
1.3370124
1.3369299
1.3368489
1.3367693
1.336691
1.3366141
1.3365385
1.3364642
1.3363913
1.3363197
1.3362494
1.3361803
1.3361126
1.3360461
1.3359808
1.3359168
1.335854
1.3357924
1.335732
1.3356728
1.3356147
1.3355578
1.3355021
1.3354475
1.335394
1.3353416
1.3352903
1.33524
1.3351908
1.3351427
1.3350956
1.3350495
1.3350044
1.3349603
1.3349172
1.334875
1.3348338
1.3347935
1.3347541
1.3347156
1.334678
1.3346413
1.3346054
1.3345704
1.3345362
1.3345028
1.3344703
1.3344385
1.3344074
1.3343772
1.3343477
1.3343189
1.3342908
1.3342634
1.3342368
1.3342108
1.3341854
1.3341607
1.3341367
1.3341132
1.3340904
1.3340682
1.3340466
1.3340255
1.334005
1.3339851
1.3339656
1.3339467
1.3339284
1.3339105
1.3338931
1.3338762
1.3338597
1.3338437
1.3338282
1.3338131
1.3337984
1.3337841
1.3337703
1.3337568
1.3337437
1.333731
1.3337186
1.3337066
1.333695
1.3336836
1.3336727
1.333662
1.3336516
1.3336416
1.3336318
1.3336223
1.3336131
1.3336042
1.3335955
1.3335871
1.333579
1.3335711
1.3335634
1.3335559
1.3335487
1.3335417
1.3335349
1.3335283
1.3335219
1.3335156
1.3335096
1.3335038
1.3334981
1.3334926
1.3334872
1.3334821
1.333477
1.3334722
1.3334674
1.3334628
1.3334584
1.3334541
1.3334499
1.3334458
1.3334419
1.333438
1.3334343
1.3334307
1.3334272
1.3334238
1.3334206
1.3334174
1.3334143
1.3334113
1.3334083
1.3334055
1.3334028
1.3334001
1.3333975
1.3333949
1.3333925
1.3333901
1.3333878
1.3333855
1.3333833
1.3333812
1.3333792
1.3333772
1.3333752
1.3333733
1.3333715
1.3333697
1.333368
1.3333663
1.3333647
1.3333631
1.3333616
1.3333601
1.3333586
1.3333572
1.3333558
1.3333545
1.3333532
1.3333519
1.3333507
1.3333495
1.3333483
1.3333472
1.3333461
1.333345
1.333344
1.333343
1.333342
1.333341
1.3333401
1.3333392
1.3333383
1.3333374
1.3333365
1.3333357
1.3333349
1.3333341
1.3333333
1.3333326
1.3333318
1.3333311
1.3333305
1.3333297
1.333329
1.3333284
1.3333278
1.3333272
1.3333265
1.3333259
1.3333253
1.3333247
1.3333241
1.3333236
1.333323
1.3333224
1.3333219
1.3333214
1.3333209
1.3333204
1.3333199
1.3333194
1.3333189
1.3333184
1.333318
1.3333175
1.3333171
1.3333167
1.3333163
1.3333159
1.3333155
1.3333151
1.3333147
1.3333144
1.333314
1.3333137
1.3333133
1.333313
1.3333127
1.3333124
1.3333121
1.3333118
1.3333115
1.3333113
1.333311
1.3333108
1.3333105
1.3333102
1.33331
1.3333097
1.3333095
1.3333092
1.333309
1.3333088
1.3333085
1.3333083
1.3333081
1.3333079
1.3333076
1.3333074
1.3333072
1.333307
1.3333068
1.3333066
1.3333064
1.3333063
1.3333061
1.3333059
1.3333058
1.3333056
1.3333054
1.3333052
1.3333051
1.3333049
1.3333048
1.3333046
1.3333045
1.3333044
1.3333042
1.3333041
1.333304
1.3333038
1.3333037
1.3333036
1.3333034
1.3333033
1.3333032
1.3333031
1.333303
1.3333029
1.3333028
1.3333027
1.3333026
1.3333025
1.3333024
1.3333024
1.3333023
1.3333022
1.3333021
1.3333021
1.333302
1.3333019
1.3333019
1.3333018
1.3333018
1.3333017
1.3333017
1.3333016
1.3333016
1.3333015
1.3333014
1.3333014
1.3333013
1.3333013
1.3333012
1.3333011
1.3333011
1.333301
1.333301
1.333301
1.3333009
1.3333009
1.3333009
1.3333008
1.3333008
1.3333008
1.3333007
1.3333007
1.3333007
1.3333006
1.3333005
1.3333005
1.3333004
1.3333004
1.3333003
1.3333003
1.3333002
1.3333002
1.3333001
1.3333
1.3333
1.3333
1.3332999
1.3332999
1.3332999
1.3332999
1.3332999
1.3332998
1.3332998
1.3332998
1.3332998
1.3332998
1.3332997
1.3332997
1.3332997
1.3332997
1.3332997
1.3332996
1.3332996
1.3332996
1.3332995
1.3332995
1.3332995
1.3332994
1.3332994
1.3332993
1.3332993
1.3332993
1.3332993
1.3332992
1.3332992
1.3332992
1.3332991
1.3332991
1.3332991
1.3332991
1.3332991
1.3332991
1.333299
1.333299
1.333299
1.333299
1.333299
1.3332989
1.3332989
1.3332989
1.3332989
1.3332988
1.3332988
1.3332988
1.3332988
1.3332987
1.3332987
1.3332987
1.3332986
1.3332986
1.3332986
1.3332986
1.3332986
1.3332985
1.3332985
1.3332985
1.3332985
1.3332984
1.3332984
1.3332984
1.3332984
1.3332984
1.3332983
1.3332983
1.3332983
1.3332982
1.3332982
1.3332982
1.3332982
1.3332981
1.3332981
1.3332981
1.333298
1.333298
1.333298
1.333298
1.333298
1.3332979
1.3332979
1.3332979
1.3332979
1.3332979
1.3332979
1.3332979
1.3332979
1.3332979
1.3332979
1.3332978
1.3332978
1.3332978
1.3332978
1.3332978
1.3332978
1.3332978
1.3332978
1.3332978
1.3332978
1.3332978
1.3332978
1.3332977
1.3332977
1.3332977
1.3332977
1.3332977
1.3332977
1.3332977
1.3332977
1.3332977
1.3332977
1.3332977
1.3332977
1.3332977
1.3332977
1.3332977
1.3332977
1.3332977
1.3332977
1.3332976
1.3332976
1.3332976
1.3332976
1.3332976
1.3332976
1.3332976
1.3332976
1.3332976
1.3332976
1.3332976
1.3332976
1.3332976
1.3332976
1.3332976
1.3332976
1.3332975
1.3332975
1.3332975
1.3332975
1.3332975
1.3332975
1.3332975
1.3332975
1.3332975
1.3332975
1.3332975
1.3332975
1.3332974
1.3332974
1.3332974
1.3332974
1.3332974
1.3332974
1.3332974
1.3332974
1.3332974
1.3332974
1.3332973
1.3332973
1.3332973
1.3332973
1.3332973
1.3332973
1.3332973
1.3332973
1.3332973
1.3332973
1.3332973
1.3332972
1.3332972
1.3332972
1.3332972
1.3332972
1.3332972
1.3332972
1.3332972
1.3332972
1.3332972
1.3332972
1.3332972
1.3332972
1.3332972
1.3332972
1.3332972
1.3332972
1.3332972
1.3332972
1.3332972
1.3332972
1.3332972
1.3332972
1.3332972
1.3332972
1.3332973
1.3332973
1.3332973
1.3332973
1.3332973
1.3332973
1.3332973
1.3332973
1.3332973
1.3332973
1.3332973
1.3332973
1.3332973
1.3332973
1.3332973
1.3332973
1.3332973
1.3332973
1.3332973
1.3332973
1.3332973
1.3332973
1.3332972
1.3332972
1.3332972
1.3332972
1.3332972
1.3332972
1.3332972
1.3332972
1.3332972
1.3332972
1.3332972
1.3332972
1.3332972
1.3332972
1.3332972
1.3332972
1.3332972
1.3332972
1.3332972
1.3332972
1.3332972
1.3332972
1.3332972
1.3332972
1.3332972
1.3332972
1.3332972
1.3332972
1.3332972
1.3332972
1.3332972
1.3332973
1.3332973
1.3332973
1.3332973
1.3332973
1.3332973
1.3332973
1.3332973
1.3332973
1.3332973
1.3332974
1.3332974
1.3332974
1.3332974
1.3332974
1.3332974
1.3332974
1.3332974
1.3332974
1.3332974
1.3332974
1.3332974
1.3332974
1.3332975
1.3332975
1.3332975
1.3332975
1.3332975
1.3332975
1.3332975
1.3332975
1.3332975
1.3332975
1.3332975
1.3332975
1.3332975
1.3332975
1.3332975
1.3332975
1.3332975
1.3332975
1.3332975
1.3332975
1.3332975
1.3332975
1.3332975
1.3332975
1.3332975
1.3332975
1.3332975
1.3332975
1.3332975
1.3332975
1.3332975
1.3332975
1.3332975
1.3332975
1.3332975
1.3332975
1.3332975
1.3332975
1.3332975
1.3332975
1.3332975
1.3332975
1.3332975
1.3332975
1.3332975
1.3332975
1.3332975
1.3332975
1.3332975
1.3332975
1.3332975
1.3332975
1.3332975
1.3332975
1.3332975
1.3332975
1.3332975
1.3332975
1.3332975
1.3332975
1.3332975
1.3332975
1.3332975
1.3332975
1.3332975
1.3332975
1.3332975
1.3332975
1.3332975
1.3332975
1.3332975
1.3332975
1.3332975
1.3332975
1.3332975
1.3332975
1.3332975
1.3332975
1.3332975
1.3332975
1.3332975
1.3332975
1.3332975
1.3332975
1.3332975
1.3332975
1.3332975
1.3332975
1.3332975
1.3332975
1.3332975
1.3332975
1.3332975
1.3332975
1.3332975
1.3332975
1.3332975
1.3332975
1.3332975
1.3332975
1.3332975
1.3332975
1.3332975
1.3332975
1.3332975
1.3332975
1.3332975
1.3332975
1.3332975
1.3332975
1.3332975
1.3332975
1.3332975
1.3332975
1.3332975
1.3332975
1.3332975
1.3332975
1.3332975
1.3332975
1.3332975
1.3332975
1.3332975
1.3332975
1.3332975
1.3332975
1.3332975
1.3332975
1.3332975
1.3332975
1.3332975
1.3332975
1.3332975
1.3332975
1.3332975
1.3332975
1.3332975
1.3332975
1.3332975
1.3332975
1.3332975
1.3332975
1.3332975
1.3332975
1.3332975
1.3332975
1.3332975
1.3332975
1.3332975
1.3332975
1.3332975
1.3332975
1.3332975
1.3332975
1.3332975
1.3332975
1.3332975
1.3332975
1.3332975
1.3332975
1.3332975
1.3332975
1.3332975
1.3332975
1.3332975
1.3332975
1.3332975
1.3332975
1.3332975
1.3332975
1.3332975
1.3332975
1.3332975
1.3332975
1.3332975
1.3332975
1.3332975
1.3332975
1.3332975
1.3332975
1.3332975
1.3332975
1.3332975
1.3332975
1.3332975
1.3332975
1.3332975
1.3332975
1.3332975
1.3332975
1.3332975
1.3332975
1.3332975
1.3332975
1.3332974
1.3332974
1.3332974
1.3332974
1.3332974
1.3332974
1.3332974
1.3332974
1.3332974
1.3332974
1.3332974
1.3332974
1.3332974
1.3332974
1.3332974
1.3332974
1.3332974
1.3332974
1.3332974
1.3332974
1.3332974
1.3332974
1.3332974
1.3332974
1.3332974
1.3332974
1.3332974
1.3332974
1.3332974
1.3332974
1.3332974
1.3332974
1.3332974
1.3332974
1.3332974
1.3332974
1.3332974
1.3332974
1.3332974
1.3332974
1.3332974
1.3332974
1.3332974
1.3332974
1.3332974
1.3332974
1.3332974
1.3332974
1.3332974
1.3332974
1.3332974
1.3332974
1.3332974
1.3332974
1.3332974
1.3332974
1.3332973
1.3332973
1.3332973
1.3332973
1.3332973
1.3332973
1.3332973
1.3332973
1.3332973
1.3332973
1.3332973
1.3332973
1.3332973
1.3332973
1.3332973
1.3332973
1.3332973
1.3332973
1.3332973
1.3332973
1.3332973
1.3332973
1.3332973
1.3332973
1.3332973
1.3332973
1.3332973
1.3332973
1.3332973
1.3332973
1.3332973
1.3332973
1.3332973
1.3332973
1.3332972
1.3332972
1.3332972
1.3332972
1.3332972
1.3332972
1.3332972
1.3332972
1.3332972
1.3332972
1.3332972
1.3332972
1.3332972
1.3332972
1.3332972
1.3332972
1.3332972
1.3332972
1.3332972
1.3332972
1.3332972
1.3332972
1.3332972
1.3332972
1.3332972
1.3332972
1.3332972
1.3332972
1.3332972
1.3332971
1.3332971
1.3332971
1.3332971
1.3332971
1.3332971
1.3332971
1.3332971
1.3332971
1.3332971
1.3332971
1.3332971
1.3332971
1.3332971
1.3332971
1.3332971
1.3332971
1.3332971
1.3332971
1.3332971
1.3332971
1.3332971
1.3332971
1.3332971
1.3332971
1.3332971
1.3332971
1.3332971
1.3332971
1.3332971
1.3332971
1.3332971
1.3332971
1.3332971
1.3332971
1.3332971
1.3332971
1.3332971
1.3332971
1.3332971
1.3332971
1.3332971
1.3332971
1.3332971
1.3332971
1.3332971
1.3332971
1.3332971
1.3332971
1.3332971
1.3332971
1.3332971
1.3332971
1.3332971
1.3332971
1.3332971
1.3332971
1.333297
1.333297
1.333297
1.333297
1.333297
1.333297
1.333297
1.333297
1.333297
1.333297
1.333297
1.333297
1.333297
1.333297
1.333297
1.333297
1.333297
1.333297
1.333297
1.333297
1.333297
1.333297
1.333297
1.333297
1.333297
1.333297
1.333297
1.333297
1.333297
1.333297
1.333297
1.333297
1.333297
1.3332969
1.3332969
1.3332969
1.3332969
1.3332969
1.3332969
1.3332969
1.3332969
1.3332969
1.3332969
1.3332969
1.3332969
1.3332969
1.3332969
1.3332969
1.3332969
1.3332968
1.3332968
1.3332968
1.3332968
1.3332968
1.3332968
1.3332968
1.3332968
1.3332968
1.3332968
1.3332968
1.3332968
1.3332968
1.3332968
1.3332968
1.3332968
1.3332967
1.3332967
1.3332967
1.3332967
1.3332967
1.3332967
1.3332967
1.3332967
1.3332967
1.3332967
1.3332967
1.3332967
1.3332966
1.3332966
1.3332966
1.3332966
1.3332966
1.3332966
1.3332966
1.3332966
1.3332966
1.3332966
1.3332966
1.3332966
1.3332966
1.3332966
1.3332965
1.3332965
1.3332965
1.3332965
1.3332965
1.3332965
1.3332965
1.3332965
1.3332965
1.3332965
1.3332965
1.3332965
1.3332965
1.3332965
1.3332965
1.3332965
1.3332965
1.3332964
1.3332964
1.3332964
1.3332964
1.3332964
1.3332964
1.3332964
1.3332964
1.3332964
1.3332964
1.3332964
1.3332964
1.3332964
1.3332964
1.3332964
1.3332964
1.3332964
1.3332964
1.3332964
1.3332964
1.3332964
1.3332964
1.3332964
1.3332964
1.3332964
1.3332964
1.3332964
1.3332963
1.3332963
1.3332963
1.3332963
1.3332963
1.3332963
1.3332963
1.3332963
1.3332963
1.3332963
1.3332963
1.3332963
1.3332963
1.3332963
1.3332963
1.3332963
1.3332963
1.3332963
1.3332963
1.3332963
1.3332963
1.3332963
1.3332963
1.3332963
1.3332963
1.3332963
1.3332963
1.3332963
1.3332963
1.3332963
1.3332963
1.3332963
1.3332963
1.3332963
1.3332963
1.3332962
1.3332962
1.3332962
1.3332962
1.3332962
1.3332962
1.3332962
1.3332962
1.3332962
1.3332962
1.3332962
1.3332962
1.3332962
1.3332962
1.3332962
1.3332962
1.3332961
1.3332961
1.3332961
1.3332961
1.3332961
1.3332961
1.3332961
1.3332961
1.3332961
1.3332961
1.3332961
1.3332961
1.3332961
1.3332961
1.3332961
1.3332961
1.333296
1.333296
1.333296
1.333296
1.333296
1.333296
1.333296
1.333296
1.333296
1.333296
1.333296
1.333296
1.333296
1.333296
1.3332959
1.3332959
1.3332959
1.3332959
1.3332959
1.3332959
1.3332959
1.3332959
1.3332959
1.3332959
1.3332959
1.3332959
1.3332959
1.3332959
1.3332958
1.3332958
1.3332958
1.3332958
1.3332958
1.3332958
1.3332958
1.3332958
1.3332958
1.3332958
1.3332958
1.3332958
1.3332958
1.3332957
1.3332957
1.3332957
1.3332957
1.3332957
1.3332957
1.3332957
1.3332957
1.3332957
1.3332957
1.3332957
1.3332957
1.3332957
1.3332957
1.3332956
1.3332956
1.3332956
1.3332956
1.3332956
1.3332956
1.3332956
1.3332956
1.3332956
1.3332956
1.3332956
1.3332956
1.3332956
1.3332956
1.3332955
1.3332955
1.3332955
1.3332955
1.3332955
1.3332955
1.3332955
1.3332955
1.3332955
1.3332955
1.3332955
1.3332955
1.3332955
1.3332955
1.3332955
1.3332954
1.3332954
1.3332954
1.3332954
1.3332954
1.3332954
1.3332954
1.3332954
1.3332954
1.3332954
1.3332954
1.3332954
1.3332954
1.3332953
1.3332953
1.3332953
1.3332953
1.3332953
1.3332953
1.3332953
1.3332953
1.3332953
1.3332953
1.3332953
1.3332953
1.3332953
1.3332953
1.3332953
1.3332952
1.3332952
1.3332952
1.3332952
1.3332952
1.3332952
1.3332952
1.3332952
1.3332952
1.3332952
1.3332952
1.3332952
1.3332951
1.3332951
1.3332951
1.3332951
1.3332951
1.3332951
1.3332951
1.3332951
1.3332951
1.3332951
1.3332951
1.3332951
1.3332951
1.333295
1.333295
1.333295
1.333295
1.333295
1.333295
1.333295
1.333295
1.333295
1.333295
1.333295
1.333295
1.333295
1.3332949
1.3332949
1.3332949
1.3332949
1.3332949
1.3332949
1.3332949
1.3332949
1.3332949
1.3332949
1.3332948
1.3332948
1.3332948
1.3332948
1.3332948
1.3332948
1.3332948
1.3332948
1.3332948
1.3332948
1.3332948
1.3332948
1.3332948
1.3332947
1.3332947
1.3332947
1.3332947
1.3332947
1.3332947
1.3332947
1.3332947
1.3332947
1.3332946
1.3332946
1.3332946
1.3332946
1.3332946
1.3332946
1.3332946
1.3332946
1.3332946
1.3332946
1.3332946
1.3332946
1.3332946
1.3332945
1.3332945
1.3332945
1.3332945
1.3332945
1.3332945
1.3332945
1.3332945
1.3332945
1.3332945
1.3332944
1.3332944
1.3332944
1.3332944
1.3332944
1.3332944
1.3332944
1.3332944
1.3332944
1.3332944
1.3332944
1.3332944
1.3332943
1.3332943
1.3332943
1.3332943
1.3332943
1.3332943
1.3332943
1.3332943
1.3332943
1.3332943
1.3332943
1.3332943
1.3332942
1.3332942
1.3332942
1.3332942
1.3332942
1.3332942
1.3332942
1.3332942
1.3332942
1.3332942
1.3332942
1.3332941
1.3332941
1.3332941
1.3332941
1.3332941
1.3332941
1.3332941
1.3332941
1.3332941
1.3332941
1.333294
1.333294
1.333294
1.333294
1.333294
1.333294
1.333294
1.333294
1.333294
1.333294
1.333294
1.3332939
1.3332939
1.3332939
1.3332939
1.3332939
1.3332939
1.3332939
1.3332939
1.3332939
1.3332938
1.3332938
1.3332938
1.3332938
1.3332938
1.3332938
1.3332938
1.3332938
1.3332938
1.3332937
1.3332937
1.3332937
1.3332937
1.3332937
1.3332937
1.3332937
1.3332937
1.3332936
1.3332936
1.3332936
1.3332936
1.3332936
1.3332936
1.3332936
1.3332936
1.3332936
1.3332935
1.3332935
1.3332935
1.3332935
1.3332935
1.3332935
1.3332935
1.3332935
1.3332934
1.3332934
1.3332934
1.3332934
1.3332934
1.3332934
1.3332934
1.3332934
1.3332933
1.3332933
1.3332933
1.3332933
1.3332933
1.3332933
1.3332933
1.3332933
1.3332932
1.3332932
1.3332932
1.3332932
1.3332932
1.3332932
1.3332932
1.3332931
1.3332931
1.3332931
1.3332931
1.3332931
1.3332931
1.3332931
1.3332931
1.3332931
1.333293
1.333293
1.333293
1.333293
1.333293
1.333293
1.333293
1.3332929
1.3332929
1.3332929
1.3332929
1.3332929
1.3332929
1.3332929
1.3332929
1.3332929
1.3332929
1.3332928
1.3332928
1.3332928
1.3332928
1.3332928
1.3332928
1.3332928
1.3332928
1.3332928
1.3332927
1.3332927
1.3332927
1.3332927
1.3332927
1.3332927
1.3332927
1.3332927
1.3332926
1.3332926
1.3332926
1.3332926
1.3332926
1.3332926
1.3332926
1.3332926
1.3332926
1.3332926
1.3332925
1.3332925
1.3332925
1.3332925
1.3332925
1.3332925
1.3332925
1.3332925
1.3332924
1.3332924
1.3332924
1.3332924
1.3332924
1.3332924
1.3332924
1.3332924
1.3332924
1.3332923
1.3332923
1.3332923
1.3332923
1.3332923
1.3332923
1.3332923
1.3332923
1.3332922
1.3332922
1.3332922
1.3332922
1.3332922
1.3332922
1.3332922
1.3332921
1.3332921
1.3332921
1.3332921
1.3332921
1.3332921
1.3332921
1.3332921
1.3332921
1.333292
1.333292
1.333292
1.333292
1.333292
1.333292
1.333292
1.3332919
1.3332919
1.3332919
1.3332919
1.3332919
1.3332919
1.3332919
1.3332918
1.3332918
1.3332918
1.3332918
1.3332918
1.3332918
1.3332917
1.3332917
1.3332917
1.3332917
1.3332917
1.3332917
1.3332917
1.3332916
1.3332916
1.3332916
1.3332916
1.3332916
1.3332916
1.3332915
1.3332915
1.3332915
1.3332915
1.3332915
1.3332915
1.3332915
1.3332915
1.3332914
1.3332914
1.3332914
1.3332914
1.3332914
1.3332914
1.3332913
1.3332913
1.3332913
1.3332913
1.3332913
1.3332913
1.3332912
1.3332912
1.3332912
1.3332912
1.3332912
1.3332912
1.3332911
1.3332911
1.3332911
1.3332911
1.3332911
1.3332911
1.333291
1.333291
1.333291
1.333291
1.333291
1.333291
1.333291
1.3332909
1.3332909
1.3332909
1.3332909
1.3332909
1.3332909
1.3332908
1.3332908
1.3332908
1.3332908
1.3332908
1.3332908
1.3332907
1.3332907
1.3332907
1.3332907
1.3332907
1.3332907
1.3332906
1.3332906
1.3332906
1.3332906
1.3332906
1.3332906
1.3332905
1.3332905
1.3332905
1.3332905
1.3332905
1.3332905
1.3332904
1.3332904
1.3332904
1.3332904
1.3332904
1.3332904
1.3332904
1.3332903
1.3332903
1.3332903
1.3332903
1.3332903
1.3332902
1.3332902
1.3332902
1.3332902
1.3332902
1.3332901
1.3332901
1.3332901
1.3332901
1.3332901
1.3332901
1.33329
1.33329
1.33329
1.33329
1.33329
1.33329
1.3332899
1.3332899
1.3332899
1.3332899
1.3332899
1.3332899
1.3332898
1.3332898
1.3332898
1.3332898
1.3332898
1.3332898
1.3332897
1.3332897
1.3332897
1.3332897
1.3332897
1.3332896
1.3332896
1.3332896
1.3332896
1.3332896
1.3332896
1.3332895
1.3332895
1.3332895
1.3332895
1.3332895
1.3332894
1.3332894
1.3332894
1.3332894
1.3332894
1.3332894
1.3332893
1.3332893
1.3332893
1.3332893
1.3332893
1.3332892
1.3332892
1.3332892
1.3332892
1.3332892
1.3332892
1.3332891
1.3332891
1.3332891
1.3332891
1.3332891
1.333289
1.333289
1.333289
1.333289
1.333289
1.3332889
1.3332889
1.3332889
1.3332889
1.3332889
1.3332888
1.3332888
1.3332888
1.3332888
1.3332888
1.3332887
1.3332887
1.3332887
1.3332887
1.3332887
1.3332886
1.3332886
1.3332886
1.3332886
1.3332886
1.3332885
1.3332885
1.3332885
1.3332885
1.3332884
1.3332884
1.3332884
1.3332884
1.3332884
1.3332883
1.3332883
1.3332883
1.3332883
1.3332883
1.3332882
1.3332882
1.3332882
1.3332882
1.3332881
1.3332881
1.3332881
1.3332881
1.3332881
1.333288
1.333288
1.333288
1.333288
1.3332879
1.3332879
1.3332879
1.3332879
1.3332879
1.3332878
1.3332878
1.3332878
1.3332878
1.3332877
1.3332877
1.3332877
1.3332877
1.3332876
1.3332876
1.3332876
1.3332876
1.3332876
1.3332875
1.3332875
1.3332875
1.3332875
1.3332874
1.3332874
1.3332874
1.3332874
1.3332873
1.3332873
1.3332873
1.3332873
1.3332872
1.3332872
1.3332872
1.3332872
1.3332871
1.3332871
1.3332871
1.3332871
1.333287
1.333287
1.333287
1.333287
1.3332869
1.3332869
1.3332869
1.3332869
1.3332868
1.3332868
1.3332868
1.3332867
1.3332867
1.3332867
1.3332867
1.3332866
1.3332866
1.3332866
1.3332866
1.3332865
1.3332865
1.3332865
1.3332865
1.3332864
1.3332864
1.3332864
1.3332864
1.3332863
1.3332863
1.3332863
1.3332863
1.3332862
1.3332862
1.3332862
1.3332861
1.3332861
1.3332861
1.3332861
1.333286
1.333286
1.333286
1.333286
1.3332859
1.3332859
1.3332859
1.3332859
1.3332858
1.3332858
1.3332858
1.3332857
1.3332857
1.3332857
1.3332856
1.3332856
1.3332856
1.3332856
1.3332855
1.3332855
1.3332855
1.3332854
1.3332854
1.3332854
1.3332853
1.3332853
1.3332853
1.3332853
1.3332852
1.3332852
1.3332852
1.3332851
1.3332851
1.3332851
1.3332851
1.333285
1.333285
1.333285
1.3332849
1.3332849
1.3332849
1.3332848
1.3332848
1.3332848
1.3332847
1.3332847
1.3332847
1.3332847
1.3332846
1.3332846
1.3332846
1.3332845
1.3332845
1.3332845
1.3332844
1.3332844
1.3332844
1.3332843
1.3332843
1.3332843
1.3332842
1.3332842
1.3332842
1.3332841
1.3332841
1.3332841
1.3332841
1.333284
1.333284
1.333284
1.3332839
1.3332839
1.3332839
1.3332838
1.3332838
1.3332837
1.3332837
1.3332837
1.3332836
1.3332836
1.3332836
1.3332835
1.3332835
1.3332835
1.3332834
1.3332834
1.3332834
1.3332833
1.3332833
1.3332833
1.3332832
1.3332832
1.3332832
1.3332831
1.3332831
1.333283
1.333283
1.333283
1.3332829
1.3332829
1.3332829
1.3332828
1.3332828
1.3332827
1.3332827
1.3332827
1.3332826
1.3332826
1.3332826
1.3332825
1.3332825
1.3332824
1.3332824
1.3332824
1.3332823
1.3332823
1.3332822
1.3332822
1.3332822
1.3332821
1.3332821
1.3332821
1.333282
1.333282
1.3332819
1.3332819
1.3332818
1.3332818
1.3332818
1.3332817
1.3332817
1.3332816
1.3332816
1.3332816
1.3332815
1.3332815
1.3332814
1.3332814
1.3332814
1.3332813
1.3332813
1.3332812
1.3332812
1.3332811
1.3332811
1.3332811
1.333281
1.333281
1.3332809
1.3332809
1.3332808
1.3332808
1.3332808
1.3332807
1.3332807
1.3332806
1.3332806
1.3332805
1.3332805
1.3332804
1.3332804
1.3332804
1.3332803
1.3332803
1.3332802
1.3332802
1.3332801
1.3332801
1.33328
1.33328
1.33328
1.3332799
1.3332799
1.3332798
1.3332798
1.3332797
1.3332797
1.3332796
1.3332796
1.3332795
1.3332795
1.3332794
1.3332794
1.3332793
1.3332793
1.3332792
1.3332792
1.3332791
1.3332791
1.333279
1.333279
1.3332789
1.3332789
1.3332788
1.3332788
1.3332787
1.3332787
1.3332786
1.3332786
1.3332785
1.3332785
1.3332784
1.3332784
1.3332783
1.3332783
1.3332782
1.3332782
1.3332781
1.3332781
1.333278
1.333278
1.3332779
1.3332778
1.3332778
1.3332777
1.3332777
1.3332776
1.3332776
1.3332775
1.3332775
1.3332774
1.3332773
1.3332773
1.3332772
1.3332772
1.3332771
1.3332771
1.333277
1.333277
1.3332769
1.3332768
1.3332768
1.3332767
1.3332767
1.3332766
1.3332765
1.3332765
1.3332764
1.3332764
1.3332763
1.3332762
1.3332762
1.3332761
1.3332761
1.333276
1.3332759
1.3332759
1.3332758
1.3332757
1.3332757
1.3332756
1.3332756
1.3332755
1.3332754
1.3332754
1.3332753
1.3332752
1.3332752
1.3332751
1.333275
1.333275
1.3332749
1.3332748
1.3332748
1.3332747
1.3332746
1.3332746
1.3332745
1.3332744
1.3332744
1.3332743
1.3332742
1.3332742
1.3332741
1.333274
1.333274
1.3332739
1.3332738
1.3332737
1.3332737
1.3332736
1.3332735
1.3332734
1.3332734
1.3332733
1.3332732
1.3332732
1.3332731
1.333273
1.3332729
1.3332729
1.3332728
1.3332727
1.3332726
1.3332725
1.3332725
1.3332724
1.3332723
1.3332722
1.3332721
1.3332721
1.333272
1.3332719
1.3332718
1.3332717
1.3332717
1.3332716
1.3332715
1.3332714
1.3332713
1.3332712
1.3332712
1.3332711
1.333271
1.3332709
1.3332708
1.3332708
1.3332707
1.3332706
1.3332705
1.3332704
1.3332703
1.3332702
1.3332701
1.33327
1.33327
1.3332699
1.3332698
1.3332697
1.3332696
1.3332695
1.3332694
1.3332693
1.3332692
1.3332691
1.333269
1.3332689
1.3332688
1.3332687
1.3332686
1.3332685
1.3332684
1.3332683
1.3332682
1.3332681
1.333268
1.3332679
1.3332678
1.3332677
1.3332676
1.3332675
1.3332674
1.3332673
1.3332672
1.3332671
1.333267
1.3332669
1.3332668
1.3332667
1.3332665
1.3332664
1.3332663
1.3332662
1.3332661
1.3332659
1.3332658
1.3332657
1.3332656
1.3332655
1.3332654
1.3332652
1.3332651
1.333265
1.3332649
1.3332648
1.3332646
1.3332645
1.3332644
1.3332643
1.3332641
1.333264
1.3332639
1.3332637
1.3332636
1.3332635
1.3332633
1.3332632
1.3332631
1.3332629
1.3332628
1.3332626
1.3332625
1.3332624
1.3332622
1.3332621
1.3332619
1.3332618
1.3332616
1.3332615
1.3332614
1.3332612
1.3332611
1.3332609
1.3332608
1.3332606
1.3332605
1.3332603
1.3332602
1.33326
1.3332599
1.3332597
1.3332595
1.3332594
1.3332592
1.333259
1.3332589
1.3332587
1.3332585
1.3332584
1.3332582
1.333258
1.3332578
1.3332577
1.3332575
1.3332573
1.3332571
1.3332569
1.3332567
1.3332566
1.3332564
1.3332562
1.333256
1.3332558
1.3332556
1.3332554
1.3332552
1.333255
1.3332548
1.3332546
1.3332544
1.3332542
1.333254
1.3332538
1.3332536
1.3332533
1.3332531
1.3332529
1.3332527
1.3332525
1.3332523
1.333252
1.3332518
1.3332516
1.3332513
1.3332511
1.3332508
1.3332506
1.3332504
1.3332501
1.3332498
1.3332496
1.3332493
1.3332491
1.3332488
1.3332485
1.3332482
1.333248
1.3332477
1.3332474
1.3332472
1.3332469
1.3332466
1.3332463
1.333246
1.3332457
1.3332454
1.3332451
1.3332448
1.3332445
1.3332442
1.3332439
1.3332436
1.3332433
1.333243
1.3332426
1.3332423
1.3332419
1.3332416
1.3332412
1.3332408
1.3332404
1.3332401
1.3332397
1.3332393
1.3332389
1.3332385
1.3332382
1.3332378
1.3332374
1.333237
1.3332365
1.3332361
1.3332357
1.3332352
1.3332348
1.3332344
1.3332339
1.3332334
1.333233
1.3332325
1.333232
1.3332315
1.333231
1.3332305
1.33323
1.3332295
1.333229
1.3332285
1.3332279
1.3332274
1.3332269
1.3332263
1.3332258
1.3332253
1.3332247
1.3332242
1.3332236
1.3332231
1.3332225
1.333222
1.3332214
1.3332209
1.3332204
1.3332199
1.3332194
1.333219
1.3332185
1.3332181
1.3332178
1.3332174
1.3332171
1.3332168
1.3332165
1.3332163
1.3332162
1.333216
1.3332159
1.3332159
1.3332159
1.3332159
1.3332159
1.3332159
1.3332159
1.3332161
1.3332162
1.3332164
1.3332165
1.3332167
1.3332168
1.3332168
1.3332169
1.3332169
1.3332169
1.3332169
1.3332168
1.3332166
1.3332162
1.3332156
1.3332148
1.333214
1.3332132
1.3332122
1.3332112
1.3332101
1.333209
1.3332078
1.3332065
1.3332052
1.3332039
1.3332026
1.3332013
1.3332
1.3331988
1.3331976
1.3331965
1.3331955
1.3331945
1.3331937
1.333193
1.3331923
1.3331918
1.3331914
1.333191
1.3331908
1.3331907
1.3331905
1.3331903
1.3331899
1.333189
1.333187
1.3331822
1.3331705
1.3331415
1.3330692
1.3328887
1.3324391
1.3313203
1.328957
1.3258342
1.3221066
1.3178864
1.3133099
1.3085252
1.3036797
1.2989098
1.2943334
1.2900442
1.2861102
1.2825741
1.2794549
1.2767521
1.2744494
1.2725189
1.2709252
1.2696289
1.2685897
1.2677682
1.2671275
1.2666347
1.2662606
1.2659806
1.2657738
1.2656234
1.2655158
1.26544
1.2653878
1.2653528
1.26533
1.2653159
1.2653077
1.2653036
1.2653021
1.2653019
1.2653024
1.2653043
1.2653076
1.2653108
1.2653137
1.2653165
1.265319
1.2653213
1.2653235
1.2653255
1.2653274
1.2653292
1.2653309
1.2653325
1.2653341
1.2653355
1.265337
1.2653384
1.2653398
1.2653413
1.2653428
1.2653443
1.2653459
1.2653475
1.2653493
1.2653511
1.265353
1.2653549
1.265357
1.265359
1.2653611
1.2653633
1.2653654
1.2653676
1.2653697
1.2653718
1.2653739
1.2653759
1.2653778
1.2653797
1.2653815
1.2653833
1.2653849
1.2653865
1.2653879
1.2653894
1.2653907
1.265392
1.2653932
1.2653943
1.2653954
1.2653964
1.2653974
1.2653983
1.2653992
1.2654001
1.2654009
1.2654017
1.2654024
1.2654032
1.2654039
1.2654046
1.2654053
1.2654059
1.2654065
1.2654072
1.2654078
1.2654084
1.2654089
1.2654095
1.2654101
1.2654106
1.2654111
1.2654116
1.2654121
1.2654127
1.2654131
1.2654136
1.2654141
1.2654146
1.265415
1.2654155
1.2654159
1.2654164
1.2654168
1.2654172
1.2654176
1.2654181
1.2654185
1.2654189
1.2654192
1.2654196
1.26542
1.2654204
1.2654208
1.2654211
1.2654215
1.2654219
1.2654222
1.2654226
1.2654229
1.2654233
1.2654236
1.2654239
1.2654242
1.2654246
1.2654249
1.2654252
1.2654255
1.2654258
1.2654261
1.2654264
1.2654267
1.265427
1.2654272
1.2654275
1.2654278
1.2654281
1.2654283
1.2654286
1.2654289
1.2654291
1.2654294
1.2654296
1.2654299
1.2654302
1.2654304
1.2654307
1.2654309
1.2654312
1.2654314
1.2654316
1.2654319
1.2654321
1.2654323
1.2654326
1.2654328
1.265433
1.2654332
1.2654334
1.2654336
1.2654339
1.2654341
1.2654343
1.2654345
1.2654347
1.2654349
1.2654351
1.2654353
1.2654355
1.2654357
1.2654359
1.2654361
1.2654363
1.2654365
1.2654367
1.2654369
1.265437
1.2654372
1.2654374
1.2654376
1.2654378
1.2654379
1.2654381
1.2654383
1.2654384
1.2654386
1.2654388
1.2654389
1.2654391
1.2654393
1.2654394
1.2654396
1.2654398
1.2654399
1.2654401
1.2654402
1.2654404
1.2654405
1.2654407
1.2654408
1.265441
1.2654411
1.2654413
1.2654414
1.2654416
1.2654417
1.2654419
1.265442
1.2654421
1.2654423
1.2654424
1.2654426
1.2654427
1.2654428
1.265443
1.2654431
1.2654432
1.2654434
1.2654435
1.2654436
1.2654438
1.2654439
1.265444
1.2654442
1.2654443
1.2654444
1.2654445
1.2654447
1.2654448
1.2654449
1.265445
1.2654451
1.2654452
1.2654453
1.2654455
1.2654456
1.2654457
1.2654458
1.2654459
1.265446
1.2654462
1.2654463
1.2654464
1.2654465
1.2654466
1.2654467
1.2654468
1.2654469
1.265447
1.2654472
1.2654473
1.2654474
1.2654475
1.2654476
1.2654477
1.2654478
1.2654479
1.265448
1.2654481
1.2654482
1.2654483
1.2654484
1.2654485
1.2654486
1.2654487
1.2654488
1.2654489
1.265449
1.2654491
1.2654491
1.2654492
1.2654493
1.2654494
1.2654495
1.2654496
1.2654497
1.2654498
1.2654499
1.26545