/*--------------------------------*- C++ -*----------------------------------*\
  =========                 |
  \\      /  F ield         | OpenFOAM: The Open Source CFD Toolbox
   \\    /   O peration     | Website:  https://openfoam.org
    \\  /    A nd           | Version:  7
     \\/     M anipulation  |
\*---------------------------------------------------------------------------*/
FoamFile
{
    version     2.0;
    format      ascii;
    class       volVectorField;
    location    "0.00181";
    object      U;
}
// * * * * * * * * * * * * * * * * * * * * * * * * * * * * * * * * * * * * * //

dimensions      [0 1 -1 0 0 0 0];

internalField   nonuniform List<vector> 
5000
(
(0.079638408 1.1429421e-19 0)
(0.084812108 2.3346372e-19 0)
(0.074798306 0 0)
(0.081502414 0 0)
(0.080721136 -7.8553181e-20 0)
(0.079961215 7.4613727e-35 -6.5630928e-20)
(0.079775922 6.3867516e-20 -1.361418e-34)
(0.079846528 0 1.9376422e-19)
(0.079988391 0 6.5625162e-20)
(0.080002641 -6.6595089e-20 -1.3319018e-19)
(0.080024436 -1.3502462e-19 -1.3502462e-19)
(0.080059951 6.8435616e-20 6.8435616e-20)
(0.080095502 6.9376994e-20 -5.9154383e-34)
(0.080129834 -7.0317253e-20 -6.1954632e-34)
(0.080164523 0 1.4252386e-19)
(0.080199516 -7.2214436e-20 -1.4442887e-19)
(0.080234669 7.429684e-49 3.714842e-49)
(0.080269995 7.4143525e-20 -6.5325857e-34)
(0.08030551 0 -7.5120823e-20)
(0.080341219 7.6107314e-20 1.5221463e-19)
(0.080377141 -7.7103556e-20 7.7103556e-20)
(0.080413244 -7.8110091e-20 0)
(0.080449505 1.5825476e-19 0)
(0.080485983 -8.0156094e-20 -8.0156094e-20)
(0.080522699 -8.1197059e-20 6.9232776e-34)
(0.080559633 -6.7793702e-34 -6.7793702e-34)
(0.080596783 8.3318623e-20 -8.3318623e-20)
(0.080634159 8.4400792e-20 8.4400792e-20)
(0.080671769 -1.7099686e-19 8.5498428e-20)
(0.080709618 1.5016219e-33 -8.6612497e-20)
(0.080747711 -1.5337087e-33 1.5337087e-33)
(0.080786056 8.8894127e-20 -7.5795692e-34)
(0.080824658 1.8012792e-19 -9.0063962e-20)
(0.080863526 -1.8250957e-19 9.1254785e-20)
(0.080902667 1.6031388e-33 9.246792e-20)
(0.080942089 -8.1495448e-33 0)
(0.080981799 -3.2929267e-33 0)
(0.081021807 1.9251146e-19 -9.625573e-20)
(0.081062123 -1.9514618e-19 -9.7573089e-20)
(0.081102755 -1.9784141e-19 9.8920705e-20)
(0.081143714 2.0060092e-19 -1.6819192e-33)
(0.081185011 -6.995966e-33 -1.0171433e-19)
(0.081226661 -2.0632882e-19 1.0316441e-19)
(0.081268676 1.0465292e-19 -1.7697768e-33)
(0.08131107 3.1854652e-19 -1.0618217e-19)
(0.081353875 -1.0775469e-19 1.0775469e-19)
(0.081397071 -1.0937304e-19 -3.7613683e-33)
(0.081440615 -7.6058115e-33 3.8029058e-33)
(0.081484573 -2.2551498e-19 -3.8777603e-33)
(0.081529029 0 1.9530774e-33)
(0.081573979 1.1635948e-19 1.1635948e-19)
(0.081619402 1.680434e-35 0)
(0.081665318 -1.2020467e-19 0)
(0.081711759 2.4445415e-19 0)
(0.081758748 -4.3461025e-33 0)
(0.081806305 -2.5298106e-19 0)
(0.081854453 1.2873965e-19 0)
(0.081903218 -4.5262528e-33 0)
(0.081952627 -1.3349427e-19 0)
(0.082002707 0 0)
(0.082053487 1.3862182e-19 0)
(0.082104999 4.8204768e-33 0)
(0.082157274 4.0973449e-35 0)
(0.082210346 1.471013e-19 -1.471013e-19)
(0.082264252 -1.5016005e-19 -1.5016005e-19)
(0.082319027 5.3607355e-33 1.5334481e-19)
(0.082374712 1.5666188e-19 -2.693822e-33)
(0.082431349 -1.601178e-19 1.6982315e-49)
(0.082488978 -1.6371939e-19 1.6371939e-19)
(0.082547647 1.6747372e-19 0)
(0.082607403 1.7138816e-19 0)
(0.082668296 -1.7547034e-19 -1.7547034e-19)
(0.082730377 -1.797282e-19 -1.797282e-19)
(0.0827937 3.6833992e-19 0)
(0.082858324 1.8880417e-19 1.8880417e-19)
(0.082924312 -1.9363969e-19 6.6868389e-33)
(0.082991724 0 -1.9868571e-19)
(0.083060643 2.0395178e-19 -2.0395178e-19)
(0.083131126 -2.9764316e-35 2.0944775e-19)
(0.083203258 -2.1518388e-19 4.3036775e-19)
(0.083277106 2.211708e-19 -4.423416e-19)
(0.083352624 -6.4636405e-35 1.2927281e-34)
(0.08342986 6.6489671e-35 7.018192e-19)
(0.083509075 2.4074472e-19 -4.8148944e-19)
(0.083590473 2.4784702e-19 -2.5781904e-32)
(0.083674045 8.8872523e-33 5.1051819e-19)
(0.083759774 -2.6299324e-19 -7.8897971e-19)
(0.083847776 0 2.7106263e-19)
(0.083938206 -2.7948137e-19 2.7948137e-19)
(0.084031179 -2.9904276e-32 -2.8826388e-19)
(0.08412679 -1.0397587e-32 2.9742484e-19)
(0.084225149 3.0697939e-19 3.0697939e-19)
(0.084326383 3.1694324e-19 1.1034884e-32)
(0.084430619 -6.546652e-19 -6.546652e-19)
(0.084537985 -2.3403284e-32 -2.3403284e-32)
(0.08464862 3.4945528e-19 -3.4945528e-19)
(0.084762663 0 -3.6122359e-19)
(0.08488026 0 -1.3109714e-32)
(0.085001563 -3.8626583e-19 2.6896921e-32)
(0.08512673 -2.771033e-32 7.9915619e-19)
(0.085255927 8.2688867e-19 4.1344434e-19)
(0.085389322 -4.278852e-19 -4.278852e-19)
(0.085527094 -8.8584392e-19 6.2942996e-35)
(0.085669422 0 4.5857651e-19)
(0.085816504 4.7487138e-19 0)
(0.085968538 4.918298e-19 -4.918298e-19)
(0.08612573 -5.0947561e-19 -1.7738206e-32)
(0.086288314 -5.2783342e-19 5.2783342e-19)
(0.086456499 0 -5.4692851e-19)
(0.086630499 0 -5.6678676e-19)
(0.086810519 5.8743482e-19 1.1748696e-18)
(0.086996654 6.088997e-19 6.088997e-19)
(0.087189081 0 -1.8936266e-18)
(0.087388315 -6.5439175e-19 -6.5439175e-19)
(0.087594905 2.3718762e-32 2.0354384e-18)
(0.08780901 7.0350281e-19 -7.0350281e-19)
(0.088030617 -7.2949178e-19 -7.2949178e-19)
(0.088259972 2.1500387e-34 -4.3000773e-34)
(0.088497537 -2.7424882e-32 -7.8449371e-19)
(0.088743708 1.4262676e-48 2.4407236e-18)
(0.088998758 1.6875093e-18 -5.8993136e-32)
(0.089262979 -3.7306444e-34 -1.7501384e-18)
(0.089536725 -9.0755448e-19 1.815109e-18)
(0.089820373 0 9.4124781e-19)
(0.090114293 -9.7618737e-19 -9.7618737e-19)
(0.090418859 1.0124122e-18 1.0124122e-18)
(0.090734467 1.0499622e-18 -1.0499622e-18)
(0.091061518 -2.1777565e-18 -2.1777565e-18)
(0.091400437 -1.1292023e-18 1.1292023e-18)
(0.091751651 2.3419539e-18 4.0436617e-32)
(0.092115607 1.214246e-18 1.214246e-18)
(0.092492774 -1.2590542e-18 2.5181085e-18)
(0.09288362 -1.3054473e-18 -1.3054473e-18)
(0.093288651 -1.3534718e-18 -1.3534718e-18)
(0.093708376 0 -1.4031754e-18)
(0.094143274 1.4546069e-18 -5.0644457e-32)
(0.094593825 1.5078155e-18 -5.2282728e-32)
(0.095060468 -1.5628518e-18 5.4413177e-32)
(0.095543624 -5.6164575e-32 3.2395333e-18)
(0.096043976 1.6786125e-18 1.6786125e-18)
(0.096562516 -1.7394441e-18 -1.7394441e-18)
(0.097100041 -1.8023177e-18 -3.6046353e-18)
(0.097656858 0 -1.8672885e-18)
(0.098233231 1.9344112e-18 -1.9344112e-18)
(0.098829859 2.0037427e-18 1.3895749e-31)
(0.099447688 -2.0753428e-18 4.1506856e-18)
(0.1000875 2.1492721e-18 -6.1085986e-34)
(0.10074989 -1.2651019e-33 6.3255097e-34)
(0.10143551 -2.3043603e-18 -3.4673395e-47)
(0.10214512 2.3856428e-18 2.3856428e-18)
(0.10287954 -2.4695022e-18 -1.7125744e-31)
(0.10363955 1.7798266e-31 3.5596532e-31)
(0.10442596 2.6452115e-18 2.6452115e-18)
(0.10523957 -2.7371932e-18 -2.7371932e-18)
(0.10608125 2.8320157e-18 2.8320157e-18)
(0.10695187 2.9297476e-18 1.0158749e-31)
(0.10785233 -3.030458e-18 -3.030458e-18)
(0.10878353 0 3.134217e-18)
(0.10974642 0 -4.6058741e-34)
(0.11074194 -3.3511662e-18 -3.3511662e-18)
(0.11177099 -3.4645009e-18 0)
(0.11283447 3.5811731e-18 3.5811731e-18)
(0.11393327 3.7012567e-18 2.5615237e-31)
(0.11506843 -3.8248264e-18 -7.6496527e-18)
(0.11624134 -2.7406424e-31 3.9519582e-18)
(0.11745348 4.0827306e-18 -1.1603818e-33)
(0.11870588 -4.2172219e-18 -4.2172219e-18)
(0.11999917 -4.3555087e-18 4.3555087e-18)
(0.12133421 0 -4.4976672e-18)
(0.12271244 4.6437767e-18 4.6437767e-18)
(0.12413537 4.7939186e-18 -1.997445e-30)
(0.12560424 0 -1.3726031e-30)
(0.1271201 -5.1066234e-18 5.1066234e-18)
(0.12868416 -5.2693468e-18 -1.0538694e-17)
(0.13029779 0 0)
(0.13196237 5.6079441e-18 -3.8890515e-31)
(0.13367925 1.2033398e-30 -1.2033398e-30)
(0.13544977 -5.9646259e-18 5.9646259e-18)
(0.13727533 6.1499553e-18 6.1499553e-18)
(0.1391574 6.3400547e-18 4.3697334e-31)
(0.14109741 -6.5350077e-18 -6.5350077e-18)
(0.14309685 -4.6514406e-31 6.7348979e-18)
(0.14515719 4.7732378e-31 4.7732378e-31)
(0.14727989 3.0481535e-33 3.0481535e-33)
(0.14946639 7.3650282e-18 1.0204676e-30)
(0.15171821 -7.5855032e-18 -1.5171006e-17)
(0.15403695 -1.0834157e-30 7.8113324e-18)
(0.1564245 5.531743e-31 8.0425994e-18)
(0.15888284 -5.6946079e-31 -5.6946079e-31)
(0.1614137 8.5217843e-18 5.8734392e-31)
(0.16401835 0 -1.8232978e-30)
(0.16669816 0 6.2322108e-31)
(0.16945495 -9.2834224e-18 -9.2834224e-18)
(0.17229089 -9.5490549e-18 0)
(0.17520789 0 0)
(0.17820761 0 0)
(0.18129174 1.0382352e-17 0)
(0.18446219 -1.4127426e-47 -1.0672512e-17)
(0.18772095 -1.0969e-17 2.2867429e-30)
(0.19106996 0 1.1271893e-17)
(0.19451111 1.1581266e-17 1.1581266e-17)
(0.19804639 -1.1897194e-17 -1.1897194e-17)
(0.20167778 -3.3862354e-30 -1.221975e-17)
(0.2054073 2.5098017e-17 2.5098017e-17)
(0.20923695 -1.2885039e-17 8.9173315e-31)
(0.21316872 -2.7463872e-30 -2.7463872e-30)
(0.21720461 -1.9295071e-33 -1.3577699e-17)
(0.22134664 -1.3934463e-17 -1.3934463e-17)
(0.22559694 1.4298271e-17 1.4298271e-17)
(0.22995779 -2.0846168e-33 0)
(0.23443166 -2.0827492e-30 1.5047273e-17)
(0.23902085 1.0680415e-30 1.0680415e-30)
(0.24372729 -1.5825211e-17 -1.5825211e-17)
(0.24855274 0 -1.6225177e-17)
(0.25349935 1.6632546e-17 2.3163544e-30)
(0.25856968 1.1797951e-30 1.7047372e-17)
(0.26376627 4.8485081e-30 -3.4939419e-17)
(0.26909128 1.789961e-17 1.789961e-17)
(0.2745468 0 1.8337118e-17)
(0.28013508 -1.8782279e-17 -1.8782279e-17)
(0.28585854 -1.9235137e-17 1.9235137e-17)
(0.29171957 0 0)
(0.29772048 0 0)
(0.30386359 0 0)
(0.31015127 2.1124321e-17 2.1124321e-17)
(0.31658588 1.4959915e-30 -2.161623e-17)
(0.32316977 -2.2116046e-17 -4.4232092e-17)
(0.32990527 0 2.2623795e-17)
(0.3367947 0 -1.6079888e-30)
(0.34384043 2.366318e-17 2.366318e-17)
(0.35104491 2.4194854e-17 2.4194854e-17)
(0.35841076 -2.4734536e-17 -4.9469073e-17)
(0.36594066 -2.5282241e-17 7.1856451e-33)
(0.37363704 0 -7.3435959e-33)
(0.38150195 2.6401763e-17 2.6401763e-17)
(0.38953743 2.6973585e-17 2.6973585e-17)
(0.39774602 -2.7553446e-17 -5.5106892e-17)
(0.40613053 -2.8141346e-17 3.9991258e-33)
(0.41469354 0 -5.9868707e-30)
(0.42343727 2.934125e-17 2.934125e-17)
(0.43236394 -8.3174165e-30 -1.6634833e-29)
(0.44147601 -2.1202208e-30 -4.2404417e-30)
(0.45077599 3.1201176e-17 3.1201176e-17)
(0.46026634 -3.1837102e-17 -3.1837102e-17)
(0.46994939 -3.2480966e-17 0)
(0.4798275 0 -3.3132742e-17)
(0.48990306 3.3792398e-17 3.3792398e-17)
(0.5001784 -4.7893114e-30 3.4459901e-17)
(0.51065586 3.5135215e-17 -3.5135215e-17)
(0.52133774 4.9679243e-30 0)
(0.53222633 -7.3018218e-17 -3.6509109e-17)
(0.54332402 3.7207599e-17 3.7207599e-17)
(0.55463323 -5.2585547e-30 3.7913718e-17)
(0.56615643 -1.3410326e-29 -1.3410326e-29)
(0.57789592 -2.7231959e-30 -7.8697278e-17)
(0.58985375 -4.007733e-17 -8.0154659e-17)
(0.60203186 4.0813422e-17 1.2244026e-16)
(0.61443245 4.1556845e-17 8.311369e-17)
(0.627058 0 0)
(0.63991089 -4.306542e-17 -8.613084e-17)
(0.65299316 -4.3830433e-17 -4.3830433e-17)
(0.66630677 0 4.4602491e-17)
(0.67985379 4.538151e-17 4.538151e-17)
(0.69363642 4.616741e-17 4.616741e-17)
(0.70765676 -9.3920209e-17 -9.3920209e-17)
(0.72191683 -4.7759507e-17 -9.5519013e-17)
(0.73641857 4.8565523e-17 4.8565523e-17)
(0.75116395 4.9378058e-17 9.8756117e-17)
(0.76615491 1.3924446e-29 1.3924446e-29)
(0.78139333 -5.1022296e-17 -1.0204459e-16)
(0.79688109 5.1853796e-17 5.1853796e-17)
(0.81262004 -3.654095e-30 -7.3081901e-30)
(0.82861206 -5.3535029e-17 -5.3535029e-17)
(0.84485904 5.4384544e-17 1.0876909e-16)
(0.86136283 -3.8386765e-30 -5.5239845e-17)
(0.87812511 3.906479e-30 7.8129579e-30)
(0.89514738 -1.6191095e-32 5.6967352e-17)
(0.91243111 -3.9946582e-30 -5.7839317e-17)
(0.929978 5.8716589e-17 5.8716589e-17)
(0.94778986 0 -1.191981e-16)
(0.96586829 0 2.5236859e-29)
(0.98421468 -6.1379055e-17 1.2275811e-16)
(1.0028304 -6.2276338e-17 -1.2455268e-16)
(1.0217168 0 -4.3723718e-30)
(1.0408754 0 6.4084806e-17)
(1.0603076 0 0)
(1.0800147 0 0)
(1.0999978 6.6830282e-17 6.6830282e-17)
(1.1202583 4.6697598e-30 -6.7753636e-17)
(1.1407971 -1.3736171e-16 -1.3736171e-16)
(1.1616156 2.9677297e-32 6.9611805e-17)
(1.1827147 7.0546338e-17 -2.0050475e-32)
(1.2040956 7.1484315e-17 7.1484315e-17)
(1.2257593 -1.0055573e-29 7.2425592e-17)
(1.2477069 -1.0165845e-29 -7.3370027e-17)
(1.2699392 -1.0561149e-32 0)
(1.2924571 -7.5267803e-17 -7.5267803e-17)
(1.3152612 -7.6220849e-17 -7.6220849e-17)
(1.3383524 -7.7176466e-17 0)
(1.3617315 1.5626902e-16 1.5626902e-16)
(1.3853993 2.3728453e-16 7.9094842e-17)
(1.4093565 -8.0057316e-17 -1.6011463e-16)
(1.4336035 -1.6204356e-16 5.6072631e-30)
(1.4581408 0 -2.3302414e-32)
(1.4829692 8.2956078e-17 8.2956078e-17)
(1.508089 8.3925624e-17 8.3925624e-17)
(1.5335007 -8.4896573e-17 -8.4896573e-17)
(1.5592046 2.4405374e-32 8.5868777e-17)
(1.5852012 -3.7023009e-32 -8.6842089e-17)
(1.6114906 2.4958911e-32 4.9917823e-32)
(1.6380731 8.8791452e-17 1.775829e-16)
(1.6649491 8.9767213e-17 -8.9767213e-17)
(1.6921186 -9.07435e-17 -9.07435e-17)
(1.7195818 -1.8344034e-16 -9.1720169e-17)
(1.7473388 9.2697079e-17 -1.2856894e-29)
(1.7753896 -4.742947e-47 9.367409e-17)
(1.8037342 9.4651057e-17 0)
(1.8323725 2.6499589e-29 0)
(1.8613043 -1.9320858e-16 -9.6604289e-17)
(1.8905297 0 1.354805e-29)
(1.9200486 0 -2.7352941e-29)
(1.9498605 1.9906063e-16 -1.3832938e-29)
(1.9799653 -5.5815974e-29 1.0050409e-16)
(2.0103627 -2.0295372e-16 -1.0147686e-16)
(2.0410522 0 1.4558806e-32)
(2.0720337 1.0341884e-16 1.0341884e-16)
(2.1033066 1.0438779e-16 0)
(2.1348705 -1.0535521e-16 0)
(2.1667248 1.5109118e-32 0)
(2.198869 -1.4895445e-29 0)
(2.2313027 1.5382822e-32 0)
(2.2640251 1.09207e-16 0)
(2.2970356 -1.1016487e-16 0)
(2.3303337 -1.1112045e-16 -1.1112045e-16)
(2.3639184 0 0)
(2.3977892 1.1302432e-16 1.1302432e-16)
(2.431945 -1.5823929e-29 0)
(2.4663851 -1.1491767e-16 -1.1491767e-16)
(2.5011088 2.3172022e-16 -3.2139118e-29)
(2.5361151 -3.2399727e-29 1.167996e-16)
(2.5714031 -1.1773601e-16 0)
(2.6069718 -3.2952086e-29 0)
(2.6428202 -2.3919836e-16 -1.1959918e-16)
(2.6789472 2.4105147e-16 -1.6733799e-29)
(2.715352 1.214488e-16 1.214488e-16)
(2.7520333 -1.2236827e-16 0)
(2.78899 -1.7519718e-32 0)
(2.8262211 -1.2419606e-16 -1.2419606e-16)
(2.8637253 0 -1.2510418e-16)
(2.9015014 0 1.2600833e-16)
(2.9395482 1.2690842e-16 1.2690842e-16)
(2.9778645 -1.7726201e-29 0)
(3.0164491 -2.5739211e-16 -1.2869606e-16)
(3.0553004 1.8414914e-32 1.8414914e-32)
(3.0944173 3.9139924e-16 1.3046641e-16)
(3.1337984 -1.313449e-16 -1.313449e-16)
(3.1734423 -1.3221881e-16 -1.3221881e-16)
(3.2133476 2.6617617e-16 1.3308808e-16)
(3.2535128 -1.3395264e-16 1.3395264e-16)
(3.2939366 1.348124e-16 0)
(3.3346175 2.7133458e-16 -1.3566729e-16)
(3.3755538 -1.3651724e-16 -1.3651724e-16)
(3.4167443 -1.3736219e-16 1.3736219e-16)
(3.4581872 -1.3820207e-16 1.3820207e-16)
(3.4998811 1.3903681e-16 0)
(3.5418243 -8.133027e-47 -1.3986634e-16)
(3.5840154 -1.4069062e-16 -1.4069062e-16)
(3.6264526 1.4150956e-16 1.4150956e-16)
(3.6691344 -1.4232313e-16 1.4232313e-16)
(3.7120591 1.4313127e-16 0)
(3.755225 3.9885765e-29 0)
(3.7986304 4.1135025e-32 0)
(3.8422738 1.455225e-16 0)
(3.8861532 -2.926167e-16 0)
(3.9302671 1.4708851e-16 0)
(3.9746137 4.1058592e-29 0)
(4.0191913 -4.1229783e-29 0)
(4.063998 -1.4939436e-16 -1.4939436e-16)
(4.1090321 -3.0030259e-16 5.9648044e-46)
(4.1542918 4.5270695e-16 1.5090232e-16)
(4.1997753 4.2066361e-29 0)
(4.2454808 -8.4542761e-29 0)
(4.2914065 4.243121e-29 0)
(4.3375504 -3.0769308e-16 -1.5384654e-16)
(4.3839109 3.0913491e-16 -2.1438188e-29)
(4.430486 -4.3074657e-29 1.5528225e-16)
(4.4772739 -3.1198179e-16 -1.559909e-16)
(4.5242727 0 2.1755314e-29)
(4.5714805 0 -2.236641e-32)
(4.6188954 1.5807964e-16 -2.1947785e-29)
(4.6665155 -2.2020158e-29 1.5876341e-16)
(4.7143389 -1.5944089e-16 -1.5944089e-16)
(4.7623638 -1.6011207e-16 1.6011207e-16)
(4.8105882 1.6077693e-16 -8.9334801e-29)
(4.8590102 4.8430631e-16 -1.6143544e-16)
(4.9076277 -1.6208758e-16 1.6208758e-16)
(4.9564391 -1.6273335e-16 0)
(5.0054422 -4.643332e-32 0)
(5.0546351 -1.6400568e-16 -1.6400568e-16)
(5.1040159 0 -2.2857544e-29)
(5.1535826 3.3050459e-16 1.652523e-16)
(5.2033334 3.3173187e-16 -1.6586594e-16)
(5.2532661 -1.6647311e-16 -1.6647311e-16)
(5.303379 -3.3414763e-16 0)
(5.3536699 -1.6766804e-16 1.6766804e-16)
(5.4041369 3.3651153e-16 1.6825577e-16)
(5.4547781 3.37674e-16 -1.68837e-16)
(5.5055915 -3.3882345e-16 -4.701819e-29)
(5.5565752 -3.3995989e-16 -1.1378298e-46)
(5.6077271 0 -2.3678011e-29)
(5.6590452 3.4219366e-16 1.7109683e-16)
(5.7105277 -1.7164549e-16 -1.7164549e-16)
(5.7621725 -3.4437526e-16 4.3554044e-46)
(5.8139777 1.7272324e-16 -2.3980904e-29)
(5.8659414 1.7325232e-16 -1.7325232e-16)
(5.9180615 -2.4694895e-32 0)
(5.9703362 2.4198557e-29 0)
(6.0227635 1.7480039e-16 1.7480039e-16)
(6.0753416 -1.7530335e-16 2.4912104e-32)
(6.1280685 -1.7579979e-16 -7.3149207e-29)
(6.1809423 1.7628971e-16 1.7628971e-16)
(6.2339611 -2.4518068e-29 0)
(6.287123 -2.5188744e-32 0)
(6.3404258 -2.464946e-29 -1.7772044e-16)
(6.3938677 -1.7818437e-16 4.940229e-29)
(6.4474464 1.7864182e-16 1.7864182e-16)
(6.5011599 -7.4595754e-29 0)
(6.5550061 -2.4926964e-29 0)
(6.6089832 -4.9949976e-29 0)
(6.663089 -1.8040681e-16 -1.8040681e-16)
(6.7173218 1.8083188e-16 2.5697756e-32)
(6.7716796 -2.516483e-29 1.8125051e-16)
(6.8261604 -5.0366671e-29 -1.8166271e-16)
(6.8807623 -2.5873489e-32 1.8206849e-16)
(6.9354831 -3.6493576e-16 -5.0719561e-29)
(6.9903207 -1.8286085e-16 -3.657217e-16)
(7.0452734 1.8324736e-16 1.8324736e-16)
(7.1003395 3.6725491e-16 7.6484536e-29)
(7.1555172 -2.5546741e-29 2.5546741e-29)
(7.2108042 -3.6873747e-16 -2.5597764e-29)
(7.2661982 -1.8472986e-16 -1.8472986e-16)
(7.3216972 3.7016907e-16 0)
(7.3773001 1.8543281e-16 0)
(7.4330051 -1.8577485e-16 1.8577485e-16)
(7.4888101 -1.8611068e-16 2.5839617e-29)
(7.5447126 -5.1744241e-29 -5.1744241e-29)
(7.6007108 1.8676331e-16 -1.6898952e-47)
(7.6568036 0 -1.8708008e-16)
(7.7129894 0 1.8739069e-16)
(7.7692659 1.8769518e-16 1.8769518e-16)
(7.8256305 0 0)
(7.8820815 -1.8828534e-16 -1.8828534e-16)
(7.9386175 1.8857098e-16 -2.6181204e-29)
(7.995237 2.6837273e-32 1.8885052e-16)
(8.0519377 -5.2489096e-29 0)
(8.1087171 0 0)
(8.1655734 -1.8965232e-16 -1.8965232e-16)
(8.2225055 1.8990717e-16 5.3974864e-32)
(8.2795115 1.9015599e-16 -1.3374403e-47)
(8.3365893 -3.8079756e-16 -1.9039878e-16)
(8.3937366 -1.9063544e-16 1.9063544e-16)
(8.4509517 1.9086596e-16 -2.6445592e-29)
(8.5082331 0 2.6531002e-29)
(8.5655788 0 -5.3095472e-29)
(8.6229869 -1.9152122e-16 -1.9152122e-16)
(8.6804558 5.3266164e-29 1.9172752e-16)
(8.7379839 1.9192784e-16 -5.3294542e-29)
(8.7955691 0 5.3375826e-29)
(8.8532094 0 -5.3428175e-29)
(8.9109028 -1.9249302e-16 -1.9249302e-16)
(8.9686481 8.0278037e-29 1.9266933e-16)
(9.0264439 1.9283973e-16 -5.3547757e-29)
(9.0842882 0 2.6851588e-29)
(9.1421787 0 0)
(9.2001135 0 -1.9331574e-16)
(9.2580916 0 1.934624e-16)
(9.3161115 0 -2.6879885e-29)
(9.3741714 0 2.7531887e-32)
(9.4322685 0 -2.6916617e-29)
(9.4904009 0 2.6961317e-29)
(9.5485675 3.8821727e-16 1.9410864e-16)
(9.6067669 1.0780704e-28 -1.9422033e-16)
(9.6649971 -1.9432637e-16 -1.9432637e-16)
(9.7232556 1.9442664e-16 1.9442664e-16)
(9.7815409 -1.9452099e-16 1.9452099e-16)
(9.8398515 1.9460952e-16 0)
(9.898186 -5.4117537e-29 -1.9469239e-16)
(9.9565422 -1.9476959e-16 -1.9476959e-16)
(10.014918 -5.4103472e-29 0)
(10.073312 -1.9490661e-16 1.9490661e-16)
(10.131723 0 -2.7069157e-29)
(10.19015 0 2.771412e-32)
(10.248589 1.9506948e-16 2.7055735e-29)
(10.307039 5.4178841e-29 -1.9511244e-16)
(10.365499 -1.9514958e-16 1.9514958e-16)
(10.423967 0 2.7071207e-29)
(10.482442 0 -5.4205087e-29)
(10.540922 0 -1.9522737e-16)
(10.599404 0 -1.9524208e-16)
(10.657888 0 3.9050202e-16)
(10.716371 0 -2.774728e-32)
(10.774853 0 2.708098e-29)
(10.833332 3.9048654e-16 1.9524327e-16)
(10.891805 -1.6252304e-28 -1.9522947e-16)
(10.95027 -3.9042013e-16 2.7102975e-29)
(11.008728 1.9518507e-16 1.9518507e-16)
(11.067176 2.7733127e-32 0)
(11.125612 1.9511848e-16 0)
(11.184034 -1.0817161e-28 0)
(11.24244 -3.9005948e-16 -1.9502974e-16)
(11.30083 -1.9497705e-16 -1.9497705e-16)
(11.359202 -1.3079036e-48 1.9491887e-16)
(11.417554 5.845656e-16 1.948552e-16)
(11.475883 0 0)
(11.534189 -3.8942268e-16 -1.9471134e-16)
(11.59247 0 -1.9463116e-16)
(11.650724 0 1.9454551e-16)
(11.708949 3.889088e-16 1.944544e-16)
(11.767145 -5.3914057e-29 0)
(11.825309 -5.8276726e-16 -1.9425575e-16)
(11.883439 1.9414824e-16 -1.9414824e-16)
(11.941535 1.9403529e-16 1.9403529e-16)
(11.999593 -1.9391689e-16 5.3846863e-29)
(12.057614 1.9379305e-16 -1.9379305e-16)
(12.115596 -1.9366378e-16 0)
(12.173536 -5.3684177e-29 0)
(12.231432 1.9338901e-16 0)
(12.289284 -1.932435e-16 0)
(12.347089 0 1.9309258e-16)
(12.404847 -1.9293625e-16 -5.3519722e-29)
(12.462555 1.9277454e-16 -1.9277454e-16)
(12.520213 3.8521487e-16 1.9260744e-16)
(12.577817 -1.9243494e-16 2.6717677e-29)
(12.635367 -1.9225706e-16 -2.6720302e-29)
(12.69286 -1.9207381e-16 7.3780582e-48)
(12.750297 -1.9188519e-16 1.9188519e-16)
(12.807674 3.8338239e-16 1.9169119e-16)
(12.86499 1.9149183e-16 -3.8298367e-16)
(12.922244 -1.9128711e-16 -2.6558312e-29)
(12.979434 0 2.6501988e-29)
(13.036558 1.9086155e-16 -1.9086155e-16)
(13.093616 -1.9064075e-16 0)
(13.150606 -1.904146e-16 1.904146e-16)
(13.207525 5.7054933e-16 1.9018311e-16)
(13.264373 5.3985981e-32 -1.8994629e-16)
(13.321147 -3.794083e-16 -5.262315e-29)
(13.377847 1.894567e-16 1.894567e-16)
(13.434469 2.6269083e-29 0)
(13.491014 1.8894582e-16 0)
(13.547479 -5.3626761e-32 -1.8868239e-16)
(13.603863 -3.7682736e-16 2.6132589e-29)
(13.660164 1.8813969e-16 1.8813969e-16)
(13.716379 0 0)
(13.772509 -5.2086079e-29 -1.8757584e-16)
(13.82855 -2.6614943e-32 2.6614943e-32)
(13.884502 -1.869909e-16 -5.1923653e-29)
(13.940362 1.8669052e-16 -2.5893591e-29)
(13.996129 -5.1755362e-29 1.8638484e-16)
(14.051801 -2.580806e-29 -1.8607385e-16)
(14.107377 -2.6397735e-32 2.6397735e-32)
(14.162857 -1.8543595e-16 -5.1491873e-29)
(14.218238 1.8510905e-16 -1.8510905e-16)
(14.273519 1.4667464e-47 1.8477686e-16)
(14.328699 -5.1215163e-29 5.1215163e-29)
(14.383776 -2.6161725e-32 2.6161725e-32)
(14.438748 -3.6749764e-16 -2.5511695e-29)
(14.493615 -2.54366e-29 -1.8339565e-16)
(14.548374 1.8303732e-16 1.8303732e-16)
(14.603023 0 0)
(14.657561 0 -1.0121902e-28)
(14.711987 -1.8193091e-16 -2.5233443e-29)
(14.766298 -7.554253e-29 -7.554253e-29)
(14.820494 1.8116729e-16 -2.574542e-32)
(14.874572 -1.8077773e-16 -1.8077773e-16)
(14.92853 2.5044385e-29 1.80383e-16)
(14.982367 7.2009242e-47 7.2009242e-47)
(15.036081 -2.4932622e-29 -2.4932622e-29)
(15.089671 1.7916776e-16 4.9751321e-29)
(15.143135 1.787523e-16 -2.4817978e-29)
(15.196472 2.4734226e-29 3.566632e-16)
(15.249681 -1.7790567e-16 -1.7790567e-16)
(15.302761 0 -1.7747456e-16)
(15.35571 0 -2.4580006e-29)
(15.408528 1.7659693e-16 2.4518726e-29)
(15.461212 -1.7615053e-16 3.5230107e-16)
(15.51376 1.4626455e-28 -1.7569909e-16)
(15.566169 1.752425e-16 -1.752425e-16)
(15.61844 -1.7478074e-16 2.1060165e-47)
(15.670571 0 0)
(15.72256 1.7384203e-16 2.1557567e-47)
(15.774406 1.7336511e-16 -1.7336511e-16)
(15.826106 -1.7288309e-16 1.7288309e-16)
(15.877661 -1.7239597e-16 2.2314593e-47)
(15.929068 0 -2.3842707e-29)
(15.980327 1.7140667e-16 -2.4358353e-32)
(16.031434 1.7090455e-16 -1.7090455e-16)
(16.08239 -3.40795e-16 3.40795e-16)
(16.133191 -1.6988549e-16 4.717382e-29)
(16.183836 1.6936847e-16 -1.6936847e-16)
(16.234325 1.6884641e-16 2.341865e-29)
(16.284655 2.3345549e-29 -2.3345549e-29)
(16.334827 1.6778738e-16 1.6778738e-16)
(16.384839 4.6442131e-29 -1.6725048e-16)
(16.434688 -3.3341743e-16 -1.0009689e-46)
(16.484374 0 -6.923349e-29)
(16.533894 0 4.6010348e-29)
(16.583247 0 -4.5808912e-29)
(16.63243 1.6449348e-16 -4.5676566e-29)
(16.681445 1.6392754e-16 2.6226809e-47)
(16.730288 0 0)
(16.778958 -1.6278129e-16 1.6278129e-16)
(16.827455 -2.2473893e-29 0)
(16.875777 1.6161592e-16 0)
(16.923923 0 -1.6102614e-16)
(16.971891 0 -4.45487e-29)
(17.01968 -1.5983274e-16 1.5983274e-16)
(17.067287 -2.2084754e-29 0)
(17.114711 2.1977845e-29 0)
(17.161952 -1.5800787e-16 -3.1601574e-16)
(17.209008 1.573903e-16 -1.3102299e-28)
(17.255879 -6.5230299e-29 3.1353649e-16)
(17.302562 -1.5614172e-16 -1.5614172e-16)
(17.349055 0 2.2099392e-32)
(17.395359 -1.5487506e-16 -2.1502861e-29)
(17.441472 -2.1414005e-29 -1.5423507e-16)
(17.487391 1.5359072e-16 0)
(17.533116 -1.5294194e-16 0)
(17.578646 1.5228872e-16 0)
(17.62398 1.5163118e-16 -1.5163118e-16)
(17.669117 -1.5096949e-16 -4.1878315e-29)
(17.714054 0 1.5030366e-16)
(17.758788 1.4963354e-16 0)
(17.803321 1.489591e-16 0)
(17.847652 -1.4828045e-16 -1.4828045e-16)
(17.891779 -1.4759771e-16 2.0974896e-32)
(17.935701 0 1.4691093e-16)
(17.979417 -1.4622015e-16 0)
(18.022924 1.4552538e-16 0)
(18.066222 1.4482663e-16 -1.4482663e-16)
(18.109309 -1.4412386e-16 -3.9979365e-29)
(18.152186 -2.8683424e-16 -3.9844461e-29)
(18.194852 7.9253551e-29 3.9626775e-29)
(18.237304 4.2597708e-16 1.4199236e-16)
(18.279541 3.3813392e-47 -1.4127447e-16)
(18.321561 -1.4055278e-16 3.9008737e-29)
(18.363363 -2.7965452e-16 -3.8807376e-29)
(18.404949 7.7170418e-29 3.8585209e-29)
(18.446318 2.7673031e-16 1.3836515e-16)
(18.487467 -1.376289e-16 0)
(18.528394 1.3688925e-16 0)
(18.569099 -1.3614616e-16 -1.3614616e-16)
(18.60958 -1.3539964e-16 -8.8134022e-46)
(18.649838 2.6929948e-16 1.3464974e-16)
(18.68987 0 0)
(18.729676 0 0)
(18.769255 -2.647609e-16 -1.3238045e-16)
(18.808607 -2.8859221e-46 -5.7718443e-46)
(18.84773 2.6170346e-16 1.3085173e-16)
(18.886623 0 0)
(18.925286 0 0)
(18.963718 -2.5707226e-16 -1.2853613e-16)
(19.001918 -2.9458511e-46 -5.8917023e-46)
(19.039884 2.5395609e-16 1.2697805e-16)
(19.077616 0 0)
(19.115114 0 0)
(19.152376 -2.4924093e-16 -1.2462046e-16)
(19.189402 -1.2382944e-16 1.7597222e-32)
(19.226191 2.4607183e-16 1.2303591e-16)
(19.262742 1.2223989e-16 -1.2223989e-16)
(19.299056 0 3.3739138e-29)
(19.335131 -2.4128157e-16 -3.3516689e-29)
(19.370966 6.6553218e-29 3.3276609e-29)
(19.40656 2.3806589e-16 1.1903295e-16)
(19.441913 -1.1822584e-16 0)
(19.477024 0 0)
(19.511893 1.1660543e-16 0)
(19.546521 -1.1579232e-16 0)
(19.580905 1.6339275e-32 0)
(19.615045 1.1416081e-16 -1.1416081e-16)
(19.648941 -1.1334253e-16 3.1456859e-29)
(19.682592 1.1252265e-16 1.1252265e-16)
(19.715997 1.1170122e-16 0)
(19.749157 -1.1087831e-16 0)
(19.782071 -1.1005399e-16 0)
(19.814739 3.0330542e-29 0)
(19.847161 1.0840152e-16 0)
(19.879335 -1.0757355e-16 0)
(19.911261 -2.964082e-29 0)
(19.94294 1.0591442e-16 -1.0591442e-16)
(19.974371 -1.0508344e-16 5.8329294e-29)
(20.005553 1.042516e-16 1.042516e-16)
(20.036487 1.0341898e-16 0)
(20.067173 -1.0258567e-16 0)
(20.09761 -1.0175181e-16 0)
(20.127798 2.802277e-29 0)
(20.157736 1.0008266e-16 0)
(20.187425 -9.9247456e-17 0)
(20.216865 1.3985178e-32 0)
(20.246056 9.7576262e-17 -9.7576262e-17)
(20.274997 -9.6740528e-17 2.6849172e-29)
(20.303689 9.5904793e-17 9.5904793e-17)
(20.332131 9.5069085e-17 0)
(20.360324 -9.4233478e-17 0)
(20.388268 -1.8679621e-16 -9.3398103e-17)
(20.415963 5.1432164e-29 2.5716082e-29)
(20.443408 1.8345703e-16 9.1728513e-17)
(20.470604 -9.0894413e-17 0)
(20.497552 1.2798415e-32 0)
(20.524251 1.784558e-16 0)
(20.550702 2.5123576e-32 -8.8395725e-17)
(20.576905 -8.7564429e-17 -2.4327343e-29)
(20.60286 0 8.6734075e-17)
(20.628568 8.5904705e-17 0)
(20.654028 0 0)
(20.679241 -8.4249232e-17 0)
(20.704208 0 0)
(20.728929 0 0)
(20.753404 0 0)
(20.777634 -8.0954303e-17 0)
(20.80162 -3.9171184e-47 -8.0134353e-17)
(20.825361 7.9316113e-17 1.1271498e-32)
(20.848858 0 7.8499677e-17)
(20.872112 7.7685105e-17 0)
(20.895124 -2.1345953e-29 0)
(20.917894 -7.6061845e-17 0)
(20.940422 0 0)
(20.96271 0 0)
(20.984758 0 0)
(21.006566 -7.2841598e-17 0)
(21.028136 2.0004759e-29 -7.2042464e-17)
(21.049468 7.1245876e-17 -1.0124648e-32)
(21.070563 0 7.0451905e-17)
(21.091422 6.9660618e-17 0)
(21.112045 1.9114627e-29 0)
(21.132435 -6.8086494e-17 0)
(21.15259 0 -6.7303856e-17)
(21.172512 6.6524253e-17 3.6935469e-29)
(21.192202 -6.5747722e-17 6.5747722e-17)
(21.211662 3.6102627e-29 0)
(21.230892 6.4204206e-17 -6.4204206e-17)
(21.249892 -6.3437439e-17 -1.7624329e-29)
(21.268665 0 6.2674116e-17)
(21.287211 -6.1914284e-17 0)
(21.305531 -1.6982354e-29 0)
(21.323626 6.0405275e-17 -6.0405275e-17)
(21.341497 0 -5.9656272e-17)
(21.359146 5.8911074e-17 5.8911074e-17)
(21.376574 -5.8169758e-17 5.8169758e-17)
(21.393781 -3.1895648e-29 0)
(21.410769 5.6698917e-17 0)
(21.427539 -3.1075271e-29 0)
(21.444092 -7.8506682e-33 0)
(21.46043 1.5147715e-29 5.4523055e-17)
(21.476554 -7.6463231e-33 -7.6463231e-33)
(21.492465 -5.3093681e-17 -1.0618736e-16)
(21.508164 0 -5.2385487e-17)
(21.523653 5.1681699e-17 1.033634e-16)
(21.538934 -1.4149554e-29 1.0196481e-16)
(21.554007 -1.3956741e-29 -5.0287679e-17)
(21.568873 3.3013749e-47 -4.9597571e-17)
(21.583534 -1.358192e-29 0)
(21.597992 0 0)
(21.612248 -9.5110671e-17 0)
(21.626304 -1.3018795e-29 0)
(21.64016 4.6217824e-17 -4.6217824e-17)
(21.653818 -4.5556397e-17 -1.2656579e-29)
(21.667281 1.2461436e-29 4.4899927e-17)
(21.680549 4.4248482e-17 0)
(21.693623 4.3602113e-17 0)
(21.706505 1.192937e-29 0)
(21.719198 -1.1752718e-29 0)
(21.731701 4.169364e-17 0)
(21.744018 -4.1067825e-17 0)
(21.756149 -4.0447284e-17 0)
(21.768096 0 0)
(21.779861 -3.9222135e-17 0)
(21.791445 1.0723326e-29 0)
(21.802849 3.8018334e-17 0)
(21.814076 0 0)
(21.825127 0 0)
(21.836004 0 0)
(21.846708 -7.1351843e-17 -3.5675921e-17)
(21.857241 3.8990787e-29 1.9495394e-29)
(21.867604 6.9075385e-17 3.4537692e-17)
(21.8778 0 0)
(21.887829 0 0)
(21.897694 0 3.2872039e-17)
(21.907397 0 -8.976857e-30)
(21.916938 0 4.517584e-33)
(21.926319 0 -3.1256895e-17)
(21.935543 0 -3.0729758e-17)
(21.944611 -6.0416591e-17 -1.6772192e-29)
(21.953525 1.6498486e-29 8.249243e-30)
(21.962285 5.8364868e-17 2.9182434e-17)
(21.970895 2.8677994e-17 0)
(21.979355 -2.8179205e-17 0)
(21.987668 -2.7686096e-17 0)
(21.995835 7.5564007e-30 0)
(22.003858 1.482237e-29 0)
(22.011737 2.6240987e-17 -2.6240987e-17)
(22.019476 -2.5770626e-17 1.4308318e-29)
(22.027076 2.5305908e-17 2.5305908e-17)
(22.034539 2.4846853e-17 0)
(22.041866 -2.4393475e-17 0)
(22.049058 -2.3945771e-17 0)
(22.056118 1.3046346e-29 0)
(22.063048 2.3067256e-17 0)
(22.069848 2.2636383e-17 0)
(22.076521 -6.1612681e-30 0)
(22.083068 -2.1791424e-17 -2.1791424e-17)
(22.089492 -2.137735e-17 1.1866054e-29)
(22.095792 2.0968845e-17 2.0968845e-17)
(22.101972 2.0565846e-17 0)