/*--------------------------------*- C++ -*----------------------------------*\
  =========                 |
  \\      /  F ield         | OpenFOAM: The Open Source CFD Toolbox
   \\    /   O peration     | Website:  https://openfoam.org
    \\  /    A nd           | Version:  7
     \\/     M anipulation  |
\*---------------------------------------------------------------------------*/
FoamFile
{
    version     2.0;
    format      ascii;
    class       volVectorField;
    location    "0.00283";
    object      U;
}
// * * * * * * * * * * * * * * * * * * * * * * * * * * * * * * * * * * * * * //

dimensions      [0 1 -1 0 0 0 0];

internalField   nonuniform List<vector> 
5000
(
(-87.733716 3.4926597e-17 0)
(-87.675789 3.5319958e-17 0)
(-87.647574 0 0)
(-87.615682 0 0)
(-87.584755 -1.8719904e-17 0)
(-87.553556 2.1258033e-32 -1.8698764e-17)
(-87.522399 1.8677174e-17 -3.9812792e-32)
(-87.491119 0 5.5960227e-17)
(-87.459834 0 1.8628978e-17)
(-87.428431 -1.8604355e-17 -3.720871e-17)
(-87.397017 -3.7157628e-17 -3.7157628e-17)
(-87.365493 1.8552923e-17 1.8552923e-17)
(-87.333954 1.8525978e-17 -1.5796199e-31)
(-87.302313 -1.8498584e-17 -1.6298603e-31)
(-87.270654 0 3.6940214e-17)
(-87.238902 -1.8441212e-17 -3.6882424e-17)
(-87.207129 -2.1933254e-47 -1.0966627e-47)
(-87.175273 1.838093e-17 -1.6194941e-31)
(-87.14339 0 -1.8349619e-17)
(-87.111433 1.8318006e-17 3.6636012e-17)
(-87.079445 -1.8285456e-17 1.8285456e-17)
(-87.047389 -1.8252658e-17 0)
(-87.015299 3.6437978e-17 0)
(-86.983146 -1.8185106e-17 -1.8185106e-17)
(-86.950955 -1.8150378e-17 1.5475944e-31)
(-86.918707 -1.493132e-31 -1.493132e-31)
(-86.886416 1.8079776e-17 -1.8079776e-17)
(-86.854073 1.8043918e-17 1.8043918e-17)
(-86.821683 -3.6014565e-17 1.8007283e-17)
(-86.789244 3.1155924e-31 -1.7970518e-17)
(-86.756755 -3.1345711e-31 3.1345711e-31)
(-86.724222 1.7895378e-17 -1.5258517e-31)
(-86.691632 3.571403e-17 -1.7857015e-17)
(-86.659004 -3.5637157e-17 1.7818578e-17)
(-86.626315 3.0824622e-31 1.7779426e-17)
(-86.593589 -1.5428733e-30 0)
(-86.560799 -6.1374851e-31 0)
(-86.527976 3.5320653e-17 -1.7660326e-17)
(-86.495085 -3.5239357e-17 -1.7619678e-17)
(-86.462163 -3.5157996e-17 1.7578998e-17)
(-86.429169 3.5075287e-17 -2.9408539e-31)
(-86.396147 -1.203403e-30 -1.7496272e-17)
(-86.363049 -3.490848e-17 1.745424e-17)
(-86.329926 1.7412199e-17 -2.9445626e-31)
(-86.296722 5.2108547e-17 -1.7369516e-17)
(-86.263496 -1.732683e-17 1.732683e-17)
(-86.230187 -1.7283517e-17 -5.943848e-31)
(-86.196856 -1.180891e-30 5.904455e-31)
(-86.16344 -3.4392579e-17 -5.9138501e-31)
(-86.130003 0 2.9250003e-31)
(-86.096479 1.7107872e-17 1.7107872e-17)
(-86.062934 2.4248529e-33 0)
(-86.029301 -1.7018304e-17 0)
(-85.995647 3.394651e-17 0)
(-85.961904 -5.917677e-31 0)
(-85.928139 -3.3764062e-17 0)
(-85.894285 1.6835868e-17 0)
(-85.860407 -5.7979023e-31 0)
(-85.826441 -1.6743087e-17 0)
(-85.792451 0 0)
(-85.758371 1.6649328e-17 0)
(-85.724267 5.6623716e-31 0)
(-85.690072 4.7051111e-33 0)
(-85.655853 1.6507111e-17 -1.6507111e-17)
(-85.621542 -1.6459064e-17 -1.6459064e-17)
(-85.587206 5.7371113e-31 1.641111e-17)
(-85.552778 1.636265e-17 -2.8135796e-31)
(-85.518326 -1.6314291e-17 -2.2896114e-48)
(-85.48378 -1.6265437e-17 1.6265437e-17)
(-85.449209 1.6216694e-17 0)
(-85.414544 1.6167469e-17 0)
(-85.379854 -1.6118364e-17 -1.6118364e-17)
(-85.345069 -1.606879e-17 -1.606879e-17)
(-85.310259 3.2038693e-17 0)
(-85.275354 1.5969449e-17 1.5969449e-17)
(-85.240424 -1.5919693e-17 5.4974484e-31)
(-85.205397 0 -1.5869497e-17)
(-85.170345 1.5819455e-17 -1.5819455e-17)
(-85.135196 -2.240908e-33 1.5768988e-17)
(-85.100022 -1.5718686e-17 3.1437371e-17)
(-85.06475 1.5667972e-17 -3.1335943e-17)
(-85.029453 -4.4387413e-33 8.8774827e-33)
(-84.994058 4.424264e-33 4.6699485e-17)
(-84.958637 1.5515742e-17 -3.1031483e-17)
(-84.923118 1.5464601e-17 -1.6086812e-30)
(-84.887574 5.3665078e-31 3.0827299e-17)
(-84.85193 -1.5362347e-17 -4.6087041e-17)
(-84.816261 0 1.5311223e-17)
(-84.78049 -1.5258778e-17 1.5258778e-17)
(-84.744696 -1.5776085e-30 -1.5207442e-17)
(-84.708799 -5.2984653e-31 1.5156356e-17)
(-84.67288 1.5104793e-17 1.5104793e-17)
(-84.63686 1.5053355e-17 5.2410655e-31)
(-84.600815 -3.00042e-17 -3.00042e-17)
(-84.564669 -1.0346625e-30 -1.0346625e-30)
(-84.5285 1.4898663e-17 -1.4898663e-17)
(-84.492229 0 -1.4846893e-17)
(-84.455934 0 -5.1932636e-31)
(-84.419537 -1.4743334e-17 1.0266254e-30)
(-84.383116 -1.0188534e-30 2.9383374e-17)
(-84.346593 2.9279563e-17 1.4639781e-17)
(-84.310047 -1.4588102e-17 -1.4588102e-17)
(-84.273398 -2.9072363e-17 2.0657157e-33)
(-84.236727 0 1.4484548e-17)
(-84.199952 1.4432663e-17 0)
(-84.163155 1.4381055e-17 -1.4381055e-17)
(-84.126254 -1.4329233e-17 -4.9889507e-31)
(-84.089332 -1.4277696e-17 1.4277696e-17)
(-84.052306 0 -1.4225949e-17)
(-84.015258 0 -1.4174498e-17)
(-83.978107 1.4122857e-17 2.8245713e-17)
(-83.940934 1.4071515e-17 1.4071515e-17)
(-83.903658 0 -4.2059984e-17)
(-83.866361 -1.3968784e-17 -1.3968784e-17)
(-83.82896 4.8653451e-31 4.1752222e-17)
(-83.791538 1.3866344e-17 -1.3866344e-17)
(-83.754013 -1.3815127e-17 -1.3815127e-17)
(-83.716468 3.9120295e-33 -7.824059e-33)
(-83.678819 -4.7939542e-31 -1.3713193e-17)
(-83.641151 -2.4129125e-48 4.0987443e-17)
(-83.603379 2.7223286e-17 -9.5169076e-31)
(-83.565588 -5.781461e-33 -2.7122276e-17)
(-83.527693 -1.3510521e-17 2.7021041e-17)
(-83.489781 0 1.3460243e-17)
(-83.451764 -1.3409866e-17 -1.3409866e-17)
(-83.413731 1.3359834e-17 1.3359834e-17)
(-83.375593 1.3309715e-17 -1.3309715e-17)
(-83.337439 -2.6519893e-17 -2.6519893e-17)
(-83.299181 -1.3210102e-17 1.3210102e-17)
(-83.260908 2.6321228e-17 4.5446728e-31)
(-83.222531 1.3111062e-17 1.3111062e-17)
(-83.184138 -1.3061872e-17 2.6123744e-17)
(-83.145643 -1.3012631e-17 -1.3012631e-17)
(-83.107133 -1.2963759e-17 -1.2963759e-17)
(-83.068519 0 -1.2914848e-17)
(-83.029892 1.2866313e-17 -4.4796119e-31)
(-82.991162 1.281775e-17 -4.4444889e-31)
(-82.95242 -1.2769567e-17 4.4459285e-31)
(-82.913574 -4.4110689e-31 2.5442736e-17)
(-82.874716 1.2673552e-17 1.2673552e-17)
(-82.835756 -1.2625729e-17 -1.2625729e-17)
(-82.796784 -1.2578292e-17 -2.5156585e-17)
(-82.757711 0 -1.2530858e-17)
(-82.718626 1.2483815e-17 -1.2483815e-17)
(-82.67944 1.2436782e-17 8.6247805e-31)
(-82.640244 -1.2390144e-17 2.4780288e-17)
(-82.600947 1.2343527e-17 -3.5082413e-33)
(-82.56164 -6.9902098e-33 3.4951049e-33)
(-82.522233 -1.2251117e-17 1.9544517e-47)
(-82.482818 1.2205328e-17 1.2205328e-17)
(-82.443302 -1.2159576e-17 -8.4325408e-31)
(-82.403779 8.4355234e-31 1.6871047e-30)
(-82.364155 1.2068927e-17 1.2068927e-17)
(-82.324525 -1.2024034e-17 -1.2024034e-17)
(-82.284796 1.1979196e-17 1.1979196e-17)
(-82.245061 1.1934769e-17 4.1383196e-31)
(-82.205227 -1.1890405e-17 -1.1890405e-17)
(-82.165388 0 1.1846456e-17)
(-82.125451 0 -1.6772474e-33)
(-82.085509 -1.1759119e-17 -1.1759119e-17)
(-82.04547 -1.1715736e-17 0)
(-82.005427 1.167277e-17 1.167277e-17)
(-81.965288 1.1629887e-17 8.0486798e-31)
(-81.925145 -1.1587422e-17 -2.3174844e-17)
(-81.884906 -8.0063708e-31 1.1545046e-17)
(-81.844666 1.1503089e-17 -3.2693745e-33)
(-81.804329 -1.1461231e-17 -1.1461231e-17)
(-81.763992 -1.1419787e-17 1.1419787e-17)
(-81.723559 0 -1.1378461e-17)
(-81.683127 1.1337543e-17 1.1337543e-17)
(-81.6426 1.1296737e-17 -4.7069238e-30)
(-81.602073 0 -3.1224662e-30)
(-81.561454 -1.1216078e-17 1.1216078e-17)
(-81.520835 -1.1176224e-17 -2.2352447e-17)
(-81.480124 0 0)
(-81.439414 1.1097169e-17 -7.6957724e-31)
(-81.398614 2.3005766e-30 -2.3005766e-30)
(-81.357815 -1.1019194e-17 1.1019194e-17)
(-81.316927 1.0980542e-17 1.0980542e-17)
(-81.27604 1.0942312e-17 7.5417306e-31)
(-81.235066 -1.0904211e-17 -1.0904211e-17)
(-81.194093 -7.5049448e-31 1.0866534e-17)
(-81.153034 7.4482372e-31 7.4482372e-31)
(-81.111977 4.6008503e-33 4.6008503e-33)
(-81.070835 1.0754885e-17 1.4901521e-30)
(-81.029694 -1.0718324e-17 -2.1436648e-17)
(-80.988471 -1.4815581e-30 1.0681904e-17)
(-80.947249 7.3223102e-31 1.0645904e-17)
(-80.905945 -7.2976474e-31 -7.2976474e-31)
(-80.864643 1.0574609e-17 7.2883002e-31)
(-80.823262 0 -2.1911741e-30)
(-80.781882 0 7.2548632e-31)
(-80.740424 -1.0469703e-17 -1.0469703e-17)
(-80.698967 -1.0435385e-17 0)
(-80.657434 0 0)
(-80.615902 0 0)
(-80.574295 1.0333844e-17 0)
(-80.53269 1.5808932e-48 -1.0300646e-17)
(-80.491012 -1.02676e-17 2.1405197e-30)
(-80.449335 0 1.0234963e-17)
(-80.407587 1.020248e-17 1.020248e-17)
(-80.36584 -1.0170404e-17 -1.0170404e-17)
(-80.324023 -2.8094917e-30 -1.0138482e-17)
(-80.282207 2.0213931e-17 2.0213931e-17)
(-80.240323 -1.0075602e-17 6.9730079e-31)
(-80.19844 -2.0854741e-30 -2.0854741e-30)
(-80.156491 -1.423051e-33 -1.0013831e-17)
(-80.114543 -9.983421e-18 -9.983421e-18)
(-80.07253 9.9531633e-18 9.9531633e-18)
(-80.030518 -1.410186e-33 0)
(-79.988443 -1.369409e-30 9.8935925e-18)
(-79.946369 6.8267565e-31 6.8267565e-31)
(-79.904233 -9.835114e-18 -9.835114e-18)
(-79.862099 0 -9.8063421e-18)
(-79.819904 9.7777233e-18 1.3617081e-30)
(-79.777711 6.7473177e-31 9.7494923e-18)
(-79.735458 2.6980616e-30 -1.9442827e-17)
(-79.693207 9.6937191e-18 9.6937191e-18)
(-79.650899 0 9.6661759e-18)
(-79.608592 -9.6390132e-18 -9.6390132e-18)
(-79.566229 -9.6120005e-18 9.6120005e-18)
(-79.523868 0 0)
(-79.481452 0 0)
(-79.439038 0 0)
(-79.396571 9.5067928e-18 9.5067928e-18)
(-79.354105 6.5616366e-31 -9.4811936e-18)
(-79.311588 -9.4557407e-18 -1.8911481e-17)
(-79.269073 0 9.4306532e-18)
(-79.226507 0 -6.53613e-31)
(-79.183943 9.3811298e-18 9.3811298e-18)
(-79.141331 9.3566922e-18 9.3566922e-18)
(-79.09872 -9.3326125e-18 -1.8665225e-17)
(-79.056062 -9.3086743e-18 2.6456844e-33)
(-79.013405 0 -2.6389814e-33)
(-78.970703 9.2616458e-18 9.2616458e-18)
(-78.928002 9.2385506e-18 9.2385506e-18)
(-78.885257 -9.2155926e-18 -1.8431185e-17)
(-78.842513 -9.1929791e-18 1.3064009e-33)
(-78.799727 0 -1.9105008e-30)
(-78.756942 9.1483614e-18 9.1483614e-18)
(-78.714115 -2.5342068e-30 -5.0684135e-30)
(-78.67129 -6.314002e-31 -1.2628004e-30)
(-78.628425 9.0831349e-18 9.0831349e-18)
(-78.585561 -9.0619212e-18 -9.0619212e-18)
(-78.542659 -9.0408345e-18 0)
(-78.499757 0 -9.0200754e-18)
(-78.456819 8.9994418e-18 8.9994418e-18)
(-78.413882 -1.2479389e-30 8.9791302e-18)
(-78.370908 8.9589409e-18 -8.9589409e-18)
(-78.327936 1.2398305e-30 0)
(-78.284929 -1.7838634e-17 -8.9193169e-18)
(-78.241924 8.8998789e-18 8.8998789e-18)
(-78.198885 -1.231715e-30 8.8805572e-18)
(-78.155847 -3.0764731e-30 -3.0764731e-30)
(-78.112777 -6.1197185e-31 -1.7685294e-17)
(-78.069707 -8.8240541e-18 -1.7648108e-17)
(-78.026607 8.8055731e-18 2.6416719e-17)
(-77.983508 8.787393e-18 1.7574786e-17)
(-77.94038 0 0)
(-77.897252 -8.7515499e-18 -1.75031e-17)
(-77.854095 -8.7338844e-18 -8.7338844e-18)
(-77.81094 0 8.7165097e-18)
(-77.767757 8.699235e-18 8.699235e-18)
(-77.724575 8.6822452e-18 8.6822452e-18)
(-77.681367 -1.7330708e-17 -1.7330708e-17)
(-77.638159 -8.6487463e-18 -1.7297493e-17)
(-77.594926 8.6322344e-18 8.6322344e-18)
(-77.551694 8.6159971e-18 1.7231994e-17)
(-77.508438 2.3855628e-30 2.3855628e-30)
(-77.465183 -8.5839745e-18 -1.7167949e-17)
(-77.421905 8.5681906e-18 8.5681906e-18)
(-77.378628 -5.9311923e-31 -1.1862385e-30)
(-77.335328 -8.5372454e-18 -8.5372454e-18)
(-77.292029 8.52208e-18 1.704416e-17)
(-77.24871 -5.9116062e-31 -8.5070001e-18)
(-77.205391 5.9133769e-31 1.1826754e-30)
(-77.162051 -2.4094339e-33 8.4774418e-18)
(-77.118713 -5.8449144e-31 -8.4629482e-18)
(-77.075356 8.4485212e-18 8.4485212e-18)
(-77.031999 0 -1.686868e-17)
(-76.988624 0 3.5131799e-30)
(-76.94525 -8.4063806e-18 1.6812761e-17)
(-76.901859 -8.3926053e-18 -1.6785211e-17)
(-76.858469 0 -5.7988943e-31)
(-76.815062 0 8.3656082e-18)
(-76.771656 0 0)
(-76.728234 0 0)
(-76.684813 8.3262596e-18 8.3262596e-18)
(-76.641377 5.7298019e-31 -8.3133807e-18)
(-76.597942 -1.6601467e-17 -1.6601467e-17)
(-76.554494 3.5334493e-33 8.2881463e-18)
(-76.511045 8.2757828e-18 -2.3521189e-33)
(-76.467584 8.2634706e-18 8.2634706e-18)
(-76.424124 -1.1456212e-30 8.2513741e-18)
(-76.380651 -1.1416064e-30 -8.2393241e-18)
(-76.337178 -1.1691962e-33 0)
(-76.293695 -8.215696e-18 -8.215696e-18)
(-76.250212 -8.2041173e-18 -8.2041173e-18)
(-76.206718 -8.1925848e-18 0)
(-76.163225 1.6362525e-17 1.6362525e-17)
(-76.119722 2.4509952e-17 8.1699839e-18)
(-76.076219 -8.158911e-18 -1.6317822e-17)
(-76.032707 -1.6295756e-17 5.6388907e-31)
(-75.989196 0 -2.3126873e-33)
(-75.945676 8.1262473e-18 8.1262473e-18)
(-75.902157 8.1156448e-18 8.1156448e-18)
(-75.858629 -8.1050738e-18 -8.1050738e-18)
(-75.815102 2.3006503e-33 8.0946936e-18)
(-75.771567 -3.4465621e-33 -8.0843416e-18)
(-75.728034 2.2948189e-33 4.5896377e-33)
(-75.684493 8.0640352e-18 1.612807e-17)
(-75.640953 8.0540775e-18 -8.0540775e-18)
(-75.597407 -8.0441426e-18 -8.0441426e-18)
(-75.553861 -1.6068778e-17 -8.0343888e-18)
(-75.51031 8.0246562e-18 -1.1130033e-30)
(-75.466759 4.5256727e-49 8.0151008e-18)
(-75.423203 8.0055632e-18 0)
(-75.379648 2.2158401e-30 0)
(-75.336088 -1.5973703e-17 -7.9868515e-18)
(-75.292529 0 1.107621e-30)
(-75.248965 0 -2.2115665e-30)
(-75.205402 1.5919058e-17 -1.1062325e-30)
(-75.161836 -4.4154196e-30 7.9505509e-18)
(-75.11827 -1.5883472e-17 -7.9417361e-18)
(-75.074701 0 1.1273367e-33)
(-75.031133 7.9242758e-18 7.9242758e-18)
(-74.987562 7.9156275e-18 0)
(-74.943991 -7.9071343e-18 0)
(-74.900418 1.1224644e-33 0)
(-74.856846 -1.0954896e-30 0)
(-74.813272 1.1200932e-33 0)
(-74.769699 7.8737605e-18 0)
(-74.726124 -7.865562e-18 0)
(-74.68255 -7.8575102e-18 -7.8575102e-18)
(-74.638975 0 0)
(-74.5954 7.8415412e-18 7.8415412e-18)
(-74.551826 -1.0876202e-30 0)
(-74.508251 -7.8258442e-18 -7.8258442e-18)
(-74.464677 1.5636101e-17 -2.168695e-30)
(-74.421104 -2.1665695e-30 7.8103879e-18)
(-74.37753 -7.802707e-18 0)
(-74.333958 -2.1645582e-30 0)
(-74.290385 -1.5575142e-17 -7.7875709e-18)
(-74.246814 1.556023e-17 -1.0801915e-30)
(-74.203243 7.7726316e-18 7.7726316e-18)
(-74.159673 -7.7652667e-18 0)
(-74.116104 -1.1024597e-33 0)
(-74.072537 -7.7505883e-18 -7.7505883e-18)
(-74.02897 0 -7.743274e-18)
(-73.985405 0 7.7360699e-18)
(-73.941841 7.7288174e-18 7.7288174e-18)
(-73.898279 -1.0709791e-30 0)
(-73.854718 -1.5428964e-17 -7.7144818e-18)
(-73.811159 1.0952882e-33 1.0952882e-33)
(-73.767602 2.3100814e-17 7.7002714e-18)
(-73.724046 -7.6932456e-18 -7.6932456e-18)
(-73.680493 -7.6862245e-18 -7.6862245e-18)
(-73.636941 1.5358681e-17 7.6793403e-18)
(-73.593391 -7.6724281e-18 7.6724281e-18)
(-73.549843 7.6656744e-18 0)
(-73.506298 1.531796e-17 -7.6589799e-18)
(-73.462754 -7.6524613e-18 -7.6524613e-18)
(-73.419212 -7.6459762e-18 7.6459762e-18)
(-73.375672 -7.6397041e-18 7.6397041e-18)
(-73.332133 7.6334651e-18 0)
(-73.288597 5.6904369e-49 -7.6274035e-18)
(-73.245063 -7.6214696e-18 -7.6214696e-18)
(-73.201529 7.615735e-18 7.615735e-18)
(-73.157996 -7.6099309e-18 7.6099309e-18)
(-73.114466 7.6043874e-18 0)
(-73.070937 2.1058074e-30 0)
(-73.027407 2.1583401e-33 0)
(-72.983879 7.5888219e-18 0)
(-72.940352 -1.5167472e-17 0)
(-72.896827 7.5788913e-18 0)
(-72.853301 2.1032875e-30 0)
(-72.809776 -2.0998391e-30 0)
(-72.766252 -7.5651735e-18 -7.5651735e-18)
(-72.722728 -1.5121155e-17 -3.1881605e-48)
(-72.679204 2.2668503e-17 7.5561675e-18)
(-72.635681 2.0948236e-30 0)
(-72.592159 -4.1872094e-30 0)
(-72.548637 2.0902233e-30 0)
(-72.505116 -1.5076877e-17 -7.5384383e-18)
(-72.461596 1.5067884e-17 -1.0449423e-30)
(-72.418077 -2.0886327e-30 7.5294293e-18)
(-72.374559 -1.5049713e-17 -7.5248566e-18)
(-72.331043 0 1.0441098e-30)
(-72.287527 0 -1.0680239e-33)
(-72.244013 7.5108094e-18 -1.0428012e-30)
(-72.200501 -1.0410684e-30 7.5060117e-18)
(-72.156991 -7.5011532e-18 -7.5011532e-18)
(-72.113483 -7.4962419e-18 7.4962419e-18)
(-72.069976 7.4912708e-18 -4.1624828e-30)
(-72.026472 2.2458763e-17 -7.4862542e-18)
(-71.98297 -7.4811831e-18 7.4811831e-18)
(-71.939471 -7.4760751e-18 0)
(-71.895974 -2.1233631e-33 0)
(-71.852479 -7.4657368e-18 -7.4657368e-18)
(-71.808988 0 -1.0358184e-30)
(-71.765499 1.4910554e-17 7.4552768e-18)
(-71.722013 1.4900019e-17 -7.4500097e-18)
(-71.67853 -7.4447344e-18 -7.4447344e-18)
(-71.63505 -1.487888e-17 0)
(-71.591573 -7.4341454e-18 7.4341454e-18)
(-71.548099 1.4857677e-17 7.4288387e-18)
(-71.504628 1.4847075e-17 -7.4235373e-18)
(-71.461161 -1.4836456e-17 -2.0588401e-30)
(-71.417696 -1.4825855e-17 9.7603085e-49)
(-71.374235 0 -1.0284746e-30)
(-71.330777 1.4804654e-17 7.4023268e-18)
(-71.287322 -7.397028e-18 -7.397028e-18)
(-71.243871 -1.4783484e-17 -3.8930781e-48)
(-71.200423 7.386454e-18 -1.0255356e-30)
(-71.156978 7.3811805e-18 -7.3811805e-18)
(-71.113537 -1.0481793e-33 0)
(-71.070099 1.0233412e-30 0)
(-71.026664 7.3653915e-18 7.3653915e-18)
(-70.983233 -7.3601511e-18 1.0459404e-33)
(-70.939805 -7.3549127e-18 -3.0603338e-30)
(-70.896381 7.3496902e-18 7.3496902e-18)
(-70.85296 -1.0186629e-30 0)
(-70.809543 -1.0429723e-33 0)
(-70.766129 -1.0172194e-30 -7.3340629e-18)
(-70.722718 -7.3288735e-18 2.0319579e-30)
(-70.679311 7.3236885e-18 7.3236885e-18)
(-70.635907 -3.0483086e-30 0)
(-70.592507 -1.0153851e-30 0)
(-70.54911 -2.0282987e-30 0)
(-70.505716 -7.3030286e-18 -7.3030286e-18)
(-70.462326 7.2978802e-18 1.0370912e-33)
(-70.41894 -1.0125241e-30 7.2927378e-18)
(-70.375557 -2.0205149e-30 -7.2876011e-18)
(-70.332177 -1.0349014e-33 7.2824712e-18)
(-70.288801 -1.4554692e-17 -2.0228425e-30)
(-70.245428 -7.2722278e-18 -1.4544456e-17)
(-70.202059 7.2671134e-18 7.2671134e-18)
(-70.158693 1.4524013e-17 3.0247719e-30)
(-70.115331 -1.0075487e-30 1.0075487e-30)
(-70.071972 -1.4503611e-17 -1.006841e-30)
(-70.028617 -7.2467113e-18 -7.2467113e-18)
(-69.985265 1.448325e-17 0)
(-69.941917 7.2365412e-18 0)
(-69.898572 -7.2314652e-18 7.2314652e-18)
(-69.85523 -7.2263912e-18 1.0033125e-30)
(-69.811892 -2.0041918e-30 -2.0041918e-30)
(-69.768558 7.2162574e-18 2.3213693e-49)
(-69.725226 0 -7.2111963e-18)
(-69.681899 0 7.2061345e-18)
(-69.638575 7.2010775e-18 7.2010775e-18)
(-69.595254 0 0)
(-69.551937 -7.1909665e-18 -7.1909665e-18)
(-69.508623 7.1859127e-18 -9.9769248e-31)
(-69.465313 1.0204622e-33 7.1808643e-18)
(-69.422006 -1.9915614e-30 0)
(-69.378703 0 0)
(-69.335403 -7.1657295e-18 -7.1657295e-18)
(-69.292106 7.160692e-18 2.0351911e-33)
(-69.248813 7.1556538e-18 2.309758e-49)
(-69.205524 -1.4301241e-17 -7.1506205e-18)
(-69.162238 -7.1455855e-18 7.1455855e-18)
(-69.118956 7.1405546e-18 -9.8936549e-31)
(-69.075676 0 9.9069614e-31)
(-69.032401 0 -1.9789823e-30)
(-68.989129 -7.1254591e-18 -7.1254591e-18)
(-68.94586 1.9782136e-30 7.12043e-18)
(-68.902595 7.1153983e-18 -1.9758045e-30)
(-68.859333 0 1.9754187e-30)
(-68.816075 0 -1.9740211e-30)
(-68.77282 -7.1003129e-18 -7.1003129e-18)
(-68.729569 2.9563372e-30 7.0952844e-18)
(-68.686321 7.0902601e-18 -1.9688242e-30)
(-68.643076 0 9.8572801e-31)
(-68.599835 0 0)
(-68.556598 0 -7.0751876e-18)
(-68.513364 0 7.0701663e-18)
(-68.470133 0 -9.809246e-31)
(-68.426906 0 1.0033032e-33)
(-68.383682 0 -9.7952918e-31)
(-68.340461 0 9.7983307e-31)
(-68.297244 1.4090061e-17 7.0450304e-18)
(-68.254031 3.9077328e-30 -7.0399961e-18)
(-68.21082 -7.0349545e-18 -7.0349545e-18)
(-68.167613 7.0299108e-18 7.0299108e-18)
(-68.12441 -7.0248591e-18 7.0248591e-18)
(-68.08121 7.0198051e-18 0)
(-68.038014 -1.9498484e-30 -7.0147436e-18)
(-67.994821 -7.0096811e-18 -7.0096811e-18)
(-67.951631 -1.9450416e-30 0)
(-67.908445 -6.9995459e-18 6.9995459e-18)
(-67.865262 0 -9.7111338e-31)
(-67.822083 0 9.9325489e-34)
(-67.778907 6.9843436e-18 9.6871409e-31)
(-67.735735 1.9380083e-30 -6.9792842e-18)
(-67.692566 -6.9742273e-18 6.9742273e-18)
(-67.6494 0 9.6661098e-31)
(-67.606238 0 -1.933803e-30)
(-67.563079 0 -6.9591128e-18)
(-67.519924 0 -6.954097e-18)
(-67.476772 0 1.3898202e-17)
(-67.433623 0 -9.8681916e-34)
(-67.390477 0 9.624487e-31)
(-67.347335 1.3868487e-17 6.9342435e-18)
(-67.304195 -5.7684894e-30 -6.9293505e-18)
(-67.261059 -1.3848979e-17 9.6139645e-31)
(-67.217926 6.9196691e-18 6.9196691e-18)
(-67.174796 9.8266457e-34 0)
(-67.131668 6.9101519e-18 0)
(-67.088544 -3.8291297e-30 0)
(-67.045422 -1.3801638e-17 -6.9008192e-18)
(-67.002303 -6.8962257e-18 -6.8962257e-18)
(-66.959187 -2.0733818e-49 6.8916864e-18)
(-66.916073 2.0661589e-17 6.8871964e-18)
(-66.872961 0 0)
(-66.829852 -1.3756752e-17 -6.8783761e-18)
(-66.786745 0 -6.8740442e-18)
(-66.743641 0 6.8697583e-18)
(-66.700538 1.3731043e-17 6.8655213e-18)
(-66.657438 -1.9033031e-30 0)
(-66.614339 -2.0571505e-17 -6.8571685e-18)
(-66.571243 6.8530437e-18 -6.8530437e-18)
(-66.528148 6.8489506e-18 6.8489506e-18)
(-66.485055 -6.8448777e-18 1.9006863e-30)
(-66.441964 6.8408253e-18 -6.8408253e-18)
(-66.398874 -6.8367817e-18 0)
(-66.355787 -1.8953759e-30 0)
(-66.312701 6.8287104e-18 0)
(-66.269617 -6.8246719e-18 0)
(-66.226535 0 6.8206207e-18)
(-66.183454 -6.8165579e-18 -1.8908851e-30)
(-66.140375 6.8124727e-18 -6.8124727e-18)
(-66.097298 1.3616733e-17 6.8083663e-18)
(-66.054223 -6.8042286e-18 9.4469944e-31)
(-66.01115 -6.8000615e-18 -9.4508723e-31)
(-65.968079 -6.7958556e-18 1.9289564e-49)
(-65.925009 -6.7916143e-18 6.7916143e-18)
(-65.881942 1.3574659e-17 6.7873295e-18)
(-65.838877 6.7830063e-18 -1.3566013e-17)
(-65.795814 -6.7786383e-18 -9.4114648e-31)
(-65.752753 0 9.3957197e-31)
(-65.709695 6.7697806e-18 -6.7697806e-18)
(-65.666638 -6.7652924e-18 0)
(-65.623584 -6.7607618e-18 6.7607618e-18)
(-65.580533 2.0268587e-17 6.7561957e-18)
(-65.537484 1.918917e-33 -6.7515891e-18)
(-65.494437 -1.3493898e-17 -1.8715759e-30)
(-65.451393 6.7422705e-18 6.7422705e-18)
(-65.408352 9.3544334e-31 0)
(-65.365313 6.7328166e-18 0)
(-65.322277 -1.9122254e-33 -6.7280449e-18)
(-65.279243 -1.3446485e-17 9.3249987e-31)
(-65.236212 6.7184174e-18 6.7184174e-18)
(-65.193185 0 0)
(-65.150159 -1.8628721e-30 -6.7086985e-18)
(-65.107137 -9.5266856e-34 9.5266856e-34)
(-65.064118 -6.6989065e-18 -1.860153e-30)
(-65.021101 6.6939865e-18 -9.2844215e-31)
(-64.978088 -1.8574181e-30 6.6890572e-18)
(-64.935077 -9.2707281e-31 -6.6841137e-18)
(-64.892069 -9.4916633e-34 9.4916633e-34)
(-64.849064 -6.6742037e-18 -1.8532936e-30)
(-64.806062 6.6692403e-18 -6.6692403e-18)
(-64.763063 2.2938637e-49 6.6642682e-18)
(-64.720067 -1.8491538e-30 1.8491538e-30)
(-64.677074 -9.4563508e-34 9.4563508e-34)
(-64.634083 -1.3298671e-17 -9.2319407e-31)
(-64.591096 -9.2155756e-31 -6.6443492e-18)
(-64.548111 6.6393633e-18 6.6393633e-18)
(-64.50513 0 0)
(-64.462151 0 -3.6807513e-30)
(-64.419175 -6.6243814e-18 -9.1878807e-31)
(-64.376202 -2.7542846e-30 -2.7542846e-30)
(-64.333232 6.6143809e-18 -9.3996006e-34)
(-64.290265 -6.6093785e-18 -6.6093785e-18)
(-64.247301 9.1695144e-31 6.6043727e-18)
(-64.20434 9.2654923e-49 9.2654923e-49)
(-64.161382 -9.1556147e-31 -9.1556147e-31)
(-64.118427 6.5893566e-18 1.8297332e-30)
(-64.075474 6.5843512e-18 -9.1417165e-31)
(-64.032525 9.12542e-31 1.3158696e-17)
(-63.989578 -6.5743445e-18 -6.5743445e-18)
(-63.946635 0 -6.5693429e-18)
(-63.903694 0 -9.113935e-31)
(-63.860756 6.5593413e-18 9.1069928e-31)
(-63.817821 -6.5543414e-18 1.3108683e-17)
(-63.774889 5.4521434e-30 -6.5493425e-18)
(-63.73196 6.544344e-18 -6.544344e-18)
(-63.689034 -6.5393466e-18 2.3127539e-49)
(-63.64611 0 0)
(-63.60319 6.5293546e-18 2.3119957e-49)
(-63.560272 6.52436e-18 -6.52436e-18)
(-63.517357 -6.5193664e-18 6.5193664e-18)
(-63.474445 -6.5143734e-18 2.3111901e-49)
(-63.431536 0 -9.0283772e-31)
(-63.388629 6.5043883e-18 -9.2432917e-34)
(-63.345726 6.4993959e-18 -6.4993959e-18)
(-63.302825 -1.2988807e-17 1.2988807e-17)
(-63.259927 -6.4894114e-18 1.8019804e-30)
(-63.217032 6.4844198e-18 -6.4844198e-18)
(-63.174139 6.479429e-18 8.9868346e-31)
(-63.13125 8.9799137e-31 -8.9799137e-31)
(-63.088363 6.4694502e-18 6.4694502e-18)
(-63.045479 1.7950525e-30 -6.4644622e-18)
(-63.002598 -1.291895e-17 -9.2399196e-49)
(-62.95972 0 -2.6893417e-30)
(-62.916844 0 1.7918149e-30)
(-62.873971 0 -1.788598e-30)
(-62.831102 6.43953e-18 -1.7881293e-30)
(-62.788234 6.4345447e-18 2.3097801e-49)
(-62.74537 0 0)
(-62.702508 -6.4245767e-18 6.4245767e-18)
(-62.65965 -8.8947224e-31 0)
(-62.616794 6.4146132e-18 0)
(-62.57394 0 -6.4096331e-18)
(-62.53109 0 -1.7784449e-30)
(-62.488242 -6.3996752e-18 6.3996752e-18)
(-62.445397 -8.869313e-31 0)
(-62.402555 8.853328e-31 0)
(-62.359715 -6.3847405e-18 -1.2769481e-17)
(-62.316878 6.3797625e-18 -5.3109728e-30)
(-62.274044 -2.6525086e-30 1.274957e-17)
(-62.231213 -6.3698079e-18 -6.3698079e-18)
(-62.188385 0 9.0449701e-34)
(-62.145559 -6.3598571e-18 -8.8300288e-31)
(-62.102736 -8.8231235e-31 -6.3548836e-18)
(-62.059916 6.3499112e-18 0)
(-62.017098 -6.3449396e-18 0)
(-61.974283 6.3399683e-18 0)
(-61.931471 6.3349969e-18 -6.3349969e-18)
(-61.888662 -6.3300248e-18 -1.7559228e-30)
(-61.845855 0 6.3250518e-18)
(-61.803051 6.3200774e-18 0)
(-61.76025 6.3151018e-18 0)
(-61.717452 -6.3101248e-18 -6.3101248e-18)
(-61.674656 -6.3051465e-18 8.9601521e-34)
(-61.631863 0 6.300167e-18)
(-61.589073 -6.2951864e-18 0)
(-61.546285 6.2902048e-18 0)
(-61.503501 6.2852223e-18 -6.2852223e-18)
(-61.460719 -6.2802392e-18 -1.7421125e-30)
(-61.417939 -1.2550511e-17 -1.7434053e-30)
(-61.375163 3.482259e-30 1.7411295e-30)
(-61.332389 1.8795858e-17 6.2652861e-18)
(-61.289618 2.3153045e-49 -6.2603002e-18)
(-61.24685 -6.2553131e-18 1.7360871e-30)
(-61.204084 -1.2500649e-17 -1.7347026e-30)
(-61.161321 3.4648603e-30 1.7324301e-30)
(-61.118561 1.2480686e-17 6.2403431e-18)
(-61.075803 -6.23535e-18 0)
(-61.033049 6.230356e-18 0)
(-60.990297 -6.2253619e-18 -6.2253619e-18)
(-60.947547 -6.2203688e-18 -5.7979657e-48)
(-60.904801 1.2430757e-17 6.2153783e-18)
(-60.862057 0 0)
(-60.819316 0 0)
(-60.776578 -1.2400879e-17 -6.2004397e-18)
(-60.733842 -1.842328e-48 -3.684656e-48)
(-60.691109 1.2381055e-17 6.1905274e-18)
(-60.648379 0 0)
(-60.605652 0 0)
(-60.562927 -1.2351539e-17 -6.1757694e-18)
(-60.520204 -1.8097949e-48 -3.6195898e-48)
(-60.477485 1.2332059e-17 6.1660294e-18)
(-60.434767 0 0)
(-60.392053 0 0)
(-60.34934 -1.2303223e-17 -6.1516113e-18)
(-60.30663 -6.1468646e-18 8.73522e-34)
(-60.263923 1.2284301e-17 6.1421506e-18)
(-60.221217 6.1374708e-18 -6.1374708e-18)
(-60.178514 0 1.7038355e-30)
(-60.135813 -1.2256439e-17 -1.7025554e-30)
(-60.093114 3.4008314e-30 1.7004157e-30)
(-60.050417 1.2238237e-17 6.1191187e-18)
(-60.007723 -6.1146264e-18 0)
(-59.96503 0 0)
(-59.922339 6.1057577e-18 0)
(-59.87965 -6.1013804e-18 0)
(-59.836963 8.664415e-34 0)
(-59.794277 6.0927353e-18 -6.0927353e-18)
(-59.751593 -6.0884647e-18 1.6897803e-30)
(-59.708911 6.0842261e-18 6.0842261e-18)
(-59.66623 6.0800172e-18 0)
(-59.623551 -6.0758352e-18 0)
(-59.580874 -6.0716772e-18 0)
(-59.538198 1.6848351e-30 0)
(-59.495524 6.0634205e-18 0)
(-59.452851 -6.0593154e-18 0)
(-59.410179 -1.6814145e-30 0)
(-59.367509 6.0511349e-18 -6.0511349e-18)
(-59.32484 -6.0470524e-18 3.3565736e-30)
(-59.282172 6.0429705e-18 6.0429705e-18)
(-59.239506 6.0388856e-18 0)
(-59.196842 -6.0347943e-18 0)
(-59.154179 -6.0306934e-18 0)
(-59.111517 1.6734613e-30 0)
(-59.068857 6.0224507e-18 0)
(-59.026198 -6.0183035e-18 0)
(-58.98354 8.5466008e-34 0)
(-58.940884 6.0099453e-18 -6.0099453e-18)
(-58.89823 -6.0057308e-18 1.6668185e-30)
(-58.855577 6.0014907e-18 6.0014907e-18)
(-58.812926 5.9972237e-18 0)
(-58.770277 -5.9929289e-18 0)
(-58.727629 -1.1977211e-17 -5.9886054e-18)
(-58.684983 3.3251167e-30 1.6625583e-30)
(-58.642339 1.1959743e-17 5.9798713e-18)
(-58.599697 -5.9754615e-18 0)
(-58.557057 8.4853352e-34 0)
(-58.514418 1.1933118e-17 0)
(-58.471782 1.6945214e-33 -5.962067e-18)
(-58.429147 -5.9575487e-18 -1.6551393e-30)
(-58.386515 0 5.9530044e-18)
(-58.343884 5.9484353e-18 0)
(-58.301256 0 0)
(-58.25863 -5.9392295e-18 0)
(-58.216005 0 0)
(-58.173384 0 0)
(-58.130764 0 0)
(-58.088147 -5.9205815e-18 0)
(-58.045531 -2.1925675e-49 -5.9158764e-18)
(-58.002919 5.9111578e-18 8.4002605e-34)
(-57.960308 0 5.9064282e-18)
(-57.9177 5.9016888e-18 0)
(-57.875094 -1.6374628e-30 0)
(-57.83249 -5.8921804e-18 0)
(-57.789889 0 0)
(-57.74729 0 0)
(-57.704694 0 0)
(-57.662099 -5.8730469e-18 0)
(-57.619508 1.6294965e-30 -5.8682509e-18)
(-57.576919 5.8634532e-18 -8.3324681e-34)
(-57.534332 0 5.8586526e-18)
(-57.491747 5.8538473e-18 0)
(-57.449165 1.6233297e-30 0)
(-57.406586 -5.8442205e-18 0)
(-57.364009 0 -5.8394041e-18)
(-57.321434 5.8345903e-18 3.2394701e-30)
(-57.278862 -5.8297808e-18 5.8297808e-18)
(-57.236292 3.2366142e-30 0)
(-57.193724 5.8201653e-18 -5.8201653e-18)
(-57.151159 -5.8153511e-18 -1.6156337e-30)
(-57.108596 0 5.8105302e-18)
(-57.066036 -5.8057061e-18 0)
(-57.023478 -1.6107903e-30 0)
(-56.980923 5.7960718e-18 -5.7960718e-18)
(-56.93837 0 -5.7912684e-18)
(-56.89582 5.7864703e-18 5.7864703e-18)
(-56.853272 -5.78167e-18 5.78167e-18)
(-56.810726 -3.2082386e-30 0)
(-56.768182 5.7720423e-18 0)
(-56.725642 -3.2020648e-30 0)
(-56.683103 -8.188867e-34 0)
(-56.640567 1.5995889e-30 5.7575992e-18)
(-56.598034 -8.1752339e-34 -8.1752339e-34)
(-56.555503 -5.7480263e-18 -1.1496053e-17)
(-56.512974 0 -5.7432383e-18)
(-56.470447 5.7384361e-18 1.1476872e-17)
(-56.427923 -1.5912971e-30 1.1467238e-17)
(-56.385401 -1.5899585e-30 -5.7287957e-18)
(-56.342882 2.2440437e-49 -5.7239807e-18)
(-56.300366 -1.5881041e-30 0)
(-56.257852 0 0)
(-56.21534 -1.1419305e-17 0)
(-56.17283 -1.5841339e-30 0)
(-56.130323 5.7001051e-18 -5.7001051e-18)
(-56.087818 -5.6952993e-18 -1.5822806e-30)
(-56.045315 1.5793245e-30 5.6904805e-18)
(-56.002815 5.6856674e-18 0)
(-55.960318 5.6808779e-18 0)
(-55.917823 1.5761452e-30 0)
(-55.87533 -1.5748296e-30 0)
(-55.83284 5.6666429e-18 0)
(-55.790351 -5.6618834e-18 0)
(-55.747865 -5.657091e-18 0)
(-55.705381 0 0)
(-55.662901 -5.6474494e-18 0)
(-55.620422 1.5668509e-30 0)
(-55.577947 5.6378831e-18 0)
(-55.535474 0 0)
(-55.493002 0 0)
(-55.450533 0 0)
(-55.408066 -1.1237917e-17 -5.6189583e-18)
(-55.365601 6.2357621e-30 3.117881e-30)
(-55.323139 1.1218676e-17 5.6093378e-18)
(-55.28068 0 0)
(-55.238223 0 0)
(-55.195769 0 5.5949873e-18)
(-55.153318 0 -1.552309e-30)
(-55.110868 0 7.9375879e-34)
(-55.06842 0 -5.580868e-18)
(-55.025974 0 -5.5761209e-18)
(-54.983531 -1.1142675e-17 -3.0933075e-30)
(-54.94109 3.0930124e-30 1.5465062e-30)
(-54.898652 1.1123451e-17 5.5617256e-18)
(-54.856217 5.5569386e-18 0)
(-54.813785 -5.5521829e-18 0)
(-54.771355 -5.5474598e-18 0)
(-54.728927 1.5399022e-30 0)
(-54.6865 3.0724771e-30 0)
(-54.644076 5.5333773e-18 -5.5333773e-18)
(-54.601654 -5.5286612e-18 3.0696127e-30)