/*--------------------------------*- C++ -*----------------------------------*\
| =========                 |                                                 |
| \\      /  F ield         | OpenFOAM: The Open Source CFD Toolbox           |
|  \\    /   O peration     | Version:  4.x                                   |
|   \\  /    A nd           | Web:      www.OpenFOAM.org                      |
|    \\/     M anipulation  |                                                 |
\*---------------------------------------------------------------------------*/
FoamFile
{
    version     2.0;
    format      ascii;
    class       surfaceScalarField;
    location    "0.95";
    object      phi;
}
// * * * * * * * * * * * * * * * * * * * * * * * * * * * * * * * * * * * * * //

dimensions      [1 0 -1 0 0 0 0];

internalField   nonuniform List<scalar> 
18092
(
3.591943773e-10
2.802169358e-08
1.459707723e-07
-2.18250696e-15
2.80241218e-08
1.459461827e-07
-3.591995006e-10
2.802412111e-08
1.459461829e-07
-7.405578111e-10
2.802169214e-08
1.459707727e-07
-1.172879029e-09
2.801732361e-08
1.460261049e-07
-1.701270993e-09
2.801148333e-08
1.461280168e-07
-2.401867349e-09
2.800736395e-08
1.463043417e-07
2.800162009e-08
1.466169098e-07
-3.409287523e-09
3.56355357e-10
2.236109546e-08
1.796519045e-07
-3.367704596e-15
2.236780616e-08
1.796237794e-07
-3.563626655e-10
2.236780537e-08
1.7962378e-07
-7.365648761e-10
2.236109344e-08
1.796519063e-07
-1.172123489e-09
2.234820536e-08
1.797157835e-07
-1.715378521e-09
2.233088679e-08
1.798349599e-07
-2.454631226e-09
2.231277957e-08
1.800449474e-07
2.229866101e-08
1.804278292e-07
-3.568389926e-09
3.89820021e-10
1.365020671e-08
1.827381411e-07
-4.10284852e-15
1.365523615e-08
1.827134965e-07
-3.898284334e-10
1.36552352e-08
1.827134971e-07
-8.059783083e-10
1.365020372e-08
1.827381424e-07
-1.281609829e-09
1.364133528e-08
1.827936055e-07
-1.868852165e-09
1.363215922e-08
1.828970752e-07
-2.655092389e-09
1.362820554e-08
1.830819213e-07
1.363842524e-08
1.83425202e-07
-3.808950787e-09
4.07176655e-10
8.414597007e-09
1.792791861e-07
-4.868478443e-15
8.415661244e-09
1.792578572e-07
-4.071866351e-10
8.415660314e-09
1.792578576e-07
-8.396628835e-10
8.414594009e-09
1.792791873e-07
-1.32972533e-09
8.413850984e-09
1.793286492e-07
-1.928238287e-09
8.417083646e-09
1.794246924e-07
-2.720394654e-09
8.429832667e-09
1.796016346e-07
8.460978892e-09
1.799355527e-07
-3.867395069e-09
4.142886312e-10
5.411858541e-09
1.770518848e-07
-5.698420641e-15
5.411229646e-09
1.770298255e-07
-4.143001402e-10
5.411228766e-09
1.770298259e-07
-8.523471902e-10
5.41185563e-09
1.77051886e-07
-1.344889523e-09
5.414425179e-09
1.771030698e-07
-1.941040063e-09
5.422098261e-09
1.772022388e-07
-2.723605117e-09
5.439435771e-09
1.773840662e-07
5.473202088e-09
1.777247852e-07
-3.849508845e-09
4.144442058e-10
1.757618163e-07
3.697584607e-09
-6.501806224e-15
1.757405607e-07
3.69621679e-09
-4.14457255e-10
1.75740561e-07
3.696216069e-09
-8.509030119e-10
1.757618172e-07
3.697582335e-09
-1.338470333e-09
1.758116487e-07
3.701443177e-09
-1.924983011e-09
1.759095599e-07
3.710151501e-09
-2.692268277e-09
1.76091007e-07
3.726815756e-09
1.764339291e-07
3.755612876e-09
-3.797506143e-09
8.887161364e-10
2.826206031e-08
1.186337133e-07
-1.795152477e-15
2.827218283e-08
1.185627129e-07
-8.887202304e-10
2.827218232e-08
1.185627136e-07
-1.813726597e-09
2.826205908e-08
1.18633715e-07
-2.817215272e-09
2.824054161e-08
1.187890478e-07
-3.953672212e-09
2.820399209e-08
1.190604788e-07
-5.302794865e-09
2.815115588e-08
1.195023072e-07
2.806960498e-08
1.2022738e-07
-6.982869655e-09
1.325548837e-09
3.076260698e-08
1.785329243e-07
-2.273297343e-15
3.077240373e-08
1.784491029e-07
-1.325553634e-09
3.07724029e-08
1.784491037e-07
-2.707126065e-09
3.076260499e-08
1.785329265e-07
-4.210837268e-09
3.074185055e-08
1.787181809e-07
-5.923241777e-09
3.070601955e-08
1.790453339e-07
-7.962202556e-09
3.064882076e-08
1.795862422e-07
3.056036577e-08
1.804905037e-07
-1.051563707e-08
1.216157271e-09
2.435486511e-08
1.904124061e-07
-3.694024308e-15
2.436060143e-08
1.903414518e-07
-1.216164851e-09
2.436060049e-08
1.903414526e-07
-2.482695025e-09
2.435486226e-08
1.904124079e-07
-3.862563449e-09
2.43440288e-08
1.905712897e-07
-5.445434162e-09
2.43268637e-08
1.908590974e-07
-7.36010983e-09
2.429653039e-08
1.913488847e-07
2.424343043e-08
1.921923448e-07
-9.810318624e-09
1.206651807e-09
1.776819562e-08
1.871199948e-07
-4.848769528e-15
1.77693303e-08
1.870557752e-07
-1.206661696e-09
1.776932936e-08
1.870557759e-07
-2.460810837e-09
1.776819266e-08
1.871199969e-07
-3.821366836e-09
1.776716085e-08
1.872660657e-07
-5.374104433e-09
1.776700706e-08
1.875372805e-07
-7.249348646e-09
1.776417751e-08
1.880092271e-07
1.775276409e-08
1.888352938e-07
-9.658426828e-09
1.207259518e-09
1.289635576e-08
1.831795745e-07
-6.165440084e-15
1.28946369e-08
1.831117726e-07
-1.207272038e-09
1.289463597e-08
1.831117735e-07
-2.4631341e-09
1.289635307e-08
1.831795768e-07
-3.826872345e-09
1.290109606e-08
1.833328636e-07
-5.383234892e-09
1.291050539e-08
1.836150952e-07
-7.260595064e-09
1.292363636e-08
1.841019609e-07
1.293690657e-08
1.84950546e-07
-9.670503967e-09
1.209923408e-09
1.803154494e-07
9.600545134e-09
-7.224175617e-15
1.802472233e-07
9.597891494e-09
-1.209938305e-09
1.802472241e-07
9.597890833e-09
-2.467774982e-09
1.803154517e-07
9.600543248e-09
-3.832069807e-09
1.804702681e-07
9.606761046e-09
-5.386881462e-09
1.80756667e-07
9.61820091e-09
-7.261262876e-09
1.812538084e-07
9.635208646e-09
1.821260527e-07
9.655475893e-09
-9.671962865e-09
1.183939958e-09
2.504893965e-08
9.480457061e-08
-1.311808722e-16
2.506450877e-08
9.468214104e-08
-1.183941231e-09
2.506450836e-08
9.468214186e-08
-2.403742348e-09
2.504893852e-08
9.480457314e-08
-3.700451805e-09
2.501711728e-08
9.506863623e-08
-5.125555073e-09
2.496760989e-08
9.55179695e-08
-6.756211232e-09
2.490602711e-08
9.6226935e-08
2.482576259e-08
9.733172527e-08
-8.686319001e-09
1.712000695e-09
3.305881858e-08
1.722996099e-07
-3.77254879e-16
3.309448735e-08
1.721311211e-07
-1.712002065e-09
3.309448659e-08
1.721311219e-07
-3.488571297e-09
3.305881687e-08
1.722996126e-07
-5.404731977e-09
3.298716115e-08
1.726642941e-07
-7.552001357e-09
3.288760821e-08
1.732726033e-07
-1.006202707e-08
3.278883582e-08
1.742134594e-07
3.270480599e-08
1.75687614e-07
-1.313817889e-08
1.821261868e-09
3.023598857e-08
1.951465715e-07
-1.459465925e-15
3.027640695e-08
1.949807908e-07
-1.821265483e-09
3.027640606e-08
1.949807913e-07
-3.732605815e-09
3.023598624e-08
1.951465736e-07
-5.828217349e-09
3.01579052e-08
1.954961532e-07
-8.201387107e-09
3.005809377e-08
1.960617792e-07
-1.09734178e-08
2.997628918e-08
1.969334614e-07
2.993098231e-08
1.983618825e-07
-1.436913104e-08
1.868372997e-09
2.427368195e-08
1.950271214e-07
-2.660365297e-15
2.429124223e-08
1.949093093e-07
-1.868379081e-09
2.429124141e-08
1.949093101e-07
-3.813205716e-09
2.427367944e-08
1.950271241e-07
-5.920035672e-09
2.424121586e-08
1.952895801e-07
-8.290055535e-09
2.420251816e-08
1.957628727e-07
-1.106357818e-08
2.417604288e-08
1.965829944e-07
2.417285248e-08
1.979925021e-07
-1.446265702e-08
1.901675958e-09
1.862582281e-08
1.907959097e-07
-3.888429142e-15
1.863155185e-08
1.906731353e-07
-1.901684405e-09
1.863155099e-08
1.906731365e-07
-3.870168363e-09
1.862582019e-08
1.907959131e-07
-5.983522512e-09
1.86168683e-08
1.910705598e-07
-8.341732446e-09
1.861056713e-08
1.915652522e-07
-1.108961306e-08
1.861603743e-08
1.924098444e-07
1.86381787e-08
1.93842316e-07
-1.444671094e-08
1.923576095e-09
1.865744214e-07
1.43511689e-08
-4.864962193e-15
1.864509938e-07
1.435135395e-08
-1.923586603e-09
1.86450995e-07
1.435135327e-08
-3.907913843e-09
1.865744251e-07
1.43511667e-08
-6.025698109e-09
1.868522218e-07
1.435269305e-08
-8.374407976e-09
1.873561547e-07
1.435978504e-08
-1.110209875e-08
1.882209568e-07
1.437657687e-08
1.8968954e-07
1.440288016e-08
-1.443028967e-08
2.652836109e-09
1.842561788e-08
7.805301547e-08
1.310726675e-09
1.840498419e-08
7.77416961e-08
2.460616103e-15
1.839424741e-08
7.759861573e-08
-1.310722646e-09
1.839424695e-08
7.759861611e-08
-2.65283357e-09
1.84049826e-08
7.774169738e-08
-4.062834948e-09
1.84256158e-08
7.805301823e-08
-5.58119968e-09
1.844855195e-08
7.858777966e-08
-7.251925136e-09
1.846389861e-08
7.943376051e-08
1.847859566e-08
8.071080137e-08
-9.109596702e-09
4.285817297e-09
2.970533444e-08
1.636978803e-07
2.112300991e-09
2.962609813e-08
1.632520132e-07
4.102696103e-15
2.959029538e-08
1.630473682e-07
-2.11229354e-09
2.959029445e-08
1.630473683e-07
-4.285811131e-09
2.962609513e-08
1.632520139e-07
-6.599117602e-09
2.970533081e-08
1.636978827e-07
-9.161295612e-09
2.980993366e-08
1.644733982e-07
-1.208544706e-08
2.986153219e-08
1.657399777e-07
2.985155952e-08
1.677279238e-07
-1.549871865e-08
5.012824727e-09
3.096567237e-08
1.968411559e-07
2.49258572e-09
3.091707776e-08
1.963758316e-07
4.439640724e-15
3.090197813e-08
1.961616875e-07
-2.492577999e-09
3.090197709e-08
1.961616876e-07
-5.01281898e-09
3.091707439e-08
1.963758321e-07
-7.618162987e-09
3.09656679e-08
1.968411578e-07
-1.044688796e-08
3.105451186e-08
1.976459252e-07
-1.370889269e-08
3.111648471e-08
1.989405143e-07
3.112760499e-08
2.009777955e-07
-1.760084915e-08
5.106219112e-09
2.740991285e-08
2.01558566e-07
2.522060918e-09
2.741930667e-08
2.011090503e-07
2.308834653e-15
2.742966611e-08
2.00903677e-07
-2.522057092e-09
2.742966526e-08
2.009036771e-07
-5.106216753e-09
2.741930386e-08
2.011090506e-07
-7.819447145e-09
2.740990863e-08
2.015585674e-07
-1.075492104e-08
2.741773655e-08
2.023351211e-07
-1.407710596e-08
2.743875928e-08
2.035829056e-07
2.746942613e-08
2.055719533e-07
-1.799837631e-08
5.12104443e-09
2.24875681e-08
1.987254209e-07
2.527820312e-09
2.249233318e-08
1.983161055e-07
1.033433277e-15
2.249819847e-08
1.981324182e-07
-2.527818538e-09
2.249819763e-08
1.981324187e-07
-5.121042968e-09
2.249233041e-08
1.983161071e-07
-7.853564217e-09
2.248756374e-08
1.987254235e-07
-1.081943201e-08
2.249462322e-08
1.994542327e-07
-1.41575467e-08
2.251671062e-08
2.006700086e-07
2.255338183e-08
2.026589072e-07
-1.805809184e-08
5.170061578e-09
1.941248605e-07
1.795733375e-08
2.555581119e-09
1.937226087e-07
1.795862416e-08
6.207977619e-16
1.935434017e-07
1.796136723e-08
-2.555580321e-09
1.935434026e-07
1.796136631e-08
-5.170060946e-09
1.937226114e-07
1.795862113e-08
-7.912471336e-09
1.941248649e-07
1.795732922e-08
-1.087438364e-08
1.948484639e-07
1.796422617e-08
-1.418965799e-08
1.960698379e-07
1.798310512e-08
1.980864204e-07
1.80120804e-08
-1.804523499e-08
2.761284494e-09
1.286278271e-08
6.659825689e-08
1.375723716e-09
1.286308399e-08
6.626417311e-08
3.856380208e-15
1.286460858e-08
6.610972473e-08
-1.375716464e-09
1.286460807e-08
6.610972465e-08
-2.761278371e-09
1.286308261e-08
6.626417286e-08
-4.169300952e-09
1.286278045e-08
6.659825671e-08
-5.616715418e-09
1.28714375e-08
6.716375359e-08
-7.123488954e-09
1.290467808e-08
6.803585415e-08
1.298042777e-08
6.929455362e-08
-8.687669392e-09
4.954302421e-09
2.519583705e-08
1.53967719e-07
2.453892997e-09
2.522184416e-08
1.533936637e-07
7.164060931e-15
2.523590806e-08
1.53129953e-07
-2.453879154e-09
2.523590699e-08
1.531299527e-07
-4.954289846e-09
2.522184133e-08
1.533936626e-07
-7.557179592e-09
2.51958327e-08
1.539677174e-07
-1.033480067e-08
2.516854758e-08
1.549539076e-07
-1.337529551e-08
2.517301754e-08
1.565121331e-07
2.525193478e-08
1.588337799e-07
-1.675265709e-08
5.714308207e-09
2.967406131e-08
1.953911067e-07
2.825550541e-09
2.968356546e-08
1.948028695e-07
7.568778709e-15
2.968875802e-08
1.945343794e-07
-2.825535938e-09
2.968875673e-08
1.945343789e-07
-5.714295018e-09
2.968356193e-08
1.948028681e-07
-8.742466618e-09
2.967405592e-08
1.953911044e-07
-1.200279106e-08
2.966035611e-08
1.964144405e-07
-1.560131727e-08
2.966100677e-08
1.980510522e-07
2.972293512e-08
2.005255329e-07
-1.962005276e-08
6.038375616e-09
2.833670105e-08
2.060532895e-07
2.993967554e-09
2.83505893e-08
2.054864349e-07
7.719586301e-15
2.836089105e-08
2.052255019e-07
-2.993952638e-09
2.836088989e-08
2.052255018e-07
-6.038362363e-09
2.835058607e-08
2.054864341e-07
-9.19572492e-09
2.833669644e-08
2.060532883e-07
-1.255716787e-08
2.832895223e-08
2.070279679e-07
-1.623945654e-08
2.833846217e-08
2.085877403e-07
2.83907492e-08
2.109987363e-07
-2.033405111e-08
6.133655248e-09
2.471747584e-08
2.055460181e-07
3.041565572e-09
2.473451924e-08
2.050242649e-07
7.115325308e-15
2.474681171e-08
2.047880537e-07
-3.041551869e-09
2.474681083e-08
2.047880541e-07
-6.133642789e-09
2.473451669e-08
2.050242657e-07
-9.335013854e-09
2.471747212e-08
2.055460183e-07
-1.272392313e-08
2.470756676e-08
2.064645283e-07
-1.6402727e-08
2.471490945e-08
2.079723674e-07
2.475057206e-08
2.103571084e-07
-2.046074787e-08
6.225187074e-09
2.016072642e-07
2.046168464e-08
3.091498201e-09
2.011129099e-07
2.047790755e-08
6.589588985e-15
2.008926191e-07
2.048908474e-08
-3.091485384e-09
2.008926198e-07
2.048908404e-08
-6.225175154e-09
2.011129118e-07
2.047790538e-08
-9.451785408e-09
2.016072666e-07
2.046168117e-08
-1.284077543e-08
2.024952146e-07
2.044980802e-08
-1.648682671e-08
2.039813633e-07
2.044943848e-08
2.063669905e-07
2.046186016e-08
-2.047868064e-08
2.786859944e-09
9.044207463e-09
5.891699992e-08
1.399828892e-09
9.060151203e-09
5.859105317e-08
3.92279463e-15
9.070820302e-09
5.84387276e-08
-1.399821275e-09
9.070819793e-09
5.843872737e-08
-2.786853348e-09
9.060149698e-09
5.85910523e-08
-4.149803181e-09
9.044205043e-09
5.891699846e-08
-5.482024797e-09
9.039313013e-09
5.945665931e-08
-6.781470796e-09
9.076113176e-09
6.025918505e-08
9.183624311e-09
6.135200841e-08
-8.022550648e-09
5.429031771e-09
2.082747058e-08
1.449487058e-07
2.705043448e-09
2.089188486e-08
1.442859196e-07
8.142751384e-15
2.092700477e-08
1.439788031e-07
-2.705027191e-09
2.092700396e-08
1.439788025e-07
-5.429017024e-09
2.089188246e-08
1.442859175e-07
-8.193265338e-09
2.082746654e-08
1.449487016e-07
-1.10282838e-08
2.076549541e-08
1.460627413e-07
-1.39798971e-08
2.078222439e-08
1.477576339e-07
2.094501262e-08
1.501381881e-07
-1.704569318e-08
6.391856192e-09
2.733406209e-08
1.922069981e-07
3.171120919e-09
2.738738664e-08
1.915281045e-07
8.568324028e-15
2.741482013e-08
1.912176759e-07
-3.17110358e-09
2.741481926e-08
1.912176751e-07
-6.391840122e-09
2.738738406e-08
1.915281018e-07
-9.714320319e-09
2.733405718e-08
1.922069921e-07
-1.318852027e-08
2.727344429e-08
1.933806896e-07
-1.686371695e-08
2.72706275e-08
1.952378448e-07
2.739922979e-08
1.979451868e-07
-2.073758746e-08
6.80742787e-09
2.805713151e-08
2.088316335e-07
3.388609367e-09
2.810202035e-08
2.081906201e-07
7.424805384e-15
2.812896826e-08
2.078999546e-07
-3.388594404e-09
2.812896772e-08
2.07899954e-07
-6.807413764e-09
2.810201857e-08
2.081906175e-07
-1.030882694e-08
2.805712855e-08
2.088316285e-07
-1.396436463e-08
2.801123216e-08
2.099457164e-07
-1.78386265e-08
2.800282339e-08
2.117298061e-07
2.808490803e-08
2.144030614e-07
-2.192862833e-08
7.012407037e-09
2.589897334e-08
2.112825568e-07
3.494268607e-09
2.594876195e-08
2.106956618e-07
6.268313228e-15
2.597890728e-08
2.104323761e-07
-3.494255901e-09
2.597890729e-08
2.10432376e-07
-7.012394952e-09
2.594876192e-08
2.106956607e-07
-1.059077536e-08
2.589897332e-08
2.112825534e-07
-1.42819001e-08
2.584613989e-08
2.123207453e-07
-1.814319584e-08
2.581669798e-08
2.1401979e-07
2.584094334e-08
2.166238665e-07
-2.216598607e-08
7.147835568e-09
2.087728668e-07
2.235048966e-08
3.567184312e-09
2.082375723e-07
2.240475259e-08
5.346926483e-15
2.080020794e-07
2.243662655e-08
-3.567173397e-09
2.080020795e-07
2.243662708e-08
-7.147824923e-09
2.082375722e-07
2.240475423e-08
-1.076494043e-08
2.087728647e-07
2.235049227e-08
-1.445740374e-08
2.097453324e-07
2.228848746e-08
-1.827220774e-08
2.113772272e-07
2.223564133e-08
2.139263193e-07
2.220410659e-08
-2.219469514e-08
4.10927193e-09
6.587055032e-09
5.410121737e-08
2.791299863e-09
6.586816315e-09
5.364815774e-08
1.411774995e-09
6.598148816e-09
5.337242926e-08
2.835369716e-15
6.607199487e-09
5.324329872e-08
-1.411769435e-09
6.607198953e-09
5.324329852e-08
-2.791295135e-09
6.598147409e-09
5.337242838e-08
-4.109268637e-09
6.586813743e-09
5.364815564e-08
-5.34087632e-09
6.587050578e-09
5.410121381e-08
-6.464025605e-09
6.624788625e-09
5.475754347e-08
6.727804318e-09
5.559768172e-08
-7.437504791e-09
8.592516689e-09
1.727033171e-08
1.382003098e-07
5.74687552e-09
1.72999188e-08
1.370812475e-07
2.87994367e-09
1.734498502e-08
1.364060168e-07
9.370553031e-15
1.737543909e-08
1.360904978e-07
-2.879924994e-09
1.737543807e-08
1.360904972e-07
-5.746858706e-09
1.734498245e-08
1.364060145e-07
-8.592504092e-09
1.729991468e-08
1.370812432e-07
-1.141334428e-08
1.727032532e-08
1.382003034e-07
-1.420194946e-08
1.731796628e-08
1.398530586e-07
1.750925301e-08
1.420449439e-07
-1.689015536e-08
1.048922172e-08
2.489601765e-08
1.893493661e-07
6.955740939e-09
2.496346703e-08
1.880769339e-07
3.4663878e-09
2.503521248e-08
1.873272318e-07
9.071336671e-15
2.507886399e-08
1.869806302e-07
-3.466369884e-09
2.507886316e-08
1.86980629e-07
-6.955724735e-09
2.503521019e-08
1.873272278e-07
-1.048921055e-08
2.496346356e-08
1.880769266e-07
-1.408356645e-08
2.489601191e-08
1.893493556e-07
-1.774127206e-08
2.490786053e-08
1.913056533e-07
2.507957586e-08
1.940224924e-07
-2.138890166e-08
1.126872916e-08
2.740747918e-08
2.113063959e-07
7.453124351e-09
2.750146102e-08
2.101092463e-07
3.703545521e-09
2.760118956e-08
2.093742216e-07
4.519291787e-15
2.765587024e-08
2.090264888e-07
-3.703536397e-09
2.765587035e-08
2.090264874e-07
-7.45311634e-09
2.760119022e-08
2.093742162e-07
-1.126872639e-08
2.750146191e-08
2.101092375e-07
-1.514086515e-08
2.74074791e-08
2.113063847e-07
-1.907944971e-08
2.738188364e-08
2.131943649e-07
2.748842348e-08
2.159108849e-07
-2.299612158e-08
1.169386465e-08
2.652523527e-08
2.171286021e-07
7.784147317e-09
2.663990818e-08
2.160538288e-07
3.887728333e-09
2.674537641e-08
2.154478932e-07
-1.667823051e-16
2.680422367e-08
2.151717505e-07
-3.887728363e-09
2.680422507e-08
2.151717494e-07
-7.784147917e-09
2.674538078e-08
2.15447889e-07
-1.169386979e-08
2.663991484e-08
2.160538205e-07
-1.561948309e-08
2.65252442e-08
2.171285912e-07
-1.955732851e-08
2.644657e-08
2.188929475e-07
2.645029145e-08
2.215184962e-07
-2.341382624e-08
1.194404468e-08
2.163967838e-07
2.38100044e-08
7.982115375e-09
2.154312924e-07
2.394341483e-08
3.997901533e-09
2.149142168e-07
2.40529464e-08
-2.460662767e-15
2.146907703e-07
2.411343721e-08
-3.997906157e-09
2.146907692e-07
2.411343998e-08
-7.982120033e-09
2.149142124e-07
2.405295476e-08
-1.194405237e-08
2.154312835e-07
2.394342763e-08
-1.588026867e-08
2.163967699e-07
2.381002164e-08
-1.977103261e-08
2.180320904e-07
2.368247003e-08
2.20540851e-07
2.359167199e-08
-2.352694435e-08
6.296761935e-09
5.259404619e-09
5.108328289e-08
5.315270615e-09
5.181972494e-09
5.055706901e-08
4.153884321e-09
5.168560271e-09
5.009404283e-08
2.851016768e-09
5.184718697e-09
4.976630481e-08
1.450290224e-09
5.203760228e-09
4.956939313e-08
-1.269788075e-15
5.214154132e-09
4.947943367e-08
-1.450292933e-09
5.214153911e-09
4.947943375e-08
-2.851020369e-09
5.203760337e-09
4.956939305e-08
-4.153889003e-09
5.184717553e-09
4.976630389e-08
-5.315276161e-09
5.168557494e-09
5.009404007e-08
-6.296767727e-09
5.181967822e-09
5.055706331e-08
5.259399537e-09
5.108327467e-08
-7.041764048e-09
1.43229548e-08
1.511592644e-08
1.344288112e-07
1.17354909e-08
1.495833723e-08
1.32664164e-07
8.957488915e-09
1.494461306e-08
1.312022591e-07
6.046243529e-09
1.49999134e-08
1.301772981e-07
3.04563951e-09
1.505497622e-08
1.295554034e-07
8.639256099e-15
1.50836216e-08
1.292666596e-07
-3.045622927e-09
1.508362063e-08
1.292666599e-07
-6.046228867e-09
1.505497364e-08
1.29555404e-07
-8.957479285e-09
1.499990851e-08
1.301772977e-07
-1.173548725e-08
1.494460601e-08
1.312022567e-07
-1.432295363e-08
1.495832855e-08
1.326641578e-07
1.511591719e-08
1.344287991e-07
-1.656333183e-08
1.843748578e-08
2.32567513e-08
1.891392679e-07
1.488315691e-08
2.314173875e-08
1.866765889e-07
1.121978708e-08
2.319308022e-08
1.847642692e-07
7.507453095e-09
2.33126547e-08
1.834765276e-07
3.763616977e-09
2.340794785e-08
1.827180962e-07
1.43762261e-14
2.34548031e-08
1.823730515e-07
-3.76358915e-09
2.345480177e-08
1.823730512e-07
-7.507428274e-09
2.340794438e-08
1.827180943e-07
-1.121976955e-08
2.331264918e-08
1.834765229e-07
-1.488314841e-08
2.319307325e-08
1.847642613e-07
-1.84374809e-08
2.314173017e-08
1.866765777e-07
2.32567435e-08
1.891392511e-07
-2.169507117e-08
2.020552543e-08
2.699550878e-08
2.157906834e-07
1.627786856e-08
2.700210866e-08
2.132616554e-07
1.227136828e-08
2.713922706e-08
2.113667472e-07
8.261658239e-09
2.731460915e-08
2.10117001e-07
4.179127898e-09
2.748638088e-08
2.093783184e-07
1.164412082e-14
2.760828385e-08
2.090521252e-07
-4.179107037e-09
2.760828364e-08
2.090521246e-07
-8.261641584e-09
2.748637951e-08
2.09378314e-07
-1.227135797e-08
2.731460666e-08
2.101169918e-07
-1.627786608e-08
2.713922453e-08
2.113667346e-07
-2.020552263e-08
2.700210308e-08
2.13261641e-07
2.699550577e-08
2.157906658e-07
-2.382407168e-08
2.093172412e-08
2.250147773e-07
1.69639906e-08
2.226195254e-07
1.283669611e-08
2.746972598e-08
2.209253987e-07
8.616505904e-09
2.771338275e-08
2.198752426e-07
4.326853091e-09
2.79242639e-08
2.192996611e-07
2.824973881e-15
2.805318119e-08
2.19053704e-07
-4.326847903e-09
2.805318201e-08
2.190537025e-07
-8.61650257e-09
2.792426591e-08
2.192996557e-07
-1.283669773e-08
2.77133859e-08
2.198752313e-07
-1.696400118e-08
2.746972847e-08
2.209253831e-07
-2.093172519e-08
2.724325924e-08
2.226195072e-07
2.709700022e-08
2.250147568e-07
-2.452948662e-08
1.325055176e-08
2.22417505e-07
2.559426903e-08
8.933902633e-09
2.215718957e-07
2.588942633e-08
4.497486307e-09
2.211483499e-07
2.612654599e-08
-2.514472132e-15
2.209801952e-07
2.626124625e-08
-4.497491227e-09
2.209801932e-07
2.62612481e-08
-8.933908654e-09
2.211483429e-07
2.612655161e-08
-1.325056345e-08
2.215718826e-07
2.588943659e-08
-1.739584515e-08
2.22417486e-07
2.559428653e-08
-2.130882772e-08
2.238871719e-07
2.530115213e-08
2.260830129e-07
2.502996866e-08
-2.478396446e-08
6.323445488e-09
4.476007669e-09
4.716243125e-08
5.454074594e-09
4.44261496e-09
4.698381457e-08
4.33070823e-09
4.469899472e-09
4.674750051e-08
3.006093634e-09
4.519726197e-09
4.657118575e-08
1.539479594e-09
4.568388688e-09
4.646761307e-08
-9.168619198e-15
4.595931725e-09
4.64229867e-08
-1.53949879e-09
4.59593243e-09
4.642298703e-08
-3.006113787e-09
4.568390659e-09
4.646761346e-08
-4.330728088e-09
4.519728364e-09
4.657118534e-08
-5.454092202e-09
4.469900629e-09
4.674749801e-08
-6.323458311e-09
4.442614216e-09
4.69838082e-08
4.476005311e-09
4.716242084e-08
-6.878617364e-09
1.450565469e-08
1.366545377e-08
1.270141762e-07
1.213839904e-08
1.358907295e-08
1.25884946e-07
9.413262254e-09
1.365601145e-08
1.247412715e-07
6.425718622e-09
1.378587105e-08
1.238986867e-07
3.258193016e-09
1.391442804e-08
1.233768815e-07
-3.109300228e-15
1.398619138e-08
1.231345889e-07
-3.258200387e-09
1.398619154e-08
1.231345908e-07
-6.425728419e-09
1.391442753e-08
1.233768869e-07
-9.413274577e-09
1.378586814e-08
1.238986943e-07
-1.213841228e-08
1.365600558e-08
1.247412784e-07
-1.450566443e-08
1.358906468e-08
1.258849478e-07
1.366544349e-08
1.270141684e-07
-1.628048312e-08
1.911163983e-08
2.222484554e-08
1.833313954e-07
1.572236234e-08
2.221116848e-08
1.814437577e-07
1.202951763e-08
2.237832118e-08
1.797347952e-07
8.138550408e-09
2.262830137e-08
1.785250572e-07
4.105298447e-09
2.28769951e-08
1.777887765e-07
1.516539205e-14
2.301502916e-08
1.77449494e-07
-4.105270119e-09
2.301502877e-08
1.774494958e-07
-8.138527594e-09
2.287699323e-08
1.777887807e-07
-1.202950265e-08
2.262829532e-08
1.785250627e-07
-1.572235586e-08
2.237831025e-08
1.797347996e-07
-1.911163719e-08
2.221115421e-08
1.814437584e-07
2.222483173e-08
1.833313871e-07
-2.186317149e-08
2.136082337e-08
2.70036732e-08
2.141830603e-07
1.75236853e-08
2.718994713e-08
2.121200022e-07
1.337737568e-08
2.750556939e-08
2.103858015e-07
9.034105497e-09
2.78628552e-08
2.09225714e-07
4.546803354e-09
2.816885107e-08
2.08573765e-07
1.726985101e-14
2.834199766e-08
2.082719455e-07
-4.546769297e-09
2.834199583e-08
2.082719458e-07
-9.034075182e-09
2.816884544e-08
2.085737657e-07
-1.337735373e-08
2.786284565e-08
2.092257132e-07
-1.752367415e-08
2.750555588e-08
2.10385799e-07
-2.136081692e-08
2.718992803e-08
2.121199982e-07
2.700365892e-08
2.141830506e-07
-2.453203946e-08
2.246055713e-08
2.271091131e-07
1.8471554e-08
2.252664161e-07
1.412560723e-08
2.897705899e-08
2.237998528e-07
9.553127932e-09
2.941112778e-08
2.228994457e-07
4.819441407e-09
2.976490617e-08
2.224372937e-07
2.01255807e-14
2.996637723e-08
2.222487501e-07
-4.819403045e-09
2.996637553e-08
2.222487497e-07
-9.553096007e-09
2.976490108e-08
2.22437292e-07
-1.412558635e-08
2.941111913e-08
2.228994419e-07
-1.847154951e-08
2.8977043e-08
2.237998479e-07
-2.246055107e-08
2.853201378e-08
2.2526641e-07
2.814512102e-08
2.271091028e-07
-2.569637042e-08
1.47979857e-08
2.279510054e-07
2.78741409e-08
1.004686726e-08
2.273678743e-07
2.836626329e-08
5.078444111e-09
2.271383858e-07
2.874329398e-08
1.896462067e-14
2.270746789e-07
2.895032281e-08
-5.078408503e-09
2.270746785e-07
2.895032156e-08
-1.004683948e-08
2.271383843e-07
2.874329064e-08
-1.479797337e-08
2.273678708e-07
2.83662586e-08
-1.92285929e-08
2.27950999e-07
2.787413791e-08
-2.320065203e-08
2.290649868e-07
2.732624471e-08
2.305610788e-07
2.676738168e-08
-2.630098972e-08
6.573665787e-09
4.111006375e-09
4.344238659e-08
5.790131719e-09
4.164237011e-09
4.360308975e-08
4.667369824e-09
4.257165791e-09
4.361308099e-08
3.27363442e-09
4.358688778e-09
4.360622191e-08
1.687322978e-09
4.443851259e-09
4.361006668e-08
-1.958635632e-14
4.493357458e-09
4.361696715e-08
-1.687362506e-09
4.4933587e-09
4.361696645e-08
-3.273674181e-09
4.443855213e-09
4.361006455e-08
-4.667407821e-09
4.358694645e-09
4.360621778e-08
-5.790164608e-09
4.257172212e-09
4.361307383e-08
-6.573689062e-09
4.164243014e-09
4.360307855e-08
4.111011174e-09
4.344237125e-08
-6.964662764e-09
1.486392385e-08
1.29288218e-08
1.195361679e-07
1.273917377e-08
1.305204151e-08
1.191218531e-07
1.004521591e-08
1.32822104e-08
1.184101538e-07
6.937403532e-09
1.35390667e-08
1.178260976e-07
3.543364738e-09
1.37609747e-08
1.174537782e-07
-3.051969735e-14
1.389203654e-08
1.172792877e-07
-3.543426056e-09
1.389203786e-08
1.172792903e-07
-6.93746475e-09
1.376097761e-08
1.174537862e-07
-1.004527374e-08
1.35390697e-08
1.178261106e-07
-1.273922269e-08
1.328221341e-08
1.184101683e-07
-1.486395719e-08
1.305204446e-08
1.191218628e-07
1.292882395e-08
1.195361646e-07
-1.620378352e-08
1.992055567e-08
2.187784153e-08
1.766037321e-07
1.673693158e-08
2.216645976e-08
1.7551293e-07
1.299970853e-08
2.258639373e-08
1.741678058e-07
8.882199026e-09
2.302890437e-08
1.731527064e-07
4.509897348e-09
2.339657166e-08
1.725254654e-07
-4.077718447e-15
2.362087994e-08
1.722305393e-07
-4.509907566e-09
2.362088019e-08
1.722305445e-07
-8.88221338e-09
2.339657016e-08
1.725254811e-07
-1.299972596e-08
2.302889997e-08
1.731527311e-07
-1.673694902e-08
2.258638687e-08
1.741678345e-07
-1.992056695e-08
2.216645106e-08
1.755129543e-07
2.187783349e-08
1.766037395e-07
-2.214194377e-08
2.272225154e-08
2.773577224e-08
2.110494486e-07
1.896625309e-08
2.829901145e-08
2.097434253e-07
1.465244291e-08
2.896744584e-08
2.083185414e-07
9.95868492e-09
2.961374161e-08
2.073346244e-07
5.032624654e-09
3.010288633e-08
2.06793508e-07
2.04232218e-14
3.037370583e-08
2.06551725e-07
-5.032585298e-09
3.037370228e-08
2.065517297e-07
-9.958651363e-09
3.010287592e-08
2.067935231e-07
-1.46524194e-08
2.961372561e-08
2.073346478e-07
-1.896624018e-08
2.896742558e-08
2.083185689e-07
-2.272224206e-08
2.829898711e-08
2.097434506e-07
2.773575106e-08
2.110494593e-07
-2.544658085e-08
2.442672515e-08
2.276723761e-07
2.045705462e-08
2.266665637e-07
1.586134473e-08
3.177837474e-08
2.255846282e-07
1.083272665e-08
3.261994973e-08
2.249218536e-07
5.497164827e-09
3.326055452e-08
2.246151937e-07
3.802070896e-14
3.36075745e-08
2.245120189e-07
-5.497092532e-09
3.360756807e-08
2.245120238e-07
-1.083266516e-08
3.32605365e-08
2.246152078e-07
-1.586129943e-08
3.261992197e-08
2.249218751e-07
-2.045702886e-08
3.177833689e-08
2.255846571e-07
-2.442670474e-08
3.086846802e-08
2.266665934e-07
3.000272818e-08
2.276723949e-07
-2.725698452e-08
1.691448696e-08
2.328916093e-07
3.159003233e-08
1.16070529e-08
2.327099563e-07
3.258530289e-08
5.907431293e-09
2.327643738e-07
3.333419783e-08
4.399124452e-14
2.328541591e-07
3.373549468e-08
-5.907348024e-09
2.328541633e-07
3.373548662e-08
-1.160698359e-08
2.327643864e-07
3.333417505e-08
-1.691443878e-08
2.327099774e-07
3.2585269e-08
-2.166674253e-08
2.3289164e-07
3.158999221e-08
-2.564710334e-08
2.334305835e-07
3.048322162e-08
2.339286468e-07
2.939137787e-08
-2.840333045e-08
7.072051346e-09
4.010295442e-09
3.967346871e-08
6.346190138e-09
4.178807248e-09
4.015011442e-08
5.1862269e-09
4.362887369e-09
4.04101392e-08
3.670347594e-09
4.5370995e-09
4.058499408e-08
1.90146086e-09
4.669907257e-09
4.070904313e-08
-2.621311058e-14
4.742586659e-09
4.07758661e-08
-1.901513529e-09
4.742588105e-09
4.077586305e-08
-3.670399944e-09
4.669913033e-09
4.070903397e-08
-5.186276916e-09
4.537108141e-09
4.058497994e-08
-6.346233141e-09
4.362898667e-09
4.041012076e-08
-7.07208166e-09
4.178820292e-09
4.015009257e-08
4.010307192e-09
3.96734422e-08
-7.31347549e-09
1.549823695e-08
1.276121672e-08
1.117142392e-07
1.359776861e-08
1.31734293e-08
1.120276473e-07
1.090453861e-08
1.36429973e-08
1.118232336e-07
7.616512588e-09
1.408941458e-08
1.115617808e-07
3.915838241e-09
1.443703967e-08
1.113872978e-07
-6.268541624e-14
1.463038521e-08
1.113073682e-07
-3.915962115e-09
1.463038786e-08
1.113073678e-07
-7.616630808e-09
1.443704774e-08
1.113872977e-07
-1.090464584e-08
1.408942785e-08
1.115617824e-07
-1.35978563e-08
1.364301645e-08
1.118232364e-07
-1.549829904e-08
1.31734546e-08
1.120276471e-07
1.276124523e-08
1.117142264e-07
-1.642732167e-08
2.089610229e-08
2.223654609e-08
1.688272567e-07
1.798561203e-08
2.295521787e-08
1.686415731e-07
1.419271179e-08
2.376145349e-08
1.67842195e-07
9.798903043e-09
2.451128241e-08
1.671246049e-07
5.002562445e-09
2.5091993e-08