/*--------------------------------*- C++ -*----------------------------------*\
| =========                 |                                                 |
| \\      /  F ield         | OpenFOAM: The Open Source CFD Toolbox           |
|  \\    /   O peration     | Version:  4.x                                   |
|   \\  /    A nd           | Web:      www.OpenFOAM.org                      |
|    \\/     M anipulation  |                                                 |
\*---------------------------------------------------------------------------*/
FoamFile
{
    version     2.0;
    format      ascii;
    class       volScalarField;
    location    "0.2";
    object      rho;
}
// * * * * * * * * * * * * * * * * * * * * * * * * * * * * * * * * * * * * * //

dimensions      [1 -3 0 0 0 0 0];

internalField   nonuniform List<scalar> 
25344
(
1.158634339
1.158634349
1.158634335
1.158634322
1.158634309
1.158634298
1.158634348
1.158634345
1.158634328
1.158634308
1.158634292
1.158634279
1.158634339
1.158634338
1.158634325
1.158634308
1.158634292
1.15863428
1.158634332
1.158634332
1.158634322
1.158634307
1.158634289
1.158634278
1.158634329
1.158634327
1.158634322
1.158634309
1.158634289
1.158634279
1.158634322
1.15863432
1.158634325
1.15863431
1.158634288
1.15863428
1.158634326
1.158634311
1.158634255
1.158634184
1.158634096
1.158634019
1.158634317
1.158634284
1.158634207
1.158634106
1.158633966
1.158633852
1.158634301
1.158634267
1.158634192
1.158634082
1.158633909
1.158633801
1.158634292
1.158634264
1.158634197
1.158634071
1.158633891
1.158633799
1.15863427
1.15863423
1.15863415
1.158634027
1.158633876
1.158633828
1.158634223
1.158634161
1.158634087
1.158633981
1.158633856
1.158633843
1.158634202
1.158634083
1.158633901
1.15863365
1.1586334
1.158633228
1.158634132
1.158633968
1.158633672
1.158633246
1.158632725
1.15863239
1.158634091
1.15863393
1.158633571
1.158633097
1.158632501
1.158632177
1.158634056
1.158633902
1.158633553
1.158633028
1.158632478
1.158632249
1.158633958
1.158633707
1.158633329
1.158632851
1.158632453
1.158632376
1.158633795
1.158633383
1.158633016
1.158632642
1.158632376
1.158632427
1.158634035
1.158633758
1.158633463
1.158633137
1.158632886
1.158632762
1.158633832
1.158633326
1.158632801
1.158632131
1.158631524
1.158631215
1.15863374
1.158633202
1.158632568
1.158631875
1.158631256
1.158630938
1.158633648
1.158633042
1.158632439
1.158631759
1.15863129
1.15863108
1.158633522
1.158632712
1.158632124
1.158631554
1.158631272
1.158631183
1.158633353
1.158632309
1.158631704
1.15863127
1.15863118
1.1586313
1.158633903
1.158633458
1.15863312
1.158632853
1.158632751
1.158632742
1.158633524
1.158632671
1.158632041
1.158631431
1.158631083
1.158630969
1.158633386
1.158632437
1.158631746
1.158631158
1.158630795
1.158630618
1.158633306
1.158632268
1.158631644
1.15863107
1.158630811
1.158630655
1.158633253
1.158632042
1.158631392
1.158630879
1.158630746
1.158630652
1.15863316
1.158631764
1.158631051
1.158630648
1.158630701
1.158630849
1.158633771
1.158633136
1.158632834
1.158632714
1.158632781
1.158632919
1.158633205
1.158631991
1.158631378
1.158631029
1.158631035
1.158631157
1.15863305
1.158631731
1.15863106
1.1586307
1.15863066
1.158630688
1.158633048
1.158631687
1.158631018
1.158630564
1.158630529
1.158630547
1.158633074
1.158631624
1.158630882
1.158630397
1.1586304
1.158630473
1.158633083
1.158631564
1.158630795
1.15863039
1.158630506
1.158630743
1.158633658
1.158632922
1.158632669
1.158632665
1.158632854
1.158633075
1.15863296
1.158631454
1.158630903
1.158630808
1.158631104
1.158631519
1.158632796
1.158631159
1.158630486
1.158630302
1.15863054
1.15863088
1.158632804
1.158631135
1.158630415
1.158630061
1.158630219
1.158630483
1.158632862
1.15863121
1.158630438
1.158630007
1.158630139
1.158630373
1.158633031
1.158631502
1.158630744
1.15863032
1.158630438
1.158630715
1.158633632
1.158632866
1.158632627
1.15863268
1.158632901
1.158633135
1.158632872
1.158631191
1.158630706
1.158630779
1.158631209
1.158631655
1.158632623
1.158630717
1.158630083
1.158630074
1.158630463
1.158630916
1.15863257
1.158630639
1.158629963
1.158629743
1.158629965
1.158630322
1.158632689
1.158630887
1.158630172
1.158629814
1.158629921
1.158630107
1.158633028
1.158631535
1.158630815
1.158630374
1.158630396
1.158630578
1.158633668
1.158632866
1.158632654
1.158632748
1.158632936
1.15863306
1.15863284
1.158631105
1.158630665
1.158630831
1.158631305
1.158631699
1.158632531
1.158630475
1.158629907
1.15863003
1.158630474
1.158630942
1.158632471
1.158630387
1.15862977
1.158629665
1.158629853
1.158630077
1.15863265
1.158630771
1.15863012
1.158629808
1.158629741
1.158629614
1.158633075
1.158631658
1.158631042
1.158630581
1.158630315
1.158630073
1.158633666
1.158632882
1.158632679
1.158632746
1.158632921
1.158633102
1.158632849
1.158631118
1.158630664
1.158630847
1.15863135
1.158631823
1.158632548
1.158630451
1.158629883
1.158630044
1.158630549
1.158631051
1.158632507
1.158630377
1.158629764
1.158629694
1.158629862
1.158629972
1.15863271
1.158630811
1.158630171
1.158629885
1.158629693
1.158629239
1.158633189
1.158631838
1.15863124
1.158630751
1.158630254
1.158629528
1.158633688
1.158632992
1.158632718
1.158632704
1.158632911
1.158633194
1.158632987
1.15863128
1.158630714
1.158630805
1.158631327
1.158631907
1.158632716
1.158630617
1.158629958
1.158630076
1.158630594
1.158631148
1.158632698
1.158630573
1.158629891
1.158629827
1.158629975
1.158630056
1.15863291
1.15863105
1.158630368
1.158630084
1.158629796
1.158629264
1.158633367
1.15863211
1.158631479
1.15863094
1.158630318
1.158629459
1.158633814
1.158633162
1.158632759
1.158632659
1.158632874
1.158633232
1.158633225
1.158631617
1.158630848
1.15863077
1.158631273
1.158631986
1.158632999
1.158631085
1.158630238
1.158630204
1.158630687
1.158631348
1.158633049
1.158631168
1.158630349
1.158630216
1.158630381
1.158630546
1.158633257
1.158631667
1.158630901
1.158630575
1.158630327
1.158629928
1.158633564
1.158632473
1.158631816
1.158631304
1.158630737
1.158629922
1.158633853
1.158633147
1.158632734
1.158632596
1.158632757
1.15863316
1.158633267
1.158631787
1.158630986
1.158630747
1.158631141
1.158631931
1.158633186
1.158631566
1.158630628
1.158630337
1.158630688
1.158631439
1.158633318
1.158631785
1.158630852
1.158630491
1.158630643
1.158631077
1.158633441
1.158632112
1.158631278
1.158630881
1.158630831
1.158630913
1.158633561
1.158632536
1.158631885
1.158631487
1.158631273
1.158630925
1.15863378
1.158633068
1.158632707
1.158632542
1.158632621
1.158632985
1.158633228
1.158631863
1.158631037
1.158630642
1.158630852
1.15863165
1.158633251
1.158631773
1.158630738
1.158630265
1.158630467
1.158631222
1.158633363
1.158631947
1.158630927
1.15863044
1.158630529
1.158631016
1.158633391
1.158632101
1.15863124
1.158630828
1.158630824
1.158631035
1.158633367
1.158632268
1.15863166
1.158631404
1.158631353
1.15863121
1.15863432
1.158634316
1.158634321
1.158634302
1.158634282
1.158634277
1.158634308
1.158634311
1.158634309
1.158634294
1.158634278
1.15863428
1.158634309
1.158634309
1.158634306
1.158634297
1.158634285
1.158634291
1.158634315
1.158634307
1.158634315
1.158634311
1.1586343
1.158634304
1.158634313
1.158634306
1.158634325
1.158634317
1.158634304
1.158634314
1.158634309
1.158634313
1.158634333
1.158634316
1.158634316
1.158634325
1.15863431
1.158634317
1.158634331
1.158634339
1.158634338
1.158634339
1.15863431
1.15863431
1.158634317
1.158634322
1.158634325
1.158634338
1.158634308
1.158634303
1.158634309
1.15863431
1.158634313
1.158634332
1.158634305
1.158634301
1.158634304
1.158634303
1.158634306
1.158634324
1.158634306
1.158634299
1.1586343
1.158634297
1.158634297
1.15863431
1.158634308
1.158634297
1.158634297
1.158634292
1.158634289
1.158634297
1.158634169
1.158634071
1.158634014
1.158633936
1.15863385
1.158633878
1.15863412
1.158634019
1.158633987
1.15863396
1.158633925
1.158633999
1.158634105
1.158634028
1.158634043
1.158634076
1.158634097
1.158634223
1.158634128
1.158634081
1.158634138
1.158634212
1.158634289
1.158634464
1.15863416
1.158634154
1.158634234
1.158634348
1.158634476
1.15863461
1.158634201
1.158634216
1.158634301
1.158634457
1.158634558
1.158634625
1.158634212
1.158634209
1.158634266
1.158634359
1.158634427
1.158634489
1.158634169
1.158634118
1.158634141
1.158634207
1.158634255
1.158634334
1.158634103
1.158633994
1.158634
1.158634069
1.158634147
1.158634274
1.15863404
1.158633898
1.158633906
1.158633984
1.158634073
1.15863422
1.158634016
1.158633875
1.158633882
1.15863394
1.158634012
1.158634155
1.158634039
1.158633905
1.158633897
1.158633926
1.158633982
1.158634108
1.158633615
1.158633044
1.158632758
1.158632525
1.158632439
1.158632659
1.158633509
1.158632919
1.158632746
1.158632719
1.158632845
1.158633245
1.15863351
1.158633005
1.158633001
1.158633208
1.158633532
1.158633998
1.158633622
1.158633256
1.158633402
1.158633779
1.158634196
1.158634592
1.158633788
1.158633598
1.158633829
1.158634272
1.158634652
1.158634913
1.158633937
1.15863385
1.158634083
1.158634448
1.158634702
1.158634817
1.15863393
1.158633757
1.158633896
1.15863418
1.158634342
1.158634465
1.158633744
1.158633338
1.158633349
1.158633571
1.158633836
1.158634161
1.158633504
1.158632845
1.158632783
1.15863304
1.158633454
1.158633983
1.158633332
1.158632534
1.158632467
1.158632744
1.158633191
1.158633792
1.158633296
1.158632498
1.158632416
1.158632626
1.158632996
1.158633577
1.15863334
1.158632581
1.158632472
1.158632617
1.158632917
1.158633395
1.158633189
1.158631997
1.158631491
1.158631248
1.158631406
1.158631808
1.15863314
1.158631976
1.158631629
1.158631677
1.15863214
1.158632733
1.158633221
1.158632208
1.158632103
1.158632471
1.158633159
1.158633754
1.158633421
1.158632667
1.158632794
1.158633376
1.158634063
1.158634523
1.158633675
1.158633241
1.1586335
1.158634118
1.158634623
1.158634875
1.158633876
1.158633605
1.158633828
1.158634304
1.158634626
1.158634719
1.158633841
1.158633394
1.158633433
1.158633706
1.158634037
1.158634208
1.158633575
1.158632743
1.158632581
1.158632786
1.158633252
1.15863367
1.158633284
1.158632089
1.158631822
1.158632078
1.158632694
1.158633332
1.158633099
1.158631718
1.158631434
1.158631696
1.158632308
1.15863307
1.158633052
1.158631656
1.158631368
1.158631558
1.158632051
1.158632813
1.158633053
1.158631705
1.15863144
1.158631582
1.158631947
1.158632554
1.158633096
1.158631645
1.158631022
1.158630786
1.158631077
1.158631503
1.15863314
1.158631777
1.158631334
1.158631378
1.158631922
1.15863245
1.158633283
1.15863212
1.158631933
1.158632257
1.15863294
1.158633387
1.158633504
1.158632644
1.158632703
1.15863317
1.1586338
1.15863415
1.158633756
1.15863325
1.158633426
1.15863384
1.158634321
1.158634472
1.158633945
1.158633613
1.158633721
1.158633951
1.158634244
1.158634226
1.158633903
1.158633387
1.158633283
1.158633342
1.158633584
1.158633569
1.158633657
1.158632739
1.158632436
1.158632467
1.158632799
1.15863294
1.158633412
1.158632113
1.158631708
1.158631812
1.158632228
1.1586326
1.158633254
1.158631743
1.158631331
1.158631461
1.158631873
1.158632438
1.15863317
1.158631639
1.158631253
1.158631334
1.158631656
1.158632289
1.158633122
1.15863165
1.158631322
1.158631348
1.158631512
1.15863201
1.158633172
1.158631685
1.15863102
1.158630748
1.158631035
1.158631433
1.158633369
1.15863199
1.15863147
1.158631425
1.158631892
1.158632293
1.158633593
1.158632441
1.158632124
1.158632284
1.158632747
1.158633059
1.158633767
1.158632949
1.158632845
1.158633048
1.158633416
1.158633686
1.158633902
1.158633438
1.158633443
1.158633552
1.158633842
1.158634001
1.158634
1.1586337
1.158633675
1.158633659
1.158633831
1.15863377
1.158633949
1.158633487
1.15863328
1.158633164
1.15863327
1.158633102
1.158633774
1.158632989
1.158632575
1.158632419
1.158632536
1.158632455
1.158633625
1.158632548
1.158632016
1.158631881
1.158632036
1.158632171
1.158633517
1.158632258
1.158631737
1.158631613
1.158631774
1.158632108
1.158633427
1.158632108
1.158631665
1.158631507
1.158631591
1.158632001
1.158633381
1.15863209
1.158631713
1.15863148
1.15863137
1.158631665
1.15863335
1.158632018
1.158631304
1.158630912
1.158631101
1.158631419
1.158633709
1.158632662
1.15863204
1.15863174
1.15863196
1.158632214
1.158633931
1.15863316
1.158632708
1.158632512
1.158632694
1.15863289
1.158633969
1.158633404
1.158633171
1.158633074
1.158633218
1.158633477
1.158633942
1.158633574
1.158633496
1.158633448
1.158633641
1.158633846
1.15863395
1.158633678
1.15863362
1.158633533
1.158633678
1.158633622
1.158633879
1.158633463
1.158633257
1.158633073
1.158633118
1.158632894
1.158633727
1.158633055
1.158632656
1.158632377
1.158632384
1.158632228
1.15863362
1.158632773
1.158632279
1.158631945
1.158631943
1.158631996
1.158633567
1.158632638
1.158632172
1.158631807
1.158631752
1.158631975
1.158633536
1.158632585
1.158632165
1.158631732
1.158631573
1.158631843
1.158633534
1.158632607
1.158632174
1.158631621
1.15863127
1.158631405
1.158633524
1.158632494
1.158631857
1.158631324
1.1586312
1.158631337
1.158633982
1.158633374
1.158632817
1.158632266
1.158632024
1.158632081
1.158634174
1.158633781
1.158633365
1.158632898
1.158632673
1.158632762
1.158634093
1.158633742
1.158633509
1.158633206
1.158633158
1.158633394
1.158633949
1.158633638
1.158633553
1.158633454
1.158633601
1.158633814
1.158633847
1.158633539
1.158633494
1.15863345
1.158633609
1.158633552
1.158633692
1.158633247
1.158633076
1.1586329
1.158632941
1.158632692
1.158633515
1.158632873
1.158632498
1.158632187
1.158632138
1.158631959
1.158633455
1.158632681
1.1586322
1.15863182
1.158631758
1.15863178
1.1586335
1.158632666
1.158632188
1.158631752
1.158631654
1.158631804
1.158633546
1.158632708
1.158632229
1.158631694
1.158631466
1.158631645
1.158633562
1.158632722
1.158632192
1.158631522
1.158631051
1.158631151
1.158633688
1.158632911
1.158632365
1.158631701
1.158631188
1.158630991
1.158634186
1.158633914
1.158633411
1.158632609
1.158631974
1.158631766
1.158634356
1.15863426
1.158633852
1.15863312
1.158632568
1.158632483
1.15863423
1.158634063
1.158633805
1.158633352
1.158633079
1.158633237
1.158634019
1.158633734
1.158633611
1.158633507
1.158633566
1.15863374
1.158633843
1.158633379
1.15863325
1.158633286
1.158633466
1.158633399
1.158633543
1.158632736
1.158632478
1.158632404
1.158632479
1.15863221
1.158633244
1.158632194
1.158631741
1.158631473
1.158631462
1.15863128
1.158633185
1.158632119
1.158631553
1.15863116
1.158631141
1.158631152
1.15863334
1.158632388
1.158631787
1.158631273
1.158631176
1.158631277
1.158633479
1.158632568
1.158631939
1.158631285
1.158631007
1.158631145
1.158633472
1.158632533
1.158631819
1.15863101
1.158630524
1.158630699
1.158633811
1.158633182
1.15863264
1.158631849
1.158631044
1.158630407
1.158634285
1.158634181
1.158633654
1.158632657
1.158631684
1.158631116
1.158634462
1.158634529
1.158634053
1.158633122
1.158632218
1.158631816
1.15863439
1.158634364
1.15863401
1.158633381
1.158632848
1.158632769
1.158634204
1.158633967
1.158633744
1.158633539
1.158633413
1.15863343
1.158633933
1.158633367
1.158633139
1.158633112
1.158633143
1.158633023
1.158633488
1.158632369
1.158631942
1.158631895
1.158631954
1.158631753
1.158633045
1.158631516
1.1586309
1.158630757
1.158630855
1.158630756
1.158632939
1.158631394
1.158630688
1.158630456
1.158630555
1.15863059
1.158633121
1.158631799
1.158631076
1.158630703
1.158630664
1.158630733
1.158633283
1.158632091
1.158631319
1.158630778
1.158630543
1.158630645
1.158633204
1.158631922
1.158631106
1.15863045
1.158630089
1.158630259
1.158633892
1.158633329
1.158632754
1.15863189
1.15863097
1.158630146
1.158634293
1.158634224
1.15863366
1.158632547
1.1586313
1.158630486
1.158634468
1.158634579
1.158634047
1.158632964
1.15863169
1.158630939
1.158634456
1.158634522
1.158634087
1.158633316
1.158632377
1.158631882
1.15863435
1.158634251
1.158633935
1.158633549
1.158633074
1.158632805
1.15863407
1.158633523
1.158633203
1.158633099
1.158632923
1.158632707
1.158633532
1.158632362
1.158631881
1.15863183
1.158631857
1.158631694
1.158633036
1.158631391
1.158630757
1.158630694
1.158630832
1.158630769
1.158632903
1.158631221
1.158630528
1.15863041
1.158630543
1.158630575
1.158633053
1.158631575
1.158630905
1.158630652
1.158630627
1.158630662
1.158633146
1.158631748
1.158631084
1.158630687
1.158630475
1.158630534
1.15863301
1.158631479
1.15863079
1.158630307
1.158630025
1.158630185
1.158633891
1.158633337
1.158632758
1.158631961
1.158631092
1.158630278
1.158634185
1.158634086
1.158633508
1.158632393
1.158631193
1.158630301
1.158634344
1.158634432
1.158633868
1.158632709
1.158631379
1.158630451
1.158634389
1.158634476
1.158634029
1.158633161
1.158632022
1.158631254
1.158634361
1.158634367
1.158634058
1.158633565
1.158632854
1.15863235
1.158634171
1.158633828
1.15863348
1.158633252
1.158632939
1.158632626
1.158633696
1.158632619
1.158632158
1.158632114
1.158632104
1.158631965
1.158633233
1.15863166
1.158631104
1.158631138
1.158631302
1.158631262
1.158633086
1.158631455
1.15863086
1.158630868
1.158630999
1.158630967
1.158633156
1.158631683
1.1586311
1.158630952
1.158630902
1.158630875
1.158633154
1.158631723
1.158631133
1.158630812
1.158630629
1.158630701
1.158633001
1.158631435
1.158630829
1.158630455
1.158630275
1.15863048
1.158633718
1.15863311
1.158632585
1.158631964
1.158631406
1.158630793
1.158633831
1.158633526
1.158633014
1.158632187
1.158631246
1.158630435
1.158633938
1.158633795
1.158633291
1.158632418
1.158631318
1.15863042
1.158634074
1.158634046
1.158633679
1.158632928
1.158631873
1.158631031
1.158634205
1.158634228
1.158634016
1.158633554
1.158632771
1.158632143
1.158634183
1.158634019
1.15863385
1.1586336
1.15863311
1.158632608
1.158633949
1.158633287
1.158633035
1.158632969
1.158632775
1.158632357
1.158633687
1.158632604
1.158632303
1.15863235
1.158632265
1.158631875
1.158633516
1.158632292
1.158631924
1.158631916
1.158631783
1.158631488
1.158633392
1.158632119
1.158631705
1.158631569
1.158631429
1.158631393
1.158633195
1.158631829
1.158631411
1.15863125
1.15863122
1.158631421
1.15863308
1.158631656
1.158631281
1.158631205
1.158631326
1.158631688
1.158633353
1.158632434
1.158632042
1.158631836
1.158631625
1.158631437
1.158633418
1.158632673
1.15863237
1.158632047
1.158631526
1.158631135
1.158633567
1.158633002
1.158632739
1.15863232
1.158631506
1.158630799
1.158633775
1.158633413
1.158633238
1.15863282
1.158631931
1.158631062
1.158633996
1.158633876
1.158633811
1.158633493
1.158632729
1.15863182
1.158634144
1.15863409
1.158634035
1.158633789
1.158633175
1.158632392
1.158634152
1.158633945
1.158633862
1.158633674
1.158633156
1.158632377
1.158634037
1.158633591
1.158633437
1.158633255
1.158632729
1.158632011
1.158633803
1.158633071
1.158632806
1.15863257
1.158632043
1.158631529
1.158633466
1.158632437
1.158632154
1.158631966
1.158631676
1.158631534
1.158633199
1.158632062
1.158631869
1.158631818
1.158631828
1.15863202
1.158633237
1.158632308
1.158632328
1.158632475
1.158632604
1.158632732
1.158634307
1.158634298
1.158634297
1.158634293
1.158634289
1.158634298
1.158634307
1.158634303
1.158634305
1.158634301
1.158634297
1.158634304
1.158634314
1.158634313
1.158634314
1.158634306
1.158634302
1.158634307
1.158634321
1.158634321
1.158634314
1.158634304
1.158634304
1.158634313
1.158634325
1.15863432
1.158634309
1.158634302
1.158634309
1.158634321
1.158634331
1.158634321
1.158634314
1.158634316
1.158634325
1.158634329
1.158634055
1.158633927
1.158633914
1.158633942
1.158633998
1.158634085
1.158634065
1.158633967
1.158633979
1.158634018
1.158634053
1.158634069
1.158634115
1.158634062
1.158634094
1.158634112
1.158634095
1.15863406
1.158634184
1.158634147
1.158634163
1.158634149
1.158634097
1.158634037
1.158634238
1.158634192
1.158634179
1.158634143
1.158634076
1.158634006
1.158634286
1.15863424
1.158634211
1.158634183
1.158634143
1.158634101
1.158633356
1.158632627
1.158632552
1.158632717
1.158632957
1.158633228
1.158633405
1.158632781
1.158632796
1.158632974
1.158633076
1.158633061
1.158633568
1.158633122
1.158633193
1.15863326
1.158633141
1.158632926
1.158633771
1.15863344
1.158633475
1.158633388
1.158633077
1.158632783
1.158633949
1.158633641
1.158633564
1.158633354
1.158632991
1.158632723
1.158634155
1.15863393
1.158633794
1.158633636
1.158633465
1.158633383
1.158633045
1.158631775
1.158631598
1.15863175
1.158631942
1.158632215
1.158633122
1.158632007
1.158631882
1.158631961
1.158631906
1.158631825
1.158633305
1.158632353
1.158632181
1.158632042
1.158631715
1.158631472
1.15863349
1.158632635
1.15863237
1.158632027
1.158631538
1.158631295
1.158633658
1.158632876
1.158632498
1.158632063
1.158631615
1.158631481
1.158634012
1.158633585
1.158633301
1.158633043
1.158632861
1.15863286
1.158633123
1.158631741
1.158631485
1.158631433
1.158631348
1.158631511
1.158633222
1.158631969
1.158631684
1.158631461
1.158631111
1.158630994
1.158633359
1.158632209
1.158631784
1.158631359
1.158630858
1.158630658
1.158633469
1.158632361
1.158631799
1.158631234
1.15863068
1.158630526
1.158633592
1.158632563
1.158631922
1.158631343
1.158630897
1.158630861
1.158633989
1.158633496
1.158633121
1.15863279
1.158632581
1.15863258
1.158633417
1.1586322
1.15863181
1.158631427
1.158631006
1.158630994
1.158633492
1.158632335
1.158631836
1.158631286
1.158630662
1.158630449
1.158633542
1.158632412
1.158631796
1.158631136
1.158630484
1.158630234
1.158633596
1.15863248
1.158631747
1.158631011
1.158630369
1.158630186
1.158633706
1.158632657
1.158631873
1.158631171
1.158630654
1.158630575
1.158634059
1.158633587
1.15863314
1.158632741
1.158632481
1.158632449
1.158633566
1.15863265
1.15863211
1.158631403
1.158630758
1.158630613
1.158633577
1.158632603
1.158631928
1.158631136
1.158630367
1.158630087
1.158633588
1.158632577
1.158631819
1.158631013
1.158630282
1.158629982
1.158633667
1.158632662
1.158631792
1.158630954
1.15863027
1.158630073
1.158633802
1.158632869
1.15863197
1.158631172
1.158630618
1.158630533
1.158634092
1.158633647
1.158633166
1.158632743
1.158632482
1.158632453
1.158633546
1.15863266
1.158632022
1.158631164
1.158630398
1.158630349
1.158633483
1.158632497
1.158631739
1.15863078
1.158629975
1.158629857
1.158633453
1.158632427
1.158631626
1.158630721
1.158629963
1.158629816
1.158633549
1.158632547
1.158631667
1.158630792
1.158630126
1.158630054
1.15863372
1.158632806
1.158631913
1.158631102
1.158630572
1.158630576
1.158634044
1.158633579
1.158633106
1.158632698
1.15863247
1.158632486
1.158633331
1.158632256
1.158631399
1.158630443
1.158629842
1.158630001
1.158633105
1.1586318
1.158630895
1.158629952
1.158629421
1.158629587
1.158633006
1.158631636
1.158630783
1.158629955
1.158629476
1.158629631
1.158633161
1.158631899
1.158631035
1.158630252
1.158629802
1.158629987
1.158633486
1.158632424
1.158631562
1.158630813
1.158630425
1.158630576
1.158633976
1.158633454
1.158632991
1.158632608
1.158632432
1.1586325
1.158632938
1.158631371
1.158630515
1.158629814
1.158629466
1.158629723
1.15863269
1.158630854
1.158629995
1.158629368
1.158629131
1.158629452
1.158632676
1.15863085
1.158630047
1.158629493
1.158629281
1.158629577
1.158632981
1.158631428
1.158630594
1.158629961
1.158629677
1.15862995
1.158633445
1.158632273
1.158631419
1.158630713
1.158630389
1.158630589
1.158633994
1.158633474
1.158633011
1.158632631
1.158632476
1.158632573
1.158632786
1.158630987
1.158630239
1.158629721
1.158629486
1.158629763
1.15863264
1.158630649
1.158629873
1.158629389
1.15862925
1.158629584
1.158632733
1.158630849
1.158630092
1.158629626
1.15862946
1.158629726
1.158633138
1.158631595
1.158630778
1.158630162
1.158629849
1.158630039
1.158633653
1.158632562
1.158631718
1.158630981
1.158630585
1.158630706
1.158634117
1.158633706
1.158633258
1.158632852
1.158632651
1.158632685
1.158632878
1.158631113
1.158630479
1.158630118
1.158630029
1.15863034
1.158632899
1.158631057
1.158630431
1.158630134
1.158630111
1.158630395
1.158633198
1.15863162
1.158631011
1.158630626
1.158630389
1.158630422
1.158633691
1.158632596
1.158631866
1.158631147
1.158630589
1.158630432
1.15863409
1.158633463
1.158632699
1.158631799
1.158631126
1.158630934
1.158634269
1.158634048
1.158633641
1.158633176
1.158632858
1.15863276
1.158633201
1.158631851
1.158631589
1.158631594
1.158631711
1.158631961
1.15863349
1.158632412
1.15863218
1.158632068
1.158631939
1.158631856
1.158633866
1.158633205
1.158632839
1.158632337
1.158631744
1.158631285
1.158634219
1.15863388
1.158633301
1.158632402
1.158631481
1.158630865
1.158634407
1.158634261
1.158633607
1.158632595
1.158631664
1.158631124
1.15863437
1.158634298
1.158633949
1.158633478
1.158633078
1.158632837
1.158633629
1.158633158
1.158633304
1.158633349
1.158633193
1.158632964
1.158634067
1.158633947
1.158633966
1.158633695
1.158633126
1.158632509
1.158634376
1.158634468
1.158634214
1.158633497
1.158632503
1.158631618
1.158634558
1.158634738
1.158634255
1.158633202
1.158632027
1.158631097
1.158634606
1.158634761
1.158634206
1.15863317
1.158632115
1.158631358
1.158634446
1.158634485
1.158634217
1.158633777
1.158633336
1.158632985
1.158634293
1.15863429
1.158634292
1.158634257
1.158634284
1.158634301
1.158634302
1.158634314
1.158634323
1.158634328
1.15863433
1.158634324
1.158634275
1.158634281
1.158634272
1.158634246
1.158634275
1.158634304
1.158634301
1.158634307
1.158634319
1.158634321
1.158634324
1.158634331
1.158634281
1.158634287
1.158634282
1.158634257
1.158634258
1.158634292
1.158634296
1.158634299
1.158634303
1.15863432
1.158634328
1.158634337
1.158634281
1.15863429
1.158634282
1.158634246
1.158634253
1.158634282
1.158634291
1.158634292
1.158634303
1.158634322
1.158634327
1.158634329
1.158634287
1.158634298
1.158634287
1.158634236
1.158634249
1.158634266
1.158634285
1.158634295
1.158634313
1.158634321
1.158634322
1.158634323
1.15863429
1.158634303
1.158634293
1.158634238
1.15863424
1.158634278
1.158634288
1.158634307
1.158634308
1.158634319
1.15863432
1.158634326
1.158633989
1.158633989
1.158633941
1.158633855
1.158634131
1.158634112
1.15863405
1.158634055
1.158634119
1.158634221
1.158634321
1.158634424
1.15863383
1.158633878
1.158633844
1.158633714
1.158634015
1.158634022
1.15863391
1.158633903
1.158634029
1.158634211
1.158634411
1.158634595
1.158633807
1.158633882
1.1586339
1.158633817
1.158633993
1.158633991
1.158633932
1.158633939
1.158634047
1.158634268
1.158634545
1.158634683
1.158633827
1.158633921
1.158633962
1.158633878
1.158634023
1.158634008
1.158633984
1.158634016
1.158634159
1.158634424
1.158634644
1.158634729
1.158633902
1.15863402
1.158634059
1.158633972
1.158634126
1.158634048
1.158634038
1.158634117
1.158634307
1.15863456
1.158634736
1.158634816
1.158633958
1.158634099
1.15863416
1.158634095
1.158634225
1.158634161
1.158634141
1.158634253
1.158634467
1.158634691
1.158634858
1.158634938
1.158633182
1.158633251
1.158633281
1.158633074
1.158633478
1.15863334
1.158633152
1.158633188
1.158633482
1.158633891
1.158634242
1.158634451
1.158632328
1.15863252
1.158632667
1.158632383
1.158632986
1.158632698
1.158632353
1.158632439
1.158633014
1.158633787
1.15863439
1.158634771
1.158632177
1.158632419
1.158632581
1.158632325
1.158632995
1.15863269
1.158632411
1.158632526
1.158633108
1.158633977
1.158634644
1.158634924
1.158632299
1.158632575
1.158632705
1.158632525
1.158633323
1.158632911
1.158632697
1.158632884
1.158633558
1.158634399
1.158634965
1.158635101
1.15863254
1.158632916
1.158633103
1.158633066
1.158633812
1.158633306
1.158633091
1.158633397
1.158634167
1.158634972
1.158635441
1.158635476
1.158632746
1.158633243
1.158633562
1.158633635
1.158634103
1.158633752
1.158633577
1.158633977
1.158634731
1.158635538
1.158635949
1.158635912
1.15863273
1.158632782
1.158632777
1.158632551
1.158632586
1.158632405
1.15863232
1.158632523
1.158633028
1.158633628
1.158634109
1.158634374
1.158631134
1.158631347
1.158631523
1.158631078
1.158631145
1.158630681
1.158630504
1.158630977
1.158632061
1.158633289
1.158634242
1.158634686
1.158630875
1.158631115
1.158631254
1.158630822
1.158631345
1.158630666
1.158630467
1.15863101
1.158632212
1.158633593
1.158634545
1.158634832
1.158631036
1.158631322
1.158631578
1.158631267
1.158632231
1.158631327
1.158631041
1.158631639
1.158632942
1.158634241
1.158634927
1.158635026
1.15863124
1.158631683
1.158632191
1.158632136
1.158633067
1.158632155
1.158631858
1.158632579
1.15863391
1.158635023
1.15863557
1.158635491
1.158631582
1.158632179
1.158632807
1.158633
1.158633558
1.158632841
1.158632681
1.158633505
1.158634729
1.158635827
1.158636274
1.158636055
1.158632715
1.158632655
1.158632441
1.158632277
1.158632154
1.158632003
1.158632037
1.158632292
1.158632826
1.158633431
1.158633884
1.158634098
1.158630892
1.158630905
1.158630728
1.158630328
1.158630004
1.158629559
1.158629583
1.158630285
1.158631557
1.158632868
1.158633833
1.158634206
1.158630525
1.158630621
1.158630576
1.158630088
1.158630125
1.158629421
1.158629407
1.158630262
1.158631711
1.158633151
1.158634079
1.158634231
1.158630543
1.158630796
1.158631115
1.158630522
1.158630981
1.158630143
1.158630047
1.158630962
1.158632439
1.158633781
1.158634465
1.158634382
1.158630629
1.158631065
1.158631699
1.15863131
1.15863172
1.158630997
1.158630992
1.158632004
1.158633474
1.158634753
1.158635269
1.158634955
1.158631057
1.158631601
1.158632348
1.15863238
1.158632423
1.158631823
1.158631936
1.158632992
1.158634469
1.158635657
1.15863607
1.158635631
1.158632929
1.158632759
1.158632462
1.158632469
1.158632252
1.158632051
1.158632025
1.158632194
1.158632644
1.15863318
1.15863357
1.158633722
1.158631142
1.158630987
1.158630649
1.158630352
1.158629911
1.158629384
1.15862934
1.158629957
1.158631115
1.158632306
1.158633126
1.158633357
1.158630634
1.158630654
1.158630548
1.158630021
1.158629768
1.158629063
1.158629018
1.158629821
1.158631139
1.158632418
1.158633175
1.158633219
1.158630496
1.158630725
1.158630962
1.158630229
1.158630165
1.15862952
1.158629566
1.158630452
1.158631728
1.158632922
1.158633551
1.158633395
1.158630511
1.158630811
1.158631157
1.15863064
1.158630642
1.158630246
1.158630476
1.158631424
1.158632742
1.158633999
1.158634514
1.158634069
1.158630956
1.158631329
1.158631806
1.158631635
1.158631533
1.158631206
1.158631491
1.15863246
1.15863385
1.158635083
1.158635489
1.158634904
1.158633187
1.158633156
1.158632929
1.158633029