/*--------------------------------*- C++ -*----------------------------------*\
| =========                 |                                                 |
| \\      /  F ield         | OpenFOAM: The Open Source CFD Toolbox           |
|  \\    /   O peration     | Version:  4.x                                   |
|   \\  /    A nd           | Web:      www.OpenFOAM.org                      |
|    \\/     M anipulation  |                                                 |
\*---------------------------------------------------------------------------*/
FoamFile
{
    version     2.0;
    format      ascii;
    class       volScalarField;
    location    "0.58";
    object      T;
}
// * * * * * * * * * * * * * * * * * * * * * * * * * * * * * * * * * * * * * //

dimensions      [0 0 0 1 0 0 0];

internalField   nonuniform List<scalar> 
6398
(
299.9999987
299.9999992
299.9999993
299.9999991
299.9999989
299.9999988
299.9999992
299.9999996
299.9999994
299.9999992
299.9999987
299.9999986
299.9999994
299.9999997
299.9999997
299.9999993
299.9999991
299.9999993
299.9999993
299.9999997
299.9999995
299.9999993
299.9999994
299.9999999
299.9999992
299.9999992
299.999999
299.9999991
299.9999995
300.0000003
299.9999991
299.9999984
299.9999984
299.9999987
299.9999995
300.0000005
299.9999992
299.9999998
300.0000001
300
300.0000001
300.0000001
299.9999999
300.0000019
300.0000019
300.0000019
300.0000022
300.0000027
300.0000001
300.0000016
300.0000017
300.000002
300.0000032
300.0000045
299.9999997
300.0000005
300.0000007
300.0000017
300.0000039
300.0000059
299.999999
299.9999987
299.9999993
300.0000011
300.0000041
300.0000067
299.9999976
299.9999967
299.9999975
299.9999998
300.0000034
300.0000061
299.999999
299.9999991
299.9999996
300.0000004
300.0000016
300.0000022
299.999999
300.0000007
300.0000014
300.0000026
300.0000045
300.0000053
299.999999
300.0000003
300.0000013
300.0000029
300.0000056
300.0000071
299.9999979
299.9999987
300
300.0000024
300.0000059
300.0000081
299.9999969
299.9999967
299.9999985
300.0000019
300.000006
300.0000086
299.9999955
299.999994
299.9999966
300.0000009
300.0000051
300.0000076
299.9999977
299.9999974
299.9999989
300.0000011
300.0000039
300.0000058
299.9999967
299.9999964
299.9999984
300.0000018
300.0000054
300.0000077
299.9999961
299.999995
299.9999971
300.0000008
300.000005
300.0000084
299.9999951
299.9999933
299.9999956
299.9999998
300.0000046
300.0000089
299.9999951
299.9999929
299.9999951
299.9999997
300.0000049
300.0000092
299.9999956
299.999993
299.9999956
300.0000002
300.0000047
300.0000087
299.999999
299.9999997
300.0000029
300.0000079
300.0000134
300.0000194
299.9999983
299.9999978
299.9999999
300.0000052
300.0000126
300.0000204
299.9999978
299.999995
299.9999965
300.0000013
300.0000083
300.0000166
299.999998
299.9999939
299.9999948
299.9999993
300.0000063
300.0000145
299.999999
299.9999948
299.9999949
299.9999996
300.0000065
300.0000134
300.0000026
299.9999977
299.9999977
300.0000018
300.000007
300.0000126
300.0000047
300.0000124
300.0000195
300.0000298
300.000041
300.0000544
300.0000097
300.000015
300.0000171
300.0000282
300.0000467
300.0000681
300.0000108
300.0000085
300.0000081
300.000016
300.0000318
300.0000515
300.0000137
300.0000085
300.0000047
300.0000102
300.0000237
300.0000414
300.000017
300.000013
300.0000067
300.0000118
300.0000234
300.0000379
300.0000257
300.0000233
300.0000158
300.0000182
300.0000261
300.0000374
300.0000156
300.0000394
300.0000542
300.00007
300.0000858
300.0001016
300.0000366
300.000071
300.0000796
300.0001042
300.000143
300.0001852
300.0000438
300.0000639
300.0000626
300.0000783
300.0001148
300.0001627
300.0000493
300.0000648
300.0000544
300.0000633
300.0000952
300.0001371
300.0000551
300.0000773
300.0000622
300.0000682
300.000095
300.0001279
300.0000651
300.0001011
300.0000853
300.0000853
300.0001039
300.0001269
300.0000274
300.0000711
300.0000965
300.0001152
300.0001296
300.0001374
300.000069
300.0001569
300.0001948
300.000232
300.0002773
300.0003151
300.0000877
300.0001767
300.0001998
300.0002299
300.0002873
300.0003427
300.0000957
300.000184
300.0001922
300.0002141
300.0002714
300.0003291
300.000101
300.0002001
300.000208
300.0002249
300.0002726
300.0003191
300.0001056
300.0002213
300.0002418
300.0002534
300.000284
300.0003106
300.0000367
300.0000983
300.0001338
300.0001528
300.0001633
300.0001652
300.0000976
300.000241
300.0003123
300.0003563
300.0003928
300.0004166
300.0001284
300.0002972
300.0003652
300.0004114
300.0004647
300.0005076
300.0001401
300.0003164
300.0003749
300.0004174
300.0004738
300.0005237
300.0001419
300.0003278
300.0003907
300.0004313
300.0004796
300.0005186
300.0001372
300.0003327
300.0004109
300.0004496
300.0004801
300.0004964
300.0000433
300.0001176
300.0001605
300.0001792
300.0001827
300.0001758
300.0001179
300.0003069
300.0004051
300.0004531
300.0004754
300.0004769
300.0001599
300.0003994
300.0005132
300.0005719
300.0006108
300.0006299
300.0001751
300.0004314
300.0005458
300.000607
300.0006527
300.0006807
300.0001723
300.0004333
300.0005563
300.0006203
300.000661
300.0006817
300.0001578
300.0004148
300.0005516
300.0006171
300.000646
300.0006484
300.000046
300.0001266
300.0001742
300.0001916
300.0001891
300.0001728
300.0001273
300.0003424
300.0004621
300.0005118
300.0005179
300.0004986
300.000177
300.0004642
300.0006194
300.000687
300.0007087
300.0007044
300.0001944
300.0005083
300.0006755
300.0007529
300.0007857
300.0007899
300.0001878
300.0005012
300.0006776
300.0007632
300.000797
300.0007986
300.0001647
300.0004579
300.0006436
300.0007349
300.0007654
300.0007588
300.0000448
300.0001258
300.0001754
300.0001932
300.0001887
300.0001683
300.0001265
300.0003493
300.0004832
300.0005363
300.0005346
300.000504
300.0001779
300.0004873
300.0006736
300.0007516
300.0007636
300.0007429
300.0001966
300.0005404
300.0007493
300.000845
300.0008731
300.0008646
300.0001882
300.0005271
300.0007447
300.0008538
300.0008924
300.0008893
300.0001605
300.0004652
300.0006829
300.0008023
300.0008472
300.0008439
300.0000415
300.0001186
300.00017
300.0001899
300.0001858
300.0001649
300.0001176
300.0003383
300.0004802
300.0005377
300.0005344
300.0004983
300.0001686
300.0004812
300.0006828
300.0007708
300.0007807
300.0007519
300.0001873
300.0005373
300.0007686
300.000882
300.0009145
300.0009026
300.000178
300.0005219
300.0007604
300.0008916
300.0009464
300.0009509
300.0001481
300.0004518
300.0006839
300.000826
300.0008961
300.000913
300.0000365
300.0001078
300.0001601
300.0001825
300.0001794
300.0001591
300.000105
300.0003114
300.0004585
300.0005224
300.0005194
300.0004795
300.0001517
300.0004499
300.0006644
300.0007611
300.0007729
300.0007415
300.0001684
300.0005063
300.000754
300.0008785
300.000916
300.0009059
300.0001598
300.0004904
300.0007452
300.0008895
300.0009547
300.0009741
300.0001334
300.0004175
300.0006621
300.0008206
300.0009072
300.0009493
299.9999986
299.9999976
299.9999976
299.9999981
299.9999992
300.0000004
299.9999982
299.9999967
299.9999968
299.9999973
299.9999986
299.9999998
299.9999976
299.999996
299.999996
299.9999965
299.9999977
299.9999989
299.9999972
299.9999958
299.9999956
299.9999958
299.9999967
299.9999981
299.9999974
299.9999961
299.9999954
299.9999953
299.999996
299.9999974
299.999998
299.9999957
299.9999947
299.9999944
299.9999952
299.9999967
299.9999978
299.999994
299.9999932
299.9999933
299.9999943
299.999996
299.9999967
299.9999919
299.9999919
299.9999927
299.999994
299.9999958
299.9999954
299.9999905
299.9999913
299.9999928
299.9999946
299.9999962
299.9999947
299.9999899
299.9999915
299.9999935
299.9999952
299.9999965
299.9999942
299.9999902
299.9999922
299.9999942
299.9999955
299.9999963
299.9999943
299.9999914
299.9999932
299.9999948
299.9999957
299.9999961
299.9999959
299.9999946
299.9999954
299.9999981
300.0000019
300.0000046
299.9999946
299.9999925
299.9999932
299.9999963
300.0000003
300.0000024
299.9999938
299.9999904
299.999991
299.9999944
299.9999982
299.9999999
299.999993
299.9999882
299.999989
299.9999923
299.9999957
299.9999973
299.9999922
299.9999866
299.9999873
299.99999
299.9999931
299.999995
299.9999912
299.9999851
299.9999854
299.9999873
299.9999901
299.9999923
299.9999897
299.9999827
299.9999828
299.9999843
299.9999871
299.9999893
299.9999875
299.9999798
299.9999802
299.9999818
299.9999848
299.9999868
299.9999855
299.9999774
299.9999783
299.9999804
299.9999833
299.9999846
299.999984
299.999976
299.9999774
299.9999797
299.999982
299.9999824
299.9999832
299.9999754
299.999977
299.9999789
299.9999803
299.99998
299.9999833
299.9999761
299.9999772
299.9999782
299.9999786
299.9999778
299.9999944
299.9999924
299.9999949
299.999999
300.000003
300.0000055
299.9999937
299.999991
299.9999931
299.9999969
300.0000007
300.0000027
299.999993
299.999989
299.999991
299.9999949
299.999998
299.9999993
299.9999914
299.999986
299.9999885
299.9999924
299.9999948
299.9999956
299.9999894
299.9999837
299.9999864
299.9999896
299.9999914
299.9999919
299.9999885
299.9999828
299.9999846
299.9999865
299.9999877
299.9999881
299.9999881
299.9999812
299.9999818
299.9999824
299.9999831
299.9999834
299.999987
299.9999787
299.9999783
299.9999777
299.9999777
299.9999775
299.9999854
299.9999762
299.9999749
299.9999735
299.999973
299.9999719
299.9999841
299.9999739
299.9999716
299.9999699
299.9999689
299.9999669
299.9999829
299.9999712
299.9999681
299.9999662
299.9999648
299.9999623
299.9999817
299.9999685
299.9999648
299.9999627
299.9999609
299.9999588
299.9999956
299.9999926
299.9999951
299.9999987
300.0000027
300.0000064
299.9999951
299.9999923
299.9999938
299.9999965
300.0000001
300.000003
299.9999949
299.999991
299.9999918
299.9999941
299.9999968
299.9999983
299.9999934
299.9999879
299.9999891
299.9999911
299.9999919
299.9999922
299.9999911
299.9999851
299.9999866
299.9999878
299.9999873
299.9999865
299.9999902
299.9999841
299.999985
299.9999849
299.9999828
299.9999809
299.9999906
299.9999832
299.9999829
299.9999814
299.9999771
299.9999738
299.9999905
299.9999817
299.9999798
299.999977
299.9999716
299.9999671
299.99999
299.9999799
299.9999763
299.9999725
299.9999672
299.9999618
299.9999893
299.9999775
299.9999725
299.9999681
299.9999628
299.999957
299.9999878
299.9999737
299.9999677
299.9999628
299.9999578
299.9999525
299.9999856
299.9999692
299.9999621
299.9999572
299.9999527
299.9999489
300.0000051
300.0000003
299.9999997
300.0000018
300.0000057
300.00001
300.0000057
300.0000022
299.9999996
300.0000001
300.0000029
300.0000054
300.0000058
300.0000016
299.9999974
299.9999967
299.9999982
299.9999982
300.0000034
299.9999972
299.999993
299.999992
299.9999906
299.9999857
299.9999991
299.9999921
299.9999888
299.9999871
299.9999816
299.9999745
299.9999974
299.9999904
299.9999873
299.9999844
299.9999757
299.999967
299.999999
299.9999919
299.9999878
299.9999829
299.9999731
299.999963
300.0000019
299.9999944
299.9999879
299.9999808
299.9999712
299.9999616
300.0000046
299.9999959
299.9999866
299.9999779
299.9999684
299.9999595
300.0000057
299.9999945
299.9999828
299.9999737
299.9999646
299.9999561
300.0000041
299.9999894
299.9999764
299.9999676
299.9999594
299.9999522
300.0000001
299.9999819
299.9999686
299.9999605
299.9999537
299.999949
300.0000311
300.000033
300.0000244
300.0000227
300.0000271
300.0000343
300.0000321
300.0000391
300.0000276
300.000022
300.000023
300.0000242
300.0000298
300.0000372
300.0000232
300.0000152
300.0000125
300.0000074
300.0000221
300.0000264
300.0000126
300.0000036
299.9999964
299.999986
300.0000125
300.0000135
300.0000016
299.9999928
299.9999819
299.9999658
300.0000086
300.0000091
299.9999985
299.9999888
299.9999747
299.9999576
300.0000123
300.0000161
300.0000047
299.9999921
299.9999756
299.9999606
300.0000206
300.0000303
300.0000153
299.9999984
299.9999797
299.9999646
300.0000295
300.0000434
300.0000233
300.000003
299.9999834
299.9999673
300.000035
300.0000482
300.0000239
300.0000026
299.9999839
299.999968
300.0000355
300.0000428
300.0000165
299.9999964
299.9999801
299.9999668
300.0000313
300.0000302
300.0000039
299.999986
299.9999733
299.9999655
300.0000684
300.0001211
300.0001089
300.0001009
300.0001097
300.0001192
300.000065
300.0001272
300.0001167
300.0001015
300.0000979
300.0000934
300.0000556
300.0001137
300.0001029
300.0000828
300.0000661
300.0000459
300.0000397
300.000083
300.0000715
300.0000481
300.0000233
299.9999985
300.0000241
300.0000527
300.0000411
300.0000176
299.9999918
299.9999673
300.0000183
300.0000415
300.0000312
300.0000079
299.9999815
299.9999586
300.0000245
300.0000558
300.0000485
300.0000229
299.9999919
299.9999682
300.0000381
300.0000876
300.000083
300.0000533
300.0000154
299.999986
300.0000527
300.0001205
300.0001158
300.0000823
300.0000407
300.0000046
300.000063
300.0001393
300.0001313
300.0000965
300.0000564
300.0000192
300.0000664
300.0001408
300.000128
300.0000939
300.0000589
300.0000274
300.0000638
300.0001285
300.0001097
300.0000773
300.0000508
300.000032
300.0001013
300.0002315
300.0002639
300.0002701
300.0002808
300.0002821
300.0000898
300.0002213
300.0002569
300.0002538
300.0002446
300.0002216
300.000072
300.0001853
300.000215
300.0002003
300.0001711
300.0001296
300.0000498
300.0001333
300.0001507
300.0001277
300.0000856
300.0000373
300.0000314
300.0000881
300.0000951
300.0000689
300.0000228
299.9999826
300.0000254
300.0000715
300.0000767
300.0000515
300.0000074
299.9999737
300.0000331
300.0000908
300.0001049
300.000083
300.0000397
300.0000015
300.0000488
300.000134
300.0001622
300.0001428
300.0000997
300.0000519
300.0000655
300.0001795
300.0002192
300.0002014
300.0001577
300.0001016
300.0000778
300.000209
300.0002534
300.0002374
300.000196
300.0001378
300.000083
300.0002177
300.0002611
300.000247
300.000212
300.0001623
300.0000826
300.0002108
300.0002482
300.0002366
300.000212
300.0001808
300.0001226
300.0003208
300.0004112
300.0004443
300.0004565
300.0004438
300.0001015
300.0002848
300.0003759
300.0003965
300.0003855
300.0003483
300.0000771
300.0002268
300.000301
300.000305
300.0002756
300.0002213
300.0000528
300.0001624
300.0002118
300.0002013
300.0001591
300.0001019
300.0000354
300.0001121
300.0001405
300.0001232
300.0000781
300.0000281
300.0000313
300.0000951
300.0001179
300.0001028
300.0000627
300.0000233
300.0000403
300.0001172
300.0001525
300.0001452
300.0001122
300.0000773
300.0000563
300.0001641
300.0002217
300.0002239
300.0001939
300.000152
300.0000724
300.0002128
300.000291
300.0003012
300.0002712
300.0002185
300.0000838
300.0002454
300.0003362
300.0003528
300.0003249
300.0002672
300.0000893
300.0002586
300.000353
300.000375
300.0003545
300.0003048
300.0000909
300.0002585
300.0003502
300.000377
300.0003688
300.0003404
300.0001319
300.0003718
300.0005178
300.0005802
300.0005937
300.0005725
300.000102
300.0003079
300.0004438
300.0004952
300.00049
300.0004492
300.0000737
300.0002354
300.0003427
300.000375
300.0003551
300.0003004
300.0000504
300.0001683
300.0002427
300.0002543
300.0002239
300.0001687
300.0000371
300.0001228
300.0001704
300.0001689
300.0001362
300.000093
300.0000377
300.0001117
300.0001492
300.0001475
300.0001206
300.0000924
300.0000494
300.0001369
300.0001866
300.0001944
300.0001751
300.0001537
300.0000659
300.0001843
300.0002593
300.0002808
300.0002654
300.0002379
300.0000801
300.0002307
300.0003308
300.0003655
300.0003515
300.000313
300.0000891
300.0002615
300.0003789
300.0004246
300.0004141
300.0003697
300.000094
300.0002767
300.000402
300.0004569
300.0004549
300.0004182
300.0000979
300.0002828
300.0004089
300.0004714
300.0004852
300.0004689
300.0001296
300.0003837
300.0005666
300.0006592
300.0006829
300.0006606
300.0000923
300.0003004
300.0004589
300.0005405
300.0005519
300.0005159
300.0000612
300.00022
300.0003448
300.0004032
300.0004011
300.000355
300.0000412
300.0001568
300.0002455
300.0002801
300.0002662
300.0002194
300.0000349
300.0001223
300.000184
300.0001999
300.000181
300.0001454
300.0000428
300.0001258
300.000174
300.0001827
300.0001669
300.000149
300.0000603
300.0001602
300.0002159
300.0002309
300.0002222
300.0002152
300.0000785
300.0002078
300.0002868
300.0003165
300.0003137
300.0003033
300.0000909
300.0002485
300.000354
300.0004006
300.0004013
300.0003801
300.0000972
300.0002744
300.0003993
300.000461
300.0004671
300.0004394
300.0001019
300.0002899
300.0004254
300.0004992
300.0005165
300.0004954
300.0001091
300.0003032
300.000442
300.0005255
300.000562
300.0005611
300.0001186
300.0003707
300.0005708
300.0006895
300.0007358
300.0007237
300.0000756
300.0002649
300.0004423
300.0005452
300.0005812
300.0005584
300.0000437
300.0001763
300.0003191
300.0004007
300.0004199
300.0003887
300.0000274
300.0001235
300.0002284
300.0002815
300.000286
300.0002544
300.0000279
300.0001117
300.000184
300.0002161
300.0002102
300.0001859
300.0000441
300.0001378
300.0001977
300.000216
300.0002095
300.0001984
300.0000695
300.0001918
300.0002567
300.0002771
300.0002771
300.0002773
300.0000924
300.0002473
300.0003305
300.0003652
300.0003742
300.0003735
300.0001054
300.0002835
300.0003892
300.0004431
300.0004595
300.0004515
300.0001109
300.0003019
300.0004274
300.0004985
300.0005229
300.0005111
300.0001166
300.000318
300.0004566
300.000542
300.0005789
300.0005726
300.0001272
300.0003433
300.0004897
300.0005871
300.0006422
300.0006518
300.0001044
300.0003384
300.0005508
300.0006905
300.0007672
300.0007825
300.0000618
300.0002225
300.0003955
300.0005286
300.0005946
300.0005937
300.0000318
300.0001347
300.0002662
300.0003755
300.0004258
300.0004128
300.0000175
300.0000906
300.0001892
300.0002675
300.0002956
300.0002773
300.0000211
300.0000946
300.000174
300.0002231
300.000234
300.0002165
300.0000426
300.0001421
300.0002181
300.0002546
300.0002584
300.0002473
300.0000738
300.0002179
300.0003074
300.0003456
300.0003532
300.0003512
300.0001012
300.0002871
300.0003979
300.0004489
300.0004654
300.0004673
300.0001172
300.0003276
300.0004569
300.0005248
300.0005516
300.00055
300.0001247
300.0003474
300.0004902
300.0005745
300.0006124
300.0006077
300.0001324
300.0003678
300.0005243
300.0006233
300.0006728
300.000672
300.0001435
300.0003992
300.0005723
300.0006855
300.000749
300.0007578
300.0000954
300.000308
300.0005127
300.0006743
300.0007766
300.0008382
300.0000583
300.0001999
300.0003552
300.0004985
300.0006026
300.0006561
300.0000309
300.0001183
300.0002293
300.0003456
300.0004323
300.0004615
300.0000168
300.0000764
300.0001597
300.0002479
300.0003084
300.0003144
300.0000193
300.000083
300.000159
300.0002249
300.0002629
300.0002569
300.0000398
300.0001391
300.0002257
300.0002857
300.0003111
300.0003079
300.0000711
300.0002235
300.0003402
300.0004082
300.0004343
300.0004389
300.0000999
300.0003016
300.0004487
300.0005306
300.0005641
300.0005654
300.0001181
300.0003491
300.0005151
300.0006099
300.0006528
300.0006579
300.0001281
300.0003748
300.0005517
300.000658
300.0007105
300.0007154
300.0001367
300.000398
300.0005876
300.0007072
300.0007718
300.0007811
300.0001443
300.0004241
300.0006322
300.0007685
300.0008451
300.0008599
299.999995
299.9999933
299.9999945
299.9999954
299.9999958
299.9999959
299.9999961
299.9999951
299.9999957
299.9999959
299.9999959
299.9999958
299.9999971
299.9999961
299.9999961
299.9999961
299.999996
299.9999956
299.9999975
299.9999961
299.9999961
299.9999961
299.9999957
299.9999951
299.9999973
299.9999955
299.9999957
299.9999957
299.9999953
299.9999945
299.9999972
299.9999962
299.9999965
299.9999966
299.9999963
299.9999958
299.9999843
299.9999775
299.9999777
299.9999778
299.9999776
299.9999768
299.9999855
299.9999788
299.9999782
299.999978
299.9999776
299.999977
299.9999863
299.9999792
299.9999786
299.9999786
299.9999785
299.9999783
299.9999865
299.9999791
299.9999788
299.9999793
299.9999796
299.9999799
299.9999868
299.99998
299.9999802
299.9999813
299.9999821
299.9999824
299.9999913
299.9999881
299.9999883
299.9999888
299.9999888
299.9999885
299.9999808
299.9999664
299.9999622
299.9999601
299.9999588
299.9999576
299.9999803
299.9999649
299.9999607
299.9999592
299.9999586
299.9999586
299.99998
299.9999642
299.9999605
299.9999599
299.9999607
299.999962
299.99998
299.9999647
299.9999617
299.9999623
299.9999647
299.9999674
299.9999819
299.9999693
299.9999673
299.9999686
299.9999713
299.9999736
299.9999902
299.9999847
299.9999833
299.9999833
299.9999838
299.9999845
299.9999834
299.9999651
299.999957
299.9999525
299.9999495
299.9999481
299.9999818
299.9999618
299.9999536
299.9999501
299.9999486
299.9999491
299.9999808
299.9999604
299.9999528
299.9999507
299.9999514
299.9999543
299.9999809
299.9999615
299.9999552
299.9999551
299.9999586
299.9999633
299.9999835
299.9999686
299.9999641
299.9999649
299.9999688
299.9999727
299.9999923
299.9999859
299.9999834
299.9999835
299.999985
299.9999867
299.9999958
299.9999746
299.9999615
299.9999543
299.9999498
299.9999484
299.9999921
299.999969
299.9999564
299.9999507
299.9999482
299.9999495
299.9999899
299.9999666
299.9999549
299.9999511
299.9999516
299.9999557
299.9999895
299.9999678
299.9999582
299.9999572
299.9999612
299.9999675
299.9999921
299.9999771
299.9999701
299.9999707
299.9999761
299.9999822
299.9999978
299.9999939
299.9999912
299.9999925
299.9999963
300.0000003
300.0000249
300.0000156
299.9999902
299.9999749
299.9999668
299.9999652
300.0000186
300.0000028
299.9999789
299.9999669
299.9999629
299.9999662
300.0000138
299.9999958
299.9999748
299.9999664
299.9999669
299.9999746
300.0000111
299.9999968
299.9999806
299.9999771
299.9999829
299.9999941
300.0000105
300.0000087
299.9999996
300.0000005
300.0000101
300.0000222
300.0000058
300.0000126
300.0000145
300.0000195
300.0000271
300.000034
300.0000578
300.0001084
300.0000836
300.0000532
300.000037
300.0000331
300.0000508
300.0000865
300.0000581
300.0000333
300.0000273
300.0000349
300.0000442
300.0000712
300.0000471
300.0000299
300.0000323
300.0000491
300.000038
300.0000672
300.0000559
300.0000503
300.0000622
300.0000856
300.00003
300.0000669
300.0000756
300.0000851
300.000105
300.0001276
300.0000121
300.0000337
300.000047
300.0000593
300.0000717
300.0000811
300.0000791
300.0001943
300.0002229
300.0002134
300.0002016
300.0001947
300.000074
300.0001744
300.0001956
300.0001901
300.0001925
300.0002067
300.0000675
300.0001567
300.0001799
300.0001845
300.0002007
300.00023
300.0000586
300.0001431
300.0001781
300.0002001
300.0002304
300.0002647
300.0000443
300.0001198
300.0001653
300.0002011
300.0002369
300.0002659
300.0000165
300.0000505
300.0000762
300.0000978
300.0001163
300.0001282
300.0000908
300.0002503
300.000335
300.0003666
300.0003759
300.0003738
300.0000893
300.0002376
300.000316
300.0003537
300.0003805
300.0004032
300.0000847
300.0002222
300.0003007
300.0003486
300.0003911
300.0004296
300.0000751
300.0002026
300.0002862
300.0003468
300.0004011
300.0004442
300.0000564
300.0001617
300.0002393
300.0003008
300.0003523
300.000386
300.0000205
300.0000646
300.0001003
300.0001298
300.000153
300.0001657
300.0001022
300.0002843
300.0004065
300.0004756
300.0005103
300.0005216
300.0001053
300.0002819
300.0003989
300.0004748
300.0005294
300.0005662
300.000104
300.0002745
300.0003905
300.0004743
300.0005424
300.000592
300.0000944
300.000256
300.0003721
300.000461
300.0005343
300.0005829
300.0000705
300.0002018
300.0003007
300.0003777
300.0004376
300.0004706
300.000025
300.0000786
300.0001208
300.000154
300.0001776
300.000188
300.0001189
300.0003186
300.0004558
300.000548
300.0006071
300.0006341
300.0001269
300.0003325
300.0004687
300.0005672
300.000644
300.0006919
300.0001271
300.0003351
300.0004736
300.0005771
300.0006618
300.0007163
300.0001139
300.0003128
300.0004521
300.0005559
300.0006367
300.000682
300.0000817
300.0002371
300.0003521
300.0004372
300.0004969
300.0005226
300.0000277
300.0000872
300.0001335
300.0001679
300.0001903
300.0001981
300.0001402
300.0003757
300.0005294
300.0006361
300.0007094
300.0007389
300.0001478
300.0003977
300.0005597
300.0006739
300.0007588
300.0007999
300.0001435
300.0003964
300.0005666
300.0006864
300.0007739
300.0008153
300.0001224
300.0003536
300.0005217
300.0006398
300.0007189
300.0007496
300.0000823
300.0002492
300.0003799
300.0004736
300.0005313
300.0005483
300.0000259
300.0000853
300.0001347
300.0001713
300.0001942
300.0002008
300.0001528
300.0004309
300.0006229
300.0007494
300.0008263
300.0008463
300.0001537
300.0004424
300.0006483
300.0007844
300.0008681
300.0008929
300.0001418
300.0004216
300.0006329
300.0007753
300.0008609
300.0008854
300.0001143
300.0003558
300.0005492
300.0006837
300.0007627
300.0007829
300.0000713
300.0002359
300.0003762
300.0004768
300.0005364
300.0005525
300.0000202
300.0000745
300.0001253
300.0001647
300.0001894
300.0001973
300.0001466
300.0004404
300.0006673
300.000819
300.0009066
300.0009268
300.0001389
300.000437
300.0006739
300.0008341
300.000926
300.0009478
300.0001191
300.0003996
300.000634
300.0007952
300.0008873
300.0009109
300.0000872
300.0003163
300.0005257
300.0006743
300.0007596
300.0007826
300.0000479
300.0001863
300.0003312
300.0004439
300.0005136
300.0005376
300.0000119
300.000052
300.0000993
300.0001409
300.0001708
300.0001843
299.9999987
299.9999988
299.9999986
299.999997
299.9999989
299.9999989
299.9999983
299.9999972
299.9999997
299.9999995
299.999999
299.9999997
300.0000003
300.0000001
300.0000001
300.000002
300.0000008
300.0000007
300.000001
300.0000043
300.000001
300.000001
300.0000016
300.0000053
300.0000001
300.0000001
299.9999995
299.9999982
300.0000031
300.000002
300.0000006
300.000001
300.0000048
300.0000037
300.0000032
300.0000061
300.0000065
300.0000058
300.0000067
300.0000122
300.0000073
300.0000071
300.0000088
300.0000145
300.0000066
300.0000068
300.0000088
300.0000131
300.0000022
300.0000021
300.000003
300.0000063
300.0000055
300.0000057
300.0000075
300.0000126
300.0000075
300.0000081
300.0000105
300.0000183
300.0000088
300.0000099
300.0000123
300.0000216
300.0000094
300.0000105
300.0000123
300.0000198
300.0000084
300.0000093
300.0000106
300.0000139
300.0000066
300.0000076
300.0000103
300.0000097
300.0000122
300.0000157
300.0000107
300.0000129
300.0000176
300.0000112
300.0000127
300.0000179
300.0000109
300.0000115
300.0000157
300.0000096
300.0000093
300.0000114
300.0000233
300.0000255
300.0000284
300.0000267
300.0000308
300.0000376
300.0000221
300.000026
300.0000339
300.0000184
300.000021
300.0000278
300.0000159
300.0000169
300.0000209
300.0000137
300.0000129
300.0000141
300.0000617
300.0000644
300.0000655
300.0000829
300.0000912
300.0000974
300.0000657
300.0000717
300.0000789
300.0000519
300.0000544
300.0000588
300.0000448
300.0000441
300.0000414
300.0000405
300.0000353
300.0000274
300.0001057
300.0001098
300.0002087
300.0002212
300.0001913
300.0002042
300.0001616
300.0001703
300.000145
300.0001392
300.0001326
300.0001137
300.0003064
300.0002714
300.0004832
300.0004363
300.0006245
300.0005678
300.0007236
300.0006642
300.0008101
300.0007497
300.000887
300.0008226
300.0000008
300.0000009
300.0000015
300.0000036
300.0000002
300.0000004
300.0000007
300.0000005
299.9999995
299.9999997
299.9999994
299.999997
299.9999989
299.9999989
299.9999981
299.9999947
299.9999983
299.9999982
299.9999972
299.999994
299.9999975
299.9999973
299.9999964
299.9999937
299.9999967
299.9999965
299.9999958
299.999993
299.9999964
299.999996
299.9999955
299.9999928
299.9999965
299.9999962
299.9999959
299.9999948
299.9999931
299.9999901
299.9999882
299.9999904
299.9999938
299.9999963
299.9999991
299.9999965
299.9999961
299.9999954
299.999995
299.999994
299.9999939
299.9999943
299.9999952
299.9999961
299.9999973
299.9999978
299.9999987
299.9999962
299.9999959
299.9999953
299.9999947
299.9999949
299.9999955
299.9999959
299.9999959
299.9999959
299.9999964
299.9999974
299.999998
299.999996
299.9999956
299.9999952
299.999995
299.9999953
299.9999959
299.9999961
299.9999958
299.9999956
299.9999957
299.9999962
299.9999966
300.0000049
300.0000054
300.000007
300.0000093
300.0000026
300.0000033
300.0000042
300.0000039
300.0000002
300.0000008
300.0000011
299.9999991
299.9999978
299.9999981
299.9999982
299.9999954
299.9999956
299.9999956
299.9999951
299.9999919
299.9999928
299.9999922
299.9999913
299.9999854
299.9999894
299.9999882
299.9999865
299.9999779
299.9999862
299.9999843
299.999982
299.9999738
299.9999832
299.9999812
299.9999794
299.9999775
299.9999718
299.9999723
299.9999752
299.9999817
299.99999
299.9999967
300.0000002
299.9999806
299.9999787
299.9999769
299.9999758
299.9999753
299.9999781
299.9999815
299.9999852
299.9999893
299.9999939
299.9999965
299.9999983
299.9999782
299.9999765
299.9999754
299.999975
299.9999763
299.9999789
299.9999812
299.9999833
299.999986
299.9999894
299.9999923
299.9999941
299.9999763
299.9999752
299.9999748
299.999975
299.9999763
299.9999782
299.9999797
299.999981
299.9999828
299.9999849
299.9999869
299.999988
300.000006
300.0000068
300.0000081
300.0000107
300.0000031
300.000004
300.0000061
300.0000096
299.9999996
300.0000006
300.0000029
300.0000056
299.9999958
299.9999967
299.9999986
299.9999983
299.9999921
299.9999926
299.9999937
299.9999903
299.9999878
299.9999875
299.9999872
299.9999792
299.9999821
299.9999805
299.9999782
299.9999669
299.9999751
299.9999727
299.9999694
299.9999574
299.9999688
299.9999662
299.9999642
299.9999633
299.9999547
299.9999608
299.9999684
299.9999764
299.9999857
299.9999933
299.9999942
299.9999634
299.999961
299.9999598
299.9999592
299.9999605
299.9999656
299.9999714
299.9999777
299.9999842
299.9999895
299.9999926
299.9999925
299.999959
299.9999571
299.9999568
299.9999573
299.9999596
299.9999635
299.9999681
299.9999727
299.9999772
299.9999814
299.9999848
299.9999865
299.9999566
299.9999557
299.9999564
299.9999576
299.9999592
299.9999622
299.9999658
299.9999692
299.9999724
299.9999752
299.9999775
299.9999788
300.0000067
300.0000059
300.0000073
300.0000029
300.0000022
300.0000036
299.9999977
299.9999976
300.0000009
300.0000043
299.9999915
299.999992
299.9999957
299.9999961
299.9999853
299.999986
299.999989
299.9999859
299.9999789
299.9999785
299.9999794
299.9999745
299.9999707
299.9999692
299.999969
299.9999609
299.9999626
299.9999602
299.9999591
299.9999497
299.999956
299.9999529
299.9999534
299.9999566
299.9999487
299.9999577
299.9999674
299.9999737
299.9999797
299.9999825
299.9999779
299.9999506
299.9999472
299.9999485
299.9999518
299.999955
299.9999619