-1.25 	300 	0.1183484938155444 	101372.5528258149
-1.247497497497497 	300.0341422409199 	0.1111322354950569 	101370.4690565067
-1.244994994994995 	300.035365356342 	0.101724680639073 	101366.9323610602
-1.242492492492492 	300.0319499530671 	0.0930158241273952 	101362.7381420924
-1.23998998998999 	300.027760026955 	0.08019881003133744 	101357.8198326277
-1.237487487487487 	300.0231028485227 	0.06684568331720189 	101352.3141037417
-1.234984984984985 	300.0181180979772 	0.05233777947767627 	101346.4202218771
-1.232482482482482 	300.012776044019 	0.03689407079718472 	101340.1040522287
-1.22997997997998 	300.0071881116847 	0.02074492611936835 	101333.4973741992
-1.227477477477477 	300.0014871111192 	0.008158637413591047 	101326.757428755
-1.224974974974975 	299.9957743081081 	0.01222084872809705 	101320.0038208575
-1.222472472472472 	299.9901046933762 	0.02865568834898756 	101313.3016907551
-1.21996996996997 	299.9845702042581 	0.04465867538028767 	101306.7596459937
-1.217467467467467 	299.9793332627684 	0.0598259315005686 	101300.5694586184
-1.214964964964965 	299.9744676387823 	0.07389103101043591 	101294.8184360679
-1.212462462462462 	299.9700330425094 	0.08666277725323657 	101289.5770286732
-1.20995995995996 	299.9661688988113 	0.09783442979969037 	101285.0100300499
-1.207457457457457 	299.9629789754647 	0.1070640615706216 	101281.2400373931
-1.204954954954955 	299.9604841919011 	0.1142598795824116 	101278.2915761483
-1.202452452452452 	299.9587001655548 	0.1193842352489392 	101276.1830508431
-1.19994994994995 	299.9576640980694 	0.122357646513901 	101274.958580808
-1.197447447447447 	299.9574030064081 	0.1231405799782467 	101274.6499776736
-1.194944944944945 	299.9579266025686 	0.1216397259249975 	101275.2687072825
-1.192442442442442 	299.9592491042314 	0.117799528916403 	101276.8316106566
-1.18993993993994 	299.9613666136869 	0.1116710267902296 	101279.3339262827
-1.187437437437437 	299.9642194190574 	0.103440308057996 	101282.7054059864
-1.184934934934935 	299.9677157207552 	0.09334467737804378 	101286.8374368934
-1.182432432432432 	299.9717803105991 	0.08157040643144836 	101291.6412884958
-1.17992992992993 	299.9763382500562 	0.06836458985618066 	101297.0285312468
-1.177427427427427 	299.981308770039 	0.05395659413646489 	101302.9034890238
-1.174924924924925 	299.9866237623274 	0.03858799102891806 	101309.1859930841
-1.172422422422422 	299.9921867013304 	0.02257161496394175 	101315.7618114218
-1.16991991991992 	299.9978523450573 	0.007816807860431313 	101322.4594243962
-1.167417417417417 	300.0035390237088 	0.01028407647305086 	101329.1823110541
-1.164914914914915 	300.0091971946385 	0.02662325665843367 	101335.8716409662
-1.162412412412412 	300.0147241547366 	0.04260790626648072 	101342.4062701722
-1.15990990990991 	300.0200080220271 	0.05785781379877554 	101348.6537026701
-1.157407407407407 	300.0249306949218 	0.07208162427246155 	101354.4744218106
-1.154904904904904 	300.0293776012052 	0.084960456325057 	101359.7328549385
-1.152402402402403 	300.0332663707251 	0.09620328968826701 	101364.3313083642
-1.1498998998999 	300.0365329333778 	0.1056529888215523 	101368.1942281579
-1.147397397397397 	300.039132199483 	0.11316354174139 	101371.2680405192
-1.144894894894895 	300.0410408194128 	0.1186519914528681 	101373.5252698864
-1.142392392392392 	300.0422128206841 	0.122002150762885 	101374.9114361728
-1.13988988988989 	300.0425993579511 	0.1231065940509578 	101375.3685198746
-1.137387387387387 	300.0421747695185 	0.1218759283109031 	101374.8664673947
-1.134884884884885 	300.0409277516219 	0.1182606960856657 	101373.391796432
-1.132382382382382 	300.0388931753668 	0.1124166797703465 	101370.9858908331
-1.12987987987988 	300.0361600416746 	0.1045078918006397 	101367.7539216638
-1.127377377377377 	300.0327815479181 	0.09473723824450422 	101363.7587333014
-1.124874874874875 	300.0288038142227 	0.08328148278156344 	101359.0551500836
-1.122372372372372 	300.0242988522976 	0.0702263277264128 	101353.7282060959
-1.11986986986987 	300.0193409065097 	0.05585705894864565 	101347.8659893978
-1.117367367367367 	300.014023064143 	0.04049089940040261 	101341.5784865151
-1.114864864864865 	300.0084814437832 	0.02445265730210384 	101335.0265632314
-1.112362362362362 	300.0028063112562 	0.008091094139195168 	101328.3171773042
-1.10985985985986 	299.9970913963231 	0.009128292932634783 	101321.5609754157
-1.107357357357357 	299.991400301435 	0.02493883066933365 	101314.8333841739
-1.104854854854855 	299.9858185134306 	0.04106691757776741 	101308.2353031661
-1.102352352352353 	299.9804912665401 	0.05646167086659344 	101301.9382687676
-1.09984984984985 	299.9755413913153 	0.07075813284873397 	101296.0876228022
-1.097347347347347 	299.9710616667996 	0.08370405260640681 	101290.7927974162
-1.094844844844845 	299.9671196478525 	0.09513092106810449 	101286.1337534036
-1.092342342342342 	299.9637625814059 	0.1048190584008637 	101282.166203915
-1.08983983983984 	299.961052628613 	0.1126077613877727 	101278.9634088989
-1.087337337337337 	299.9590668409497 	0.11831606481012 	101276.6165047634
-1.084834834834835 	299.957861593782 	0.121793364686121 	101275.192022873
-1.082332332332332 	299.9574615686897 	0.1229794125948914 	101274.7192284543
-1.07982982982983 	299.9578643209438 	0.1218242206715415 	101275.1952264101
-1.077327327327327 	299.9590432833228 	0.1184010290960565 	101276.5884117158
-1.074824824824825 	299.9609756404755 	0.1128057377368026 	101278.8719650131
-1.072322322322323 	299.9636285391823 	0.1051519876146104 	101282.0071645536
-1.06981981981982 	299.9669437930475 	0.09557908863353873 	101285.9251807274
-1.067317317317317 	299.9708623927231 	0.08421440208053244 	101290.5565265116
-1.064814814814815 	299.9753170173985 	0.07132107737037183 	101295.8215427969
-1.062312312312312 	299.9802132249571 	0.05715246795231639 	101301.6086282837
-1.05980980980981 	299.9854565576766 	0.04200952867632082 	101307.8063941698
-1.057307307307307 	299.9909395794986 	0.02620639361946967 	101314.2876349891
-1.054804804804805 	299.9965456788357 	0.009958274253774336 	101320.9148345571
-1.052302302302302 	300.0022151670496 	0.009013954254327411 	101327.6172862657
-1.0497997997998 	300.0078838110947 	0.02281975806436514 	101334.3189241127
-1.047297297297297 	300.0134304917721 	0.0388695986702011 	101340.8768188485
-1.044794794794795 	300.0187355631135 	0.05418076033017534 	101347.149226116
-1.042292292292292 	300.0236855811944 	0.06850182321915947 	101353.0022384427
-1.03978978978979 	300.0282023793073 	0.08157713009626666 	101358.3432229263
-1.037287287287287 	300.0322249948176 	0.0931901315829719 	101363.099912461
-1.034784784784785 	300.0356752004801 	0.1031650887975156 	101367.1799747341
-1.032282282282283 	300.0384752894022 	0.1112507170314896 	101370.49122629
-1.02977977977978 	300.0405783852436 	0.1172902341545952 	101372.9784474262
-1.027277277277277 	300.04192310649 	0.1211520677110012 	101374.5688278352
-1.024774774774775 	300.0424772109736 	0.12275721599906 	101375.2241179467
-1.022272272272272 	300.0422321200879 	0.1220630405737297 	101374.9343267584
-1.01976976976977 	300.0411907577075 	0.119046918703213 	101373.7028281951
-1.017267267267267 	300.0393756448042 	0.1138140290314425 	101371.5564605079
-1.014764764764765 	300.0368440610079 	0.1064630848051548 	101368.56280384
-1.012262262262262 	300.0336244439929 	0.09717373600126607 	101364.7555019185
-1.00975975975976 	300.0297858921305 	0.08611557848486973 	101360.2164654404
-1.007257257257257 	300.0254045537741 	0.07341268288887133 	101355.0356699312
-1.004754754754755 	300.0205571391838 	0.05935718368734867 	101349.304061128
-1.002252252252252 	300.0153232508183 	0.04422384638770428 	101343.1157546757
-0.9997497497497498 	300.0098171570378 	0.02830102833513497 	101336.6057985916
-0.9972472472472473 	300.0041247719681 	0.01191642842792831 	101329.8759233291
-0.9947447447447449 	299.9983836721253 	0.008936976784450879 	101323.0887427109
-0.9922422422422421 	299.9926750160975 	0.02125221699912756 	101316.340250638
-0.9897397397397399 	299.9870849940691 	0.03740300223818127 	101309.7323651919
-0.9872372372372376 	299.9817314456257 	0.05287718992164454 	101303.4042464576
-0.9847347347347346 	299.9767098319547 	0.06738027996139465 	101297.4686826
-0.9822322322322323 	299.9721109353339 	0.08066661337497881 	101292.0330365604
-0.9797297297297296 	299.968015276433 	0.09253106372911069 	101287.192291745
-0.9772272272272275 	299.9644990061016 	0.102659822659078 	101283.0365455168
-0.9747247247247248 	299.9616488109328 	0.1108735648897116 	101279.6680853515
-0.9722222222222224 	299.9595318649463 	0.1169800123021465 	101277.1661021127
-0.9697197197197196 	299.9581827071172 	0.1208730394258274 	101275.5715914991
-0.9672172172172175 	299.9576174875605 	0.1225399912015785 	101274.9035211869
-0.9647147147147147 	299.9578328888398 	0.1219085587508024 	101275.1580947034
-0.9622122122122124 	299.9588198542037 	0.1190293385734871 	101276.3244579184
-0.9597097097097099 	299.960574128633 	0.113950534132719 	101278.3974944684
-0.9572072072072073 	299.9630616346495 	0.1067667146549107 	101281.3372456796
-0.9547047047047047 	299.9662249390843 	0.09762895948037509 	101285.075646464
-0.9522022022022023 	299.9700057824041 	0.08667470385555186 	101289.5441238871
-0.9496996996996998 	299.9743324828151 	0.07415498050051032 	101294.657941779
-0.9471971971971973 	299.9791207993268 	0.06029392331591588 	101300.3174402863
-0.9446946946946947 	299.9842873676151 	0.045379571027974 	101306.4243983745
-0.9421921921921923 	299.9897178734537 	0.02971962214421281 	101312.8435177057
-0.93968968968969 	299.9952939169419 	0.01356978130890821 	101319.4350938419
-0.9371871871871872 	300.0009276803585 	0.008315193426001934 	101326.0952408189
-0.9346846846846848 	300.0065482197857 	0.01898031254643379 	101332.7399492458
-0.9321821821821823 	300.0120650565084 	0.03495480888513241 	101339.2624718106
-0.9296796796796799 	300.0173891291423 	0.0503226174495511 	101345.5572858556
-0.9271771771771771 	300.0224150238558 	0.06485914699955211 	101351.4999227818
-0.9246746746746748 	300.027058009107 	0.0782710905598302 	101356.9900568072
-0.9221721721721724 	300.0312239329872 	0.0902957231031027 	101361.916179089
-0.9196696696696698 	300.0348188617252 	0.1007048642363605 	101366.1673334868
-0.9171671671671672 	300.037770725631 	0.109233581002205 	101369.6580714079
-0.9146646646646649 	300.0400390995429 	0.1157521631276771 	101372.3406998607
-0.9121621621621623 	300.0415634928158 	0.1201471773663741 	101374.1435615299
-0.9096596596596597 	300.042317710317 	0.122330235679166 	101375.0355349245
-0.9071571571571573 	300.0422738780937 	0.1222212580370561 	101374.9837091722
-0.9046546546546547 	300.0414305899761 	0.1197714663844771 	101373.9864792213
-0.9021521521521524 	300.0398106612271 	0.1150754307785592 	101372.0709100633
-0.8996496496496498 	300.0374649988012 	0.1082629012264224 	101369.2971115598
-0.8971471471471473 	300.0344200674658 	0.09948367440599991 	101365.6963785713
-0.894644644644645 	300.0307423867956 	0.08887047167029911 	101361.3475105809
-0.892142142142142 	300.026486215671 	0.07654390627078769 	101356.3147136043
-0.8896396396396397 	300.0217239293148 	0.0627459877133774 	101350.6837082779
-0.8871371371371374 	300.0165443417537 	0.04778012283363397 	101344.5595357858
-0.8846346346346349 	300.011070990338 	0.03196576082126607 	101338.0882412939
-0.8821321321321324 	300.0054114007387 	0.01566128328266919 	101331.3970412402
-0.8796296296296297 	299.9997014137041 	0.007825562279703725 	101324.6465835782
-0.8771271271271271 	299.9940014456671 	0.01741829521109933 	101317.9083086849
-0.8746246246246248 	299.9883871853375 	0.03363586835868357 	101311.2716951161
-0.8721221221221224 	299.9829678842694 	0.04929434254703949 	101304.8657795203
-0.8696196196196196 	299.977854038375 	0.06405794295766744 	101298.8211324658
-0.8671171171171175 	299.9731485291935 	0.07765085716263181 	101293.2594266955
-0.8646146146146148 	299.9689363798074 	0.08984912430644901 	101288.2809953271
-0.8621121121121121 	299.9652946325533 	0.1003338205552399 	101283.9769263612
-0.8596096096096097 	299.9623081651702 	0.1089589783634806 	101280.4473625093
-0.857107107107107 	299.9600390220642 	0.1155118039877376 	101277.7655077712
-0.8546046046046049 	299.9585276407787 	0.1198790906839688 	101275.979277696
-0.8521021021021022 	299.957793854922 	0.1220390923026213 	101275.1120068917
-0.8495995995995997 	299.9578391391383 	0.1218895762782783 	101275.1655552908
-0.8470970970970974 	299.9586567453575 	0.119512575380571 	101276.1317519339
-0.8445945945945946 	299.9602394254705 	0.1149349498090461 	101278.0019759586
-0.8420920920920922 	299.9625478537242 	0.1082515440047694 	101280.7301047844
-0.8395895895895897 	299.9655386495002 	0.0996064819875179 	101284.2646109057
-0.8370870870870872 	299.9691647528111 	0.08909347049495171 	101288.5501994851
-0.8345845845845846 	299.9733633010326 	0.07695596125068002 	101293.5124932542
-0.8320820820820823 	299.9780492985547 	0.06339972556311047 	101299.0509684681
-0.8295795795795798 	299.9831298210029 	0.04873829148073909 	101305.0561995666
-0.8270770770770772 	299.988479969688 	0.03329816868797471 	101311.3802514374
-0.8245745745745746 	299.9939935511997 	0.01733698649559194 	101317.8979509213
-0.8220720720720721 	299.9995807434192 	0.006725817384599693 	101324.5029641414
-0.8195695695695699 	300.0051750412384 	0.01500653356763556 	101331.1165208168
-0.817067067067067 	300.0107012666601 	0.03101387490590723 	101337.6501071544
-0.8145645645645651 	300.0160679704682 	0.04649662011870226 	101343.9952302198
-0.8120620620620621 	300.0211578120176 	0.06123437101295389 	101350.0134441906
-0.8095595595595597 	300.0258917025797 	0.07490229687304227 	101355.6110077236
-0.8070570570570572 	300.0301694902826 	0.08725650962580161 	101360.669304547
-0.8045545545545546 	300.0339007151939 	0.09806603649918197 	101365.0816464302
-0.8020520520520523 	300.0370134115884 	0.1070354135366483 	101368.7625123897
-0.7995495495495494 	300.0394557925363 	0.1140503351623844 	101371.6509446577
-0.7970470470470474 	300.0411582080321 	0.1189680751221691 	101373.6643224545
-0.7945445445445446 	300.0421043432904 	0.121697648667409 	101374.7831983516
-0.7920420420420423 	300.0422588626841 	0.1221728196964542 	101374.966020647
-0.7895395395395397 	300.0416222580296 	0.1203267204437343 	101374.2131408517
-0.7870370370370371 	300.0402125730106 	0.1162448971693452 	101372.5462472944
-0.7845345345345348 	300.0380647056143 	0.1099956155459701 	101370.0063589023
-0.7820320320320323 	300.0351867179766 	0.1017178817005244 	101366.6029638043
-0.7795295295295296 	300.031652817753 	0.09151062127289483 	101362.424159395
-0.7770270270270272 	300.0275099939431 	0.07949611961385608 	101357.5253086026
-0.7745245245245247 	300.0228446859329 	0.06598730850688088 	101352.0089640065
-0.7720220220220222 	300.0177499077065 	0.05125541366728912 	101345.9850106043
-0.7695195195195199 	300.012340513069 	0.03563103776462192 	101339.58921085
-0.767017017017017 	300.0067179493773 	0.01945062749533507 	101332.9417827015
-0.7645145145145147 	300.0010274893863 	0.005888980214212026 	101326.2142860661
-0.7620120120120122 	299.9953215534453 	0.0135946900711068 	101319.4689297164
-0.7595095095095097 	299.9896754144397 	0.02990041682420322 	101312.794555898
-0.7570070070070072 	299.9842019913289 	0.04572851282386656 	101306.3245406696
-0.7545045045045048 	299.9790133885188 	0.06072210040299884 	101300.1915541484
-0.7520020020020022 	299.9742102912635 	0.07460509695088778 	101294.5143808851
-0.7494994994994997 	299.9698802008944 	0.08712883720285944 	101289.3965679638
-0.7469969969969972 	299.9661085519924 	0.0979845767552605 	101284.9389364639
-0.7444944944944945 	299.9629839177376 	0.1070145979581744 	101281.2459958012
-0.7419919919919924 	299.9605676827649 	0.1139933587475928 	101278.3903978794
-0.7394894894894897 	299.9588991180088 	0.1188089796963227 	101276.4183201444
-0.7369869869869872 	299.9579965206096 	0.1214405711704211 	101275.3515790593
-0.7344844844844846 	299.9578643202402 	0.1217980231532028 	101275.1953962692
-0.7319819819819822 	299.9585031462562 	0.1199606633628092 	101275.9502413223
-0.7294794794794797 	299.9599086815813 	0.1159103450572977 	101277.6112194482
-0.7269769769769773 	299.9620481256351 	0.1097034659367149 	101280.1395347446
-0.7244744744744747 	299.9648866813251 	0.1014931614009646 	101283.4941528822
-0.721971971971972 	299.9683792109156 	0.09136052304011362 	101287.6218739632
-0.7194694694694695 	299.9724579100995 	0.07958445880696891 	101292.4423964516
-0.7169669669669674 	299.9770349970032 	0.06634745311783483 	101297.8521879858
-0.7144644644644647 	299.9820145091629 	0.05195077636802274 	101303.7378935004
-0.711961961961962 	299.987278650154 	0.03674994026318366 	101309.9602711461
-0.7094594594594597 	299.9927328259291 	0.02096095450695832 	101316.4077017267
-0.7069569569569573 	299.9982801397201 	0.004961944164645333 	101322.9654148906
-0.7044544544544545 	300.0038420722698 	0.01139853497220773 	101329.5407068686
-0.7019519519519523 	300.0093611221859 	0.02715296857236551 	101336.0656782317
-0.6994494494494495 	300.0147500121464 	0.04268817084564073 	101342.4370065752
-0.6969469469469471 	300.0198964972997 	0.05760005439596937 	101348.5221417993
-0.6944444444444446 	300.0247192315742 	0.07149209353643173 	101354.2246273045
-0.6919419419419421 	300.0291029717947 	0.08416867767874475 	101359.4082139081
-0.6894394394394396 	300.0329585430607 	0.09535826833028774 	101363.967506366
-0.6869369369369374 	300.0362166152831 	0.1047221979911956 	101367.8203062061
-0.6844344344344344 	300.0388173831685 	0.1122156868684951 	101370.8960329823
-0.6819319319319321 	300.0406971932753 	0.1176354512886493 	101373.1191299412
-0.6794294294294296 	300.0418390860306 	0.1209321524975842 	101374.4695470682
-0.6769269269269272 	300.0421988010146 	0.1220193750011686 	101374.8950113267
-0.6744244244244245 	300.0417738180534 	0.1207659872952233 	101374.3924045239
-0.6719219219219222 	300.0405712993946 	0.1172717855020356 	101372.9705199308
-0.6694194194194195 	300.0386043883809 	0.1115454274868524 	101370.6445789135
-0.6669169169169172 	300.0358912978656 	0.1037610547145814 	101367.4362004116
-0.6644144144144146 	300.0325156176061 	0.09401123847493337 	101363.4444342286
-0.661911911911912 	300.028517304423 	0.08239800435014796 	101358.7164669549
-0.6594094094094097 	300.0239807804844 	0.06927310794018493 	101353.3523713073
-0.656906906906907 	300.0189928868886 	0.05481991880783436 	101347.4547016358
-0.6544044044044046 	300.0136497082184 	0.03942129604515886 	101341.1371452773
-0.6519019019019021 	300.0080569155281 	0.02335862557846654 	101334.5248169613
-0.6493993993993996 	300.0023772623931 	0.006842259078608845 	101327.8100544611
-0.6468968968968971 	299.9966652243111 	0.01101544727069725 	101321.0574241639
-0.6443943943943946 	299.9909882524386 	0.02610914655420503 	101314.3465050865
-0.6418918918918921 	299.9854599210249 	0.04210238968404991 	101307.8115236485
-0.6393893893893897 	299.9801939385866 	0.05730592824234722 	101301.5869892303
-0.6368868868868871 	299.9752968418236 	0.07145949406357152 	101295.798687839
-0.6343843843843846 	299.9708586937295 	0.08426624223325808 	101290.5531310377
-0.6318818818818821 	299.9669711951665 	0.09546589253721303 	101285.9585256565
-0.6293793793793795 	299.9637172415028 	0.1048938963721245 	101282.1127272443
-0.6268768768768773 	299.9611516383737 	0.1123107176325048 	101279.0805664206
-0.6243743743743745 	299.9593110207899 	0.117622024547738 	101276.9050982228
-0.6218718718718721 	299.958228192324 	0.120762377321336 	101275.6252972766
-0.6193693693693696 	299.957916815843 	0.1216426859383755 	101275.2574595029
-0.6168668668668671 	299.9583861412476 	0.1203156979029929 	101275.8120303063
-0.6143643643643645 	299.9596234132177 	0.1167322201892671 	101277.2741452147
-0.6118618618618621 	299.9615968894971 	0.1109854114063959 	101279.6063196646
-0.6093593593593596 	299.964275309992 	0.1032181832607079 	101282.771692916
-0.6068568568568571 	299.9676254739132 	0.0935179787021512 	101286.7311276499
-0.6043543543543546 	299.9715754931341 	0.08214148602967256 	101291.399504715
-0.6018518518518521 	299.9760409473085 	0.06922752713593658 	101296.6773234554
-0.5993493493493496 	299.980918741076 	0.055115575549251 	101302.4427324522
-0.5968468468468471 	299.9861010259397 	0.04015487748597259 	101308.5683274278
-0.5943443443443446 	299.9914914777199 	0.02456614793281882 	101314.9403577767
-0.591841841841842 	299.9969944141479 	0.008724071955737567 	101321.4454946132
-0.5893393393393397 	300.0025133515924 	0.009662977698346181 	101327.9699196611
-0.5868368368368371 	300.0080217115572 	0.02331241159192227 	101334.4821424762
-0.5843343343343346 	300.0134325376886 	0.03891512943625644 	101340.8793683442
-0.5818318318318321 	300.0186354282561 	0.05397783052948311 	101347.0311361627
-0.5793293293293297 	300.0235353052495 	0.06806464444434131 	101352.8247160036
-0.5768268268268271 	300.0280097346701 	0.08102494120809936 	101358.1155300625
-0.5743243243243245 	300.0319828599293 	0.09255806118066505 	101362.8137498024
-0.5718218218218221 	300.0353904445613 	0.1023103901741288 	101366.8433611513
-0.5693193193193196 	300.0381556899601 	0.1102959009020241 	101370.1135831791
-0.5668168168168171 	300.040220735937 	0.1162415704487995 	101372.5556598852
-0.5643143143143147 	300.0415563105774 	0.1201199131523304 	101374.1351686551
-0.5618118118118121 	300.042114080919 	0.1218095117799663 	101374.7948354798
-0.5593093093093094 	300.0418925582267 	0.1211128603606657 	101374.5328605409
-0.5568068068068072 	300.0408906271473 	0.1181849891334734 	101373.348194947
-0.5543043043043046 	300.0390993409289 	0.1129824964140806 	101371.2298840535
-0.551801801801802 	300.036558993676 	0.1056921115915708 	101368.2258252439
-0.5492992992992995 	300.0333417753967 	0.09639566830243072 	101364.4213835191
-0.5467967967967969 	300.0294850326462 	0.08516755682344375 	101359.8608358391
-0.5442942942942947 	300.0250695797819 	0.07240742857742784 	101354.6398644832
-0.5417917917917919 	300.0201809864923 	0.05822971469206303 	101348.859502913
-0.5392892892892895 	300.0148979029743 	0.04305909436179745 	101342.6129803849
-0.536786786786787 	300.0093587931802 	0.02713043386222893 	101336.0640135255
-0.5342842842842846 	300.0036961474505 	0.01063661053350716 	101329.3693456729
-0.531781781781782 	299.997982639525 	0.008905090511577424 	101322.6148938891
-0.5292792792792794 	299.9922831735166 	0.02237374044635336 	101315.8772714519
-0.526776776776777 	299.9867133398203 	0.03849741616793905 	101309.2931941488
-0.5242742742742745 	299.981382429587 	0.05385944715644186 	101302.9918098909
-0.521771771771772 	299.9764088854287 	0.06826496628167457 	101297.1131519766
-0.5192692692692695 	299.9718699598481 	0.08133282589489045 	101291.7484200008
-0.516766766766767 	299.9678678115917 	0.0928912229649517 	101287.018259901
-0.5142642642642645 	299.9644821528065 	0.1027171055785966 	101283.0167938112
-0.511761761761762 	299.9617700584692 	0.1105424786154927 	101279.8114623794
-0.5092592592592596 	299.9597587120447 	0.1163435973932291 	101277.4343789666
-0.506756756756757 	299.9585058191669 	0.1199657292607576 	101275.953586348
-0.5042542542542544 	299.9580183830794 	0.1213734556119312 	101275.3775942132
-0.5017517517517521 	299.9583235777062 	0.1205379163200217 	101275.7381506907
-0.4992492492492494 	299.9593966467978 	0.1173945505421927 	101277.0062030784
-0.496746746746747 	299.9612095549101 	0.1121244459399718 	101279.1486456215
-0.4942442442442445 	299.9637184547885 	0.1048188552673562 	101282.1136375102
-0.4917417417417421 	299.9669121420752 	0.09562235353986058 	101285.8881407713
-0.4892392392392395 	299.97070449997 	0.08471289367022213 	101290.3701133259
-0.486736736736737 	299.9750344530926 	0.0721648234788866 	101295.4877441107
-0.4842342342342345 	299.9797981881518 	0.05837196232854083 	101301.1182958502
-0.481731731731732 	299.984904961832 	0.04363159899502053 	101307.1545602451
-0.4792292292292296 	299.9902407253518 	0.02820694943795645 	101313.4619048717
-0.4767267267267268 	299.995718568335 	0.01247325237220796 	101319.9372727821
-0.4742242242242246 	300.001200073066 	0.007114772337164638 	101326.4173851189
-0.471721721721722 	300.0066915643694 	0.01947042434144324 	101332.9096006684
-0.4692192192192195 	300.0121100137954 	0.03509336997410838 	101339.3157615906
-0.4667167167167169 	300.0173547201861 	0.0502537083227519 	101345.5169241488
-0.4642142142142145 	300.0223171544391 	0.06450780402277337 	101351.3843647132
-0.461711711711712 	300.0268806292551 	0.07773600525686492 	101356.7804319987
-0.4592092092092094 	300.0309731344797 	0.0895980687486097 	101361.619781599
-0.456706706706707 	300.0345260156783 	0.09975951474567737 	101365.8211689304
-0.4542042042042045 	300.0374498789959 	0.1082428841578962 	101369.2789599444
-0.451701701701702 	300.0396979476163 	0.1147199640314771 	101371.9374210482
-0.4491991991991995 	300.0412220949189 	0.1191786884509703 	101373.7399476866
-0.4466966966966969 	300.0419802162255 	0.1214473713721875 	101374.6365689553
-0.4441941941941945 	300.0419633545508 	0.1213125640144446 	101374.616627495
-0.441691691691692 	300.0411603848502 	0.118947178014925 	101373.6672263332
-0.4391891891891895 	300.0395487493452 	0.11426904115257 	101371.7613467804
-0.436686686686687 	300.0371902386619 	0.1074773379741524 	101368.9723438438
-0.4341841841841846 	300.0341317163353 	0.09863698398594258 	101365.3555299731
-0.431681681681682 	300.0304210749214 	0.0878378982791807 	101360.9677422127
-0.4291791791791794 	300.0261289946587 	0.07546461888257337 	101355.8925909835
-0.426676676676677 	300.0213410084162 	0.0616094257095221 	101350.2311189489
-0.4241741741741744 	300.0161296996533 	0.04665822008009132 	101344.0694398183
-0.421671671671672 	300.0106517367008 	0.03084637439599628 	101337.5926719837
-0.4191691691691694 	300.0050031091847 	0.01442576326297302 	101330.9145343002
-0.4166666666666669 	299.9992904281333 	0.005983225874862646 	101324.1609671981
-0.4141641641641645 	299.9935805238127 	0.01864445965512635 	101317.41091907
-0.411661661661662 	299.9879797344008 	0.0348722554029371 	101310.7902236185
-0.4091591591591594 	299.9825942675011 	0.05039488007380663 	101304.4242471214
-0.406656656656657 	299.9775421342453 	0.06501164724057444 	101298.452677275
-0.4041541541541545 	299.9728981279805 	0.07834398788988867 	101292.9636794963
-0.401651651651652 	299.9687790411629 	0.09023968364568374 	101288.0952569958
-0.3991491491491494 	299.9652607962041 	0.1004519524063743 	101283.9371103357
-0.396646646646647 	299.9623990903387 	0.1087016799709574 	101280.5548953087
-0.3941441441441444 	299.9602244724397 	0.114975705359266 	101277.9849040137
-0.3916416416416419 	299.9588033543127 	0.1190989368622171 	101276.3052767415
-0.3891391391391395 	299.9581424305089 	0.1210299775063357 	101275.5242171954
-0.3866366366366368 	299.9582823211011 	0.1206980799039325 	101275.6894747
-0.3841341341341344 	299.9591925736743 	0.1180117429645757 	101276.765061504
-0.381631631631632 	299.9608457103254 	0.1131826229989908 	101278.7187281114
-0.3791291291291294 	299.9631985439547 	0.1063006560662216 	101281.4992563568
-0.3766266266266269 	299.9662458269443 	0.09755380916287168 	101285.1006842021
-0.3741241241241244 	299.9698867898273 	0.08705868147182297 	101289.4037432477
-0.371621621621622 	299.9740823678086 	0.07487450895580358 	101294.3624563292
-0.3691191191191194 	299.9787242730065 	0.06144248114185564 	101299.8490141243
-0.366616616616617 	299.9837405534042 	0.04696519186418482 	101305.7782470169
-0.3641141141141143 	299.9890158748908 	0.03177416548509124 	101312.0140479065
-0.3616116116116119 	299.9944678050683 	0.01616134419323869 	101318.4587486136
-0.3591091091091095 	299.9999118558562 	0.003782307871310086 	101324.8944785718
-0.356606606606607 	300.0053752671655 	0.01565812216574194 	101331.353460627
-0.3541041041041044 	300.0107894497334 	0.03130103867308572 	101337.7545030779
-0.3516016016016019 	300.0160656809969 	0.04654770377471788 	101343.9928403135
-0.3490990990990994 	300.0210814752293 	0.0609863296817382 	101349.9233240193
-0.346596596596597 	300.0257311642727 	0.07447414896389305 	101355.4212740683
-0.3440940940940944 	300.0299403105925 	0.08663101255702416 	101360.398501928
-0.3415915915915919 	300.0336317936687 	0.09717343103037382 	101364.763772227
-0.3390890890890895 	300.036707062836 	0.1060965910374946 	101368.4005572584
-0.3365865865865869 	300.0391278440259 	0.1130587296148628 	101371.2632477048
-0.3340840840840844 	300.0408293549779 	0.1180553578908989 	101373.2755312128
-0.3315815815815819 	300.0417827343707 	0.1208776497925257 	101374.4030411469
-0.3290790790790794 	300.0419659555024 	0.1213178429371985 	101374.6197783683
-0.3265765765765769 	300.0413594284815 	0.119555061412899 	101373.902615688
-0.3240740740740744 	300.0399400164891 	0.1154563490394284 	101372.2240645907
-0.3215715715715718 	300.0377786195708 	0.1092021862920199 	101369.6681828682
-0.3190690690690695 	300.0348928039992 	0.1008524612643241 	101366.2555518423
-0.3165665665665668 	300.0313424960422 	0.09049542378164675 	101362.0573745194
-0.3140640640640644 	300.0271844713715 	0.07850135283508765 	101357.1406800074
-0.311561561561562 	300.0225026545379 	0.06495504035724711 	101351.6046769634
-0.3090590590590593 	300.0173738831482 	0.0502334207016487 	101345.5405651042
-0.3065565565565568 	300.0119560504416 	0.03457199984164957 	101339.1347832948
-0.3040540540540545 	300.0063241048648 	0.01825043742250015 	101332.4763439844
-0.3015515515515518 	300.0006134668617 	0.002159305721429563 	101325.7250944954
-0.2990490490490494 	299.9948947240742 	0.01481315480914415 	101318.9645070426
-0.2965465465465469 	299.9892641016233 	0.0311224141953784 	101312.3085118724
-0.2940440440440444 	299.9838292819594 	0.0468071981668356 	101305.8840923158
-0.2915415415415418 	299.9787027968539 	0.06165202623431287 	101299.8246311512
-0.2890390390390395 	299.9739628008003 	0.07526960305499503 	101294.2220978524