/*--------------------------------*- C++ -*----------------------------------*\
  =========                 |
  \\      /  F ield         | OpenFOAM: The Open Source CFD Toolbox
   \\    /   O peration     | Website:  https://openfoam.org
    \\  /    A nd           | Version:  7
     \\/     M anipulation  |
\*---------------------------------------------------------------------------*/
FoamFile
{
    version     2.0;
    format      ascii;
    class       surfaceScalarField;
    location    "0.00317";
    object      phi;
}
// * * * * * * * * * * * * * * * * * * * * * * * * * * * * * * * * * * * * * //

dimensions      [1 0 -1 0 0 0 0];

internalField   nonuniform List<scalar> 
4999
(
0.0037604937
0.0037604789
0.0037604652
0.0037604514
0.0037604373
0.0037604232
0.0037604089
0.0037603945
0.00376038
0.0037603655
0.003760351
0.0037603364
0.0037603218
0.0037603073
0.0037602927
0.0037602781
0.0037602635
0.003760249
0.0037602344
0.0037602199
0.0037602053
0.0037601908
0.0037601763
0.0037601618
0.0037601473
0.0037601328
0.0037601183
0.0037601038
0.0037600894
0.0037600749
0.0037600605
0.0037600461
0.0037600317
0.0037600173
0.0037600029
0.0037599885
0.0037599742
0.0037599598
0.0037599455
0.0037599311
0.0037599168
0.0037599025
0.0037598882
0.003759874
0.0037598597
0.0037598454
0.0037598312
0.003759817
0.0037598028
0.0037597886
0.0037597744
0.0037597602
0.0037597461
0.0037597319
0.0037597178
0.0037597037
0.0037596896
0.0037596755
0.0037596614
0.0037596473
0.0037596333
0.0037596192
0.0037596052
0.0037595912
0.0037595772
0.0037595632
0.0037595493
0.0037595353
0.0037595214
0.0037595075
0.0037594936
0.0037594798
0.0037594659
0.0037594521
0.0037594382
0.0037594244
0.0037594106
0.0037593969
0.0037593831
0.0037593694
0.0037593556
0.0037593419
0.0037593282
0.0037593146
0.0037593009
0.0037592873
0.0037592737
0.0037592601
0.0037592465
0.0037592329
0.0037592194
0.0037592059
0.0037591924
0.0037591789
0.0037591654
0.003759152
0.0037591385
0.0037591251
0.0037591117
0.0037590983
0.0037590849
0.0037590716
0.0037590583
0.003759045
0.0037590317
0.0037590184
0.0037590052
0.0037589919
0.0037589787
0.0037589655
0.0037589524
0.0037589392
0.0037589261
0.0037589129
0.0037588999
0.0037588868
0.0037588737
0.0037588607
0.0037588477
0.0037588347
0.0037588217
0.0037588087
0.0037587958
0.0037587829
0.00375877
0.0037587571
0.0037587442
0.0037587314
0.0037587185
0.0037587057
0.0037586929
0.0037586802
0.0037586674
0.0037586547
0.003758642
0.0037586293
0.0037586166
0.0037586039
0.0037585912
0.0037585786
0.003758566
0.0037585534
0.0037585408
0.0037585282
0.0037585157
0.0037585032
0.0037584907
0.0037584781
0.0037584657
0.0037584532
0.0037584407
0.0037584283
0.0037584159
0.0037584035
0.003758391
0.0037583787
0.0037583663
0.0037583539
0.0037583416
0.0037583293
0.003758317
0.0037583046
0.0037582924
0.0037582801
0.0037582678
0.0037582556
0.0037582433
0.0037582311
0.0037582189
0.0037582067
0.0037581945
0.0037581823
0.0037581701
0.0037581579
0.0037581457
0.0037581336
0.0037581214
0.0037581093
0.0037580971
0.003758085
0.0037580728
0.0037580607
0.0037580485
0.0037580364
0.0037580242
0.0037580121
0.0037579999
0.0037579878
0.0037579756
0.0037579634
0.0037579513
0.0037579391
0.0037579269
0.0037579147
0.0037579025
0.0037578902
0.003757878
0.0037578657
0.0037578535
0.0037578412
0.0037578289
0.0037578166
0.0037578043
0.0037577919
0.0037577795
0.0037577671
0.0037577547
0.0037577423
0.0037577299
0.0037577174
0.0037577049
0.0037576924
0.0037576798
0.0037576673
0.0037576547
0.0037576421
0.0037576295
0.0037576168
0.0037576042
0.0037575915
0.0037575787
0.003757566
0.0037575532
0.0037575404
0.0037575276
0.0037575148
0.0037575019
0.003757489
0.0037574761
0.0037574632
0.0037574502
0.0037574372
0.0037574242
0.0037574112
0.0037573982
0.0037573851
0.003757372
0.0037573589
0.0037573458
0.0037573327
0.0037573195
0.0037573064
0.0037572932
0.00375728
0.0037572667
0.0037572535
0.0037572403
0.003757227
0.0037572137
0.0037572004
0.0037571871
0.0037571738
0.0037571605
0.0037571472
0.0037571338
0.0037571205
0.0037571071
0.0037570937
0.0037570804
0.003757067
0.0037570536
0.0037570402
0.0037570268
0.0037570133
0.0037569999
0.0037569865
0.003756973
0.0037569596
0.0037569462
0.0037569327
0.0037569192
0.0037569058
0.0037568923
0.0037568788
0.0037568654
0.0037568519
0.0037568384
0.0037568249
0.0037568114
0.0037567979
0.0037567845
0.003756771
0.0037567575
0.003756744
0.0037567305
0.003756717
0.0037567035
0.00375669
0.0037566765
0.003756663
0.0037566495
0.003756636
0.0037566225
0.0037566089
0.0037565954
0.0037565819
0.0037565684
0.0037565549
0.0037565414
0.0037565279
0.0037565144
0.003756501
0.0037564875
0.003756474
0.0037564605
0.003756447
0.0037564335
0.00375642
0.0037564066
0.0037563931
0.0037563796
0.0037563661
0.0037563527
0.0037563392
0.0037563258
0.0037563123
0.0037562989
0.0037562854
0.003756272
0.0037562586
0.0037562451
0.0037562317
0.0037562183
0.0037562049
0.0037561915
0.0037561781
0.0037561647
0.0037561513
0.003756138
0.0037561246
0.0037561112
0.0037560979
0.0037560845
0.0037560712
0.0037560579
0.0037560445
0.0037560312
0.0037560179
0.0037560046
0.0037559913
0.0037559781
0.0037559648
0.0037559515
0.0037559383
0.003755925
0.0037559118
0.0037558986
0.0037558854
0.0037558722
0.003755859
0.0037558458
0.0037558326
0.0037558194
0.0037558063
0.0037557931
0.00375578
0.0037557669
0.0037557538
0.0037557407
0.0037557276
0.0037557145
0.0037557014
0.0037556883
0.0037556753
0.0037556623
0.0037556492
0.0037556362
0.0037556232
0.0037556102
0.0037555972
0.0037555842
0.0037555713
0.0037555583
0.0037555454
0.0037555325
0.0037555196
0.0037555066
0.0037554938
0.0037554809
0.003755468
0.0037554551
0.0037554423
0.0037554295
0.0037554166
0.0037554038
0.003755391
0.0037553782
0.0037553655
0.0037553527
0.0037553399
0.0037553272
0.0037553145
0.0037553018
0.003755289
0.0037552764
0.0037552637
0.003755251
0.0037552383
0.0037552257
0.0037552131
0.0037552005
0.0037551878
0.0037551752
0.0037551627
0.0037551501
0.0037551375
0.003755125
0.0037551125
0.0037550999
0.0037550874
0.0037550749
0.0037550625
0.00375505
0.0037550375
0.0037550251
0.0037550127
0.0037550002
0.0037549878
0.0037549755
0.0037549631
0.0037549507
0.0037549384
0.003754926
0.0037549137
0.0037549014
0.0037548892
0.0037548769
0.0037548646
0.0037548524
0.0037548402
0.003754828
0.0037548158
0.0037548036
0.0037547914
0.0037547793
0.0037547672
0.0037547551
0.003754743
0.0037547309
0.0037547189
0.0037547069
0.0037546949
0.0037546829
0.0037546709
0.003754659
0.0037546471
0.0037546352
0.0037546233
0.0037546114
0.0037545996
0.0037545878
0.003754576
0.0037545642
0.0037545525
0.0037545408
0.0037545291
0.0037545174
0.0037545058
0.0037544942
0.0037544826
0.003754471
0.0037544595
0.003754448
0.0037544365
0.003754425
0.0037544136
0.0037544022
0.0037543908
0.0037543795
0.0037543682
0.0037543569
0.0037543457
0.0037543344
0.0037543233
0.0037543121
0.003754301
0.0037542899
0.0037542788
0.0037542678
0.0037542568
0.0037542458
0.0037542349
0.003754224
0.0037542131
0.0037542023
0.0037541915
0.0037541808
0.0037541701
0.0037541594
0.0037541487
0.0037541381
0.0037541275
0.003754117
0.0037541065
0.003754096
0.0037540856
0.0037540752
0.0037540648
0.0037540545
0.0037540442
0.003754034
0.0037540238
0.0037540136
0.0037540035
0.0037539934
0.0037539833
0.0037539733
0.0037539633
0.0037539534
0.0037539435
0.0037539337
0.0037539239
0.0037539141
0.0037539043
0.0037538947
0.003753885
0.0037538754
0.0037538658
0.0037538563
0.0037538468
0.0037538374
0.003753828
0.0037538186
0.0037538093
0.0037538
0.0037537908
0.0037537816
0.0037537725
0.0037537633
0.0037537543
0.0037537453
0.0037537363
0.0037537273
0.0037537184
0.0037537096
0.0037537008
0.003753692
0.0037536833
0.0037536746
0.0037536659
0.0037536573
0.0037536487
0.0037536402
0.0037536317
0.0037536232
0.0037536148
0.0037536064
0.0037535981
0.0037535898
0.0037535815
0.0037535733
0.0037535651
0.0037535569
0.0037535488
0.0037535407
0.0037535327
0.0037535247
0.0037535167
0.0037535088
0.0037535009
0.0037534931
0.0037534853
0.0037534775
0.0037534697
0.003753462
0.0037534544
0.0037534467
0.0037534391
0.0037534315
0.003753424
0.0037534165
0.003753409
0.0037534016
0.0037533942
0.0037533868
0.0037533795
0.0037533722
0.0037533649
0.0037533577
0.0037533504
0.0037533433
0.0037533361
0.003753329
0.0037533219
0.0037533149
0.0037533078
0.0037533008
0.0037532939
0.0037532869
0.00375328
0.0037532731
0.0037532663
0.0037532594
0.0037532526
0.0037532459
0.0037532391
0.0037532324
0.0037532257
0.003753219
0.0037532123
0.0037532057
0.0037531991
0.0037531925
0.0037531859
0.0037531794
0.0037531729
0.0037531664
0.0037531599
0.0037531534
0.003753147
0.0037531405
0.0037531341
0.0037531277
0.0037531214
0.003753115
0.0037531087
0.0037531023
0.003753096
0.0037530897
0.0037530835
0.0037530772
0.003753071
0.0037530648
0.0037530585
0.0037530523
0.0037530462
0.00375304
0.0037530338
0.0037530277
0.0037530216
0.0037530154
0.0037530093
0.0037530032
0.0037529971
0.0037529911
0.003752985
0.0037529789
0.0037529729
0.0037529668
0.0037529608
0.0037529548
0.0037529487
0.0037529427
0.0037529367
0.0037529307
0.0037529247
0.0037529188
0.0037529128
0.0037529068
0.0037529008
0.0037528949
0.0037528889
0.003752883
0.0037528771
0.0037528711
0.0037528652
0.0037528593
0.0037528533
0.0037528474
0.0037528415
0.0037528356
0.0037528297
0.0037528238
0.003752818
0.0037528121
0.0037528062
0.0037528004
0.0037527945
0.0037527887
0.0037527829
0.003752777
0.0037527712
0.0037527653
0.0037527595
0.0037527537
0.0037527479
0.0037527421
0.0037527363
0.0037527305
0.0037527247
0.0037527189
0.0037527132
0.0037527074
0.0037527016
0.0037526959
0.0037526901
0.0037526844
0.0037526787
0.0037526729
0.0037526672
0.0037526615
0.0037526558
0.0037526501
0.0037526444
0.0037526387
0.0037526331
0.0037526275
0.0037526218
0.0037526161
0.0037526104
0.0037526048
0.0037525991
0.0037525935
0.0037525878
0.0037525822
0.0037525766
0.003752571
0.0037525654
0.0037525598
0.0037525542
0.0037525486
0.003752543
0.0037525375
0.0037525319
0.0037525263
0.0037525208
0.0037525152
0.0037525097
0.0037525042
0.0037524986
0.0037524931
0.0037524876
0.0037524821
0.0037524766
0.0037524711
0.0037524656
0.0037524601
0.0037524547
0.0037524492
0.0037524438
0.0037524383
0.0037524329
0.0037524274
0.003752422
0.0037524166
0.0037524112
0.0037524058
0.0037524004
0.003752395
0.0037523897
0.0037523843
0.003752379
0.0037523737
0.0037523684
0.0037523631
0.0037523578
0.0037523525
0.0037523473
0.003752342
0.0037523368
0.0037523316
0.0037523264
0.0037523212
0.0037523161
0.0037523109
0.0037523058
0.0037523007
0.0037522956
0.0037522905
0.0037522854
0.0037522804
0.0037522753
0.0037522703
0.0037522653
0.0037522603
0.0037522554
0.0037522504
0.0037522455
0.0037522406
0.0037522357
0.0037522308
0.0037522259
0.0037522211
0.0037522162
0.0037522114
0.0037522066
0.0037522019
0.0037521971
0.0037521924
0.0037521876
0.0037521829
0.0037521782
0.0037521736
0.0037521689
0.0037521643
0.0037521597
0.0037521551
0.0037521505
0.003752146
0.0037521414
0.0037521369
0.0037521324
0.003752128
0.0037521235
0.0037521191
0.0037521147
0.0037521103
0.0037521059
0.0037521015
0.0037520972
0.0037520929
0.0037520886
0.0037520844
0.0037520802
0.003752076
0.0037520718
0.0037520677
0.0037520636
0.0037520595
0.0037520555
0.0037520515
0.0037520475
0.0037520435
0.0037520396
0.0037520357
0.0037520318
0.003752028
0.0037520241
0.0037520203
0.0037520165
0.0037520128
0.003752009
0.0037520053
0.0037520016
0.0037519979
0.0037519943
0.0037519907
0.0037519871
0.0037519835
0.00375198
0.0037519764
0.0037519729
0.0037519695
0.003751966
0.0037519626
0.0037519592
0.0037519558
0.0037519525
0.0037519492
0.0037519459
0.0037519426
0.0037519393
0.0037519361
0.0037519329
0.0037519297
0.0037519265
0.0037519234
0.0037519203
0.0037519172
0.0037519141
0.0037519111
0.0037519081
0.0037519051
0.0037519021
0.0037518992
0.0037518963
0.0037518935
0.0037518906
0.0037518878
0.003751885
0.0037518823
0.0037518796
0.0037518769
0.0037518742
0.0037518716
0.0037518689
0.0037518664
0.0037518638
0.0037518613
0.0037518588
0.0037518563
0.0037518539
0.0037518515
0.0037518491
0.0037518468
0.0037518445
0.0037518422
0.00375184
0.0037518378
0.0037518356
0.0037518334
0.0037518313
0.0037518292
0.0037518271
0.0037518251
0.0037518231
0.0037518211
0.0037518192
0.0037518173
0.0037518155
0.0037518136
0.0037518118
0.0037518101
0.0037518083
0.0037518066
0.0037518049
0.0037518033
0.0037518016
0.0037518
0.0037517985
0.0037517969
0.0037517954
0.003751794
0.0037517925
0.0037517911
0.0037517897
0.0037517884
0.003751787
0.0037517857
0.0037517845
0.0037517832
0.003751782
0.0037517809
0.0037517797
0.0037517786
0.0037517775
0.0037517764
0.0037517754
0.0037517744
0.0037517734
0.0037517725
0.0037517716
0.0037517707
0.0037517699
0.0037517691
0.0037517683
0.0037517676
0.0037517669
0.0037517662
0.0037517656
0.0037517649
0.0037517644
0.0037517638
0.0037517633
0.0037517628
0.0037517624
0.003751762
0.0037517616
0.0037517612
0.0037517609
0.0037517606
0.0037517604
0.0037517601
0.00375176
0.0037517598
0.0037517597
0.0037517596
0.0037517595
0.0037517595
0.0037517595
0.0037517595
0.0037517596
0.0037517597
0.0037517598
0.00375176
0.0037517601
0.0037517603
0.0037517606
0.0037517609
0.0037517612
0.0037517615
0.0037517619
0.0037517623
0.0037517627
0.0037517632
0.0037517637
0.0037517642
0.0037517648
0.0037517654
0.003751766
0.0037517667
0.0037517673
0.0037517681
0.0037517688
0.0037517696
0.0037517704
0.0037517712
0.0037517721
0.003751773
0.003751774
0.003751775
0.003751776
0.003751777
0.0037517781
0.0037517792
0.0037517803
0.0037517815
0.0037517827
0.0037517839
0.0037517852
0.0037517865
0.0037517878
0.0037517892
0.0037517906
0.003751792
0.0037517935
0.0037517949
0.0037517965
0.003751798
0.0037517996
0.0037518012
0.0037518028
0.0037518045
0.0037518062
0.0037518079
0.0037518097
0.0037518114
0.0037518132
0.0037518151
0.0037518169
0.0037518188
0.0037518208
0.0037518227
0.0037518247
0.0037518267
0.0037518288
0.0037518308
0.0037518329
0.003751835
0.0037518372
0.0037518393
0.0037518415
0.0037518438
0.003751846
0.0037518483
0.0037518506
0.0037518529
0.0037518553
0.0037518577
0.0037518601
0.0037518626
0.0037518651
0.0037518676
0.0037518701
0.0037518727
0.0037518752
0.0037518778
0.0037518805
0.0037518831
0.0037518858
0.0037518885
0.0037518913
0.003751894
0.0037518968
0.0037518996
0.0037519025
0.0037519053
0.0037519082
0.0037519112
0.0037519141
0.0037519171
0.0037519201
0.0037519231
0.0037519261
0.0037519292
0.0037519323
0.0037519354
0.0037519386
0.0037519417
0.0037519449
0.0037519482
0.0037519514
0.0037519547
0.003751958
0.0037519613
0.0037519647
0.003751968
0.0037519714
0.0037519748
0.0037519783
0.0037519818
0.0037519853
0.0037519888
0.0037519924
0.0037519959
0.0037519995
0.0037520032
0.0037520068
0.0037520105
0.0037520143
0.003752018
0.0037520218
0.0037520256
0.0037520294
0.0037520333
0.0037520371
0.003752041
0.003752045
0.0037520489
0.0037520529
0.0037520569
0.003752061
0.0037520651
0.0037520692
0.0037520733
0.0037520775
0.0037520817
0.0037520859
0.0037520901
0.0037520944
0.0037520987
0.0037521031
0.0037521075
0.0037521119
0.0037521163
0.0037521207
0.0037521252
0.0037521297
0.0037521342
0.0037521387
0.0037521433
0.0037521479
0.0037521525
0.0037521571
0.0037521617
0.0037521664
0.0037521711
0.0037521758
0.0037521807
0.0037521856
0.0037521905
0.0037521955
0.0037522005
0.0037522056
0.0037522106
0.0037522157
0.0037522208
0.0037522259
0.0037522311
0.0037522363
0.0037522415
0.0037522467
0.003752252
0.0037522573
0.0037522627
0.0037522681
0.0037522735
0.003752279
0.0037522845
0.0037522901
0.0037522957
0.0037523014
0.003752307
0.0037523128
0.0037523186
0.0037523244
0.0037523302
0.0037523361
0.0037523421
0.0037523481
0.0037523541
0.0037523602
0.0037523664
0.0037523726
0.0037523788
0.0037523852
0.0037523915
0.0037523979
0.0037524044
0.003752411
0.0037524176
0.0037524242
0.0037524309
0.0037524377
0.0037524445
0.0037524514
0.0037524584
0.0037524654
0.0037524724
0.0037524795
0.0037524867
0.0037524939
0.0037525012
0.0037525085
0.0037525159
0.0037525234
0.0037525309
0.0037525385
0.0037525462
0.0037525539
0.0037525616
0.0037525695
0.0037525774
0.0037525853
0.0037525934
0.0037526015
0.0037526096
0.0037526178
0.0037526261
0.0037526345
0.0037526429
0.0037526514
0.0037526599
0.0037526685
0.0037526772
0.0037526859
0.0037526947
0.0037527036
0.0037527125
0.0037527215
0.0037527305
0.0037527396
0.0037527488
0.003752758
0.0037527674
0.0037527767
0.0037527862
0.0037527957
0.0037528052
0.0037528149
0.0037528246
0.0037528344
0.0037528442
0.0037528542
0.0037528642
0.0037528742
0.0037528844
0.0037528946
0.0037529049
0.0037529153
0.0037529257
0.0037529362
0.0037529468
0.0037529575
0.0037529683
0.0037529791
0.00375299
0.003753001
0.0037530121
0.0037530232
0.0037530344
0.0037530457
0.0037530571
0.0037530686
0.0037530801
0.0037530918
0.0037531035
0.0037531153
0.0037531271
0.0037531391
0.0037531511
0.0037531633
0.0037531755
0.0037531878
0.0037532001
0.0037532126
0.0037532252
0.0037532378
0.0037532505
0.0037532634
0.0037532763
0.0037532893
0.0037533024
0.0037533156
0.0037533289
0.0037533423
0.0037533557
0.0037533693
0.003753383
0.0037533968
0.0037534106
0.0037534246
0.0037534387
0.0037534528
0.0037534671
0.0037534815
0.0037534959
0.0037535105
0.0037535252
0.00375354
0.0037535549
0.0037535699
0.003753585
0.0037536003
0.0037536156
0.0037536311
0.0037536466
0.0037536623
0.0037536781
0.0037536939
0.0037537099
0.003753726
0.0037537422
0.0037537585
0.0037537748
0.0037537913
0.0037538079
0.0037538246
0.0037538414
0.0037538584
0.0037538754
0.0037538925
0.0037539098
0.0037539272
0.0037539447
0.0037539624
0.0037539801
0.0037539978
0.0037540155
0.0037540334
0.0037540515
0.0037540697
0.003754088
0.0037541064
0.0037541249
0.0037541436
0.0037541624
0.0037541813
0.0037542003
0.0037542195
0.0037542388
0.0037542583
0.0037542778
0.0037542975
0.0037543174
0.0037543374
0.0037543575
0.0037543777
0.0037543982
0.0037544187
0.0037544394
0.0037544602
0.0037544812
0.0037545023
0.0037545236
0.003754545
0.0037545665
0.0037545882
0.0037546101
0.0037546321
0.0037546542
0.0037546765
0.003754699
0.0037547216
0.0037547443
0.0037547672
0.0037547902
0.0037548134
0.0037548367
0.0037548602
0.0037548838
0.0037549076
0.0037549315
0.0037549556
0.0037549798
0.0037550042
0.0037550288
0.0037550535
0.0037550784
0.0037551035
0.0037551287
0.0037551541
0.0037551796
0.0037552054
0.0037552313
0.0037552574
0.0037552836
0.0037553101
0.0037553367
0.0037553634
0.0037553904
0.0037554175
0.0037554449
0.0037554724
0.0037555001
0.0037555279
0.003755556
0.0037555842
0.0037556127
0.0037556413
0.0037556701
0.0037556991
0.0037557283
0.0037557577
0.0037557873
0.0037558171
0.0037558471
0.0037558773
0.0037559077
0.0037559383
0.003755969
0.003756
0.0037560312
0.0037560626
0.0037560941
0.0037561259
0.0037561579
0.0037561901
0.0037562225
0.003756255
0.0037562878
0.0037563209
0.0037563541
0.0037563875
0.0037564211
0.003756455
0.0037564891
0.0037565233
0.0037565578
0.0037565926
0.0037566275
0.0037566626
0.003756698
0.0037567336
0.0037567694
0.0037568055
0.0037568417
0.0037568782
0.0037569149
0.0037569518
0.0037569889
0.0037570263
0.0037570638
0.0037571016
0.0037571396
0.0037571778
0.0037572162
0.0037572548
0.0037572936
0.0037573327
0.0037573719
0.0037574114
0.0037574511
0.0037574909
0.003757531
0.0037575713
0.0037576119
0.0037576526
0.0037576936
0.0037577348
0.0037577762
0.0037578179
0.0037578597
0.0037579019
0.0037579442
0.0037579868
0.0037580296
0.0037580727
0.003758116
0.0037581595
0.0037582033
0.0037582473
0.0037582915
0.003758336
0.0037583808
0.0037584257
0.0037584709
0.0037585163
0.003758562
0.0037586079
0.003758654
0.0037587004
0.003758747
0.0037587938
0.0037588409
0.0037588882
0.0037589357
0.0037589834
0.0037590314
0.0037590796
0.0037591281
0.0037591767
0.0037592256
0.0037592747
0.0037593241
0.0037593736
0.0037594234
0.0037594734
0.0037595236
0.003759574
0.0037596247
0.0037596755
0.0037597266
0.0037597779
0.0037598295
0.0037598812
0.0037599332
0.0037599854
0.0037600378
0.0037600904
0.0037601432
0.0037601963
0.0037602496
0.0037603031
0.0037603568
0.0037604107
0.0037604649
0.0037605193
0.0037605738
0.0037606287
0.0037606837
0.0037607389
0.0037607943
0.00376085
0.0037609059
0.003760962
0.0037610182
0.0037610747
0.0037611314
0.0037611884
0.0037612455
0.0037613028
0.0037613603
0.0037614181
0.003761476
0.0037615341
0.0037615924
0.003761651
0.0037617097
0.0037617686
0.0037618277
0.003761887
0.0037619465
0.0037620062
0.003762066
0.0037621261
0.0037621863
0.0037622467
0.0037623073
0.0037623681
0.003762429
0.0037624901
0.0037625514
0.0037626128
0.0037626744
0.0037627362
0.0037627981
0.0037628602
0.0037629224
0.0037629848
0.0037630474
0.0037631101
0.0037631729
0.0037632359
0.0037632991
0.0037633623
0.0037634257
0.0037634893
0.0037635529
0.0037636168
0.0037636807
0.0037637447
0.0037638089
0.0037638732
0.0037639376
0.0037640021
0.0037640667
0.0037641314
0.0037641963
0.0037642612
0.0037643262
0.0037643913
0.0037644565
0.0037645217
0.003764587
0.0037646524
0.0037647179
0.0037647834
0.003764849
0.0037649146
0.0037649803
0.003765046
0.0037651118
0.0037651776
0.0037652434
0.0037653092
0.003765375
0.0037654408
0.0037655067
0.0037655725
0.0037656383
0.003765704
0.0037657697
0.0037658354
0.003765901
0.0037659666
0.0037660321
0.0037660975
0.0037661628
0.003766228
0.003766293
0.003766358
0.0037664228
0.0037664874
0.0037665519
0.0037666162
0.0037666803
0.0037667441
0.0037668078
0.0037668712
0.0037669343
0.0037669972
0.0037670597
0.0037671219
0.0037671838
0.0037672454
0.0037673065
0.0037673672
0.0037674275
0.0037674873
0.0037675467
0.0037676055
0.0037676638
0.0037677215
0.0037677787
0.0037678351
0.003767891
0.0037679461
0.0037680004
0.003768054
0.0037681068
0.0037681587
0.0037682097
0.0037682598
0.0037683088
0.0037683569
0.0037684038
0.0037684496
0.0037684941
0.0037685374
0.0037685794
0.00376862
0.0037686592
0.0037686968
0.0037687328
0.0037687672
0.0037687999
0.0037688307
0.0037688596
0.0037688866
0.0037689114
0.0037689341
0.0037689545
0.0037689726
0.0037689882
0.0037690012
0.0037690115
0.003769019
0.0037690235
0.003769025
0.0037690232
0.0037690176
0.0037690082
0.0037689948
0.0037689775
0.003768956
0.0037689301
0.0037688996
0.0037688643
0.0037688242
0.0037687789
0.0037687283
0.003768672
0.00376861
0.0037685418
0.0037684673
0.0037683862
0.0037682981
0.0037682028
0.0037681
0.0037679894
0.0037678705
0.0037677431
0.0037676068
0.0037674612
0.0037673059
0.0037671404
0.0037669644
0.0037667774
0.003766579
0.0037663685
0.0037661456
0.0037659097
0.0037656602
0.0037653966
0.0037651182
0.0037648245
0.0037645148
0.0037641883
0.0037638445
0.0037634826
0.0037631018
0.0037627012
0.0037622802
0.0037618378
0.0037613731
0.0037608852
0.0037603732
0.0037598359
0.0037592724
0.0037586816
0.0037580623
0.0037574133
0.0037567335
0.0037560214
0.0037552759
0.0037544954
0.0037536786
0.003752824
0.00375193
0.0037509949
0.0037500171
0.0037489949
0.0037479263
0.0037468095
0.0037456425
0.0037444233
0.0037431498
0.0037418196
0.0037404305
0.0037389801
0.003737466
0.0037358854
0.0037342357
0.0037325141
0.0037307176
0.0037288434
0.0037268881
0.0037248485
0.0037227213
0.0037205029
0.0037181895
0.0037157775
0.0037132627
0.0037106412
0.0037079086
0.0037050604
0.0037020921
0.0036989988
0.0036957756
0.0036924172
0.0036889182
0.0036852732
0.0036814762
0.0036775212
0.0036734019
0.0036691119
0.0036646444
0.0036599923
0.0036551483
0.0036501049
0.0036448543
0.0036393882
0.0036336981
0.0036277753
0.0036216106
0.0036151946
0.0036085173
0.0036015685
0.0035943377
0.0035868138
0.0035789854
0.0035708405
0.0035623669
0.0035535518
0.003544382
0.0035348435
0.0035249222
0.0035146032
0.0035038711
0.00349271
0.0034811033
0.0034690337
0.0034564835
0.0034434342
0.0034298665
0.0034157606
0.0034010958
0.0033858506
0.003370003
0.0033535297
0.003336407
0.00331861
0.003300113
0.0032808894
0.0032609115
0.0032401507
0.0032185773
0.0031961604
0.0031728681
0.0031486674
0.0031235238
0.0030974017
0.0030702644
0.0030420735
0.0030127895
0.0029823712
0.0029507761
0.0029179601
0.0028838774
0.0028484807
0.0028117209
0.0027735471
0.0027339066
0.0026927448
0.0026500051
0.0026056289
0.0025595556
0.0025117221
0.0024620635
0.0024105121
0.0023569981
0.0023014492
0.0022437903
0.0021839438
0.0021218293
0.0020573636
0.0019904605
0.0019210306
0.0018489817
0.0017742179
0.0016966402
0.0016161461
0.0015326294
0.00144598
0.0013560843
0.0012628245
0.0011660785
0.0010657203
0.00096161905
0.00085363971
0.00074164231
0.00062548205
0.00050500907
0.00038006826
0.00025049909
0.00011613531
-2.3195407e-05
-0.00016767223
-0.00031748319
-0.00047283715
-0.00063401582
-0.00080113128
-0.00097437637
-0.0011539172
-0.0013400342
-0.0015329461
-0.0017328778
-0.0019400764
-0.0021547958
-0.002377296
-0.0026078437
-0.0028467161
-0.0030941996
-0.0033505891
-0.0036161892
-0.0038913147
-0.0041762904
-0.0044714514
-0.0047771437
-0.0050937244
-0.0054215614
-0.0057610347
-0.0061125356
-0.0064764678
-0.0068532472
-0.0072433023
-0.0076470748
-0.0080650194
-0.0084976045
-0.0089453126
-0.0094086404
-0.0098880992
-0.010384215
-0.01089753
-0.011428601
-0.011978002
-0.012546322
-0.013134167
-0.013742161
-0.014370944
-0.015021176
-0.015693532
-0.016388707
-0.017107414
-0.017850387
-0.018618377
-0.019412155
-0.020232513
-0.021080263
-0.021956236
-0.022861286
-0.023796286
-0.024762133
-0.025759742
-0.026790052
-0.027854024
-0.028952641
-0.030086907
-0.03125785
-0.03246652
-0.033713989
-0.035001353
-0.036329729
-0.037700257
-0.039114101
-0.040572446
-0.042076498
-0.043627488
-0.045226668
-0.046875309
-0.048574706
-0.050326175
-0.052131049
-0.053990685
-0.055906456
-0.057879756
-0.059911995
-0.0620046
-0.064159017
-0.066376704
-0.068659134
-0.071007795
-0.073424185
-0.075909814
-0.0784662
-0.081094868
-0.083797353
-0.086575189
-0.089429918
-0.092363078
-0.09537621
-0.098470848
-0.10164852
-0.10491076
-0.10825906
-0.11169493
-0.11521986
-0.1188353
-0.12254269
-0.12634347
-0.13023901
-0.13423068
-0.1383198
-0.14250767
-0.14679552
-0.15118456
-0.15567595
-0.16027079
-0.16497012
-0.16977492
-0.17468613
-0.1797046
-0.18483111
-0.19006636
-0.19541099
-0.20086554
-0.20643046
-0.21210613
-0.2178928
-0.22379066
-0.22979976
-0.23592007
-0.24215144
-0.24849361
-0.2549462
-0.2615087
-0.26818051
-0.27496087
-0.28184891
-0.28884363
-0.2959439
-0.30314844
-0.31045587
-0.31786463
-0.32537307
-0.33297936
-0.34068158
-0.34847764
-0.35636532
-0.36434229
-0.37240605
-0.380554
-0.3887834
-0.39709139
-0.40547498
-0.41393107
-0.42245644
-0.43104775
-0.43970159
-0.4484144
-0.45718256
-0.46600234
-0.47486995
-0.48378149
-0.49273301
-0.50172049
-0.51073986
-0.51978698
-0.52885768
-0.53794776
-0.54705297
-0.55616905
-0.56529173
-0.57441671
-0.58353973
-0.59265653
-0.60176287
-0.61085452
-0.6199273
-0.62897705
-0.63799969
-0.64699117
-0.65594749
-0.66486476
-0.67373911
-0.68256679
-0.69134413
-0.70006752
-0.70873348
-0.71733862
-0.72587965
-0.73435339
-0.74275677
-0.75108683
-0.75934075
-0.76751581
-0.77560942
-0.78361911
-0.79154254
-0.79937751
-0.80712191
-0.81477381
-0.82233136
-0.82979287
-0.83715677
-0.84442161
-0.85158607
-0.85864896
-0.8656092
-0.87246584
-0.87921805
-0.88586511
-0.89240643
-0.89884151
-0.90516996
-0.91139152
-0.91750602
-0.92351338
-0.92941362
-0.93520687
-0.94089333
-0.94647329
-0.95194715
-0.95731534
-0.96257841
-0.96773696
-0.97279167
-0.97774327
-0.98259258
-0.98734045
-0.99198779
-0.99653558
-1.0009848
-1.0053366
-1.009592
-1.0137522
-1.0178183
-1.0217916
-1.0256733
-1.0294647
-1.033167
-1.0367817
-1.0403099
-1.0437531
-1.0471127
-1.0503899
-1.0535863
-1.0567032
-1.0597419
-1.062704
-1.0655908
-1.0684037
-1.0711442
-1.0738136
-1.0764133
-1.0789448
-1.0814094
-1.0838085
-1.0861435
-1.0884158
-1.0906267
-1.0927774
-1.0948695
-1.0969041
-1.0988826
-1.1008063
-1.1026763
-1.104494
-1.1062607
-1.1079774
-1.1096455
-1.1112661
-1.1128403
-1.1143693
-1.1158542
-1.1172962
-1.1186962
-1.1200555
-1.1213749
-1.1226557
-1.1238986
-1.1251049
-1.1262753
-1.1274109
-1.1285125
-1.1295812
-1.1306178
-1.1316231
-1.1325981
-1.1335434
-1.1344601
-1.1353488
-1.1362103
-1.1370455
-1.137855
-1.1386395
-1.1393998
-1.1401366
-1.1408505
-1.1415422
-1.1422123
-1.1428615
-1.1434904
-1.1440995
-1.1446895
-1.1452608
-1.1458141
-1.1463499
-1.1468687
-1.147371
-1.1478573
-1.1483281
-1.1487839
-1.149225
-1.1496521
-1.1500653
-1.1504653
-1.1508524
-1.151227
-1.1515894
-1.1519401
-1.1522794
-1.1526077
-1.1529253
-1.1532325
-1.1535297
-1.1538172
-1.1540952
-1.1543641
-1.1546242
-1.1548757
-1.155119
-1.1553542
-1.1555816
-1.1558015
-1.1560141
-1.1562197
-1.1564184
-1.1566105
-1.1567962
-1.1569757
-1.1571492
-1.157317
-1.157479
-1.1576357
-1.1577871
-1.1579334
-1.1580748
-1.1582114
-1.1583435
-1.158471
-1.1585943
-1.1587133
-1.1588284
-1.1589395
-1.1590468
-1.1591505
-1.1592507
-1.1593475
-1.1594409
-1.1595312
-1.1596184
-1.1597026
-1.1597839
-1.1598624
-1.1599382
-1.1600114
-1.1600821
-1.1601503
-1.1602162
-1.1602798
-1.1603412
-1.1604005
-1.1604577
-1.1605129
-1.1605663
-1.1606177
-1.1606674
-1.1607153
-1.1607616
-1.1608062
-1.1608493
-1.1608908
-1.1609309
-1.1609696
-1.1610069
-1.1610429
-1.1610777
-1.1611112
-1.1611435
-1.1611747
-1.1612047
-1.1612337
-1.1612616
-1.1612886
-1.1613146
-1.1613396
-1.1613638
-1.161387
-1.1614095
-1.1614311
-1.1614519
-1.161472
-1.1614913
-1.1615099
-1.1615279
-1.1615451
-1.1615617
-1.1615777
-1.1615932
-1.161608
-1.1616222
-1.161636
-1.1616491
-1.1616618
-1.161674
-1.1616857
-1.161697
-1.1617078
-1.1617182
-1.1617281
-1.1617376
-1.1617468
-1.1617555
-1.1617639
-1.161772
-1.1617796
-1.1617869
-1.1617939
-1.1618006
-1.161807
-1.161813
-1.1618187
-1.1618242
-1.1618293
-1.1618342
-1.1618388
-1.1618431
-1.1618472
-1.161851
-1.1618545
-1.1618579
-1.1618609
-1.1618637
-1.1618664
-1.1618687
-1.1618709
-1.1618728
-1.1618745
-1.161876
-1.1618773
-1.1618784
-1.1618792
-1.1618799
-1.1618803
-1.1618805
-1.1618805
-1.1618803
-1.1618799
-1.1618791
-1.1618782
-1.161877
-1.1618756
-1.161874
-1.1618722
-1.1618701
-1.1618678
-1.1618653
-1.1618625
-1.1618595
-1.1618563
-1.1618529
-1.1618491
-1.1618452
-1.161841
-1.1618365
-1.1618318
-1.1618268
-1.1618215
-1.161816
-1.1618102
-1.1618041
-1.1617977
-1.161791
-1.1617841
-1.1617768
-1.1617692
-1.1617612
-1.161753
-1.1617444
-1.1617354
-1.1617261
-1.1617165
-1.1617064
-1.161696
-1.1616853
-1.1616741
-1.1616625
-1.1616505
-1.161638