/*--------------------------------*- C++ -*----------------------------------*\
  =========                 |
  \\      /  F ield         | OpenFOAM: The Open Source CFD Toolbox
   \\    /   O peration     | Website:  https://openfoam.org
    \\  /    A nd           | Version:  7
     \\/     M anipulation  |
\*---------------------------------------------------------------------------*/
FoamFile
{
    version     2.0;
    format      ascii;
    class       volScalarField;
    location    "0.00317";
    object      Uy;
}
// * * * * * * * * * * * * * * * * * * * * * * * * * * * * * * * * * * * * * //

dimensions      [0 1 -1 0 0 0 0];

internalField   nonuniform List<scalar> 
5000
(
1.3363352e-21
2.4057886e-21
0
0
-8.6701246e-22
6.9809587e-37
6.0726771e-22
0
0
-6.7394347e-22
-1.3639115e-21
6.7422946e-22
6.6925979e-22
-6.7217305e-22
0
-6.7874224e-22
-9.1523865e-53
6.7898288e-22
0
6.795593e-22
-6.7984613e-22
-6.8012514e-22
1.360777e-21
-6.8064574e-22
-6.8090614e-22
-5.6143572e-36
6.8141487e-22
6.8165868e-22
-1.363796e-21
1.1826322e-35
-1.1927307e-35
6.8258896e-22
1.3656069e-21
-1.3660243e-21
1.1845094e-35
-5.9437003e-35
-2.3703841e-35
1.3675968e-21
-1.3679548e-21
-1.3682972e-21
1.3686289e-21
-4.7078652e-35
-1.369269e-21
6.8478626e-22
2.054792e-21
-6.8506911e-22
-6.8519843e-22
-4.6941764e-35
-1.3708709e-21
0
6.8562194e-22
9.6870745e-38
-6.7334177e-22
1.3467496e-21
-2.3725291e-35
-1.3524566e-21
6.7365644e-22
-2.3303692e-35
-6.7578015e-22
0
6.7579228e-22
2.3050545e-35
1.9213951e-37
6.7634463e-22
-6.7528143e-22
2.3533932e-35
6.7403855e-22
-6.783338e-22
-6.7839252e-22
6.7695473e-22
6.7644947e-22
-6.7346447e-22
-6.7221113e-22
1.3395144e-21
6.6485012e-22
-6.6686288e-22
0
6.7801379e-22
-9.6071436e-38
-6.7481452e-22
6.7262187e-22
-1.8984878e-37
1.887282e-37
6.6430137e-22
6.6857506e-22
2.3464384e-35
-6.7163359e-22
0
-6.7063216e-22
-6.9448781e-35
-2.31709e-35
6.6394292e-22
6.6957311e-22
-1.3336027e-21
-4.5833441e-35
6.6607891e-22
0
0
-6.587428e-22
-4.6072909e-35
1.3230928e-21
-6.5672938e-22
-1.32074e-21
0
6.5442675e-22
6.5799506e-22
-6.5657855e-22
-6.519531e-22
0
0
6.4701104e-22
6.478276e-22
0
-6.5088682e-22
2.2491815e-35
6.4418397e-22
-6.4981307e-22
1.8390466e-37
-2.2352462e-35
3.4889116e-52
1.2914766e-21
-2.7499985e-37
-6.430982e-22
0
-6.3927119e-22
6.348471e-22
6.337544e-22
-1.2752809e-21
-6.3541775e-22
1.2553202e-21
6.2816499e-22
-6.3387971e-22
-6.3080639e-22
-6.2519823e-22
0
6.2799267e-22
6.2639516e-22
-6.2553697e-22
-2.1596945e-35
6.2395711e-22
-6.2175614e-22
-6.1435626e-22
0
6.2040481e-22
6.1753134e-22
-6.1190222e-22
6.1450069e-22
-3.485384e-37
-6.0907001e-22
6.1269269e-22
-6.1109991e-22
4.2192007e-35
6.0918777e-22
-6.0791071e-22
6.0003365e-22
6.0038904e-22
-6.0643718e-22
0
0
-6.0173629e-22
-6.0018875e-22
5.9496593e-22
5.9838722e-22
-5.9709399e-22
-4.0844019e-35
5.8914782e-22
-5.9519951e-22
-5.9260786e-22
0
5.8420792e-22
5.9034426e-22
0
-5.7929126e-22
-5.7933142e-22
0
5.8268747e-22
1.200553e-34
-5.8037791e-22
5.7868719e-22
5.7320132e-22
-5.7642724e-22
-3.9689819e-35
3.9151523e-35
2.4392454e-37
5.7273824e-22
-5.7068919e-22
-7.890465e-35
3.8556021e-35
-3.7954733e-35
5.4915292e-22
0
0
-5.5904439e-22
-5.5573521e-22
0
0
5.4992861e-22
5.692644e-53
-5.4640104e-22
0
5.3780348e-22
-5.4029618e-22
-1.4912598e-34
1.0579051e-21
-5.2806296e-22
-1.1072618e-34
-7.5271093e-38
-5.2316591e-22
5.2563197e-22
-7.4345675e-38
-7.1547271e-35
3.5941406e-35
-5.1712459e-22
0
5.0698653e-22
3.5452517e-35
1.4118894e-34
5.0242997e-22
0
-5.0243436e-22
-4.9598862e-22
0
0
0
4.9222762e-22
3.4103627e-35
-4.9066206e-22
0
0
4.8010824e-22
4.7851581e-22
-4.8234776e-22
-4.8282566e-22
0
4.8024826e-22
4.780103e-22
-4.7527484e-22
-4.6986186e-22
0
4.7327984e-22
-1.3088486e-34
-3.2101962e-35
4.6332333e-22
-4.6998179e-22
-4.7099576e-22
0
4.6921047e-22
-6.5007971e-35
4.6615838e-22
6.4064948e-35
-9.2226847e-22
4.6681032e-22
-6.4530138e-35
-1.5997461e-34
-3.2199605e-35
-4.6507296e-22
4.5792023e-22
4.5920672e-22
0
-4.6514812e-22
-4.6051916e-22
0
4.6632545e-22
4.6555694e-22
-9.3098062e-22
-4.6411532e-22
4.618722e-22
4.62652e-22
1.2999053e-34
-4.681407e-22
4.6129064e-22
-3.2109296e-35
-4.7082335e-22
4.6959604e-22
-3.2354675e-35
3.2779435e-35
-1.3380921e-37
-3.2256629e-35
4.7219349e-22
0
0
-4.7368746e-22
-4.732533e-22
0
0
0
0
4.7614983e-22
3.260893e-35
-9.51657e-22
2.0548758e-37
4.8100757e-22
4.8015165e-22
-6.6619758e-35
-6.6160795e-35
-6.8336437e-38
-4.802852e-22
-4.7674811e-22
-4.8154729e-22
9.6043909e-22
1.425686e-21
-4.808512e-22
-9.6968611e-22
0
4.8317422e-22
4.798243e-22
-4.7645155e-22
1.3605552e-37
-2.0705e-37
1.377145e-37
4.802535e-22
4.8523192e-22
-4.852667e-22
-9.5594067e-22
4.794172e-22
-3.1208071e-52
4.8543549e-22
1.3323788e-34
-9.7140792e-22
0
0
9.6922337e-22
-2.7045649e-34
-9.7140473e-22
0
4.8296817e-22
4.7973875e-22
-4.7985387e-22
6.9001832e-38
-6.7191674e-35
6.8079471e-38
4.8362243e-22
-4.8538299e-22
-4.8288561e-22
0
4.7620389e-22
-6.6130852e-35
-4.8258925e-22
9.5736102e-22
-1.3090735e-34
-4.7700691e-22
-1.3341282e-34
-9.5907671e-22
9.5728304e-22
4.7638339e-22
-4.783048e-22
-6.8022284e-38
-4.7618028e-22
0
0
4.6925825e-22
-6.6001124e-35
-9.4768815e-22
6.6386987e-38
1.404702e-21
-4.6666273e-22
-4.6423176e-22
9.4033454e-22
-4.6928818e-22
4.6373575e-22
9.3552008e-22
-4.6705431e-22
-4.5841627e-22
-4.588796e-22
4.662685e-22
1.0875052e-51
-4.5794526e-22
4.622234e-22
-4.6093374e-22
4.5534061e-22
1.2734664e-34
1.3022201e-37
4.5251595e-22
-9.1342649e-22
4.5571491e-22
1.2401698e-34
-1.2400397e-34
-4.5422978e-22
-9.0812038e-22
1.3516495e-21
1.2426643e-34
-2.45244e-34
1.2235127e-34
-8.9630685e-22
8.9203392e-22
-1.2110632e-34
-8.7372485e-22
0
0
4.3567155e-22
-6.0987996e-35
-4.4087727e-22
-4.3835955e-22
4.3683559e-22
1.3040478e-21
-4.3762666e-22
-4.3540345e-22
-1.2199822e-37
-4.3254345e-22
0
8.4971655e-22
8.5845547e-22
-4.2787789e-22
-8.4412531e-22
-4.2649164e-22
8.5040072e-22
8.3884269e-22
-8.4780388e-22
-8.4592975e-22
0
8.2761278e-22
-4.2205289e-22
-8.3957805e-22
4.1392526e-22
4.1853266e-22
-5.9773294e-38
5.8165504e-35
4.1764655e-22
-4.1490949e-22
-4.1728608e-22
4.1467771e-22
-5.672996e-35
-5.8888825e-38
-5.7456206e-35
-4.0809495e-22
4.1195044e-22
-1.73281e-34
-5.7758355e-35
-1.1552085e-34
-4.1691076e-22
4.1981612e-22
-5.8873369e-35
-1.1917306e-34
-6.193366e-38
-8.8015871e-22
-4.4360586e-22
4.4661301e-22
8.9813891e-22
-6.2661028e-35
-9.0704713e-22
-4.5541074e-22
9.1353042e-22
4.5809285e-22
-4.5958364e-22
-4.6103209e-22
-1.2839773e-34
4.643849e-22
0
0
4.7045405e-22
0
-4.7506398e-22
4.7755791e-22
6.8252178e-38
-1.3409795e-34
0
-4.8870734e-22
4.9112412e-22
4.9363642e-22
-9.9274853e-22
-4.9918341e-22
5.0178063e-22
0
0
-5.0783968e-22
1.4160059e-34
5.1147252e-22
0
0
-5.1775489e-22
2.1674789e-34
5.2297331e-22
0
0
0
0
0
0
0
0
1.1032965e-21
3.0867367e-34
-5.6198701e-22
5.6726034e-22
-5.7004522e-22
5.7226763e-22
-1.601031e-34
-5.8049585e-22
-1.6228621e-34
-5.878488e-22
0
0
6.1174341e-22
1.6921962e-34
-6.1370519e-22
0
0
0
0
0
0
0
1.2916365e-21
-5.4260408e-34
-1.3042336e-21
6.5689094e-22
9.4202532e-38
6.6892173e-22
-3.7411025e-34
-1.3498847e-21
-6.7787702e-22
2.1286243e-52
2.0726668e-21
0
-1.392294e-21
0
0
1.422811e-21
-1.986796e-34
-2.1468143e-21
7.1860407e-22
7.2015723e-22
-7.1635925e-22
7.222527e-22
-7.2953758e-22
-2.0339227e-34
7.4296451e-22
-7.4940425e-22
0
-7.5155296e-22
7.5200315e-22
1.5076613e-21
-7.6072506e-22
-7.6869624e-22
-7.7544146e-22
-7.7394285e-22
1.534671e-21
7.6932732e-22
-7.7435191e-22
0
7.8389409e-22
-7.8856036e-22
-7.9149815e-22
2.4044275e-21
2.302967e-37
-1.6294707e-21
8.2459603e-22
1.1538758e-34
8.3215203e-22
-2.3747293e-37
-1.6690065e-21
8.3326708e-22
0
-2.3595491e-34
-1.2173455e-37
-8.5933429e-22
8.5998243e-22
-2.3945769e-34
-1.2002099e-34
-1.2339326e-37
-8.7208459e-22
8.7673251e-22
-2.2374649e-52
-2.4720551e-34
-1.2745269e-37
-1.7925589e-21
-1.2470856e-34
9.027272e-22
0
0
-9.0622315e-22
-3.7727781e-34
9.0746866e-22
-9.1310475e-22
1.2801166e-34
-1.1794679e-51
-1.2937364e-34
9.3239511e-22
9.3445536e-22
1.2997376e-34
-9.3991924e-22
0
0
9.5699212e-22
-9.619102e-22
7.9867205e-34
9.594724e-22
-9.6067133e-22
0
9.6178192e-22
9.6236904e-22
-9.6700257e-22
-9.7176917e-22
0
9.7271266e-22
9.6646108e-22
-1.9447481e-21
-9.824561e-22
9.8776728e-22
9.8892988e-22
1.3720325e-34
9.8878143e-22
2.7384882e-34
-1.9880177e-21
0
0
0
1.0216662e-21
1.0213547e-21
0
-1.022327e-21
-1.4149739e-34
1.0266963e-21
0
0
-1.0281963e-21
-1.4279842e-34
1.4264868e-34
-1.0306017e-21
1.0321757e-21
-4.3009598e-34
-1.0346245e-21
0
-1.0411783e-21
-1.4504326e-34
1.047175e-21
-1.0495367e-21
1.0575217e-21
1.0602872e-21
-1.0549488e-21
0
1.0562835e-21
1.0559942e-21
-1.0561304e-21
-1.0561276e-21
0
-1.0441837e-21
1.0366399e-21
1.0420046e-21
-1.0527916e-21
-2.1305532e-21
5.9652112e-34
3.2344817e-21
1.0863603e-52
-1.0758851e-21
-2.1524338e-21
5.9822389e-34
2.1583126e-21
-1.0830258e-21
1.0907449e-21
-1.094888e-21
-1.0888975e-21
2.1696499e-21
0
0
-2.1808978e-21
2.9893059e-52
2.1870619e-21
0
0
-2.1860117e-21
5.6011578e-52
2.2037991e-21
0
0
-2.2258002e-21
-1.109623e-21
2.1982778e-21
1.1040979e-21
0
-2.2601359e-21
6.2735339e-34
2.2563693e-21
-1.1228734e-21
0
1.11353e-21
-1.1150547e-21
1.5834854e-37
1.1135578e-21
-1.1163281e-21
1.1235726e-21
1.1283992e-21
-1.1278928e-21
-1.1264686e-21
3.1186385e-34
1.1162708e-21
-1.1134047e-21
-3.1245601e-34
1.1399568e-21
-1.1403013e-21
1.1387456e-21
1.1399388e-21
-1.1345263e-21
-1.1321611e-21
3.1645306e-34
1.1479726e-21
-1.1510643e-21
1.6390109e-37
1.1520206e-21
-1.1443103e-21
1.1370367e-21
1.1313781e-21
-1.1290308e-21
-2.2636602e-21
6.3044204e-34
2.269105e-21
-1.1322116e-21
1.6051164e-37
2.2716024e-21
3.2604287e-37
-1.147927e-21
0
1.1554043e-21
0
-1.1406527e-21
0
0
0
-1.1314581e-21
6.6708584e-52
1.1511647e-21
0
1.1559832e-21
-3.1941133e-34
-1.1461744e-21
0
0
0
-1.1478437e-21
3.1807388e-34
1.1416133e-21
0
1.1388052e-21
3.1633037e-34
-1.1406843e-21
0
1.1512447e-21
-1.1414114e-21
6.3132974e-34
1.1363279e-21
-1.1356873e-21
0
-1.133276e-21
-3.1405405e-34
1.1316654e-21
0
1.1362663e-21
-1.1356418e-21
-6.2908015e-34
1.1227984e-21
-6.1875259e-34
-1.5925152e-37
3.1332723e-34
-1.610379e-37
-1.1423247e-21
0
1.1472206e-21
-3.1940362e-34
-3.1962677e-34
-3.291061e-53
-3.1973373e-34
0
-2.2982576e-21
-3.171242e-34
1.1398961e-21
-1.1407539e-21
3.1584905e-34
1.1349824e-21
1.1350109e-21
3.1632629e-34
-3.1797841e-34
1.1461309e-21
-1.1467595e-21
-1.1533267e-21
0
-1.1532154e-21
3.1826164e-34
1.1421753e-21
0
0
0
-2.2913408e-21
1.2745494e-33
2.3007097e-21
0
0
0
0
0
0
0
-2.3496459e-21
6.5098994e-34
2.3360037e-21
1.16362e-21
-1.1633109e-21
-1.1640915e-21
3.2174243e-34
6.4044042e-34
1.1540955e-21
-1.1509469e-21
1.1400113e-21
1.1309378e-21
-1.1378285e-21
-1.1452017e-21
6.3852539e-34
1.1606632e-21
1.1642416e-21
-3.2258583e-34
-1.1648305e-21
-1.1662399e-21
1.1664456e-21
1.1674267e-21
-1.1708588e-21
1.1779903e-21
0
-1.1791516e-21
-1.1766486e-21
3.2568962e-34
1.1728822e-21
-1.1698065e-21
1.1650452e-21
1.1670989e-21
-1.1688716e-21
1.1684596e-21
3.2552378e-34
-1.1789494e-21
-1.1816333e-21
-1.6723546e-37
2.3506035e-21
6.5346073e-34
-1.1764424e-21
-1.176586e-21
0
1.1790284e-21
0
0
0
1.1965884e-21
1.1908841e-21
-1.1844783e-21
-1.1818446e-21
0
1.1872864e-21
-3.2998172e-34
-1.1860376e-21
0
0
1.211002e-21
-6.7753315e-34
-1.2203377e-21
0
0
1.2095737e-21
-6.7140115e-34
-1.2108133e-21
0
1.2123712e-21
-3.3741447e-34
3.386936e-34
-3.3999886e-34
-1.2244401e-21
0
-1.2248258e-21
6.8097663e-34
1.2265381e-21
0
1.2248864e-21
-1.2275369e-21
-1.228019e-21
2.4654298e-21
3.4517161e-34
-2.5097431e-21
3.508798e-34
1.264823e-21
0
0
1.2607736e-21
-3.48987e-34
-1.2576484e-21
0
1.260483e-21
-1.2598501e-21
-1.2574617e-21
1.2517829e-21
0
-1.2673093e-21
1.2741556e-21
7.0732405e-34
-7.0718463e-34
1.2739264e-21
-1.0606729e-33
1.2835009e-21
-1.2920309e-21
3.5742791e-34
-7.1410165e-34
-2.5751539e-21
3.5697268e-34
1.2867856e-21
0
0
0
-2.5965438e-21
-1.2985869e-21
2.5998389e-21
1.3016137e-21
0
0
1.3320726e-21
1.5955397e-52
-1.3338338e-21
0
-2.657735e-21
-1.3306767e-21
2.665873e-21
1.3285037e-21
0
-2.6560171e-21
-3.7725621e-37
3.9778294e-21
-3.6680422e-34
-2.656257e-21
1.3402536e-21
7.6568135e-37
-1.346584e-21
3.7389907e-34
7.4582361e-34
1.3394687e-21
0
1.3512726e-21
-7.5351991e-34
-2.7181877e-21
1.3603679e-21
-2.2732726e-33
-1.3724383e-21
2.7477262e-21
-1.9472745e-37
-1.3725404e-21
0
0
0
-1.3762823e-21
1.3808601e-21
2.7722048e-21
-1.3876649e-21
-3.8563138e-34
-3.8654668e-34
-1.4006735e-21
0
1.4178484e-21
-2.016021e-37
-2.8366695e-21
1.4168166e-21
7.8153312e-34
-1.4043262e-21
-1.4089301e-21
7.86165e-34
2.8341113e-21
0
1.4234834e-21
1.4321462e-21
0
-1.43104e-21
-1.4292187e-21
1.4314714e-21
0
-1.4307989e-21
0
0
1.4434338e-21
-1.20284e-33
-1.4448613e-21
0
0
1.4582674e-21
1.4611155e-21
-1.4589482e-21
-1.4575541e-21
1.4579268e-21
1.4596372e-21
-2.9300395e-21
-1.46995e-21
4.0824278e-34
1.4684699e-21
-8.135704e-34
-8.1184942e-34
1.4670389e-21
-1.4738407e-21
1.4834984e-21
-1.4900043e-21
-1.2667172e-36
1.4845148e-21
-2.9750275e-21
-1.4870153e-21
-1.4868694e-21
2.9779173e-21
2.9879175e-21
-1.4998571e-21
1.5004045e-21
-1.4999077e-21
8.3209103e-34
2.9868292e-21
-1.4971565e-21
4.1856502e-34
-4.2124398e-34
-1.5184995e-21
0
0
1.5259121e-21
1.5371533e-21
0
-1.5386624e-21
-1.5359305e-21
0
-1.5384746e-21
4.2864608e-34
1.5514272e-21
-1.553142e-21
4.2968973e-34
1.5511258e-21
0
1.5544495e-21
8.6301008e-34
-1.5563799e-21
1.5615413e-21
-4.3473671e-34
-1.5689232e-21
-1.5689744e-21
-4.3545954e-34
1.5653885e-21
0
-1.5786157e-21
1.5860564e-21
-4.5118986e-37
8.81877e-34
1.5897246e-21
-1.5898671e-21
0
-3.2328758e-21
3.6225645e-33
1.6339603e-21
8.9965535e-34
3.2243581e-21
-3.2252624e-21
-3.2281479e-21
3.2358653e-21
3.2468209e-21
1.618724e-21
0
-1.6203326e-21
-3.2733262e-21
2.33373e-37
-1.6414299e-21
1.6406684e-21
1.6414224e-21
-1.6429889e-21
3.2949768e-21
-3.3061947e-21
-2.7562927e-33
3.3126821e-21
-3.3237513e-21
9.2680657e-34
-1.6708764e-21
1.6672498e-21
1.6709143e-21
-1.6757401e-21
-4.6461645e-34
-3.3498914e-21
3.3550738e-21
3.3671481e-21
-3.3812094e-21
-4.69439e-34
-1.6914008e-21
9.3927923e-34
1.6870865e-21
4.6904639e-34
-1.548306e-51
1.7066923e-21
3.417576e-21
-1.7100769e-21
3.352016e-51
-1.7240731e-21
-2.875067e-33
1.7223097e-21
-3.4519262e-21
9.5966129e-34
3.4559053e-21
2.7927953e-52
-1.7222929e-21
0
0
-1.7510238e-21
1.7508484e-21
3.4998869e-21
0
0
0
-1.755304e-21
-1.7624206e-21
0
1.7857892e-21
-1.7853941e-21
-2.9674567e-33
3.5694396e-21
0
0
0
-1.7894384e-21
-1.7981892e-21
1.800348e-21
-1.801275e-21
-1.0018919e-33
3.6120101e-21
0
0
-3.6900925e-21
5.2299689e-37
1.825571e-21
-1.8257048e-21
1.8353503e-21
-1.8425212e-21
1.0241198e-33
3.6799186e-21
0
0
-1.8427157e-21
-1.8404428e-21
0
0
1.86123e-21
1.8734579e-21
0
-1.8588674e-21
-1.8600982e-21
1.8609304e-21
-1.856471e-21
-1.8683797e-21
1.8867248e-21
1.9028083e-21
-1.0597947e-33
-1.8958045e-21
1.8903295e-21
5.2386445e-34
-1.8771144e-21
0
-1.892071e-21
1.0548018e-33
1.9022227e-21
-1.9037194e-21
1.0610106e-33
1.9212951e-21
0
-1.9153215e-21
5.3090665e-34
2.7195164e-37
-1.9120292e-21
1.9108495e-21
1.9124184e-21
0
-3.8461948e-21
2.13753e-33
1.9251522e-21
2.7442136e-37
3.8817934e-21
-3.8878818e-21
-3.873661e-21
3.8685885e-21
1.9352234e-21
0
-3.8624482e-21
3.2018354e-33
3.8516236e-21
0
-3.8889356e-21
-1.0797219e-33
1.9428982e-21
5.3937615e-34
3.8753264e-21
-3.8792897e-21
-4.8685604e-33
3.9127545e-21
-3.9106632e-21
1.0840307e-33
3.9114406e-21
1.9540443e-21
-3.9197551e-21
-1.96653e-21
3.9268158e-21
-3.9340296e-21
-4.9249387e-33
3.9381103e-21
-3.9339485e-21
5.4660505e-34
-1.9735053e-21
2.1951737e-33
5.9388498e-21
-1.0979937e-33
-3.953483e-21
1.9778758e-21
3.9650871e-21
-1.9877756e-21
1.1039086e-33
-1.9846223e-21
-2.2029558e-33
1.986721e-21
-3.9829798e-21
1.6629114e-33
-2.2106708e-33
1.0981879e-33
1.9843277e-21
0
2.0009098e-21
2.0021627e-21
0
0
0
0
0
-2.011251e-21
-2.0121471e-21
0
2.0282682e-21
-2.0276308e-21
-3.3613176e-33
4.0301875e-21
0
0
0
-2.0330658e-21
-2.0325725e-21
2.0226572e-21
2.0195748e-21
-4.0427436e-21
-3.3696219e-33
4.0579396e-21
0
-4.0738564e-21
-3.3763498e-33
2.0236366e-21
-2.0254523e-21
2.0265756e-21
-2.0328679e-21
-1.1328921e-33
4.0805443e-21
0
0
-2.0342577e-21
-2.0230431e-21
0
-2.024264e-21
-5.7181465e-37
-2.0189506e-21
2.0270413e-21
6.0696018e-21
0
4.0663309e-21
4.0642112e-21
0
-6.0636207e-21
-4.0251449e-21
4.0344959e-21
-2.0260387e-21
-2.0368468e-21
6.1116485e-21
2.0249088e-21
2.8796189e-37
2.0355894e-21
-2.0406403e-21
-2.0406038e-21
-2.0313135e-21
8.9322819e-52
-2.0378468e-21
-2.0248599e-21
2.0224747e-21
0
4.0109238e-21
4.0138001e-21
0
-2.0055878e-21
-4.0277777e-21
-1.121243e-33
-2.0174133e-21
-4.0287783e-21
4.0220825e-21
4.0141155e-21
2.008454e-21
2.0076622e-21
0
-2.0049384e-21
-6.0246035e-21
2.0076962e-21
1.7849382e-50
-6.0137675e-21
4.0197047e-21
2.0103691e-21
1.9953909e-21
3.995753e-21
-4.0157705e-21
-1.9959004e-21
1.9875258e-21
1.9927554e-21
1.9990795e-21
-5.9960641e-21
-1.9864425e-21
5.9407979e-21
1.9794406e-21
-1.9764494e-21
-3.9633182e-21
1.9890575e-21
-1.9821308e-21
3.2716274e-33
-3.270152e-33
-5.8953463e-21
1.9516784e-21
1.9520715e-21
3.9324301e-21
1.959817e-21
-3.87926e-21
-5.50614e-37
-1.9380168e-21
1.9247091e-21
5.7779278e-21
-5.822049e-21
-1.934516e-21
5.7393262e-21
0
-5.7141764e-21
-1.9047319e-21
5.7359186e-21
-1.9073011e-21
-3.7743829e-21
-1.0412353e-33
2.0774517e-33
1.8645974e-21
0
3.7069262e-21
3.6909864e-21
-1.8355262e-21
-1.8381492e-21
-3.6793513e-21
1.8313551e-21
1.8226369e-21
-3.6397245e-21
0
3.6076957e-21
3.6153793e-21
-1.8099625e-21
-3.595804e-21
9.9929099e-34
1.8101634e-21
-3.5946565e-21
1.7722307e-21
-5.8801286e-33
-3.5407724e-21
1.7708381e-21
0
3.4608226e-21
0
-3.8156567e-33
-1.7399101e-21
-3.4616537e-21
5.1110577e-21
-4.8100986e-37
-3.3799826e-21
0
3.3694632e-21
1.6794359e-21
-3.2930766e-21
1.8007484e-33
1.6261721e-21
-3.2547463e-21
1.6272208e-21
-2.72586e-33
-3.2546122e-21
1.5895531e-21
-1.5650832e-21
3.1614689e-21
4.7939399e-21
0
-4.6361689e-21
-3.0764524e-21
4.6102996e-21
3.070449e-21
-1.5313217e-21
-3.0027865e-21
1.4748707e-21
1.4775316e-21
-2.9538402e-21
1.474876e-21
2.9664625e-21
-1.4720227e-21
2.0363454e-37
-2.8140715e-21
-2.8199689e-21
4.2269844e-21
-1.4065753e-21
-2.3523933e-33
4.187909e-21
0
-3.9968999e-21
-2.676011e-21
1.3392838e-21
1.3354055e-21
1.3325794e-21
0
1.2658055e-21
-6.9430847e-34
-2.5151879e-21
6.9594793e-34
1.2469045e-21
0
1.2083712e-21
-2.3718038e-21
-3.5727745e-21
2.3803074e-21
3.5601953e-21
1.185602e-21
-1.1586199e-21
-2.2625726e-21
1.1426238e-21
-1.150898e-21
-1.1243879e-21
2.2107368e-21
-2.1935453e-21
-1.0656931e-21
3.0944676e-21
2.0509086e-21
-1.0352799e-21
-3.095539e-21
2.2749618e-33
-2.2566755e-33
-9.8632341e-22
-1.0588881e-33
-9.4930958e-22
9.6062944e-22
9.5851342e-22
9.5110128e-22
-9.4144214e-22
-9.1070578e-22
2.6357116e-21
-8.7453927e-22
-1.7823968e-21
2.6959675e-21
2.5317993e-37
-8.7121309e-22
1.6703295e-21
8.0268703e-22
0
-7.883115e-22
-8.1112772e-22
-1.6645072e-21
8.2147613e-22
-2.6025504e-33
-2.2169502e-21
7.1438704e-22
7.0205196e-22
6.9581294e-22
-6.9925565e-22
-6.9857568e-22
2.0369946e-21
-6.5428567e-22
-1.2857011e-21
-1.0763458e-33
-6.4892917e-22
1.2659131e-21
1.8202147e-21
3.2615535e-34
-3.2568118e-34
-8.6596016e-38
-6.2275833e-22
-1.1874332e-21
-5.5049135e-22
1.5782585e-21
-5.7073529e-34
-1.0223251e-21
0
0
5.0800458e-22
-2.6450896e-34
2.5381484e-34
4.467496e-22
-8.751671e-22
-4.3492784e-22
-4.8903633e-34
4.3660754e-22
1.2473326e-21
3.9599675e-22
0
0
0
-1.1224922e-21
-7.4719746e-22
1.0744642e-21
-3.7694524e-34
-6.567097e-22
0
0
6.3897465e-22
-7.0745094e-34
-3.373301e-34
5.7426403e-22
-2.7727929e-22
-5.40273e-22
-5.3521592e-22
2.7256655e-22
8.1335911e-22
2.5585187e-22
0
0
0
-6.6625765e-22
-4.4813818e-22
6.7321904e-22
-4.7533883e-34
-2.0071245e-22
2.7410531e-38
-1.8826611e-22
3.6860973e-22
-1.9972067e-34
-1.7434548e-22
3.4035332e-22
0
-9.4335464e-35
-3.2670285e-22
-3.0911718e-22
4.474237e-22
2.9084738e-22
-1.4434548e-22
-8.2565799e-35
1.5069794e-22
-4.2886585e-22
-2.6721085e-22
1.2927545e-22
1.272089e-22
-1.2836805e-22
-1.3427786e-22
1.3612776e-22
1.2939656e-22
-6.8146322e-35
6.7022789e-35
1.2048664e-22
0
1.2845081e-22
-2.6324418e-22
-3.8557256e-22
2.5081847e-22
2.5158484e-22
1.2882977e-22
-1.4973024e-34
-2.805809e-22
1.4099158e-22
-1.4073408e-22
-1.4323728e-22
2.9747622e-22
-3.1642998e-22
-1.6718181e-22
1.698206e-22
3.4147981e-22
1.7545577e-22
-3.6433273e-22
1.0605348e-34
-2.0458697e-22
-2.1655245e-22
6.6574189e-22
-2.2655509e-22
-2.3525915e-22
7.377563e-22
-3.6680007e-38
-8.2144927e-22
-2.8997934e-22
9.0472721e-22
-3.1160725e-22
7.9062784e-50
-5.6678998e-34
-7.1439098e-22
7.5355208e-22
7.9609268e-22
-4.1679352e-22
4.8130492e-34
9.0484158e-22
-4.7382552e-22
-1.4916621e-21
-5.2407904e-22
5.5239677e-22
0
6.0120839e-22
1.2559374e-21
-9.3439579e-38
-2.0660794e-21
-7.2309713e-22
1.5216784e-21
-1.1330306e-37
-1.6621611e-21
1.7335599e-21
-1.5094629e-33
-1.8963147e-21
2.9761944e-21
2.0770773e-21
0
0
-1.1865474e-21
-3.720617e-21
-1.2964717e-21
4.0652597e-21
-1.5720913e-33
-2.9591866e-21
3.0921706e-21
3.2336443e-21
-1.6907936e-21
-3.5302296e-21
1.8409898e-21
1.9214018e-21
-6.0181722e-21
-2.0951152e-21
-3.6465215e-33
1.2685182e-33
2.3847301e-21
-2.486928e-21
5.1894802e-21
8.1244287e-21
0
-8.8608897e-21
-6.1600559e-21
9.629052e-21
-9.5120807e-37
-3.4907717e-21
7.2831088e-21
-3.8015576e-21
-3.9682506e-21
-4.5917124e-33
4.3080623e-21
8.9800286e-21
-4.6813555e-21
-9.7607564e-21
-1.0176613e-20
5.8923374e-33
5.5325859e-21
-5.7652742e-21
1.2013867e-20
1.8821406e-20
0
-2.0632167e-20
-1.4349025e-20
2.245729e-20
-8.6793687e-33
-8.1572514e-21
8.5094395e-21
8.8740855e-21
-5.1345072e-33
-1.9307932e-20
5.5891965e-33
2.1000571e-20
-1.215363e-32
-1.2673268e-32
-2.3813244e-20
-3.725477e-20
2.5902269e-20
-1.4996406e-32
-4.6892771e-32
1.4681293e-20
1.530679e-20
3.1918738e-20
-4.991995e-20
-1.7348907e-20
3.6173763e-20
-3.771085e-20
-1.1173278e-35
6.1472719e-20
2.1360966e-20
-2.2267852e-20
-6.9638699e-20
8.0595357e-32
5.044586e-20
2.6291211e-20
-5.4808403e-20
-8.569145e-20
8.9316446e-20
3.1031262e-20
3.5896442e-32
3.3709324e-20
-7.0265125e-20
2.0324127e-32
-3.8159152e-20
3.9767524e-20
-1.3804696e-31
-1.2956292e-19
1.350148e-19
1.4069278e-19
0
0
0
-5.5283961e-20
-1.7280411e-19
-6.0014361e-20
-6.9414317e-32
-6.5142935e-20
2.0360013e-19
7.0702399e-20
-7.3654438e-20
-7.6727493e-20
-7.9926467e-20
1.6651296e-19
-8.6722818e-20
9.0330888e-20
-3.1335022e-31
-1.9598969e-19
3.0618796e-19
2.1259216e-19
0
-2.3057286e-19
-1.3328186e-31
1.2502181e-19
-3.9056264e-19
-1.3556246e-19
1.4115478e-19
0
0
1.5932354e-19
3.3174948e-19
-3.8342369e-31
-3.5955766e-19
-1.8715273e-19
1.9482254e-19
-2.0279988e-19
2.1109681e-19
-4.575125e-47
-3.8090247e-31
7.1409734e-19
0
0
-5.3664548e-19
-5.5846771e-19
-2.905786e-19
3.3563792e-31
9.4391075e-19
-3.6354119e-31
-6.8127927e-19
0
7.3747929e-19
3.8362702e-19
-7.9820283e-19
4.1518531e-19
4.3190205e-19
-1.3478278e-18
4.6733211e-19
-1.6189232e-30
-1.0111929e-18
1.5775791e-18
1.0938308e-18
0
0
0
-1.9190503e-18
-1.3303538e-18
2.0749838e-18
1.438348e-18
0
-1.5548828e-18
8.9731148e-31
8.403071e-19
-1.7471468e-18
9.0812341e-19
-9.4400522e-19
-9.812688e-19
3.0598976e-18
-2.1202998e-18
-2.2037529e-18
1.145203e-18
-1.1901891e-18
2.473793e-18
3.8561677e-18
0
-4.1639942e-18
-2.8845077e-18
1.4985746e-18
1.5570365e-18
-1.7959133e-30
1.6807024e-18
-5.8162117e-30
-1.813918e-18
-1.0462131e-30
1.4333846e-47
2.0332241e-18
0
2.1935532e-18
-4.5565369e-18
-7.0984962e-18
7.3720796e-18
7.6559153e-18
0
-5.503896e-18
-5.7151467e-18
5.9342773e-18
-3.0807861e-18
-3.1986629e-18
9.9627645e-18
-6.8954389e-18
-7.1584393e-18
3.7155907e-18
7.7140139e-18
4.003649e-18
-1.2467111e-17
-4.3133636e-18
-7.4549411e-30
9.2926136e-18
2.7409954e-33
-1.501248e-17
1.038597e-17
1.6166166e-17
5.5916155e-18
-1.7405755e-17
-1.2039785e-17
1.8737425e-17
-1.4389291e-29
-1.3445188e-17
-6.9740534e-18
4.0157708e-30
1.5009304e-17
-8.6419154e-30
8.0743494e-18
8.3747237e-18
-2.60578e-17
-9.0083582e-18
-1.0371476e-29
1.9376899e-17
-3.3460962e-29
-3.1255193e-17
2.1606589e-17
-1.2442724e-29
-1.2907297e-29
-2.6772828e-29
-1.2499453e-17
3.8847673e-17
-1.342549e-17
-2.3171395e-29
-4.804015e-29
-4.484853e-17
1.5493259e-17
3.2112037e-17
-1.8470659e-29
1.7239998e-17
1.7862844e-17
-3.7014149e-17
-3.8346758e-17
2.2047555e-29
6.1725423e-17
-2.3653611e-29
-2.2074132e-17
4.5724107e-17
-2.3676687e-17
-2.4518872e-17
1.4085873e-29
-1.4592609e-29
2.7219507e-17
-5.636153e-17
2.9174106e-17
-1.005986e-28
-1.041132e-28
9.7069362e-17
-6.6976139e-17
9.8500753e-33
7.172787e-17
-3.711039e-17
-1.1519217e-16
-3.9726075e-17
1.2329303e-16
-4.7196368e-29
-4.3974504e-17
9.0964476e-17
-9.4075947e-17
-2.4304606e-28
5.0298427e-17
-5.2005981e-17
5.3766877e-17
-1.1116508e-16
5.7454465e-17
1.7815222e-16
0
0
-1.3106808e-16
-1.9244195e-32
1.3990058e-16
-7.2257988e-17
-2.2390258e-16
-7.708053e-17
2.3879581e-16
2.3359819e-32
9.4203662e-29
1.7519941e-16
-2.7126363e-16
-4.6623733e-28
9.630589e-17
-9.9372394e-17
-1.0252389e-16
1.1747204e-28
1.0908846e-16
-2.2500962e-16
2.320254e-16
-3.9836829e-28
-2.4661896e-16
3.8130444e-16
2.6198253e-16
-1.3498029e-16
-4.1720998e-16
-1.432618e-16
1.4755699e-16
0
-1.5646272e-16
1.6107557e-16
4.973897e-16
9.47108e-29
-3.5113369e-16
1.8061783e-16
1.8578041e-16
-3.8210999e-16
1.964423e-16
-2.0194268e-16
-4.151119e-16
6.3984826e-16
-7.2977992e-28
4.9980109e-28
4.6228314e-16
-4.7463953e-16
-2.4360889e-16
-2.5000826e-16
-2.8499193e-28
2.6313422e-16
-5.3971503e-16
5.5337148e-16
8.5084971e-16
0
-2.977774e-16
1.6929936e-28
8.8766461e-32
-9.5917657e-16
-3.2721735e-16
1.004373e-15
-3.4244249e-16
4.0828895e-44
1.0738827e-15
-3.6581836e-16
-1.1212031e-15
-3.817035e-16
7.7943984e-16
-3.9777745e-16
4.0586977e-16
-1.378776e-27
-8.4426318e-16
1.2908607e-15
4.8699368e-28
-1.9834673e-27
9.0951822e-16
-9.2578351e-16
-5.2287935e-28
4.7906912e-16
-9.7419207e-16
-4.9506965e-16
0
0
1.037153e-15
-1.1684172e-27
-3.0343357e-31
-6.0087939e-28
-5.4859016e-16
-5.5579004e-16
5.6284874e-16
5.6975623e-16
-1.1530042e-15
1.1661543e-15
-6.5440297e-28
-1.1913498e-15
1.2033579e-15
2.0231653e-27
-6.8057878e-28
6.1840034e-16
-1.2470305e-15
6.2838522e-16
-1.4054654e-27
-1.2747368e-15
0
1.2905715e-15
6.4883142e-16
-1.3041798e-15
-6.5506038e-16
6.5773787e-16
-1.0994278e-27
-6.6218789e-16
0
0
1.3331329e-15
1.3348078e-15
0
-1.3362331e-15
-6.679905e-16
6.6753794e-16
-6.667806e-16
6.6571629e-16
0
-1.3253105e-15
0
0
6.558215e-16
-7.2488794e-28
-6.4981791e-16
0
6.4271268e-16
3.5455972e-28
-6.3455201e-16
0
1.2507905e-15
1.2409298e-15
-6.1530802e-16
-6.7703352e-28
6.0435519e-16
-1.1971508e-15
-1.1852128e-15
1.1729154e-15
1.6488471e-31
1.2738496e-27
1.611567e-31
-1.1204827e-15
5.5333016e-16
-6.064704e-28
5.391443e-16
-5.3188891e-16
-1.5736117e-15
1.5512942e-15
5.0958147e-16
-5.019955e-16
-5.487321e-28
-4.8665077e-16
9.5781786e-16
9.422633e-16
-9.2665473e-16
-1.516904e-27
-4.4766701e-16
-4.3982627e-16
8.6397521e-16
-4.2415808e-16
4.6214643e-28
-2.2689385e-28
4.0078886e-16
7.8611827e-16
-7.7073738e-16
-7.55446e-16
0
3.6258561e-16
3.942185e-28
-6.9536826e-16
-3.7782048e-28
9.9915396e-16
6.5169027e-16
0
-6.2333974e-16
-6.7645341e-28
-2.9782816e-16
-2.9103925e-16
8.5302517e-16
-1.5412616e-28
-5.4245853e-16
2.6481477e-16
5.1699016e-16
-2.5227734e-16
-4.923313e-16
-2.4015179e-16
0
4.5681985e-16
-2.2270453e-16
-6.5131322e-16
2.1159633e-16
2.0618643e-16
4.0177368e-16
1.9569403e-16
-3.8120029e-16
-1.8560917e-16
-1.8072415e-16
1.9531543e-28
1.712388e-16
1.6664347e-16
3.2431394e-16
1.5776947e-16
0
0
0
-2.8228896e-16
-2.7445454e-16
2.6679896e-16
1.4394378e-28
1.3989082e-28
-1.3589746e-28
-2.6417486e-28
2.3115392e-16
0
-2.1808331e-16
-1.0588741e-16
1.0281954e-16
-9.9841497e-17
-9.6939408e-17
0
0
1.7723528e-16
-2.8643575e-28
-1.8532062e-28
1.6196931e-16
-1.5711608e-16
-1.5239459e-16
0
1.4337904e-16
-7.7167093e-29
-1.3484193e-16
1.3074025e-16
7.0378177e-29
-1.2289227e-16
0
1.1547559e-16
5.59577e-17
-1.0845843e-16
5.2553564e-17
1.1310557e-28
-9.8698463e-17
9.5624754e-17
9.2635153e-17
0
0
0
-8.1562793e-17
-7.8992079e-17
7.6488084e-17
0
-7.1707968e-17
0
-3.3623317e-17
6.5108984e-17
3.151167e-17
-3.0497732e-17
5.9033777e-17
2.8570411e-17
-5.5312035e-17
-2.6770045e-17
-2.8767311e-29
2.5073482e-17
-5.3868054e-29
1.3343679e-32
4.5425011e-17
0
-2.1262637e-17
-4.1145929e-17
-1.9904854e-17
0
0
0
-1.7418547e-17
3.3700999e-17
1.6304136e-17
-1.5773777e-17
-1.5255107e-17
1.4748474e-17
1.4257447e-17
-2.7569936e-17
0
2.5787689e-17
2.4941238e-17
0
0
-2.2550282e-17
-1.2101765e-29
-1.05389e-17
-1.0188766e-17
9.8505324e-18
-9.5238986e-18
9.2082046e-18
1.7805316e-17
8.6067054e-18
0
-1.6086208e-17
-8.6297148e-30
7.5169451e-18
-7.2672039e-18
-7.0258019e-18
-1.3584781e-17
1.3133393e-17
6.3484765e-18
-1.7443809e-33
5.933534e-18
-1.1472843e-17
5.546015e-18
-5.3621566e-18
-4.0323654e-46
5.013151e-18
-9.6948727e-18
9.3744894e-18
9.064848e-18
0
-4.2386001e-18
-8.1988296e-18
2.2009439e-30
3.8354357e-18
3.7101011e-18
-7.1779673e-18
-6.9441423e-18
3.3593688e-18
6.5015422e-18
6.2920617e-18
-3.0448681e-18
-5.8942455e-18
2.8528005e-18
-2.7619574e-18
4.4529451e-30
2.5902929e-18
-5.0179245e-18
4.8607863e-18
2.6133187e-30
-1.2666024e-29
4.4233996e-18
-4.2885846e-18
-9.2331559e-30
2.0164671e-18
-3.9119746e-18
1.8979105e-18
-5.2358224e-34
7.9425512e-30
1.7369635e-18
-3.3743077e-18
3.6396909e-30
-8.8424206e-31
1.5495178e-18
-4.2841915e-34
-2.9335485e-18
2.8554192e-18
7.9027395e-34
-6.0148261e-30
2.6407221e-18
-2.5753357e-18
-2.7893571e-30
2.4524411e-18
-1.1974849e-18
-1.1701034e-18
-1.1440328e-18
1.1192084e-18
-1.2162618e-30
-2.14622e-18
0
0
2.0240656e-18
2.8242052e-34
-1.952708e-18
9.6005277e-19
-1.0485143e-30
9.3027652e-19
2.0352564e-30
-1.8076514e-18
0
-8.804878e-19
1.739906e-18
8.6011211e-19
-1.8894198e-30
8.4211111e-19
-1.6675719e-18
8.2579312e-19
-9.0804455e-31
-1.6223247e-18
0
0
7.9396904e-19
-4.3983117e-31
7.9117265e-19
-7.9522017e-19
-2.4093855e-18
2.416362e-18
8.1546602e-19
-1.6602996e-18
8.3332468e-19
1.3827744e-30
8.1924153e-19
-4.6575949e-34
-2.7410371e-30
8.2011372e-19
-1.5294429e-18
-7.1778127e-19
0
-8.8530152e-19
8.9909715e-19
9.0927357e-19
9.1979014e-19
-2.0563968e-30
1.0403378e-30
-1.0592436e-30
-1.9372167e-18
9.8365395e-19
1.6586852e-30
-2.0130182e-18
1.4539507e-34
1.0427813e-18
2.1203037e-18
2.1566532e-18
-2.1942851e-18
-1.2401464e-30
-1.134981e-18
-1.154601e-18
2.3530577e-18
-2.3987897e-18
-1.2235456e-18
3.7421203e-18
2.5413969e-18