-1.25 	300 	0.1223304797384285 	101275.0986635786
-1.247497497497497 	299.9548102164746 	0.1220263987544468 	101275.141453861
-1.244994994994995 	299.9577755765557 	0.1219661271256126 	101275.1983127075
-1.242492492492492 	299.9579230081176 	0.1219741148866645 	101275.2639993389
-1.23998998998999 	299.9579849129018 	0.1216899934566433 	101275.3386765822
-1.237487487487487 	299.9580556309561 	0.1215212304092968 	101275.4224539955
-1.234984984984985 	299.9581342647814 	0.1212871309647585 	101275.5153988748
-1.232482482482482 	299.9582207397297 	0.1210368595707837 	101275.6176115806
-1.22997997997998 	299.9583149913748 	0.1207618116507038 	101275.7290127414
-1.227477477477477 	299.9584169005004 	0.120465986933636 	101275.849463407
-1.224974974974975 	299.9585264203092 	0.120151498294779 	101275.9789135412
-1.222472472472472 	299.9586435975837 	0.1198140090358593 	101276.1174053746
-1.21996996996997 	299.9587683772455 	0.1194512451787058 	101276.2648797884
-1.217467467467467 	299.958900652859 	0.1190641854285566 	101276.4212231419
-1.214964964964965 	299.9590404399302 	0.1186596282933745 	101276.5864431979
-1.212462462462462 	299.9591877999937 	0.1182351616760704 	101276.7606060892
-1.20995995995996 	299.9593427231848 	0.1177870808834003 	101276.9437077583
-1.207457457457457 	299.9595051936365 	0.117314390014151 	101277.1357306749
-1.204954954954955 	299.9596752188874 	0.1168182633234157 	101277.3366800048
-1.202452452452452 	299.9598527032472 	0.1163053602361186 	101277.5464460187
-1.19994994994995 	299.9600376175426 	0.1157731788585279 	101277.7649961664
-1.197447447447447 	299.9602299123823 	0.1152181204007217 	101277.9922707003
-1.194944944944945 	299.9604294553428 	0.1146386178356122 	101278.2281104227
-1.192442442442442 	299.9606361721982 	0.1140366933516803 	101278.4724240807
-1.18993993993994 	299.9608500404749 	0.1134179022848009 	101278.7251888935
-1.187437437437437 	299.961071080191 	0.1127783255328982 	101278.9864306399
-1.184934934934935 	299.9612993041354 	0.1121163449463322 	101279.2561618361
-1.182432432432432 	299.9615347551618 	0.1114329808028422 	101279.534433764
-1.17992992992993 	299.961777395425 	0.1107287061874423 	101279.8212045841
-1.177427427427427 	299.9620271748791 	0.1100059630594524 	101280.1164168974
-1.174924924924925 	299.9622840616241 	0.109263654045765 	101280.4200279054
-1.172422422422422 	299.9625478774191 	0.1085008850273845 	101280.7318242736
-1.16991991991992 	299.9628185169843 	0.1077172158470176 	101281.0516853452
-1.167417417417417 	299.9630958972861 	0.1069129855842134 	101281.3795176789
-1.164914914914915 	299.9633799131416 	0.1060893697951381 	101281.7151980355
-1.162412412412412 	299.9636706295735 	0.1052461407958789 	101282.058798225
-1.15990990990991 	299.9639680594291 	0.1043836139586359 	101282.4103276379
-1.157407407407407 	299.9642721733051 	0.1035017214556896 	101282.769750803
-1.154904904904904 	299.9645830199726 	0.1026010653735638 	101283.1371298411
-1.152402402402403 	299.964900477684 	0.101682047711414 	101283.512326985
-1.1498998998999 	299.9652243933452 	0.1007444047666155 	101283.8951638102
-1.147397397397397 	299.965554751244 	0.09978824134524053 	101284.2856198582
-1.144894894894895 	299.9658913779701 	0.09881310511676258 	101284.6834848607
-1.142392392392392 	299.9662341796191 	0.09781981966403973 	101285.0886427662
-1.13988988988989 	299.9665832220331 	0.09680791397791978 	101285.5011705907
-1.137387387387387 	299.966938368332 	0.09577797175137441 	101285.920907913
-1.134884884884885 	299.9672995336724 	0.09473083671956206 	101286.3477579301
-1.132382382382382 	299.9676668486731 	0.09366627349332397 	101286.7818775646
-1.12987987987988 	299.9680401207748 	0.09258632518999481 	101287.223040146
-1.127377377377377 	299.9684191569812 	0.09148837797452827 	101287.671019116
-1.124874874874875 	299.9688041510369 	0.09037227982915952 	101288.1260432815
-1.122372372372372 	299.9691950025928 	0.08924111507269834 	101288.5879941805
-1.11986986986987 	299.9695913640087 	0.08809315184812869 	101289.05646058
-1.117367367367367 	299.9699934014366 	0.08692879667754932 	101289.5316373945
-1.114864864864865 	299.9704011171394 	0.08574587589098019 	101290.0135274638
-1.112362362362362 	299.9708139855941 	0.08454758103823141 	101290.5015092863
-1.10985985985986 	299.9712320544472 	0.08333839432664651 	101290.9956404857
-1.107357357357357 	299.9716557257469 	0.08211251843966258 	101291.4963953537
-1.104854854854855 	299.9720845333337 	0.08087086650509752 	101292.0032212274
-1.102352352352353 	299.9725180321537 	0.0796128684350744 	101292.5155937153
-1.09984984984985 	299.9729568643962 	0.07833924822685702 	101293.0342716841
-1.097347347347347 	299.9734012714654 	0.07705423192061807 	101293.5595406273
-1.094844844844845 	299.9738503511887 	0.07575473348732539 	101294.0903341048
-1.092342342342342 	299.9743038095618 	0.07444098454621316 	101294.6263044594
-1.08983983983984 	299.974762374929 	0.07311120057210256 	101295.1683132238
-1.087337337337337 	299.9752259422951 	0.07176671059121631 	101295.7162356398
-1.084834834834835 	299.9756934328774 	0.07041353941616275 	101296.2687972522
-1.082332332332332 	299.9761647944122 	0.06904909852490825 	101296.8259363629
-1.07982982982983 	299.9766410068809 	0.06766990013414802 	101297.3888109906
-1.077327327327327 	299.9771221012911 	0.06627592705837869 	101297.9574578115
-1.074824824824825 	299.9776070944171 	0.06486862288259151 	101298.5307144664
-1.072322322322323 	299.9780956748722 	0.06345225587891658 	101299.1082140487
-1.06981981981982 	299.9785885112058 	0.06202656651095587 	101299.6907465644
-1.067317317317317 	299.9790859382425 	0.06058690342253537 	101300.2787070455
-1.064814814814815 	299.9795874202964 	0.05913390121743649 	101300.871462407
-1.062312312312312 	299.980092285974 	0.05766941183091071 	101301.4682194451
-1.05980980980981 	299.9806002839474 	0.05619684781616532 	101302.0686813777
-1.057307307307307 	299.9811114407225 	0.05471804951154741 	101302.6728793756
-1.054804804804805 	299.9816261013175 	0.05322812496393176 	101303.2812217037
-1.052302302302302 	299.9821449046013 	0.05172453739371172 	101303.8944634416
-1.0497997997998 	299.982667924468 	0.05020849108679123 	101304.5126914744
-1.047297297297297 	299.9831939300416 	0.04868442664022425 	101305.1344502615
-1.044794794794795 	299.983721459391 	0.04715710335816586 	101305.7580117419
-1.042292292292292 	299.9842506349419 	0.045624405791238 	101306.3835230479
-1.03978978978979 	299.9847833524184 	0.04408033473711488 	101307.013225659
-1.037287287287287 	299.9853214193482 	0.04252136707434199 	101307.6492539872
-1.034784784784785 	299.9858643119397 	0.04094970399417001 	101308.2909872938
-1.032282282282283 	299.9864089433186 	0.03937364468090564 	101308.934776757
-1.02977977977978 	299.9869525149567 	0.03779939099155943 	101309.5773166966
-1.027277277277277 	299.9874953791108 	0.03622497498607732 	101310.2190245149
-1.024774774774775 	299.9880406348429 	0.03464324206123912 	101310.8635630274
-1.022272272272272 	299.9885915415393 	0.03304597501803924 	101311.5147855475
-1.01976976976977 	299.989148769975 	0.0314330386928624 	101312.1734842212
-1.017267267267267 	299.9897096014067 	0.02981060077172789 	101312.8364430801
-1.014764764764765 	299.9902704859933 	0.02818606052511487 	101313.4994635447
-1.012262262262262 	299.9908295983474 	0.02656710758724404 	101314.1603899513
-1.00975975975976 	299.9913869046886 	0.02495097579288153 	101314.8191887231
-1.007257257257257 	299.9919442263306 	0.02333433903145985 	101315.4780121103
-1.004754754754755 	299.9925041069497 	0.02171254507081693 	101316.1398629673
-1.002252252252252 	299.9930680138471 	0.02007846803095564 	101316.8064724624
-0.9997497497497498 	299.9936362031583 	0.01843386420545425 	101317.4781459215
-0.9972472472472473 	299.9942076620741 	0.01677787692107445 	101318.153692807
-0.9947447447447449 	299.9947805748496 	0.01511735101632442 	101318.8309650322
-0.9922422422422421 	299.995353611808 	0.01346001406045819 	101319.5083827271
-0.9897397397397399 	299.9959258433401 	0.01180331727565197 	101320.1848421722
-0.9872372372372376 	299.9964972538884 	0.01014841692061443 	101320.8603303694
-0.9847347347347346 	299.997068252235 	0.00849224282833346 	101321.5353431739
-0.9822322322322323 	299.997639048109 	0.006836846144798825 	101322.2101313688
-0.9797297297297296 	299.9982098454024 	0.005184783826584933 	101322.8849263229
-0.9772272272272275 	299.9987812316919 	0.00352985293630236 	101323.5604087454
-0.9747247247247248 	299.9993535206248 	0.001872060164311842 	101324.2369473254
-0.9722222222222224 	299.9999265742944 	0.0007421600929687087 	101324.9143923371
-0.9697197197197196 	300.0005000085868 	0.001449853771139416 	101325.5923039356
-0.9672172172172175 	300.0010734783327 	0.003109803286735362 	101326.2702770148
-0.9647147147147147 	300.0016467779822 	0.004769525868207442 	101326.9480559479
-0.9622122122122124 	300.002219745658 	0.00642891980400307 	101327.6254322661
-0.9597097097097099 	300.0027922508087 	0.008088034657820138 	101328.3022448352
-0.9572072072072073 	300.0033641900496 	0.00974618440748143 	101328.9783799983
-0.9547047047047047 	300.0039354782647 	0.01140175064288869 	101329.653755219
-0.9522022022022023 	300.0045060416039 	0.01305466398817544 	101330.3282977637
-0.9496996996996998 	300.0050758136787 	0.01470522048612094 	101331.0019284179
-0.9471971971971973 	300.0056447339311 	0.0163534502271425 	101331.6745609263
-0.9446946946946947 	300.0062127173296 	0.01799944744613393 	101332.3460758891
-0.9421921921921923 	300.0067796209716 	0.01964122754965521 	101333.0162924627
-0.93968968968969 	300.0073452640822 	0.02127765221308538 	101333.6850006646
-0.9371871871871872 	300.0079094725861 	0.02291079506523839 	101334.3520105639
-0.9346846846846848 	300.0084721049794 	0.0245410505860284 	101335.0171713789
-0.9321821821821823 	300.0090330583058 	0.0261689051248122 	101335.6803720367
-0.9296796796796799 	300.009592263921 	0.02779132863379552 	101336.3415327076
-0.9271771771771771 	300.0101496891659 	0.0294053844940502 	101337.0006069224
-0.9246746746746748 	300.0107053251375 	0.03101416789835425 	101337.6575717761
-0.9221721721721724 	300.0112591341028 	0.03261825026991953 	101338.3123684466
-0.9196696696696698 	300.0118110003765 	0.03421730862593438 	101338.9648489811
-0.9171671671671672 	300.012360744498 	0.03580983274460372 	101339.6147979904
-0.9146646646646649 	300.0129081849578 	0.03739368278998172 	101340.2620046291
-0.9121621621621623 	300.0134531830079 	0.03897097189837877 	101340.9063125973
-0.9096596596596597 	300.0139956327934 	0.04054267165114241 	101341.5476040993
-0.9071571571571573 	300.0145354319887 	0.04210740008138332 	101342.1857643579
-0.9046546546546547 	300.0150724973706 	0.04366488611511932 	101342.8206987533
-0.9021521521521524 	300.0156067888529 	0.04521299413085944 	101343.4523621684
-0.8996496496496498 	300.0161382733336 	0.04675120913776033 	101344.0807174881
-0.8971471471471473 	300.016666859477 	0.04828151653517865 	101344.7056564686
-0.894644644644645 	300.0171923919157 	0.04980311566393314 	101345.3269953026
-0.892142142142142 	300.0177147309441 	0.05131804156017179 	101345.9445694005
-0.8896396396396397 	300.0182338180337 	0.05282277508195068 	101346.5583049858
-0.8871371371371374 	300.0187496120984 	0.054314661378179 	101347.1681525708
-0.8846346346346349 	300.0192619862199 	0.05579811506960662 	101347.7739605324
-0.8821321321321324 	300.0197707352195 	0.05727178253378487 	101348.3754851575
-0.8796296296296297 	300.020275706511 	0.05873734677505851 	101348.9725487548
-0.8771271271271271 	300.0207768795885 	0.06019066375853997 	101349.5651270883
-0.8746246246246248 	300.0212742724594 	0.06162869727325038 	101350.1532397433
-0.8721221221221224 	300.0217678089359 	0.06305704962487109 	101350.7367951449
-0.8696196196196196 	300.0222573363333 	0.06447479945455549 	101351.3156096322
-0.8671171171171175 	300.0227427627292 	0.06588309833729662 	101351.8895752713
-0.8646146146146148 	300.023224100693 	0.06727861333383015 	101352.4587081565
-0.8621121121121121 	300.0237013153627 	0.06865876766154937 	101353.0229692032
-0.8596096096096097 	300.0241742093824 	0.07002761458323527 	101353.5821260057
-0.857107107107107 	300.0246425303019 	0.07138424647891282 	101354.1358802677
-0.8546046046046049 	300.0251061565442 	0.07272844691142752 	101354.6840866198
-0.8521021021021022 	300.0255651083553 	0.07405856683596421 	101355.2267656257
-0.8495995995995997 	300.026019380937 	0.07537346470256566 	101355.7639106178
-0.8470970970970974 	300.0264688575668 	0.07667478497517957 	101356.2953833469
-0.8445945945945946 	300.0269134257405 	0.077962462473407 	101356.8210526762
-0.8420920920920922 	300.0273530912652 	0.07923676867093679 	101357.3409283947
-0.8395895895895897 	300.0277878858647 	0.08049666486032801 	101357.8550490815
-0.8370870870870872 	300.0282177164625 	0.08174125708061915 	101358.3633044127
-0.8345845845845846 	300.0286423767279 	0.08297088846176297 	101358.8654495414
-0.8320820820820823 	300.029061673969 	0.08418533934650052 	101359.3612554134
-0.8295795795795798 	300.0294755076859 	0.08538461693435787 	101359.8506010498
-0.8270770770770772 	300.0298838374624 	0.08656799503634929 	101360.3334368794
-0.8245745745745746 	300.0302866186335 	0.08773469221191574 	101360.809710112
-0.8220720720720721 	300.0306838000629 	0.08888464030724796 	101361.2793612317
-0.8195695695695699 	300.0310753527345 	0.09001844884712204 	101361.7423579212
-0.817067067067067 	300.0314612712953 	0.09113657895624963 	101362.1986943233
-0.8145645645645651 	300.0318415457528 	0.09223894606441213 	101362.6483589148
-0.8120620620620621 	300.0322160945626 	0.09332414687501217 	101363.0912558142
-0.8095595595595597 	300.032584739565 	0.0943909685073669 	101363.5271745726
-0.8070570570570572 	300.0329473141334 	0.09544057286090935 	101363.9559182314
-0.8045545545545546 	300.0333037445077 	0.09647315495483295 	101364.3773987236
-0.8020520520520523 	300.0336539825284 	0.09748956879136124 	101364.7915582694
-0.7995495495495494 	300.0339979733523 	0.09848720162881147 	101365.1983301688
-0.7970470470470474 	300.0343356824462 	0.09946354721309805 	101365.5976711316
-0.7945445445445446 	300.0346670856923 	0.1004222471992422 	101365.9895548761
-0.7920420420420423 	300.0349921848352 	0.1013640229044351 	101366.3739850529
-0.7895395395395397 	300.0353109730663 	0.1022884534184771 	101366.7509537901
-0.7870370370370371 	300.0356233394742 	0.1031943762671573 	101367.1203298218
-0.7845345345345348 	300.0359291395373 	0.1040791253931746 	101367.4819415158
-0.7820320320320323 	300.0362283061216 	0.1049443244553104 	101367.8357098037
-0.7795295295295296 	300.0365207868332 	0.1057914237131776 	101368.1815726139
-0.7770270270270272 	300.0368065052972 	0.106619092598847 	101368.5194395245
-0.7745245245245247 	300.0370854101672 	0.107429079155017 	101368.8492499028
-0.7720220220220222 	300.0373574663648 	0.1082178093577137 	101369.1709614025
-0.7695195195195199 	300.0376226685336 	0.1089840112639171 	101369.4845683032
-0.767017017017017 	300.0378810278373 	0.1097318789854834 	101369.7900841299
-0.7645145145145147 	300.0381324853316 	0.1104599037113703 	101370.0874385896
-0.7620120120120122 	300.0383769466904 	0.1111704559069594 	101370.3765213251
-0.7595095095095097 	300.0386143608692 	0.1118589254699818 	101370.6572698167
-0.7570070070070072 	300.0388446785605 	0.1125231532374063 	101370.9296266626
-0.7545045045045048 	300.0390678367824 	0.1131688082382804 	101371.1935177569
-0.7520020020020022 	300.0392837671564 	0.1137942271273754 	101371.4488612797
-0.7494994994994997 	300.0394924205106 	0.1144008556253026 	101371.6955995639
-0.7469969969969972 	300.0396938118491 	0.1149851601941835 	101371.9337497615
-0.7444944944944945 	300.0398879579421 	0.1155455350588213 	101372.1633328506
-0.7419919919919924 	300.040074820645 	0.1160862144547404 	101372.3843036538
-0.7394894894894897 	300.040254349591 	0.1166059714281431 	101372.5966017781
-0.7369869869869872 	300.0404265081715 	0.1171050937191162 	101372.8001836231
-0.7344844844844846 	300.0405912527831 	0.1175820770742658 	101372.9949971276
-0.7319819819819822 	300.0407485154013 	0.1180364012793757 	101373.1809630789
-0.7294794794794797 	300.0408982220241 	0.1184696774113423 	101373.3579942719
-0.7269769769769773 	300.0410403302203 	0.1188814960395522 	101373.526039958
-0.7244744744744747 	300.0411748460234 	0.1192722055565255 	101373.6851073888
-0.721971971971972 	300.0413017923341 	0.1196406973573525 	101373.8352224289
-0.7194694694694695 	300.0414211707165 	0.1199865545980322 	101373.9763871141
-0.7169669669669674 	300.041532981225 	0.120310355139185 	101374.1086018117
-0.7144644644644647 	300.0416372249495 	0.1206118889310303 	101374.2318682656
-0.711961961961962 	300.0417338809698 	0.1208915407393143 	101374.3461630167
-0.7094594594594597 	300.0418229073405 	0.121148780705568 	101374.4514363178
-0.7069569569569573 	300.0419042309054 	0.1213835619589796 	101374.5476000539
-0.7044544544544545 	300.0419777624359 	0.1215961420046015 	101374.6345467433
-0.7019519519519523 	300.0420434600342 	0.1217866408597295 	101374.712227488
-0.6994494494494495 	300.0421013481476 	0.1219553516146745 	101374.7806728488
-0.6969469469469471 	300.0421514612714 	0.1221018059324159 	101374.8399249917
-0.6944444444444446 	300.0421938340332 	0.1222255051017809 	101374.8900257297
-0.6919419419419421 	300.0422285055861 	0.1223258301502715 	101374.9310188037
-0.6894394394394396 	300.0422555185523 	0.1224032277541195 	101374.9629540151
-0.6869369369369374 	300.0422748993199 	0.1224583644373673 	101374.9858622414
-0.6844344344344344 	300.042286587653 	0.1224917465689606 	101374.9996717602
-0.6819319319319321 	300.0422904401178 	0.1225028255140396 	101375.0042132233
-0.6794294294294296 	300.0422863721562 	0.1224904184121947 	101374.9993881559
-0.6769269269269272 	300.0422744119778 	0.1224557896332163 	101374.9852330919
-0.6744244244244245 	300.0422546108381 	0.1223993580278104 	101374.9618075526
-0.6719219219219222 	300.0422269898817 	0.1223221302798919 	101374.9291357913
-0.6694194194194195 	300.0421915759825 	0.1222216169245403 	101374.8872451394
-0.6669169169169172 	300.042148454527 	0.1220949478107943 	101374.8362357752
-0.6644144144144146 	300.0420977404903 	0.1219458549967597 	101374.7762470162
-0.661911911911912 	300.0420394323114 	0.1217756841154205 	101374.7072763385
-0.6594094094094097 	300.0419733677631 	0.1215843185385659 	101374.6291338476
-0.656906906906907 	300.0418994510031 	0.1213724841260791 	101374.5417085106
-0.6544044044044046 	300.0418177713581 	0.1211361967344769 	101374.4451032002
-0.6519019019019021 	300.0417284524676 	0.1208757701878998 	101374.3394652625
-0.6493993993993996 	300.041631494019 	0.1205943761901761 	101374.2247949062
-0.6468968968968971 	300.0415267675623 	0.120290784662011 	101374.1009364906
-0.6443943943943946 	300.0414142133116 	0.1199680484951327 	101373.9678205882
-0.6418918918918921 	300.0412940080914 	0.119620767995854 	101373.8256540821
-0.6393893893893897 	300.0411663542538 	0.1192476316020771 	101373.6746759351
-0.6368868868868871 	300.0410312433621 	0.1188550953887862 	101373.5148779527
-0.6343843843843846 	300.0408885977805 	0.118441650864957 	101373.3461692467
-0.6318818818818821 	300.0407384154772 	0.1180096458153387 	101373.1685476268
-0.6293793793793795 	300.0405807587968 	0.1175538207567702 	101372.9820875795
-0.6268768768768773 	300.0404156651944 	0.1170726597480572 	101372.7868364032
-0.6243743743743745 	300.0402429690441 	0.1165718821784479 	101372.5827021013
-0.6218718718718721 	300.0400627920432 	0.1160502244753287 	101372.3696248014
-0.6193693693693696 	300.0398752742393 	0.115508142368396 	101372.1477774851
-0.6168668668668671 	300.0396803687256 	0.1149435847482285 	101371.9172545863
-0.6143643643643645 	300.0394780557853 	0.1143564970737437 	101371.6779962723
-0.6118618618618621 	300.0392685022114 	0.1137490474228369 	101371.4301745487
-0.6093593593593596 	300.0390518750419 	0.1131212733789762 	101371.1739862088
-0.6068568568568571 	300.0388281561305 	0.1124740641437549 	101370.9094095071
-0.6043543543543546 	300.0385973490693 	0.1118057148220006 	101370.6364479024
-0.6018518518518521 	300.0383593616856 	0.1111155785818954 	101370.3549937099
-0.5993493493493496 	300.0381140473967 	0.1104047377894176 	101370.0648766976
-0.5968468468468471 	300.0378616371773 	0.109673675911202 	101369.7663723534
-0.5943443443443446 	300.0376024442152 	0.1089233524808611 	101369.4598500103
-0.591841841841842 	300.0373364271022 	0.1081528772229758 	101369.1452601849
-0.5893393393393397 	300.0370634153596 	0.1073616109163553 	101368.8224016398
-0.5868368368368371 	300.0367832747555 	0.1065497432559418 	101368.4911147064
-0.5843343343343346 	300.0364961799053 	0.1057182554050612 	101368.1516052607
-0.5818318318318321 	300.0362027057179 	0.1048686136402116 	101367.8045518154
-0.5793293293293297 	300.0359030918037 	0.1040006235347362 	101367.4502366604
-0.5768268268268271 	300.0355969787999 	0.103113604959583 	101367.0882353078
-0.5743243243243245 	300.0352838642698 	0.1022062311905636 	101366.7179542417
-0.5718218218218221 	300.0349636162185 	0.1012785969233269 	101366.3392376756
-0.5693193193193196 	300.0346367750575 	0.1003323386285097 	101365.9527252123
-0.5668168168168171 	300.0343040356876 	0.09936870089251799 	101365.5592393524
-0.5643143143143147 	300.0339655101197 	0.09838814413304078 	101365.1589122571
-0.5618118118118121 	300.0336207743652 	0.09738903067389749 	101364.7512419421
-0.5593093093093094 	300.0332693736102 	0.09637069135291609 	101364.335693198
-0.5568068068068072 	300.0329113348781 	0.09533363477477864 	101363.9122972473
-0.5543043043043046 	300.0325471020357 	0.0942794092785814 	101363.4815786372
-0.551801801801802 	300.0321773520398 	0.09320907330328908 	101363.0443377992
-0.5492992992992995 	300.031802285261 	0.09212169378311698 	101362.600810419
-0.5467967967967969 	300.0314216166367 	0.09101793986843625 	101362.1506599529
-0.5442942942942947 	300.0310347356913 	0.08989701864921444 	101361.6931646428
-0.5417917917917919 	300.0306412978622 	0.08875914582980118 	101361.227917884
-0.5392892892892895 	300.03024151944 	0.08760335451860971 	101360.7551754496
-0.536786786786787 	300.0298363197513 	0.08642814528727553 	101360.2760235422
-0.5342842842842846 	300.0294264682183 	0.08523915449373648 	101359.7913735065
-0.531781781781782 	300.0290122044815 	0.0840386339180091 	101359.3015076681
-0.5292792792792794 	300.0285929839455 	0.0828238483476878 	101358.8057816305
-0.526776776776777 	300.028167930026 	0.08159527376370095 	101358.3031596846
-0.5242742742742745 	300.0277364438149 	0.08034553137328125 	101357.7929324707
-0.521771771771772 	300.0272989463095 	0.07907534716583349 	101357.2755999583
-0.5192692692692695 	300.0268564207391 	0.0777934938737071 	101356.7523252908
-0.516766766766767 	300.0264098445099 	0.07650005107939412 	101356.2242626273
-0.5142642642642645 	300.0259595108922 	0.0751985798606877 	101355.6917597877
-0.511761761761762 	300.0255049518425 	0.07388185896881438 	101355.1542610374
-0.5092592592592596 	300.0250453518223 	0.07254711646554841 	101354.610803791
-0.506756756756757 	300.0245801566555 	0.07119893273432544 	101354.0607329687
-0.5042542542542544 	300.0241093970047 	0.06983522136687272 	101353.5040844029
-0.5017517517517521 	300.0236337304129 	0.06845867008920138 	101352.9416369286
-0.4992492492492494 	300.0231541199597 	0.06706921488066171 	101352.3745286505
-0.496746746746747 	300.0226711903885 	0.06566895714139445 	101351.8034991714
-0.4942442442442445 	300.0221850032179 	0.06426064478361053 	101351.2286202713
-0.4917417417417421 	300.0216952558271 	0.06284216160017274 	101350.6495328727
-0.4892392392392395 	300.0212011608778 	0.06141180959917548 	101350.0653067974
-0.486736736736737 	300.0207021016226 	0.05996634779087562 	101349.4752130711
-0.4842342342342345 	300.0201981260369 	0.05850592460773432 	101348.8793100817
-0.481731731731732 	300.0196898026063 	0.0570333066503249 	101348.2782691318
-0.4792292292292296 	300.019178009388 	0.05555054750457308 	101347.6731282964
-0.4767267267267268 	300.0186635113974 	0.05405986967648681 	101347.0647922448
-0.4742242242242246 	300.0181464735592 	0.05256133055118108 	101346.4534555259
-0.471721721721722 	300.0176267727672 	0.05105547346131207 	101345.8389742944
-0.4692192192192195 	300.0171041965739 	0.04954188382571847 	101345.2210958171
-0.4667167167167169 	300.0165782006051 	0.04801887920914608 	101344.5991756791
-0.4642142142142145 	300.0160484183028 	0.04648539841831915 	101343.9727801444
-0.461711711711712 	300.0155148888981 	0.0449402088644649 	101343.3419570329
-0.4592092092092094 	300.0149777293987 	0.04338429101364728 	101342.7068465342
-0.456706706706707 	300.0144373589291 	0.04181891775923505 	101342.0679437934
-0.4542042042042045 	300.013894597183 	0.04024560393686565 	101341.4262170098
-0.451701701701702 	300.013349712763 	0.03866618618597779 	101340.7819819271
-0.4491991991991995 	300.0128026645426 	0.03708102078816239 	101340.1351907175
-0.4466966966966969 	300.0122535545767 	0.03549080127299536 	101339.4859661055
-0.4441941941941945 	300.0117025631779 	0.03389558184600431 	101338.8345217905
-0.441691691691692 	300.0111498349309 	0.03229517672062587 	101338.1810277886
-0.4391891891891895 	300.0105954838892 	0.03068911140191072 	101337.5256166302
-0.436686686686687 	300.0100390109702 	0.02907729951936945 	101336.8676978323
-0.4341841841841846 	300.0094804805302 	0.02746033199440813 	101336.2073491185
-0.431681681681682 	300.0089203503704 	0.0258368078546466 	101335.5451137743
-0.4291791791791794 	300.0083585141662 	0.02420754068825211 	101334.8808676601
-0.426676676676677 	300.0077946338828 	0.02257314396384003 	101334.2142083681
-0.4241741741741744 	300.0072288050075 	0.02093385361393094 	101333.5452464019
-0.421671671671672 	300.0066604476373 	0.01929016971829858 	101332.8732954149
-0.4191691691691694 	300.0060902091702 	0.01763948220113288 	101332.1991224507
-0.4166666666666669 	300.0055188010417 	0.01598250253607715 	101331.5235726625
-0.4141641641641645 	300.0049459200768 	0.01432222659347795 	101330.8462898672
-0.411661661661662 	300.0043714421196 	0.01266027910383601 	101330.1671229365
-0.4091591591591594 	300.0037964611031 	0.01099709477489856 	101329.4873630685
-0.406656656656657 	300.003220801555 	0.00932874251621482 	101328.8067993645
-0.4041541541541545 	300.0026455818314 	0.007659376581687987 	101328.1267572393
-0.401651651651652 	300.0020708684631 	0.005993334889082933 	101327.447319738
-0.3991491491491494 	300.0014960964448 	0.004328633671450928 	101326.7678214121
-0.396646646646647 	300.000921878327 	0.002669403209961014 	101326.0889859284
-0.3941441441441444 	300.0003489028699 	0.001009419375777185 	101325.4116199988
-0.3916416416416419 	299.999776528232 	0.0008867512878172338 	101324.7349619897
-0.3891391391391395 	299.9992039387664 	0.00231180908960075 	101324.0580474413
-0.3866366366366368 	299.9986309120333 	0.003972045297989911 	101323.3806190941
-0.3841341341341344 	299.9980575798248 	0.005630632509153025 	101322.7028391666
-0.381631631631632 	299.9974842622145 	0.007291034854397019 	101322.0250868625
-0.3791291291291294 	299.996911250252 	0.008953060417182553 	101321.3477022215
-0.3766266266266269 	299.9963386577841 	0.01061232297474007 	101320.6708127642
-0.3741241241241244 	299.995766519085 	0.01226993222861995 	101319.9944546706
-0.371621621621622 	299.9951949692053 	0.01392439203853657 	101319.3187901982
-0.3691191191191194 	299.9946242238839 	0.01557760581200243 	101318.6440803508
-0.366616616616617 	299.9940544182559 	0.01722927074581809 	101317.9704928557
-0.3641141141141143 	299.9934855920636 	0.01887724052566701 	101317.2980761183
-0.3616116116116119 	299.9929178269432 	0.02052197048920427 	101316.6269212175
-0.3591091091091095 	299.9923513193853 	0.02216222255848784 	101315.9572522318
-0.356606606606607 	299.9917862815142 	0.02379913107781344 	101315.2893131093
-0.3541041041041044 	299.9912228169887 	0.02543210319972116 	101314.6232274208
-0.3516016016016019 	299.9906609599306 	0.027059877496293 	101313.9590425802
-0.3490990990990994 	299.9901007924993 	0.02868276704022435 	101313.2968657563
-0.346596596596597 	299.9895424575625 	0.03029971981015946 	101312.6368711476
-0.3440940940940944 	299.988986075959 	0.03191159835308496 	101311.9791985582
-0.3415915915915919 	299.9884317132381 	0.03351774158457579 	101311.3239168914
-0.3390890890890895 	299.9878794356384 	0.03511755183775204 	101310.6710936711
-0.3365865865865869 	299.9873293641006 	0.03671121822387575 	101310.0208671334
-0.3340840840840844 	299.9867816484989 	0.0382975939507816 	101309.3734181312
-0.3315815815815819 	299.9862363995856 	0.03987728925858612 	101308.7288863866
-0.3290790790790794 	299.9856936895752 	0.04144945360446908 	101308.0873687247
-0.3265765765765769 	299.9851536050739 	0.04301398420378269 	101307.4489729414
-0.3240740740740744 	299.9846162584978 	0.04457095459237455 	101306.8138295457
-0.3215715715715718 	299.9840817770853 	0.04611909736715435 	101306.1820798646
-0.3190690690690695 	299.9835502682774 	0.04765902246246381 	101305.5538386935
-0.3165665665665668 	299.9830217904104 	0.04918969323154408 	101304.9291666731
-0.3140640640640644 	299.9824964188898 	0.05071155660700141 	101304.308152718
-0.311561561561562 	299.9819742880319 	0.05222465779781463 	101303.690964368
-0.3090590590590593 	299.9814555065958 	0.05372744542789966 	101303.0777413593
-0.3065565565565568 	299.9809401358129 	0.05522051672286732 	101302.4685665975
-0.3040540540540545 	299.9804282637209 	0.05670253457123886 	101301.8635485816
-0.3015515515515518 	299.9799200018777 	0.05817480243855315 	101301.2628145643
-0.2990490490490494 	299.9794154672668 	0.05963725484497791 	101300.6664941489
-0.2965465465465469 	299.9789147850434 	0.06108776132096843 	101300.0747227011
-0.2940440440440444 	299.9784180262699 	0.06252710141441656 	101299.4875755691
-0.2915415415415418 	299.9779252424389 	0.06395305671526264 	101298.9051107882
-0.2890390390390395 	299.977436546919 	0.06536871158836316 	101298.3274649595