/*--------------------------------*- C++ -*----------------------------------*\
  =========                 |
  \\      /  F ield         | OpenFOAM: The Open Source CFD Toolbox
   \\    /   O peration     | Website:  https://openfoam.org
    \\  /    A nd           | Version:  7
     \\/     M anipulation  |
\*---------------------------------------------------------------------------*/
FoamFile
{
    version     2.0;
    format      ascii;
    class       volScalarField;
    location    "0.00281";
    object      T;
}
// * * * * * * * * * * * * * * * * * * * * * * * * * * * * * * * * * * * * * //

dimensions      [0 0 0 1 0 0 0];

internalField   nonuniform List<scalar> 
5000
(
285.38494
285.38494
285.38494
285.38494
285.38494
285.38494
285.38494
285.38494
285.38494
285.38494
285.38494
285.38494
285.38494
285.38494
285.38494
285.38494
285.38494
285.38494
285.38494
285.38494
285.38494
285.38494
285.38494
285.38494
285.38494
285.38494
285.38494
285.38494
285.38494
285.38494
285.38494
285.38494
285.38494
285.38494
285.38494
285.38494
285.38494
285.38494
285.38494
285.38494
285.38494
285.38494
285.38494
285.38494
285.38494
285.38494
285.38494
285.38494
285.38494
285.38494
285.38494
285.38494
285.38494
285.38494
285.38494
285.38494
285.38494
285.38494
285.38494
285.38494
285.38494
285.38494
285.38494
285.38494
285.38494
285.38494
285.38494
285.38494
285.38494
285.38494
285.38494
285.38494
285.38494
285.38494
285.38494
285.38494
285.38494
285.38494
285.38494
285.38494
285.38494
285.38494
285.38494
285.38494
285.38494
285.38494
285.38494
285.38494
285.38494
285.38494
285.38494
285.38494
285.38494
285.38493
285.38493
285.38493
285.38493
285.38493
285.38493
285.38493
285.38493
285.38493
285.38493
285.38493
285.38494
285.38494
285.38494
285.38494
285.38494
285.38494
285.38494
285.38495
285.38495
285.38495
285.38496
285.38496
285.38497
285.38497
285.38497
285.38498
285.38498
285.38499
285.38501
285.38505
285.38514
285.38534
285.38583
285.38672
285.38799
285.38976
285.39215
285.39534
285.39952
285.40486
285.41153
285.41965
285.42927
285.44037
285.45286
285.46654
285.48117
285.49645
285.51203
285.52757
285.54277
285.55731
285.57098
285.58358
285.595
285.60517
285.61408
285.62177
285.62831
285.6338
285.63834
285.64204
285.64503
285.64741
285.64929
285.65076
285.65189
285.65276
285.65342
285.65391
285.65428
285.65455
285.65475
285.6549
285.65501
285.65508
285.65514
285.65518
285.65521
285.65523
285.65524
285.65525
285.65526
285.65527
285.65527
285.65527
285.65527
285.65528
285.65528
285.65528
285.65528
285.65528
285.65528
285.65528
285.65528
285.65528
285.65529
285.65529
285.65529
285.65529
285.65529
285.65529
285.65529
285.65529
285.65529
285.65529
285.65529
285.65529
285.65529
285.65529
285.6553
285.6553
285.6553
285.6553
285.6553
285.6553
285.6553
285.6553
285.6553
285.6553
285.6553
285.6553
285.6553
285.6553
285.6553
285.65531
285.65531
285.65531
285.65531
285.65531
285.65531
285.65531
285.65531
285.65531
285.65531
285.65531
285.65531
285.65531
285.65531
285.65532
285.65532
285.65532
285.65532
285.65532
285.65532
285.65532
285.65532
285.65532
285.65532
285.65532
285.65532
285.65532
285.65532
285.65532
285.65533
285.65533
285.65533
285.65533
285.65533
285.65533
285.65533
285.65533
285.65533
285.65533
285.65533
285.65533
285.65533
285.65534
285.65534
285.65534
285.65534
285.65534
285.65534
285.65534
285.65534
285.65534
285.65534
285.65534
285.65534
285.65534
285.65534
285.65535
285.65535
285.65535
285.65535
285.65535
285.65535
285.65535
285.65535
285.65535
285.65535
285.65535
285.65535
285.65535
285.65535
285.65536
285.65536
285.65536
285.65536
285.65536
285.65536
285.65536
285.65536
285.65536
285.65536
285.65536
285.65536
285.65536
285.65536
285.65537
285.65537
285.65537
285.65537
285.65537
285.65537
285.65537
285.65537
285.65537
285.65537
285.65537
285.65537
285.65537
285.65537
285.65538
285.65538
285.65538
285.65538
285.65538
285.65538
285.65538
285.65538
285.65538
285.65538
285.65538
285.65538
285.65538
285.65539
285.65539
285.65539
285.65539
285.65539
285.65539
285.65539
285.65539
285.65539
285.65539
285.65539
285.65539
285.65539
285.65539
285.6554
285.6554
285.6554
285.6554
285.6554
285.6554
285.6554
285.6554
285.6554
285.6554
285.6554
285.6554
285.6554
285.6554
285.65541
285.65541
285.65541
285.65541
285.65541
285.65541
285.65541
285.65541
285.65541
285.65541
285.65541
285.65541
285.65542
285.65542
285.65542
285.65542
285.65542
285.65542
285.65542
285.65542
285.65542
285.65542
285.65542
285.65542
285.65542
285.65542
285.65543
285.65543
285.65543
285.65543
285.65543
285.65543
285.65543
285.65543
285.65543
285.65543
285.65543
285.65543
285.65544
285.65544
285.65544
285.65544
285.65544
285.65544
285.65544
285.65544
285.65544
285.65544
285.65544
285.65544
285.65544
285.65545
285.65545
285.65545
285.65545
285.65545
285.65545
285.65545
285.65545
285.65545
285.65545
285.65545
285.65545
285.65545
285.65546
285.65546
285.65546
285.65546
285.65546
285.65546
285.65546
285.65546
285.65546
285.65546
285.65546
285.65546
285.65547
285.65547
285.65547
285.65547
285.65547
285.65547
285.65547
285.65547
285.65547
285.65547
285.65547
285.65547
285.65548
285.65548
285.65548
285.65548
285.65548
285.65548
285.65548
285.65548
285.65548
285.65548
285.65548
285.65548
285.65548
285.65549
285.65549
285.65549
285.65549
285.65549
285.65549
285.65549
285.65549
285.65549
285.65549
285.65549
285.65549
285.65549
285.6555
285.6555
285.6555
285.6555
285.6555
285.6555
285.6555
285.6555
285.6555
285.6555
285.6555
285.6555
285.6555
285.65551
285.65551
285.65551
285.65551
285.65551
285.65551
285.65551
285.65551
285.65551
285.65551
285.65551
285.65552
285.65552
285.65552
285.65552
285.65552
285.65552
285.65552
285.65552
285.65552
285.65552
285.65552
285.65553
285.65553
285.65553
285.65553
285.65553
285.65553
285.65553
285.65553
285.65553
285.65553
285.65553
285.65553
285.65553
285.65554
285.65554
285.65554
285.65554
285.65554
285.65554
285.65554
285.65554
285.65554
285.65554
285.65554
285.65554
285.65554
285.65554
285.65554
285.65555
285.65555
285.65555
285.65555
285.65555
285.65555
285.65555
285.65555
285.65555
285.65556
285.65556
285.65556
285.65556
285.65556
285.65556
285.65556
285.65556
285.65556
285.65556
285.65556
285.65556
285.65557
285.65557
285.65557
285.65557
285.65557
285.65557
285.65557
285.65557
285.65557
285.65557
285.65557
285.65557
285.65558
285.65558
285.65558
285.65558
285.65558
285.65558
285.65558
285.65558
285.65558
285.65558
285.65558
285.65558
285.65559
285.65559
285.65559
285.65559
285.65559
285.65559
285.65559
285.65559
285.65559
285.65559
285.65559
285.65559
285.6556
285.6556
285.6556
285.6556
285.6556
285.6556
285.6556
285.6556
285.6556
285.6556
285.65561
285.65561
285.65561
285.65561
285.65561
285.65561
285.65561
285.65561
285.65561
285.65561
285.65561
285.65561
285.65561
285.65561
285.65562
285.65562
285.65562
285.65562
285.65562
285.65562
285.65562
285.65562
285.65562
285.65562
285.65563
285.65563
285.65563
285.65563
285.65563
285.65563
285.65563
285.65563
285.65563
285.65563
285.65563
285.65564
285.65564
285.65564
285.65564
285.65564
285.65564
285.65564
285.65564
285.65564
285.65564
285.65564
285.65565
285.65565
285.65565
285.65565
285.65565
285.65565
285.65565
285.65565
285.65565
285.65565
285.65565
285.65565
285.65566
285.65566
285.65566
285.65566
285.65566
285.65566
285.65566
285.65566
285.65566
285.65566
285.65566
285.65567
285.65567
285.65567
285.65567
285.65567
285.65567
285.65567
285.65567
285.65567
285.65567
285.65567
285.65568
285.65568
285.65568
285.65568
285.65568
285.65568
285.65568
285.65568
285.65568
285.65568
285.65569
285.65569
285.65569
285.65569
285.65569
285.65569
285.65569
285.65569
285.65569
285.65569
285.65569
285.6557
285.6557
285.6557
285.6557
285.6557
285.6557
285.6557
285.6557
285.6557
285.6557
285.6557
285.65571
285.65571
285.65571
285.65571
285.65571
285.65571
285.65571
285.65571
285.65571
285.65571
285.65572
285.65572
285.65572
285.65572
285.65572
285.65572
285.65572
285.65572
285.65572
285.65572
285.65572
285.65573
285.65573
285.65573
285.65573
285.65573
285.65573
285.65573
285.65573
285.65573
285.65573
285.65573
285.65574
285.65574
285.65574
285.65574
285.65574
285.65574
285.65574
285.65574
285.65574
285.65574
285.65575
285.65575
285.65575
285.65575
285.65575
285.65575
285.65575
285.65575
285.65575
285.65575
285.65576
285.65576
285.65576
285.65576
285.65576
285.65576
285.65576
285.65576
285.65576
285.65576
285.65576
285.65577
285.65577
285.65577
285.65577
285.65577
285.65577
285.65577
285.65577
285.65577
285.65577
285.65578
285.65578
285.65578
285.65578
285.65578
285.65578
285.65578
285.65578
285.65578
285.65578
285.65578
285.65579
285.65579
285.65579
285.65579
285.65579
285.65579
285.65579
285.65579
285.65579
285.6558
285.6558
285.6558
285.6558
285.6558
285.6558
285.6558
285.6558
285.6558
285.6558
285.65581
285.65581
285.65581
285.65581
285.65581
285.65581
285.65581
285.65581
285.65581
285.65582
285.65582
285.65582
285.65582
285.65582
285.65582
285.65582
285.65582
285.65582
285.65582
285.65583
285.65583
285.65583
285.65583
285.65583
285.65583
285.65583
285.65583
285.65583
285.65583
285.65584
285.65584
285.65584
285.65584
285.65584
285.65584
285.65584
285.65584
285.65584
285.65584
285.65584
285.65585
285.65585
285.65585
285.65585
285.65585
285.65585
285.65585
285.65585
285.65585
285.65586
285.65586
285.65586
285.65586
285.65586
285.65586
285.65586
285.65586
285.65586
285.65587
285.65587
285.65587
285.65587
285.65587
285.65587
285.65587
285.65587
285.65587
285.65587
285.65588
285.65588
285.65588
285.65588
285.65588
285.65588
285.65588
285.65588
285.65588
285.65588
285.65589
285.65589
285.65589
285.65589
285.65589
285.65589
285.65589
285.65589
285.6559
285.6559
285.6559
285.6559
285.6559
285.6559
285.6559
285.6559
285.6559
285.6559
285.65591
285.65591
285.65591
285.65591
285.65591
285.65591
285.65591
285.65591
285.65591
285.65592
285.65592
285.65592
285.65592
285.65592
285.65592
285.65592
285.65592
285.65592
285.65592
285.65593
285.65593
285.65593
285.65593
285.65593
285.65593
285.65593
285.65593
285.65594
285.65594
285.65594
285.65594
285.65594
285.65594
285.65594
285.65594
285.65594
285.65595
285.65595
285.65595
285.65595
285.65595
285.65595
285.65595
285.65595
285.65595
285.65596
285.65596
285.65596
285.65596
285.65596
285.65596
285.65596
285.65596
285.65596
285.65597
285.65597
285.65597
285.65597
285.65597
285.65597
285.65597
285.65597
285.65598
285.65598
285.65598
285.65598
285.65598
285.65598
285.65598
285.65598
285.65598
285.65598
285.65599
285.65599
285.65599
285.65599
285.65599
285.65599
285.65599
285.65599
285.656
285.656
285.656
285.656
285.656
285.656
285.656
285.656
285.65601
285.65601
285.65601
285.65601
285.65601
285.65601
285.65601
285.65601
285.65601
285.65601
285.65602
285.65602
285.65602
285.65602
285.65602
285.65602
285.65602
285.65602
285.65603
285.65603
285.65603
285.65603
285.65603
285.65603
285.65603
285.65603
285.65603
285.65603
285.65604
285.65604
285.65604
285.65604
285.65604
285.65604
285.65604
285.65604
285.65605
285.65605
285.65605
285.65605
285.65605
285.65605
285.65606
285.65606
285.65606
285.65606
285.65606
285.65606
285.65606
285.65606
285.65606
285.65606
285.65607
285.65607
285.65607
285.65607
285.65607
285.65607
285.65607
285.65607
285.65607
285.65608
285.65608
285.65608
285.65608
285.65608
285.65608
285.65608
285.65609
285.65609
285.65609
285.65609
285.65609
285.65609
285.65609
285.65609
285.6561
285.6561
285.6561
285.6561
285.6561
285.6561
285.6561
285.6561
285.65611
285.65611
285.65611
285.65611
285.65611
285.65611
285.65611
285.65611
285.65612
285.65612
285.65612
285.65612
285.65612
285.65612
285.65612
285.65612
285.65612
285.65613
285.65613
285.65613
285.65613
285.65613
285.65613
285.65613
285.65613
285.65614
285.65614
285.65614
285.65614
285.65614
285.65614
285.65614
285.65614
285.65615
285.65615
285.65615
285.65615
285.65615
285.65615
285.65615
285.65616
285.65616
285.65616
285.65616
285.65616
285.65616
285.65616
285.65616
285.65617
285.65617
285.65617
285.65617
285.65617
285.65617
285.65617
285.65617
285.65618
285.65618
285.65618
285.65618
285.65618
285.65618
285.65618
285.65618
285.65619
285.65619
285.65619
285.65619
285.65619
285.65619
285.65619
285.6562
285.6562
285.6562
285.6562
285.6562
285.6562
285.6562
285.65621
285.65621
285.65621
285.65621
285.65621
285.65621
285.65621
285.65622
285.65622
285.65622
285.65622
285.65622
285.65622
285.65622
285.65623
285.65623
285.65623
285.65623
285.65623
285.65623
285.65623
285.65623
285.65624
285.65624
285.65624
285.65624
285.65624
285.65624
285.65624
285.65624
285.65625
285.65625
285.65625
285.65625
285.65625
285.65625
285.65625
285.65626
285.65626
285.65626
285.65626
285.65626
285.65626
285.65626
285.65627
285.65627
285.65627
285.65627
285.65627
285.65627
285.65627
285.65628
285.65628
285.65628
285.65628
285.65628
285.65628
285.65628
285.65628
285.65629
285.65629
285.65629
285.65629
285.65629
285.65629
285.65629
285.65629
285.6563
285.6563
285.6563
285.6563
285.6563
285.6563
285.6563
285.65631
285.65631
285.65631
285.65631
285.65631
285.65631
285.65632
285.65632
285.65632
285.65632
285.65632
285.65632
285.65633
285.65633
285.65633
285.65633
285.65633
285.65633
285.65633
285.65633
285.65634
285.65634
285.65634
285.65634
285.65634
285.65634
285.65634
285.65635
285.65635
285.65635
285.65635
285.65635
285.65635
285.65635
285.65636
285.65636
285.65636
285.65636
285.65636
285.65636
285.65636
285.65637
285.65637
285.65637
285.65637
285.65637
285.65637
285.65638
285.65638
285.65638
285.65638
285.65638
285.65638
285.65639
285.65639
285.65639
285.65639
285.65639
285.65639
285.65639
285.6564
285.6564
285.6564
285.6564
285.6564
285.6564
285.6564
285.65641
285.65641
285.65641
285.65641
285.65641
285.65641
285.65641
285.65642
285.65642
285.65642
285.65642
285.65642
285.65642
285.65643
285.65643
285.65643
285.65643
285.65643
285.65643
285.65643
285.65644
285.65644
285.65644
285.65644
285.65644
285.65644
285.65644
285.65645
285.65645
285.65645
285.65645
285.65645
285.65645
285.65646
285.65646
285.65646
285.65646
285.65646
285.65646
285.65647
285.65647
285.65647
285.65647
285.65647
285.65647
285.65648
285.65648
285.65648
285.65648
285.65648
285.65648
285.65649
285.65649
285.65649
285.65649
285.65649
285.65649
285.6565
285.6565
285.6565
285.6565
285.6565
285.6565
285.6565
285.65651
285.65651
285.65651
285.65651
285.65651
285.65651
285.65652
285.65652
285.65652
285.65652
285.65652
285.65652
285.65653
285.65653
285.65653
285.65653
285.65653
285.65654
285.65654
285.65654
285.65654
285.65654
285.65654
285.65654
285.65655
285.65655
285.65655
285.65655
285.65655
285.65655
285.65656
285.65656
285.65656
285.65656
285.65656
285.65656
285.65657
285.65657
285.65657
285.65657
285.65657
285.65657
285.65658
285.65658
285.65658
285.65658
285.65658
285.65658
285.65659
285.65659
285.65659
285.65659
285.65659
285.6566
285.6566
285.6566
285.6566
285.6566
285.6566
285.65661
285.65661
285.65661
285.65661
285.65661
285.65661
285.65662
285.65662
285.65662
285.65662
285.65662
285.65662
285.65663
285.65663
285.65663
285.65663
285.65663
285.65664
285.65664
285.65664
285.65664
285.65664
285.65664
285.65665
285.65665
285.65665
285.65665
285.65665
285.65666
285.65666
285.65666
285.65666
285.65666
285.65666
285.65667
285.65667
285.65667
285.65667
285.65667
285.65667
285.65668
285.65668
285.65668
285.65668
285.65668
285.65669
285.65669
285.65669
285.65669
285.65669
285.6567
285.6567
285.6567
285.6567
285.6567
285.6567
285.65671
285.65671
285.65671
285.65671
285.65671
285.65671
285.65672
285.65672
285.65672
285.65672
285.65672
285.65673
285.65673
285.65673
285.65673
285.65673
285.65674
285.65674
285.65674
285.65674
285.65674
285.65675
285.65675
285.65675
285.65675
285.65675
285.65676
285.65676
285.65676
285.65676
285.65676
285.65677
285.65677
285.65677
285.65677
285.65677
285.65677
285.65678
285.65678
285.65678
285.65678
285.65678
285.65679
285.65679
285.65679
285.65679
285.65679
285.65679
285.6568
285.6568
285.6568
285.6568
285.6568
285.65681
285.65681
285.65681
285.65681
285.65681
285.65682
285.65682
285.65682
285.65682
285.65682
285.65683
285.65683
285.65683
285.65683
285.65683
285.65684
285.65684
285.65684
285.65684
285.65684
285.65685
285.65685
285.65685
285.65685
285.65685
285.65686
285.65686
285.65686
285.65686
285.65686
285.65687
285.65687
285.65687
285.65687
285.65687
285.65688
285.65688
285.65688
285.65688
285.65688
285.65689
285.65689
285.65689
285.65689
285.65689
285.6569
285.6569
285.6569
285.6569
285.65691
285.65691
285.65691
285.65691
285.65691
285.65692
285.65692
285.65692
285.65692
285.65692
285.65693
285.65693
285.65693
285.65693
285.65693
285.65694
285.65694
285.65694
285.65694
285.65695
285.65695
285.65695
285.65695
285.65695
285.65696
285.65696
285.65696
285.65696
285.65696
285.65697
285.65697
285.65697
285.65697
285.65697
285.65698
285.65698
285.65698
285.65698
285.65698
285.65699
285.65699
285.65699
285.65699
285.657
285.657
285.657
285.657
285.657
285.65701
285.65701
285.65701
285.65701
285.65701
285.65702
285.65702
285.65702
285.65702
285.65702
285.65703
285.65703
285.65703
285.65703
285.65704
285.65704
285.65704
285.65704
285.65705
285.65705
285.65705
285.65705
285.65706
285.65706
285.65706
285.65706
285.65706
285.65707
285.65707
285.65707
285.65707
285.65707
285.65708
285.65708
285.65708
285.65708
285.65709
285.65709
285.65709
285.65709
285.65709
285.6571
285.6571
285.6571
285.6571
285.65711
285.65711
285.65711
285.65711
285.65712
285.65712
285.65712
285.65712
285.65712
285.65713
285.65713
285.65713
285.65713
285.65714
285.65714
285.65714
285.65714
285.65714
285.65715
285.65715
285.65715
285.65715
285.65716
285.65716
285.65716
285.65716
285.65716
285.65717
285.65717
285.65717
285.65717
285.65718
285.65718
285.65718
285.65718
285.65719
285.65719
285.65719
285.65719
285.6572
285.6572
285.6572
285.6572
285.65721
285.65721
285.65721
285.65721
285.65722
285.65722
285.65722
285.65722
285.65722
285.65723
285.65723
285.65723
285.65723
285.65724
285.65724
285.65724
285.65724
285.65725
285.65725
285.65725
285.65725
285.65726
285.65726
285.65726
285.65726
285.65727
285.65727
285.65727
285.65727
285.65728
285.65728
285.65728
285.65728
285.65729
285.65729
285.65729
285.65729
285.65729
285.6573
285.6573
285.6573
285.6573
285.65731
285.65731
285.65731
285.65731
285.65732
285.65732
285.65732
285.65732
285.65733
285.65733
285.65733
285.65733
285.65734
285.65734
285.65734
285.65734
285.65735
285.65735
285.65735
285.65735
285.65736
285.65736
285.65736
285.65736
285.65737
285.65737
285.65737
285.65737
285.65738
285.65738
285.65738
285.65738
285.65739
285.65739
285.65739
285.65739
285.6574
285.6574
285.6574
285.6574
285.65741
285.65741
285.65741
285.65742
285.65742
285.65742
285.65742
285.65743
285.65743
285.65743
285.65743
285.65744
285.65744
285.65744
285.65744
285.65745
285.65745
285.65745
285.65745
285.65746
285.65746
285.65746
285.65746
285.65746
285.65747
285.65747
285.65747
285.65747
285.65748
285.65748
285.65748
285.65749
285.65749
285.65749
285.65749
285.6575
285.6575
285.6575
285.6575
285.6575
285.65751
285.65751
285.65751
285.65751
285.65752
285.65752
285.65752
285.65752
285.65752
285.65753
285.65753
285.65753
285.65753
285.65754
285.65754
285.65754
285.65754
285.65754
285.65754
285.65755
285.65755
285.65755
285.65755
285.65755
285.65756
285.65756
285.65756
285.65756
285.65756
285.65757
285.65757
285.65757
285.65757
285.65757
285.65757
285.65758
285.65758
285.65758
285.65758
285.65758
285.65758
285.65758
285.65758
285.65758
285.65758
285.65759
285.65759
285.65759
285.65759
285.65759
285.65759
285.65759
285.65759
285.65759
285.65759
285.65759
285.65759
285.65759
285.65759
285.65759
285.65759
285.65759
285.65759
285.65759
285.65759
285.65759
285.65759
285.65758
285.65758
285.65758
285.65758
285.65758
285.65758
285.65758
285.65757
285.65757
285.65757
285.65757
285.65756
285.65756
285.65756
285.65755
285.65755
285.65755
285.65754
285.65754
285.65753
285.65753
285.65753
285.65752
285.65752
285.65751
285.65751
285.6575
285.65749
285.65749
285.65748
285.65748
285.65747
285.65746
285.65745
285.65745
285.65744
285.65743
285.65742
285.65741
285.6574
285.65739
285.65738
285.65737
285.65736
285.65735
285.65734
285.65733
285.65732
285.6573
285.65729
285.65728
285.65726
285.65725
285.65723
285.65722
285.6572
285.65719
285.65717
285.65715
285.65714
285.65712
285.6571
285.65708
285.65706
285.65704
285.65702
285.657
285.65698
285.65696
285.65693
285.65691
285.65688
285.65686
285.65683
285.65681
285.65678
285.65675
285.65672
285.6567
285.65667
285.65664
285.6566
285.65657
285.65654
285.6565
285.65647
285.65643
285.6564
285.65636
285.65632
285.65629
285.65625
285.65621
285.65616
285.65612
285.65608
285.65604
285.65599
285.65594
285.6559
285.65585
285.6558
285.65575
285.6557
285.65564
285.65559
285.65554
285.65548
285.65542
285.65536
285.6553
285.65524
285.65518
285.65512
285.65505
285.65498
285.65492
285.65485
285.65478
285.65471
285.65463
285.65456
285.65448
285.6544
285.65433
285.65425
285.65416
285.65408
285.654
285.65391
285.65382
285.65373
285.65364
285.65355
285.65345
285.65336
285.65326
285.65316
285.65306
285.65295
285.65285
285.65274
285.65263
285.65252
285.65241
285.6523
285.65218
285.65206
285.65194
285.65182
285.6517
285.65157
285.65144
285.65131
285.65118
285.65104
285.65091
285.65077
285.65063
285.65048
285.65034
285.65019
285.65004
285.64989
285.64974
285.64958
285.64942
285.64926
285.64909
285.64893
285.64876
285.64859
285.64842
285.64824
285.64806
285.64788
285.6477
285.64751
285.64732
285.64713
285.64694
285.64674
285.64654
285.64634
285.64614
285.64593
285.64572
285.64551
285.6453
285.64508
285.64486
285.64464
285.64441
285.64418
285.64395
285.64371
285.64348
285.64324
285.64299
285.64275
285.6425
285.64225
285.64199
285.64173
285.64147
285.64121
285.64094
285.64067
285.6404
285.64013
285.63985
285.63956
285.63928
285.63899
285.6387
285.63841
285.63811
285.63781
285.6375
285.6372
285.63689
285.63658
285.63626
285.63594
285.63562
285.63529
285.63496
285.63463
285.6343
285.63396
285.63362
285.63327
285.63292
285.63257
285.63222
285.63186
285.6315
285.63113
285.63077
285.6304
285.63002
285.62965
285.62926
285.62888
285.62849
285.6281
285.62771
285.62731
285.62691
285.62651
285.6261
285.6257
285.62528
285.62487
285.62445
285.62403
285.6236
285.62317
285.62274
285.6223
285.62187
285.62142
285.62098
285.62053
285.62008
285.61963
285.61917
285.61871
285.61824
285.61778
285.61731
285.61683
285.61636
285.61588
285.6154
285.61491
285.61442
285.61393
285.61344
285.61294
285.61244
285.61194
285.61143
285.61092
285.61041
285.6099
285.60938
285.60886
285.60833
285.60781
285.60728
285.60675
285.60621
285.60568
285.60514
285.60459
285.60405
285.6035
285.60295
285.6024
285.60184
285.60128
285.60072
285.60016
285.59959
285.59902
285.59845
285.59788
285.5973
285.59673
285.59615
285.59556
285.59498
285.59439
285.5938
285.59321
285.59261
285.59202
285.59142
285.59082
285.59022
285.58961
285.589
285.5884
285.58779
285.58717
285.58656
285.58594
285.58532
285.5847
285.58408
285.58346
285.58283
285.5822
285.58157
285.58094
285.58031
285.57968
285.57904
285.5784
285.57777
285.57713
285.57648
285.57584
285.5752
285.57455
285.5739
285.57326
285.57261
285.57196
285.57131
285.57065
285.57
285.56934
285.56869
285.56803
285.56737
285.56671
285.56605
285.56539
285.56473
285.56407
285.56341
285.56274
285.56208
285.56141
285.56075
285.56008
285.55941
285.55875
285.55808
285.55741
285.55674
285.55607
285.5554
285.55473
285.55406
285.55339
285.55272
285.55205
285.55138
285.55071
285.55004
285.54936
285.54869
285.54802
285.54735
285.54668
285.54601
285.54534
285.54467
285.544
285.54333
285.54266
285.54199
285.54132
285.54065
285.53998
285.53931
285.53865
285.53798
285.53731
285.53665
285.53598
285.53531
285.53465
285.53399
285.53332
285.53266
285.532
285.53134
285.53068
285.53002
285.52936
285.52871
285.52805
285.52739
285.52674
285.52609
285.52543
285.52478
285.52413
285.52348
285.52284
285.52219
285.52154
285.5209
285.52026
285.51962
285.51898
285.51834
285.5177
285.51706
285.51643
285.5158
285.51516
285.51453
285.5139
285.51328
285.51265
285.51203
285.5114
285.51078
285.51016
285.50954
285.50893
285.50831
285.5077
285.50709
285.50648
285.50587
285.50526
285.50466
285.50406
285.50345
285.50286
285.50226
285.50166
285.50107
285.50048
285.49989
285.4993
285.49872
285.49813
285.49755
285.49697
285.49639
285.49582
285.49524
285.49467
285.4941
285.49353
285.49297
285.4924
285.49184
285.49128
285.49072
285.49017
285.48961
285.48906
285.48851
285.48796
285.48742
285.48688
285.48633
285.48579
285.48526
285.48472
285.48419
285.48366
285.48313
285.4826
285.48208
285.48156
285.48104
285.48052
285.48001
285.47949
285.47898
285.47847
285.47797
285.47746
285.47696
285.47646
285.47596
285.47546
285.47497
285.47447
285.47398
285.47349
285.47301
285.47252
285.47204
285.47156
285.47108
285.4706
285.47013
285.46966
285.46919
285.46872
285.46825
285.46779
285.46732
285.46686
285.46641
285.46595
285.46549
285.46504
285.46459
285.46414
285.46369
285.46324
285.4628
285.46236
285.46192
285.46148
285.46104
285.4606
285.46017
285.45973
285.4593
285.45887
285.45844
285.45801
285.45759
285.45716
285.45674
285.45632
285.4559
285.45548
285.45506
285.45464
285.45423
285.45381
285.4534
285.45299
285.45257
285.45216
285.45175
285.45134
285.45094
285.45053
285.45012
285.44972
285.44931
285.44891
285.4485
285.4481
285.44769
285.44729
285.44689
285.44649
285.44608
285.44568
285.44528
285.44488
285.44448
285.44407
285.44367
285.44327
285.44287
285.44247
285.44206
285.44166
285.44126
285.44085
285.44045
285.44004
285.43963
285.43923
285.43882
285.43841
285.438
285.43759
285.43717
285.43676
285.43634
285.43593
285.43551
285.43509
285.43466
285.43424
285.43381
285.43338
285.43295
285.43252
285.43209
285.43165
285.43121
285.43077
285.43033
285.42988
285.42943
285.42898
285.42852
285.42806
285.4276
285.42714
285.42667
285.4262
285.42572
285.42524
285.42476
285.42427
285.42378
285.42329
285.42279
285.42228
285.42178
285.42126
285.42075
285.42022
285.4197
285.41916
285.41863
285.41808
285.41753
285.41698
285.41642
285.41586
285.41529
285.41471
285.41413
285.41354
285.41294
285.41234
285.41174
285.41112
285.4105
285.40988
285.40924
285.4086
285.40795
285.4073
285.40663
285.40596
285.40529
285.4046
285.40391
285.4032
285.40249
285.40178
285.40105
285.40032
285.39957
285.39882
285.39806
285.39729
285.39651
285.39573
285.39493
285.39413
285.39331
285.39249
285.39166
285.39082
285.38997
285.38911
285.38823
285.38735
285.38646
285.38556
285.38465
285.38373
285.3828
285.38186
285.3809
285.37994
285.37897
285.37798
285.37699
285.37598
285.37496
285.37394
285.3729
285.37185
285.37079
285.36972
285.36864
285.36755
285.36644
285.36533
285.3642
285.36307
285.36192
285.36076
285.3596
285.35842
285.35722
285.35602
285.35481
285.35359
285.35235
285.3511
285.34985
285.34858
285.3473
285.34601
285.34471
285.34339
285.34207
285.34074
285.33939
285.33804
285.33667
285.3353
285.33391
285.33251
285.33111
285.32969
285.32826
285.32682
285.32538
285.32392
285.32245
285.32098
285.31949
285.318
285.31649
285.31498
285.31346
285.31193
285.31039
285.30884
285.30728
285.30572
285.30415
285.30257
285.30098
285.29938
285.29778
285.29617
285.29456
285.29293
285.2913
285.28966
285.28802
285.28637
285.28471
285.28305
285.28138
285.27971
285.27803
285.27635
285.27466
285.27297
285.27127
285.26957
285.26787
285.26617
285.26446
285.26274
285.26103
285.25931
285.2576
285.25587
285.25415
285.25243
285.2507
285.24898
285.24725
285.24553
285.2438
285.24207
285.24034
285.23862
285.23689
285.23517
285.23345
285.23173
285.23001
285.22829
285.22658
285.22487
285.22316
285.22146
285.21976
285.21807
285.21637
285.21469
285.213
285.21132
285.20965
285.20798
285.20632
285.20466
285.20301
285.20137
285.19973
285.1981
285.19647
285.19485
285.19324
285.19163
285.19003
285.18844
285.18685
285.18527
285.1837
285.18213
285.18057
285.17901
285.17746
285.17591
285.17436
285.17282
285.17129
285.16976
285.16823
285.1667
285.16518
285.16366
285.16214
285.16063
285.15912
285.15762
285.15612
285.15463
285.15314
285.15166
285.15019
285.14872
285.14727
285.14583
285.1444
285.14298
285.14157
285.14018
285.1388
285.13744
285.1361
285.13479
285.13351
285.13226
285.13104
285.12986
285.12871
285.1276
285.12651
285.12546
285.12444
285.12344
285.12247
285.12153
285.1206
285.1197
285.11881
285.11794
285.11709
285.11624
285.11541
285.11458
285.11376
285.11294
285.11212
285.11129
285.11044
285.10956
285.1087
285.10792
285.10704
285.1058
285.1047
285.10439
285.10446
285.10479
285.10569
285.1079
285.11337
285.1271
285.16168
285.24688
285.44792
285.75408
286.14092
286.60896
287.15513
287.77326
288.45447
289.18773
289.96043
290.75906
291.56982
292.3793
293.17494
293.94552
294.68143
295.3749
296.02011
296.61312
297.15175
297.63551
298.06527
298.44301
298.77164
299.05478
299.29631
299.50037
299.67126
299.81309
299.92967
300.02462
300.10136
300.16286
300.21164
300.24989
300.27964
300.30265
300.32029
300.33359
300.34336
300.35037
300.35531
300.3588
300.36126
300.36295
300.36404
300.36464
300.36484
300.36481
300.36451
300.36393
300.36334
300.36274
300.36213
300.36151
300.3609
300.3603
300.3597
300.35911
300.35852
300.35794
300.35736
300.35677
300.35619
300.3556
300.35501
300.35442
300.35381
300.35321
300.3526
300.35199
300.35138
300.35077
300.35016
300.34956
300.34897
300.34839
300.34781
300.34726
300.34671
300.34618
300.34567
300.34518
300.34471
300.34425
300.34381
300.3434
300.343
300.34261
300.34225
300.3419
300.34157
300.34126
300.34095
300.34067
300.34039
300.34013
300.33988
300.33964
300.33941
300.33919
300.33898
300.33878
300.33858
300.33839
300.33821
300.33804
300.33787
300.33771
300.33755
300.3374
300.33725
300.33711
300.33697
300.33683
300.3367
300.33658
300.33645
300.33633
300.33622
300.33611
300.336
300.33589
300.33579
300.33569
300.33559
300.33549
300.3354
300.33531
300.33522
300.33514
300.33505
300.33497
300.33489
300.33481
300.33474
300.33466
300.33459
300.33452
300.33445
300.33439
300.33432
300.33426
300.3342
300.33414
300.33408
300.33402
300.33396
300.33391
300.33386
300.3338
300.33375
300.3337
300.33366
300.33361
300.33356
300.33352
300.33347
300.33343
300.33339
300.33334
300.3333