/*--------------------------------*- C++ -*----------------------------------*\
  =========                 |
  \\      /  F ield         | OpenFOAM: The Open Source CFD Toolbox
   \\    /   O peration     | Website:  https://openfoam.org
    \\  /    A nd           | Version:  7
     \\/     M anipulation  |
\*---------------------------------------------------------------------------*/
FoamFile
{
    version     2.0;
    format      ascii;
    class       volVectorField;
    location    "0.0002";
    object      U;
}
// * * * * * * * * * * * * * * * * * * * * * * * * * * * * * * * * * * * * * //

dimensions      [0 1 -1 0 0 0 0];

internalField   nonuniform List<vector> 
5000
(
(8.0700738e-13 1.6888233e-28 0)
(6.9162533e-13 1.0912106e-42 0)
(7.314996e-13 0 0)
(5.9740631e-13 0 0)
(7.4542339e-13 -1.8999262e-28 0)
(7.1320235e-13 7.1998869e-44 -6.3330875e-29)
(8.3455863e-13 -1.2666175e-28 2.6999576e-43)
(9.4692243e-13 0 -3.7998525e-28)
(7.2790713e-13 0 -6.3330875e-29)
(6.4721521e-13 0 0)
(7.7441256e-13 -1.7105694e-42 -1.7105694e-42)
(7.7787338e-13 4.9178871e-43 4.9178871e-43)
(7.8546507e-13 6.3330875e-29 -5.3999152e-43)
(8.6554494e-13 -6.3330875e-29 -5.5799123e-43)
(9.7733362e-13 0 1.2666175e-28)
(8.0312829e-13 -1.8999262e-28 -3.7998525e-28)
(6.839056e-13 -9.5749429e-70 -4.7874715e-70)
(8.6391869e-13 1.2666175e-28 -1.1159825e-42)
(1.2187887e-12 0 1.2666175e-28)
(1.0667596e-12 6.3330875e-29 1.2666175e-28)
(8.9002417e-13 -1.8999262e-28 1.8999262e-28)
(1.0191306e-12 3.1665437e-28 0)
(1.1697997e-12 -1.013294e-27 0)
(1.1881649e-12 3.1665437e-28 3.1665437e-28)
(1.0000463e-12 1.2666175e-28 -1.079983e-42)
(9.8961765e-13 -1.5659754e-42 -1.5659754e-42)
(1.0146472e-12 6.3330875e-29 -6.3330875e-29)
(1.0138248e-12 -1.2666175e-28 -1.2666175e-28)
(8.4872613e-13 1.2666175e-28 -6.3330875e-29)
(9.780649e-13 -2.1959655e-42 1.2666175e-28)
(1.0084871e-12 2.2139652e-42 -2.2139652e-42)
(1.0102586e-12 -6.3330875e-29 5.3999152e-43)
(1.0182302e-12 -1.2666175e-28 6.3330875e-29)
(1.0613984e-12 3.7998525e-28 -1.8999262e-28)
(1.0250401e-12 -1.0979827e-42 -6.3330875e-29)
(7.6337621e-13 -1.652374e-41 0)
(5.9676524e-13 -1.0979827e-41 0)
(7.6142894e-13 3.7998525e-28 -1.8999262e-28)
(8.9961713e-13 -1.8602442e-42 -9.3012212e-43)
(9.1422192e-13 3.7998525e-28 -1.8999262e-28)
(9.0127587e-13 -6.3330875e-28 5.3099166e-42)
(8.1990495e-13 8.7118631e-42 1.2666175e-28)
(7.87894e-13 -1.4112198e-42 7.0560988e-43)
(6.9500675e-13 6.3330875e-29 -1.0709832e-42)
(8.9930448e-13 -1.8999262e-28 6.3330875e-29)
(8.9876502e-13 3.1665437e-28 -3.1665437e-28)
(1.0043387e-12 3.1665437e-28 1.0889829e-41)
(7.5724535e-13 8.6758637e-42 -4.3379318e-42)
(8.3134972e-13 1.2666175e-28 2.1779658e-42)
(8.5582458e-13 0 -1.079983e-42)
(5.4369305e-13 1.2666175e-28 1.2666175e-28)
(4.3985068e-13 4.4999293e-44 0)
(4.9622312e-13 -6.3330875e-29 0)
(6.0310389e-13 -1.2666175e-28 0)
(3.9472798e-13 1.5055522e-56 0)
(4.2478775e-13 6.3330875e-28 0)
(5.8496204e-13 -3.7998525e-28 0)
(5.583907e-13 6.5608969e-42 0)
(5.6845173e-13 2.533235e-28 0)
(6.9546972e-13 0 0)
(6.5836706e-13 -5.06647e-28 0)
(5.4136958e-13 -1.7279728e-41 0)
(3.6035869e-13 -8.9998586e-44 0)
(3.4228127e-13 -6.3330875e-29 6.3330875e-29)
(4.0818255e-13 1.8999262e-28 1.8999262e-28)
(4.1660879e-13 -4.4279304e-42 -1.2666175e-28)
(4.7169703e-13 -1.3049784e-42 3.4689238e-56)
(6.2626689e-13 9.9537904e-44 1.2197083e-56)
(7.7379839e-13 6.3330875e-29 -6.3330875e-29)
(7.1714565e-13 -6.3330875e-29 0)
(6.9384911e-13 6.3330875e-29 0)
(6.0038838e-13 -1.2666175e-28 -1.2666175e-28)
(7.7134525e-13 -1.2666175e-28 -1.2666175e-28)
(6.2136597e-13 -3.5280494e-42 0)
(5.0456556e-13 6.3330875e-29 6.3330875e-29)
(6.9292341e-13 -2.1896872e-42 8.80086e-56)
(7.1276934e-13 0 6.3330875e-29)
(6.4529601e-13 -6.3330875e-29 6.3330875e-29)
(6.7324317e-13 8.9998586e-45 -6.3330875e-29)
(7.1152494e-13 -1.453984e-42 2.907968e-42)
(4.2847452e-13 6.3330875e-29 -1.2666175e-28)
(5.8159775e-13 -3.5999434e-44 7.1998869e-44)
(6.5349421e-13 3.5999434e-44 3.7998525e-28)
(8.0008759e-13 7.6113962e-43 -1.5222792e-42)
(1.0440087e-12 -6.3330875e-29 6.5878965e-42)
(1.1298675e-12 -6.6148961e-42 -3.7998525e-28)
(1.0985165e-12 3.7998525e-28 1.1399557e-27)
(7.1310682e-13 0 -1.2666175e-28)
(6.6695573e-13 -6.3330875e-29 6.3330875e-29)
(9.5159879e-13 1.3139794e-41 1.2666175e-28)
(6.5270669e-13 8.8558609e-42 -2.533235e-28)
(6.3373135e-13 -2.533235e-28 -2.533235e-28)
(6.8936202e-13 -2.533235e-28 -8.8198614e-42)
(4.6702585e-13 6.3330875e-28 6.3330875e-28)
(4.8488407e-13 1.3148793e-41 1.3148793e-41)
(4.9694657e-13 1.8999262e-28 -1.8999262e-28)
(3.3209183e-13 0 -4.4331612e-28)
(4.4530666e-13 0 -1.333779e-41)
(5.6570116e-13 8.7882395e-42 -6.3701463e-55)
(6.1702721e-13 -4.391931e-42 1.2666175e-28)
(6.7985925e-13 3.7998525e-28 1.8999262e-28)
(5.8792211e-13 6.3330875e-29 6.3330875e-29)
(5.9271326e-13 1.2666175e-28 -8.9998586e-45)
(6.8097126e-13 0 -6.3330875e-29)
(6.4757895e-13 -4.0298878e-42 0)
(4.8178424e-13 1.2666175e-28 -1.2666175e-28)
(3.2038788e-13 -1.8999262e-28 -6.6148961e-42)
(4.648131e-13 -1.8999262e-28 1.8999262e-28)
(6.9859408e-13 0 -6.3330875e-29)
(5.4921138e-13 0 -6.3330875e-29)
(5.3330374e-13 2.533235e-28 5.06647e-28)
(6.6000909e-13 2.533235e-28 2.533235e-28)
(7.2706506e-13 0 -1.8999262e-28)
(7.2288548e-13 6.3330875e-29 6.3330875e-29)
(7.465296e-13 -8.8558609e-42 -7.599705e-28)
(6.7552837e-13 -3.7998525e-28 3.7998525e-28)
(4.8372847e-13 1.8999262e-28 1.8999262e-28)
(4.0047926e-13 6.5890235e-70 -3.2946223e-70)
(3.8150867e-13 8.2222736e-70 9.7079038e-57)
(6.2137651e-13 -6.0985414e-57 -1.8999262e-28)
(4.3201188e-13 1.2666175e-28 -4.4279304e-42)
(5.7770398e-13 -5.3999152e-44 -2.533235e-28)
(4.695853e-13 -1.2666175e-28 2.533235e-28)
(3.2909459e-13 0 6.3330875e-29)
(5.7942437e-13 6.3330875e-29 6.3330875e-29)
(4.4207734e-13 -4.0626024e-43 -4.0626024e-43)
(5.40955e-13 6.3330875e-29 -6.3330875e-29)
(3.9264834e-13 -3.7998525e-28 -3.7998525e-28)
(3.7975509e-13 -1.8999262e-28 1.8999262e-28)
(3.5317685e-13 1.2666175e-28 2.1869656e-42)
(5.1005672e-13 6.3330875e-29 6.3330875e-29)
(6.8141618e-13 -1.2666175e-28 2.533235e-28)
(4.4505741e-13 -6.3330875e-29 -6.3330875e-29)
(2.3563116e-13 -6.3330875e-29 -6.3330875e-29)
(5.2566132e-13 0 1.2666175e-28)
(5.9426372e-13 -1.8999262e-28 6.6148961e-42)
(4.2309509e-13 1.8999262e-28 -6.5878965e-42)
(5.4894305e-13 -3.1665437e-28 1.1024827e-41)
(6.8188214e-13 -4.391931e-42 2.533235e-28)
(6.3546281e-13 -1.2666175e-28 -1.2666175e-28)
(6.2995334e-13 -6.3330875e-29 -6.3330875e-29)
(4.9013625e-13 -1.8999262e-28 -3.7998525e-28)
(6.3914361e-13 0 6.3330875e-29)
(7.8311144e-13 -2.533235e-28 2.533235e-28)
(6.6382251e-13 -2.533235e-28 -1.7567724e-41)
(6.5983468e-13 1.2666175e-28 -2.533235e-28)
(3.9318395e-13 -6.3330875e-29 1.7999717e-44)
(4.7554899e-13 3.5999434e-44 -1.7999717e-44)
(5.0450985e-13 6.3330875e-29 -5.4886873e-56)
(3.7074633e-13 3.4211388e-43 3.4211388e-43)
(3.3649958e-13 -1.2666175e-28 -8.783862e-42)
(6.8175077e-13 8.8198614e-42 1.7639723e-41)
(4.8644048e-13 6.3330875e-29 6.3330875e-29)
(3.7232115e-13 -1.2666175e-28 -1.2666175e-28)
(3.7441174e-13 -6.3330875e-29 -6.3330875e-29)
(2.9621743e-13 -6.3330875e-29 -2.1959655e-42)
(2.4466424e-13 -5.2881144e-42 -5.2881144e-42)
(3.4177709e-13 0 -1.8999262e-28)
(2.3653858e-13 0 8.9998586e-45)
(1.7469048e-13 -6.3330875e-29 -6.3330875e-29)
(2.1278457e-13 6.3330875e-29 0)
(8.354069e-14 -1.8999262e-28 -1.8999262e-28)
(3.8242053e-13 -1.8999262e-28 -1.3148793e-41)
(4.0053645e-13 1.8999262e-28 3.7998525e-28)
(5.2126442e-13 1.3175793e-41 -1.8999262e-28)
(4.8276378e-13 -1.2666175e-28 3.5999434e-44)
(5.0910557e-13 6.3330875e-29 6.3330875e-29)
(3.653165e-13 6.3330875e-29 -6.3330875e-29)
(5.6558002e-13 0 2.533235e-28)
(6.5754657e-13 -1.8999262e-28 -1.8999262e-28)
(5.3429489e-13 6.3330875e-29 -2.6387585e-41)
(6.1322633e-13 0 -7.0270896e-41)
(7.761178e-13 1.2690571e-41 -1.2720061e-41)
(8.6621356e-13 4.4331612e-28 8.8663225e-28)
(8.2185921e-13 0 0)
(8.1521942e-13 -1.2666175e-28 8.783862e-42)
(7.0944162e-13 -3.9527379e-41 3.9527379e-41)
(7.1367357e-13 1.2666175e-28 -1.2666175e-28)
(4.9580263e-13 6.3330875e-29 6.3330875e-29)
(5.5773404e-13 1.2666175e-28 8.7298628e-42)
(4.1527399e-13 -6.3330875e-29 -6.3330875e-29)
(5.1565005e-13 -1.7495725e-41 2.533235e-28)
(5.1172701e-13 2.1779658e-41 2.1779658e-41)
(5.7469865e-13 2.6999576e-44 2.6999576e-44)
(4.3856427e-13 3.5280494e-43 4.8883183e-56)
(4.1345348e-13 -7.0560988e-43 -1.4112198e-42)
(5.2827634e-13 -1.7567724e-41 1.2666175e-28)
(3.8876325e-13 1.7423726e-41 2.533235e-28)
(5.9027067e-13 -8.7118631e-42 -8.7118631e-42)
(3.9609887e-13 6.3330875e-29 4.3649314e-42)
(4.9435344e-13 0 -2.6930321e-54)
(3.630976e-13 0 -1.7495725e-41)
(3.8859592e-13 3.1665437e-28 3.1665437e-28)
(1.9306001e-13 3.7998525e-28 0)
(2.0462451e-13 0 0)
(3.5690406e-13 0 0)
(1.9699299e-13 -2.533235e-28 0)
(2.1672776e-13 6.0985414e-57 6.3330875e-29)
(8.9682206e-14 6.3330875e-29 -1.3202793e-41)
(3.4535936e-13 0 -6.3330875e-29)
(2.830078e-13 -1.2666175e-28 -1.2666175e-28)
(1.3960869e-13 -1.1428327e-43 -1.1428327e-43)
(8.2281858e-14 -5.2649173e-41 -1.8999262e-28)
(1.2011832e-13 3.7998525e-28 3.7998525e-28)
(1.5299904e-13 -4.6647146e-42 3.3523005e-55)
(2.3401747e-13 -1.3148793e-41 -1.3148793e-41)
(3.6086448e-13 -1.7999717e-44 -1.2666175e-28)
(2.2658814e-13 -2.8865859e-43 -2.8865859e-43)
(3.1847912e-13 6.3330875e-29 6.3330875e-29)
(2.6847901e-13 -1.7999717e-44 0)
(4.2135916e-13 8.7658623e-42 -6.3330875e-29)
(4.1692723e-13 -7.3164147e-55 -7.3164147e-55)
(2.8575553e-13 -2.533235e-28 -2.533235e-28)
(2.1454834e-13 0 -3.1665437e-28)
(6.1308929e-14 3.7998525e-28 5.2919169e-41)
(1.727486e-14 2.1914656e-41 3.1665437e-28)
(-8.2065498e-14 7.0306895e-41 -5.06647e-28)
(-1.405068e-13 3.1665437e-28 3.1665437e-28)
(-5.5359218e-14 0 1.8999262e-28)
(8.5514964e-14 -6.3330875e-29 -6.3330875e-29)
(1.6417188e-13 -6.3330875e-29 6.3330875e-29)
(3.5107662e-13 0 0)
(1.2944555e-13 0 0)
(2.1304e-13 0 0)
(9.7834215e-14 3.1665437e-28 3.1665437e-28)
(-1.8212623e-13 2.6297587e-41 -3.7998525e-28)
(1.0250784e-13 -3.1665437e-28 -6.3330875e-28)
(7.5614843e-14 0 2.533235e-28)
(9.4574407e-14 0 -4.4009309e-42)
(1.7260179e-13 -1.8999262e-28 -1.8999262e-28)
(1.367773e-13 -3.1665437e-28 -3.1665437e-28)
(2.3213507e-13 2.533235e-28 5.06647e-28)
(2.8989328e-13 1.8999262e-28 -5.3999152e-44)
(1.6117533e-13 0 3.5999434e-44)
(1.1611947e-13 1.2666175e-28 1.2666175e-28)
(3.3575282e-14 1.8999262e-28 1.8999262e-28)
(1.2266186e-13 -6.3330875e-29 -1.2666175e-28)
(2.9502297e-13 -5.1317082e-43 7.292596e-59)
(2.9503123e-13 0 1.3193793e-41)
(3.595543e-13 -1.8999262e-28 -1.8999262e-28)
(2.0950252e-13 1.7585724e-41 3.5171447e-41)
(9.3702871e-14 -5.2837196e-55 -7.6673463e-55)
(1.7404299e-13 -6.3330875e-29 -6.3330875e-29)
(5.2180824e-14 -6.3330875e-29 -6.3330875e-29)
(8.9968695e-14 -4.4088651e-42 0)
(1.9470173e-13 0 6.3330875e-29)
(1.171932e-13 4.2764235e-43 4.2764235e-43)
(1.3121879e-13 1.7603723e-41 -1.2666175e-28)
(2.0101718e-13 -6.3330875e-29 6.3330875e-29)
(6.9178156e-14 8.783862e-42 0)
(1.0201006e-13 1.2666175e-28 6.3330875e-29)
(2.1767705e-13 -2.533235e-28 -2.533235e-28)
(2.605198e-13 5.2703172e-41 -3.7998525e-28)
(2.4846204e-13 1.0993327e-40 1.0993327e-40)
(1.8406251e-13 8.7658623e-42 2.533235e-28)
(4.6231692e-14 -6.3330875e-29 -1.2666175e-28)
(-3.6547167e-14 1.2666175e-28 3.7998525e-28)
(-1.2205806e-13 1.2666175e-28 2.533235e-28)
(-1.5011303e-13 0 0)
(-1.2567018e-13 1.8999262e-28 3.7998525e-28)
(-1.2644444e-14 3.7998525e-28 3.7998525e-28)
(3.6691005e-15 0 -3.7998525e-28)
(-4.6380024e-14 -2.533235e-28 -2.533235e-28)
(7.2236188e-14 -1.2666175e-28 -1.2666175e-28)
(1.029741e-13 0 0)
(-9.9187314e-14 -1.2666175e-28 -2.533235e-28)
(-9.4152195e-14 1.8999262e-28 1.8999262e-28)
(-2.6782112e-14 1.2666175e-28 2.533235e-28)
(2.3605034e-14 2.075959e-56 2.075959e-56)
(-1.5409728e-14 -6.3330875e-29 -1.2666175e-28)
(1.7918062e-14 6.3330875e-29 6.3330875e-29)
(5.9622442e-14 -4.391931e-42 -8.783862e-42)
(-1.4712323e-13 -6.3330875e-29 -6.3330875e-29)
(-1.0493161e-14 1.4967482e-43 2.9934965e-43)
(6.5108715e-14 5.9434658e-57 8.5528471e-44)
(-5.9794192e-14 1.3229792e-41 2.6459584e-41)
(-3.9573193e-14 -1.079983e-43 3.7998525e-28)
(2.1712316e-13 -2.1869656e-41 -3.1665437e-28)
(2.6993563e-13 1.2666175e-28 1.2666175e-28)
(2.5075733e-13 0 1.2666175e-28)
(3.5770199e-13 0 -5.284717e-41)
(3.1025315e-13 -6.3330875e-29 1.2666175e-28)
(2.1167274e-13 -6.3330875e-29 -1.2666175e-28)
(3.0731465e-13 0 8.7658623e-42)
(2.4812947e-13 0 -6.3330875e-29)
(1.6491556e-13 0 0)
(1.6171935e-13 0 0)
(2.059146e-14 -6.3330875e-29 -6.3330875e-29)
(5.4514549e-14 -2.6189588e-41 3.7998525e-28)
(1.0743434e-13 7.599705e-28 7.599705e-28)
(-1.7445568e-14 -8.0998727e-44 -1.8999262e-28)
(-9.5864602e-14 -1.7424443e-59 1.4415907e-71)
(-1.3816067e-13 1.2666175e-28 1.2666175e-28)
(-1.565077e-13 -2.6378586e-41 1.8999262e-28)
(2.7715509e-14 -1.7549724e-41 -1.2666175e-28)
(-5.1703963e-14 -4.4999293e-44 0)
(4.8919955e-14 -2.533235e-28 -2.533235e-28)
(1.7528894e-13 0 0)
(1.9717046e-13 -4.2764235e-44 0)
(1.7447439e-13 2.1382118e-44 2.1382118e-44)
(2.8669119e-13 -1.8999262e-28 -6.3330875e-29)
(3.3402244e-13 1.8999262e-28 3.7998525e-28)
(1.8209946e-13 2.533235e-28 -8.7658623e-42)
(1.374882e-13 0 1.7999717e-44)
(1.2113945e-13 -1.2666175e-28 -1.2666175e-28)
(2.2671073e-14 -4.4763299e-42 -4.4615845e-42)
(-1.470456e-13 -1.8999262e-28 -1.8999262e-28)
(-7.5174263e-14 1.7999717e-44 6.3330875e-29)
(3.400033e-14 5.3999152e-44 1.2666175e-28)
(-2.7670401e-14 -1.7999717e-44 -3.5999434e-44)
(-2.7458608e-13 6.3330875e-29 1.2666175e-28)
(-2.9399167e-13 2.533235e-28 -2.533235e-28)
(-2.8187854e-13 -2.533235e-28 -2.533235e-28)
(-2.4812655e-13 -2.533235e-28 -1.2666175e-28)
(-8.1076861e-14 -6.3330875e-29 8.783862e-42)
(4.4575815e-14 -6.0985414e-57 -1.8999262e-28)
(6.9012948e-14 -2.533235e-28 0)
(-2.4026282e-14 -8.7748621e-41 0)
(-2.2909109e-13 2.533235e-28 1.2666175e-28)
(-2.297134e-13 0 1.7585724e-41)
(-4.067928e-13 0 -7.0306895e-41)
(-3.7112076e-13 3.7998525e-28 -2.6405585e-41)
(-1.7619573e-13 -3.5171447e-41 6.3330875e-29)
(-1.4217793e-13 1.2666175e-28 6.3330875e-29)
(6.3666127e-14 0 -2.6999576e-44)
(1.6072694e-13 -3.1665437e-28 -3.1665437e-28)
(8.3911676e-14 -2.533235e-28 0)
(-4.485152e-14 6.3330875e-29 0)
(1.0123172e-13 0 0)
(3.3970101e-14 -8.7928618e-42 0)
(6.8170854e-14 2.6999576e-44 0)
(-1.1796839e-14 1.8999262e-28 0)
(8.4288244e-14 -1.2666175e-28 0)
(1.3679133e-13 -2.533235e-28 -2.533235e-28)
(-8.2928e-15 0 0)
(7.2994389e-14 -6.3330875e-29 -6.3330875e-29)
(-1.4028846e-14 -8.7928618e-42 0)
(9.8308675e-15 -1.2666175e-28 -1.2666175e-28)
(-1.451369e-13 2.533235e-28 -3.5135448e-41)
(-2.7653992e-13 2.4642408e-54 -8.7808668e-42)
(-2.53418e-13 -6.3330875e-29 0)
(-3.6630708e-13 -1.7585724e-41 0)
(-2.7144806e-13 1.7134091e-41 8.581791e-42)
(-2.4452205e-13 1.2666175e-28 -8.7928618e-42)
(-1.2724845e-13 -1.2666175e-28 -1.2666175e-28)
(-9.2333877e-14 1.8999262e-28 0)
(-2.19095e-13 8.9998586e-45 0)
(-3.1704857e-13 -6.3330875e-29 -6.3330875e-29)
(-3.5748987e-13 0 -6.3330875e-29)
(-3.7491215e-13 0 -6.3330875e-29)
(-5.1705567e-13 -6.3330875e-29 -6.3330875e-29)
(-3.2007741e-13 -8.783862e-42 0)
(-1.3149567e-13 1.2666175e-28 6.3330875e-29)
(-2.000819e-13 -3.5999434e-44 -3.5999434e-44)
(-2.6694021e-13 -5.6997787e-28 -1.8999262e-28)
(-5.0683788e-14 3.1665437e-28 3.1665437e-28)
(-2.9156153e-14 3.1665437e-28 3.1665437e-28)
(6.8674879e-14 -3.7998525e-28 -1.8999262e-28)
(-7.2461644e-15 1.8999262e-28 -1.8999262e-28)
(-2.5769831e-13 -7.3726842e-45 0)
(5.6035004e-14 5.2744182e-41 -2.6372091e-41)
(-2.7274973e-14 6.3330875e-29 6.3330875e-29)
(-4.9451151e-13 -6.3330875e-29 6.3330875e-29)
(-2.2809363e-13 6.3330875e-29 -6.3330875e-29)
(-6.9049383e-14 -3.7998525e-28 0)
(-1.7410458e-13 -1.2197083e-56 4.4331612e-28)
(-1.9548843e-13 2.533235e-28 2.533235e-28)
(-2.9818815e-13 -9.4370757e-42 -9.4370757e-42)
(-2.4338963e-13 -2.533235e-28 2.533235e-28)
(-5.9456915e-13 3.1665437e-28 0)
(-6.1454781e-13 8.7748621e-41 0)
(-4.5756548e-13 8.9998586e-44 0)
(-3.657122e-13 2.533235e-28 0)
(-2.6770165e-13 -2.533235e-28 0)
(-4.6712507e-13 6.3330875e-29 0)
(-4.9202691e-13 1.7585724e-41 0)
(-5.5744548e-13 4.1090144e-69 0)
(-6.8746141e-13 -6.3330875e-29 -6.3330875e-29)
(-4.8950381e-13 -1.2666175e-28 -9.7576662e-56)
(-3.6782579e-13 -1.8999262e-28 -6.3330875e-29)
(-4.3767607e-13 -3.5135448e-41 0)
(-4.4285005e-13 9.6658641e-54 0)
(-5.8021716e-13 7.0198897e-41 0)
(-3.3023507e-13 -6.3330875e-28 -3.1665437e-28)
(-3.394109e-13 3.7998525e-28 -2.6351586e-41)
(-3.6881216e-13 -3.5135448e-41 1.2666175e-28)
(-3.9303979e-13 -1.2666175e-28 -6.3330875e-29)
(-3.0675037e-13 0 -8.7928618e-42)
(-9.2865276e-14 0 1.7999717e-44)
(-1.7291956e-13 -9.0308155e-42 1.264776e-54)
(-3.6928098e-13 -1.7567724e-41 1.2666175e-28)
(-3.7451714e-13 -6.3330875e-29 -6.3330875e-29)
(-3.8318521e-13 1.2666175e-28 -1.2666175e-28)
(-3.3967705e-13 -2.533235e-28 1.4075779e-40)
(-2.0505009e-13 -5.6997787e-28 1.8999262e-28)
(-2.0661287e-13 1.8999262e-28 -1.8999262e-28)
(-3.3309574e-13 -6.3330875e-29 0)
(-4.4261518e-13 -8.9998586e-44 0)
(-2.5189059e-13 -1.8999262e-28 -1.8999262e-28)
(-3.5634948e-13 0 -1.7585724e-41)
(-4.7238772e-13 3.7998525e-28 1.8999262e-28)
(-5.0026109e-13 5.06647e-28 -2.533235e-28)
(-4.6570242e-13 -1.8999262e-28 -1.8999262e-28)
(-4.303794e-13 -1.2666175e-28 0)
(-4.5711677e-13 -1.2666175e-28 1.2666175e-28)
(-3.6378607e-13 1.2666175e-28 6.3330875e-29)
(7.3409045e-15 -2.533235e-28 1.2666175e-28)
(-2.2489547e-13 2.533235e-28 3.5153448e-41)
(-2.4366386e-13 2.533235e-28 3.3745486e-69)
(-2.2587655e-13 0 1.7585724e-41)
(-3.718756e-13 -1.2666175e-28 -6.3330875e-29)
(-3.6119907e-13 -6.3330875e-29 -6.3330875e-29)
(-6.4762939e-13 -1.139889e-42 -1.9515332e-55)
(-6.36011e-13 6.3330875e-29 -8.7928618e-42)
(-6.9835336e-13 1.8999262e-28 -1.8999262e-28)
(-4.6887727e-13 -8.9998586e-45 0)
(-5.2088989e-13 -2.1374599e-55 0)
(-5.9432755e-13 6.3330875e-29 6.3330875e-29)
(-6.6862008e-13 -1.2666175e-28 1.7999717e-44)
(-7.2890798e-13 -2.5772656e-41 -1.073655e-53)
(-6.0720995e-13 -1.8999262e-28 -1.8999262e-28)
(-8.0458594e-13 2.6351586e-41 0)
(-7.5314634e-13 1.2469962e-58 0)
(-7.6290832e-13 -1.7567724e-41 -1.2666175e-28)
(-9.8266607e-13 -2.533235e-28 7.0234896e-41)
(-1.0947874e-12 4.4331612e-28 4.4331612e-28)
(-1.0169124e-12 -1.3189293e-40 0)
(-1.0149761e-12 -6.1550033e-41 0)
(-8.6709996e-13 -1.2303707e-40 0)
(-6.7831981e-13 6.3330875e-29 6.3330875e-29)
(-6.0640286e-13 -1.2666175e-28 -1.7999717e-44)
(-4.6285525e-13 1.7585724e-41 -1.2666175e-28)
(-3.0222172e-13 1.0535234e-40 3.7998525e-28)
(-5.4488023e-13 4.4999293e-44 -3.1665437e-28)
(-8.2363634e-13 1.2666175e-28 1.7603723e-41)
(-6.5402545e-13 -6.3330875e-29 -1.2666175e-28)
(-6.319044e-13 -6.3330875e-29 -6.3330875e-29)
(-6.3227822e-13 -1.2666175e-28 -2.6378586e-41)
(-7.5173085e-13 -8.7928618e-42 8.7928618e-42)
(-9.4817391e-13 -2.533235e-28 -1.7585724e-41)
(-1.0611236e-12 -4.4331612e-28 -4.4331612e-28)
(-1.0187414e-12 1.1399557e-27 0)
(-1.0286418e-12 5.06647e-28 0)
(-9.095302e-13 -1.8999262e-28 1.8999262e-28)
(-6.3195765e-13 6.3330875e-29 -8.7928618e-42)
(-6.5467242e-13 1.7576724e-41 1.7576724e-41)
(-7.1061066e-13 5.4856238e-43 -1.2197083e-56)
(-8.3287667e-13 0 -6.3330875e-29)
(-7.1705108e-13 0 6.3330875e-29)
(-5.9856106e-13 -1.2666175e-28 -1.2666175e-28)
(-7.4835438e-13 0 0)
(-6.3837166e-13 6.3330875e-29 6.3330875e-29)
(-6.162192e-13 -1.2666175e-28 1.7585724e-41)
(-6.0042345e-13 -2.6999576e-44 -1.8999262e-28)
(-7.5807287e-13 5.2730171e-41 0)
(-5.7067272e-13 0 0)
(-4.8547485e-13 3.7998525e-28 3.7998525e-28)
(-7.5320594e-13 -2.533235e-28 -7.1998869e-44)
(-7.4455098e-13 -6.3330875e-29 6.0985414e-57)
(-6.4821881e-13 8.5528471e-43 4.2764235e-43)
(-8.0182186e-13 -1.2666175e-28 1.2666175e-28)
(-9.592575e-13 1.2666175e-28 -1.7549724e-41)
(-8.2658466e-13 0 1.7585724e-41)
(-6.0101292e-13 0 -3.5153448e-41)
(-6.1263541e-13 1.7704772e-41 1.7712144e-41)
(-5.2236312e-13 -3.5189447e-41 -1.2666175e-28)
(-2.6242738e-13 -1.8999262e-28 5.2757171e-41)
(-3.5515191e-13 0 -7.0378894e-41)
(-3.4360815e-13 0 3.5189447e-41)
(-3.325591e-13 6.3330875e-29 6.3330875e-29)
(-3.9590743e-13 -2.6387585e-41 -6.3330875e-29)
(-2.6701734e-13 8.5528471e-44 -2.3749554e-56)
(-3.1242045e-13 0 1.7621723e-41)
(-4.677237e-13 0 0)
(-3.3494689e-13 0 6.3330875e-29)
(-2.4516352e-13 0 -6.3330875e-29)
(-1.5480672e-13 0 8.7928618e-42)
(-1.6519657e-13 0 -8.9998586e-45)
(-2.7746136e-13 0 8.7928618e-42)
(-3.164779e-13 0 -4.4009309e-41)
(-2.7653717e-13 -6.3330875e-28 -3.1665437e-28)
(-2.7893988e-13 -3.5153448e-41 6.3330875e-29)
(-3.6247386e-13 6.3330875e-29 6.3330875e-29)
(-5.4010979e-13 -8.7882395e-42 -8.7808668e-42)
(-5.4775066e-13 -1.2666175e-28 1.2666175e-28)
(-5.1754607e-13 1.8999262e-28 0)
(-4.8842324e-13 -7.0414894e-41 -2.533235e-28)
(-5.7522346e-13 -3.1665437e-28 -3.1665437e-28)
(-4.2675643e-13 -7.0342895e-41 0)
(-3.5869854e-13 -6.3330875e-29 6.3330875e-29)
(-3.9579203e-13 0 -1.7585724e-41)
(-2.4197407e-13 0 4.4999293e-44)
(-3.3873806e-14 2.533235e-28 3.5135448e-41)
(-9.1178311e-14 5.2757171e-41 -1.8999262e-28)
(-1.7725239e-13 -1.8999262e-28 1.8999262e-28)
(-5.1734338e-14 0 3.5135448e-41)
(-1.101244e-15 0 -7.0342895e-41)
(2.7541497e-13 0 -8.9305417e-42)
(3.7593624e-13 0 1.8999262e-28)
(2.5567029e-13 0 -1.2666175e-28)
(3.6446133e-13 0 8.9998586e-45)
(2.7815196e-13 0 -1.7567724e-41)
(2.8013916e-13 -2.533235e-28 -1.2666175e-28)
(4.2593021e-13 5.2721172e-41 6.3330875e-29)
(3.5435941e-13 1.2666175e-28 -8.7928618e-42)
(5.7813227e-13 -2.533235e-28 -2.533235e-28)
(5.0965835e-13 -2.6999576e-44 0)
(6.3204582e-13 -1.2666175e-28 0)
(6.3452745e-13 3.5117448e-41 0)
(6.79494e-13 1.2666175e-28 6.3330875e-29)
(8.2763038e-13 1.8999262e-28 1.8999262e-28)
(6.4451715e-13 8.5462958e-70 -2.533235e-28)
(5.1424448e-13 -3.7998525e-28 -1.2666175e-28)
(5.1186145e-13 0 0)
(4.6852671e-13 -2.533235e-28 -1.2666175e-28)
(4.2247742e-13 0 -6.3330875e-29)
(3.597579e-13 0 1.1973986e-42)
(2.6530853e-13 -1.2666175e-28 -6.3330875e-29)
(3.0807371e-13 -2.4789383e-54 0)
(2.4260275e-13 -1.8999262e-28 -6.3330875e-29)
(4.5281576e-13 1.2666175e-28 -1.2666175e-28)
(4.6208805e-13 1.8999262e-28 1.8999262e-28)
(3.5825424e-13 -6.3330875e-29 1.7585724e-41)
(3.6854136e-13 -1.2666175e-28 1.2666175e-28)
(4.1992069e-13 1.8999262e-28 0)
(3.9680918e-13 1.7567724e-41 0)
(3.7862921e-13 -1.8999262e-28 0)
(5.7883916e-13 2.533235e-28 0)
(4.8735364e-13 0 -6.4146353e-44)
(2.5016345e-13 -1.2666175e-28 -3.5135448e-41)
(2.3845778e-13 1.8999262e-28 -1.8999262e-28)
(7.1029026e-14 3.7998525e-28 1.8999262e-28)
(1.2498536e-13 -6.3330875e-29 8.7928618e-42)
(1.7511166e-13 6.3330875e-29 8.8018617e-42)
(3.4352567e-13 3.1665437e-28 1.8295624e-56)
(5.1305968e-13 3.1665437e-28 -3.1665437e-28)
(4.0294972e-13 1.2666175e-28 6.3330875e-29)
(4.4406108e-13 -6.3330875e-29 1.2666175e-28)
(3.3958001e-13 1.8999262e-28 2.6378586e-41)
(2.2217294e-13 0 4.1090144e-69)
(9.245634e-14 -6.3330875e-29 6.3330875e-29)
(1.564151e-13 1.8999262e-28 0)
(7.1120023e-14 1.8999262e-28 -1.8999262e-28)
(8.1714248e-14 -1.8999262e-28 -6.3330875e-29)
(3.8991053e-14 3.5999434e-44 -1.2666175e-28)
(2.8955819e-14 -5.06647e-28 -7.0270896e-41)
(-1.1018846e-13 1.8999262e-28 1.8999262e-28)
(-1.0070427e-13 1.1415235e-54 0)
(-8.8561202e-14 -1.2666175e-28 0)
(-4.0110128e-13 3.5999434e-44 1.2666175e-28)
(-2.7592504e-13 1.2666175e-28 -8.783862e-42)
(-3.6446158e-13 6.3330875e-29 6.3330875e-29)
(-3.826473e-13 0 0)
(-3.356241e-13 -1.7585724e-41 -6.3330875e-29)
(-3.6086774e-13 -4.4999293e-44 4.4999293e-44)
(-3.4152667e-13 -3.7998525e-28 -1.0551434e-40)
(-3.5761348e-13 3.7998525e-28 -5.2703172e-41)
(-3.620347e-13 -8.7928618e-41 3.1665437e-28)
(-1.8047062e-13 -8.783862e-42 -6.3330875e-29)
(-1.0278423e-13 1.7999717e-44 -1.7999717e-44)
(-4.1403293e-14 6.3330875e-29 1.7585724e-41)
(-7.6616793e-14 1.8999262e-28 -1.8999262e-28)
(4.7969259e-14 6.0985414e-57 3.1665437e-28)
(8.1494945e-15 -1.7585724e-41 1.7585724e-41)
(-4.1040715e-15 2.6999576e-44 -2.6999576e-44)
(-1.3573176e-13 3.7998525e-28 2.6378586e-41)
(-3.2477554e-13 8.783862e-42 6.3330875e-29)
(-4.0284801e-13 1.2666175e-28 1.2666175e-28)
(-5.0289093e-13 0 0)
(-5.3055139e-13 0 -1.0548734e-40)
(-6.7334207e-13 -2.533235e-28 -3.5135448e-41)
(-5.4372033e-13 -5.2703172e-41 -5.2703172e-41)
(-8.1263398e-13 1.8999262e-28 -2.6999576e-44)
(-8.7907248e-13 -3.7998525e-28 -3.7998525e-28)
(-8.3574852e-13 3.5171447e-41 2.533235e-28)
(-9.3066239e-13 -7.3182497e-56 -7.3182497e-56)
(-9.5963102e-13 -5.2757171e-41 -5.2757171e-41)
(-1.0105853e-12 4.4331612e-28 1.2310007e-40)
(-1.1242226e-12 3.1665437e-28 -4.3964309e-41)
(-9.7792636e-13 2.6351586e-41 3.7998525e-28)
(-9.7980917e-13 -2.533235e-28 -2.533235e-28)
(-8.3613831e-13 0 -1.2666175e-28)
(-4.9926349e-13 0 2.6378586e-41)
(-7.5406666e-13 -2.533235e-28 -3.5171447e-41)
(-7.5073989e-13 2.533235e-28 -5.06647e-28)
(-7.9182435e-13 -3.1632703e-40 3.7998525e-28)
(-9.0559208e-13 -1.8999262e-28 1.8999262e-28)
(-8.2814362e-13 -6.3330875e-29 -6.0985414e-57)
(-8.5010024e-13 0 0)
(-8.8455771e-13 3.1665437e-28 6.0985414e-57)
(-1.0721437e-12 2.533235e-28 -2.533235e-28)
(-9.1419712e-13 -1.2666175e-28 1.2666175e-28)
(-8.4369699e-13 -4.2764235e-43 -4.1180461e-71)
(-8.3502368e-13 0 -1.7567724e-41)
(-5.1912717e-13 1.8999262e-28 -2.6999576e-44)
(-5.7976807e-13 6.3330875e-29 -6.3330875e-29)
(-9.524622e-13 6.6284565e-43 -6.6284565e-43)
(-8.986995e-13 1.2666175e-28 -3.5171447e-41)
(-9.6648326e-13 -1.8999262e-28 1.8999262e-28)
(-1.0101744e-12 -1.8999262e-28 -2.6351586e-41)
(-8.2808395e-13 -1.7567724e-41 1.7567724e-41)
(-1.0517912e-12 1.2829271e-42 1.2829271e-42)
(-7.7060484e-13 -1.7585724e-41 6.3330875e-29)
(-8.3189928e-13 6.3330875e-28 -7.3182497e-56)
(-7.6320753e-13 0 1.5832551e-40)
(-7.885319e-13 0 -3.5189447e-41)
(-9.209264e-13 0 -1.7576724e-41)
(-9.1015179e-13 1.2666175e-28 -3.5171447e-41)
(-9.8871145e-13 1.8999262e-28 -6.0985414e-57)
(-1.0068048e-12 0 0)
(-9.5007731e-13 1.2666175e-28 -1.2666175e-28)
(-9.0474791e-13 -2.6324586e-41 0)
(-1.0828593e-12 1.8999262e-28 0)
(-8.4994605e-13 0 -1.7978685e-41)
(-8.8865045e-13 0 4.5253004e-54)
(-8.5253885e-13 1.8999262e-28 -1.8999262e-28)
(-6.0631157e-13 3.5135448e-41 0)
(-7.0253258e-13 1.4664955e-55 0)
(-8.3179937e-13 6.3330875e-29 1.2666175e-28)
(-6.7074629e-13 -6.3330875e-29 5.2721172e-41)
(-6.3861667e-13 2.6351586e-41 -1.2666175e-28)
(-7.330093e-13 1.2666175e-28 1.2666175e-28)
(-5.2772264e-13 0 -3.5999434e-44)
(-5.3179058e-13 1.8999262e-28 2.6378586e-41)
(-5.8771515e-13 3.5171447e-41 2.533235e-28)
(-4.9638464e-13 -3.1665437e-28 0)
(-6.3854966e-13 1.2666175e-28 0)
(-6.8706222e-13 -6.3330875e-29 0)
(-9.2882315e-13 -8.3390259e-43 8.3390259e-43)
(-1.1539686e-12 1.2615449e-42 3.4994737e-55)
(-7.1032841e-13 0 -3.1538624e-42)
(-8.5113491e-13 -1.8602442e-42 0)
(-8.8454679e-13 -1.2666175e-28 0)
(-8.458868e-13 6.3330875e-29 6.3330875e-29)
(-1.2433771e-12 -2.533235e-28 3.5999434e-44)
(-1.3174384e-12 0 3.7998525e-28)
(-1.3621333e-12 -3.1665437e-28 0)
(-1.2724605e-12 3.7998525e-28 0)
(-1.3435923e-12 4.4331612e-28 -4.4331612e-28)
(-1.3449143e-12 -3.7998525e-28 -1.0540634e-40)
(-1.3346228e-12 -5.06647e-28 -7.0378894e-41)
(-1.1842905e-12 1.0551434e-40 5.2757171e-41)
(-1.1255062e-12 3.7998525e-28 1.2666175e-28)
(-1.0783514e-12 -2.4883213e-86 -1.4112198e-42)
(-1.1581052e-12 6.3330875e-29 -1.7576724e-41)
(-1.0828235e-12 1.2666175e-28 1.7576724e-41)
(-1.26062e-12 3.5135448e-41 1.7567724e-41)
(-1.2845411e-12 2.533235e-28 1.2666175e-28)
(-1.1810434e-12 -1.2666175e-28 0)
(-1.0282576e-12 9.7620473e-43 0)
(-1.0349748e-12 -6.3330875e-29 -6.3330875e-29)
(-1.0537504e-12 -2.533235e-28 4.7644855e-71)
(-7.4725785e-13 1.2666175e-28 6.3330875e-29)
(-6.8519135e-13 0 0)
(-7.9373547e-13 0 0)
(-8.6184475e-13 2.533235e-28 1.2666175e-28)
(-6.7198697e-13 1.392191e-68 2.784382e-68)
(-7.3091333e-13 3.422689e-41 1.7113445e-41)
(-8.3290148e-13 0 0)
(-9.0516727e-13 0 0)
(-7.7680261e-13 1.2666175e-28 6.3330875e-29)
(-8.6270331e-13 -1.4636499e-55 -2.9272999e-55)
(-1.0858358e-12 -6.3330875e-28 -3.1665437e-28)
(-9.5280106e-13 0 0)
(-1.0163586e-12 0 0)
(-1.0130318e-12 8.8663225e-28 4.4331612e-28)
(-1.057316e-12 1.8999262e-28 -2.6999576e-44)
(-1.0861272e-12 -1.2666175e-28 -6.3330875e-29)
(-8.5835182e-13 -1.8999262e-28 1.8999262e-28)
(-7.6462692e-13 0 -3.5189447e-41)
(-9.6150974e-13 -3.2973454e-41 -4.6296375e-54)
(-8.0819179e-13 7.0342895e-41 3.5171447e-41)
(-1.0302612e-12 5.06647e-28 2.533235e-28)
(-9.4518824e-13 -2.533235e-28 0)
(-9.2687355e-13 0 0)
(-8.5314792e-13 1.2666175e-28 0)
(-5.4138023e-13 -1.2666175e-28 0)
(-7.319351e-13 -2.0054639e-58 0)
(-8.5665412e-13 -1.8999262e-28 1.8999262e-28)
(-6.9115507e-13 3.1665437e-28 -8.7883619e-41)
(-5.2142569e-13 -3.1665437e-28 -3.1665437e-28)
(-5.9690631e-13 -2.533235e-28 0)
(-5.4338417e-13 -1.7673434e-41 0)
(-5.4933324e-13 -6.3330875e-29 0)
(-3.109022e-13 -1.7585724e-41 0)
(-5.2472641e-13 -6.3330875e-29 0)
(-5.933367e-13 6.3330875e-29 0)
(-2.9270659e-13 5.2757171e-41 0)
(3.2578556e-14 -3.1665437e-28 3.1665437e-28)
(-7.3693715e-14 2.533235e-28 -1.4061379e-40)
(-1.4345679e-13 2.1382118e-43 2.1382118e-43)
(-2.8765816e-13 6.3330875e-29 0)
(-4.3931254e-13 -1.2666175e-28 0)
(-4.5107754e-13 -3.1665437e-28 0)
(-5.6366683e-13 5.2757171e-41 0)
(-1.8507768e-13 -1.2666175e-28 0)
(-3.0832409e-13 1.1693797e-42 0)
(-3.6515993e-13 2.6999576e-44 0)
(-4.346657e-13 6.3330875e-29 -6.3330875e-29)
(-3.4877525e-13 -6.3330875e-29 1.7576724e-41)
(-4.2622888e-13 1.2666175e-28 1.2666175e-28)
(-5.7714842e-13 1.2666175e-28 0)
(-4.8086358e-13 1.4333378e-42 0)
(-5.4521882e-13 2.533235e-28 1.2666175e-28)
(-4.282799e-13 -3.5189447e-41 -1.7594724e-41)
(-3.1167291e-13 -2.533235e-28 -1.2666175e-28)
(-2.6228405e-13 1.8999262e-28 0)
(-2.7742553e-13 -3.5999434e-44 0)
(-8.3280335e-14 -5.06647e-28 0)
(-2.7090467e-13 -3.5999434e-44 1.2666175e-28)
(-2.0253677e-13 1.8999262e-28 5.2784171e-41)
(-1.1052386e-13 0 -2.533235e-28)
(-2.207388e-13 -3.1665437e-28 0)
(-6.1215422e-14 0 0)
(-2.0857173e-13 -3.1665437e-28 0)
(-1.5719808e-13 0 0)
(-1.6170177e-13 0 0)
(-5.2388421e-14 0 0)
(6.0129984e-14 1.2666175e-28 0)
(-2.7871312e-14 8.4271837e-70 1.2666175e-28)
(1.9935157e-13 -1.8999262e-28 -2.6999576e-44)
(2.0547572e-14 0 -6.3330875e-29)
(1.3282417e-14 6.3330875e-29 0)
(-1.0566998e-13 -5.2757171e-41 0)
(-2.1464118e-13 -2.533235e-28 0)
(-3.0073773e-13 0 0)
(-4.9982102e-13 0 0)